/*--------------------------------*- C++ -*----------------------------------*\
| =========                 |                                                 |
| \\      /  F ield         | OpenFOAM: The Open Source CFD Toolbox           |
|  \\    /   O peration     | Version:  2306                                  |
|   \\  /    A nd           | Website:  www.openfoam.com                      |
|    \\/     M anipulation  |                                                 |
\*---------------------------------------------------------------------------*/
FoamFile
{
    version     2.0;
    format      ascii;
    arch        "LSB;label=32;scalar=64";
    class       volScalarField;
    location    "0.9/phiI";
    object      J;
}
// * * * * * * * * * * * * * * * * * * * * * * * * * * * * * * * * * * * * * //

dimensions      [0 -3 0 0 0 1 0];

internalField   nonuniform List<scalar> 
12000
(
-7.915209e+08
-7.986958e+08
-7.262131e+08
-7.975279e+08
-8.131612e+08
-7.308902e+08
-8.048223e+08
-6.71554e+08
-7.314972e+08
-8.133353e+08
-8.34784e+08
-7.400851e+08
-8.195269e+08
-6.75141e+08
-7.362555e+08
-8.209163e+08
-6.278557e+08
-6.763016e+08
-7.452729e+08
-8.394301e+08
-8.625346e+08
-7.531572e+08
-8.414967e+08
-6.821165e+08
-7.456125e+08
-8.362013e+08
-6.30802e+08
-6.799513e+08
-7.502185e+08
-8.474788e+08
-5.915766e+08
-6.322027e+08
-6.885328e+08
-7.679204e+08
-8.767837e+08
-8.925205e+08
-7.685681e+08
-8.696474e+08
-6.918118e+08
-7.589234e+08
-8.590404e+08
-6.364954e+08
-6.870515e+08
-7.599489e+08
-8.637141e+08
-5.940877e+08
-6.352002e+08
-6.923246e+08
-7.731674e+08
-8.855075e+08
-5.603873e+08
-5.956037e+08
-6.43277e+08
-7.085523e+08
-8.002033e+08
0
-9.163301e+08
-7.831725e+08
-8.999532e+08
-7.027744e+08
-7.746352e+08
-8.882841e+08
-6.44306e+08
-6.969305e+08
-7.738069e+08
-8.879889e+08
-5.989208e+08
-6.409954e+08
-6.99706e+08
-7.834983e+08
-9.031175e+08
-5.625768e+08
-5.981583e+08
-6.463898e+08
-7.125711e+08
-8.058806e+08
0
-5.33026e+08
-5.641448e+08
-6.057615e+08
-6.613316e+08
-7.369766e+08
0
0
-9.323377e+08
-7.932169e+08
-9.239432e+08
-7.123825e+08
-7.895573e+08
-9.196869e+08
-6.529202e+08
-7.08129e+08
-7.901975e+08
-9.190772e+08
-6.054967e+08
-6.489556e+08
-7.09993e+08
-7.98235e+08
-9.294795e+08
-5.667791e+08
-6.030772e+08
-6.52412e+08
-7.204009e+08
-8.17069e+08
0
-5.34967e+08
-5.663718e+08
-6.084129e+08
-6.646273e+08
-7.413171e+08
0
0
-5.086399e+08
-5.365504e+08
-5.735407e+08
-6.222646e+08
-6.868804e+08
0
0
0
-9.418256e+08
-7.991661e+08
-9.400142e+08
-7.181392e+08
-7.998273e+08
-9.444831e+08
-6.600965e+08
-7.180016e+08
-8.058137e+08
-9.524162e+08
-6.126355e+08
-6.577628e+08
-7.216938e+08
-8.157121e+08
-9.632776e+08
-5.724652e+08
-6.097789e+08
-6.606995e+08
-7.313356e+08
-8.330607e+08
0
-5.386847e+08
-5.706481e+08
-6.135222e+08
-6.710096e+08
-7.497825e+08
0
0
-5.103811e+08
-5.385243e+08
-5.758511e+08
-6.250693e+08
-6.904344e+08
0
0
0
-4.866773e+08
-5.119586e+08
-5.452967e+08
-5.8876e+08
-6.455515e+08
0
0
0
0
-9.461956e+08
-8.023785e+08
-9.495088e+08
-7.209328e+08
-8.058905e+08
-9.610439e+08
-6.639394e+08
-7.23959e+08
-8.165759e+08
-9.786929e+08
-6.183855e+08
-6.651606e+08
-7.320818e+08
-8.324292e+08
-9.995188e+08
-5.785726e+08
-6.170798e+08
-6.699075e+08
-7.438241e+08
-8.520878e+08
0
-5.436955e+08
-5.764422e+08
-6.204974e+08
-6.798134e+08
-7.616337e+08
0
0
-5.137105e+08
-5.423068e+08
-5.802909e+08
-6.304796e+08
-6.973244e+08
0
0
0
-4.882541e+08
-5.13729e+08
-5.473436e+08
-5.91202e+08
-6.48572e+08
0
0
0
0
-4.66722e+08
-4.898124e+08
-5.201396e+08
-5.594262e+08
-6.101829e+08
0
0
0
0
0
-9.461956e+08
-8.037799e+08
-9.538722e+08
-7.221098e+08
-8.091465e+08
-9.708012e+08
-6.654192e+08
-7.268653e+08
-8.229164e+08
-9.962007e+08
-6.212032e+08
-6.691764e+08
-7.384021e+08
-8.439719e+08
-1.028051e+09
-5.833783e+08
-6.230174e+08
-6.777169e+08
-7.549978e+08
-8.703699e+08
0
-5.490377e+08
-5.826883e+08
-6.281315e+08
-6.896437e+08
-7.752309e+08
0
0
-5.18185e+08
-5.474118e+08
-5.86319e+08
-6.378843e+08
-7.068547e+08
0
0
0
-4.912647e+08
-5.171157e+08
-5.512688e+08
-5.958995e+08
-6.544051e+08
0
0
0
0
-4.681602e+08
-4.914152e+08
-5.219746e+08
-5.61588e+08
-6.128095e+08
0
0
0
0
0
-4.484723e+08
-4.696915e+08
-4.974953e+08
-5.333251e+08
-5.792727e+08
0
0
0
0
0
9.44963e+08
-9.418256e+08
-8.037799e+08
-9.538722e+08
-7.225162e+08
-8.105598e+08
-9.752771e+08
-6.657862e+08
-7.280944e+08
-8.263072e+08
-1.006494e+09
-6.220434e+08
-6.707575e+08
-7.4151e+08
-8.50765e+08
-1.04703e+09
-5.855727e+08
-6.259835e+08
-6.820218e+08
-7.618561e+08
-8.830211e+08
0
-5.53172e+08
-5.876546e+08
-6.344107e+08
-6.980685e+08
-7.874953e+08
0
0
-5.22929e+08
-5.528743e+08
-5.92849e+08
-6.460331e+08
-7.175541e+08
0
0
0
-4.953016e+08
-5.216734e+08
-5.565777e+08
-6.022944e+08
-6.624119e+08
0
0
0
0
-4.70903e+08
-4.944771e+08
-5.254876e+08
-5.65738e+08
-6.178681e+08
0
0
0
0
0
-4.497923e+08
-4.711533e+08
-4.991559e+08
-5.352617e+08
-5.815952e+08
0
0
0
0
0
9.529082e+08
-4.316897e+08
-4.512916e+08
-4.769306e+08
-5.098521e+08
-5.518104e+08
0
0
0
0
0
8.638294e+08
9.022469e+08
-9.323377e+08
-8.023785e+08
-9.495088e+08
-7.225162e+08
-8.105598e+08
-9.752771e+08
-6.658058e+08
-7.285198e+08
-8.277732e+08
-1.011209e+09
-6.220471e+08
-6.711746e+08
-7.428354e+08
-8.543877e+08
-1.058172e+09
-5.860644e+08
-6.269124e+08
-6.837629e+08
-7.652612e+08
-8.904652e+08
0
-5.549557e+08
-5.89977e+08
-6.376163e+08
-7.027876e+08
-7.950897e+08
0
0
-5.265545e+08
-5.571476e+08
-5.981056e+08
-6.528183e+08
-7.268223e+08
0
0
0
-4.995633e+08
-5.26523e+08
-5.622867e+08
-6.09262e+08
-6.712761e+08
0
0
0
0
-4.74574e+08
-4.985881e+08
-5.302251e+08
-5.713659e+08
-6.247756e+08
0
0
0
0
0
-4.523064e+08
-4.739422e+08
-5.023305e+08
-5.389732e+08
-5.860593e+08
0
0
0
0
0
9.689103e+08
-4.329073e+08
-4.52633e+08
-4.784445e+08
-5.116035e+08
-5.538889e+08
0
0
0
0
0
8.689498e+08
9.096015e+08
-4.161874e+08
-4.343719e+08
-4.581323e+08
-4.885519e+08
-5.271465e+08
0
0
0
0
0
7.943721e+08
8.269226e+08
8.721169e+08
-9.163301e+08
-7.991661e+08
-9.400142e+08
-7.221098e+08
-8.091465e+08
-9.708012e+08
-6.658058e+08
-7.285198e+08
-8.277732e+08
-1.011209e+09
-6.219022e+08
-6.712138e+08
-7.43298e+08
-8.559495e+08
-1.06327e+09
-5.858919e+08
-6.269609e+08
-6.842562e+08
-7.667303e+08
-8.944287e+08
0
-5.552431e+08
-5.905458e+08
-6.386774e+08
-7.047519e+08
-7.988993e+08
0
0
-5.28046e+08
-5.590427e+08
-6.006313e+08
-6.563612e+08
-7.320961e+08
0
0
0
-5.02788e+08
-5.3027e+08
-5.668112e+08
-6.149468e+08
-6.787499e+08
0
0
0
0
-4.784358e+08
-5.029434e+08
-5.352916e+08
-5.774543e+08
-6.323494e+08
0
0
0
0
0
-4.556663e+08
-4.776797e+08
-5.066019e+08
-5.43992e+08
-5.921322e+08
0
0
0
0
0
9.929918e+08
-4.352236e+08
-4.551889e+08
-4.813349e+08
-5.149552e+08
-5.578774e+08
0
0
0
0
0
8.789972e+08
9.244032e+08
-4.173154e+08
-4.35609e+08
-4.595208e+08
-4.901475e+08
-5.290244e+08
0
0
0
0
0
7.982658e+08
8.316866e+08
8.790792e+08
-4.018143e+08
-4.187438e+08
-4.408523e+08
-4.690953e+08
-5.047923e+08
0
0
0
0
0
7.384108e+08
7.62183e+08
8.006762e+08
8.536018e+08
-8.925205e+08
-7.932169e+08
-9.239432e+08
-7.209328e+08
-8.058905e+08
-9.610439e+08
-6.657862e+08
-7.280944e+08
-8.263072e+08
-1.006494e+09
-6.219022e+08
-6.712138e+08
-7.43298e+08
-8.559495e+08
-1.06327e+09
-5.856742e+08
-6.26834e+08
-6.843248e+08
-7.672491e+08
-8.961342e+08
0
-5.549822e+08
-5.904127e+08
-6.387887e+08
-7.053497e+08
-8.005645e+08
0
0
-5.282038e+08
-5.593974e+08
-6.01312e+08
-6.576013e+08
-7.343539e+08
0
0
0
-5.040611e+08
-5.318592e+08
-5.688818e+08
-6.177561e+08
-6.827389e+08
0
0
0
0
-4.813337e+08
-5.062752e+08
-5.392588e+08
-5.823487e+08
-6.386146e+08
0
0
0
0
0
-4.591905e+08
-4.816252e+08
-5.1115e+08
-5.49392e+08
-5.987452e+08
0
0
0
0
0
1.024249e+09
-4.383151e+08
-4.586088e+08
-4.852165e+08
-5.194772e+08
-5.632877e+08
0
0
0
0
0
8.934499e+08
9.466571e+08
-4.194588e+08
-4.379634e+08
-4.621687e+08
-4.931971e+08
-5.326228e+08
0
0
0
0
0
8.058148e+08
8.410295e+08
8.930884e+08
-4.028631e+08
-4.198897e+08
-4.421323e+08
-4.705579e+08
-5.065015e+08
0
0
0
0
0
7.415901e+08
7.658214e+08
8.051977e+08
8.603475e+08
-3.884435e+08
-4.04255e+08
-4.248966e+08
-4.51222e+08
-4.843948e+08
0
0
0
0
0
6.918223e+08
7.098525e+08
7.391539e+08
7.843267e+08
8.456769e+08
-8.625346e+08
-7.831725e+08
-8.999532e+08
-7.181392e+08
-7.998273e+08
-9.444831e+08
-6.654192e+08
-7.268653e+08
-8.229164e+08
-9.962007e+08
-6.220471e+08
-6.711746e+08
-7.428354e+08
-8.543877e+08
-1.058172e+09
-5.856742e+08
-6.26834e+08
-6.843248e+08
-7.672491e+08
-8.961342e+08
0
-5.547333e+08
-5.90211e+08
-6.386861e+08
-7.05458e+08
-8.011607e+08
0
0
-5.278974e+08
-5.59171e+08
-6.012319e+08
-6.577949e+08
-7.350872e+08
0
0
0
-5.041325e+08
-5.320762e+08
-5.69333e+08
-6.18586e+08
-6.8421e+08
0
0
0
0
-4.824365e+08
-5.076349e+08
-5.410018e+08
-5.846633e+08
-6.417965e+08
0
0
0
0
0
-4.618161e+08
-4.846184e+08
-5.146769e+08
-5.536833e+08
-6.041397e+08
0
0
0
0
0
1.057831e+09
-4.415495e+08
-4.622083e+08
-4.893348e+08
-5.243218e+08
-5.691483e+08
0
0
0
0
0
9.109383e+08
9.755104e+08
-4.223162e+08
-4.411094e+08
-4.657191e+08
-4.973039e+08
-5.374931e+08
0
0
0
0
0
8.164473e+08
8.544601e+08
9.141479e+08
-4.048539e+08
-4.220679e+08
-4.445705e+08
-4.7335e+08
-5.097727e+08
0
0
0
0
0
7.477082e+08
7.728719e+08
8.140629e+08
8.739248e+08
-3.894221e+08
-4.053203e+08
-4.260819e+08
-4.525695e+08
-4.859602e+08
0
0
0
0
0
6.945187e+08
7.128338e+08
7.42616e+08
7.887074e+08
8.523588e+08
-3.759732e+08
-3.907773e+08
-4.101086e+08
-4.347284e+08
-4.656754e+08
0
0
0
0
0
6.517591e+08
6.661663e+08
6.893346e+08
7.246736e+08
7.770687e+08
-8.34784e+08
-7.685681e+08
-8.696474e+08
-7.123825e+08
-7.895573e+08
-9.196869e+08
-6.639394e+08
-7.23959e+08
-8.165759e+08
-9.786929e+08
-6.220434e+08
-6.707575e+08
-7.4151e+08
-8.50765e+08
-1.04703e+09
-5.858919e+08
-6.269609e+08
-6.842562e+08
-7.667303e+08
-8.944287e+08
0
-5.547333e+08
-5.90211e+08
-6.386861e+08
-7.05458e+08
-8.011607e+08
0
0
-5.276368e+08
-5.589362e+08
-6.010505e+08
-6.577229e+08
-7.352465e+08
0
0
0
-5.038032e+08
-5.318001e+08
-5.691522e+08
-6.185736e+08
-6.84507e+08
0
0
0
0
-4.824473e+08
-5.077587e+08
-5.413031e+08
-5.852421e+08
-6.428167e+08
0
0
0
0
0
-4.627822e+08
-4.857984e+08
-5.161728e+08
-5.556396e+08
-6.067736e+08
0
0
0
0
0
1.082868e+09
-4.439438e+08
-4.649193e+08
-4.925024e+08
-5.281361e+08
-5.738774e+08
0
0
0
0
0
9.27943e+08
1.006469e+09
-4.252989e+08
-4.444119e+08
-4.694745e+08
-5.016881e+08
-5.427467e+08
0
0
0
0
0
8.288684e+08
8.706993e+08
9.414583e+08
-4.075052e+08
-4.249751e+08
-4.478353e+08
-4.77104e+08
-5.141921e+08
0
0
0
0
0
7.562118e+08
7.827968e+08
8.268045e+08
8.943499e+08
-3.912774e+08
-4.073431e+08
-4.283369e+08
-4.55139e+08
-4.889528e+08
0
0
0
0
0
6.996812e+08
7.18568e+08
7.493229e+08
7.972971e+08
8.658183e+08
-3.76889e+08
-3.917711e+08
-4.112101e+08
-4.359755e+08
-4.671166e+08
0
0
0
0
0
6.541002e+08
6.687023e+08
6.921778e+08
7.280302e+08
7.813975e+08
-3.643119e+08
-3.78208e+08
-3.963565e+08
-4.194503e+08
-4.484166e+08
0
0
0
0
0
6.165863e+08
6.285069e+08
6.476753e+08
6.763532e+08
7.181014e+08
-8.131612e+08
-7.531572e+08
-8.414967e+08
-7.027744e+08
-7.746352e+08
-8.882841e+08
-6.600965e+08
-7.180016e+08
-8.058137e+08
-9.524162e+08
-6.212032e+08
-6.691764e+08
-7.384021e+08
-8.439719e+08
-1.028051e+09
-5.860644e+08
-6.269124e+08
-6.837629e+08
-7.652612e+08
-8.904652e+08
0
-5.549822e+08
-5.904127e+08
-6.387887e+08
-7.053497e+08
-8.005645e+08
0
0
-5.276368e+08
-5.589362e+08
-6.010505e+08
-6.577229e+08
-7.352465e+08
0
0
0
-5.035407e+08
-5.315519e+08
-5.689348e+08
-6.184172e+08
-6.844727e+08
0
0
0
0
-4.821078e+08
-5.074563e+08
-5.410667e+08
-5.851188e+08
-6.42888e+08
0
0
0
0
0
-4.627494e+08
-4.85856e+08
-5.163711e+08
-5.56052e+08
-6.075141e+08
0
0
0
0
0
1.098387e+09
-4.447973e+08
-4.659548e+08
-4.938041e+08
-5.298207e+08
-5.76112e+08
0
0
0
0
0
9.393091e+08
1.029458e+09
-4.274941e+08
-4.468833e+08
-4.723426e+08
-5.051129e+08
-5.46949e+08
0
0
0
0
0
8.402852e+08
8.864744e+08
9.707757e+08
-4.102671e+08
-4.280198e+08
-4.512794e+08
-4.810997e+08
-5.189428e+08
0
0
0
0
0
7.659203e+08
7.943834e+08
8.422096e+08
9.208781e+08
-3.937457e+08
-4.1004e+08
-4.313526e+08
-4.585891e+08
-4.929893e+08
0
0
0
0
0
7.067899e+08
7.26534e+08
7.58762e+08
8.096462e+08
8.860968e+08
-3.786229e+08
-3.936559e+08
-4.133035e+08
-4.383506e+08
-4.698684e+08
0
0
0
0
0
6.585656e+08
6.735553e+08
6.976449e+08
7.345326e+08
7.898885e+08
-3.651712e+08
-3.791378e+08
-3.973837e+08
-4.206086e+08
-4.497493e+08
0
0
0
0
0
6.18654e+08
6.307144e+08
6.500987e+08
6.791125e+08
7.214151e+08
-3.533881e+08
-3.664547e+08
-3.835345e+08
-4.052497e+08
-4.324425e+08
0
0
0
0
0
5.851988e+08
5.953706e+08
6.117064e+08
6.359248e+08
6.703842e+08
-7.986958e+08
-7.400851e+08
-8.195269e+08
-6.918118e+08
-7.589234e+08
-8.590404e+08
-6.529202e+08
-7.08129e+08
-7.901975e+08
-9.190772e+08
-6.183855e+08
-6.651606e+08
-7.320818e+08
-8.324292e+08
-9.995188e+08
-5.855727e+08
-6.259835e+08
-6.820218e+08
-7.618561e+08
-8.830211e+08
0
-5.552431e+08
-5.905458e+08
-6.386774e+08
-7.047519e+08
-7.988993e+08
0
0
-5.278974e+08
-5.59171e+08
-6.012319e+08
-6.577949e+08
-7.350872e+08
0
0
0
-5.035407e+08
-5.315519e+08
-5.689348e+08
-6.184172e+08
-6.844727e+08
0
0
0
0
-4.818482e+08
-5.072047e+08
-5.408337e+08
-5.849224e+08
-6.427615e+08
0
0
0
0
0
-4.62407e+08
-4.855405e+08
-5.161038e+08
-5.558655e+08
-6.074611e+08
0
0
0
0
0
1.107009e+09
-4.447322e+08
-4.659641e+08
-4.939283e+08
-5.301172e+08
-5.766647e+08
0
0
0
0
0
9.455346e+08
1.043652e+09
-4.282534e+08
-4.477995e+08
-4.734876e+08
-5.065832e+08
-5.488795e+08
0
0
0
0
0
8.473074e+08
8.969857e+08
9.924829e+08
-4.122887e+08
-4.302849e+08
-4.538932e+08
-4.841997e+08
-5.227145e+08
0
0
0
0
0
7.745071e+08
8.050233e+08
8.571738e+08
9.49421e+08
-3.963123e+08
-4.128585e+08
-4.345267e+08
-4.622515e+08
-4.973158e+08
0
0
0
0
0
7.147727e+08
7.356223e+08
7.697791e+08
8.245873e+08
9.125074e+08
-3.809278e+08
-3.961663e+08
-4.161001e+08
-4.415359e+08
-4.735753e+08
0
0
0
0
0
6.646714e+08
6.802345e+08
7.052376e+08
7.436848e+08
8.021046e+08
-3.667963e+08
-3.808991e+08
-3.993336e+08
-4.228125e+08
-4.522911e+08
0
0
0
0
0
6.225869e+08
6.349231e+08
6.547348e+08
6.844176e+08
7.278356e+08
-3.541964e+08
-3.673271e+08
-3.844953e+08
-4.063294e+08
-4.336796e+08
0
0
0
0
0
5.870482e+08
5.97325e+08
6.138198e+08
6.382791e+08
6.731077e+08
-3.431346e+08
-3.554453e+08
-3.715479e+08
-3.920158e+08
-4.176063e+08
0
0
0
0
0
5.568651e+08
5.657394e+08
5.800102e+08
6.00995e+08
6.304769e+08
-7.915209e+08
-7.308902e+08
-8.048223e+08
-6.821165e+08
-7.456125e+08
-8.362013e+08
-6.44306e+08
-6.969305e+08
-7.738069e+08
-8.879889e+08
-6.126355e+08
-6.577628e+08
-7.216938e+08
-8.157121e+08
-9.632776e+08
-5.833783e+08
-6.230174e+08
-6.777169e+08
-7.549978e+08
-8.703699e+08
0
-5.549557e+08
-5.89977e+08
-6.376163e+08
-7.027876e+08
-7.950897e+08
0
0
-5.282038e+08
-5.593974e+08
-6.01312e+08
-6.576013e+08
-7.343539e+08
0
0
0
-5.038032e+08
-5.318001e+08
-5.691522e+08
-6.185736e+08
-6.84507e+08
0
0
0
0
-4.818482e+08
-5.072047e+08
-5.408337e+08
-5.849224e+08
-6.427615e+08
0
0
0
0
0
-4.621529e+08
-4.852907e+08
-5.158656e+08
-5.556506e+08
-6.072895e+08
0
0
0
0
0
1.110815e+09
-4.443912e+08
-4.656432e+08
-4.936441e+08
-5.298937e+08
-5.765388e+08
0
0
0
0
0
9.486182e+08
1.051515e+09
-4.28164e+08
-4.477725e+08
-4.735569e+08
-5.06795e+08
-5.492995e+08
0
0
0
0
0
8.506695e+08
9.027257e+08
1.005855e+09
-4.129679e+08
-4.311013e+08
-4.549088e+08
-4.854966e+08
-5.244043e+08
0
0
0
0
0
7.794656e+08
8.115487e+08
8.671163e+08
9.705221e+08
-3.981814e+08
-4.149439e+08
-4.369215e+08
-4.650757e+08
-5.007284e+08
0
0
0
0
0
7.21634e+08
7.43652e+08
7.798918e+08
8.39114e+08
9.410353e+08
-3.833203e+08
-3.987848e+08
-4.190373e+08
-4.449093e+08
-4.775382e+08
0
0
0
0
0
6.714411e+08
6.877291e+08
7.13897e+08
7.543702e+08
8.169049e+08
-3.689546e+08
-3.832428e+08
-4.019359e+08
-4.257647e+08
-4.55711e+08
0
0
0
0
0
6.279351e+08
6.406748e+08
6.611135e+08
6.917854e+08
7.368761e+08
-3.557228e+08
-3.689775e+08
-3.863169e+08
-4.083812e+08
-4.360365e+08
0
0
0
0
0
5.905583e+08
6.010404e+08
6.178475e+08
6.427822e+08
6.783445e+08
-3.438965e+08
-3.562657e+08
-3.724492e+08
-3.930252e+08
-4.187586e+08
0
0
0
0
0
5.585358e+08
5.67491e+08
5.818842e+08
6.030501e+08
6.328009e+08
-3.334946e+08
-3.451119e+08
-3.603226e+08
-3.796496e+08
-4.037895e+08
0
0
0
0
0
5.310493e+08
5.389393e+08
5.516261e+08
5.701918e+08
5.960009e+08
-7.262131e+08
-7.975279e+08
-6.75141e+08
-7.362555e+08
-8.209163e+08
-6.364954e+08
-6.870515e+08
-7.599489e+08
-8.637141e+08
-6.054967e+08
-6.489556e+08
-7.09993e+08
-7.98235e+08
-9.294795e+08
-5.785726e+08
-6.170798e+08
-6.699075e+08
-7.438241e+08
-8.520878e+08
0
-5.53172e+08
-5.876546e+08
-6.344107e+08
-6.980685e+08
-7.874953e+08
0
0
-5.28046e+08
-5.590427e+08
-6.006313e+08
-6.563612e+08
-7.320961e+08
0
0
0
-5.041325e+08
-5.320762e+08
-5.69333e+08
-6.18586e+08
-6.8421e+08
0
0
0
0
-4.821078e+08
-5.074563e+08
-5.410667e+08
-5.851188e+08
-6.42888e+08
0
0
0
0
0
-4.621529e+08
-4.852907e+08
-5.158656e+08
-5.556506e+08
-6.072895e+08
0
0
0
0
0
1.110815e+09
-4.44144e+08
-4.653979e+08
-4.934061e+08
-5.296714e+08
-5.76345e+08
0
0
0
0
0
9.498681e+08
1.054979e+09
-4.278273e+08
-4.474511e+08
-4.732642e+08
-5.065498e+08
-5.491293e+08
0
0
0
0
0
8.520483e+08
9.055619e+08
1.013251e+09
-4.128599e+08
-4.310466e+08
-4.549361e+08
-4.856446e+08
-5.247263e+08
0
0
0
0
0
7.815567e+08
8.14663e+08
8.725341e+08
9.835122e+08
-3.987917e+08
-4.156753e+08
-4.378285e+08
-4.66229e+08
-5.02223e+08
0
0
0
0
0
7.254014e+08
7.482746e+08
7.860747e+08
8.487421e+08
9.621217e+08
-3.850539e+08
-4.007123e+08
-4.212415e+08
-4.474961e+08
-4.80646e+08
0
0
0
0
0
6.771296e+08
6.941627e+08
7.21542e+08
7.641805e+08
8.313199e+08
-3.711913e+08
-3.856831e+08
-4.046638e+08
-4.288849e+08
-4.593589e+08
0
0
0
0
0
6.338046e+08
6.470466e+08
6.682676e+08
7.001886e+08
7.474391e+08
-3.577486e+08
-3.711718e+08
-3.887457e+08
-4.11127e+08
-4.392041e+08
0
0
0
0
0
5.9531e+08
6.060901e+08
6.233502e+08
6.489775e+08
6.856189e+08
-3.453334e+08
-3.578158e+08
-3.741556e+08
-3.949411e+08
-4.209515e+08
0
0
0
0
0
5.617012e+08
5.708141e+08
5.854459e+08
6.069662e+08
6.372463e+08
-3.342144e+08
-3.458852e+08
-3.611698e+08
-3.805959e+08
-4.048661e+08
0
0
0
0
0
5.325705e+08
5.405247e+08
5.533084e+08
5.720158e+08
5.9803e+08
-3.244203e+08
-3.353974e+08
-3.497887e+08
-3.680733e+08
-3.90887e+08
0
0
0
0
0
5.073561e+08
5.144764e+08
5.25919e+08
5.425862e+08
5.655957e+08
-6.71554e+08
-7.314972e+08
-8.133353e+08
-6.30802e+08
-6.799513e+08
-7.502185e+08
-8.474788e+08
-5.989208e+08
-6.409954e+08
-6.99706e+08
-7.834983e+08
-9.031175e+08
-5.724652e+08
-6.097789e+08
-6.606995e+08
-7.313356e+08
-8.330607e+08
0
-5.490377e+08
-5.826883e+08
-6.281315e+08
-6.896437e+08
-7.752309e+08
0
0
-5.265545e+08
-5.571476e+08
-5.981056e+08
-6.528183e+08
-7.268223e+08
0
0
0
-5.040611e+08
-5.318592e+08
-5.688818e+08
-6.177561e+08
-6.827389e+08
0
0
0
0
-4.824473e+08
-5.077587e+08
-5.413031e+08
-5.852421e+08
-6.428167e+08
0
0
0
0
0
-4.62407e+08
-4.855405e+08
-5.161038e+08
-5.558655e+08
-6.074611e+08
0
0
0
0
0
1.107009e+09
-4.44144e+08
-4.653979e+08
-4.934061e+08
-5.296714e+08
-5.76345e+08
0
0
0
0
0
9.498681e+08
1.054979e+09
-4.275875e+08
-4.472118e+08
-4.730295e+08
-5.063259e+08
-5.489254e+08
0
0
0
0
0
8.525036e+08
9.067097e+08
1.016507e+09
-4.12529e+08
-4.307277e+08
-4.546401e+08
-4.85387e+08
-5.245283e+08
0
0
0
0
0
7.822192e+08
8.159357e+08
8.752081e+08
9.906987e+08
-3.986696e+08
-4.155992e+08
-4.378234e+08
-4.663278e+08
-5.024701e+08
0
0
0
0
0
7.268088e+08
7.502161e+08
7.890169e+08
8.539825e+08
9.751159e+08
-3.856042e+08
-4.013707e+08
-4.220559e+08
-4.485288e+08
-4.819786e+08
0
0
0
0
0
6.801235e+08
6.976834e+08
7.259276e+08
7.70159e+08
8.408551e+08
-3.728042e+08
-3.874705e+08
-4.067005e+08
-4.312651e+08
-4.622044e+08
0
0
0
0
0
6.386466e+08
6.52393e+08
6.744026e+08
7.076052e+08
7.571435e+08
-3.598445e+08
-3.734527e+08
-3.91287e+08
-4.140235e+08
-4.42576e+08
0
0
0
0
0
6.004809e+08
6.116271e+08
6.294428e+08
6.559252e+08
6.939193e+08
-3.47239e+08
-3.59875e+08
-3.764288e+08
-3.975027e+08
-4.238958e+08
0
0
0
0
0
5.659702e+08
5.7531e+08
5.902848e+08
6.123157e+08
6.43363e+08
-3.355698e+08
-3.473441e+08
-3.62772e+08
-3.823899e+08
-4.069125e+08
0
0
0
0
0
5.354488e+08
5.435273e+08
5.564987e+08
5.75482e+08
6.018968e+08
-3.251016e+08
-3.361278e+08
-3.50587e+08
-3.689626e+08
-3.918957e+08
0
0
0
0
0
5.087503e+08
5.159226e+08
5.274438e+08
5.442251e+08
5.673973e+08
-3.158681e+08
-3.262533e+08
-3.398876e+08
-3.572142e+08
-3.788157e+08
0
0
0
0
0
4.854778e+08
4.919864e+08
5.024234e+08
5.17565e+08
5.383422e+08
-6.278557e+08
-6.763016e+08
-7.452729e+08
-8.394301e+08
-5.940877e+08
-6.352002e+08
-6.923246e+08
-7.731674e+08
-8.855075e+08
-5.667791e+08
-6.030772e+08
-6.52412e+08
-7.204009e+08
-8.17069e+08
0
-5.436955e+08
-5.764422e+08
-6.204974e+08
-6.798134e+08
-7.616337e+08
0
0
-5.22929e+08
-5.528743e+08
-5.92849e+08
-6.460331e+08
-7.175541e+08
0
0
0
-5.02788e+08
-5.3027e+08
-5.668112e+08
-6.149468e+08
-6.787499e+08
0
0
0
0
-4.824365e+08
-5.076349e+08
-5.410018e+08
-5.846633e+08
-6.417965e+08
0
0
0
0
0
-4.627494e+08
-4.85856e+08
-5.163711e+08
-5.56052e+08
-6.075141e+08
0
0
0
0
0
1.098387e+09
-4.443912e+08
-4.656432e+08
-4.936441e+08
-5.298937e+08
-5.765388e+08
0
0
0
0
0
9.486182e+08
1.051515e+09
-4.275875e+08
-4.472118e+08
-4.730295e+08
-5.063259e+08
-5.489254e+08
0
0
0
0
0
8.525036e+08
9.067097e+08
1.016507e+09
-4.12297e+08
-4.304952e+08
-4.544105e+08
-4.85165e+08
-5.243209e+08
0
0
0
0
0
7.823521e+08
8.163543e+08
8.762898e+08
9.938643e+08
-3.983455e+08
-4.152845e+08
-4.375276e+08
-4.660637e+08
-5.022549e+08
0
0
0
0
0
7.271119e+08
7.508264e+08
7.902161e+08
8.565701e+08
9.823186e+08
-3.85471e+08
-4.012778e+08
-4.220252e+08
-4.485888e+08
-4.821671e+08
0
0
0
0
0
6.81115e+08
6.989909e+08
7.277613e+08
7.729968e+08
8.460439e+08
-3.733022e+08
-3.880652e+08
-4.074353e+08
-4.321948e+08
-4.634005e+08
0
0
0
0
0
6.411035e+08
6.551961e+08
6.777463e+08
7.118429e+08
7.630382e+08
-3.61349e+08
-3.751154e+08
-3.931753e+08
-4.162223e+08
-4.451933e+08
0
0
0
0
0
6.046806e+08
6.161871e+08
6.345483e+08
6.618789e+08
7.012449e+08
-3.492077e+08
-3.62012e+08
-3.788034e+08
-4.001999e+08
-4.270241e+08
0
0
0
0
0
5.705827e+08
5.801979e+08
5.955873e+08
6.182373e+08
6.50224e+08
-3.373659e+08
-3.492809e+08
-3.649047e+08
-3.847865e+08
-4.096577e+08
0
0
0
0
0
5.393182e+08
5.475744e+08
5.608135e+08
5.801904e+08
6.071794e+08
-3.263826e+08
-3.375038e+08
-3.520947e+08
-3.706463e+08
-3.938108e+08
0
0
0
0
0
5.113857e+08
5.186578e+08
5.303306e+08
5.473327e+08
5.708208e+08
-3.165142e+08
-3.269445e+08
-3.406415e+08
-3.580518e+08
-3.797631e+08
0
0
0
0
0
4.867627e+08
4.93314e+08
5.038161e+08
5.190518e+08
5.399616e+08
-3.077983e+08
-3.176356e+08
-3.305695e+08
-3.47011e+08
-3.674984e+08
0
0
0
0
0
4.651744e+08
4.711853e+08
4.807957e+08
4.94679e+08
5.136347e+08
-5.915766e+08
-6.322027e+08
-6.885328e+08
-7.679204e+08
-8.767837e+08
-5.625768e+08
-5.981583e+08
-6.463898e+08
-7.125711e+08
-8.058806e+08
0
-5.386847e+08
-5.706481e+08
-6.135222e+08
-6.710096e+08
-7.497825e+08
0
0
-5.18185e+08
-5.474118e+08
-5.86319e+08
-6.378843e+08
-7.068547e+08
0
0
0
-4.995633e+08
-5.26523e+08
-5.622867e+08
-6.09262e+08
-6.712761e+08
0
0
0
0
-4.813337e+08
-5.062752e+08
-5.392588e+08
-5.823487e+08
-6.386146e+08
0
0
0
0
0
-4.627822e+08
-4.857984e+08
-5.161728e+08
-5.556396e+08
-6.067736e+08
0
0
0
0
0
1.082868e+09
-4.447322e+08
-4.659641e+08
-4.939283e+08
-5.301172e+08
-5.766647e+08
0
0
0
0
0
9.455346e+08
1.043652e+09
-4.278273e+08
-4.474511e+08
-4.732642e+08
-5.065498e+08
-5.491293e+08
0
0
0
0
0
8.520483e+08
9.055619e+08
1.013251e+09
-4.12297e+08
-4.304952e+08
-4.544105e+08
-4.85165e+08
-5.243209e+08
0
0
0
0
0
7.823521e+08
8.163543e+08
8.762898e+08
9.938643e+08
-3.981213e+08
-4.150592e+08
-4.373039e+08
-4.658455e+08
-5.020477e+08
0
0
0
0
0
7.270912e+08
7.509463e+08
7.906095e+08
8.57618e+08
9.854969e+08
-3.851543e+08
-4.009687e+08
-4.217319e+08
-4.483221e+08
-4.819414e+08
0
0
0
0
0
6.812156e+08
6.992668e+08
7.283334e+08
7.74152e+08
8.486109e+08
-3.731605e+08
-3.87959e+08
-4.073843e+08
-4.322238e+08
-4.635423e+08
0
0
0
0
0
6.418236e+08
6.561166e+08
6.789798e+08
7.136067e+08
7.658301e+08
-3.618007e+08
-3.756545e+08
-3.938407e+08
-4.170632e+08
-4.462728e+08
0
0
0
0
0
6.067434e+08
6.184911e+08
6.37213e+08
6.65109e+08
7.054127e+08
-3.506144e+08
-3.635626e+08
-3.805596e+08
-4.02238e+08
-4.294412e+08
0
0
0
0
0
5.74279e+08
5.841606e+08
5.999478e+08
6.231945e+08
6.561007e+08
-3.392188e+08
-3.512878e+08
-3.671289e+08
-3.873057e+08
-4.125693e+08
0
0
0
0
0
5.434729e+08
5.519427e+08
5.655012e+08
5.853485e+08
6.130273e+08
-3.28079e+08
-3.39329e+08
-3.541e+08
-3.728938e+08
-3.963777e+08
0
0
0
0
0
5.149185e+08
5.223326e+08
5.3422e+08
5.515348e+08
5.754717e+08
-3.177271e+08
-3.282449e+08
-3.42063e+08
-3.596356e+08
-3.815595e+08
0
0
0
0
0
4.891895e+08
4.958226e+08
5.064493e+08
5.218662e+08
5.43032e+08
-3.08412e+08
-3.182911e+08
-3.312829e+08
-3.478016e+08
-3.683903e+08
0
0
0
0
0
4.663641e+08
4.724108e+08
4.820758e+08
4.96038e+08
5.151042e+08
-3.001763e+08
-3.095043e+08
-3.217894e+08
-3.374116e+08
-3.568701e+08
0
0
0
0
0
4.462509e+08
4.518517e+08
4.607684e+08
4.735967e+08
4.910297e+08
-5.603873e+08
-5.956037e+08
-6.43277e+08
-7.085523e+08
-8.002033e+08
0
-5.34967e+08
-5.663718e+08
-6.084129e+08
-6.646273e+08
-7.413171e+08
0
0
-5.137105e+08
-5.423068e+08
-5.802909e+08
-6.304796e+08
-6.973244e+08
0
0
0
-4.953016e+08
-5.216734e+08
-5.565777e+08
-6.022944e+08
-6.624119e+08
0
0
0
0
-4.784358e+08
-5.029434e+08
-5.352916e+08
-5.774543e+08
-6.323494e+08
0
0
0
0
0
-4.618161e+08
-4.846184e+08
-5.146769e+08
-5.536833e+08
-6.041397e+08
0
0
0
0
0
1.057831e+09
-4.447973e+08
-4.659548e+08
-4.938041e+08
-5.298207e+08
-5.76112e+08
0
0
0
0
0
9.393091e+08
1.029458e+09
-4.28164e+08
-4.477725e+08
-4.735569e+08
-5.06795e+08
-5.492995e+08
0
0
0
0
0
8.506695e+08
9.027257e+08
1.005855e+09
-4.12529e+08
-4.307277e+08
-4.546401e+08
-4.85387e+08
-5.245283e+08
0
0
0
0
0
7.822192e+08
8.159357e+08
8.752081e+08
9.906987e+08
-3.981213e+08
-4.150592e+08
-4.373039e+08
-4.658455e+08
-5.020477e+08
0
0
0
0
0
7.270912e+08
7.509463e+08
7.906095e+08
8.57618e+08
9.854969e+08
-3.849377e+08
-4.007506e+08
-4.215146e+08
-4.481088e+08
-4.817366e+08
0
0
0
0
0
6.81114e+08
6.992434e+08
7.284436e+08
7.745309e+08
8.496531e+08
-3.728515e+08
-3.876562e+08
-4.070949e+08
-4.319571e+08
-4.633107e+08
0
0
0
0
0
6.418026e+08
6.562031e+08
6.792343e+08
7.141532e+08
7.669665e+08
-3.616523e+08
-3.755379e+08
-3.937732e+08
-4.170672e+08
-4.463769e+08
0
0
0
0
0
6.072755e+08
6.191586e+08
6.380798e+08
6.662922e+08
7.071393e+08
-3.510249e+08
-3.640525e+08
-3.811643e+08
-4.030015e+08
-4.304201e+08
0
0
0
0
0
5.760419e+08
5.860978e+08
6.021399e+08
6.257686e+08
6.592728e+08
-3.405368e+08
-3.527374e+08
-3.687665e+08
-3.892008e+08
-4.148091e+08
0
0
0
0
0
5.467637e+08
5.554365e+08
5.692953e+08
5.89585e+08
6.179192e+08
-3.298265e+08
-3.412176e+08
-3.561882e+08
-3.752526e+08
-3.990957e+08
0
0
0
0
0
5.186913e+08
5.262743e+08
5.384151e+08
5.560986e+08
5.805666e+08
-3.193321e+08
-3.299685e+08
-3.439525e+08
-3.617481e+08
-3.839656e+08
0
0
0
0
0
4.924349e+08
4.991834e+08
5.099855e+08
5.256573e+08
5.471841e+08
-3.095623e+08
-3.195221e+08
-3.326259e+08
-3.492944e+08
-3.700793e+08
0
0
0
0
0
4.686101e+08
4.747245e+08
4.844938e+08
4.986073e+08
5.178859e+08
-3.007603e+08
-3.10127e+08
-3.224657e+08
-3.381595e+08
-3.577115e+08
0
0
0
0
0
4.473571e+08
4.529881e+08
4.619514e+08
4.748469e+08
4.923735e+08
-2.92975e+08
-3.018246e+08
-3.135062e+08
-3.283692e+08
-3.468754e+08
0
0
0
0
0
4.285511e+08
4.338055e+08
4.421329e+08
4.540605e+08
4.702006e+08
-5.33026e+08
-5.641448e+08
-6.057615e+08
-6.613316e+08
-7.369766e+08
0
0
-5.103811e+08
-5.385243e+08
-5.758511e+08
-6.250693e+08
-6.904344e+08
0
0
0
-4.912647e+08
-5.171157e+08
-5.512688e+08
-5.958995e+08
-6.544051e+08
0
0
0
0
-4.74574e+08
-4.985881e+08
-5.302251e+08
-5.713659e+08
-6.247756e+08
0
0
0
0
0
-4.591905e+08
-4.816252e+08
-5.1115e+08
-5.49392e+08
-5.987452e+08
0
0
0
0
0
1.024249e+09
-4.439438e+08
-4.649193e+08
-4.925024e+08
-5.281361e+08
-5.738774e+08
0
0
0
0
0
9.27943e+08
1.006469e+09
-4.282534e+08
-4.477995e+08
-4.734876e+08
-5.065832e+08
-5.488795e+08
0
0
0
0
0
8.473074e+08
8.969857e+08
9.924829e+08
-4.128599e+08
-4.310466e+08
-4.549361e+08
-4.856446e+08
-5.247263e+08
0
0
0
0
0
7.815567e+08
8.14663e+08
8.725341e+08
9.835122e+08
-3.983455e+08
-4.152845e+08
-4.375276e+08
-4.660637e+08
-5.022549e+08
0
0
0
0
0
7.271119e+08
7.508264e+08
7.902161e+08
8.565701e+08
9.823186e+08
-3.849377e+08
-4.007506e+08
-4.215146e+08
-4.481088e+08
-4.817366e+08
0
0
0
0
0
6.81114e+08
6.992434e+08
7.284436e+08
7.745309e+08
8.496531e+08
-3.726423e+08
-3.874452e+08
-4.068842e+08
-4.317494e+08
-4.631096e+08
0
0
0
0
0
6.416563e+08
6.561036e+08
6.79208e+08
7.142567e+08
7.673398e+08
-3.613511e+08
-3.752418e+08
-3.934886e+08
-4.168023e+08
-4.461423e+08
0
0
0
0
0
6.071774e+08
6.191308e+08
6.381541e+08
6.665308e+08
7.076709e+08
-3.508713e+08
-3.639275e+08
-3.810836e+08
-4.02985e+08
-4.304932e+08
0
0
0
0
0
5.764387e+08
5.865894e+08
6.027666e+08
6.265973e+08
6.604259e+08
-3.409104e+08
-3.531837e+08
-3.693174e+08
-3.898966e+08
-4.157001e+08
0
0
0
0
0
5.482913e+08
5.570941e+08
5.711399e+08
5.917028e+08
6.204449e+08
-3.310638e+08
-3.425756e+08
-3.577189e+08
-3.770194e+08
-4.01178e+08
0
0
0
0
0
5.21649e+08
5.293898e+08
5.417643e+08
5.597873e+08
5.847471e+08
-3.209832e+08
-3.317493e+08
-3.45917e+08
-3.639619e+08
-3.865093e+08
0
0
0
0
0
4.958842e+08
5.027687e+08
5.137758e+08
5.297447e+08
5.516932e+08
-3.110834e+08
-3.211527e+08
-3.344098e+08
-3.512841e+08
-3.723397e+08
0
0
0
0
0
4.716071e+08
4.778168e+08
4.877319e+08
5.02057e+08
5.216331e+08
-3.018529e+08
-3.112943e+08
-3.237369e+08
-3.395694e+08
-3.593027e+08
0
0
0
0
0
4.494447e+08
4.551326e+08
4.641842e+08
4.77208e+08
4.949138e+08
-2.935315e+08
-3.02417e+08
-3.141483e+08
-3.290778e+08
-3.476709e+08
0
0
0
0
0
4.295833e+08
4.348636e+08
4.432311e+08
4.552166e+08
4.714371e+08
-2.861638e+08
-2.94569e+08
-3.05684e+08
-3.198407e+08
-3.374647e+08
0
0
0
0
0
4.119414e+08
4.169026e+08
4.247194e+08
4.358691e+08
4.508934e+08
-5.086399e+08
-5.365504e+08
-5.735407e+08
-6.222646e+08
-6.868804e+08
0
0
0
-4.882541e+08
-5.13729e+08
-5.473436e+08
-5.91202e+08
-6.48572e+08
0
0
0
0
-4.70903e+08
-4.944771e+08
-5.254876e+08
-5.65738e+08
-6.178681e+08
0
0
0
0