/*--------------------------------*- C++ -*----------------------------------*\
| =========                 |                                                 |
| \\      /  F ield         | OpenFOAM: The Open Source CFD Toolbox           |
|  \\    /   O peration     | Version:  2306                                  |
|   \\  /    A nd           | Website:  www.openfoam.com                      |
|    \\/     M anipulation  |                                                 |
\*---------------------------------------------------------------------------*/
FoamFile
{
    version     2.0;
    format      ascii;
    arch        "LSB;label=32;scalar=64";
    class       volScalarField;
    location    "0.9/phiI";
    object      T;
}
// * * * * * * * * * * * * * * * * * * * * * * * * * * * * * * * * * * * * * //

dimensions      [0 0 0 1 0 0 0];

internalField   nonuniform List<scalar> 
12000
(
1150.559
1150.412
1152.339
1150.631
1150.07
1152.329
1150.484
1153.976
1152.401
1150.687
1149.425
1152.307
1150.142
1154.005
1152.392
1150.541
1155.506
1154.029
1152.45
1150.729
1148.315
1152.261
1149.5
1154.069
1152.369
1150.2
1155.545
1154.058
1152.44
1150.583
1156.97
1155.551
1154.07
1152.484
1150.755
1146.637
1152.177
1148.4
1154.183
1152.322
1149.561
1155.634
1154.122
1152.417
1150.243
1157.012
1155.59
1154.098
1152.475
1150.609
1158.384
1157.009
1155.585
1154.098
1152.505
1150.764
1144.703
1152.023
1146.744
1154.368
1152.235
1148.469
1155.796
1154.234
1152.369
1149.606
1157.107
1155.679
1154.161
1152.451
1150.269
1158.425
1157.051
1155.624
1154.126
1152.495
1150.617
1159.75
1158.417
1157.037
1155.607
1154.113
1152.509
1150.771
1142.93
1151.73
1144.84
1154.615
1152.076
1146.835
1156.06
1154.415
1152.279
1148.523
1157.278
1155.839
1154.273
1152.401
1149.635
1158.518
1157.145
1155.712
1154.188
1152.47
1150.278
1159.79
1158.458
1157.079
1155.646
1154.14
1152.499
1150.624
1161.07
1159.779
1158.441
1157.054
1155.616
1154.113
1152.513
1150.778
1141.616
1151.369
1143.094
1154.791
1151.785
1144.959
1156.428
1154.653
1152.115
1146.91
1157.56
1156.099
1154.449
1152.308
1148.56
1158.687
1157.315
1155.871
1154.298
1152.419
1149.645
1159.879
1158.551
1157.172
1155.733
1154.202
1152.473
1150.285
1161.107
1159.819
1158.481
1157.095
1155.655
1154.141
1152.502
1150.632
1162.342
1161.095
1159.799
1158.453
1157.059
1155.613
1154.113
1152.516
1150.785
1140.923
1151.05
1141.799
1154.872
1151.428
1143.24
1156.754
1154.824
1151.824
1145.061
1157.954
1156.457
1154.678
1152.14
1146.966
1158.963
1157.593
1156.126
1154.469
1152.322
1148.576
1160.04
1158.718
1157.341
1155.89
1154.309
1152.42
1149.655
1161.191
1159.907
1158.574
1157.188
1155.742
1154.201
1152.476
1150.293
1162.377
1161.132
1159.838
1158.494
1157.1
1155.651
1154.14
1152.505
1150.639
1163.565
1162.364
1161.111
1159.808
1158.455
1157.053
1155.61
1154.113
1152.52
1150.792
1140.923
1150.866
1141.116
1154.892
1151.114
1141.963
1156.984
1154.903
1151.472
1143.366
1158.321
1156.776
1154.843
1151.849
1145.143
1159.352
1157.979
1156.474
1154.689
1152.149
1146.999
1160.304
1158.991
1157.614
1156.14
1154.475
1152.32
1148.591
1161.344
1160.067
1158.74
1157.355
1155.896
1154.306
1152.421
1149.664
1162.457
1161.216
1159.926
1158.586
1157.193
1155.737
1154.2
1152.478
1150.301
1163.599
1162.399
1161.148
1159.847
1158.495
1157.094
1155.648
1154.14
1152.508
1150.646
1164.741
1163.585
1162.377
1161.117
1159.806
1158.446
1157.047
1155.607
1154.113
1152.523
1150.799
1141.616
1150.866
1141.116
1154.89
1150.933
1141.289
1157.123
1154.923
1151.163
1142.107
1158.598
1157.003
1154.921
1151.501
1143.473
1159.719
1158.338
1156.786
1154.849
1151.858
1145.198
1160.674
1159.372
1157.991
1156.479
1154.686
1152.142
1147.027
1161.593
1160.328
1159.009
1157.624
1156.141
1154.467
1152.319
1148.607
1162.601
1161.368
1160.085
1158.75
1157.358
1155.889
1154.303
1152.422
1149.674
1163.674
1162.478
1161.232
1159.934
1158.586
1157.185
1155.733
1154.199
1152.48
1150.309
1164.773
1163.618
1162.412
1161.154
1159.845
1158.486
1157.088
1155.645
1154.139
1152.511
1150.653
1165.869
1164.758
1163.596
1162.381
1161.114
1159.796
1158.438
1157.041
1155.603
1154.112
1152.525
1150.81
1142.93
1151.05
1141.799
1154.89
1150.933
1141.289
1157.186
1154.922
1150.986
1141.443
1158.776
1157.14
1154.941
1151.197
1142.232
1160.003
1158.611
1157.01
1154.925
1151.514
1143.549
1161.028
1159.733
1158.344
1156.784
1154.84
1151.851
1145.245
1161.943
1160.691
1159.381
1157.992
1156.471
1154.671
1152.136
1147.055
1162.836
1161.614
1160.342
1159.015
1157.622
1156.13
1154.461
1152.317
1148.623
1163.811
1162.622
1161.382
1160.092
1158.749
1157.348
1155.884
1154.3
1152.423
1149.684
1164.845
1163.694
1162.491
1161.237
1159.932
1158.577
1157.179
1155.729
1154.197
1152.482
1150.317
1165.899
1164.79
1163.629
1162.416
1161.15
1159.834
1158.478
1157.082
1155.641
1154.138
1152.514
1150.665
1166.949
1165.884
1164.767
1163.598
1162.376
1161.101
1159.786
1158.43
1157.035
1155.6
1154.112
1152.533
1150.827
1144.703
1151.369
1143.094
1154.892
1151.114
1141.963
1157.186
1154.922
1150.986
1141.443
1158.862
1157.203
1154.94
1151.022
1141.577
1160.19
1158.787
1157.146
1154.945
1151.215
1142.323
1161.304
1160.013
1158.613
1157.004
1154.914
1151.51
1143.614
1162.279
1161.039
1159.736
1158.339
1156.769
1154.82
1151.845
1145.291
1163.166
1161.958
1160.698
1159.38
1157.981
1156.452
1154.657
1152.131
1147.084
1164.034
1162.855
1161.626
1160.346
1159.01
1157.609
1156.121
1154.454
1152.315
1148.639
1164.975
1163.83
1162.634
1161.387
1160.088
1158.738
1157.34
1155.877
1154.296
1152.424
1149.695
1165.968
1164.862
1163.704
1162.495
1161.233
1159.921
1158.568
1157.172
1155.724
1154.195
1152.484
1150.33
1166.978
1165.915
1164.799
1163.631
1162.41
1161.138
1159.825
1158.47
1157.075
1155.637
1154.137
1152.521
1150.682
1167.982
1166.963
1165.892
1164.768
1163.591
1162.362
1161.091
1159.777
1158.422
1157.029
1155.596
1154.115
1152.545
1150.849
1146.637
1151.73
1144.84
1154.872
1151.428
1143.24
1157.123
1154.923
1151.163
1142.107
1158.862
1157.203
1154.94
1151.022
1141.577
1160.281
1158.873
1157.208
1154.944
1151.043
1141.676
1161.487
1160.198
1158.788
1157.139
1154.935
1151.215
1142.4
1162.543
1161.312
1160.013
1158.604
1156.986
1154.892
1151.507
1143.677
1163.484
1162.289
1161.041
1159.729
1158.321
1156.744
1154.802
1151.839
1145.337
1164.345
1163.179
1161.963
1160.695
1159.367
1157.96
1156.435
1154.644
1152.125
1147.112
1165.186
1164.05
1162.864
1161.627
1160.339
1158.995
1157.597
1156.11
1154.446
1152.313
1148.655
1166.092
1164.991
1163.84
1162.636
1161.381
1160.075
1158.728
1157.332
1155.871
1154.293
1152.424
1149.711
1167.044
1165.983
1164.871
1163.706
1162.489
1161.22
1159.911
1158.559
1157.165
1155.719
1154.193
1152.491
1150.349
1168.01
1166.992
1165.922
1164.8
1163.624
1162.397
1161.127
1159.815
1158.462
1157.069
1155.632
1154.14
1152.532
1150.704
1168.969
1167.994
1166.969
1165.891
1164.76
1163.577
1162.35
1161.08
1159.767
1158.414
1157.022
1155.596
1154.123
1152.561
1150.875
1148.315
1152.023
1146.744
1154.791
1151.785
1144.959
1156.984
1154.903
1151.472
1143.366
1158.776
1157.14
1154.941
1151.197
1142.232
1160.281
1158.873
1157.208
1154.944
1151.043
1141.676
1161.578
1160.289
1158.872
1157.201
1154.935
1151.046
1141.76
1162.719
1161.494
1160.196
1158.776
1157.119
1154.912
1151.215
1142.476
1163.735
1162.55
1161.311
1160.002
1158.582
1156.957
1154.873
1151.503
1143.739
1164.647
1163.492
1162.289
1161.032
1159.71
1158.294
1156.722
1154.784
1151.833
1145.381
1165.482
1164.357
1163.183
1161.958
1160.681
1159.345
1157.942
1156.418
1154.63
1152.119
1147.14
1166.293
1165.201
1164.058
1162.864
1161.619
1160.323
1158.982
1157.585
1156.1
1154.438
1152.311
1148.678
1167.162
1166.106
1164.999
1163.84
1162.629
1161.367
1160.064
1158.717
1157.323
1155.864
1154.288
1152.429
1149.733
1168.073
1167.057
1165.99
1164.871
1163.699
1162.475
1161.209
1159.9
1158.55
1157.157
1155.714
1154.195
1152.502
1150.372
1168.996
1168.022
1166.998
1165.921
1164.792
1163.61
1162.385
1161.116
1159.805
1158.453
1157.062
1155.632
1154.147
1152.548
1150.731
1169.91
1168.98
1168
1166.967
1165.882
1164.745
1163.565
1162.339
1161.069
1159.757
1158.405
1157.019
1155.599
1154.134
1152.582
1149.425
1152.177
1148.4
1154.615
1152.076
1146.835
1156.754
1154.824
1151.824
1145.061
1158.598
1157.003
1154.921
1151.501
1143.473
1160.19
1158.787
1157.146
1154.945
1151.215
1142.323
1161.578
1160.289
1158.872
1157.201
1154.935
1151.046
1141.76
1162.806
1161.584
1160.286
1158.86
1157.18
1154.913
1151.048
1141.842
1163.903
1162.724
1161.491
1160.183
1158.753
1157.089
1154.893
1151.215
1142.55
1164.885
1163.741
1162.547
1161.299
1159.979
1158.552
1156.933
1154.853
1151.499
1143.8
1165.768
1164.654
1163.492
1162.28
1161.013
1159.683
1158.271
1156.7
1154.766
1151.826
1145.425
1166.574
1165.492
1164.359
1163.177
1161.944
1160.659
1159.326
1157.924
1156.401
1154.616
1152.113
1147.173
1167.355
1166.306
1165.207
1164.056
1162.854
1161.602
1160.308
1158.969
1157.572
1156.089
1154.43
1152.313
1148.706
1168.187
1167.175
1166.113
1164.999
1163.832
1162.614
1161.355
1160.052
1158.707
1157.314
1155.857
1154.288
1152.439
1149.76
1169.056
1168.085
1167.063
1165.99
1164.863
1163.684
1162.463
1161.197
1159.89
1158.541
1157.149
1155.712
1154.201
1152.517
1150.401
1169.936
1169.007
1168.028
1166.996
1165.913
1164.777
1163.597
1162.373
1161.105
1159.795
1158.444
1157.058
1155.635
1154.159
1152.569
1170.806
1169.92
1168.984
1167.997
1166.958
1165.867
1164.732
1163.552
1162.327
1161.058
1159.746
1158.399
1157.02
1155.607
1154.15
1150.07
1152.261
1149.5
1154.368
1152.235
1148.469
1156.428
1154.653
1152.115
1146.91
1158.321
1156.776
1154.843
1151.849
1145.143
1160.003
1158.611
1157.01
1154.925
1151.514
1143.549
1161.487
1160.198
1158.788
1157.139
1154.935
1151.215
1142.4
1162.806
1161.584
1160.286
1158.86
1157.18
1154.913
1151.048
1141.842
1163.986
1162.811
1161.58
1160.272
1158.836
1157.15
1154.893
1151.05
1141.923
1165.045
1163.907
1162.72
1161.477
1160.158
1158.721
1157.063
1154.873
1151.214
1142.623
1165.995
1164.89
1163.738
1162.535
1161.276
1159.949
1158.526
1156.908
1154.833
1151.495
1143.859
1166.847
1165.774
1164.653
1163.482
1162.26
1160.986
1159.659
1158.248
1156.678
1154.747
1151.819
1145.474
1167.623
1166.583
1165.493
1164.353
1163.162
1161.922
1160.64
1159.307
1157.905
1156.384
1154.601
1152.111
1147.212
1168.372
1167.367
1166.311
1165.204
1164.046
1162.837
1161.587
1160.294
1158.955
1157.559
1156.078
1154.426
1152.32
1148.739
1169.166
1168.199
1167.181
1166.112
1164.99
1163.816
1162.601
1161.342
1160.04
1158.696
1157.304
1155.853
1154.293
1152.453
1149.792
1169.994
1169.068
1168.09
1167.062
1165.98
1164.847
1163.671
1162.45
1161.186
1159.879
1158.531
1157.145
1155.715
1154.212
1152.537
1170.831
1169.946
1169.011
1168.025
1166.987
1165.897
1164.764
1163.585
1162.361
1161.093
1159.784
1158.438
1157.058
1155.643
1154.174
1171.659
1170.816
1169.924
1168.981
1167.987
1166.943
1165.854
1164.719
1163.539
1162.314
1161.045
1159.738
1158.397
1157.024
1155.619
1150.412
1152.307
1150.142
1154.183
1152.322
1149.561
1156.06
1154.415
1152.279
1148.523
1157.954
1156.457
1154.678
1152.14
1146.966
1159.719
1158.338
1156.786
1154.849
1151.858
1145.198
1161.304
1160.013
1158.613
1157.004
1154.914
1151.51
1143.614
1162.719
1161.494
1160.196
1158.776
1157.119
1154.912
1151.215
1142.476
1163.986
1162.811
1161.58
1160.272
1158.836
1157.15
1154.893
1151.05
1141.923
1165.125
1163.99
1162.806
1161.565
1160.247
1158.803
1157.124
1154.874
1151.051
1142.002
1166.147
1165.049
1163.903
1162.706
1161.453
1160.127
1158.693
1157.037
1154.853
1151.212
1142.695
1167.064
1165.999
1164.887
1163.725
1162.513
1161.246
1159.923
1158.5
1156.883
1154.813
1151.49
1143.924
1167.884
1166.853
1165.772
1164.643
1163.463
1162.234
1160.963
1159.636
1158.224
1156.656
1154.728
1151.817
1145.528
1168.628
1167.631
1166.584
1165.486
1164.338
1163.14
1161.902
1160.62
1159.288
1157.887
1156.366
1154.59
1152.114
1147.255
1169.344
1168.382
1167.37
1166.308
1165.193
1164.028
1162.821
1161.572
1160.279
1158.941
1157.546
1156.07
1154.426
1152.332
1148.778
1170.1
1169.177
1168.203
1167.179
1166.102
1164.973
1163.802
1162.587
1161.329
1160.028
1158.684
1157.297
1155.853
1154.301
1152.472
1170.888
1170.005
1169.072
1168.088
1167.052
1165.965
1164.834
1163.658
1162.437
1161.173
1159.867
1158.524
1157.144
1155.721
1154.226
1171.683
1170.841
1169.95
1169.008
1168.015
1166.971
1165.884
1164.75
1163.572
1162.348
1161.081
1159.775
1158.435
1157.062
1155.654
1172.468
1171.668
1170.819
1169.921
1168.971
1167.972
1166.929
1165.84
1164.706
1163.526
1162.301
1161.036
1159.734
1158.399
1157.032
1150.559
1152.329
1150.484
1154.069
1152.369
1150.2
1155.796
1154.234
1152.369
1149.606
1157.56
1156.099
1154.449
1152.308
1148.56
1159.352
1157.979
1156.474
1154.689
1152.149
1146.999
1161.028
1159.733
1158.344
1156.784
1154.84
1151.851
1145.245
1162.543
1161.312
1160.013
1158.604
1156.986
1154.892
1151.507
1143.677
1163.903
1162.724
1161.491
1160.183
1158.753
1157.089
1154.893
1151.215
1142.55
1165.125
1163.99
1162.806
1161.565
1160.247
1158.803
1157.124
1154.874
1151.051
1142.002
1166.223
1165.128
1163.985
1162.792
1161.54
1160.214
1158.775
1157.098
1154.854
1151.051
1142.08
1167.21
1166.151
1165.044
1163.889
1162.683
1161.421
1160.099
1158.666
1157.011
1154.833
1151.21
1142.771
1168.092
1167.068
1165.995
1164.874
1163.703
1162.484
1161.221
1159.897
1158.474
1156.858
1154.793
1151.49
1143.992
1168.879
1167.889
1166.85
1165.762
1164.623
1163.437
1162.211
1160.939
1159.612
1158.201
1156.633
1154.713
1151.819
1145.586
1169.59
1168.636
1167.631
1166.577
1165.471
1164.316
1163.12
1161.883
1160.601
1159.269
1157.867
1156.351
1154.584
1152.122
1147.304
1170.272
1169.353
1168.385
1167.366
1166.296
1165.175
1164.012
1162.805
1161.556
1160.264
1158.925
1157.535
1156.066
1154.431
1152.349
1170.99
1170.11
1169.181
1168.2
1167.168
1166.085
1164.959
1163.788
1162.573
1161.316
1160.015
1158.675
1157.294
1155.857
1154.314
1171.738
1170.898
1170.008
1169.069
1168.078
1167.036
1165.951
1164.82
1163.645
1162.424
1161.16
1159.858
1158.52
1157.147
1155.731
1172.492
1171.692
1170.844
1169.946
1168.998
1167.999
1166.958
1165.87
1164.737
1163.559
1162.335
1161.071
1159.771
1158.436
1157.07
1173.235
1172.477
1171.67
1170.815
1169.91
1168.955
1167.958
1166.915
1165.827
1164.693
1163.512
1162.29
1161.03
1159.733
1158.404
1152.339
1150.631
1154.005
1152.392
1150.541
1155.634
1154.122
1152.417
1150.243
1157.278
1155.839
1154.273
1152.401
1149.635
1158.963
1157.593
1156.126
1154.469
1152.322
1148.576
1160.674
1159.372
1157.991
1156.479
1154.686
1152.142
1147.027
1162.279
1161.039
1159.736
1158.339
1156.769
1154.82
1151.845
1145.291
1163.735
1162.55
1161.311
1160.002
1158.582
1156.957
1154.873
1151.503
1143.739
1165.045
1163.907
1162.72
1161.477
1160.158
1158.721
1157.063
1154.873
1151.214
1142.623
1166.223
1165.128
1163.985
1162.792
1161.54
1160.214
1158.775
1157.098
1154.854
1151.051
1142.08
1167.283
1166.226
1165.123
1163.971
1162.767
1161.508
1160.186
1158.747
1157.071
1154.834
1151.051
1142.162
1168.232
1167.213
1166.146
1165.031
1163.866
1162.652
1161.394
1160.071
1158.638
1156.985
1154.812
1151.213
1142.85
1169.079
1168.095
1167.064
1165.983
1164.853
1163.675
1162.459
1161.195
1159.87
1158.447
1156.832
1154.776
1151.495
1144.065
1169.831
1168.883
1167.887
1166.84
1165.743
1164.598
1163.414
1162.188
1160.916
1159.589
1158.176
1156.613
1154.703
1151.827
1145.649
1170.51
1169.597
1168.635
1167.624
1166.561
1165.449
1164.296
1163.101
1161.863
1160.581
1159.248
1157.85
1156.341
1154.582
1152.135
1171.156
1170.28
1169.356
1168.381
1167.354
1166.277
1165.159
1163.996
1162.789
1161.54
1160.248
1158.913
1157.529
1156.066
1154.439
1171.837
1171
1170.113
1169.177
1168.189
1167.151
1166.071
1164.945
1163.774
1162.559
1161.301
1160.004
1158.67
1157.296
1155.866
1172.545
1171.747
1170.901
1170.005
1169.058
1168.062
1167.022
1165.937
1164.806
1163.631
1162.41
1161.15
1159.853
1158.521
1157.154
1173.258
1172.5
1171.695
1170.84
1169.936
1168.982
1167.986
1166.944
1165.856
1164.723
1163.544
1162.324
1161.065
1159.77
1158.441
1173.961
1173.243
1172.479
1171.666
1170.805
1169.894
1168.942
1167.944
1166.901
1165.813
1164.678
1163.501
1162.283
1161.027
1159.736
1153.976
1152.401
1150.687
1155.545
1154.058
1152.44
1150.583
1157.107
1155.679
1154.161
1152.451
1150.269
1158.687
1157.315
1155.871
1154.298
1152.419
1149.645
1160.304
1158.991
1157.614
1156.14
1154.475
1152.32
1148.591
1161.943
1160.691
1159.381
1157.992
1156.471
1154.671
1152.136
1147.055
1163.484
1162.289
1161.041
1159.729
1158.321
1156.744
1154.802
1151.839
1145.337
1164.885
1163.741
1162.547
1161.299
1159.979
1158.552
1156.933
1154.853
1151.499
1143.8
1166.147
1165.049
1163.903
1162.706
1161.453
1160.127
1158.693
1157.037
1154.853
1151.212
1142.695
1167.283
1166.226
1165.123
1163.971
1162.767
1161.508
1160.186
1158.747
1157.071
1154.834
1151.051
1142.162
1168.302
1167.285
1166.221
1165.109
1163.947
1162.736
1161.481
1160.158
1158.719
1157.045
1154.814
1151.056
1142.247
1169.214
1168.235
1167.208
1166.133
1165.008
1163.836
1162.626
1161.367
1160.044
1158.61
1156.958
1154.795
1151.22
1142.934
1170.024
1169.082
1168.091
1167.052
1165.962
1164.825
1163.651
1162.433
1161.169
1159.844
1158.42
1156.81
1154.764
1151.504
1144.142
1170.742
1169.836
1168.881
1167.876
1166.821
1165.718
1164.576
1163.392
1162.165
1160.893
1159.564
1158.155
1156.598
1154.697
1151.838
1171.386
1170.516
1169.596
1168.628
1167.608
1166.539
1165.43
1164.277
1163.081
1161.843
1160.56
1159.23
1157.838
1156.335
1154.585
1171.998
1171.164
1170.282
1169.351
1168.368
1167.336
1166.261
1165.143
1163.98
1162.773
1161.523
1160.234
1158.904
1157.526
1156.07
1172.642
1171.846
1171.002
1170.109
1169.166
1168.173
1167.137
1166.056
1164.93
1163.759
1162.544
1161.289
1159.997
1158.669
1157.3
1173.311
1172.554
1171.749
1170.897
1169.994
1169.042
1168.048
1167.008
1165.923
1164.792
1163.616
1162.399
1161.143
1159.851
1158.525
1173.984
1173.266
1172.502
1171.69
1170.83
1169.92
1168.968
1167.972
1166.93
1165.842
1164.709
1163.532
1162.316
1161.062
1159.772
1174.646
1173.968
1173.245
1172.474
1171.655
1170.789
1169.881
1168.928
1167.93
1166.887
1165.798
1164.665
1163.492
1162.279
1161.028
1155.506
1154.029
1152.45
1150.729
1157.012
1155.59
1154.098
1152.475
1150.609
1158.518
1157.145
1155.712
1154.188
1152.47
1150.278
1160.04
1158.718
1157.341
1155.89
1154.309
1152.42
1149.655
1161.593
1160.328
1159.009
1157.624
1156.141
1154.467
1152.319
1148.607
1163.166
1161.958
1160.698
1159.38
1157.981
1156.452
1154.657
1152.131
1147.084
1164.647
1163.492
1162.289
1161.032
1159.71
1158.294
1156.722
1154.784
1151.833
1145.381
1165.995
1164.89
1163.738
1162.535
1161.276
1159.949
1158.526
1156.908
1154.833
1151.495
1143.859
1167.21
1166.151
1165.044
1163.889
1162.683
1161.421
1160.099
1158.666
1157.011
1154.833
1151.21
1142.771
1168.302
1167.285
1166.221
1165.109
1163.947
1162.736
1161.481
1160.158
1158.719
1157.045
1154.814
1151.056
1142.247
1169.281
1168.304
1167.28
1166.207
1165.086
1163.917
1162.71
1161.453
1160.13
1158.69
1157.017
1154.797
1151.065
1142.337
1170.155
1169.216
1168.23
1167.195
1166.111
1164.98
1163.811
1162.6
1161.34
1160.016
1158.581
1156.934
1154.783
1151.232
1143.022
1170.928
1170.027
1169.078
1168.079
1167.031
1165.936
1164.802
1163.626
1162.408
1161.143
1159.816
1158.395
1156.791
1154.756
1151.517
1171.611
1170.746
1169.833
1168.87
1167.858
1166.797
1165.697
1164.554
1163.369
1162.142
1160.868
1159.541
1158.137
1156.587
1154.695
1172.221
1171.392
1170.515
1169.589
1168.612
1167.587
1166.521
1165.411
1164.258
1163.062
1161.822
1160.542
1159.216
1157.829
1156.333
1172.798
1172.006
1171.166
1170.277
1169.338
1168.35
1167.32
1166.245
1165.126
1163.963
1162.756
1161.509
1160.224
1158.9
1157.527
1173.404
1172.65
1171.848
1170.998
1170.098
1169.149
1168.158
1167.122
1166.041
1164.915
1163.744
1162.531
1161.281
1159.994
1158.671
1174.034
1173.318
1172.556
1171.745
1170.886
1169.978
1169.028
1168.033
1166.994
1165.908
1164.777
1163.604
1162.39
1161.139
1159.853
1174.668
1173.991
1173.268
1172.498
1171.68
1170.814
1169.906
1168.954
1167.958
1166.916
1165.827
1164.696
1163.524
1162.312
1161.062
1175.291
1174.653
1173.97
1173.241
1172.464
1171.64
1170.775
1169.867
1168.914
1167.916
1166.872
1165.785
1164.656
1163.487
1162.278
1156.97
1155.551
1154.07
1152.484
1150.755
1158.425
1157.051
1155.624
1154.126
1152.495
1150.617
1159.879
1158.551
1157.172
1155.733
1154.202
1152.473
1150.285
1161.344
1160.067
1158.74
1157.355
1155.896
1154.306
1152.421
1149.664
1162.836
1161.614
1160.342
1159.015
1157.622
1156.13
1154.461
1152.317
1148.623
1164.345
1163.179
1161.963
1160.695
1159.367
1157.96
1156.435
1154.644
1152.125
1147.112
1165.768
1164.654
1163.492
1162.28
1161.013
1159.683
1158.271
1156.7
1154.766
1151.826
1145.425
1167.064
1165.999
1164.887
1163.725
1162.513
1161.246
1159.923
1158.5
1156.883
1154.813
1151.49
1143.924
1168.232
1167.213
1166.146
1165.031
1163.866
1162.652
1161.394
1160.071
1158.638
1156.985
1154.812
1151.213
1142.85
1169.281
1168.304
1167.28
1166.207
1165.086
1163.917
1162.71
1161.453
1160.13
1158.69
1157.017
1154.797
1151.065
1142.337
1170.22
1169.283
1168.299
1167.267
1166.185
1165.057
1163.891
1162.683
1161.426
1160.101
1158.661
1156.993
1154.784
1151.078
1142.43
1171.055
1170.157
1169.211
1168.217
1167.174
1166.083
1164.955
1163.786
1162.574
1161.313
1159.987
1158.555
1156.914
1154.775
1151.248
1171.792
1170.931
1170.023
1169.066
1168.059
1167.005
1165.913
1164.778
1163.602
1162.383
1161.116
1159.791
1158.375
1156.777
1154.752
1172.439
1171.615
1170.743
1169.822
1168.852
1167.834
1166.776
1165.675
1164.532
1163.347
1162.117
1160.845
1159.523
1158.124
1156.58
1173.014
1172.226
1171.39
1170.507
1169.573
1168.591
1167.568
1166.502
1165.392
1164.238
1163.041
1161.803
1160.527
1159.206
1157.824
1173.556
1172.805
1172.007
1171.16
1170.264
1169.32
1168.334
1167.304
1166.229
1165.11
1163.945
1162.74
1161.497
1160.217
1158.898
1174.126
1173.412
1172.651
1171.843
1170.987
1170.081
1169.134
1168.143
1167.107
1166.026
1164.899
1163.73
1162.522
1161.276
1159.994
1174.718
1174.042
1173.32
1172.551
1171.734
1170.87
1169.964
1169.014
1168.019
1166.979
1165.893
1164.764
1163.594
1162.385
1161.139
1175.312
1174.675
1173.992
1173.264
1172.487
1171.664
1170.8
1169.892
1168.94
1167.943
1166.9
1165.814
1164.686
1163.518
1162.311
1175.896
1175.297
1174.654
1173.965
1173.23
1172.448
1171.626
1170.761
1169.853
1168.9
1167.901
1166.859
1165.775
1164.65
1163.485
1158.384
1157.009
1155.585
1154.098
1152.505
1150.764
1159.79
1158.458
1157.079
1155.646
1154.14
1152.499
1150.624
1161.191
1159.907
1158.574
1157.188
1155.742
1154.201
1152.476
1150.293
1162.601
1161.368
1160.085
1158.75
1157.358
1155.889
1154.303
1152.422
1149.674
1164.034
1162.855
1161.626
1160.346
1159.01
1157.609
1156.121
1154.454
1152.315
1148.639
1165.482
1164.357
1163.183
1161.958
1160.681
1159.345
1157.942
1156.418
1154.63
1152.119
1147.14
1166.847
1165.774
1164.653
1163.482
1162.26
1160.986
1159.659
1158.248
1156.678
1154.747
1151.819
1145.474
1168.092
1167.068
1165.995
1164.874
1163.703
1162.484
1161.221
1159.897
1158.474
1156.858
1154.793
1151.49
1143.992
1169.214
1168.235
1167.208
1166.133
1165.008
1163.836
1162.626
1161.367
1160.044
1158.61
1156.958
1154.795
1151.22
1142.934
1170.22
1169.283
1168.299
1167.267
1166.185
1165.057
1163.891
1162.683
1161.426
1160.101
1158.661
1156.993
1154.784
1151.078
1142.43
1171.118
1170.222
1169.278
1168.286
1167.245
1166.157
1165.032
1163.866
1162.656
1161.398
1160.072
1158.634
1156.973
1154.776
1151.096
1171.914
1171.057
1170.152
1169.199
1168.196
1167.147
1166.06
1164.931
1163.76
1162.548
1161.285
1159.96
1158.533
1156.899
1154.771
1172.614
1171.794
1170.927
1170.011
1169.046
1168.034
1166.983
1165.89
1164.755
1163.578
1162.357
1161.091
1159.77
1158.358
1156.768
1173.226
1172.442
1171.611
1170.733
1169.805
1168.829
1167.814
1166.755
1165.654
1164.51
1163.323
1162.095
1160.826
1159.509
1158.115
1173.766
1173.019
1172.224
1171.382
1170.491
1169.553
1168.573
1167.55
1166.483
1165.372
1164.217
1163.021
1161.788
1160.516
1159.2
1174.274
1173.563
1172.805
1172.001
1171.148
1170.247
1169.304
1168.318
1167.287
1166.212
1165.091
1163.929
1162.728
1161.49
1160.214
1174.807
1174.133
1173.413
1172.647
1171.832
1170.97
1170.067
1169.12
1168.128
1167.092
1166.009
1164.884
1163.719
1162.515
1161.274
1175.361
1174.724
1174.043
1173.315
1172.54
1171.719
1170.856
1169.95
1168.999
1168.004
1166.963
1165.879
1164.754
1163.588
1162.383
1175.917
1175.319
1174.676
1173.988
1173.253
1172.472
1171.651
1170.786
1169.878
1168.926
1167.928
1166.887
1165.804
1164.68
1163.516
1176.463
1175.903
1175.298
1174.65
1173.955
1173.215
1172.435
1171.613
1170.748
1169.839
1168.884
1167.887
1166.848
1165.768
1164.647
1159.75
1158.417
1157.037
1155.607
1154.113
1152.509
1150.771
1161.107
1159.819
1158.481
1157.095
1155.655
1154.141
1152.502
1150.632
1162.457
1161.216
1159.926
1158.586
1157.193
1155.737
1154.2
1152.478
1150.301
1163.811
1162.622
1161.382
1160.092
1158.749
1157.348
1155.884
1154.3
1152.423
1149.684
1165.186
1164.05
1162.864
1161.627
1160.339
1158.995
1157.597
1156.11
1154.446
1152.313
1148.655
1166.574
1165.492
1164.359
1163.177
1161.944
1160.659
1159.326
1157.924
1156.401
1154.616
1152.113
1147.173
1167.884
1166.853
1165.772
1164.643
1163.463
1162.234
1160.963
1159.636
1158.224
1156.656
1154.728
1151.817
1145.528
1169.079
1168.095
1167.064
1165.983
1164.853
1163.675
1162.459
1161.195
1159.87
1158.447
1156.832
1154.776
1151.495
1144.065
1170.155
1169.216
1168.23
1167.195
1166.111
1164.98
1163.811
1162.6
1161.34
1160.016
1158.581
1156.934
1154.783
1151.232
1143.022
1171.118
1170.222
1169.278
1168.286
1167.245
1166.157
1165.032
1163.866
1162.656
1161.398
1160.072
1158.634
1156.973
1154.776
1151.096
1171.975
1171.119
1170.216
1169.265
1168.265
1167.218
1166.133
1165.007
1163.84
1162.63
1161.369
1160.044
1158.611
1156.957
1154.773
1172.733
1171.916
1171.052
1170.14
1169.179
1168.171
1167.124
1166.036
1164.906
1163.735
1162.52
1161.258
1159.937
1158.515
1156.888
1173.397
1172.616
1171.79
1170.915
1169.992
1169.022
1168.013
1166.961
1165.867
1164.731
1163.552
1162.332
1161.07
1159.753
1158.346
1173.973
1173.229
1172.439
1171.601
1170.715
1169.782
1168.809
1167.793
1166.734
1165.632
1164.486
1163.3
1162.076
1160.812
1159.498
1174.479
1173.771
1173.017
1172.216
1171.367
1170.471
1169.535
1168.555
1167.531
1166.464
1165.351
1164.198
1163.006
1161.776
1160.508
1174.951
1174.28
1173.563
1172.8
1171.988
1171.13
1170.231
1169.288
1168.302
1167.271
1166.194
1165.075
1163.917
1162.719
1161.485
1175.448
1174.814
1174.134
1173.408
1172.635
1171.816
1170.956
1170.052
1169.105
1168.113
1167.075
1165.995
1164.873
1163.712
1162.512
1175.965
1175.367
1174.726
1174.038
1173.305
1172.525
1171.705
1170.842
1169.935
1168.985
1167.988
1166.949
1165.868
1164.747
1163.585
1176.484
1175.924
1175.32
1174.671
1173.977
1173.238
1172.458
1171.637
1170.772
1169.864
1168.91
1167.914
1166.876
1165.796
1164.676
1176.992
1176.469
1175.903
1175.294
1174.639
1173.94
1173.201
1172.421
1171.599
1170.734
1169.823
1168.871
1167.876
1166.841
1165.764
1161.07
1159.779
1158.441
1157.054
1155.616
1154.113
1152.513
1150.778
1162.377
1161.132
1159.838
1158.494
1157.1
1155.651
1154.14
1152.505
1150.639
1163.674
1162.478
1161.232
1159.934
1158.586
1157.185
1155.733
1154.199
1152.48
1150.309
1164.975
1163.83
1162.634
1161.387
1160.088
1158.738
1157.34
1155.877
1154.296
1152.424
1149.695
1166.293
1165.201
1164.058
1162.864
1161.619
1160.323
1158.982
1157.585
1156.1
1154.438
1152.311
1148.678
1167.623
1166.583
1165.493
1164.353
1163.162
1161.922
1160.64
1159.307
1157.905
1156.384
1154.601
1152.111
1147.212
1168.879
1167.889
1166.85
1165.762
1164.623
1163.437
1162.211
1160.939
1159.612
1158.201
1156.633
1154.713
1151.819
1145.586
1170.024
1169.082
1168.091
1167.052
1165.962
1164.825
1163.651
1162.433
1161.169
1159.844
1158.42
1156.81
1154.764
1151.504
1144.142
1171.055
1170.157
1169.211
1168.217
1167.174
1166.083
1164.955
1163.786
1162.574
1161.313
1159.987
1158.555
1156.914
1154.775
1151.248
1171.975
1171.119
1170.216
1169.265
1168.265
1167.218
1166.133
1165.007
1163.84
1162.63
1161.369
1160.044
1158.611
1156.957
1154.773
1172.793
1171.977
1171.114
1170.204
1169.245
1168.239
1167.195
1166.109
1164.982
1163.814
1162.601
1161.342
1160.021
1158.593
1156.945
1173.513
1172.735
1171.911
1171.04
1170.12
1169.154
1168.149
1167.101
1166.012
1164.882
1163.708
1162.494
1161.236
1159.919
1158.501
1174.139
1173.399
1172.612
1171.779
1170.897
1169.969
1169.001
1167.991
1166.939
1165.844
1164.706
1163.527
1162.311
1161.052
1159.74
1174.68
1173.976
1173.226
1172.429
1171.585
1170.694
1169.763
1168.79
1167.773
1166.713
1165.609
1164.465
1163.282
1162.061
1160.801
1175.151
1174.483
1173.769
1173.009
1172.202
1171.348
1170.454
1169.517
1168.537
1167.513
1166.443
1165.332
1164.182
1162.994
1161.768
1175.589
1174.957
1174.28
1173.557
1172.787
1171.971
1171.115
1170.215
1169.272
1168.285
1167.252
1166.177
1165.062
1163.907
1162.714
1176.05
1175.455
1174.814
1174.129
1173.397
1172.619
1171.802
1170.941
1170.037
1169.09
1168.096
1167.06
1165.983
1164.865
1163.708
1176.53
1175.971
1175.368
1174.721
1174.028
1173.289
1172.511
1171.691
1170.828
1169.921
1168.969
1167.974
1166.938
1165.861
1164.743
1177.012
1176.49
1175.924
1175.315
1174.661
1173.962
1173.224
1172.445
1171.623
1170.758
1169.849
1168.896
1167.903
1166.868
1165.792
1177.482
1176.997
1176.47
1175.899
1175.283
1174.624
1173.927
1173.188
1172.408
1171.585
1170.718
1169.809
1168.859
1167.868
1166.836
1162.342
1161.095
1159.799
1158.453
1157.059
1155.613
1154.113
1152.516
1150.785
1163.599
1162.399
1161.148
1159.847
1158.495
1157.094
1155.648
1154.14
1152.508
1150.646
1164.845
1163.694
1162.491
1161.237
1159.932
1158.577
1157.179
1155.729
1154.197
1152.482
1150.317
1166.092
1164.991
1163.84
1162.636
1161.381
1160.075
1158.728
1157.332
1155.871
1154.293
1152.424
1149.711
1167.355
1166.306
1165.207
1164.056
1162.854
1161.602
1160.308
1158.969
1157.572
1156.089
1154.43
1152.313
1148.706
1168.628
1167.631
1166.584
1165.486
1164.338
1163.14
1161.902
1160.62
1159.288
1157.887
1156.366
1154.59
1152.114
1147.255
1169.831
1168.883