/*--------------------------------*- C++ -*----------------------------------*\
| =========                 |                                                 |
| \\      /  F ield         | OpenFOAM: The Open Source CFD Toolbox           |
|  \\    /   O peration     | Version:  2306                                  |
|   \\  /    A nd           | Website:  www.openfoam.com                      |
|    \\/     M anipulation  |                                                 |
\*---------------------------------------------------------------------------*/
FoamFile
{
    version     2.0;
    format      ascii;
    arch        "LSB;label=32;scalar=64";
    class       volVectorField;
    location    "1.2/phiEC";
    object      i;
}
// * * * * * * * * * * * * * * * * * * * * * * * * * * * * * * * * * * * * * //

dimensions      [0 -2 0 0 0 1 0];

internalField   nonuniform List<vector> 
20000
(
(41.69955 87.93469 19042.72)
(41.25108 257.1532 18853.46)
(100.0634 83.44997 18194.76)
(127.8939 290.587 19833.69)
(40.38756 405.9811 18487.37)
(99.03053 244.0333 18015.2)
(126.4023 853.547 19594.31)
(116.669 77.60565 17012.45)
(305.9923 275.6708 18926.37)
(223.1624 566.6921 21618.46)
(39.17842 519.9003 17971.27)
(97.04212 385.2545 17667.89)
(123.5099 1358.407 19120.22)
(115.5293 226.9401 16845.49)
(302.5648 809.7069 18699.45)
(220.2224 1684.094 21309.8)
(110.5154 72.05258 15834.03)
(355.4763 256.3127 17680.13)
(530.7754 537.2916 20579.23)
(335.7395 907.9027 24679.43)
(37.7314 584.8271 17349.06)
(94.25868 493.3387 17178.29)
(119.4179 1756.733 18427.42)
(113.3357 358.2625 16522.56)
(295.921 1288.563 18250.08)
(214.4152 2739.764 20662.7)
(109.4763 210.7006 15679.03)
(351.705 752.8341 17469.23)
(524.0458 1596.622 20286.93)
(330.9755 2765.064 24419.97)
(97.5083 67.21411 14779.98)
(335.9771 237.9575 16449.08)
(612.1283 499.3961 19190.78)
(791.5273 860.2623 23415.24)
(476.0005 1085.595 28828.77)
(36.18891 590.4352 16682.38)
(90.92849 554.9319 16588.07)
(114.4667 1992.952 17557.36)
(110.2662 458.7639 16067.35)
(286.5259 1666.3 17593.49)
(205.9633 3645.608 19625.94)
(107.4766 332.6238 15379.22)
(344.3974 1198.018 17051.62)
(510.7621 2597.174 19674.25)
(321.1993 4726.132 23803.36)
(96.60959 196.5516 14635.39)
(332.5436 698.9178 16253.31)
(604.7578 1483.961 18919.28)
(780.6676 2619.662 23169.75)
(470.2675 3436.224 29008.81)
(84.53963 63.06546 13865.9)
(296.1182 221.9775 15352.77)
(575.9872 463.5865 17841.8)
(902.9621 799.3057 21785.84)
(1109.492 1028.265 27247.8)
(607.9505 682.2671 31838.22)
(34.71266 534.4573 16044.41)
(87.37914 560.2479 15955.69)
(109.1492 2018.857 16596.61)
(106.5949 516.0317 15518.6)
(275.1633 1890.265 16769.04)
(195.3963 4246.438 18159.99)
(104.6788 425.93 14956.61)
(334.0695 1549.156 16441.48)
(491.4457 3455.419 18692.89)
(306.0262 6762.148 22578.51)
(94.88024 310.2872 14355.72)
(325.8919 1112.208 15865.66)
(590.2199 2413.764 18350.26)
(758.4091 4476.639 22586.54)
(457.7788 6422.691 29425.64)
(83.76669 184.42 13730.23)
(293.1504 651.9818 15170.15)
(569.2929 1377.538 17589.82)
(891.1273 2433.882 21557.93)
(1096.454 3254.007 27417.91)
(604.4339 2037.544 32366.38)
(73.55001 59.48469 13074.13)
(256.6315 208.2792 14403.69)
(506.5846 432.4527 16650.14)
(844.1051 741.9144 20236.14)
(1247.947 955.2124 25289.35)
(1401.932 647.1008 30001.53)
(703.653 422.9908 33074.64)
(33.45692 423.7419 15503.44)
(83.98216 507.1374 15350.54)
(104.0622 1823.415 15684.16)
(102.6827 520.972 14930.67)
(262.9634 1914.813 15858.72)
(183.7674 4336.834 16347.14)
(101.3329 479.0966 14447.17)
(321.5853 1757.327 15675.41)
(467.3184 4024.479 17305.68)
(285.329 8550.538 20184.4)
(92.4608 397.3274 13961.49)
(316.4934 1438.179 15299.31)
(569.1024 3211.172 17438.95)
(723.9228 6403.445 21428.57)
(435.9512 10883.54 30254.15)
(82.27937 291.1359 13467.81)
(287.4013 1037.516 14808.53)
(556.0935 2240.619 17061.72)
(866.9042 4158.685 21016.59)
(1068.116 6079.528 27812.02)
(597.3869 3282.266 33591.52)
(72.87892 173.949 12946.16)
(254.0794 611.7482 14232.34)
(500.8034 1285.024 16415.09)
(833.3833 2259.083 20024.65)
(1233.779 3022.459 25447.17)
(1393.859 1931.908 30500.25)
(701.6029 1216.702 33540.72)
(64.65254 56.35459 12381.89)
(223.2507 196.4562 13582.03)
(438.6876 405.7748 15621.81)
(740.1154 692.0877 18881.2)
(1156.916 886.5828 23468.69)
(1556.074 601.5437 27794.32)
(1611.362 402.4899 31090.13)
(806.4016 216.1895 33864.83)
(32.54752 271.3488 15113.14)
(81.09216 402.0905 14837.38)
(99.75653 1438.803 14927.44)
(98.93831 471.5875 14368.05)
(251.2911 1729.488 14994.12)
(172.7221 3872.805 14728.63)
(97.76793 483.6822 13901.35)
(308.1853 1780.135 14829.6)
(440.7811 4110.092 15590.53)
(260.4713 8881.58 15350.6)
(89.56767 446.9234 13486.26)
(305.1358 1631.423 14588.24)
(542.7542 3739.792 16150.94)
(676.9726 8094.989 19166.05)
(399.0648 18702.25 32008.24)
(80.19858 372.8043 13097.91)
(279.2789 1341.596 14280.22)
(536.9302 2980.762 16215.99)
(829.4511 5947.783 19941.99)
(1018.751 10296.4 28595.9)
(587.2448 3918.596 35943.51)
(71.5876 274.6062 12698.64)
(249.1356 973.4931 13893.03)
(489.4061 2090.138 15922.45)
(811.4529 3859.877 19522.31)
(1203.066 5645.661 25812.97)
(1377.737 3110.375 31657.68)
(697.6984 1798.759 34504.07)
(64.06241 164.7959 12260.66)
(221.0349 577.0232 13420.4)
(433.7174 1205.753 15401.25)
(730.865 2107.36 18683.9)
(1144.099 2805.198 23615.1)
(1547.211 1795.599 28256.87)
(1606.54 1157.156 31528.96)
(805.6091 608.1109 34237.89)
(57.47628 53.58338 11769.62)
(196.2493 186.121 12863.65)
(381.5595 382.7505 14732.33)
(640.1939 649.4097 17716.64)
(1010.485 827.0488 21893.84)
(1431.634 558.4631 25776.66)
(1773.142 374.7724 28763.22)
(1833.073 208.2649 31743.32)
(915.8039 49.9251 34303.16)
(32.07103 93.31834 14909.19)
(78.99886 257.4899 14467.12)
(96.65669 917.1499 14393.54)
(95.75224 373.9089 13890.94)
(241.4087 1364.748 14276.99)
(163.5472 3004.991 13486.14)
(94.35584 437.8332 13379.03)
(295.3634 1607.867 14026.24)
(415.5667 3670.604 14058.92)
(238.0047 7545.426 12295.79)
(86.4851 451.2009 12977.09)
(292.9468 1652.593 13803.16)
(513.7937 3819.317 14558.62)
(620.6675 8408.337 14599.24)
(334.0405 20114.04 7268.208)
(77.71044 419.3396 12652.01)
(269.4644 1521.861 13616.91)
(513.0332 3471.392 15020.71)
(778.5786 7517.985 17842.75)
(935.6475 17683.14 30255.82)
(576.6265 1991.607 40312.71)
(69.781 351.6381 12349.74)
(242.1513 1258.811 13397.3)
(472.8623 2780.569 15133.53)
(777.5783 5520.19 18525.21)
(1149.774 9558.857 26540.74)
(1354.641 3710.991 33880.79)
(692.6543 1840.696 35966.72)
(62.92686 260.1567 12026.16)
(216.7426 918.2359 13100.33)
(423.9192 1961.208 14938.98)
(711.9487 3600.635 18215.3)
(1116.351 5239.481 23954.49)
(1529.575 2890.078 29330.64)
(1597.411 1709.272 32436.88)
(804.1062 856.2667 34938.01)
(56.95108 156.6922 11654.34)
(194.3007 546.6674 12710.51)
(377.2442 1137.339 14524.27)
(632.243 1977.415 17531.49)
(999.4339 2616.818 22030.39)
(1423.58 1666.91 26205.74)
(1767.707 1077.191 29169.65)
(1830.966 585.1572 32092.08)
(916.1844 143.5147 34629.47)
(51.61879 51.10253 11222.13)
(174.4769 176.9703 12228.13)
(335.4313 362.6221 13954.62)
(556.6894 612.5782 16710.4)
(872.8473 776.0672 20545.72)
(1246.154 520.9991 24044.75)
(1623.445 348.1392 26663.27)
(1998.76 195.1167 29323.42)
(2065.502 53.72967 32050.73)
(1031.645 -110.1167 34437.71)
(32.07103 -93.31834 14909.19)
(77.90188 88.5534 14273.64)
(95.03956 314.5705 14118.84)
(93.44398 239.4459 13546.69)
(234.2915 869.9802 13770.96)
(157.0622 1888.543 12662.04)
(91.45226 347.1472 12936.1)
(284.5039 1268.807 13359.86)
(394.6066 2848.392 12882.82)
(220.4198 5571.978 10395.39)
(83.53476 408.4308 12489.85)
(281.2831 1492.673 13057.48)
(486.265 3411.06 13136.53)
(569.7109 7144.91 11711.74)
(289.5328 13783.24 5268.684)
(75.05941 423.3531 12174.26)
(258.9321 1541.608 12884.56)
(486.7753 3545.2 13543.08)
(717.6764 7808.963 13606.07)
(789.6874 19018.72 6900.362)
(67.62074 395.5317 11929.14)
(233.7122 1427.955 12774.9)
(452.2359 3238.243 14018.54)
(731.6167 6977.242 16577.5)
(1060.465 16411.62 28082)
(1330.577 1885.424 38011.47)
(688.3757 835.6487 37611.95)
(61.33819 333.1357 11695.61)
(210.6787 1187.361 12632.73)
(409.6973 2609.06 14198.68)
(682.7403 5149.42 17285.17)
(1068.293 8870.387 24629.83)
(1504.442 3446.997 31393.55)
(1585.71 1747.469 33816.96)
(802.2208 810.7135 35828.83)
(55.94045 247.364 11431.38)
(190.5261 869.9312 12407.28)
(368.7372 1849.938 14088.2)
(615.9851 3378.631 17091.76)
(975.5179 4887.596 22346.94)
(1407.581 2682.692 27201.88)
(1757.482 1590.455 30010.92)
(1827.053 822.3834 32747.5)
(916.7493 207.8223 35203.17)
(51.14657 149.4376 11112.19)
(172.7426 519.7908 12082.53)
(331.6361 1077.53 13757.49)
(549.7861 1865.273 16535.74)
(863.3493 2455.522 20673.84)
(1239.196 1555.069 24444.95)
(1618.452 1000.55 27040.08)
(1996.099 547.904 29645.29)
(2065.801 152.9677 32351.53)
(1033.403 -291.8941 34796.43)
(46.7562 48.86114 10728)
(156.7055 168.778 11659.75)
(298.2547 344.7994 13266.4)
(489.4356 580.3769 15830.53)
(758.7823 732.0694 19382.06)
(1075.124 488.8895 22566.29)
(1410.079 324.8404 24870.71)
(1820.886 181.6493 27169.99)
(2230.475 52.91029 29559.1)
(2307.479 -92.53806 32059.73)
(1153.603 -308.7904 34237.33)
(32.54752 -271.3488 15113.14)
(77.90188 -88.5534 14273.64)
(95.03956 -314.5705 14118.84)
(92.23415 82.34854 13366.8)
(230.5777 298.3991 13510.59)
(153.7212 642.7158 12254.02)
(89.34843 222.3089 12616.5)
(276.6799 808.8395 12889.63)
(379.7808 1790.283 12102.58)
(208.5481 3381.386 9288.625)
(81.02403 323.8347 12076.66)
(271.4029 1177.913 12438.94)
(463.3613 2647.132 12044.38)
(529.7593 5277.412 9914.628)
(259.6992 9019.325 4149.301)
(72.5221 383.2225 11717.09)
(248.8535 1392.428 12188.97)
(461.8105 3166.279 12223.37)
(662.4726 6636.344 10926.66)
(689.3927 13039.83 5011.043)
(65.31906 399.3175 11478.52)
(224.6559 1446.484 12087.72)
(429.5745 3307.091 12640.16)
(676.6391 7247.277 12646.77)
(904.2872 17651.49 6423.108)
(59.43852 374.7201 11297.14)
(203.3516 1346.907 12045.63)
(391.9667 3038.514 13152.4)
(643.1259 6508.593 15468.29)
(987.9249 15228.28 26060.12)
(1478.405 1750.974 35227)
(1575.861 792.8627 35370.83)
(800.7389 346.3682 36578.85)
(54.52656 316.7547 11117.08)
(185.1934 1124.901 11964.26)
(356.3894 2461.044 13389.86)
(590.8841 4831.962 16218.91)
(934.1236 8274.591 22976.87)
(1384.837 3199.295 29115.88)
(1744.487 1625.203 31290.43)
(1822.269 777.0403 33583.09)
(917.2277 199.8597 35854.19)
(50.23789 235.9115 10899.54)
(169.3831 827.1627 11794.2)
(324.1545 1752.66 13344.34)
(535.6705 3187.046 16120.91)
(842.798 4586.379 20970.86)
(1225.386 2502.649 25374.09)
(1609.083 1477.07 27820.2)
(1991.243 769.2944 30250.59)
(2066.153 218.2555 32881.03)
(1036.32 -368.4564 35414.21)
(46.32804 142.8832 10622.88)
(155.1461 495.729 11520.89)
(294.8767 1024.571 13078.95)
(483.364 1767.227 15665.04)
(750.5356 2316.325 19502.91)
(1069.141 1459.232 22941.8)
(1405.748 933.568 25222.1)
(1818.334 509.9836 27468.02)
(2230.113 150.0206 29834.78)
(2310.434 -245.1474 32384.67)
(1157.36 -832.9853 34728.44)
(42.6504 46.82093 10278.59)
(141.951 161.3763 11146.68)
(267.9091 328.8421 12650.65)
(435.2712 551.8617 15051.54)
(667.203 693.6001 18364.35)
(934.4176 461.1714 21290.94)
(1215.655 304.8307 23343.35)
(1578.145 169.6021 25342.61)
(2021.527 50.10977 27375.41)
(2466.292 -80.56606 29516.02)
(2557.672 -271.2165 31745.44)
(1280.834 -601.2257 33570.76)
(33.45692 -423.7419 15503.44)
(78.99886 -257.4899 14467.12)
(96.65669 -917.1499 14393.54)
(92.23415 -82.34854 13366.8)
(230.5777 -298.3991 13510.59)
(153.7212 -642.7158 12254.02)
(88.24565 76.45507 12449.49)
(272.5959 277.4318 12647.65)
(372.1388 609.3055 11716.22)
(202.5996 1130.614 8778.623)
(79.20478 207.3799 11778.53)
(264.283 750.901 12002.45)
(447.1468 1663.865 11319.75)
(502.7492 3203.185 8867.652)
(241.2569 5122.073 3545.01)
(70.36284 303.8474 11329.4)
(240.3155 1098.806 11611.97)
(441.0313 2457.21 11209.82)
(619.1049 4902.361 9258.689)
(621.9462 8536.566 3952.904)
(63.11611 361.4651 11047.29)
(215.9898 1306.507 11435.02)
(408.0274 2953.62 11409.1)
(626.7686 6159.195 10160.69)
(796.4747 12105.83 4670.275)
(57.41447 378.3068 10870.22)
(195.4888 1364.384 11397.42)
(372.4875 3103.115 11858.96)
(595.7548 6760.483 11801.61)
(847.6688 16378.82 5967.308)
(52.83586 356.2945 10738.2)
(178.7499 1276.056 11408.03)
(340.9953 2866.145 12402.88)
(556.8438 6107.387 14513.91)
(864.9539 14205.38 24311.07)
(1361.334 1625.051 32672.82)
(1733.643 737.1661 32731.78)
(1818.595 331.5493 34288.04)
(917.4565 85.62705 36318.67)
(48.96662 302.0898 10599.8)
(164.6368 1069.599 11372.95)
(313.2948 2331.641 12682.69)
(513.8771 4558.007 15297.49)
(807.2339 7764.747 21561.94)
(1205.769 2984.52 27159.43)
(1597.22 1509.086 29006.97)
(1985.441 726.1315 31023.05)
(2066.287 206.932 33483.01)
(1039.338 -304.7947 36089.8)
(45.50416 225.5645 10419.56)
(152.1253 788.8732 11245.9)
(288.2173 1666.524 12686.09)
(470.9487 3019.541 15271.98)
(732.6918 4326.442 19783.08)
(1057.268 2348.421 23813.66)
(1397.63 1378.134 25949.64)
(1813.709 715.8093 28028.65)
(2229.367 212.6908 30320.38)
(2315.332 -309.101 32944.46)
(1163.724 -1085.553 35592.15)
(42.25953 136.9171 10177.86)
(140.537 473.9891 11013.9)
(264.8715 977.1553 12471.87)
(429.8664 1680.403 14894.18)
(659.9493 2194.617 18478.85)
(929.2222 1376.505 21645.16)
(1211.925 876.0598 23673.07)
(1575.898 476.1334 25620.43)
(2020.938 141.8849 27630.05)
(2468.247 -213.3706 29811.25)
(2564.318 -731.7688 32184.59)
(1287.788 -1646.716 34313.29)
(39.13022 44.95246 9867.289)
(129.4912 154.6387 10679.99)
(242.7097 314.4239 12094.64)
(391.057 526.3291 14354.25)
(593.5088 659.532 17462.89)
(821.7532 436.9354 20175.34)
(1056.423 287.547 22026.32)
(1359.563 159.1771 23788.6)
(1748.218 47.02061 25533.96)
(2223.4 -72.98254 27322.79)
(2704.169 -242.3261 29174.19)
(2813.794 -531.6888 30992.79)
(1411.399 -1051.317 32187.44)
(34.71266 -534.4573 16044.41)
(81.09216 -402.0905 14837.38)
(99.75653 -1438.803 14927.44)
(93.44398 -239.4459 13546.69)
(234.2915 -869.9802 13770.96)
(157.0622 -1888.543 12662.04)
(88.24565 -76.45507 12449.49)
(272.5959 -277.4318 12647.65)
(372.1388 -609.3055 11716.22)
(202.5996 -1130.614 8778.623)
(78.25114 71.32078 11622.74)
(260.5661 257.5599 11777.84)
(438.784 566.2956 10960.89)
(489.2027 1071.13 8385.088)
(232.4281 1662.721 3278.957)
(68.79825 194.5801 11049.66)
(234.1624 700.472 11204.8)
(426.3148 1544.51 10537.31)
(589.7352 2975.819 8286.772)
(580.1515 4849.363 3381.466)
(61.24139 286.5962 10681.61)
(208.6482 1031.002 10893.61)
(390.0902 2292.175 10463.63)
(587.5534 4550.038 8612.975)
(723.6918 7926.913 3688.366)
(55.47725 342.4458 10461.68)
(187.9647 1232.351 10781.75)
(353.9658 2771.437 10703.77)
(552.7729 5745.487 9482.528)
(750.6372 11233.87 4341.033)
(51.03447 359.7049 10332.27)
(171.8351 1292.614 10793.9)
(324.083 2927.082 11182.73)
(516.1415 6343.747 11073)
(744.3281 15278.62 5567.96)
(47.44646 339.7992 10238.46)
(158.9018 1213.324 10844.04)
(299.7558 2715.45 11747.55)
(484.3223 5761.168 13689.03)
(747.8183 13330.32 22813.89)
(1185.518 1515.941 30477.38)
(1587.357 684.4261 30344.09)
(1981.079 309.6244 31675.39)
(2066.207 87.91452 33913.42)
(1041.264 -118.1156 36547.03)
(44.3515 288.8404 10132.96)
(147.8576 1020.088 10844.14)
(278.551 2217.058 12056.93)
(451.7799 4318.48 14491.79)
(701.8134 7324.794 20340.64)
(1040.407 2800.613 25488.96)
(1387.365 1407.946 27056.52)
(1808.228 675.401 28744.36)
(2228.36 200.4027 30872.97)
(2320.391 -255.3465 33556.9)
(1170.518 -932.9608 36569.11)
(41.5074 216.1461 9983.034)
(137.7981 754.2782 10750.97)
(258.8832 1589.403 12097.18)
(418.8146 2871.205 14520.41)
(644.2536 4099.157 18744.29)
(918.9116 2215.304 22467.6)
(1204.937 1293.236 24355.72)
(1571.833 668.2331 26143.09)
(2019.833 200.7232 28078.67)
(2471.479 -268.8906 30319.97)
(2575.577 -953.974 32956.79)
(1299.856 -2209.124 35683.21)
(38.77139 131.4532 9770.579)
(128.2004 454.1998 10552.75)
(239.9554 934.3122 11923.7)
(386.1966 1602.66 14204.16)
(587.0514 2086.831 17571.76)
(817.1834 1304.171 20510.95)
(1053.183 826.3902 22337.34)
(1357.618 446.8618 24049.25)
(1747.625 133.0845 25771.15)
(2224.698 -193.2702 27594.63)
(2709.118 -653.9297 29570.67)
(2826.211 -1456.503 31652.15)
(1423.474 -2945.432 33297.35)
(36.0723 43.23265 9488.904)
(118.8075 148.4681 10252.81)
(221.4243 301.2987 11588.76)
(354.3292 503.2575 13724.35)
(533.3472 629.0253 16655.53)
(731.1535 415.4727 19186.77)
(929.1359 272.433 20874.05)
(1181.348 150.1514 22449.03)
(1505.012 44.17916 23971.05)
(1918.582 -67.58605 25485.34)
(2424.595 -221.7304 26994.76)
(2941.359 -477.0517 28431.96)
(3071.552 -930.5752 29580.62)
(1541.517 -1711.137 29720.28)
(36.18891 -590.4352 16682.38)
(83.98216 -507.1374 15350.54)
(104.0622 -1823.415 15684.16)
(95.75224 -373.9089 13890.94)
(241.4087 -1364.748 14276.99)
(163.5472 -3004.991 13486.14)
(89.34843 -222.3089 12616.5)
(276.6799 -808.8395 12889.63)
(379.7808 -1790.283 12102.58)
(208.5481 -3381.386 9288.625)
(78.25114 -71.32078 11622.74)
(260.5661 -257.5599 11777.84)
(438.784 -566.2956 10960.89)
(489.2027 -1071.13 8385.088)
(232.4281 -1662.721 3278.957)
(67.97809 66.91871 10903.49)
(230.95 240.2627 10995.27)
(418.7224 525.6772 10204.25)
(574.989 995.1494 7838.75)
(560.1132 1574.433 3129.815)
(59.88298 183.5325 10417.75)
(203.3573 657.2466 10511.55)
(377.3847 1440.776 9836.296)
(560.9743 2762.026 7711.086)
(678.46 4503.744 3157.999)
(53.82868 271.5161 10115.24)
(181.5906 972.4813 10271.05)
(338.5466 2150.783 9816.579)
(518.9629 4244.418 8038.782)
(685.0128 7356.419 3429.969)
(49.31035 325.6071 9943.813)
(165.2183 1167.525 10210.59)
(308.0022 2614.211 10093.01)
(479.2081 5391.275 8896.761)
(660.8133 10479.27 4050.932)
(45.82676 343.0517 9851.315)
(152.7474 1229.069 10260.09)
(284.8815 2773.184 10591.49)
(448.9835 5984.127 10442.93)
(644.222 14337.42 5224.442)
(42.97318 324.896 9787.464)
(142.7008 1157.161 10339.71)
(266.4995 2582.011 11167.71)
(425.7838 5458.451 12967.76)
(650.2264 12575.26 21521.62)
(1023.005 1422.534 28602.48)
(1378.842 638.5392 28303.72)
(1804.14 287.9259 29349.01)
(2227.546 84.82226 31268.49)
(2323.613 -98.85487 33971.6)
(1175 -371.603 37258.38)
(40.45513 276.78 9708.396)
(133.9284 975.3545 10366.82)
(250.1909 2114.464 11497.12)
(401.7504 4106.358 13778.51)
(617.0914 6940.092 19272.54)
(904.2708 2641.893 24047.97)
(1196.104 1321.209 25394.35)
(1567.031 630.4457 26810.41)
(2018.484 188.7255 28589.38)
(2474.805 -221.9823 30876.69)
(2587.598 -820.2011 33830.01)
(1313.248 -1971.021 37363.49)
(38.08091 207.5205 9583.524)
(125.6999 722.787 10300.79)
(234.5253 1519.718 11565.43)
(376.2577 2738.381 13847.68)
(573.0782 3897.863 17824.15)
(808.114 2098.908 21290.18)
(1047.112 1219.922 22981.3)
(1354.102 627.1404 24539.63)
(1746.532 188.1546 26189.07)
(2226.839 -243.5208 28063.08)
(2717.506 -852.7518 30267.87)
(2847.761 -1954.522 32868.65)
(1445.18 -4135.753 35492.04)
(35.74136 126.424 9395.893)
(117.6224 436.0759 10130.65)
(218.9097 895.3113 11424.95)
(349.9217 1532.41 13580.84)
(527.5398 1990.311 16759.36)
(727.0854 1240.113 19505.9)
(926.2862 782.9565 21168.73)
(1179.656 421.5245 22694.91)
(1504.477 125.0305 24193.54)
(1919.549 -178.9781 25738.32)
(2428.231 -598.4042 27359)
(2950.806 -1307.047 29025.37)
(3093.11 -2607.626 30562.23)
(1561.3 -4951.32 31223.98)
(33.38636 41.643 9139.298)
(109.5258 142.7884 9859.795)
(203.1688 289.2778 11125.62)
(323.2946 482.254 13151.05)
(483.3511 601.4577 15925.87)
(657.1822 396.2545 18301.06)
(826.8184 259.0494 19852.66)
(1039.119 142.2559 21276.77)
(1307.606 41.67444 22624.2)
(1650.538 -63.31525 23928.85)
(2087.612 -205.9615 25180.92)
(2622.727 -437.2171 26298.85)
(3173.564 -835.7372 27092.04)
(3323.334 -1513.302 27185.64)
(1664.863 -2555.025 50274.6)
(37.7314 -584.8271 17349.06)
(87.37914 -560.2479 15955.69)
(109.1492 -2018.857 16596.61)
(98.93831 -471.5875 14368.05)
(251.2911 -1729.488 14994.12)
(172.7221 -3872.805 14728.63)
(91.45226 -347.1472 12936.1)
(284.5039 -1268.807 13359.86)
(394.6066 -2848.392 12882.82)
(220.4198 -5571.978 10395.39)
(79.20478 -207.3799 11778.53)
(264.283 -750.901 12002.45)
(447.1468 -1663.865 11319.75)
(502.7492 -3203.185 8867.652)
(241.2569 -5122.073 3545.01)
(67.97809 -66.91871 10903.49)
(230.95 -240.2627 10995.27)
(418.7224 -525.6772 10204.25)
(574.989 -995.1494 7838.75)
(560.1132 -1574.433 3129.815)
(59.17091 63.11925 10279.87)
(200.595 225.4362 10314.95)
(370.829 490.371 9525.614)
(547.6221 923.6675 7295.332)
(656.7353 1462.339 2924.404)
(52.63413 173.8752 9865.264)
(176.9969 619.9398 9910.667)
(327.6242 1351.897 9227.916)
(496.0405 2576.505 7197.478)
(644.1735 4179.797 2937.842)
(47.84313 258.165 9614.401)
(159.6128 921.324 9726.741)
(294.6149 2028.759 9256.104)
(450.1535 3982.715 7541.958)
(604.2936 6862.275 3201.07)
(44.27656 310.5325 9480.841)
(146.8581 1110.128 9705.442)
(270.7385 2476.756 9559.011)
(416.9171 5085.607 8389.937)
(572.4842 9833.529 3800.831)
(41.5046 328.0058 9417.301)
(137.1669 1172.178 9782.772)
(253.2594 2636.908 10068.41)
(394.6994 5669.694 9892.02)
(560.2797 13525.28 4927.558)
(39.19685 311.3302 9377.327)
(129.2526 1106.417 9884.507)
(239.3537 2462.534 10649.02)
(378.6078 5190.363 12329.26)
(571.7104 11914.98 20391.47)
(889.161 1341.922 26985.11)
(1188.774 599.2012 26564.67)
(1563.46 268.7438 27374.24)
(2017.473 79.7774 28955.07)
(2476.914 -85.89628 31253.79)
(2595.531 -326.7794 34445.89)
(1322.513 -807.387 38687.12)
(37.1149 265.7348 9319.845)
(122.1672 934.6341 9932.68)
(226.6433 2021.763 10991.66)
(360.9116 3916.412 13140.06)
(548.8959 6599.363 18326.46)
(795.2355 2503.107 22787.54)
(1039.441 1246.317 23961.06)
(1349.953 591.6657 25165.75)
(1745.227 176.7984 26664.89)
(2229.036 -200.9973 28575.82)
(2726.469 -733.4212 31056.26)
(2871.676 -1744.445 34360.8)
(1470.787 -3936.876 38544.54)
(35.10453 199.5812 9215.995)
(115.3269 693.9461 9888.744)
(213.9523 1456.283 11081.63)
(340.9089 2618.355 13239.96)
(514.973 3717.602 17000.08)
(719.0117 1995.825 20246.87)
(920.9464 1155.812 21778.86)
(1176.598 591.5832 23157.48)
(1503.498 176.7423 24585.58)
(1921.142 -225.5091 26174.29)
(2434.4 -780.4654 27999.51)
(2967.207 -1754.476 30120.36)
(3131.862 -3662.619 32504.2)
(1598.64 -7456.31 34472.96)
(33.07994 121.7755 9049.708)
(108.4329 419.3937 9742.305)
(200.8602 859.5915 10968.35)
(319.2706 1468.457 13013.52)
(478.0846 1903.088 16025.15)
(653.5237 1182.753 18605.43)
(824.2818 744.4945 20132.87)
(1037.63 399.3605 21509.72)
(1307.136 117.9413 22834.08)
(1651.324 -167.6708 24166.1)
(2090.477 -555.8719 25519.65)
(2629.8 -1198.021 26843.36)
(3189.997 -2342.327 27974.04)
(3358.542 -4380.082 28510.49)
(1694.823 -7698.115 53637.52)
(31.00497 40.16845 8815.109)
(101.3726 137.5385 9496.645)
(187.306 278.2128 10699.45)
(296.6687 463.0168 12626.05)
(441.0849 576.3603 15261.53)
(595.6851 378.8884 17500.31)
(743.2725 247.0664 18937.26)
(924.8323 135.2655 20237.29)
(1150.311 39.47701 21445.2)
(1433.933 -59.72362 22587.82)
(1794.764 -193.0778 23647.23)
(2253.335 -406.3207 24534.97)
(2814.294 -766.2448 25054.72)
(3393.948 -1359.053 24865.61)
(3557.019 -2255.417 45705.68)
(227.8013 -518.2021 15838.09)
(39.17842 -519.9003 17971.27)
(90.92849 -554.9319 16588.07)
(114.4667 -1992.952 17557.36)
(102.6827 -520.972 14930.67)
(262.9634 -1914.813 15858.72)
(183.7674 -4336.834 16347.14)
(94.35584 -437.8332 13379.03)
(295.3634 -1607.867 14026.24)
(415.5667 -3670.604 14058.92)
(238.0047 -7545.426 12295.79)
(81.02403 -323.8347 12076.66)
(271.4029 -1177.913 12438.94)
(463.3613 -2647.132 12044.38)
(529.7593 -5277.412 9914.628)
(259.6992 -9019.325 4149.301)
(68.79825 -194.5801 11049.66)
(234.1624 -700.472 11204.8)
(426.3148 -1544.51 10537.31)
(589.7352 -2975.819 8286.772)
(580.1515 -4849.363 3381.466)
(59.17091 -63.11925 10279.87)
(200.595 -225.4362 10314.95)
(370.829 -490.371 9525.614)
(547.6221 -923.6675 7295.332)
(656.7353 -1462.339 2924.404)
(52.00796 59.79797 9734.638)
(174.5987 212.6397 9725.22)
(321.9884 460.1203 8936.388)
(484.523 861.6265 6809.653)
(624.5419 1357.186 2721.083)
(46.78 165.3253 9376.716)
(155.5731 587.327 9385.307)
(285.1319 1275.193 8700.814)
(430.4537 2417.627 6752.493)
(569.1032 3899.035 2742.003)
(42.95733 246.2126 9166.678)
(141.8691 876.0296 9245.37)
(258.9646 1922.08 8766.075)
(391.6913 3756.874 7111.88)
(523.9271 6439.318 3003.315)
(40.09903 296.9128 9063.073)
(131.8715 1058.742 9253.789)
(240.6703 2355.043 9086.631)
(366.4941 4818.353 7946.799)
(497.9946 9276.319 3584.551)
(37.85617 314.3103 9022.618)
(124.2349 1120.775 9351.985)
(227.4474 2514.891 9600.553)
(350.9347 5391.229 9404.44)
(492.5804 12815.1 4667.961)
(35.95975 298.9064 9001.987)
(117.8985 1060.226 9470.493)
(216.8163 2354.576 10180.72)
(340.0984 4950.295 11757.8)
(508.491 11330.15 19390.43)
(781.9439 1271.435 25570.45)
(1033.075 565.2389 25065.07)
(1346.869 252.21 25694.79)
(1744.265 74.70769 27005.64)
(2230.425 -77.76413 28923.17)
(2732.389 -292.2731 31612.31)
(2888.22 -714.7377 35536.28)
(1490.084 -1695.238 41471.01)
(34.21358 255.5684 8962.403)
(112.0837 897.3405 9535.319)
(206.7562 1937.374 10531.8)
(326.9923 3744.765 12563.35)
(493.2235 6294.22 17479.14)
(707.5465 2380.192 21670.72)
(914.1979 1180.829 22707.15)
(1172.99 558.1223 23748.11)
(1502.334 166.0516 25031.95)
(1922.774 -186.1261 26651.52)
(2441.001 -671.3685 28723.88)
(2985.419 -1566.43 31463.75)
(3177.572 -3487.834 35207.19)
(1646.983 -7949.983 39884.98)
(32.49031 192.2427 8876.424)
(106.3156 667.3993 9509.651)
(196.3088 1398.183 10638.72)
(311.0417 2509.086 12686.86)
(466.688 3554.7 16255.31)
(646.2628 1903.518 19312.12)
(819.5285 1099.039 20713.04)
(1034.94 560.4808 21948)
(1306.275 166.7198 23203.89)
(1652.62 -211.2671 24574.99)
(2095.341 -725.0492 26115.36)
(2642.089 -1608.399 27848.26)
(3219.545 -3291.135 29719.67)
(3424.998 -6599.478 31376.68)
(1754.808 -12796.75 61688.81)
(30.72032 117.4635 8728.69)
(100.3606 403.9739 9383.474)
(185.1767 826.712 10548.19)
(292.9742 1409.881 12494)
(436.2764 1823.68 15356.66)
(592.3675 1130.919 17791.33)
(740.9915 710.0572 19204.5)
(923.5076 379.7369 20458.8)
(1149.897 111.7233 21644.06)
(1434.605 -158.1622 22811.62)
(1797.147 -521.1132 23964.86)
(2258.962 -1113.421 25041.17)
(2826.651 -2147.819 25863.54)
(3420.675 -3934.682 26054.3)
(3610.078 -6798.665 48642.36)
(234.1222 -1651.837 16915.58)
(28.8766 38.7965 8513.557)
(94.1434 132.6686 9159.878)
(173.3697 267.9848 10305.62)
(273.5264 445.3088 12142.85)
(404.8074 553.3726 14653)
(543.6735 363.0788 16771.04)
(673.7971 236.239 18109.46)
(831.5031 129.0086 19305.34)
(1023.961 37.53395 20399.32)
(1261.607 -56.59675 21413.46)
(1559.145 -182.1257 22325.97)
(1936.033 -380.9414 23045.87)
(2412.909 -712.1656 23380.06)
(2993.924 -1246.034 22998.16)
(3592.312 -2024.435 41772.18)
(478.633 -454.9938 14377.32)
(270.222 -828.2834 22669.37)
(40.38756 -405.9811 18487.37)
(94.25868 -493.3387 17178.29)
(119.4179 -1756.733 18427.42)
(106.5949 -516.0317 15518.6)
(275.1633 -1890.265 16769.04)
(195.3963 -4246.438 18159.99)
(97.76793 -483.6822 13901.35)
(308.1853 -1780.135 14829.6)
(440.7811 -4110.092 15590.53)
(260.4713 -8881.58 15350.6)
(83.53476 -408.4308 12489.85)
(281.2831 -1492.673 13057.48)
(486.265 -3411.06 13136.53)
(569.7109 -7144.91 11711.74)
(289.5328 -13783.24 5268.684)
(70.36284 -303.8474 11329.4)
(240.3155 -1098.806 11611.97)
(441.0313 -2457.21 11209.82)
(619.1049 -4902.361 9258.689)
(621.9462 -8536.566 3952.904)
(59.88298 -183.5325 10417.75)
(203.3573 -657.2466 10511.55)
(377.3847 -1440.776 9836.296)
(560.9743 -2762.026 7711.086)
(678.46 -4503.744 3157.999)
(52.00796 -59.79797 9734.638)
(174.5987 -212.6397 9725.22)
(321.9884 -460.1203 8936.388)
(484.523 -861.6265 6809.653)
(624.5419 -1357.186 2721.083)
(46.22271 56.8575 9252.513)
(153.4641 201.4533 9209.611)
(280.2388 434.0131 8425.814)
(420.555 808.4924 6388.568)
(552.1818 1266.022 2539.805)
(42.00144 157.671 8939.996)
(138.2736 558.4521 8920.715)
(250.6245 1208.136 8239.963)
(374.5876 2280.52 6367.147)
(493.6905 3658.678 2572.529)
(38.9029 235.4139 8762.688)
(127.3854 835.4785 8815.006)
(230.1902 1827.62 8332.637)
(344.3063 3559.42 6735.853)
(455.836 6074.339 2832.202)
(36.57301 284.5155 8683.18)
(119.4333 1012.313 8846.191)
(216.1267 2246.064 8664.175)
(325.8253 4581.676 7554.684)
(437.789 8789.092 3395.443)
(34.72897 301.7675 8661.432)
(113.3176 1073.984 8960.197)
(206.0197 2404.638 9178.194)
(315.2104 5141.869 8968.149)
(438.0336 12186.06 4438.153)
(33.14819 287.4709 8656.704)
(108.1648 1017.921 9091.57)
(197.7843 2256.297 9754.696)
(308.1176 4733.351 11241.62)
(456.8818 10806.36 18493.91)
(695.713 1209.006 24317.01)
(908.598 535.5409 23753.18)
(1170.31 237.9121 24247.17)
(1501.481 70.16062 25351.62)
(1923.804 -72.00901 26974.84)
(2445.367 -267.577 29234.81)
(2998.023 -641.9499 32522.33)
(3212.011 -1502.266 37800.79)
(1689.535 -3733.857 47218.06)
(31.66538 246.1714 8632.156)
(103.3244 863.0133 9169.743)
(189.7023 1860.083 10110.82)
(298.3355 3588.499 12038.46)
(446.9632 6018.45 16713.37)
(635.9516 2270.12 20670.13)
(813.521 1122.834 21595.76)
(1031.766 528.7828 22507.6)
(1305.255 156.6345 23624.95)
(1653.946 -174.3757 25022.59)
(2100.549 -623.7534 26789.11)
(2655.751 -1436.29 29081.39)
(3254.409 -3135.396 32150.92)
(3511.038 -7041.039 36160.15)
(1843.27 -16681.98 79309.63)
(30.17258 185.4356 8561.542)
(98.40024 642.8613 9159.373)
(180.9789 1344.704 10231.17)
(285.4192 2409.004 12180.37)
(425.8708 3406.389 15577.22)
(585.7829 1820.104 18467.06)
(736.7171 1048.205 19757.84)
(921.1134 532.9423 20875.56)
(1149.139 157.9323 21994.45)
(1435.712 -199.2922 23197.32)
(1801.195 -679.7417 24523.47)
(2268.746 -1494.961 25975.48)
(2848.888 -3018.494 27464.79)
(3471.148 -5931.354 28628.08)
(3716.35 -11312.29 55695.69)
(247.8011 -3243.47 19496.03)
(28.61142 113.4515 8430.09)
(93.2033 389.6704 9050.713)
(171.3982 796.3199 10159.92)
(270.1187 1355.961 12015.85)
(400.3926 1750.947 14744.33)
(540.6445 1083.731 17049.93)
(671.7287 678.9405 18364.99)
(830.3122 362.1719 19516.61)
(1023.593 106.2247 20588.41)
(1262.197 -149.8837 21625.51)
(1561.196 -491.5619 22625.58)
(1940.732 -1043.911 23520.47)
(2422.766 -1996.379 24131.78)
(3014.026 -3608.087 24087.5)
(3632.295 -6104.805 44397.65)
(489.6953 -1451.84 15314.88)
(280.5826 -2698.975 24134.54)
(26.9611 37.51668 8232.316)
(87.68199 128.1376 8846.612)
(161.0115 258.4972 9940.364)
(253.19 428.94 11696.25)