/*--------------------------------*- C++ -*----------------------------------*\
| =========                 |                                                 |
| \\      /  F ield         | OpenFOAM: The Open Source CFD Toolbox           |
|  \\    /   O peration     | Version:  2306                                  |
|   \\  /    A nd           | Website:  www.openfoam.com                      |
|    \\/     M anipulation  |                                                 |
\*---------------------------------------------------------------------------*/
FoamFile
{
    version     2.0;
    format      ascii;
    arch        "LSB;label=32;scalar=64";
    class       volScalarField;
    location    "1.2/phiEC";
    object      phi;
}
// * * * * * * * * * * * * * * * * * * * * * * * * * * * * * * * * * * * * * //

dimensions      [1 2 -3 0 0 -1 0];

internalField   nonuniform List<scalar> 
20000
(
0.7156166
0.7156157
0.7156124
0.7158089
0.715614
0.7156116
0.715806
0.7156066
0.7157961
0.7160133
0.7156117
0.71561
0.7158003
0.7156058
0.7157933
0.7160076
0.7156008
0.7157783
0.715991
0.7162413
0.7156088
0.7156078
0.7157924
0.7156043
0.715788
0.7159964
0.7156001
0.7157757
0.7159856
0.7162322
0.7155956
0.7157605
0.7159602
0.7162077
0.7165069
0.7156058
0.7156051
0.7157828
0.7156023
0.7157805
0.7159802
0.7155987
0.7157708
0.715975
0.7162136
0.7155949
0.7157582
0.7159552
0.7161991
0.716496
0.715591
0.7157447
0.7159298
0.7161621
0.7164593
0.7167401
0.7156029
0.7156022
0.7157725
0.7155998
0.7157713
0.71596
0.7155967
0.7157637
0.7159596
0.7161849
0.7155936
0.7157536
0.7159454
0.7161815
0.7164725
0.7155904
0.7157425
0.7159251
0.7161541
0.716449
0.7167333
0.7155871
0.7157309
0.7159026
0.7161174
0.7163959
0.7166793
0.716903
0.7156005
0.7155995
0.7157626
0.7155971
0.7157616
0.7159378
0.7155944
0.7157553
0.7159405
0.716146
0.7155918
0.715747
0.7159311
0.7161543
0.7164318
0.7155892
0.7157382
0.715916
0.7161378
0.7164267
0.7167197
0.7155865
0.7157289
0.7158983
0.71611
0.7163864
0.7166728
0.7168988
0.7155837
0.715719
0.7158791
0.7160777
0.7163345
0.7165999
0.7168326
0.7170708
0.7155987
0.7155971
0.7157542
0.7155945
0.7157522
0.7159166
0.7155919
0.7157462
0.7159194
0.7160994
0.7155896
0.7157392
0.7159133
0.7161174
0.7163637
0.7155875
0.7157321
0.7159027
0.7161125
0.7163882
0.7167004
0.7155854
0.7157248
0.7158898
0.7160948
0.7163657
0.71666
0.7168908
0.7155831
0.7157171
0.715875
0.7160708
0.7163256
0.7165939
0.7168286
0.7170687
0.7155806
0.7157086
0.7158587
0.7160434
0.7162802
0.7165237
0.7167419
0.7169902
0.7172416
0.7155978
0.7155954
0.7157482
0.7155924
0.7157443
0.715899
0.7155896
0.7157375
0.7158994
0.7160572
0.7155873
0.7157307
0.7158937
0.7160734
0.7162448
0.7155855
0.7157248
0.7158862
0.7160783
0.7163238
0.7166805
0.7155838
0.7157191
0.7158774
0.7160714
0.7163299
0.7166417
0.7168808
0.715582
0.7157133
0.715867
0.7160566
0.7163064
0.7165819
0.7168211
0.7170648
0.7155801
0.7157068
0.7158549
0.7160369
0.716272
0.7165181
0.7167381
0.7169881
0.7172411
0.7155779
0.7156994
0.7158409
0.7160137
0.7162334
0.7164567
0.7166553
0.7168875
0.7171501
0.7174139
0.7155978
0.7155946
0.7157451
0.7155908
0.7157385
0.7158866
0.7155876
0.7157301
0.7158827
0.716024
0.7155851
0.7157227
0.7158751
0.7160334
0.7161625
0.7155833
0.7157169
0.715868
0.7160373
0.7162114
0.7155818
0.7157122
0.715862
0.7160396
0.7162701
0.7166229
0.7168724
0.7155805
0.7157079
0.7158554
0.7160348
0.7162732
0.716565
0.7168115
0.7170601
0.7155791
0.7157031
0.7158474
0.7160236
0.7162541
0.716507
0.7167311
0.7169843
0.7172402
0.7155774
0.7156976
0.7158373
0.7160075
0.7162257
0.7164515
0.7166518
0.7168856
0.7171495
0.717415
0.7155755
0.7156912
0.7158252
0.7159877
0.716193
0.7163991
0.7165795
0.7167903
0.7170351
0.7173107
0.717586
0.7155987
0.7155946
0.7157451
0.71559
0.7157356
0.7158801
0.7155861
0.7157248
0.7158709
0.7160014
0.7155832
0.7157158
0.7158596
0.7160019
0.7161069
0.7155812
0.7157093
0.7158507
0.7160002
0.7161336
0.7155798
0.7157048
0.715845
0.7160016
0.7161658
0.7155787
0.7157014
0.715841
0.7160051
0.7162177
0.7165475
0.7168036
0.7170566
0.7155776
0.7156981
0.7158364
0.7160031
0.7162231
0.7164913
0.7167222
0.7169799
0.7172391
0.7155764
0.7156942
0.7158302
0.715995
0.7162089
0.7164412
0.7166453
0.7168821
0.7171485
0.7174168
0.715575
0.7156895
0.7158218
0.7159819
0.7161856
0.7163942
0.7165763
0.7167885
0.7170346
0.7173116
0.7175891
0.7155732
0.7156837
0.7158111
0.7159647
0.7161576
0.7163492
0.7165143
0.7167054
0.716927
0.7171831
0.7174707
0.7177562
0.7156005
0.7155954
0.7157482
0.71559
0.7157356
0.7158801
0.7155853
0.715722
0.7158648
0.7159901
0.7155819
0.7157109
0.7158486
0.7159806
0.7160723
0.7155795
0.715703
0.7158363
0.715971
0.716081
0.7155779
0.7156978
0.7158289
0.7159671
0.7160936
0.7155768
0.7156944
0.715825
0.7159697
0.7161209
0.7155759
0.7156919
0.7158228
0.7159753
0.7161713
0.716475
0.7167148
0.7169766
0.7172382
0.7155751
0.7156894
0.7158198
0.7159757
0.7161798
0.7164265
0.7166371
0.7168779
0.7171473
0.7174187
0.715574
0.7156862
0.715815
0.71597
0.7161698
0.7163845
0.7165702
0.7167852
0.7170336
0.7173132
0.7175944
0.7155728
0.7156821
0.7158078
0.7159592
0.7161506
0.7163446
0.7165113
0.7167037
0.7169265
0.7171839
0.7174734
0.7177623
0.7155712
0.715677
0.7157984
0.7159442
0.7161262
0.7163056
0.716458
0.7166325
0.7168329
0.7170641
0.7173303
0.7176282
0.7179217
0.7156029
0.7155971
0.7157542
0.7155908
0.7157385
0.7158866
0.7155853
0.715722
0.7158648
0.7159901
0.7155812
0.7157083
0.7158429
0.7159699
0.7160557
0.7155782
0.7156983
0.7158262
0.7159512
0.7160482
0.7155762
0.7156918
0.7158155
0.71594
0.7160447
0.7155749
0.7156877
0.7158099
0.7159375
0.7160539
0.7155741
0.7156853
0.7158078
0.715942
0.716081
0.7155734
0.7156835
0.7158069
0.7159494
0.7161312
0.7164113
0.7166302
0.7168748
0.7171465
0.7174198
0.7155727
0.7156816
0.7158051
0.7159517
0.7161424
0.7163707
0.7165625
0.7167813
0.7170324
0.7173147
0.7176
0.7155719
0.715679
0.7158013
0.7159479
0.7161356
0.7163355
0.7165056
0.7167007
0.7169256
0.7171853
0.717478
0.7177727
0.7155708
0.7156754
0.7157953
0.7159389
0.7161196
0.7163013
0.7164551
0.7166309
0.7168325
0.7170648
0.7173327
0.7176335
0.7179322
0.7155693
0.7156708
0.7157868
0.7159256
0.7160982
0.716267
0.7164087
0.7165695
0.7167522
0.7169608
0.7172002
0.7174749
0.7177806
0.7180781
0.7156058
0.7155995
0.7157626
0.7155924
0.7157443
0.715899
0.7155861
0.7157248
0.7158709
0.7160014
0.7155812
0.7157083
0.7158429
0.7159699
0.7160557
0.7155775
0.7156959
0.7158209
0.7159412
0.7160325
0.715575
0.7156875
0.715806
0.7159216
0.7160143
0.7155733
0.7156821
0.7157973
0.7159122
0.7160086
0.7155723
0.715679
0.7157935
0.7159118
0.7160185
0.7155717
0.7156772
0.7157926
0.7159181
0.7160465
0.7155712
0.715676
0.7157928
0.7159268
0.7160965
0.7163565
0.7165561
0.7167785
0.7170316
0.7173157
0.7176037
0.7155706
0.7156746
0.7157919
0.7159305
0.7161096
0.7163225
0.7164983
0.7166971
0.7169245
0.7171866
0.7174829
0.7177843
0.7155699
0.7156724
0.7157891
0.7159281
0.7161054
0.7162926
0.7164497
0.716628
0.7168316
0.717066
0.7173368
0.7176427
0.7179512
0.7155689
0.7156693
0.7157838
0.7159206
0.7160919
0.7162629
0.7164059
0.716568
0.7167518
0.7169615
0.7172025
0.7174796
0.7177899
0.7180952
0.7155676
0.7156651
0.7157763
0.7159087
0.7160729
0.7162325
0.716365
0.7165144
0.7166824
0.7168722
0.7170878
0.717334
0.7176146
0.717924
0.7182189
0.7156088
0.7156022
0.7157725
0.7155945
0.7157522
0.7159166
0.7155876
0.7157301
0.7158827
0.716024
0.7155819
0.7157109
0.7158486
0.7159806
0.7160723
0.7155775
0.7156959
0.7158209
0.7159412
0.7160325
0.7155744
0.7156852
0.7158011
0.7159124
0.7159997
0.7155722
0.715678
0.7157884
0.7158951
0.7159804
0.7155708
0.7156736
0.7157816
0.7158881
0.7159762
0.71557
0.7156712
0.7157791
0.7158896
0.7159879
0.7155695
0.71567
0.7157793
0.7158971
0.7160166
0.7155691
0.7156692
0.7157802
0.7159069
0.7160662
0.716309
0.7164923
0.7166944
0.7169237
0.7171875
0.7174862
0.7177924
0.7155687
0.7156682
0.7157801
0.7159115
0.7160807
0.7162803
0.7164429
0.7166246
0.7168306
0.7170672
0.7173412
0.717653
0.7179736
0.7155681
0.7156664
0.7157779
0.7159103
0.7160783
0.7162546
0.7164008
0.7165653
0.7167509
0.7169626
0.7172062
0.7174879
0.7178067
0.7181276
0.7155672
0.7156637
0.7157734
0.7159039
0.7160669
0.7162286
0.7163624
0.716513
0.716682
0.7168729
0.7170899
0.7173384
0.7176229
0.7179391
0.7182445
0.715566
0.7156598
0.7157665
0.7158933
0.7160499
0.7162013
0.716326
0.7164656
0.7166214
0.7167957
0.7169915
0.7172126
0.7174632
0.7177458
0.7180524
0.7184723
0.7156117
0.7156051
0.7157828
0.7155971
0.7157616
0.7159378
0.7155896
0.7157375
0.7158994
0.7160572
0.7155832
0.7157158
0.7158596
0.7160019
0.7161069
0.7155782
0.7156983
0.7158262
0.7159512
0.7160482
0.7155744
0.7156852
0.7158011
0.7159124
0.7159997
0.7155716
0.7156759
0.7157838
0.7158865
0.7159668
0.7155697
0.7156698
0.7157732
0.715872
0.7159499
0.7155686
0.7156661
0.7157679
0.7158672
0.7159482
0.7155679
0.7156643
0.7157664
0.7158701
0.7159613
0.7155675
0.7156635
0.7157673
0.7158786
0.7159905
0.7155672
0.7156631
0.7157688
0.715889
0.7160394
0.7162676
0.7164372
0.7166221
0.7168298
0.717068
0.7173441
0.7176602
0.7179906
0.7155669
0.7156624
0.7157693
0.7158944
0.7160547
0.7162429
0.7163944
0.7165621
0.71675
0.7169637
0.7172103
0.7174972
0.7178265
0.7181698
0.7155664
0.7156609
0.7157677
0.7158941
0.7160539
0.7162207
0.7163576
0.7165104
0.7166813
0.7168739
0.7170934
0.717346
0.717638
0.7179678
0.7182959
0.7155656
0.7156585
0.7157638
0.7158887
0.7160441
0.7161975
0.7163235
0.7164642
0.716621
0.7167963
0.7169934
0.7172167
0.7174709
0.7177594
0.718075
0.7185155
0.7155645
0.715655
0.7157575
0.7158791
0.7160288
0.7161729
0.7162907
0.7164219
0.7165674
0.7167288
0.7169083
0.7171087
0.7173331
0.7175846
0.7178632
0.7182825
0.7188554
0.715614
0.7156078
0.7157924
0.7155998
0.7157713
0.71596
0.7155919
0.7157462
0.7159194
0.7160994
0.7155851
0.7157227
0.7158751
0.7160334
0.7161625
0.7155795
0.715703
0.7158363
0.715971
0.716081
0.715575
0.7156875
0.715806
0.7159216
0.7160143
0.7155716
0.7156759
0.7157838
0.7158865
0.7159668
0.7155692
0.7156677
0.7157689
0.7158639
0.7159373
0.7155675
0.7156625
0.7157599
0.715852
0.7159235
0.7155665
0.7156594
0.7157557
0.7158489
0.7159239
0.715566
0.715658
0.7157551
0.7158529
0.7159381
0.7155657
0.7156576
0.7157565
0.715862
0.7159674
0.7155655
0.7156574
0.7157585
0.7158729
0.7160154
0.7162308
0.716389
0.7165597
0.7167493
0.7169644
0.7172129
0.7175036
0.7178415
0.7182071
0.7155653
0.715657
0.7157594
0.7158788
0.7160313
0.7162095
0.7163515
0.7165073
0.7166804
0.716875
0.7170971
0.7173545
0.7176558
0.7180051
0.7183725
0.7155648
0.7156558
0.7157583
0.7158792
0.7160316
0.71619
0.7163189
0.7164618
0.7166203
0.7167973
0.7169967
0.7172237
0.7174847
0.7177851
0.7181204
0.7186099
0.7155641
0.7156536
0.7157549
0.7158746
0.7160233
0.7161693
0.7162883
0.7164206
0.716567
0.7167294
0.7169101
0.7171125
0.7173403
0.717597
0.7178835
0.7183204
0.7189245
0.7155631
0.7156504
0.7157492
0.7158659
0.7160094
0.716147
0.7162586
0.7163824
0.716519
0.7166696
0.7168356
0.717019
0.7172219
0.7174464
0.7176932
0.7180734
0.7186303
0.7192279
0.7156157
0.71561
0.7158003
0.7156023
0.7157805
0.7159802
0.7155944
0.7157553
0.7159405
0.716146
0.7155873
0.7157307
0.7158937
0.7160734
0.7162448
0.7155812
0.7157093
0.7158507
0.7160002
0.7161336
0.7155762
0.7156918
0.7158155
0.71594
0.7160447
0.7155722
0.715678
0.7157884
0.7158951
0.7159804
0.7155692
0.7156677
0.7157689
0.7158639
0.7159373
0.715567
0.7156605
0.7157558
0.7158444
0.7159116
0.7155655
0.7156559
0.7157481
0.7158346
0.7159005
0.7155647
0.7156534
0.7157449
0.7158328
0.7159026
0.7155642
0.7156523
0.7157448
0.7158376
0.7159175
0.715564
0.7156522
0.7157467
0.7158471
0.7159467
0.7155639
0.7156523
0.7157491
0.7158582
0.7159937
0.716198
0.7163464
0.7165051
0.7166797
0.7168756
0.7170996
0.7173604
0.7176694
0.7180382
0.7184627
0.7155637
0.715652
0.7157503
0.7158646
0.71601
0.7161793
0.716313
0.7164589
0.7166195
0.7167983
0.7170002
0.7172316
0.7175011
0.7178187
0.7181881
0.7187858
0.7155634
0.7156511
0.7157496
0.7158655
0.7160113
0.7161621
0.7162839
0.7164183
0.7165663
0.7167303
0.7169132
0.7171191
0.7173531
0.7176207
0.7179243
0.7184034
0.7190804
0.7155627
0.7156491
0.7157466
0.7158617
0.7160041
0.7161435
0.7162563
0.7163812
0.7165187
0.7166701
0.7168373
0.7170226
0.7172286
0.717458
0.7177118
0.7181074
0.7186907
0.71932
0.7155618
0.7156462
0.7157414
0.7158538
0.7159915
0.716123
0.7162292
0.7163465
0.7164753
0.7166165
0.7167711
0.7169405
0.7171259
0.7173284
0.7175479
0.7178879
0.7183913
0.7189684
0.7195861
0.7156166
0.7156116
0.715806
0.7156043
0.715788
0.7159964
0.7155967
0.7157637
0.7159596
0.7161849
0.7155896
0.7157392
0.7159133
0.7161174
0.7163637
0.7155833
0.7157169
0.715868
0.7160373
0.7162114
0.7155779
0.7156978
0.7158289
0.7159671
0.7160936
0.7155733
0.7156821
0.7157973
0.7159122
0.7160086
0.7155697
0.7156698
0.7157732
0.715872
0.7159499
0.715567
0.7156605
0.7157558
0.7158444
0.7159116
0.715565
0.7156541
0.7157442
0.7158273
0.7158893
0.7155637
0.71565
0.7157376
0.7158191
0.7158805
0.715563
0.7156479
0.715735
0.7158183
0.7158838
0.7155626
0.7156471
0.7157355
0.7158237
0.7158991
0.7155625
0.7156472
0.7157377
0.7158335
0.715928
0.7155624
0.7156475
0.7157404
0.7158447
0.715974
0.7161683
0.7163082
0.7164567
0.7166188
0.716799
0.7170025
0.7172371
0.7175135
0.7178485
0.7182681
0.7192164
0.7155623
0.7156474
0.7157419
0.7158515
0.7159905
0.7161519
0.7162783
0.7164155
0.7165655
0.7167313
0.7169166
0.7171265
0.7173683
0.7176514
0.7179851
0.7185585
0.7193812
0.715562
0.7156466
0.7157415
0.7158529
0.7159925
0.7161366
0.7162521
0.716379
0.716518
0.716671
0.7168402
0.7170288
0.7172407
0.7174799
0.7177492
0.7181819
0.7188273
0.719528
0.7155614
0.7156449
0.7157389
0.7158496
0.7159863
0.7161197
0.716227
0.7163453
0.716475
0.716617
0.7167728
0.7169439
0.7171322
0.7173392
0.7175651
0.717919
0.7184453
0.7190488
0.7196973
0.7155606
0.7156422
0.7157342
0.7158424
0.7159748
0.7161009
0.7162022
0.7163136
0.7164355
0.7165685
0.7167134
0.716871
0.717042
0.7172265
0.7174238
0.7177299
0.7181823
0.7187005
0.7192938
0.719927
0.7156124
0.7158089
0.7156058
0.7157933
0.7160076
0.7155987
0.7157708
0.715975
0.7162136
0.7155918
0.715747
0.7159311
0.7161543
0.7164318
0.7155855
0.7157248
0.7158862
0.7160783
0.7163238
0.7166805
0.7155798
0.7157048
0.715845
0.7160016
0.7161658
0.7155749
0.7156877
0.7158099
0.7159375
0.7160539
0.7155708
0.7156736
0.7157816
0.7158881
0.7159762
0.7155675
0.7156625
0.7157599
0.715852
0.7159235
0.715565
0.7156541
0.7157442
0.7158273
0.7158893
0.7155632
0.7156483
0.7157339
0.7158122
0.7158699
0.7155621
0.7156447
0.7157281
0.7158053
0.7158628
0.7155614
0.7156429
0.7157261
0.7158053
0.715867
0.7155611
0.7156423
0.7157269
0.7158111
0.7158825
0.7155611
0.7156426
0.7157295
0.715821
0.715911
0.7217398
0.7155611
0.715643
0.7157323
0.7158324
0.7159559
0.7161413
0.7162737
0.7164135
0.7165649
0.7167319
0.7169188
0.7171316
0.7173799
0.7176788
0.7180571
0.7189399
0.7200414
0.715561
0.7156431
0.7157341
0.7158393
0.7159726
0.7161267
0.7162467
0.7163763
0.7165172
0.7166719
0.7168434
0.7170358
0.7172549
0.7175086
0.717805
0.7183211
0.7190921
0.7199196
0.7155607
0.7156425
0.715734
0.7158412
0.7159752
0.716113
0.716223
0.7163432
0.7164744
0.7166179
0.7167756
0.7169498
0.7171436
0.7173598
0.7175999
0.7179872
0.7185678
0.7192308
0.7199467
0.7155602
0.715641
0.7157318
0.7158384
0.7159699
0.7160977
0.7162001
0.7163125
0.7164352
0.716569
0.716715
0.7168742
0.7170479
0.7172367
0.7174399
0.7177587
0.7182318
0.7187723
0.7193906
0.720053
0.7155594
0.7156385
0.7157274
0.7158319
0.7159594
0.7160804
0.7161771
0.7162833
0.7163991
0.7165249
0.7166612
0.7168087
0.7169675
0.7171373
0.7173167
0.7175951
0.7180052
0.7184688
0.7189982
0.7196036
0.7200956
0.7156066
0.7157961
0.7160133
0.7156001
0.7157757
0.7159856
0.7162322
0.7155936
0.7157536
0.7159454
0.7161815
0.7164725
0.7155875
0.7157321
0.7159027
0.7161125
0.7163882
0.7167004
0.7155818
0.7157122
0.715862
0.7160396
0.7162701
0.7166229
0.7168724
0.7155768
0.7156944
0.715825
0.7159697
0.7161209
0.7155723
0.715679
0.7157935
0.7159118
0.7160185
0.7155686
0.7156661
0.7157679
0.7158672
0.7159482
0.7155655
0.7156559
0.7157481
0.7158346
0.7159005
0.7155632
0.7156483
0.7157339
0.7158122
0.7158699
0.7155616
0.715643
0.7157246
0.7157987
0.7158527
0.7155605
0.7156398
0.7157195
0.7157928
0.7158469
0.71556
0.7156382
0.715718
0.7157934
0.7158518
0.7155598
0.7156379
0.7157191
0.7157995
0.7158675
0.7232004
0.7155597
0.7156383
0.7157218
0.7158096
0.7158955
0.7211822
0.7219108
0.7155598
0.7156389
0.7157249
0.715821
0.7159393
0.7161166
0.7162423
0.7163744
0.7165167
0.7166725
0.7168455
0.7170406
0.7172657
0.717534
0.7178711
0.7186647
0.7196757
0.7206736
0.7155598
0.7156392
0.7157269
0.7158281
0.715956
0.7161036
0.7162178
0.7163407
0.7164736
0.7166187
0.7167785
0.7169564
0.7171571
0.7173867
0.7176518
0.7181149
0.7188054
0.7195746
0.7204006
0.7155596
0.7156387
0.715727
0.7158303
0.7159592
0.7160913
0.7161961
0.7163104
0.7164346
0.7165698
0.7167176
0.7168798
0.7170587
0.7172562
0.7174725
0.7178221
0.7183439
0.7189352
0.7196083
0.7203333
0.7155591
0.7156374
0.7157251
0.715828
0.7159546
0.7160773
0.7161751
0.7162822
0.7163988
0.7165254
0.7166627
0.7168118
0.7169732
0.717147
0.7173319
0.7176222
0.7180511
0.7185345
0.7190846
0.7197131
0.7202271
0.7155584
0.715635
0.7157211
0.715822
0.7159449
0.7160614
0.716154
0.7162553
0.7163656
0.7164849
0.7166137
0.7167524
0.7169008
0.7170583
0.7172229
0.7174787
0.7178543
0.7182732
0.7187448
0.719282
0.7197571
0.7201114
0.7156008
0.7157783
0.715991
0.7162413
0.7155949
0.7157582
0.7159552
0.7161991
0.716496
0.7155892
0.7157382
0.715916
0.7161378
0.7164267
0.7167197
0.7155838
0.7157191
0.7158774
0.7160714
0.7163299
0.7166417
0.7168808
0.7155787
0.7157014
0.715841
0.7160051
0.7162177
0.7165475
0.7168036
0.7170566
0.7155741
0.7156853
0.7158078
0.715942
0.716081
0.71557
0.7156712
0.7157791
0.7158896
0.7159879
0.7155665
0.7156594
0.7157557
0.7158489
0.7159239
0.7155637
0.71565
0.7157376
0.7158191
0.7158805
0.7155616
0.715643
0.7157246
0.7157987
0.7158527
0.7155601
0.7156382
0.7157161
0.7157866
0.7158373
0.7155591
0.7156353
0.7157116
0.7157815
0.7158326
0.7155586
0.715634
0.7157105
0.7157826
0.715838
0.7241849
0.7155585
0.7156338
0.7157118
0.7157889
0.7158537
0.7224754
0.7232778
0.7155585
0.7156344
0.7157148
0.715799
0.7158812
0.7206881
0.721334
0.722163
0.7155586
0.7156351
0.715718
0.7158104
0.7159239
0.7160938
0.7162135
0.7163388
0.7164731
0.7166193
0.7167805
0.716961
0.7171673
0.7174105
0.7177133
0.7184305
0.7193305
0.7202395
0.7211887
0.7155586
0.7156354
0.7157201
0.7158176
0.7159407
0.7160822
0.7161912
0.716308
0.7164339
0.7165707
0.7167205
0.7168861
0.7170714
0.7172815
0.7175212
0.7179409
0.7185617
0.7192435
0.7200058
0.7208288
0.7155584
0.7156351
0.7157205
0.7158201
0.7159443
0.7160711
0.7161714
0.7162803
0.7163982
0.7165261
0.7166653
0.7168171
0.7169834
0.7171654
0.7173627
0.7176816
0.7181552
0.7186835
0.7192792
0.719957
0.7205185
0.715558
0.7156339
0.7157188
0.7158182
0.7159403
0.7160584
0.716152
0.7162543
0.7163653
0.7164854
0.7166152
0.7167553
0.7169062
0.7170675
0.7172373
0.7175042
0.7178973
0.7183341
0.7188238
0.7193796
0.7198711
0.7202434
0.7155574
0.7156318
0.7157152
0.7158127
0.7159315
0.7160436
0.7161324
0.7162294
0.7163346
0.7164481
0.7165702
0.7167011
0.7168405
0.7169875
0.7171398
0.7173768
0.717724
0.7181067
0.7185314
0.719008
0.7194227
0.7197715
0.7201271
0.7155956
0.7157605
0.7159602
0.7162077
0.7165069
0.7155904
0.7157425
0.7159251
0.7161541
0.716449
0.7167333
0.7155854
0.7157248
0.7158898
0.7160948
0.7163657
0.71666
0.7168908
0.7155805
0.7157079
0.7158554
0.7160348
0.7162732
0.716565
0.7168115
0.7170601
0.7155759
0.7156919
0.7158228
0.7159753
0.7161713
0.716475
0.7167148
0.7169766
0.7172382
0.7155717
0.7156772
0.7157926
0.7159181
0.7160465
0.7155679
0.7156643
0.7157664
0.7158701
0.7159613
0.7155647
0.7156534
0.7157449
0.7158328
0.7159026
0.7155621
0.7156447
0.7157281
0.7158053
0.7158628
0.7155601
0.7156382
0.7157161
0.7157866
0.7158373
0.7155587
0.7156337
0.7157083
0.7157755
0.7158234
0.7155578
0.7156311
0.7157044
0.7157711
0.7158196
0.7248172
0.7155574
0.71563
0.7157035
0.7157726
0.7158254
0.7233446
0.7242426
0.7155573
0.71563
0.7157051
0.7157791
0.7158409
0.7218522
0.7225431
0.7234207
0.7155574
0.7156307
0.7157082
0.7157892
0.715868
0.7202912
0.7208254
0.7215575
0.7224534
0.7155575
0.7156315
0.7157115
0.7158005
0.7159097
0.7160728
0.7161871
0.7163062
0.7164334
0.7165712
0.7167224
0.7168905
0.7170811
0.717304
0.7175789
0.7182345
0.7190438
0.719841
0.7206987
0.7216284
0.7155575
0.7156319
0.7157138
0.7158079
0.7159264
0.7160624
0.7161666
0.7162779
0.7163975
0.7165269
0.716668
0.7168231
0.7169955
0.7171894
0.7174086
0.7177929
0.7183576
0.718966
0.7196353
0.7203896
0.7210284
0.7155574
0.7156317
0.7157144
0.7158106
0.7159303
0.7160524
0.7161484
0.7162524
0.7163647
0.7164861
0.7166176
0.7167605
0.716916
0.717085
0.7172665
0.7175603
0.7179948
0.7184725
0.7190018
0.7195974
0.7201242
0.7205358
0.715557
0.7156307
0.715713
0.7158091
0.715927
0.7160407
0.7161305
0.7162284
0.7163343
0.7164485
0.7165716
0.7167039
0.7168457
0.7169963
0.7171535
0.717401
0.7177645
0.7181637
0.7186047
0.7190972
0.7195243
0.7198859
0.7202595
0.7155564
0.7156287
0.7157096
0.715804
0.7159188
0.716027
0.7161122
0.7162052
0.7163058
0.7164141
0.7165302
0.7166541
0.7167856
0.7169234
0.7170652
0.7172864
0.7176097
0.7179627
0.7183498
0.7187779
0.7191387
0.7194359
0.7197858
0.7201425
0.715591
0.7157447
0.7159298
0.7161621
0.7164593
0.7167401
0.7155865
0.7157289
0.7158983
0.71611
0.7163864
0.7166728
0.7168988
0.715582
0.7157133
0.715867
0.7160566
0.7163064
0.7165819
0.7168211
0.7170648
0.7155776
0.7156981
0.7158364
0.7160031
0.7162231
0.7164913
0.7167222
0.7169799
0.7172391
0.7155734
0.7156835
0.7158069
0.7159494
0.7161312
0.7164113
0.7166302
0.7168748
0.7171465
0.7174198
0.7155695
0.71567
0.7157793
0.7158971
0.7160166
0.715566
0.715658
0.7157551
0.7158529
0.7159381
0.715563
0.7156479
0.715735
0.7158183
0.7158838
0.7155605
0.7156398
0.7157195
0.7157928
0.7158469
0.7155587
0.7156337
0.7157083
0.7157755
0.7158234
0.7155574
0.7156296
0.7157012
0.7157653
0.7158108
0.7251292
0.7155566
0.7156273
0.7156976
0.7157616
0.7158077
0.7239018
0.7248699
0.7155562
0.7156263
0.7156971
0.7157634
0.7158137
0.7226332
0.7233943
0.7243557
0.7155562
0.7156264
0.7156989
0.7157699
0.7158292
0.7213603
0.7219133
0.7226679
0.7236163
0.7155563
0.7156272
0.715702
0.71578
0.7158557
0.7199669
0.7204177
0.7210277
0.7218142
0.722761
0.7155564
0.7156281
0.7157055
0.7157913
0.7158965
0.7160533
0.7161626
0.7162762
0.716397
0.7165274
0.7166698
0.7168273
0.7170047
0.7172107
0.717463
0.7180683
0.7188061
0.7195143
0.7202572
0.7210903
0.7218317
0.7155565
0.7156286
0.7157079
0.7157988
0.715913
0.7160439
0.7161438
0.7162501
0.7163641
0.7164869
0.7166202
0.7167662
0.7169275
0.7171078
0.71731
0.7176653
0.7181845
0.7187349
0.7193278
0.7199844
0.7205686
0.7210469
0.7155564
0.7156286
0.7157086
0.7158017
0.7159173
0.7160349
0.716127
0.7162265
0.7163337
0.7164492
0.7165739
0.7167088
0.716855
0.7170129
0.7171812
0.717454
0.7178564
0.7182933
0.7187699
0.7192963
0.7197502
0.7201399
0.7205528
0.7155561
0.7156276
0.7157074
0.7158005
0.7159145
0.7160241
0.7161104
0.7162043
0.7163055
0.7164145
0.7165315
0.7166568
0.7167905
0.7169318
0.7170783
0.7173093
0.717648
0.7180164
0.7184184
0.7188605
0.7192314
0.7195379
0.7199005
0.7202753
0.7155555
0.7156258
0.7157043
0.7157959
0.715907
0.7160114
0.7160934
0.7161827
0.7162791
0.7163825
0.7164931
0.7166109
0.7167353
0.7168651
0.7169978
0.7172053
0.7175082
0.7178364
0.7181928
0.718582
0.7189003
0.719151
0.719449
0.7197999
0.7201578
0.7155871
0.7157309
0.7159026
0.7161174
0.7163959
0.7166793
0.716903
0.7155831
0.7157171
0.715875
0.7160708
0.7163256
0.7165939
0.7168286
0.7170687
0.7155791
0.7157031
0.7158474
0.7160236
0.7162541
0.716507
0.7167311
0.7169843
0.7172402
0.7155751
0.7156894
0.7158198
0.7159757
0.7161798
0.7164265
0.7166371
0.7168779
0.7171473
0.7174187
0.7155712
0.715676
0.7157928
0.7159268
0.7160965
0.7163565
0.7165561
0.7167785
0.7170316
0.7173157
0.7176037
0.7155675
0.7156635
0.7157673
0.7158786
0.7159905
0.7155642
0.7156523
0.7157448
0.7158376
0.7159175
0.7155614
0.7156429
0.7157261
0.7158053
0.715867
0.7155591
0.7156353
0.7157116
0.7157815
0.7158326
0.7155574
0.7156296
0.7157012
0.7157653
0.7158108
0.7251292
0.7155562
0.7156258
0.7156946
0.715756
0.7157993
0.7241765
0.7251807
0.7155555
0.7156237
0.7156914
0.7157527
0.7157968
0.7231333
0.7239467
0.7249747
0.7155551
0.7156229
0.7156911
0.7157548
0.715803
0.7220768
0.7226779
0.7234916
0.7245207
0.7155551
0.7156231
0.715693
0.7157615
0.7158183
0.7209616
0.7214165
0.7220259
0.7228384
0.7238547
0.7155553
0.715624
0.7156963
0.7157715
0.7158443
0.7196945
0.7200849
0.7206041
0.7212599
0.7220853
0.7229263
0.7155554
0.7156249
0.7156998
0.7157827
0.7158841
0.7160352
0.71614
0.7162485
0.7163636
0.7164873
0.7166219
0.7167702
0.7169363
0.7171281
0.7173616
0.7179252
0.7186052
0.7192447
0.719898
0.7206124
0.721271
0.7218506
0.7155555
0.7156256
0.7157023
0.7157902
0.7159006
0.7160267
0.7161225
0.7162244
0.7163331
0.71645
0.7165764
0.7167143
0.7168661
0.7170347
0.7172226
0.7175535
0.7180353
0.7185392
0.7190726
0.7196504
0.7201474
0.7205852
0.721065
0.7155555
0.7156256
0.7157032
0.7157933
0.7159051
0.7160185
0.716107
0.7162025
0.716305
0.7164152
0.7165337
0.7166616
0.7167995
0.7169478
0.7171048
0.7173598
0.7177351
0.7181386
0.7185731
0.7190452
0.7194378
0.7197644
0.7201552
0.7205694
0.7155552
0.7156248
0.7157022
0.7157925
0.7159028
0.7160086
0.7160917
0.7161818
0.7162788
0.7163829
0.7164944
0.7166135
0.71674
0.7168731
0.7170104
0.7172272
0.7175447
0.7178873
0.7182574
0.7186593
0.7189862
0.719244
0.7195513
0.7199149
0.7202909
0.7155547
0.7156231
0.7156993
0.7157882
0.7158958
0.7159968
0.7160758
0.7161616
0.7162541
0.7163531
0.7164588
0.7165709
0.7166889
0.7168116
0.7169364
0.7171319
0.7174172
0.7177243
0.718055
0.7184126
0.7186973
0.7189118
0.7191631
0.7194619
0.7198137
0.7201756
0.7155837
0.715719
0.7158791
0.7160777
0.7163345
0.7165999
0.7168326
0.7170708
0.7155801
0.7157068
0.7158549
0.7160369
0.716272
0.7165181
0.7167381
0.7169881
0.7172411
0.7155764
0.7156942
0.7158302
0.715995
0.7162089
0.7164412
0.7166453
0.7168821
0.7171485
0.7174168
0.7155727
0.7156816
0.7158051
0.7159517
0.7161424
0.7163707
0.7165625
0.7167813
0.7170324
0.7173147
0.7176
0.7155691
0.7156692
0.7157802
0.7159069
0.7160662
0.716309
0.7164923
0.7166944
0.7169237
0.7171875
0.7174862
0.7177924
0.7155657
0.7156576
0.7157565
0.715862
0.7159674
0.7155626
0.7156471
0.7157355
0.7158237
0.7158991
0.71556
0.7156382
0.715718
0.7157934
0.7158518
0.7155578
0.7156311
0.7157044
0.7157711
0.7158196
0.7248172
0.7155562
0.7156258
0.7156946
0.715756
0.7157993
0.7241765
0.7251807
0.7155551
0.7156223
0.7156885
0.7157474
0.7157886
0.7233796
0.7242202
0.7252834
0.7155544
0.7156203
0.7156856
0.7157446
0.7157867
0.7225353
0.7231736
0.7240361
0.7251307
0.7155541
0.7156197
0.7156855
0.7157469
0.715793
0.7216279
0.7221179
0.7227654
0.7236334
0.7247342
0.7155541
0.71562
0.7156876
0.7157536
0.7158082
0.7206277
0.7210141
0.7215202
0.7221797
0.7230453
0.7239985
0.7155543
0.7156209
0.7156909
0.7157636
0.7158337
0.7194604
0.7198053
0.7202587
0.7208182
0.7215053
0.7222305
0.7229421
0.7155545
0.7156219
0.7156945
0.7157747
0.7158726
0.7160182
0.7161188
0.7162228
0.7163326
0.7164504
0.7165781
0.7167181
0.7168745
0.717054
0.7172716
0.7177999
0.7184323
0.7190173
0.7196026
0.7202257
0.7207765
0.7212879
0.7218691
0.7155546
0.7156227
0.7156971
0.7157822
0.7158889
0.7160106
0.7161027
0.7162004
0.7163044
0.7164159
0.7165361
0.7166668
0.7168101
0.7169686
0.7171442
0.7174544
0.7179046
0.7183705
0.7188567
0.7193739
0.7198011
0.7201625
0.7206014
0.7210826
0.7155546
0.7156228
0.7156981
0.7157855
0.7158937
0.7160032
0.7160884
0.71618
0.7162783
0.7163836
0.7164966
0.716618
0.7167486
0.7168884
0.7170356
0.7172753
0.7176274
0.718003
0.7184032
0.7188322
0.7191776
0.719451
0.7197784
0.7201702
0.7205856
0.7155544
0.7156221
0.7156973
0.7157849
0.7158917
0.7159941
0.7160741
0.7161607
0.7162538
0.7163535
0.71646
0.7165734
0.7166935
0.7168193
0.7169484
0.7171528
0.7174519
0.7177726
0.7181162
0.7184854
0.7187777
0.718998
0.7192564
0.7195644
0.7199291
0.7203091
0.7155538
0.7156205
0.7156947
0.715781
0.7158853
0.715983
0.7160593
0.7161419
0.7162308
0.7163257
0.7164268
0.7165338
0.7166461
0.7167624
0.7168802
0.717065
0.7173348
0.7176235
0.7179325
0.7182638
0.7185218
0.7187082
0.7189232
0.7191751
0.7194747
0.71983
0.7201922
0.7155806
0.7157086
0.7158587
0.7160434
0.7162802
0.7165237
0.7167419
0.7169902
0.7172416
0.7155774
0.7156976
0.7158373
0.7160075
0.7162257
0.7164515
0.7166518
0.7168856
0.7171495
0.717415
0.715574
0.7156862
0.715815
0.71597
0.7161698
0.7163845
0.7165702
0.7167852
0.7170336
0.7173132
0.7175944
0.7155706
0.7156746
0.7157919
0.7159305
0.7161096
0.7163225
0.7164983
0.7166971
0.7169245
0.7171866
0.7174829
0.7177843
0.7155672
0.7156631
0.7157688
0.715889
0.7160394
0.7162676
0.7164372
0.7166221
0.7168298
0.717068
0.7173441
0.7176602
0.7179906
0.715564
0.7156522
0.7157467
0.7158471
0.7159467
0.7155611
0.7156423
0.7157269
0.7158111
0.7158825
0.7155586
0.715634
0.7157105
0.7157826
0.715838
0.7241849
0.7155566
0.7156273
0.7156976
0.7157616
0.7158077
0.7239018
0.7248699
0.7155551
0.7156223
0.7156885
0.7157474
0.7157886
0.7233796
0.7242202
0.7252834
0.715554
0.715619
0.7156828
0.7157394
0.7157788
0.7227611
0.7234188
0.7243074
0.7254371
0.7155534
0.7156172
0.7156802
0.715737
0.7157773
0.7220541
0.7225723
0.7232537
0.7241689
0.7253368
0.7155532
0.7156167
0.7156803
0.7157395
0.7157838
0.7212527
0.7216662
0.7221984
0.7228928
0.7238164
0.7248703
0.7155532
0.7156171
0.7156825
0.7157462
0.7157988
0.7203411
0.720677
0.7211107
0.7216619
0.7223663
0.7231698
0.7240125
0.7155534
0.7156181
0.7156859
0.7157561
0.7158237
0.7192554
0.7195651
0.7199686
0.7204584
0.7210444
0.7216367
0.7222443
0.7229579
0.7155536
0.7156191
0.7156895
0.7157671
0.7158617
0.7160024
0.7160992
0.7161988
0.716304
0.7164163
0.7165377
0.7166705
0.7168181
0.7169871
0.717191
0.7176888
0.7182808
0.7188215
0.7193536
0.7199084
0.7203772
0.7207917
0.7213043
0.7218871
0.7155538
0.7156199
0.7156922
0.7157747
0.7158779
0.7159955
0.7160842
0.716178
0.7162777