/*--------------------------------*- C++ -*----------------------------------*\
| =========                 |                                                 |
| \\      /  F ield         | OpenFOAM: The Open Source CFD Toolbox           |
|  \\    /   O peration     | Version:  2306                                  |
|   \\  /    A nd           | Website:  www.openfoam.com                      |
|    \\/     M anipulation  |                                                 |
\*---------------------------------------------------------------------------*/
FoamFile
{
    version     2.0;
    format      ascii;
    arch        "LSB;label=32;scalar=64";
    class       volVectorField;
    location    "0.3/phiI";
    object      i;
}
// * * * * * * * * * * * * * * * * * * * * * * * * * * * * * * * * * * * * * //

dimensions      [0 -2 0 0 0 1 0];

internalField   nonuniform List<vector> 
12000
(
(22.6586 -1.927489 1479.087)
(22.99556 -6.845353 1491.261)
(43.33491 1.442093 1367.906)
(23.10333 -2.414451 4561.011)
(23.62707 -10.77794 1515.917)
(43.85179 2.839301 1375.751)
(23.4576 -8.318523 4597.969)
(36.56399 3.241283 1274.29)
(44.1541 1.128293 4208.885)
(24.06711 -3.405782 7796.436)
(24.35803 -9.231102 1552.955)
(44.84436 2.846689 1391.171)
(24.12605 -13.24569 4672.759)
(36.83976 8.249081 1280.35)
(44.69544 1.908717 4232.609)
(24.457 -11.31527 7859.098)
(28.06987 4.199798 1199.176)
(37.23892 2.998915 3910.33)
(45.93764 0.493126 7181.271)
(25.56399 -4.920934 11110.05)
(24.80919 2.341972 1600.877)
(46.04774 2.590086 1413.03)
(24.91772 -12.6295 4784.977)
(37.4042 11.18155 1292.097)
(45.73964 1.355529 4279.252)
(25.2011 -18.25827 7985.837)
(28.22129 11.24133 1204.239)
(37.52581 7.536826 3928.586)
(46.52932 0.02458436 7221.384)
(26.00846 -15.89458 11199.69)
(21.57731 4.755484 1136.587)
(28.62069 3.997277 3670.566)
(38.71727 2.511031 6657.321)
(48.71056 -0.4762144 10222.51)
(27.61728 -6.991406 14540.78)
(24.41209 24.01367 1652.914)
(46.95214 2.882568 1438.743)
(25.45773 -1.65638 4929.803)
(38.15951 11.84675 1308.31)
(47.02632 0.6872263 4345.42)
(26.11625 -19.51286 8175.821)
(28.54815 16.04411 1213.98)
(38.11296 10.06314 3964.008)
(47.67936 -1.665746 7300.276)
(26.8683 -25.91463 11380.97)
(21.66433 13.0319 1140.993)
(28.77872 10.64917 3685.774)
(39.0271 6.101983 6688.1)
(49.37943 -2.851458 10279.84)
(28.1364 -22.1522 14659.32)
(16.76946 5.07006 1082.669)
(22.04333 4.579229 3471.028)
(29.82708 3.591479 6236.373)
(41.01851 1.767776 9465.838)
(52.51448 -1.800217 13366.56)
(30.26086 -9.662347 16525.4)
(23.00111 43.77298 1694.411)
(46.75876 5.932871 1462.945)
(25.17196 20.27231 5086.36)
(38.92652 9.4522 1326.479)
(48.04973 0.8859719 4423.311)
(26.83516 -9.71334 8420.503)
(29.00811 17.81332 1227.232)
(38.9027 10.47147 4012.962)
(49.1358 -3.172271 7412.276)
(27.97191 -30.01612 11652.64)
(21.86309 19.04975 1149.432)
(29.11881 15.12439 3715.061)
(39.66096 7.806538 6747.862)
(50.69154 -6.280138 10392.64)
(29.15442 -36.37649 14899.06)
(16.81599 14.09916 1086.598)
(22.1349 12.51811 3484.228)
(29.99873 9.461529 6261.948)
(41.36356 3.915193 9509.777)
(53.28897 -6.780799 13442.36)
(30.8763 -30.2256 16659.77)
(13.22587 5.220695 1035.247)
(17.17482 4.912928 3299.467)
(23.06171 4.227503 5886.402)
(31.70436 2.974287 8858.087)
(44.17495 0.7534812 12365.99)
(57.40975 -3.50796 15167.32)
(33.04962 -12.36626 16997.29)
(21.13799 48.48961 1722.418)
(45.12687 11.03202 1479.334)
(23.86141 40.9928 5210.418)
(39.37079 5.760933 1342.143)
(48.00185 4.309193 4496.672)
(26.77083 12.78906 8683.949)
(29.53147 14.99536 1241.686)
(39.71474 8.098877 4067.948)
(50.39956 -3.167533 7544.266)
(28.96267 -21.98147 12002.23)
(22.1518 21.67991 1160.82)
(29.59807 16.70506 3754.965)
(40.52132 7.689129 6830.579)
(52.40729 -9.072397 10552.91)
(30.5152 -44.36323 15258.37)
(16.93205 20.91877 1094.096)
(22.34263 18.25667 3509.531)
(30.36606 13.27647 6311.245)
(42.06908 4.363975 9595.143)
(54.82268 -12.58841 13591.54)
(32.09836 -49.87687 16931.26)
(13.24615 14.65777 1038.811)
(17.22472 13.64209 3311.206)
(23.16261 11.49179 5908.549)
(31.89692 7.654293 8894.553)
(44.56825 0.9297889 12424.03)
(58.32059 -11.8506 15253.04)
(33.76331 -38.38674 17133.37)
(10.52467 5.272874 992.8579)
(13.58511 5.078145 3148.88)
(18.05806 4.600476 5585.944)
(24.64505 3.693373 8353.142)
(34.27786 2.13284 11562.87)
(48.23328 -0.5539642 14006.71)
(62.58924 -5.229272 15566.35)
(35.98464 -15.10534 17472.13)
(19.51901 36.3221 1739.179)
(42.76018 13.66865 1488.722)
(22.07277 46.69889 5293.418)
(39.20577 3.787137 1351.214)
(46.49966 10.00095 4546.266)
(25.65772 35.49063 8891.541)
(29.96021 8.725387 1253.506)
(40.20854 4.771537 4115.536)
(50.64206 1.014673 7668.722)
(29.23286 1.430788 12377.86)
(22.49856 18.9732 1173.053)
(30.14517 13.9444 3798.608)
(41.42533 5.349235 6923.73)
(54.03682 -9.371891 10742.01)
(31.87602 -38.72192 15720.64)
(17.10559 24.16797 1104.165)
(22.64407 20.73507 3543.727)
(30.88505 14.47145 6378.525)
(43.0377 3.436736 9713.447)
(56.89259 -17.14716 13803.69)
(33.79062 -62.87927 17338.04)
(13.30638 21.94576 1045.598)
(17.34739 20.21607 3333.639)
(23.38878 16.66979 5951.045)
(32.30608 10.46133 8964.893)
(45.37195 -0.3402802 12536.87)
(60.1403 -20.73366 15421.65)
(35.19286 -63.50706 17407.71)
(10.52834 14.90432 996.1295)
(13.60802 14.24373 3159.507)
(18.11487 12.73229 5605.6)
(24.76029 9.932395 8384.683)
(34.4991 5.18928 11611)
(48.68898 -2.920075 14072.2)
(63.63927 -16.95433 15652.79)
(36.7986 -46.64231 17610)
(8.434607 5.257468 954.5765)
(10.84735 5.142009 3014.555)
(14.36551 4.795616 5322.625)
(19.42993 4.126656 7919.963)
(26.8142 2.965882 10896.06)
(37.58406 1.049056 13075)
(52.5442 -1.865912 14336.01)
(68.05486 -6.965697 15968.04)
(39.06596 -17.88102 17947.49)
(18.60555 13.30473 1746.968)
(40.62603 10.99769 1493.635)
(20.50119 35.3401 5342.645)
(38.60687 3.481268 1355.214)
(44.22899 13.09663 4574.465)
(24.0138 43.20054 9029.365)
(30.11417 3.392869 1259.602)
(40.0847 3.264286 4143.227)
(49.39563 7.92032 7752.769)
(28.4165 27.17616 12672.95)
(22.81883 11.58794 1182.754)
(30.59777 8.008763 3834.48)
(42.01955 2.74977 7004.718)
(54.71877 -4.030932 10920.62)
(32.59978 -14.03958 16216.82)
(17.32223 21.6657 1114.881)
(23.00578 18.09586 3580.551)
(31.48106 11.81476 6452.339)
(44.08245 1.133293 9846.991)
(59.02052 -17.87614 14054.4)
(35.62762 -60.31924 17861.01)
(13.39833 25.58168 1054.684)
(17.53013 23.33656 3363.797)
(23.71647 18.83909 6008.567)
(32.88612 11.06133 9061.03)
(46.48883 -2.384788 12693.45)
(62.66698 -27.58671 15661.61)
(37.22092 -81.55306 17818.42)
(10.55366 22.44055 1002.35)
(13.67337 21.31082 3179.767)
(18.25111 18.81514 5643.2)
(25.01481 14.25594 8445.25)
(34.96563 6.617363 11703.91)
(49.61962 -6.412968 14199.43)
(65.75002 -28.93102 15822.5)
(38.43921 -77.27903 17887.38)
(8.428184 14.94767 957.6089)
(10.85315 14.52462 3024.293)
(14.3938 13.42228 5340.385)
(19.49737 11.35185 7947.927)
(26.94911 7.807463 10937.65)
(37.84242 2.012834 13129.18)
(53.06371 -6.778938 14401.75)
(69.24704 -22.09661 16055.27)
(39.98222 -54.99684 18087.21)
(6.805174 5.208638 919.6771)
(8.72733 5.13617 2893.465)
(11.54632 4.883379 5088.112)
(15.57644 4.367746 7540.619)
(21.30815 3.481919 10324.38)
(29.59902 2.029667 12302.02)
(41.09662 -0.03415275 13347.37)
(57.10921 -3.183547 14667.8)
(73.80654 -8.718398 16370.51)
(42.29255 -20.69404 18420.93)
(18.60555 -13.30487 1746.969)
(39.40006 4.170145 1495.732)
(19.6105 12.99313 5365.376)
(37.95252 2.720909 1356.627)
(42.15624 10.71732 4589.046)
(22.53341 33.4438 9110.471)
(30.03067 1.136139 1261.609)
(39.51532 3.264753 4155.475)
(47.31195 11.95745 7800.271)
(26.98915 37.94167 12868.09)
(23.00068 4.491698 1187.385)
(30.76949 3.068759 3853.146)
(41.97825 2.189562 7052.11)
(53.85738 4.738998 11041.24)
(32.18454 15.88122 16605.83)
(17.53584 13.7466 1123.228)
(23.33995 11.01466 3609.904)
(31.98274 6.543855 6513.388)
(44.82988 -0.3636463 9963.601)
(60.29909 -10.95442 14291.68)
(36.93342 -33.9771 18421.21)
(13.519 23.27577 1064.301)
(17.75724 20.90319 3395.966)
(24.10912 16.32611 6070.705)
(33.55728 8.549862 9166.81)
(47.72615 -4.656939 12870.65)
(65.43677 -28.89128 15945.55)
(39.53786 -82.0488 18345.82)
(10.5964 26.29415 1010.663)
(13.77234 24.83358 3206.917)
(18.45283 21.67487 5693.824)
(25.38287 15.94868 8527.355)
(35.62942 6.394755 11831.08)
(50.92816 -9.914575 14376.19)
(68.73996 -38.10303 16064.16)
(40.80765 -100.4038 18302.35)
(8.431762 22.62638 963.3664)
(10.88258 21.85921 3042.825)
(14.46964 20.04935 5374.278)
(19.65445 16.68713 8001.457)
(27.24252 10.96291 11017.58)
(38.38322 1.658124 13233.7)
(54.12376 -12.50014 14529.27)
(71.65406 -37.18848 16226.21)
(41.83754 -91.20132 18367.75)
(6.792838 14.87586 922.5069)
(8.722674 14.59608 2902.475)
(11.55647 13.7735 5104.358)
(15.61299 12.17758 7565.858)
(21.39017 9.472529 10361.22)
(29.7594 5.071494 12348.73)
(41.39295 -1.158702 13401.53)
(57.69401 -10.65032 14733.85)
(75.14386 -27.28098 16458.57)
(43.31314 -63.45278 18562.51)
(5.50899 5.134112 887.6411)
(7.072915 5.095443 2783.27)
(9.359747 4.897085 4876.994)
(12.62987 4.492182 7203.031)
(17.23325 3.786084 9824.044)
(23.718 2.652913 11640.04)
(32.55405 1.097396 12527.82)
(44.81685 -1.11771 13622.04)
(61.92821 -4.507834 15000.64)
(79.84226 -10.48815 16771.83)
(45.66234 -23.5444 16672.93)
(19.51902 -36.32198 1739.179)
(39.40007 -4.170163 1495.732)
(19.6105 -12.99327 5365.376)
(37.54678 1.045049 1357)
(40.95993 4.086282 4595.198)
(21.68626 12.39549 9147.708)
(29.86455 0.3968281 1261.808)
(38.87983 2.649494 4159.795)
(45.35744 10.16836 7824.588)
(25.64472 30.60636 12982.49)
(23.04417 0.9850674 1188.533)
(30.69739 1.047899 3859.401)
(41.46712 2.818574 7073.179)
(52.05374 10.22387 11109.25)
(31.0492 30.81867 16862.49)
(17.6762 5.646211 1127.016)
(23.53102 4.260534 3624.052)
(32.19087 2.396031 6545.485)
(44.91384 0.5258779 10032.18)
(59.95869 0.3753729 14452)
(37.03183 1.349347 18858.29)
(13.64676 15.12761 1071.711)
(17.98002 13.26121 3421.131)
(24.47223 9.8479 6120.557)
(34.13441 4.282909 9254.813)
(48.68279 -4.657925 13026.08)
(67.48172 -19.93499 16214.63)
(41.42609 -53.93075 18908.89)
(10.65872 24.15006 1019.429)
(13.90081 22.59471 3235.704)
(18.70162 19.37233 5747.98)
(25.82321 13.61625 8616.318)
(36.40375 4.063442 11971.44)
(52.4143 -12.17177 14576.69)
(72.15782 -39.9971 16350.53)
(43.6088 -103.9382 18834.72)
(8.443552 26.63232 971.0474)
(10.93095 25.61099 3067.61)
(14.58307 23.3442 5419.758)
(19.88536 19.14536 8073.637)
(27.66605 11.99639 11126.11)
(39.15548 0.360102 13376.96)
(55.62743 -17.47507 14706.62)
(75.11416 -48.70795 16469.8)
(44.55112 -119.4464 18787.21)
(6.782345 22.59423 927.8736)
(8.729669 22.08884 2919.597)
(11.59434 20.70783 5135.308)
(15.70493 18.13587 7614.06)
(21.57587 13.78674 10431.8)
(30.10322 6.717651 12438.47)
(42.00948 -3.293817 13505.89)
(58.88606 -18.6078 14861.76)
(77.85252 -45.51227 16630.84)
(45.38685 -105.2791 18846.27)
(5.492666 14.71938 890.2974)
(7.062084 14.548 2791.665)
(9.358693 13.90241 4892.001)
(12.64668 12.63677 7226.094)
(17.28114 10.48464 9857.267)
(23.81892 7.054832 11681.33)
(32.74048 2.349659 12574.35)
(45.15204 -4.328068 13676.25)
(62.5798 -14.53713 15067.04)
(81.32771 -32.50985 16860.76)
(46.78925 -72.01046 16799.48)
(4.455857 5.045393 858.0663)
(5.755433 5.027862 2682.286)
(7.649892 4.872836 4685.133)
(10.33924 4.535867 6899.324)
(14.11151 3.960848 9379.037)
(19.35781 3.038828 11061.33)
(26.2709 1.830146 11826.99)
(35.68053 0.1683484 12755.74)
(48.74486 -2.202415 13897.94)
(66.99948 -5.839512 15333.06)
(86.15801 -12.27533 15174.17)
(48.28759 -25.75615 12803.29)
(21.13798 -48.48938 1722.418)
(40.62604 -10.99771 1493.635)
(20.50119 -35.33998 5342.645)
(37.54678 -1.045059 1357)
(40.95994 -4.086301 4595.198)
(21.68627 -12.39564 9147.708)
(29.74687 0.1127916 1261.605)
(38.48329 1.030128 4160.926)
(44.21786 3.924078 7834.746)
(24.86235 11.50365 13034.87)
(23.02029 -0.1170581 1188.271)
(30.53797 0.396992 3860.112)
(40.86826 2.50288 7080.641)
(50.27556 9.338335 11143.9)
(29.88777 26.77281 17012.61)
(17.73359 1.332285 1127.745)
(23.57963 0.9496249 3627.667)
(32.1419 0.8575021 6556.483)
(44.49048 2.123505 10062.88)
(58.53282 7.850953 14542.31)
(36.26985 21.67053 19144.8)
(13.7376 6.46915 1074.969)
(18.12586 5.465548 3432.651)
(24.68266 3.781161 6144.884)
(34.39839 1.344976 9301.516)
(48.93715 -1.78143 13117.95)
(67.80891 -5.286364 16396.18)
(42.03297 -13.06254 19344.56)
(10.73056 15.93258 1026.139)
(14.03512 14.70089 3257.965)
(18.9436 12.27919 5790.607)
(26.23107 8.047475 8688.16)
(37.08451 1.155621 12088.92)
(53.64093 -10.25568 14753.17)
(74.97124 -28.97961 16622.08)
(46.08066 -73.92644 19401.39)
(8.467515 24.61728 979.1261)
(10.99942 23.53103 3093.786)
(14.72772 21.23385 5468.107)
(20.16763 17.03188 8151.088)
(28.17201 9.893898 11244.09)
(40.06351 -1.76357 13535.47)
(57.36646 -19.73603 14908.28)
(79.18694 -51.20814 16758.91)
(47.84108 -126.0102 19324.94)
(6.771793 26.65168 935.0264)
(8.746098 26.00193 2942.455)
(11.65425 24.25572 5176.747)
(15.84064 21.08045 7678.833)
(21.84691 15.68966 10527.13)
(30.59866 6.888349 12560.44)
(42.89241 -5.67602 13649.07)
(60.58854 -25.07501 15039.87)
(81.7899 -59.41109 16876.53)
(48.45036 -138.6912 19270.33)
(5.472733 22.41593 895.3298)
(7.054491 22.09345 2807.6)
(9.372663 21.02716 4920.55)
(12.6975 18.96363 7270.066)
(17.3952 15.53035 9920.769)
(24.04171 10.05067 11760.42)
(33.13566 2.494507 12663.61)
(45.84587 -8.24314 13780.52)
(63.90654 -24.74099 15195.42)
(84.34338 -53.90688 17034.42)
(49.08494 -119.514 17052.86)
(4.437112 14.51329 860.5713)
(5.740408 14.41183 2690.155)
(7.642118 13.90265 4699.098)
(10.34371 12.85384 6920.609)
(14.13747 11.09207 9409.371)
(19.4204 8.308597 11098.5)
(26.39112 4.657411 11867.98)
(35.89361 -0.3601784 12802.13)
(49.11983 -7.497641 13952.22)
(67.7194 -18.44161 15399.84)
(87.79455 -37.78453 15253.57)
(49.49679 -78.64993 12899.21)
(3.599097 4.946656 830.641)
(4.683858 4.945191 2589.203)
(6.285259 4.819339 4509.535)
(8.542751 4.536863 6623.505)
(11.67785 4.045682 8978.902)
(16.01044 3.278828 10547.23)
(21.6045 2.299545 11215.31)
(28.96802 1.013056 12015.87)
(38.97873 -0.7581332 12984.97)
(52.87952 -3.28893 14173.95)
(72.31974 -7.179092 13862.61)
(91.08353 -13.66412 11661.64)
(50.22892 -27.38143 9101.147)
(23.00109 -43.77278 1694.411)
(42.76017 -13.66872 1488.722)
(22.07277 -46.69866 5293.418)
(37.95252 -2.720914 1356.627)
(42.15625 -10.71734 4589.046)
(22.53341 -33.44368 9110.471)
(29.74687 -0.1127919 1261.605)
(38.48329 -1.030138 4160.926)
(44.21787 -3.924096 7834.746)
(24.86235 -11.5038 13034.87)
(22.99167 -0.1317385 1187.867)
(30.4234 0.1209217 3859.544)
(40.4894 0.9997875 7082.603)
(49.22036 3.679992 11158.31)
(29.19248 10.30047 17081.24)
(17.74395 -0.1281671 1127.299)
(23.55833 -0.09039284 3626.97)
(31.99585 0.3911264 6557.941)
(43.94642 2.272528 10073.86)
(56.99196 8.205673 14588.25)
(35.34218 21.85642 19311.37)
(13.77978 1.662586 1075.477)
(18.18581 1.320985 3434.944)
(24.742 0.8683436 6151.355)
(34.38469 0.549665 9317.878)
(48.6326 1.15138 13159.39)
(66.86613 4.774022 16497.94)
(41.63666 12.69539 19626.89)
(10.78519 6.976363 1029.027)
(14.12955 6.318509 3267.813)
(19.10115 5.0937 5810.363)
(26.47151 3.028626 8723.645)
(37.42502 -0.1265395 12151.84)
(54.11447 -4.806599 14857.85)
(75.96046 -10.95684 16804.65)
(47.19146 -27.37038 19836.1)
(8.50011 16.39228 985.2835)
(11.07627 15.54866 3113.875)
(14.87579 13.84323 5505.703)
(20.43943 10.76589 8212.461)
(28.64164 5.554796 11340.03)
(40.87862 -2.933299 13668.75)
(58.8663 -15.90429 15086.33)
(82.77199 -38.09984 17033.29)
(50.89847 -93.98613 19895.83)
(6.766621 24.71564 942.5375)
(8.775082 24.04784 2966.527)
(11.73543 22.29946 5220.613)
(16.01028 19.15692 7747.894)
(22.17531 13.8194 10629.77)
(31.18987 5.059576 12693.38)
(43.93697 -7.608418 13807.9)
(62.58482 -27.3599 15242.93)
(86.52497 -62.53675 17168.64)
(52.23398 -148.283 19813.71)
(5.448083 26.47509 902.0329)
(7.047851 26.06512 2828.851)
(9.398587 24.75511 4958.704)
(12.77517 22.19879 7329.019)
(17.56155 17.99085 10006.24)
(24.36485 11.22666 11867.34)
(33.70451 1.799834 12785.05)
(46.8418 -11.7204 13923.75)
(65.81164 -32.72191 15374.44)
(88.76524 -70.21987 17282.33)
(52.50315 -158.1442 17431.37)
(4.411207 22.1484 865.3133)
(5.722974 21.94651 2705.077)
(7.640425 21.10678 4725.63)
(10.36838 19.42075 6961.129)
(14.20606 16.59081 9467.25)
(19.56315 12.17698 11169.51)
(26.65168 6.346455 11946.39)
(36.3412 -1.710199 12890.98)
(49.89258 -13.19396 14056.48)
(69.18352 -30.90374 15528.77)
(91.12252 -62.37503 15408.5)
(51.96427 -130.5547 13091.24)
(3.578727 14.27288 833.0132)
(4.666248 14.2234 2596.615)
(6.272865 13.80773 4522.608)
(8.539656 12.92815 6643.294)
(11.68989 11.43018 9006.873)
(16.04826 9.108253 10581.1)
(21.68209 6.157455 11252.09)
(29.10797 2.278608 12056.6)
(39.21908 -3.059964 13031.25)
(53.29521 -10.66942 14228.33)
(73.10949 -22.36535 13922.16)
(92.837 -41.8831 11721.88)
(51.4986 -83.52867 9168.616)
(2.906395 4.841701 805.0999)
(3.810962 4.851769 2503.005)
(5.172979 4.748897 4347.87)
(7.104488 4.504922 6371.225)
(9.762288 4.081302 8615.694)
(13.39262 3.417005 10085.43)
(18.0151 2.606034 10672.84)
(23.97441 1.567806 11371.03)
(31.80976 0.2011095 12206.08)
(42.44797 -1.682631 13214.66)
(57.21847 -4.377785 12804.74)
(76.47722 -8.221509 10660.59)
(94.72879 -14.68469 8291.241)
(51.52721 -28.45492 5511.068)
(24.41205 -24.01365 1652.914)
(45.12685 -11.03209 1479.334)
(23.86139 -40.99261 5210.418)
(38.60687 -3.481271 1355.214)
(44.22899 -13.0967 4574.465)
(24.0138 -43.20031 9029.365)
(29.86455 -0.3968283 1261.808)
(38.87983 -2.6495 4159.795)
(45.35744 -10.16838 7824.588)
(25.64473 -30.60624 12982.49)
(22.99167 0.131738 1187.867)
(30.4234 -0.120922 3859.544)
(40.4894 -0.999797 7082.603)
(49.22036 -3.68001 11158.31)
(29.19249 -10.30062 17081.24)
(17.74026 -0.1734422 1126.829)
(23.53077 -0.1155627 3625.793)
(31.8874 0.1355295 6557.095)
(43.59389 0.9516599 10076.8)
(56.05013 3.347689 14607.3)
(34.75808 8.758673 19387.18)
(13.79229 -0.05033849 1074.964)
(18.19717 -0.09152668 3433.665)
(24.72608 -0.04207933 6150.415)
(34.25888 0.3724968 9320.37)
(48.16239 1.945861 13174.43)
(65.62827 6.73876 16549.31)
(40.936 17.07782 19789.22)
(10.81166 1.879193 1029.408)
(14.17312 1.66277 3269.395)
(19.16668 1.29172 5814.517)
(26.54749 0.728414 8733.485)
(37.45947 0.1033494 12174.4)
(53.96213 -0.1358414 14905.19)
(75.49128 1.725678 16905.97)
(47.1535 3.883977 20114.52)
(8.527448 7.280238 987.897)
(11.13347 6.845592 3122.558)
(14.97797 6.01194 5522.525)
(20.6153 4.509136 8241.295)
(28.92355 1.96817 11388)
(41.31818 -2.07439 13740.64)
(59.55931 -7.862179 15192.17)
(84.41846 -16.64198 17217.06)
(52.50913 -41.5877 20329.97)
(6.769634 16.53191 948.248)
(8.811672 16.04145 2984.911)
(11.82277 14.78172 5254.447)
(16.17976 12.52416 7801.955)
(22.48842 8.670924 10711.7)
(31.73994 2.291005 12801.99)
(44.88924 -7.051118 13941.95)
(64.36147 -21.61119 15422.78)
(90.88567 -47.30557 17446.16)
(55.87935 -114.1279 20389.33)
(5.425033 24.59569 909.0642)
(7.046869 24.18677 2851.189)
(9.437903 22.91905 4998.968)
(12.87597 20.42303 7391.603)
(17.76566 16.30898 10097.68)
(24.75328 9.649271 11982.73)
(34.383 0.2322323 12917.68)
(48.02592 -13.47887 14083.09)
(68.06974 -35.0524 15579.1)
(94.17029 -73.99308 17577.63)
(56.7854 -170.7702 17916.17)
(4.377821 26.17467 871.6268)
(5.701682 25.92571 2724.962)
(7.641768 24.90813 4761.046)
(10.4089 22.86522 7015.355)
(14.30816 19.39424 9544.973)
(19.76929 14.00402 11265.18)
(27.02795 6.797299 12052.47)
(36.98504 -3.274525 13011.99)
(51.00395 -17.77913 14199.89)
(71.29511 -40.42205 15708.8)
(96.03604 -81.13955 15629.74)
(55.6569 -173.2237 13378.03)
(3.548608 21.82302 837.5003)
(4.642525 21.70618 2610.658)
(6.260501 21.02366 4547.421)
(8.547007 19.61551 6680.918)
(11.72926 17.23733 9060.164)
(16.13992 13.53957 10645.71)
(21.85402 8.862818 11322.28)
(29.40704 2.67122 12134.39)
(39.72018 -5.89984 13119.76)
(54.14854 -18.14981 14332.63)
(74.71369 -37.09908 14037.04)
(96.40667 -68.95362 11839.41)
(54.09228 -138.6667 9303.675)
(2.885098 14.0084 807.3542)
(3.791596 13.99851 2510.017)
(5.157664 13.65507 4360.17)
(7.09612 12.8964 6389.735)
(9.765612 11.60615 8641.678)
(13.41449 9.603351 10116.61)
(18.065 7.152646 10706.25)
(24.06732 4.02995 11407.44)
(31.96989 -0.08315568 12246.57)
(42.71624 -5.751435 13260.85)
(57.67581 -13.84502 12853.17)
(77.32102 -25.41859 10705.81)
(96.56816 -44.8951 8333.578)
(52.83694 -86.75107 5551.431)
(2.332867 4.733678 781.2294)
(3.104042 4.751528 2422.838)
(4.264556 4.666196 4198.324)
(5.928702 4.453179 6139.101)
(8.222877 4.078919 8283.644)
(11.32378 3.497499 9666.696)
(15.19997 2.798523 10186.29)
(20.12652 1.94215 10799.99)
(26.46803 0.8431827 11528.04)
(34.79576 -0.6061961 12396.98)
(46.08662 -2.605651 11928.83)
(60.61463 -5.226113 9851.972)
(79.55842 -8.987749 7579.918)
(97.16845 -15.35761 5016.845)
(52.20581 -28.99598 1868.708)
(24.80916 -2.342115 1600.877)
(46.75874 -5.932861 1462.945)
(25.17193 -20.27229 5086.359)
(39.20578 -3.787137 1351.214)
(46.49964 -10.00102 4546.266)
(25.65769 -35.49043 8891.541)
(30.03067 -1.136139 1261.609)
(39.51533 -3.264755 4155.475)
(47.31194 -11.95752 7800.271)
(26.98914 -37.94144 12868.09)
(23.02029 0.1170576 1188.271)
(30.53797 -0.3969921 3860.112)
(40.86826 -2.502886 7080.641)
(50.27557 -9.338352 11143.9)
(29.88778 -26.77268 17012.61)
(17.74026 0.1734421 1126.829)
(23.53077 0.1155621 3625.793)
(31.8874 -0.1355299 6557.095)
(43.59389 -0.9516695 10076.8)
(56.05014 -3.347708 14607.3)
(34.75809 -8.758822 19387.18)
(13.7935 -0.1686108 1074.482)
(18.1938 -0.1546325 3432.278)
(24.70073 -0.08464097 6148.539)
(34.15966 0.154759 9319.354)
(47.84524 0.8822337 13178.56)
(64.83108 2.917761 16570.47)
(40.4593 7.268253 19862.5)
(10.82009 0.009054458 1028.877)
(14.18598 -0.01053337 3267.888)
(19.18028 -0.02152789 5812.551)
(26.53989 0.02225195 8732.536)
(37.36115 0.3320522 12178.3)
(53.58619 1.505893 14922.42)
(74.54774 5.304244 16956.43)
(46.67333 12.43193 20272.78)
(8.540194 2.011589 988.1979)
(11.16078 1.885216 3123.719)
(15.02468 1.659604 5525.403)
(20.68962 1.233435 8247.75)
(29.02251 0.5127187 11401.89)
(41.4147 -0.508796 13766.76)
(59.55731 -1.431792 15239.95)
(84.41388 -1.297242 17318.04)
(52.82255 -4.771918 20604.71)
(6.775851 7.377202 950.6496)
(8.840958 7.16366 2992.727)
(11.88553 6.582603 5269.214)
(16.29415 5.530503 7826.489)
(22.68978 3.682113 10750.75)
(32.07588 0.5542494 12856.77)
(45.42933 -4.046788 14014.65)
(65.27448 -10.95143 15529.9)
(93.18528 -22.34682 17631.27)
(57.98626 -55.72561 20823.21)
(5.409807 16.48459 914.4022)
(7.053159 16.20743 2868.196)
(9.482827 15.34427 5029.854)
(12.97966 13.60462 7440.187)
(17.96488 10.69945 10169.79)
(25.12037 5.926768 12075.24)
(35.0157 -0.9806276 13026.39)
(49.11837 -11.20324 14218.09)
(70.12711 -27.383 15760.98)
(99.3114 -56.60509 17858.54)
(61.02166 -134.3661 18429.07)
(4.344055 24.33287 878.2451)
(5.682202 24.10091 2745.837)
(7.649382 23.14186 4798.345)
(10.46416 21.20182 7072.737)
(14.43606 17.85276 9627.76)
(20.01833 12.61483 11367.75)
(27.47785 5.503535 12167.13)
(37.75297 -4.594251 13144.47)
(52.3308 -19.38204 14359.91)
(73.81975 -42.82138 15915.23)
(102.1189 -85.58515 15893.48)
(60.32475 -188.1907 13745.18)
(3.509073 25.80357 843.4724)
(4.612063 25.65741 2629.362)
(6.24604 24.84468 4580.515)
(8.560608 23.15651 6731.206)
(11.78984 20.29083 9131.592)
(16.27376 15.77842 10732.55)
(22.10072 10.06145 11416.87)
(29.83755 2.397286 12239.71)
(40.4407 -8.339737 13240.43)
(55.37783 -23.85759 14476.33)
(77.03564 -48.18047 14197.55)
(101.7006 -89.61891 12007.21)
(57.98645 -184.3015 9505.37)
(2.852026 21.45186 811.6156)
(3.763398 21.40466 2523.289)
(5.138357 20.83852 4383.493)
(7.09152 19.63026 6424.892)
(9.785374 17.59029 8691.12)
(13.4729 14.43199 10176.01)
(18.18008 10.53281 10769.93)
(24.26898 5.585634 11476.84)
(32.30824 -0.9777929 12323.78)
(43.27197 -10.07747 13349.07)
(58.61139 -23.11363 12945.98)
(79.03362 -41.91909 10793.04)
(100.3154 -73.78822 8416.197)
(55.51418 -144.0248 5632.223)
(2.309305 13.72918 783.3783)
(3.083637 13.74777 2429.494)
(4.247211 13.46151 4209.947)
(5.916896 12.79847 6156.503)
(8.220027 11.66105 8307.931)
(11.33542 9.9111 9695.614)
(15.23182 7.807191 10216.96)
(20.18874 5.224309 10832.97)
(26.5766 1.924813 11564.1)
(34.97655 -2.42937 12437.24)
(46.38346 -8.436118 11969.91)
(61.10423 -16.31909 9888.774)
(80.4419 -27.66304 7611.688)
(99.06471 -46.88135 5042.1)
(53.53592 -88.37487 1882.234)
(1.845785 4.606078 758.8614)
(2.517821 4.647725 2348.011)
(3.526372 4.575448 4059.387)
(4.964894 4.38686 5924.495)
(6.959897 4.052801 7978.263)
(9.654209 3.533413 9284.257)
(12.96699 2.924568 9745.778)
(17.10085 2.190011 10288.5)
(22.34521 1.286834 10928.38)
(29.08521 0.1252454 11685.88)
(37.92489 -1.409327 11182.12)
(48.93844 -3.325506 9181.656)
(63.13422 -5.84987 7004.791)
(81.62301 -9.492316 4581.785)
(98.44592 -15.69487 1699.057)
(24.35801 9.230985 1552.955)
(46.95212 -2.882503 1438.743)
(25.4577 1.656235 4929.803)
(39.3708 -5.760931 1342.143)
(48.00182 -4.309184 4496.672)
(26.7708 -12.78905 8683.948)
(30.11417 -3.392868 1259.602)
(40.08471 -3.264285 4143.227)
(49.39562 -7.92039 7752.769)
(28.41647 -27.17596 12672.95)
(23.04417 -0.985068 1188.533)
(30.69739 -1.047898 3859.401)
(41.46713 -2.818576 7073.179)
(52.05373 -10.22394 11109.25)
(31.04919 -30.81844 16862.49)
(17.74395 0.1281671 1127.299)
(23.55833 0.09039229 3626.97)
(31.99585 -0.3911265 6557.941)
(43.94642 -2.272534 10073.86)
(56.99197 -8.205691 14588.25)
(35.34219 -21.85629 19311.37)
(13.7935 0.168611 1074.482)
(18.1938 0.1546324 3432.278)
(24.70073 0.08464039 6148.539)
(34.15966 -0.1547593 9319.354)
(47.84524 -0.8822434 13178.56)
(64.83108 -2.91778 16570.47)
(40.45931 -7.268404 19862.5)
(10.82125 -0.1613381 1028.403)
(14.1872 -0.1493172 3266.453)
(19.17762 -0.1179577 5810.305)
(26.51794 -0.04052297 8730.049)
(37.27442 0.1761529 12177.26)
(53.31407 0.7867574 14927.16)
(73.89019 2.501287 16976.93)
(46.30034 5.827566 20343.61)
(8.543315 0.04548499 987.6694)
(11.16927 0.04925492 3122.136)
(15.03841 0.06733877 5523.01)
(20.70679 0.07697118 8245.298)
(29.02637 0.09536105 11401.23)
(41.35171 0.258234 13771.57)
(59.27335 1.066944 15257.22)
(83.75627 3.900353 17367.64)
(52.55657 7.913975 20759.06)
(6.777237 2.037866 950.8997)
(8.854226 2.020695 2993.624)
(11.91475 1.896041 5271.324)
(16.34589 1.643353 7831.05)
(22.77642 1.131564 10760.08)
(32.20477 0.199442 12873)
(45.58822 -1.133991 14041.24)
(65.42108 -2.737975 15578.16)
(93.63672 -4.297593 17731.99)
(58.64436 -13.2794 21094.46)
(5.403092 7.356271 916.6336)
(7.060905 7.271134 2875.346)
(9.516295 6.931728 5043.096)
(13.05119 6.170505 7461.696)
(18.09637 4.848125 10203.03)
(25.35517 2.573899 12119.73)
(35.40718 -0.8724128 13081.56)
(49.76061 -6.045863 14291.68)
(71.26083 -14.07724 15869.46)
(102.2605 -28.07551 18045.12)
(63.62151 -69.79277 18813.81)
(4.318107 16.3125 883.266)
(5.669734 16.18181 2761.7)
(7.66248 15.56564 4826.853)
(10.52205 14.27632 7117.03)
(14.56247 11.978 9692.507)
(20.25653 8.309938 11448.96)
(27.90054 3.190686 12259.27)
(38.47066 -4.264227 13253.44)
(53.56662 -15.39466 14496.03)
(76.16198 -33.2255 16099.32)
(108.0457 -66.00499 16144.45)
(65.01781 -150.0334 14133.43)
(3.467815 23.99855 849.7295)
(4.581394 23.8673 2648.981)
(6.233863 23.12618 4615.316)
(8.581474 21.55451 6784.305)
(11.8671 18.85205 9207.43)
(16.43697 14.52167 10825.2)
(22.39574 8.958159 11518.38)
(30.35046 1.377296 12353.76)
(41.30034 -9.425671 13372.9)
(56.8507 -25.32441 14637.17)
(79.8316 -50.6735 14381.84)
(108.3076 -94.58159 12207.17)
(62.93743 -200.9863 9763.559)
(2.806792 25.36675 817.2861)
(3.726436 25.3144 2540.96)
(5.113826 24.64174 4414.582)
(7.087539 23.20989 6471.84)
(9.815828 20.77263 8757.307)
(13.55956 16.97458 10255.68)
(18.3462 12.21449 10855.52)
(24.55708 6.159746 11570.43)
(32.7942 -1.977507 12428.43)
(44.0709 -13.40043 13469.5)
(59.96114 -29.96045 13073.93)
(81.51835 -54.21414 10914.9)
(105.8886 -95.85011 8534.172)
(59.54169 -191.6191 5752.867)
(2.271001 21.03997 787.438)
(3.052275 21.05458 2442.086)
(4.222898 20.58528 4231.966)
(5.904345 19.5297 6189.523)
(8.226079 17.73948 8354.095)
(11.37128 14.99034 9750.639)
(15.30955 11.67481 10275.35)
(20.32763 7.568824 10895.75)
(26.80857 2.343191 11632.77)
(35.35498 -4.603199 12513.93)
(46.99498 -14.24582 12048.3)
(62.1035 -26.98023 9959.305)
(82.2341 -45.46255 7672.987)
(102.9294 -76.97735 5091.398)
(56.25558 -146.7241 1909.303)
(1.822168 13.38974 760.9176)
(2.495051 13.48084 2354.35)
(3.507765 13.2385 4070.41)
(4.950637 12.65283 5940.927)
(6.952897 11.63817 8001.081)
(9.658508 10.07833 9311.248)
(12.98707 8.248414 9774.156)
(17.14287 6.041037 10318.68)
(22.42001 3.322241 10960.95)
(29.2098 -0.1592179 11721.62)
(38.12682 -4.761426 11217.87)
(49.25743 -10.52985 9212.888)
(63.6475 -18.13836 7030.643)
(82.53276 -29.14134 4600.689)
(100.3711 -47.87722 1707.488)
(1.441575 4.497505 737.857)
(2.019274 4.523829 2277.974)
(2.912322 4.480121 3929.836)
(4.177993 4.310607 5725.221)
(5.920075 4.008924 7696.052)
(8.279068 3.540488 8932.861)
(11.15822 2.999282 9344.034)
(14.69281 2.362365 9826.029)
(19.09582 1.591208 10391.87)
(24.6712 0.639727 11057.68)
(31.82521 -0.5864278 10532.73)
(40.38016 -2.036235 8609.646)
(51.05592 -3.854928 6527.723)
(64.82341 -6.260195 4229.786)
(82.70666 -9.743919 1549.341)
(23.62706 10.77788 1515.917)
(46.04773 -2.590048 1413.03)
(24.91771 12.62939 4784.977)
(38.92653 -9.452198 1326.479)
(48.04971 -0.8859066 4423.311)
(26.83513 9.713194 8420.503)
(29.96021 -8.725386 1253.506)
(40.20855 -4.771535 4115.536)
(50.64203 -1.014663 7668.722)
(29.23283 -1.43077 12377.86)
(23.00068 -4.491699 1187.385)
(30.76949 -3.068758 3853.146)
(41.97826 -2.189561 7052.11)
(53.85736 -4.739069 11041.24)
(32.18452 -15.88102 16605.83)
(17.73359 -1.332285 1127.745)
(23.57963 -0.9496255 3627.667)
(32.1419 -0.857502 6556.483)
(44.49048 -2.123507 10062.88)
(58.53282 -7.851025 14542.31)
(36.26984 -21.6703 19144.8)
(13.79229 0.05033869 1074.964)
(18.19717 0.09152662 3433.665)
(24.72608 0.04207877 6150.415)
(34.25888 -0.3724969 9320.37)
(48.16239 -1.945867 13174.43)
(65.62828 -6.738778 16549.31)
(40.93601 -17.0777 19789.22)
(10.82125 0.1613384 1028.403)
(14.1872 0.1493174 3266.453)
(19.17762 0.1179576 5810.305)