/*--------------------------------*- C++ -*----------------------------------*\
| =========                 |                                                 |
| \\      /  F ield         | OpenFOAM: The Open Source CFD Toolbox           |
|  \\    /   O peration     | Version:  2306                                  |
|   \\  /    A nd           | Website:  www.openfoam.com                      |
|    \\/     M anipulation  |                                                 |
\*---------------------------------------------------------------------------*/
FoamFile
{
    version     2.0;
    format      ascii;
    arch        "LSB;label=32;scalar=64";
    class       volScalarField;
    location    "0.3/phiI";
    object      J;
}
// * * * * * * * * * * * * * * * * * * * * * * * * * * * * * * * * * * * * * //

dimensions      [0 -3 0 0 0 1 0];

internalField   nonuniform List<scalar> 
12000
(
-6.835004e+08
-6.894042e+08
-6.365212e+08
-6.888749e+08
-7.014842e+08
-6.403735e+08
-6.948716e+08
-5.980256e+08
-6.413248e+08
-7.029267e+08
-7.196849e+08
-6.480292e+08
-7.07138e+08
-6.010377e+08
-6.452409e+08
-7.091504e+08
-5.672652e+08
-6.023905e+08
-6.537624e+08
-7.260516e+08
-7.433362e+08
-6.58878e+08
-7.256081e+08
-6.069423e+08
-6.530241e+08
-7.218785e+08
-5.698084e+08
-6.054529e+08
-6.578281e+08
-7.326467e+08
-5.415241e+08
-5.712931e+08
-6.135672e+08
-6.741501e+08
-7.590319e+08
-7.693567e+08
-6.715976e+08
-7.495668e+08
-6.150845e+08
-6.640601e+08
-7.410401e+08
-5.747541e+08
-6.114574e+08
-6.659101e+08
-7.46133e+08
-5.437582e+08
-5.738784e+08
-6.167453e+08
-6.784571e+08
-7.661624e+08
-5.191894e+08
-5.452768e+08
-5.815036e+08
-6.318145e+08
-7.031179e+08
0
-7.905948e+08
-6.835568e+08
-7.758232e+08
-6.241611e+08
-6.770147e+08
-7.658682e+08
-5.814812e+08
-6.197464e+08
-6.773827e+08
-7.664412e+08
-5.480808e+08
-5.789077e+08
-6.22979e+08
-6.870213e+08
-7.807441e+08
-5.211973e+08
-5.475474e+08
-5.841849e+08
-6.351777e+08
-7.077692e+08
0
-4.993967e+08
-5.227066e+08
-5.547068e+08
-5.98115e+08
-6.57652e+08
0
0
-8.053661e+08
-6.917202e+08
-7.971855e+08
-6.319184e+08
-6.892213e+08
-7.929942e+08
-5.887857e+08
-6.290106e+08
-6.908771e+08
-7.927442e+08
-5.539196e+08
-5.85757e+08
-6.315989e+08
-6.991975e+08
-8.02717e+08
-5.250673e+08
-5.519423e+08
-5.894033e+08
-6.417779e+08
-7.170214e+08
0
-5.012321e+08
-5.247469e+08
-5.5706e+08
-6.009489e+08
-6.612775e+08
0
0
-4.815683e+08
-5.027078e+08
-5.314789e+08
-5.700019e+08
-6.215683e+08
0
0
0
-8.144317e+08
-6.965424e+08
-8.119935e+08
-6.363471e+08
-6.975595e+08
-8.14997e+08
-5.946987e+08
-6.369777e+08
-7.036324e+08
-8.214199e+08
-5.601751e+08
-5.932181e+08
-6.41268e+08
-7.135582e+08
-8.311852e+08
-5.302731e+08
-5.578862e+08
-5.96524e+08
-6.509248e+08
-7.302015e+08
0
-5.04759e+08
-5.286805e+08
-5.616171e+08
-6.064682e+08
-6.683969e+08
0
0
-4.832648e+08
-5.045723e+08
-5.335917e+08
-5.724859e+08
-6.246177e+08
0
0
0
-4.653618e+08
-4.846958e+08
-5.109126e+08
-5.456698e+08
-5.915442e+08
0
0
0
0
-8.18717e+08
-6.991657e+08
-8.210567e+08
-6.383147e+08
-7.024702e+08
-8.30198e+08
-5.976614e+08
-6.415653e+08
-7.123576e+08
-8.446155e+08
-5.65097e+08
-5.993096e+08
-6.496474e+08
-7.271863e+08
-8.621854e+08
-5.358111e+08
-5.642761e+08
-6.043149e+08
-6.612306e+08
-7.457965e+08
0
-5.094929e+08
-5.339788e+08
-5.677928e+08
-6.140182e+08
-6.782891e+08
0
0
-4.865167e+08
-5.081561e+08
-5.376677e+08
-5.773002e+08
-6.305611e+08
0
0
0
-4.66944e+08
-4.864186e+08
-5.128419e+08
-5.478974e+08
-5.942123e+08
0
0
0
0
-4.504906e+08
-4.68324e+08
-4.924018e+08
-5.241551e+08
-5.656151e+08
0
0
0
0
0
-8.18717e+08
-7.003234e+08
-8.253335e+08
-6.390323e+08
-7.051278e+08
-8.39476e+08
-5.986079e+08
-6.436226e+08
-7.174854e+08
-8.605896e+08
-5.673687e+08
-6.024113e+08
-6.545224e+08
-7.365262e+08
-8.872019e+08
-5.401044e+08
-5.693518e+08
-6.107416e+08
-6.70239e+08
-7.606632e+08
0
-5.145102e+08
-5.396341e+08
-5.744631e+08
-6.223228e+08
-6.894901e+08
0
0
-4.908768e+08
-5.129724e+08
-5.431687e+08
-5.838413e+08
-6.387151e+08
0
0
0
-4.699697e+08
-4.897221e+08
-5.165527e+08
-5.521983e+08
-5.993878e+08
0
0
0
0
-4.519754e+08
-4.699303e+08
-4.941832e+08
-5.261867e+08
-5.680038e+08
0
0
0
0
0
-4.367572e+08
-4.533027e+08
-4.755868e+08
-5.048144e+08
-5.427335e+08
0
0
0
0
0
1.10853e+09
-8.144317e+08
-7.003234e+08
-8.253335e+08
-6.392364e+08
-7.062951e+08
-8.438465e+08
-5.986833e+08
-6.443821e+08
-7.202488e+08
-8.703131e+08
-5.678987e+08
-6.034393e+08
-6.567375e+08
-7.420087e+08
-9.043801e+08
-5.419906e+08
-5.717447e+08
-6.140763e+08
-6.755394e+08
-7.708749e+08
0
-5.183712e+08
-5.440615e+08
-5.798229e+08
-6.29252e+08
-6.993702e+08
0
0
-4.954887e+08
-5.180938e+08
-5.490682e+08
-5.909462e+08
-6.477367e+08
0
0
0
-4.740216e+08
-4.941564e+08
-5.215494e+08
-5.580182e+08
-6.064411e+08
0
0
0
0
-4.548088e+08
-4.73003e+08
-4.976012e+08
-5.300977e+08
-5.726199e+08
0
0
0
0
0
-4.38158e+08
-4.548096e+08
-4.772465e+08
-5.066881e+08
-5.449083e+08
0
0
0
0
0
1.11697e+09
-4.240088e+08
-4.394322e+08
-4.601677e+08
-4.872647e+08
-5.222004e+08
0
0
0
0
0
9.979496e+08
1.058339e+09
-8.05366e+08
-6.991657e+08
-8.210567e+08
-6.392364e+08
-7.062951e+08
-8.438465e+08
-5.985758e+08
-6.446018e+08
-7.214576e+08
-8.748855e+08
-5.677432e+08
-6.035551e+08
-6.575716e+08
-7.449534e+08
-9.148103e+08
-5.423283e+08
-5.723471e+08
-6.152314e+08
-6.779854e+08
-7.76866e+08
0
-5.200205e+08
-5.460542e+08
-5.82413e+08
-6.329203e+08
-7.052505e+08
0
0
-4.990236e+08
-5.220731e+08
-5.537423e+08
-5.967286e+08
-6.553542e+08
0
0
0
-4.783014e+08
-4.988615e+08
-5.268873e+08
-5.642955e+08
-6.141501e+08
0
0
0
0
-4.586012e+08
-4.771224e+08
-5.02198e+08
-5.353777e+08
-5.788854e+08
0
0
0
0
0
-4.408261e+08
-4.576862e+08
-4.804235e+08
-5.102864e+08
-5.490992e+08
0
0
0
0
0
1.133757e+09
-4.253361e+08
-4.408534e+08
-4.617236e+08
-4.890085e+08
-5.24203e+08
0
0
0
0
0
1.003148e+09
1.066121e+09
-4.121289e+08
-4.265578e+08
-4.459373e+08
-4.711884e+08
-5.035983e+08
0
0
0
0
0
9.004838e+08
9.556408e+08
1.022865e+09
-7.905948e+08
-6.965424e+08
-8.119935e+08
-6.390323e+08
-7.051278e+08
-8.394761e+08
-5.985758e+08
-6.446018e+08
-7.214576e+08
-8.748855e+08
-5.675323e+08
-6.034635e+08
-6.578198e+08
-7.462372e+08
-9.197068e+08
-5.420883e+08
-5.722281e+08
-6.15407e+08
-6.789289e+08
-7.800761e+08
0
-5.202641e+08
-5.464559e+08
-5.831228e+08
-6.342516e+08
-7.080085e+08
0
0
-5.005084e+08
-5.23817e+08
-5.559062e+08
-5.99597e+08
-6.594681e+08
0
0
0
-4.815751e+08
-5.025019e+08
-5.310847e+08
-5.693354e+08
-6.205081e+08
0
0
0
0
-4.626043e+08
-4.814864e+08
-5.070976e+08
-5.410503e+08
-5.856865e+08
0
0
0
0
0
-4.44396e+08
-4.615403e+08
-4.846906e+08
-5.15138e+08
-5.547743e+08
0
0
0
0
0
1.158845e+09
-4.278597e+08
-4.435614e+08
-4.646957e+08
-4.923493e+08
-5.28053e+08
0
0
0
0
0
1.013226e+09
1.081582e+09
-4.133913e+08
-4.279041e+08
-4.474038e+08
-4.728213e+08
-5.054591e+08
0
0
0
0
0
9.043006e+08
9.604615e+08
1.030209e+09
-4.010127e+08
-4.145618e+08
-4.327356e+08
-4.563656e+08
-4.865828e+08
0
0
0
0
0
8.220873e+08
8.646134e+08
9.255012e+08
1.000848e+09
-7.693567e+08
-6.917202e+08
-7.971855e+08
-6.383147e+08
-7.024702e+08
-8.30198e+08
-5.986833e+08
-6.443821e+08
-7.202488e+08
-8.703131e+08
-5.675323e+08
-6.034635e+08
-6.578198e+08
-7.462372e+08
-9.197068e+08
-5.418468e+08
-5.720319e+08
-6.153381e+08
-6.792193e+08
-7.814719e+08
0
-5.199985e+08
-5.462485e+08
-5.830541e+08
-6.345075e+08
-7.090998e+08
0
0
-5.006997e+08
-5.241176e+08
-5.564011e+08
-6.004519e+08
-6.610297e+08
0
0
0
-4.829354e+08
-5.040714e+08
-5.329799e+08
-5.717393e+08
-6.237444e+08
0
0
0
0
-4.656643e+08
-4.848551e+08
-5.109332e+08
-5.455709e+08
-5.912233e+08
0
0
0
0
0
-4.481631e+08
-4.656203e+08
-4.892309e+08
-5.20338e+08
-5.609102e+08
0
0
0
0
0
1.191048e+09
-4.312354e+08
-4.471881e+08
-4.686851e+08
-4.968478e+08
-5.332595e+08
0
0
0
0
0
1.027699e+09
1.104662e+09
-4.157874e+08
-4.304646e+08
-4.501999e+08
-4.759435e+08
-5.090284e+08
0
0
0
0
0
9.11618e+08
9.698002e+08
1.04479e+09
-4.022173e+08
-4.158419e+08
-4.341238e+08
-4.579031e+08
-4.883229e+08
0
0
0
0
0
8.25128e+08
8.681708e+08
9.300649e+08
1.007945e+09
-3.905766e+08
-4.03338e+08
-4.204402e+08
-4.426263e+08
-4.709155e+08
0
0
0
0
0
7.575439e+08
7.910685e+08
8.389104e+08
9.065726e+08
9.909443e+08
-7.433362e+08
-6.835568e+08
-7.758231e+08
-6.363471e+08
-6.975595e+08
-8.149969e+08
-5.986079e+08
-6.436226e+08
-7.174854e+08
-8.605896e+08
-5.677432e+08
-6.035551e+08
-6.575716e+08
-7.449534e+08
-9.148103e+08
-5.418468e+08
-5.720319e+08
-6.153381e+08
-6.792193e+08
-7.814719e+08
0
-5.197539e+08
-5.460202e+08
-5.82877e+08
-6.344684e+08
-7.094471e+08
0
0
-5.004307e+08
-5.238811e+08
-5.562373e+08
-6.004482e+08
-6.613886e+08
0
0
0
-4.830941e+08
-5.04314e+08
-5.33363e+08
-5.723586e+08
-6.247858e+08
0
0
0
0
-4.669275e+08
-4.86292e+08
-5.126383e+08
-5.476778e+08
-5.939427e+08
0
0
0
0
0
-4.510424e+08
-4.687664e+08
-4.927761e+08
-5.24463e+08
-5.65869e+08
0
0
0
0
0
1.224971e+09
-4.347975e+08
-4.510257e+08
-4.729261e+08
-5.016605e+08
-5.388748e+08
0
0
0
0
0
1.045155e+09
1.134247e+09
-4.189919e+08
-4.338929e+08
-4.539511e+08
-4.801446e+08
-5.138487e+08
0
0
0
0
0
9.219245e+08
9.832035e+08
1.066552e+09
-4.045e+08
-4.182723e+08
-4.367659e+08
-4.608374e+08
-4.91654e+08
0
0
0
0
0
8.309196e+08
8.749856e+08
9.389015e+08
1.022039e+09
-3.917293e+08
-4.045592e+08
-4.217593e+08
-4.440803e+08
-4.725517e+08
0
0
0
0
0
7.600703e+08
7.939137e+08
8.422885e+08
9.109857e+08
9.979596e+08
-3.80759e+08
-3.928022e+08
-4.089414e+08
-4.298407e+08
-4.564117e+08
0
0
0
0
0
7.028809e+08
7.303005e+08
7.687498e+08
8.226374e+08
8.978354e+08
-7.196849e+08
-6.715976e+08
-7.495668e+08
-6.319184e+08
-6.892213e+08
-7.929941e+08
-5.976614e+08
-6.415653e+08
-7.123576e+08
-8.446155e+08
-5.678987e+08
-6.034393e+08
-6.567375e+08
-7.420087e+08
-9.043801e+08
-5.420883e+08
-5.722281e+08
-6.15407e+08
-6.789289e+08
-7.800761e+08
0
-5.197539e+08
-5.460202e+08
-5.82877e+08
-6.344684e+08
-7.094471e+08
0
0
-5.001927e+08
-5.236484e+08
-5.560255e+08
-6.002948e+08
-6.61387e+08
0
0
0
-4.8283e+08
-5.040712e+08
-5.331651e+08
-5.722503e+08
-6.248632e+08
0
0
0
0
-4.670656e+08
-4.864972e+08
-5.129549e+08
-5.481704e+08
-5.947206e+08
0
0
0
0
0
-4.522261e+08
-4.700993e+08
-4.943358e+08
-5.263576e+08
-5.682534e+08
0
0
0
0
0
1.24952e+09
-4.375208e+08
-4.539836e+08
-4.762331e+08
-5.054676e+08
-5.433919e+08
0
0
0
0
0
1.061914e+09
1.165357e+09
-4.223732e+08
-4.3752e+08
-4.579368e+08
-4.846345e+08
-5.190375e+08
0
0
0
0
0
9.339536e+08
9.993577e+08
1.094448e+09
-4.075526e+08
-4.215257e+08
-4.403095e+08
-4.647835e+08
-4.961491e+08
0
0
0
0
0
8.389719e+08
8.845802e+08
9.515823e+08
1.043087e+09
-3.939106e+08
-4.06874e+08
-4.242657e+08
-4.468504e+08
-4.756781e+08
0
0
0
0
0
7.648622e+08
7.993288e+08
8.487566e+08
9.195301e+08
1.011902e+09
-3.818666e+08
-3.939704e+08
-4.10199e+08
-4.31221e+08
-4.57957e+08
0
0
0
0
0
7.050368e+08
7.326721e+08
7.714586e+08
8.259077e+08
9.021896e+08
-3.715085e+08
-3.828917e+08
-3.981519e+08
-4.178927e+08
-4.429303e+08
0
0
0
0
0
6.556528e+08
6.786779e+08
7.106379e+08
7.545457e+08
8.150161e+08
-7.014842e+08
-6.58878e+08
-7.256081e+08
-6.241611e+08
-6.770148e+08
-7.658681e+08
-5.946987e+08
-6.369777e+08
-7.036324e+08
-8.214199e+08
-5.673687e+08
-6.024113e+08
-6.545224e+08
-7.365263e+08
-8.872019e+08
-5.423283e+08
-5.723471e+08
-6.152314e+08
-6.779854e+08
-7.76866e+08
0
-5.199985e+08
-5.462485e+08
-5.830541e+08
-6.345075e+08
-7.090998e+08
0
0
-5.001927e+08
-5.236484e+08
-5.560255e+08
-6.002948e+08
-6.61387e+08
0
0
0
-4.826015e+08
-5.03844e+08
-5.32947e+08
-5.720584e+08
-6.247383e+08
0
0
0
0
-4.668105e+08
-4.862568e+08
-5.127467e+08
-5.480211e+08
-5.946803e+08
0
0
0
0
0
-4.523501e+08
-4.702799e+08
-4.94608e+08
-5.267723e+08
-5.688851e+08
0
0
0
0
0
1.263992e+09
-4.386376e+08
-4.552313e+08
-4.776781e+08
-5.071988e+08
-5.455345e+08
0
0
0
0
0
1.072834e+09
1.18776e+09
-4.249589e+08
-4.403156e+08
-4.610424e+08
-4.881804e+08
-5.231993e+08
0
0
0
0
0
9.448943e+08
1.014852e+09
1.123786e+09
-4.107739e+08
-4.249672e+08
-4.440736e+08
-4.689981e+08
-5.009824e+08
0
0
0
0
0
8.481605e+08
8.957734e+08
9.668658e+08
1.070107e+09
-3.968284e+08
-4.099722e+08
-4.276263e+08
-4.505743e+08
-4.798946e+08
0
0
0
0
0
7.714603e+08
8.068551e+08
8.578622e+08
9.317955e+08
1.032752e+09
-3.839596e+08
-3.961818e+08
-4.125848e+08
-4.338464e+08
-4.609048e+08
0
0
0
0
0
7.091163e+08
7.37167e+08
7.766117e+08
8.321683e+08
9.106225e+08
-3.725737e+08
-3.840138e+08
-3.993544e+08
-4.192075e+08
-4.443955e+08
0
0
0
0
0
6.575263e+08
6.807073e+08
7.129008e+08
7.571713e+08
8.182409e+08
-3.627696e+08
-3.735545e+08
-3.880068e+08
-4.066899e+08
-4.303457e+08
0
0
0
0
0
6.14207e+08
6.339582e+08
6.611675e+08
6.980793e+08
7.47843e+08
-6.894041e+08
-6.480292e+08
-7.07138e+08
-6.150845e+08
-6.640601e+08
-7.410401e+08
-5.887857e+08
-6.290106e+08
-6.908771e+08
-7.927441e+08
-5.65097e+08
-5.993096e+08
-6.496474e+08
-7.271863e+08
-8.621853e+08
-5.419906e+08
-5.717447e+08
-6.140763e+08
-6.755394e+08
-7.708749e+08
0
-5.202641e+08
-5.464559e+08
-5.831228e+08
-6.342516e+08
-7.080085e+08
0
0
-5.004307e+08
-5.238811e+08
-5.562373e+08
-6.004482e+08
-6.613886e+08
0
0
0
-4.826015e+08
-5.03844e+08
-5.32947e+08
-5.720584e+08
-6.247383e+08
0
0
0
0
-4.665926e+08
-4.86038e+08
-5.125326e+08
-5.478206e+08
-5.945122e+08
0
0
0
0
0
-4.521052e+08
-4.700465e+08
-4.94399e+08
-5.266077e+08
-5.687953e+08
0
0
0
0
0
1.27156e+09
-4.387513e+08
-4.553943e+08
-4.7792e+08
-5.075599e+08
-5.460734e+08
0
0
0
0
0
1.07846e+09
1.200895e+09
-4.26017e+08
-4.414914e+08
-4.623931e+08
-4.897821e+08
-5.251547e+08
0
0
0
0
0
9.51463e+08
1.024913e+09
1.144838e+09
-4.132386e+08
-4.276196e+08
-4.470054e+08
-4.723232e+08
-5.048519e+08
0
0
0
0
0
8.56201e+08
9.059458e+08
9.815232e+08
1.098584e+09
-3.99911e+08
-4.132495e+08
-4.311948e+08
-4.5455e+08
-4.844249e+08
0
0
0
0
0
7.788604e+08
8.154395e+08
8.684844e+08
9.465893e+08
1.059592e+09
-3.867589e+08
-3.991423e+08
-4.15783e+08
-4.373746e+08
-4.648787e+08
0
0
0
0
0
7.146935e+08
7.43354e+08
7.837727e+08
8.409835e+08
9.22737e+08
-3.745837e+08
-3.861352e+08
-4.016322e+08
-4.217043e+08
-4.471858e+08
0
0
0
0
0
6.610662e+08
6.845447e+08
7.171877e+08
7.621649e+08
8.244153e+08
-3.637959e+08
-3.746334e+08
-3.891612e+08
-4.079459e+08
-4.317397e+08
0
0
0
0
0
6.158584e+08
6.357259e+08
6.631077e+08
7.002753e+08
7.504323e+08
-3.545007e+08
-3.647346e+08
-3.784521e+08
-3.961633e+08
-4.185584e+08
0
0
0
0
0
5.773828e+08
5.946214e+08
6.182319e+08
6.499545e+08
6.921291e+08
-6.835004e+08
-6.403735e+08
-6.948716e+08
-6.069423e+08
-6.530241e+08
-7.218785e+08
-5.814812e+08
-6.197464e+08
-6.773827e+08
-7.664412e+08
-5.601751e+08
-5.932181e+08
-6.41268e+08
-7.135582e+08
-8.311852e+08
-5.401044e+08
-5.693518e+08
-6.107416e+08
-6.70239e+08
-7.606632e+08
0
-5.200205e+08
-5.460542e+08
-5.82413e+08
-6.329203e+08
-7.052505e+08
0
0
-5.006997e+08
-5.241176e+08
-5.564011e+08
-6.004519e+08
-6.610297e+08
0
0
0
-4.8283e+08
-5.040712e+08
-5.331651e+08
-5.722503e+08
-6.248632e+08
0
0
0
0
-4.665926e+08
-4.86038e+08
-5.125326e+08
-5.478206e+08
-5.945122e+08
0
0
0
0
0
-4.518975e+08
-4.698375e+08
-4.941922e+08
-5.264093e+08
-5.686153e+08
0
0
0
0
0
1.274728e+09
-4.385168e+08
-4.551694e+08
-4.777155e+08
-5.073905e+08
-5.459619e+08
0
0
0
0
0
1.080989e+09
1.207727e+09
-4.261224e+08
-4.416412e+08
-4.626127e+08
-4.901053e+08
-5.256283e+08
0
0
0
0
0
9.543982e+08
1.030075e+09
1.157139e+09
-4.142477e+08
-4.287325e+08
-4.482765e+08
-4.73818e+08
-5.066583e+08
0
0
0
0
0
8.607159e+08
9.120355e+08
9.910098e+08
1.118978e+09
-4.022735e+08
-4.157762e+08
-4.339737e+08
-4.576847e+08
-4.880472e+08
0
0
0
0
0
7.851407e+08
8.229444e+08
8.781345e+08
9.607891e+08
1.087992e+09
-3.89715e+08
-4.022771e+08
-4.191788e+08
-4.411397e+08
-4.69146e+08
0
0
0
0
0
7.208636e+08
7.502891e+08
7.919392e+08
8.512713e+08
9.373691e+08
-3.77272e+08
-3.889745e+08
-4.046863e+08
-4.250589e+08
-4.509461e+08
0
0
0
0
0
6.658778e+08
6.897885e+08
7.23087e+08
7.691051e+08
8.33113e+08
-3.657302e+08
-3.766701e+08
-3.91345e+08
-4.103277e+08
-4.343904e+08
0
0
0
0
0
6.189758e+08
6.390636e+08
6.667745e+08
7.044343e+08
7.55357e+08
-3.554923e+08
-3.65774e+08
-3.795614e+08
-3.97368e+08
-4.198885e+08
0
0
0
0
0
5.78854e+08
5.961828e+08
6.199248e+08
6.518393e+08
6.942953e+08
-3.466775e+08
-3.563898e+08
-3.694299e+08
-3.862555e+08
-4.07493e+08
0
0
0
0
0
5.443611e+08
5.595964e+08
5.804009e+08
6.081417e+08
6.446306e+08
-6.365212e+08
-6.888749e+08
-6.010377e+08
-6.452409e+08
-7.091504e+08
-5.747541e+08
-6.114574e+08
-6.659101e+08
-7.46133e+08
-5.539196e+08
-5.85757e+08
-6.315989e+08
-6.991975e+08
-8.02717e+08
-5.358111e+08
-5.642761e+08
-6.043149e+08
-6.612306e+08
-7.457965e+08
0
-5.183712e+08
-5.440615e+08
-5.798229e+08
-6.29252e+08
-6.993702e+08
0
0
-5.005084e+08
-5.23817e+08
-5.559062e+08
-5.99597e+08
-6.594681e+08
0
0
0
-4.830941e+08
-5.04314e+08
-5.33363e+08
-5.723586e+08
-6.247858e+08
0
0
0
0
-4.668105e+08
-4.862568e+08
-5.127467e+08
-5.480211e+08
-5.946803e+08
0
0
0
0
0
-4.518975e+08
-4.698375e+08
-4.941922e+08
-5.264093e+08
-5.686153e+08
0
0
0
0
0
1.274728e+09
-4.383188e+08
-4.549699e+08
-4.775173e+08
-5.071979e+08
-5.457819e+08
0
0
0
0
0
1.081907e+09
1.210575e+09
-4.258976e+08
-4.414253e+08
-4.624144e+08
-4.89937e+08
-5.255071e+08
0
0
0
0
0
9.554365e+08
1.032382e+09
1.163518e+09
-4.143492e+08
-4.288715e+08
-4.484787e+08
-4.741125e+08
-5.070844e+08
0
0
0
0
0
8.624586e+08
9.147461e+08
9.958615e+08
1.130881e+09
-4.032417e+08
-4.168363e+08
-4.351752e+08
-4.590891e+08
-4.897302e+08
0
0
0
0
0
7.884659e+08
8.271456e+08
8.838924e+08
9.699529e+08
1.108324e+09
-3.919812e+08
-4.046974e+08
-4.218232e+08
-4.441069e+08
-4.725553e+08
0
0
0
0
0
7.259702e+08
7.561675e+08
7.990739e+08
8.606192e+08
9.514365e+08
-3.801116e+08
-3.919796e+08
-4.079321e+08
-4.28638e+08
-4.54982e+08
0
0
0
0
0
6.711429e+08
6.95586e+08
7.296978e+08
7.770212e+08
8.432718e+08
-3.683173e+08
-3.793961e+08
-3.942724e+08
-4.135283e+08
-4.379614e+08
0
0
0
0
0
6.231926e+08
6.435984e+08
6.717841e+08
7.101578e+08
7.622034e+08
-3.573595e+08
-3.677334e+08
-3.816569e+08
-3.996495e+08
-4.224142e+08
0
0
0
0
0
5.816314e+08
5.991284e+08
6.231196e+08
6.554007e+08
6.98398e+08
-3.476372e+08
-3.573938e+08
-3.704979e+08
-3.874122e+08
-4.087673e+08
0
0
0
0
0
5.456843e+08
5.6099e+08
5.818984e+08
6.09788e+08
6.464906e+08
-3.392686e+08
-3.484956e+08
-3.608965e+08
-3.769054e+08
-3.970871e+08
0
0
0
0
0
5.145216e+08
5.281274e+08
5.466646e+08
5.712631e+08
6.033463e+08
-5.980256e+08
-6.413248e+08
-7.029267e+08
-5.698084e+08
-6.054529e+08
-6.578281e+08
-7.326467e+08
-5.480808e+08
-5.789077e+08
-6.22979e+08
-6.870213e+08
-7.807441e+08
-5.302731e+08
-5.578862e+08
-5.96524e+08
-6.509248e+08
-7.302015e+08
0
-5.145102e+08
-5.396341e+08
-5.744631e+08
-6.223228e+08
-6.894901e+08
0
0
-4.990236e+08
-5.220731e+08
-5.537423e+08
-5.967286e+08
-6.553542e+08
0
0
0
-4.829354e+08
-5.040714e+08
-5.329799e+08
-5.717393e+08
-6.237444e+08
0
0
0
0
-4.670656e+08
-4.864972e+08
-5.129549e+08
-5.481704e+08
-5.947206e+08
0
0
0
0
0
-4.521052e+08
-4.700465e+08
-4.94399e+08
-5.266077e+08
-5.687953e+08
0
0
0
0
0
1.27156e+09
-4.383188e+08
-4.549699e+08
-4.775173e+08
-5.071979e+08
-5.457819e+08
0
0
0
0
0
1.081907e+09
1.210575e+09
-4.257085e+08
-4.412349e+08
-4.622249e+08
-4.89752e+08
-5.253312e+08
0
0
0
0
0
9.557e+08
1.033216e+09
1.166172e+09
-4.141356e+08
-4.28664e+08
-4.482874e+08
-4.739477e+08
-5.069603e+08
0
0
0
0
0
8.628743e+08
9.156989e+08
9.980241e+08
1.137054e+09
-4.033395e+08
-4.169693e+08
-4.35363e+08
-4.593608e+08
-4.901195e+08
0
0
0
0
0
7.895598e+08
8.287588e+08
8.864456e+08
9.746307e+08
1.120205e+09
-3.9291e+08
-4.057134e+08
-4.229661e+08
-4.454324e+08
-4.741338e+08
0
0
0
0
0
7.285354e+08
7.592683e+08
8.030526e+08
8.661766e+08
9.604924e+08
-3.822899e+08
-3.942999e+08
-4.104626e+08
-4.314581e+08
-4.582041e+08
0
0
0
0
0
6.754117e+08
7.003767e+08
7.352955e+08
7.839349e+08
8.525077e+08
-3.710516e+08
-3.822818e+08
-3.973816e+08
-4.169457e+08
-4.41793e+08
0
0
0
0
0
6.277659e+08
6.485564e+08
6.773202e+08
7.165717e+08
7.700164e+08
-3.598581e+08
-3.703561e+08
-3.844658e+08
-4.027144e+08
-4.258173e+08
0
0
0
0
0
5.853761e+08
6.031108e+08
6.274589e+08
6.60266e+08
7.040452e+08
-3.494417e+08
-3.592849e+08
-3.725129e+08
-3.895997e+08
-4.11184e+08
0
0
0
0
0
5.48183e+08
5.636193e+08
5.847222e+08
6.128941e+08
6.500051e+08
-3.401991e+08
-3.494669e+08
-3.619276e+08
-3.780182e+08
-3.983094e+08
0
0
0
0
0
5.157206e+08
5.29383e+08
5.480031e+08
5.727208e+08
6.049716e+08
-3.322496e+08
-3.410199e+08
-3.528262e+08
-3.680669e+08
-3.872753e+08
0
0
0
0
0
4.8738e+08
4.996407e+08
5.163109e+08
5.383453e+08
5.669194e+08
-5.672652e+08
-6.023905e+08
-6.537624e+08
-7.260516e+08
-5.437582e+08
-5.738784e+08
-6.167453e+08
-6.784571e+08
-7.661624e+08
-5.250673e+08
-5.519423e+08
-5.894033e+08
-6.417779e+08
-7.170214e+08
0
-5.094929e+08
-5.339788e+08
-5.677928e+08
-6.140182e+08
-6.782891e+08
0
0
-4.954887e+08
-5.180938e+08
-5.490682e+08
-5.909462e+08
-6.477367e+08
0
0
0
-4.815751e+08
-5.025019e+08
-5.310847e+08
-5.693354e+08
-6.205081e+08
0
0
0
0
-4.669275e+08
-4.86292e+08
-5.126383e+08
-5.476778e+08
-5.939427e+08
0
0
0
0
0
-4.523501e+08
-4.702799e+08
-4.94608e+08
-5.267723e+08
-5.688851e+08
0
0
0
0
0
1.263992e+09
-4.385168e+08
-4.551694e+08
-4.777155e+08
-5.073905e+08
-5.459619e+08
0
0
0
0
0
1.080989e+09
1.207727e+09
-4.257085e+08
-4.412349e+08
-4.622249e+08
-4.89752e+08
-5.253312e+08
0
0
0
0
0
9.557e+08
1.033216e+09
1.166172e+09
-4.139555e+08
-4.284819e+08
-4.481064e+08
-4.737704e+08
-5.067906e+08
0
0
0
0
0
8.628762e+08
9.159377e+08
9.988031e+08
1.139622e+09
-4.031352e+08
-4.167718e+08
-4.351785e+08
-4.592007e+08
-4.899956e+08
0
0
0
0
0
7.896593e+08
8.291376e+08
8.873383e+08
9.767146e+08
1.126383e+09
-3.930041e+08
-4.058407e+08
-4.231447e+08
-4.456849e+08
-4.744934e+08
0
0
0
0
0
7.292402e+08
7.602795e+08
8.045715e+08
8.686323e+08
9.651118e+08
-3.831833e+08
-3.952737e+08
-4.115562e+08
-4.327167e+08
-4.596914e+08
0
0
0
0
0
6.774564e+08
7.027718e+08
7.382346e+08
7.877733e+08
8.579769e+08
-3.731529e+08
-3.845109e+08
-3.998053e+08
-4.196407e+08
-4.448507e+08
0
0
0
0
0
6.314121e+08
6.525686e+08
6.818885e+08
7.219985e+08
7.76839e+08
-3.624999e+08
-3.731338e+08
-3.874495e+08
-4.059849e+08
-4.29471e+08
0
0
0
0
0
5.894097e+08
6.074258e+08
6.322008e+08
6.656421e+08
7.103752e+08
-3.518563e+08
-3.618171e+08
-3.75214e+08
-3.925382e+08
-4.14439e+08
0
0
0
0
0
5.515422e+08
5.671626e+08
5.885387e+08
6.171125e+08
6.54807e+08
-3.41947e+08
-3.512941e+08
-3.638713e+08
-3.801201e+08
-4.006242e+08
0
0
0
0
0
5.179861e+08
5.317527e+08
5.505272e+08
5.754687e+08
6.08038e+08
-3.331528e+08
-3.419615e+08
-3.538233e+08
-3.691404e+08
-3.8845e+08
0
0
0
0
0
4.884735e+08
5.007803e+08
5.175183e+08
5.396492e+08
5.68359e+08
-3.255828e+08
-3.339381e+08
-3.451858e+08
-3.597122e+08
-3.780076e+08
0
0
0
0
0
4.625519e+08
4.736873e+08
4.887981e+08
5.087021e+08
5.343916e+08
-5.415241e+08
-5.712931e+08
-6.135672e+08
-6.741501e+08
-7.590319e+08
-5.211973e+08
-5.475474e+08
-5.841849e+08
-6.351777e+08
-7.077692e+08
0
-5.04759e+08
-5.286805e+08
-5.616171e+08
-6.064682e+08
-6.683969e+08
0
0
-4.908768e+08
-5.129724e+08
-5.431687e+08
-5.838413e+08
-6.387151e+08
0
0
0
-4.783014e+08
-4.988615e+08
-5.268873e+08
-5.642955e+08
-6.141501e+08
0
0
0
0
-4.656643e+08
-4.848551e+08
-5.109332e+08
-5.455709e+08
-5.912233e+08
0
0
0
0
0
-4.522261e+08
-4.700993e+08
-4.943358e+08
-5.263576e+08
-5.682534e+08
0
0
0
0
0
1.24952e+09
-4.387513e+08
-4.553943e+08
-4.7792e+08
-5.075599e+08
-5.460734e+08
0
0
0
0
0
1.07846e+09
1.200895e+09
-4.258977e+08
-4.414253e+08
-4.624144e+08
-4.89937e+08
-5.255071e+08
0
0
0
0
0
9.554365e+08
1.032382e+09
1.163518e+09
-4.139555e+08
-4.284819e+08
-4.481064e+08
-4.737704e+08
-5.067906e+08
0
0
0
0
0
8.628762e+08
9.159377e+08
9.988031e+08
1.139622e+09
-4.029629e+08
-4.165983e+08
-4.350052e+08
-4.59031e+08
-4.898326e+08
0
0
0
0
0
7.895363e+08
8.291349e+08
8.875599e+08
9.774655e+08
1.128961e+09
-3.928082e+08
-4.056516e+08
-4.229689e+08
-4.455296e+08
-4.743713e+08
0
0
0
0
0
7.291651e+08
7.603637e+08
8.049223e+08
8.694878e+08
9.671736e+08
-3.832744e+08
-3.953955e+08
-4.117264e+08
-4.32956e+08
-4.600258e+08
0
0
0
0
0
6.779128e+08
7.034203e+08
7.391838e+08
7.892296e+08
8.603858e+08
-3.740182e+08
-3.854467e+08
-4.008521e+08
-4.208429e+08
-4.462604e+08
0
0
0
0
0
6.330863e+08
6.544794e+08
6.841598e+08
7.248328e+08
7.806079e+08
-3.645314e+08
-3.752829e+08
-3.89776e+08
-4.08563e+08
-4.323884e+08
0
0
0
0
0
5.925816e+08
6.108586e+08
6.360314e+08
6.700734e+08
7.157279e+08
-3.544108e+08
-3.645e+08
-3.780842e+08
-3.956736e+08
-4.179313e+08
0
0
0
0
0
5.551392e+08
5.709753e+08
5.926713e+08
6.217212e+08
6.601137e+08
-3.442862e+08
-3.537406e+08
-3.664777e+08
-3.829434e+08
-4.037416e+08
0
0
0
0
0
5.210247e+08
5.349366e+08
5.539275e+08
5.791823e+08
6.122029e+08
-3.348476e+08
-3.437309e+08
-3.557004e+08
-3.711664e+08
-3.906719e+08
0
0
0
0
0
4.905414e+08
5.029323e+08
5.197961e+08
5.421077e+08
5.71073e+08
-3.264606e+08
-3.348519e+08
-3.461519e+08
-3.607495e+08
-3.791397e+08
0
0
0
0
0
4.635545e+08
4.747281e+08
4.898951e+08
5.098793e+08
5.3568e+08
-3.192486e+08
-3.272122e+08
-3.379498e+08
-3.518062e+08
-3.692533e+08
0
0
0
0
0
4.397391e+08
4.4991e+08
4.637017e+08
4.818113e+08
5.050883e+08
-5.191894e+08
-5.452768e+08
-5.815036e+08
-6.318145e+08
-7.031179e+08
0
-5.012321e+08
-5.247469e+08
-5.5706e+08
-6.009489e+08
-6.612775e+08
0
0
-4.865167e+08
-5.081561e+08
-5.376677e+08
-5.773002e+08
-6.305611e+08
0
0
0
-4.740216e+08
-4.941564e+08
-5.215494e+08
-5.580182e+08
-6.064411e+08
0
0
0
0
-4.626043e+08
-4.814864e+08
-5.070976e+08
-5.410503e+08
-5.856865e+08
0
0
0
0
0
-4.510424e+08
-4.687664e+08
-4.927761e+08
-5.24463e+08
-5.65869e+08
0
0
0
0
0
1.224971e+09
-4.386376e+08
-4.552313e+08
-4.776781e+08
-5.071988e+08
-5.455345e+08
0
0
0
0
0
1.072834e+09
1.18776e+09
-4.261225e+08
-4.416412e+08
-4.626127e+08
-4.901053e+08
-5.256283e+08
0
0
0
0
0
9.543982e+08
1.030075e+09
1.157139e+09
-4.141356e+08
-4.28664e+08
-4.482874e+08
-4.739477e+08
-5.069603e+08
0
0
0
0
0
8.628743e+08
9.156989e+08
9.980241e+08
1.137054e+09
-4.02963e+08
-4.165983e+08
-4.350052e+08
-4.59031e+08
-4.898326e+08
0
0
0
0
0
7.895363e+08
8.291349e+08
8.875599e+08
9.774655e+08
1.128961e+09
-3.926429e+08
-4.054855e+08
-4.228037e+08
-4.453669e+08
-4.74215e+08
0
0
0
0
0
7.289787e+08
7.60244e+08
8.049156e+08
8.69699e+08
9.67919e+08
-3.830866e+08
-3.952139e+08
-4.115577e+08
-4.328076e+08
-4.599061e+08
0
0
0
0
0
6.777374e+08
7.033403e+08
7.392548e+08
7.895606e+08
8.61223e+08
-3.741098e+08
-3.85564e+08
-4.010144e+08
-4.210701e+08
-4.465764e+08
0
0
0
0
0
6.333793e+08
6.548953e+08
6.847648e+08
7.257387e+08
7.820282e+08
-3.653686e+08
-3.761884e+08
-3.907808e+08
-4.09712e+08
-4.337323e+08
0
0
0
0
0
5.939858e+08
6.124239e+08
6.378437e+08
6.722629e+08
7.185069e+08
-3.563778e+08
-3.665766e+08
-3.803253e+08
-3.981457e+08
-4.207184e+08
0
0
0
0
0
5.579355e+08
5.739661e+08
5.959524e+08
6.25439e+08
6.644838e+08
-3.467622e+08
-3.56334e+08
-3.692482e+08
-3.85957e+08
-4.070858e+08
0
0
0
0
0
5.242628e+08
5.383422e+08
5.575837e+08
5.832021e+08
6.167535e+08
-3.371162e+08
-3.461005e+08
-3.582172e+08
-3.738885e+08
-3.936641e+08
0
0
0
0
0
4.933096e+08
5.058169e+08
5.228554e+08
5.454191e+08
5.747408e+08
-3.281061e+08
-3.365672e+08
-3.479688e+08
-3.627046e+08
-3.812793e+08
0
0
0
0
0
4.654524e+08
4.766952e+08
4.919661e+08
5.120996e+08
5.38109e+08
-3.201028e+08
-3.281001e+08
-3.38887e+08
-3.528106e+08
-3.703462e+08
0
0
0
0
0
4.406624e+08
4.508654e+08
4.647047e+08
4.828817e+08
5.062518e+08
-3.132076e+08
-3.208222e+08
-3.310791e+08
-3.443217e+08
-3.609746e+08
0
0
0
0
0
4.186953e+08
4.280318e+08
4.406836e+08
4.572636e+08
4.784958e+08
-4.993967e+08
-5.227066e+08
-5.547068e+08
-5.98115e+08
-6.57652e+08
0
0
-4.832648e+08
-5.045723e+08
-5.335917e+08
-5.724859e+08
-6.246177e+08
0
0
0
-4.699697e+08
-4.897221e+08
-5.165527e+08
-5.521983e+08
-5.993878e+08
0
0
0
0
-4.586012e+08
-4.771224e+08
-5.02198e+08
-5.353777e+08
-5.788854e+08
0
0
0
0
0
-4.481631e+08
-4.656203e+08
-4.892309e+08
-5.20338e+08
-5.609102e+08
0
0
0
0
0
1.191048e+09
-4.375208e+08
-4.539836e+08
-4.762331e+08
-5.054676e+08
-5.433919e+08
0
0
0
0
0
1.061914e+09
1.165357e+09
-4.260171e+08
-4.414914e+08
-4.623931e+08
-4.897821e+08
-5.251547e+08
0
0
0
0
0
9.51463e+08
1.024913e+09
1.144838e+09
-4.143492e+08
-4.288716e+08
-4.484787e+08
-4.741125e+08
-5.070844e+08
0
0
0
0
0
8.624586e+08
9.147461e+08
9.958615e+08
1.130881e+09
-4.031353e+08
-4.167718e+08
-4.351785e+08
-4.592007e+08
-4.899956e+08
0
0
0
0
0
7.896593e+08
8.291376e+08
8.873383e+08
9.767146e+08
1.126383e+09
-3.926429e+08
-4.054856e+08
-4.228037e+08
-4.453669e+08
-4.74215e+08
0
0
0
0
0
7.289787e+08
7.60244e+08
8.049156e+08
8.69699e+08
9.67919e+08
-3.829281e+08
-3.950545e+08
-4.113994e+08
-4.326524e+08
-4.59756e+08
0
0
0
0
0
6.775192e+08
7.031605e+08
7.391364e+08
7.895503e+08
8.614293e+08
-3.739313e+08
-3.853898e+08
-4.008521e+08
-4.209272e+08
-4.464615e+08
0
0
0
0
0
6.331473e+08
6.547205e+08
6.846791e+08
7.257985e+08
7.823458e+08
-3.654584e+08
-3.763049e+08
-3.909363e+08
-4.099281e+08
-4.340317e+08
0
0
0
0
0
5.941709e+08
6.126866e+08
6.382276e+08
6.728362e+08
7.193849e+08
-3.571914e+08
-3.67452e+08
-3.812959e+08
-3.992468e+08
-4.220006e+08
0
0
0
0
0
5.591343e+08
5.752796e+08
5.974372e+08
6.271854e+08
6.666284e+08
-3.486708e+08
-3.583438e+08
-3.714119e+08
-3.883355e+08
-4.097545e+08
0
0
0
0
0
5.267568e+08
5.409827e+08
5.604455e+08
5.863884e+08
6.204201e+08
-3.395185e+08
-3.486133e+08
-3.608937e+08
-3.767947e+08
-3.968747e+08
0
0
0
0
0
4.962479e+08
5.088873e+08
5.261251e+08
5.489782e+08
5.787112e+08
-3.303091e+08
-3.388647e+08
-3.504053e+08
-3.653313e+08
-3.841612e+08
0
0
0
0
0
4.679896e+08
4.79327e+08
4.94741e+08
5.150812e+08
5.413809e+08
-3.217027e+08
-3.297652e+08
-3.406475e+08
-3.547016e+08
-3.72409e+08
0
0
0
0
0
4.424126e+08
4.526734e+08
4.665999e+08
4.84902e+08
5.084464e+08
-3.140401e+08
-3.216861e+08
-3.319893e+08
-3.452953e+08
-3.620318e+08
0
0
0
0
0
4.195491e+08
4.289128e+08
4.416053e+08
4.582429e+08
4.795541e+08
-3.074566e+08
-3.147285e+08
-3.245531e+08
-3.372181e+08
-3.531418e+08
0
0
0
0
0
3.992086e+08
4.078236e+08
4.194818e+08
4.347325e+08
4.542116e+08
-4.815683e+08
-5.027078e+08
-5.314789e+08
-5.700019e+08
-6.215683e+08
0
0
0
-4.66944e+08
-4.864186e+08
-5.128419e+08
-5.478974e+08
-5.942123e+08
0
0
0
0
-4.548088e+08
-4.73003e+08
-4.976012e+08
-5.300977e+08