/*--------------------------------*- C++ -*----------------------------------*\
| =========                 |                                                 |
| \\      /  F ield         | OpenFOAM: The Open Source CFD Toolbox           |
|  \\    /   O peration     | Version:  2306                                  |
|   \\  /    A nd           | Website:  www.openfoam.com                      |
|    \\/     M anipulation  |                                                 |
\*---------------------------------------------------------------------------*/
FoamFile
{
    version     2.0;
    format      ascii;
    arch        "LSB;label=32;scalar=64";
    class       volScalarField;
    location    "0.3/phiI";
    object      phi;
}
// * * * * * * * * * * * * * * * * * * * * * * * * * * * * * * * * * * * * * //

dimensions      [1 2 -3 0 0 -1 0];

internalField   nonuniform List<scalar> 
12000
(
1.586959
1.586985
1.583938
1.587748
1.58705
1.583919
1.58778
1.581181
1.584667
1.589391
1.587128
1.5839
1.587859
1.581138
1.584652
1.589437
1.579063
1.581861
1.586183
1.591906
1.587173
1.583881
1.587957
1.581071
1.584642
1.589542
1.579007
1.581821
1.586176
1.591971
1.577438
1.579702
1.583266
1.588497
1.595317
1.587097
1.583865
1.588027
1.580989
1.584634
1.58968
1.578913
1.58176
1.586182
1.592118
1.577375
1.579649
1.583233
1.588504
1.59541
1.576186
1.578044
1.58102
1.585411
1.591635
1.599661
1.586853
1.583842
1.587979
1.580913
1.584633
1.589802
1.578793
1.581686
1.586198
1.592317
1.577265
1.57956
1.583185
1.588535
1.595612
1.576118
1.577983
1.580972
1.585388
1.591659
1.59979
1.575202
1.576763
1.579289
1.583028
1.588315
1.595626
1.60413
1.586513
1.583786
1.587757
1.580863
1.584622
1.58981
1.578675
1.58162
1.586224
1.592518
1.577121
1.579447
1.583129
1.588587
1.595895
1.575998
1.577878
1.580894
1.585359
1.591725
1.600064
1.575133
1.576698
1.579233
1.582989
1.588305
1.595673
1.604295
1.574422
1.575754
1.577945
1.581184
1.585745
1.592006
1.599724
1.608726
1.586207
1.583695
1.587432
1.580836
1.584575
1.589632
1.578593
1.581578
1.58624
1.59261
1.576975
1.579337
1.583083
1.588656
1.596204
1.575839
1.57774
1.580795
1.585329
1.591826
1.600455
1.575007
1.576581
1.579136
1.582926
1.588302
1.595784
1.604642
1.574352
1.575687
1.577884
1.581135
1.585716
1.592014
1.599793
1.608928
1.573799
1.574952
1.576882
1.579742
1.583744
1.589195
1.595785
1.603928
1.613449
1.586029
1.583604
1.587134
1.580812
1.584489
1.589337
1.578559
1.581557
1.586211
1.592499
1.576868
1.579261
1.583058
1.588712
1.596411
1.575675
1.577601
1.580701
1.585313
1.591954
1.600902
1.57484
1.576428
1.579011
1.582849
1.588309
1.595949
1.605142
1.574223
1.575565
1.577776
1.581051
1.585675
1.592045
1.59995
1.609348
1.573729
1.574883
1.576818
1.579687
1.583705
1.589181
1.59581
1.604021
1.613687
1.573298
1.574308
1.57603
1.578593
1.582169
1.586995
1.592718
1.599652
1.60824
1.618298
1.586029
1.583548
1.586961
1.58079
1.584401
1.589056
1.578547
1.581535
1.586135
1.592248
1.576821
1.579231
1.583046
1.58871
1.596391
1.57555
1.577499
1.580638
1.585314
1.592065
1.601259
1.574666
1.57627
1.578885
1.582779
1.588334
1.596152
1.60573
1.574053
1.575403
1.577633
1.580945
1.585628
1.592099
1.600179
1.609958
1.5736
1.574758
1.576703
1.579591
1.58364
1.589168
1.595876
1.604223
1.614182
1.573228
1.57424
1.575965
1.578535
1.582123
1.586968
1.592718
1.599695
1.608356
1.618574
1.572892
1.573788
1.575342
1.577665
1.580903
1.585249
1.590306
1.596314
1.603608
1.612659
1.623273
1.586207
1.583548
1.586961
1.580776
1.584346
1.588891
1.578544
1.581513
1.586052
1.591993
1.576808
1.57922
1.583028
1.588649
1.5962
1.575492
1.577454
1.580614
1.585318
1.5921
1.601355
1.57453
1.576149
1.578793
1.582735
1.588371
1.596335
1.606236
1.573873
1.575233
1.577487
1.580839
1.58559
1.592177
1.600458
1.610687
1.573427
1.574592
1.57655
1.579465
1.583559
1.589159
1.595977
1.604517
1.614903
1.573099
1.574114
1.575846
1.578431
1.582043
1.586927
1.592733
1.599794
1.608604
1.619144
1.572823
1.57372
1.575277
1.577605
1.580853
1.585213
1.590291
1.596329
1.603668
1.612799
1.623587
1.572563
1.573365
1.574782
1.576909
1.579872
1.583833
1.588377
1.593677
1.599983
1.607653
1.617185
1.62719
1.586513
1.583604
1.587134
1.580776
1.584346
1.588891
1.578542
1.5815
1.585999
1.59184
1.576808
1.579217
1.583008
1.588574
1.59598
1.575475
1.577442
1.580606
1.585307
1.59206
1.601241
1.574464
1.576093
1.578754
1.582722
1.588396
1.596418
1.606449
1.573731
1.575101
1.577375
1.580763
1.585574
1.592261
1.600713
1.611344
1.573245
1.574417
1.576392
1.579336
1.58348
1.589163
1.596109
1.604872
1.615775
1.572927
1.573945
1.575689
1.578293
1.581939
1.586878
1.592762
1.599943
1.608963
1.619978
1.572695
1.573594
1.575157
1.577497
1.580764
1.585154
1.590274
1.596371
1.603802
1.613093
1.624233
1.572496
1.573298
1.574717
1.576849
1.579819
1.583792
1.588353
1.593674
1.600012
1.60773
1.617349
1.627534
1.572298
1.573021
1.574322
1.576287
1.579022
1.582667
1.586803
1.591556
1.597109
1.603726
1.611786
1.620752
1.630102
1.586853
1.583695
1.587432
1.58079
1.584401
1.589056
1.578542
1.5815
1.585999
1.59184
1.57681
1.579215
1.582995
1.588525
1.595843
1.575474
1.577442
1.580602
1.58529
1.591995
1.601066
1.574444
1.576076
1.578743
1.582717
1.588395
1.596405
1.60641
1.57366
1.575037
1.577323
1.580731
1.585575
1.592314
1.600844
1.611672
1.573099
1.574278
1.576267
1.579238
1.583427
1.589182
1.59624
1.6052
1.616583
1.572744
1.573767
1.575523
1.57815
1.581834
1.586836
1.592809
1.600129
1.609396
1.620993
1.572524
1.573426
1.574997
1.577353
1.580646
1.585079
1.590258
1.596438
1.603998
1.613518
1.625181
1.572369
1.573173
1.574597
1.576738
1.579724
1.583722
1.588315
1.593681
1.600083
1.607898
1.617689
1.628239
1.572232
1.572955
1.574258
1.576226
1.578968
1.582624
1.586772
1.591543
1.597119
1.60377
1.611881
1.620934
1.630467
1.572083
1.572741
1.573944
1.57577
1.578314
1.581698
1.585497
1.589814
1.594786
1.600602
1.607542
1.615046
1.623405
1.632044
1.587097
1.583786
1.587757
1.580812
1.584489
1.589337
1.578544
1.581513
1.586052
1.591993
1.57681
1.579215
1.582995
1.588525
1.595843
1.575477
1.577443
1.580601
1.585277
1.59195
1.60095
1.574442
1.576076
1.578742
1.582714
1.588381
1.596354
1.606279
1.573638
1.575017
1.577307
1.580723
1.585575
1.592326
1.600859
1.611709
1.573026
1.574209
1.576207
1.579192
1.583406
1.589203
1.596321
1.60538
1.617028
1.572597
1.573625
1.575391
1.578038
1.581755
1.586811
1.592864
1.600308
1.609797
1.621955
1.572342
1.573247
1.574827
1.577201
1.580524
1.585005
1.59025
1.596528
1.604238
1.614029
1.626342
1.5722
1.573005
1.574436
1.57659
1.579597
1.58363
1.588268
1.593697
1.600188
1.608142
1.61818
1.629275
1.572107
1.572831
1.574138
1.576114
1.578869
1.582546
1.586721
1.591526
1.597149
1.603868
1.612084
1.62131
1.631215
1.572019
1.572676
1.573881
1.57571
1.57826
1.581652
1.585462
1.589793
1.594783
1.600624
1.607601
1.615156
1.6236
1.632424
1.57191
1.572513
1.573633
1.575339
1.57772
1.580882
1.584401
1.58836
1.592867
1.598066
1.604156
1.610555
1.617471
1.625174
1.633041
1.587173
1.583842
1.587979
1.580836
1.584575
1.589632
1.578547
1.581535
1.586135
1.592248
1.576808
1.579217
1.583008
1.588574
1.59598
1.575477
1.577443
1.580601
1.585277
1.59195
1.60095
1.574444
1.576078
1.578743
1.582712
1.588369
1.596315
1.606182
1.573635
1.575015
1.577306
1.580722
1.585573
1.592316
1.600821
1.611621
1.573002
1.574187
1.576187
1.579177
1.583401
1.58921
1.596345
1.605422
1.617138
1.572523
1.573553
1.575326
1.577983
1.581718
1.586805
1.592903
1.600417
1.610027
1.622515
1.572196
1.573103
1.574691
1.57708
1.580428
1.58495
1.590255
1.596618
1.604465
1.614504
1.627458
1.57202
1.572827
1.574264
1.576433
1.579465
1.583535
1.588225
1.593725
1.60032
1.608437
1.618771
1.630549
1.571941
1.572665
1.573978
1.575965
1.578738
1.582443
1.586654
1.591507
1.597197
1.604012
1.612376
1.621854
1.632316
1.571896
1.572554
1.573762
1.575598
1.57816
1.58157
1.585401
1.58976
1.594787
1.600679
1.607727
1.615385
1.624003
1.633201
1.571847
1.572449
1.57357
1.57528
1.577666
1.580835
1.584363
1.588334
1.592856
1.598074
1.604191
1.610625
1.617591
1.625379
1.633428
1.571772
1.572327
1.573375
1.57498
1.577218
1.580188
1.58347
1.587131
1.591257
1.595962
1.601397
1.606964
1.612797
1.619089
1.62608
1.587128
1.583865
1.588027
1.580863
1.584622
1.58981
1.578559
1.581557
1.586211
1.592499
1.576808
1.57922
1.583028
1.588649
1.5962
1.575474
1.577442
1.580602
1.58529
1.591995
1.601066
1.574444
1.576078
1.578743
1.582712
1.588369
1.596315
1.606182
1.573637
1.575017
1.577307
1.580722
1.585571
1.592305
1.600788
1.611543
1.572999
1.574184
1.576185
1.579176
1.5834
1.589209
1.59634
1.605398
1.617092
1.572499
1.573529
1.575304
1.577964
1.581706
1.586804
1.592918
1.600454
1.610095
1.622698
1.572123
1.57303
1.574622
1.577019
1.580381
1.584926
1.590263
1.596677
1.604603
1.614784
1.628134
1.571876
1.572684
1.574127
1.576307
1.579359
1.583462
1.588195
1.593758
1.600447
1.608713
1.619321
1.631784
1.571763
1.572489
1.573807
1.575806
1.578599
1.582336
1.586587
1.591494
1.597261
1.604186
1.612726
1.622505
1.633673
1.571733
1.572391
1.573603
1.575448
1.578026
1.58146
1.585322
1.589719
1.594796
1.600759
1.607909
1.615714
1.624584
1.634344
1.571727
1.572329
1.573453
1.575169
1.577565
1.58075
1.584297
1.58829
1.592842
1.598099
1.604269
1.610773
1.61784
1.625799
1.634219
1.571711
1.572265
1.573314
1.574921
1.577164
1.580141
1.583431
1.587101
1.59124
1.595961
1.601416
1.607008
1.612875
1.619215
1.626289
1.571664
1.572177
1.573162
1.574678
1.576792
1.579595
1.582672
1.58608
1.589888
1.594188
1.5991
1.60403
1.609053
1.614291
1.619915
1.58705
1.583881
1.587957
1.580913
1.584633
1.589802
1.578593
1.581578
1.58624
1.59261
1.576821
1.579231
1.583046
1.58871
1.596391
1.575475
1.577442
1.580606
1.585307
1.59206
1.601241
1.574442
1.576076
1.578742
1.582714
1.588381
1.596354
1.606279
1.573637
1.575017
1.577307
1.580722
1.585571
1.592305
1.600788
1.611543
1.573001
1.574186
1.576186
1.579176
1.583399
1.589207
1.59633
1.60537
1.617032
1.572496
1.573526
1.5753
1.577961
1.581703
1.586802
1.592918
1.600453
1.610084
1.622692
1.572098
1.573006
1.574599
1.576998
1.580364
1.584916
1.590266
1.596699
1.604653
1.614879
1.628388
1.571803
1.572612
1.574057
1.576243
1.579305
1.583424
1.588182
1.593782
1.600525
1.60888
1.619651
1.632549
1.571621
1.572347
1.573669
1.575677
1.578487
1.58225
1.586535
1.591489
1.597323
1.604349
1.613052
1.623115
1.634996
1.571558
1.572216
1.573433
1.575289
1.577883
1.581344
1.585238
1.589678
1.594813
1.600857
1.608126
1.616108
1.625281
1.635756
1.571566
1.572168
1.573296
1.57502
1.577429
1.580635
1.584208
1.588233
1.592825
1.598136
1.604381
1.610984
1.618197
1.626405
1.635384
1.571594
1.572147
1.573199
1.574811
1.577063
1.580054
1.58336
1.58705
1.591212
1.595965
1.601461
1.607104
1.613039
1.619477
1.626719
1.571604
1.572116
1.573103
1.57462
1.576739
1.579547
1.582632
1.586048
1.589867
1.59418
1.599108
1.604057
1.609105
1.614374
1.620045
1.57158
1.572057
1.572987
1.574423
1.576429
1.579084
1.581982
1.585172
1.588711
1.592673
1.597154
1.60158
1.605989
1.610445
1.615053
1.586985
1.5839
1.587859
1.580989
1.584634
1.58968
1.578675
1.58162
1.586224
1.592518
1.576868
1.579261
1.583058
1.588712
1.596411
1.575492
1.577454
1.580614
1.585318
1.5921
1.601355
1.574444
1.576076
1.578743
1.582717
1.588395
1.596405
1.60641
1.573635
1.575015
1.577306
1.580722
1.585573
1.592316
1.600821
1.611621
1.573001
1.574186
1.576186
1.579176
1.583399
1.589207
1.59633
1.60537
1.617032
1.572498
1.573528
1.575302
1.577962
1.581703
1.586801
1.592915
1.600445
1.610061
1.622651
1.572096
1.573003
1.574595
1.576994
1.58036
1.584913
1.590265
1.596701
1.604657
1.614881
1.628422
1.571779
1.572587
1.574033
1.57622
1.579285
1.583409
1.588175
1.593789
1.600554
1.608943
1.619773
1.632859
1.571549
1.572275
1.573599
1.575611
1.578428
1.582204
1.586507
1.591488
1.597361
1.604448
1.613248
1.623483
1.635827
1.571418
1.572076
1.573297
1.57516
1.577767
1.581249
1.585172
1.589648
1.594833
1.600949
1.608326
1.616471
1.625933
1.637137
1.571396
1.571997
1.573128
1.574861
1.577285
1.580514
1.584114
1.588174
1.592811
1.598183
1.604515
1.611235
1.618622
1.627132
1.636823
1.571437
1.571989
1.573044
1.574663
1.576927
1.579937
1.583265
1.586982
1.591178
1.595972
1.601526
1.607242
1.613272
1.619852
1.627337
1.571489
1.572001
1.572989
1.574511
1.576638
1.579459
1.582558
1.585991
1.589831
1.594169
1.599129
1.604118
1.609214
1.614549
1.620313
1.571521
1.571999
1.572929
1.574366
1.576376
1.579037
1.581942
1.585139
1.588686
1.59266
1.597154
1.601595
1.606023
1.610501
1.615139
1.571516
1.571963
1.572844
1.574208
1.576117
1.578642
1.581383
1.584381
1.587688
1.591363
1.595486
1.5995
1.603426
1.607294
1.611153
1.586959
1.583919
1.58778
1.581071
1.584642
1.589542
1.578793
1.581686
1.586198
1.592317
1.576975
1.579337
1.583083
1.588656
1.596204
1.57555
1.577499
1.580638
1.585314
1.592065
1.601259
1.574464
1.576093
1.578754
1.582722
1.588396
1.596418
1.606449
1.573638
1.575017
1.577307
1.580723
1.585575
1.592326
1.600859
1.611709
1.572999
1.574184
1.576185
1.579176
1.5834
1.589209
1.59634
1.605398
1.617092
1.572498
1.573528
1.575302
1.577962
1.581703
1.586801
1.592915
1.600445
1.610061
1.622651
1.572098
1.573005
1.574596
1.576995
1.58036
1.584912
1.590263
1.596698
1.60465
1.614863
1.628398
1.571777
1.572585
1.574029
1.576215
1.57928
1.583404
1.588171
1.593788
1.600558
1.608952
1.619787
1.632924
1.571526
1.572252
1.573575
1.575588
1.578406
1.582186
1.586494
1.591484
1.597373
1.604484
1.613324
1.623625
1.636178
1.571348
1.572006
1.573227
1.575093
1.577706
1.581199
1.585135
1.58963
1.594844
1.601002
1.608445
1.616691
1.62633
1.638011
1.571259
1.57186
1.572993
1.574732
1.577168
1.580414
1.584037
1.588126
1.592802
1.598227
1.604636
1.611464
1.619014
1.627813
1.638233
1.57127
1.571822
1.572879
1.574506
1.576783
1.579812
1.583164
1.58691
1.591143
1.595985
1.601603
1.607403
1.613548
1.620298
1.628079
1.571335
1.571847
1.572837
1.574365
1.576503
1.579341
1.582459
1.585915
1.589783
1.594156
1.599162
1.604204
1.60937
1.614797
1.620698
1.571409
1.571886
1.572818
1.574259
1.576276
1.578949
1.581866
1.585078
1.588644
1.592638
1.59716
1.601631
1.606095
1.61062
1.615318
1.571459
1.571905
1.572787
1.574153
1.576065
1.578596
1.581343
1.584347
1.587662
1.591347
1.59548
1.599506
1.603447
1.607332
1.611212
1.57147
1.571889
1.572727
1.574028
1.575849
1.578257
1.580859
1.58369
1.586792
1.59022
1.594038
1.597711
1.601246
1.604655
1.607956
1.583938
1.587748
1.581138
1.584652
1.589437
1.578913
1.58176
1.586182
1.592118
1.577121
1.579447
1.583129
1.588587
1.595895
1.575675
1.577601
1.580701
1.585313
1.591954
1.600902
1.57453
1.576149
1.578793
1.582735
1.588371
1.596335
1.606236
1.57366
1.575037
1.577323
1.580731
1.585575
1.592314
1.600844
1.611672
1.573002
1.574187
1.576187
1.579177
1.583401
1.58921
1.596345
1.605422
1.617138
1.572496
1.573526
1.5753
1.577961
1.581703
1.586802
1.592918
1.600453
1.610084
1.622692
1.572098
1.573005
1.574596
1.576995
1.58036
1.584912
1.590263
1.596698
1.60465
1.614863
1.628398
1.57178
1.572587
1.574031
1.576216
1.57928
1.583403
1.588169
1.593785
1.600554
1.608947
1.619774
1.632913
1.571524
1.572249
1.573572
1.575583
1.578401
1.58218
1.586488
1.591479
1.597372
1.604489
1.613338
1.62365
1.636264
1.571326
1.571983
1.573204
1.575069
1.577683
1.581178
1.585118
1.58962
1.594843
1.601019
1.608489
1.616777
1.626488
1.638389
1.571191
1.57179
1.572924
1.574666
1.577106
1.580361
1.583994
1.588098
1.592794
1.59825
1.604705
1.611599
1.61925
1.628228
1.639129
1.571136
1.571688
1.572746
1.574378
1.576665
1.57971
1.583081
1.58685
1.591114
1.595997
1.601671
1.607547
1.613798
1.620709
1.628774
1.571172
1.571683
1.572675
1.57421
1.576359
1.579215
1.582354
1.585835
1.589732
1.594145
1.599201
1.604305
1.609552
1.615089
1.621154
1.571258
1.571735
1.572669
1.574115
1.576142
1.57883
1.581765
1.584997
1.588587
1.592611
1.597169
1.601682
1.606197
1.610788
1.615574
1.571349
1.571795
1.572678
1.574048
1.575966
1.578508
1.581266
1.584284
1.587614
1.591317
1.595474
1.599524
1.603493
1.607412
1.611335
1.571415
1.571833
1.572671
1.573974
1.575798
1.578211
1.580819
1.583655
1.586765
1.590201
1.594029
1.597712
1.601257
1.604679
1.607996
1.571441
1.571834
1.572632
1.573877
1.575619
1.577921
1.580398
1.58308
1.586004
1.589215
1.59277
1.596155
1.599368
1.602407
1.605277
1.581181
1.584667
1.589391
1.579007
1.581821
1.586176
1.591971
1.577265
1.57956
1.583185
1.588535
1.595612
1.575839
1.57774
1.580795
1.585329
1.591826
1.600455
1.574666
1.57627
1.578885
1.582779
1.588334
1.596152
1.60573
1.573731
1.575101
1.577375
1.580763
1.585574
1.592261
1.600713
1.611344
1.573026
1.574209
1.576207
1.579192
1.583406
1.589203
1.596321
1.60538
1.617028
1.572499
1.573529
1.575304
1.577964
1.581706
1.586804
1.592918
1.600454
1.610095
1.622698
1.572096
1.573003
1.574595
1.576994
1.58036
1.584913
1.590265
1.596701
1.604657
1.614881
1.628422
1.57178
1.572587
1.574031
1.576216
1.57928
1.583403
1.588169
1.593785
1.600554
1.608947
1.619774
1.632913
1.571527
1.572252
1.573574
1.575584
1.5784
1.582178
1.586486
1.591476
1.597369
1.604486
1.613334
1.623641
1.636264
1.571325
1.571981
1.573201
1.575065
1.577678
1.581171
1.585111
1.589612
1.594837
1.601018
1.608496
1.616795
1.626519
1.63849
1.571171
1.571768
1.572902
1.574643
1.577083
1.580339
1.583974
1.588083
1.592785
1.598252
1.604726
1.611649
1.619344
1.628396
1.63952
1.57107
1.57162
1.572679
1.574312
1.576603
1.579655
1.583034
1.586815
1.591094
1.595999
1.601706
1.607627
1.613944
1.620956
1.629199
1.571042
1.571552
1.572546
1.574084
1.576242
1.579111
1.582266
1.585767
1.58969
1.594134
1.599233
1.604392
1.609712
1.615352
1.621574
1.571098
1.571574
1.572511
1.573963
1.575999
1.578703
1.581657
1.58491
1.588526
1.592582
1.597181
1.601742
1.606315
1.610983
1.615874
1.571202
1.571647
1.572532
1.573907
1.575834
1.578389
1.581163
1.5842
1.58755
1.591279
1.595466
1.59955
1.603558
1.607524
1.611508
1.571307
1.571725
1.572564
1.573871
1.575701
1.578124
1.580742
1.58359
1.586714
1.590166
1.594013
1.597716
1.601285
1.604732
1.60808
1.571387
1.571779
1.572577
1.573824
1.575569
1.577876
1.580358
1.583045
1.585975
1.589194
1.592757
1.596151
1.599372
1.602422
1.605303
1.571426
1.571796
1.572557
1.573749
1.57542
1.577627
1.579991
1.582539
1.585304
1.588325
1.59165
1.594788
1.597731
1.600469
1.602995
1.579063
1.581861
1.586183
1.591906
1.577375
1.579649
1.583233
1.588504
1.59541
1.575998
1.577878
1.580894
1.585359
1.591725
1.600064
1.57484
1.576428
1.579011
1.582849
1.588309
1.595949
1.605142
1.573873
1.575233
1.577487
1.580839
1.58559
1.592177
1.600458
1.610687
1.573099
1.574278
1.576267
1.579238
1.583427
1.589182
1.59624
1.6052
1.616583
1.572523
1.573553
1.575326
1.577983
1.581718
1.586805
1.592903
1.600417
1.610027
1.622515
1.572098
1.573006
1.574599
1.576998
1.580364
1.584916
1.590266
1.596699
1.604653
1.614879
1.628388
1.571777
1.572585
1.574029
1.576215
1.57928
1.583404
1.588171
1.593788
1.600558
1.608952
1.619787
1.632924
1.571527
1.572252
1.573574
1.575584
1.5784
1.582178
1.586486
1.591476
1.597369
1.604486
1.613334
1.623641
1.636264
1.571328
1.571983
1.573203
1.575066
1.577678
1.58117
1.585108
1.589609
1.594833
1.601013
1.608492
1.616791
1.626513
1.638496
1.57117
1.571767
1.572899
1.574639
1.577078
1.580332
1.583967
1.588074
1.592777
1.598246
1.604725
1.611656
1.619364
1.628432
1.639629
1.57105
1.5716
1.572657
1.57429
1.576581
1.579633
1.583013
1.586797
1.59108
1.595993
1.601712
1.607652
1.613998
1.621055
1.629371
1.570977
1.571487
1.57248
1.574019
1.57618
1.579056
1.582218
1.585727
1.589662
1.594123
1.599246
1.604437
1.609802
1.615506
1.621827
1.570971
1.571446
1.572384
1.57384
1.575883
1.578599
1.581567
1.584837
1.588473
1.592555
1.597189
1.601791
1.606417
1.611155
1.616144
1.571046
1.571489
1.572377
1.573758
1.575694
1.578262
1.581053
1.584109
1.587482
1.591237
1.595458
1.599581
1.603633
1.607654
1.61171
1.571164
1.57158
1.572421
1.573733
1.575572
1.578006
1.580638
1.583503
1.586645
1.590119
1.593992
1.597724
1.601323
1.604807
1.608197
1.571282
1.571674
1.572473
1.573723
1.575474
1.57779
1.580281
1.582979
1.585922
1.589154
1.592735
1.596145
1.599386
1.602456
1.60536
1.571374
1.571743
1.572504
1.573698
1.575372
1.577583
1.579951
1.582504
1.585275
1.588303
1.591635
1.59478
1.59773
1.600477
1.603011
1.571422
1.571773
1.5725
1.573644
1.575249
1.577369
1.57963
1.582057
1.58468
1.587532
1.590655
1.593577
1.59629
1.598778
1.601025
1.577438
1.579702
1.583266
1.588497
1.595317
1.576118
1.577983
1.580972
1.585388
1.591659
1.59979
1.575007
1.576581
1.579136
1.582926
1.588302
1.595784
1.604642
1.574053
1.575403
1.577633
1.580945
1.585628
1.592099
1.600179
1.609958
1.573245
1.574417
1.576392
1.579336
1.58348
1.589163
1.596109
1.604872
1.615775
1.572597
1.573625
1.575391
1.578038
1.581755
1.586811
1.592864
1.600308
1.609797
1.621955
1.572123
1.57303
1.574622
1.577019
1.580381
1.584926
1.590263
1.596677
1.604603
1.614784
1.628134
1.571779
1.572587
1.574033
1.57622
1.579285
1.583409
1.588175
1.593789
1.600554
1.608943
1.619773
1.632859
1.571524
1.572249
1.573572
1.575583
1.578401
1.58218
1.586488
1.591479
1.597372
1.604489
1.613338
1.62365
1.636265
1.571328
1.571983
1.573203
1.575066
1.577678
1.58117
1.585108
1.589609
1.594833
1.601013
1.608492
1.616791
1.626513
1.638496
1.571174
1.57177
1.572901
1.57464
1.577078
1.580331
1.583964
1.588071
1.592773
1.598241
1.60472
1.611652
1.619361
1.628428
1.639638
1.57105
1.571599
1.572655
1.574287
1.576576
1.579627
1.583006
1.586788
1.591071
1.595983
1.601705
1.607651
1.614007
1.621077
1.62941
1.570958
1.571467
1.57246
1.573998
1.576158
1.579034
1.582197
1.585708
1.589645
1.594111
1.599241
1.604444
1.609829
1.615563
1.621928
1.570909
1.571382
1.57232
1.573777
1.575823
1.578544
1.581517
1.584795
1.58844
1.592535
1.597186
1.601811
1.606468
1.611249
1.616302
1.570922
1.571364
1.572253
1.573637
1.57558
1.578159
1.580962
1.584032
1.587423
1.5912
1.595448
1.599603
1.603694
1.607764
1.611887
1.571011
1.571427
1.572269
1.573586
1.575433
1.577881
1.580528
1.583409
1.586571
1.590069
1.59397
1.597732
1.601367
1.604891
1.608333
1.571141
1.571532
1.572333
1.573587
1.575346
1.577674
1.580177
1.58289
1.585849
1.589101
1.592704
1.596139
1.599404
1.602502
1.605439
1.571271
1.571639
1.572402
1.573599
1.575278
1.577498
1.579875
1.582437
1.58522
1.58826
1.591607
1.594767
1.597733
1.600496
1.603048
1.57137
1.571721
1.572449
1.573594
1.575201
1.577325
1.579591
1.582022
1.58465
1.587509
1.590638
1.593567
1.596286
1.59878
1.601034
1.571426
1.57176
1.572459
1.573558
1.575102
1.577141
1.579309
1.581627
1.584121
1.586821
1.589765
1.592499
1.595012
1.597288
1.599305
1.576186
1.578044
1.58102
1.585411
1.591635
1.599661
1.575133
1.576698
1.579233
1.582989
1.588305
1.595673
1.604295
1.574223
1.575565
1.577776
1.581051
1.585675
1.592045
1.59995
1.609348
1.573427
1.574592
1.57655
1.579465
1.583559
1.589159
1.595977
1.604517
1.614903
1.572744
1.573767
1.575523
1.57815
1.581834
1.586836
1.592809
1.600129
1.609396
1.620993
1.572196
1.573103
1.574691
1.57708
1.580428
1.58495
1.590255
1.596618
1.604465
1.614504
1.627458
1.571803
1.572612
1.574057
1.576243
1.579305
1.583424
1.588182
1.593782
1.600525
1.60888
1.619651
1.632549
1.571526
1.572252
1.573575
1.575588
1.578406
1.582186
1.586494
1.591484
1.597373
1.604484
1.613324
1.623625
1.636178
1.571325
1.571981
1.573201
1.575065
1.577678
1.581171
1.585111
1.589612
1.594837
1.601018
1.608496
1.616795
1.626519
1.63849
1.571174
1.57177
1.572901
1.57464
1.577078
1.580331
1.583964
1.588071
1.592773
1.598241
1.60472
1.611652
1.619361
1.628428
1.639638
1.571054
1.571602
1.572658
1.574288
1.576577
1.579626
1.583003
1.586784
1.591066
1.595977
1.601699
1.607646
1.614003
1.621074
1.629407
1.570959
1.571467
1.572459
1.573996
1.576154
1.579028
1.582189
1.585699
1.589634
1.5941
1.599231
1.604437
1.609828
1.615572
1.621951
1.570892
1.571363
1.572301
1.573757
1.575802
1.578522
1.581496
1.584775
1.588421
1.592519
1.597175
1.601808
1.606477
1.611279
1.616361
1.570862
1.571303
1.572191
1.573576
1.575521
1.578104
1.580912
1.583989
1.587387
1.591174
1.595435
1.599607
1.60372
1.60782
1.611985
1.570891
1.571305
1.572148
1.573468
1.575322
1.577779
1.580436
1.583331
1.586508
1.590024
1.593947
1.597735
1.6014
1.60496
1.608448
1.570993
1.571382
1.572185
1.573443
1.57521
1.57755
1.580067
1.582795
1.585772
1.589044
1.592671
1.596131
1.599425
1.602555
1.605528
1.571133
1.571501
1.572265
1.573466
1.575152
1.577383
1.579772
1.582348
1.585145
1.588202
1.591569
1.59475
1.597737
1.600522
1.603098
1.571269
1.571619
1.572349
1.573496
1.575109
1.577241
1.579515
1.581956
1.584594
1.587464
1.590606
1.593548
1.59628
1.598788
1.601056
1.571375
1.571709
1.572409
1.573509
1.575055
1.577098
1.57927
1.581593
1.584091
1.586797
1.589746
1.592487
1.595005
1.597286
1.599309
1.571433
1.571756
1.57243
1.57349
1.574976
1.576941
1.579022
1.581241
1.583618
1.586182
1.588964
1.591532
1.593872
1.595965
1.59779
1.575202
1.576763
1.579289
1.583028
1.588315
1.595626
1.60413
1.574352
1.575687
1.577884
1.581135
1.585716
1.592014
1.599793
1.608928
1.5736
1.574758
1.576703
1.579591
1.58364
1.589168
1.595876
1.604223
1.614182
1.572927
1.573945
1.575689
1.578293
1.581939
1.586878
1.592762
1.599943
1.608963
1.619978
1.572342
1.573247
1.574827
1.577201
1.580524
1.585005
1.59025
1.596528
1.604238
1.614029
1.626342
1.571876
1.572684
1.574127
1.576307
1.579359
1.583462
1.588195
1.593758
1.600447
1.608713
1.619321
1.631784
1.571549
1.572275
1.573599
1.575611
1.578428
1.582204
1.586507
1.591488
1.597361
1.604448
1.613248
1.623483
1.635827
1.571326
1.571983
1.573204
1.575069
1.577683
1.581178
1.585118
1.58962
1.594843
1.601019
1.608489
1.616777
1.626488
1.638389
1.57117
1.571767
1.572899
1.574639
1.577078
1.580332
1.583967
1.588074
1.592777
1.598246
1.604725
1.611656
1.619364
1.628432
1.639629
1.571054
1.571602
1.572658
1.574288
1.576577
1.579626
1.583003
1.586784
1.591066
1.595977
1.601699
1.607646
1.614003
1.621074
1.629407
1.570963
1.57147
1.572462
1.573998
1.576155
1.579028
1.582187
1.585695
1.589629
1.594094
1.599224
1.60443
1.609822
1.615568
1.621949
1.570893
1.571364
1.5723
1.573755
1.575799
1.578517
1.581489
1.584766
1.588411
1.592507
1.597163
1.601797
1.60647
1.611278
1.61637
1.570846
1.571286
1.572172
1.573557
1.575501
1.578084
1.580892
1.583968
1.587367
1.591155
1.595419
1.599597
1.603718
1.607831
1.612015
1.570832
1.571246
1.572088
1.573408
1.575264
1.577726
1.580387
1.583286
1.58647
1.589993
1.593927
1.597728
1.601408
1.60499
1.608506
1.570875
1.571264
1.572067
1.573327
1.5751
1.57745
1.579977
1.582716
1.585705
1.588994
1.59264
1.596121
1.599437
1.602595
1.605601
1.570988
1.571355
1.57212
1.573325
1.575018
1.577261
1.579663
1.582252
1.585065
1.58814
1.591528
1.59473
1.59774
1.60055
1.603155
1.571134
1.571484
1.572215
1.573366
1.574986
1.577128
1.579414
1.581867
1.584518
1.587403
1.590563
1.593522
1.596272
1.598799
1.601086
1.571276
1.57161
1.572311
1.573414
1.574965
1.577015
1.579195
1.581526
1.584034
1.58675
1.589711
1.592463
1.594993
1.597285
1.599319
1.571383
1.571707
1.57238
1.573442
1.574931
1.576899
1.578984
1.581207
1.583589
1.586157
1.588944
1.591518
1.593863
1.59596
1.597789
1.571445
1.571757
1.57241
1.573434
1.574871
1.576765
1.578767
1.580893
1.583164
1.585604
1.58824
1.59066
1.592848
1.594783
1.596443
1.574422
1.575754
1.577945
1.581184
1.585745
1.592006
1.599724
1.608726
1.573729
1.574883
1.576818
1.579687
1.583705
1.589181
1.59581
1.604021
1.613687
1.573099
1.574114
1.575846
1.578431
1.582043
1.586927
1.592733
1.599794
1.608604
1.619144
1.572524
1.573426
1.574997
1.577353
1.580646
1.585079
1.590258
1.596438
1.603998
1.613518
1.625181
1.57202
1.572827
1.574264
1.576433
1.579465
1.583535
1.588225
1.593725
1.60032
1.608437
1.618771
1.630549
1.571621
1.572347
1.573669
1.575677
1.578487
1.58225
1.586535
1.591489
1.597323
1.604349
1.613052
1.623115
1.634996
1.571348
1.572006
1.573227
1.575093
1.577706
1.581199
1.585135
1.58963
1.594844
1.601002
1.608445
1.616691
1.62633
1.638011
1.571171
1.571768
1.572902
1.574643
1.577083
1.580339
1.583974
1.588083
1.592785
1.598252
1.604726
1.611649
1.619344
1.628396
1.63952
1.57105
1.571599
1.572655
1.574287
1.576576
1.579627
1.583006
1.586788
1.591071
1.595983
1.601705
1.607651
1.614007
1.621077
1.62941
1.570963
1.57147
1.572462
1.573998
1.576155
1.579028
1.582187
1.585695
1.589629
1.594094
1.599224
1.60443
1.609822
1.615568
1.621949
1.570897
1.571367
1.572303
1.573758
1.5758
1.578517
1.581488
1.584763
1.588407
1.592501
1.597156
1.601789
1.606462
1.611271
1.616366
1.570847
1.571287
1.572172
1.573556
1.575499
1.57808
1.580885
1.58396
1.587357
1.591144
1.595407
1.599584
1.603706
1.607823
1.612014
1.570817
1.571229
1.572071
1.57339
1.575245
1.577707
1.580367
1.583266
1.58645
1.589974
1.59391
1.597713
1.601399
1.604988
1.608517
1.570819
1.571206
1.572009
1.57327
1.575045
1.577398
1.579929
1.582671
1.585666
1.588961
1.592615
1.596106
1.599434
1.602606
1.605632
1.570873
1.571239
1.572005
1.573213
1.574911
1.577162
1.579574
1.582173
1.584997
1.588086
1.59149
1.59471
1.597738
1.600569
1.603198
1.570992
1.571341
1.572073
1.573229
1.574855
1.577008
1.579305
1.581772
1.584436
1.587337
1.590515
1.593494
1.596263
1.598809
1.601118
1.571144
1.571477
1.57218
1.573287
1.574844
1.576904
1.579095
1.581437
1.583958
1.586687
1.589664
1.592431
1.594976
1.597284
1.599333
1.571286
1.571609
1.572284
1.573348
1.574843
1.576817
1.57891
1.581141
1.583531
1.586109
1.588907
1.591491
1.593845
1.595952
1.59779
1.571397
1.571708
1.572362
1.573387
1.574827
1.576724
1.578729
1.580859
1.583135
1.585579
1.58822
1.590644
1.592837
1.594776
1.596439
1.571462
1.571762
1.572395
1.57339
1.57478
1.576612
1.578539
1.58058
1.582752
1.585079
1.587584
1.58987
1.591923
1.593721
1.59524
1.573799
1.574952
1.576882
1.579742
1.583744
1.589195
1.595785
1.603928
1.613449
1.573228
1.57424
1.575965
1.578535
1.582123
1.586968
1.592718
1.599695
1.608356
1.618574
1.572695
1.573594
1.575157
1.577497
1.580764
1.585154
1.590274
1.596371
1.603802
1.613093
1.624233
1.5722
1.573005
1.574436
1.57659
1.579597
1.58363
1.588268
1.593697
1.600188
1.608142
1.61818
1.629275
1.571763
1.572489
1.573807
1.575806
1.578599
1.582336
1.586587
1.591494
1.597261
1.604186
1.612726
1.622505
1.633673
1.571418
1.572076
1.573297
1.57516
1.577767
1.581249
1.585172
1.589648
1.594833
1.600949
1.608326