/*--------------------------------*- C++ -*----------------------------------*\
| =========                 |                                                 |
| \\      /  F ield         | OpenFOAM: The Open Source CFD Toolbox           |
|  \\    /   O peration     | Version:  2306                                  |
|   \\  /    A nd           | Website:  www.openfoam.com                      |
|    \\/     M anipulation  |                                                 |
\*---------------------------------------------------------------------------*/
FoamFile
{
    version     2.0;
    format      ascii;
    arch        "LSB;label=32;scalar=64";
    class       volScalarField;
    location    "0.3/phiI";
    object      T;
}
// * * * * * * * * * * * * * * * * * * * * * * * * * * * * * * * * * * * * * //

dimensions      [0 0 0 1 0 0 0];

internalField   nonuniform List<scalar> 
12000
(
1164.663
1164.514
1166.45
1164.723
1164.167
1166.437
1164.574
1168.09
1166.502
1164.771
1163.517
1166.405
1164.228
1168.113
1166.488
1164.622
1169.611
1168.133
1166.541
1164.805
1162.403
1166.344
1163.581
1168.166
1166.456
1164.277
1169.645
1168.157
1166.528
1164.657
1171.069
1169.648
1168.166
1166.569
1164.826
1160.728
1166.237
1162.476
1168.261
1166.394
1163.632
1169.721
1168.209
1166.495
1164.312
1171.105
1169.682
1168.189
1166.555
1164.678
1172.482
1171.1
1169.675
1168.187
1166.584
1164.832
1158.813
1166.058
1160.823
1168.414
1166.285
1162.536
1169.858
1168.302
1166.432
1163.67
1171.186
1169.758
1168.241
1166.522
1164.334
1172.518
1171.136
1169.708
1168.21
1166.57
1164.684
1173.858
1172.51
1171.122
1169.69
1168.196
1166.585
1164.837
1157.066
1165.762
1158.937
1168.621
1166.102
1160.905
1170.084
1168.452
1166.32
1162.582
1171.332
1169.894
1168.333
1166.458
1163.694
1172.598
1171.217
1169.784
1168.261
1166.536
1164.34
1173.892
1172.545
1171.158
1169.724
1168.219
1166.571
1164.689
1175.194
1173.881
1172.527
1171.133
1169.695
1168.194
1166.587
1164.843
1155.774
1165.415
1157.216
1168.771
1165.806
1159.045
1170.397
1168.65
1166.133
1160.971
1171.573
1170.115
1168.478
1166.343
1162.614
1172.744
1171.363
1169.918
1168.351
1166.47
1163.702
1173.97
1172.625
1171.238
1169.799
1168.27
1166.537
1164.346
1175.228
1173.916
1172.563
1171.169
1169.728
1168.216
1166.572
1164.694
1176.491
1175.215
1173.896
1172.535
1171.134
1169.689
1168.191
1166.587
1164.848
1155.095
1165.116
1155.942
1168.845
1165.463
1157.35
1170.679
1168.796
1165.838
1159.139
1171.91
1170.421
1168.669
1166.152
1161.023
1172.981
1171.599
1170.136
1168.493
1166.353
1162.63
1174.111
1172.77
1171.382
1169.932
1168.358
1166.469
1163.71
1175.303
1173.994
1172.643
1171.249
1169.802
1168.266
1166.537
1164.352
1176.524
1175.248
1173.93
1172.571
1171.17
1169.722
1168.213
1166.572
1164.699
1177.747
1176.51
1175.227
1173.901
1172.533
1171.125
1169.683
1168.188
1166.588
1164.852
1155.095
1164.946
1155.272
1168.867
1165.169
1156.094
1170.883
1168.868
1165.498
1157.467
1172.225
1170.696
1168.809
1165.856
1159.216
1173.314
1171.929
1170.433
1168.675
1166.157
1161.054
1174.34
1173.004
1171.616
1170.145
1168.494
1166.349
1162.643
1175.439
1174.133
1172.786
1171.392
1169.933
1168.352
1166.468
1163.718
1176.596
1175.324
1174.008
1172.65
1171.249
1169.795
1168.262
1166.537
1164.358
1177.778
1176.542
1175.26
1173.935
1172.568
1171.16
1169.716
1168.21
1166.573
1164.705
1178.961
1177.764
1176.52
1175.23
1173.896
1172.522
1171.117
1169.677
1168.185
1166.589
1164.857
1155.774
1164.946
1155.272
1168.87
1165.001
1155.433
1171.008
1168.89
1165.208
1156.229
1172.464
1170.896
1168.879
1165.52
1157.568
1173.63
1172.238
1170.702
1168.81
1165.861
1159.268
1174.662
1173.33
1171.937
1170.434
1168.669
1166.149
1161.08
1175.66
1174.36
1173.017
1171.621
1170.142
1168.485
1166.345
1162.657
1176.727
1175.459
1174.147
1172.792
1171.39
1169.924
1168.347
1166.467
1163.726
1177.849
1176.615
1175.335
1174.012
1172.647
1171.239
1169.788
1168.258
1166.537
1164.364
1178.991
1177.795
1176.552
1175.263
1173.931
1172.557
1171.152
1169.71
1168.207
1166.573
1164.71
1180.131
1178.976
1177.772
1176.521
1175.223
1173.883
1172.512
1171.109
1169.671
1168.182
1166.589
1164.868
1157.066
1165.116
1155.942
1168.87
1165.001
1155.433
1171.066
1168.892
1165.042
1155.576
1172.62
1171.02
1168.901
1165.233
1156.346
1173.875
1172.474
1170.899
1168.878
1165.528
1157.64
1174.969
1173.641
1172.24
1170.697
1168.799
1165.852
1159.313
1175.968
1174.675
1173.336
1171.935
1170.423
1168.652
1166.142
1161.107
1176.94
1175.677
1174.371
1173.02
1171.615
1170.129
1168.476
1166.342
1162.671
1177.976
1176.745
1175.469
1174.15
1172.787
1171.378
1169.916
1168.341
1166.466
1163.735
1179.06
1177.865
1176.624
1175.338
1174.007
1172.635
1171.23
1169.781
1168.254
1166.536
1164.37
1180.161
1179.006
1177.803
1176.553
1175.257
1173.917
1172.547
1171.143
1169.703
1168.203
1166.573
1164.721
1181.258
1180.145
1178.982
1177.771
1176.513
1175.209
1173.872
1172.502
1171.1
1169.665
1168.178
1166.594
1164.884
1158.813
1165.415
1157.216
1168.867
1165.169
1156.094
1171.066
1168.892
1165.042
1155.576
1172.695
1171.077
1168.903
1165.071
1155.703
1174.037
1172.628
1171.021
1168.899
1165.245
1156.433
1175.21
1173.883
1172.473
1170.89
1168.864
1165.522
1157.702
1176.265
1174.978
1173.641
1172.232
1170.68
1168.777
1165.845
1159.357
1177.237
1175.98
1174.68
1173.332
1171.922
1170.403
1168.637
1166.135
1161.134
1178.182
1176.956
1175.685
1174.371
1173.012
1171.6
1170.117
1168.467
1166.338
1162.686
1179.183
1177.992
1176.754
1175.471
1174.144
1172.774
1171.368
1169.908
1168.335
1166.464
1163.744
1180.228
1179.075
1177.873
1176.625
1175.331
1173.993
1172.624
1171.221
1169.774
1168.25
1166.536
1164.382
1181.288
1180.174
1179.013
1177.803
1176.545
1175.242
1173.906
1172.536
1171.135
1169.697
1168.199
1166.578
1164.738
1182.342
1181.271
1180.15
1178.981
1177.762
1176.497
1175.197
1173.86
1172.491
1171.092
1169.658
1168.179
1166.605
1164.906
1160.728
1165.762
1158.937
1168.845
1165.463
1157.35
1171.008
1168.89
1165.208
1156.229
1172.695
1171.077
1168.903
1165.071
1155.703
1174.117
1172.702
1171.078
1168.902
1165.085
1155.797
1175.37
1174.043
1172.625
1171.01
1168.886
1165.242
1156.507
1176.498
1175.216
1173.88
1172.462
1170.87
1168.841
1165.516
1157.762
1177.523
1176.272
1174.978
1173.632
1172.213
1170.654
1168.758
1165.837
1159.4
1178.468
1177.248
1175.983
1174.674
1173.318
1171.9
1170.385
1168.623
1166.127
1161.16
1179.383
1178.196
1176.962
1175.684
1174.362
1172.995
1171.587
1170.105
1168.458
1166.334
1162.701
1180.348
1179.197
1177.999
1176.754
1175.463
1174.129
1172.762
1171.357
1169.899
1168.329
1166.462
1163.759
1181.353
1180.241
1179.081
1177.873
1176.617
1175.316
1173.981
1172.613
1171.211
1169.767
1168.245
1166.54
1164.401
1182.371
1181.3
1180.18
1179.011
1177.793
1176.529
1175.229
1173.894
1172.526
1171.126
1169.689
1168.2
1166.589
1164.76
1183.382
1182.353
1181.275
1180.148
1178.971
1177.746
1176.484
1175.184
1173.849
1172.481
1171.082
1169.656
1168.185
1166.62
1164.933
1162.403
1166.058
1160.823
1168.771
1165.806
1159.045
1170.883
1168.868
1165.498
1157.467
1172.62
1171.02
1168.901
1165.233
1156.346
1174.117
1172.702
1171.078
1168.902
1165.085
1155.797
1175.449
1174.122
1172.699
1171.067
1168.888
1165.084
1155.878
1176.654
1175.374
1174.039
1172.612
1170.989
1168.861
1165.239
1156.58
1177.749
1176.503
1175.212
1173.868
1172.439
1170.841
1168.82
1165.51
1157.822
1178.745
1177.53
1176.271
1174.967
1173.612
1172.186
1170.632
1168.739
1165.829
1159.443
1179.66
1178.477
1177.249
1175.977
1174.659
1173.295
1171.881
1170.367
1168.608
1166.12
1161.187
1180.543
1179.395
1178.201
1176.96
1175.673
1174.344
1172.98
1171.573
1170.093
1168.448
1166.33
1162.722
1181.471
1180.361
1179.203
1177.998
1176.744
1175.447
1174.115
1172.75
1171.347
1169.89
1168.323
1166.466
1163.781
1182.435
1181.365
1180.247
1179.079
1177.863
1176.601
1175.303
1173.969
1172.602
1171.202
1169.759
1168.245
1166.55
1164.425
1183.41
1182.382
1181.305
1180.178
1179.001
1177.777
1176.516
1175.217
1173.882
1172.515
1171.116
1169.686
1168.205
1166.604
1164.788
1184.378
1183.392
1182.357
1181.272
1180.138
1178.955
1177.732
1176.471
1175.171
1173.837
1172.47
1171.077
1169.657
1168.195
1166.641
1163.517
1166.237
1162.476
1168.621
1166.102
1160.905
1170.679
1168.796
1165.838
1159.139
1172.464
1170.896
1168.879
1165.52
1157.568
1174.037
1172.628
1171.021
1168.899
1165.245
1156.433
1175.449
1174.122
1172.699
1171.067
1168.888
1165.084
1155.878
1176.732
1175.453
1174.117
1172.685
1171.045
1168.864
1165.083
1155.957
1177.901
1176.658
1175.37
1174.025
1172.588
1170.958
1168.84
1165.236
1156.651
1178.965
1177.754
1176.5
1175.2
1173.845
1172.409
1170.816
1168.799
1165.504
1157.88
1179.929
1178.751
1177.528
1176.26
1174.947
1173.585
1172.163
1170.61
1168.72
1165.821
1159.485
1180.812
1179.669
1178.478
1177.242
1175.961
1174.636
1173.275
1171.862
1170.349
1168.592
1166.112
1161.219
1181.66
1180.554
1179.4
1178.197
1176.948
1175.655
1174.328
1172.965
1171.559
1170.081
1168.438
1166.331
1162.75
1182.55
1181.482
1180.366
1179.201
1177.987
1176.727
1175.432
1174.102
1172.737
1171.335
1169.88
1168.321
1166.475
1163.808
1183.473
1182.446
1181.37
1180.244
1179.069
1177.847
1176.587
1175.289
1173.957
1172.591
1171.191
1169.755
1168.249
1166.565
1164.454
1184.406
1183.42
1182.386
1181.301
1180.167
1178.985
1177.763
1176.502
1175.204
1173.87
1172.503
1171.11
1169.688
1168.215
1166.624
1185.331
1184.388
1183.396
1182.354
1181.261
1180.121
1178.94
1177.718
1176.457
1175.158
1173.824
1172.462
1171.076
1169.664
1168.211
1164.167
1166.344
1163.581
1168.414
1166.285
1162.536
1170.397
1168.65
1166.133
1160.971
1172.225
1170.696
1168.809
1165.856
1159.216
1173.875
1172.474
1170.899
1168.878
1165.528
1157.64
1175.37
1174.043
1172.625
1171.01
1168.886
1165.242
1156.507
1176.732
1175.453
1174.117
1172.685
1171.045
1168.864
1165.083
1155.957
1177.976
1176.735
1175.447
1174.102
1172.66
1171.014
1168.843
1165.081
1156.034
1179.112
1177.904
1176.653
1175.355
1174
1172.556
1170.932
1168.819
1165.232
1156.721
1180.143
1178.969
1177.75
1176.486
1175.177
1173.815
1172.383
1170.791
1168.778
1165.498
1157.937
1181.074
1179.934
1178.749
1177.517
1176.24
1174.92
1173.562
1172.14
1170.587
1168.701
1165.813
1159.533
1181.923
1180.82
1179.669
1178.471
1177.226
1175.937
1174.616
1173.256
1171.843
1170.331
1168.576
1166.11
1161.258
1182.735
1181.671
1180.557
1179.395
1178.185
1176.929
1175.638
1174.312
1172.95
1171.545
1170.068
1168.432
1166.338
1162.784
1183.586
1182.561
1181.486
1180.363
1179.19
1177.97
1176.713
1175.418
1174.088
1172.724
1171.323
1169.874
1168.323
1166.489
1163.842
1184.468
1183.483
1182.45
1181.367
1180.233
1179.052
1177.832
1176.573
1175.276
1173.944
1172.578
1171.185
1169.756
1168.259
1166.585
1185.358
1184.416
1183.424
1182.382
1181.29
1180.15
1178.97
1177.749
1176.488
1175.19
1173.857
1172.495
1171.109
1169.694
1168.23
1186.241
1185.341
1184.391
1183.392
1182.342
1181.245
1180.106
1178.926
1177.704
1176.443
1175.144
1173.814
1172.458
1171.079
1169.675
1164.514
1166.405
1164.228
1168.261
1166.394
1163.632
1170.084
1168.452
1166.32
1162.582
1171.91
1170.421
1168.669
1166.152
1161.023
1173.63
1172.238
1170.702
1168.81
1165.861
1159.268
1175.21
1173.883
1172.473
1170.89
1168.864
1165.522
1157.702
1176.654
1175.374
1174.039
1172.612
1170.989
1168.861
1165.239
1156.58
1177.976
1176.735
1175.447
1174.102
1172.66
1171.014
1168.843
1165.081
1156.034
1179.186
1177.979
1176.729
1175.432
1174.077
1172.628
1170.987
1168.822
1165.079
1156.11
1180.287
1179.115
1177.899
1176.638
1175.331
1173.969
1172.529
1170.906
1168.798
1165.228
1156.79
1181.283
1180.146
1178.964
1177.737
1176.464
1175.147
1173.789
1172.357
1170.766
1168.757
1165.491
1158
1182.178
1181.079
1179.932
1178.738
1177.497
1176.214
1174.897
1173.538
1172.116
1170.565
1168.681
1165.809
1159.586
1182.992
1181.93
1180.819
1179.661
1178.454
1177.203
1175.917
1174.596
1173.236
1171.824
1170.312
1168.565
1166.113
1161.302
1183.768
1182.745
1181.673
1180.552
1179.382
1178.165
1176.912
1175.622
1174.296
1172.935
1171.529
1170.058
1168.431
1166.35
1162.825
1184.579
1183.596
1182.564
1181.483
1180.351
1179.172
1177.955
1176.698
1175.404
1174.074
1172.711
1171.315
1169.873
1168.331
1166.508
1185.419
1184.478
1183.487
1182.446
1181.355
1180.216
1179.037
1177.818
1176.559
1175.262
1173.93
1172.569
1171.182
1169.761
1168.273
1186.268
1185.368
1184.418
1183.42
1182.371
1181.273
1180.136
1178.956
1177.735
1176.475
1175.176
1173.847
1172.491
1171.111
1169.704
1187.109
1186.25
1185.343
1184.387
1183.38
1182.326
1181.23
1180.092
1178.911
1177.69
1176.429
1175.133
1173.808
1172.458
1171.086
1164.663
1166.437
1164.574
1168.166
1166.456
1164.277
1169.858
1168.302
1166.432
1163.67
1171.573
1170.115
1168.478
1166.343
1162.614
1173.314
1171.929
1170.433
1168.675
1166.157
1161.054
1174.969
1173.641
1172.24
1170.697
1168.799
1165.852
1159.313
1176.498
1175.216
1173.88
1172.462
1170.87
1168.841
1165.516
1157.762
1177.901
1176.658
1175.37
1174.025
1172.588
1170.958
1168.84
1165.236
1156.651
1179.186
1177.979
1176.729
1175.432
1174.077
1172.628
1170.987
1168.822
1165.079
1156.11
1180.359
1179.188
1177.973
1176.714
1175.407
1174.045
1172.6
1170.961
1168.801
1165.076
1156.184
1181.423
1180.29
1179.11
1177.885
1176.615
1175.3
1173.941
1172.501
1170.88
1168.777
1165.224
1156.864
1182.383
1181.286
1180.142
1178.951
1177.714
1176.435
1175.122
1173.763
1172.331
1170.741
1168.736
1165.489
1158.068
1183.242
1182.183
1181.076
1179.92
1178.718
1177.471
1176.191
1174.874
1173.515
1172.093
1170.541
1168.665
1165.811
1159.645
1184.019
1182.998
1181.929
1180.811
1179.644
1178.431
1177.183
1175.897
1174.576
1173.216
1171.803
1170.297
1168.558
1166.121
1161.352
1184.757
1183.777
1182.747
1181.668
1180.539
1179.363
1178.149
1176.896
1175.605
1174.28
1172.918
1171.518
1170.053
1168.435
1166.367
1185.529
1184.588
1183.599
1182.56
1181.471
1180.333
1179.157
1177.939
1176.683
1175.389
1174.059
1172.7
1171.311
1169.876
1168.343
1186.328
1185.429
1184.48
1183.483
1182.435
1181.338
1180.201
1179.023
1177.803
1176.544
1175.247
1173.919
1172.565
1171.184
1169.77
1187.135
1186.277
1185.37
1184.414
1183.408
1182.354
1181.259
1180.121
1178.941
1177.72
1176.459
1175.165
1173.841
1172.491
1171.118
1187.934
1187.117
1186.252
1185.339
1184.375
1183.363
1182.311
1181.215
1180.077
1178.897
1177.675
1176.416
1175.126
1173.806
1172.462
1166.45
1164.723
1168.113
1166.488
1164.622
1169.721
1168.209
1166.495
1164.312
1171.332
1169.894
1168.333
1166.458
1163.694
1172.981
1171.599
1170.136
1168.493
1166.353
1162.63
1174.662
1173.33
1171.937
1170.434
1168.669
1166.149
1161.08
1176.265
1174.978
1173.641
1172.232
1170.68
1168.777
1165.845
1159.357
1177.749
1176.503
1175.212
1173.868
1172.439
1170.841
1168.82
1165.51
1157.822
1179.112
1177.904
1176.653
1175.355
1174
1172.556
1170.932
1168.819
1165.232
1156.721
1180.359
1179.188
1177.973
1176.714
1175.407
1174.045
1172.6
1170.961
1168.801
1165.076
1156.184
1181.494
1180.361
1179.182
1177.959
1176.69
1175.376
1174.017
1172.572
1170.934
1168.779
1165.073
1156.264
1182.521
1181.426
1180.284
1179.096
1177.861
1176.585
1175.273
1173.914
1172.474
1170.853
1168.754
1165.224
1156.942
1183.443
1182.386
1181.281
1180.129
1178.929
1177.686
1176.41
1175.096
1173.737
1172.305
1170.715
1168.718
1165.493
1158.14
1184.265
1183.246
1182.18
1181.065
1179.901
1178.692
1177.448
1176.167
1174.85
1173.491
1172.068
1170.521
1168.655
1165.819
1159.708
1185.004
1184.025
1182.998
1181.921
1180.794
1179.621
1178.411
1177.163
1175.877
1174.556
1173.195
1171.786
1170.286
1168.557
1166.135
1185.704
1184.766
1183.778
1182.741
1181.654
1180.519
1179.346
1178.131
1176.878
1175.589
1174.262
1172.904
1171.51
1170.053
1168.444
1186.436
1185.538
1184.591
1183.594
1182.548
1181.453
1180.318
1179.141
1177.924
1176.667
1175.373
1174.047
1172.694
1171.311
1169.884
1187.194
1186.337
1185.431
1184.476
1183.471
1182.417
1181.323
1180.186
1179.007
1177.788
1176.529
1175.235
1173.912
1172.564
1171.19
1187.96
1187.143
1186.279
1185.366
1184.403
1183.391
1182.339
1181.244
1180.106
1178.926
1177.705
1176.447
1175.157
1173.838
1172.495
1188.717
1187.942
1187.119
1186.248
1185.327
1184.358
1183.349
1182.296
1181.2
1180.062
1178.881
1177.661
1176.407
1175.122
1173.808
1168.09
1166.502
1164.771
1169.645
1168.157
1166.528
1164.657
1171.186
1169.758
1168.241
1166.522
1164.334
1172.744
1171.363
1169.918
1168.351
1166.47
1163.702
1174.34
1173.004
1171.616
1170.145
1168.494
1166.349
1162.643
1175.968
1174.675
1173.336
1171.935
1170.423
1168.652
1166.142
1161.107
1177.523
1176.272
1174.978
1173.632
1172.213
1170.654
1168.758
1165.837
1159.4
1178.965
1177.754
1176.5
1175.2
1173.845
1172.409
1170.816
1168.799
1165.504
1157.88
1180.287
1179.115
1177.899
1176.638
1175.331
1173.969
1172.529
1170.906
1168.798
1165.228
1156.79
1181.494
1180.361
1179.182
1177.959
1176.69
1175.376
1174.017
1172.572
1170.934
1168.779
1165.073
1156.264
1182.59
1181.496
1180.355
1179.168
1177.935
1176.659
1175.349
1173.989
1172.544
1170.907
1168.757
1165.075
1156.348
1183.579
1182.523
1181.421
1180.27
1179.073
1177.832
1176.559
1175.247
1173.887
1172.447
1170.826
1168.736
1165.23
1157.025
1184.462
1183.446
1182.381
1181.269
1180.108
1178.902
1177.662
1176.385
1175.071
1173.711
1172.278
1170.692
1168.705
1165.501
1158.218
1185.246
1184.269
1183.243
1182.169
1181.045
1179.876
1178.67
1177.425
1176.144
1174.827
1173.466
1172.046
1170.506
1168.649
1165.831
1185.947
1185.01
1184.024
1182.989
1181.904
1180.772
1179.602
1178.391
1177.142
1175.857
1174.534
1173.176
1171.773
1170.28
1168.56
1186.609
1185.712
1184.767
1183.772
1182.728
1181.635
1180.502
1179.328
1178.114
1176.861
1175.57
1174.247
1172.895
1171.507
1170.057
1187.301
1186.444
1185.54
1184.586
1183.582
1182.53
1181.437
1180.302
1179.125
1177.908
1176.651
1175.359
1174.039
1172.691
1171.315
1188.018
1187.203
1186.339
1185.426
1184.464
1183.453
1182.402
1181.308
1180.171
1178.992
1177.772
1176.515
1175.227
1173.909
1172.567
1188.743
1187.968
1187.145
1186.274
1185.354
1184.386
1183.376
1182.324
1181.229
1180.091
1178.91
1177.691
1176.438
1175.153
1173.84
1189.458
1188.724
1187.943
1187.114
1186.236
1185.31
1184.344
1183.334
1182.281
1181.185
1180.046
1178.867
1177.652
1176.402
1175.121
1169.611
1168.133
1166.541
1164.805
1171.105
1169.682
1168.189
1166.555
1164.678
1172.598
1171.217
1169.784
1168.261
1166.536
1164.34
1174.111
1172.77
1171.382
1169.932
1168.358
1166.469
1163.71
1175.66
1174.36
1173.017
1171.621
1170.142
1168.485
1166.345
1162.657
1177.237
1175.98
1174.68
1173.332
1171.922
1170.403
1168.637
1166.135
1161.134
1178.745
1177.53
1176.271
1174.967
1173.612
1172.186
1170.632
1168.739
1165.829
1159.443
1180.143
1178.969
1177.75
1176.486
1175.177
1173.815
1172.383
1170.791
1168.778
1165.498
1157.937
1181.423
1180.29
1179.11
1177.885
1176.615
1175.3
1173.941
1172.501
1170.88
1168.777
1165.224
1156.864
1182.59
1181.496
1180.355
1179.168
1177.935
1176.659
1175.349
1173.989
1172.544
1170.907
1168.757
1165.075
1156.348
1183.646
1182.592
1181.49
1180.341
1179.145
1177.905
1176.633
1175.322
1173.962
1172.516
1170.879
1168.739
1165.082
1156.437
1184.596
1183.581
1182.518
1181.407
1180.248
1179.045
1177.807
1176.533
1175.22
1173.86
1172.418
1170.802
1168.723
1165.241
1157.113
1185.44
1184.465
1183.441
1182.369
1181.248
1180.081
1178.878
1177.638
1176.36
1175.045
1173.684
1172.253
1170.674
1168.698
1165.515
1186.185
1185.249
1184.265
1183.232
1182.15
1181.02
1179.854
1178.647
1177.403
1176.121
1174.802
1173.443
1172.029
1170.495
1168.648
1186.848
1185.953
1185.009
1184.015
1182.972
1181.882
1180.752
1179.582
1178.371
1177.122
1175.835
1174.515
1173.162
1171.765
1170.279
1187.471
1186.617
1185.713
1184.761
1183.759
1182.708
1181.618
1180.485
1179.311
1178.097
1176.843
1175.554
1174.236
1172.889
1171.508
1188.123
1187.309
1186.446
1185.535
1184.573
1183.564
1182.514
1181.421
1180.286
1179.109
1177.891
1176.636
1175.35
1174.034
1172.693
1188.801
1188.026
1187.205
1186.334
1185.415
1184.447
1183.438
1182.387
1181.292
1180.156
1178.976
1177.758
1176.506
1175.222
1173.91
1189.484
1188.75
1187.969
1187.141
1186.263
1185.337
1184.371
1183.361
1182.309
1181.214
1180.075
1178.896
1177.681
1176.432
1175.152
1190.158
1189.466
1188.726
1187.939
1187.103
1186.22
1185.296
1184.329
1183.319
1182.266
1181.169
1180.031
1178.856
1177.645
1176.4
1171.069
1169.648
1168.166
1166.569
1164.826
1172.518
1171.136
1169.708
1168.21
1166.57
1164.684
1173.97
1172.625
1171.238
1169.799
1168.27
1166.537
1164.346
1175.439
1174.133
1172.786
1171.392
1169.933
1168.352
1166.468
1163.718
1176.94
1175.677
1174.371
1173.02
1171.615
1170.129
1168.476
1166.342
1162.671
1178.468
1177.248
1175.983
1174.674
1173.318
1171.9
1170.385
1168.623
1166.127
1161.16
1179.929
1178.751
1177.528
1176.26
1174.947
1173.585
1172.163
1170.61
1168.72
1165.821
1159.485
1181.283
1180.146
1178.964
1177.737
1176.464
1175.147
1173.789
1172.357
1170.766
1168.757
1165.491
1158
1182.521
1181.426
1180.284
1179.096
1177.861
1176.585
1175.273
1173.914
1172.474
1170.853
1168.754
1165.224
1156.942
1183.646
1182.592
1181.49
1180.341
1179.145
1177.905
1176.633
1175.322
1173.962
1172.516
1170.879
1168.739
1165.082
1156.437
1184.662
1183.648
1182.586
1181.476
1180.318
1179.116
1177.88
1176.607
1175.295
1173.934
1172.487
1170.854
1168.725
1165.095
1156.531
1185.571
1184.598
1183.575
1182.505
1181.385
1180.22
1179.02
1177.782
1176.507
1175.194
1173.831
1172.392
1170.782
1168.714
1165.257
1186.376
1185.442
1184.46
1183.429
1182.348
1181.221
1180.058
1178.854
1177.613
1176.335
1175.018
1173.659
1172.233
1170.661
1168.695
1187.082
1186.188
1185.246
1184.255
1183.214
1182.125
1180.999
1179.832
1178.625
1177.38
1176.097
1174.779
1173.425
1172.016
1170.49
1187.707
1186.853
1185.951
1185
1183.999
1182.951
1181.863
1180.733
1179.562
1178.351
1177.1
1175.816
1174.5
1173.152
1171.761
1188.292
1187.479
1186.617
1185.707
1184.747
1183.74
1182.691
1181.601
1180.468
1179.294
1178.078
1176.826
1175.542
1174.229
1172.888
1188.904
1188.131
1187.31
1186.441
1185.522
1184.556
1183.548
1182.498
1181.405
1180.27
1179.092
1177.876
1176.625
1175.344
1174.034
1189.541
1188.808
1188.028
1187.2
1186.323
1185.398
1184.432
1183.423
1182.372
1181.277
1180.139
1178.961
1177.747
1176.5
1175.221
1190.184
1189.491
1188.752
1187.965
1187.129
1186.246
1185.323
1184.356
1183.347
1182.294
1181.197
1180.06
1178.885
1177.674
1176.43
1190.818
1190.166
1189.467
1188.721
1187.927
1187.086
1186.205
1185.281
1184.314
1183.304
1182.25
1181.154
1180.02
1178.849
1177.642
1172.482
1171.1
1169.675
1168.187
1166.584
1164.832
1173.892
1172.545
1171.158
1169.724
1168.219
1166.571
1164.689
1175.303
1173.994
1172.643
1171.249
1169.802
1168.266
1166.537
1164.352
1176.727
1175.459
1174.147
1172.792
1171.39
1169.924
1168.347
1166.467
1163.726
1178.182
1176.956
1175.685
1174.371
1173.012
1171.6
1170.117
1168.467
1166.338
1162.686
1179.66
1178.477
1177.249
1175.977
1174.659
1173.295
1171.881
1170.367
1168.608
1166.12
1161.187
1181.074
1179.934
1178.749
1177.517
1176.24
1174.92
1173.562
1172.14
1170.587
1168.701
1165.813
1159.533
1182.383
1181.286
1180.142
1178.951
1177.714
1176.435
1175.122
1173.763
1172.331
1170.741
1168.736
1165.489
1158.068
1183.579
1182.523
1181.421
1180.27
1179.073
1177.832
1176.559
1175.247
1173.887
1172.447
1170.826
1168.736
1165.23
1157.025
1184.662
1183.648
1182.586
1181.476
1180.318
1179.116
1177.88
1176.607
1175.295
1173.934
1172.487
1170.854
1168.725
1165.095
1156.531
1185.637
1184.664
1183.643
1182.573
1181.454
1180.29
1179.091
1177.854
1176.58
1175.268
1173.905
1172.46
1170.834
1168.717
1165.112
1186.506
1185.573
1184.592
1183.562
1182.483
1181.358
1180.197
1178.996
1177.757
1176.481
1175.165
1173.805
1172.37
1170.768
1168.711
1187.271
1186.378
1185.438
1184.448
1183.409
1182.323
1181.199
1180.035
1178.831
1177.589
1176.309
1174.993
1173.638
1172.218
1170.652
1187.938
1187.086
1186.185
1185.235
1184.236
1183.19
1182.104
1180.978
1179.81
1178.603
1177.356
1176.074
1174.761
1173.412
1172.008
1188.524
1187.712
1186.852
1185.942
1184.984
1183.978
1182.932
1181.843
1180.713
1179.542
1178.329
1177.081
1175.8
1174.489
1173.146
1189.071
1188.299
1187.479
1186.611
1185.694
1184.728
1183.723
1182.674
1181.583
1180.45
1179.274
1178.061
1176.813
1175.534
1174.226
1189.644
1188.912
1188.132
1187.305
1186.429
1185.505
1184.54
1183.533
1182.482
1181.389
1180.252
1179.076
1177.864
1176.618
1175.341
1190.24
1189.549
1188.81
1188.023
1187.188
1186.306
1185.383
1184.417
1183.408
1182.356
1181.26
1180.124
1178.95
1177.74
1176.497
1190.843
1190.191
1189.493
1188.747
1187.953
1187.113
1186.232
1185.308
1184.341
1183.331
1182.277
1181.182
1180.049
1178.878
1177.671
1191.436
1190.825
1190.167
1189.462
1188.71
1187.911
1187.072
1186.191
1185.267
1184.299
1183.288
1182.235
1181.143
1180.012
1178.845
1173.858
1172.51
1171.122
1169.69
1168.196
1166.585
1164.837
1175.228
1173.916
1172.563
1171.169
1169.728
1168.216
1166.572
1164.694
1176.596
1175.324
1174.008
1172.65
1171.249
1169.795
1168.262
1166.537
1164.358
1177.976
1176.745
1175.469
1174.15
1172.787
1171.378
1169.916
1168.341
1166.466
1163.735
1179.383
1178.196
1176.962
1175.684
1174.362
1172.995
1171.587
1170.105
1168.458
1166.334
1162.701
1180.812
1179.669
1178.478
1177.242
1175.961
1174.636
1173.275
1171.862
1170.349
1168.592
1166.112
1161.219
1182.178
1181.079
1179.932
1178.738
1177.497
1176.214
1174.897
1173.538
1172.116
1170.565
1168.681
1165.809
1159.586
1183.443
1182.386
1181.281
1180.129
1178.929
1177.686
1176.41
1175.096
1173.737
1172.305
1170.715
1168.718
1165.493
1158.14
1184.596
1183.581
1182.518
1181.407
1180.248
1179.045
1177.807
1176.533
1175.22
1173.86
1172.418
1170.802
1168.723
1165.241
1157.113
1185.637
1184.664
1183.643
1182.573
1181.454
1180.29
1179.091
1177.854
1176.58
1175.268
1173.905
1172.46
1170.834
1168.717
1165.112
1186.571
1185.639
1184.659
1183.63
1182.551
1181.427
1180.266
1179.066
1177.829
1176.554
1175.239
1173.878
1172.439
1170.819
1168.714
1187.4
1186.508
1185.568
1184.58
1183.542
1182.457
1181.335
1180.173
1178.971
1177.732
1176.453
1175.139
1173.783
1172.354
1170.758
1188.125
1187.273
1186.374
1185.426
1184.428
1183.384
1182.301
1181.176
1180.012
1178.807
1177.563
1176.284
1174.973
1173.622
1172.207
1188.753
1187.942
1187.082
1186.174
1185.217
1184.213
1183.169
1182.084
1180.956
1179.788
1178.579
1177.333
1176.055
1174.746
1173.402
1189.301
1188.529
1187.71
1186.843
1185.927
1184.963
1183.959
1182.913
1181.824
1180.694
1179.521
1178.31
1177.065
1175.788
1174.482
1189.809
1189.078
1188.299
1187.473
1186.598
1185.675
1184.712
1183.706
1182.657
1181.566
1180.431
1179.257
1178.047
1176.804
1175.529
1190.342
1189.651
1188.913
1188.127
1187.293
1186.411
1185.49
1184.525
1183.517
1182.466
1181.371
1180.236
1179.064
1177.856
1176.614
1190.899
1190.248
1189.55
1188.805
1188.012
1187.171
1186.291
1185.368
1184.402
1183.393
1182.339
1181.245
1180.112
1178.942
1177.736
1191.461
1190.85
1190.192
1189.488
1188.736
1187.937
1187.098
1186.217
1185.293
1184.326
1183.315
1182.262
1181.17
1180.04
1178.873
1192.014
1191.443
1190.826
1190.162
1189.451
1188.694
1187.897
1187.058
1186.176
1185.252
1184.283
1183.273
1182.223
1181.134
1180.007
1175.194
1173.881
1172.527
1171.133
1169.695
1168.194
1166.587
1164.843
1176.524
1175.248
1173.93
1172.571
1171.17
1169.722
1168.213
1166.572
1164.699
1177.849
1176.615
1175.335
1174.012
1172.647
1171.239
1169.788
1168.258
1166.537
1164.364
1179.183
1177.992
1176.754
1175.471
1174.144
1172.774
1171.368
1169.908
1168.335
1166.464
1163.744
1180.543
1179.395
1178.201
1176.96
1175.673
1174.344
1172.98
1171.573
1170.093
1168.448
1166.33
1162.722
1181.923
1180.82
1179.669
1178.471
1177.226
1175.937
1174.616
1173.256
1171.843
1170.331
1168.576
1166.11
1161.258
1183.242
1182.183
1181.076
1179.92
1178.718
1177.471
1176.191
1174.874
1173.515
1172.093
1170.541
1168.665
1165.811
1159.645
1184.462
1183.446
1182.381
1181.269
1180.108
1178.902
1177.662
1176.385
1175.071
1173.711
1172.278
1170.692
1168.705
1165.501
1158.218
1185.571
1184.598
1183.575
1182.505
1181.385
1180.22
1179.02
1177.782
1176.507
1175.194
1173.831
1172.392
1170.782
1168.714
1165.257
1186.571
1185.639
1184.659
1183.63
1182.551
1181.427
1180.266
1179.066
1177.829
1176.554
1175.239
1173.878
1172.439
1170.819
1168.714
1187.464
1186.573
1185.634
1184.646
1183.609
1182.525
1181.404
1180.242
1179.042
1177.803
1176.526
1175.213
1173.855
1172.421
1170.809
1188.252
1187.401
1186.503
1185.556
1184.56
1183.516
1182.435
1181.312
1180.149
1178.947
1177.705
1176.428
1175.118
1173.766
1172.341
1188.938
1188.127
1187.269
1186.362
1185.407
1184.404
1183.362
1182.279
1181.154
1179.989
1178.782
1177.539
1176.264
1174.956
1173.61
1189.527
1188.756
1187.938
1187.072
1186.157
1185.195
1184.193
1183.149
1182.063
1180.935
1179.765
1178.557
1177.315
1176.041
1174.736
1190.036
1189.305
1188.528
1187.702
1186.827
1185.906
1184.945
1183.94
1182.894
1181.805
1180.672
1179.501
1178.293
1177.052
1175.78
1190.505
1189.815
1189.078
1188.293
1187.46
1186.579
1185.659
1184.695
1183.689
1182.64
1181.547
1180.414
1179.243
1178.037
1176.798
1191
1190.349
1189.652
1188.908
1188.115
1187.276
1186.396
1185.474
1184.509
1183.501
1182.449
1181.355
1180.223
1179.055
1177.851
1191.517
1190.906
1190.249
1189.545
1188.793
1187.995
1187.157
1186.276
1185.353
1184.387
1183.376
1182.324
1181.232
1180.103
1178.937
1192.039
1191.468
1190.851
1190.187
1189.477
1188.72
1187.923
1187.084
1186.203
1185.279
1184.31
1183.3
1182.25
1181.162
1180.035
1192.552
1192.021
1191.444
1190.821
1190.151
1189.436
1188.68
1187.883
1187.044
1186.162
1185.236
1184.268
1183.261
1182.214
1181.128
1176.491
1175.215
1173.896
1172.535
1171.134
1169.689
1168.191
1166.587
1164.848
1177.778
1176.542
1175.26
1173.935
1172.568
1171.16
1169.716
1168.21
1166.573
1164.705
1179.06
1177.865
1176.624
1175.338
1174.007
1172.635
1171.23
1169.781
1168.254
1166.536
1164.37
1180.348
1179.197
1177.999
1176.754
1175.463
1174.129
1172.762
1171.357
1169.899
1168.329
1166.462
1163.759
1181.66
1180.554
1179.4
1178.197
1176.948
1175.655
1174.328
1172.965
1171.559
1170.081
1168.438
1166.331
1162.75
1182.992
1181.93
1180.819
1179.661
1178.454
1177.203
1175.917
1174.596
1173.236
1171.824
1170.312
1168.565
1166.113
1161.302
1184.265
1183.246