/*--------------------------------*- C++ -*----------------------------------*\
| =========                 |                                                 |
| \\      /  F ield         | OpenFOAM: The Open Source CFD Toolbox           |
|  \\    /   O peration     | Version:  2306                                  |
|   \\  /    A nd           | Website:  www.openfoam.com                      |
|    \\/     M anipulation  |                                                 |
\*---------------------------------------------------------------------------*/
FoamFile
{
    version     2.0;
    format      ascii;
    arch        "LSB;label=32;scalar=64";
    class       volScalarField;
    location    "1.5/interconnect";
    object      T;
}
// * * * * * * * * * * * * * * * * * * * * * * * * * * * * * * * * * * * * * //

dimensions      [0 0 0 1 0 0 0];

internalField   nonuniform List<scalar> 
16000
(
1210.959
1210.957
1212.893
1210.891
1210.953
1212.892
1210.888
1215.461
1212.871
1210.756
1210.947
1212.89
1210.882
1215.46
1212.87
1210.751
1218.114
1215.461
1212.83
1210.56
1210.939
1212.888
1210.873
1215.459
1212.868
1210.741
1218.113
1215.46
1212.828
1210.55
1220.66
1218.121
1215.462
1212.773
1210.312
1210.932
1212.885
1210.863
1215.457
1212.865
1210.727
1218.112
1215.458
1212.825
1210.533
1220.66
1218.12
1215.46
1212.77
1210.294
1223.044
1220.67
1218.138
1215.468
1212.708
1210.106
1210.924
1212.882
1210.853
1215.454
1212.861
1210.711
1218.11
1215.455
1212.82
1210.508
1220.658
1218.118
1215.457
1212.765
1210.261
1223.043
1220.669
1218.136
1215.465
1212.703
1210.077
1225.258
1223.054
1220.69
1218.166
1215.483
1212.661
1209.974
1210.918
1212.879
1210.842
1215.452
1212.857
1210.693
1218.107
1215.451
1212.814
1210.48
1220.656
1218.115
1215.453
1212.758
1210.216
1223.042
1220.667
1218.133
1215.46
1212.695
1210.018
1225.257
1223.053
1220.689
1218.163
1215.48
1212.654
1209.935
1227.311
1225.267
1223.074
1220.724
1218.209
1215.506
1212.634
1209.853
1210.913
1212.876
1210.833
1215.449
1212.852
1210.674
1218.104
1215.448
1212.808
1210.449
1220.654
1218.112
1215.447
1212.749
1210.168
1223.04
1220.664
1218.128
1215.453
1212.684
1209.931
1225.256
1223.051
1220.686
1218.158
1215.473
1212.64
1209.857
1227.31
1225.266
1223.072
1220.721
1218.206
1215.502
1212.624
1209.807
1229.217
1227.319
1225.285
1223.107
1220.774
1218.256
1215.526
1212.614
1209.752
1210.91
1212.874
1210.826
1215.447
1212.849
1210.657
1218.102
1215.444
1212.801
1210.414
1220.651
1218.108
1215.441
1212.739
1210.134
1223.038
1220.661
1218.122
1215.443
1212.672
1209.82
1225.254
1223.048
1220.681
1218.15
1215.462
1212.621
1209.737
1227.309
1225.264
1223.07
1220.717
1218.199
1215.495
1212.606
1209.712
1229.217
1227.318
1225.284
1223.105
1220.771
1218.253
1215.522
1212.602
1209.699
1230.991
1229.225
1227.336
1225.316
1223.156
1220.826
1218.292
1215.551
1212.604
1209.674
1210.91
1212.873
1210.822
1215.445
1212.846
1210.644
1218.1
1215.441
1212.795
1210.38
1220.649
1218.104
1215.435
1212.727
1210.056
1223.035
1220.657
1218.116
1215.432
1212.663
1225.252
1223.045
1220.675
1218.14
1215.447
1212.6
1209.569
1227.308
1225.262
1223.065
1220.709
1218.188
1215.485
1212.578
1209.563
1229.216
1227.317
1225.282
1223.1
1220.765
1218.248
1215.514
1212.579
1209.591
1230.991
1229.224
1227.335
1225.314
1223.153
1220.824
1218.289
1215.547
1212.591
1209.617
1232.645
1230.998
1229.24
1227.364
1225.361
1223.206
1220.864
1218.332
1215.583
1212.607
1209.624
1210.913
1212.873
1210.822
1215.444
1212.844
1210.637
1218.098
1215.439
1212.79
1210.354
1220.647
1218.101
1215.429
1212.715
1209.979
1223.033
1220.654
1218.11
1215.421
1212.639
1225.25
1223.042
1220.669
1218.127
1215.424
1227.306
1225.259
1223.06
1220.699
1218.171
1215.474
1212.544
1209.352
1229.214
1227.315
1225.278
1223.093
1220.754
1218.241
1215.502
1212.543
1209.422
1230.99
1229.223
1227.332
1225.31
1223.147
1220.819
1218.285
1215.537
1212.563
1209.501
1232.645
1230.997
1229.239
1227.362
1225.359
1223.204
1220.863
1218.329
1215.578
1212.592
1209.566
1234.191
1232.651
1231.012
1229.265
1227.405
1225.407
1223.242
1220.906
1218.376
1215.621
1212.624
1209.603
1210.918
1212.874
1210.826
1215.444
1212.844
1210.637
1218.097
1215.438
1212.787
1210.34
1220.645
1218.099
1215.425
1212.705
1209.921
1223.031
1220.651
1218.104
1215.411
1212.612
1225.248
1223.039
1220.663
1218.116
1215.401
1227.304
1225.256
1223.055
1220.687
1218.142
1229.213
1227.312
1225.273
1223.084
1220.737
1218.233
1215.488
1212.494
1209.182
1230.989
1229.221
1227.329
1225.304
1223.138
1220.813
1218.278
1215.524
1212.52
1209.32
1232.644
1230.996
1229.237
1227.358
1225.354
1223.2
1220.859
1218.325
1215.568
1212.562
1209.446
1234.19
1232.651
1231.011
1229.264
1227.403
1225.405
1223.241
1220.905
1218.374
1215.616
1212.609
1209.544
1235.637
1234.196
1232.664
1231.035
1229.302
1227.446
1225.441
1223.282
1220.952
1218.424
1215.666
1212.655
1209.61
1210.924
1212.876
1210.833
1215.445
1212.846
1210.644
1218.097
1215.438
1212.787
1210.34
1220.644
1218.098
1215.423
1212.7
1209.89
1223.03
1220.649
1218.1
1215.403
1212.59
1225.246
1223.036
1220.658
1218.106
1215.381
1227.302
1225.253
1223.049
1220.676
1218.119
1229.211
1227.309
1225.268
1223.073
1220.708
1230.987
1229.218
1227.325
1225.295
1223.122
1220.807
1218.271
1215.505
1212.46
1209.064
1232.643
1230.994
1229.234
1227.353
1225.345
1223.195
1220.855
1218.318
1215.552
1212.515
1209.26
1234.19
1232.65
1231.009
1229.26
1227.398
1225.402
1223.239
1220.903
1218.369
1215.605
1212.578
1209.425
1235.636
1234.196
1232.663
1231.033
1229.3
1227.445
1225.439
1223.282
1220.951
1218.422
1215.661
1212.64
1209.552
1236.991
1235.642
1234.208
1232.685
1231.068
1229.339
1227.477
1225.477
1223.325
1221.001
1218.477
1215.718
1212.7
1209.644
1210.932
1212.879
1210.842
1215.447
1212.849
1210.657
1218.098
1215.439
1212.79
1210.354
1220.644
1218.098
1215.423
1212.7
1209.89
1223.029
1220.648
1218.098
1215.399
1212.577
1225.245
1223.034
1220.655
1218.099
1215.367
1227.3
1225.251
1223.045
1220.667
1218.102
1229.209
1227.307
1225.263
1223.063
1220.687
1230.986
1229.216
1227.32
1225.285
1223.095
1232.642
1230.992
1229.23
1227.345
1225.331
1223.189
1220.85
1218.31
1215.529
1212.448
1209.001
1234.188
1232.648
1231.006
1229.255
1227.39
1225.397
1223.235
1220.899
1218.363
1215.588
1212.531
1209.242
1235.636
1234.195
1232.662
1231.03
1229.296
1227.442
1225.437
1223.28
1220.949
1218.418
1215.652
1212.612
1209.436
1236.991
1235.641
1234.207
1232.684
1231.066
1229.338
1227.476
1225.476
1223.325
1221
1218.475
1215.715
1212.687
1209.588
1238.262
1236.996
1235.652
1234.227
1232.715
1231.102
1229.367
1227.51
1225.516
1223.37
1221.052
1218.533
1215.777
1212.757
1209.704
1210.939
1212.882
1210.853
1215.449
1212.852
1210.674
1218.1
1215.441
1212.795
1210.38
1220.645
1218.099
1215.425
1212.705
1209.921
1223.029
1220.648
1218.098
1215.399
1212.577
1225.244
1223.033
1220.653
1218.096
1215.359
1227.299
1225.249
1223.041
1220.661
1218.09
1229.208
1227.305
1225.259
1223.055
1220.671
1230.984
1229.214
1227.316
1225.276
1223.075
1232.64
1230.99
1229.226
1227.336
1225.306
1234.187
1232.646
1231.003
1229.248
1227.377
1225.393
1223.232
1220.894
1218.353
1215.564
1212.463
1208.988
1235.635
1234.193
1232.659
1231.026
1229.289
1227.438
1225.434
1223.277
1220.946
1218.412
1215.636
1212.568
1209.261
1236.99
1235.64
1234.205
1232.681
1231.063
1229.336
1227.474
1225.475
1223.323
1220.998
1218.472
1215.707
1212.662
1209.474
1238.261
1236.995
1235.652
1234.226
1232.714
1231.101
1229.366
1227.509
1225.516
1223.37
1221.052
1218.532
1215.775
1212.747
1209.647
1239.454
1238.266
1237.006
1235.67
1234.254
1232.746
1231.127
1229.397
1227.545
1225.557
1223.418
1221.105
1218.592
1215.841
1212.826
1210.947
1212.885
1210.863
1215.452
1212.857
1210.693
1218.102
1215.444
1212.801
1210.414
1220.647
1218.101
1215.429
1212.715
1209.979
1223.03
1220.649
1218.1
1215.403
1212.59
1225.244
1223.033
1220.653
1218.096
1215.359
1227.299
1225.248
1223.04
1220.657
1218.084
1229.207
1227.303
1225.256
1223.049
1220.661
1230.983
1229.212
1227.312
1225.269
1223.062
1232.639
1230.988
1229.222
1227.328
1225.288
1234.186
1232.644
1230.999
1229.24
1227.355
1235.633
1234.192
1232.656
1231.02
1229.277
1227.433
1225.431
1223.274
1220.941
1218.402
1215.612
1212.506
1209.023
1236.989
1235.639
1234.203
1232.677
1231.056
1229.332
1227.471
1225.473
1223.321
1220.996
1218.467
1215.693
1212.624
1209.307
1238.261
1236.995
1235.65
1234.223
1232.71
1231.098
1229.364
1227.508
1225.515
1223.369
1221.051
1218.531
1215.769
1212.726
1209.534
1239.454
1238.266
1237.005
1235.669
1234.253
1232.745
1231.126
1229.396
1227.544
1225.557
1223.418
1221.106
1218.593
1215.84
1212.817
1240.573
1239.458
1238.275
1237.022
1235.695
1234.283
1232.769
1231.154
1229.428
1227.581
1225.6
1223.466
1221.16
1218.653
1215.908
1210.953
1212.888
1210.873
1215.454
1212.861
1210.711
1218.104
1215.448
1212.808
1210.449
1220.649
1218.104
1215.435
1212.727
1210.056
1223.031
1220.651
1218.104
1215.411
1212.612
1225.245
1223.034
1220.655
1218.099
1215.367
1227.299
1225.248
1223.04
1220.657
1218.084
1229.206
1227.302
1225.254
1223.046
1220.656
1230.982
1229.21
1227.309
1225.264
1223.053
1232.638
1230.986
1229.219
1227.321
1225.276
1234.185
1232.642
1230.995
1229.233
1227.339
1235.632
1234.19
1232.652
1231.012
1229.257
1236.988
1235.637
1234.2
1232.671
1231.046
1229.328
1227.468
1225.471
1223.319
1220.992
1218.459
1215.673
1212.573
1209.092
1238.26
1236.993
1235.648
1234.219
1232.704
1231.095
1229.362
1227.506
1225.513
1223.368
1221.05
1218.528
1215.761
1212.697
1209.369
1239.453
1238.265
1237.004
1235.666
1234.25
1232.743
1231.124
1229.395
1227.543
1225.557
1223.418
1221.107
1218.594
1215.838
1212.799
1240.573
1239.458
1238.275
1237.021
1235.694
1234.282
1232.768
1231.153
1229.428
1227.581
1225.6
1223.467
1221.162
1218.655
1215.908
1241.624
1240.577
1239.467
1238.29
1237.045
1235.721
1234.303
1232.793
1231.182
1229.462
1227.62
1225.643
1223.516
1221.216
1218.714
1210.957
1212.89
1210.882
1215.457
1212.865
1210.727
1218.107
1215.451
1212.814
1210.48
1220.651
1218.108
1215.441
1212.739
1210.134
1223.033
1220.654
1218.11
1215.421
1212.639
1225.246
1223.036
1220.658
1218.106
1215.381
1227.299
1225.249
1223.041
1220.661
1218.09
1229.206
1227.302
1225.254
1223.046
1220.656
1230.981
1229.21
1227.308
1225.261
1223.048
1232.637
1230.985
1229.216
1227.317
1225.268
1234.184
1232.641
1230.992
1229.227
1227.328
1235.631
1234.188
1232.649
1231.005
1229.243
1236.987
1235.636
1234.197
1232.664
1231.028
1238.259
1236.992
1235.645
1234.214
1232.695
1231.091
1229.36
1227.504
1225.511
1223.366
1221.047
1218.522
1215.748
1212.661
1209.167
1239.452
1238.264
1237.002
1235.663
1234.245
1232.74
1231.122
1229.393
1227.542
1225.556
1223.418
1221.107
1218.595
1215.837
1212.778
1240.572
1239.457
1238.273
1237.019
1235.691
1234.28
1232.766
1231.152
1229.427
1227.581
1225.6
1223.469
1221.165
1218.659
1215.911
1241.623
1240.576
1239.466
1238.289
1237.044
1235.72
1234.303
1232.793
1231.182
1229.462
1227.62
1225.644
1223.518
1221.219
1218.718
1242.61
1241.627
1240.585
1239.48
1238.312
1237.069
1235.74
1234.326
1232.819
1231.212
1229.496
1227.659
1225.688
1223.566
1221.271
1210.959
1212.892
1210.888
1215.459
1212.868
1210.741
1218.11
1215.455
1212.82
1210.508
1220.654
1218.112
1215.447
1212.749
1210.168
1223.035
1220.657
1218.116
1215.432
1212.663
1225.248
1223.039
1220.663
1218.116
1215.401
1227.3
1225.251
1223.045
1220.667
1218.102
1229.207
1227.303
1225.256
1223.049
1220.661
1230.981
1229.21
1227.308
1225.261
1223.048
1232.636
1230.984
1229.215
1227.315
1225.264
1234.183
1232.64
1230.99
1229.223
1227.321
1235.63
1234.186
1232.646
1231
1229.233
1236.986
1235.634
1234.194
1232.658
1231.015
1238.258
1236.99
1235.642
1234.208
1232.678
1239.451
1238.262
1236.999
1235.658
1234.236
1232.736
1231.12
1229.392
1227.541
1225.555
1223.417
1221.107
1218.594
1215.834
1212.76
1240.571
1239.456
1238.271
1237.015
1235.686
1234.277
1232.764
1231.151
1229.426
1227.581
1225.601
1223.471
1221.169
1218.666
1215.917
1241.623
1240.576
1239.465
1238.287
1237.042
1235.718
1234.301
1232.792
1231.181
1229.461
1227.621
1225.646
1223.521
1221.225
1218.726
1242.609
1241.627
1240.584
1239.48
1238.311
1237.069
1235.739
1234.325
1232.819
1231.212
1229.496
1227.66
1225.69
1223.569
1221.275
1243.534
1242.613
1241.635
1240.598
1239.501
1238.334
1237.087
1235.761
1234.349
1232.846
1231.244
1229.532
1227.699
1225.732
1223.614
1212.893
1210.891
1215.46
1212.87
1210.751
1218.112
1215.458
1212.825
1210.533
1220.656
1218.115
1215.453
1212.758
1210.216
1223.038
1220.661
1218.122
1215.443
1212.672
1209.82
1225.25
1223.042
1220.669
1218.127
1215.424
1227.302
1225.253
1223.049
1220.676
1218.119
1229.208
1227.305
1225.259
1223.055
1220.671
1230.982
1229.21
1227.309
1225.264
1223.053
1232.636
1230.984
1229.215
1227.315
1225.264
1234.182
1232.639
1230.989
1229.221
1227.318
1235.629
1234.185
1232.644
1230.996
1229.227
1236.985
1235.633
1234.192
1232.653
1231.006
1238.257
1236.989
1235.64
1234.202
1232.667
1239.45
1238.261
1236.997
1235.652
1234.221
1240.571
1239.454
1238.269
1237.011
1235.678
1234.274
1232.763
1231.149
1229.425
1227.58
1225.6
1223.471
1221.172
1218.673
1215.93
1241.622
1240.575
1239.463
1238.284
1237.037
1235.716
1234.3
1232.79
1231.181
1229.461
1227.621
1225.648
1223.526
1221.233
1218.739
1242.609
1241.626
1240.583
1239.478
1238.308
1237.067
1235.738
1234.324
1232.818
1231.212
1229.497
1227.662
1225.693
1223.575
1221.284
1243.534
1242.613
1241.634
1240.597
1239.5
1238.334
1237.086
1235.76
1234.349
1232.846
1231.244
1229.532
1227.701
1225.735
1223.618
1244.401
1243.538
1242.62
1241.647
1240.617
1239.522
1238.351
1237.106
1235.783
1234.374
1232.875
1231.276
1229.567
1227.739
1225.776
1215.461
1212.871
1210.756
1218.113
1215.46
1212.828
1210.55
1220.658
1218.118
1215.457
1212.765
1210.261
1223.04
1220.664
1218.128
1215.453
1212.684
1209.931
1225.252
1223.045
1220.675
1218.14
1215.447
1212.6
1209.569
1227.304
1225.256
1223.055
1220.687
1218.142
1229.209
1227.307
1225.263
1223.063
1220.687
1230.983
1229.212
1227.312
1225.269
1223.062
1232.637
1230.985
1229.216
1227.317
1225.268
1234.182
1232.639
1230.989
1229.221
1227.318
1235.629
1234.185
1232.643
1230.994
1229.224
1236.985
1235.632
1234.19
1232.65
1231
1238.256
1236.988
1235.637
1234.198
1232.658
1239.449
1238.259
1236.994
1235.647
1234.21
1240.57
1239.453
1238.267
1237.006
1235.664
1241.621
1240.574
1239.461
1238.28
1237.03
1235.713
1234.298
1232.789
1231.179
1229.46
1227.621
1225.649
1223.53
1221.243
1218.76
1242.608
1241.625
1240.582
1239.475
1238.304
1237.064
1235.737
1234.323
1232.817
1231.212
1229.497
1227.664
1225.698
1223.583
1221.298
1243.534
1242.612
1241.633
1240.595
1239.498
1238.332
1237.085
1235.759
1234.349
1232.846
1231.244
1229.534
1227.704
1225.741
1223.627
1244.401
1243.537
1242.62
1241.646
1240.616
1239.521
1238.35
1237.106
1235.782
1234.374
1232.875
1231.276
1229.569
1227.741
1225.779
1245.212
1244.404
1243.544
1242.632
1241.665
1240.637
1239.537
1238.368
1237.126
1235.806
1234.4
1232.904
1231.308
1229.603
1227.777
1218.114
1215.461
1212.83
1210.56
1220.66
1218.12
1215.46
1212.77
1210.294
1223.042
1220.667
1218.133
1215.46
1212.695
1210.018
1225.254
1223.048
1220.681
1218.15
1215.462
1212.621
1209.737
1227.306
1225.259
1223.06
1220.699
1218.171
1215.474
1212.544
1209.352
1229.211
1227.309
1225.268
1223.073
1220.708
1230.984
1229.214
1227.316
1225.276
1223.075
1232.638
1230.986
1229.219
1227.321
1225.276
1234.183
1232.64
1230.99
1229.223
1227.321
1235.629
1234.185
1232.643
1230.994
1229.224
1236.984
1235.631
1234.189
1232.648
1230.997
1238.255
1236.987
1235.636
1234.195
1232.653
1239.449
1238.258
1236.992
1235.643
1234.202
1240.569
1239.452
1238.264
1237.001
1235.654
1241.62
1240.572
1239.459
1238.275
1237.017
1242.607
1241.624
1240.58
1239.471
1238.297
1237.062
1235.735
1234.322
1232.816
1231.211
1229.497
1227.665
1225.702
1223.593
1221.32
1243.533
1242.611
1241.632
1240.593
1239.494
1238.33
1237.084
1235.758
1234.348
1232.846
1231.245
1229.536
1227.708
1225.749
1223.641
1244.4
1243.537
1242.619
1241.645
1240.614
1239.52
1238.349
1237.105
1235.782
1234.374
1232.876
1231.278
1229.572
1227.746
1225.787
1245.211
1244.404
1243.544
1242.631
1241.664
1240.636
1239.537
1238.368
1237.126
1235.806
1234.401
1232.905
1231.309
1229.605
1227.781
1245.969
1245.215
1244.41
1243.555
1242.649
1241.684
1240.651
1239.554
1238.387
1237.148
1235.83
1234.427
1232.934
1231.34
1229.638
1220.66
1218.121
1215.462
1212.773
1210.312
1223.043
1220.669
1218.136
1215.465
1212.703
1210.077
1225.256
1223.051
1220.686
1218.158
1215.473
1212.64
1209.857
1227.308
1225.262
1223.065
1220.709
1218.188
1215.485
1212.578
1209.563
1229.213
1227.312
1225.273
1223.084
1220.737
1218.233
1215.488
1212.494
1209.182
1230.986
1229.216
1227.32
1225.285
1223.095
1232.639
1230.988
1229.222
1227.328
1225.288
1234.184
1232.641
1230.992
1229.227
1227.328
1235.629
1234.185
1232.644
1230.996
1229.227
1236.984
1235.631
1234.189
1232.648
1230.997
1238.255
1236.986
1235.635
1234.193
1232.651
1239.448
1238.257
1236.99
1235.64
1234.198
1240.568
1239.451
1238.262
1236.997
1235.647
1241.62
1240.571
1239.456
1238.271
1237.008
1242.607
1241.623
1240.577
1239.467
1238.285
1243.532
1242.61
1241.63
1240.589
1239.487
1238.327
1237.082
1235.757
1234.347
1232.845
1231.245
1229.537
1227.712
1225.758
1223.662
1244.4
1243.536
1242.617
1241.642
1240.61
1239.517
1238.348
1237.104
1235.781
1234.374
1232.876
1231.279
1229.576
1227.754
1225.801
1245.211
1244.403
1243.543
1242.63
1241.662
1240.635
1239.536
1238.367
1237.126
1235.805
1234.401
1232.906
1231.312
1229.61
1227.788
1245.969
1245.214
1244.41
1243.555
1242.648
1241.683
1240.651
1239.553
1238.387
1237.148
1235.83
1234.428
1232.935
1231.342
1229.641
1246.676
1245.972
1245.221
1244.421
1243.572
1242.666
1241.697
1240.667
1239.571
1238.407
1237.17
1235.854
1234.454
1232.963
1231.372
1223.044
1220.67
1218.138
1215.468
1212.708
1210.106
1225.257
1223.053
1220.689
1218.163
1215.48
1212.654
1209.935
1227.309
1225.264
1223.07
1220.717
1218.199
1215.495
1212.606
1209.712
1229.214
1227.315
1225.278
1223.093
1220.754
1218.241
1215.502
1212.543
1209.422
1230.987
1229.218
1227.325
1225.295
1223.122
1220.807
1218.271
1215.505
1212.46
1209.064
1232.64
1230.99
1229.226
1227.336
1225.306
1234.185
1232.642
1230.995
1229.233
1227.339
1235.63
1234.186
1232.646
1231
1229.233
1236.985
1235.632
1234.19
1232.65
1231
1238.255
1236.986
1235.635
1234.193
1232.651
1239.448
1238.257
1236.99
1235.639
1234.195
1240.568
1239.45
1238.261
1236.995
1235.643
1241.619
1240.57
1239.454
1238.267
1237.001
1242.606
1241.622
1240.575
1239.462
1238.277
1243.531
1242.609
1241.628
1240.585
1239.476
1244.399
1243.535
1242.615
1241.639
1240.604
1239.515
1238.346
1237.103
1235.78
1234.373
1232.876
1231.281
1229.579
1227.762
1225.82
1245.21
1244.402
1243.542
1242.627
1241.659
1240.633
1239.534
1238.366
1237.125
1235.805
1234.401
1232.907
1231.316
1229.617
1227.8
1245.969
1245.214
1244.409
1243.553
1242.646
1241.682
1240.65
1239.553
1238.387
1237.147
1235.83
1234.429
1232.937
1231.347
1229.648
1246.676
1245.972
1245.22
1244.42
1243.571
1242.666
1241.697
1240.666
1239.571
1238.407
1237.17
1235.855
1234.455
1232.965
1231.374
1247.333
1246.679
1245.978
1245.231
1244.437
1243.588
1242.679
1241.712
1240.683
1239.59
1238.428
1237.192
1235.879
1234.481
1232.991
1225.258
1223.054
1220.69
1218.166
1215.483
1212.661
1209.974
1227.31
1225.266
1223.072
1220.721
1218.206
1215.502
1212.624
1209.807
1229.216
1227.317
1225.282
1223.1
1220.765
1218.248
1215.514
1212.579
1209.591
1230.989
1229.221
1227.329
1225.304
1223.138
1220.813
1218.278
1215.524
1212.52
1209.32
1232.642
1230.992
1229.23
1227.345
1225.331
1223.189
1220.85
1218.31
1215.529
1212.448
1209.001
1234.186
1232.644
1230.999
1229.24
1227.355
1235.631
1234.188
1232.649
1231.005
1229.243
1236.985
1235.633
1234.192
1232.653
1231.006
1238.255
1236.987
1235.636
1234.195
1232.653
1239.448
1238.257
1236.99
1235.639
1234.195
1240.567
1239.449
1238.26
1236.993
1235.641
1241.618
1240.569
1239.453
1238.265
1236.997
1242.605
1241.621
1240.574
1239.459
1238.271
1243.531
1242.608
1241.626
1240.581
1239.468
1244.398
1243.534
1242.613
1241.635
1240.594
1245.21
1244.401
1243.54
1242.624
1241.653
1240.631
1239.533
1238.365
1237.124
1235.805
1234.401
1232.908
1231.319
1229.625
1227.818
1245.968
1245.213
1244.408
1243.551
1242.643
1241.68
1240.648
1239.552
1238.386
1237.147
1235.83
1234.43
1232.94
1231.353
1229.659
1246.675
1245.971
1245.22
1244.419
1243.569
1242.665
1241.696
1240.666
1239.571
1238.407
1237.17
1235.856
1234.458
1232.969
1231.381
1247.333
1246.678
1245.978
1245.23
1244.436
1243.588
1242.679
1241.712
1240.683
1239.59
1238.428
1237.193
1235.88
1234.483
1232.994
1247.942
1247.336
1246.684
1245.988
1245.246
1244.452
1243.6
1242.693
1241.727
1240.7
1239.609
1238.449
1237.215
1235.904
1234.507
1227.311
1225.267
1223.074
1220.724
1218.209
1215.506
1212.634
1209.853
1229.217
1227.318
1225.284
1223.105
1220.771
1218.253
1215.522
1212.602
1209.699
1230.99
1229.223
1227.332
1225.31
1223.147
1220.819
1218.285
1215.537
1212.563
1209.501
1232.643
1230.994
1229.234
1227.353
1225.345
1223.195
1220.855
1218.318
1215.552
1212.515
1209.26
1234.187
1232.646
1231.003
1229.248
1227.377
1225.393
1223.232
1220.894
1218.353
1215.564
1212.463
1208.988
1235.632
1234.19
1232.652
1231.012
1229.257
1236.986
1235.634
1234.194
1232.658
1231.015
1238.256
1236.988
1235.637
1234.198
1232.658
1239.448
1238.257
1236.99
1235.64
1234.198
1240.567
1239.449
1238.26
1236.993
1235.641
1241.618
1240.569
1239.452
1238.264
1236.995
1242.605
1241.62
1240.572
1239.457
1238.267
1243.53
1242.607
1241.624
1240.578
1239.462
1244.397
1243.533
1242.612
1241.631
1240.586
1245.209
1244.4
1243.538
1242.62
1241.643
1245.968
1245.212
1244.406
1243.548
1242.637
1241.678
1240.647
1239.551
1238.385
1237.147
1235.83
1234.431
1232.943
1231.36
1229.675
1246.675
1245.971
1245.218
1244.417
1243.566
1242.663
1241.695
1240.665
1239.57
1238.407
1237.171
1235.857
1234.461
1232.975
1231.391
1247.332
1246.678
1245.977
1245.229
1244.434
1243.587
1242.678
1241.711
1240.683
1239.59
1238.428
1237.194
1235.882
1234.487
1233
1247.942
1247.335
1246.684
1245.987
1245.245
1244.452
1243.6
1242.693
1241.727
1240.7
1239.609
1238.449
1237.216
1235.905
1234.509
1248.505
1247.945
1247.341
1246.694
1246.002
1245.261
1244.464
1243.614
1242.708
1241.744
1240.719
1239.629
1238.47
1237.238
1235.927
1229.217
1227.319
1225.285
1223.107
1220.774
1218.256
1215.526
1212.614
1209.752
1230.991
1229.224
1227.335
1225.314
1223.153
1220.824
1218.289
1215.547
1212.591
1209.617
1232.644
1230.996
1229.237
1227.358
1225.354
1223.2
1220.859
1218.325
1215.568
1212.562
1209.446
1234.188
1232.648
1231.006
1229.255
1227.39
1225.397
1223.235
1220.899
1218.363
1215.588
1212.531
1209.242
1235.633
1234.192
1232.656
1231.02
1229.277
1227.433
1225.431
1223.274
1220.941
1218.402
1215.612
1212.506
1209.023
1236.987
1235.636
1234.197
1232.664
1231.028
1238.257
1236.989
1235.64
1234.202
1232.667
1239.449
1238.258
1236.992
1235.643
1234.202
1240.568
1239.45
1238.261
1236.995
1235.643
1241.618
1240.569
1239.452
1238.264
1236.995
1242.604
1241.62
1240.572
1239.456
1238.265
1243.53
1242.606
1241.623
1240.576
1239.459
1244.397
1243.532
1242.61
1241.628
1240.581
1245.208
1244.399
1243.536
1242.617
1241.636
1245.967
1245.211
1244.404
1243.544
1242.628
1246.674
1245.97
1245.217
1244.414
1243.561
1242.661
1241.694
1240.664
1239.569
1238.406
1237.17
1235.858
1234.463
1232.981
1231.405
1247.332
1246.677
1245.976
1245.227
1244.431
1243.585
1242.677
1241.71
1240.682
1239.589
1238.428
1237.195
1235.885
1234.492
1233.009
1247.942
1247.335
1246.683
1245.986
1245.243
1244.451
1243.599
1242.692
1241.727
1240.7
1239.609
1238.45
1237.218
1235.909
1234.515
1248.505
1247.945
1247.341
1246.693
1246.001
1245.26
1244.464
1243.613
1242.708
1241.744
1240.719
1239.629
1238.471
1237.24
1235.93
1249.024
1248.508
1247.95
1247.35
1246.707
1246.017
1245.272
1244.476
1243.628
1242.723
1241.761
1240.737
1239.649
1238.491
1237.26
1230.991
1229.225
1227.336
1225.316
1223.156
1220.826
1218.292
1215.551
1212.604
1209.674
1232.645
1230.997
1229.239
1227.362
1225.359
1223.204
1220.863
1218.329
1215.578
1212.592
1209.566
1234.19
1232.65
1231.009
1229.26
1227.398
1225.402
1223.239
1220.903
1218.369
1215.605
1212.578
1209.425
1235.635
1234.193
1232.659
1231.026
1229.289
1227.438
1225.434
1223.277
1220.946
1218.412
1215.636
1212.568
1209.261
1236.988
1235.637
1234.2
1232.671
1231.046
1229.328
1227.468
1225.471
1223.319
1220.992
1218.459
1215.673
1212.573
1209.092
1238.258
1236.99
1235.642
1234.208
1232.678
1239.449
1238.259
1236.994
1235.647
1234.21
1240.568
1239.451
1238.262
1236.997
1235.647
1241.618
1240.569
1239.453
1238.265
1236.997
1242.604
1241.62
1240.572
1239.456
1238.265
1243.529
1242.606
1241.622
1240.575
1239.457
1244.396
1243.531
1242.609
1241.626
1240.578
1245.208
1244.398
1243.535
1242.614
1241.631
1245.966
1245.21
1244.403
1243.541
1242.621
1246.673
1245.969
1245.215
1244.41
1243.552
1247.331
1246.676
1245.974
1245.224
1244.426
1243.583
1242.676
1241.709
1240.681
1239.589
1238.428
1237.196
1235.887
1234.498
1233.022
1247.941
1247.334
1246.682
1245.984
1245.241
1244.449
1243.598
1242.692
1241.726
1240.7
1239.61
1238.451
1237.221
1235.914
1234.523
1248.505
1247.944
1247.34
1246.692
1246
1245.259
1244.463
1243.613
1242.707
1241.744
1240.719
1239.63
1238.473
1237.243
1235.935
1249.023
1248.508
1247.95
1247.35
1246.707
1246.016
1245.272
1244.476
1243.628
1242.723
1241.761
1240.738
1239.65
1238.493
1237.262
1249.498
1249.026
1248.513
1247.959
1247.364
1246.721
1246.027
1245.284
1244.49
1243.642
1242.739
1241.778
1240.756
1239.668
1238.512
1232.645
1230.998
1229.24
1227.364
1225.361
1223.206
1220.864
1218.332
1215.583
1212.607
1209.624
1234.19
1232.651
1231.011
1229.264
1227.403
1225.405
1223.241
1220.905
1218.374
1215.616
1212.609
1209.544
1235.636
1234.195
1232.662
1231.03
1229.296
1227.442
1225.437
1223.28
1220.949
1218.418
1215.652
1212.612
1209.436
1236.989
1235.639
1234.203
1232.677
1231.056
1229.332
1227.471
1225.473
1223.321
1220.996
1218.467
1215.693
1212.624
1209.307
1238.259
1236.992
1235.645
1234.214
1232.695
1231.091
1229.36
1227.504
1225.511
1223.366
1221.047
1218.522
1215.748
1212.661
1209.167
1239.45
1238.261
1236.997
1235.652
1234.221
1240.569
1239.452
1238.264
1237.001
1235.654
1241.619
1240.57
1239.454
1238.267
1237.001
1242.605
1241.62
1240.572
1239.457
1238.267
1243.529
1242.606
1241.622
1240.575
1239.457
1244.396
1243.531
1242.608
1241.625
1240.576
1245.207
1244.398
1243.534
1242.612
1241.628
1245.966
1245.209
1244.401
1243.538
1242.617
1246.673
1245.968
1245.214
1244.407
1243.546
1247.331
1246.675
1245.973
1245.221
1244.418
1247.941
1247.333
1246.681
1245.981
1245.236
1244.447
1243.597
1242.691
1241.726
1240.7
1239.61
1238.452
1237.223
1235.919
1234.536
1248.504
1247.944
1247.339
1246.69
1245.997
1245.258
1244.462
1243.612
1242.707
1241.744
1240.719
1239.631
1238.475
1237.248
1235.943
1249.023
1248.507
1247.949
1247.348
1246.705
1246.015
1245.271
1244.476
1243.627
1242.723
1241.761
1240.738
1239.651
1238.496
1237.267
1249.498
1249.026
1248.513
1247.959
1247.363
1246.721
1246.027
1245.284
1244.49
1243.642
1242.74
1241.779
1240.757
1239.67
1238.514
1249.929
1249.5
1249.031
1248.522
1247.972
1247.377
1246.732
1246.039
1245.297
1244.504
1243.658
1242.756
1241.796
1240.774
1239.687
1234.191
1232.651
1231.012
1229.265
1227.405
1225.407
1223.242
1220.906
1218.376
1215.621
1212.624
1209.603
1235.636
1234.196
1232.663
1231.033
1229.3
1227.445
1225.439
1223.282
1220.951
1218.422
1215.661
1212.64
1209.552
1236.99
1235.64
1234.205
1232.681
1231.063
1229.336
1227.474
1225.475
1223.323
1220.998
1218.472
1215.707
1212.662
1209.474
1238.26
1236.993
1235.648
1234.219
1232.704
1231.095
1229.362
1227.506
1225.513
1223.368
1221.05
1218.528
1215.761
1212.697
1209.369
1239.451
1238.262
1236.999
1235.658
1234.236
1232.736
1231.12
1229.392
1227.541
1225.555
1223.417
1221.107
1218.594
1215.834
1212.76
1240.57
1239.453
1238.267
1237.006
1235.664
1241.62
1240.571
1239.456
1238.271
1237.008
1242.605
1241.621
1240.574
1239.459
1238.271
1243.53
1242.606
1241.623
1240.576
1239.459
1244.396
1243.531
1242.608
1241.625
1240.576
1245.207
1244.397
1243.533
1242.611
1241.626
1245.965
1245.209
1244.4
1243.537
1242.614
1246.672
1245.967
1245.212
1244.405
1243.541
1247.33
1246.674
1245.971
1245.218
1244.412
1247.94
1247.333
1246.679
1245.978
1245.228
1248.504
1247.943
1247.338
1246.687
1245.993
1245.256
1244.461
1243.611
1242.706
1241.743
1240.719
1239.632
1238.478
1237.253
1235.954
1249.023
1248.507
1247.948
1247.347
1246.703
1246.014
1245.27
1244.475
1243.627
1242.723
1241.762
1240.739
1239.653
1238.5
1237.275
1249.497
1249.025
1248.512
1247.957
1247.361
1246.72
1246.026
1245.283
1244.489
1243.642
1242.74
1241.78
1240.758
1239.673
1238.518
1249.929
1249.5
1249.031
1248.521
1247.971
1247.377
1246.731
1246.039
1245.297
1244.504
1243.658
1242.756
1241.797
1240.776
1239.689
1250.319
1249.932
1249.505
1249.039
1248.534
1247.985
1247.387
1246.743
1246.051
1245.31
1244.518
1243.673
1242.773
1241.813
1240.792
1235.637
1234.196
1232.664
1231.035
1229.302
1227.446
1225.441
1223.282
1220.952
1218.424
1215.666
1212.655
1209.61
1236.991
1235.641
1234.207
1232.684
1231.066
1229.338
1227.476
1225.476
1223.325
1221
1218.475
1215.715
1212.687
1209.588
1238.261
1236.995
1235.65
1234.223
1232.71
1231.098
1229.364
1227.508
1225.515
1223.369
1221.051
1218.531
1215.769
1212.726
1209.534
1239.452
1238.264
1237.002
1235.663
1234.245
1232.74
1231.122
1229.393
1227.542
1225.556
1223.418
1221.107
1218.595
1215.837
1212.778
1240.571
1239.454
1238.269
1237.011
1235.678
1234.274
1232.763
1231.149
1229.425
1227.58
1225.6
1223.471
1221.172
1218.673
1215.93
1241.62
1240.572
1239.459
1238.275
1237.017
1242.606
1241.622
1240.575
1239.462
1238.277
1243.53
1242.607
1241.624
1240.578
1239.462
1244.396
1243.531
1242.609
1241.626
1240.578
1245.207
1244.397
1243.533
1242.611
1241.626
1245.965
1245.209
1244.4
1243.536
1242.612
1246.672
1245.967
1245.211
1244.403
1243.538
1247.33
1246.674
1245.97
1245.216
1244.407
1247.94
1247.332
1246.678
1245.975
1245.222
1248.503
1247.942
1247.336
1246.684
1245.985
1249.022
1248.506