/*--------------------------------*- C++ -*----------------------------------*\
| =========                 |                                                 |
| \\      /  F ield         | OpenFOAM: The Open Source CFD Toolbox           |
|  \\    /   O peration     | Version:  2306                                  |
|   \\  /    A nd           | Website:  www.openfoam.com                      |
|    \\/     M anipulation  |                                                 |
\*---------------------------------------------------------------------------*/
FoamFile
{
    version     2.0;
    format      ascii;
    arch        "LSB;label=32;scalar=64";
    class       volScalarField;
    location    "0.9/air";
    object      diffSp.O2;
}
// * * * * * * * * * * * * * * * * * * * * * * * * * * * * * * * * * * * * * //

dimensions      [0 2 -1 0 0 0 0];

internalField   nonuniform List<scalar> 
16000
(
0.0002299924
0.000225749
0.0002349776
0.0002256743
0.0002234091
0.0002339574
0.0002155009
0.0002362383
0.0002339406
0.0002232693
0.0002220808
0.0002330767
0.0002092594
0.0002358448
0.0002309417
0.000209157
0.0002372525
0.0002358626
0.0002330412
0.0002218632
0.0002214646
0.0002324306
0.0002055518
0.0002354935
0.0002283268
0.0001999338
0.0002370737
0.0002347112
0.0002282859
0.0002052798
0.0002381419
0.0002371044
0.0002355239
0.000232368
0.0002211426
0.0002214646
0.0002320887
0.0002038034
0.0002352256
0.0002263987
0.0001942409
0.0002369188
0.0002336652
0.000224082
0.000194016
0.0002380449
0.0002366016
0.0002336753
0.0002262817
0.0002032645
0.0002389503
0.0002380781
0.0002369741
0.0002352667
0.00023199
0.0002209994
0.0001364317
0.0002220808
0.0002320887
0.0002038034
0.0002350801
0.0002253766
0.0001914992
0.0002368022
0.0002328598
0.0002209514
0.0001868841
0.0002379651
0.0002361516
0.0002319701
0.000220844
0.0001908763
0.0002388867
0.0002378206
0.0002361817
0.0002328739
0.0002251465
0.0002028813
0.0002396924
0.0002389185
0.0002380255
0.0002368829
0.0002351337
0.0002319506
0.0002214249
0.0001364161
0.0001369886
0.0001367763
0.0002234091
0.0002324306
0.0002055518
0.0002350801
0.0002253766
0.0001914992
0.0002367391
0.0002324204
0.0002192837
0.0001833996
0.0002379069
0.0002358073
0.0002306427
0.0002167595
0.0001829231
0.0002388371
0.000237598
0.0002354585
0.0002306405
0.0002189949
0.0001902738
0.0002396434
0.0002387593
0.0002376331
0.0002358737
0.0002324392
0.0002250119
0.000204113
0.0002403806
0.0002396725
0.0002388951
0.0002379961
0.0002368504
0.0002351544
0.0002322641
0.0002224997
0.0001363819
0.0001369855
0.000136754
0.0001375306
0.0001373042
0.0001371235
0.000225749
0.0002330767
0.0002092594
0.0002352256
0.0002263987
0.0001942409
0.0002367391
0.0002324204
0.0002192837
0.0001833996
0.0002378761
0.0002356196
0.0002299142
0.0002145729
0.0001790066
0.0002388023
0.0002374322
0.0002348972
0.0002288861
0.0002143493
0.0001821546
0.0002396065
0.000238627
0.0002372859
0.000234939
0.0002299049
0.0002187619
0.0001921962
0.0002403388
0.0002395543
0.0002386614
0.0002375126
0.0002357374
0.0002324623
0.0002259168
0.0002071385
0.0002410211
0.0002403653
0.0002396597
0.0002388882
0.0002379999
0.0002368912
0.0002353402
0.0002329194
0.0002244744
0.0001363159
0.0001369801
0.0001367017
0.0001375304
0.0001373014
0.0001370958
0.0001380294
0.0001378082
0.0001376202
0.0001374753
0.0002299924
0.0002339574
0.0002155009
0.0002354935
0.0002283268
0.0001999338
0.0002368022
0.0002328598
0.0002209514
0.0001868841
0.0002378761
0.0002356196
0.0002299142
0.0002145729
0.0001790066
0.0002387842
0.0002373432
0.0002345888
0.0002279182
0.0002118538
0.0001781493
0.0002395813
0.0002385317
0.0002370229
0.000234205
0.0002279017
0.0002140334
0.0001845769
0.000240308
0.000239459
0.0002384622
0.0002370773
0.000234695
0.000229918
0.0002202048
0.0001968392
0.0002409836
0.0002402662
0.0002394909
0.0002386113
0.0002374875
0.0002358167
0.0002329721
0.0002278093
0.0002124584
0.0002416199
0.0002410076
0.0002403563
0.0002396604
0.0002389038
0.0002380446
0.0002370136
0.0002356887
0.0002338977
0.0002280698
0.0001361397
0.0001369745
0.0001365899
0.0001375314
0.0001372967
0.0001370297
0.00013803
0.00013781
0.0001376174
0.0001374439
0.0001384855
0.0001382717
0.0001380854
0.0001379377
0.000137829
0.0002349776
0.0002256743
0.0002358448
0.0002309417
0.000209157
0.0002369188
0.0002336652
0.000224082
0.000194016
0.0002379069
0.0002358073
0.0002306427
0.0002167595
0.0001829231
0.0002387842
0.0002373432
0.0002345888
0.0002279182
0.0002118538
0.0001781493
0.0002395684
0.0002384816
0.0002368805
0.0002337989
0.0002267925
0.0002114904
0.0001808335
0.0002402872
0.0002393923
0.0002383162
0.0002367431
0.0002338689
0.0002278993
0.000215888
0.0001903638
0.0002409561
0.0002401878
0.0002393515
0.0002383712
0.0002370194
0.0002347996
0.0002307212
0.0002232124
0.0002047211
0.0002415854
0.0002409191
0.0002402168
0.0002394663
0.0002386248
0.0002375799
0.0002361309
0.0002339392
0.0002305596
0.0002212721
0.0002421809
0.0002416072
0.0002409998
0.000240359
0.0002396786
0.0002389467
0.0002381365
0.0002372238
0.0002362065
0.0002352442
0.000134912
0.0001369903
0.0001363061
0.0001375381
0.0001372942
0.00013689
0.0001380328
0.0001378163
0.0001376128
0.0001373693
0.0001384864
0.0001382748
0.0001380888
0.0001379347
0.0001377957
0.0001389079
0.0001386976
0.0001385135
0.000138363
0.0001382534
5.842353e-05
0.0002362383
0.0002339406
0.0002232693
0.0002370737
0.0002347112
0.0002282859
0.0002052798
0.0002379651
0.0002361516
0.0002319701
0.000220844
0.0001908763
0.0002388023
0.0002374322
0.0002348972
0.0002288861
0.0002143493
0.0001821546
0.0002395684
0.0002384816
0.0002368805
0.0002337989
0.0002267925
0.0002114904
0.0001808335
0.0002402768
0.0002393579
0.0002382388
0.0002365605
0.0002334092
0.0002267793
0.0002135677
0.000187212
0.0002409377
0.0002401338
0.0002392525
0.0002381927
0.0002366553
0.0002339868
0.0002289292
0.0002197434
0.0001999631
0.0002415602
0.0002408495
0.0002401039
0.0002393039
0.0002383792
0.0002371472
0.0002352781
0.0002322421
0.0002275066
0.0002169999
0.0002421488
0.0002415257
0.0002408758
0.0002402013
0.0002394913
0.0002387153
0.0002378041
0.0002366784
0.0002352995
0.0002339906
0.000133453
0.0002427077
0.0002421687
0.0002415999
0.0002410028
0.0002403768
0.0002397181
0.0002390223
0.0002382853
0.0002375465
0.0002369974
0.0001372634
0.000135356
0.0001375872
0.0001373171
0.0001365758
0.0001380424
0.0001378369
0.0001376098
0.000137218
0.0001384894
0.0001382839
0.0001380988
0.0001379295
0.0001377178
0.0001389088
0.0001387009
0.0001385185
0.0001383674
0.0001382503
5.84091e-05
0.0001393001
0.0001390946
0.000138909
0.0001387552
0.0001386379
5.859732e-05
5.8433e-05
0.0002372525
0.0002358626
0.0002330412
0.0002218632
0.0002380449
0.0002366016
0.0002336753
0.0002262817
0.0002032645
0.0002388371
0.000237598
0.0002354585
0.0002306405
0.0002189949
0.0001902738
0.0002395813
0.0002385317
0.0002370229
0.000234205
0.0002279017
0.0002140334
0.0001845769
0.0002402768
0.0002393579
0.0002382388
0.0002365605
0.0002334092
0.0002267793
0.0002135677
0.000187212
0.0002409285
0.0002401063
0.000239201
0.0002380972
0.000236455
0.0002335323
0.0002279332
0.0002178804
0.000197673
0.0002415433
0.000240802
0.0002400251
0.000239187
0.0002381939
0.0002368052
0.0002345871
0.0002308764
0.0002251867
0.0002143732
0.0002421253
0.0002414618
0.0002407762
0.0002400721
0.0002393325
0.000238506
0.000237478
0.0002361075
0.000234316
0.0002326596
0.0001322985
0.0002426778
0.0002420927
0.0002414857
0.0002408632
0.000240228
0.0002395752
0.0002388944
0.0002381708
0.0002374561
0.0002370119
0.0001371149
0.0001342063
0.0002432033
0.000242696
0.0002421616
0.0002416024
0.0002410192
0.0002404127
0.0002397835
0.0002391405
0.0002385207
0.0002381042
0.0001380913
0.000137454
0.0001358275
0.0001380972
0.0001379173
0.0001376247
0.0001369135
0.0001384992
0.0001383097
0.000138126
0.0001379238
0.0001375669
0.0001389117
0.0001387103
0.0001385322
0.0001383793
0.0001382441
5.837567e-05
0.0001393009
0.0001390977
0.0001389142
0.0001387615
0.0001386428
5.859597e-05
5.841859e-05
0.0001396663
0.0001394653
0.0001392805
0.0001391203
0.000138994
5.875382e-05
5.860569e-05
5.844237e-05
0.0002381419
0.0002371044
0.0002355239
0.000232368
0.0002211426
0.0002388867
0.0002378206
0.0002361817
0.0002328739
0.0002251465
0.0002028813
0.0002396065
0.000238627
0.0002372859
0.000234939
0.0002299049
0.0002187619
0.0001921962
0.0002402872
0.0002393923
0.0002383162
0.0002367431
0.0002338689
0.0002278993
0.000215888
0.0001903638
0.0002409285
0.0002401063
0.000239201
0.0002380972
0.000236455
0.0002335323
0.0002279332
0.0002178804
0.000197673
0.0002415349
0.0002407779
0.0002399847
0.0002391258
0.0002380938
0.0002366152
0.0002341979
0.0002301138
0.0002239369
0.000213106
0.0002421096
0.0002414183
0.0002407074
0.0002399811
0.0002392167
0.0002383443
0.0002372107
0.0002356242
0.0002334875
0.0002315948
0.0001315237
0.0002426557
0.0002420331
0.0002413945
0.0002407501
0.000240105
0.0002394506
0.0002387652
0.0002380122
0.0002372325
0.0002367483
0.0001368544
0.0001332457
0.0002431752
0.0002426246
0.000242055
0.0002414741
0.0002408884
0.0002403045
0.0002397281
0.0002391762
0.0002387005
0.0002384962
0.0001382439
0.0001373503
0.000134924
0.0002436702
0.000243192
0.000242689
0.0002421636
0.0002416173
0.0002410518
0.0002404709
0.0002398844
0.0002393312
0.0002389627
0.0001386275
0.0001382413
0.0001376833
0.0001363239
0.0001385519
0.0001384008
0.0001382073
0.0001379263
0.0001372921
0.0001389209
0.0001387361
0.0001385665
0.0001384076
0.0001382346
5.831235e-05
0.0001393035
0.0001391067
0.0001389284
0.0001387779
0.0001386551
5.859309e-05
5.838521e-05
0.000139667
0.0001394683
0.0001392855
0.0001391269
0.0001390011
5.875598e-05
5.860434e-05
5.842797e-05
0.0001400091
0.0001398137
0.00013963
0.0001394663
0.0001393287
5.889946e-05
5.876111e-05
5.861395e-05
5.845187e-05
0.0002389503
0.0002380781
0.0002369741
0.0002352667
0.00023199
0.0002209994
0.0002396434
0.0002387593
0.0002376331
0.0002358737
0.0002324392
0.0002250119
0.000204113
0.000240308
0.000239459
0.0002384622
0.0002370773
0.000234695
0.000229918
0.0002202048
0.0001968392
0.0002409377
0.0002401338
0.0002392525
0.0002381927
0.0002366553
0.0002339868
0.0002289292
0.0002197434
0.0001999631
0.0002415349
0.0002407779
0.0002399847
0.0002391258
0.0002380938
0.0002366152
0.0002341979
0.0002301138
0.0002239369
0.000213106
0.0002421018
0.0002413964
0.0002406723
0.0002399342
0.0002391555
0.0002382556
0.0002370592
0.0002353465
0.0002330162
0.0002310098
0.0001311366
0.000242641
0.0002419926
0.0002413315
0.0002406713
0.0002400174
0.0002393573
0.0002386572
0.0002378602
0.0002369968
0.0002364548
0.000136619
0.0001325847
0.0002431545
0.0002425687
0.0002419698
0.0002413705
0.0002407817
0.0002402129
0.0002396698
0.0002391653
0.0002387414
0.0002385943
0.0001382617
0.0001371518
0.00013414
0.0002436437
0.0002431249
0.0002425888
0.0002420435
0.000241497
0.000240958
0.0002404398
0.0002399645
0.0002395882
0.0002394485
0.000138859
0.0001383815
0.0001376023
0.000135621
0.0002441104
0.0002436594
0.0002431853
0.0002426906
0.0002421771
0.000241647
0.0002411043
0.0002405601
0.0002400485
0.000239705
0.0001390514
0.0001387536
0.0001384195
0.0001379387
0.0001368339
0.0001389693
0.0001388242
0.0001386614
0.0001384768
0.0001382241
5.820235e-05
0.0001393119
0.0001391309
0.0001389628
0.0001388145
0.0001386806
5.858804e-05
5.832213e-05
0.0001396695
0.0001394766
0.0001392991
0.0001391438
0.0001390183
5.876116e-05
5.860145e-05
5.839466e-05
0.0001400097
0.0001398164
0.0001396347
0.0001394727
0.0001393361
5.890258e-05
5.876327e-05
5.861261e-05
5.843749e-05
0.000140331
0.0001401414
0.0001399604
0.0001397944
0.0001396493
5.903721e-05
5.890582e-05
5.876829e-05
5.862231e-05
5.846113e-05
0.0002396924
0.0002389185
0.0002380255
0.0002368829
0.0002351337
0.0002319506
0.0002214249
0.0002403388
0.0002395543
0.0002386614
0.0002375126
0.0002357374
0.0002324623
0.0002259168
0.0002071385
0.0002409561
0.0002401878
0.0002393515
0.0002383712
0.0002370194
0.0002347996
0.0002307212
0.0002232124
0.0002047211
0.0002415433
0.000240802
0.0002400251
0.000239187
0.0002381939
0.0002368052
0.0002345871
0.0002308764
0.0002251867
0.0002143732
0.0002421018
0.0002413964
0.0002406723
0.0002399342
0.0002391555
0.0002382556
0.0002370592
0.0002353465
0.0002330162
0.0002310098
0.0001311366
0.0002426337
0.0002419721
0.0002412996
0.000240631
0.000239972
0.0002393072
0.0002385955
0.000237768
0.0002368507
0.0002362736
0.0001364838
0.0001322508
0.0002431407
0.0002425307
0.0002419111
0.0002412986
0.0002407068
0.0002401462
0.0002396199
0.0002391339
0.0002387198
0.0002385858
0.0001382346
0.0001369671
0.0001335881
0.0002436242
0.0002430723
0.0002425087
0.0002419468
0.0002413993
0.00024088
0.0002404062
0.000240001
0.0002397144
0.0002396579
0.0001389636
0.0001384131
0.0001374505
0.0001349952
0.0002440855
0.0002435961
0.0002430908
0.0002425775
0.0002420642
0.0002415605
0.0002410801
0.0002406478
0.0002403126
0.0002401895
0.0001392924
0.0001389568
0.0001385353
0.0001378696
0.0001363002
0.0002445257
0.0002441001
0.0002436528
0.0002431865
0.0002427029
0.0002422043
0.000241695
0.0002411849
0.0002407059
0.0002403763
0.0001394244
0.0001391607
0.0001389023
0.0001386153
0.0001382063
5.803043e-05
0.0001393557
0.0001392123
0.0001390557
0.0001388988
0.0001387327
5.858075e-05
5.821312e-05
0.000139677
0.0001394988
0.0001393315
0.000139181
0.0001390529
5.877109e-05
5.859631e-05
5.833186e-05
0.0001400119
0.0001398241
0.0001396473
0.0001394889
0.0001393541
5.890994e-05
5.876844e-05
5.86097e-05
5.840426e-05
0.0001403315
0.0001401439
0.0001399648
0.0001398005
0.0001396565
5.904049e-05
5.890894e-05
5.877046e-05
5.862097e-05
5.844679e-05
0.0001406337
0.0001404506
0.0001402731
0.0001401071
0.0001399563
5.917005e-05
5.904279e-05
5.891207e-05
5.877555e-05
5.863044e-05
3.815976e-05
0.0002403806
0.0002396725
0.0002388951
0.0002379961
0.0002368504
0.0002351544
0.0002322641
0.0002224997
0.0002409836
0.0002402662
0.0002394909
0.0002386113
0.0002374875
0.0002358167
0.0002329721
0.0002278093
0.0002124584
0.0002415602
0.0002408495
0.0002401039
0.0002393039
0.0002383792
0.0002371472
0.0002352781
0.0002322421
0.0002275066
0.0002169999
0.0002421096
0.0002414183
0.0002407074
0.0002399811
0.0002392167
0.0002383443
0.0002372107
0.0002356242
0.0002334875
0.0002315948
0.0001315237
0.0002426337
0.0002419721
0.0002412996
0.000240631
0.000239972
0.0002393072
0.0002385955
0.000237768
0.0002368507
0.0002362736
0.0001364838
0.0001322508
0.0002431338
0.0002425115
0.0002418814
0.000241262
0.0002406682
0.0002401109
0.000239591
0.0002391099
0.0002386938
0.0002385612
0.00013821
0.0001368595
0.0001333062
0.0002436112
0.0002430364
0.0002424536
0.0002418797
0.0002413311
0.000240824
0.0002403769
0.0002400101
0.0002397657
0.0002397444
0.0001390074
0.0001384022
0.0001373069
0.0001345461
0.0002440671
0.0002435465
0.0002430153
0.0002424864
0.0002419727
0.0002414891
0.0002410542
0.0002406958
0.0002404576
0.0002404226
0.0001394186
0.0001390588
0.0001385713
0.0001377526
0.0001358167
0.0002445022
0.0002440404
0.0002435637
0.0002430798
0.0002425962
0.0002421225
0.000241672
0.0002412677
0.000240955
0.000240829
0.000139653
0.0001393705
0.0001390693
0.0001387035
0.0001381441
5.783357e-05
0.0002449176
0.0002445159
0.0002440938
0.0002436538
0.0002431978
0.000242728
0.0002422485
0.0002417686
0.0002413168
0.0002409992
0.0001397665
0.0001395208
0.000139289
0.0001390646
0.0001388173
5.856779e-05
5.804399e-05
0.0001397166
0.000139573
0.000139418
0.0001392649
0.0001391208
5.878945e-05
5.858874e-05
5.822384e-05
0.0001400187
0.0001398444
0.0001396773
0.0001395243
0.0001393899
5.892392e-05
5.877826e-05
5.860447e-05
5.834176e-05
0.0001403335
0.000140151
0.0001399765
0.0001398157
0.0001396739
5.904822e-05
5.89163e-05
5.877561e-05
5.861805e-05
5.841365e-05
0.0001406342
0.0001404529
0.0001402772
0.0001401127
0.0001399631
5.917324e-05
5.904607e-05
5.89152e-05
5.877772e-05
5.86291e-05
3.815046e-05
0.0001409189
0.0001407425
0.0001405696
0.0001404048
0.0001402512
5.929797e-05
5.917498e-05
5.904827e-05
5.89184e-05
5.87826e-05
3.826914e-05
3.81679e-05
0.0002410211
0.0002403653
0.0002396597
0.0002388882
0.0002379999
0.0002368912
0.0002353402
0.0002329194
0.0002244744
0.0002415854
0.0002409191
0.0002402168
0.0002394663
0.0002386248
0.0002375799
0.0002361309
0.0002339392
0.0002305596
0.0002212721
0.0002421253
0.0002414618
0.0002407762
0.0002400721
0.0002393325
0.000238506
0.000237478
0.0002361075
0.000234316
0.0002326596
0.0001322985
0.000242641
0.0002419926
0.0002413315
0.0002406713
0.0002400174
0.0002393573
0.0002386572
0.0002378602
0.0002369968
0.0002364548
0.000136619
0.0001325847
0.0002431338
0.0002425115
0.0002418814
0.000241262
0.0002406682
0.0002401109
0.000239591
0.0002391099
0.0002386938
0.0002385612
0.00013821
0.0001368595
0.0001333062
0.0002436047
0.0002430183
0.0002424257
0.0002418456
0.0002412961
0.0002407948
0.0002403599
0.0002400097
0.0002397817
0.0002397743
0.0001390224
0.0001383874
0.0001372225
0.0001343142
0.0002440548
0.0002435127
0.0002429634
0.0002424234
0.0002419089
0.0002414382
0.0002410317
0.0002407166
0.0002405289
0.0002405357
0.0001394833
0.0001391058
0.0001385707
0.0001376425
0.0001354636
0.0002444849
0.0002439936
0.0002434925
0.0002429938
0.0002425098
0.000242055
0.000241648
0.0002413149
0.0002410963
0.0002410549
0.0001397787
0.0001394889
0.0001391621
0.0001387372
0.0001380541
5.765416e-05
0.0002448955
0.0002444596
0.0002440097
0.000243553
0.0002430968
0.00024265
0.0002422251
0.0002418435
0.0002415452
0.0002414138
0.0001399768
0.0001397194
0.0001394616
0.0001391948
0.0001388784
5.854189e-05
5.785069e-05
0.0002452876
0.0002449085
0.00024451
0.0002440947
0.0002436643
0.0002432211
0.0002427689
0.0002423163
0.0002418892
0.0002415825
0.0001400875
0.0001398525
0.0001396335
0.0001394285
0.0001392307
5.88159e-05
5.857527e-05
5.805743e-05
0.0001400546
0.0001399119
0.0001397565
0.0001396031
0.000139459
5.894908e-05
5.879617e-05
5.859663e-05
5.823476e-05
0.0001403396
0.0001401696
0.0001400041
0.0001398486
0.0001397083
5.906284e-05
5.893017e-05
5.878531e-05
5.861274e-05
5.835146e-05
0.000140636
0.0001404595
0.0001402881
0.0001401269
0.0001399795
5.918075e-05
5.90538e-05
5.892255e-05
5.878285e-05
5.862616e-05
3.812898e-05
0.0001409193
0.0001407447
0.0001405735
0.00014041
0.0001402576
5.930099e-05
5.917818e-05
5.905156e-05
5.892153e-05
5.878477e-05
3.826827e-05
3.815864e-05
0.0001411879
0.0001410185
0.0001408508
0.0001406886
0.000140534
5.942149e-05
5.930236e-05
5.917982e-05
5.905382e-05
5.892453e-05
3.836741e-05
3.827638e-05
3.817316e-05
0.0002416199
0.0002410076
0.0002403563
0.0002396604
0.0002389038
0.0002380446
0.0002370136
0.0002356887
0.0002338977
0.0002280698
0.0002421488
0.0002415257
0.0002408758
0.0002402013
0.0002394913
0.0002387153
0.0002378041
0.0002366784
0.0002352995
0.0002339906
0.000133453
0.0002426557
0.0002420331
0.0002413945
0.0002407501
0.000240105
0.0002394506
0.0002387652
0.0002380122
0.0002372325
0.0002367483
0.0001368544
0.0001332457
0.0002431407
0.0002425307
0.0002419111
0.0002412986
0.0002407068
0.0002401462
0.0002396199
0.0002391339
0.0002387198
0.0002385858
0.0001382346
0.0001369671
0.0001335881
0.0002436047
0.0002430183
0.0002424257
0.0002418456
0.0002412961
0.0002407948
0.0002403599
0.0002400097
0.0002397817
0.0002397743
0.0001390224
0.0001383874
0.0001372225
0.0001343142
0.0002440487
0.0002434956
0.000242937
0.0002423912
0.0002418763
0.0002414117
0.0002410187
0.0002407233
0.0002405574
0.0002405821
0.0001395106
0.0001391234
0.000138563
0.0001375776
0.0001352794
0.0002444733
0.0002439617
0.0002434435
0.0002429342
0.0002424496
0.0002420071
0.0002416277
0.000241337
0.0002411694
0.0002411697
0.0001398466
0.0001395523
0.0001392083
0.0001387424
0.0001379717
5.752211e-05
0.0002448792
0.0002444155
0.0002439425
0.0002434717
0.000243015
0.0002425858
0.0002422014
0.0002418864
0.0002416762
0.0002416238
0.0001400948
0.0001398362
0.0001395672
0.000139274
0.0001389061
5.850804e-05
5.767442e-05
0.0002452668
0.0002448554
0.0002444306
0.0002439994
0.0002435687
0.0002431467
0.0002427451
0.0002423833
0.0002420975
0.0002419606
0.0001402795
0.0001400352
0.0001397974
0.0001395643
0.0001393262
5.883644e-05
5.854946e-05
5.786763e-05
0.0002456367
0.000245279
0.0002449029
0.0002445107
0.0002441044
0.000243686
0.0002432591
0.0002428318
0.0002424274
0.000242132
0.000140391
0.000140165
0.0001399527
0.0001397559
0.0001395707
5.898605e-05
5.882158e-05
5.858263e-05
5.807103e-05
0.0001403724
0.0001402312
0.0001400765
0.0001399214
0.0001397743
5.908895e-05
5.895489e-05
5.880277e-05
5.860462e-05
5.824549e-05
0.0001406415
0.0001404766
0.0001403136
0.0001401574
0.0001400118
5.919492e-05
5.906833e-05
5.89363e-05
5.879243e-05
5.862077e-05
3.808876e-05
0.000140921
0.0001407508
0.0001405836
0.0001404233
0.000140273
5.93081e-05
5.918569e-05
5.905928e-05
5.892886e-05
5.878988e-05
3.826636e-05
3.813729e-05
0.0001411883
0.0001410206
0.0001408544
0.0001406935
0.00014054
5.942433e-05
5.930539e-05
5.918303e-05
5.905712e-05
5.892766e-05
3.836882e-05
3.827554e-05
3.816393e-05
0.000141442
0.0001412798
0.0001411177
0.0001409591
0.0001408053
5.954044e-05
5.942543e-05
5.930666e-05
5.918473e-05
5.905918e-05
3.845913e-05
3.837384e-05
3.828098e-05
3.817728e-05
0.0002421809
0.0002416072
0.0002409998
0.000240359
0.0002396786
0.0002389467
0.0002381365
0.0002372238
0.0002362065
0.0002352442
0.000134912
0.0002426778
0.0002420927
0.0002414857
0.0002408632
0.000240228
0.0002395752
0.0002388944
0.0002381708
0.0002374561
0.0002370119
0.0001371149
0.0001342063
0.0002431545
0.0002425687
0.0002419698
0.0002413705
0.0002407817
0.0002402129
0.0002396698
0.0002391653
0.0002387414
0.0002385943
0.0001382617
0.0001371518
0.00013414
0.0002436112
0.0002430364
0.0002424536
0.0002418797
0.0002413311
0.000240824
0.0002403769
0.0002400101
0.0002397657
0.0002397444
0.0001390074
0.0001384022
0.0001373069
0.0001345461
0.0002440487
0.0002434956
0.000242937
0.0002423912
0.0002418763
0.0002414117
0.0002410187
0.0002407233
0.0002405574
0.0002405821
0.0001395106
0.0001391234
0.000138563
0.0001375776
0.0001352794
0.0002444675
0.0002439456
0.0002434186
0.0002429039
0.0002424188
0.0002419823
0.0002416161
0.000241345
0.0002412
0.0002412187
0.0001398765
0.0001395797
0.0001392268
0.0001387396
0.0001379235
5.745282e-05
0.0002448683
0.0002443854
0.0002438962
0.0002434154
0.000242958
0.0002425402
0.0002421817
0.0002419068
0.0002417448
0.0002417324
0.0001401599
0.0001399015
0.0001396264
0.0001393166
0.000138914
5.847784e-05
5.754454e-05
0.0002452513
0.0002448137
0.0002443672
0.0002439227
0.0002434912
0.0002430855
0.0002427215
0.0002424214
0.0002422172
0.0002421534
0.0001403884
0.0001401447
0.0001399012
0.000139654
0.0001393899
5.884667e-05
5.851614e-05
5.769444e-05
0.000245617
0.000245229
0.0002448281
0.0002444209
0.000244014
0.0002436152
0.0002432354
0.000242892
0.0002426178
0.0002424778
0.0001405664
0.000140332
0.000140104
0.0001398857
0.0001396722
5.902e-05
5.884149e-05
5.855692e-05
5.788466e-05
0.000245966
0.0002456287
0.0002452738
0.0002449036
0.0002445199
0.0002441248
0.0002437215
0.0002433177
0.0002429348
0.0002426509
0.0001406792
0.0001404613
0.000140255
0.0001400616
0.0001398803
5.912739e-05
5.899077e-05
5.882716e-05
5.859013e-05
5.808437e-05
0.0001406717
0.0001405331
0.00014038
0.0001402244
0.0001400734
5.92201e-05
5.909403e-05
5.896057e-05
5.880945e-05
5.861239e-05
3.802048e-05
0.0001409261
0.0001407667
0.0001406072
0.0001404516
0.0001403032
5.932149e-05
5.919978e-05
5.907371e-05
5.89425e-05
5.879932e-05
3.826282e-05
3.809734e-05
0.0001411898
0.0001410263
0.0001408639
0.000140706
0.0001405544
5.943103e-05
5.931251e-05
5.919053e-05
5.906483e-05
5.893497e-05
3.837214e-05
3.827365e-05
3.814265e-05
0.0001414424
0.0001412817
0.0001411211
0.0001409637
0.0001408109
5.954312e-05
5.942828e-05
5.93097e-05
5.918794e-05
5.906248e-05
3.846117e-05
3.837527e-05
3.828013e-05
3.816807e-05
0.000141682
0.0001415271
0.0001413711
0.0001412168
0.0001410651
5.965494e-05
5.9544e-05
5.942928e-05
5.931103e-05
5.918945e-05
3.854622e-05
3.846489e-05
3.837782e-05
3.828452e-05
3.817961e-05
0.0001361397
0.0002427077
0.0002421687
0.0002415999
0.0002410028
0.0002403768
0.0002397181
0.0002390223
0.0002382853
0.0002375465
0.0002369974
0.0001372634
0.000135356
0.0002431752
0.0002426246
0.000242055
0.0002414741
0.0002408884
0.0002403045
0.0002397281
0.0002391762
0.0002387005
0.0002384962
0.0001382439
0.0001373503
0.000134924
0.0002436242
0.0002430723
0.0002425087
0.0002419468
0.0002413993
0.00024088
0.0002404062
0.000240001
0.0002397144
0.0002396579
0.0001389636
0.0001384131
0.0001374505
0.0001349952
0.0002440548
0.0002435127
0.0002429634
0.0002424234
0.0002419089
0.0002414382
0.0002410317
0.0002407166
0.0002405289
0.0002405357
0.0001394833
0.0001391058
0.0001385707
0.0001376425
0.0001354636
0.0002444675
0.0002439456
0.0002434186
0.0002429039
0.0002424188
0.0002419823
0.0002416161
0.000241345
0.0002412
0.0002412187
0.0001398765
0.0001395797
0.0001392268
0.0001387396
0.0001379235
5.745282e-05
0.0002448628
0.0002443702
0.0002438727
0.0002433868
0.0002429288
0.0002425166
0.0002421705
0.0002419143
0.000241774
0.0002417794
0.000140189
0.0001399308
0.0001396527
0.0001393346
0.0001389143
5.846029e-05
5.747635e-05
0.0002452411
0.0002447854
0.0002443235
0.0002438695
0.0002434372
0.0002430421
0.0002427021
0.0002424393
0.0002422802
0.0002422539
0.0001404491
0.000140207
0.0001399615
0.0001397067
0.0001394269
5.885023e-05
5.848651e-05
5.756671e-05
0.0002456025
0.0002451898
0.0002447682
0.0002443484
0.0002439408
0.000243557
0.000243212
0.0002429259
0.0002427271
0.0002426548
0.0001406665
0.0001404331
0.0001402014
0.000139974
0.0001397447
5.904388e-05
5.885153e-05
5.852411e-05
5.771449e-05
0.0002459474
0.0002455816
0.0002452034
0.0002448189
0.0002444346
0.0002440577
0.0002436983
0.0002433724
0.0002431098
0.0002429688
0.0001408402
0.0001406141
0.0001403937
0.0001401821
0.0001399786
5.916412e-05
5.902393e-05
5.884645e-05
5.856451e-05
5.790136e-05
0.0002462762
0.0002459586
0.0002456239
0.0002452746
0.0002449123
0.0002445391
0.0002441582
0.0002437765
0.0002434138
0.0002431417
0.0001409531
0.0001407434
0.0001405428
0.0001403527
0.0001401719
5.925712e-05
5.913146e-05
5.899538e-05
5.883285e-05
5.85974e-05
3.791726e-05
0.0001409539
0.0001408188
0.0001406684
0.0001405134
0.0001403604
5.93452e-05
5.92246e-05
5.9099e-05
5.896632e-05
5.88159e-05
3.825721e-05
3.802976e-05
0.0001411946
0.0001410411
0.0001408859
0.0001407324
0.0001405827
5.94436e-05
5.932583e-05
5.920453e-05
5.907915e-05
5.894848e-05
3.83782e-05
3.827011e-05
3.810293e-05
0.0001414437
0.0001412871
0.00014113
0.0001409754
0.0001408245
5.954942e-05
5.943498e-05
5.931681e-05
5.919544e-05
5.907017e-05
3.846591e-05
3.837859e-05
3.827824e-05
3.814687e-05
0.0001416824
0.0001415289
0.0001413743
0.0001412213
0.0001410705
5.965747e-05
5.954669e-05
5.943215e-05
5.931408e-05
5.919267e-05
3.854836e-05
3.846694e-05
3.837924e-05
3.828367e-05
3.817041e-05
0.0001419089
0.0001417613
0.0001416117
0.0001414624
0.0001413138
5.976493e-05
5.965817e-05
5.954747e-05
5.94332e-05
5.931523e-05
3.863053e-05
3.855142e-05
3.846835e-05
3.838083e-05
3.828642e-05
0.0001363159
0.0001369903
0.0001363061
0.0002432033
0.000242696
0.0002421616
0.0002416024
0.0002410192
0.0002404127
0.0002397835
0.0002391405
0.0002385207
0.0002381042
0.0001380913
0.000137454
0.0001358275
0.0002436437
0.0002431249
0.0002425888
0.0002420435
0.000241497
0.000240958
0.0002404398
0.0002399645
0.0002395882
0.0002394485
0.000138859
0.0001383815
0.0001376023
0.000135621
0.0002440671
0.0002435465
0.0002430153
0.0002424864
0.0002419727
0.0002414891
0.0002410542
0.0002406958
0.0002404576
0.0002404226
0.0001394186
0.0001390588
0.0001385713
0.0001377526
0.0001358167
0.0002444733
0.0002439617
0.0002434435
0.0002429342
0.0002424496
0.0002420071
0.0002416277
0.000241337
0.0002411694
0.0002411697
0.0001398466
0.0001395523
0.0001392083
0.0001387424
0.0001379717
5.752211e-05
0.0002448628
0.0002443702
0.0002438727
0.0002433868
0.0002429288
0.0002425166
0.0002421705
0.0002419143
0.000241774
0.0002417794
0.000140189
0.0001399308
0.0001396527
0.0001393346
0.0001389143
5.846029e-05
5.747635e-05
0.0002452359
0.000244771
0.0002443013
0.0002438424
0.0002434096
0.0002430196
0.0002426912
0.0002424458
0.0002423071
0.0002422977
0.0001404765
0.0001402353
0.000139989
0.0001397309
0.0001394434
5.885086e-05
5.846931e-05
5.74996e-05
0.0002455928
0.000245163
0.0002447271
0.0002442982
0.0002438897
0.0002435157
0.000243193
0.0002429415
0.0002427847
0.0002427474
0.0001407227
0.0001404911
0.0001402589
0.0001400276
0.0001397897
5.905838e-05
5.88551e-05
5.849505e-05
5.758889e-05
0.0002459337
0.0002455447
0.000245147
0.0002447506
0.0002443655
0.0002440025
0.0002436755
0.0002434029
0.0002432102
0.0002431318
0.0001409325
0.0001407072
0.0001404839
0.0001402653
0.0001400505
5.919148e-05
5.904741e-05
5.885629e-05
5.85322e-05
5.773418e-05
0.0002462587
0.0002459143
0.0002455576
0.0002451949
0.000244832
0.0002444759
0.0002441358
0.0002438268
0.0002435758
0.0002434357
0.0001411017
0.0001408839
0.0001406701
0.0001404639
0.0001402642
5.929307e-05
5.916742e-05
5.902777e-05
5.885152e-05
5.857186e-05
3.780024e-05
0.0002465681
0.0002462694
0.0002459542
0.0002456248
0.0002452829
0.0002449305
0.0002445706
0.0002442098
0.0002438664
0.0002436064
0.0001412138
0.0001410122
0.0001408177
0.0001406312
0.0001404515
5.937996e-05
5.926071e-05
5.913544e-05
5.900008e-05
5.883831e-05
3.824718e-05
3.792805e-05
0.0001412204
0.0001410895
0.0001409426
0.0001407897
0.000140636
5.946581e-05
5.934923e-05
5.9229e-05
5.910404e-05
5.897185e-05
3.838872e-05
3.826441e-05
3.803595e-05
0.0001414481
0.000141301
0.0001411507
0.0001410002
0.0001408511
5.956124e-05
5.94475e-05
5.933006e-05
5.920935e-05
5.908438e-05
3.847462e-05
3.838462e-05
3.827466e-05
3.810735e-05
0.0001416837
0.000141534
0.0001413828
0.0001412323
0.0001410833
5.966343e-05
5.9553e-05
5.943884e-05
5.932118e-05
5.920015e-05
3.855336e-05
3.847169e-05
3.838255e-05
3.828177e-05
3.814926e-05
0.0001419093
0.0001417631
0.0001416148
0.0001414666
0.0001413189
5.976734e-05
5.966072e-05
5.955017e-05
5.943607e-05
5.931827e-05
3.863263e-05
3.855357e-05
3.847039e-05
3.838225e-05
3.828556e-05
0.0001421234
0.0001419832
0.0001418402
0.0001416963
0.0001415517
5.98705e-05
5.97679e-05