/*--------------------------------*- C++ -*----------------------------------*\
| =========                 |                                                 |
| \\      /  F ield         | OpenFOAM: The Open Source CFD Toolbox           |
|  \\    /   O peration     | Version:  2306                                  |
|   \\  /    A nd           | Website:  www.openfoam.com                      |
|    \\/     M anipulation  |                                                 |
\*---------------------------------------------------------------------------*/
FoamFile
{
    version     2.0;
    format      ascii;
    arch        "LSB;label=32;scalar=64";
    class       volScalarField;
    location    "0.9/air";
    object      N2;
}
// * * * * * * * * * * * * * * * * * * * * * * * * * * * * * * * * * * * * * //

dimensions      [0 0 0 0 0 0 0];

internalField   nonuniform List<scalar> 
16000
(
0.7703482
0.7703418
0.7716938
0.7703883
0.7703331
0.7715976
0.7703779
0.7742087
0.7718204
0.770484
0.7703247
0.7714716
0.7703656
0.7740948
0.7716923
0.7704622
0.7768182
0.774358
0.7721466
0.7706681
0.7703196
0.7713642
0.7703545
0.773939
0.771532
0.7704388
0.7767044
0.77421
0.7719772
0.7706237
0.7793622
0.7769696
0.7747294
0.7727405
0.771004
0.7703196
0.7713038
0.7703479
0.7738008
0.7713999
0.7704212
0.7765483
0.7740163
0.7717662
0.7705755
0.779253
0.7768227
0.7745413
0.7725309
0.7709232
0.7817926
0.7795075
0.7773442
0.775387
0.7736602
0.771597
0.8096832
0.7703247
0.7713038
0.7703479
0.7737213
0.7713271
0.7704109
0.7764093
0.7738488
0.7715922
0.7705402
0.7791033
0.7766298
0.7742982
0.7722647
0.7708314
0.7816893
0.7793668
0.7771597
0.7751627
0.7734169
0.7714801
0.7841027
0.7819307
0.7798664
0.7780022
0.776382
0.7749485
0.7725622
0.8083383
0.8112885
0.8098959
0.7703331
0.7713642
0.7703545
0.7737213
0.7713271
0.7704109
0.7763291
0.7737537
0.7714975
0.7705217
0.77897
0.7764623
0.7740901
0.772042
0.7707609
0.7815477
0.7791822
0.7769208
0.7748718
0.7730991
0.7713283
0.7840049
0.7817977
0.7796906
0.7777861
0.776128
0.7746669
0.7724032
0.7863002
0.7842333
0.7822716
0.7804952
0.7789885
0.7777532
0.7766672
0.7740547
0.8056217
0.8100851
0.808556
0.8118633
0.8114828
0.8103206
0.7703418
0.7714716
0.7703656
0.7738008
0.7713999
0.7704212
0.7763291
0.7737537
0.7714975
0.7705217
0.7788932
0.7763668
0.7739727
0.7719188
0.7707234
0.7814217
0.779022
0.7767154
0.7746226
0.7728283
0.7711998
0.7838708
0.7816232
0.7794632
0.7775054
0.7757957
0.7743006
0.7721847
0.7862074
0.7841073
0.7821056
0.7802906
0.7787488
0.7774737
0.7763382
0.773818
0.7883958
0.7864241
0.7845557
0.7828684
0.7814344
0.7803322
0.7795301
0.7788816
0.7763126
0.8014335
0.8076597
0.8058566
0.8107474
0.8102831
0.8089893
0.8122728
0.8120421
0.8118708
0.8109558
0.7703482
0.7715976
0.7703779
0.773939
0.771532
0.7704388
0.7764093
0.7738488
0.7715922
0.7705402
0.7788932
0.7763668
0.7739727
0.7719188
0.7707234
0.7813491
0.7789308
0.7765991
0.7744821
0.7726766
0.7711278
0.7837516
0.7814718
0.779268
0.7772639
0.7755093
0.7739876
0.7719935
0.7860803
0.7839422
0.781891
0.7800255
0.7784348
0.7771042
0.7759083
0.7734929
0.7883074
0.7863046
0.7843986
0.7826755
0.7812091
0.7800742
0.77922
0.7784732
0.7758699
0.7904
0.7885136
0.7867301
0.7851202
0.7837587
0.7827088
0.7820506
0.7817409
0.781678
0.7797783
0.7953815
0.8039375
0.801734
0.8084993
0.8078713
0.8063186
0.8112312
0.8109295
0.8106775
0.8096351
0.812735
0.8124394
0.8123994
0.8124514
0.8118003
0.7716938
0.7703883
0.7740948
0.7716923
0.7704622
0.7765483
0.7740163
0.7717662
0.7705755
0.77897
0.7764623
0.7740901
0.772042
0.7707609
0.7813491
0.7789308
0.7765991
0.7744821
0.7726766
0.7711278
0.7836829
0.7813856
0.7791576
0.7771272
0.7753474
0.7738115
0.7718846
0.7859672
0.783799
0.7817068
0.7797978
0.7781633
0.7767839
0.7755407
0.7732134
0.7881864
0.786148
0.7841955
0.7824257
0.7809148
0.7797322
0.778807
0.7779466
0.7753347
0.7903157
0.7883999
0.786581
0.7849376
0.7835467
0.7824678
0.7817691
0.7813687
0.7810823
0.7787184
0.7923222
0.7905125
0.7888047
0.787266
0.7859623
0.7849656
0.7843326
0.7841601
0.7844379
0.7852322
0.785524
0.7986027
0.7960013
0.8050514
0.8042028
0.8022933
0.8091334
0.8086935
0.8082881
0.8069967
0.8117558
0.8114008
0.8112922
0.8112657
0.8104901
0.813325
0.8128915
0.8127722
0.8129341
0.8132235
0.8130176
0.7742087
0.7718204
0.770484
0.7767044
0.77421
0.7719772
0.7706237
0.7791033
0.7766298
0.7742982
0.7722647
0.7708314
0.7814217
0.779022
0.7767154
0.7746226
0.7728283
0.7711998
0.7836829
0.7813856
0.7791576
0.7771272
0.7753474
0.7738115
0.7718846
0.785902
0.7837174
0.7816026
0.7796691
0.7780091
0.7766024
0.7753336
0.7730564
0.7880788
0.7860121
0.7840214
0.7822113
0.7806609
0.7794346
0.7784485
0.7775027
0.7749123
0.7902002
0.7882508
0.7863884
0.7847013
0.78327
0.7821493
0.7813927
0.7808806
0.7803766
0.7777701
0.7922415
0.7904038
0.7886627
0.7870926
0.7857616
0.784739
0.7840703
0.7838233
0.7838974
0.7841025
0.7824731
0.7941699
0.7924298
0.7907903
0.7893146
0.7880656
0.7871039
0.7865015
0.7863198
0.7867026
0.7877699
0.7900492
0.7883938
0.8001145
0.7991351
0.796925
0.805917
0.8052944
0.8046987
0.8030685
0.8097837
0.809314
0.8090761
0.8089008
0.8078807
0.8123999
0.811915
0.8117385
0.8118334
0.8120451
0.8117184
0.8140066
0.8134729
0.8132042
0.8132704
0.8136453
0.8143372
0.8132686
0.7768182
0.774358
0.7721466
0.7706681
0.779253
0.7768227
0.7745413
0.7725309
0.7709232
0.7815477
0.7791822
0.7769208
0.7748718
0.7730991
0.7713283
0.7837516
0.7814718
0.779268
0.7772639
0.7755093
0.7739876
0.7719935
0.785902
0.7837174
0.7816026
0.7796691
0.7780091
0.7766024
0.7753336
0.7730564
0.7880168
0.7859349
0.7839229
0.7820901
0.7805169
0.7792652
0.7782454
0.7772551
0.7746859
0.7900975
0.7881215
0.7862232
0.7844987
0.7830314
0.7818728
0.7810646
0.7804641
0.7798135
0.7771242
0.7921309
0.7902615
0.7884793
0.7868683
0.7854998
0.7844398
0.7837206
0.7833798
0.7832514
0.7830501
0.7808574
0.7940924
0.7923258
0.7906547
0.7891493
0.7878748
0.7868891
0.7862548
0.7860053
0.7862079
0.7867321
0.7872309
0.7848055
0.7959497
0.7942731
0.7926957
0.7912772
0.7900757
0.7891501
0.7885573
0.7883792
0.7887102
0.7898163
0.792211
0.7924708
0.7906263
0.8013143
0.8006028
0.7999339
0.7979996
0.8067606
0.8061427
0.8057485
0.8053889
0.804027
0.8105368
0.8099531
0.8096697
0.8096386
0.8097011
0.8091334
0.8131285
0.8125503
0.8122321
0.8122424
0.8125506
0.8131657
0.8119716
0.8147649
0.8141471
0.8137684
0.8136723
0.8139332
0.8146714
0.8145668
0.8135216
0.7793622
0.7769696
0.7747294
0.7727405
0.771004
0.7816893
0.7793668
0.7771597
0.7751627
0.7734169
0.7714801
0.7838708
0.7816232
0.7794632
0.7775054
0.7757957
0.7743006
0.7721847
0.7859672
0.783799
0.7817068
0.7797978
0.7781633
0.7767839
0.7755407
0.7732134
0.7880168
0.7859349
0.7839229
0.7820901
0.7805169
0.7792652
0.7782454
0.7772551
0.7746859
0.7900383
0.7880479
0.7861298
0.7843842
0.7828962
0.7817157
0.7808779
0.7802307
0.7795087
0.776802
0.7920326
0.7901381
0.788322
0.786676
0.7852742
0.7841803
0.7834166
0.783
0.7827321
0.782303
0.7799233
0.7939864
0.7921896
0.7904796
0.7889357
0.7876261
0.7866058
0.7859262
0.7855926
0.7856157
0.785764
0.785635
0.7828454
0.7958752
0.7941733
0.7925658
0.7911192
0.7898937
0.7889457
0.7883231
0.7880831
0.7882465
0.7888541
0.7896048
0.7891971
0.7868727
0.7976673
0.7960489
0.7945282
0.7931617
0.7920042
0.7911085
0.7905314
0.7903353
0.7906364
0.7916351
0.7939503
0.7944399
0.794366
0.7924538
0.8024355
0.8017677
0.8013344
0.8008704
0.7991518
0.8076812
0.8069721
0.8065644
0.8063805
0.8062461
0.8053261
0.81136
0.8106968
0.8102869
0.8101929
0.8103734
0.8108373
0.8093915
0.8139284
0.8132712
0.8128499
0.8127054
0.8129103
0.8135818
0.8133966
0.8122268
0.8155735
0.8148987
0.8144276
0.8142108
0.814295
0.8148893
0.8148829
0.8147983
0.8137769
0.7817926
0.7795075
0.7773442
0.775387
0.7736602
0.771597
0.7840049
0.7817977
0.7796906
0.7777861
0.776128
0.7746669
0.7724032
0.7860803
0.7839422
0.781891
0.7800255
0.7784348
0.7771042
0.7759083
0.7734929
0.7880788
0.7860121
0.7840214
0.7822113
0.7806609
0.7794346
0.7784485
0.7775027
0.7749123
0.7900383
0.7880479
0.7861298
0.7843842
0.7828962
0.7817157
0.7808779
0.7802307
0.7795087
0.776802
0.7919759
0.7900679
0.7882331
0.7865674
0.7851464
0.7840328
0.783244
0.7827866
0.7824504
0.7819208
0.7794862
0.793892
0.7920714
0.7903294
0.7887525
0.7874118
0.7863603
0.7856406
0.7852401
0.7851393
0.7850752
0.7846653
0.7817409
0.7957732
0.7940426
0.7923981
0.7909151
0.7896565
0.7886762
0.7880114
0.7876944
0.787693
0.7879577
0.7881278
0.7873176
0.7846883
0.7975955
0.7959529
0.7944035
0.7930104
0.7918301
0.7909132
0.7903082
0.7900537
0.7901988
0.7907312
0.7915223
0.7914085
0.7909484
0.7886839
0.7993275
0.7977628
0.7962942
0.7949754
0.7938578
0.7929911
0.7924248
0.7922222
0.7924743
0.7933975
0.7955169
0.7960235
0.7961799
0.7959289
0.7939973
0.8035964
0.8028605
0.8024467
0.8021908
0.8018826
0.8005384
0.8086496
0.8078808
0.8073675
0.8071513
0.8071653
0.8074129
0.8055932
0.8122439
0.8115118
0.8110121
0.8107779
0.8108764
0.8114168
0.8110713
0.8096515
0.8147742
0.8140644
0.8135556
0.8132971
0.8133327
0.8138708
0.8137944
0.8136295
0.8124842
0.8164197
0.8157013
0.815166
0.8148476
0.8147994
0.8151935
0.8150864
0.8150961
0.8150317
0.8140342
0.7841027
0.7819307
0.7798664
0.7780022
0.776382
0.7749485
0.7725622
0.7862074
0.7841073
0.7821056
0.7802906
0.7787488
0.7774737
0.7763382
0.773818
0.7881864
0.786148
0.7841955
0.7824257
0.7809148
0.7797322
0.778807
0.7779466
0.7753347
0.7900975
0.7881215
0.7862232
0.7844987
0.7830314
0.7818728
0.7810646
0.7804641
0.7798135
0.7771242
0.7919759
0.7900679
0.7882331
0.7865674
0.7851464
0.7840328
0.783244
0.7827866
0.7824504
0.7819208
0.7794862
0.7938377
0.7920042
0.7902445
0.7886491
0.7872905
0.7862208
0.7854785
0.7850424
0.7848805
0.7847221
0.7841979
0.781234
0.7956825
0.7939292
0.7922543
0.7907401
0.7894522
0.7884427
0.7877408
0.7873625
0.7872487
0.7873203
0.7872292
0.7862128
0.7834541
0.7974973
0.7958272
0.7942425
0.7928147
0.7916032
0.7906559
0.7900113
0.7896844
0.7896762
0.7898902
0.7901479
0.7896658
0.7888817
0.7863718
0.7992583
0.7976704
0.7961742
0.79483
0.7936908
0.7928041
0.7922113
0.7919535
0.792058
0.7925433
0.7932346
0.7931972
0.7930114
0.7924907
0.790257
0.8009346
0.7994197
0.797999
0.7967241
0.7956435
0.7948031
0.7942495
0.7940372
0.7942574
0.7950931
0.7970622
0.7974628
0.7976401
0.7976104
0.7972602
0.7955211
0.8047726
0.8039972
0.803497
0.8032412
0.8031152
0.8031106
0.8008222
0.8096623
0.8088388
0.8082539
0.8079178
0.8078802
0.8082335
0.8076529
0.8058619
0.8131647
0.8123885
0.8118109
0.8114757
0.8114194
0.811847
0.8116317
0.8113072
0.8099136
0.8156541
0.8149041
0.8143354
0.8139801
0.8138899
0.8142349
0.8140687
0.8140087
0.8138643
0.8127437
0.8172906
0.8165422
0.8159568
0.8155662
0.8154065
0.8156487
0.8153787
0.8152851
0.8153112
0.8152672
0.8143483
0.7863002
0.7842333
0.7822716
0.7804952
0.7789885
0.7777532
0.7766672
0.7740547
0.7883074
0.7863046
0.7843986
0.7826755
0.7812091
0.7800742
0.77922
0.7784732
0.7758699
0.7902002
0.7882508
0.7863884
0.7847013
0.78327
0.7821493
0.7813927
0.7808806
0.7803766
0.7777701
0.7920326
0.7901381
0.788322
0.786676
0.7852742
0.7841803
0.7834166
0.783
0.7827321
0.782303
0.7799233
0.7938377
0.7920042
0.7902445
0.7886491
0.7872905
0.7862208
0.7854785
0.7850424
0.7848805
0.7847221
0.7841979
0.781234
0.7956303
0.7938647
0.792173
0.7906413
0.7893366
0.7883101
0.7875874
0.7871763
0.7870078
0.7869936
0.7867956
0.7856915
0.7828913
0.7974099
0.7957182
0.7941045
0.7926471
0.7914079
0.790433
0.7897536
0.7893695
0.7892568
0.7892932
0.7893125
0.7886401
0.7876715
0.7850515
0.7991635
0.7975493
0.7960194
0.7946421
0.7934732
0.7925577
0.7919274
0.7916014
0.7915613
0.7917484
0.7919431
0.7915732
0.7910923
0.7903139
0.7878897
0.8008677
0.7993304
0.7978834
0.7965842
0.795483
0.7946236
0.7940448
0.7937799
0.7938602
0.7942812
0.7949054
0.7948056
0.7946842
0.7944188
0.7938373
0.7918186
0.8024924
0.8010237
0.7996476
0.7984132
0.7973666
0.7965511
0.7960092
0.7957919
0.7959795
0.7967504
0.7985706
0.7988988
0.7989791
0.7989676
0.7988249
0.7985875
0.7958304
0.8059696
0.8051526
0.8045975
0.8042415
0.8040985
0.8042349
0.8033619
0.8011064
0.8106979
0.8098424
0.8091926
0.8087732
0.8086013
0.8088722
0.8084531
0.8078943
0.8061323
0.8141123
0.8133028
0.8126733
0.8122508
0.8120816
0.8123305
0.812047
0.8118483
0.8115449
0.8101777
0.8165556
0.8157786
0.8151631
0.8147397
0.8145428
0.8147424
0.8144208
0.8142683
0.8142248
0.8141011
0.8130604
0.8181783
0.8174082
0.8167869
0.8163393
0.8160988
0.8162129
0.8158237
0.8155654
0.8154856
0.8155281
0.8155545
0.8146696
0.7883958
0.7864241
0.7845557
0.7828684
0.7814344
0.7803322
0.7795301
0.7788816
0.7763126
0.7903157
0.7883999
0.786581
0.7849376
0.7835467
0.7824678
0.7817691
0.7813687
0.7810823
0.7787184
0.7921309
0.7902615
0.7884793
0.7868683
0.7854998
0.7844398
0.7837206
0.7833798
0.7832514
0.7830501
0.7808574
0.793892
0.7920714
0.7903294
0.7887525
0.7874118
0.7863603
0.7856406
0.7852401
0.7851393
0.7850752
0.7846653
0.7817409
0.7956303
0.7938647
0.792173
0.7906413
0.7893366
0.7883101
0.7875874
0.7871763
0.7870078
0.7869936
0.7867956
0.7856915
0.7828913
0.7973596
0.7956562
0.7940265
0.7925524
0.7912973
0.7903065
0.7896074
0.789193
0.7890295
0.7889876
0.7889095
0.7881556
0.7871059
0.7844501
0.7990792
0.7974443
0.7958866
0.7944811
0.7932859
0.7923442
0.791681
0.791301
0.791163
0.7911841
0.7911588
0.7906178
0.7899667
0.7890312
0.7865262
0.8007761
0.7992136
0.7977342
0.7964034
0.7952739
0.794387
0.7937727
0.7934428
0.7933863
0.7935257
0.7936844
0.7932789
0.7928941
0.7923946
0.7916076
0.789454
0.8024277
0.8009375
0.799536
0.7982783
0.7972121
0.7963783
0.7958124
0.7955451
0.7955993
0.7959762
0.796522
0.7963875
0.7961996
0.7959885
0.7956431
0.7951809
0.7921355
0.8040042
0.8025786
0.8012439
0.8000472
0.7990323
0.7982398
0.7977095
0.7974881
0.7976511
0.7983606
0.8000621
0.800313
0.8003294
0.8002235
0.8000932
0.8000307
0.798857
0.7961377
0.8071697
0.8063313
0.8057217
0.8052996
0.8050446
0.8051363
0.8044641
0.8036138
0.801391
0.8117495
0.81087
0.8101792
0.8096851
0.8094182
0.8095313
0.8090762
0.8086741
0.8081373
0.8064044
0.8150754
0.8142446
0.8135749
0.8130923
0.8128258
0.812942
0.8125182
0.8122485
0.8120666
0.8117845
0.8104998
0.8174713
0.8166751
0.8160266
0.8155494
0.8152759
0.8153521
0.8149181
0.8146083
0.8144696
0.8144427
0.8143899
0.8133843
0.8190768
0.8182915
0.8176432
0.8171534
0.8168483
0.8168671
0.816379
0.8160002
0.8157538
0.8156877
0.8157928
0.8158482
0.8149139
0.7904
0.7885136
0.7867301
0.7851202
0.7837587
0.7827088
0.7820506
0.7817409
0.781678
0.7797783
0.7922415
0.7904038
0.7886627
0.7870926
0.7857616
0.784739
0.7840703
0.7838233
0.7838974
0.7841025
0.7824731
0.7939864
0.7921896
0.7904796
0.7889357
0.7876261
0.7866058
0.7859262
0.7855926
0.7856157
0.785764
0.785635
0.7828454
0.7956825
0.7939292
0.7922543
0.7907401
0.7894522
0.7884427
0.7877408
0.7873625
0.7872487
0.7873203
0.7872292
0.7862128
0.7834541
0.7973596
0.7956562
0.7940265
0.7925524
0.7912973
0.7903065
0.7896074
0.789193
0.7890295
0.7889876
0.7889095
0.7881556
0.7871059
0.7844501
0.7990306
0.7973846
0.7958116
0.7943902
0.7931799
0.7922231
0.7915414
0.7911327
0.7909471
0.7908953
0.7907808
0.7901667
0.7894402
0.7884337
0.7859048
0.8006947
0.7991123
0.7976064
0.7962486
0.7950939
0.7941822
0.7935366
0.7931555
0.7930062
0.7929896
0.7929429
0.7923812
0.7918445
0.7911998
0.7902852
0.7880884
0.802339
0.8008245
0.799392
0.7981041
0.7970108
0.7961508
0.7955509
0.7952218
0.7951456
0.7952556
0.795362
0.7949441
0.7945161
0.7940987
0.7935665
0.7929415
0.789772
0.8039415
0.8024951
0.801136
0.799917
0.7988832
0.7980733
0.79752
0.7972507
0.7972862
0.7976199
0.7981097
0.7979279
0.7977023
0.7974214
0.7971214
0.7968586
0.7954536
0.7924504
0.8054731
0.8040877
0.8027916
0.80163
0.8006446
0.7998738
0.7993546
0.7991306
0.7992717
0.7999311
0.8015246
0.8017212
0.8016699
0.8015031
0.8012777
0.8012087
0.8002754
0.7991249
0.796443
0.8083698
0.807515
0.8068729
0.8063874
0.806057
0.8060166
0.8053487
0.8046937
0.8038661
0.8016761
0.8128069
0.8119142
0.8111916
0.810648
0.8102968
0.810296
0.8097226
0.8092814
0.8088965
0.8083817
0.8067355
0.8160475
0.8152023
0.8145052
0.8139751
0.8136399
0.8136422
0.8131193
0.8127073
0.8124516
0.8122866
0.8120767
0.8108294
0.8183955
0.8175862
0.8169132
0.8163967
0.8160618
0.8160469
0.8155189
0.8150953
0.8147974
0.8146725
0.8147085
0.8146853
0.8136306
0.8199816
0.8191858
0.8185176
0.8179951
0.8176411
0.8175825
0.8170255
0.8165466
0.8161782
0.8159437
0.8159343
0.8160633
0.8160714
0.8150796
0.7923222
0.7905125
0.7888047
0.787266
0.7859623
0.7849656
0.7843326
0.7841601
0.7844379
0.7852322
0.785524
0.7940924
0.7923258
0.7906547
0.7891493
0.7878748
0.7868891
0.7862548
0.7860053
0.7862079
0.7867321
0.7872309
0.7848055
0.7957732
0.7940426
0.7923981
0.7909151
0.7896565
0.7886762
0.7880114
0.7876944
0.787693
0.7879577
0.7881278
0.7873176
0.7846883
0.7974099
0.7957182
0.7941045
0.7926471
0.7914079
0.790433
0.7897536
0.7893695
0.7892568
0.7892932
0.7893125
0.7886401
0.7876715
0.7850515
0.7990306
0.7973846
0.7958116
0.7943902
0.7931799
0.7922231
0.7915414
0.7911327
0.7909471
0.7908953
0.7907808
0.7901667
0.7894402
0.7884337
0.7859048
0.8006478
0.7990547
0.7975341
0.7961611
0.794992
0.794066
0.7934027
0.7929945
0.7928003
0.7927153
0.7925855
0.7919575
0.7913535
0.7906425
0.7896695
0.7874658
0.8022602
0.8007267
0.7992686
0.7979548
0.7968375
0.7959538
0.7953241
0.7949461
0.7947819
0.7947441
0.7946574
0.7940953
0.7935293
0.7929835
0.7923327
0.7916099
0.7884063
0.8038557
0.8023859
0.8009969
0.7997488
0.7986891
0.7978541
0.7972683
0.7969398
0.796851
0.7969304
0.7970036
0.7965566
0.7961106
0.7956438
0.7951815
0.7947689
0.7932127
0.7900884
0.8054122
0.8040069
0.8026872
0.8015041
0.8005006
0.7997131
0.7991719
0.798902
0.7989209
0.799221
0.799658
0.7994482
0.7991748
0.7988543
0.7984819
0.798244
0.7971053
0.7957246
0.7927633
0.8069017
0.805554
0.8042941
0.8031653
0.8022075
0.8014569
0.8009485
0.8007228
0.8008453
0.8014601
0.8029619
0.8031096
0.8030129
0.8027827
0.802497
0.8023215
0.8014352
0.8005187
0.7993912
0.7967464
0.8095622
0.8087003
0.8080321
0.8075064
0.8071054
0.8069736
0.8062155
0.8055615
0.8049237
0.8041188
0.8020216
0.8138654
0.812965
0.8122221
0.8116393
0.8112304
0.8111293
0.8104765
0.8099151
0.809488
0.8091203
0.8086793
0.8070744
0.8170235
0.8161696
0.8154525
0.8148885
0.8144982
0.8144175
0.8138104
0.8132979
0.8128979
0.8126562
0.8125549
0.8123754
0.81108
0.819324
0.8185062
0.8178153
0.8172686
0.8168876
0.8167985
0.8162058
0.8156871
0.8152739
0.814988
0.8149201
0.8149802
0.8149097
0.8137978
0.8208892
0.8200868
0.8194037
0.8188561
0.8184633
0.8183446
0.8177339
0.8171852
0.8167157
0.8163577
0.8161754
0.8161863
0.8162687
0.8162226
0.8151642
0.7953815
0.7941699
0.7924298
0.7907903
0.7893146
0.7880656
0.7871039
0.7865015
0.7863198
0.7867026
0.7877699
0.7900492
0.7883938
0.7958752
0.7941733
0.7925658
0.7911192
0.7898937
0.7889457
0.7883231
0.7880831
0.7882465
0.7888541
0.7896048
0.7891971
0.7868727
0.7974973
0.7958272
0.7942425
0.7928147
0.7916032
0.7906559
0.7900113
0.7896844
0.7896762
0.7898902
0.7901479
0.7896658
0.7888817
0.7863718
0.7990792
0.7974443
0.7958866
0.7944811
0.7932859
0.7923442
0.791681
0.791301
0.791163
0.7911841
0.7911588
0.7906178
0.7899667
0.7890312
0.7865262
0.8006478
0.7990547
0.7975341
0.7961611
0.794992
0.794066
0.7934027
0.7929945
0.7928003
0.7927153
0.7925855
0.7919575
0.7913535
0.7906425
0.7896695
0.7874658
0.8022148
0.800671
0.7991989
0.7978706
0.7967395
0.7958421
0.7951955
0.7947918
0.7945849
0.7944824
0.7943178
0.7936947
0.7930679
0.7924634
0.7917575
0.7909896
0.7877837
0.8037793
0.8022911
0.8008776
0.7996047
0.798522
0.7976643
0.79705
0.7966749
0.7965021
0.7964411
0.7963317
0.79575
0.7951774
0.7945948
0.7940289
0.7935236
0.7918795
0.7887232
0.8053289
0.803901
0.8025525
0.8013415
0.8003131
0.7995016
0.7989291
0.7986025
0.7985024
0.7985597
0.7986002
0.7981408
0.7976625
0.7971734
0.7966564
0.7962902
0.7950132
0.7934826
0.7904034
0.8068427
0.8054756
0.8041929
0.8030434
0.8020682
0.8013016
0.8007721
0.8005022
0.8005075
0.8007777
0.8011729
0.8009366
0.800635
0.8002669
0.7998538
0.7995313
0.7984718
0.7973503
0.7959939
0.7930741
0.8082925
0.8069803
0.8057542
0.8046561
0.8037241
0.8029927
0.8024946
0.802268
0.8023743
0.8029501
0.8043699
0.8044799
0.8043433
0.8040721
0.8037248
0.8034807
0.8025333
0.8016602
0.8007604
0.7996559
0.7971113
0.8107443
0.8098794
0.8091954
0.808637
0.8081897
0.8079741
0.8071612
0.8064148
0.8057747
0.8051541
0.8044252
0.8023753
0.8149208
0.8140174
0.8132605
0.8126508
0.8121955
0.8120229
0.8113005
0.8106581
0.8101087
0.8096957
0.8093927
0.8089837
0.8073323
0.8179999
0.8171411
0.8164102
0.8158205
0.8153896
0.8152411
0.8145777
0.8139799
0.8134779
0.81309
0.8129058
0.8128292
0.8126025
0.8112502
0.8202537
0.8194309
0.818727
0.8181572
0.8177398
0.8175933
0.8169504
0.816366
0.8158566
0.815454
0.8152205
0.8151731
0.8151866
0.8150619
0.8138832
0.8217972
0.8209909
0.820297
0.8197299
0.8193065
0.8191388
0.8184896
0.8178865
0.8173462
0.8168861
0.8165768
0.8164122
0.8163776
0.8164078
0.8162998
0.8014335
0.7986027
0.7960013
0.7959497
0.7942731
0.7926957
0.7912772
0.7900757
0.7891501
0.7885573
0.7883792
0.7887102
0.7898163
0.792211
0.7924708
0.7906263
0.7975955
0.7959529
0.7944035
0.7930104
0.7918301
0.7909132
0.7903082
0.7900537
0.7901988
0.7907312
0.7915223
0.7914085
0.7909484
0.7886839
0.7991635
0.7975493
0.7960194
0.7946421
0.7934732
0.7925577
0.7919274
0.7916014
0.7915613
0.7917484
0.7919431
0.7915732
0.7910923
0.7903139
0.7878897
0.8006947
0.7991123
0.7976064
0.7962486
0.7950939
0.7941822
0.7935366
0.7931555
0.7930062
0.7929896
0.7929429
0.7923812
0.7918445
0.7911998
0.7902852
0.7880884
0.8022148
0.800671
0.7991989
0.7978706
0.7967395
0.7958421
0.7951955
0.7947918
0.7945849
0.7944824
0.7943178
0.7936947
0.7930679
0.7924634
0.7917575
0.7909896
0.7877837
0.8037353
0.8022373
0.8008102
0.7995233
0.7984275
0.7975567
0.7969262
0.7965265
0.796313
0.7961907
0.7960078
0.7953694
0.794741
0.7941057
0.7934915
0.7929427
0.7912584
0.7881007
0.8052549
0.8038092
0.8024371
0.8012022
0.8001518
0.7993185
0.7987187
0.7983474
0.798167
0.7980904
0.7979574
0.7973717
0.7967758
0.7961813
0.7955719
0.7951259
0.7937659
0.7921481
0.789039
0.8067618
0.8053729
0.8040624
0.802886
0.8018868
0.8010972
0.8005377
0.8002133
0.8001044
0.8001422
0.8001587
0.7996863
0.7991934
0.79867
0.7981275
0.7976922
0.7965156
0.7952563
0.7937512
0.7907169
0.8082351
0.8069042
0.805656
0.804538
0.8035892
0.8028424
0.802324
0.8020548
0.8020483
0.8022931
0.8026515
0.8023974
0.8020701
0.8016744
0.8012142
0.8008423
0.7997442
0.798698
0.7975937
0.7962615
0.7934478
0.809648
0.8083689
0.8071747
0.8061053
0.8051976
0.8044842
0.8039961
0.8037691
0.8038613
0.8044021
0.8057491
0.8058271
0.8056614
0.8053547
0.8049686
0.8046569
0.8036804
0.8027438
0.8018838
0.8010006
0.7999743
0.7974847
0.8119133
0.8110492
0.8103545
0.8097745
0.8092894
0.8090164
0.808152
0.8073491
0.8066144
0.8059882
0.8054334
0.8047386
0.8026444
0.8159706
0.8150672
0.8143015
0.8136719
0.8131833
0.8129523
0.8121859
0.8114727
0.8108409
0.8103035
0.8099488
0.8096712
0.8092151
0.8075074
0.8189739
0.8181134
0.8173729
0.8167641
0.8163014
0.816101
0.8153941
0.8147391
0.8141507
0.8136593
0.8133243
0.8131609
0.8130375
0.8127564
0.8113371
0.8211822
0.820357
0.8196439
0.8190564
0.8186105
0.8184174
0.8177388
0.8171034
0.8165275
0.8160276
0.8156737
0.8154581
0.8153651
0.8153263
0.8151395
0.8227037
0.8218956
0.8211941
0.8206119
0.820164
0.8199563
0.819278
0.8186358
0.8180404
0.8175086
0.8170941
0.8168005
0.8165918
0.816507
0.8164787
0.8056217
0.8039375
0.801734
0.8001145
0.7991351
0.796925
0.7976673
0.7960489
0.7945282
0.7931617
0.7920042
0.7911085
0.7905314
0.7903353
0.7906364
0.7916351
0.7939503
0.7944399
0.794366
0.7924538
0.7992583
0.7976704
0.7961742
0.79483
0.7936908
0.7928041
0.7922113
0.7919535
0.792058
0.7925433
0.7932346
0.7931972
0.7930114
0.7924907
0.790257
0.8007761
0.7992136
0.7977342
0.7964034
0.7952739
0.794387
0.7937727
0.7934428
0.7933863
0.7935257
0.7936844
0.7932789
0.7928941
0.7923946
0.7916076
0.789454
0.8022602
0.8007267
0.7992686
0.7979548
0.7968375
0.7959538
0.7953241
0.7949461
0.7947819
0.7947441
0.7946574
0.7940953
0.7935293
0.7929835
0.7923327
0.7916099
0.7884063
0.8037353
0.8022373
0.8008102
0.7995233
0.7984275
0.7975567
0.7969262
0.7965265
0.796313
0.7961907
0.7960078
0.7953694
0.794741
0.7941057
0.7934915
0.7929427
0.7912584
0.7881007
0.8052122
0.803757
0.8023719
0.8011236
0.8000605
0.7992146
0.7985994
0.7982045
0.7979852
0.7978502
0.7976476
0.7970087
0.7963612
0.7957188
0.7950663
0.7945827
0.793184
0.7915264
0.7884168
0.8066899
0.8052839
0.8039506
0.8027511
0.8017308
0.8009202
0.8003345
0.7999672
0.7997813
0.799691
0.7995425
0.7989507
0.7983479
0.7977273
0.7971017
0.7965962
0.7953491
0.7940073
0.7924157
0.7893536
0.8081565
0.8068044
0.8055294
0.8043854
0.8034136
0.8026446
0.8020973
0.8017758
0.8016595
0.8016811
0.8016771
0.8011989
0.8006916
0.8001521
0.799574
0.7991029
0.7979027
0.7967397
0.7954982
0.7940184
0.7910944
0.8095922
0.8082949
0.8070794
0.8059907
0.8050668
0.8043385
0.8038308
0.8035628
0.8035464
0.8037686
0.8040954
0.8038269
0.8034828
0.8030626
0.8025757
0.8021505
0.8010429
0.7999557
0.7989228
0.7978355
0.7965833
0.7938304
0.8109699
0.8097224
0.8085579
0.8075157
0.8066307
0.8059343
0.8054557
0.8052288
0.8053085
0.8058182
0.8070994
0.8071507
0.8069611
0.8066297
0.8062107
0.8058553
0.804846
0.8038787
0.802953
0.8021059
0.8012895
0.8002999
0.7977688
0.8130679
0.812207
0.811506
0.8109102
0.8103991
0.8100787
0.8091857
0.8083301
0.8075374
0.8068144
0.8062471
0.8057189
0.8049769
0.8028271
0.8170126
0.8161118
0.815341
0.8146971
0.814183
0.813908
0.8131079
0.8123499
0.811646
0.8110247
0.8105408
0.8102073
0.8098828
0.809372
0.8075969
0.8199437
0.8190836
0.8183371
0.8177139
0.8172266
0.8169843
0.8162476
0.8155483
0.8149018
0.8143229
0.8138806
0.8135636
0.8133545
0.8131786
0.812835
0.8221078
0.8212822
0.8205629
0.8199618
0.8194932
0.8192623
0.818557
0.8178854
0.8172578
0.8166904
0.8162362
0.8158982
0.8156383
0.815495
0.8153976
0.8236074
0.8227991
0.8220923
0.8214984
0.8210309
0.8207902
0.8200903
0.8194184
0.8187832
0.8181956
0.8177068
0.8173064
0.8169701
0.8167133
0.816573
0.8083383
0.8076597
0.8058566
0.8050514
0.8042028
0.8022933
0.8013143
0.8006028
0.7999339
0.7979996
0.7993275
0.7977628
0.7962942
0.7949754
0.7938578
0.7929911
0.7924248
0.7922222
0.7924743
0.7933975
0.7955169
0.7960235
0.7961799
0.7959289
0.7939973
0.8008677
0.7993304
0.7978834
0.7965842
0.795483
0.7946236
0.7940448
0.7937799
0.7938602
0.7942812
0.7949054
0.7948056
0.7946842
0.7944188
0.7938373
0.7918186
0.802339
0.8008245
0.799392
0.7981041
0.7970108
0.7961508
0.7955509
0.7952218
0.7951456
0.7952556
0.795362
0.7949441
0.7945161
0.7940987
0.7935665
0.7929415
0.789772
0.8037793
0.8022911
0.8008776
0.7996047
0.798522
0.7976643
0.79705
0.7966749
0.7965021
0.7964411
0.7963317
0.79575
0.7951774
0.7945948
0.7940289
0.7935236
0.7918795
0.7887232
0.8052122
0.803757
0.8023719
0.8011236
0.8000605
0.7992146
0.7985994
0.7982045
0.7979852
0.7978502
0.7976476
0.7970087
0.7963612
0.7957188
0.7950663
0.7945827
0.793184
0.7915264
0.7884168
0.8066484
0.8052333
0.8038874
0.802675
0.8016425
0.8008199
0.8002193
0.7998294
0.7996063
0.7994602
0.7992454
0.7986035
0.7979525
0.7972878
0.7966235
0.796085
0.7948048
0.7934245
0.7917935
0.788732
0.8080866
0.806718
0.8054209
0.8042547
0.8032624
0.8024733
0.8019008
0.8015381
0.8013478
0.8012467
0.8010849
0.8004936
0.799883
0.7992533
0.7985993
0.7980661
0.7968046
0.7955713
0.7942476
0.7926822
0.7897331
0.8095157
0.8081979
0.8069564
0.8058426
0.8048965
0.8041468
0.8036114
0.8032929
0.8031707
0.8031784
0.8031574
0.8026755
0.8021614
0.8016069
0.8010122
0.8004978
0.7993011
0.7981121
0.7969626
0.7957388
0.7943402
0.7914809
0.8109155
0.8096503
0.8084652
0.8074043
0.8065037
0.805793
0.8052955
0.805029
0.8050038
0.8052063
0.8055053
0.8052259
0.8048687
0.8044331
0.8039231
0.8034664
0.8023405
0.8012421
0.8001658
0.799146
0.7981261
0.7969124
0.7941215
0.8122607
0.8110423
0.8099062
0.8088893
0.8080259
0.8073454
0.806876
0.8066495
0.8067181
0.8071996
0.8084215
0.80845
0.8082413
0.8078904
0.8074491
0.807057
0.8060353
0.805034
0.8040758
0.8031608
0.8023731
0.8015848
0.8005475
0.7979618
0.8142071
0.8133513
0.812647
0.8120403
0.8115094
0.8111545
0.8102402
0.8093552
0.8085085
0.8077259
0.8070568
0.8065116
0.8059358
0.8051385
0.8029206
0.8180455
0.8171491
0.8163759
0.815722
0.8151886
0.8148784
0.814057
0.8132645
0.8125149
0.8118204
0.8112486
0.8107831
0.8104036
0.8100261
0.8094521
0.8209077
0.8200498
0.8192997
0.8186661
0.8181596
0.8178835
0.817125
0.8163953
0.8157037
0.8150657
0.8145328
0.8141065
0.8137452
0.8134855
0.8132505
0.8230293
0.8222047
0.8214814
0.8208701
0.8203834
0.8201212
0.8193966
0.8186978
0.8180333
0.8174134
0.8168891
0.8164492
0.8160684
0.8157603
0.8155613
0.8245073
0.8237
0.8229897
0.8223868
0.8219034
0.8216353
0.8209192
0.8202253
0.81956
0.8189319
0.818385
0.8179091
0.8174674
0.8170849
0.8167751
0.8096832
0.8100851
0.808556
0.8084993
0.8078713
0.8063186
0.805917
0.8052944
0.8046987
0.8030685
0.8024355
0.8017677
0.8013344
0.8008704
0.7991518
0.8009346
0.7994197
0.797999
0.7967241
0.7956435
0.7948031
0.7942495
0.7940372
0.7942574
0.7950931
0.7970622
0.7974628
0.7976401
0.7976104
0.7972602
0.7955211
0.8024277
0.8009375
0.799536
0.7982783
0.7972121
0.7963783
0.7958124
0.7955451
0.7955993
0.7959762
0.796522
0.7963875
0.7961996
0.7959885
0.7956431
0.7951809
0.7921355
0.8038557
0.8023859
0.8009969
0.7997488
0.7986891
0.7978541
0.7972683
0.7969398
0.796851
0.7969304
0.7970036
0.7965566
0.7961106
0.7956438
0.7951815
0.7947689
0.7932127
0.7900884
0.8052549
0.8038092
0.8024371
0.8012022
0.8001518
0.7993185
0.7987187
0.7983474
0.798167
0.7980904
0.7979574
0.7973717
0.7967758
0.7961813
0.7955719
0.7951259
0.7937659
0.7921481
0.789039
0.8066484
0.8052333
0.8038874
0.802675
0.8016425
0.8008199
0.8002193
0.7998294
0.7996063
0.7994602
0.7992454
0.7986035
0.7979525
0.7972878
0.7966235
0.796085
0.7948048
0.7934245
0.7917935
0.788732
0.8080463
0.8066688
0.8053597
0.8041809
0.8031769
0.8023762
0.8017895
0.8014049
0.801179
0.8010244
0.8007994
0.8001607
0.7995048
0.7988341
0.7981449
0.7975825
0.7962924
0.7950262
0.7936641
0.7920597
0.7891124
0.8094476
0.8081139