/*--------------------------------*- C++ -*----------------------------------*\
| =========                 |                                                 |
| \\      /  F ield         | OpenFOAM: The Open Source CFD Toolbox           |
|  \\    /   O peration     | Version:  2306                                  |
|   \\  /    A nd           | Website:  www.openfoam.com                      |
|    \\/     M anipulation  |                                                 |
\*---------------------------------------------------------------------------*/
FoamFile
{
    version     2.0;
    format      ascii;
    arch        "LSB;label=32;scalar=64";
    class       volScalarField;
    location    "0.9/air";
    object      nernst;
}
// * * * * * * * * * * * * * * * * * * * * * * * * * * * * * * * * * * * * * //

dimensions      [1 2 -3 0 0 -1 0];

internalField   nonuniform List<scalar> 
16000
(
-0.7237432
-0.7152928
-0.7337744
-0.7151506
-0.7106067
-0.7317531
-0.6946618
-0.7365263
-0.731744
-0.7103491
-0.707938
-0.7300012
-0.6819209
-0.7357388
-0.7258007
-0.6817254
-0.7388085
-0.7358049
-0.7300037
-0.7075508
-0.7066977
-0.7287128
-0.6742885
-0.7350284
-0.7205915
-0.6626482
-0.7384438
-0.7335198
-0.7205573
-0.6737663
-0.7408472
-0.7385356
-0.7351816
-0.7287377
-0.7061449
-0.7066977
-0.7280304
-0.6706723
-0.7344839
-0.7167358
-0.650718
-0.7381209
-0.7314332
-0.7121425
-0.6502674
-0.7406437
-0.7375299
-0.731515
-0.7166221
-0.6696361
-0.7427123
-0.7407394
-0.7383241
-0.7347521
-0.7280916
-0.7059284
-0.7383785
-0.707938
-0.7280304
-0.6706723
-0.7341875
-0.7146872
-0.6449285
-0.7378751
-0.729822
-0.7058389
-0.6351399
-0.740469
-0.736622
-0.7281158
-0.7056927
-0.6436694
-0.7425751
-0.740217
-0.736744
-0.7300041
-0.7144492
-0.6689071
-0.7444371
-0.7426668
-0.7406793
-0.7382231
-0.7346066
-0.7281599
-0.7068969
-0.7381434
-0.7405494
-0.7396218
-0.7106067
-0.7287128
-0.6742885
-0.7341875
-0.7146872
-0.6449285
-0.7377416
-0.7289415
-0.7024684
-0.6276753
-0.7403389
-0.7359245
-0.7254612
-0.6974195
-0.6266853
-0.7424606
-0.7397577
-0.735292
-0.725548
-0.7020522
-0.642451
-0.744329
-0.7423383
-0.7398878
-0.7362122
-0.7292569
-0.7143191
-0.6715621
-0.7460435
-0.7444143
-0.7426624
-0.7406976
-0.7382769
-0.7348091
-0.7289793
-0.7092287
-0.7376632
-0.740376
-0.7393637
-0.7425379
-0.7416875
-0.7409029
-0.7152928
-0.7300012
-0.6819209
-0.7344839
-0.7167358
-0.650718
-0.7377416
-0.7289415
-0.7024684
-0.6276753
-0.7402691
-0.7355436
-0.7240013
-0.6929677
-0.6182263
-0.7423769
-0.7394128
-0.7341617
-0.7220347
-0.6926068
-0.625085
-0.7442401
-0.7420576
-0.7391783
-0.7343376
-0.7241948
-0.7017121
-0.6466151
-0.7459502
-0.744167
-0.7421838
-0.7397234
-0.7360584
-0.7294601
-0.7163184
-0.6779645
-0.7475466
-0.746029
-0.744429
-0.7427219
-0.7408187
-0.7385186
-0.7353866
-0.7305358
-0.7134493
-0.7368877
-0.740032
-0.7388208
-0.7423858
-0.7415149
-0.7406263
-0.7443391
-0.743539
-0.7428534
-0.7422255
-0.7237432
-0.7317531
-0.6946618
-0.7350284
-0.7205915
-0.6626482
-0.7378751
-0.729822
-0.7058389
-0.6351399
-0.7402691
-0.7355436
-0.7240013
-0.6929677
-0.6182263
-0.7423326
-0.7392271
-0.7335398
-0.720092
-0.6875033
-0.6164176
-0.7441761
-0.7418522
-0.738638
-0.7328613
-0.7201775
-0.6920872
-0.6303757
-0.7458739
-0.74396
-0.7417669
-0.7388361
-0.7339666
-0.7243726
-0.7048038
-0.6565295
-0.7474622
-0.7458202
-0.7440787
-0.742155
-0.7397851
-0.736373
-0.7306746
-0.720342
-0.6891013
-0.7489582
-0.747535
-0.7460496
-0.7445001
-0.7428616
-0.7410616
-0.738967
-0.7363388
-0.7328031
-0.7210369
-0.735496
-0.7395231
-0.7378909
-0.7420862
-0.7411745
-0.7400374
-0.7441995
-0.7433939
-0.7426812
-0.7419365
-0.7460005
-0.7452138
-0.7445634
-0.7440476
-0.743591
-0.7337744
-0.7151506
-0.7357388
-0.7258007
-0.6817254
-0.7381209
-0.7314332
-0.7121425
-0.6502674
-0.7403389
-0.7359245
-0.7254612
-0.6974195
-0.6266853
-0.7423326
-0.7392271
-0.7335398
-0.720092
-0.6875033
-0.6164176
-0.7441425
-0.7417435
-0.7383449
-0.7320434
-0.7179476
-0.6868798
-0.6223103
-0.7458191
-0.7438116
-0.7414581
-0.7381514
-0.7323041
-0.7203197
-0.6960285
-0.6428447
-0.747393
-0.7456471
-0.7437805
-0.7416535
-0.7388294
-0.7343274
-0.7261667
-0.7110864
-0.673142
-0.7488801
-0.7473475
-0.7457578
-0.7440972
-0.7422884
-0.7401195
-0.7371959
-0.7328423
-0.7261205
-0.7072963
-0.7502877
-0.7489477
-0.7475567
-0.746122
-0.7446403
-0.7430945
-0.7414412
-0.7396376
-0.7376867
-0.7358931
-0.7299869
-0.7388878
-0.7361591
-0.7416533
-0.7406819
-0.7390203
-0.7439248
-0.7431141
-0.7423428
-0.7413207
-0.7458694
-0.7450826
-0.744424
-0.7438754
-0.7432958
-0.747557
-0.7467668
-0.7461094
-0.7456107
-0.7452692
-0.7444313
-0.7365263
-0.731744
-0.7103491
-0.7384438
-0.7335198
-0.7205573
-0.6737663
-0.740469
-0.736622
-0.7281158
-0.7056927
-0.6436694
-0.7423769
-0.7394128
-0.7341617
-0.7220347
-0.6926068
-0.625085
-0.7441425
-0.7417435
-0.7383449
-0.7320434
-0.7179476
-0.6868798
-0.6223103
-0.7457906
-0.7437342
-0.7412935
-0.7377769
-0.7313778
-0.7180653
-0.691286
-0.6361233
-0.7473435
-0.7455244
-0.7435649
-0.741277
-0.7380828
-0.7326878
-0.7225639
-0.7040533
-0.6632144
-0.748816
-0.7471925
-0.7455126
-0.7437496
-0.7417724
-0.7392302
-0.7354703
-0.7294273
-0.7199614
-0.6985557
-0.7502147
-0.7487746
-0.7472959
-0.7457914
-0.7442483
-0.7426126
-0.740756
-0.7385236
-0.7358331
-0.7332799
-0.7244659
-0.7515426
-0.7502777
-0.748969
-0.7476269
-0.7462572
-0.7448601
-0.7434333
-0.7419788
-0.7405859
-0.7396556
-0.7387961
-0.7318877
-0.7411812
-0.7401043
-0.737226
-0.7435303
-0.7427351
-0.7418572
-0.7402726
-0.7456116
-0.7448313
-0.7441588
-0.7435367
-0.7426703
-0.7474326
-0.7466443
-0.7459852
-0.7454751
-0.7450967
-0.7441361
-0.7490205
-0.7482322
-0.7475526
-0.7470253
-0.7466794
-0.7460174
-0.7445392
-0.7388085
-0.7358049
-0.7300037
-0.7075508
-0.7406437
-0.7375299
-0.731515
-0.7166221
-0.6696361
-0.7424606
-0.7397577
-0.735292
-0.725548
-0.7020522
-0.642451
-0.7441761
-0.7418522
-0.738638
-0.7328613
-0.7201775
-0.6920872
-0.6303757
-0.7457906
-0.7437342
-0.7412935
-0.7377769
-0.7313778
-0.7180653
-0.691286
-0.6361233
-0.7473177
-0.7454609
-0.7434518
-0.7410747
-0.7376712
-0.73177
-0.720557
-0.7002597
-0.6584047
-0.74877
-0.7470832
-0.7453377
-0.7434954
-0.7413795
-0.7385242
-0.7340678
-0.7266705
-0.7152599
-0.6931463
-0.7501544
-0.7486315
-0.7470779
-0.7455103
-0.7439044
-0.742165
-0.7400722
-0.7373454
-0.7338137
-0.7305196
-0.720186
-0.751474
-0.7501157
-0.7487284
-0.7473328
-0.7459417
-0.7445531
-0.7431517
-0.7417149
-0.7403468
-0.7395551
-0.737923
-0.727397
-0.7527294
-0.7515331
-0.7502981
-0.7490361
-0.7477556
-0.7464642
-0.7451706
-0.7439001
-0.7427397
-0.7420719
-0.7419675
-0.7397559
-0.7338204
-0.7431173
-0.7424032
-0.7412887
-0.7385482
-0.7452412
-0.7444985
-0.7438113
-0.7430495
-0.7416307
-0.7471879
-0.7464098
-0.7457517
-0.7452183
-0.7447558
-0.7435134
-0.7489017
-0.748116
-0.7474372
-0.7469061
-0.7465458
-0.7458446
-0.7442441
-0.7504024
-0.7496194
-0.7489259
-0.7483573
-0.74796
-0.7473366
-0.7461139
-0.7446476
-0.7408472
-0.7385356
-0.7351816
-0.7287377
-0.7061449
-0.7425751
-0.740217
-0.736744
-0.7300041
-0.7144492
-0.6689071
-0.7442401
-0.7420576
-0.7391783
-0.7343376
-0.7241948
-0.7017121
-0.6466151
-0.7458191
-0.7438116
-0.7414581
-0.7381514
-0.7323041
-0.7203197
-0.6960285
-0.6428447
-0.7473177
-0.7454609
-0.7434518
-0.7410747
-0.7376712
-0.73177
-0.720557
-0.7002597
-0.6584047
-0.748746
-0.7470269
-0.7452469
-0.7433612
-0.7411664
-0.7381314
-0.7332771
-0.7251286
-0.7127205
-0.6905277
-0.7501112
-0.7485307
-0.7469233
-0.745308
-0.7436494
-0.7418156
-0.7395095
-0.736347
-0.7321137
-0.7283202
-0.7173269
-0.7514171
-0.7499818
-0.7485275
-0.7470845
-0.7456695
-0.7442736
-0.7428574
-0.7413523
-0.7398338
-0.7389165
-0.7368113
-0.7237688
-0.7526648
-0.7513807
-0.7500729
-0.7487649
-0.7474765
-0.7462265
-0.7450325
-0.7439329
-0.7430345
-0.7427211
-0.742172
-0.7389832
-0.730177
-0.7538537
-0.7527204
-0.7515527
-0.7503623
-0.7491585
-0.747951
-0.7467533
-0.7455931
-0.7445593
-0.7439776
-0.7440514
-0.7427645
-0.7407971
-0.7357881
-0.744853
-0.7442409
-0.7435167
-0.7424666
-0.7400327
-0.7468353
-0.7461
-0.7454562
-0.7448816
-0.74426
-0.7424922
-0.7486676
-0.7478934
-0.7472207
-0.7466833
-0.7462912
-0.745502
-0.743622
-0.7502884
-0.7495083
-0.7488166
-0.748247
-0.7478434
-0.7472032
-0.7459411
-0.7443526
-0.7517093
-0.7509374
-0.750236
-0.7496374
-0.7491793
-0.7485396
-0.7474221
-0.7462107
-0.7447565
-0.7427123
-0.7407394
-0.7383241
-0.7347521
-0.7280916
-0.7059284
-0.744329
-0.7423383
-0.7398878
-0.7362122
-0.7292569
-0.7143191
-0.6715621
-0.7458739
-0.74396
-0.7417669
-0.7388361
-0.7339666
-0.7243726
-0.7048038
-0.6565295
-0.7473435
-0.7455244
-0.7435649
-0.741277
-0.7380828
-0.7326878
-0.7225639
-0.7040533
-0.6632144
-0.748746
-0.7470269
-0.7452469
-0.7433612
-0.7411664
-0.7381314
-0.7332771
-0.7251286
-0.7127205
-0.6905277
-0.7500886
-0.7484788
-0.7468435
-0.7452025
-0.7435136
-0.7416234
-0.7391905
-0.7357737
-0.7311475
-0.7271139
-0.7159007
-0.7513762
-0.7498874
-0.7483853
-0.7469071
-0.7454712
-0.74406
-0.7426101
-0.7410101
-0.7393115
-0.738254
-0.7358656
-0.7212975
-0.7526109
-0.7512545
-0.7498848
-0.7485362
-0.7472376
-0.7460131
-0.7448791
-0.7438627
-0.7430455
-0.7428013
-0.7420489
-0.7380557
-0.7271478
-0.7537926
-0.7525767
-0.7513407
-0.750108
-0.7489008
-0.7477426
-0.7466641
-0.7457145
-0.7450079
-0.7448162
-0.744551
-0.742872
-0.7400832
-0.7328484
-0.75492
-0.7538453
-0.7527395
-0.7516142
-0.7504789
-0.7493437
-0.7482226
-0.7471442
-0.7461878
-0.7456457
-0.7457267
-0.7447482
-0.7436085
-0.7418858
-0.7377792
-0.7464598
-0.7458629
-0.7452441
-0.7445717
-0.7436487
-0.7409728
-0.7483292
-0.7475977
-0.7469484
-0.7464027
-0.7459493
-0.745
-0.7426032
-0.7500636
-0.7492949
-0.7486112
-0.7480417
-0.7476246
-0.7469473
-0.7455984
-0.7437311
-0.7515996
-0.7508306
-0.7501314
-0.7495331
-0.7490718
-0.7484233
-0.7472886
-0.7460378
-0.7444618
-0.7529477
-0.7521905
-0.7514894
-0.7508697
-0.7503653
-0.7496941
-0.7486158
-0.7475078
-0.7463079
-0.7448658
-0.7444371
-0.7426668
-0.7406793
-0.7382231
-0.7346066
-0.7281599
-0.7068969
-0.7459502
-0.744167
-0.7421838
-0.7397234
-0.7360584
-0.7294601
-0.7163184
-0.6779645
-0.747393
-0.7456471
-0.7437805
-0.7416535
-0.7388294
-0.7343274
-0.7261667
-0.7110864
-0.673142
-0.74877
-0.7470832
-0.7453377
-0.7434954
-0.7413795
-0.7385242
-0.7340678
-0.7266705
-0.7152599
-0.6931463
-0.7500886
-0.7484788
-0.7468435
-0.7452025
-0.7435136
-0.7416234
-0.7391905
-0.7357737
-0.7311475
-0.7271139
-0.7159007
-0.7513548
-0.7498387
-0.748312
-0.746815
-0.7453669
-0.7439443
-0.7424688
-0.7408046
-0.7389922
-0.7378536
-0.7353335
-0.7200543
-0.7525721
-0.7511654
-0.7497516
-0.7483732
-0.747065
-0.7458529
-0.7447473
-0.7437597
-0.7429476
-0.7427048
-0.7418416
-0.7372715
-0.7250499
-0.7537415
-0.7524574
-0.7511633
-0.7498935
-0.7486806
-0.7475571
-0.7465605
-0.7457391
-0.7451892
-0.7451202
-0.7447423
-0.7427651
-0.7392947
-0.7303632
-0.7548622
-0.7537095
-0.7525392
-0.7513742
-0.7502365
-0.7491504
-0.7481478
-0.7472815
-0.7466522
-0.7464861
-0.7462747
-0.7450981
-0.7436109
-0.7412086
-0.7354368
-0.7559323
-0.7549123
-0.7538639
-0.7527985
-0.7517256
-0.750655
-0.7496005
-0.7485884
-0.7476922
-0.7471687
-0.7472187
-0.7463508
-0.7454748
-0.7444728
-0.7429983
-0.7389451
-0.7479617
-0.7473638
-0.7467585
-0.7461789
-0.7455951
-0.7443706
-0.7410929
-0.7497375
-0.7490093
-0.7483515
-0.7477855
-0.7473412
-0.7465972
-0.7450958
-0.7427148
-0.7513828
-0.7506251
-0.7499343
-0.7493388
-0.7488711
-0.7482037
-0.7470326
-0.7456949
-0.743841
-0.7528418
-0.7520875
-0.7513887
-0.7507698
-0.7502638
-0.7495871
-0.7484995
-0.7473743
-0.746135
-0.7445712
-0.7541227
-0.7533835
-0.7526881
-0.7520578
-0.7515189
-0.7508262
-0.7497625
-0.7486921
-0.7475938
-0.7464052
-0.7449794
-0.7460435
-0.7444143
-0.7426624
-0.7406976
-0.7382769
-0.7348091
-0.7289793
-0.7092287
-0.7474622
-0.7458202
-0.7440787
-0.742155
-0.7397851
-0.736373
-0.7306746
-0.720342
-0.6891013
-0.748816
-0.7471925
-0.7455126
-0.7437496
-0.7417724
-0.7392302
-0.7354703
-0.7294273
-0.7199614
-0.6985557
-0.7501112
-0.7485307
-0.7469233
-0.745308
-0.7436494
-0.7418156
-0.7395095
-0.736347
-0.7321137
-0.7283202
-0.7173269
-0.7513548
-0.7498387
-0.748312
-0.746815
-0.7453669
-0.7439443
-0.7424688
-0.7408046
-0.7389922
-0.7378536
-0.7353335
-0.7200543
-0.7525517
-0.7511195
-0.749683
-0.7482889
-0.7469748
-0.7457671
-0.7446715
-0.7436894
-0.7428665
-0.7426159
-0.7417015
-0.7368302
-0.7239861
-0.7537046
-0.7523731
-0.7510377
-0.7497408
-0.7485221
-0.7474191
-0.7464705
-0.7457173
-0.7452369
-0.7452145
-0.7447898
-0.7425987
-0.7386413
-0.7286196
-0.7548137
-0.7535966
-0.7523715
-0.7511717
-0.7500294
-0.7489788
-0.7480605
-0.7473305
-0.7468727
-0.746841
-0.74655
-0.7452496
-0.7434958
-0.7405273
-0.7334461
-0.7558775
-0.7547839
-0.7536746
-0.7525716
-0.7514961
-0.7504715
-0.749529
-0.7487171
-0.7481288
-0.7479504
-0.7477364
-0.7467417
-0.7456794
-0.7443736
-0.7423444
-0.7368795
-0.756894
-0.7559253
-0.7549306
-0.7539209
-0.7529055
-0.7518938
-0.7508989
-0.7499456
-0.7490995
-0.7485919
-0.7486004
-0.7477859
-0.7469944
-0.74621
-0.7453406
-0.7436865
-0.73909
-0.7493764
-0.7487728
-0.7481642
-0.7475881
-0.7470743
-0.7462127
-0.7444648
-0.7412138
-0.7510676
-0.7503479
-0.7496826
-0.7490953
-0.7486139
-0.7479127
-0.7466817
-0.7451917
-0.7428275
-0.7526325
-0.7518889
-0.7511985
-0.7505833
-0.7500744
-0.7493859
-0.7482797
-0.7471181
-0.7457919
-0.7439513
-0.7540203
-0.753284
-0.7525909
-0.7519616
-0.7514219
-0.7507252
-0.7496555
-0.7485758
-0.7474603
-0.7462323
-0.7446852
-0.755239
-0.75452
-0.7538352
-0.7532016
-0.7526411
-0.7519348
-0.7508881
-0.749831
-0.7487687
-0.7476799
-0.7465067
-0.7450834
-0.7475466
-0.746029
-0.744429
-0.7427219
-0.7408187
-0.7385186
-0.7353866
-0.7305358
-0.7134493
-0.7488801
-0.7473475
-0.7457578
-0.7440972
-0.7422884
-0.7401195
-0.7371959
-0.7328423
-0.7261205
-0.7072963
-0.7501544
-0.7486315
-0.7470779
-0.7455103
-0.7439044
-0.742165
-0.7400722
-0.7373454
-0.7338137
-0.7305196
-0.720186
-0.7513762
-0.7498874
-0.7483853
-0.7469071
-0.7454712
-0.74406
-0.7426101
-0.7410101
-0.7393115
-0.738254
-0.7358656
-0.7212975
-0.7525517
-0.7511195
-0.749683
-0.7482889
-0.7469748
-0.7457671
-0.7446715
-0.7436894
-0.7428665
-0.7426159
-0.7417015
-0.7368302
-0.7239861
-0.7536852
-0.7523297
-0.7509729
-0.7496619
-0.7484396
-0.7473457
-0.7464186
-0.745694
-0.7452395
-0.7452345
-0.744791
-0.7424868
-0.7382758
-0.7277291
-0.7547785
-0.7535167
-0.7522526
-0.7510275
-0.7498804
-0.7488517
-0.747985
-0.7473329
-0.7469616
-0.7469906
-0.7466757
-0.7452931
-0.7433526
-0.7399817
-0.7320369
-0.7558314
-0.7546769
-0.7535157
-0.7523798
-0.7512999
-0.7503089
-0.7494468
-0.7487659
-0.7483442
-0.7482951
-0.7480172
-0.746961
-0.7457765
-0.7442362
-0.7417496
-0.7351282
-0.7568421
-0.7558039
-0.7547515
-0.7537061
-0.7526877
-0.7517186
-0.7508276
-0.7500597
-0.749497
-0.7493024
-0.7490655
-0.7481532
-0.7472378
-0.7462811
-0.7451453
-0.7430399
-0.7370537
-0.7578081
-0.7568878
-0.7559435
-0.7549858
-0.7540238
-0.7530666
-0.7521265
-0.7512262
-0.7504258
-0.749933
-0.7499066
-0.7491213
-0.7483653
-0.7476405
-0.7469411
-0.7458842
-0.7437779
-0.7392348
-0.7507125
-0.7501079
-0.7494915
-0.7489043
-0.7483789
-0.7476154
-0.7462941
-0.7445591
-0.7413355
-0.7523271
-0.751619
-0.7509533
-0.7503478
-0.7498314
-0.7491223
-0.7479879
-0.7467662
-0.7452881
-0.7429407
-0.7538176
-0.7530916
-0.7524067
-0.7517816
-0.7512404
-0.7505356
-0.7494542
-0.7483558
-0.7472038
-0.7458891
-0.7440663
-0.7551397
-0.7544236
-0.7537412
-0.7531087
-0.7525478
-0.7518383
-0.7507872
-0.749724
-0.7486523
-0.7475463
-0.7463338
-0.7447895
-0.7563004
-0.7556035
-0.7549327
-0.7543022
-0.7537295
-0.7530191
-0.7519913
-0.7509502
-0.7498998
-0.7488453
-0.74777
-0.7465994
-0.7451631
-0.7489582
-0.747535
-0.7460496
-0.7445001
-0.7428616
-0.7410616
-0.738967
-0.7363388
-0.7328031
-0.7210369
-0.7502147
-0.7487746
-0.7472959
-0.7457914
-0.7442483
-0.7426126
-0.740756
-0.7385236
-0.7358331
-0.7332799
-0.7244659
-0.7514171
-0.7499818
-0.7485275
-0.7470845
-0.7456695
-0.7442736
-0.7428574
-0.7413523
-0.7398338
-0.7389165
-0.7368113
-0.7237688
-0.7525721
-0.7511654
-0.7497516
-0.7483732
-0.747065
-0.7458529
-0.7447473
-0.7437597
-0.7429476
-0.7427048
-0.7418416
-0.7372715
-0.7250499
-0.7536852
-0.7523297
-0.7509729
-0.7496619
-0.7484396
-0.7473457
-0.7464186
-0.745694
-0.7452395
-0.7452345
-0.744791
-0.7424868
-0.7382758
-0.7277291
-0.75476
-0.7534755
-0.7521913
-0.7509528
-0.7498029
-0.7487844
-0.7479417
-0.7473245
-0.7469899
-0.7470446
-0.7467228
-0.7452977
-0.7432599
-0.7396803
-0.7313127
-0.7557978
-0.7546012
-0.7534031
-0.7522431
-0.7511587
-0.7501886
-0.7493764
-0.7487722
-0.7484382
-0.7484508
-0.7481586
-0.7470678
-0.7458051
-0.7441038
-0.7412953
-0.7338853
-0.7567981
-0.7557025
-0.7546011
-0.7535243
-0.7525013
-0.7515632
-0.750747
-0.7501015
-0.749694
-0.7496193
-0.7493259
-0.7483756
-0.7473914
-0.7463173
-0.7449789
-0.7424827
-0.7353275
-0.7577588
-0.756773
-0.7557742
-0.7547826
-0.7538173
-0.7528992
-0.7520551
-0.7513259
-0.7507853
-0.7505753
-0.7503178
-0.7494467
-0.7485946
-0.7477508
-0.7468898
-0.7456399
-0.7431319
-0.7372271
-0.758677
-0.7578028
-0.756906
-0.7559972
-0.7550852
-0.7541787
-0.7532893
-0.7524382
-0.7516801
-0.7512038
-0.7511492
-0.7503887
-0.7496489
-0.7489435
-0.748279
-0.7474041
-0.7459585
-0.7438693
-0.7393799
-0.7519778
-0.7513764
-0.7507574
-0.7501562
-0.7496085
-0.7488598
-0.7476876
-0.7463755
-0.7446537
-0.7414578
-0.7535213
-0.7528286
-0.7521671
-0.7515521
-0.7510065
-0.7502874
-0.74919
-0.7480631
-0.7468509
-0.7453845
-0.7430585
-0.7549432
-0.754237
-0.7535625
-0.7529343
-0.7523728
-0.7516568
-0.7505975
-0.7495226
-0.7484322
-0.7472896
-0.7459904
-0.7441715
-0.756204
-0.75551
-0.7548416
-0.7542123
-0.7536393
-0.7529263
-0.7518948
-0.7508493
-0.7497928
-0.748729
-0.7476364
-0.7464265
-0.7448694
-0.7573106
-0.7566369
-0.755983
-0.7553603
-0.7547833
-0.7540755
-0.7530711
-0.7520479
-0.7510125
-0.7499687
-0.748926
-0.7478523
-0.7466697
-0.7452202
-0.7502877
-0.7489477
-0.7475567
-0.746122
-0.7446403
-0.7430945
-0.7414412
-0.7396376
-0.7376867
-0.7358931
-0.7299869
-0.751474
-0.7501157
-0.7487284
-0.7473328
-0.7459417
-0.7445531
-0.7431517
-0.7417149
-0.7403468
-0.7395551
-0.737923
-0.727397
-0.7526109
-0.7512545
-0.7498848
-0.7485362
-0.7472376
-0.7460131
-0.7448791
-0.7438627
-0.7430455
-0.7428013
-0.7420489
-0.7380557
-0.7271478
-0.7537046
-0.7523731
-0.7510377
-0.7497408
-0.7485221
-0.7474191
-0.7464705
-0.7457173
-0.7452369
-0.7452145
-0.7447898
-0.7425987
-0.7386413
-0.7286196
-0.75476
-0.7534755
-0.7521913
-0.7509528
-0.7498029
-0.7487844
-0.7479417
-0.7473245
-0.7469899
-0.7470446
-0.7467228
-0.7452977
-0.7432599
-0.7396803
-0.7313127
-0.7557802
-0.754562
-0.7533449
-0.7521723
-0.7510851
-0.7501249
-0.7493364
-0.7487671
-0.7484715
-0.7485113
-0.7482171
-0.7471096
-0.7458077
-0.7440238
-0.7410494
-0.7332448
-0.7567662
-0.7556306
-0.7544942
-0.7533946
-0.7523671
-0.7514483
-0.7506788
-0.7501053
-0.749781
-0.7497653
-0.7494613
-0.7484941
-0.7474717
-0.746324
-0.74485
-0.7420702
-0.734102
-0.757717
-0.7566769
-0.7556316
-0.7546102
-0.7536401
-0.7527505
-0.7519756
-0.7513594
-0.750962
-0.7508616
-0.7505518
-0.7496509
-0.7487517
-0.7478356
-0.746864
-0.7454558
-0.7425784
-0.7355258
-0.7586303
-0.7576942
-0.7567459
-0.7558049
-0.7548895
-0.7540191
-0.7532186
-0.7525254
-0.7520057
-0.7517856
-0.7515115
-0.7506711
-0.7498486
-0.7490497
-0.7482686
-0.7472918
-0.7457088
-0.7432237
-0.7374003
-0.7595031
-0.7586726
-0.757821
-0.7569584
-0.7560934
-0.7552345
-0.7543925
-0.7535872
-0.752869
-0.7524103
-0.7523358
-0.7515984
-0.7508732
-0.7501728
-0.7495124
-0.7486874
-0.7474686
-0.7460327
-0.7439607
-0.7395247
-0.7531779
-0.7525842
-0.751967
-0.7513585
-0.7507884
-0.7500406
-0.7489246
-0.7477596
-0.7464569
-0.7447483
-0.7415843
-0.7546553
-0.7539804
-0.753328
-0.75271
-0.7521458
-0.7514187
-0.7503487
-0.7492575
-0.7481385
-0.7469355
-0.7454852
-0.7431665
-0.7560132
-0.7553286
-0.7546679
-0.754043
-0.7534699
-0.7527516
-0.7517133
-0.7506594
-0.7495912
-0.7485085
-0.7473793
-0.7460829
-0.7442521
-0.757217
-0.7565461
-0.7558944
-0.7552731
-0.754696
-0.7539859
-0.7529783
-0.7519515
-0.7509116
-0.7498616
-0.7488096
-0.7477186
-0.7464966
-0.7449267
-0.7582727
-0.7576231
-0.7569879
-0.7563769
-0.7558015
-0.755102
-0.7541235
-0.7531231
-0.7521048
-0.7510749
-0.7500415
-0.7489996
-0.7479138
-0.7467192
-0.7452532
-0.735496
-0.7515426
-0.7502777
-0.748969
-0.7476269
-0.7462572
-0.7448601
-0.7434333
-0.7419788
-0.7405859
-0.7396556
-0.7387961
-0.7318877
-0.7526648
-0.7513807
-0.7500729
-0.7487649
-0.7474765
-0.7462265
-0.7450325
-0.7439329
-0.7430345
-0.7427211
-0.742172
-0.7389832
-0.730177
-0.7537415
-0.7524574
-0.7511633
-0.7498935
-0.7486806
-0.7475571
-0.7465605
-0.7457391
-0.7451892
-0.7451202
-0.7447423
-0.7427651
-0.7392947
-0.7303632
-0.7547785
-0.7535167
-0.7522526
-0.7510275
-0.7498804
-0.7488517
-0.747985
-0.7473329
-0.7469616
-0.7469906
-0.7466757
-0.7452931
-0.7433526
-0.7399817
-0.7320369
-0.7557802
-0.754562
-0.7533449
-0.7521723
-0.7510851
-0.7501249
-0.7493364
-0.7487671
-0.7484715
-0.7485113
-0.7482171
-0.7471096
-0.7458077
-0.7440238
-0.7410494
-0.7332448
-0.7567493
-0.7555935
-0.7544391
-0.7533274
-0.7522972
-0.7513875
-0.7506401
-0.7500999
-0.7498125
-0.7498232
-0.7495189
-0.7485447
-0.7475046
-0.746321
-0.7447785
-0.7418502
-0.7334704
-0.7576865
-0.7566087
-0.7555303
-0.7544871
-0.7535125
-0.7526406
-0.7519089
-0.7513595
-0.7510394
-0.7509938
-0.7506752
-0.7497634
-0.7488416
-0.747885
-0.7468458
-0.7453258
-0.7421701
-0.7343177
-0.7585904
-0.7576032
-0.7566109
-0.7556416
-0.7547213
-0.7538771
-0.7531406
-0.7525518
-0.7521638
-0.7520437
-0.75172
-0.7508526
-0.7499916
-0.7491402
-0.7482859
-0.747233
-0.7455225
-0.7426739
-0.7357234
-0.7594587
-0.75857
-0.7576697
-0.7567767
-0.7559082
-0.7550827
-0.7543233
-0.7536644
-0.7531657
-0.7529402
-0.7526559
-0.7518419
-0.7510418
-0.7502613
-0.7495078
-0.7486174
-0.7473497
-0.7457776
-0.7433157
-0.7375726
-0.7602882
-0.7594997
-0.758691
-0.7578723
-0.7570518
-0.7562377
-0.7554404
-0.7546782
-0.7539978
-0.753558
-0.7534702
-0.7527568
-0.7520467
-0.7513522
-0.7506864
-0.7498798
-0.7487451
-0.7475329
-0.7461068
-0.744052
-0.739672
-0.7543178
-0.7537354
-0.753125
-0.7525144
-0.7519303
-0.75118
-0.7500995
-0.7489893
-0.7478316
-0.7465381
-0.7448471
-0.7417004
-0.7557331
-0.7550782
-0.7544385
-0.7538236
-0.7532489
-0.7525212
-0.7514747
-0.75041
-0.7493253
-0.7482138
-0.7470242
-0.745577
-0.7432496
-0.7570314
-0.7563697
-0.7557255
-0.7551085
-0.7545316
-0.7538168
-0.7528035
-0.7517699
-0.7507216
-0.7496598
-0.7485888
-0.7474612
-0.7461526
-0.7443101
-0.7581815
-0.7575347
-0.7569019
-0.7562922
-0.7557168
-0.7550153
-0.7540339
-0.7530304
-0.7520083
-0.7509739
-0.7499344
-0.748883
-0.7477799
-0.7465459
-0.7449598
-0.7591892
-0.7585643
-0.7579496
-0.757353
-0.756784
-0.7560969
-0.7551467
-0.7541717
-0.7531754
-0.7521617
-0.7511412
-0.7501079
-0.7490538
-0.7479562
-0.7467465
-0.7368877
-0.7388878
-0.7361591
-0.7527294
-0.7515331
-0.7502981
-0.7490361
-0.7477556
-0.7464642
-0.7451706
-0.7439001
-0.7427397
-0.7420719
-0.7419675
-0.7397559
-0.7338204
-0.7537926
-0.7525767
-0.7513407
-0.750108
-0.7489008
-0.7477426
-0.7466641
-0.7457145
-0.7450079
-0.7448162
-0.744551
-0.742872
-0.7400832
-0.7328484
-0.7548137
-0.7535966
-0.7523715
-0.7511717
-0.7500294
-0.7489788
-0.7480605
-0.7473305
-0.7468727
-0.746841
-0.74655
-0.7452496
-0.7434958
-0.7405273
-0.7334461
-0.7557978
-0.7546012
-0.7534031
-0.7522431
-0.7511587
-0.7501886
-0.7493764
-0.7487722
-0.7484382
-0.7484508
-0.7481586
-0.7470678
-0.7458051
-0.7441038
-0.7412953
-0.7338853
-0.7567493
-0.7555935
-0.7544391
-0.7533274
-0.7522972
-0.7513875
-0.7506401
-0.7500999
-0.7498125
-0.7498232
-0.7495189
-0.7485447
-0.7475046
-0.746321
-0.7447785
-0.7418502
-0.7334704
-0.7576704
-0.7565734
-0.755478
-0.7544233
-0.753446
-0.7525824
-0.7518712
-0.7513528
-0.7510672
-0.7510465
-0.7507282
-0.7498127
-0.7488815
-0.7479066
-0.746835
-0.745257
-0.7419527
-0.7336948
-0.7585613
-0.7575384
-0.7565148
-0.7555248
-0.7545999
-0.753772
-0.7530754
-0.7525484
-0.7522318
-0.7521625
-0.7518306
-0.7509542
-0.7500765
-0.7491984
-0.7483033
-0.7472003
-0.7453921
-0.7422697
-0.7345324
-0.7594208
-0.7584838
-0.7575419
-0.756622
-0.7557486
-0.7549474
-0.7542474
-0.7536851
-0.7533079
-0.7531736
-0.7528419
-0.7520015
-0.7511669
-0.750343
-0.7495341
-0.7485997
-0.7472871
-0.7455891
-0.7427694
-0.73592
-0.7602461
-0.7594028
-0.7585482
-0.7577007
-0.7568767
-0.7560938
-0.7553736
-0.7547475
-0.7542702
-0.7540435
-0.7537543
-0.7529669
-0.7521868
-0.751421
-0.7506756
-0.7498208
-0.7486688
-0.7474074
-0.7458465
-0.7434074
-0.7377453
-0.7610342
-0.7602858
-0.7595183
-0.7587414
-0.7579632
-0.7571915
-0.7564364
-0.7557149
-0.7550708
-0.7546506
-0.7545553
-0.7538668
-0.7531742
-0.7524879
-0.7518203
-0.751021
-0.7499324
-0.7488027
-0.7475972
-0.7461807
-0.7441479
-0.739807
-0.7554017
-0.7548334
-0.7542336
-0.7536268
-0.7530354
-0.752288
-0.751234
-0.7501582
-0.749054
-0.7479034
-0.7466235
-0.7449373
-0.7417911
-0.7567586
-0.756125
-0.755501
-0.7548938
-0.7543161
-0.7535932
-0.7525728
-0.7515308
-0.7504714
-0.7493929
-0.7482929
-0.7471049
-0.7456459
-0.7433099
-0.7580009
-0.7573629
-0.7567373
-0.7561319
-0.7555571
-0.7548515
-0.7538649
-0.7528555
-0.7518267
-0.7507837
-0.7497323
-0.7486619
-0.747522
-0.7462016
-0.7443436
-0.7591004
-0.7584782
-0.7578658
-0.7572706
-0.7567018
-0.7560129
-0.75506
-0.7540821
-0.7530827
-0.7520652
-0.7510402
-0.7500007
-0.7489371
-0.7478221
-0.746573
-0.7600627
-0.7594628
-0.7588697
-0.7582898
-0.7577309
-0.7570595
-0.7561388
-0.7551915
-0.75422
-0.7532277
-0.7522226
-0.7512016
-0.7501561
-0.7490901
-0.7479781
-0.7376632
-0.7395231
-0.7378909
-0.7411812
-0.7401043
-0.737226
-0.7538537
-0.7527204
-0.7515527
-0.7503623
-0.7491585
-0.747951
-0.7467533
-0.7455931
-0.7445593
-0.7439776
-0.7440514
-0.7427645
-0.7407971
-0.7357881
-0.7548622
-0.7537095
-0.7525392
-0.7513742
-0.7502365
-0.7491504
-0.7481478
-0.7472815
-0.7466522
-0.7464861
-0.7462747
-0.7450981
-0.7436109
-0.7412086
-0.7354368
-0.7558314
-0.7546769
-0.7535157
-0.7523798
-0.7512999
-0.7503089
-0.7494468
-0.7487659
-0.7483442
-0.7482951
-0.7480172
-0.746961
-0.7457765
-0.7442362
-0.7417496
-0.7351282
-0.7567662
-0.7556306
-0.7544942
-0.7533946
-0.7523671
-0.7514483
-0.7506788
-0.7501053
-0.749781
-0.7497653
-0.7494613
-0.7484941
-0.7474717
-0.746324
-0.74485
-0.7420702
-0.734102
-0.7576704
-0.7565734
-0.755478
-0.7544233
-0.753446
-0.7525824
-0.7518712
-0.7513528
-0.7510672
-0.7510465
-0.7507282
-0.7498127
-0.7488815
-0.7479066
-0.746835
-0.745257
-0.7419527
-0.7336948
-0.7585459
-0.7575049
-0.7564652
-0.7554643
-0.7545367
-0.7537164
-0.7530388
-0.7525404
-0.7522558
-0.7522098
-0.7518783
-0.7509992
-0.7501152
-0.749226
-0.7483126
-0.7471846
-0.7453236
-0.7420549
-0.7339182
-0.759393
-0.7584224
-0.7574509
-0.7565113
-0.7556334
-0.7548471
-0.7541842
-0.7536791
-0.7533679
-0.7532804
-0.7529408
-0.7520917
-0.7512428
-0.7503981
-0.7495604
-0.7485996
-0.7472526
-0.7454584
-0.7423692
-0.734746
-0.76021
-0.7593212
-0.7584274
-0.7575543
-0.7567256
-0.7559652
-0.7553003
-0.754764
-0.754399
-0.7542559
-0.7539209
-0.7531072
-0.7522948
-0.7514905
-0.7506988
-0.7498141
-0.748647
-0.7473411
-0.7456558
-0.7428645
-0.736115
-0.7609942
-0.7601944
-0.7593837
-0.7585795
-0.757798
-0.7570557
-0.7563727
-0.7557784
-0.7553229
-0.7550984
-0.7548091
-0.7540485
-0.75329
-0.7525385
-0.7518005
-0.7509617
-0.7498676
-0.74872
-0.7474653
-0.7459151
-0.7435034
-0.7379032
-0.7617423
-0.7610327
-0.7603047
-0.7595678
-0.75883
-0.7580988
-0.7573837
-0.756701
-0.7560915
-0.7556918
-0.7555935
-0.7549307
-0.7542576
-0.7535834
-0.7529179
-0.752128
-0.7510695
-0.7499849
-0.7488602
-0.7476612
-0.7462593
-0.7442352
-0.7399154
-0.7564331
-0.7558813
-0.7552952
-0.7546965
-0.7541046
-0.7533644
-0.7523379
-0.7512879
-0.750217
-0.7491185
-0.7479792
-0.7467011
-0.7450042
-0.7418583
-0.7577349
-0.7571238
-0.7565175
-0.7559218
-0.7553467
-0.7546339
-0.753641
-0.7526244
-0.7515869
-0.7505327
-0.7494644
-0.7483649
-0.7471645
-0.7456938
-0.7433454
-0.7589244
-0.7583108
-0.7577054
-0.7571145
-0.7565464
-0.7558538
-0.7548962
-0.7539131
-0.7529077
-0.7518834
-0.7508498
-0.7497983
-0.7487155
-0.7475636
-0.746228
-0.7599761
-0.7593789
-0.758788
-0.7582096
-0.7576509
-0.7569778
-0.7560548
-0.7551049
-0.7541305
-0.753135
-0.7521261
-0.7511005
-0.7500487
-0.7489732
-0.7478437
-0.7608951
-0.7603206
-0.7597498
-0.7591884
-0.7586425
-0.7579891
-0.7570988
-0.7561808
-0.7552366
-0.7542685
-0.753284
-0.752278
-0.7512448
-0.7501874
-0.7491073
-0.7381434
-0.740032
-0.7388208
-0.7416533
-0.7406819
-0.7390203
-0.7431173
-0.7424032
-0.7412887
-0.7385482
-0.75492
-0.7538453
-0.7527395
-0.7516142
-0.7504789
-0.7493437
-0.7482226
-0.7471442
-0.7461878
-0.7456457
-0.7457267
-0.7447482
-0.7436085
-0.7418858
-0.7377792
-0.7558775
-0.7547839
-0.7536746
-0.7525716
-0.7514961
-0.7504715
-0.749529
-0.7487171
-0.7481288
-0.7479504
-0.7477364
-0.7467417
-0.7456794
-0.7443736
-0.7423444
-0.7368795
-0.7567981
-0.7557025
-0.7546011
-0.7535243
-0.7525013
-0.7515632
-0.750747
-0.7501015
-0.749694
-0.7496193
-0.7493259
-0.7483756
-0.7473914
-0.7463173
-0.7449789
-0.7424827
-0.7353275
-0.7576865
-0.7566087
-0.7555303
-0.7544871
-0.7535125
-0.7526406
-0.7519089
-0.7513595
-0.7510394
-0.7509938
-0.7506752
-0.7497634
-0.7488416
-0.747885
-0.7468458
-0.7453258
-0.7421701
-0.7343177
-0.7585459
-0.7575049
-0.7564652
-0.7554643
-0.7545367
-0.7537164
-0.7530388
-0.7525404
-0.7522558
-0.7522098
-0.7518783
-0.7509992
-0.7501152
-0.749226
-0.7483126
-0.7471846
-0.7453236
-0.7420549
-0.7339182
-0.7593783
-0.7583906
-0.7574039
-0.7564539
-0.7555733
-0.754794
-0.7541487
-0.7536701
-0.7533885
-0.7533227
-0.7529836
-0.7521319
-0.7512779
-0.750425
-0.7495751
-0.7486018
-0.7472363
-0.74539
-0.742157
-0.7341404
-0.7601835
-0.759263
-0.7583412
-0.7574495
-0.7566164
-0.7558699
-0.7552393
-0.7547562
-0.7544523
-0.7543525
-0.7540096
-0.7531871
-0.7523613
-0.7515392
-0.7507244
-0.7498233
-0.7486448
-0.7473049
-0.7455247
-0.7424684
-0.7349568
-0.7609598
-0.7601172
-0.7592695
-0.7584413
-0.7576552
-0.7569338
-0.7563026