/*--------------------------------*- C++ -*----------------------------------*\
| =========                 |                                                 |
| \\      /  F ield         | OpenFOAM: The Open Source CFD Toolbox           |
|  \\    /   O peration     | Version:  2306                                  |
|   \\  /    A nd           | Website:  www.openfoam.com                      |
|    \\/     M anipulation  |                                                 |
\*---------------------------------------------------------------------------*/
FoamFile
{
    version     2.0;
    format      ascii;
    arch        "LSB;label=32;scalar=64";
    class       volScalarField;
    location    "0.9/air";
    object      O2;
}
// * * * * * * * * * * * * * * * * * * * * * * * * * * * * * * * * * * * * * //

dimensions      [0 0 0 0 0 0 0];

internalField   nonuniform List<scalar> 
16000
(
0.2299498
0.2299781
0.2281599
0.2299154
0.2300147
0.2282501
0.2299557
0.2257736
0.2280413
0.229812
0.2300454
0.2283678
0.230005
0.2258898
0.2281631
0.2298698
0.2231778
0.2256242
0.2277358
0.2295956
0.2300624
0.2284676
0.2300444
0.2260514
0.2283139
0.2299394
0.2232918
0.225774
0.2278986
0.2296743
0.2206361
0.2230264
0.2252534
0.2271753
0.2292068
0.2300624
0.2285234
0.2300656
0.2261969
0.2284369
0.2299935
0.2234483
0.2259734
0.2281009
0.2297697
0.2207453
0.2231735
0.2254423
0.2273802
0.2293088
0.218206
0.2204908
0.2226519
0.2245979
0.2262949
0.2285642
0.1903219
0.2300454
0.2285234
0.2300656
0.2262813
0.2285041
0.2300216
0.2235878
0.2261493
0.2282646
0.229843
0.220895
0.2233668
0.2256883
0.2276383
0.2294363
0.2183093
0.2206315
0.2228365
0.2248225
0.2265403
0.2286926
0.2158959
0.2180679
0.2201319
0.2219941
0.2236063
0.2250329
0.2275576
0.191668
0.1887108
0.190109
0.2300147
0.2284676
0.2300444
0.2262813
0.2285041
0.2300216
0.2236684
0.2262503
0.2283528
0.2298818
0.2210283
0.223535
0.2259031
0.2278531
0.2295382
0.2184509
0.2208161
0.2230758
0.2251144
0.2268534
0.2288607
0.2159937
0.2182009
0.2203077
0.2222103
0.2238607
0.2253183
0.2277224
0.2136983
0.2157653
0.217727
0.2195031
0.2210081
0.2222386
0.2233294
0.2260331
0.1943874
0.1899145
0.1914502
0.1881344
0.1885164
0.189684
0.2299781
0.2283678
0.230005
0.2261969
0.2284369
0.2299935
0.2236684
0.2262503
0.2283528
0.2298818
0.2211052
0.2236308
0.2260262
0.2279716
0.2295937
0.2185769
0.2209764
0.2232817
0.2253656
0.2271174
0.2290018
0.2161277
0.2183754
0.2205351
0.2224913
0.2241935
0.2256868
0.2279485
0.2137911
0.2158913
0.217893
0.2197077
0.2212479
0.2225186
0.2236616
0.2262728
0.2116026
0.2135744
0.2154428
0.2171302
0.2185639
0.2196649
0.2204646
0.2211227
0.2237521
0.1985803
0.1923405
0.1941522
0.1892503
0.1897165
0.1910165
0.1877248
0.1879555
0.1881284
0.1890482
0.2299498
0.2282501
0.2299557
0.2260514
0.2283139
0.2299394
0.2235878
0.2261493
0.2282646
0.229843
0.2211052
0.2236308
0.2260262
0.2279716
0.2295937
0.2186496
0.2210676
0.2233984
0.2255078
0.2272647
0.2290808
0.216247
0.2185268
0.2207304
0.222733
0.2244805
0.2260003
0.2281444
0.2139182
0.2160564
0.2181076
0.2199729
0.2215621
0.2228889
0.2240945
0.226602
0.2116909
0.2136939
0.2156
0.2173231
0.2187892
0.219923
0.2207753
0.2215332
0.2241967
0.2095983
0.2114847
0.2132683
0.2148784
0.2162399
0.2172895
0.2179469
0.2182558
0.2183292
0.2202706
0.2046404
0.1960637
0.1982795
0.1914985
0.1921288
0.1936897
0.1887664
0.1890682
0.189322
0.1903701
0.1872627
0.1875581
0.1875982
0.1875476
0.1882032
0.2281599
0.2299154
0.2258898
0.2281631
0.2298698
0.2234483
0.2259734
0.2281009
0.2297697
0.2210283
0.223535
0.2259031
0.2278531
0.2295382
0.2186496
0.2210676
0.2233984
0.2255078
0.2272647
0.2290808
0.2163157
0.218613
0.2208409
0.22287
0.2246429
0.2261762
0.2282557
0.2140313
0.2161996
0.2182919
0.2202006
0.2218338
0.2232097
0.224464
0.2268839
0.2118119
0.2138505
0.215803
0.2175729
0.2190835
0.2202651
0.2211891
0.222062
0.2247344
0.2096826
0.2115985
0.2134175
0.215061
0.2164519
0.2175306
0.2182285
0.2186285
0.2189263
0.2213325
0.2076759
0.2094858
0.2111936
0.2127325
0.2140362
0.215033
0.2156658
0.2158377
0.21556
0.2147752
0.2145139
0.2014002
0.2040195
0.1949466
0.1957983
0.1977192
0.1908643
0.1913043
0.1917119
0.1930108
0.188242
0.1885968
0.1887054
0.1887336
0.1895143
0.1866728
0.1871062
0.1872253
0.1870635
0.1867753
0.1869849
0.2257736
0.2280413
0.229812
0.2232918
0.225774
0.2278986
0.2296743
0.220895
0.2233668
0.2256883
0.2276383
0.2294363
0.2185769
0.2209764
0.2232817
0.2253656
0.2271174
0.2290018
0.2163157
0.218613
0.2208409
0.22287
0.2246429
0.2261762
0.2282557
0.2140965
0.2162812
0.2183961
0.2203294
0.2219881
0.2233916
0.2246718
0.227042
0.2119195
0.2139863
0.2159772
0.2177873
0.2193376
0.2205628
0.2215481
0.2225075
0.2251587
0.2097981
0.2117476
0.2136101
0.2152972
0.2167286
0.2178491
0.218605
0.2191173
0.2196334
0.2222831
0.2077567
0.2095944
0.2113357
0.2129059
0.214237
0.2152596
0.2159281
0.2161746
0.2161008
0.2159059
0.2175694
0.2058282
0.2075683
0.2092079
0.2106838
0.2119328
0.2128946
0.2134971
0.2136786
0.2132954
0.2122285
0.2099566
0.2116384
0.1998836
0.2008676
0.2030941
0.1940807
0.1947036
0.1953023
0.1969429
0.1902141
0.1906837
0.1909217
0.191099
0.192126
0.187598
0.1880828
0.1882591
0.1881643
0.187954
0.1882851
0.1859913
0.1865249
0.1867935
0.1867271
0.1863522
0.1856614
0.1867338
0.2231778
0.2256242
0.2277358
0.2295956
0.2207453
0.2231735
0.2254423
0.2273802
0.2293088
0.2184509
0.2208161
0.2230758
0.2251144
0.2268534
0.2288607
0.216247
0.2185268
0.2207304
0.222733
0.2244805
0.2260003
0.2281444
0.2140965
0.2162812
0.2183961
0.2203294
0.2219881
0.2233916
0.2246718
0.227042
0.2119815
0.2140636
0.2160757
0.2179085
0.2194815
0.2207323
0.2217515
0.2227558
0.2253861
0.2099008
0.2118769
0.2137753
0.2154999
0.2169672
0.2181257
0.2189333
0.2195343
0.2201977
0.2229305
0.2078672
0.2097367
0.2115191
0.2131301
0.2144988
0.2155588
0.2162779
0.2166182
0.2167474
0.2169594
0.2191877
0.2059056
0.2076723
0.2093436
0.210849
0.2121236
0.2131094
0.2137437
0.2139931
0.2137902
0.2132665
0.2127761
0.2152317
0.2040483
0.2057249
0.2073024
0.2087211
0.2099226
0.2108483
0.2114412
0.2116192
0.2112882
0.2101817
0.2077873
0.207534
0.2094014
0.1986835
0.1993954
0.2000684
0.2020176
0.1932373
0.1938551
0.1942494
0.1946118
0.1959832
0.1894611
0.1900447
0.1903279
0.1903592
0.1902985
0.190872
0.1868695
0.1874476
0.1877656
0.1877552
0.187447
0.1868331
0.1880317
0.1852331
0.1858508
0.1862294
0.1863254
0.1860643
0.1853261
0.1854318
0.1864806
0.2206361
0.2230264
0.2252534
0.2271753
0.2292068
0.2183093
0.2206315
0.2228365
0.2248225
0.2265403
0.2286926
0.2161277
0.2183754
0.2205351
0.2224913
0.2241935
0.2256868
0.2279485
0.2140313
0.2161996
0.2182919
0.2202006
0.2218338
0.2232097
0.224464
0.2268839
0.2119815
0.2140636
0.2160757
0.2179085
0.2194815
0.2207323
0.2217515
0.2227558
0.2253861
0.20996
0.2119504
0.2138687
0.2156144
0.2171025
0.2182828
0.21912
0.219768
0.220503
0.2232535
0.2079656
0.2098601
0.2116763
0.2133224
0.2147244
0.2158184
0.2165819
0.2169981
0.2172671
0.2177072
0.2201235
0.2060117
0.2078086
0.2095187
0.2110626
0.2123723
0.2133927
0.2140723
0.2144059
0.2143825
0.214235
0.2143731
0.2171947
0.2041228
0.2058247
0.2074323
0.208879
0.2101046
0.2110527
0.2116754
0.2119154
0.2117518
0.211144
0.2103939
0.2108091
0.21316
0.2023307
0.2039491
0.2054698
0.2068364
0.207994
0.2088898
0.209467
0.2096632
0.209362
0.2083632
0.2060477
0.2055584
0.2056381
0.2075702
0.1975625
0.1982302
0.1986637
0.1991315
0.2008633
0.1923167
0.1930258
0.1934333
0.1936174
0.1937543
0.1946824
0.188638
0.1893011
0.1897108
0.1898047
0.1896243
0.189162
0.1906137
0.1860696
0.1867267
0.1871479
0.1872923
0.1870873
0.1864157
0.1866021
0.1877763
0.1844246
0.1850993
0.1855703
0.185787
0.1857026
0.1851082
0.1851146
0.1852002
0.1862253
0.218206
0.2204908
0.2226519
0.2245979
0.2262949
0.2285642
0.2159937
0.2182009
0.2203077
0.2222103
0.2238607
0.2253183
0.2277224
0.2139182
0.2160564
0.2181076
0.2199729
0.2215621
0.2228889
0.2240945
0.226602
0.2119195
0.2139863
0.2159772
0.2177873
0.2193376
0.2205628
0.2215481
0.2225075
0.2251587
0.20996
0.2119504
0.2138687
0.2156144
0.2171025
0.2182828
0.21912
0.219768
0.220503
0.2232535
0.2080222
0.2099303
0.2117652
0.2134311
0.2148521
0.2159658
0.2167545
0.2172116
0.217549
0.21809
0.2205613
0.206106
0.2079267
0.2096689
0.2112458
0.2125866
0.2136383
0.214358
0.2147584
0.214859
0.2149241
0.2153435
0.2183008
0.2042248
0.2059555
0.2076001
0.2090831
0.2103418
0.2113222
0.2119871
0.2123041
0.2123054
0.2120405
0.2118711
0.2126895
0.2153471
0.2024024
0.2040451
0.2055946
0.2069878
0.2081682
0.2090851
0.2096902
0.2099448
0.2097997
0.2092671
0.2084758
0.2085901
0.2090569
0.2113447
0.2006704
0.2022351
0.2037038
0.2050227
0.2061403
0.2070071
0.2075735
0.2077762
0.2075241
0.2066008
0.2044813
0.2039745
0.2038185
0.2040745
0.2060236
0.1964017
0.1971375
0.1975511
0.1978073
0.1981189
0.1994743
0.1913485
0.1921171
0.1926304
0.1928464
0.1928325
0.1925871
0.1944149
0.1877541
0.1884861
0.1889858
0.1892199
0.1891212
0.1885808
0.1889279
0.1903534
0.1852239
0.1859336
0.1864423
0.1867007
0.186665
0.1861267
0.1862031
0.1863692
0.1875187
0.1835784
0.1842967
0.184832
0.1851503
0.1851983
0.1848041
0.1849111
0.1849013
0.1849667
0.1859678
0.2158959
0.2180679
0.2201319
0.2219941
0.2236063
0.2250329
0.2275576
0.2137911
0.2158913
0.217893
0.2197077
0.2212479
0.2225186
0.2236616
0.2262728
0.2118119
0.2138505
0.215803
0.2175729
0.2190835
0.2202651
0.2211891
0.222062
0.2247344
0.2099008
0.2118769
0.2137753
0.2154999
0.2169672
0.2181257
0.2189333
0.2195343
0.2201977
0.2229305
0.2080222
0.2099303
0.2117652
0.2134311
0.2148521
0.2159658
0.2167545
0.2172116
0.217549
0.21809
0.2205613
0.2061604
0.2079939
0.2097537
0.2113492
0.2127079
0.2137777
0.2145201
0.2149561
0.2151178
0.2152774
0.2158113
0.2188085
0.2043155
0.2060688
0.2077439
0.2092581
0.2105461
0.2115558
0.2122577
0.2126361
0.2127498
0.212678
0.21277
0.213795
0.216583
0.2025007
0.2041708
0.2057555
0.2071834
0.208395
0.2093424
0.2099871
0.210314
0.2103223
0.2101082
0.2098503
0.210333
0.2111245
0.2136594
0.2007396
0.2023276
0.2038238
0.2051681
0.2063073
0.2071942
0.207787
0.2080449
0.2079404
0.2074551
0.2067637
0.2068009
0.2069872
0.2075138
0.2097679
0.1990632
0.2005782
0.2019989
0.2032739
0.2043546
0.205195
0.2057487
0.2059611
0.205741
0.2049053
0.2029361
0.2025354
0.2023579
0.2023879
0.2027426
0.2044966
0.1952256
0.1960009
0.196501
0.1967566
0.1968829
0.1968904
0.1991901
0.1903358
0.1911592
0.191744
0.1920801
0.1921175
0.1917643
0.1923471
0.1941459
0.1868334
0.1876095
0.188187
0.1885222
0.1885783
0.1881505
0.1883659
0.1886919
0.1900911
0.184344
0.1850939
0.1856626
0.1860178
0.1861079
0.1857627
0.1859288
0.1859888
0.1861343
0.1872591
0.1827076
0.1834559
0.1840413
0.1844318
0.1845913
0.1843491
0.1846189
0.1847123
0.1846862
0.1847312
0.1856536
0.2136983
0.2157653
0.217727
0.2195031
0.2210081
0.2222386
0.2233294
0.2260331
0.2116909
0.2136939
0.2156
0.2173231
0.2187892
0.219923
0.2207753
0.2215332
0.2241967
0.2097981
0.2117476
0.2136101
0.2152972
0.2167286
0.2178491
0.218605
0.2191173
0.2196334
0.2222831
0.2079656
0.2098601
0.2116763
0.2133224
0.2147244
0.2158184
0.2165819
0.2169981
0.2172671
0.2177072
0.2201235
0.2061604
0.2079939
0.2097537
0.2113492
0.2127079
0.2137777
0.2145201
0.2149561
0.2151178
0.2152774
0.2158113
0.2188085
0.2043677
0.2061333
0.2078252
0.209357
0.2106617
0.2116883
0.2124112
0.2128222
0.2129906
0.2130047
0.2132037
0.2143166
0.2171465
0.202588
0.2042798
0.2058936
0.2073511
0.2085904
0.2095654
0.2102448
0.210629
0.2107416
0.2107052
0.2106858
0.211359
0.2123354
0.2149813
0.2008344
0.2024487
0.2039786
0.2053559
0.2065249
0.2074406
0.2080709
0.208397
0.2084371
0.20825
0.2080552
0.208425
0.2089065
0.2096915
0.2121377
0.1991301
0.2006675
0.2021145
0.2034138
0.2045151
0.2053746
0.2059534
0.2062184
0.2061382
0.2057172
0.205093
0.2051926
0.2053139
0.2055797
0.2061665
0.2082026
0.1975054
0.1989742
0.2003503
0.2015848
0.2026314
0.203447
0.203989
0.2042063
0.2040187
0.2032479
0.2014277
0.2010994
0.201019
0.2010304
0.2011733
0.2014146
0.2041867
0.1940285
0.1948456
0.1954006
0.1957565
0.1958994
0.1957631
0.196639
0.1989055
0.1893002
0.1901556
0.1908054
0.1912248
0.1913966
0.1911255
0.1915447
0.1921055
0.1938753
0.1858858
0.1866953
0.1873247
0.1877471
0.1879163
0.1876672
0.1879506
0.1881493
0.1884542
0.1898268
0.1834426
0.1842196
0.184835
0.1852583
0.185455
0.1852554
0.1855768
0.1857292
0.1857727
0.1858975
0.1869423
0.1818199
0.18259
0.1832112
0.1836588
0.1838992
0.183785
0.184174
0.1844322
0.1845119
0.1844693
0.1844439
0.1853322
0.2116026
0.2135744
0.2154428
0.2171302
0.2185639
0.2196649
0.2204646
0.2211227
0.2237521
0.2096826
0.2115985
0.2134175
0.215061
0.2164519
0.2175306
0.2182285
0.2186285
0.2189263
0.2213325
0.2078672
0.2097367
0.2115191
0.2131301
0.2144988
0.2155588
0.2162779
0.2166182
0.2167474
0.2169594
0.2191877
0.206106
0.2079267
0.2096689
0.2112458
0.2125866
0.2136383
0.214358
0.2147584
0.214859
0.2149241
0.2153435
0.2183008
0.2043677
0.2061333
0.2078252
0.209357
0.2106617
0.2116883
0.2124112
0.2128222
0.2129906
0.2130047
0.2132037
0.2143166
0.2171465
0.2026384
0.2043417
0.2059716
0.2074458
0.2087009
0.2096919
0.210391
0.2108055
0.210969
0.2110108
0.2110888
0.2118436
0.2129012
0.2155833
0.2009187
0.2025537
0.2041114
0.2055169
0.2067122
0.207654
0.2083173
0.2086974
0.2088355
0.2088143
0.2088396
0.2093804
0.2100322
0.2109747
0.2135026
0.1992217
0.2007843
0.2022637
0.2035946
0.2047242
0.2056111
0.2062256
0.2065555
0.2066121
0.2064727
0.2063139
0.2067194
0.2071041
0.2076042
0.208397
0.2105694
0.1975702
0.1990604
0.2004619
0.2017196
0.2027859
0.2036197
0.2041857
0.2044531
0.204399
0.2040221
0.2034763
0.2036108
0.2037986
0.2040096
0.2043553
0.2048222
0.207885
0.1959936
0.1974193
0.198754
0.1999508
0.2009657
0.2017583
0.2022886
0.2025101
0.2023471
0.2016377
0.1999361
0.1996852
0.1996687
0.1997746
0.1999048
0.1999675
0.2011449
0.2038788
0.1928284
0.1936669
0.1942764
0.1946984
0.1949534
0.1948615
0.1955339
0.196387
0.1986205
0.1882487
0.1891281
0.1898188
0.1903129
0.1905797
0.1904665
0.1909215
0.1913236
0.1918625
0.193603
0.1849228
0.1857535
0.1864232
0.1869057
0.1871722
0.1870558
0.1874795
0.1877491
0.1879309
0.1882145
0.1895046
0.182527
0.1833231
0.1839715
0.1844486
0.1847221
0.1846457
0.1850797
0.1853893
0.1855279
0.1855548
0.1856086
0.1866183
0.1809216
0.1817068
0.182355
0.1828447
0.1831498
0.1831308
0.1836188
0.1839975
0.1842438
0.1843097
0.1842046
0.1841501
0.1850879
0.2095983
0.2114847
0.2132683
0.2148784
0.2162399
0.2172895
0.2179469
0.2182558
0.2183292
0.2202706
0.2077567
0.2095944
0.2113357
0.2129059
0.214237
0.2152596
0.2159281
0.2161746
0.2161008
0.2159059
0.2175694
0.2060117
0.2078086
0.2095187
0.2110626
0.2123723
0.2133927
0.2140723
0.2144059
0.2143825
0.214235
0.2143731
0.2171947
0.2043155
0.2060688
0.2077439
0.2092581
0.2105461
0.2115558
0.2122577
0.2126361
0.2127498
0.212678
0.21277
0.213795
0.216583
0.2026384
0.2043417
0.2059716
0.2074458
0.2087009
0.2096919
0.210391
0.2108055
0.210969
0.2110108
0.2110888
0.2118436
0.2129012
0.2155833
0.2009673
0.2026134
0.2041864
0.2056078
0.2068182
0.2077751
0.2084569
0.2088657
0.2090513
0.2091031
0.2092176
0.2098315
0.2105589
0.2115725
0.2141247
0.1993032
0.2008856
0.2023916
0.2037494
0.2049042
0.205816
0.2064616
0.2068428
0.2069922
0.2070088
0.2070555
0.2076172
0.2081538
0.2087991
0.2097199
0.2119362
0.1976588
0.1991733
0.2006059
0.2018938
0.2029872
0.2038472
0.2044473
0.2047765
0.2048526
0.2047428
0.2046364
0.2050542
0.2054822
0.2058994
0.2064321
0.2070622
0.2102506
0.1960563
0.1975027
0.1988619
0.200081
0.2011148
0.2019247
0.2024781
0.2027474
0.202712
0.2023783
0.2018886
0.2020704
0.2022959
0.2025768
0.2028766
0.2031398
0.2045493
0.2075694
0.1945248
0.1959101
0.1972062
0.1983679
0.1993533
0.2001242
0.2006435
0.2008675
0.2007265
0.2000671
0.1984736
0.198277
0.1983283
0.1984951
0.1987204
0.1987892
0.1997227
0.2008769
0.203573
0.1916284
0.1924832
0.1931252
0.1936107
0.193941
0.1939814
0.1946491
0.1953043
0.1961347
0.1983352
0.1871913
0.188084
0.1888065
0.18935
0.1897012
0.1897019
0.1902752
0.1907163
0.1911012
0.191618
0.1932717
0.1839508
0.1847958
0.185493
0.1860229
0.1863581
0.1863557
0.1868786
0.1872904
0.187546
0.1877109
0.1879223
0.1891749
0.1816029
0.182412
0.183085
0.1836014
0.1839363
0.1839511
0.184479
0.1849025
0.1852003
0.185325
0.1852889
0.1853132
0.1863719
0.1800169
0.1808125
0.1814807
0.1820031
0.182357
0.1824155
0.1829725
0.1834512
0.1838195
0.1840539
0.1840631
0.1839341
0.1839269
0.1849221
0.2076759
0.2094858
0.2111936
0.2127325
0.2140362
0.215033
0.2156658
0.2158377
0.21556
0.2147752
0.2145139
0.2059056
0.2076723
0.2093436
0.210849
0.2121236
0.2131094
0.2137437
0.2139931
0.2137902
0.2132665
0.2127761
0.2152317
0.2042248
0.2059555
0.2076001
0.2090831
0.2103418
0.2113222
0.2119871
0.2123041
0.2123054
0.2120405
0.2118711
0.2126895
0.2153471
0.202588
0.2042798
0.2058936
0.2073511
0.2085904
0.2095654
0.2102448
0.210629
0.2107416
0.2107052
0.2106858
0.211359
0.2123354
0.2149813
0.2009673
0.2026134
0.2041864
0.2056078
0.2068182
0.2077751
0.2084569
0.2088657
0.2090513
0.2091031
0.2092176
0.2098315
0.2105589
0.2115725
0.2141247
0.1993501
0.2009432
0.2024638
0.2038369
0.205006
0.2059322
0.2065955
0.2070038
0.2071981
0.2072831
0.2074129
0.2080408
0.2086447
0.2093564
0.2103358
0.2125594
0.1977376
0.1992712
0.2007293
0.2020431
0.2031605
0.2040442
0.2046741
0.2050521
0.2052164
0.2052542
0.205341
0.2059031
0.206469
0.2070147
0.2076661
0.2083943
0.2116175
0.1961422
0.197612
0.199001
0.2002491
0.2013089
0.2021439
0.2027298
0.2030583
0.2031472
0.2030678
0.2029947
0.2034417
0.2038877
0.2043545
0.2048167
0.2052297
0.2067908
0.2099335
0.1945856
0.195991
0.1973106
0.1984938
0.1994973
0.2002849
0.2008262
0.2010961
0.2010773
0.2007773
0.2003402
0.2005501
0.2008235
0.2011439
0.2015163
0.2017541
0.2028931
0.2042781
0.2072561
0.1930961
0.1944438
0.1957038
0.1968326
0.1977905
0.1985411
0.1990495
0.1992753
0.1991528
0.198538
0.1970363
0.1968886
0.1969853
0.1972155
0.1975011
0.1976766
0.1985628
0.1994795
0.2006106
0.2032693
0.1904359
0.1912978
0.191966
0.1924917
0.1928927
0.1930244
0.1937824
0.1944363
0.1950743
0.1958818
0.1979894
0.1861328
0.1870332
0.187776
0.1883588
0.1887676
0.1888687
0.1895214
0.1900827
0.1905097
0.1908775
0.1913203
0.1929325
0.1829748
0.1838287
0.1845457
0.1851096
0.1854998
0.1855805
0.1861875
0.1866999
0.1870998
0.1873413
0.1874426
0.1876235
0.1889241
0.1806744
0.1814921
0.182183
0.1827296
0.1831106
0.1831995
0.1837922
0.1843108
0.1847239
0.1850097
0.1850774
0.1850172
0.1850888
0.1862047
0.1791094
0.1799116
0.1805947
0.1811422
0.1815349
0.1816535
0.1822641
0.1828128
0.1832822
0.18364
0.1838221
0.1838111
0.1837287
0.1837756
0.1848374
0.2046404
0.2058282
0.2075683
0.2092079
0.2106838
0.2119328
0.2128946
0.2134971
0.2136786
0.2132954
0.2122285
0.2099566
0.2116384
0.2041228
0.2058247
0.2074323
0.208879
0.2101046
0.2110527
0.2116754
0.2119154
0.2117518
0.211144
0.2103939
0.2108091
0.21316
0.2025007
0.2041708
0.2057555
0.2071834
0.208395
0.2093424
0.2099871
0.210314
0.2103223
0.2101082
0.2098503
0.210333
0.2111245
0.2136594
0.2009187
0.2025537
0.2041114
0.2055169
0.2067122
0.207654
0.2083173
0.2086974
0.2088355
0.2088143
0.2088396
0.2093804
0.2100322
0.2109747
0.2135026
0.1993501
0.2009432
0.2024638
0.2038369
0.205006
0.2059322
0.2065955
0.2070038
0.2071981
0.2072831
0.2074129
0.2080408
0.2086447
0.2093564
0.2103358
0.2125594
0.197783
0.1993269
0.200799
0.2021274
0.2032585
0.204156
0.2048026
0.2052065
0.2054134
0.205516
0.2056806
0.2063037
0.2069305
0.2075348
0.2082414
0.2090148
0.2122406
0.1962185
0.1977067
0.1991203
0.2003932
0.2014759
0.2023337
0.2029481
0.2033233
0.2034961
0.2035572
0.2036666
0.2042483
0.2048209
0.2054035
0.2059693
0.2064751
0.2081245
0.2112999
0.1946689
0.1960969
0.1974453
0.1986564
0.1996848
0.2004964
0.2010689
0.2013956
0.2014957
0.2014385
0.2013981
0.2018575
0.2023357
0.2028249
0.2033418
0.2037079
0.2049853
0.2065208
0.2096179
0.1931552
0.1945223
0.1958049
0.1969545
0.1979297
0.1986963
0.1992259
0.1994959
0.1994907
0.1992205
0.1988253
0.1990617
0.1993632
0.1997313
0.2001444
0.2004669
0.2015263
0.2026481
0.2040087
0.2069448
0.1917053
0.1930175
0.1942437
0.1953418
0.1962738
0.1970053
0.1975034
0.19773
0.1976238
0.1970481
0.1956283
0.1955183
0.1956548
0.1959261
0.1962733
0.1965174
0.1974647
0.1983377
0.1992378
0.2003458
0.202904
0.189254
0.1901188
0.1908027
0.1913611
0.1918084
0.1920239
0.1928368
0.1935831
0.1942231
0.1948439
0.1955754
0.1976354
0.1850775
0.1859809
0.1867377
0.1873474
0.1878026
0.1879751
0.1886975
0.1893398
0.1898891
0.1903019
0.190605
0.1910159
0.1926745
0.1819985
0.1828572
0.1835881
0.1841777
0.1846086
0.184757
0.1854203
0.186018
0.1865199
0.1869077
0.1870917
0.1871684
0.1873964
0.1887539
0.1797448
0.1805675
0.1812714
0.1818411
0.1822584
0.1824048
0.1830477
0.183632
0.1841412
0.1845438
0.1847771
0.1848244
0.1848109
0.1849366
0.1861192
0.1782014
0.1790076
0.1797014
0.1802685
0.1806918
0.1808594
0.1815086
0.1821115
0.1826517
0.1831117
0.1834209
0.1835854
0.1836198
0.1835896
0.1836984
0.1985803
0.2014002
0.2040195
0.2040483
0.2057249
0.2073024
0.2087211
0.2099226
0.2108483
0.2114412
0.2116192
0.2112882
0.2101817
0.2077873
0.207534
0.2094014
0.2024024
0.2040451
0.2055946
0.2069878
0.2081682
0.2090851
0.2096902
0.2099448
0.2097997
0.2092671
0.2084758
0.2085901
0.2090569
0.2113447
0.2008344
0.2024487
0.2039786
0.2053559
0.2065249
0.2074406
0.2080709
0.208397
0.2084371
0.20825
0.2080552
0.208425
0.2089065
0.2096915
0.2121377
0.1993032
0.2008856
0.2023916
0.2037494
0.2049042
0.205816
0.2064616
0.2068428
0.2069922
0.2070088
0.2070555
0.2076172
0.2081538
0.2087991
0.2097199
0.2119362
0.197783
0.1993269
0.200799
0.2021274
0.2032585
0.204156
0.2048026
0.2052065
0.2054134
0.205516
0.2056806
0.2063037
0.2069305
0.2075348
0.2082414
0.2090148
0.2122406
0.1962625
0.1977606
0.1991876
0.2004746
0.2015705
0.2024413
0.2030718
0.2034717
0.2036852
0.2038076
0.2039905
0.204629
0.2052573
0.2058926
0.2065068
0.2070561
0.2087458
0.2119229
0.1947429
0.1961886
0.1975607
0.1987957
0.1998462
0.2006795
0.2012794
0.2016507
0.2018312
0.2019079
0.2020408
0.2026266
0.2032225
0.203817
0.2044264
0.2048723
0.2062328
0.2078557
0.2109835
0.1932361
0.194625
0.1959354
0.1971119
0.1981111
0.1989008
0.1994603
0.1997848
0.1998937
0.199856
0.1998395
0.2003119
0.2008049
0.2013283
0.2018707
0.202306
0.2034826
0.2047422
0.2062521
0.209304
0.1917628
0.1930937
0.1943418
0.1954599
0.1964087
0.1971555
0.197674
0.1979432
0.1979498
0.1977051
0.1973467
0.1976008
0.1979281
0.1983238
0.1987841
0.1991558
0.2002539
0.2013
0.2024047
0.203741
0.2065706
0.1903499
0.1916289
0.1928232
0.1938925
0.1948003
0.1955138
0.1960019
0.1962289
0.1961368
0.195596
0.1942491
0.1941711
0.1943368
0.1946434
0.1950295
0.1953413
0.1963177
0.1972542
0.1981142
0.1989975
0.2000273
0.2025302
0.188085
0.188949
0.1896437
0.1902236
0.1907087
0.1909816
0.1918461
0.1926489
0.1933835
0.1940096
0.1945646
0.1952619
0.1973661
0.1840278
0.1849311
0.1856967
0.1863263
0.1868148
0.1870458
0.1878121
0.1885252
0.189157
0.1896942
0.1900489
0.1903265
0.1907844
0.1924994
0.1810246
0.181885
0.1826254
0.1832342
0.1836968
0.1838971
0.1846039
0.1852589
0.1858472
0.1863385
0.1866734
0.1868367
0.1869601
0.1872425
0.188667
0.1788164
0.1796415
0.1803545
0.180942
0.1813878
0.1815808
0.1822593
0.1828946
0.1834704
0.1839702
0.184324
0.1845395
0.1846324
0.1846711
0.184859
0.177295
0.178103
0.1788044
0.1793866
0.1798344
0.1800419
0.1807202
0.1813623
0.1819576
0.1824893
0.1829038
0.1831972
0.1834058
0.1834904
0.1835187
0.1943874
0.1960637
0.1982795
0.1998836
0.2008676
0.2030941
0.2023307
0.2039491
0.2054698
0.2068364
0.207994
0.2088898
0.209467
0.2096632
0.209362
0.2083632
0.2060477
0.2055584
0.2056381
0.2075702
0.2007396
0.2023276
0.2038238
0.2051681
0.2063073
0.2071942
0.207787
0.2080449
0.2079404
0.2074551
0.2067637
0.2068009
0.2069872
0.2075138
0.2097679
0.1992217
0.2007843
0.2022637
0.2035946
0.2047242
0.2056111
0.2062256
0.2065555
0.2066121
0.2064727
0.2063139
0.2067194
0.2071041
0.2076042
0.208397
0.2105694
0.1977376
0.1992712
0.2007293
0.2020431
0.2031605
0.2040442
0.2046741
0.2050521
0.2052164
0.2052542
0.205341
0.2059031
0.206469
0.2070147
0.2076661
0.2083943
0.2116175
0.1962625
0.1977606
0.1991876
0.2004746
0.2015705
0.2024413
0.2030718
0.2034717
0.2036852
0.2038076
0.2039905
0.204629
0.2052573
0.2058926
0.2065068
0.2070561
0.2087458
0.2119229
0.1947856
0.1962408
0.1976259
0.1988743
0.1999374
0.2007834
0.2013986
0.2017936
0.2020129
0.202148
0.2023506
0.2029896
0.2036371
0.2042796
0.204932
0.2054155
0.2068147
0.2084776
0.2116062
0.193308
0.194714
0.1960472
0.1972467
0.1982671
0.1990777
0.1996635
0.2000308
0.2002168
0.2003071
0.2004557
0.2010475
0.2016503
0.202271
0.2028965
0.203402
0.2046491
0.2059914
0.207588
0.2106684
0.1918414
0.1931934
0.1944684
0.1956125
0.1965843
0.1973534
0.1979007
0.1982222
0.1983386
0.198317
0.1983211
0.1987993
0.1993067
0.1998462
0.2004242
0.2008953
0.2020955
0.2032584
0.2045003
0.2059848
0.2089259
0.1904058
0.191703
0.1929185
0.1940072
0.1949311
0.1956594
0.1961671
0.1964352
0.1964517
0.1962296
0.1959027
0.1961713
0.1965154
0.1969356
0.1974225
0.1978477
0.1989553
0.2000424
0.2010753
0.2021629
0.2034192
0.2061876
0.189028
0.1902756
0.19144
0.1924822
0.1933672
0.1940637
0.1945423
0.1947692
0.1946896
0.19418
0.1928988
0.1928474
0.1930371
0.1933685
0.1937874
0.1941428
0.1951521
0.1961194
0.197045
0.197892
0.1987086
0.1997016
0.2022458
0.1869304
0.1877913
0.1884922
0.189088
0.1895991
0.1899195
0.1908124
0.191668
0.1924606
0.1931835
0.1937507
0.194279
0.1950236
0.1971833
0.1829858
0.1838865
0.1846573
0.1853011
0.1858152
0.1860902
0.1868901
0.1876482
0.1883519
0.1889732
0.189457
0.1897903
0.1901149
0.1906275
0.1924098
0.1800549
0.1809149
0.1816613
0.1822844
0.1827716
0.1830139
0.1837506
0.1844497
0.1850962
0.185675
0.1861172
0.1864341
0.1866431
0.186819
0.1871639
0.1778909
0.1787165
0.1794357
0.1800366
0.1805052
0.180736
0.1814412
0.1821127
0.1827402
0.1833075
0.1837616
0.1840996
0.1843593
0.1845024
0.1845999
0.1763914
0.1771996
0.1779063
0.1785001
0.1789676
0.1792082
0.179908
0.1805798
0.1812149
0.1818024
0.1822912
0.1826914
0.1830276
0.1832843
0.1834244
0.191668
0.1923405
0.1941522
0.1949466
0.1957983
0.1977192
0.1986835
0.1993954
0.2000684
0.2020176
0.2006704
0.2022351
0.2037038
0.2050227
0.2061403
0.2070071
0.2075735
0.2077762
0.2075241
0.2066008
0.2044813
0.2039745
0.2038185
0.2040745
0.2060236
0.1991301
0.2006675
0.2021145
0.2034138
0.2045151
0.2053746
0.2059534
0.2062184
0.2061382
0.2057172
0.205093
0.2051926
0.2053139
0.2055797
0.2061665
0.2082026
0.1976588
0.1991733
0.2006059
0.2018938
0.2029872
0.2038472
0.2044473
0.2047765
0.2048526
0.2047428
0.2046364
0.2050542
0.2054822
0.2058994
0.2064321
0.2070622
0.2102506
0.1962185
0.1977067
0.1991203
0.2003932
0.2014759
0.2023337
0.2029481
0.2033233
0.2034961
0.2035572
0.2036666
0.2042483
0.2048209
0.2054035
0.2059693
0.2064751
0.2081245
0.2112999
0.1947856
0.1962408
0.1976259
0.1988743
0.1999374
0.2007834
0.2013986
0.2017936
0.2020129
0.202148
0.2023506
0.2029896
0.2036371
0.2042796
0.204932
0.2054155
0.2068147
0.2084776
0.2116062
0.1933494
0.1947646
0.1961104
0.1973229
0.1983554
0.1991781
0.1997787
0.2001687
0.2003918
0.200538
0.2007528
0.2013947
0.2020457
0.2027106
0.2033748
0.2039133
0.2051934
0.2065743
0.2082104
0.2112905
0.1919113
0.1932798
0.1945769
0.1957432
0.1967354
0.1975246
0.1980971
0.19846
0.1986503
0.1987514
0.1989133
0.1995046
0.2001152
0.200745
0.201399
0.2019322
0.2031936
0.2044268
0.205751
0.2073214
0.2102884
0.1904822
0.1917999
0.1930415
0.1941552
0.1951014
0.1958511
0.1963866
0.1967051
0.1968274
0.1968197
0.1968407
0.1973227
0.1978368
0.1983913
0.198986
0.1995005
0.2006971
0.2018861
0.2030355
0.2042598
0.2056629
0.208539
0.1890825
0.1903476
0.1915327
0.1925936
0.1934942
0.1942049
0.1947025
0.194969
0.1949943
0.1947918
0.1944929
0.1947723
0.1951295
0.1955651
0.1960751
0.1965318
0.1976577
0.198756
0.1998324
0.2008521
0.2018722
0.2030899
0.2058961
0.1877373
0.1889557
0.1900918
0.1911086
0.191972
0.1926525
0.193122
0.1933485
0.19328
0.1927985
0.1915767
0.1915482
0.1917569
0.1921078
0.192549
0.1929411
0.1939629
0.1949641
0.1959223
0.1968372
0.1976248
0.1984133
0.199454
0.2020527
0.1857913
0.186647
0.1873513
0.187958
0.1884888
0.1888436
0.1897579
0.1906429
0.1914895
0.1922721
0.1929411
0.1934862
0.1940621
0.194862
0.1970897
0.181953
0.1828494
0.1836224
0.1842763
0.1848097
0.1851198
0.1859411
0.1867335
0.1874832
0.1881775
0.1887493
0.1892147
0.189594
0.1899716
0.1905474
0.1790909
0.1799488
0.1806987
0.1813323
0.1818388
0.1821148
0.1828732
0.1836029
0.1842943
0.1849323
0.1854651
0.1858913
0.1862525
0.186512
0.186747
0.1769695
0.177794
0.1785172
0.1791284
0.1796151
0.1798771
0.1806017
0.1813004
0.1819648
0.1825846
0.1831088
0.1835487
0.1839293
0.1842373
0.1844362
0.1754917
0.1762989
0.177009
0.1776118
0.1780952
0.1783632
0.1790791
0.179773
0.1804382
0.1810662
0.181613
0.1820889
0.1825304
0.1829128
0.1832224
0.1903219
0.1899145
0.1914502
0.1914985
0.1921288
0.1936897
0.1940807
0.1947036
0.1953023
0.1969429
0.1975625
0.1982302
0.1986637
0.1991315
0.2008633
0.1990632
0.2005782
0.2019989
0.2032739
0.2043546
0.205195
0.2057487
0.2059611
0.205741
0.2049053
0.2029361
0.2025354
0.2023579
0.2023879
0.2027426
0.2044966
0.1975702
0.1990604
0.2004619
0.2017196
0.2027859
0.2036197
0.2041857
0.2044531
0.204399
0.2040221
0.2034763
0.2036108
0.2037986
0.2040096
0.2043553
0.2048222
0.207885
0.1961422
0.197612
0.199001
0.2002491
0.2013089
0.2021439
0.2027298
0.2030583
0.2031472
0.2030678
0.2029947
0.2034417
0.2038877
0.2043545
0.2048167
0.2052297
0.2067908
0.2099335
0.1947429
0.1961886
0.1975607
0.1987957
0.1998462
0.2006795
0.2012794
0.2016507
0.2018312
0.2019079
0.2020408
0.2026266
0.2032225
0.203817
0.2044264
0.2048723
0.2062328
0.2078557
0.2109835
0.1933494
0.1947646
0.1961104
0.1973229
0.1983554
0.1991781
0.1997787
0.2001687
0.2003918
0.200538
0.2007528
0.2013947
0.2020457
0.2027106
0.2033748
0.2039133
0.2051934
0.2065743
0.2082104
0.2112905
0.1919515
0.193329
0.1946382
0.1958169
0.1968209
0.1976217
0.1982085
0.1985931
0.1988191
0.1989737
0.1991988
0.1998375
0.2004934
0.2011641
0.2018534
0.2024158
0.2037059
0.204972
0.2063346
0.2079441
0.2109096
0.1905502
0.1918839
0.1931468
0.194282
0.1952479
0.196017