/*--------------------------------*- C++ -*----------------------------------*\
| =========                 |                                                 |
| \\      /  F ield         | OpenFOAM: The Open Source CFD Toolbox           |
|  \\    /   O peration     | Version:  2306                                  |
|   \\  /    A nd           | Website:  www.openfoam.com                      |
|    \\/     M anipulation  |                                                 |
\*---------------------------------------------------------------------------*/
FoamFile
{
    version     2.0;
    format      ascii;
    arch        "LSB;label=32;scalar=64";
    class       volScalarField;
    location    "0.9/air";
    object      T;
}
// * * * * * * * * * * * * * * * * * * * * * * * * * * * * * * * * * * * * * //

dimensions      [0 0 0 1 0 0 0];

internalField   nonuniform List<scalar> 
16000
(
1174.806
1162.368
1189.251
1162.148
1155.466
1186.297
1131.911
1192.88
1186.248
1155.053
1151.534
1183.743
1113.056
1191.744
1177.534
1112.745
1195.776
1191.796
1183.64
1150.891
1149.707
1181.867
1101.742
1190.729
1169.896
1084.43
1195.261
1188.467
1169.776
1100.909
1198.317
1195.349
1190.817
1181.684
1148.753
1149.707
1180.873
1096.376
1189.955
1164.24
1066.674
1194.814
1185.438
1157.416
1065.968
1198.038
1193.9
1185.467
1163.895
1094.72
1200.616
1198.133
1194.974
1190.074
1180.584
1148.329
1188.994
1151.534
1180.873
1096.376
1189.534
1161.233
1058.042
1194.478
1183.101
1148.147
1043.394
1197.808
1192.602
1180.516
1147.828
1056.075
1200.433
1197.393
1192.689
1183.142
1160.554
1093.541
1202.724
1200.524
1197.982
1194.711
1189.689
1180.469
1149.592
1188.922
1191.834
1190.766
1155.466
1181.867
1101.742
1189.534
1161.233
1058.042
1194.296
1181.824
1143.187
1032.23
1197.641
1191.608
1176.65
1135.647
1030.697
1200.291
1196.752
1190.6
1176.644
1142.325
1054.17
1202.583
1200.067
1196.853
1191.8
1181.879
1160.157
1097.33
1204.673
1202.667
1200.457
1197.898
1194.617
1189.749
1181.381
1152.779
1188.762
1191.826
1190.66
1194.618
1193.455
1192.55
1162.368
1183.743
1113.056
1189.955
1164.24
1066.674
1194.296
1181.824
1143.187
1032.23
1197.552
1191.066
1174.525
1129.086
1018.026
1200.191
1196.275
1188.978
1171.521
1128.412
1028.221
1202.478
1199.687
1195.853
1189.099
1174.498
1141.63
1060.244
1204.554
1202.328
1199.786
1196.506
1191.406
1181.946
1162.821
1106.598
1206.485
1204.629
1202.63
1200.437
1197.908
1194.735
1190.286
1183.284
1158.615
1188.45
1191.813
1190.407
1194.624
1193.448
1192.416
1197.158
1196.041
1195.076
1194.35
1174.806
1186.297
1131.911
1190.729
1169.896
1084.43
1194.478
1183.101
1148.147
1043.394
1197.552
1191.066
1174.525
1129.086
1018.026
1200.139
1196.019
1188.085
1168.687
1120.886
1015.238
1202.405
1199.413
1195.096
1186.974
1168.639
1127.461
1036.014
1204.465
1202.055
1199.214
1195.253
1188.393
1174.536
1145.927
1074.808
1206.377
1204.346
1202.146
1199.642
1196.434
1191.635
1183.427
1168.378
1122.752
1208.174
1206.446
1204.604
1202.632
1200.482
1198.037
1195.088
1191.293
1186.122
1169.186
1187.572
1191.809
1189.859
1194.642
1193.438
1192.092
1197.168
1196.057
1195.069
1194.197
1199.484
1198.399
1197.461
1196.698
1196.17
1189.251
1162.148
1191.744
1177.534
1112.745
1194.814
1185.438
1157.416
1065.968
1197.641
1191.608
1176.65
1135.647
1030.697
1200.139
1196.019
1188.085
1168.687
1120.886
1015.238
1202.369
1199.269
1194.686
1185.797
1165.385
1119.786
1023.953
1204.406
1201.863
1198.794
1194.29
1186
1168.632
1133.034
1054.455
1206.299
1204.121
1201.746
1198.952
1195.086
1188.695
1176.879
1154.845
1099.198
1208.076
1206.193
1204.204
1202.076
1199.681
1196.7
1192.542
1186.232
1176.418
1149.14
1209.754
1208.138
1206.424
1204.611
1202.685
1200.605
1198.302
1195.693
1192.788
1190.02
1181.318
1191.917
1188.425
1194.7
1193.449
1191.4
1197.195
1196.103
1195.06
1193.83
1199.495
1198.421
1197.485
1196.691
1196.007
1201.628
1200.568
1199.636
1198.877
1198.321
1197.143
1192.88
1186.248
1155.053
1195.261
1188.467
1169.776
1100.909
1197.808
1192.602
1180.516
1147.828
1056.075
1200.191
1196.275
1188.978
1171.521
1128.412
1028.221
1202.369
1199.269
1194.686
1185.797
1165.385
1119.786
1023.953
1204.376
1201.765
1198.572
1193.763
1184.668
1165.346
1126.058
1044.442
1206.246
1203.966
1201.462
1198.439
1194.037
1186.342
1171.647
1144.554
1084.524
1208.003
1205.994
1203.881
1201.61
1198.975
1195.454
1190.079
1181.306
1167.49
1136.406
1209.662
1207.905
1206.069
1204.16
1202.147
1199.941
1197.345
1194.122
1190.169
1186.392
1173.754
1211.235
1209.719
1208.117
1206.432
1204.662
1202.798
1200.822
1198.729
1196.622
1195.069
1193.396
1183.584
1194.977
1193.593
1189.811
1197.266
1196.231
1195.068
1193.078
1199.522
1198.481
1197.55
1196.678
1195.623
1201.639
1200.591
1199.668
1198.907
1198.312
1196.98
1203.617
1202.581
1201.649
1200.868
1200.288
1199.179
1197.248
1195.776
1191.796
1183.64
1150.891
1198.038
1193.9
1185.467
1163.895
1094.72
1200.291
1196.752
1190.6
1176.644
1142.325
1054.17
1202.405
1199.413
1195.096
1186.974
1168.639
1127.461
1036.014
1204.376
1201.765
1198.572
1193.763
1184.668
1165.346
1126.058
1044.442
1206.22
1203.888
1201.314
1198.164
1193.459
1185.025
1168.731
1138.998
1077.408
1207.955
1205.858
1203.655
1201.274
1198.443
1194.469
1188.08
1177.332
1160.672
1128.524
1209.595
1207.722
1205.784
1203.79
1201.692
1199.34
1196.407
1192.475
1187.324
1182.53
1167.746
1211.149
1209.502
1207.791
1206.033
1204.236
1202.388
1200.455
1198.4
1196.362
1195.111
1192.633
1177.643
1212.625
1211.201
1209.699
1208.124
1206.479
1204.765
1202.985
1201.162
1199.406
1198.227
1197.634
1194.349
1186.007
1197.57
1196.668
1195.17
1191.54
1199.593
1198.634
1197.712
1196.671
1194.874
1201.665
1200.652
1199.751
1198.981
1198.295
1196.599
1203.627
1202.603
1201.682
1200.906
1200.32
1199.17
1197.085
1205.47
1204.46
1203.53
1202.724
1202.092
1201.031
1199.271
1197.353
1198.317
1195.349
1190.817
1181.684
1148.753
1200.433
1197.393
1192.689
1183.142
1160.554
1093.541
1202.478
1199.687
1195.853
1189.099
1174.498
1141.63
1060.244
1204.406
1201.863
1198.794
1194.29
1186
1168.632
1133.034
1054.455
1206.22
1203.888
1201.314
1198.164
1193.459
1185.025
1168.731
1138.998
1077.408
1207.931
1205.789
1203.539
1201.099
1198.155
1193.921
1186.954
1175.108
1156.986
1124.706
1209.551
1207.598
1205.587
1203.529
1201.36
1198.875
1195.637
1191.079
1184.923
1179.434
1163.703
1211.086
1209.332
1207.53
1205.709
1203.884
1202.031
1200.084
1197.944
1195.719
1194.351
1191.293
1172.663
1212.545
1210.998
1209.394
1207.757
1206.105
1204.455
1202.826
1201.264
1199.923
1199.354
1198.416
1193.824
1181.35
1213.932
1212.593
1211.181
1209.705
1208.167
1206.572
1204.932
1203.274
1201.709
1200.676
1200.352
1198.379
1195.517
1188.549
1199.885
1199.123
1198.152
1196.709
1193.49
1201.732
1200.803
1199.947
1199.147
1198.268
1195.873
1203.651
1202.661
1201.766
1201.002
1200.396
1199.15
1196.705
1205.479
1204.481
1203.562
1202.764
1202.135
1201.064
1199.262
1197.19
1207.201
1206.22
1205.3
1204.474
1203.792
1202.736
1201.111
1199.363
1197.458
1200.616
1198.133
1194.974
1190.074
1180.584
1148.329
1202.583
1200.067
1196.853
1191.8
1181.879
1160.157
1097.33
1204.465
1202.055
1199.214
1195.253
1188.393
1174.536
1145.927
1074.808
1206.246
1203.966
1201.462
1198.439
1194.037
1186.342
1171.647
1144.554
1084.524
1207.931
1205.789
1203.539
1201.099
1198.155
1193.921
1186.954
1175.108
1156.986
1124.706
1209.528
1207.535
1205.487
1203.394
1201.184
1198.62
1195.201
1190.277
1183.555
1177.731
1161.68
1211.044
1209.216
1207.35
1205.484
1203.633
1201.763
1199.774
1197.507
1195.04
1193.505
1190.082
1169.225
1212.486
1210.838
1209.151
1207.461
1205.8
1204.193
1202.659
1201.233
1200.04
1199.636
1198.507
1192.81
1177.297
1213.857
1212.401
1210.896
1209.362
1207.823
1206.304
1204.843
1203.504
1202.447
1202.07
1201.537
1199.104
1195.111
1184.937
1215.162
1213.901
1212.573
1211.186
1209.743
1208.252
1206.723
1205.187
1203.745
1202.781
1202.502
1200.975
1199.282
1196.812
1191.176
1202
1201.275
1200.455
1199.525
1198.239
1194.594
1203.713
1202.803
1201.961
1201.21
1200.548
1199.113
1195.981
1205.501
1204.534
1203.642
1202.862
1202.235
1201.138
1199.242
1196.81
1207.209
1206.24
1205.329
1204.513
1203.836
1202.779
1201.143
1199.355
1197.296
1208.823
1207.874
1206.968
1206.134
1205.412
1204.353
1202.805
1201.191
1199.455
1197.564
1202.724
1200.524
1197.982
1194.711
1189.689
1180.469
1149.592
1204.554
1202.328
1199.786
1196.506
1191.406
1181.946
1162.821
1106.598
1206.299
1204.121
1201.746
1198.952
1195.086
1188.695
1176.879
1154.845
1099.198
1207.955
1205.858
1203.655
1201.274
1198.443
1194.469
1188.08
1177.332
1160.672
1128.524
1209.528
1207.535
1205.487
1203.394
1201.184
1198.62
1195.201
1190.277
1183.555
1177.731
1161.68
1211.023
1209.158
1207.259
1205.368
1203.503
1201.619
1199.597
1197.242
1194.619
1192.982
1189.386
1167.486
1212.446
1210.73
1208.984
1207.256
1205.585
1204.002
1202.516
1201.143
1199.978
1199.612
1198.368
1191.862
1174.436
1213.801
1212.251
1210.667
1209.086
1207.544
1206.081
1204.747
1203.609
1202.808
1202.671
1202.072
1199.271
1194.338
1181.712
1215.091
1213.721
1212.304
1210.863
1209.421
1208.004
1206.654
1205.438
1204.502
1204.17
1203.734
1202.022
1199.885
1196.469
1188.442
1216.32
1215.133
1213.883
1212.577
1211.221
1209.821
1208.389
1206.953
1205.605
1204.684
1204.384
1203.04
1201.727
1200.271
1198.185
1192.593
1203.956
1203.239
1202.457
1201.662
1200.838
1199.051
1194.714
1205.557
1204.665
1203.827
1203.071
1202.432
1201.277
1199.203
1196.09
1207.23
1206.289
1205.404
1204.607
1203.939
1202.879
1201.218
1199.334
1196.917
1208.831
1207.892
1206.996
1206.17
1205.454
1204.397
1202.849
1201.223
1199.447
1197.402
1210.345
1209.431
1208.544
1207.711
1206.962
1205.903
1204.413
1202.874
1201.27
1199.548
1197.663
1204.673
1202.667
1200.457
1197.898
1194.617
1189.749
1181.381
1152.779
1206.377
1204.346
1202.146
1199.642
1196.434
1191.635
1183.427
1168.378
1122.752
1208.003
1205.994
1203.881
1201.61
1198.975
1195.454
1190.079
1181.306
1167.49
1136.406
1209.551
1207.598
1205.587
1203.529
1201.36
1198.875
1195.637
1191.079
1184.923
1179.434
1163.703
1211.023
1209.158
1207.259
1205.368
1203.503
1201.619
1199.597
1197.242
1194.619
1192.982
1189.386
1167.486
1212.427
1210.675
1208.899
1207.151
1205.475
1203.901
1202.434
1201.074
1199.904
1199.541
1198.242
1191.31
1172.973
1213.764
1212.149
1210.51
1208.894
1207.349
1205.921
1204.663
1203.635
1202.956
1202.919
1202.296
1199.217
1193.603
1179.391
1215.039
1213.58
1212.089
1210.604
1209.16
1207.8
1206.579
1205.576
1204.917
1204.838
1204.379
1202.548
1200.075
1195.878
1185.958
1216.254
1214.963
1213.629
1212.273
1210.917
1209.587
1208.323
1207.19
1206.318
1205.98
1205.551
1204.118
1202.59
1200.734
1197.879
1190.264
1217.412
1216.293
1215.115
1213.886
1212.609
1211.293
1209.947
1208.599
1207.33
1206.444
1206.109
1204.857
1203.687
1202.545
1201.305
1198.934
1192.745
1205.778
1205.063
1204.288
1203.52
1202.8
1201.517
1199.138
1194.834
1207.282
1206.41
1205.575
1204.805
1204.141
1203.064
1201.355
1199.294
1196.2
1208.85
1207.938
1207.065
1206.258
1205.554
1204.5
1202.948
1201.297
1199.426
1197.024
1210.353
1209.448
1208.57
1207.745
1207.003
1205.947
1204.458
1202.918
1201.303
1199.539
1197.501
1211.778
1210.898
1210.036
1209.21
1208.448
1207.397
1205.956
1204.473
1202.943
1201.35
1199.634
1197.74
1206.485
1204.629
1202.63
1200.437
1197.908
1194.735
1190.286
1183.284
1158.615
1208.076
1206.193
1204.204
1202.076
1199.681
1196.7
1192.542
1186.232
1176.418
1149.14
1209.595
1207.722
1205.784
1203.79
1201.692
1199.34
1196.407
1192.475
1187.324
1182.53
1167.746
1211.044
1209.216
1207.35
1205.484
1203.633
1201.763
1199.774
1197.507
1195.04
1193.505
1190.082
1169.225
1212.427
1210.675
1208.899
1207.151
1205.475
1203.901
1202.434
1201.074
1199.904
1199.541
1198.242
1191.31
1172.973
1213.746
1212.098
1210.43
1208.797
1207.249
1205.837
1204.614
1203.634
1203.002
1203.005
1202.373
1199.142
1193.171
1178.192
1215.004
1213.484
1211.941
1210.424
1208.978
1207.655
1206.515
1205.636
1205.121
1205.162
1204.709
1202.79
1200.075
1195.315
1184.139
1216.205
1214.83
1213.426
1212.028
1210.67
1209.395
1208.255
1207.325
1206.722
1206.627
1206.193
1204.728
1203.07
1200.914
1197.426
1188.135
1217.349
1216.133
1214.876
1213.598
1212.321
1211.07
1209.88
1208.813
1207.983
1207.63
1207.182
1205.876
1204.577
1203.221
1201.63
1198.64
1190.459
1218.44
1217.386
1216.276
1215.117
1213.915
1212.676
1211.409
1210.14
1208.943
1208.09
1207.724
1206.529
1205.424
1204.388
1203.394
1201.864
1199.015
1192.898
1207.483
1206.772
1205.998
1205.227
1204.514
1203.382
1201.589
1199.225
1194.956
1208.898
1208.049
1207.223
1206.443
1205.747
1204.692
1203.131
1201.433
1199.385
1196.311
1210.371
1209.491
1208.635
1207.827
1207.097
1206.047
1204.56
1203.017
1201.377
1199.518
1197.124
1211.784
1210.914
1210.06
1209.242
1208.486
1207.438
1206
1204.518
1202.987
1201.383
1199.626
1197.578
1213.126
1212.283
1211.448
1210.637
1209.871
1208.834
1207.443
1206.009
1204.533
1203.012
1201.425
1199.701
1197.801
1208.174
1206.446
1204.604
1202.632
1200.482
1198.037
1195.088
1191.293
1186.122
1169.186
1209.662
1207.905
1206.069
1204.16
1202.147
1199.941
1197.345
1194.122
1190.169
1186.392
1173.754
1211.086
1209.332
1207.53
1205.709
1203.884
1202.031
1200.084
1197.944
1195.719
1194.351
1191.293
1172.663
1212.446
1210.73
1208.984
1207.256
1205.585
1204.002
1202.516
1201.143
1199.978
1199.612
1198.368
1191.862
1174.436
1213.746
1212.098
1210.43
1208.797
1207.249
1205.837
1204.614
1203.634
1203.002
1203.005
1202.373
1199.142
1193.171
1178.192
1214.987
1213.435
1211.866
1210.332
1208.884
1207.579
1206.478
1205.655
1205.203
1205.295
1204.848
1202.88
1200.037
1194.984
1183.189
1216.172
1214.739
1213.287
1211.858
1210.498
1209.258
1208.197
1207.388
1206.931
1206.955
1206.539
1205.053
1203.309
1200.944
1197.007
1186.563
1217.302
1216.007
1214.685
1213.367
1212.088
1210.887
1209.813
1208.936
1208.358
1208.23
1207.784
1206.477
1205.122
1203.633
1201.78
1198.248
1188.368
1218.38
1217.235
1216.05
1214.847
1213.643
1212.464
1211.341
1210.332
1209.538
1209.17
1208.702
1207.467
1206.268
1205.091
1203.894
1202.119
1198.722
1190.653
1219.408
1218.415
1217.37
1216.278
1215.145
1213.977
1212.784
1211.588
1210.458
1209.637
1209.248
1208.101
1207.033
1206.038
1205.115
1203.851
1201.925
1199.096
1193.052
1209.082
1208.381
1207.61
1206.833
1206.103
1205.02
1203.444
1201.662
1199.313
1195.079
1210.415
1209.594
1208.781
1207.999
1207.278
1206.231
1204.751
1203.199
1201.511
1199.476
1196.415
1211.801
1210.954
1210.121
1209.319
1208.574
1207.532
1206.099
1204.621
1203.085
1201.456
1199.604
1197.203
1213.133
1212.298
1211.471
1210.667
1209.907
1208.873
1207.485
1206.053
1204.578
1203.056
1201.457
1199.692
1197.64
1214.397
1213.592
1212.787
1211.995
1211.233
1210.217
1208.876
1207.49
1206.062
1204.593
1203.077
1201.481
1199.753
1197.847
1209.754
1208.138
1206.424
1204.611
1202.685
1200.605
1198.302
1195.693
1192.788
1190.02
1181.318
1211.149
1209.502
1207.791
1206.033
1204.236
1202.388
1200.455
1198.4
1196.362
1195.111
1192.633
1177.643
1212.486
1210.838
1209.151
1207.461
1205.8
1204.193
1202.659
1201.233
1200.04
1199.636
1198.507
1192.81
1177.297
1213.764
1212.149
1210.51
1208.894
1207.349
1205.921
1204.663
1203.635
1202.956
1202.919
1202.296
1199.217
1193.603
1179.391
1214.987
1213.435
1211.866
1210.332
1208.884
1207.579
1206.478
1205.655
1205.203
1205.295
1204.848
1202.88
1200.037
1194.984
1183.189
1216.155
1214.693
1213.216
1211.772
1210.411
1209.187
1208.163
1207.411
1207.019
1207.095
1206.692
1205.193
1203.405
1200.931
1196.761
1185.738
1217.271
1215.922
1214.553
1213.207
1211.926
1210.757
1209.757
1208.994
1208.554
1208.541
1208.116
1206.811
1205.427
1203.853
1201.824
1197.893
1186.822
1218.337
1217.117
1215.87
1214.628
1213.423
1212.289
1211.274
1210.441
1209.88
1209.721
1209.257
1208.029
1206.803
1205.556
1204.227
1202.249
1198.336
1188.599
1219.352
1218.273
1217.157
1216.023
1214.888
1213.776
1212.716
1211.76
1211.001
1210.624
1210.141
1208.957
1207.812
1206.709
1205.644
1204.263
1202.172
1198.804
1190.848
1220.319
1219.385
1218.4
1217.372
1216.304
1215.203
1214.078
1212.951
1211.882
1211.095
1210.693
1209.589
1208.552
1207.577
1206.673
1205.504
1203.9
1201.985
1199.178
1193.205
1210.585
1209.898
1209.137
1208.358
1207.61
1206.547
1205.074
1203.506
1201.735
1199.401
1195.195
1211.843
1211.05
1210.257
1209.479
1208.744
1207.707
1206.283
1204.809
1203.266
1201.588
1199.562
1196.497
1213.149
1212.336
1211.529
1210.74
1209.99
1208.962
1207.579
1206.152
1204.68
1203.154
1201.53
1199.67
1197.265
1214.403
1213.606
1212.808
1212.023
1211.267
1210.254
1208.915
1207.531
1206.105
1204.638
1203.12
1201.514
1199.744
1197.686
1215.596
1214.828
1214.055
1213.286
1212.536
1211.546
1210.254
1208.917
1207.536
1206.114
1204.649
1203.125
1201.524
1199.79
1197.876
1187.572
1211.235
1209.719
1208.117
1206.432
1204.662
1202.798
1200.822
1198.729
1196.622
1195.069
1193.396
1183.584
1212.545
1210.998
1209.394
1207.757
1206.105
1204.455
1202.826
1201.264
1199.923
1199.354
1198.416
1193.824
1181.35
1213.801
1212.251
1210.667
1209.086
1207.544
1206.081
1204.747
1203.609
1202.808
1202.671
1202.072
1199.271
1194.338
1181.712
1215.004
1213.484
1211.941
1210.424
1208.978
1207.655
1206.515
1205.636
1205.121
1205.162
1204.709
1202.79
1200.075
1195.315
1184.139
1216.155
1214.693
1213.216
1211.772
1210.411
1209.187
1208.163
1207.411
1207.019
1207.095
1206.692
1205.193
1203.405
1200.931
1196.761
1185.738
1217.256
1215.879
1214.486
1213.125
1211.843
1210.69
1209.725
1209.015
1208.637
1208.675
1208.264
1206.961
1205.562
1203.946
1201.827
1197.687
1186.01
1218.307
1217.036
1215.746
1214.477
1213.269
1212.166
1211.219
1210.492
1210.06
1210.008
1209.566
1208.348
1207.113
1205.828
1204.419
1202.294
1197.988
1187.08
1219.311
1218.162
1216.987
1215.817
1214.68
1213.61
1212.65
1211.857
1211.313
1211.129
1210.651
1209.476
1208.314
1207.166
1206.021
1204.553
1202.299
1198.424
1188.83
1220.266
1219.251
1218.201
1217.131
1216.062
1215.012
1214.012
1213.107
1212.381
1212.002
1211.512
1210.372
1209.266
1208.201
1207.184
1205.948
1204.303
1202.225
1198.887
1191.042
1221.175
1220.298
1219.371
1218.403
1217.397
1216.359
1215.298
1214.235
1213.224
1212.472
1212.064
1211.003
1209.997
1209.04
1208.14
1207.013
1205.546
1203.95
1202.045
1199.259
1193.35
1212
1211.332
1210.585
1209.811
1209.053
1208.004
1206.595
1205.128
1203.568
1201.807
1199.483
1195.287
1213.187
1212.426
1211.655
1210.889
1210.149
1209.126
1207.753
1206.335
1204.868
1203.333
1201.661
1199.627
1196.562
1214.419
1213.642
1212.862
1212.091
1211.345
1210.338
1209.004
1207.625
1206.205
1204.74
1203.218
1201.586
1199.722
1197.312
1215.602
1214.842
1214.076
1213.313
1212.568
1211.58
1210.291
1208.956
1207.578
1206.158
1204.694
1203.168
1201.557
1199.781
1197.715
1216.727
1215.998
1215.257
1214.515
1213.781
1212.82
1211.579
1210.291
1208.959
1207.583
1206.164
1204.69
1203.16
1201.554
1199.813
1188.45
1191.917
1188.425
1212.625
1211.201
1209.699
1208.124
1206.479
1204.765
1202.985
1201.162
1199.406
1198.227
1197.634
1194.349
1186.007
1213.857
1212.401
1210.896
1209.362
1207.823
1206.304
1204.843
1203.504
1202.447
1202.07
1201.537
1199.104
1195.111
1184.937
1215.039
1213.58
1212.089
1210.604
1209.16
1207.8
1206.579
1205.576
1204.917
1204.838
1204.379
1202.548
1200.075
1195.878
1185.958
1216.172
1214.739
1213.287
1211.858
1210.498
1209.258
1208.197
1207.388
1206.931
1206.955
1206.539
1205.053
1203.309
1200.944
1197.007
1186.563
1217.256
1215.879
1214.486
1213.125
1211.843
1210.69
1209.725
1209.015
1208.637
1208.675
1208.264
1206.961
1205.562
1203.946
1201.827
1197.687
1186.01
1218.293
1216.995
1215.683
1214.4
1213.19
1212.101
1211.188
1210.51
1210.137
1210.133
1209.705
1208.493
1207.254
1205.952
1204.505
1202.303
1197.786
1186.28
1219.283
1218.086
1216.87
1215.674
1214.535
1213.492
1212.596
1211.901
1211.477
1211.393
1210.937
1209.773
1208.608
1207.441
1206.253
1204.727
1202.345
1198.083
1187.336
1220.227
1219.147
1218.041
1216.937
1215.865
1214.856
1213.947
1213.193
1212.667
1212.466
1211.982
1210.85
1209.73
1208.631
1207.558
1206.278
1204.588
1202.35
1198.513
1189.06
1221.126
1220.172
1219.183
1218.176
1217.169
1216.179
1215.235
1214.378
1213.686
1213.309
1212.82
1211.723
1210.652
1209.615
1208.62
1207.447
1205.981
1204.343
1202.278
1198.969
1191.223
1221.98
1221.156
1220.285
1219.374
1218.426
1217.448
1216.448
1215.445
1214.491
1213.773
1213.367
1212.349
1211.375
1210.437
1209.544
1208.441
1207.049
1205.588
1203.999
1202.106
1199.336
1193.467
1213.335
1212.688
1211.96
1211.197
1210.437
1209.405
1208.046
1206.642
1205.182
1203.63
1201.875
1199.545
1195.363
1214.455
1213.727
1212.982
1212.232
1211.495
1210.492
1209.167
1207.798
1206.386
1204.926
1203.396
1201.715
1199.677
1196.612
1215.617
1214.876
1214.127
1213.378
1212.643
1211.66
1210.375
1209.045
1207.672
1206.257
1204.796
1203.266
1201.629
1199.758
1197.341
1216.733
1216.011
1215.277
1214.541
1213.812
1212.853
1211.614
1210.328
1208.998
1207.624
1206.207
1204.735
1203.203
1201.586
1199.803
1217.795
1217.103
1216.397
1215.683
1214.97
1214.041
1212.85
1211.613
1210.329
1209
1207.626
1206.199
1204.72
1203.183
1201.57
1188.762
1191.809
1189.859
1194.977
1193.593
1189.811
1213.932
1212.593
1211.181
1209.705
1208.167
1206.572
1204.932
1203.274
1201.709
1200.676
1200.352
1198.379
1195.517
1188.549
1215.091
1213.721
1212.304
1210.863
1209.421
1208.004
1206.654
1205.438
1204.502
1204.17
1203.734
1202.022
1199.885
1196.469
1188.442
1216.205
1214.83
1213.426
1212.028
1210.67
1209.395
1208.255
1207.325
1206.722
1206.627
1206.193
1204.728
1203.07
1200.914
1197.426
1188.135
1217.271
1215.922
1214.553
1213.207
1211.926
1210.757
1209.757
1208.994
1208.554
1208.541
1208.116
1206.811
1205.427
1203.853
1201.824
1197.893
1186.822
1218.293
1216.995
1215.683
1214.4
1213.19
1212.101
1211.188
1210.51
1210.137
1210.133
1209.705
1208.493
1207.254
1205.952
1204.505
1202.303
1197.786
1186.28
1219.269
1218.048
1216.811
1215.601
1214.46
1213.432
1212.565
1211.917
1211.547
1211.508
1211.066
1209.908
1208.744
1207.57
1206.363
1204.808
1202.354
1197.885
1186.549
1220.201
1219.075
1217.93
1216.803
1215.728
1214.744
1213.895
1213.233
1212.818
1212.71
1212.246
1211.125
1210.005
1208.894
1207.794
1206.489
1204.761
1202.395
1198.178
1187.59
1221.089
1220.074
1219.033
1217.994
1216.983
1216.031
1215.173
1214.457
1213.95
1213.74
1213.255
1212.164
1211.081
1210.015
1208.975
1207.776
1206.306
1204.624
1202.4
1198.601
1189.274
1221.933
1221.038
1220.109
1219.161
1218.212
1217.28
1216.389
1215.579
1214.921
1214.552
1214.068
1213.014
1211.979
1210.968
1209.991
1208.852
1207.475
1206.014
1204.384
1202.332
1199.047
1191.373
1222.734
1221.962
1221.145
1220.288
1219.396
1218.475
1217.533
1216.587
1215.686
1215.003
1214.604
1213.629
1212.689
1211.775
1210.892
1209.813
1208.474
1207.086
1205.63
1204.048
1202.163
1199.393
1193.567
1214.593
1213.971
1213.266
1212.519
1211.765
1210.754
1209.443
1208.088
1206.689
1205.235
1203.688
1201.924
1199.592
1195.422
1215.651
1214.956
1214.24
1213.51
1212.784
1211.805
1210.529
1209.208
1207.844
1206.437
1204.981
1203.442
1201.756
1199.712
1196.644
1216.747
1216.043
1215.326
1214.602
1213.883
1212.928
1211.693
1210.412
1209.086
1207.718
1206.306
1204.837
1203.301
1201.657
1199.779
1217.8
1217.116
1216.416
1215.708
1214.999
1214.072
1212.883
1211.647
1210.365
1209.039
1207.668
1206.242
1204.764
1203.226
1201.601
1218.802
1218.148
1217.477
1216.793
1216.104
1215.209
1214.068
1212.881
1211.646
1210.366
1209.039
1207.657
1206.223
1204.737
1203.193
1188.922
1191.813
1190.407
1194.7
1193.449
1191.4
1197.57
1196.668
1195.17
1191.54
1215.162
1213.901
1212.573
1211.186
1209.743
1208.252
1206.723
1205.187
1203.745
1202.781
1202.502
1200.975
1199.282
1196.812
1191.176
1216.254
1214.963
1213.629
1212.273
1210.917
1209.587
1208.323
1207.19
1206.318
1205.98
1205.551
1204.118
1202.59
1200.734
1197.879
1190.264
1217.302
1216.007
1214.685
1213.367
1212.088
1210.887
1209.813
1208.936
1208.358
1208.23
1207.784
1206.477
1205.122
1203.633
1201.78
1198.248
1188.368
1218.307
1217.036
1215.746
1214.477
1213.269
1212.166
1211.219
1210.492
1210.06
1210.008
1209.566
1208.348
1207.113
1205.828
1204.419
1202.294
1197.988
1187.08
1219.269
1218.048
1216.811
1215.601
1214.46
1213.432
1212.565
1211.917
1211.547
1211.508
1211.066
1209.908
1208.744
1207.57
1206.363
1204.808
1202.354
1197.885
1186.549
1220.188
1219.039
1217.874
1216.734
1215.658
1214.687
1213.866
1213.247
1212.882
1212.817
1212.367
1211.251
1210.133
1209.018
1207.907
1206.59
1204.84
1202.405
1197.984
1186.817
1221.065
1220.007
1218.929
1217.868
1216.854
1215.926
1215.123
1214.493
1214.09
1213.966
1213.501
1212.419
1211.336
1210.261
1209.202
1207.99
1206.514
1204.794
1202.446
1198.273
1187.828
1221.899
1220.946
1219.968
1218.99
1218.038
1217.14
1216.33
1215.652
1215.167
1214.953
1214.473
1213.423
1212.376
1211.34
1210.324
1209.168
1207.8
1206.334
1204.659
1202.451
1198.684
1189.454
1222.69
1221.852
1220.98
1220.089
1219.196
1218.318
1217.478
1216.713
1216.089
1215.732
1215.258
1214.248
1213.249
1212.267
1211.309
1210.199
1208.877
1207.504
1206.047
1204.424
1202.382
1199.104
1191.505
1223.439
1222.718
1221.952
1221.148
1220.31
1219.443
1218.556
1217.664
1216.814
1216.167
1215.78
1214.848
1213.943
1213.056
1212.189
1211.136
1209.842
1208.506
1207.123
1205.672
1204.095
1202.203
1199.435
1193.649
1215.781
1215.186
1214.506
1213.78
1213.038
1212.052
1210.788
1209.48
1208.13
1206.736
1205.285
1203.729
1201.959
1199.623
1195.463
1216.78
1216.119
1215.433
1214.728
1214.017
1213.066
1211.839
1210.565
1209.248
1207.889
1206.485
1205.02
1203.475
1201.783
1199.731
1217.814
1217.147
1216.463
1215.766
1215.067
1214.144
1212.959
1211.727
1210.449
1209.128
1207.762
1206.341
1204.865
1203.323
1201.672
1218.807
1218.16
1217.495
1216.817
1216.132
1215.239
1214.1
1212.914
1211.681
1210.402
1209.078
1207.698
1206.266
1204.782
1203.236
1219.751
1219.136
1218.5
1217.847
1217.185
1216.325
1215.234
1214.096
1212.911
1211.679
1210.4
1209.065
1207.677
1206.236
1204.743
1188.994
1191.826
1190.66
1194.642
1193.438
1192.092
1197.266
1196.231
1195.068
1193.078
1199.885
1199.123
1198.152
1196.709
1193.49
1216.32
1215.133
1213.883
1212.577
1211.221
1209.821
1208.389
1206.953
1205.605
1204.684
1204.384
1203.04
1201.727
1200.271
1198.185
1192.593
1217.349
1216.133
1214.876
1213.598
1212.321
1211.07
1209.88
1208.813
1207.983
1207.63
1207.182
1205.876
1204.577
1203.221
1201.63
1198.64
1190.459
1218.337
1217.117
1215.87
1214.628
1213.423
1212.289
1211.274
1210.441
1209.88
1209.721
1209.257
1208.029
1206.803
1205.556
1204.227
1202.249
1198.336
1188.599
1219.283
1218.086
1216.87
1215.674
1214.535
1213.492
1212.596
1211.901
1211.477
1211.393
1210.937
1209.773
1208.608
1207.441
1206.253
1204.727
1202.345
1198.083
1187.336
1220.188
1219.039
1217.874
1216.734
1215.658
1214.687
1213.866
1213.247
1212.882
1212.817
1212.367
1211.251
1210.133
1209.018
1207.907
1206.59
1204.84
1202.405
1197.984
1186.817
1221.053
1219.973
1218.877
1217.803
1216.788
1215.871
1215.095
1214.505
1214.149
1214.065
1213.613
1212.536
1211.455
1210.378
1209.311
1208.095
1206.615
1204.873
1202.457
1198.082
1187.066
1221.876
1220.883
1219.87
1218.871
1217.917
1217.042
1216.283
1215.685
1215.297
1215.164
1214.703
1213.661
1212.614
1211.57
1210.538
1209.374
1208.012
1206.54
1204.828
1202.497
1198.361
1188.03
1222.658
1221.765
1220.847
1219.929
1219.033
1218.188
1217.424
1216.783
1216.321
1216.108
1215.638
1214.63
1213.619
1212.613
1211.621
1210.497
1209.188
1207.824
1206.363
1204.695
1202.499
1198.746
1189.615
1223.398
1222.615
1221.798
1220.962
1220.123
1219.297
1218.506
1217.785
1217.196
1216.853
1216.393
1215.426
1214.465
1213.514
1212.579
1211.498
1210.222
1208.903
1207.532
1206.081
1204.462
1202.415
1199.146
1191.618
1224.097
1223.425
1222.709
1221.956
1221.169
1220.355
1219.52
1218.68
1217.879
1217.268
1216.896
1216.007
1215.139
1214.281
1213.435
1212.41
1211.162
1209.871
1208.539
1207.16
1205.712
1204.126
1202.228
1199.46
1193.712
1216.903
1216.337
1215.684
1214.982
1214.256
1213.299
1212.082
1210.821
1209.517
1208.172
1206.78
1205.32
1203.757
1201.981
1199.638
1217.845
1217.219
1216.564
1215.886
1215.195
1214.276
1213.097
1211.872
1210.602
1209.289
1207.931
1206.519
1205.047
1203.495
1201.795
1218.82
1218.19
1217.54
1216.873
1216.197
1215.307
1214.172
1212.989
1211.76
1210.486
1209.166
1207.792
1206.365
1204.882
1203.331
1219.757
1219.147
1218.517
1217.87
1217.212
1216.354
1215.264
1214.128
1212.944
1211.714
1210.437
1209.104
1207.718
1206.279
1204.787
1220.646
1220.068
1219.468
1218.848
1218.214
1217.39
1216.349
1215.26
1214.124
1212.941
1211.711
1210.423
1209.081
1207.686
1206.238
1191.834
1190.766
1194.624
1193.448
1192.416
1197.195
1196.103
1195.06
1193.83
1199.593
1198.634
1197.712
1196.671
1194.874
1202
1201.275
1200.455
1199.525
1198.239
1194.594
1217.412
1216.293
1215.115
1213.886
1212.609
1211.293
1209.947
1208.599
1207.33
1206.444
1206.109
1204.857
1203.687
1202.545
1201.305
1198.934
1192.745
1218.38
1217.235
1216.05
1214.847
1213.643
1212.464
1211.341
1210.332
1209.538
1209.17
1208.702
1207.467
1206.268
1205.091
1203.894
1202.119
1198.722
1190.653
1219.311
1218.162
1216.987
1215.817
1214.68
1213.61
1212.65
1211.857
1211.313
1211.129
1210.651
1209.476
1208.314
1207.166
1206.021
1204.553
1202.299
1198.424
1188.83
1220.201
1219.075
1217.93
1216.803
1215.728
1214.744
1213.895
1213.233
1212.818
1212.71
1212.246
1211.125
1210.005
1208.894
1207.794
1206.489
1204.761
1202.395
1198.178
1187.59
1221.053
1219.973
1218.877
1217.803
1216.788
1215.871
1215.095
1214.505
1214.149
1214.065
1213.613
1212.536
1211.455
1210.378
1209.311
1208.095
1206.615
1204.873
1202.457
1198.082
1187.066
1221.865
1220.851
1219.821
1218.811
1217.855
1216.991
1216.257
1215.696
1215.352
1215.257
1214.808
1213.77
1212.725
1211.679
1210.642
1209.476
1208.115
1206.639
1204.906
1202.508
1198.175
1187.279
1222.636
1221.706
1220.756
1219.817
1218.92
1218.095
1217.38
1216.814
1216.443
1216.306
1215.854
1214.852
1213.841
1212.829
1211.822
1210.693
1209.393
1208.033
1206.566
1204.862
1202.545
1198.428
1188.212
1223.368
1222.534
1221.674
1220.812
1219.971
1219.176
1218.457
1217.853
1217.415
1217.207