/*--------------------------------*- C++ -*----------------------------------*\
| =========                 |                                                 |
| \\      /  F ield         | OpenFOAM: The Open Source CFD Toolbox           |
|  \\    /   O peration     | Version:  2306                                  |
|   \\  /    A nd           | Website:  www.openfoam.com                      |
|    \\/     M anipulation  |                                                 |
\*---------------------------------------------------------------------------*/
FoamFile
{
    version     2.0;
    format      ascii;
    arch        "LSB;label=32;scalar=64";
    class       volVectorField;
    location    "0.9/air";
    object      U;
}
// * * * * * * * * * * * * * * * * * * * * * * * * * * * * * * * * * * * * * //

dimensions      [0 1 -1 0 0 0 0];

internalField   nonuniform List<vector> 
16000
(
(0.3862988 0.0573002 -0.05738575)
(0.6844081 0.1083511 -0.08856554)
(0.4138727 0.004287623 -0.004165883)
(0.6846418 0.08820507 -0.1096049)
(0.8172729 0.09240562 -0.08857346)
(0.8137974 0.01059242 -0.007706716)
(1.360768 0.1824982 -0.1860125)
(0.308367 -0.001460702 0.001471021)
(0.8139878 0.007835646 -0.01019556)
(0.8181198 0.08796973 -0.09593755)
(0.8818404 0.05725439 -0.08609179)
(1.031384 0.01126771 -0.008080931)
(1.705223 0.1720475 -0.2062749)
(0.6361441 -0.001994722 0.002489023)
(1.795547 0.02027094 -0.01996023)
(1.706721 0.200922 -0.1809961)
(0.3536653 0.0009205302 -0.0009104425)
(0.6363759 -0.002504438 0.001935206)
(1.032272 0.008177954 -0.01074184)
(0.8838511 0.08527284 -0.0638552)
(0.9079722 0.01935816 -0.08489138)
(1.145987 0.008062346 -0.007780061)
(1.890931 0.1128751 -0.2055836)
(0.8295682 -0.001730943 0.002762723)
(2.380862 0.02300014 -0.02323156)
(2.180214 0.19935 -0.2124998)
(0.7211172 0.00154614 -0.001632932)
(1.46077 -0.003663809 0.003385465)
(2.38261 0.0231167 -0.02290892)
(1.895794 0.1987907 -0.1286902)
(0.3281406 -0.0004685075 0.0004792166)
(0.7213393 0.001607923 -0.001634652)
(0.8307001 -0.002808366 0.001471368)
(1.148416 0.007782007 -0.00770622)
(0.912061 0.08377487 -0.02965222)
(0.9079722 -0.01935816 -0.08489138)
(1.196562 0.002776527 -0.007331264)
(1.966391 0.03911464 -0.2032848)
(0.9420403 -0.0009431155 0.002801127)
(2.694986 0.01822818 -0.0263137)
(2.423751 0.136896 -0.2184464)
(0.9351235 0.001500714 -0.001783214)
(1.990737 -0.003269085 0.00420604)
(3.238156 0.02715075 -0.02795717)
(2.428259 0.2021452 -0.1597786)
(0.6742775 -0.0008312707 0.0008134684)
(1.639045 0.002602393 -0.002968507)
(1.992943 -0.004721001 0.002499412)
(2.701055 0.0254742 -0.01899996)
(1.977474 0.1948735 -0.06279809)
(0.3425308 0.000313962 -0.0003037741)
(0.6744928 -0.0008341589 0.0007597105)
(0.9362451 0.001722289 -0.001844959)
(0.9451546 -0.002885563 0.0003516366)
(1.201766 0.007158078 -0.003005092)
(0.9157542 0.08329915 0.004688345)
(0.0003689629 -0.001236625 -0.0005948875)
(0.8818404 -0.05725439 -0.08609179)
(1.196562 -0.002776528 -0.007331264)
(1.966391 -0.03911464 -0.2032848)
(0.9942326 -0.0002973682 0.002845104)
(2.837581 0.006603703 -0.02654956)
(2.525031 0.04826488 -0.2173283)
(1.058069 0.0009649426 -0.001785367)
(2.308036 -0.001832795 0.004831794)
(3.730112 0.0210843 -0.03078343)
(2.703836 0.1408069 -0.168282)
(0.8786434 -0.0008269882 0.0008660066)
(2.219829 0.002609031 -0.003325916)
(2.773524 -0.004700672 0.003488812)
(3.736331 0.02883105 -0.0229582)
(2.538284 0.1982015 -0.08140588)
(0.7010204 0.0005198518 -0.0005683515)
(1.543879 -0.00158519 0.00126673)
(2.222073 0.002698782 -0.003601843)
(2.315632 -0.005636702 0.0003661661)
(2.851722 0.02484271 -0.008657176)
(1.988493 0.1928359 0.007085016)
(0.3342158 -0.0001310301 0.0001417598)
(0.7012388 0.000544565 -0.0006007465)
(0.8797324 -0.0009196016 0.0005328992)
(1.061205 0.001686883 -0.001706668)
(1.000823 -0.002999381 -0.0008059236)
(1.206244 0.006856989 0.001341358)
(0.8961963 0.08388044 0.03764361)
(0.0003831314 -0.00357964 -0.0006150271)
(0.0003902096 -0.001099497 -0.0005442782)
(0.0003713977 -0.001239272 -0.001156236)
(0.8172729 -0.09240562 -0.08857346)
(1.145987 -0.008062346 -0.007780061)
(1.890931 -0.1128751 -0.2055836)
(0.9942326 0.0002973682 0.002845104)
(2.837581 -0.006603703 -0.02654956)
(2.525031 -0.04826488 -0.2173283)
(1.1148 0.0003257638 -0.001774925)
(2.456885 -0.000585295 0.00522464)
(3.953853 0.007827518 -0.03173825)
(2.81858 0.05007857 -0.1689725)
(0.9972823 -0.0005530493 0.0008674679)
(2.56461 0.001735358 -0.003303404)
(3.251869 -0.00293357 0.004485084)
(4.342576 0.02281116 -0.0260754)
(2.82828 0.1382967 -0.08837719)
(0.9112451 0.0005084423 -0.0006434607)
(2.100685 -0.001686975 0.001402463)
(3.072705 0.002678015 -0.004180326)
(3.259295 -0.006159922 0.0009119097)
(3.972713 0.02859625 -0.01105285)
(2.553506 0.1953995 0.005509328)
(0.6856433 -0.000234923 0.0002175014)
(1.598983 0.0008444626 -0.001190273)
(2.102866 -0.001957462 0.0008129295)
(2.572406 0.002422112 -0.003581939)
(2.47426 -0.006468864 -0.001811918)
(2.864837 0.02381366 0.002779109)
(1.93275 0.1926952 0.07326893)
(0.338557 0.0001208014 -0.000110929)
(0.6858595 -0.0002370758 0.0001682979)
(0.9123477 0.0005850958 -0.0008283282)
(1.000327 -0.0009551099 -8.961279e-05)
(1.121508 0.001616291 -0.001627888)
(1.006191 -0.003139944 -0.002222905)
(1.16248 0.006766322 0.00459777)
(0.8429942 0.08567122 0.0669407)
(0.0004087474 -0.006457707 -0.0006606867)
(0.0004112592 -0.003183682 -0.0005605785)
(0.000385583 -0.003593384 -0.001204334)
(0.0002814236 -0.001030733 -0.0005024178)
(0.0003910205 -0.001102536 -0.001057571)
(0.0003688804 -0.00123208 -0.003159497)
(0.6844081 -0.1083511 -0.08856554)
(1.031384 -0.01126771 -0.008080931)
(1.705223 -0.1720475 -0.2062749)
(0.9420403 0.0009431155 0.002801127)
(2.694986 -0.01822818 -0.0263137)
(2.423751 -0.136896 -0.2184464)
(1.1148 -0.0003257637 -0.001774925)
(2.456885 0.0005852951 0.00522464)
(3.953853 -0.007827519 -0.03173825)
(2.81858 -0.05007857 -0.1689725)
(1.052373 -0.0001921027 0.0008682171)
(2.725717 0.0005950133 -0.003221049)
(3.478549 -0.0009710625 0.005103935)
(4.620325 0.008526848 -0.02738439)
(2.948466 0.04930424 -0.0901073)
(1.032699 0.0003289711 -0.0006611233)
(2.43437 -0.001190771 0.001453533)
(3.589687 0.001764628 -0.004195998)
(3.846131 -0.004087942 0.00163656)
(4.635584 0.0228956 -0.01315101)
(2.845012 0.1359643 0.002854773)
(0.8925812 -0.0002283625 0.0002121037)
(2.170518 0.0008457838 -0.001444652)
(2.921083 -0.002181566 0.0008412731)
(3.597357 0.002272911 -0.00431804)
(3.500509 -0.007412784 -0.001942067)
(3.994128 0.02754506 0.003137792)
(2.477778 0.1943819 0.08716626)
(0.6936393 0.0002000157 -0.0002267452)
(1.567465 -0.0004854552 0.0001815396)
(2.172723 0.0008505391 -0.001786328)
(2.441944 -0.00223564 -0.0004416827)
(2.743626 0.002001802 -0.003507102)
(2.48948 -0.007172397 -0.004256487)
(2.741475 0.02261638 0.01215456)
(1.783915 0.190267 0.1261874)
(0.3357862 -2.776614e-05 3.740284e-05)
(0.6938564 0.0002065584 -0.0002685428)
(0.8936709 -0.0002634977 -5.016505e-05)
(1.03578 0.0005686561 -0.001016142)
(1.058885 -0.001009744 -0.000942253)
(1.127147 0.001495345 -0.001805203)
(0.9618616 -0.003368728 -0.004143158)
(1.058629 0.006831187 0.006063832)
(0.7259792 0.08670131 0.07424185)
(0.0004559374 -0.008470799 -0.001014487)
(0.0004495426 -0.005719591 -0.0005979948)
(0.0004111967 -0.006369001 -0.001300342)
(0.0002959726 -0.002984404 -0.0005170232)
(0.0004120777 -0.003198037 -0.001097071)
(0.0003828856 -0.003560818 -0.003230499)
(0.0004210898 -0.000956826 -0.0004691464)
(0.0002817093 -0.001033989 -0.0009763866)
(0.0003872988 -0.001096968 -0.002891801)
(0.0003607872 -0.001204968 -0.001080441)
(0.3862988 -0.0573002 -0.05738575)
(0.8137974 -0.01059242 -0.007706716)
(1.360768 -0.1824982 -0.1860125)
(0.8295682 0.001730943 0.002762724)
(2.380862 -0.02300014 -0.02323156)
(2.180214 -0.19935 -0.2124998)
(1.058069 -0.0009649426 -0.001785367)
(2.308036 0.001832795 0.004831794)
(3.730112 -0.0210843 -0.03078343)
(2.703836 -0.1408069 -0.168282)
(1.052373 0.0001921028 0.0008682171)
(2.725717 -0.0005950131 -0.003221049)
(3.478549 0.0009710626 0.005103935)
(4.620325 -0.008526848 -0.02738439)
(2.948466 -0.04930424 -0.0901073)
(1.088949 0.0001114586 -0.0006662723)
(2.591199 -0.0004237697 0.001479345)
(3.833957 0.00060224 -0.004093437)
(4.126209 -0.001393216 0.002132665)
(4.940734 0.008589648 -0.01424034)
(2.965253 0.04841328 0.001215532)
(1.012501 -0.0001513037 0.0002006588)
(2.511549 0.000557563 -0.001533684)
(3.4228 -0.001594781 0.0008568819)
(4.229747 0.001423126 -0.004428634)
(4.143329 -0.005110153 -0.001665296)
(4.663225 0.02219813 0.002672734)
(2.757227 0.1345403 0.08854838)
(0.9022622 0.0002004533 -0.0002712454)
(2.130761 -0.0005134127 0.0001119818)
(3.011101 0.0008327729 -0.002267507)
(3.430254 -0.002578072 -0.0006927457)
(3.856618 0.001697604 -0.004306458)
(3.523568 -0.008339857 -0.004905294)
(3.803369 0.0259642 0.01510505)
(2.275708 0.1892063 0.1485766)
(0.6884933 -5.824676e-05 3.700251e-05)
(1.58377 0.0002959036 -0.0005991878)
(2.132939 -0.0006440513 -0.0003241118)
(2.519207 0.0007104909 -0.002300039)
(2.608608 -0.002558649 -0.002149223)
(2.759658 0.001463098 -0.003653616)
(2.36285 -0.007852967 -0.007166318)
(2.451892 0.02012686 0.01646328)
(1.472158 0.1744988 0.1335071)
(0.3370757 5.553412e-05 -4.710263e-05)
(0.6887096 -5.523538e-05 -3.780561e-06)
(0.9033538 0.0002199528 -0.0004794852)
(1.015544 -0.0002841384 -0.0004584658)
(1.095534 0.0005220284 -0.001303326)
(1.064314 -0.001120281 -0.002057996)
(1.078852 0.001257958 -0.002404661)
(0.8606221 -0.003643505 -0.006587617)
(0.8642891 0.006776783 0.001952506)
(0.464347 0.05985336 0.0001946642)
(0.0005065516 -0.01686933 -0.00135035)
(0.0005197068 -0.007500133 -0.0008991487)
(0.0004570161 -0.008289135 -0.001953285)
(0.000322506 -0.005355149 -0.0005507482)
(0.0004503304 -0.005647226 -0.001176081)
(0.0004081384 -0.006226952 -0.003368234)
(0.0004343986 -0.002770101 -0.000482396)
(0.0002962955 -0.002998967 -0.00101209)
(0.0004080944 -0.003171183 -0.002947327)
(0.0003743592 -0.003506204 -0.001119623)
(0.0004079136 -0.0009035994 -0.0004416215)
(0.0004236013 -0.0009600569 -0.0009116932)
(0.0002787548 -0.001029086 -0.002669857)
(0.0003710949 -0.001075088 -0.0009882384)
(0.0003608676 -0.001206082 -0.01079733)
(0.4138727 -0.004287623 -0.004165883)
(0.6846418 -0.08820507 -0.1096049)
(0.6361441 0.001994722 0.002489023)
(1.795547 -0.02027094 -0.01996023)
(1.706721 -0.200922 -0.1809961)
(0.9351235 -0.001500714 -0.001783213)
(1.990737 0.003269085 0.00420604)
(3.238156 -0.02715075 -0.02795717)
(2.428259 -0.2021452 -0.1597786)
(0.9972823 0.0005530492 0.0008674679)
(2.56461 -0.001735358 -0.003303404)
(3.251869 0.00293357 0.004485084)
(4.342576 -0.02281116 -0.0260754)
(2.82828 -0.1382967 -0.08837719)
(1.088949 -0.0001114584 -0.0006662722)
(2.591199 0.0004237695 0.001479345)
(3.833957 -0.0006022399 -0.004093437)
(4.126209 0.001393216 0.002132666)
(4.940734 -0.008589648 -0.01424034)
(2.965253 -0.04841328 0.001215532)
(1.06814 -5.252915e-05 0.0001957664)
(2.671458 0.0001900594 -0.001556159)
(3.661155 -0.0005773912 0.0008787325)
(4.530885 0.0004717345 -0.00436353)
(4.451232 -0.001778202 -0.001405883)
(4.971772 0.008356037 0.002008722)
(2.871423 0.04771731 0.08726671)
(1.022964 0.0001313319 -0.0002871429)
(2.4678 -0.0003635309 6.072816e-05)
(3.523094 0.0005338759 -0.002461507)
(4.045306 -0.001933305 -0.0007775592)
(4.548456 0.0009512184 -0.004487856)
(4.171697 -0.005862005 -0.004954428)
(4.429755 0.02103728 0.01616836)
(2.522818 0.1294195 0.1513614)
(0.8959985 -5.590126e-05 1.797948e-05)
(2.151256 0.0002988346 -0.0007822696)
(2.960075 -0.0007235493 -0.0005684831)
(3.53063 0.000634502 -0.002979605)
(3.683217 -0.003014323 -0.002738096)
(3.880817 0.001048703 -0.004336022)
(3.330539 -0.008973556 -0.00799444)
(3.359309 0.02304843 0.0206806)
(1.865076 0.1647773 0.1510535)
(0.6907494 9.265155e-05 -0.0001114975)
(1.573171 -0.0001622919 -0.0001178127)
(2.153436 0.000255835 -0.0011296)
(2.475364 -0.0008070373 -0.001200648)
(2.689041 0.0004470737 -0.002905952)
(2.624065 -0.003040527 -0.004171428)
(2.622352 0.000682916 -0.004141394)
(2.076365 -0.008616198 -0.0103018)
(1.929938 0.01434007 0.0107192)
(0.8609091 0.1151977 0.02544851)
(0.3358299 1.165637e-05 -2.510682e-06)
(0.6909647 9.247907e-05 -0.0001572595)
(0.8970842 -6.534662e-05 -0.0002012576)
(1.026011 0.0002049104 -0.0007366659)
(1.074644 -0.0003282069 -0.001018536)
(1.101057 0.0004180281 -0.001807059)
(1.017289 -0.001349263 -0.003527561)
(0.9682757 0.0009524736 -0.003462598)
(0.6843053 -0.003556566 -0.01050303)
(0.5077169 -0.000852302 -0.02463879)
(0.002316835 -0.01236264 -0.01094276)
(0.000593981 -0.01475341 -0.001206461)
(0.0005048185 -0.01322992 -0.002564958)
(0.0003695937 -0.007018421 -0.000829276)
(0.0005182642 -0.00734648 -0.001731945)
(0.0004522405 -0.008057417 -0.003988469)
(0.0004580457 -0.004968172 -0.000513042)
(0.0003228658 -0.005289771 -0.001083503)
(0.0004458198 -0.005526625 -0.003053964)
(0.0003987383 -0.006055598 -0.001201672)
(0.0004188636 -0.002615999 -0.0004539057)
(0.0004369671 -0.002784276 -0.0009442217)
(0.000293192 -0.002974858 -0.002718506)
(0.0003912401 -0.003130173 -0.00101999)
(0.0003744261 -0.003472601 -0.01091427)
(0.0004658446 -0.0008533516 -0.0004180855)
(0.0004106916 -0.0009068229 -0.000858286)
(0.0004211213 -0.0009557354 -0.002493115)
(0.0002656203 -0.001009868 -0.0009125786)
(0.0003766682 -0.001075283 -0.009890472)
(3.761352e-05 -0.0001312731 -0.004126938)
(0.308367 0.001460702 0.001471021)
(0.8139878 -0.007835646 -0.01019556)
(0.8181198 -0.08796973 -0.09593755)
(0.7211172 -0.00154614 -0.001632932)
(1.46077 0.003663809 0.003385465)
(2.38261 -0.0231167 -0.02290892)
(1.895794 -0.1987907 -0.1286902)
(0.8786434 0.0008269882 0.0008660066)
(2.219829 -0.002609031 -0.003325916)
(2.773524 0.004700672 0.003488812)
(3.736331 -0.02883105 -0.0229582)
(2.538284 -0.1982015 -0.08140588)
(1.032699 -0.000328971 -0.0006611234)
(2.43437 0.001190771 0.001453533)
(3.589687 -0.001764628 -0.004195998)
(3.846131 0.004087942 0.00163656)
(4.635584 -0.0228956 -0.01315101)
(2.845012 -0.1359643 0.002854773)
(1.06814 5.252923e-05 0.0001957664)
(2.671458 -0.0001900596 -0.001556159)
(3.661155 0.0005773911 0.0008787324)
(4.530885 -0.0004717345 -0.00436353)
(4.451232 0.001778202 -0.001405883)
(4.971772 -0.008356038 0.002008723)
(2.871423 -0.04771731 0.08726671)
(1.078916 4.46258e-05 -0.0002929531)
(2.626095 -0.0001299146 3.877816e-05)
(3.765821 0.0001787068 -0.002519767)
(4.339735 -0.0007086927 -0.0007818229)
(4.879224 0.0002928847 -0.004467493)
(4.482221 -0.002064874 -0.004878734)
(4.718724 0.007960327 0.01580161)
(2.620012 0.04556266 0.1500062)
(1.016173 -3.847223e-05 5.739668e-06)
(2.490309 0.0001960514 -0.0008675815)
(3.466505 -0.0005359957 -0.0007083972)
(4.157619 0.0003652848 -0.003262934)
(4.356892 -0.002292747 -0.002924532)
(4.578096 0.0004577882 -0.004460933)
(3.933525 -0.006322138 -0.008102646)
(3.889644 0.01879842 0.02261274)
(2.049655 0.1106035 0.1532732)
(0.8986042 9.639671e-05 -0.0001439068)
(2.137844 -0.0001782716 -0.0002259591)
(2.986241 0.0002386891 -0.00151442)
(3.47395 -0.0009503676 -0.001674821)
(3.788078 0.0002888233 -0.003706338)
(3.706585 -0.003583903 -0.004976109)
(3.672347 0.0002832463 -0.004392669)
(2.897899 -0.009336255 -0.01069746)
(2.572237 0.0190476 0.01777822)
(1.04661 0.1025657 0.03556707)
(0.688529 2.224217e-05 -3.223343e-05)
(1.577461 0.000112325 -0.0003908347)
(2.140011 -0.0002631755 -0.0005923181)
(2.497879 0.0001338714 -0.001741519)
(2.643468 -0.001054635 -0.002323476)
(2.704752 -3.930107e-06 -0.003702002)
(2.490039 -0.003811593 -0.006382813)
(2.311364 -0.0004607329 -0.004891076)
(1.589755 -0.008892306 -0.01312816)
(1.039626 0.005959571 -0.0152149)
(0.003699567 0.000558352 -0.00759799)
(0.3360442 2.787981e-05 -1.956499e-05)
(0.6887449 1.563389e-05 -7.891653e-05)
(0.8996834 9.673284e-05 -0.0003538347)
(1.019202 -8.244178e-05 -0.0005232908)
(1.085426 0.0001638962 -0.001100624)
(1.080086 -0.0004270625 -0.001796512)
(1.053056 0.0001965287 -0.002661115)
(0.9103457 -0.001642026 -0.005294088)
(0.7734668 0.0008352859 -0.006507448)
(0.3863044 -0.007336144 -0.02619603)
(0.002627732 -0.01105999 -0.009466305)
(0.0006268088 -0.01017731 -0.01499081)
(0.0004210152 -0.01376631 -0.001115548)
(0.0005888989 -0.01162659 -0.0022575)
(0.0004984525 -0.01186134 -0.004589301)
(0.0004996413 -0.006507767 -0.0007701618)
(0.0003687167 -0.00687775 -0.001597438)
(0.0005112603 -0.007147424 -0.003568078)
(0.0004404044 -0.007789339 -0.001629642)
(0.0004380719 -0.004689681 -0.0004824048)
(0.0004606776 -0.00490875 -0.001009202)
(0.0003194547 -0.005179019 -0.002811636)
(0.0004276855 -0.005389695 -0.001086784)
(0.0003988096 -0.005953418 -0.01113173)
(0.0004757256 -0.002470426 -0.0004295388)
(0.0004216951 -0.002629871 -0.0008885565)
(0.000434369 -0.002762541 -0.002536699)
(0.000279713 -0.002939964 -0.0009411403)
(0.0003968148 -0.003096661 -0.00997129)
(3.897552e-05 -0.0003765068 -0.004164665)
(0.0004704999 -0.0008122029 -0.000397504)
(0.00046961 -0.0008565118 -0.0008125492)
(0.0004086137 -0.0009028951 -0.002347094)
(0.0004103823 -0.0009384575 -0.0008521424)
(0.0002706115 -0.001009367 -0.009132899)
(3.743934e-05 -0.0001176356 -0.003780403)
(3.360345e-05 -0.0001182347 -0.004889788)
(0.3536653 -0.0009205302 -0.0009104425)
(0.6363759 0.002504438 0.001935206)
(1.032272 -0.008177953 -0.01074184)
(0.8838511 -0.08527284 -0.0638552)
(0.6742775 0.0008312707 0.0008134684)
(1.639045 -0.002602393 -0.002968507)
(1.992943 0.004721001 0.002499413)
(2.701055 -0.0254742 -0.01899996)
(1.977474 -0.1948735 -0.06279809)
(0.9112451 -0.0005084423 -0.0006434607)
(2.100685 0.001686975 0.001402463)
(3.072705 -0.002678015 -0.004180326)
(3.259295 0.006159922 0.0009119099)
(3.972713 -0.02859625 -0.01105285)
(2.553506 -0.1953995 0.005509328)
(1.012501 0.0001513037 0.0002006588)
(2.511549 -0.0005575631 -0.001533684)
(3.4228 0.001594781 0.0008568818)
(4.229747 -0.001423126 -0.004428634)
(4.143329 0.005110153 -0.001665297)
(4.663225 -0.02219813 0.002672734)
(2.757227 -0.1345403 0.08854838)
(1.078916 -4.462598e-05 -0.000292953)
(2.626095 0.0001299146 3.877807e-05)
(3.765821 -0.0001787068 -0.002519767)
(4.339735 0.0007086926 -0.0007818228)
(4.879224 -0.0002928847 -0.004467493)
(4.482221 0.002064874 -0.004878734)
(4.718724 -0.007960328 0.01580161)
(2.620012 -0.04556266 0.1500062)
(1.071913 -1.386742e-05 8.041418e-07)
(2.649422 6.633426e-05 -0.0008985278)
(3.706956 -0.0001956788 -0.0007643013)
(4.457189 0.0001136028 -0.003350033)
(4.680641 -0.0008457671 -0.002948825)
(4.911547 0.0001118817 -0.00443048)
(4.221566 -0.00223932 -0.008066225)
(4.135888 0.007148887 0.02231126)
(2.109227 0.03883238 0.1532857)
(1.018878 6.432801e-05 -0.0001576113)
(2.475521 -0.0001325535 -0.000289049)
(3.495446 0.0001418118 -0.001701862)
(4.09452 -0.0007273026 -0.001905868)
(4.474454 8.657746e-05 -0.00401007)
(4.385555 -0.002718964 -0.005154689)
(4.321243 -3.768468e-05 -0.004247957)
(3.403284 -0.006486873 -0.01052927)
(2.947831 0.01481087 0.01908952)
(1.131186 0.06637123 0.03672178)
(0.8960135 2.90345e-05 -5.670656e-05)
(2.142867 0.0001122293 -0.0005363204)
(2.968967 -0.0003134969 -0.0008736289)
(3.502897 7.016537e-05 -0.002321358)
(3.728968 -0.00127523 -0.003001458)
(3.81182 -0.00024222 -0.004451844)
(3.502605 -0.004349377 -0.007051924)
(3.204995 -0.0006226254 -0.004243927)
(2.177753 -0.008803563 -0.01139575)
(1.339621 0.008015433 -0.00727563)
(0.004342802 0.0004703453 -0.00536989)
(0.6888068 3.947839e-05 -5.939236e-05)
(1.573148 -7.575983e-06 -0.0002510096)
(2.145023 5.658271e-05 -0.0008706252)
(2.483045 -0.0003959668 -0.001305435)
(2.666804 -9.34116e-05 -0.002481149)
(2.658963 -0.001482329 -0.003668076)
(2.568141 -0.000765538 -0.004726513)
(2.18841 -0.004887134 -0.008424885)
(1.77906 -0.001691458 -0.006657868)
(0.8278023 -0.007261536 -0.01941917)
(0.00449044 -6.14588e-05 -0.00659407)
(0.0006406685 -0.002006414 -0.01083339)
(0.3356568 1.855969e-05 -1.062876e-05)
(0.689022 4.301662e-05 -9.535856e-05)
(0.8970943 1.311311e-05 -0.0002659799)
(1.021888 8.246404e-05 -0.0006189102)
(1.078385 -0.0001221503 -0.0009712705)
(1.090885 6.978973e-05 -0.001662705)
(1.032559 -0.0006374501 -0.002898867)
(0.9436603 -9.297788e-05 -0.003874935)
(0.7238992 -0.001673385 -0.008387967)
(0.4407127 -0.003911904 -0.02317831)
(0.001937788 -0.01034249 -0.008792859)
(0.0007607897 -0.008992475 -0.01292105)
(0.0005923279 -0.009302639 -0.01056321)
(0.0005454157 -0.01275478 -0.001032249)
(0.0004176177 -0.01085977 -0.00208246)
(0.0005796391 -0.01044421 -0.004060229)
(0.0004838694 -0.01059129 -0.002033093)
(0.0004718197 -0.006142241 -0.0007240054)
(0.0005012525 -0.006379281 -0.001483508)
(0.0003638271 -0.006694341 -0.003280585)
(0.0004895952 -0.006932006 -0.001448561)
(0.000439877 -0.007636291 -0.01154983)
(0.0004926958 -0.004427447 -0.0004561508)
(0.0004409641 -0.004634596 -0.0009490617)
(0.0004578352 -0.004807181 -0.002619875)
(0.0003053169 -0.005057134 -0.001001271)
(0.0004332789 -0.00529363 -0.01011473)
(4.148847e-05 -0.0006457778 -0.004241051)
(0.000479191 -0.002351293 -0.0004082864)
(0.0004795468 -0.002483881 -0.0008408435)
(0.0004195254 -0.002609814 -0.002387115)
(0.0004233869 -0.002731972 -0.0008780751)
(0.0002846574 -0.002906945 -0.009197612)
(3.947943e-05 -0.0003375941 -0.003805076)
(3.481084e-05 -0.0003422853 -0.004935217)
(0.0004964528 -0.0007741575 -0.0003792264)
(0.0004745554 -0.0008153076 -0.0007725865)
(0.0004677908 -0.0008529254 -0.002222054)
(0.0003995942 -0.0008870365 -0.0008023254)
(0.0004123867 -0.0009378414 -0.008530051)
(2.648e-05 -0.0001107038 -0.003490856)
(3.243552e-05 -0.0001062041 -0.004479111)
(3.255148e-05 -0.0001180087 -0.00482347)
(0.3281406 0.0004685075 0.0004792166)
(0.7213393 -0.001607923 -0.001634652)
(0.8307001 0.002808366 0.001471368)
(1.148416 -0.007782007 -0.00770622)
(0.912061 -0.08377487 -0.02965222)
(0.7010204 -0.0005198518 -0.0005683515)
(1.543879 0.00158519 0.00126673)
(2.222073 -0.002698782 -0.003601843)
(2.315632 0.005636702 0.0003661662)
(2.851722 -0.02484271 -0.008657176)
(1.988493 -0.1928359 0.007085016)
(0.8925812 0.0002283625 0.0002121038)
(2.170518 -0.0008457839 -0.001444652)
(2.921083 0.002181566 0.0008412731)
(3.597357 -0.002272911 -0.00431804)
(3.500509 0.007412784 -0.001942067)
(3.994128 -0.02754506 0.003137792)
(2.477778 -0.1943819 0.08716626)
(1.022964 -0.0001313321 -0.0002871429)
(2.4678 0.0003635308 6.072809e-05)
(3.523094 -0.000533876 -0.002461507)
(4.045306 0.001933305 -0.0007775592)
(4.548456 -0.0009512184 -0.004487856)
(4.171697 0.005862005 -0.004954428)
(4.429755 -0.02103728 0.01616836)
(2.522818 -0.1294195 0.1513614)
(1.071913 1.386724e-05 8.041079e-07)
(2.649422 -6.633424e-05 -0.0008985276)
(3.706956 0.000195679 -0.0007643013)
(4.457189 -0.0001136028 -0.003350033)
(4.680641 0.0008457669 -0.002948825)
(4.911547 -0.0001118817 -0.00443048)
(4.221566 0.002239319 -0.008066225)
(4.135888 -0.007148887 0.02231126)
(2.109227 -0.03883238 0.1532857)
(1.074639 2.195135e-05 -0.0001629449)
(2.634072 -4.88429e-05 -0.00031481)
(3.737039 4.477188e-05 -0.001772109)
(4.391443 -0.0002694452 -0.00198861)
(4.803719 8.639436e-06 -0.00408999)
(4.7119 -0.001000822 -0.00514461)
(4.630472 -5.584253e-05 -0.004112961)
(3.643273 -0.002304371 -0.01037123)
(3.13219 0.005285169 0.01758722)
(1.161348 0.02280318 0.03661762)
(1.016177 2.136183e-05 -6.972596e-05)
(2.480759 7.107566e-05 -0.000610377)
(3.476249 -0.0002448818 -0.001025754)
(4.126644 4.679827e-07 -0.002592051)
(4.40855 -0.0009897772 -0.003270707)
(4.503569 -0.0003092648 -0.004638198)
(4.13372 -0.003212706 -0.007002252)
(3.749716 -0.000502126 -0.003620793)
(2.53229 -0.005944098 -0.01061529)
(1.507154 0.005989913 -0.005805923)
(0.004634899 0.0002964801 -0.004705987)
(0.8962403 3.949102e-05 -8.363225e-05)
(2.137775 -4.147107e-06 -0.0003799761)
(2.974863 3.447913e-05 -0.001193138)
(3.483657 -0.0004970229 -0.00178592)
(3.759058 -0.0002252699 -0.003191004)
(3.752409 -0.001778581 -0.00440287)
(3.604195 -0.001017827 -0.005116377)
(3.048112 -0.005201886 -0.008372762)
(2.422048 -0.00133894 -0.004136243)
(1.094422 -0.005847685 -0.01183201)
(0.005539577 1.003593e-05 -0.004643321)
(0.0006487837 -0.001028558 -0.007997808)
(0.6880596 2.785683e-05 -4.312699e-05)
(1.573415 1.936961e-05 -0.0002685402)
(2.139929 -7.287186e-05 -0.000708828)
(2.488244 -5.615711e-05 -0.001477812)
(2.651355 -0.0006161729 -0.002204788)
(2.682347 -0.0005005671 -0.003400174)
(2.523605 -0.002208762 -0.005202553)
(2.26011 -0.001887337 -0.005831018)
(1.677052 -0.005701619 -0.0102392)
(0.933679 -0.002529233 -0.01620385)
(0.003497955 -0.0001242144 -0.006107813)
(0.0007819703 -0.001933085 -0.009356365)
(0.0006030152 -0.002666422 -0.008824274)
(0.3355028 2.234916e-05 -1.478287e-05)
(0.6882737 2.721195e-05 -8.229411e-05)
(0.897317 4.152873e-05 -0.0002688978)
(1.019191 -8.935019e-07 -0.0005398517)
(1.08108 4.52618e-05 -0.0009865225)
(1.08381 -0.0002121918 -0.001614922)
(1.043088 -0.0001317382 -0.002539839)
(0.9244688 -0.0009101573 -0.004304835)
(0.752083 -0.0001835732 -0.006652132)
(0.4097394 -0.00538185 -0.02251666)
(0.002236229 -0.00956485 -0.008140668)
(0.0005296952 -0.008400057 -0.01199436)
(0.0007162926 -0.008239717 -0.009164277)
(0.0005611747 -0.0084724 -0.00592586)
(0.0005089998 -0.01202476 -0.0009711945)
(0.0005445327 -0.01006462 -0.001928837)
(0.0004112641 -0.009761911 -0.003725948)
(0.0005541676 -0.009370924 -0.001787043)
(0.0004829652 -0.0100271 -0.0120393)
(0.0005224305 -0.005797539 -0.0006836095)
(0.0004738966 -0.006022218 -0.001394729)
(0.0004971697 -0.00621102 -0.00304959)
(0.0003477793 -0.006501552 -0.001334682)
(0.0004943359 -0.006788398 -0.01040151)
(4.575027e-05 -0.0008273921 -0.004360314)
(0.0004938857 -0.004212848 -0.000433387)
(0.000496577 -0.004376127 -0.0008973896)
(0.0004386049 -0.004539635 -0.002463443)
(0.0004463955 -0.004697221 -0.0009326906)
(0.0003101564 -0.004964707 -0.009309659)
(4.325394e-05 -0.000577463 -0.003854067)
(3.703812e-05 -0.0005870492 -0.00502591)
(0.0005044212 -0.002241109 -0.0003894154)
(0.0004832999 -0.002364378 -0.0007992833)
(0.0004776499 -0.002465286 -0.002259106)
(0.0004103241 -0.002582241 -0.0008264084)
(0.0004253045 -0.002700679 -0.008584931)
(2.792705e-05 -0.0003177745 -0.003509823)
(3.424554e-05 -0.0003077732 -0.004509008)
(3.372291e-05 -0.0003380412 -0.004867794)
(0.000504536 -0.0007409181 -0.000362806)
(0.0005010048 -0.0007771892 -0.0007370708)
(0.0004729555 -0.0008119841 -0.002112771)
(0.000459958 -0.0008382341 -0.0007596046)
(0.0004007348 -0.0008862825 -0.00803131)
(4.283846e-05 -0.0001030011 -0.003260462)
(2.272666e-05 -0.0001000959 -0.004135963)
(3.087522e-05 -0.000106221 -0.004418437)
(3.179333e-05 -0.0001148634 -0.004350083)
(0.3425308 -0.000313962 -0.0003037741)
(0.6744928 0.0008341588 0.0007597106)
(0.9362451 -0.001722289 -0.001844959)
(0.9451546 0.002885563 0.0003516366)
(1.201766 -0.007158078 -0.003005092)
(0.9157542 -0.08329915 0.004688346)
(0.6856433 0.000234923 0.0002175014)
(1.598983 -0.0008444626 -0.001190273)
(2.102866 0.001957462 0.0008129295)
(2.572406 -0.002422112 -0.003581939)
(2.47426 0.006468864 -0.001811918)
(2.864837 -0.02381366 0.002779109)
(1.93275 -0.1926952 0.07326893)
(0.9022622 -0.0002004534 -0.0002712453)
(2.130761 0.0005134127 0.0001119817)
(3.011101 -0.000832773 -0.002267507)
(3.430254 0.002578072 -0.0006927457)
(3.856618 -0.001697604 -0.004306458)
(3.523568 0.008339857 -0.004905294)
(3.803369 -0.0259642 0.01510505)
(2.275708 -0.1892063 0.1485766)
(1.016173 3.847209e-05 5.73961e-06)
(2.490309 -0.0001960512 -0.0008675815)
(3.466505 0.0005359957 -0.0007083972)
(4.157619 -0.0003652848 -0.003262934)
(4.356892 0.002292747 -0.002924532)
(4.578096 -0.0004577882 -0.004460933)
(3.933525 0.006322138 -0.008102646)
(3.889644 -0.01879842 0.02261274)
(2.049655 -0.1106035 0.1532732)
(1.074639 -2.195119e-05 -0.0001629449)
(2.634072 4.884316e-05 -0.00031481)
(3.737039 -4.477194e-05 -0.001772109)
(4.391443 0.0002694453 -0.00198861)
(4.803719 -8.639462e-06 -0.00408999)
(4.7119 0.001000822 -0.00514461)
(4.630472 5.584243e-05 -0.004112961)
(3.643273 0.002304371 -0.01037123)
(3.13219 -0.005285169 0.01758722)
(1.161348 -0.02280318 0.03661762)
(1.071909 7.434608e-06 -7.486667e-05)
(2.639348 2.324275e-05 -0.0006390288)
(3.717047 -9.191599e-05 -0.001086324)
(4.424888 -9.5019e-06 -0.00268839)
(4.734997 -0.0003685324 -0.003346461)
(4.835475 -0.0001348691 -0.004643283)
(4.435984 -0.001166666 -0.006866879)
(4.007431 -0.0001920139 -0.003313013)
(2.699344 -0.002127777 -0.01039087)
(1.585246 0.002076911 -0.005349782)
(0.004738188 9.933146e-05 -0.004415971)
(1.016336 2.412406e-05 -9.47294e-05)
(2.47538 -4.955513e-06 -0.0004500487)
(3.482353 4.094835e-06 -0.001356546)
(4.105182 -0.0003989172 -0.002018999)
(4.441991 -0.0002363017 -0.003475242)
(4.437322 -0.001364919 -0.004583777)
(4.247484 -0.0008234221 -0.004988046)
(3.576723 -0.003637479 -0.007861517)
(2.805571 -0.0007075912 -0.002966966)
(1.251152 -0.003479715 -0.01007165)
(0.006125685 1.67345e-05 -0.004042301)
(0.0006497803 -0.0003177304 -0.007032444)
(0.8952936 2.956794e-05 -6.555232e-05)
(2.137802 1.004393e-05 -0.0003871733)
(2.968731 -9.270196e-05 -0.001007205)
(3.489727 -0.0001213817 -0.001979611)
(3.738954 -0.0007841559 -0.00284377)
(3.782575 -0.0007042681 -0.004084157)
(3.546559 -0.002519438 -0.005688493)
(3.140762 -0.001976432 -0.005407802)
(2.293617 -0.005470452 -0.008331541)
(1.228134 -0.001137647 -0.009027325)
(0.004439271 -4.638797e-05 -0.004279935)
(0.0007957499 -0.001012118 -0.006879794)
(0.000610283 -0.001424131 -0.00760856)
(0.6877165 3.546284e-05 -4.940359e-05)
(1.571804 2.280477e-06 -0.0002434238)
(2.139949 -4.67087e-05 -0.0006941567)
(2.482856 -0.0001845212 -0.001325809)
(2.656552 -0.0002615877 -0.00221802)
(2.666805 -0.001005679 -0.003295216)
(2.546285 -0.001200075 -0.00451892)
(2.218981 -0.003253819 -0.006697519)
(1.735782 -0.002967618 -0.007420383)
(0.8746205 -0.005065464 -0.01638242)
(0.003979484 -9.171934e-05 -0.005644555)
(0.0005533809 -0.001824693 -0.00866288)
(0.0007336161 -0.002500016 -0.007646278)
(0.0005749711 -0.003197491 -0.004789462)
(0.3352118 1.88386e-05 -1.152642e-05)
(0.6879302 3.388775e-05 -8.848714e-05)
(0.8963638 2.49072e-05 -0.0002518012)
(1.019338 2.670876e-05 -0.0005239786)
(1.078342 -3.705018e-05 -0.000916784)