/*--------------------------------*- C++ -*----------------------------------*\
| =========                 |                                                 |
| \\      /  F ield         | OpenFOAM: The Open Source CFD Toolbox           |
|  \\    /   O peration     | Version:  2306                                  |
|   \\  /    A nd           | Website:  www.openfoam.com                      |
|    \\/     M anipulation  |                                                 |
\*---------------------------------------------------------------------------*/
FoamFile
{
    version     2.0;
    format      ascii;
    arch        "LSB;label=32;scalar=64";
    class       volScalarField;
    location    "0.9/air";
    object      X.N2;
}
// * * * * * * * * * * * * * * * * * * * * * * * * * * * * * * * * * * * * * //

dimensions      [0 0 0 0 0 0 0];

internalField   nonuniform List<scalar> 
16000
(
0.7930311
0.7930252
0.7942793
0.7930683
0.793017
0.7941901
0.7930586
0.796611
0.7943967
0.7931571
0.7930093
0.7940732
0.7930473
0.7965054
0.7942779
0.7931369
0.7990287
0.7967493
0.7946992
0.7933279
0.7930046
0.7939735
0.793037
0.796361
0.7941292
0.7931152
0.7989234
0.7966122
0.7945421
0.7932867
0.8013843
0.799169
0.7970936
0.7952499
0.7936395
0.7930046
0.7939176
0.7930308
0.7962329
0.7940066
0.7930988
0.7987788
0.7964326
0.7943464
0.793242
0.8012832
0.799033
0.7969192
0.7950556
0.7935645
0.8036333
0.8015188
0.7995159
0.7977029
0.7961025
0.7941895
0.8293416
0.7930093
0.7939176
0.7930308
0.7961592
0.7939392
0.7930893
0.79865
0.7962773
0.794185
0.7932092
0.8011446
0.7988543
0.7966939
0.7948087
0.7934794
0.8035377
0.8013885
0.7993451
0.797495
0.795877
0.7940811
0.8057696
0.803761
0.801851
0.8001253
0.7986247
0.7972965
0.7950846
0.8281062
0.8308158
0.829537
0.793017
0.7939735
0.793037
0.7961592
0.7939392
0.7930893
0.7985757
0.7961892
0.7940972
0.7931921
0.8010213
0.7986991
0.796501
0.7946022
0.7934139
0.8034067
0.8012177
0.7991238
0.7972255
0.7955823
0.7939403
0.8056792
0.803638
0.8016883
0.7999251
0.7983894
0.7970356
0.7949372
0.8078006
0.8058903
0.8040763
0.8024329
0.8010384
0.7998947
0.7988889
0.7964683
0.8256093
0.8297107
0.8283062
0.8313434
0.8309941
0.829927
0.7930252
0.7940732
0.7930473
0.7962329
0.7940066
0.7930988
0.7985757
0.7961892
0.7940972
0.7931921
0.8009502
0.7986106
0.7963922
0.794488
0.7933791
0.8032902
0.8010694
0.7989335
0.7969946
0.7953313
0.793821
0.8055552
0.8034766
0.8014778
0.7996652
0.7980815
0.7966961
0.7947345
0.8077148
0.8057739
0.8039228
0.8022436
0.8008165
0.7996359
0.7985841
0.7962488
0.8097364
0.8079151
0.8061884
0.8046283
0.8033019
0.802282
0.8015397
0.8009394
0.7985605
0.8217565
0.8274826
0.8258253
0.8303189
0.8298925
0.8287042
0.8317193
0.8315076
0.8313503
0.8305103
0.7930311
0.7941901
0.7930586
0.796361
0.7941292
0.7931152
0.79865
0.7962773
0.794185
0.7932092
0.8009502
0.7986106
0.7963922
0.794488
0.7933791
0.8032229
0.8009849
0.7988258
0.7968643
0.7951907
0.7937543
0.805445
0.8033365
0.8012971
0.7994415
0.7978162
0.796406
0.7945572
0.8075974
0.8056212
0.8037243
0.8019982
0.8005258
0.7992936
0.7981859
0.7959474
0.8096548
0.8078047
0.8060431
0.8044499
0.8030935
0.8020433
0.8012527
0.8005613
0.7981503
0.8115867
0.8098452
0.8081978
0.8067101
0.8054516
0.8044807
0.8038719
0.8035854
0.8035272
0.8017694
0.8161819
0.8240605
0.822033
0.8282541
0.8276771
0.82625
0.8307632
0.8304861
0.8302547
0.8292974
0.8321435
0.8318723
0.8318355
0.8318832
0.8312856
0.7942793
0.7930683
0.7965054
0.7942779
0.7931369
0.7987788
0.7964326
0.7943464
0.793242
0.8010213
0.7986991
0.796501
0.7946022
0.7934139
0.8032229
0.8009849
0.7988258
0.7968643
0.7951907
0.7937543
0.8053814
0.8032567
0.8011949
0.7993149
0.7976662
0.7962428
0.7944562
0.8074929
0.8054887
0.8035539
0.8017875
0.8002744
0.798997
0.7978453
0.7956884
0.809543
0.80766
0.8058554
0.8042189
0.8028212
0.8017268
0.8008704
0.8000738
0.7976545
0.8115089
0.8097401
0.80806
0.8065413
0.8052556
0.8042578
0.8036115
0.8032411
0.8029761
0.8007884
0.8133605
0.8116906
0.810114
0.8086928
0.8074884
0.8065672
0.8059821
0.8058226
0.8060794
0.8068137
0.8070833
0.81915
0.8167531
0.8250849
0.8243045
0.8225478
0.8288366
0.8284325
0.82806
0.8268733
0.8312447
0.8309188
0.8308192
0.8307948
0.8300827
0.832685
0.8322872
0.8321777
0.8323263
0.8325919
0.8324029
0.796611
0.7943967
0.7931571
0.7989234
0.7966122
0.7945421
0.7932867
0.8011446
0.7988543
0.7966939
0.7948087
0.7934794
0.8032902
0.8010694
0.7989335
0.7969946
0.7953313
0.793821
0.8053814
0.8032567
0.8011949
0.7993149
0.7976662
0.7962428
0.7944562
0.8074327
0.8054134
0.8034575
0.8016683
0.8001316
0.7988288
0.7976534
0.7955428
0.8094437
0.8075344
0.8056944
0.8040206
0.8025862
0.8014514
0.8005385
0.7996627
0.797263
0.8114023
0.8096024
0.8078821
0.806323
0.8049997
0.8039632
0.8032633
0.8027895
0.8023232
0.7999103
0.8132861
0.8115903
0.8099828
0.8085327
0.8073029
0.8063578
0.8057396
0.8055112
0.8055798
0.8057694
0.8042627
0.8150647
0.8134598
0.811947
0.8105848
0.8094314
0.8085431
0.8079866
0.8078187
0.8081724
0.8091583
0.811263
0.8097345
0.8205423
0.8196404
0.8176044
0.8258808
0.8253083
0.8247605
0.8232611
0.8294339
0.8290025
0.8287839
0.828623
0.8276857
0.831836
0.8313909
0.8312289
0.831316
0.8315103
0.8312104
0.8333104
0.8328207
0.8325741
0.8326349
0.8329789
0.8336137
0.8326332
0.7990287
0.7967493
0.7946992
0.7933279
0.8012832
0.799033
0.7969192
0.7950556
0.7935645
0.8034067
0.8012177
0.7991238
0.7972255
0.7955823
0.7939403
0.805445
0.8033365
0.8012971
0.7994415
0.7978162
0.796406
0.7945572
0.8074327
0.8054134
0.8034575
0.8016683
0.8001316
0.7988288
0.7976534
0.7955428
0.8093864
0.807463
0.8056033
0.8039085
0.802453
0.8012946
0.8003505
0.7994334
0.7970532
0.8113075
0.8094831
0.8077294
0.8061357
0.804779
0.8037074
0.8029597
0.8024041
0.801802
0.7993122
0.8131841
0.8114589
0.8098135
0.8083255
0.8070609
0.8060812
0.8054163
0.8051012
0.8049824
0.8047963
0.8027681
0.8149933
0.8133639
0.8118218
0.8104322
0.8092552
0.8083447
0.8077587
0.8075281
0.8077153
0.8081997
0.8086605
0.8064193
0.8167056
0.8151599
0.8137051
0.8123963
0.8112875
0.8104329
0.8098855
0.8097211
0.8100267
0.8110479
0.813258
0.8134976
0.8117957
0.8216468
0.8209918
0.820376
0.8185945
0.8266563
0.8260883
0.8257259
0.8253952
0.8241428
0.8301256
0.8295895
0.8293293
0.8293006
0.8293581
0.8288366
0.8325046
0.831974
0.831682
0.8316914
0.8319743
0.8325388
0.8314428
0.834006
0.8334392
0.8330918
0.8330036
0.833243
0.8339202
0.8338243
0.8328654
0.8013843
0.799169
0.7970936
0.7952499
0.7936395
0.8035377
0.8013885
0.7993451
0.797495
0.795877
0.7940811
0.8055552
0.8034766
0.8014778
0.7996652
0.7980815
0.7966961
0.7947345
0.8074929
0.8054887
0.8035539
0.8017875
0.8002744
0.798997
0.7978453
0.7956884
0.8093864
0.807463
0.8056033
0.8039085
0.802453
0.8012946
0.8003505
0.7994334
0.7970532
0.8112529
0.8094151
0.8076431
0.8060298
0.804654
0.8035621
0.802787
0.8021882
0.8015199
0.7990138
0.8130933
0.811345
0.8096682
0.8081478
0.8068524
0.8058413
0.8051352
0.80475
0.8045022
0.8041054
0.8019036
0.8148955
0.8132382
0.8116602
0.8102349
0.8090255
0.808083
0.807455
0.8071467
0.8071681
0.8073052
0.8071859
0.804607
0.8166369
0.8150679
0.8135853
0.8122506
0.8111194
0.8102442
0.8096692
0.8094476
0.8095985
0.8101596
0.8108527
0.8104763
0.8083295
0.8182883
0.816797
0.8153952
0.814135
0.8130671
0.8122407
0.811708
0.811527
0.811805
0.8127266
0.8148623
0.8153137
0.8152456
0.813482
0.8226786
0.822064
0.8216653
0.8212382
0.8196558
0.8275024
0.8268507
0.8264759
0.8263069
0.8261834
0.8253375
0.8308814
0.8302725
0.8298961
0.8298097
0.8299755
0.8304015
0.8290737
0.8332386
0.8326356
0.832249
0.8321164
0.8323044
0.8329207
0.8327507
0.8316771
0.8347476
0.8341288
0.8336966
0.8334977
0.833575
0.8341202
0.8341142
0.8340366
0.8330996
0.8036333
0.8015188
0.7995159
0.7977029
0.7961025
0.7941895
0.8056792
0.803638
0.8016883
0.7999251
0.7983894
0.7970356
0.7949372
0.8075974
0.8056212
0.8037243
0.8019982
0.8005258
0.7992936
0.7981859
0.7959474
0.8094437
0.8075344
0.8056944
0.8040206
0.8025862
0.8014514
0.8005385
0.7996627
0.797263
0.8112529
0.8094151
0.8076431
0.8060298
0.804654
0.8035621
0.802787
0.8021882
0.8015199
0.7990138
0.8130411
0.8112802
0.8095862
0.8080475
0.8067344
0.8057049
0.8049756
0.8045527
0.8042417
0.8037518
0.8014991
0.8148085
0.8131292
0.8115216
0.8100658
0.8088276
0.8078561
0.8071911
0.8068209
0.8067278
0.8066685
0.8062897
0.8035855
0.8165429
0.8149473
0.8134305
0.8120622
0.8109005
0.8099953
0.8093814
0.8090886
0.8090873
0.8093318
0.8094888
0.8087405
0.806311
0.8182222
0.8167086
0.8152802
0.8139953
0.8129065
0.8120604
0.8115021
0.8112671
0.811401
0.8118924
0.8126225
0.8125175
0.8120929
0.8100024
0.8198176
0.8183764
0.8170231
0.8158074
0.814777
0.8139776
0.8134552
0.8132682
0.8135009
0.8143525
0.8163067
0.8167736
0.8169177
0.8166864
0.8149056
0.8237467
0.8230697
0.8226889
0.8224534
0.8221698
0.8209325
0.8283921
0.8276858
0.8272141
0.8270154
0.8270283
0.8272558
0.8255831
0.8316928
0.8310208
0.8305619
0.830347
0.8304374
0.8309335
0.8306164
0.8293125
0.8340146
0.8333634
0.8328966
0.8326594
0.8326921
0.8331858
0.8331157
0.8329644
0.8319134
0.8355236
0.8348649
0.8343739
0.8340819
0.8340377
0.8343992
0.8343009
0.8343099
0.8342508
0.8333357
0.8057696
0.803761
0.801851
0.8001253
0.7986247
0.7972965
0.7950846
0.8077148
0.8057739
0.8039228
0.8022436
0.8008165
0.7996359
0.7985841
0.7962488
0.809543
0.80766
0.8058554
0.8042189
0.8028212
0.8017268
0.8008704
0.8000738
0.7976545
0.8113075
0.8094831
0.8077294
0.8061357
0.804779
0.8037074
0.8029597
0.8024041
0.801802
0.7993122
0.8130411
0.8112802
0.8095862
0.8080475
0.8067344
0.8057049
0.8049756
0.8045527
0.8042417
0.8037518
0.8014991
0.8147584
0.8130672
0.8114432
0.8099703
0.8087155
0.8077273
0.8070412
0.8066382
0.8064886
0.8063422
0.8058576
0.8031164
0.8164593
0.8148428
0.8132979
0.8119007
0.8107119
0.8097797
0.8091315
0.808782
0.8086769
0.808743
0.8086589
0.8077198
0.8051699
0.8181317
0.8165927
0.8151317
0.8138149
0.8126972
0.8118229
0.811228
0.8109262
0.8109186
0.8111162
0.8113541
0.8109091
0.8101851
0.8078668
0.8197538
0.8182912
0.8169125
0.8156734
0.814623
0.8138051
0.8132582
0.8130204
0.8131168
0.8135645
0.8142022
0.8141677
0.8139963
0.813516
0.8114547
0.8212973
0.8199024
0.818594
0.8174192
0.8164233
0.8156486
0.8151382
0.8149423
0.8151454
0.815916
0.8177309
0.8180999
0.8182632
0.8182359
0.8179133
0.8163105
0.8248285
0.8241154
0.8236552
0.82342
0.823304
0.8232997
0.8211938
0.8293224
0.828566
0.8280286
0.8277198
0.8276852
0.8280098
0.8274763
0.8258302
0.8325379
0.8318255
0.8312954
0.8309876
0.830936
0.8313285
0.8311309
0.8308329
0.8295533
0.8348216
0.8341338
0.833612
0.8332861
0.8332033
0.8335199
0.8333674
0.8333123
0.8331798
0.8321516
0.8363221
0.835636
0.8350992
0.834741
0.8345945
0.8348166
0.834569
0.8344832
0.8345071
0.8344667
0.8336239
0.8078006
0.8058903
0.8040763
0.8024329
0.8010384
0.7998947
0.7988889
0.7964683
0.8096548
0.8078047
0.8060431
0.8044499
0.8030935
0.8020433
0.8012527
0.8005613
0.7981503
0.8114023
0.8096024
0.8078821
0.806323
0.8049997
0.8039632
0.8032633
0.8027895
0.8023232
0.7999103
0.8130933
0.811345
0.8096682
0.8081478
0.8068524
0.8058413
0.8051352
0.80475
0.8045022
0.8041054
0.8019036
0.8147584
0.8130672
0.8114432
0.8099703
0.8087155
0.8077273
0.8070412
0.8066382
0.8064886
0.8063422
0.8058576
0.8031164
0.8164111
0.8147833
0.8132229
0.8118095
0.8106051
0.8096572
0.8089897
0.80861
0.8084544
0.8084413
0.8082583
0.8072381
0.8046495
0.8180512
0.8164922
0.8150044
0.8136602
0.8125169
0.8116172
0.8109901
0.8106355
0.8105315
0.810565
0.8105828
0.8099619
0.8090674
0.8066466
0.8196665
0.8181796
0.8167698
0.8155002
0.8144223
0.8135778
0.8129963
0.8126955
0.8126585
0.8128311
0.8130108
0.8126695
0.8122257
0.8115073
0.809269
0.8212357
0.8198203
0.8184875
0.8172903
0.8162753
0.8154831
0.8149494
0.8147051
0.8147791
0.8151674
0.8157429
0.8156509
0.815539
0.8152943
0.814758
0.8128959
0.822731
0.8213793
0.8201123
0.8189755
0.8180113
0.8172598
0.8167604
0.8165602
0.8167331
0.8174435
0.8191204
0.8194227
0.8194967
0.8194861
0.8193547
0.819136
0.8165956
0.8259292
0.8251779
0.8246675
0.8243401
0.8242085
0.824334
0.823531
0.8214554
0.8302735
0.8294879
0.828891
0.8285057
0.8283478
0.8285966
0.8282116
0.8276982
0.8260788
0.8334074
0.8326646
0.832087
0.8316992
0.8315438
0.8317723
0.8315121
0.8313297
0.8310512
0.8297958
0.8356482
0.8349357
0.8343712
0.8339829
0.8338023
0.8339854
0.8336904
0.8335505
0.8335106
0.833397
0.8324421
0.8371358
0.8364299
0.8358604
0.8354499
0.8352294
0.835334
0.8349771
0.8347403
0.8346671
0.8347061
0.8347302
0.8339186
0.8097364
0.8079151
0.8061884
0.8046283
0.8033019
0.802282
0.8015397
0.8009394
0.7985605
0.8115089
0.8097401
0.80806
0.8065413
0.8052556
0.8042578
0.8036115
0.8032411
0.8029761
0.8007884
0.8131841
0.8114589
0.8098135
0.8083255
0.8070609
0.8060812
0.8054163
0.8051012
0.8049824
0.8047963
0.8027681
0.8148085
0.8131292
0.8115216
0.8100658
0.8088276
0.8078561
0.8071911
0.8068209
0.8067278
0.8066685
0.8062897
0.8035855
0.8164111
0.8147833
0.8132229
0.8118095
0.8106051
0.8096572
0.8089897
0.80861
0.8084544
0.8084413
0.8082583
0.8072381
0.8046495
0.8180048
0.8164351
0.8149325
0.8135729
0.8124149
0.8115004
0.8108551
0.8104725
0.8103215
0.8102829
0.8102108
0.8095145
0.808545
0.8060907
0.8195889
0.8180829
0.8166474
0.8153517
0.8142495
0.8133809
0.812769
0.8124183
0.8122909
0.8123104
0.8122871
0.8117878
0.8111868
0.8103231
0.8080094
0.8211514
0.8197127
0.81835
0.8171238
0.8160826
0.815265
0.8146984
0.8143942
0.8143421
0.8144707
0.8146171
0.814243
0.8138881
0.8134273
0.8127012
0.8107134
0.8226714
0.8212999
0.8200095
0.8188512
0.8178689
0.8171006
0.816579
0.8163326
0.8163826
0.81673
0.817233
0.8171091
0.8169359
0.8167413
0.816423
0.8159969
0.8131883
0.8241219
0.8228103
0.8215819
0.8204802
0.8195457
0.8188157
0.8183272
0.8181232
0.8182734
0.818927
0.820494
0.820725
0.8207401
0.8206426
0.8205226
0.8204651
0.8193843
0.8168788
0.8270323
0.8262616
0.8257012
0.8253132
0.8250786
0.825163
0.8245448
0.8237627
0.8217174
0.8312389
0.8304315
0.8297972
0.8293434
0.8290982
0.8292022
0.828784
0.8284147
0.8279214
0.8263288
0.8342908
0.8335287
0.8329143
0.8324715
0.8322269
0.8323335
0.8319445
0.831697
0.8315301
0.8312711
0.8300916
0.8364877
0.8357578
0.8351632
0.8347256
0.8344747
0.8345447
0.8341466
0.8338624
0.8337351
0.8337105
0.8336621
0.8327394
0.8379591
0.8372395
0.8366453
0.8361963
0.8359166
0.8359339
0.8354864
0.835139
0.834913
0.8348524
0.8349488
0.8349996
0.8341427
0.8115867
0.8098452
0.8081978
0.8067101
0.8054516
0.8044807
0.8038719
0.8035854
0.8035272
0.8017694
0.8132861
0.8115903
0.8099828
0.8085327
0.8073029
0.8063578
0.8057396
0.8055112
0.8055798
0.8057694
0.8042627
0.8148955
0.8132382
0.8116602
0.8102349
0.8090255
0.808083
0.807455
0.8071467
0.8071681
0.8073052
0.8071859
0.804607
0.8164593
0.8148428
0.8132979
0.8119007
0.8107119
0.8097797
0.8091315
0.808782
0.8086769
0.808743
0.8086589
0.8077198
0.8051699
0.8180048
0.8164351
0.8149325
0.8135729
0.8124149
0.8115004
0.8108551
0.8104725
0.8103215
0.8102829
0.8102108
0.8095145
0.808545
0.8060907
0.8195441
0.8180278
0.8165783
0.8152679
0.8141518
0.8132691
0.8126401
0.812263
0.8120917
0.8120439
0.8119382
0.8113714
0.8107007
0.8097714
0.8074352
0.8210764
0.8196194
0.8182322
0.816981
0.8159167
0.8150761
0.8144807
0.8141292
0.8139915
0.8139762
0.8139331
0.8134149
0.8129198
0.8123249
0.8114808
0.8094525
0.8225899
0.8211959
0.819877
0.8186908
0.8176834
0.816891
0.816338
0.8160346
0.8159644
0.8160657
0.8161638
0.8157786
0.815384
0.8149991
0.8145083
0.8139319
0.811007
0.8240642
0.8227335
0.8214827
0.8203604
0.8194084
0.8186624
0.8181527
0.8179045
0.8179373
0.8182447
0.8186959
0.8185284
0.8183206
0.8180618
0.8177854
0.8175432
0.8162483
0.8134788
0.8254726
0.8241986
0.8230063
0.8219373
0.8210303
0.8203206
0.8198425
0.8196363
0.8197662
0.8203734
0.8218404
0.8220213
0.821974
0.8218205
0.8216131
0.8215496
0.8206904
0.819631
0.8171602
0.8281351
0.8273496
0.8267595
0.8263132
0.8260095
0.8259723
0.8253583
0.824756
0.8239948
0.8219798
0.8322095
0.8313901
0.8307268
0.8302277
0.8299052
0.8299044
0.8293778
0.8289726
0.828619
0.828146
0.8266332
0.8351824
0.8344073
0.8337678
0.8332815
0.8329739
0.8329761
0.8324962
0.8321181
0.8318834
0.831732
0.8315393
0.8303942
0.8373348
0.8365931
0.8359761
0.8355026
0.8351955
0.8351818
0.8346976
0.8343091
0.8340358
0.8339213
0.8339543
0.833933
0.8329654
0.838788
0.838059
0.8374467
0.8369678
0.8366433
0.8365897
0.836079
0.83564
0.8353022
0.8350872
0.8350786
0.8351968
0.8352042
0.8342947
0.8133605
0.8116906
0.810114
0.8086928
0.8074884
0.8065672
0.8059821
0.8058226
0.8060794
0.8068137
0.8070833
0.8149933
0.8133639
0.8118218
0.8104322
0.8092552
0.8083447
0.8077587
0.8075281
0.8077153
0.8081997
0.8086605
0.8064193
0.8165429
0.8149473
0.8134305
0.8120622
0.8109005
0.8099953
0.8093814
0.8090886
0.8090873
0.8093318
0.8094888
0.8087405
0.806311
0.8180512
0.8164922
0.8150044
0.8136602
0.8125169
0.8116172
0.8109901
0.8106355
0.8105315
0.810565
0.8105828
0.8099619
0.8090674
0.8066466
0.8195441
0.8180278
0.8165783
0.8152679
0.8141518
0.8132691
0.8126401
0.812263
0.8120917
0.8120439
0.8119382
0.8113714
0.8107007
0.8097714
0.8074352
0.8210332
0.8195663
0.8181656
0.8169004
0.8158228
0.8149689
0.8143572
0.8139808
0.8138015
0.8137231
0.8136034
0.8130241
0.8124668
0.8118106
0.8109124
0.8088774
0.8225173
0.8211058
0.8197633
0.8185532
0.8175238
0.8167094
0.8161289
0.8157805
0.8156291
0.8155942
0.8155143
0.8149959
0.814474
0.8139706
0.8133703
0.8127033
0.8097461
0.8239852
0.8226329
0.8213546
0.8202055
0.8192296
0.8184604
0.8179207
0.8176181
0.8175362
0.8176094
0.8176768
0.8172649
0.8168539
0.8164236
0.8159974
0.815617
0.814182
0.8112992
0.8254167
0.8241243
0.8229102
0.8218215
0.8208977
0.8201727
0.8196742
0.8194257
0.8194431
0.8197194
0.8201219
0.8199287
0.8196769
0.8193818
0.8190387
0.8188196
0.8177705
0.8164981
0.8137674
0.826786
0.8255471
0.8243885
0.8233501
0.8224688
0.821778
0.8213101
0.8211023
0.8212151
0.821781
0.823163
0.8232988
0.8232099
0.8229981
0.8227352
0.8225737
0.821758
0.8209144
0.8198762
0.8174398
0.8292305
0.8284388
0.8278248
0.8273418
0.8269732
0.8268521
0.8261552
0.825554
0.8249675
0.8242272
0.8222977
0.8331808
0.8323546
0.8316728
0.8311378
0.8307624
0.8306696
0.8300702
0.8295546
0.8291623
0.8288246
0.8284195
0.8269447
0.8360772
0.8352943
0.8346367
0.8341194
0.8337614
0.8336874
0.8331304
0.8326601
0.8322931
0.8320713
0.8319783
0.8318135
0.8306244
0.8381856
0.8374363
0.8368031
0.8363019
0.8359526
0.835871
0.8353275
0.8348518
0.8344729
0.8342106
0.8341484
0.8342035
0.8341389
0.8331188
0.8396194
0.8388844
0.8382586
0.8377568
0.837397
0.8372881
0.8367284
0.8362254
0.835795
0.8354668
0.8352997
0.8353097
0.8353852
0.8353429
0.8343723
0.8161819
0.8150647
0.8134598
0.811947
0.8105848
0.8094314
0.8085431
0.8079866
0.8078187
0.8081724
0.8091583
0.811263
0.8097345
0.8166369
0.8150679
0.8135853
0.8122506
0.8111194
0.8102442
0.8096692
0.8094476
0.8095985
0.8101596
0.8108527
0.8104763
0.8083295
0.8181317
0.8165927
0.8151317
0.8138149
0.8126972
0.8118229
0.811228
0.8109262
0.8109186
0.8111162
0.8113541
0.8109091
0.8101851
0.8078668
0.8195889
0.8180829
0.8166474
0.8153517
0.8142495
0.8133809
0.812769
0.8124183
0.8122909
0.8123104
0.8122871
0.8117878
0.8111868
0.8103231
0.8080094
0.8210332
0.8195663
0.8181656
0.8169004
0.8158228
0.8149689
0.8143572
0.8139808
0.8138015
0.8137231
0.8136034
0.8130241
0.8124668
0.8118106
0.8109124
0.8088774
0.8224756
0.8210546
0.8196991
0.8184756
0.8174334
0.8166064
0.8160104
0.8156381
0.8154474
0.8153529
0.8152011
0.8146265
0.8140484
0.8134908
0.8128395
0.8121309
0.8091711
0.8239149
0.8225458
0.8212448
0.8200728
0.8190757
0.8182856
0.8177196
0.8173739
0.8172147
0.8171585
0.8170576
0.8165215
0.8159937
0.8154565
0.8149347
0.8144687
0.8129521
0.8100387
0.8253401
0.8240269
0.8227863
0.8216718
0.8207251
0.8199779
0.8194507
0.8191499
0.8190577
0.8191104
0.8191477
0.8187245
0.818284
0.8178333
0.8173569
0.8170194
0.8158423
0.8144309
0.8115899
0.8267317
0.825475
0.8242954
0.8232379
0.8223406
0.8216351
0.8211476
0.8208992
0.820904
0.8211528
0.8215166
0.8212991
0.8210215
0.8206826
0.8203022
0.8200052
0.8190294
0.8179963
0.8167464
0.8140541
0.8280641
0.8268582
0.8257311
0.8247214
0.8238642
0.8231913
0.822733
0.8225245
0.8226223
0.8231521
0.8244581
0.8245594
0.8244337
0.8241842
0.8238648
0.8236403
0.8227686
0.8219651
0.8211369
0.82012
0.817776
0.8303161
0.8295218
0.8288936
0.8283806
0.8279696
0.8277716
0.8270245
0.8263384
0.82575
0.8251793
0.824509
0.8226232
0.8341491
0.8333203
0.8326258
0.8320663
0.8316484
0.83149
0.8308268
0.8302369
0.8297324
0.8293532
0.8290748
0.8286991
0.8271817
0.8369722
0.8361851
0.8355149
0.8349742
0.834579
0.8344428
0.8338343
0.8332859
0.8328253
0.8324693
0.8323003
0.83223
0.8320219
0.8307806
0.8390373
0.8382836
0.8376386
0.8371164
0.8367338
0.8365996
0.8360102
0.8354744
0.8350073
0.8346381
0.8344239
0.8343804
0.8343928
0.8342784
0.8331971
0.8404509
0.8397125
0.839077
0.8385575
0.8381696
0.8380159
0.837421
0.8368683
0.8363731
0.8359513
0.8356677
0.8355167
0.835485
0.8355127
0.8354137
0.8217565
0.81915
0.8167531
0.8167056
0.8151599
0.8137051
0.8123963
0.8112875
0.8104329
0.8098855
0.8097211
0.8100267
0.8110479
0.813258
0.8134976
0.8117957
0.8182222
0.8167086
0.8152802
0.8139953
0.8129065
0.8120604
0.8115021
0.8112671
0.811401
0.8118924
0.8126225
0.8125175
0.8120929
0.8100024
0.8196665
0.8181796
0.8167698
0.8155002
0.8144223
0.8135778
0.8129963
0.8126955
0.8126585
0.8128311
0.8130108
0.8126695
0.8122257
0.8115073
0.809269
0.8210764
0.8196194
0.8182322
0.816981
0.8159167
0.8150761
0.8144807
0.8141292
0.8139915
0.8139762
0.8139331
0.8134149
0.8129198
0.8123249
0.8114808
0.8094525
0.8224756
0.8210546
0.8196991
0.8184756
0.8174334
0.8166064
0.8160104
0.8156381
0.8154474
0.8153529
0.8152011
0.8146265
0.8140484
0.8134908
0.8128395
0.8121309
0.8091711
0.8238745
0.8224962
0.8211828
0.8199979
0.8189886
0.8181864
0.8176055
0.8172372
0.8170404
0.8169277
0.8167591
0.8161707
0.8155914
0.8150055
0.8144391
0.813933
0.812379
0.8094639
0.825272
0.8239425
0.8226801
0.8215436
0.8205766
0.8198092
0.8192568
0.8189148
0.8187487
0.8186781
0.8185556
0.818016
0.817467
0.8169191
0.8163573
0.8159461
0.8146922
0.8131999
0.8103303
0.8266574
0.8253805
0.8241754
0.8230931
0.8221737
0.8214469
0.8209318
0.8206332
0.8205329
0.8205677
0.820583
0.820148
0.8196941
0.819212
0.8187123
0.8183113
0.8172271
0.8160664
0.8146786
0.8118792
0.8280114
0.8267882
0.8256409
0.8246127
0.8237401
0.823053
0.822576
0.8223283
0.8223223
0.8225475
0.8228774
0.8226435
0.8223424
0.8219782
0.8215546
0.8212123
0.8202013
0.8192378
0.8182205
0.816993
0.8143988
0.8293093
0.8281343
0.8270369
0.8260539
0.8252194
0.8245633
0.8241144
0.8239056
0.8239904
0.8244878
0.8257264
0.8257981
0.8256458
0.8253638
0.8250088
0.8247221
0.8238239
0.8229623
0.8221709
0.821358
0.8204131
0.8181201
0.8313893
0.8305961
0.8299581
0.8294255
0.8289799
0.8287292
0.827935
0.8271972
0.8265219
0.8259463
0.8254361
0.8247973
0.8228708
0.8351118
0.8342834
0.833581
0.8330033
0.832555
0.832343
0.8316396
0.8309849
0.8304047
0.8299114
0.8295855
0.8293306
0.8289117
0.8273426
0.8378649
0.8370763
0.8363975
0.8358394
0.8354152
0.8352314
0.8345832
0.8339824
0.8334426
0.8329918
0.8326843
0.8325344
0.8324211
0.8321632
0.8308604
0.8398877
0.8391319
0.8384787
0.8379404
0.8375318
0.8373549
0.8367329
0.8361505
0.8356225
0.8351641
0.8348396
0.8346418
0.8345565
0.834521
0.8343496
0.8412809
0.840541
0.8398987
0.8393654
0.8389552
0.8387649
0.8381435
0.837555
0.8370094
0.8365219
0.8361419
0.8358728
0.8356814
0.8356037
0.8355777
0.8256093
0.8240605
0.822033
0.8205423
0.8196404
0.8176044
0.8182883
0.816797
0.8153952
0.814135
0.8130671
0.8122407
0.811708
0.811527
0.811805
0.8127266
0.8148623
0.8153137
0.8152456
0.813482
0.8197538
0.8182912
0.8169125
0.8156734
0.814623
0.8138051
0.8132582
0.8130204
0.8131168
0.8135645
0.8142022
0.8141677
0.8139963
0.813516
0.8114547
0.8211514
0.8197127
0.81835
0.8171238
0.8160826
0.815265
0.8146984
0.8143942
0.8143421
0.8144707
0.8146171
0.814243
0.8138881
0.8134273
0.8127012
0.8107134
0.8225173
0.8211058
0.8197633
0.8185532
0.8175238
0.8167094
0.8161289
0.8157805
0.8156291
0.8155942
0.8155143
0.8149959
0.814474
0.8139706
0.8133703
0.8127033
0.8097461
0.8238745
0.8224962
0.8211828
0.8199979
0.8189886
0.8181864
0.8176055
0.8172372
0.8170404
0.8169277
0.8167591
0.8161707
0.8155914
0.8150055
0.8144391
0.813933
0.812379
0.8094639
0.8252328
0.8238945
0.8226201
0.8214712
0.8204925
0.8197136
0.819147
0.8187832
0.8185813
0.8184568
0.8182702
0.8176815
0.8170849
0.8164927
0.8158913
0.8154454
0.8141555
0.8126263
0.8097558
0.8265913
0.8252987
0.8240725
0.822969
0.8220301
0.821284
0.8207448
0.8204066
0.8202354
0.8201523
0.8200155
0.8194706
0.8189154
0.8183436
0.8177673
0.8173014
0.8161519
0.8149148
0.8134468
0.8106208
0.8279391
0.8266966
0.8255245
0.8244724
0.8235785
0.822871
0.8223674
0.8220715
0.8219645
0.8219844
0.8219807
0.8215405
0.8210735
0.8205768
0.8200446
0.8196107
0.8185052
0.8174336
0.8162894
0.814925
0.8122277
0.829258
0.8280663
0.8269493
0.8259486
0.8250991
0.8244293
0.8239624
0.8237158
0.8237007
0.8239051
0.8242057
0.8239587
0.8236422
0.8232556
0.8228076
0.8224164
0.821397
0.8203961
0.8194448
0.8184433
0.8172895
0.8147517
0.8305233
0.8293776
0.8283079
0.8273503
0.8265369
0.8258967
0.8254566
0.825248
0.8253213
0.8257899
0.8269677
0.8270149
0.8268405
0.826536
0.8261508
0.8258241
0.8248961
0.8240064
0.8231548
0.8223753
0.8216239
0.820713
0.8183819
0.832449
0.8316589
0.8310154
0.8304684
0.8299991
0.8297048
0.8288846
0.8280986
0.8273702
0.8267057
0.8261842
0.8256987
0.8250164
0.8230389
0.8360672
0.8352413
0.8345344
0.8339439
0.8334722
0.8332199
0.8324858
0.8317901
0.831144
0.8305736
0.8301292
0.829823
0.8295249
0.8290558
0.8274249
0.8387533
0.8379654
0.8372813
0.8367101
0.8362635
0.8360413
0.8353658
0.8347246
0.8341316
0.8336005
0.8331948
0.8329039
0.832712
0.8325506
0.8322353
0.8407353
0.8399793
0.8393205
0.83877
0.8383406
0.838129
0.8374828
0.8368673
0.836292
0.8357718
0.8353554
0.8350454
0.8348071
0.8346757
0.8345863
0.8421081
0.8413682
0.8407211
0.8401773
0.8397492
0.8395287
0.8388876
0.8382721
0.8376901
0.8371516
0.8367036
0.8363366
0.8360283
0.8357928
0.8356642
0.8281062
0.8274826
0.8258253
0.8250849
0.8243045
0.8225478
0.8216468
0.8209918
0.820376
0.8185945
0.8198176
0.8183764
0.8170231
0.8158074
0.814777
0.8139776
0.8134552
0.8132682
0.8135009
0.8143525
0.8163067
0.8167736
0.8169177
0.8166864
0.8149056
0.8212357
0.8198203
0.8184875
0.8172903
0.8162753
0.8154831
0.8149494
0.8147051
0.8147791
0.8151674
0.8157429
0.8156509
0.815539
0.8152943
0.814758
0.8128959
0.8225899
0.8211959
0.819877
0.8186908
0.8176834
0.816891
0.816338
0.8160346
0.8159644
0.8160657
0.8161638
0.8157786
0.815384
0.8149991
0.8145083
0.8139319
0.811007
0.8239149
0.8225458
0.8212448
0.8200728
0.8190757
0.8182856
0.8177196
0.8173739
0.8172147
0.8171585
0.8170576
0.8165215
0.8159937
0.8154565
0.8149347
0.8144687
0.8129521
0.8100387
0.8252328
0.8238945
0.8226201
0.8214712
0.8204925
0.8197136
0.819147
0.8187832
0.8185813
0.8184568
0.8182702
0.8176815
0.8170849
0.8164927
0.8158913
0.8154454
0.8141555
0.8126263
0.8097558
0.8265532
0.8252521
0.8240144
0.822899
0.8219488
0.8211916
0.8206387
0.8202797
0.8200743
0.8199398
0.8197419
0.8191508
0.8185511
0.8179386
0.8173266
0.8168303
0.8156502
0.8143773
0.8128727
0.8100468
0.8278749
0.8266171
0.8254247
0.8243522
0.8234395
0.8227134
0.8221866
0.8218527
0.8216776
0.8215846
0.8214356
0.8208913
0.8203291
0.8197492
0.8191469
0.8186557
0.8174935
0.8163568
0.8151364
0.8136927
0.8109711
0.8291877
0.8279772
0.8268363
0.8258124
0.8249425
0.824253
0.8237605
0.8234675
0.823355
0.8233621
0.8233429
0.8228994
0.8224264
0.8219161
0.8213687
0.8208951
0.8197932
0.8186981
0.8176391
0.8165111
0.8152217
0.8125843
0.8304733
0.8293114
0.8282227
0.8272479
0.8264201
0.8257668
0.8253093
0.8250643
0.8250411
0.8252273
0.8255022
0.8252454
0.8249169
0.8245163
0.8240472
0.8236271
0.8225912
0.8215803
0.8205895
0.8196504
0.818711
0.8175928
0.8150201
0.8317082
0.8305897
0.8295464
0.8286124
0.8278191
0.8271938
0.8267624
0.8265541
0.8266172
0.8270598
0.8281826
0.8282088
0.828017
0.8276946
0.8272891
0.8269287
0.8259895
0.8250689
0.8241877
0.823346
0.8226212
0.8218958
0.8209409
0.8185596
0.8334943
0.8327091
0.8320628
0.8315059
0.8310186
0.8306928
0.8298532
0.8290403
0.8282625
0.8275435
0.8269285
0.8264274
0.8258981
0.825165
0.8231249
0.837014
0.8361923
0.8354835
0.8348839
0.8343947
0.8341101
0.8333566
0.8326295
0.8319415
0.8313041
0.8307791
0.8303517
0.8300033
0.8296566
0.8291294
0.8396364
0.8388506
0.8381634
0.8375828
0.8371186
0.8368655
0.8361703
0.8355012
0.8348671
0.834282
0.8337931
0.8334021
0.8330705
0.8328323
0.8326166
0.8415789
0.840824
0.8401617
0.8396019
0.8391561
0.838916
0.8382521
0.8376119
0.8370029
0.8364347
0.835954
0.8355507
0.8352015
0.834919
0.8347364
0.8429315
0.8421927
0.8415426
0.8409907
0.8405481
0.8403026
0.8396469
0.8390113
0.8384018
0.8378264
0.8373252
0.836889
0.8364842
0.8361335
0.8358495
0.8293416
0.8297107
0.8283062
0.8282541
0.8276771
0.82625
0.8258808
0.8253083
0.8247605
0.8232611
0.8226786
0.822064
0.8216653
0.8212382
0.8196558
0.8212973
0.8199024
0.818594
0.8174192
0.8164233
0.8156486
0.8151382
0.8149423
0.8151454
0.815916
0.8177309
0.8180999
0.8182632
0.8182359
0.8179133
0.8163105
0.8226714
0.8212999
0.8200095
0.8188512
0.8178689
0.8171006
0.816579
0.8163326
0.8163826
0.81673
0.817233
0.8171091
0.8169359
0.8167413
0.816423
0.8159969
0.8131883
0.8239852
0.8226329
0.8213546
0.8202055
0.8192296
0.8184604
0.8179207
0.8176181
0.8175362
0.8176094
0.8176768
0.8172649
0.8168539
0.8164236
0.8159974
0.815617
0.814182
0.8112992
0.825272
0.8239425
0.8226801
0.8215436
0.8205766
0.8198092
0.8192568
0.8189148
0.8187487
0.8186781
0.8185556
0.818016
0.817467
0.8169191
0.8163573
0.8159461
0.8146922
0.8131999
0.8103303
0.8265532
0.8252521
0.8240144
0.822899
0.8219488
0.8211916
0.8206387
0.8202797
0.8200743
0.8199398
0.8197419
0.8191508
0.8185511
0.8179386
0.8173266
0.8168303
0.8156502
0.8143773
0.8128727
0.8100468
0.8278379
0.8265719
0.8253684
0.8242844
0.8233608
0.8226241
0.8220841
0.8217302
0.8215222
0.82138
0.8211728
0.8205848
0.8199809
0.8193632
0.8187283
0.8182102
0.8170214
0.8158543
0.8145983
0.8131183
0.810398
0.8291253
0.8279
0.8267394
0.8256958
0.8248077
0.8241004