/*--------------------------------*- C++ -*----------------------------------*\
| =========                 |                                                 |
| \\      /  F ield         | OpenFOAM: The Open Source CFD Toolbox           |
|  \\    /   O peration     | Version:  2306                                  |
|   \\  /    A nd           | Website:  www.openfoam.com                      |
|    \\/     M anipulation  |                                                 |
\*---------------------------------------------------------------------------*/
FoamFile
{
    version     2.0;
    format      ascii;
    arch        "LSB;label=32;scalar=64";
    class       volScalarField;
    location    "0.9/air";
    object      X.O2;
}
// * * * * * * * * * * * * * * * * * * * * * * * * * * * * * * * * * * * * * //

dimensions      [0 0 0 0 0 0 0];

internalField   nonuniform List<scalar> 
16000
(
0.2069689
0.2069748
0.2057207
0.2069317
0.206983
0.2058099
0.2069414
0.203389
0.2056033
0.2068429
0.2069907
0.2059268
0.2069527
0.2034946
0.2057221
0.2068631
0.2009713
0.2032507
0.2053008
0.2066721
0.2069954
0.2060265
0.206963
0.203639
0.2058708
0.2068848
0.2010766
0.2033878
0.2054579
0.2067133
0.1986157
0.200831
0.2029064
0.2047501
0.2063605
0.2069954
0.2060824
0.2069692
0.2037671
0.2059934
0.2069012
0.2012212
0.2035674
0.2056536
0.206758
0.1987168
0.200967
0.2030808
0.2049444
0.2064355
0.1963667
0.1984812
0.2004841
0.2022971
0.2038975
0.2058105
0.1706584
0.2069907
0.2060824
0.2069692
0.2038408
0.2060608
0.2069107
0.20135
0.2037227
0.205815
0.2067908
0.1988554
0.2011457
0.2033061
0.2051913
0.2065206
0.1964623
0.1986115
0.2006549
0.202505
0.204123
0.2059189
0.1942304
0.196239
0.198149
0.1998747
0.2013753
0.2027035
0.2049154
0.1718938
0.1691842
0.170463
0.206983
0.2060265
0.206963
0.2038408
0.2060608
0.2069107
0.2014243
0.2038108
0.2059028
0.2068079
0.1989787
0.2013009
0.203499
0.2053978
0.2065861
0.1965933
0.1987823
0.2008762
0.2027745
0.2044177
0.2060597
0.1943208
0.196362
0.1983117
0.2000749
0.2016106
0.2029644
0.2050628
0.1921994
0.1941097
0.1959237
0.1975671
0.1989616
0.2001053
0.2011111
0.2035317
0.1743907
0.1702893
0.1716938
0.1686566
0.1690059
0.170073
0.2069748
0.2059268
0.2069527
0.2037671
0.2059934
0.2069012
0.2014243
0.2038108
0.2059028
0.2068079
0.1990498
0.2013894
0.2036078
0.205512
0.2066209
0.1967098
0.1989306
0.2010665
0.2030054
0.2046687
0.206179
0.1944448
0.1965234
0.1985222
0.2003348
0.2019185
0.2033039
0.2052655
0.1922852
0.1942261
0.1960772
0.1977564
0.1991835
0.2003641
0.2014159
0.2037512
0.1902636
0.1920849
0.1938116
0.1953717
0.1966981
0.197718
0.1984603
0.1990606
0.2014395
0.1782435
0.1725174
0.1741747
0.1696811
0.1701075
0.1712958
0.1682807
0.1684924
0.1686497
0.1694897
0.2069689
0.2058099
0.2069414
0.203639
0.2058708
0.2068848
0.20135
0.2037227
0.205815
0.2067908
0.1990498
0.2013894
0.2036078
0.205512
0.2066209
0.1967771
0.1990151
0.2011742
0.2031357
0.2048093
0.2062457
0.194555
0.1966635
0.1987029
0.2005585
0.2021838
0.203594
0.2054428
0.1924026
0.1943788
0.1962757
0.1980018
0.1994742
0.2007064
0.2018141
0.2040526
0.1903452
0.1921953
0.1939569
0.1955501
0.1969065
0.1979567
0.1987473
0.1994387
0.2018497
0.1884133
0.1901548
0.1918022
0.1932899
0.1945484
0.1955193
0.1961281
0.1964146
0.1964728
0.1982306
0.1838181
0.1759395
0.177967
0.1717459
0.1723229
0.17375
0.1692368
0.1695139
0.1697453
0.1707026
0.1678565
0.1681277
0.1681645
0.1681168
0.1687144
0.2057207
0.2069317
0.2034946
0.2057221
0.2068631
0.2012212
0.2035674
0.2056536
0.206758
0.1989787
0.2013009
0.203499
0.2053978
0.2065861
0.1967771
0.1990151
0.2011742
0.2031357
0.2048093
0.2062457
0.1946186
0.1967433
0.1988051
0.2006851
0.2023338
0.2037572
0.2055438
0.1925071
0.1945113
0.1964461
0.1982125
0.1997256
0.201003
0.2021547
0.2043116
0.190457
0.19234
0.1941446
0.1957811
0.1971788
0.1982732
0.1991296
0.1999262
0.2023455
0.1884911
0.1902599
0.19194
0.1934587
0.1947444
0.1957422
0.1963885
0.1967589
0.1970239
0.1992116
0.1866395
0.1883094
0.189886
0.1913072
0.1925116
0.1934328
0.1940179
0.1941774
0.1939206
0.1931863
0.1929167
0.18085
0.1832469
0.1749151
0.1756955
0.1774522
0.1711634
0.1715675
0.17194
0.1731267
0.1687553
0.1690812
0.1691808
0.1692052
0.1699173
0.167315
0.1677128
0.1678223
0.1676737
0.1674081
0.1675971
0.203389
0.2056033
0.2068429
0.2010766
0.2033878
0.2054579
0.2067133
0.1988554
0.2011457
0.2033061
0.2051913
0.2065206
0.1967098
0.1989306
0.2010665
0.2030054
0.2046687
0.206179
0.1946186
0.1967433
0.1988051
0.2006851
0.2023338
0.2037572
0.2055438
0.1925673
0.1945866
0.1965425
0.1983317
0.1998684
0.2011712
0.2023466
0.2044572
0.1905563
0.1924656
0.1943056
0.1959794
0.1974138
0.1985486
0.1994615
0.2003373
0.202737
0.1885977
0.1903976
0.1921179
0.193677
0.1950003
0.1960368
0.1967367
0.1972105
0.1976768
0.2000897
0.1867139
0.1884097
0.1900172
0.1914673
0.1926971
0.1936422
0.1942604
0.1944888
0.1944202
0.1942306
0.1957373
0.1849353
0.1865402
0.188053
0.1894152
0.1905686
0.1914569
0.1920134
0.1921813
0.1918276
0.1908417
0.188737
0.1902655
0.1794577
0.1803596
0.1823956
0.1741192
0.1746917
0.1752395
0.1767389
0.1705661
0.1709975
0.1712161
0.171377
0.1723143
0.168164
0.1686091
0.1687711
0.168684
0.1684897
0.1687896
0.1666896
0.1671793
0.1674259
0.1673651
0.1670211
0.1663863
0.1673668
0.2009713
0.2032507
0.2053008
0.2066721
0.1987168
0.200967
0.2030808
0.2049444
0.2064355
0.1965933
0.1987823
0.2008762
0.2027745
0.2044177
0.2060597
0.194555
0.1966635
0.1987029
0.2005585
0.2021838
0.203594
0.2054428
0.1925673
0.1945866
0.1965425
0.1983317
0.1998684
0.2011712
0.2023466
0.2044572
0.1906136
0.192537
0.1943967
0.1960915
0.197547
0.1987054
0.1996495
0.2005666
0.2029468
0.1886925
0.1905169
0.1922706
0.1938643
0.195221
0.1962926
0.1970403
0.1975959
0.198198
0.2006878
0.1868159
0.1885411
0.1901865
0.1916745
0.1929391
0.1939188
0.1945837
0.1948988
0.1950176
0.1952037
0.1972319
0.1850067
0.1866361
0.1881782
0.1895678
0.1907448
0.1916553
0.1922413
0.1924719
0.1922847
0.1918003
0.1913395
0.1935807
0.1832944
0.1848401
0.1862949
0.1876037
0.1887125
0.1895671
0.1901145
0.1902789
0.1899733
0.1889521
0.186742
0.1865024
0.1882043
0.1783532
0.1790082
0.179624
0.1814055
0.1733437
0.1739117
0.1742741
0.1746048
0.1758572
0.1698744
0.1704105
0.1706707
0.1706994
0.1706419
0.1711634
0.1674954
0.168026
0.168318
0.1683086
0.1680257
0.1674612
0.1685572
0.165994
0.1665608
0.1669082
0.1669964
0.166757
0.1660798
0.1661757
0.1671346
0.1986157
0.200831
0.2029064
0.2047501
0.2063605
0.1964623
0.1986115
0.2006549
0.202505
0.204123
0.2059189
0.1944448
0.1965234
0.1985222
0.2003348
0.2019185
0.2033039
0.2052655
0.1925071
0.1945113
0.1964461
0.1982125
0.1997256
0.201003
0.2021547
0.2043116
0.1906136
0.192537
0.1943967
0.1960915
0.197547
0.1987054
0.1996495
0.2005666
0.2029468
0.1887471
0.1905849
0.1923569
0.1939702
0.195346
0.1964379
0.197213
0.1978118
0.1984801
0.2009862
0.1869067
0.188655
0.1903318
0.1918522
0.1931476
0.1941587
0.1948648
0.19525
0.1954978
0.1958946
0.1980964
0.1851045
0.1867618
0.1883398
0.1897651
0.1909745
0.191917
0.192545
0.1928533
0.1928319
0.1926948
0.1928141
0.195393
0.1833631
0.1849321
0.1864147
0.1877494
0.1888806
0.1897558
0.1903308
0.1905524
0.1904015
0.1898404
0.1891473
0.1895237
0.1916705
0.1817117
0.183203
0.1846048
0.185865
0.1869329
0.1877593
0.188292
0.188473
0.188195
0.1872734
0.1851377
0.1846863
0.1847544
0.186518
0.1773214
0.177936
0.1783347
0.1787618
0.1803442
0.1724976
0.1731493
0.1735241
0.1736931
0.1738166
0.1746625
0.1691186
0.1697275
0.1701039
0.1701903
0.1700245
0.1695985
0.1709263
0.1667614
0.1673644
0.167751
0.1678836
0.1676956
0.1670793
0.1672493
0.1683229
0.1652524
0.1658712
0.1663034
0.1665023
0.166425
0.1658798
0.1658858
0.1659634
0.1669004
0.1963667
0.1984812
0.2004841
0.2022971
0.2038975
0.2058105
0.1943208
0.196362
0.1983117
0.2000749
0.2016106
0.2029644
0.2050628
0.1924026
0.1943788
0.1962757
0.1980018
0.1994742
0.2007064
0.2018141
0.2040526
0.1905563
0.1924656
0.1943056
0.1959794
0.1974138
0.1985486
0.1994615
0.2003373
0.202737
0.1887471
0.1905849
0.1923569
0.1939702
0.195346
0.1964379
0.197213
0.1978118
0.1984801
0.2009862
0.1869589
0.1887198
0.1904138
0.1919525
0.1932656
0.1942951
0.1950244
0.1954473
0.1957583
0.1962482
0.1985009
0.1851915
0.1868708
0.1884784
0.1899342
0.1911724
0.1921439
0.1928089
0.1931791
0.1932722
0.1933315
0.1937103
0.1964145
0.1834571
0.1850527
0.1865695
0.1879378
0.1890995
0.1900047
0.1906186
0.1909114
0.1909127
0.1906682
0.1905112
0.1912595
0.193689
0.1817778
0.1832914
0.1847198
0.1860047
0.1870935
0.1879396
0.1884979
0.1887329
0.188599
0.1881076
0.1873775
0.1874825
0.1879071
0.1899976
0.1801824
0.1816236
0.1829769
0.1841926
0.185223
0.1860224
0.1865448
0.1867318
0.1864991
0.1856475
0.1836933
0.1832264
0.1830823
0.1833136
0.1850944
0.1762533
0.1769303
0.1773111
0.1775466
0.1778302
0.1790675
0.1716079
0.1723142
0.1727859
0.1729846
0.1729717
0.1727442
0.1744169
0.1683072
0.1689792
0.1694381
0.169653
0.1695626
0.1690665
0.1693836
0.1706875
0.1659854
0.1666366
0.1671034
0.1673406
0.1673079
0.1668142
0.1668843
0.1670356
0.1680866
0.1644764
0.1651351
0.1656261
0.1659181
0.1659623
0.1656008
0.1656991
0.1656901
0.1657492
0.1666643
0.1942304
0.196239
0.198149
0.1998747
0.2013753
0.2027035
0.2049154
0.1922852
0.1942261
0.1960772
0.1977564
0.1991835
0.2003641
0.2014159
0.2037512
0.190457
0.19234
0.1941446
0.1957811
0.1971788
0.1982732
0.1991296
0.1999262
0.2023455
0.1886925
0.1905169
0.1922706
0.1938643
0.195221
0.1962926
0.1970403
0.1975959
0.198198
0.2006878
0.1869589
0.1887198
0.1904138
0.1919525
0.1932656
0.1942951
0.1950244
0.1954473
0.1957583
0.1962482
0.1985009
0.1852416
0.1869328
0.1885568
0.1900297
0.1912845
0.1922727
0.1929588
0.1933618
0.1935114
0.1936578
0.1941424
0.1968836
0.1835407
0.1851572
0.1867021
0.1880993
0.1892881
0.1902203
0.1908685
0.191218
0.1913231
0.191257
0.1913411
0.1922802
0.1948301
0.1818683
0.1834073
0.1848683
0.1861851
0.1873028
0.1881771
0.188772
0.1890738
0.1890814
0.1888838
0.1886459
0.1890909
0.1898149
0.1921332
0.1802462
0.1817088
0.1830875
0.1843266
0.185377
0.1861949
0.1867418
0.1869796
0.1868832
0.1864355
0.1857978
0.1858323
0.1860037
0.186484
0.1885453
0.1787027
0.1800976
0.181406
0.1825808
0.1835767
0.1843514
0.1848618
0.1850577
0.1848546
0.184084
0.1822691
0.1819001
0.1817368
0.1817641
0.1820867
0.1836895
0.1751715
0.1758846
0.1763448
0.17658
0.176696
0.1767003
0.1788062
0.1706776
0.171434
0.1719714
0.1722802
0.1723148
0.1719902
0.1725237
0.1741698
0.1674621
0.1681745
0.1687046
0.1690124
0.169064
0.1686715
0.1688691
0.1691671
0.1704467
0.1651784
0.1658662
0.166388
0.1667139
0.1667967
0.1664801
0.1666326
0.1666877
0.1668202
0.1678484
0.1636779
0.164364
0.1649008
0.165259
0.1654055
0.1651834
0.165431
0.1655168
0.1654929
0.1655333
0.1663761
0.1921994
0.1941097
0.1959237
0.1975671
0.1989616
0.2001053
0.2011111
0.2035317
0.1903452
0.1921953
0.1939569
0.1955501
0.1969065
0.1979567
0.1987473
0.1994387
0.2018497
0.1885977
0.1903976
0.1921179
0.193677
0.1950003
0.1960368
0.1967367
0.1972105
0.1976768
0.2000897
0.1869067
0.188655
0.1903318
0.1918522
0.1931476
0.1941587
0.1948648
0.19525
0.1954978
0.1958946
0.1980964
0.1852416
0.1869328
0.1885568
0.1900297
0.1912845
0.1922727
0.1929588
0.1933618
0.1935114
0.1936578
0.1941424
0.1968836
0.1835889
0.1852167
0.1867771
0.1881905
0.1893949
0.1903428
0.1910103
0.19139
0.1915456
0.1915587
0.1917417
0.1927619
0.1953505
0.1819488
0.1835078
0.1849956
0.1863398
0.1874831
0.1883828
0.1890099
0.1893645
0.1894685
0.189435
0.1894172
0.1900381
0.1909326
0.1933534
0.1803335
0.1818204
0.1832302
0.1844998
0.1855777
0.1864222
0.1870037
0.1873045
0.1873415
0.1871689
0.1869892
0.1873305
0.1877743
0.1884927
0.190731
0.1787643
0.1801797
0.1815125
0.1827097
0.1837247
0.1845169
0.1850506
0.1852949
0.1852209
0.1848326
0.1842571
0.1843491
0.184461
0.1847057
0.185242
0.1871041
0.177269
0.1786207
0.1798877
0.1810245
0.1819887
0.1827402
0.1832396
0.1834398
0.1832669
0.1825565
0.1808796
0.1805773
0.1805033
0.1805139
0.1806453
0.180864
0.1834044
0.1740708
0.1748221
0.1753325
0.1756599
0.1757915
0.175666
0.176469
0.1785446
0.1697265
0.1705121
0.171109
0.1714943
0.1716522
0.1714034
0.1717884
0.1723018
0.1739212
0.1665926
0.1673354
0.167913
0.1683008
0.1684562
0.1682277
0.1684879
0.1686703
0.1689488
0.1702042
0.1643518
0.1650643
0.1656288
0.1660171
0.1661977
0.1660146
0.1663096
0.1664495
0.1664894
0.166603
0.1675579
0.1628642
0.1635701
0.1641396
0.1645501
0.1647706
0.164666
0.1650229
0.1652597
0.1653329
0.1652939
0.1652698
0.1660814
0.1902636
0.1920849
0.1938116
0.1953717
0.1966981
0.197718
0.1984603
0.1990606
0.2014395
0.1884911
0.1902599
0.19194
0.1934587
0.1947444
0.1957422
0.1963885
0.1967589
0.1970239
0.1992116
0.1868159
0.1885411
0.1901865
0.1916745
0.1929391
0.1939188
0.1945837
0.1948988
0.1950176
0.1952037
0.1972319
0.1851915
0.1868708
0.1884784
0.1899342
0.1911724
0.1921439
0.1928089
0.1931791
0.1932722
0.1933315
0.1937103
0.1964145
0.1835889
0.1852167
0.1867771
0.1881905
0.1893949
0.1903428
0.1910103
0.19139
0.1915456
0.1915587
0.1917417
0.1927619
0.1953505
0.1819952
0.1835649
0.1850675
0.1864271
0.1875851
0.1884996
0.1891449
0.1895275
0.1896785
0.1897171
0.1897892
0.1904855
0.191455
0.1939093
0.1804111
0.1819171
0.1833526
0.1846483
0.1857505
0.1866191
0.187231
0.1875817
0.1877091
0.1876896
0.1877129
0.1882122
0.1888132
0.1896769
0.1919906
0.1788486
0.1802873
0.18165
0.1828762
0.1839174
0.184735
0.1853016
0.1856058
0.1856579
0.1855293
0.1853829
0.185757
0.1861119
0.1865727
0.1872988
0.1892866
0.1773286
0.1787001
0.1799905
0.1811488
0.1821311
0.1828994
0.183421
0.1836674
0.1836174
0.18327
0.182767
0.1828909
0.1830641
0.1832587
0.183577
0.1840031
0.1868117
0.1758781
0.1771897
0.1784181
0.1795198
0.1804543
0.1811843
0.1816728
0.1818768
0.1817266
0.181073
0.179506
0.179275
0.1792599
0.1793574
0.1794774
0.1795349
0.1806157
0.1831212
0.1729677
0.1737384
0.1742988
0.1746868
0.1749214
0.174837
0.1754552
0.1762373
0.1782826
0.1687611
0.1695685
0.1702028
0.1706566
0.1709018
0.1707978
0.171216
0.1715853
0.1720786
0.1736712
0.1657092
0.1664713
0.1670857
0.1675285
0.1677731
0.1676665
0.1680555
0.168303
0.1684699
0.1687289
0.1699084
0.1635123
0.1642422
0.1648368
0.1652744
0.1655253
0.1654553
0.1658534
0.1661376
0.1662649
0.1662895
0.1663379
0.1672606
0.1620409
0.1627605
0.1633547
0.1638037
0.1640834
0.1640661
0.1645136
0.164861
0.165087
0.1651476
0.1650512
0.1650004
0.1658573
0.1884133
0.1901548
0.1918022
0.1932899
0.1945484
0.1955193
0.1961281
0.1964146
0.1964728
0.1982306
0.1867139
0.1884097
0.1900172
0.1914673
0.1926971
0.1936422
0.1942604
0.1944888
0.1944202
0.1942306
0.1957373
0.1851045
0.1867618
0.1883398
0.1897651
0.1909745
0.191917
0.192545
0.1928533
0.1928319
0.1926948
0.1928141
0.195393
0.1835407
0.1851572
0.1867021
0.1880993
0.1892881
0.1902203
0.1908685
0.191218
0.1913231
0.191257
0.1913411
0.1922802
0.1948301
0.1819952
0.1835649
0.1850675
0.1864271
0.1875851
0.1884996
0.1891449
0.1895275
0.1896785
0.1897171
0.1897892
0.1904855
0.191455
0.1939093
0.1804559
0.1819722
0.1834217
0.1847321
0.1858482
0.1867309
0.1873599
0.187737
0.1879083
0.1879561
0.1880618
0.1886286
0.1892993
0.1902286
0.1925648
0.1789236
0.1803806
0.1817678
0.183019
0.1840833
0.1849239
0.1855193
0.1858708
0.1860085
0.1860238
0.1860669
0.1865851
0.1870802
0.1876751
0.1885192
0.1905475
0.1774101
0.1788041
0.180123
0.1813092
0.1823166
0.183109
0.183662
0.1839654
0.1840356
0.1839343
0.1838362
0.1842214
0.184616
0.1850009
0.1854917
0.1860681
0.188993
0.1759358
0.1772665
0.1785173
0.1796396
0.1805916
0.1813376
0.1818473
0.1820955
0.1820627
0.1817553
0.1813041
0.1814716
0.1816794
0.1819382
0.1822146
0.1824568
0.1837517
0.1865212
0.1745274
0.1758014
0.1769937
0.1780627
0.1789697
0.1796794
0.1801575
0.1803637
0.1802338
0.1796266
0.1781596
0.1779787
0.178026
0.1781795
0.1783869
0.1784504
0.1793096
0.180369
0.1828398
0.1718649
0.1726504
0.1732405
0.1736868
0.1739905
0.1740277
0.1746417
0.175244
0.1760052
0.1780202
0.1677905
0.1686099
0.1692732
0.1697723
0.1700948
0.1700956
0.1706222
0.1710274
0.171381
0.171854
0.1733668
0.1648176
0.1655927
0.1662322
0.1667185
0.1670261
0.1670239
0.1675038
0.1678819
0.1681166
0.168268
0.1684607
0.1696058
0.1626652
0.1634069
0.1640239
0.1644974
0.1648045
0.1648182
0.1653024
0.1656909
0.1659642
0.1660787
0.1660457
0.166067
0.1670346
0.161212
0.161941
0.1625533
0.1630322
0.1633567
0.1634103
0.163921
0.16436
0.1646978
0.1649128
0.1649214
0.1648032
0.1647958
0.1657053
0.1866395
0.1883094
0.189886
0.1913072
0.1925116
0.1934328
0.1940179
0.1941774
0.1939206
0.1931863
0.1929167
0.1850067
0.1866361
0.1881782
0.1895678
0.1907448
0.1916553
0.1922413
0.1924719
0.1922847
0.1918003
0.1913395
0.1935807
0.1834571
0.1850527
0.1865695
0.1879378
0.1890995
0.1900047
0.1906186
0.1909114
0.1909127
0.1906682
0.1905112
0.1912595
0.193689
0.1819488
0.1835078
0.1849956
0.1863398
0.1874831
0.1883828
0.1890099
0.1893645
0.1894685
0.189435
0.1894172
0.1900381
0.1909326
0.1933534
0.1804559
0.1819722
0.1834217
0.1847321
0.1858482
0.1867309
0.1873599
0.187737
0.1879083
0.1879561
0.1880618
0.1886286
0.1892993
0.1902286
0.1925648
0.1789668
0.1804337
0.1818344
0.1830996
0.1841772
0.1850311
0.1856428
0.1860192
0.1861985
0.1862769
0.1863966
0.1869759
0.1875332
0.1881894
0.1890876
0.1911226
0.1774827
0.1788942
0.1802367
0.1814468
0.1824762
0.1832906
0.1838711
0.1842195
0.1843709
0.1844058
0.1844857
0.1850041
0.185526
0.1860294
0.1866297
0.1872967
0.1902539
0.1760148
0.1773671
0.1786454
0.1797945
0.1807704
0.1815396
0.1820793
0.1823819
0.1824638
0.1823906
0.1823232
0.1827351
0.1831461
0.1835764
0.1840026
0.184383
0.185818
0.1887008
0.1745833
0.1758757
0.1770898
0.1781785
0.1791023
0.1798273
0.1803258
0.1805743
0.1805569
0.1802806
0.1798781
0.1800713
0.1803231
0.1806182
0.1809613
0.1811804
0.1822295
0.1835019
0.1862326
0.173214
0.1744529
0.1756115
0.1766499
0.1775312
0.178222
0.1786899
0.1788977
0.1787849
0.178219
0.176837
0.1767012
0.1767901
0.1770019
0.1772648
0.1774263
0.178242
0.1790856
0.1801238
0.1825602
0.1707695
0.1715612
0.1721752
0.1726582
0.1730268
0.1731479
0.1738448
0.174446
0.1750325
0.1757728
0.1777023
0.1668192
0.1676454
0.1683272
0.1688622
0.1692376
0.1693304
0.1699298
0.1704454
0.1708377
0.1711754
0.1715805
0.1730553
0.1639228
0.1647057
0.1653633
0.1658806
0.1662386
0.1663126
0.1668696
0.1673399
0.1677069
0.1679287
0.1680217
0.1681865
0.1693756
0.1618144
0.1625637
0.1631969
0.1636981
0.1640474
0.164129
0.1646725
0.1651482
0.1655271
0.1657894
0.1658516
0.1657965
0.1658611
0.1668812
0.1603806
0.1611156
0.1617414
0.1622432
0.162603
0.1627119
0.1632716
0.1637746
0.164205
0.1645332
0.1647003
0.1646903
0.1646148
0.1646571
0.1656277
0.1838181
0.1849353
0.1865402
0.188053
0.1894152
0.1905686
0.1914569
0.1920134
0.1921813
0.1918276
0.1908417
0.188737
0.1902655
0.1833631
0.1849321
0.1864147
0.1877494
0.1888806
0.1897558
0.1903308
0.1905524
0.1904015
0.1898404
0.1891473
0.1895237
0.1916705
0.1818683
0.1834073
0.1848683
0.1861851
0.1873028
0.1881771
0.188772
0.1890738
0.1890814
0.1888838
0.1886459
0.1890909
0.1898149
0.1921332
0.1804111
0.1819171
0.1833526
0.1846483
0.1857505
0.1866191
0.187231
0.1875817
0.1877091
0.1876896
0.1877129
0.1882122
0.1888132
0.1896769
0.1919906
0.1789668
0.1804337
0.1818344
0.1830996
0.1841772
0.1850311
0.1856428
0.1860192
0.1861985
0.1862769
0.1863966
0.1869759
0.1875332
0.1881894
0.1890876
0.1911226
0.1775244
0.1789454
0.1803009
0.1815244
0.1825666
0.1833936
0.1839896
0.1843619
0.1845526
0.1846471
0.1847989
0.1853735
0.1859516
0.1865092
0.1871605
0.1878691
0.1908289
0.1760851
0.1774542
0.1787552
0.1799272
0.1809243
0.1817144
0.1822804
0.1826261
0.1827853
0.1828415
0.1829424
0.1834785
0.1840063
0.1845435
0.1850653
0.1855313
0.1870479
0.1899613
0.1746599
0.1759731
0.1772137
0.1783282
0.1792749
0.1800221
0.1805493
0.1808501
0.1809423
0.1808896
0.1808523
0.1812755
0.181716
0.1821667
0.1826431
0.1829806
0.1841577
0.1855691
0.1884101
0.1732683
0.174525
0.1757046
0.1767621
0.1776594
0.1783649
0.1788524
0.1791008
0.179096
0.1788472
0.1784834
0.1787009
0.1789785
0.1793174
0.1796978
0.1799948
0.1809706
0.1820037
0.1832536
0.1859459
0.1719359
0.1731418
0.1742689
0.1752786
0.1761358
0.1768087
0.177267
0.1774755
0.1773777
0.1768479
0.1755419
0.1754406
0.1755663
0.1758158
0.1761352
0.1763597
0.1772314
0.1780349
0.1788631
0.17988
0.182224
0.1696839
0.1704782
0.1711064
0.1716194
0.1720304
0.1722284
0.1729755
0.1736616
0.17425
0.1748207
0.175491
0.1773768
0.1658509
0.1666797
0.1673742
0.1679337
0.1683516
0.16851
0.1691732
0.1697631
0.1702676
0.1706468
0.1709252
0.1713009
0.1728183
0.1630278
0.1638149
0.1644851
0.1650258
0.165421
0.1655572
0.1661657
0.1667141
0.1671747
0.1675307
0.1676997
0.16777
0.1679781
0.1692194
0.1609627
0.1617164
0.1623614
0.1628836
0.1632662
0.1634004
0.1639898
0.1645256
0.1649927
0.1653619
0.1655761
0.1656196
0.1656072
0.1657216
0.1668029
0.1595491
0.1602875
0.160923
0.1614425
0.1618304
0.1619841
0.162579
0.1631317
0.1636269
0.1640487
0.1643323
0.1644833
0.164515
0.1644873
0.1645863
0.1782435
0.18085
0.1832469
0.1832944
0.1848401
0.1862949
0.1876037
0.1887125
0.1895671
0.1901145
0.1902789
0.1899733
0.1889521
0.186742
0.1865024
0.1882043
0.1817778
0.1832914
0.1847198
0.1860047
0.1870935
0.1879396
0.1884979
0.1887329
0.188599
0.1881076
0.1873775
0.1874825
0.1879071
0.1899976
0.1803335
0.1818204
0.1832302
0.1844998
0.1855777
0.1864222
0.1870037
0.1873045
0.1873415
0.1871689
0.1869892
0.1873305
0.1877743
0.1884927
0.190731
0.1789236
0.1803806
0.1817678
0.183019
0.1840833
0.1849239
0.1855193
0.1858708
0.1860085
0.1860238
0.1860669
0.1865851
0.1870802
0.1876751
0.1885192
0.1905475
0.1775244
0.1789454
0.1803009
0.1815244
0.1825666
0.1833936
0.1839896
0.1843619
0.1845526
0.1846471
0.1847989
0.1853735
0.1859516
0.1865092
0.1871605
0.1878691
0.1908289
0.1761255
0.1775038
0.1788172
0.1800021
0.1810114
0.1818136
0.1823945
0.1827628
0.1829596
0.1830723
0.1832409
0.1838293
0.1844086
0.1849945
0.1855609
0.186067
0.187621
0.1905361
0.174728
0.1760575
0.1773199
0.1784564
0.1794234
0.1801908
0.1807432
0.1810852
0.1812513
0.1813219
0.1814444
0.181984
0.182533
0.1830809
0.1836427
0.1840539
0.1853078
0.1868001
0.1896697
0.1733426
0.1746195
0.1758246
0.1769069
0.1778263
0.1785531
0.1790682
0.1793668
0.1794671
0.1794323
0.179417
0.179852
0.1803059
0.180788
0.1812877
0.1816887
0.1827729
0.1839336
0.1853214
0.1881208
0.1719886
0.1732118
0.1743591
0.1753873
0.1762599
0.176947
0.177424
0.1776717
0.1776777
0.1774525
0.1771226
0.1773565
0.1776576
0.1780218
0.1784454
0.1787877
0.1797987
0.1807622
0.1817795
0.183007
0.1856012
0.1706907
0.1718657
0.1729631
0.1739461
0.1747806
0.1754367
0.1758856
0.1760944
0.1760096
0.1755122
0.1742736
0.1742019
0.1743542
0.1746362
0.1749912
0.1752779
0.1761761
0.1770377
0.1778291
0.178642
0.1795869
0.1818799
0.1686107
0.1694039
0.1700419
0.1705745
0.1710201
0.1712708
0.172065
0.1728028
0.1734781
0.1740537
0.1745639
0.1752027
0.1771292
0.1648882
0.1657166
0.166419
0.1669967
0.167445
0.167657
0.1683604
0.1690151
0.1695953
0.1700886
0.1704145
0.1706694
0.1710883
0.1726574
0.1621351
0.1629237
0.1636025
0.1641606
0.1645848
0.1647686
0.1654168
0.1660176
0.1665574
0.1670082
0.1673157
0.1674656
0.1675789
0.1678368
0.1691396
0.1601123
0.1608681
0.1615213
0.1620596
0.1624682
0.1626451
0.1632671
0.1638495
0.1643775
0.1648359
0.1651604
0.1653582
0.1654435
0.165479
0.1656504
0.1587191
0.159459
0.1601013
0.1606346
0.1610448
0.1612351
0.1618565
0.162445
0.1629906
0.1634781
0.1638581
0.1641272
0.1643186
0.1643963
0.1644223
0.1743907
0.1759395
0.177967
0.1794577
0.1803596
0.1823956
0.1817117
0.183203
0.1846048
0.185865
0.1869329
0.1877593
0.188292
0.188473
0.188195
0.1872734
0.1851377
0.1846863
0.1847544
0.186518
0.1802462
0.1817088
0.1830875
0.1843266
0.185377
0.1861949
0.1867418
0.1869796
0.1868832
0.1864355
0.1857978
0.1858323
0.1860037
0.186484
0.1885453
0.1788486
0.1802873
0.18165
0.1828762
0.1839174
0.184735
0.1853016
0.1856058
0.1856579
0.1855293
0.1853829
0.185757
0.1861119
0.1865727
0.1872988
0.1892866
0.1774827
0.1788942
0.1802367
0.1814468
0.1824762
0.1832906
0.1838711
0.1842195
0.1843709
0.1844058
0.1844857
0.1850041
0.185526
0.1860294
0.1866297
0.1872967
0.1902539
0.1761255
0.1775038
0.1788172
0.1800021
0.1810114
0.1818136
0.1823945
0.1827628
0.1829596
0.1830723
0.1832409
0.1838293
0.1844086
0.1849945
0.1855609
0.186067
0.187621
0.1905361
0.1747672
0.1761055
0.1773799
0.1785288
0.1795075
0.1802864
0.180853
0.1812168
0.1814187
0.1815432
0.1817298
0.1823185
0.1829151
0.1835073
0.1841087
0.1845546
0.1858445
0.1873737
0.1902442
0.1734087
0.1747013
0.1759275
0.177031
0.1779699
0.178716
0.1792552
0.1795934
0.1797646
0.1798477
0.1799845
0.1805294
0.1810846
0.1816564
0.1822327
0.1826986
0.1838481
0.1850852
0.1865532
0.1893792
0.1720609
0.1733034
0.1744755
0.1755276
0.1764215
0.177129
0.1776326
0.1779285
0.1780355
0.1780156
0.1780193
0.1784595
0.1789265
0.1794232
0.1799554
0.1803893
0.1814948
0.1825664
0.1837106
0.185075
0.1877723
0.170742
0.1719337
0.1730507
0.1740514
0.1749009
0.1755707
0.1760376
0.1762842
0.1762993
0.1760949
0.1757943
0.1760413
0.1763578
0.1767444
0.1771924
0.1775836
0.178603
0.1796039
0.1805552
0.1815567
0.1827105
0.1852483
0.1694767
0.1706224
0.1716921
0.1726497
0.1734631
0.1741033
0.1745434
0.174752
0.1746787
0.1742101
0.1730323
0.1729851
0.1731595
0.173464
0.1738492
0.1741759
0.1751039
0.1759936
0.1768452
0.1776247
0.1783761
0.179287
0.1816181
0.167551
0.1683411
0.1689846
0.1695316
0.1700009
0.1702952
0.1711154
0.1719014
0.1726298
0.1732943
0.1738158
0.1743013
0.1749836
0.1769611
0.1639328
0.1647587
0.1654656
0.1660561
0.1665278
0.1667801
0.1675142
0.1682099
0.168856
0.1694264
0.1698708
0.170177
0.1704751
0.1709442
0.1725751
0.1612467
0.1620346
0.1627187
0.1632899
0.1637365
0.1639587
0.1646342
0.1652754
0.1658684
0.1663995
0.1668052
0.1670961
0.167288
0.1674494
0.1677647
0.1592647
0.1600207
0.1606795
0.16123
0.1616594
0.161871
0.1625172
0.1631327
0.163708
0.1642282
0.1646446
0.1649546
0.1651929
0.1653243
0.1654137
0.1578919
0.1586318
0.1592789
0.1598227
0.1602508
0.1604713
0.1611124
0.1617279
0.1623099
0.1628484
0.1632964
0.1636634
0.1639717
0.1642072
0.1643358
0.1718938
0.1725174
0.1741747
0.1749151
0.1756955
0.1774522
0.1783532
0.1790082
0.179624
0.1814055
0.1801824
0.1816236
0.1829769
0.1841926
0.185223
0.1860224
0.1865448
0.1867318
0.1864991
0.1856475
0.1836933
0.1832264
0.1830823
0.1833136
0.1850944
0.1787643
0.1801797
0.1815125
0.1827097
0.1837247
0.1845169
0.1850506
0.1852949
0.1852209
0.1848326
0.1842571
0.1843491
0.184461
0.1847057
0.185242
0.1871041
0.1774101
0.1788041
0.180123
0.1813092
0.1823166
0.183109
0.183662
0.1839654
0.1840356
0.1839343
0.1838362
0.1842214
0.184616
0.1850009
0.1854917
0.1860681
0.188993
0.1760851
0.1774542
0.1787552
0.1799272
0.1809243
0.1817144
0.1822804
0.1826261
0.1827853
0.1828415
0.1829424
0.1834785
0.1840063
0.1845435
0.1850653
0.1855313
0.1870479
0.1899613
0.1747672
0.1761055
0.1773799
0.1785288
0.1795075
0.1802864
0.180853
0.1812168
0.1814187
0.1815432
0.1817298
0.1823185
0.1829151
0.1835073
0.1841087
0.1845546
0.1858445
0.1873737
0.1902442
0.1734468
0.1747479
0.1759856
0.177101
0.1780512
0.1788084
0.1793613
0.1797203
0.1799257
0.1800602
0.1802581
0.1808492
0.1814489
0.1820614
0.1826734
0.1831697
0.1843498
0.1856227
0.1871273
0.1899532
0.1721251
0.1733829
0.1745753
0.1756478
0.1765605
0.1772866
0.1778134
0.1781473
0.1783224
0.1784154
0.1785644
0.1791087
0.1796709
0.1802508
0.1808531
0.1813443
0.1825065
0.1836432
0.1848636
0.1863073
0.1890289
0.1708123
0.1720228
0.1731637
0.1741876
0.1750575
0.175747
0.1762395
0.1765325
0.176645
0.1766379
0.1766571
0.1771006
0.1775736
0.1780839
0.1786313
0.1791049
0.1802068
0.1813019
0.1823609
0.1834889
0.1847783
0.1874157
0.1695267
0.1706886
0.1717773
0.1727521
0.1735799
0.1742332
0.1746907
0.1749357
0.1749589
0.1747727
0.1744978
0.1747546
0.1750831
0.1754837
0.1759528
0.1763729
0.1774088
0.1784197
0.1794105
0.1803496
0.181289
0.1824072
0.1849799
0.1682918
0.1694103
0.1704536
0.1713876
0.1721809
0.1728062
0.1732376
0.1734459
0.1733828
0.1729402
0.1718174
0.1717912
0.171983
0.1723054
0.1727109
0.1730713
0.1740105
0.1749311
0.1758123
0.176654
0.1773788
0.1781042
0.1790591
0.1814404
0.1665057
0.1672909
0.1679372
0.1684941
0.1689814
0.1693072
0.1701468
0.1709597
0.1717375
0.1724565
0.1730715
0.1735726
0.1741019
0.174835
0.1768751
0.162986
0.1638077
0.1645165
0.1651161
0.1656053
0.1658899
0.1666434
0.1673705
0.1680585
0.1686959
0.1692209
0.1696483
0.1699967
0.1703434
0.1708706
0.1603636
0.1611494
0.1618366
0.1624172
0.1628814
0.1631345
0.1638297
0.1644988
0.1651329
0.165718
0.1662069
0.1665979
0.1669295
0.1671677
0.1673834
0.1584211
0.159176
0.1598383
0.1603981
0.1608439
0.161084
0.1617479
0.1623881
0.1629971
0.1635653
0.164046
0.1644493
0.1647985
0.165081
0.1652636
0.1570685
0.1578073
0.1584574
0.1590093
0.1594519
0.1596974
0.1603531
0.1609887
0.1615982
0.1621736
0.1626748
0.163111
0.1635158
0.1638665
0.1641505
0.1706584
0.1702893
0.1716938
0.1717459
0.1723229
0.17375
0.1741192
0.1746917
0.1752395
0.1767389
0.1773214
0.177936
0.1783347
0.1787618
0.1803442
0.1787027
0.1800976
0.181406
0.1825808
0.1835767
0.1843514
0.1848618
0.1850577
0.1848546
0.184084
0.1822691
0.1819001
0.1817368
0.1817641
0.1820867
0.1836895
0.1773286
0.1787001
0.1799905
0.1811488
0.1821311
0.1828994
0.183421
0.1836674
0.1836174
0.18327
0.182767
0.1828909
0.1830641
0.1832587
0.183577
0.1840031
0.1868117
0.1760148
0.1773671
0.1786454
0.1797945
0.1807704
0.1815396
0.1820793
0.1823819
0.1824638
0.1823906
0.1823232
0.1827351
0.1831461
0.1835764
0.1840026
0.184383
0.185818
0.1887008
0.174728
0.1760575
0.1773199
0.1784564
0.1794234
0.1801908
0.1807432
0.1810852
0.1812513
0.1813219
0.1814444
0.181984
0.182533
0.1830809
0.1836427
0.1840539
0.1853078
0.1868001
0.1896697
0.1734468
0.1747479
0.1759856
0.177101
0.1780512
0.1788084
0.1793613
0.1797203
0.1799257
0.1800602
0.1802581
0.1808492
0.1814489
0.1820614
0.1826734
0.1831697
0.1843498
0.1856227
0.1871273
0.1899532
0.1721621
0.1734281
0.1746316
0.1757156
0.1766392
0.1773759
0.1779159
0.1782698
0.1784778
0.17862
0.1788272
0.1794152
0.1800191
0.1806368
0.1812717
0.1817898
0.1829786
0.1841457
0.1854017
0.1868817
0.189602
0.1708747
0.1721
0.1732606
0.1743042
0.1751923
0.1758996