/*--------------------------------*- C++ -*----------------------------------*\
| =========                 |                                                 |
| \\      /  F ield         | OpenFOAM: The Open Source CFD Toolbox           |
|  \\    /   O peration     | Version:  2306                                  |
|   \\  /    A nd           | Website:  www.openfoam.com                      |
|    \\/     M anipulation  |                                                 |
\*---------------------------------------------------------------------------*/
FoamFile
{
    version     2.0;
    format      ascii;
    arch        "LSB;label=32;scalar=64";
    class       volScalarField;
    location    "1.5/fuel";
    object      diffSp.H2;
}
// * * * * * * * * * * * * * * * * * * * * * * * * * * * * * * * * * * * * * //

dimensions      [0 2 -1 0 0 0 0];

internalField   nonuniform List<scalar> 
16000
(
9.635931e-05
9.634776e-05
9.659087e-05
9.637089e-05
9.631912e-05
9.659333e-05
9.635953e-05
9.679911e-05
9.660035e-05
9.639512e-05
9.626562e-05
9.659698e-05
9.633134e-05
9.680518e-05
9.660288e-05
9.638416e-05
9.698865e-05
9.680682e-05
9.662051e-05
9.642343e-05
9.616738e-05
9.660218e-05
9.627863e-05
9.681727e-05
9.660665e-05
9.63568e-05
9.699562e-05
9.681292e-05
9.662323e-05
9.641292e-05
9.716564e-05
9.699498e-05
9.682361e-05
9.664415e-05
9.648034e-05
9.60306e-05
9.660146e-05
9.618168e-05
9.683773e-05
9.661201e-05
9.630549e-05
9.700996e-05
9.682504e-05
9.662737e-05
9.638653e-05
9.717265e-05
9.700195e-05
9.682982e-05
9.664708e-05
9.647073e-05
9.733337e-05
9.717085e-05
9.700917e-05
9.684339e-05
9.669188e-05
0.000144741
9.585403e-05
9.660099e-05
9.604678e-05
9.686306e-05
9.661138e-05
9.621061e-05
9.703462e-05
9.684548e-05
9.663322e-05
9.633681e-05
9.718726e-05
9.701629e-05
9.684214e-05
9.665166e-05
9.64462e-05
9.734012e-05
9.717786e-05
9.701621e-05
9.684973e-05
9.669531e-05
0.000144727
9.749307e-05
9.733769e-05
9.718301e-05
9.702598e-05
9.688359e-05
0.000145055
0.0001447511
9.569235e-05
9.657362e-05
9.587234e-05
9.689905e-05
9.66109e-05
9.607841e-05
9.706785e-05
9.687064e-05
9.663312e-05
9.624423e-05
9.721251e-05
9.704086e-05
9.68628e-05
9.665812e-05
9.639945e-05
9.735428e-05
9.719245e-05
9.703066e-05
9.686229e-05
9.670085e-05
0.000144691
9.749946e-05
9.734443e-05
9.719006e-05
9.703311e-05
9.689024e-05
0.0001450602
0.0001447372
9.764552e-05
9.749665e-05
9.734821e-05
9.71975e-05
9.706045e-05
0.0001453397
0.0001450633
0.0001447645
9.557014e-05
9.654088e-05
9.571258e-05
9.691606e-05
9.658374e-05
9.590666e-05
9.711487e-05
9.690621e-05
9.66331e-05
9.611493e-05
9.724754e-05
9.707383e-05
9.688806e-05
9.665868e-05
9.631095e-05
9.737881e-05
9.72176e-05
9.705534e-05
9.688324e-05
9.670872e-05
0.0001446222
9.751292e-05
9.735856e-05
9.720472e-05
9.704771e-05
9.690341e-05
0.0001450688
0.0001447017
9.765154e-05
9.750304e-05
9.735498e-05
9.720461e-05
9.706781e-05
0.0001453498
0.0001450686
0.0001447509
9.77911e-05
9.764851e-05
9.750584e-05
9.736084e-05
9.722752e-05
0.0001456028
0.0001453466
0.0001450745
0.0001447767
9.550558e-05
9.651066e-05
9.559174e-05
9.69247e-05
9.655142e-05
9.574915e-05
9.714729e-05
9.692295e-05
9.660647e-05
9.5946e-05
9.729697e-05
9.712033e-05
9.692356e-05
9.665928e-05
9.618654e-05
9.741333e-05
9.725235e-05
9.708826e-05
9.690871e-05
9.671095e-05
0.0001444915
9.753626e-05
9.738299e-05
9.722991e-05
9.707254e-05
9.692521e-05
0.0001450808
0.0001446338
9.766424e-05
9.751646e-05
9.736916e-05
9.721937e-05
9.708283e-05
0.0001453696
0.0001450771
0.000144716
9.779677e-05
9.765452e-05
9.751225e-05
9.736766e-05
9.72348e-05
0.0001456139
0.0001453566
0.0001450798
0.0001447633
9.793014e-05
9.77936e-05
9.765659e-05
9.751695e-05
9.738731e-05
0.0001458517
0.0001456085
0.0001453559
0.0001450845
0.0001447905
9.550558e-05
9.649333e-05
9.552789e-05
9.69262e-05
9.652163e-05
9.562986e-05
9.717094e-05
9.693154e-05
9.657474e-05
9.579081e-05
9.733447e-05
9.715234e-05
9.694023e-05
9.663325e-05
9.60218e-05
9.746192e-05
9.730126e-05
9.713448e-05
9.694423e-05
9.671325e-05
0.0001443074
9.756935e-05
9.741723e-05
9.726454e-05
9.710547e-05
9.695156e-05
0.0001450844
0.0001445045
9.768628e-05
9.75397e-05
9.739359e-05
9.724463e-05
9.710821e-05
0.0001454022
0.0001450892
0.0001446492
9.780874e-05
9.766718e-05
9.75257e-05
9.738189e-05
9.724987e-05
0.0001456364
0.0001453763
0.0001450885
0.000144729
9.793547e-05
9.779925e-05
9.766262e-05
9.752339e-05
9.739425e-05
0.0001458626
0.0001456195
0.0001453659
0.0001450899
0.0001447775
9.806283e-05
9.793222e-05
9.780076e-05
9.766645e-05
9.754053e-05
0.0001460899
0.0001458564
0.0001456163
0.0001453642
0.000145096
0.0003526487
9.557014e-05
9.649333e-05
9.552789e-05
9.692587e-05
9.650455e-05
9.556679e-05
9.718439e-05
9.693309e-05
9.654546e-05
9.567311e-05
9.73634e-05
9.717575e-05
9.694887e-05
9.660216e-05
9.586977e-05
9.750035e-05
9.733831e-05
9.716622e-05
9.696089e-05
9.668854e-05
0.0001440632
9.761587e-05
9.746534e-05
9.731312e-05
9.71515e-05
9.698784e-05
0.0001450878
0.0001443222
9.771771e-05
9.757254e-05
9.742769e-05
9.72792e-05
9.714165e-05
0.0001454415
0.0001450926
0.0001445215
9.782953e-05
9.768913e-05
9.754892e-05
9.740636e-05
9.727552e-05
0.0001456743
0.0001454088
0.0001451006
0.0001446632
9.794678e-05
9.781119e-05
9.76753e-05
9.753689e-05
9.740873e-05
0.0001458851
0.0001456419
0.0001453856
0.0001450986
0.0001447438
9.806788e-05
9.793754e-05
9.780643e-05
9.767249e-05
9.754707e-05
0.0001461003
0.0001458673
0.0001456273
0.0001453742
0.0001451014
0.0003526196
9.81894e-05
9.806457e-05
9.793861e-05
9.780956e-05
9.768762e-05
0.0001463186
0.0001460938
0.0001458629
0.0001456232
0.0001453738
0.0003533722
0.0003527539
9.569235e-05
9.651066e-05
9.559174e-05
9.692587e-05
9.650455e-05
9.556679e-05
9.719061e-05
9.693282e-05
9.652867e-05
9.561085e-05
9.738133e-05
9.718913e-05
9.695054e-05
9.65734e-05
9.575412e-05
9.753061e-05
9.736697e-05
9.718949e-05
9.696963e-05
9.66585e-05
0.0001438378
9.765347e-05
9.750334e-05
9.734984e-05
9.718302e-05
9.700496e-05
0.0001450511
0.0001440803
9.77618e-05
9.761862e-05
9.747547e-05
9.732752e-05
9.718805e-05
0.0001454954
0.0001450956
0.0001443413
9.785928e-05
9.772032e-05
9.758162e-05
9.744036e-05
9.73104e-05
0.0001457241
0.0001454476
0.0001451039
0.0001445371
9.796642e-05
9.783189e-05
9.769723e-05
9.756012e-05
9.743348e-05
0.0001459234
0.0001456796
0.0001454179
0.0001451108
0.0001446792
9.807858e-05
9.794882e-05
9.781838e-05
9.768521e-05
9.756075e-05
0.000146122
0.0001458897
0.0001456496
0.0001453938
0.0001451102
0.0003525439
9.819418e-05
9.80696e-05
9.794394e-05
9.781524e-05
9.769375e-05
0.0001463283
0.0001461042
0.0001458738
0.0001456342
0.0001453837
0.0003533856
0.0003527305
9.831002e-05
9.819085e-05
9.807029e-05
9.794651e-05
9.782871e-05
0.0001465382
0.0001463218
0.0001460993
0.0001458687
0.0001456312
0.0003540323
0.0003534527
0.0003528984
9.585403e-05
9.654088e-05
9.571258e-05
9.69262e-05
9.652163e-05
9.562986e-05
9.719061e-05
9.693282e-05
9.652867e-05
9.561085e-05
9.739005e-05
9.719532e-05
9.695035e-05
9.655691e-05
9.569285e-05
9.754993e-05
9.738477e-05
9.720281e-05
9.697141e-05
9.663049e-05
0.0001436663
9.768336e-05
9.753334e-05
9.737829e-05
9.720617e-05
9.701404e-05
0.0001450066
0.0001438571
9.779793e-05
9.765583e-05
9.751314e-05
9.736394e-05
9.721966e-05
0.0001455207
0.0001450588
0.0001441017
9.790097e-05
9.776403e-05
9.762739e-05
9.748787e-05
9.735888e-05
0.000145793
0.0001455006
0.0001451068
0.0001443587
9.79946e-05
9.786143e-05
9.772828e-05
9.759271e-05
9.746768e-05
0.0001459754
0.0001457288
0.0001454562
0.0001451141
0.0001445547
9.809717e-05
9.796837e-05
9.783905e-05
9.770713e-05
9.75842e-05
0.0001461589
0.0001459277
0.000145687
0.0001454259
0.0001451226
0.0003523979
9.820434e-05
9.808027e-05
9.795522e-05
9.782721e-05
9.770661e-05
0.0001463488
0.0001461257
0.0001458961
0.0001456564
0.0001454033
0.0003534075
0.000352668
9.831456e-05
9.819562e-05
9.807533e-05
9.795186e-05
9.783446e-05
0.0001465474
0.0001463315
0.0001461097
0.0001458795
0.0001456421
0.000354056
0.0003534661
0.0003528833
9.842485e-05
9.831121e-05
9.8196e-05
9.807744e-05
9.796394e-05
0.000146749
0.0001465409
0.0001463265
0.0001461042
0.0001458754
0.0003546456
0.0003540958
0.0003535619
0.0003530317
9.60306e-05
9.657362e-05
9.587234e-05
9.69247e-05
9.655142e-05
9.574915e-05
9.718439e-05
9.693309e-05
9.654546e-05
9.567311e-05
9.739005e-05
9.719532e-05
9.695035e-05
9.655691e-05
9.569285e-05
9.755946e-05
9.739343e-05
9.7209e-05
9.697131e-05
9.661439e-05
0.0001435753
9.77027e-05
9.755251e-05
9.739598e-05
9.721946e-05
9.701609e-05
0.0001449651
0.0001436873
9.78268e-05
9.768548e-05
9.754291e-05
9.73922e-05
9.724288e-05
0.0001455342
0.0001450147
0.0001438808
9.793546e-05
9.779981e-05
9.766429e-05
9.752523e-05
9.739526e-05
0.0001458398
0.0001455253
0.0001450701
0.0001441213
9.803405e-05
9.790277e-05
9.77717e-05
9.763821e-05
9.751526e-05
0.0001460474
0.0001457968
0.0001455086
0.0001451167
0.0001443784
9.812392e-05
9.799637e-05
9.786846e-05
9.773807e-05
9.761692e-05
0.0001462098
0.000145979
0.0001457357
0.0001454639
0.0001451259
0.0003521112
9.822198e-05
9.809878e-05
9.797474e-05
9.784787e-05
9.77287e-05
0.0001463838
0.0001461624
0.0001459338
0.0001456935
0.0001454353
0.0003534375
0.0003525457
9.832422e-05
9.820574e-05
9.8086e-05
9.796315e-05
9.784655e-05
0.0001465666
0.0001463519
0.0001461311
0.0001459017
0.0001456642
0.0003541024
0.0003534879
0.0003528399
9.842918e-05
9.831575e-05
9.820078e-05
9.808249e-05
9.796935e-05
0.0001467576
0.00014655
0.0001463362
0.0001461145
0.0001458862
0.0003546714
0.0003541179
0.0003535761
0.0003530263
9.853407e-05
9.842584e-05
9.831588e-05
9.820249e-05
9.809339e-05
0.0001469512
0.0001467512
0.0001465449
0.0001463305
0.0001461099
0.0003552289
0.0003546949
0.0003541818
0.0003536583
0.0003531689
9.616738e-05
9.660099e-05
9.604678e-05
9.691606e-05
9.658374e-05
9.590666e-05
9.717094e-05
9.693154e-05
9.657474e-05
9.579081e-05
9.738133e-05
9.718913e-05
9.695054e-05
9.65734e-05
9.575412e-05
9.755946e-05
9.739343e-05
9.7209e-05
9.697131e-05
9.661439e-05
0.0001435753
9.771231e-05
9.756198e-05
9.74046e-05
9.722563e-05
9.701612e-05
0.0001449413
0.0001435973
9.784561e-05
9.770468e-05
9.756196e-05
9.74098e-05
9.725622e-05
0.0001455373
0.0001449738
0.0001437127
9.796309e-05
9.782845e-05
9.769372e-05
9.75548e-05
9.742346e-05
0.0001458743
0.0001455387
0.0001450264
0.0001439026
9.806692e-05
9.793696e-05
9.78072e-05
9.767483e-05
9.755251e-05
0.0001461013
0.0001458429
0.0001455328
0.0001450799
0.0001441431
9.816133e-05
9.803551e-05
9.790955e-05
9.778125e-05
9.766244e-05
0.0001462805
0.0001460502
0.0001458029
0.0001455156
0.0001451284
0.0003516977
9.824745e-05
9.812537e-05
9.800261e-05
9.787717e-05
9.775973e-05
0.0001464325
0.0001462127
0.0001459847
0.0001457417
0.0001454728
0.0003534434
0.0003522865
9.834102e-05
9.822331e-05
9.810448e-05
9.798266e-05
9.786735e-05
0.0001465996
0.0001463866
0.0001461675
0.0001459392
0.0001457011
0.0003541773
0.000353518
0.0003527521
9.84384e-05
9.832538e-05
9.82109e-05
9.809317e-05
9.798074e-05
0.0001467757
0.0001465691
0.0001463564
0.0001461357
0.0001459082
0.0003547234
0.0003541606
0.0003535999
0.0003530057
9.853821e-05
9.843016e-05
9.832042e-05
9.820728e-05
9.809849e-05
0.0001469593
0.0001467598
0.0001465539
0.0001463402
0.0001461201
0.0003552543
0.0003547186
0.0003542025
0.0003536736
0.0003531744
9.863784e-05
9.853489e-05
9.843009e-05
9.83218e-05
9.821716e-05
0.0001471448
0.000146953
0.0001467546
0.0001465483
0.0001463353
0.0003557902
0.0003552658
0.0003547628
0.0003542556
0.0003537556
9.626562e-05
9.660146e-05
9.618168e-05
9.689905e-05
9.66109e-05
9.607841e-05
9.714729e-05
9.692295e-05
9.660647e-05
9.5946e-05
9.73634e-05
9.717575e-05
9.694887e-05
9.660216e-05
9.586977e-05
9.754993e-05
9.738477e-05
9.720281e-05
9.697141e-05
9.663049e-05
0.0001436663
9.771231e-05
9.756198e-05
9.74046e-05
9.722563e-05
9.701612e-05
0.0001449413
0.0001435973
9.785499e-05
9.771423e-05
9.757138e-05
9.741838e-05
9.726242e-05
0.0001455374
0.0001449503
0.0001436236
9.798118e-05
9.784714e-05
9.77128e-05
9.757373e-05
9.744102e-05
0.0001458942
0.0001455418
0.0001449859
0.0001437361
9.809332e-05
9.796439e-05
9.783565e-05
9.770406e-05
9.758196e-05
0.0001461432
0.000145877
0.0001455459
0.0001450366
0.0001439266
9.81927e-05
9.806811e-05
9.794347e-05
9.781649e-05
9.769892e-05
0.0001463358
0.0001461034
0.0001458483
0.0001455392
0.0001450916
0.0003511471
9.8283e-05
9.81625e-05
9.804153e-05
9.791805e-05
9.78029e-05
0.0001465002
0.0001462827
0.0001460551
0.0001458081
0.000145524
0.0003534439
0.000351884
9.836531e-05
9.824862e-05
9.813095e-05
9.801043e-05
9.789671e-05
0.0001466458
0.0001464348
0.0001462174
0.0001459895
0.0001457488
0.0003542626
0.0003535201
0.0003525321
9.845443e-05
9.834211e-05
9.822844e-05
9.811162e-05
9.800035e-05
0.0001468067
0.0001466019
0.0001463909
0.0001461719
0.0001459455
0.0003548095
0.0003542293
0.0003536345
0.0003529616
9.854702e-05
9.843935e-05
9.833005e-05
9.82174e-05
9.810925e-05
0.0001469763
0.0001467778
0.000146573
0.0001463603
0.0001461412
0.0003553061
0.0003547658
0.0003542422
0.0003537003
0.0003531798
9.86418e-05
9.853901e-05
9.843441e-05
9.832635e-05
9.822199e-05
0.0001471524
0.000146961
0.0001467631
0.0001465573
0.000146345
0.0003558143
0.000355289
0.0003547843
0.0003542749
0.0003537724
9.87363e-05
9.86385e-05
9.853876e-05
9.843551e-05
9.833535e-05
0.0001473299
0.0001471462
0.0001469559
0.0001467575
0.0001465524
0.0003563313
0.0003558165
0.0003553187
0.0003548195
0.0003543293
9.631912e-05
9.660218e-05
9.627863e-05
9.686306e-05
9.661138e-05
9.621061e-05
9.711487e-05
9.690621e-05
9.66331e-05
9.611493e-05
9.733447e-05
9.715234e-05
9.694023e-05
9.663325e-05
9.60218e-05
9.753061e-05
9.736697e-05
9.718949e-05
9.696963e-05
9.66585e-05
0.0001438378
9.77027e-05
9.755251e-05
9.739598e-05
9.721946e-05
9.701609e-05
0.0001449651
0.0001436873
9.785499e-05
9.771423e-05
9.757138e-05
9.741838e-05
9.726242e-05
0.0001455374
0.0001449503
0.0001436236
9.799022e-05
9.785646e-05
9.772229e-05
9.75831e-05
9.744958e-05
0.0001459035
0.0001455419
0.0001449627
0.0001436479
9.811065e-05
9.798237e-05
9.785422e-05
9.772302e-05
9.760083e-05
0.0001461693
0.0001458967
0.0001455491
0.0001449966
0.0001437618
9.821792e-05
9.809433e-05
9.797073e-05
9.784475e-05
9.772803e-05
0.0001463796
0.0001461449
0.000145882
0.0001455521
0.0001450486
0.000350643
9.8313e-05
9.819363e-05
9.807391e-05
9.795174e-05
9.7838e-05
0.0001465544
0.0001463373
0.0001461076
0.0001458529
0.0001455471
0.0003533537
0.0003513455
9.839921e-05
9.828394e-05
9.816788e-05
9.804915e-05
9.793756e-05
0.00014671
0.0001465019
0.0001462866
0.0001460592
0.0001458146
0.0003543772
0.0003535116
0.0003521312
9.847767e-05
9.836626e-05
9.825364e-05
9.8138e-05
9.802817e-05
0.0001468505
0.0001466476
0.0001464387
0.0001462213
0.0001459953
0.0003549184
0.000354303
0.0003536385
0.0003527989
9.856236e-05
9.845532e-05
9.834674e-05
9.823492e-05
9.812779e-05
0.0001470056
0.0001468086
0.0001466055
0.0001463946
0.0001461772
0.0003553928
0.0003548438
0.0003543065
0.0003537423
0.0003531906
9.865025e-05
9.85478e-05
9.844359e-05
9.833598e-05
9.823218e-05
0.0001471685
0.000146978
0.000146781
0.0001465762
0.0001463649
0.0003558639
0.0003553358
0.0003548268
0.0003543114
0.0003538029
9.87401e-05
9.864245e-05
9.854288e-05
9.843984e-05
9.833993e-05
0.0001473371
0.0001471538
0.0001469639
0.000146766
0.0001465614
0.0003563539
0.0003558384
0.0003553394
0.0003548387
0.0003543471
9.882961e-05
9.873684e-05
9.864205e-05
9.854375e-05
9.844807e-05
0.0001475068
0.0001473311
0.0001471487
0.0001469583
0.000146761
0.000356853
0.0003563485
0.0003558567
0.0003553615
0.0003548758
9.634776e-05
9.659698e-05
9.633134e-05
9.683773e-05
9.661201e-05
9.630549e-05
9.706785e-05
9.687064e-05
9.663312e-05
9.624423e-05
9.729697e-05
9.712033e-05
9.692356e-05
9.665928e-05
9.618654e-05
9.750035e-05
9.733831e-05
9.716622e-05
9.696089e-05
9.668854e-05
0.0001440632
9.768336e-05
9.753334e-05
9.737829e-05
9.720617e-05
9.701404e-05
0.0001450066
0.0001438571
9.784561e-05
9.770468e-05
9.756196e-05
9.74098e-05
9.725622e-05
0.0001455373
0.0001449738
0.0001437127
9.799022e-05
9.785646e-05
9.772229e-05
9.75831e-05
9.744958e-05
0.0001459035
0.0001455419
0.0001449627
0.0001436479
9.811932e-05
9.799136e-05
9.786349e-05
9.773247e-05
9.761016e-05
0.0001461821
0.0001459059
0.0001455493
0.0001449737
0.0001436745
9.823452e-05
9.811157e-05
9.798861e-05
9.786322e-05
9.774691e-05
0.0001464077
0.0001461708
0.0001459015
0.0001455552
0.0001450091
0.0003502598
9.833714e-05
9.82187e-05
9.809997e-05
9.797883e-05
9.786614e-05
0.0001465977
0.0001463807
0.0001461486
0.0001458861
0.0001455598
0.0003532527
0.0003508636
9.842795e-05
9.831372e-05
9.819881e-05
9.808132e-05
9.797112e-05
0.0001467622
0.0001465555
0.0001463406
0.000146111
0.0001458586
0.0003544267
0.0003534117
0.0003515835
9.851006e-05
9.839995e-05
9.828878e-05
9.817476e-05
9.806686e-05
0.0001469113
0.0001467113
0.0001465051
0.0001462899
0.0001460643
0.000355068
0.0003544049
0.0003536276
0.000352363
9.858463e-05
9.847843e-05
9.83708e-05
9.826003e-05
9.81542e-05
0.000147047
0.0001468519
0.0001466508
0.0001464419
0.0001462261
0.0003555069
0.0003549393
0.0003543717
0.0003537547
0.0003531258
9.866495e-05
9.856308e-05
9.845952e-05
9.835265e-05
9.824977e-05
0.0001471962
0.000147007
0.0001468116
0.0001466085
0.000146399
0.0003559475
0.000355414
0.0003548975
0.0003543722
0.0003538563
9.874821e-05
9.865087e-05
9.855167e-05
9.844902e-05
9.834962e-05
0.0001473524
0.0001471698
0.0001469807
0.0001467838
0.0001465802
0.0003564007
0.0003558832
0.000355381
0.0003548761
0.0003543807
9.883325e-05
9.874062e-05
9.8646e-05
9.854788e-05
9.845242e-05
0.0001475136
0.0001473383
0.0001471563
0.0001469663
0.0001467694
0.0003568742
0.0003563691
0.0003558763
0.0003553796
0.0003548925
9.891789e-05
9.883003e-05
9.874009e-05
9.864665e-05
9.855543e-05
0.0001476755
0.0001475078
0.0001473333
0.0001471508
0.0001469613
0.0003573554
0.0003568627
0.0003563782
0.0003558878
0.0003554036
9.635931e-05
9.659333e-05
9.635953e-05
9.681727e-05
9.660665e-05
9.63568e-05
9.703462e-05
9.684548e-05
9.663322e-05
9.633681e-05
9.724754e-05
9.707383e-05
9.688806e-05
9.665868e-05
9.631095e-05
9.746192e-05
9.730126e-05
9.713448e-05
9.694423e-05
9.671325e-05
0.0001443074
9.765347e-05
9.750334e-05
9.734984e-05
9.718302e-05
9.700496e-05
0.0001450511
0.0001440803
9.78268e-05
9.768548e-05
9.754291e-05
9.73922e-05
9.724288e-05
0.0001455342
0.0001450147
0.0001438808
9.798118e-05
9.784714e-05
9.77128e-05
9.757373e-05
9.744102e-05
0.0001458942
0.0001455418
0.0001449859
0.0001437361
9.811932e-05
9.799136e-05
9.786349e-05
9.773247e-05
9.761016e-05
0.0001461821
0.0001459059
0.0001455493
0.0001449737
0.0001436745
9.824283e-05
9.812019e-05
9.799755e-05
9.787244e-05
9.775631e-05
0.0001464216
0.0001461834
0.0001459107
0.0001455555
0.0001449865
0.0003500568
9.835306e-05
9.823521e-05
9.811711e-05
9.799661e-05
9.788453e-05
0.0001466258
0.0001464085
0.0001461743
0.0001459055
0.0001455629
0.0003531613
0.0003505014
9.84511e-05
9.833772e-05
9.822374e-05
9.810723e-05
9.79981e-05
0.0001468041
0.0001465984
0.0001463835
0.0001461515
0.0001458915
0.000354455
0.0003533107
0.0003511101
9.853766e-05
9.84285e-05
9.831838e-05
9.820551e-05
9.809891e-05
0.0001469612
0.0001467629
0.0001465581
0.0001463432
0.0001461154
0.0003551669
0.0003544395
0.000353512
0.0003517859
9.861567e-05
9.851063e-05
9.840433e-05
9.829502e-05
9.819094e-05
0.0001471047
0.0001469123
0.000146714
0.0001465077
0.0001462941
0.0003556649
0.0003550762
0.0003544703
0.0003537318
0.0003526459
9.868635e-05
9.858523e-05
9.848254e-05
9.837662e-05
9.82749e-05
0.0001472355
0.0001470481
0.0001468546
0.0001466535
0.0001464459
0.0003560599
0.0003555149
0.0003549813
0.0003544309
0.0003538907
9.876233e-05
9.866552e-05
9.856691e-05
9.846493e-05
9.836635e-05
0.0001473786
0.0001471973
0.0001470096
0.0001468142
0.0001466122
0.00035648
0.0003559585
0.000355451
0.0003549392
0.0003544392
9.884106e-05
9.874871e-05
9.865441e-05
9.855665e-05
9.846166e-05
0.0001475281
0.0001473535
0.0001471722
0.000146983
0.0001467871
0.0003569182
0.0003564113
0.0003559158
0.0003554154
0.0003549246
9.89214e-05
9.883367e-05
9.874388e-05
9.86506e-05
9.855959e-05
0.000147682
0.0001475146
0.0001473404
0.0001471583
0.0001469693
0.0003573752
0.0003568819
0.0003563964
0.0003559047
0.000355419
9.900128e-05
9.891821e-05
9.883303e-05
9.874435e-05
9.865755e-05
0.0001478362
0.0001476763
0.0001475096
0.000147335
0.0001471534
0.0003578384
0.0003573587
0.0003568835
0.0003563996
0.0003559182
9.659087e-05
9.637089e-05
9.680518e-05
9.660288e-05
9.638416e-05
9.700996e-05
9.682504e-05
9.662737e-05
9.638653e-05
9.721251e-05
9.704086e-05
9.68628e-05
9.665812e-05
9.639945e-05
9.741333e-05
9.725235e-05
9.708826e-05
9.690871e-05
9.671095e-05
0.0001444915
9.761587e-05
9.746534e-05
9.731312e-05
9.71515e-05
9.698784e-05
0.0001450878
0.0001443222
9.779793e-05
9.765583e-05
9.751314e-05
9.736394e-05
9.721966e-05
0.0001455207
0.0001450588
0.0001441017
9.796309e-05
9.782845e-05
9.769372e-05
9.75548e-05
9.742346e-05
0.0001458743
0.0001455387
0.0001450264
0.0001439026
9.811065e-05
9.798237e-05
9.785422e-05
9.772302e-05
9.760083e-05
0.0001461693
0.0001458967
0.0001455491
0.0001449966
0.0001437618
9.824283e-05
9.812019e-05
9.799755e-05
9.787244e-05
9.775631e-05
0.0001464216
0.0001461834
0.0001459107
0.0001455555
0.0001449865
0.0003500568
9.836103e-05
9.824348e-05
9.812569e-05
9.800551e-05
9.789371e-05
0.0001466398
0.0001464223
0.0001461868
0.0001459145
0.0001455631
0.0003531095
0.0003503107
9.84664e-05
9.835357e-05
9.824017e-05
9.812429e-05
9.80158e-05
0.0001468315
0.0001466262
0.0001464111
0.000146177
0.0001459106
0.0003544623
0.0003532234
0.0003507614
9.855991e-05
9.845152e-05
9.834226e-05
9.82303e-05
9.812472e-05
0.0001470014
0.0001468045
0.0001466006
0.0001463857
0.0001461556
0.0003552421
0.0003544601
0.0003534064
0.0003513104
9.864222e-05
9.853806e-05
9.843271e-05
9.832446e-05
9.822157e-05
0.0001471524
0.0001469617
0.0001467651
0.0001465602
0.0001463468
0.0003557812
0.0003551595
0.000354488
0.0003535964
0.0003520043
9.871615e-05
9.86161e-05
9.851461e-05
9.841001e-05
9.830987e-05
0.0001472903
0.0001471054
0.0001469145
0.0001467161
0.0001465112
0.0003562165
0.0003556617
0.0003551155
0.0003545245
0.0003538788
0.0009353089
9.878293e-05
9.868681e-05
9.858898e-05
9.848787e-05
9.839033e-05
0.0001474161
0.0001472364
0.0001470504
0.0001468568
0.0001466568
0.0003565881
0.0003560586
0.0003555395
0.0003550114
0.0003544959
9.885465e-05
9.876278e-05
9.866902e-05
9.857187e-05
9.847761e-05
0.0001475531
0.0001473795
0.0001471995
0.0001470117
0.0001468173
0.0003569929
0.0003564828
0.0003559828
0.0003554764
0.0003549805
9.892892e-05
9.884145e-05
9.875195e-05
9.865901e-05
9.856841e-05
0.0001476958
0.000147529
0.0001473555
0.0001471741
0.0001469859
0.0003574166
0.0003569216
0.0003564335
0.0003559383
0.0003554486
9.900467e-05
9.892172e-05
9.883666e-05
9.874814e-05
9.866153e-05
0.0001478424
0.0001476827
0.0001475164
0.0001473421
0.0001471609
0.0003578571
0.0003573768
0.0003569005
0.0003564152
0.0003559323
9.907991e-05
9.900152e-05
9.892098e-05
9.883698e-05
9.875455e-05
0.0001479891
0.0001478368
0.0001476779
0.0001475111
0.0001473372
0.0003583021
0.0003578366
0.0003573722
0.0003568967
0.0003564202
9.679911e-05
9.660035e-05
9.639512e-05
9.699562e-05
9.681292e-05
9.662323e-05
9.641292e-05
9.718726e-05
9.701629e-05
9.684214e-05
9.665166e-05
9.64462e-05
9.737881e-05
9.72176e-05
9.705534e-05
9.688324e-05
9.670872e-05
0.0001446222
9.756935e-05
9.741723e-05
9.726454e-05
9.710547e-05
9.695156e-05
0.0001450844
0.0001445045
9.77618e-05
9.761862e-05
9.747547e-05
9.732752e-05
9.718805e-05
0.0001454954
0.0001450956
0.0001443413
9.793546e-05
9.779981e-05
9.766429e-05
9.752523e-05
9.739526e-05
0.0001458398
0.0001455253
0.0001450701
0.0001441213
9.809332e-05
9.796439e-05
9.783565e-05
9.770406e-05
9.758196e-05
0.0001461432
0.000145877
0.0001455459
0.0001450366
0.0001439266
9.823452e-05
9.811157e-05
9.798861e-05
9.786322e-05
9.774691e-05
0.0001464077
0.0001461708
0.0001459015
0.0001455552
0.0001450091
0.0003502598
9.836103e-05
9.824348e-05
9.812569e-05
9.800551e-05
9.789371e-05
0.0001466398
0.0001464223
0.0001461868
0.0001459145
0.0001455631
0.0003531095
0.0003503107
9.847407e-05
9.836151e-05
9.824841e-05
9.813283e-05
9.802466e-05
0.0001468452
0.0001466402
0.0001464248
0.0001461894
0.0001459197
0.0003544633
0.000353175
0.0003505793
9.857464e-05
9.846676e-05
9.835803e-05
9.824665e-05
9.81417e-05
0.0001470278
0.0001468317
0.0001466283
0.0001464131
0.0001461807
0.0003552864
0.0003544648
0.0003533204
0.0003509692
9.866365e-05
9.85602e-05
9.845563e-05
9.834822e-05
9.824626e-05
0.0001471908
0.0001470016
0.0001468063
0.0001466023
0.0001463888
0.0003558735
0.0003552249
0.0003544993
0.0003534837
0.0003515073
9.874174e-05
9.86425e-05
9.854189e-05
9.843825e-05
9.833921e-05
0.0001473359
0.0001471527
0.0001469635
0.0001467668
0.0001465631
0.0003563372
0.0003557635
0.000355183
0.0003545249
0.0003537063
0.0009326257
9.88116e-05
9.871645e-05
9.861972e-05
9.851981e-05
9.842371e-05
0.0001474683
0.0001472908
0.0001471072
0.0001469162
0.000146719
0.0003567392
0.0003562057
0.0003556851
0.0003551448
0.0003546133
0.0009390055
0.0009360898
9.887451e-05
9.878328e-05
9.869023e-05
9.859387e-05
9.850056e-05
0.0001475889
0.0001474167
0.0001472383
0.0001470522
0.0001468596
0.000357096
0.0003565795
0.0003560708
0.0003555517
0.0003550413
9.894202e-05
9.885499e-05
9.876599e-05
9.86736e-05
9.858366e-05
0.0001477196
0.0001475538
0.0001473814
0.0001472013
0.0001470144
0.000357487
0.0003569891
0.0003564969
0.000355996
0.0003555004
9.901192e-05
9.892921e-05
9.884443e-05
9.875621e-05
9.866997e-05
0.0001478556
0.0001476965
0.0001475307
0.0001473571
0.0001471766
0.0003578961
0.0003574141
0.0003569353
0.0003564465
0.0003559596
9.908318e-05
9.90049e-05
9.892448e-05
9.884062e-05
9.875836e-05
0.000147995
0.000147843
0.0001476843
0.0001475178
0.0001473443
0.0003583197
0.0003578535
0.0003573881
0.0003569113
0.0003564331
9.91539e-05
9.908008e-05
9.900409e-05
9.892466e-05
9.884655e-05
0.0001481344
0.0001479896
0.0001478382
0.0001476791
0.000147513
0.0003587464
0.0003582959
0.0003578438
0.0003573786
0.0003569093
9.698865e-05
9.680682e-05
9.662051e-05
9.642343e-05
9.717265e-05
9.700195e-05
9.682982e-05
9.664708e-05
9.647073e-05
9.735428e-05
9.719245e-05
9.703066e-05
9.686229e-05
9.670085e-05
0.000144691
9.753626e-05
9.738299e-05
9.722991e-05
9.707254e-05
9.692521e-05
0.0001450808
0.0001446338
9.771771e-05
9.757254e-05
9.742769e-05
9.72792e-05
9.714165e-05
0.0001454415
0.0001450926
0.0001445215
9.790097e-05
9.776403e-05
9.762739e-05
9.748787e-05
9.735888e-05
0.000145793
0.0001455006
0.0001451068
0.0001443587
9.806692e-05
9.793696e-05
9.78072e-05
9.767483e-05
9.755251e-05
0.0001461013
0.0001458429
0.0001455328
0.0001450799
0.0001441431
9.821792e-05
9.809433e-05
9.797073e-05
9.784475e-05
9.772803e-05
0.0001463796
0.0001461449
0.000145882
0.0001455521
0.0001450486
0.000350643
9.835306e-05
9.823521e-05
9.811711e-05
9.799661e-05
9.788453e-05
0.0001466258
0.0001464085
0.0001461743
0.0001459055
0.0001455629
0.0003531613
0.0003505014
9.847407e-05
9.836151e-05
9.824841e-05
9.813283e-05
9.802466e-05
0.0001468452
0.0001466402
0.0001464248
0.0001461894
0.0001459197
0.0003544633
0.000353175
0.0003505793
9.858202e-05
9.847439e-05
9.836594e-05
9.825485e-05
9.815021e-05
0.000147041
0.0001468453
0.0001466421
0.0001464267
0.0001461931
0.0003553076
0.0003544653
0.0003532738
0.0003507929
9.867786e-05
9.857487e-05
9.847079e-05
9.836392e-05
9.826255e-05
0.0001472162
0.0001470278
0.0001468333
0.0001466297
0.000146416
0.000355932
0.0003552641
0.0003545001
0.0003533972
0.0003511665
9.876242e-05
9.866383e-05
9.856393e-05
9.846106e-05
9.836287e-05
0.0001473727
0.0001471908
0.0001470031
0.0001468076
0.0001466048
0.0003564345
0.000355846
0.000355238
0.0003545267
0.0003535756
0.000930777
9.883632e-05
9.874191e-05
9.864599e-05
9.854696e-05
9.845185e-05
0.000147512
0.000147336
0.0001471542
0.0001469648
0.0001467691
0.0003568587
0.0003563137
0.000355773
0.0003551977
0.0003545849
0.0009382735
0.0009336599
9.890214e-05
9.88118e-05
9.871976e-05
9.86245e-05
9.853249e-05
0.0001476386
0.0001474686
0.0001472923
0.0001471086
0.0001469186
0.0003572405
0.0003567232
0.0003562183
0.0003556997
0.0003552034
0.0009413478
0.0009393299
0.0009365365
9.89612e-05
9.887475e-05
9.878641e-05
9.869474e-05
9.860567e-05
0.0001477539
0.0001475893
0.0001474183
0.0001472397
0.0001470545
0.000357585
0.0003570818
0.0003565824
0.0003560705
0.0003555605
9.902457e-05
9.894227e-05
9.885794e-05
9.877022e-05
9.868459e-05
0.0001478784
0.0001477201
0.0001475554
0.0001473829
0.0001472035
0.0003579626
0.0003574777
0.000356995
0.0003565006
0.0003560072
9.909019e-05
9.901213e-05
9.893197e-05
9.884838e-05
9.876646e-05
0.0001480077
0.0001478561
0.000147698
0.0001475321
0.0001473592
0.0003583565
0.0003578886
0.0003574207
0.0003569405
0.0003564582
9.915706e-05
9.908334e-05
9.900746e-05
9.892816e-05
9.885021e-05
0.0001481401
0.0001479955
0.0001478444
0.0001476855
0.0001475197
0.0003587631
0.0003583118
0.0003578588
0.0003573922
0.0003569211
9.922335e-05
9.9154e-05
9.908246e-05
9.900752e-05
9.893367e-05
0.0001482721
0.0001481347
0.0001479908
0.0001478393
0.0001476808
0.0003591716
0.0003587367
0.0003582981
0.0003578447
0.0003573844
9.716564e-05
9.699498e-05
9.682361e-05
9.664415e-05
9.648034e-05
9.734012e-05
9.717786e-05
9.701621e-05
9.684973e-05
9.669531e-05
0.000144727
9.751292e-05
9.735856e-05
9.720472e-05
9.704771e-05
9.690341e-05
0.0001450688
0.0001447017
9.768628e-05
9.75397e-05
9.739359e-05
9.724463e-05
9.710821e-05
0.0001454022
0.0001450892
0.0001446492
9.785928e-05
9.772032e-05
9.758162e-05
9.744036e-05
9.73104e-05
0.0001457241
0.0001454476
0.0001451039
0.0001445371
9.803405e-05
9.790277e-05
9.77717e-05
9.763821e-05
9.751526e-05
0.0001460474
0.0001457968
0.0001455086
0.0001451167
0.0001443784
9.81927e-05
9.806811e-05
9.794347e-05
9.781649e-05
9.769892e-05
0.0001463358
0.0001461034
0.0001458483
0.0001455392
0.0001450916
0.0003511471
9.833714e-05
9.82187e-05
9.809997e-05
9.797883e-05
9.786614e-05
0.0001465977
0.0001463807
0.0001461486
0.0001458861
0.0001455598
0.0003532527
0.0003508636
9.84664e-05
9.835357e-05
9.824017e-05
9.812429e-05
9.80158e-05
0.0001468315