/*--------------------------------*- C++ -*----------------------------------*\
| =========                 |                                                 |
| \\      /  F ield         | OpenFOAM: The Open Source CFD Toolbox           |
|  \\    /   O peration     | Version:  2306                                  |
|   \\  /    A nd           | Website:  www.openfoam.com                      |
|    \\/     M anipulation  |                                                 |
\*---------------------------------------------------------------------------*/
FoamFile
{
    version     2.0;
    format      ascii;
    arch        "LSB;label=32;scalar=64";
    class       volScalarField;
    location    "1.5/fuel";
    object      H2;
}
// * * * * * * * * * * * * * * * * * * * * * * * * * * * * * * * * * * * * * //

dimensions      [0 0 0 0 0 0 0];

internalField   nonuniform List<scalar> 
16000
(
0.6214897
0.6263118
0.5555621
0.6217681
0.6361112
0.5587279
0.6265964
0.4943278
0.5557739
0.6223124
0.6509901
0.565122
0.6364091
0.4966923
0.5589432
0.6271528
0.4443732
0.4944896
0.5561886
0.6231146
0.6704059
0.5747383
0.6513098
0.5014574
0.5653443
0.6369912
0.4462418
0.4968562
0.5593644
0.6279727
0.4035389
0.4445007
0.4948065
0.5568
0.6241706
0.6915031
0.5871397
0.6707586
0.5086006
0.574972
0.6519345
0.4500004
0.5016258
0.5657794
0.637849
0.4050608
0.4463708
0.4971773
0.5599855
0.6290522
0.3696218
0.4036422
0.4447508
0.4952742
0.5576051
0.625218
0.7076967
0.6004741
0.6918987
0.5177724
0.5873902
0.671448
0.4556186
0.5087761
0.5754293
0.6528549
0.4081174
0.4501324
0.5019556
0.5664208
0.6389782
0.3708882
0.4051652
0.4466237
0.4976512
0.5608034
0.6301227
0.3409974
0.3697073
0.4038448
0.4451198
0.4958903
0.5584035
0.6260864
0.7181609
0.6107235
0.7081193
0.5275862
0.6007457
0.6926722
0.4628052
0.5179585
0.5878804
0.6724638
0.4126757
0.4557555
0.5091198
0.5761035
0.6540667
0.3734282
0.4082239
0.4503912
0.5024422
0.5672653
0.6400982
0.342069
0.3709744
0.4053699
0.446997
0.4982752
0.5616144
0.6310105
0.3165034
0.3410693
0.3698751
0.4041441
0.4456061
0.4965012
0.5590653
0.6269501
0.7241743
0.6174152
0.7185985
0.5351021
0.611007
0.7089453
0.4704625
0.5277855
0.6012776
0.6938124
0.4184888
0.4629494
0.5183229
0.5886031
0.6738015
0.3772092
0.4127858
0.4560239
0.509627
0.5769912
0.6552686
0.3442161
0.3735161
0.4084329
0.4507732
0.5030831
0.5681029
0.6410274
0.3174228
0.3421415
0.3711438
0.4056722
0.4474888
0.4988941
0.5622867
0.6318935
0.2952936
0.3165649
0.3412107
0.370123
0.4045385
0.4460884
0.4970073
0.5597232
0.6278092
0.7268938
0.6213149
0.72462
0.5400035
0.6177045
0.7194535
0.4763079
0.5353082
0.611562
0.7101628
0.4246617
0.4706159
0.5281762
0.6020622
0.6953148
0.3820191
0.4186041
0.463232
0.5188606
0.589555
0.6751287
0.3474074
0.3772997
0.4130017
0.45642
0.5102949
0.5778716
0.6562678
0.3192635
0.34429
0.3736887
0.4087415
0.4512766
0.5037186
0.5687974
0.6419522
0.2960917
0.3174848
0.3422841
0.371394
0.4060706
0.4479765
0.4994069
0.5629551
0.6327718
0.2767395
0.2953468
0.3166858
0.3414198
0.3704499
0.4049297
0.4464879
0.4975103
0.5603772
0.6286634
0.7268938
0.623099
0.7273432
0.5428616
0.6216073
0.7254907
0.4801136
0.5402125
0.6182709
0.7207133
0.4293616
0.4764656
0.5357121
0.6123807
0.7117668
0.3871129
0.4247839
0.4709167
0.5287528
0.6030959
0.6968065
0.3514591
0.3821136
0.4188304
0.4636492
0.5195689
0.5904993
0.6762378
0.3219958
0.3474834
0.3774775
0.4133205
0.4569419
0.5109574
0.5786028
0.657264
0.2976883
0.3193265
0.3444351
0.3739436
0.4091482
0.4517757
0.5042454
0.5694882
0.6428725
0.2774392
0.2961452
0.3176066
0.3424949
0.3717238
0.4064658
0.4483806
0.4999166
0.5636196
0.6336452
0.2603647
0.276786
0.2954514
0.3168646
0.3416954
0.3707741
0.4052536
0.4468848
0.4980102
0.5610274
0.6327955
0.7241743
0.623099
0.7273432
0.5441705
0.6233927
0.7282208
0.4823317
0.5430719
0.6221793
0.7267733
0.432417
0.480273
0.5406221
0.619106
0.722373
0.3909826
0.4294867
0.4767749
0.5363082
0.6134592
0.7133597
0.3557403
0.3872126
0.4250236
0.4713611
0.5295128
0.6041218
0.6980645
0.3254589
0.3515381
0.3822993
0.4191647
0.464199
0.5202715
0.5912869
0.6773495
0.3000558
0.3220604
0.3476325
0.3777401
0.4137407
0.4574595
0.5115073
0.5793312
0.6582573
0.2788381
0.2977427
0.3194503
0.3446495
0.3742797
0.4095517
0.4521894
0.5047693
0.5701753
0.6437883
0.2609834
0.277486
0.2962506
0.3177868
0.3427729
0.3720511
0.406793
0.448782
0.5004231
0.5642802
0.6378706
0.2458014
0.2604057
0.2768775
0.2956061
0.3171004
0.3419689
0.3710426
0.4055755
0.4472791
0.498507
0.5641712
0.6356364
0.7181609
0.6213149
0.72462
0.5441705
0.6233927
0.7282208
0.4833475
0.5443814
0.6239672
0.7295137
0.4341969
0.4824917
0.5434841
0.6230228
0.7284629
0.3934951
0.4325431
0.4805854
0.5412265
0.6202063
0.724021
0.3589867
0.3910844
0.4297322
0.4772317
0.5370938
0.6145296
0.7147033
0.3291114
0.3558234
0.3874086
0.4253778
0.4719468
0.5302669
0.6049844
0.6993371
0.3030522
0.325526
0.3516934
0.3825737
0.4196052
0.4647444
0.5208573
0.592075
0.6784638
0.2809105
0.3001115
0.3221874
0.3478529
0.3780864
0.4141575
0.4578891
0.5120549
0.5800568
0.6592475
0.2622197
0.2788856
0.2978496
0.3196333
0.3449323
0.3746131
0.4098859
0.4526006
0.5052901
0.5708587
0.6482207
0.2463526
0.2610247
0.2775781
0.2964065
0.3180244
0.3430487
0.372322
0.4071182
0.4491809
0.5009265
0.5674748
0.6407889
0.2327609
0.2458378
0.2604864
0.2770128
0.2958103
0.3173344
0.3421953
0.3713092
0.4058952
0.4476709
0.5009083
0.566326
0.6377892
0.7076967
0.6174152
0.7185985
0.5428616
0.6216073
0.7254907
0.4833475
0.5443814
0.6239672
0.7295137
0.4350119
0.4835078
0.5447946
0.6248143
0.7312166
0.3949577
0.4343233
0.4828055
0.5440922
0.6241339
0.7301406
0.3610923
0.3935976
0.4327905
0.4810469
0.5420229
0.6212981
0.7254084
0.3318769
0.3590715
0.3912845
0.4300949
0.4778338
0.5378733
0.6154299
0.7160628
0.3062076
0.3291818
0.3559868
0.3876982
0.4258448
0.472528
0.5309006
0.6058544
0.7006245
0.2835302
0.30311
0.325658
0.351923
0.3829354
0.4200423
0.4651989
0.5214431
0.5928637
0.6795807
0.2640498
0.280959
0.300221
0.3223752
0.3481435
0.3784298
0.4145033
0.4583168
0.5126002
0.5807795
0.6640496
0.2474535
0.2622615
0.2789789
0.2980079
0.3198748
0.3452129
0.3748893
0.4102181
0.4530094
0.5058079
0.5741646
0.6513331
0.2332552
0.2463892
0.2611059
0.2777144
0.2966122
0.3182603
0.343277
0.3725912
0.4074412
0.4495773
0.50336
0.5696723
0.6430109
0.2210135
0.2327935
0.2459095
0.2606058
0.2771915
0.296013
0.3175281
0.3424202
0.3715741
0.4062127
0.4495642
0.5025507
0.5679559
0.6392357
0.6915031
0.6107235
0.7081193
0.5400035
0.6177045
0.7194535
0.4823317
0.5430719
0.6221793
0.7267733
0.4350119
0.4835078
0.5447946
0.6248143
0.7312166
0.3956273
0.4351384
0.483822
0.5454043
0.6259301
0.7329075
0.3623173
0.3950604
0.4345713
0.4832687
0.5448935
0.6252364
0.7315509
0.3336687
0.3611774
0.3937988
0.433156
0.4816551
0.5428132
0.6222149
0.7268096
0.3085936
0.3319485
0.359238
0.3915803
0.4305732
0.4784313
0.5385286
0.6163382
0.7174384
0.2862852
0.3062681
0.3293204
0.3562286
0.3880803
0.4263083
0.4730163
0.5315395
0.6067321
0.7019271
0.2663608
0.2835805
0.3032236
0.3258532
0.3522258
0.3832943
0.4204065
0.4656534
0.5220291
0.5936527
0.6850257
0.249082
0.2640925
0.2810546
0.3003831
0.3226229
0.3484319
0.3787148
0.4148475
0.4587425
0.5131432
0.5842814
0.6676076
0.234242
0.2474906
0.2623438
0.2791171
0.2982166
0.3201144
0.3454452
0.3751638
0.4105482
0.4534156
0.5083121
0.5764692
0.6537473
0.2214594
0.233288
0.2464614
0.2612261
0.2778942
0.2968163
0.3184555
0.3435038
0.3728585
0.407762
0.4514928
0.5050301
0.5713408
0.6445107
0.2103739
0.2210428
0.2328577
0.2460157
0.2607635
0.2773688
0.2961807
0.3177204
0.3426435
0.3718371
0.407747
0.4508571
0.5037915
0.5690494
0.6399625
0.6704059
0.6004741
0.6918987
0.5351021
0.611007
0.7089453
0.4801136
0.5402125
0.6182709
0.7207133
0.4341969
0.4824917
0.5434841
0.6230228
0.7284629
0.3956273
0.4351384
0.483822
0.5454043
0.6259301
0.7329075
0.362878
0.39573
0.4353866
0.484286
0.5462075
0.6270373
0.734328
0.3347107
0.3624025
0.3952619
0.4349377
0.4838793
0.5456885
0.6261609
0.7329731
0.3101382
0.3337406
0.3613447
0.3940963
0.4336379
0.4822585
0.5434763
0.6231382
0.7282247
0.2883661
0.308655
0.3320894
0.3594843
0.3919705
0.4310479
0.4789334
0.5391894
0.6172546
0.7188303
0.2687883
0.2863378
0.3063872
0.3295254
0.3565474
0.3884595
0.4266977
0.4735085
0.5321836
0.6076175
0.7083377
0.2511365
0.266405
0.2836794
0.3033917
0.3261106
0.3525263
0.3835933
0.4207707
0.466108
0.5226152
0.5974933
0.6896648
0.2357009
0.2491199
0.2641766
0.2811959
0.3005969
0.3228688
0.3486711
0.3789984
0.4151901
0.4591664
0.5157731
0.5868344
0.6705445
0.2223492
0.2342752
0.2475637
0.2624656
0.2792995
0.2984238
0.3203128
0.3456761
0.3754365
0.4108763
0.4553801
0.5100531
0.5782459
0.6554068
0.2107782
0.2214888
0.2333525
0.2465682
0.2613848
0.2780727
0.2969852
0.3186494
0.343729
0.373124
0.4093125
0.4528053
0.5062965
0.5724644
0.6452668
0.2006912
0.2104005
0.2211006
0.2329527
0.246156
0.26092
0.2775155
0.2963473
0.3179114
0.3428652
0.3731079
0.4087936
0.4518331
0.5046234
0.5695984
0.6509901
0.5871397
0.6707586
0.5275862
0.6007457
0.6926722
0.4763079
0.5353082
0.611562
0.7101628
0.432417
0.480273
0.5406221
0.619106
0.722373
0.3949577
0.4343233
0.4828055
0.5440922
0.6241339
0.7301406
0.362878
0.39573
0.4353866
0.484286
0.5462075
0.6270373
0.734328
0.3351875
0.3629632
0.3959316
0.4357533
0.4848974
0.5470045
0.6279652
0.7357595
0.3110361
0.3347826
0.3625699
0.3955598
0.4354208
0.484485
0.5463548
0.6270909
0.7344073
0.2897123
0.3101998
0.333882
0.361592
0.3944887
0.4341161
0.4827648
0.544144
0.6240683
0.7296538
0.27062
0.2884194
0.3087759
0.3322979
0.3598092
0.3923577
0.4314467
0.4794397
0.5398558
0.6181792
0.7256808
0.2532925
0.2688344
0.2864413
0.3065634
0.3297959
0.356864
0.388778
0.4270901
0.4740046
0.5328331
0.6119628
0.7151533
0.2375401
0.2511756
0.2664919
0.2838258
0.3036135
0.3263662
0.3527766
0.3838923
0.4211347
0.4665624
0.5254664
0.6006547
0.6941644
0.223664
0.2357348
0.2491944
0.264301
0.2813825
0.3008091
0.3230726
0.3489092
0.3792806
0.4155312
0.4612189
0.5176833
0.5889094
0.6727017
0.2115849
0.222379
0.2343405
0.2476718
0.2626264
0.2794805
0.2985953
0.32051
0.3459056
0.3757075
0.4124625
0.4567435
0.5113931
0.5794606
0.6562554
0.2010596
0.2108049
0.2215469
0.2334481
0.2467093
0.2615423
0.2782205
0.297153
0.3188419
0.3439527
0.3744069
0.4103735
0.4537997
0.5071486
0.5730299
0.1918409
0.2007154
0.2104528
0.2211862
0.2330783
0.2462952
0.2610495
0.2776612
0.2965126
0.3181011
0.3439364
0.3739738
0.4095831
0.4524871
0.5050408
0.6361112
0.5747383
0.6513098
0.5177724
0.5873902
0.671448
0.4704625
0.5277855
0.6012776
0.6938124
0.4293616
0.4764656
0.5357121
0.6123807
0.7117668
0.3934951
0.4325431
0.4805854
0.5412265
0.6202063
0.724021
0.3623173
0.3950604
0.4345713
0.4832687
0.5448935
0.6252364
0.7315509
0.3351875
0.3629632
0.3959316
0.4357533
0.4848974
0.5470045
0.6279652
0.7357595
0.3114469
0.3352594
0.3631306
0.3962296
0.4362368
0.4855041
0.5476721
0.628898
0.737202
0.2904944
0.3110977
0.334924
0.3628173
0.3959527
0.4359001
0.4849926
0.5470248
0.6280265
0.7358536
0.2718042
0.2897657
0.310321
0.3340911
0.3619182
0.394878
0.4345172
0.4832744
0.5448162
0.6250052
0.7366737
0.2549178
0.2706667
0.2885244
0.3089549
0.332573
0.3601317
0.392683
0.4318488
0.4799501
0.5405278
0.6227174
0.7328654
0.2394682
0.2533332
0.2689252
0.2865944
0.306796
0.3300644
0.3571298
0.3890989
0.4274855
0.4745047
0.536019
0.6163457
0.7236987
0.2253202
0.2375749
0.2512527
0.2666206
0.284019
0.3038337
0.326579
0.3530268
0.3841911
0.4214987
0.468773
0.5278013
0.6036269
0.6981739
0.2127761
0.2236944
0.2358014
0.2493049
0.2644653
0.2815676
0.3009851
0.3232755
0.3491461
0.3795615
0.4171824
0.462707
0.5192318
0.5904116
0.6738736
0.2017942
0.2116118
0.2224378
0.2344373
0.2478147
0.262786
0.2796304
0.2987658
0.3207059
0.3461335
0.3770175
0.4135621
0.457792
0.512308
0.5800792
0.1921779
0.2010838
0.2108575
0.2216331
0.2335744
0.2468494
0.2616726
0.2783672
0.2973196
0.3190331
0.3450333
0.3752841
0.411177
0.4544684
0.5075772
0.1837194
0.191863
0.200763
0.2105303
0.2212993
0.233203
0.2464104
0.2611781
0.2778059
0.2966768
0.3190171
0.3446657
0.3746268
0.410112
0.4528151
0.6263118
0.565122
0.6364091
0.5086006
0.574972
0.6519345
0.4628052
0.5179585
0.5878804
0.6724638
0.4246617
0.4706159
0.5281762
0.6020622
0.6953148
0.3909826
0.4294867
0.4767749
0.5363082
0.6134592
0.7133597
0.3610923
0.3935976
0.4327905
0.4810469
0.5420229
0.6212981
0.7254084
0.3347107
0.3624025
0.3952619
0.4349377
0.4838793
0.5456885
0.6261609
0.7329731
0.3114469
0.3352594
0.3631306
0.3962296
0.4362368
0.4855041
0.5476721
0.628898
0.737202
0.2908522
0.3115084
0.3354007
0.363378
0.3966226
0.4367164
0.4860121
0.5483429
0.6298358
0.7386557
0.272492
0.2905478
0.3112188
0.3351331
0.3631437
0.3963425
0.4363016
0.4855028
0.5476984
0.6289676
0.7429475
0.2559681
0.2718509
0.2898708
0.3105003
0.3343671
0.3622421
0.3952046
0.4349209
0.4837873
0.5454929
0.6295954
0.7437028
0.2409207
0.2549591
0.2707587
0.2886797
0.3091911
0.3328462
0.3604026
0.3930109
0.4322541
0.4804647
0.5438246
0.6272474
0.7415402
0.2270552
0.2395045
0.2534136
0.2690597
0.2867967
0.3070269
0.33029
0.3573977
0.3894223
0.4278841
0.4769575
0.5392139
0.6216232
0.7347369
0.2142757
0.2253515
0.2376437
0.2513667
0.2667904
0.2842108
0.3040171
0.3267918
0.353277
0.3844898
0.4232688
0.47058
0.529988
0.6062018
0.7009416
0.2028786
0.2128035
0.2237543
0.2359001
0.2494507
0.2646284
0.2817212
0.3011603
0.3234774
0.3493818
0.3809214
0.4183781
0.4639122
0.5203505
0.5912185
0.1928498
0.2018187
0.211665
0.2225249
0.2345651
0.2479565
0.2629181
0.2797793
0.2989351
0.3209005
0.3472352
0.3779247
0.4144071
0.4585074
0.5127735
0.1840289
0.1922
0.2011316
0.2109355
0.2217468
0.2336998
0.2469653
0.2618021
0.2785129
0.2974851
0.3199566
0.3457715
0.375948
0.4117171
0.4548047
0.1762399
0.1837396
0.1919064
0.2008335
0.2106328
0.2214117
0.2333062
0.2465248
0.2613058
0.2779495
0.2974698
0.3196405
0.3452156
0.3750641
0.4103771
0.6214897
0.5587279
0.6265964
0.5014574
0.5653443
0.6369912
0.4556186
0.5087761
0.5754293
0.6528549
0.4184888
0.4629494
0.5183229
0.5886031
0.6738015
0.3871129
0.4247839
0.4709167
0.5287528
0.6030959
0.6968065
0.3589867
0.3910844
0.4297322
0.4772317
0.5370938
0.6145296
0.7147033
0.3336687
0.3611774
0.3937988
0.433156
0.4816551
0.5428132
0.6222149
0.7268096
0.3110361
0.3347826
0.3625699
0.3955598
0.4354208
0.484485
0.5463548
0.6270909
0.7344073
0.2908522
0.3115084
0.3354007
0.363378
0.3966226
0.4367164
0.4860121
0.5483429
0.6298358
0.7386557
0.2728066
0.2909055
0.3116294
0.3356098
0.3637044
0.3970125
0.437118
0.4865224
0.549017
0.6307785
0.7457809
0.2565779
0.2725387
0.2906527
0.311398
0.335409
0.3634677
0.396669
0.4367051
0.4860157
0.5483757
0.6335728
0.7498201
0.2418588
0.2560094
0.271943
0.2900263
0.310737
0.334641
0.3625136
0.3955332
0.4353272
0.4843036
0.5488073
0.6339886
0.7518219
0.2283614
0.2409574
0.2550405
0.2708949
0.2888849
0.3094256
0.3330756
0.3606757
0.3933414
0.4326626
0.4829888
0.5471012
0.6325151
0.7518774
0.2158455
0.2270878
0.2395761
0.2535326
0.2692372
0.2869975
0.3072208
0.3305172
0.3576676
0.3897483
0.4298388
0.4794146
0.5430439
0.6282184
0.749756
0.204243
0.214304
0.2254133
0.2377455
0.2515173
0.2669591
0.2843705
0.3042004
0.3270045
0.353527
0.3859425
0.4247145
0.4722708
0.5318756
0.6079373
0.1938413
0.2029036
0.2128577
0.223843
0.2360304
0.2495954
0.2647636
0.281874
0.3013345
0.3236783
0.3505229
0.3819053
0.419346
0.4647823
0.5209506
0.1846459
0.1928722
0.201867
0.2117438
0.2226399
0.234692
0.2480739
0.2630494
0.2799272
0.2991033
0.3218409
0.3479976
0.3786216
0.4149834
0.4588713
0.1765251
0.1840492
0.1922437
0.2012026
0.2110384
0.2218597
0.2338036
0.2470804
0.2619306
0.2786575
0.2982841
0.3205872
0.3463301
0.3763941
0.4119886
0.1693289
0.1762585
0.1837795
0.1919709
0.2009267
0.2107345
0.2215046
0.2334086
0.2466383
0.2614325
0.2786431
0.2980092
0.3201103
0.3455836
0.3752833
0.5555621
0.6217681
0.4966923
0.5589432
0.6271528
0.4500004
0.5016258
0.5657794
0.637849
0.4126757
0.4557555
0.5091198
0.5761035
0.6540667
0.3820191
0.4186041
0.463232
0.5188606
0.589555
0.6751287
0.3557403
0.3872126
0.4250236
0.4713611
0.5295128
0.6041218
0.6980645
0.3318769
0.3590715
0.3912845
0.4300949
0.4778338
0.5378733
0.6154299
0.7160628
0.3101382
0.3337406
0.3613447
0.3940963
0.4336379
0.4822585
0.5434763
0.6231382
0.7282247
0.2904944
0.3110977
0.334924
0.3628173
0.3959527
0.4359001
0.4849926
0.5470248
0.6280265
0.7358536
0.2728066
0.2909055
0.3116294
0.3356098
0.3637044
0.3970125
0.437118
0.4865224
0.549017
0.6307785
0.7457809
0.2568567
0.2728532
0.2910104
0.3118085
0.3358855
0.3640283
0.3973389
0.4375214
0.4870351
0.5496943
0.6353892
0.7525786
0.2424033
0.2566191
0.2726306
0.2908082
0.3116345
0.3356828
0.363739
0.3969972
0.4371108
0.4865313
0.5516888
0.6378498
0.7575422
0.2292046
0.2418955
0.2560907
0.2720793
0.2902317
0.310972
0.3348707
0.3627869
0.3958638
0.435736
0.4868316
0.5519689
0.6388825
0.7610421
0.2170266
0.2283943
0.2410299
0.255161
0.2710749
0.2890886
0.3096225
0.3333068
0.3609509
0.3936746
0.4346663
0.4854958
0.5508989
0.638598
0.7640202
0.2056703
0.2158749
0.2271521
0.2396823
0.2536899
0.2694136
0.2871662
0.3074162
0.3307462
0.3579396
0.3913466
0.4317963
0.4823575
0.5478082
0.6369533
0.7756939
0.1950881
0.2042687
0.2143597
0.2255047
0.2378799
0.2516669
0.2670996
0.2845302
0.3043836
0.327217
0.3547426
0.3871281
0.4260666
0.4737291
0.5331445
0.1855559
0.193864
0.2029527
0.2129379
0.2239602
0.2361598
0.2497155
0.2648981
0.282026
0.3015078
0.3246505
0.3513479
0.3827014
0.4200445
0.4652488
0.1770936
0.1846664
0.1929163
0.2019387
0.2118479
0.2227541
0.234797
0.2481906
0.2631798
0.2800741
0.2999161
0.3224913
0.3485831
0.3790968
0.4152765
0.1695927
0.1765438
0.1840893
0.1923085
0.2012962
0.2111407
0.2219532
0.2339066
0.2471946
0.2620582
0.2793561
0.2988294
0.3210642
0.3467053
0.3766183
0.162924
0.1693461
0.1762952
0.1838386
0.1920561
0.2010193
0.2108187
0.2215969
0.2335103
0.246751
0.2620446
0.2791146
0.2984155
0.3204247
0.3457681
0.4943278
0.5557739
0.6223124
0.4462418
0.4968562
0.5593644
0.6279727
0.4081174
0.4501324
0.5019556
0.5664208
0.6389782
0.3772092
0.4127858
0.4560239
0.509627
0.5769912
0.6552686
0.3514591
0.3821136
0.4188304
0.4636492
0.5195689
0.5904993
0.6762378
0.3291114
0.3558234
0.3874086
0.4253778
0.4719468
0.5302669
0.6049844
0.6993371
0.3085936
0.3319485
0.359238
0.3915803
0.4305732
0.4784313
0.5385286
0.6163382
0.7174384
0.2897123
0.3101998
0.333882
0.361592
0.3944887
0.4341161
0.4827648
0.544144
0.6240683
0.7296538
0.272492
0.2905478
0.3112188
0.3351331
0.3631437
0.3963425
0.4363016
0.4855028
0.5476984
0.6289676
0.7429475
0.2568567
0.2728532
0.2910104
0.3118085
0.3358855
0.3640283
0.3973389
0.4375214
0.4870351
0.5496943
0.6353892
0.7525786
0.2426522
0.2568979
0.272945
0.2911657
0.3120449
0.3361593
0.3642994
0.3976668
0.4379265
0.4875502
0.5530056
0.6396117
0.7601217
0.2296939
0.24244
0.2567003
0.2727668
0.2910133
0.3118693
0.3359122
0.3640116
0.397327
0.4375184
0.4890527
0.5547573
0.6424885
0.7661069
0.2177887
0.2292375
0.2419679
0.2562112
0.2722594
0.2904357
0.311169
0.3351018
0.3630618
0.3961966
0.4377376
0.4892419
0.5554827
0.6442665
0.7713279
0.2067436
0.2170563
0.2284593
0.2411373
0.2553201
0.2712535
0.2892596
0.309821
0.3335398
0.3612282
0.3953082
0.4366563
0.4884001
0.5552698
0.6455479
0.7804385
0.1963916
0.205697
0.2159329
0.2272474
0.2398225
0.2538461
0.2695617
0.2873361
0.3076131
0.3309769
0.3592733
0.3929471
0.4341402
0.486013
0.5540875
0.6517279
0.7903255
0.1866997
0.1951114
0.2043193
0.2144423
0.2256256
0.2380135
0.2517914
0.26724
0.2846898
0.3045667
0.3282504
0.3557342
0.3882368
0.4272323
0.4747089
0.1779319
0.1855767
0.1939089
0.2030256
0.2130439
0.2240766
0.2362671
0.2498349
0.265032
0.2821772
0.3023469
0.3253531
0.3520153
0.3832757
0.420419
0.1701182
0.1771125
0.1847068
0.1929817
0.2020333
0.2119513
0.2228487
0.2349014
0.2483064
0.2633093
0.2807841
0.3004779
0.3229906
0.3489822
0.3793384
0.1631685
0.1696099
0.1765807
0.1841487
0.1923941
0.2013893
0.2112254
0.222046
0.2340089
0.2473081
0.2626744
0.2798326
0.2992418
0.3213845
0.3468939
0.1569715
0.1629399
0.16938
0.1763497
0.1839168
0.1921408
0.201096
0.2109023
0.2216885
0.2336112
0.2472953
0.2624605
0.2794698
0.2986875
0.3205823
0.4443732
0.4944896
0.5561886
0.6231146
0.4050608
0.4463708
0.4971773
0.5599855
0.6290522
0.3734282
0.4082239
0.4503912
0.5024422
0.5672653
0.6400982
0.3474074
0.3772997
0.4130017
0.45642
0.5102949
0.5778716
0.6562678
0.3254589
0.3515381
0.3822993
0.4191647
0.464199
0.5202715
0.5912869
0.6773495
0.3062076
0.3291818
0.3559868
0.3876982
0.4258448
0.472528
0.5309006
0.6058544
0.7006245
0.2883661
0.308655
0.3320894
0.3594843
0.3919705
0.4310479
0.4789334
0.5391894
0.6172546
0.7188303
0.2718042
0.2897657
0.310321
0.3340911
0.3619182
0.394878
0.4345172
0.4832744
0.5448162
0.6250052
0.7366737
0.2565779
0.2725387
0.2906527
0.311398
0.335409
0.3634677
0.396669
0.4367051
0.4860157
0.5483757
0.6335728
0.7498201
0.2426522
0.2568979
0.272945
0.2911657
0.3120449
0.3361593
0.3642994
0.3976668
0.4379265
0.4875502
0.5530056
0.6396117
0.7601217
0.2299175
0.2426889
0.256979
0.273081
0.2913706
0.3122795
0.3363884
0.3645717
0.397996
0.4383335
0.4900675
0.5560307
0.6441368
0.7684066
0.2182309
0.2297267
0.2425122
0.2568206
0.2729465
0.291217
0.3120659
0.3361426
0.3642856
0.3976584
0.4395117
0.4913868
0.5580798
0.6474717
0.775484
0.207436
0.2178184
0.2293024
0.2420752
0.2563704
0.2724381
0.2906066
0.3113672
0.3353343
0.3633384
0.3978254
0.4396458
0.4919201
0.5593392
0.6500999
0.78465
0.1973713
0.2067706
0.2171149
0.2285556
0.2412791
0.2554782
0.2714036
0.289432
0.3100211
0.3337747
0.3625883
0.3969307
0.4389613
0.4917393
0.5602468
0.6547065
0.7923988
0.187895
0.1964159
0.2057496
0.2160189
0.2273733
0.2399619
0.2539772
0.2697109
0.2875073
0.3078114
0.3321081
0.3606087
0.3948633
0.4370494
0.4908204
0.5646547
0.6606049
0.8013426
0.178985
0.1867211
0.1951576
0.2043943
0.2145515
0.2257456
0.2381247
0.2519159
0.2673803
0.2848492
0.3054568
0.3290931
0.3566613
0.3891925
0.4280156
0.1708928
0.177951
0.1856178
0.1939755
0.203122
0.2131492
0.2241731
0.2363739
0.2499537
0.2651651
0.2829091
0.3029529
0.3259213
0.3524967
0.3835836
0.1636558
0.1701356
0.1771497
0.1847668
0.1930682
0.2021274
0.2120369
0.2229426
0.235005
0.2484215
0.263935
0.2812746
0.3009092
0.3233309
0.3491851
0.1571989
0.1631845
0.1696439
0.1766354
0.1842272
0.1924792
0.2014663
0.2113094
0.2221381
0.2341105
0.2478559
0.2630946
0.2801929
0.2995187
0.3215455
0.1514253
0.1569863
0.1629713
0.1694303
0.1764216
0.1839945
0.1922108
0.201172
0.2109853
0.2217794
0.2340985
0.2476651
0.2627738
0.2797074
0.2988237
0.4035389
0.4445007
0.4948065
0.5568
0.6241706
0.3708882
0.4051652
0.4466237
0.4976512
0.5608034
0.6301227
0.3442161
0.3735161
0.4084329
0.4507732
0.5030831
0.5681029
0.6410274
0.3219958
0.3474834
0.3774775
0.4133205
0.4569419
0.5109574
0.5786028
0.657264
0.3030522
0.325526
0.3516934
0.3825737
0.4196052
0.4647444
0.5208573
0.592075
0.6784638
0.2862852
0.3062681
0.3293204
0.3562286
0.3880803
0.4263083
0.4730163
0.5315395
0.6067321
0.7019271
0.27062
0.2884194
0.3087759
0.3322979
0.3598092
0.3923577
0.4314467
0.4794397
0.5398558
0.6181792
0.7256808
0.2559681
0.2718509
0.2898708
0.3105003
0.3343671
0.3622421
0.3952046
0.4349209
0.4837873
0.5454929
0.6295954
0.7437028
0.2424033
0.2566191
0.2726306
0.2908082
0.3116345
0.3356828
0.363739
0.3969972
0.4371108
0.4865313
0.5516888
0.6378498
0.7575422
0.2299175
0.2426889
0.256979
0.273081
0.2913706
0.3122795
0.3363884
0.3645717
0.397996
0.4383335
0.4900675
0.5560307
0.6441368
0.7684066
0.218433
0.2299503
0.242761
0.2570992
0.2732606
0.2915742
0.3124759
0.3366184
0.3648451
0.3983267
0.4403222
0.4923662
0.559268
0.6489505
0.7774147
0.2078375
0.2182605
0.2297915
0.2426193
0.2569795
0.273125
0.2913875
0.3122634
0.3363741
0.3645609
0.3992785
0.4413567
0.4939139
0.5616428
0.6527665
0.7875055
0.1980031
0.2074628
0.2178769
0.2293986
0.242217
0.2565285
0.272588
0.2907787
0.3115666
0.3355682
0.3646924
0.3993781
0.4417662
0.4948577
0.5635081
0.6574451
0.7948193
0.1887929
0.1973958
0.2068237
0.2172017
0.2286828
0.24142
0.255611
0.2715548
0.2896058
0.3102227
0.3349261
0.3639391
0.39881
0.44161
0.4955357
0.5667847
0.6620481
0.8023986
0.180085
0.1879172
0.1964638
0.2058276
0.2161326
0.2274983
0.2400788
0.2541093
0.2698612
0.2876798
0.3087839
0.3332407
0.3622074
0.3972402
0.4408697
0.4988872
0.5709724
0.6678007
0.8099046
0.1718657
0.1790047
0.1867634
0.195226
0.2044935
0.21466
0.2258455
0.2382359
0.2520403
0.2675205
0.2856245
0.3061824
0.3298809
0.3574605
0.3898345
0.1643738
0.1709105
0.1779888
0.1856788
0.1940634
0.2032177
0.2132365
0.2242692
0.2364801
0.2500719
0.2658095
0.2834376
0.3034429
0.3263311
0.3527548
0.1576519
0.1636719
0.1701699
0.1772049
0.1848461
0.1931541
0.2022052
0.2121219
0.2230359
0.235108
0.2489774
0.2643673
0.2816511
0.301203
0.3235039
0.1516373
0.1572137
0.163216
0.1696945
0.1767077
0.1843053
0.1925496
0.2015428
0.2113928
0.2222296
0.2346008
0.2482293
0.2634122
0.2804347
0.2996578
0.1462454
0.1514391
0.1570154
0.1630179
0.1694968
0.1764932
0.1840588
0.1922803
0.2012475
0.2110676
0.2222184
0.2344295
0.2479436
0.2629834
0.2798265
0.3696218
0.4036422
0.4447508
0.4952742
0.5576051
0.625218
0.342069
0.3709744
0.4053699
0.446997
0.4982752
0.5616144
0.6310105
0.3192635
0.34429
0.3736887
0.4087415
0.4512766
0.5037186
0.5687974
0.6419522
0.3000558
0.3220604
0.3476325
0.3777401
0.4137407
0.4574595
0.5115073
0.5793312
0.6582573
0.2835302
0.30311
0.325658
0.351923
0.3829354
0.4200423
0.4651989
0.5214431
0.5928637
0.6795807
0.2687883
0.2863378
0.3063872
0.3295254
0.3565474
0.3884595
0.4266977
0.4735085
0.5321836
0.6076175
0.7083377
0.2549178
0.2706667
0.2885244
0.3089549
0.332573
0.3601317
0.392683
0.4318488
0.4799501
0.5405278
0.6227174
0.7328654
0.2418588
0.2560094
0.271943
0.2900263
0.310737
0.334641
0.3625136
0.3955332
0.4353272
0.4843036
0.5488073
0.6339886
0.7518219
0.2296939
0.24244
0.2567003
0.2727668
0.2910133
0.3118693
0.3359122
0.3640116
0.397327
0.4375184
0.4890527
0.5547573
0.6424885
0.7661069
0.218433
0.2299503
0.242761
0.2570992
0.2732606
0.2915742
0.3124759
0.3366184
0.3648451
0.3983267
0.4403222
0.4923662
0.559268
0.6489505
0.7774147
0.2080211
0.2184625
0.230015
0.242868
0.2572578
0.2734389
0.2917445
0.312673
0.3368494
0.3651197
0.3999423
0.4421379
0.4948262
0.5627069
0.6540289
0.7889255
0.1983695
0.2078643
0.2183188
0.2298874
0.2427608
0.2571372
0.2732744
0.2915589
0.3124619
0.3366067
0.3659065
0.4007781
0.4433545
0.496623
0.5654225
0.6593593
0.7967003
0.1893718
0.1980276
0.2075159
0.2179636
0.2295257
0.2423578
0.256661
0.2727388
0.2909517
0.3117672
0.3367131
0.3659832
0.4011036
0.4440911
0.4980301
0.5687466
0.6637671
0.8038165
0.180911
0.1888153
0.1974442
0.2069024
0.2173165
0.2288092
0.2415383
0.2557447
0.2717072
0.2897809
0.3112111
0.3360697
0.3655038
0.4009687
0.4446185
0.5005135
0.5720154
0.6686749
0.8105367
0.1728813
0.1801054
0.1879611
0.196535
0.2059308
0.2162455
0.2276034
0.2401967
0.2542424
0.2700127
0.2885254
0.3097576
0.3345965
0.3641897
0.4003584
0.447267
0.5036847
0.5760935
0.6737677
0.8165889
0.1652752
0.1718838
0.1790435
0.186826
0.1953165
0.204592
0.2147503
0.2259454
0.2383469
0.2521646
0.2682021
0.2862562
0.3068607
0.3305598
0.3579973
0.1583192
0.1643901
0.1709454
0.1780449
0.1857594
0.1941508
0.2032971
0.2133234
0.2243647
0.2365857
0.2506438
0.2662746
0.2838648
0.3037963
0.3265508
0.1520595
0.1576668
0.1637037
0.1702209
0.1772779
0.1849249
0.1932253
0.2022826
0.2122063
0.2231286
0.2356053
0.2493613
0.2646989
0.2819075
0.3013524
0.1464435
0.1516511
0.157243
0.1632628
0.1697613
0.1767796
0.1843699
0.1926194
0.2016187
0.2114756
0.2226711
0.234935
0.2485115
0.2636254
0.2805562
0.1413969
0.1462582
0.1514662
0.1570587
0.1630795
0.1695629
0.1765524
0.1841226
0.1923493
0.2013225
0.2114652
0.2225165
0.2346788
0.2481298
0.2630884
0.3409974
0.3697073
0.4038448
0.4451198
0.4958903
0.5584035
0.6260864
0.3174228
0.3421415
0.3711438
0.4056722
0.4474888
0.4988941
0.5622867
0.6318935
0.2976883
0.3193265
0.3444351
0.3739436
0.4091482
0.4517757
0.5042454
0.5694882
0.6428725
0.2809105
0.3001115
0.3221874
0.3478529
0.3780864
0.4141575
0.4578891
0.5120549
0.5800568
0.6592475
0.2663608
0.2835805
0.3032236
0.3258532
0.3522258
0.3832943
0.4204065
0.4656534
0.5220291
0.5936527
0.6850257
0.2532925
0.2688344
0.2864413
0.3065634
0.3297959
0.356864
0.388778
0.4270901
0.4740046
0.5328331
0.6119628
0.7151533
0.2409207
0.2549591
0.2707587
0.2886797
0.3091911
0.3328462
0.3604026
0.3930109
0.4322541
0.4804647
0.5438246
0.6272474
0.7415402
0.2292046
0.2418955
0.2560907
0.2720793
0.2902317
0.310972
0.3348707
0.3627869
0.3958638
0.435736
0.4868316
0.5519689
0.6388825
0.7610421
0.2182309
0.2297267
0.2425122
0.2568206
0.2729465
0.291217
0.3120659
0.3361426
0.3642856
0.3976584
0.4395117
0.4913868
0.5580798
0.6474717
0.775484
0.2080211
0.2184625
0.230015
0.242868
0.2572578
0.2734389
0.2917445
0.312673
0.3368494
0.3651197
0.3999423
0.4421379
0.4948262
0.5627069
0.6540289
0.7889255
0.1985369
0.2080478
0.2185208
0.2301109
0.2430093
0.2574154
0.2735881
0.2919154
0.312871
0.3370814
0.366461
0.4014172
0.4440811
0.4974386
0.5663301
0.6603296
0.7976979
0.1897074
0.1983939
0.2079172
0.2184054
0.2300142
0.2429013
0.2572693
0.2734246
0.291731
0.3126612
0.3377438
0.3671519
0.4024019
0.4454957
0.499495
0.5701217
0.665132
0.8050226
0.1814434
0.1893941
0.1980758
0.2075945
0.2180783
0.229652
0.2424759
0.2567943
0.2728905
0.2911258
0.312749
0.3378045
0.3674176
0.4029951
0.4466004
0.5020116
0.5732586
0.6698374
0.8114288
0.1736438
0.1809316
0.1888596
0.197516
0.2070066
0.2174306
0.2289154
0.2416576
0.2558796
0.2718608
0.2906392
0.3121928
0.3373944
0.3673004
0.4034187
0.4485578
0.5044841
0.5767387
0.674412
0.8170295
0.1662159
0.1729002
0.1801457
0.1880262
0.196629
0.2060333
0.2163403
0.2277092
0.2403154
0.2543765
0.2707551
0.289372
0.3109231
0.3362771
0.366788
0.4055714
0.4510571
0.5075631
0.5803417
0.6786683
0.821731
0.1591568
0.165292
0.1719196
0.1791011
0.1869089
0.1954064
0.204674
0.2148406
0.2260452
0.2384579
0.2527688
0.2687575
0.2868468
0.3074452
0.3310159
0.1526813
0.1583344
0.1644224
0.1709971
0.1781191
0.1858396
0.1942232
0.203376
0.2134097
0.2244597
0.2370969