/*--------------------------------*- C++ -*----------------------------------*\
| =========                 |                                                 |
| \\      /  F ield         | OpenFOAM: The Open Source CFD Toolbox           |
|  \\    /   O peration     | Version:  2306                                  |
|   \\  /    A nd           | Website:  www.openfoam.com                      |
|    \\/     M anipulation  |                                                 |
\*---------------------------------------------------------------------------*/
FoamFile
{
    version     2.0;
    format      ascii;
    arch        "LSB;label=32;scalar=64";
    class       volScalarField;
    location    "1.5/fuel";
    object      iDmdtfuel.H2O;
}
// * * * * * * * * * * * * * * * * * * * * * * * * * * * * * * * * * * * * * //

dimensions      [1 -3 -1 0 0 0 0];

internalField   nonuniform List<scalar> 
16000
(
84.49689
85.26526
77.35904
80.58076
86.8167
77.85986
81.29288
71.34985
73.95784
77.82186
89.15092
78.8457
82.72979
71.73264
74.42423
78.49666
66.53381
68.36358
71.54184
76.13153
92.17909
80.26256
84.88953
72.47727
75.34186
79.85803
66.84667
68.7215
71.98485
76.78578
62.53503
63.86735
66.22945
70.04093
75.41989
95.43967
81.9747
87.68806
73.52452
76.65972
81.90391
67.45071
69.41743
72.85628
78.1061
62.8003
64.16083
66.57021
70.47038
76.06827
59.09751
60.12501
61.95364
64.89083
69.38393
0
97.89259
83.64326
90.6975
74.74502
78.25081
84.5553
68.28865
70.39556
74.10749
80.09169
63.30979
64.72722
67.23263
71.31523
77.37775
59.32761
60.37452
62.23361
65.22134
69.80847
0
56.08041
56.90082
58.38978
60.74554
64.29052
0
0
99.43334
84.76916
92.95309
75.86776
79.79984
87.40786
69.24223
71.53452
75.61789
82.66881
64.00979
65.51244
68.16335
72.52858
79.34998
59.76784
60.85358
62.77382
65.86385
70.64398
0
56.28341
57.11778
58.62825
61.01732
64.61692
0
0
53.38762
54.06523
55.31517
57.28933
60.19581
0
0
0
100.3006
85.39724
94.36531
76.56279
80.84202
89.54039
70.08494
72.58115
77.08826
85.44781
64.79284
66.40521
69.24676
73.99425
81.91681
60.36831
61.51134
63.52246
66.76664
71.84478
0
56.67062
57.5327
59.08598
61.54168
65.25155
0
0
53.56894
54.25705
55.52287
57.52102
60.46412
0
0
0
50.95677
51.52967
52.60756
54.30608
56.78378
0
0
0
0
100.6873
85.71557
95.15839
76.90098
81.42193
90.87302
70.5726
73.22716
78.07494
87.52259
65.46437
67.1932
70.24186
75.42241
84.69562
61.03124
62.24644
64.37325
67.8178
73.29729
0
57.1958
58.09829
59.71422
62.26832
66.14363
0
0
53.91393
54.62279
55.91997
57.9657
60.98187
0
0
0
51.12031
51.70133
52.79148
54.50806
57.01253
0
0
0
0
48.74143
49.2367
50.18336
51.67739
53.83942
0
0
0
0
0
100.6873
85.84746
95.51157
77.04351
81.71532
91.62064
70.78005
73.54052
78.62299
88.81855
65.83237
67.64772
70.85421
76.37865
86.77013
61.58642
62.87593
65.12355
68.78348
74.71522
0
57.76958
58.72209
60.41592
63.0941
67.18313
0
0
54.37969
55.11853
56.46105
58.57596
61.69949
0
0
0
51.43084
52.02783
53.14204
54.89417
57.45159
0
0
0
0
48.89008
49.39181
50.34817
51.85639
54.03886
0
0
0
0
0
46.70776
47.14351
47.9884
49.32234
51.24513
0
0
0
0
0
0
100.3006
85.84746
95.51157
77.0924
81.83675
91.95343
70.84713
73.67215
78.90009
89.54587
65.96957
67.84019
71.15043
76.90934
88.06723
61.87701
63.21963
65.55477
69.37591
75.66295
0
58.24089
59.24363
61.01611
63.8221
68.13884
0
0
54.88416
55.65956
57.05742
59.25744
62.51537
0
0
0
51.84845
52.46833
53.617
55.42019
58.0542
0
0
0
0
49.17184
49.68622
50.66155
52.19753
54.42016
0
0
0
0
0
46.84376
47.28473
48.13752
49.48288
51.42193
0
0
0
0
0
0
44.82927
45.21892
45.98232
47.1886
48.92074
0
0
0
0
0
0
0
99.43334
85.71557
95.15839
77.0924
81.83675
91.95343
70.86144
73.71715
79.01479
89.8698
65.99876
67.9019
71.27458
77.17784
88.79647
61.97186
63.3469
65.73655
69.66188
76.18893
0
58.47805
59.51548
61.34245
64.23891
68.72342
0
0
55.29182
56.10316
57.55532
59.83992
63.23471
0
0
0
52.29744
52.94492
54.13497
55.99978
58.72729
0
0
0
0
49.5495
50.08189
51.08418
52.65965
54.93964
0
0
0
0
0
47.10113
47.55231
48.42047
49.78809
51.75889
0
0
0
0
0
0
44.95435
45.34832
46.11825
47.33397
49.07936
0
0
0
0
0
0
0
43.0853
43.43849
44.13574
45.23719
46.8145
0
0
0
0
0
0
0
0
97.89259
85.39724
94.36531
77.04351
81.71532
91.62064
70.86144
73.71715
79.01479
89.8698
65.99653
67.91479
71.31695
77.28912
89.12177
61.97998
63.37333
65.79437
69.78163
76.45558
0
58.54561
59.60335
61.46243
64.41385
69.00512
0
0
55.48987
56.32535
57.81362
60.15518
63.6449
0
0
0
52.65517
53.32928
54.55898
56.48318
59.30237
0
0
0
0
49.95292
50.5068
51.54106
53.16342
55.51207
0
0
0
0
0
47.44508
47.91071
48.80056
50.19961
52.21536
0
0
0
0
0
0
45.19077
45.59312
46.37573
47.60975
49.38091
0
0
0
0
0
0
0
43.20088
43.55769
44.26043
45.36979
46.95816
0
0
0
0
0
0
0
0
41.45918
41.78318
42.4256
43.43973
44.88787
0
0
0
0
0
0
0
0
0
95.43967
84.76916
92.95309
76.90098
81.42193
90.87302
70.84713
73.67215
78.90009
89.54587
65.99653
67.91479
71.31695
77.28912
89.12177
61.96914
63.37077
65.80623
69.82251
76.56635
0
58.54133
59.61008
61.48673
64.46914
69.12314
0
0
55.53868
56.38777
57.89623
60.27026
63.81635
0
0
0
52.82349
53.51505
54.77023
56.73266
59.61212
0
0
0
0
50.27033
50.84463
51.90887
53.57529
55.98916
0
0
0
0
0
47.81041
48.29312
49.20841
50.64429
52.71297
0
0
0
0
0
0
45.50588
45.92004
46.72043
47.98014
49.78751
0
0
0
0
0
0
0
43.4191
43.78288
44.49625
45.62093
47.23072
0
0
0
0
0
0
0
0
41.56642
41.89347
42.54058
43.56146
45.01896
0
0
0
0
0
0
0
0
0
39.93727
40.2376
40.83397
41.77402
43.11287
0
0
0
0
0
0
0
0
0
0
92.17909
83.64326
90.6975
76.56279
80.84202
89.54039
70.78005
73.54052
78.62299
88.81855
65.99876
67.9019
71.27458
77.17784
88.79647
61.96914
63.37077
65.80623
69.82251
76.56635
0
58.52585
59.59944
61.48386
64.48033
69.16352
0
0
55.52667
56.38286
57.90178
60.29302
63.87029
0
0
0
52.85887
53.55996
54.82871
56.8116
59.72439
0
0
0
0
50.41527
51.00267
52.08561
53.77932
56.23402
0
0
0
0
0
48.09461
48.59332
49.53205
51.00177
53.11941
0
0
0
0
0
0
45.83885
46.26686
47.08791
48.37739
50.22684
0
0
0
0
0
0
0
43.70924
44.08282
44.81103
45.95708
47.59679
0
0
0
0
0
0
0
0
41.76867
42.10161
42.75774
43.79164
45.26724
0
0
0
0
0
0
0
0
0
40.03712
40.34006
40.94047
41.88634
43.23324
0
0
0
0
0
0
0
0
0
0
38.5082
38.78915
39.34634
40.22274
41.46758
0
0
0
0
0
0
0
0
0
0
89.15092
81.9747
87.68806
75.86776
79.79984
87.40786
70.5726
73.22716
78.07494
87.52259
65.96957
67.84019
71.15043
76.90934
88.06723
61.97998
63.37333
65.79437
69.78163
76.45558
0
58.52585
59.59944
61.48386
64.48033
69.16352
0
0
55.50862
56.36784
57.8912
60.28988
63.88109
0
0
0
52.8419
53.5478
54.82318
56.81618
59.74609
0
0
0
0
50.44065
51.03503
52.12747
53.83494
56.31065
0
0
0
0
0
48.22075
48.72954
49.6825
51.17247
53.31952
0
0
0
0
0
0
46.09522
46.53602
47.3758
48.69212
50.57962
0
0
0
0
0
0
0
44.0144
44.39937
45.14468
46.31526
47.98935
0
0
0
0
0
0
0
0
42.037
42.37816
43.04685
44.09882
45.59957
0
0
0
0
0
0
0
0
0
40.22527
40.53322
41.14139
42.09845
43.46087
0
0
0
0
0
0
0
0
0
0
38.60148
38.88467
39.44537
40.32684
41.57869
0
0
0
0
0
0
0
0
0
0
37.16249
37.42733
37.95084
38.77193
39.93496
0
0
0
0
0
0
0
0
0
0
86.8167
80.26256
84.88953
74.74502
78.25081
84.5553
70.08494
72.58115
77.08826
85.44781
65.83237
67.64772
70.85421
76.37865
86.77013
61.97186
63.3469
65.73655
69.66188
76.18893
0
58.54133
59.61008
61.48673
64.46914
69.12314
0
0
55.50862
56.36784
57.8912
60.28988
63.88109
0
0
0
52.82244
53.53033
54.8084
56.80553
59.74268
0
0
0
0
50.4204
51.01818
52.11502
53.8288
56.31442
0
0
0
0
0
48.23852
48.75255
49.71245
51.21207
53.37325
0
0
0
0
0
0
46.20595
46.65468
47.50556
48.83745
50.74698
0
0
0
0
0
0
0
44.24713
44.64249
45.40306
46.59539
48.29999
0
0
0
0
0
0
0
0
42.31801
42.66866
43.3517
44.42424
45.95362
0
0
0
0
0
0
0
0
0
40.4744
40.78931
41.40822
42.38077
43.76465
0
0
0
0
0
0
0
0
0
0
38.77709
39.06458
39.63201
40.52321
41.78851
0
0
0
0
0
0
0
0
0
0
37.24987
37.51666
38.04324
38.86879
40.03797
0
0
0
0
0
0
0
0
0
0
35.89212
36.14337
36.63757
37.41013
38.50124
0
0
0
0
0
0
0
0
0
0
85.26526
78.8457
82.72979
73.52452
76.65972
81.90391
69.24223
71.53452
75.61789
82.66881
65.46437
67.1932
70.24186
75.42241
84.69562
61.87701
63.21963
65.55477
69.37591
75.66295
0
58.54561
59.60335
61.46243
64.41385
69.00512
0
0
55.52667
56.38286
57.90178
60.29302
63.87029
0
0
0
52.82244
53.53033
54.8084
56.80553
59.74268
0
0
0
0
50.40022
50.99938
52.09791
53.81408
56.30359
0
0
0
0
0
48.2161
48.7326
49.69554
51.19924
53.36647
0
0
0
0
0
0
46.21781
46.67056
47.52663
48.86557
50.785
0
0
0
0
0
0
0
44.34505
44.74674
45.51615
46.72075
48.44244
0
0
0
0
0
0
0
0
42.53045
42.88964
43.5853
44.67581
46.23016
0
0
0
0
0
0
0
0
0
40.73425
41.05716
41.68825
42.67829
44.08642
0
0
0
0
0
0
0
0
0
0
39.00918
39.30262
39.87934
40.78394
42.06778
0
0
0
0
0
0
0
0
0
0
37.41426
37.68477
38.21724
39.05131
40.23227
0
0
0
0
0
0
0
0
0
0
35.97418
36.22715
36.72405
37.50057
38.59711
0
0
0
0
0
0
0
0
0
0
34.6902
34.92987
35.39826
36.12783
37.15515
0
0
0
0
0
0
0
0
0
0
84.49689
77.85986
81.29288
72.47727
75.34186
79.85803
68.28865
70.39556
74.10749
80.09169
64.79284
66.40521
69.24676
73.99425
81.91681
61.58642
62.87593
65.12355
68.78348
74.71522
0
58.47805
59.51548
61.34245
64.23891
68.72342
0
0
55.53868
56.38777
57.89623
60.27026
63.81635
0
0
0
52.8419
53.5478
54.82318
56.81618
59.74609
0
0
0
0
50.40022
50.99938
52.09791
53.81408
56.30359
0
0
0
0
0
48.19562
48.7131
49.67713
51.18225
53.35163
0
0
0
0
0
0
46.19396
46.64855
47.50677
48.84843
50.77167
0
0
0
0
0
0
0
44.35225
44.75706
45.53045
46.74032
48.46922
0
0
0
0
0
0
0
0
42.61758
42.98189
43.6847
44.78509
46.35301
0
0
0
0
0
0
0
0
0
40.9291
41.2591
41.90078
42.90587
44.33482
0
0
0
0
0
0
0
0
0
0
39.25038
39.55061
40.13777
41.05742
42.36205
0
0
0
0
0
0
0
0
0
0
37.63116
37.9068
38.44735
39.29313
40.49027
0
0
0
0
0
0
0
0
0
0
36.12849
36.3847
36.88678
37.67082
38.77776
0
0
0
0
0
0
0
0
0
0
34.76746
35.00864
35.47943
36.21252
37.24468
0
0
0
0
0
0
0
0
0
0
33.55078
33.78047
34.22593
34.91704
35.88732
0
0
0
0
0
0
0
0
0
0
77.35904
80.58076
71.73264
74.42423
78.49666
67.45071
69.41743
72.85628
78.1061
64.00979
65.51244
68.16335
72.52858
79.34998
61.03124
62.24644
64.37325
67.8178
73.29729
0
58.24089
59.24363
61.01611
63.8221
68.13884
0
0
55.48987
56.32535
57.81362
60.15518
63.6449
0
0
0
52.85887
53.55996
54.82871
56.8116
59.72439
0
0
0
0
50.4204
51.01818
52.11502
53.8288
56.31442
0
0
0
0
0
48.19562
48.7131
49.67713
51.18225
53.35163
0
0
0
0
0
0
46.17344
46.62875
47.48768
48.83019
50.7546
0
0
0
0
0
0
0
44.3275
44.73371
45.50863
46.72033
48.45169
0
0
0
0
0
0
0
0
42.62106
42.98784
43.69374
44.79814
46.37144
0
0
0
0
0
0
0
0
0
41.00706
41.34124
41.98878
43.00193
44.44189
0
0
0
0
0
0
0
0
0
0
39.42987
39.73604
40.33216
41.26458
42.58682
0
0
0
0
0
0
0
0
0
0
0
37.8558
38.13724
38.68683
39.54567
40.76083
0
0
0
0
0
0
0
0
0
0
36.33175
36.59242
37.10159
37.89594
39.01711
0
0
0
0
0
0
0
0
0
0
34.91265
35.15668
35.63206
36.37184
37.41324
0
0
0
0
0
0
0
0
0
0
33.62367
33.85469
34.30231
34.99657
35.97119
0
0
0
0
0
0
0
0
0
0
32.46864
32.68964
33.11458
33.77106
34.6899
0
0
0
0
0
0
0
0
0
0
71.34985
73.95784
77.82186
66.84667
68.7215
71.98485
76.78578
63.30979
64.72722
67.23263
71.31523
77.37775
60.36831
61.51134
63.52246
66.76664
71.84478
0
57.76958
58.72209
60.41592
63.0941
67.18313
0
0
55.29182
56.10316
57.55532
59.83992
63.23471
0
0
0
52.82349
53.51505
54.77023
56.73266
59.61212
0
0
0
0
50.44065
51.03503
52.12747
53.83494
56.31065
0
0
0
0
0
48.2161
48.7326
49.69554
51.19924
53.36647
0
0
0
0
0
0
46.17344
46.62875
47.48768
48.83019
50.7546
0
0
0
0
0
0
0
44.30713
44.71386
45.48925
46.70144
48.4334
0
0
0
0
0
0
0
0
42.59579
42.96363
43.67063
44.77627
46.35114
0
0
0
0
0
0
0
0
0
41.00757
41.34371
41.99366
43.00992
44.45397
0
0
0
0
0
0
0
0
0
0
39.49998
39.80958
40.41055
41.34964
42.68094
0
0
0
0
0
0
0
0
0
0
0
38.02177
38.30824
38.86547
39.73525
40.96548
0
0
0
0
0
0
0
0
0
0
0
0
36.5416
36.80727
37.32433
38.13009
39.26702
0
0
0
0
0
0
0
0
0
0
35.10363
35.35155
35.83319
36.5821
37.63611
0
0
0
0
0
0
0
0
0
0
33.76061
33.99414
34.44584
35.14609
36.12896
0
0
0
0
0
0
0
0
0
0
32.53756
32.75974
33.18661
33.84593
34.76868
0
0
0
0
0
0
0
0
0
0
31.43923
31.65258
32.05901
32.6841
33.55629
0
0
0
0
0
0
0
0
0
0
66.53381
68.36358
71.54184
76.13153
62.8003
64.16083
66.57021
70.47038
76.06827
59.76784
60.85358
62.77382
65.86385
70.64398
0
57.1958
58.09829
59.71422
62.26832
66.14363
0
0
54.88416
55.65956
57.05742
59.25744
62.51537
0
0
0
52.65517
53.32928
54.55898
56.48318
59.30237
0
0
0
0
50.41527
51.00267
52.08561
53.77932
56.23402
0
0
0
0
0
48.23852
48.75255
49.71245
51.21207
53.37325
0
0
0
0
0
0
46.19396
46.64855
47.50677
48.84843
50.77167
0
0
0
0
0
0
0
44.30713
44.71386
45.48925
46.70144
48.4334
0
0
0
0
0
0
0
0
42.57568
42.94391
43.6512
44.7571
46.33223
0
0
0
0
0
0
0
0
0
40.98205
41.319
41.96973
42.98682
44.43185
0
0
0
0
0
0
0
0
0
0
39.4981
39.80926
40.41213
41.35363
42.68808
0
0
0
0
0
0
0
0
0
0
0
38.0851
38.37441
38.93568
39.81103
41.04881
0
0
0
0
0
0
0
0
0
0
0
0
36.69562
36.96556
37.4892
38.30441
39.45436
0
0
0
0
0
0
0
0
0
0
0
0
0
35.30022
35.55247
36.04103
36.8
37.8679
0
0
0
0
0
0
0
0
0
0
33.94047
34.17741
34.63467
35.34307
36.33718
0
0
0
0
0
0
0
0
0
0
32.66698
32.89138
33.32191
33.9866
34.91678
0
0
0
0
0
0
0
0
0
0
31.50451
31.71891
32.12709
32.75474
33.63047
0
0
0
0
0
0
0
0
0
0
30.45865
30.66504
31.05467
31.65115
32.48081
0
0
0
0
0
0
0
0
0
0
62.53503
63.86735
66.22945
70.04093
75.41989
59.32761
60.37452
62.23361
65.22134
69.80847
0
56.67062
57.5327
59.08598
61.54168
65.25155
0
0
54.37969
55.11853
56.46105
58.57596
61.69949
0
0
0
52.29744
52.94492
54.13497
55.99978
58.72729
0
0
0
0
50.27033
50.84463
51.90887
53.57529
55.98916
0
0
0
0
0
48.22075
48.72954
49.6825
51.17247
53.31952
0
0
0
0
0
0
46.21781
46.67056
47.52663
48.86557
50.785
0
0
0
0
0
0
0
44.3275
44.73371
45.50863
46.72033
48.45169
0
0
0
0
0
0
0
0
42.57568
42.94391
43.6512
44.7571
46.33223
0
0
0
0
0
0
0
0
0
40.96229
41.29951
41.95043
42.9676
44.41266
0
0
0
0
0
0
0
0
0
0
39.47254
39.78431
40.38773
41.32976
42.66477
0
0
0
0
0
0
0
0
0
0
0
38.0813
38.37185
38.93461
39.81185
41.05206
0
0
0
0
0
0
0
0
0
0
0
0
36.75307
37.02536
37.55239
38.37229
39.5286
0
0
0
0
0
0
0
0
0
0
0
0
0
35.4436
35.6995
36.19376
36.96096
38.04019
0
0
0
0
0
0
0
0
0
0
0
0
0
0
34.1251
34.36582
34.82919
35.5465
36.55293
0
0
0
0
0
0
0
0
0
0
32.83676
33.06416
33.49965
34.17163
35.11189
0
0
0
0
0
0
0
0
0
0
31.62707
31.84344
32.2549
32.88741
33.76984
0
0
0
0
0
0
0
0
0
0
30.5206
30.72793
31.11914
31.71794
32.55082
0
0
0
0
0
0
0
0
0
0
29.52326
29.72343
30.09757
30.66783
31.45852
0
0
0
0
0
0
0
0
0
0
59.09751
60.12501
61.95364
64.89083
69.38393
0
56.28341
57.11778
58.62825
61.01732
64.61692
0
0
53.91393
54.62279
55.91997
57.9657
60.98187
0
0
0
51.84845
52.46833
53.617
55.42019
58.0542
0
0
0
0
49.95292
50.5068
51.54106
53.16342
55.51207
0
0
0
0
0
48.09461
48.59332
49.53205
51.00177
53.11941
0
0
0
0
0
0
46.20595
46.65468
47.50556
48.83745
50.74698
0
0
0
0
0
0
0
44.35225
44.75706
45.53045
46.74032
48.46922
0
0
0
0
0
0
0
0
42.59579
42.96363
43.67063
44.77627
46.35114
0
0
0
0
0
0
0
0
0
40.96229
41.29951
41.95043
42.9676
44.41266
0
0
0
0
0
0
0
0
0
0
39.45319
39.76514
40.36865
41.31066
42.64556
0
0
0
0
0
0
0
0
0
0
0
38.05586
38.34686
38.90999
39.78753
41.02802
0
0
0
0
0
0
0
0
0
0
0
0
36.74771
37.02099
37.5492
38.37057
39.52876
0
0
0
0
0
0
0
0
0
0
0
0
0
35.49592
35.75378
36.25089
37.02207
38.10669
0
0
0
0
0
0
0
0
0
0
0
0
0
0
34.25898
34.50283
34.97116
35.69568
36.71207
0
0
0
0
0
0
0
0
0
0
0
0
0
0
0
33.01059
33.24128
33.68218
34.36212
35.31337
0
0
0
0
0
0
0
0
0
0
31.78765
32.00669
32.42258
33.06165
33.95317
0
0
0
0
0
0
0
0
0
0
30.63688
30.84596
31.24014
31.84333
32.68229
0
0
0
0
0
0
0
0
0
0
29.58213
29.78316
30.15874
30.73112
31.52473
0
0
0
0
0
0
0
0
0
0
28.63006
28.82436
29.18431
29.7303
30.48513
0
0
0
0
0
0
0
0
0
0
56.08041
56.90082
58.38978
60.74554
64.29052
0
0
53.56894
54.25705
55.52287
57.52102
60.46412
0
0
0
51.43084
52.02783
53.14204
54.89417
57.45159
0
0
0
0
49.5495
50.08189
51.08418
52.65965
54.93964
0
0
0
0
0
47.81041
48.29312
49.20841
50.64429
52.71297
0
0
0
0
0
0
46.09522
46.53602
47.3758
48.69212
50.57962
0
0
0
0
0
0
0
44.34505
44.74674
45.51615
46.72075
48.44244
0
0
0
0
0
0
0
0
42.62106
42.98784
43.69374
44.79814
46.37144
0
0
0
0
0
0
0
0
0
40.98205
41.319
41.96973
42.98682
44.43185
0
0
0
0
0
0
0
0
0
0
39.45319
39.76514
40.36865
41.31066
42.64556
0
0
0
0
0
0
0
0
0
0
0
38.03694
38.32807
38.89122
39.76866
41.00894
0
0
0
0
0
0
0
0
0
0
0
0
36.72251
36.99612
37.52454
38.34605
39.50431
0
0
0
0
0
0
0
0
0
0
0
0
0
35.48932
35.74795
36.24599
37.01831
38.10439
0
0
0
0
0
0
0
0
0
0
0
0
0
0
34.3068
34.55228
35.02302
35.75094
36.77192
0
0
0
0
0
0
0
0
0
0
0
0
0
0
0
33.13596
33.36932
33.81457
34.50086
35.4609
0
0
0
0
0
0
0
0
0
0
0
0
0
0
0
0
31.95167
32.1736
32.59431
33.24049
34.14187
0
0
0
0
0
0
0
0
0
0
30.78905
31.0005
31.39867
32.00779
32.85497
0
0
0
0
0
0
0
0
0
0
29.69264
29.89524
30.27349
30.84987
31.64902
0
0
0
0
0
0
0
0
0
0
28.68611
28.88118
29.24244
29.79037
30.54788
0
0
0
0
0
0
0
0
0
0
27.77599
27.96507
28.3117
28.83529
29.55686
0
0
0
0
0
0
0
0
0
0
53.38762
54.06523
55.31517
57.28933
60.19581
0
0
0
51.12031
51.70133
52.79148
54.50806
57.01253
0
0
0
0
49.17184
49.68622
50.66155
52.19753
54.42016
0
0
0
0
0
47.44508
47.91071
48.80056
50.19961
52.21536
0
0
0
0
0
0
45.83885
46.26686
47.08791
48.37739
50.22684
0
0
0
0
0
0
0
44.24713
44.64249
45.40306
46.59539
48.29999
0
0
0
0
0
0
0
0
42.61758
42.98189
43.6847
44.78509
46.35301
0
0
0
0
0
0
0
0
0
41.00757
41.34371
41.99366
43.00992
44.45397
0
0
0
0
0
0
0
0
0
0
39.47254
39.78431
40.38773
41.32976
42.66477
0
0
0
0
0
0
0
0
0
0
0
38.03694
38.32807
38.89122
39.76866
41.00894
0
0
0
0
0
0
0
0
0
0
0
0
36.70406
36.97774
37.50613
38.32748
39.48546
0
0
0
0
0
0
0
0
0
0
0
0
0
35.46444
35.7233
36.22145
36.99377
38.07976
0
0
0
0
0
0
0
0
0
0
0
0
0
0
34.2992
34.54529
35.01675
35.74554
36.76765
0
0
0
0
0
0
0
0
0
0
0
0
0
0
0
33.17982
33.41454
33.86184
34.55103
35.51502
0
0
0
0
0
0
0
0
0
0
0
0
0
0
0
0
32.06935
32.29361
32.71812
33.36994
34.27911
0
0
0
0
0
0
0
0
0
0
0
0
0
0
0
0
0
30.94414
31.15813
31.56062
32.17612
33.03218
0
0
0
0
0
0
0
0
0
0
29.83711
30.04182
30.42368
31.00543
31.81204
0
0
0
0
0
0
0
0
0
0
28.79131
28.98778
29.35148
29.90305
30.66562
0
0
0
0
0
0
0
0
0
0
27.82943
28.01921
28.36702
28.8924
29.61642
0
0
0
0
0
0
0
0
0
0
26.95887
27.14271
27.47712
27.97971
28.67049
0
0
0
0
0
0
0
0
0
0
50.95677
51.52967
52.60756
54.30608
56.78378
0
0
0
0
48.89008
49.39181
50.34817
51.85639
54.03886
0
0
0
0
0
47.10113
47.55231
48.42047
49.78809
51.75889
0
0
0
0
0
0
45.50588
45.92004
46.72043
47.98014
49.78751
0
0
0
0
0
0
0
44.0144
44.39937
45.14468
46.31526
47.98935
0
0
0
0
0
0
0
0
42.53045
42.88964
43.5853
44.67581
46.23016
0
0
0
0
0
0
0
0
0
41.00706
41.34124
41.98878
43.00193
44.44189
0
0
0
0
0
0
0
0
0
0
39.4981
39.80926
40.41213
41.35363
42.68808
0
0
0
0
0
0
0
0
0
0
0
38.05586
38.34686
38.90999
39.78753
41.02802
0
0
0
0
0
0
0
0
0
0
0
0
36.70406
36.97774
37.50613
38.32748
39.48546
0
0
0
0
0
0
0
0
0
0
0
0
0
35.44646
35.70536
36.20343
36.97556
38.06121
0
0
0
0
0
0
0
0
0
0
0
0
0
0
34.27471
34.52095
34.99243
35.72113
36.74302
0
0
0
0
0
0
0
0
0
0
0
0
0
0
0
33.17144
33.40662
33.85446
34.54432
35.50916
0
0
0
0
0
0
0
0
0
0
0
0
0
0
0
0
32.10972
32.33511
32.76135
33.41566
34.32825
0
0
0
0
0
0
0
0
0
0
0
0
0
0
0
0
0
31.05489
31.27088
31.67674
32.29724
33.16024
0
0
0
0
0
0
0
0
0
0
0
0
0
0
0
0
0
0
29.98403
30.19099
30.57671
31.16425
31.97887
0
0
0
0
0
0
0
0
0
0
28.92871
29.12706
29.49402
30.05048
30.81985
0
0
0
0
0
0
0
0
0
0
27.92973
28.12077
28.4708
28.99951
29.72816
0
0
0
0
0
0
0
0
0
0
27.0099
27.19436
27.52986
28.03409
28.72712
0
0
0
0
0
0
0
0
0
0
26.1761
26.35526
26.67787
27.16107
27.82299
0
0
0
0
0
0
0
0
0
0
48.74143
49.2367
50.18336
51.67739
53.83942
0
0
0
0
0
46.84376
47.28473
48.13752
49.48288
51.42193
0
0
0
0
0
0
45.19077
45.59312
46.37573
47.60975
49.38091
0
0
0
0
0
0
0
43.70924
44.08282
44.81103
45.95708
47.59679
0
0
0
0
0
0
0
0
42.31801
42.66866
43.3517
44.42424
45.95362
0
0
0
0
0
0
0
0
0
40.9291
41.2591
41.90078
42.90587
44.33482
0
0
0
0
0
0
0
0
0
0
39.49998
39.80958
40.41055
41.34964
42.68094
0
0
0
0
0
0
0
0
0
0
0
38.0813
38.37185
38.93461
39.81185
41.05206
0
0
0
0
0
0
0
0
0
0
0
0
36.72251
36.99612
37.52454
38.34605
39.50431
0
0
0
0
0
0
0
0
0
0
0
0
0
35.44646
35.70536
36.20343
36.97556
38.06121
0
0
0
0
0
0
0
0
0
0
0
0
0
0
34.25721
34.50346
34.97483
35.7033
36.72484
0
0
0
0
0
0
0
0
0
0
0
0
0
0
0
33.1474
33.38265
33.83045
34.52013
35.48467
0
0
0
0
0
0
0
0
0
0
0
0
0
0
0
0
32.10073
32.32646
32.7531
33.4079
34.32112
0
0
0
0
0
0
0
0
0
0
0
0
0
0
0
0
0
31.09217
31.30909
31.71643
32.33906
33.20503
0
0
0
0
0
0
0
0
0
0
0
0
0
0
0
0
0
0
30.08849
30.2972
30.68589
31.27789
32.09873
0
0
0
0
0
0
0
0
0
0
0
0
0
0
0
0
0
0
0
29.06817
29.2685
29.63894
30.20062
30.97728
0
0
0
0
0
0
0
0
0
0
28.06061
28.25334
28.60632
29.1395
29.87436
0
0
0
0
0
0
0
0
0
0
27.10567
27.29127
27.6288
28.13608
28.83336
0
0
0
0
0
0
0
0
0
0
26.22488
26.40461
26.72823
27.21292
27.87693
0
0
0
0
0
0
0
0
0
0
25.42631
25.60029
25.91207
26.37674
27.0119
0
0
0
0
0
0
0
0
0
0
46.70776
47.14351
47.9884
49.32234
51.24513
0
0
0
0
0
0
44.95435
45.34832
46.11825
47.33397
49.07936
0
0
0
0
0
0
0
43.4191
43.78288
44.49625
45.62093
47.23072
0
0
0
0
0
0
0
0
42.037
42.37816
43.04685
44.09882
45.59957
0
0
0
0
0
0
0
0
0
40.73425
41.05716
41.68825
42.67829
44.08642
0
0
0
0
0
0
0
0
0
0
39.42987
39.73604
40.33216
41.26458
42.58682
0
0
0
0
0
0
0
0
0
0
0
38.0851
38.37441
38.93568
39.81103
41.04881
0
0
0
0
0
0
0
0
0
0
0
0
36.74771
37.02099
37.5492
38.37057
39.52876
0
0
0
0
0
0
0
0
0
0
0
0
0
35.46444
35.7233
36.22145
36.99377
38.07976
0
0
0
0
0
0
0
0
0
0
0
0
0
0
34.25721
34.50346
34.97483
35.7033
36.72484
0
0
0
0
0
0
0
0
0
0
0
0
0
0
0
33.13038
33.36561
33.81328
34.50272
35.46687
0
0
0
0
0
0
0
0
0
0
0
0
0
0
0
0
32.07716
32.30292
32.72945
33.38402
34.29687
0
0
0
0
0
0
0
0
0
0
0
0
0
0
0
0
0
31.08271
31.29987
31.70749
32.33047
33.19689
0
0
0
0
0
0
0
0
0
0
0
0
0
0
0
0
0
0
30.12302
30.33249
30.72244
31.31629
32.13969
0
0
0
0
0
0
0
0
0
0
0
0
0
0
0
0
0
0
0
29.16692
29.36875
29.74184
30.30751
31.08976
0
0
0
0
0
0
0
0
0
0
0
0
0
0
0
0
0
0
0
0
28.1932
28.3877
28.74382
29.28174
30.02324
0
0
0
0
0
0
0
0
0
0
27.23055
27.41764
27.75787
28.26922
28.97221
0
0
0
0
0
0
0
0
0
0
26.31645
26.49722
26.82268
27.31019
27.9781
0
0
0
0
0
0
0
0
0
0
25.47301
25.6475
25.96021
26.42626
27.06335
0
0
0
0
0
0
0
0
0
0
24.707
24.87656
25.1774
25.62491
26.23465
0
0
0
0
0
0
0
0
0
0
44.82927
45.21892
45.98232
47.1886
48.92074
0
0
0
0
0
0
0
43.20088
43.55769
44.26043
45.36979
46.95816
0
0
0
0
0
0
0
0
41.76867
42.10161
42.75774
43.79164
45.26724
0
0
0
0
0
0
0
0
0
40.4744
40.78931
41.40822
42.38077
43.76465
0
0
0
0
0
0
0
0
0
0
39.25038
39.55061
40.13777
41.05742
42.36205
0
0
0
0
0
0
0
0
0
0
38.02177
38.30824
38.86547
39.73525
40.96548
0
0
0
0
0
0
0
0
0
0
0
0
36.75307
37.02536
37.55239
38.37229
39.5286
0
0
0
0
0
0
0
0
0
0
0
0
0
35.48932
35.74795
36.24599
37.01831
38.10439
0
0
0
0
0
0
0
0
0
0
0
0
0
0
34.27471
34.52095
34.99243
35.72113
36.74302
0
0
0
0
0
0
0
0
0
0
0
0
0
0
0
33.13038
33.36561
33.81328
34.50272
35.46687
0
0
0
0
0
0
0
0
0
0
0
0
0
0
0
0
32.06062
32.28634
32.71272
33.36703
34.27948
0
0
0
0
0
0
0
0
0
0
0
0
0
0
0
0
0
31.05965
31.2768
31.68427
32.30696
33.17296
0
0
0
0
0
0
0
0
0
0
0
0
0
0
0
0
0
0
30.1132
30.32284
30.71297
31.30706
32.13075
0
0
0
0
0
0
0
0
0
0
0
0
0
0
0
0
0
0
0
29.199
29.40145
29.77562
30.34289
31.12737
0
0
0
0
0
0
0
0
0
0
0
0
0
0
0
0
0
0
0
0
28.28674
28.48255
28.84101
29.38253
30.12906
0
0
0
0
0
0
0
0
0
0
0
0
0
0
0
0
0
0
0
0
27.35685
27.54549
27.88856
28.40423
29.11328
0
0
0
0
0
0
0
0
0
0
26.43575
26.61789
26.9458
27.43705
28.11019
0
0
0
0
0
0
0
0
0
0
25.56071
25.73611
26.05053
26.51916
27.15986
0
0
0
0
0
0
0
0
0
0
24.75175
24.9218
25.22348
25.67228
26.2838
0
0
0
0
0
0
0
0
0
0
24.01794
24.18172
24.47271
24.90335
25.48946
0
0
0
0
0
0
0
0
0
0
43.0853
43.43849
44.13574
45.23719
46.8145
0
0
0
0
0
0
0
0
41.56642
41.89347
42.54058
43.56146
45.01896
0
0
0
0
0
0
0
0
0
40.22527
40.53322
41.14139
42.09845
43.46087
0
0
0
0
0
0
0
0
0
0
39.00918
39.30262
39.87934
40.78394
42.06778
0
0
0
0
0
0
0
0
0
0
37.8558
38.13725
38.68683
39.54567
40.76083
0
0
0
0
0
0
0
0
0
0
36.69562
36.96556
37.4892
38.30441
39.45436
0
0
0
0
0
0
0
0
0
0
0
0
0
35.49592
35.75377
36.25089
37.02207
38.10669
0
0
0
0
0
0
0
0
0
0
0
0
0
0
34.2992
34.54529
35.01675
35.74554
36.76765
0
0
0
0
0
0
0
0
0
0
0
0
0
0
0
33.1474
33.38265
33.83045
34.52013
35.48467
0
0
0
0
0
0
0
0
0
0
0
0
0
0
0
0
32.06062
32.28634
32.71272
33.36703
34.27948
0
0
0
0
0
0
0
0
0
0
0
0
0
0
0
0
0
31.04358
31.26067
31.66798
32.29039
33.15599
0
0
0
0
0
0
0
0
0
0
0
0
0
0
0
0
0
0
30.09066
30.30025
30.6902
31.28396
32.1072
0
0
0
0
0
0
0
0
0
0
0
0
0
0
0
0
0
0
0
29.18894
29.39148
29.76576
30.33315
31.11783
0
0
0
0
0
0
0
0
0
0
0
0
0
0
0
0
0
0
0
0
28.31663
28.51296
28.87232
29.41522
30.1637
0
0
0
0
0
0
0
0
0
0
0
0
0
0
0
0
0
0
0
0
27.44565
27.63541
27.98058
28.49947
29.21309
0
0
0
0
0
0
0
0
0
0
0
0
0
0
0
0
0
0
0
0
26.55621
26.73977
27.07023
27.56544
28.24411
0
0
0
0
0
0
0
0
0
0
25.67488
25.85148
26.16815
26.64021
27.28573
0
0
0
0
0
0
0
0
0
0
24.8358
25.00671
25.30994
25.76113
26.37598
0
0
0
0
0
0
0
0
0
0
24.0609
24.22509
24.51688
24.94871
25.53647
0
0
0
0
0
0
0
0
0
0
23.35662
23.51562
23.79576
24.21098
24.77414
0
0
0
0
0
0
0
0
0
0
41.45918
41.78318
42.4256
43.43973
44.88787
0
0
0
0
0
0
0
0
0
40.03712
40.34006
40.94047
41.88634
43.23324
0
0
0
0
0
0
0
0
0
0
38.77709
39.06458
39.63201
40.52321
41.78851
0
0
0
0
0
0
0
0
0
0
37.63116
37.9068
38.44735
39.29313
40.49027
0
0
0
0
0
0
0
0
0
0
36.5416
36.80727
37.32433
38.13009
39.26702
0
0
0
0
0
0
0
0
0
0
35.4436
35.6995
36.19376
36.96096
38.04019
0
0
0
0
0
0
0
0
0
0
0
0
0
0
34.3068
34.55228
35.02302
35.75094
36.77192
0
0
0
0
0
0
0
0
0
0
0
0
0
0
0
33.17144
33.40662
33.85446
34.54432
35.50916
0
0
0
0
0
0
0
0
0
0
0
0
0
0
0
0
32.07716
32.30292
32.72945
33.38402
34.29687
0
0
0
0
0
0
0
0
0
0
0
0
0
0
0
0
0
31.04358
31.26067
31.66798
32.29039
33.15599
0
0
0
0
0
0
0
0
0
0
0
0
0
0
0
0
0
0
30.07506
30.28458
30.67435
31.26783
32.09066
0
0
0
0
0
0
0
0
0
0
0
0
0
0
0
0
0
0
0
29.16694
29.36939
29.74345
30.3105
31.09469
0
0
0
0
0
0
0
0
0
0
0
0
0
0
0
0
0
0
0
0
28.30641
28.50277
28.86216
29.40512
30.15368
0
0
0
0
0
0
0
0
0
0
0
0
0
0
0
0
0
0
0
0
27.4736
27.66375
28.00969
28.52977
29.2451
0
0
0
0
0
0
0
0
0
0
0
0
0
0
0
0
0
0
0
0
26.64063
26.82519
27.15751
27.65563
28.33844
0
0
0
0
0
0
0
0
0
0
0
0
0
0
0
0
0
0
0
0
25.78999
25.9678
26.28684
26.76249
27.41311
0
0
0
0
0
0
0
0
0
0
24.94516
25.11719
25.42245
25.87683
26.49612
0
0
0
0
0
0
0
0
0
0
24.14162
24.30654
24.59979
25.0338
25.62467
0
0
0
0
0
0
0
0
0
0
23.39787
23.55729
23.83813
24.25447
24.81916
0
0
0
0
0
0
0
0
0
0
22.7248
22.87588
23.14646
23.54559
24.08762
0
0
0
0
0
0
0
0
0
0
39.93727
40.2376
40.83397
41.77402
43.11287
0
0
0
0
0
0
0
0
0
0
38.60148
38.88467
39.44537
40.32684
41.57869
0
0
0
0
0
0
0
0
0
0
37.41426
37.68477
38.21724
39.05131
40.23227
0
0
0
0
0
0
0
0
0
0
36.33175
36.59242
37.10159
37.89594
39.01711
0
0
0
0
0
0
0
0
0
0
35.30022
35.55247
36.04103
36.8
37.8679
0
0
0
0
0
0
0
0
0
0
34.25898
34.50283
34.97116
35.69568
36.71207
0
0
0
0
0
0
0
0
0
0
0
0
0
0
0
33.17982
33.41454
33.86184
34.55103
35.51502
0
0
0
0
0
0
0
0
0
0
0
0
0
0
0
0
32.10073
32.32646
32.7531
33.4079
34.32112
0
0
0
0
0
0
0
0
0
0
0
0
0
0
0
0
0
31.05965
31.2768
31.68427
32.30696
33.17296
0
0
0
0
0
0
0
0
0
0
0
0
0
0
0
0
0
0
30.07506
30.28458
30.67435
31.26783
32.09066
0
0
0
0
0
0
0
0
0
0
0
0
0
0
0
0
0
0
0
29.15179
29.35416
29.72804
30.29481
31.07859
0
0
0
0
0
0
0
0
0
0
0
0
0
0
0
0
0
0
0
0
28.28494
28.4812
28.84035
29.38294
30.13099
0
0
0
0
0
0
0
0
0
0
0
0
0
0
0
0
0
0
0
0
27.46329
27.65342
27.99934
28.5194
29.23473
0
0
0
0
0
0
0
0
0
0
0
0
0
0
0
0
0
0
0
0
26.66682
26.8517
27.18466
27.68382
28.36811
0
0
0
0
0
0
0
0
0
0
0
0
0
0
0
0
0
0
0
0
25.87044
26.04907
26.3698
26.84808
27.50246
0
0
0
0
0
0
0
0
0
0
0
0
0
0
0
0
0
0
0
0
25.05525
25.22844
25.5358
25.99351
26.61746
0
0
0
0
0
0
0
0
0
0
24.24657
24.41243
24.7076
25.14451
25.73951
0
0
0
0
0
0
0
0
0
0
23.4754
23.63555
23.91769
24.33609
24.90364
0
0
0
0
0
0
0
0
0
0
22.7645
22.91591
23.18718
23.58733
24.1308
0
0
0
0
0
0
0
0
0
0
22.11994
22.26425
22.52249
22.90716
23.42775
0
0
0
0
0
0
0
0
0
0
38.5082
38.78915
39.34634
40.22274
41.46758
0
0
0
0
0
0
0
0
0
0
37.24987
37.51666
38.04324
38.86879
40.03797
0
0
0
0
0
0
0
0
0
0
36.12849
36.3847
36.88678
37.67082
38.77776
0
0
0
0
0
0
0
0
0
0
35.10363
35.35155
35.83319
36.5821
37.63611
0
0
0
0
0
0
0
0
0
0
34.1251
34.36582
34.82919
35.5465
36.55293
0
0
0
0
0
0
0
0
0
0
33.13596
33.36932
33.81457
34.50086
35.4609
0
0
0
0
0
0
0
0
0
0
0
0
0
0
0
0
32.10972
32.33511
32.76135
33.41566
34.32825
0
0
0
0
0
0
0
0
0
0
0
0
0
0
0
0
0
31.08271
31.29987
31.70749
32.33047
33.19689
0
0
0
0
0
0
0
0
0
0
0
0
0
0
0
0
0
0
30.09066
30.30025
30.6902
31.28396
32.1072
0
0
0
0
0
0
0
0
0
0
0
0
0
0
0
0
0
0
0
29.15179
29.35416
29.72804
30.29481
31.07859
0
0
0
0
0
0
0
0
0
0
0
0
0
0
0
0
0
0
0
0
28.27024
28.4664
28.82537
29.36767
30.11533
0
0
0
0
0
0
0
0
0
0
0
0
0
0
0
0
0
0
0
0
27.44237
27.63236
27.97803
28.49771
29.21252
0
0
0
0
0
0
0
0
0
0
0
0
0
0
0
0
0
0
0
0
26.65646
26.8413
27.17418
27.67327
28.35749
0
0
0
0
0
0
0
0
0
0
0
0
0
0
0
0
0
0
0
0
25.89507
26.07393
26.39521
26.87437
27.53006
0
0
0
0
0
0
0
0
0
0
0
0
0
0
0
0
0
0
0
0
25.13197
25.30594
25.61478
26.0749
26.70227
0
0
0
0
0
0
0
0
0
0
0
0
0
0
0
0
0
0
0
0
24.3521
24.5189
24.81605
25.25598
25.85531
0
0
0
0
0
0
0
0
0
0
23.57614
23.73724
24.02107
24.44221
25.01355
0
0
0
0
0
0
0
0
0
0
22.83915
22.99113
23.26366
23.66568
24.21184
0
0
0
0
0
0
0
0
0
0
22.15811
22.3028
22.56164
22.94728
23.46919
0
0
0
0
0
0
0
0
0
0
21.5481
21.67833
21.92566
22.29342
22.79448
0
0
0
0
0
0
0
0
0
0
37.16249
37.42733
37.95084
38.77193
39.93496
0
0
0
0
0
0
0
0
0
0
35.97418
36.22715
36.72405
37.50057
38.59711
0
0
0
0
0
0
0
0
0
0
34.91265
35.15668
35.63206
36.37184
37.41324
0
0
0
0
0
0
0
0
0
0
33.94047
34.17741
34.63467
35.34307
36.33718
0
0
0
0
0
0
0
0
0
0
33.01059
33.24128
33.68218
34.36212
35.31337
0
0
0
0
0
0
0
0
0
0
32.06935
32.29361
32.71812
33.36994
34.27911
0
0
0
0
0
0
0
0
0
0
0
0
0
0
0
0
0
31.09217
31.30909
31.71643
32.33906
33.20503
0
0
0
0
0
0
0
0
0
0
0
0
0
0
0
0
0
0
30.1132
30.32284
30.71297
31.30706
32.13075
0
0
0
0
0
0
0
0
0
0
0
0
0
0
0
0
0
0