/*--------------------------------*- C++ -*----------------------------------*\
| =========                 |                                                 |
| \\      /  F ield         | OpenFOAM: The Open Source CFD Toolbox           |
|  \\    /   O peration     | Version:  2306                                  |
|   \\  /    A nd           | Website:  www.openfoam.com                      |
|    \\/     M anipulation  |                                                 |
\*---------------------------------------------------------------------------*/
FoamFile
{
    version     2.0;
    format      ascii;
    arch        "LSB;label=32;scalar=64";
    class       volScalarField;
    location    "1.5/fuel";
    object      iDmdtfuel.H2;
}
// * * * * * * * * * * * * * * * * * * * * * * * * * * * * * * * * * * * * * //

dimensions      [1 -3 -1 0 0 0 0];

internalField   nonuniform List<scalar> 
16000
(
-9.455333
-9.541314
-8.656596
-9.017112
-9.714923
-8.712639
-9.096799
-7.984159
-8.275997
-8.708387
-9.976126
-8.822956
-9.257592
-8.026994
-8.328187
-8.783898
-7.445237
-7.64999
-8.005643
-8.519236
-10.31498
-8.981505
-9.49927
-8.110319
-8.430871
-8.936238
-7.480245
-7.690042
-8.055216
-8.592448
-6.997767
-7.146856
-7.411178
-7.837688
-8.439603
-10.67985
-9.173096
-9.81243
-8.227508
-8.578342
-9.165175
-7.547839
-7.767919
-8.152731
-8.740194
-7.027451
-7.179696
-7.44931
-7.885745
-8.512157
-6.613103
-6.728081
-6.932708
-7.261384
-7.764169
-0
-10.95433
-9.35981
-10.14919
-8.364083
-8.756387
-9.461869
-7.641606
-7.877372
-8.292743
-8.962384
-7.084464
-7.243077
-7.523435
-7.980285
-8.65869
-6.638852
-6.756003
-6.964038
-7.29837
-7.811676
-0
-6.275484
-6.36729
-6.533907
-6.79752
-7.194209
-0
-0
-11.12674
-9.485801
-10.4016
-8.48972
-8.929726
-9.781075
-7.748313
-8.004824
-8.461759
-9.250768
-7.162795
-7.330943
-7.627584
-8.116061
-8.879385
-6.688114
-6.80961
-7.024488
-7.370267
-7.905171
-0
-6.298201
-6.391568
-6.560592
-6.827932
-7.230733
-0
-0
-5.974157
-6.049983
-6.189853
-6.410764
-6.736004
-0
-0
-0
-11.22379
-9.556084
-10.55962
-8.567495
-9.046348
-10.01971
-7.842613
-8.121943
-8.626296
-9.561743
-7.250419
-7.430846
-7.74882
-8.280071
-9.166618
-6.755308
-6.883214
-7.108262
-7.47129
-8.039542
-0
-6.34153
-6.437998
-6.611813
-6.88661
-7.30175
-0
-0
-5.994447
-6.071448
-6.213095
-6.436692
-6.766029
-0
-0
-0
-5.702142
-5.766249
-5.886868
-6.076935
-6.354193
-0
-0
-0
-0
-11.26707
-9.591705
-10.64837
-8.605339
-9.11124
-10.16883
-7.897184
-8.194233
-8.736707
-9.793913
-7.325564
-7.519023
-7.860173
-8.439885
-9.477571
-6.829491
-6.965473
-7.203467
-7.588917
-8.20208
-0
-6.400299
-6.501289
-6.682114
-6.967922
-7.401575
-0
-0
-6.033052
-6.112375
-6.257531
-6.486452
-6.823965
-0
-0
-0
-5.720442
-5.785459
-5.907448
-6.099536
-6.379791
-0
-0
-0
-0
-5.454242
-5.509663
-5.615595
-5.78278
-6.024715
-0
-0
-0
-0
-0
-11.26707
-9.606464
-10.68789
-8.621288
-9.144071
-10.25249
-7.920397
-8.229299
-8.798035
-9.938933
-7.366744
-7.569885
-7.928696
-8.546889
-9.709712
-6.891616
-7.035914
-7.287426
-7.696978
-8.360749
-0
-6.464505
-6.571093
-6.760635
-7.060328
-7.517896
-0
-0
-6.085172
-6.167849
-6.31808
-6.55474
-6.904269
-0
-0
-0
-5.755191
-5.821994
-5.946676
-6.142743
-6.428922
-0
-0
-0
-0
-5.470876
-5.52702
-5.634038
-5.80281
-6.047033
-0
-0
-0
-0
-0
-5.226671
-5.275431
-5.369977
-5.519246
-5.73441
-0
-0
-0
-0
-0
-0
-11.22379
-9.606464
-10.68789
-8.626759
-9.157659
-10.28973
-7.927904
-8.244028
-8.829043
-10.02032
-7.382097
-7.591423
-7.961844
-8.606274
-9.854859
-6.924134
-7.074374
-7.335681
-7.763272
-8.466801
-0
-6.517246
-6.629454
-6.827797
-7.141792
-7.624841
-0
-0
-6.141622
-6.228391
-6.384814
-6.630999
-6.995567
-0
-0
-0
-5.801922
-5.871288
-5.999825
-6.201606
-6.496355
-0
-0
-0
-0
-5.502405
-5.559965
-5.669106
-5.840985
-6.0897
-0
-0
-0
-0
-0
-5.241889
-5.291235
-5.386663
-5.537211
-5.754193
-0
-0
-0
-0
-0
-0
-5.016464
-5.060067
-5.145493
-5.280478
-5.474307
-0
-0
-0
-0
-0
-0
-0
-11.12674
-9.591705
-10.64837
-8.626759
-9.157659
-10.28973
-7.929505
-8.249064
-8.841877
-10.05657
-7.385364
-7.598328
-7.975736
-8.63632
-9.936463
-6.934747
-7.088616
-7.356021
-7.795272
-8.52566
-0
-6.543785
-6.659875
-6.864315
-7.188434
-7.690257
-0
-0
-6.18724
-6.278031
-6.44053
-6.696179
-7.076062
-0
-0
-0
-5.852165
-5.924618
-6.057787
-6.266462
-6.571674
-0
-0
-0
-0
-5.544665
-5.604241
-5.716399
-5.892696
-6.147831
-0
-0
-0
-0
-0
-5.27069
-5.321177
-5.418325
-5.571365
-5.7919
-0
-0
-0
-0
-0
-0
-5.030461
-5.074547
-5.160704
-5.296744
-5.492056
-0
-0
-0
-0
-0
-0
-0
-4.821311
-4.860835
-4.938858
-5.062111
-5.238615
-0
-0
-0
-0
-0
-0
-0
-0
-10.95433
-9.556084
-10.55962
-8.621288
-9.144071
-10.25249
-7.929505
-8.249064
-8.841877
-10.05657
-7.385114
-7.599771
-7.980477
-8.648772
-9.972865
-6.935656
-7.091574
-7.362492
-7.808672
-8.555497
-0
-6.551345
-6.669707
-6.877741
-7.208009
-7.72178
-0
-0
-6.209402
-6.302894
-6.469434
-6.731458
-7.121963
-0
-0
-0
-5.892195
-5.967629
-6.105235
-6.320556
-6.636027
-0
-0
-0
-0
-5.589809
-5.65179
-5.767524
-5.949069
-6.211886
-0
-0
-0
-0
-0
-5.309178
-5.361283
-5.460859
-5.617414
-5.84298
-0
-0
-0
-0
-0
-0
-5.056917
-5.101941
-5.189516
-5.327605
-5.525801
-0
-0
-0
-0
-0
-0
-0
-4.834246
-4.874172
-4.952811
-5.07695
-5.254691
-0
-0
-0
-0
-0
-0
-0
-0
-4.639346
-4.675603
-4.747491
-4.860974
-5.023022
-0
-0
-0
-0
-0
-0
-0
-0
-0
-10.67985
-9.485801
-10.4016
-8.605339
-9.11124
-10.16883
-7.927904
-8.244028
-8.829043
-10.02032
-7.385114
-7.599771
-7.980477
-8.648772
-9.972865
-6.934443
-7.091288
-7.363819
-7.813247
-8.567893
-0
-6.550865
-6.67046
-6.88046
-7.214197
-7.734987
-0
-0
-6.214864
-6.309879
-6.478678
-6.744336
-7.141149
-0
-0
-0
-5.91103
-5.988417
-6.128874
-6.348473
-6.670689
-0
-0
-0
-0
-5.625328
-5.689592
-5.808682
-5.995158
-6.265273
-0
-0
-0
-0
-0
-5.350059
-5.404075
-5.506498
-5.667175
-5.898663
-0
-0
-0
-0
-0
-0
-5.092178
-5.138524
-5.228089
-5.369052
-5.571299
-0
-0
-0
-0
-0
-0
-0
-4.858664
-4.899372
-4.979199
-5.105053
-5.285191
-0
-0
-0
-0
-0
-0
-0
-0
-4.651347
-4.687945
-4.760357
-4.874595
-5.037691
-0
-0
-0
-0
-0
-0
-0
-0
-0
-4.469042
-4.50265
-4.569385
-4.674577
-4.824397
-0
-0
-0
-0
-0
-0
-0
-0
-0
-0
-10.31498
-9.35981
-10.14919
-8.567495
-9.046348
-10.01971
-7.920397
-8.229299
-8.798035
-9.938933
-7.385364
-7.598328
-7.975736
-8.63632
-9.936463
-6.934443
-7.091288
-7.363819
-7.813247
-8.567893
-0
-6.549133
-6.669269
-6.88014
-7.215449
-7.739505
-0
-0
-6.213521
-6.30933
-6.479299
-6.746882
-7.147185
-0
-0
-0
-5.914989
-5.993443
-6.135418
-6.357306
-6.683251
-0
-0
-0
-0
-5.641546
-5.707278
-5.82846
-6.017989
-6.292673
-0
-0
-0
-0
-0
-5.381861
-5.437667
-5.542713
-5.707177
-5.944145
-0
-0
-0
-0
-0
-0
-5.129438
-5.177333
-5.269211
-5.413505
-5.620461
-0
-0
-0
-0
-0
-0
-0
-4.891132
-4.932935
-5.014424
-5.142669
-5.326154
-0
-0
-0
-0
-0
-0
-0
-0
-4.673979
-4.711235
-4.784658
-4.900352
-5.065474
-0
-0
-0
-0
-0
-0
-0
-0
-0
-4.480216
-4.514115
-4.581302
-4.687146
-4.837867
-0
-0
-0
-0
-0
-0
-0
-0
-0
-0
-4.309128
-4.340566
-4.402917
-4.500987
-4.640287
-0
-0
-0
-0
-0
-0
-0
-0
-0
-0
-9.976126
-9.173096
-9.81243
-8.48972
-8.929726
-9.781075
-7.897184
-8.194233
-8.736707
-9.793913
-7.382097
-7.591423
-7.961844
-8.606274
-9.854859
-6.935656
-7.091574
-7.362492
-7.808672
-8.555497
-0
-6.549133
-6.669269
-6.88014
-7.215449
-7.739505
-0
-0
-6.211501
-6.307649
-6.478115
-6.74653
-7.148394
-0
-0
-0
-5.91309
-5.992081
-6.134799
-6.357818
-6.68568
-0
-0
-0
-0
-5.644387
-5.710899
-5.833145
-6.024213
-6.301249
-0
-0
-0
-0
-0
-5.395976
-5.452911
-5.559549
-5.726279
-5.966537
-0
-0
-0
-0
-0
-0
-5.158126
-5.207453
-5.301425
-5.448723
-5.659938
-0
-0
-0
-0
-0
-0
-0
-4.92528
-4.968358
-5.05176
-5.182749
-5.370083
-0
-0
-0
-0
-0
-0
-0
-0
-4.704006
-4.742182
-4.81701
-4.934727
-5.102662
-0
-0
-0
-0
-0
-0
-0
-0
-0
-4.50127
-4.53573
-4.603785
-4.710882
-4.863339
-0
-0
-0
-0
-0
-0
-0
-0
-0
-0
-4.319565
-4.351254
-4.413998
-4.512636
-4.65272
-0
-0
-0
-0
-0
-0
-0
-0
-0
-0
-4.158541
-4.188176
-4.246758
-4.338639
-4.468784
-0
-0
-0
-0
-0
-0
-0
-0
-0
-0
-9.714923
-8.981505
-9.49927
-8.364083
-8.756387
-9.461869
-7.842613
-8.121943
-8.626296
-9.561743
-7.366744
-7.569885
-7.928696
-8.546889
-9.709712
-6.934747
-7.088616
-7.356021
-7.795272
-8.52566
-0
-6.550865
-6.67046
-6.88046
-7.214197
-7.734987
-0
-0
-6.211501
-6.307649
-6.478115
-6.74653
-7.148394
-0
-0
-0
-5.910913
-5.990127
-6.133145
-6.356627
-6.685298
-0
-0
-0
-0
-5.642121
-5.709014
-5.831752
-6.023526
-6.301671
-0
-0
-0
-0
-0
-5.397966
-5.455486
-5.562901
-5.730711
-5.97255
-0
-0
-0
-0
-0
-0
-5.170517
-5.220731
-5.315945
-5.464987
-5.678666
-0
-0
-0
-0
-0
-0
-0
-4.951323
-4.995564
-5.080673
-5.214096
-5.404844
-0
-0
-0
-0
-0
-0
-0
-0
-4.735451
-4.774689
-4.851122
-4.971142
-5.142282
-0
-0
-0
-0
-0
-0
-0
-0
-0
-4.529148
-4.564387
-4.633644
-4.742474
-4.897332
-0
-0
-0
-0
-0
-0
-0
-0
-0
-0
-4.339216
-4.371387
-4.434883
-4.53461
-4.676199
-0
-0
-0
-0
-0
-0
-0
-0
-0
-0
-4.168318
-4.198172
-4.257098
-4.349478
-4.480311
-0
-0
-0
-0
-0
-0
-0
-0
-0
-0
-4.016384
-4.0445
-4.0998
-4.186252
-4.308348
-0
-0
-0
-0
-0
-0
-0
-0
-0
-0
-9.541314
-8.822956
-9.257592
-8.227508
-8.578342
-9.165175
-7.748313
-8.004824
-8.461759
-9.250768
-7.325564
-7.519023
-7.860173
-8.439885
-9.477571
-6.924134
-7.074374
-7.335681
-7.763272
-8.466801
-0
-6.551345
-6.669707
-6.877741
-7.208009
-7.72178
-0
-0
-6.213521
-6.30933
-6.479299
-6.746882
-7.147185
-0
-0
-0
-5.910913
-5.990127
-6.133145
-6.356627
-6.685298
-0
-0
-0
-0
-5.639863
-5.70691
-5.829836
-6.021879
-6.300458
-0
-0
-0
-0
-0
-5.395456
-5.453254
-5.561008
-5.729275
-5.971791
-0
-0
-0
-0
-0
-0
-5.171844
-5.222508
-5.318304
-5.468133
-5.68292
-0
-0
-0
-0
-0
-0
-0
-4.96228
-5.007229
-5.093327
-5.228124
-5.420784
-0
-0
-0
-0
-0
-0
-0
-0
-4.759223
-4.799417
-4.877263
-4.999293
-5.173227
-0
-0
-0
-0
-0
-0
-0
-0
-0
-4.558226
-4.594359
-4.66498
-4.775767
-4.933339
-0
-0
-0
-0
-0
-0
-0
-0
-0
-0
-4.365188
-4.398024
-4.46256
-4.563787
-4.70745
-0
-0
-0
-0
-0
-0
-0
-0
-0
-0
-4.186714
-4.216984
-4.276568
-4.369902
-4.502054
-0
-0
-0
-0
-0
-0
-0
-0
-0
-0
-4.025567
-4.053874
-4.109479
-4.196371
-4.319076
-0
-0
-0
-0
-0
-0
-0
-0
-0
-0
-3.881887
-3.908707
-3.96112
-4.04276
-4.157719
-0
-0
-0
-0
-0
-0
-0
-0
-0
-0
-9.455333
-8.712639
-9.096799
-8.110319
-8.430871
-8.936238
-7.641606
-7.877372
-8.292743
-8.962384
-7.250419
-7.430846
-7.74882
-8.280071
-9.166618
-6.891616
-7.035914
-7.287426
-7.696978
-8.360749
-0
-6.543785
-6.659875
-6.864315
-7.188434
-7.690257
-0
-0
-6.214864
-6.309879
-6.478678
-6.744336
-7.141149
-0
-0
-0
-5.91309
-5.992081
-6.134799
-6.357818
-6.68568
-0
-0
-0
-0
-5.639863
-5.70691
-5.829836
-6.021879
-6.300458
-0
-0
-0
-0
-0
-5.393165
-5.451071
-5.558948
-5.727373
-5.97013
-0
-0
-0
-0
-0
-0
-5.169175
-5.220045
-5.316081
-5.466215
-5.681428
-0
-0
-0
-0
-0
-0
-0
-4.963085
-5.008385
-5.094928
-5.230314
-5.423781
-0
-0
-0
-0
-0
-0
-0
-0
-4.768973
-4.80974
-4.888386
-5.011521
-5.186974
-0
-0
-0
-0
-0
-0
-0
-0
-0
-4.58003
-4.616957
-4.688762
-4.801233
-4.961135
-0
-0
-0
-0
-0
-0
-0
-0
-0
-0
-4.392179
-4.425774
-4.491479
-4.594389
-4.740379
-0
-0
-0
-0
-0
-0
-0
-0
-0
-0
-4.210985
-4.24183
-4.302318
-4.396962
-4.530924
-0
-0
-0
-0
-0
-0
-0
-0
-0
-0
-4.042834
-4.071504
-4.127688
-4.215424
-4.339292
-0
-0
-0
-0
-0
-0
-0
-0
-0
-0
-3.890532
-3.917521
-3.970204
-4.052237
-4.167738
-0
-0
-0
-0
-0
-0
-0
-0
-0
-0
-3.754384
-3.780087
-3.829934
-3.907271
-4.015847
-0
-0
-0
-0
-0
-0
-0
-0
-0
-0
-8.656596
-9.017112
-8.026994
-8.328187
-8.783898
-7.547839
-7.767919
-8.152731
-8.740194
-7.162795
-7.330943
-7.627584
-8.116061
-8.879385
-6.829491
-6.965473
-7.203467
-7.588917
-8.20208
-0
-6.517246
-6.629454
-6.827797
-7.141792
-7.624841
-0
-0
-6.209402
-6.302894
-6.469434
-6.731458
-7.121963
-0
-0
-0
-5.914989
-5.993443
-6.135418
-6.357306
-6.683251
-0
-0
-0
-0
-5.642121
-5.709014
-5.831752
-6.023526
-6.301671
-0
-0
-0
-0
-0
-5.393165
-5.451071
-5.558948
-5.727373
-5.97013
-0
-0
-0
-0
-0
-0
-5.16688
-5.217829
-5.313945
-5.464174
-5.679518
-0
-0
-0
-0
-0
-0
-0
-4.960315
-5.005771
-5.092486
-5.228078
-5.421819
-0
-0
-0
-0
-0
-0
-0
-0
-4.769363
-4.810406
-4.889397
-5.012981
-5.189036
-0
-0
-0
-0
-0
-0
-0
-0
-0
-4.588753
-4.626149
-4.698609
-4.811983
-4.973117
-0
-0
-0
-0
-0
-0
-0
-0
-0
-0
-4.412263
-4.446524
-4.513231
-4.61757
-4.765531
-0
-0
-0
-0
-0
-0
-0
-0
-0
-0
-0
-4.236122
-4.267617
-4.329116
-4.425221
-4.5612
-0
-0
-0
-0
-0
-0
-0
-0
-0
-0
-4.065579
-4.094748
-4.151726
-4.240614
-4.366075
-0
-0
-0
-0
-0
-0
-0
-0
-0
-0
-3.90678
-3.934087
-3.987283
-4.070065
-4.1866
-0
-0
-0
-0
-0
-0
-0
-0
-0
-0
-3.762541
-3.788393
-3.838481
-3.916171
-4.025231
-0
-0
-0
-0
-0
-0
-0
-0
-0
-0
-3.633291
-3.658022
-3.705573
-3.779034
-3.881854
-0
-0
-0
-0
-0
-0
-0
-0
-0
-0
-7.984159
-8.275997
-8.708387
-7.480245
-7.690042
-8.055216
-8.592448
-7.084464
-7.243077
-7.523435
-7.980285
-8.65869
-6.755308
-6.883214
-7.108262
-7.47129
-8.039542
-0
-6.464505
-6.571093
-6.760635
-7.060328
-7.517896
-0
-0
-6.18724
-6.278031
-6.44053
-6.696179
-7.076062
-0
-0
-0
-5.91103
-5.988417
-6.128874
-6.348473
-6.670689
-0
-0
-0
-0
-5.644387
-5.710899
-5.833145
-6.024213
-6.301249
-0
-0
-0
-0
-0
-5.395456
-5.453254
-5.561008
-5.729275
-5.971791
-0
-0
-0
-0
-0
-0
-5.16688
-5.217829
-5.313945
-5.464174
-5.679518
-0
-0
-0
-0
-0
-0
-0
-4.958036
-5.00355
-5.090317
-5.225964
-5.419773
-0
-0
-0
-0
-0
-0
-0
-0
-4.766535
-4.807697
-4.886811
-5.010534
-5.186765
-0
-0
-0
-0
-0
-0
-0
-0
-0
-4.588811
-4.626425
-4.699156
-4.812877
-4.974468
-0
-0
-0
-0
-0
-0
-0
-0
-0
-0
-4.420108
-4.454754
-4.522003
-4.627089
-4.776063
-0
-0
-0
-0
-0
-0
-0
-0
-0
-0
-0
-4.254695
-4.286752
-4.349107
-4.446436
-4.5841
-0
-0
-0
-0
-0
-0
-0
-0
-0
-0
-0
-0
-4.089062
-4.118791
-4.176651
-4.266816
-4.394041
-0
-0
-0
-0
-0
-0
-0
-0
-0
-0
-3.928151
-3.955893
-4.00979
-4.093594
-4.21154
-0
-0
-0
-0
-0
-0
-0
-0
-0
-0
-3.777864
-3.803996
-3.854543
-3.932902
-4.042887
-0
-0
-0
-0
-0
-0
-0
-0
-0
-0
-3.641004
-3.665866
-3.713633
-3.787412
-3.890669
-0
-0
-0
-0
-0
-0
-0
-0
-0
-0
-3.518099
-3.541973
-3.587453
-3.657401
-3.755001
-0
-0
-0
-0
-0
-0
-0
-0
-0
-0
-7.445237
-7.64999
-8.005643
-8.519236
-7.027451
-7.179696
-7.44931
-7.885745
-8.512157
-6.688114
-6.809609
-7.024488
-7.370267
-7.905171
-0
-6.400299
-6.501289
-6.682114
-6.967922
-7.401575
-0
-0
-6.141622
-6.228391
-6.384814
-6.630999
-6.995567
-0
-0
-0
-5.892195
-5.967629
-6.105235
-6.320556
-6.636027
-0
-0
-0
-0
-5.641546
-5.707278
-5.82846
-6.017989
-6.292673
-0
-0
-0
-0
-0
-5.397966
-5.455486
-5.562901
-5.730711
-5.97255
-0
-0
-0
-0
-0
-0
-5.169175
-5.220045
-5.316081
-5.466215
-5.681428
-0
-0
-0
-0
-0
-0
-0
-4.958036
-5.00355
-5.090317
-5.225964
-5.419773
-0
-0
-0
-0
-0
-0
-0
-0
-4.764285
-4.80549
-4.884637
-5.008389
-5.184648
-0
-0
-0
-0
-0
-0
-0
-0
-0
-4.585955
-4.62366
-4.696478
-4.810292
-4.971993
-0
-0
-0
-0
-0
-0
-0
-0
-0
-0
-4.419898
-4.454717
-4.52218
-4.627536
-4.776862
-0
-0
-0
-0
-0
-0
-0
-0
-0
-0
-0
-4.261782
-4.294156
-4.356963
-4.454916
-4.593426
-0
-0
-0
-0
-0
-0
-0
-0
-0
-0
-0
-0
-4.106297
-4.136503
-4.195099
-4.286323
-4.415004
-0
-0
-0
-0
-0
-0
-0
-0
-0
-0
-0
-0
-0
-3.950149
-3.978376
-4.033047
-4.117977
-4.237477
-0
-0
-0
-0
-0
-0
-0
-0
-0
-0
-3.797991
-3.824506
-3.875674
-3.954944
-4.066187
-0
-0
-0
-0
-0
-0
-0
-0
-0
-0
-3.655486
-3.680596
-3.728773
-3.803153
-3.907242
-0
-0
-0
-0
-0
-0
-0
-0
-0
-0
-3.525404
-3.549396
-3.595071
-3.665306
-3.763302
-0
-0
-0
-0
-0
-0
-0
-0
-0
-0
-3.408371
-3.431466
-3.475066
-3.541813
-3.634653
-0
-0
-0
-0
-0
-0
-0
-0
-0
-0
-6.997767
-7.146856
-7.411178
-7.837688
-8.439603
-6.638852
-6.756003
-6.964038
-7.29837
-7.811676
-0
-6.34153
-6.437998
-6.611813
-6.88661
-7.30175
-0
-0
-6.085172
-6.167849
-6.31808
-6.55474
-6.904269
-0
-0
-0
-5.852165
-5.924618
-6.057787
-6.266462
-6.571674
-0
-0
-0
-0
-5.625328
-5.689592
-5.808682
-5.995158
-6.265273
-0
-0
-0
-0
-0
-5.395976
-5.452911
-5.559549
-5.726279
-5.966537
-0
-0
-0
-0
-0
-0
-5.171844
-5.222508
-5.318304
-5.468133
-5.68292
-0
-0
-0
-0
-0
-0
-0
-4.960315
-5.005771
-5.092486
-5.228078
-5.421819
-0
-0
-0
-0
-0
-0
-0
-0
-4.764285
-4.80549
-4.884637
-5.008389
-5.184648
-0
-0
-0
-0
-0
-0
-0
-0
-0
-4.583744
-4.62148
-4.694318
-4.808142
-4.969846
-0
-0
-0
-0
-0
-0
-0
-0
-0
-0
-4.417039
-4.451926
-4.519449
-4.624864
-4.774254
-0
-0
-0
-0
-0
-0
-0
-0
-0
-0
-0
-4.261356
-4.293869
-4.356843
-4.455008
-4.59379
-0
-0
-0
-0
-0
-0
-0
-0
-0
-0
-0
-0
-4.112725
-4.143196
-4.20217
-4.293919
-4.423311
-0
-0
-0
-0
-0
-0
-0
-0
-0
-0
-0
-0
-0
-3.966194
-3.994829
-4.050138
-4.135989
-4.256757
-0
-0
-0
-0
-0
-0
-0
-0
-0
-0
-0
-0
-0
-0
-3.818652
-3.845589
-3.89744
-3.977708
-4.09033
-0
-0
-0
-0
-0
-0
-0
-0
-0
-0
-3.674484
-3.69993
-3.748662
-3.823859
-3.929075
-0
-0
-0
-0
-0
-0
-0
-0
-0
-0
-3.539118
-3.563331
-3.609374
-3.680152
-3.778898
-0
-0
-0
-0
-0
-0
-0
-0
-0
-0
-3.415302
-3.438503
-3.48228
-3.549287
-3.642487
-0
-0
-0
-0
-0
-0
-0
-0
-0
-0
-3.303698
-3.326098
-3.367965
-3.431778
-3.520258
-0
-0
-0
-0
-0
-0
-0
-0
-0
-0
-6.613103
-6.728081
-6.932708
-7.261384
-7.764169
-0
-6.298201
-6.391568
-6.560592
-6.827932
-7.230733
-0
-0
-6.033052
-6.112375
-6.257531
-6.486452
-6.823965
-0
-0
-0
-5.801922
-5.871288
-5.999825
-6.201606
-6.496355
-0
-0
-0
-0
-5.589809
-5.65179
-5.767524
-5.949069
-6.211886
-0
-0
-0
-0
-0
-5.381861
-5.437667
-5.542713
-5.707177
-5.944145
-0
-0
-0
-0
-0
-0
-5.170517
-5.220731
-5.315945
-5.464987
-5.678666
-0
-0
-0
-0
-0
-0
-0
-4.963085
-5.008385
-5.094928
-5.230314
-5.423781
-0
-0
-0
-0
-0
-0
-0
-0
-4.766535
-4.807697
-4.886811
-5.010534
-5.186765
-0
-0
-0
-0
-0
-0
-0
-0
-0
-4.583744
-4.62148
-4.694318
-4.808142
-4.969846
-0
-0
-0
-0
-0
-0
-0
-0
-0
-0
-4.414873
-4.449781
-4.517314
-4.622727
-4.772105
-0
-0
-0
-0
-0
-0
-0
-0
-0
-0
-0
-4.25851
-4.291073
-4.354088
-4.452286
-4.591099
-0
-0
-0
-0
-0
-0
-0
-0
-0
-0
-0
-0
-4.112126
-4.142706
-4.201813
-4.293726
-4.42333
-0
-0
-0
-0
-0
-0
-0
-0
-0
-0
-0
-0
-0
-3.972048
-4.000903
-4.056531
-4.142827
-4.264198
-0
-0
-0
-0
-0
-0
-0
-0
-0
-0
-0
-0
-0
-0
-3.833633
-3.86092
-3.913327
-3.994402
-4.108137
-0
-0
-0
-0
-0
-0
-0
-0
-0
-0
-0
-0
-0
-0
-0
-3.693936
-3.719751
-3.769088
-3.845174
-3.951621
-0
-0
-0
-0
-0
-0
-0
-0
-0
-0
-3.557087
-3.581598
-3.628137
-3.69965
-3.799413
-0
-0
-0
-0
-0
-0
-0
-0
-0
-0
-3.428314
-3.451711
-3.49582
-3.563318
-3.657199
-0
-0
-0
-0
-0
-0
-0
-0
-0
-0
-3.310287
-3.332782
-3.374809
-3.438859
-3.527667
-0
-0
-0
-0
-0
-0
-0
-0
-0
-0
-3.203748
-3.225491
-3.26577
-3.326867
-3.411334
-0
-0
-0
-0
-0
-0
-0
-0
-0
-0
-6.275484
-6.36729
-6.533907
-6.79752
-7.194209
-0
-0
-5.994447
-6.071448
-6.213095
-6.436692
-6.766029
-0
-0
-0
-5.755191
-5.821994
-5.946676
-6.142743
-6.428922
-0
-0
-0
-0
-5.544665
-5.604241
-5.716399
-5.892696
-6.147831
-0
-0
-0
-0
-0
-5.350059
-5.404075
-5.506498
-5.667175
-5.898663
-0
-0
-0
-0
-0
-0
-5.158126
-5.207453
-5.301425
-5.448723
-5.659938
-0
-0
-0
-0
-0
-0
-0
-4.96228
-5.007229
-5.093327
-5.228124
-5.420784
-0
-0
-0
-0
-0
-0
-0
-0
-4.769363
-4.810406
-4.889397
-5.012981
-5.189036
-0
-0
-0
-0
-0
-0
-0
-0
-0
-4.585955
-4.62366
-4.696478
-4.810292
-4.971993
-0
-0
-0
-0
-0
-0
-0
-0
-0
-0
-4.414873
-4.449781
-4.517314
-4.622727
-4.772105
-0
-0
-0
-0
-0
-0
-0
-0
-0
-0
-0
-4.256393
-4.288971
-4.351987
-4.450175
-4.588964
-0
-0
-0
-0
-0
-0
-0
-0
-0
-0
-0
-0
-4.109306
-4.139923
-4.199055
-4.290982
-4.420593
-0
-0
-0
-0
-0
-0
-0
-0
-0
-0
-0
-0
-0
-3.97131
-4.000251
-4.055982
-4.142406
-4.26394
-0
-0
-0
-0
-0
-0
-0
-0
-0
-0
-0
-0
-0
-0
-3.838984
-3.866454
-3.919131
-4.000585
-4.114835
-0
-0
-0
-0
-0
-0
-0
-0
-0
-0
-0
-0
-0
-0
-0
-3.707965
-3.734079
-3.783903
-3.8607
-3.968129
-0
-0
-0
-0
-0
-0
-0
-0
-0
-0
-0
-0
-0
-0
-0
-0
-3.575441
-3.600276
-3.647353
-3.719663
-3.820529
-0
-0
-0
-0
-0
-0
-0
-0
-0
-0
-3.445343
-3.469004
-3.51356
-3.581722
-3.676522
-0
-0
-0
-0
-0
-0
-0
-0
-0
-0
-3.322652
-3.345324
-3.387651
-3.452149
-3.541575
-0
-0
-0
-0
-0
-0
-0
-0
-0
-0
-3.21002
-3.231849
-3.272274
-3.333588
-3.418355
-0
-0
-0
-0
-0
-0
-0
-0
-0
-0
-3.108176
-3.129335
-3.168123
-3.226714
-3.307459
-0
-0
-0
-0
-0
-0
-0
-0
-0
-0
-5.974157
-6.049983
-6.189853
-6.410764
-6.736004
-0
-0
-0
-5.720442
-5.785459
-5.907448
-6.099536
-6.379791
-0
-0
-0
-0
-5.502405
-5.559965
-5.669106
-5.840985
-6.0897
-0
-0
-0
-0
-0
-5.309178
-5.361283
-5.460859
-5.617414
-5.84298
-0
-0
-0
-0
-0
-0
-5.129438
-5.177333
-5.269211
-5.413505
-5.620461
-0
-0
-0
-0
-0
-0
-0
-4.951323
-4.995564
-5.080673
-5.214096
-5.404844
-0
-0
-0
-0
-0
-0
-0
-0
-4.768973
-4.80974
-4.888386
-5.011521
-5.186974
-0
-0
-0
-0
-0
-0
-0
-0
-0
-4.588811
-4.626425
-4.699156
-4.812877
-4.974468
-0
-0
-0
-0
-0
-0
-0
-0
-0
-0
-4.417039
-4.451926
-4.519449
-4.624864
-4.774254
-0
-0
-0
-0
-0
-0
-0
-0
-0
-0
-0
-4.256393
-4.288971
-4.351987
-4.450175
-4.588964
-0
-0
-0
-0
-0
-0
-0
-0
-0
-0
-0
-0
-4.107241
-4.137867
-4.196994
-4.288904
-4.418484
-0
-0
-0
-0
-0
-0
-0
-0
-0
-0
-0
-0
-0
-3.968526
-3.997493
-4.053236
-4.139661
-4.261184
-0
-0
-0
-0
-0
-0
-0
-0
-0
-0
-0
-0
-0
-0
-3.838133
-3.865672
-3.918428
-3.999981
-4.114357
-0
-0
-0
-0
-0
-0
-0
-0
-0
-0
-0
-0
-0
-0
-0
-3.712873
-3.739139
-3.789193
-3.866314
-3.974186
-0
-0
-0
-0
-0
-0
-0
-0
-0
-0
-0
-0
-0
-0
-0
-0
-3.58861
-3.613705
-3.661209
-3.734148
-3.835885
-0
-0
-0
-0
-0
-0
-0
-0
-0
-0
-0
-0
-0
-0
-0
-0
-0
-3.462697
-3.486643
-3.531682
-3.600558
-3.696352
-0
-0
-0
-0
-0
-0
-0
-0
-0
-0
-3.338819
-3.361726
-3.404457
-3.469556
-3.559817
-0
-0
-0
-0
-0
-0
-0
-0
-0
-0
-3.221792
-3.243778
-3.284476
-3.346198
-3.43153
-0
-0
-0
-0
-0
-0
-0
-0
-0
-0
-3.114156
-3.135393
-3.174314
-3.233104
-3.314123
-0
-0
-0
-0
-0
-0
-0
-0
-0
-0
-3.016739
-3.037312
-3.074732
-3.130973
-3.208272
-0
-0
-0
-0
-0
-0
-0
-0
-0
-0
-5.702142
-5.766249
-5.886868
-6.076935
-6.354193
-0
-0
-0
-0
-5.470876
-5.52702
-5.634038
-5.80281
-6.047033
-0
-0
-0
-0
-0
-5.27069
-5.321177
-5.418325
-5.571365
-5.7919
-0
-0
-0
-0
-0
-0
-5.092178
-5.138524
-5.228089
-5.369052
-5.571299
-0
-0
-0
-0
-0
-0
-0
-4.92528
-4.968358
-5.05176
-5.182749
-5.370083
-0
-0
-0
-0
-0
-0
-0
-0
-4.759223
-4.799417
-4.877263
-4.999293
-5.173227
-0
-0
-0
-0
-0
-0
-0
-0
-0
-4.588753
-4.626149
-4.698609
-4.811983
-4.973117
-0
-0
-0
-0
-0
-0
-0
-0
-0
-0
-4.419898
-4.454717
-4.52218
-4.627536
-4.776862
-0
-0
-0
-0
-0
-0
-0
-0
-0
-0
-0
-4.25851
-4.291073
-4.354088
-4.452286
-4.591099
-0
-0
-0
-0
-0
-0
-0
-0
-0
-0
-0
-0
-4.107241
-4.137867
-4.196994
-4.288904
-4.418484
-0
-0
-0
-0
-0
-0
-0
-0
-0
-0
-0
-0
-0
-3.966514
-3.995485
-4.05122
-4.137622
-4.259109
-0
-0
-0
-0
-0
-0
-0
-0
-0
-0
-0
-0
-0
-0
-3.835393
-3.862948
-3.915707
-3.997249
-4.111601
-0
-0
-0
-0
-0
-0
-0
-0
-0
-0
-0
-0
-0
-0
-0
-3.711936
-3.738252
-3.788367
-3.865563
-3.97353
-0
-0
-0
-0
-0
-0
-0
-0
-0
-0
-0
-0
-0
-0
-0
-0
-3.593128
-3.618349
-3.666046
-3.739264
-3.841384
-0
-0
-0
-0
-0
-0
-0
-0
-0
-0
-0
-0
-0
-0
-0
-0
-0
-3.475091
-3.49926
-3.544676
-3.614111
-3.710683
-0
-0
-0
-0
-0
-0
-0
-0
-0
-0
-0
-0
-0
-0
-0
-0
-0
-0
-3.355259
-3.378419
-3.421582
-3.487327
-3.578485
-0
-0
-0
-0
-0
-0
-0
-0
-0
-0
-3.237167
-3.259363
-3.300427
-3.362695
-3.448789
-0
-0
-0
-0
-0
-0
-0
-0
-0
-0
-3.12538
-3.146758
-3.185927
-3.24509
-3.326627
-0
-0
-0
-0
-0
-0
-0
-0
-0
-0
-3.022449
-3.043091
-3.080634
-3.137058
-3.21461
-0
-0
-0
-0
-0
-0
-0
-0
-0
-0
-2.929146
-2.949194
-2.985296
-3.039366
-3.113435
-0
-0
-0
-0
-0
-0
-0
-0
-0
-0
-5.454242
-5.509663
-5.615595
-5.78278
-6.024715
-0
-0
-0
-0
-0
-5.241889
-5.291235
-5.386663
-5.537211
-5.754193
-0
-0
-0
-0
-0
-0
-5.056917
-5.101941
-5.189516
-5.327605
-5.525801
-0
-0
-0
-0
-0
-0
-0
-4.891132
-4.932935
-5.014424
-5.142669
-5.326154
-0
-0
-0
-0
-0
-0
-0
-0
-4.735451
-4.774689
-4.851122
-4.971142
-5.142282
-0
-0
-0
-0
-0
-0
-0
-0
-0
-4.58003
-4.616957
-4.688762
-4.801233
-4.961135
-0
-0
-0
-0
-0
-0
-0
-0
-0
-0
-4.420108
-4.454754
-4.522003
-4.627089
-4.776063
-0
-0
-0
-0
-0
-0
-0
-0
-0
-0
-0
-4.261356
-4.293869
-4.356843
-4.455008
-4.59379
-0
-0
-0
-0
-0
-0
-0
-0
-0
-0
-0
-0
-4.109306
-4.139923
-4.199055
-4.290982
-4.420593
-0
-0
-0
-0
-0
-0
-0
-0
-0
-0
-0
-0
-0
-3.966514
-3.995485
-4.05122
-4.137622
-4.259109
-0
-0
-0
-0
-0
-0
-0
-0
-0
-0
-0
-0
-0
-0
-3.833435
-3.86099
-3.913738
-3.995254
-4.109566
-0
-0
-0
-0
-0
-0
-0
-0
-0
-0
-0
-0
-0
-0
-0
-3.709246
-3.735571
-3.78568
-3.862857
-3.97079
-0
-0
-0
-0
-0
-0
-0
-0
-0
-0
-0
-0
-0
-0
-0
-0
-3.592121
-3.617381
-3.665123
-3.738396
-3.840587
-0
-0
-0
-0
-0
-0
-0
-0
-0
-0
-0
-0
-0
-0
-0
-0
-0
-3.479262
-3.503536
-3.549118
-3.618791
-3.715694
-0
-0
-0
-0
-0
-0
-0
-0
-0
-0
-0
-0
-0
-0
-0
-0
-0
-0
-3.366949
-3.390303
-3.433799
-3.500044
-3.591897
-0
-0
-0
-0
-0
-0
-0
-0
-0
-0
-0
-0
-0
-0
-0
-0
-0
-0
-0
-3.252773
-3.27519
-3.316644
-3.379497
-3.466406
-0
-0
-0
-0
-0
-0
-0
-0
-0
-0
-3.140026
-3.161592
-3.201092
-3.260755
-3.342987
-0
-0
-0
-0
-0
-0
-0
-0
-0
-0
-3.033167
-3.053935
-3.091705
-3.14847
-3.226498
-0
-0
-0
-0
-0
-0
-0
-0
-0
-0
-2.934604
-2.954717
-2.99093
-3.045168
-3.119471
-0
-0
-0
-0
-0
-0
-0
-0
-0
-0
-2.845243
-2.864712
-2.899601
-2.951598
-3.022673
-0
-0
-0
-0
-0
-0
-0
-0
-0
-0
-5.226671
-5.275431
-5.369977
-5.519246
-5.73441
-0
-0
-0
-0
-0
-0
-5.030461
-5.074547
-5.160704
-5.296744
-5.492056
-0
-0
-0
-0
-0
-0
-0
-4.858664
-4.899372
-4.979199
-5.105053
-5.285191
-0
-0
-0
-0
-0
-0
-0
-0
-4.704006
-4.742182
-4.81701
-4.934727
-5.102662
-0
-0
-0
-0
-0
-0
-0
-0
-0
-4.558226
-4.594359
-4.66498
-4.775767
-4.933339
-0
-0
-0
-0
-0
-0
-0
-0
-0
-0
-4.412263
-4.446524
-4.513231
-4.61757
-4.765531
-0
-0
-0
-0
-0
-0
-0
-0
-0
-0
-0
-4.261782
-4.294156
-4.356963
-4.454916
-4.593426
-0
-0
-0
-0
-0
-0
-0
-0
-0
-0
-0
-0
-4.112126
-4.142706
-4.201813
-4.293726
-4.42333
-0
-0
-0
-0
-0
-0
-0
-0
-0
-0
-0
-0
-0
-3.968526
-3.997493
-4.053236
-4.139661
-4.261184
-0
-0
-0
-0
-0
-0
-0
-0
-0
-0
-0
-0
-0
-0
-3.833435
-3.86099
-3.913738
-3.995254
-4.109566
-0
-0
-0
-0
-0
-0
-0
-0
-0
-0
-0
-0
-0
-0
-0
-3.707341
-3.733664
-3.783759
-3.860907
-3.968798
-0
-0
-0
-0
-0
-0
-0
-0
-0
-0
-0
-0
-0
-0
-0
-0
-3.589484
-3.614747
-3.662477
-3.735724
-3.837873
-0
-0
-0
-0
-0
-0
-0
-0
-0
-0
-0
-0
-0
-0
-0
-0
-0
-3.478203
-3.502505
-3.548118
-3.61783
-3.714784
-0
-0
-0
-0
-0
-0
-0
-0
-0
-0
-0
-0
-0
-0
-0
-0
-0
-0
-3.370812
-3.394253
-3.437889
-3.504341
-3.596481
-0
-0
-0
-0
-0
-0
-0
-0
-0
-0
-0
-0
-0
-0
-0
-0
-0
-0
-0
-3.263824
-3.286408
-3.328158
-3.391458
-3.478993
-0
-0
-0
-0
-0
-0
-0
-0
-0
-0
-0
-0
-0
-0
-0
-0
-0
-0
-0
-0
-3.154863
-3.176628
-3.216478
-3.276673
-3.359647
-0
-0
-0
-0
-0
-0
-0
-0
-0
-0
-3.047141
-3.068077
-3.106149
-3.16337
-3.242036
-0
-0
-0
-0
-0
-0
-0
-0
-0
-0
-2.944851
-2.96508
-3.0015
-3.056053
-3.130793
-0
-0
-0
-0
-0
-0
-0
-0
-0
-0
-2.850469
-2.869995
-2.904988
-2.95714
-3.028431
-0
-0
-0
-0
-0
-0
-0
-0
-0
-0
-2.764751
-2.783726
-2.81739
-2.867467
-2.935698
-0
-0
-0
-0
-0
-0
-0
-0
-0
-0
-5.016464
-5.060067
-5.145493
-5.280478
-5.474307
-0
-0
-0
-0
-0
-0
-0
-4.834246
-4.874172
-4.952811
-5.07695
-5.254691
-0
-0
-0
-0
-0
-0
-0
-0
-4.673979
-4.711235
-4.784658
-4.900352
-5.065474
-0
-0
-0
-0
-0
-0
-0
-0
-0
-4.529148
-4.564387
-4.633644
-4.742474
-4.897332
-0
-0
-0
-0
-0
-0
-0
-0
-0
-0
-4.392179
-4.425774
-4.491479
-4.594389
-4.740379
-0
-0
-0
-0
-0
-0
-0
-0
-0
-0
-4.254695
-4.286752
-4.349107
-4.446436
-4.5841
-0
-0
-0
-0
-0
-0
-0
-0
-0
-0
-0
-0
-4.112725
-4.143196
-4.20217
-4.293919
-4.423311
-0
-0
-0
-0
-0
-0
-0
-0
-0
-0
-0
-0
-0
-3.97131
-4.000251
-4.055982
-4.142406
-4.26394
-0
-0
-0
-0
-0
-0
-0
-0
-0
-0
-0
-0
-0
-0
-3.835393
-3.862948
-3.915707
-3.997249
-4.111601
-0
-0
-0
-0
-0
-0
-0
-0
-0
-0
-0
-0
-0
-0
-0
-3.707341
-3.733664
-3.783759
-3.860907
-3.968798
-0
-0
-0
-0
-0
-0
-0
-0
-0
-0
-0
-0
-0
-0
-0
-0
-3.587633
-3.612891
-3.660604
-3.733822
-3.835927
-0
-0
-0
-0
-0
-0
-0
-0
-0
-0
-0
-0
-0
-0
-0
-0
-0
-3.475623
-3.499922
-3.545519
-3.615199
-3.712105
-0
-0
-0
-0
-0
-0
-0
-0
-0
-0
-0
-0
-0
-0
-0
-0
-0
-0
-3.369714
-3.393173
-3.436829
-3.503308
-3.595481
-0
-0
-0
-0
-0
-0
-0
-0
-0
-0
-0
-0
-0
-0
-0
-0
-0
-0
-0
-3.267414
-3.290068
-3.331938
-3.395416
-3.483201
-0
-0
-0
-0
-0
-0
-0
-0
-0
-0
-0
-0
-0
-0
-0
-0
-0
-0
-0
-0
-3.16533
-3.187242
-3.227354
-3.287951
-3.371488
-0
-0
-0
-0
-0
-0
-0
-0
-0
-0
-0
-0
-0
-0
-0
-0
-0
-0
-0
-0
-3.061274
-3.082384
-3.120774
-3.178478
-3.257822
-0
-0
-0
-0
-0
-0
-0
-0
-0
-0
-2.958202
-2.978583
-3.015276
-3.070249
-3.145574
-0
-0
-0
-0
-0
-0
-0
-0
-0
-0
-2.860283
-2.879911
-2.915094
-2.967535
-3.03923
-0
-0
-0
-0
-0
-0
-0
-0
-0
-0
-2.769759
-2.788788
-2.822546
-2.872767
-2.941197
-0
-0
-0
-0
-0
-0
-0
-0
-0
-0
-2.687645
-2.705972
-2.738535
-2.786724
-2.85231
-0
-0
-0
-0
-0
-0
-0
-0
-0
-0
-4.821311
-4.860835
-4.938858
-5.062111
-5.238615
-0
-0
-0
-0
-0
-0
-0
-0
-4.651347
-4.687945
-4.760357
-4.874595
-5.037691
-0
-0
-0
-0
-0
-0
-0
-0
-0
-4.50127
-4.53573
-4.603785
-4.710882
-4.863339
-0
-0
-0
-0
-0
-0
-0
-0
-0
-0
-4.365188
-4.398024
-4.46256
-4.563787
-4.70745
-0
-0
-0
-0
-0
-0
-0
-0
-0
-0
-4.236122
-4.267617
-4.329116
-4.425221
-4.5612
-0
-0
-0
-0
-0
-0
-0
-0
-0
-0
-4.106297
-4.136503
-4.195099
-4.286323
-4.415004
-0
-0
-0
-0
-0
-0
-0
-0
-0
-0
-0
-0
-0
-3.972048
-4.000903
-4.056531
-4.142827
-4.264198
-0
-0
-0
-0
-0
-0
-0
-0
-0
-0
-0
-0
-0
-0
-3.838133
-3.865672
-3.918428
-3.999981
-4.114357
-0
-0
-0
-0
-0
-0
-0
-0
-0
-0
-0
-0
-0
-0
-0
-3.709246
-3.735571
-3.78568
-3.862857
-3.97079
-0
-0
-0
-0
-0
-0
-0
-0
-0
-0
-0
-0
-0
-0
-0
-0
-3.587633
-3.612891
-3.660604
-3.733822
-3.835927
-0
-0
-0
-0
-0
-0
-0
-0
-0
-0
-0
-0
-0
-0
-0
-0
-0
-3.473825
-3.498117
-3.543696
-3.613345
-3.710207
-0
-0
-0
-0
-0
-0
-0
-0
-0
-0
-0
-0
-0
-0
-0
-0
-0
-0
-3.367192
-3.390645
-3.434281
-3.500724
-3.592845
-0
-0
-0
-0
-0
-0
-0
-0
-0
-0
-0
-0
-0
-0
-0
-0
-0
-0
-0
-3.266288
-3.288952
-3.330834
-3.394327
-3.482133
-0
-0
-0
-0
-0
-0
-0
-0
-0
-0
-0
-0
-0
-0
-0
-0
-0
-0
-0
-0
-3.168675
-3.190644
-3.230857
-3.291609
-3.375365
-0
-0
-0
-0
-0
-0
-0
-0
-0
-0
-0
-0
-0
-0
-0
-0
-0
-0
-0
-0
-3.071211
-3.092445
-3.13107
-3.189135
-3.26899
-0
-0
-0
-0
-0
-0
-0
-0
-0
-0
-0
-0
-0
-0
-0
-0
-0
-0
-0
-0
-2.971682
-2.992221
-3.029201
-3.084615
-3.16056
-0
-0
-0
-0
-0
-0
-0
-0
-0
-0
-2.873059
-2.89282
-2.928257
-2.981081
-3.053316
-0
-0
-0
-0
-0
-0
-0
-0
-0
-0
-2.779165
-2.79829
-2.832221
-2.882711
-2.951513
-0
-0
-0
-0
-0
-0
-0
-0
-0
-0
-2.692452
-2.710826
-2.743477
-2.791799
-2.857571
-0
-0
-0
-0
-0
-0
-0
-0
-0
-0
-2.613642