/*--------------------------------*- C++ -*----------------------------------*\
| =========                 |                                                 |
| \\      /  F ield         | OpenFOAM: The Open Source CFD Toolbox           |
|  \\    /   O peration     | Version:  2306                                  |
|   \\  /    A nd           | Website:  www.openfoam.com                      |
|    \\/     M anipulation  |                                                 |
\*---------------------------------------------------------------------------*/
FoamFile
{
    version     2.0;
    format      ascii;
    arch        "LSB;label=32;scalar=64";
    class       volScalarField;
    location    "1.5/fuel";
    object      nernst;
}
// * * * * * * * * * * * * * * * * * * * * * * * * * * * * * * * * * * * * * //

dimensions      [1 2 -3 0 0 -1 0];

internalField   nonuniform List<scalar> 
16000
(
-1.743091
-1.74402
-1.730648
-1.743154
-1.745905
-1.731264
-1.744084
-1.719415
-1.730693
-1.743274
-1.74876
-1.732508
-1.745973
-1.719885
-1.73131
-1.744207
-1.710306
-1.719449
-1.73078
-1.743449
-1.752472
-1.73438
-1.748836
-1.720832
-1.732555
-1.746104
-1.710689
-1.719918
-1.731398
-1.744387
-1.702778
-1.710332
-1.719514
-1.730907
-1.743678
-1.756465
-1.736793
-1.75256
-1.722257
-1.734429
-1.748979
-1.711461
-1.720866
-1.732646
-1.746294
-1.703102
-1.710715
-1.719984
-1.731527
-1.744623
-1.696392
-1.702798
-1.710383
-1.71961
-1.731075
-1.743909
-1.759386
-1.739376
-1.75657
-1.724096
-1.736845
-1.752724
-1.712623
-1.722292
-1.734524
-1.749187
-1.703755
-1.711487
-1.720933
-1.73278
-1.746543
-1.696673
-1.703122
-1.710766
-1.720081
-1.731697
-1.74486
-1.690854
-1.696408
-1.702839
-1.710459
-1.719736
-1.731243
-1.744103
-1.761119
-1.741313
-1.759507
-1.726072
-1.73943
-1.756763
-1.714121
-1.724131
-1.736946
-1.752961
-1.704736
-1.712648
-1.722361
-1.734664
-1.749461
-1.697238
-1.703775
-1.711539
-1.721032
-1.732955
-1.746794
-1.691102
-1.696688
-1.703164
-1.710843
-1.720209
-1.731868
-1.745059
-1.685966
-1.690866
-1.696442
-1.702902
-1.71056
-1.719864
-1.731385
-1.744296
-1.762013
-1.742522
-1.761253
-1.727584
-1.74137
-1.759725
-1.715736
-1.726107
-1.73954
-1.757041
-1.706002
-1.714146
-1.724202
-1.737096
-1.753273
-1.698088
-1.704756
-1.712701
-1.722463
-1.734849
-1.749735
-1.691601
-1.697254
-1.703817
-1.711617
-1.721163
-1.733132
-1.747005
-1.686188
-1.691114
-1.696723
-1.703226
-1.710945
-1.720338
-1.732012
-1.745258
-1.681591
-1.685976
-1.690896
-1.696495
-1.702985
-1.710662
-1.719971
-1.731526
-1.744488
-1.762381
-1.743189
-1.762155
-1.728559
-1.742582
-1.761488
-1.716985
-1.727618
-1.741485
-1.760036
-1.707369
-1.71576
-1.726181
-1.739702
-1.757406
-1.699185
-1.706021
-1.7142
-1.724309
-1.737294
-1.753586
-1.692351
-1.698104
-1.704798
-1.712781
-1.722599
-1.735035
-1.749967
-1.686635
-1.691614
-1.697289
-1.703881
-1.711721
-1.721295
-1.73328
-1.747216
-1.681792
-1.686198
-1.691144
-1.696776
-1.70331
-1.711047
-1.720447
-1.732155
-1.745456
-1.677629
-1.6816
-1.686002
-1.690941
-1.696565
-1.70307
-1.710747
-1.720078
-1.731666
-1.74468
-1.762381
-1.743479
-1.762528
-1.729118
-1.743251
-1.762402
-1.717806
-1.728593
-1.742701
-1.761822
-1.708433
-1.717008
-1.727692
-1.741656
-1.760441
-1.700369
-1.707387
-1.715815
-1.726293
-1.739917
-1.757771
-1.693317
-1.699199
-1.706064
-1.714282
-1.724451
-1.737493
-1.753851
-1.687306
-1.692363
-1.698139
-1.704863
-1.712887
-1.722735
-1.735191
-1.750199
-1.682197
-1.686645
-1.691643
-1.697342
-1.703965
-1.711825
-1.721406
-1.733428
-1.747426
-1.677813
-1.681801
-1.686224
-1.691189
-1.696847
-1.703395
-1.711134
-1.720555
-1.732298
-1.745653
-1.674007
-1.677636
-1.681621
-1.686041
-1.691002
-1.696637
-1.70314
-1.710833
-1.720185
-1.731805
-1.745611
-1.762013
-1.743479
-1.762528
-1.72937
-1.743543
-1.762781
-1.718287
-1.729152
-1.743373
-1.762751
-1.70914
-1.717828
-1.728668
-1.742877
-1.762255
-1.701295
-1.708449
-1.717062
-1.727807
-1.741882
-1.760847
-1.694362
-1.700382
-1.707429
-1.715899
-1.726442
-1.740133
-1.758084
-1.688171
-1.693329
-1.699234
-1.70613
-1.714391
-1.724593
-1.737661
-1.754118
-1.682804
-1.687316
-1.692392
-1.698193
-1.704949
-1.712994
-1.722849
-1.735347
-1.75043
-1.678183
-1.682205
-1.68667
-1.691689
-1.697414
-1.704051
-1.711913
-1.721516
-1.733576
-1.747635
-1.674176
-1.67782
-1.681822
-1.686263
-1.69125
-1.696919
-1.703466
-1.711219
-1.720662
-1.732439
-1.746611
-1.670668
-1.674013
-1.677655
-1.681656
-1.686095
-1.691064
-1.696697
-1.703211
-1.710917
-1.72029
-1.732482
-1.746342
-1.761119
-1.743189
-1.762155
-1.72937
-1.743543
-1.762781
-1.718507
-1.729404
-1.743666
-1.763136
-1.709559
-1.718308
-1.729228
-1.743552
-1.763201
-1.701914
-1.709155
-1.717881
-1.728783
-1.74311
-1.762689
-1.69518
-1.701306
-1.708491
-1.717146
-1.72796
-1.742108
-1.761196
-1.689105
-1.694372
-1.700417
-1.707496
-1.716013
-1.726593
-1.740316
-1.758401
-1.683587
-1.68818
-1.693358
-1.699289
-1.706218
-1.714502
-1.724713
-1.737829
-1.754386
-1.678738
-1.682812
-1.687341
-1.692438
-1.698265
-1.705037
-1.713083
-1.722964
-1.735502
-1.750662
-1.674518
-1.67819
-1.682227
-1.68671
-1.69175
-1.697487
-1.704123
-1.712
-1.721626
-1.733722
-1.748654
-1.670825
-1.674182
-1.677839
-1.681857
-1.686317
-1.691313
-1.696979
-1.703537
-1.711305
-1.720769
-1.733127
-1.747369
-1.667568
-1.670672
-1.67403
-1.677687
-1.681704
-1.686149
-1.691116
-1.696757
-1.703281
-1.711001
-1.720802
-1.733011
-1.746939
-1.759386
-1.742522
-1.761253
-1.729118
-1.743251
-1.762402
-1.718507
-1.729404
-1.743666
-1.763136
-1.709753
-1.718529
-1.729481
-1.743848
-1.763595
-1.702283
-1.709573
-1.718362
-1.729344
-1.743789
-1.763653
-1.69573
-1.701924
-1.709196
-1.717966
-1.728938
-1.743343
-1.763062
-1.689838
-1.695189
-1.70134
-1.708557
-1.717261
-1.728114
-1.7423
-1.761549
-1.684433
-1.689113
-1.694401
-1.700472
-1.707588
-1.716127
-1.72672
-1.740501
-1.758722
-1.679454
-1.683594
-1.688205
-1.693405
-1.699363
-1.706308
-1.714594
-1.724833
-1.737998
-1.754656
-1.675029
-1.678745
-1.682834
-1.687381
-1.692501
-1.698339
-1.70511
-1.713173
-1.723077
-1.735657
-1.751791
-1.671141
-1.674523
-1.678209
-1.682262
-1.686764
-1.691813
-1.697548
-1.704195
-1.712086
-1.721735
-1.734433
-1.749477
-1.667714
-1.670829
-1.674199
-1.67787
-1.681905
-1.686372
-1.691365
-1.697039
-1.703607
-1.711389
-1.721286
-1.733665
-1.747992
-1.664672
-1.667571
-1.670687
-1.674058
-1.677729
-1.681753
-1.686195
-1.691167
-1.696816
-1.70335
-1.711409
-1.721201
-1.733438
-1.747394
-1.756465
-1.741313
-1.759507
-1.728559
-1.742582
-1.761488
-1.718287
-1.729152
-1.743373
-1.762751
-1.709753
-1.718529
-1.729481
-1.743848
-1.763595
-1.702455
-1.709767
-1.718582
-1.729597
-1.744087
-1.764055
-1.696059
-1.702293
-1.709614
-1.718446
-1.7295
-1.744027
-1.76404
-1.690332
-1.695738
-1.701957
-1.709262
-1.71808
-1.729094
-1.743541
-1.763438
-1.685097
-1.689845
-1.695217
-1.701394
-1.708648
-1.717376
-1.728243
-1.742494
-1.761907
-1.680226
-1.684439
-1.689138
-1.694448
-1.700548
-1.70768
-1.716223
-1.726848
-1.740688
-1.759048
-1.675688
-1.679459
-1.683616
-1.688245
-1.693468
-1.699438
-1.706383
-1.714687
-1.724953
-1.738167
-1.755978
-1.671616
-1.675034
-1.678764
-1.682869
-1.687436
-1.692564
-1.698401
-1.705183
-1.713261
-1.72319
-1.73641
-1.752755
-1.66801
-1.671146
-1.67454
-1.678241
-1.68231
-1.68682
-1.691866
-1.697608
-1.704266
-1.712172
-1.722264
-1.734995
-1.75017
-1.66481
-1.667718
-1.670845
-1.674227
-1.677913
-1.681954
-1.686417
-1.691416
-1.697099
-1.703677
-1.7118
-1.721689
-1.734101
-1.748472
-1.661954
-1.664675
-1.667585
-1.670713
-1.674096
-1.677773
-1.681793
-1.68624
-1.691219
-1.696875
-1.703687
-1.711725
-1.721522
-1.73376
-1.747702
-1.752472
-1.739376
-1.75657
-1.727584
-1.74137
-1.759725
-1.717806
-1.728593
-1.742701
-1.761822
-1.709559
-1.718308
-1.729228
-1.743552
-1.763201
-1.702455
-1.709767
-1.718582
-1.729597
-1.744087
-1.764055
-1.696213
-1.702464
-1.709807
-1.718666
-1.729754
-1.744327
-1.76445
-1.690629
-1.696066
-1.702325
-1.709679
-1.71856
-1.729657
-1.744228
-1.764432
-1.685545
-1.690338
-1.695764
-1.702011
-1.709352
-1.718196
-1.729225
-1.74374
-1.763819
-1.680834
-1.685102
-1.689869
-1.695263
-1.70147
-1.70874
-1.717473
-1.728374
-1.74269
-1.762269
-1.6764
-1.680231
-1.68446
-1.689178
-1.694513
-1.700625
-1.707757
-1.716321
-1.726977
-1.740876
-1.76066
-1.672226
-1.675692
-1.679478
-1.683651
-1.688301
-1.693533
-1.699501
-1.706458
-1.714779
-1.725073
-1.73899
-1.757246
-1.668452
-1.67162
-1.675051
-1.678795
-1.682918
-1.687491
-1.692617
-1.698462
-1.705256
-1.71335
-1.72374
-1.737024
-1.753612
-1.665087
-1.668013
-1.671161
-1.674568
-1.678284
-1.682359
-1.686866
-1.691918
-1.697668
-1.704337
-1.71259
-1.722677
-1.735456
-1.750716
-1.662083
-1.664813
-1.667732
-1.67087
-1.674266
-1.677957
-1.681995
-1.686463
-1.691468
-1.697158
-1.704016
-1.712118
-1.722013
-1.734431
-1.748801
-1.659389
-1.661956
-1.664688
-1.667608
-1.670748
-1.674136
-1.67781
-1.681833
-1.686285
-1.691269
-1.69716
-1.703944
-1.711977
-1.721763
-1.733976
-1.74876
-1.736793
-1.75256
-1.726072
-1.73943
-1.756763
-1.716985
-1.727618
-1.741485
-1.760036
-1.70914
-1.717828
-1.728668
-1.742877
-1.762255
-1.702283
-1.709573
-1.718362
-1.729344
-1.743789
-1.763653
-1.696213
-1.702464
-1.709807
-1.718666
-1.729754
-1.744327
-1.76445
-1.690767
-1.696219
-1.702496
-1.709872
-1.71878
-1.729911
-1.74453
-1.764848
-1.685815
-1.690634
-1.696092
-1.702378
-1.709769
-1.718676
-1.729788
-1.744431
-1.764826
-1.681244
-1.685549
-1.690361
-1.69581
-1.702085
-1.709443
-1.718292
-1.729356
-1.743941
-1.764204
-1.67696
-1.680838
-1.685123
-1.689909
-1.695327
-1.701546
-1.708817
-1.717571
-1.728506
-1.742888
-1.764063
-1.672887
-1.676404
-1.68025
-1.684496
-1.689235
-1.694579
-1.700689
-1.707835
-1.716418
-1.727107
-1.741804
-1.762494
-1.669022
-1.67223
-1.675709
-1.67951
-1.6837
-1.688357
-1.693586
-1.699564
-1.706533
-1.714872
-1.725658
-1.739728
-1.758527
-1.665501
-1.668456
-1.671635
-1.675079
-1.678839
-1.682967
-1.687538
-1.69267
-1.698523
-1.705328
-1.713779
-1.724179
-1.73755
-1.754326
-1.662344
-1.66509
-1.668027
-1.671186
-1.674607
-1.678328
-1.6824
-1.686911
-1.69197
-1.697728
-1.704679
-1.712912
-1.723012
-1.735808
-1.751098
-1.659512
-1.662086
-1.664825
-1.667755
-1.670906
-1.674306
-1.677994
-1.682035
-1.686508
-1.691519
-1.697444
-1.704274
-1.712371
-1.722256
-1.734652
-1.65696
-1.659392
-1.661968
-1.664709
-1.667641
-1.670785
-1.674169
-1.677846
-1.681873
-1.686329
-1.691515
-1.697374
-1.704148
-1.712165
-1.721922
-1.745905
-1.73438
-1.748836
-1.724096
-1.736845
-1.752724
-1.715736
-1.726107
-1.73954
-1.757041
-1.708433
-1.717008
-1.727692
-1.741656
-1.760441
-1.701914
-1.709155
-1.717881
-1.728783
-1.74311
-1.762689
-1.696059
-1.702293
-1.709614
-1.718446
-1.7295
-1.744027
-1.76404
-1.690767
-1.696219
-1.702496
-1.709872
-1.71878
-1.729911
-1.74453
-1.764848
-1.685941
-1.690772
-1.696245
-1.702549
-1.709962
-1.718896
-1.730043
-1.744735
-1.76525
-1.681491
-1.685819
-1.690656
-1.696137
-1.702452
-1.70986
-1.718772
-1.72992
-1.744635
-1.765225
-1.677338
-1.681248
-1.685569
-1.690399
-1.695873
-1.702161
-1.709519
-1.718389
-1.729489
-1.744143
-1.766106
-1.673407
-1.676963
-1.680856
-1.685157
-1.689964
-1.695392
-1.70161
-1.708895
-1.71767
-1.728639
-1.743862
-1.766068
-1.669638
-1.67289
-1.67642
-1.680282
-1.684546
-1.689292
-1.694633
-1.700754
-1.707913
-1.716517
-1.727746
-1.742782
-1.764775
-1.666036
-1.669025
-1.672245
-1.675737
-1.679554
-1.68375
-1.688404
-1.69364
-1.699626
-1.706608
-1.715322
-1.726168
-1.74044
-1.759754
-1.662735
-1.665504
-1.668469
-1.671661
-1.675119
-1.678883
-1.683008
-1.687584
-1.692722
-1.698584
-1.705677
-1.714115
-1.724548
-1.737968
-1.754847
-1.659758
-1.662346
-1.665102
-1.66805
-1.671222
-1.674647
-1.678364
-1.682441
-1.686956
-1.692021
-1.698016
-1.704939
-1.71317
-1.723263
-1.736044
-1.657077
-1.659514
-1.662097
-1.664847
-1.667788
-1.670942
-1.674339
-1.67803
-1.682075
-1.686552
-1.691765
-1.697658
-1.704478
-1.712558
-1.722416
-1.654651
-1.656962
-1.659402
-1.661987
-1.664739
-1.667675
-1.670815
-1.674202
-1.677881
-1.681913
-1.686545
-1.691697
-1.697542
-1.704298
-1.712287
-1.74402
-1.732508
-1.745973
-1.722257
-1.734429
-1.748979
-1.714121
-1.724131
-1.736946
-1.752961
-1.707369
-1.71576
-1.726181
-1.739702
-1.757406
-1.701295
-1.708449
-1.717062
-1.727807
-1.741882
-1.760847
-1.69573
-1.701924
-1.709196
-1.717966
-1.728938
-1.743343
-1.763062
-1.690629
-1.696066
-1.702325
-1.709679
-1.71856
-1.729657
-1.744228
-1.764432
-1.685941
-1.690772
-1.696245
-1.702549
-1.709962
-1.718896
-1.730043
-1.744735
-1.76525
-1.681607
-1.685944
-1.690794
-1.69629
-1.702623
-1.710052
-1.718992
-1.730175
-1.74494
-1.765655
-1.677567
-1.681494
-1.685837
-1.690694
-1.6962
-1.702527
-1.709935
-1.718868
-1.730053
-1.74484
-1.767192
-1.673758
-1.677341
-1.681265
-1.685603
-1.690454
-1.695937
-1.702223
-1.709596
-1.718487
-1.729622
-1.745137
-1.768148
-1.670123
-1.673409
-1.676978
-1.680887
-1.685207
-1.690021
-1.695447
-1.701674
-1.708973
-1.717769
-1.729293
-1.744871
-1.768461
-1.666613
-1.669641
-1.672905
-1.676449
-1.680326
-1.684597
-1.68934
-1.694689
-1.700819
-1.707992
-1.717001
-1.728404
-1.743952
-1.767715
-1.663238
-1.666038
-1.669038
-1.672271
-1.675777
-1.679599
-1.683792
-1.688451
-1.693694
-1.699689
-1.706971
-1.715705
-1.72665
-1.741088
-1.760772
-1.660127
-1.662737
-1.665517
-1.668492
-1.671696
-1.675159
-1.67892
-1.683049
-1.687629
-1.692774
-1.698877
-1.705946
-1.714394
-1.724833
-1.738254
-1.65731
-1.65976
-1.662358
-1.665123
-1.668083
-1.671259
-1.67468
-1.678401
-1.682481
-1.687001
-1.692269
-1.698231
-1.705145
-1.71336
-1.723427
-1.654762
-1.657078
-1.659524
-1.662117
-1.664877
-1.667821
-1.670972
-1.674372
-1.678066
-1.682114
-1.686768
-1.691946
-1.697826
-1.704627
-1.71268
-1.652449
-1.654653
-1.656972
-1.65942
-1.662016
-1.664771
-1.667702
-1.670845
-1.674234
-1.677917
-1.682104
-1.6867
-1.691837
-1.697664
-1.704394
-1.743091
-1.731264
-1.744084
-1.720832
-1.732555
-1.746104
-1.712623
-1.722292
-1.734524
-1.749187
-1.706002
-1.714146
-1.724202
-1.737096
-1.753273
-1.700369
-1.707387
-1.715815
-1.726293
-1.739917
-1.757771
-1.69518
-1.701306
-1.708491
-1.717146
-1.72796
-1.742108
-1.761196
-1.690332
-1.695738
-1.701957
-1.709262
-1.71808
-1.729094
-1.743541
-1.763438
-1.685815
-1.690634
-1.696092
-1.702378
-1.709769
-1.718676
-1.729788
-1.744431
-1.764826
-1.681607
-1.685944
-1.690794
-1.69629
-1.702623
-1.710052
-1.718992
-1.730175
-1.74494
-1.765655
-1.677674
-1.68161
-1.685963
-1.690832
-1.696352
-1.702697
-1.710127
-1.719088
-1.730308
-1.745147
-1.767653
-1.673971
-1.677569
-1.681511
-1.685871
-1.690749
-1.696263
-1.702589
-1.710011
-1.718966
-1.730187
-1.745847
-1.769249
-1.670452
-1.67376
-1.677356
-1.681295
-1.685652
-1.69051
-1.69599
-1.702286
-1.709673
-1.718586
-1.730277
-1.746128
-1.770472
-1.667069
-1.670125
-1.673423
-1.677006
-1.680931
-1.685257
-1.690068
-1.695501
-1.701739
-1.709052
-1.718257
-1.729954
-1.74604
-1.771312
-1.663782
-1.666615
-1.669654
-1.672931
-1.676489
-1.680372
-1.684639
-1.689388
-1.694744
-1.700885
-1.70838
-1.717491
-1.729188
-1.745404
-1.771744
-1.660603
-1.66324
-1.66605
-1.669062
-1.672307
-1.675818
-1.679636
-1.683833
-1.688497
-1.693747
-1.699992
-1.707274
-1.716064
-1.727077
-1.741589
-1.65766
-1.660129
-1.662748
-1.665538
-1.668525
-1.671733
-1.675192
-1.678956
-1.683089
-1.687675
-1.693026
-1.699098
-1.706166
-1.714605
-1.725019
-1.654984
-1.657312
-1.659771
-1.662378
-1.665154
-1.668117
-1.671289
-1.674713
-1.678437
-1.68252
-1.687218
-1.69245
-1.6984
-1.705295
-1.713481
-1.652554
-1.654763
-1.657088
-1.659543
-1.662145
-1.664908
-1.667849
-1.671002
-1.674404
-1.678101
-1.682306
-1.686923
-1.692086
-1.697946
-1.704721
-1.650342
-1.65245
-1.654662
-1.656989
-1.659447
-1.662045
-1.664796
-1.667729
-1.670874
-1.674266
-1.678088
-1.682238
-1.686819
-1.691937
-1.69774
-1.730648
-1.743154
-1.719885
-1.73131
-1.744207
-1.711461
-1.720866
-1.732646
-1.746294
-1.704736
-1.712648
-1.722361
-1.734664
-1.749461
-1.699185
-1.706021
-1.7142
-1.724309
-1.737294
-1.753586
-1.694362
-1.700382
-1.707429
-1.715899
-1.726442
-1.740133
-1.758084
-1.689838
-1.695189
-1.70134
-1.708557
-1.717261
-1.728114
-1.7423
-1.761549
-1.685545
-1.690338
-1.695764
-1.702011
-1.709352
-1.718196
-1.729225
-1.74374
-1.763819
-1.681491
-1.685819
-1.690656
-1.696137
-1.702452
-1.70986
-1.718772
-1.72992
-1.744635
-1.765225
-1.677674
-1.68161
-1.685963
-1.690832
-1.696352
-1.702697
-1.710127
-1.719088
-1.730308
-1.745147
-1.767653
-1.67407
-1.677676
-1.681626
-1.685996
-1.690886
-1.696415
-1.702759
-1.710203
-1.719185
-1.730442
-1.74616
-1.769719
-1.67065
-1.673972
-1.677583
-1.681541
-1.685919
-1.690804
-1.696316
-1.702651
-1.710087
-1.719064
-1.730842
-1.746823
-1.771521
-1.667377
-1.670453
-1.673774
-1.677383
-1.681338
-1.685701
-1.690556
-1.696044
-1.70235
-1.709751
-1.719068
-1.73091
-1.747225
-1.773103
-1.664211
-1.66707
-1.670138
-1.673448
-1.677046
-1.680976
-1.685299
-1.690116
-1.695556
-1.701804
-1.709439
-1.71874
-1.730719
-1.747385
-1.774696
-1.661117
-1.663783
-1.666627
-1.669677
-1.672968
-1.67653
-1.68041
-1.684681
-1.689437
-1.694801
-1.701207
-1.708767
-1.718075
-1.730155
-1.747311
-1.779128
-1.658111
-1.660604
-1.663251
-1.666072
-1.669095
-1.672344
-1.675851
-1.679673
-1.683874
-1.688544
-1.694007
-1.70024
-1.707555
-1.716375
-1.72739
-1.655317
-1.657662
-1.66014
-1.662768
-1.665569
-1.668559
-1.671763
-1.675225
-1.678993
-1.68313
-1.687894
-1.693211
-1.699276
-1.706329
-1.714736
-1.652766
-1.654985
-1.657321
-1.659789
-1.662406
-1.665185
-1.668144
-1.671319
-1.674746
-1.678472
-1.682713
-1.687372
-1.69259
-1.698519
-1.705387
-1.650443
-1.652555
-1.654772
-1.657105
-1.659569
-1.662174
-1.664934
-1.667876
-1.671032
-1.674436
-1.678273
-1.682439
-1.687041
-1.692184
-1.69802
-1.648321
-1.650343
-1.652458
-1.654678
-1.657014
-1.659474
-1.662068
-1.664821
-1.667757
-1.670903
-1.674421
-1.678205
-1.682339
-1.686901
-1.691996
-1.719415
-1.730693
-1.743274
-1.710689
-1.719918
-1.731398
-1.744387
-1.703755
-1.711487
-1.720933
-1.73278
-1.746543
-1.698088
-1.704756
-1.712701
-1.722463
-1.734849
-1.749735
-1.693317
-1.699199
-1.706064
-1.714282
-1.724451
-1.737493
-1.753851
-1.689105
-1.694372
-1.700417
-1.707496
-1.716013
-1.726593
-1.740316
-1.758401
-1.685097
-1.689845
-1.695217
-1.701394
-1.708648
-1.717376
-1.728243
-1.742494
-1.761907
-1.681244
-1.685549
-1.690361
-1.69581
-1.702085
-1.709443
-1.718292
-1.729356
-1.743941
-1.764204
-1.677567
-1.681494
-1.685837
-1.690694
-1.6962
-1.702527
-1.709935
-1.718868
-1.730053
-1.74484
-1.767192
-1.67407
-1.677676
-1.681626
-1.685996
-1.690886
-1.696415
-1.702759
-1.710203
-1.719185
-1.730442
-1.74616
-1.769719
-1.670744
-1.674072
-1.67769
-1.681656
-1.686044
-1.690941
-1.696467
-1.70282
-1.710279
-1.719283
-1.731097
-1.747131
-1.77197
-1.667564
-1.670651
-1.673985
-1.67761
-1.681584
-1.685968
-1.690849
-1.696368
-1.702714
-1.710164
-1.719542
-1.731455
-1.747875
-1.774025
-1.664501
-1.667378
-1.670465
-1.673798
-1.677422
-1.681383
-1.685742
-1.690603
-1.696098
-1.702414
-1.710131
-1.719523
-1.731614
-1.748428
-1.776057
-1.661523
-1.664212
-1.667081
-1.670161
-1.673485
-1.677087
-1.681013
-1.685341
-1.690164
-1.695612
-1.702124
-1.709817
-1.719303
-1.731598
-1.748918
-1.779535
-1.658599
-1.661118
-1.663794
-1.666649
-1.669711
-1.673005
-1.676564
-1.680448
-1.684724
-1.689485
-1.695075
-1.701524
-1.709229
-1.718797
-1.731419
-1.750606
-1.783567
-1.655746
-1.658112
-1.660615
-1.663271
-1.666103
-1.669129
-1.672375
-1.675885
-1.67971
-1.683916
-1.68877
-1.694214
-1.700468
-1.707795
-1.716592
-1.653084
-1.655318
-1.657671
-1.660158
-1.662796
-1.6656
-1.668587
-1.671793
-1.675258
-1.679029
-1.683324
-1.688051
-1.693358
-1.699405
-1.706425
-1.650645
-1.652767
-1.654994
-1.657339
-1.659816
-1.662435
-1.665211
-1.668172
-1.671348
-1.674778
-1.678644
-1.682845
-1.68749
-1.692687
-1.698589
-1.648417
-1.650444
-1.652564
-1.654788
-1.65713
-1.659596
-1.662198
-1.664959
-1.667904
-1.671061
-1.674591
-1.678389
-1.682539
-1.687122
-1.692242
-1.646377
-1.648322
-1.650351
-1.652474
-1.654701
-1.657039
-1.659496
-1.662092
-1.664846
-1.667783
-1.671044
-1.674524
-1.678292
-1.682407
-1.686948
-1.710306
-1.719449
-1.73078
-1.743449
-1.703102
-1.710715
-1.719984
-1.731527
-1.744623
-1.697238
-1.703775
-1.711539
-1.721032
-1.732955
-1.746794
-1.692351
-1.698104
-1.704798
-1.712781
-1.722599
-1.735035
-1.749967
-1.688171
-1.693329
-1.699234
-1.70613
-1.714391
-1.724593
-1.737661
-1.754118
-1.684433
-1.689113
-1.694401
-1.700472
-1.707588
-1.716127
-1.72672
-1.740501
-1.758722
-1.680834
-1.685102
-1.689869
-1.695263
-1.70147
-1.70874
-1.717473
-1.728374
-1.74269
-1.762269
-1.677338
-1.681248
-1.685569
-1.690399
-1.695873
-1.702161
-1.709519
-1.718389
-1.729489
-1.744143
-1.766106
-1.673971
-1.677569
-1.681511
-1.685871
-1.690749
-1.696263
-1.702589
-1.710011
-1.718966
-1.730187
-1.745847
-1.769249
-1.670744
-1.674072
-1.67769
-1.681656
-1.686044
-1.690941
-1.696467
-1.70282
-1.710279
-1.719283
-1.731097
-1.747131
-1.77197
-1.667651
-1.670744
-1.674085
-1.677717
-1.681699
-1.686093
-1.690986
-1.69652
-1.702883
-1.710355
-1.719759
-1.731702
-1.748164
-1.774424
-1.664678
-1.667564
-1.670663
-1.67401
-1.677649
-1.681627
-1.686008
-1.690895
-1.696421
-1.702776
-1.710538
-1.719977
-1.732119
-1.749
-1.776776
-1.661798
-1.664502
-1.667389
-1.670488
-1.673834
-1.677463
-1.681419
-1.685783
-1.69065
-1.696152
-1.702726
-1.710482
-1.720033
-1.732387
-1.749731
-1.780094
-1.658984
-1.661523
-1.664222
-1.667103
-1.670194
-1.673522
-1.677121
-1.681051
-1.685383
-1.690212
-1.695883
-1.702432
-1.710259
-1.719951
-1.732598
-1.751006
-1.783334
-1.65621
-1.6586
-1.661128
-1.663814
-1.666681
-1.669746
-1.673036
-1.676599
-1.680486
-1.684768
-1.689724
-1.695342
-1.701905
-1.709802
-1.71974
-1.733559
-1.75262
-1.787005
-1.653492
-1.655747
-1.658122
-1.660633
-1.663299
-1.666134
-1.669157
-1.672405
-1.675918
-1.679746
-1.684115
-1.688946
-1.694403
-1.700659
-1.707955
-1.650949
-1.653085
-1.655327
-1.657689
-1.660185
-1.662826
-1.665626
-1.668615
-1.671823
-1.67529
-1.679202
-1.683459
-1.688174
-1.693462
-1.699476
-1.648611
-1.650646
-1.652775
-1.65501
-1.657364
-1.659843
-1.662459
-1.665236
-1.668199
-1.671378
-1.674933
-1.67876
-1.682945
-1.687569
-1.69274
-1.64647
-1.648418
-1.650451
-1.652579
-1.654812
-1.657155
-1.659618
-1.662221
-1.664984
-1.66793
-1.671202
-1.674693
-1.678475
-1.682607
-1.687166
-1.644505
-1.646378
-1.648329
-1.650365
-1.652496
-1.654725
-1.65706
-1.659518
-1.662115
-1.664871
-1.667913
-1.671135
-1.674599
-1.678349
-1.682443
-1.702778
-1.710332
-1.719514
-1.730907
-1.743678
-1.696673
-1.703122
-1.710766
-1.720081
-1.731697
-1.74486
-1.691601
-1.697254
-1.703817
-1.711617
-1.721163
-1.733132
-1.747005
-1.687306
-1.692363
-1.698139
-1.704863
-1.712887
-1.722735
-1.735191
-1.750199
-1.683587
-1.68818
-1.693358
-1.699289
-1.706218
-1.714502
-1.724713
-1.737829
-1.754386
-1.680226
-1.684439
-1.689138
-1.694448
-1.700548
-1.70768
-1.716223
-1.726848
-1.740688
-1.759048
-1.67696
-1.680838
-1.685123
-1.689909
-1.695327
-1.701546
-1.708817
-1.717571
-1.728506
-1.742888
-1.764063
-1.673758
-1.677341
-1.681265
-1.685603
-1.690454
-1.695937
-1.702223
-1.709596
-1.718487
-1.729622
-1.745137
-1.768148
-1.67065
-1.673972
-1.677583
-1.681541
-1.685919
-1.690804
-1.696316
-1.702651
-1.710087
-1.719064
-1.730842
-1.746823
-1.771521
-1.667651
-1.670744
-1.674085
-1.677717
-1.681699
-1.686093
-1.690986
-1.69652
-1.702883
-1.710355
-1.719759
-1.731702
-1.748164
-1.774424
-1.66476
-1.667652
-1.670756
-1.674109
-1.677755
-1.681742
-1.686133
-1.691031
-1.696572
-1.702945
-1.710727
-1.720186
-1.732349
-1.749258
-1.777096
-1.661965
-1.664678
-1.667575
-1.670685
-1.674045
-1.677689
-1.681663
-1.686048
-1.690941
-1.696475
-1.703083
-1.710872
-1.720453
-1.732832
-1.750193
-1.780497
-1.659245
-1.661798
-1.664512
-1.66741
-1.670521
-1.673871
-1.677495
-1.681456
-1.685824
-1.690697
-1.696416
-1.70301
-1.710879
-1.720596
-1.733223
-1.751434
-1.783445
-1.656576
-1.658984
-1.661533
-1.664242
-1.667134
-1.670229
-1.673553
-1.677155
-1.681089
-1.685426
-1.690448
-1.696142
-1.702794
-1.71077
-1.720689
-1.733929
-1.752735
-1.786587
-1.653935
-1.65621
-1.658609
-1.661147
-1.663844
-1.666713
-1.669775
-1.673068
-1.676634
-1.680525
-1.684978
-1.689954
-1.695664
-1.702378
-1.710552
-1.721318
-1.734845
-1.754248
-1.789771
-1.651339
-1.653493
-1.655755
-1.658139
-1.66066
-1.663329
-1.66616
-1.669185
-1.672436
-1.675951
-1.679924
-1.684267
-1.689105
-1.694558
-1.700779
-1.648902
-1.650949
-1.653093
-1.655343
-1.657713
-1.660212
-1.662849
-1.665651
-1.668642
-1.671853
-1.675447
-1.679319
-1.683563
-1.688259
-1.693515
-1.646656
-1.648612
-1.650654
-1.652791
-1.655034
-1.657389
-1.659865
-1.662482
-1.665261
-1.668226
-1.671519
-1.675034
-1.678845
-1.68301
-1.687609
-1.644593
-1.646471
-1.648425
-1.650466
-1.652601
-1.654836
-1.657176
-1.65964
-1.662245
-1.665009
-1.66806
-1.671292
-1.674767
-1.678531
-1.68264
-1.642696
-1.644505
-1.646385
-1.648343
-1.650386
-1.652518
-1.654745
-1.657081
-1.65954
-1.662138
-1.66499
-1.667994
-1.671201
-1.674647
-1.678377
-1.696392
-1.702798
-1.710383
-1.71961
-1.731075
-1.743909
-1.691102
-1.696688
-1.703164
-1.710843
-1.720209
-1.731868
-1.745059
-1.686635
-1.691614
-1.697289
-1.703881
-1.711721
-1.721295
-1.73328
-1.747216
-1.682804
-1.687316
-1.692392
-1.698193
-1.704949
-1.712994
-1.722849
-1.735347
-1.75043
-1.679454
-1.683594
-1.688205
-1.693405
-1.699363
-1.706308
-1.714594
-1.724833
-1.737998
-1.754656
-1.6764
-1.680231
-1.68446
-1.689178
-1.694513
-1.700625
-1.707757
-1.716321
-1.726977
-1.740876
-1.76066
-1.673407
-1.676963
-1.680856
-1.685157
-1.689964
-1.695392
-1.70161
-1.708895
-1.71767
-1.728639
-1.743862
-1.766068
-1.670452
-1.67376
-1.677356
-1.681295
-1.685652
-1.69051
-1.69599
-1.702286
-1.709673
-1.718586
-1.730277
-1.746128
-1.770472
-1.667564
-1.670651
-1.673985
-1.67761
-1.681584
-1.685968
-1.690849
-1.696368
-1.702714
-1.710164
-1.719542
-1.731455
-1.747875
-1.774025
-1.66476
-1.667652
-1.670756
-1.674109
-1.677755
-1.681742
-1.686133
-1.691031
-1.696572
-1.702945
-1.710727
-1.720186
-1.732349
-1.749258
-1.777096
-1.662043
-1.66476
-1.667662
-1.670778
-1.674144
-1.677795
-1.681778
-1.686173
-1.691077
-1.696625
-1.703249
-1.711052
-1.720647
-1.733038
-1.750408
-1.780699
-1.659404
-1.661965
-1.664688
-1.667596
-1.670718
-1.674081
-1.677721
-1.681699
-1.686089
-1.690987
-1.696734
-1.703351
-1.711239
-1.720968
-1.73359
-1.751741
-1.78361
-1.656825
-1.659245
-1.661808
-1.664531
-1.667441
-1.670555
-1.673901
-1.677529
-1.681493
-1.685866
-1.690926
-1.696654
-1.703334
-1.711319
-1.721207
-1.734289
-1.752963
-1.786473
-1.654285
-1.656576
-1.658993
-1.661552
-1.664271
-1.667166
-1.670257
-1.673584
-1.677189
-1.681127
-1.685634
-1.69067
-1.696448
-1.703215
-1.711353
-1.721655
-1.735007
-1.754283
-1.789315
-1.651762
-1.653936
-1.656219
-1.658627
-1.661174
-1.663874
-1.666739
-1.669804
-1.673099
-1.676669
-1.680713
-1.685179
-1.690232
-1.696066
-1.702999
-1.711797
-1.722256
-1.735884
-1.755606
-1.792006
-1.649276
-1.65134
-1.653501
-1.655772
-1.658164
-1.660687
-1.663353
-1.666186
-1.669213
-1.672466
-1.676112
-1.680057
-1.684403
-1.689234
-1.694651
-1.646935
-1.648902
-1.650957
-1.653108
-1.655367
-1.657739
-1.660234
-1.662873
-1.665676
-1.668669
-1.671995
-1.675549
-1.679408
-1.683632
-1.688298
-1.644772
-1.646657
-1.648619
-1.650668
-1.652813
-1.655058
-1.65741
-1.659887
-1.662506
-1.665286
-1.668355
-1.671608
-1.675107
-1.678898
-1.68304
-1.642782
-1.644594
-1.646477
-1.648439
-1.650487
-1.652624
-1.654855
-1.657197
-1.659662
-1.662268
-1.665128
-1.66814
-1.671357
-1.674814
-1.678556
-1.640946
-1.642696
-1.644512
-1.646398
-1.648362
-1.650408
-1.652537
-1.654764
-1.657101
-1.659561
-1.662249
-1.665063
-1.668052
-1.671241
-1.674668
-1.690854
-1.696408
-1.702839
-1.710459
-1.719736
-1.731243
-1.744103
-1.686188
-1.691114
-1.696723
-1.703226
-1.710945
-1.720338
-1.732012
-1.745258
-1.682197
-1.686645
-1.691643
-1.697342
-1.703965
-1.711825
-1.721406
-1.733428
-1.747426
-1.678738
-1.682812
-1.687341
-1.692438
-1.698265
-1.705037
-1.713083
-1.722964
-1.735502
-1.750662
-1.675688
-1.679459
-1.683616
-1.688245
-1.693468
-1.699438
-1.706383
-1.714687
-1.724953
-1.738167
-1.755978
-1.672887
-1.676404
-1.68025
-1.684496
-1.689235
-1.694579
-1.700689
-1.707835
-1.716418
-1.727107
-1.741804
-1.762494
-1.670123
-1.673409
-1.676978
-1.680887
-1.685207
-1.690021
-1.695447
-1.701674
-1.708973
-1.717769
-1.729293
-1.744871
-1.768461
-1.667377
-1.670453
-1.673774
-1.677383
-1.681338
-1.685701
-1.690556
-1.696044
-1.70235
-1.709751
-1.719068
-1.73091
-1.747225
-1.773103
-1.664678
-1.667564
-1.670663
-1.67401
-1.677649
-1.681627
-1.686008
-1.690895
-1.696421
-1.702776
-1.710538
-1.719977
-1.732119
-1.749
-1.776776
-1.662043
-1.66476
-1.667662
-1.670778
-1.674144
-1.677795
-1.681778
-1.686173
-1.691077
-1.696625
-1.703249
-1.711052
-1.720647
-1.733038
-1.750408
-1.780699
-1.659478
-1.662043
-1.66477
-1.667683
-1.670811
-1.67418
-1.677827
-1.681813
-1.686213
-1.691123
-1.696882
-1.70351
-1.711407
-1.721141
-1.733764
-1.751898
-1.783713
-1.656976
-1.659404
-1.661974
-1.664707
-1.667626
-1.670752
-1.674111
-1.677754
-1.681736
-1.68613
-1.691212
-1.696958
-1.703649
-1.711638
-1.721516
-1.734546
-1.753163
-1.786482
-1.654522
-1.656825
-1.659254
-1.661826
-1.66456
-1.667472
-1.670582
-1.673931
-1.677562
-1.68153
-1.686068
-1.69113
-1.696926
-1.703693
-1.711798
-1.721968
-1.735224
-1.754416
-1.789108
-1.652097
-1.654285
-1.656585
-1.659011
-1.661579
-1.6643
-1.667192
-1.670285
-1.673615
-1.677224
-1.681313
-1.685828
-1.690934
-1.696805
-1.703695
-1.712105
-1.722423
-1.735976
-1.755626
-1.791569
-1.649682
-1.651763
-1.653944
-1.656236
-1.658652
-1.661203
-1.663898
-1.666766
-1.669833
-1.673131
-1.676839
-1.68089
-1.685422
-1.690579
-1.696595
-1.704022
-1.71253
-1.723013
-1.736747
-1.756734
-1.793787
-1.647294
-1.649277
-1.651347
-1.653517
-1.655795
-1.65819
-1.66071
-1.663377
-1.666212
-1.669241
-1.672612
-1.676229
-1.680175
-1.684512
-1.689306
-1.64504
-1.646935
-1.64891
-1.650971
-1.65313
-1.655391
-1.65776
-1.660256
-1.662896