/*--------------------------------*- C++ -*----------------------------------*\
| =========                 |                                                 |
| \\      /  F ield         | OpenFOAM: The Open Source CFD Toolbox           |
|  \\    /   O peration     | Version:  2306                                  |
|   \\  /    A nd           | Website:  www.openfoam.com                      |
|    \\/     M anipulation  |                                                 |
\*---------------------------------------------------------------------------*/
FoamFile
{
    version     2.0;
    format      ascii;
    arch        "LSB;label=32;scalar=64";
    class       volScalarField;
    location    "1.5/fuel";
    object      p_rgh;
}
// * * * * * * * * * * * * * * * * * * * * * * * * * * * * * * * * * * * * * //

dimensions      [1 -1 -2 0 0 0 0];

internalField   nonuniform List<scalar> 
16000
(
100530
100523.6
100445.7
100512.7
100512.1
100439.1
100506
100378.5
100431.2
100475
100492
100427.1
100494
100372.6
100424.5
100467.8
100327.4
100366.3
100399.6
100431.4
100473.2
100406.6
100473
100361.6
100412.2
100454.6
100322.1
100360.3
100392.6
100423.4
100288.4
100316.9
100339.7
100363
100340.6
100435
100385.7
100453.1
100343
100391.1
100431.8
100312.3
100349.1
100379.5
100408.9
100283.6
100311.5
100333.4
100355.6
100331.3
100257.4
100279.2
100294
100308.8
100286.8
100323.3
100428.7
100348.4
100413.7
100323.7
100369.6
100409.5
100295.8
100330.2
100357.4
100384
100274.8
100301.6
100321.7
100341.7
100314
100253.2
100274.4
100288.5
100302.3
100278.6
100313.7
100232.4
100249.3
100259.2
100267.4
100244.6
100272.3
100317.7
100423.5
100338.3
100406.5
100290.7
100331.7
100367.4
100278.5
100310.5
100334.6
100359
100260.1
100284.8
100302.1
100318.4
100284.7
100245.2
100265.5
100278.1
100290
100263
100295.8
100228.5
100245
100254.3
100261.7
100237.4
100263.8
100308.1
100211.5
100225.1
100231.6
100235.9
100212.1
100232.3
100267.7
100308.4
100423.1
100330.8
100400.7
100280.8
100321.2
100358.1
100249.5
100277.1
100295.2
100313.7
100244.5
100267.2
100281.5
100294
100253.9
100231.9
100250.6
100260.8
100269.6
100237.2
100265.7
100221.2
100236.9
100245
100250.9
100224
100248
100290
100208
100221.2
100227.1
100230.8
100205.9
100225
100259.2
100298.7
100193.9
100205
100209.2
100210.9
100187.5
100201.5
100228.4
100259.8
100300.7
100422.9
100328.6
100399.9
100273.6
100313.4
100351.1
100240.4
100266.9
100283.7
100302.2
100218.9
100237.9
100247.2
100253
100202.1
100217.8
100234.8
100242.6
100248
100209.7
100233.8
100209.1
100223.5
100229.7
100233
100201.8
100221.7
100259.7
100201.3
100213.8
100218.8
100221.3
100194.3
100211.4
100243.2
100280.3
100190.7
100201.4
100205.2
100206.3
100182
100195.3
100221.1
100251.3
100290.8
100178.8
100188
100190.6
100190.7
100167.9
100178.2
100198.2
100221.8
100253.3
100291
100422.9
100327.5
100399.6
100271.1
100311
100349.7
100233.8
100259.5
100275.4
100293.7
100210.6
100228.6
100236.4
100240.4
100185.9
100194.9
100208.9
100212.6
100212.5
100165.1
100180.8
100196.3
100209.2
100213.4
100214
100178.1
100193.5
100227.4
100190.3
100201.6
100205
100205.4
100175.1
100188.9
100216.7
100249.5
100184.5
100194.6
100197.6
100197.8
100171.8
100183.4
100207.4
100235.1
100272.2
100175.8
100184.7
100186.9
100186.5
100163
100172.7
100191.9
100214.5
100244.7
100280.9
100165.8
100173.4
100174.9
100173.8
100152.1
100159.7
100175.3
100192.5
100216.3
100245.2
100266.4
100423.1
100327.5
100399.6
100269.9
100309.9
100349
100231.4
100256.9
100272.7
100291.5
100204.6
100221.9
100228.6
100231.3
100174.5
100187.3
100200.4
100202.9
100201
100150.2
100163.7
100175.6
100186.1
100187
100183.3
100140.3
100148.4
100174
100178.5
100188.7
100190.4
100188.6
100154.6
100164.8
100188.4
100216.6
100174.4
100183.5
100185.2
100183.6
100155
100164
100184.8
100208.4
100240.9
100170.1
100178.5
100180
100178.8
100153.9
100162.3
100180
100200.6
100228.4
100262
100162.9
100170.3
100171.5
100170
100147.7
100154.7
100169.7
100186.2
100208.9
100236.5
100256
100154.3
100160.7
100161.4
100159.6
100138.9
100144.7
100157
100170.3
100187.8
100209.5
100224.6
100272.2
100423.5
100328.6
100399.9
100269.9
100309.9
100349
100230.3
100255.7
100271.4
100290.5
100202.3
100219.5
100225.8
100228.3
100170.6
100181.8
100194.3
100195.9
100192.8
100139.8
100151.7
100168.7
100178.4
100178.2
100173.1
100127.4
100133
100156.6
100159.7
100167.8
100166.8
100161.6
100122.1
100126.6
100143
100162.4
100163.6
100171.7
100171.9
100168.5
100136.9
100143.2
100160.5
100179.7
100207.6
100160.8
100168.3
100168.6
100166
100139
100145.3
100160.5
100177.8
100201.4
100230.3
100157.7
100164.6
100165.1
100163
100139.5
100145.5
100159.3
100174.2
100195
100220
100236.4
100151.6
100157.9
100158.2
100156.1
100134.9
100140.3
100152.1
100164.7
100181.4
100202
100215.7
100261.8
100144.1
100149.6
100149.6
100147.4
100127.7
100132.2
100142.3
100152.6
100166.1
100181.9
100192.2
100229.5
100262.8
100428.7
100330.8
100400.7
100271.1
100311
100349.7
100230.3
100255.7
100271.4
100290.5
100201.3
100218.3
100224.6
100226.9
100168.8
100179.8
100192.1
100193.4
100189.8
100135.9
100147.5
100163.7
100172.9
100172
100165.8
100118.4
100122.3
100144.4
100153.4
100160.8
100158.9
100152.5
100110.9
100113.4
100127.5
100144.5
100146.4
100152.7
100150.7
100144.5
100108.6
100110.5
100122.1
100133.9
100152.7
100150.8
100157.4
100156.5
100152.4
100122.9
100127
100139.6
100153.3
100172.5
100196.4
100149
100155.2
100154.7
100151.4
100126.1
100130.4
100142.2
100154.6
100172
100192.8
100203.5
100146.7
100152.6
100152.4
100149.7
100127.5
100132
100142.8
100154.2
100169.3
100187.9
100198.8
100242.3
100141.6
100147
100146.8
100144.2
100124.1
100128.2
100137.9
100147.7
100160.5
100175.4
100184.5
100220.5
100252.2
100135
100139.8
100139.3
100136.7
100118.1
100121.6
100130.1
100138.4
100149
100161
100167
100196.2
100221.6
100260.8
100435
100338.3
100406.5
100273.6
100313.4
100351.1
100231.4
100256.9
100272.7
100291.5
100201.3
100218.3
100224.6
100226.9
100168.8
100178.8
100191
100192.2
100188.5
100134.2
100145.6
100161.8
100170.8
100169.6
100163.1
100115
100118.3
100140.1
100148.8
100155.8
100153.3
100146
100103.1
100104.2
100116.7
100132.1
100140.5
100146.3
100143.5
100136.3
100098.8
100099.1
100108.9
100118.2
100134.4
100135
100140
100137.3
100130.8
100097.9
100098.5
100106.7
100114.7
100126.3
100140.5
100139.7
100145.1
100143.6
100138.9
100111.7
100114.2
100123.9
100133.5
100147.3
100163.5
100168
100138.6
100143.8
100142.8
100139
100115.3
100118.4
100127.7
100137
100149.6
100164.8
100170.9
100209.2
100137
100142
100141.3
100138.2
100117.3
100120.7
100129.6
100138.4
100150
100163.3
100170.1
100203.7
100232.2
100132.7
100137.3
100136.7
100133.8
100114.8
100118
100126
100133.9
100144
100155.3
100160.4
100188.6
100212.5
100250.1
100126.8
100130.9
100130.2
100127.4
100109.8
100112.6
100119.7
100126.5
100135.1
100144.4
100147.9
100170.5
100189.6
100219.9
100258.6
100473.2
100348.4
100413.7
100280.8
100321.2
100358.1
100233.8
100259.5
100275.4
100293.7
100202.3
100219.5
100225.8
100228.3
100170.6
100178.8
100191
100192.2
100188.5
100134.2
100145.6
100160.9
100169.8
100168.6
100161.9
100113.4
100116.5
100138.1
100147
100153.9
100151.1
100143.6
100100.1
100100.7
100112.7
100127.6
100136.3
100141.7
100138.4
100130.5
100091.9
100091.1
100099.6
100107.2
100121.8
100129.5
100134.1
100130.7
100123.4
100089.2
100088.6
100095.3
100101.3
100110.4
100121.8
100125.1
100129.2
100126.1
100119.4
100089.3
100089
100095.3
100100.4
100108.4
100116.7
100110.5
100130
100134.5
100132.6
100127.7
100102.3
100103.9
100111.4
100118.6
100128.4
100139.9
100140.7
100173.6
100129.5
100133.9
100132.5
100128.4
100106.2
100108.4
100116
100123.1
100132.7
100143.4
100146.5
100175.5
100197.7
100128.4
100132.7
100131.6
100128.3
100108.6
100111.1
100118.5
100125.5
100134.6
100144.7
100148.1
100174.2
100195.3
100229.9
100124.6
100128.6
100127.7
100124.7
100106.7
100109.2
100116
100122.4
100130.6
100139.4
100142.2
100163.9
100181.9
100210.8
100247.9
100119.4
100123
100122.1
100119.1
100102.5
100104.7
100110.8
100116.4
100123.5
100131
100132.8
100151
100164.8
100188.2
100218.1
100492
100385.7
100453.1
100290.7
100331.7
100367.4
100240.4
100266.9
100283.7
100302.2
100204.6
100221.9
100228.6
100231.3
100174.5
100179.8
100192.1
100193.4
100189.8
100135.9
100147.5
100160.9
100169.8
100168.6
100161.9
100113.4
100116.5
100138.1
100146.2
100153
100150.2
100142.5
100098.8
100099.1
100110.9
100125.6
100134.7
100139.9
100136.4
100128.3
100089.3
100088.1
100096.1
100103.1
100117.1
100125.6
100129.9
100126
100118.1
100083.1
100081.6
100087.3
100091.9
100099.3
100108.8
100120
100123.7
100120
100112.6
100081.4
100080.2
100085.3
100088.9
100094.9
100100.6
100090.5
100116.4
100119.8
100116.4
100109.8
100082.1
100081.4
100086.2
100089.8
100095.1
100100.5
100093.1
100112.2
100121.4
100125.2
100123
100118
100094.3
100095.2
100101.4
100106.8
100114.2
100122
100121.1
100145.2
100160.6
100121.3
100125.1
100123.4
100119.2
100098.4
100100
100106.2
100111.9
100119.3
100127.3
100127.8
100150.4
100166.1
100194.2
100120.6
100124.3
100123
100119.5
100101
100102.9
100109.2
100114.9
100122.2
100129.9
100131.4
100151.6
100167.3
100193.5
100227.5
100117.3
100120.8
100119.7
100116.6
100099.6
100101.6
100107.4
100112.8
100119.4
100126.5
100127.7
100145.3
100158.1
100180.4
100208.9
100112.6
100115.8
100114.7
100111.7
100095.9
100097.7
100103
100107.8
100113.7
100119.8
100120.6
100135.5
100146
100163.6
100186.7
100512.1
100406.6
100473
100323.7
100369.6
100409.5
100249.5
100277.1
100295.2
100313.7
100210.6
100228.6
100236.4
100240.4
100185.9
100181.8
100194.3
100195.9
100192.8
100139.8
100151.7
100161.8
100170.8
100169.6
100163.1
100115
100118.3
100140.1
100146.2
100153
100150.2
100142.5
100098.8
100099.1
100110.9
100125.6
100133.9
100139.1
100135.5
100127.3
100088.1
100086.7
100094.5
100101.3
100115.1
100124.1
100128.2
100124.2
100116.1
100080.7
100078.9
100084.3
100088.4
100095.2
100104.1
100116.4
100119.8
100115.7
100107.9
100076
100074
100078.3
100080.9
100085.5
100089.4
100076.7
100111.7
100114.7
100110.8
100103.6
100075
100073.4
100077.3
100079.7
100083.5
100086.9
100076.4
100093.6
100108.7
100111.5
100108.1
100101.6
100075.9
100074.9
100078.8
100081.3
100085.2
100088.4
100081.2
100094.3
100087.9
100113.7
100116.9
100114.5
100109.5
100087.5
100088
100093
100097.2
100102.8
100108.6
100106
100124.7
100134.8
100156.2
100113.9
100117.2
100115.3
100111.1
100091.6
100092.7
100098
100102.5
100108.5
100114.5
100113.8
100131.1
100142.6
100163.3
100190.4
100113.5
100116.8
100115.3
100111.8
100094.3
100095.8
100101.1
100105.8
100111.8
100118
100118.1
100134.5
100145.6
100165.7
100191.4
100110.7
100113.8
100112.5
100109.3
100093.3
100094.8
100099.9
100104.4
100110
100115.7
100116
100130.4
100140.2
100156.9
100178.8
100106.4
100109.3
100108
100105
100090.1
100091.5
100096.2
100100.3
100105.3
100110.3
100110.4
100123
100131.1
100145
100162.3
100523.6
100427.1
100494
100343
100391.1
100431.8
100278.5
100310.5
100334.6
100359
100218.9
100237.9
100247.2
100253
100202.1
100187.3
100200.4
100202.9
100201
100150.2
100163.7
100163.7
100172.9
100172
100165.8
100118.4
100122.3
100144.4
100147
100153.9
100151.1
100143.6
100100.1
100100.7
100112.7
100127.6
100133.9
100139.1
100135.5
100127.3
100088.1
100086.7
100094.5
100101.3
100115.1
100123.4
100127.5
100123.4
100115.2
100079.7
100077.7
100082.9
100086.8
100093.3
100101.9
100115
100118.3
100114.1
100106
100073.9
100071.6
100075.6
100077.8
100081.9
100085.2
100071.4
100108.3
100111
100106.9
100099.3
100070
100067.9
100071.1
100072.7
100075.5
100077.5
100064.8
100080.8
100104.3
100106.8
100102.9
100095.9
100069.5
100067.7
100070.9
100072.4
100075.1
100076.8
100067.2
100078.7
100071.8
100101.9
100104.2
100100.7
100094.5
100070.7
100069.5
100072.6
100074.5
100077.3
100079.4
100072.1
100082.2
100075
100071.3
100106.8
100109.6
100107.1
100102.1
100081.5
100081.7
100085.9
100089.2
100093.7
100098
100094.7
100109.1
100116.1
100131.2
100151.1
100107.3
100110.1
100108.1
100104
100085.6
100086.3
100090.8
100094.6
100099.4
100104.2
100102.5
100116.6
100124.5
100140.3
100160.2
100107.1
100109.9
100108.4
100104.8
100088.3
100089.4
100094.1
100098.1
100103.1
100108
100107.4
100120.9
100129.3
100144.3
100164
100104.6
100107.4
100106
100102.8
100087.6
100088.8
100093.3
100097.1
100101.9
100106.6
100106.3
100118.5
100125.9
100139.1
100155.6
100100.7
100103.3
100101.9
100098.9
100084.8
100085.9
100090.1
100093.6
100098
100102.2
100101.7
100112.6
100119
100130.2
100143.8
100530
100439.1
100506
100361.6
100412.2
100454.6
100295.8
100330.2
100357.4
100384
100244.5
100267.2
100281.5
100294
100253.9
100194.9
100208.9
100212.6
100212.5
100165.1
100180.8
100168.7
100178.4
100178.2
100173.1
100127.4
100133
100156.6
100148.8
100155.8
100153.3
100146
100103.1
100104.2
100116.7
100132.1
100134.7
100139.9
100136.4
100128.3
100089.3
100088.1
100096.1
100103.1
100117.1
100123.4
100127.5
100123.4
100115.2
100079.7
100077.7
100082.9
100086.8
100093.3
100101.9
100114.4
100117.6
100113.3
100105.2
100072.9
100070.6
100074.4
100076.4
100080.3
100083.3
100069.1
100107
100109.6
100105.3
100097.6
100068.1
100065.8
100068.7
100070
100072.4
100073.9
100060.4
100076.1
100101.2
100103.4
100099.2
100091.9
100065
100062.8
100065.3
100066.2
100068.1
100068.7
100057.5
100067.9
100060.9
100097.8
100099.8
100095.9
100089.2
100064.7
100062.9
100065.4
100066.5
100068.3
100069.3
100060.1
100069
100061.6
100058.5
100095.7
100097.7
100094.2
100088.2
100066
100064.7
100067.4
100068.8
100070.9
100072.2
100065.3
100072.9
100066.3
100061.7
100029
100100.6
100102.9
100100.4
100095.6
100076.2
100076.2
100079.8
100082.5
100086.1
100089.4
100085.7
100097.5
100101.8
100113.2
100127
100101.2
100103.7
100101.6
100097.5
100080.2
100080.7
100084.6
100087.8
100091.8
100095.6
100093.5
100105.1
100110.8
100122.5
100137.7
100101.2
100103.7
100102.1
100098.6
100082.9
100083.8
100087.9
100091.3
100095.5
100099.6
100098.5
100109.9
100116.2
100128.1
100142.8
100099
100101.5
100100
100096.8
100082.5
100083.4
100087.4
100090.7
100094.8
100098.8
100098
100108.5
100114.4
100125
100137.9
100095.4
100097.8
100096.4
100093.4
100079.9
100080.9
100084.6
100087.7
100091.5
100095.1
100094.3
100103.8
100109
100118.2
100129.1
100445.7
100512.7
100372.6
100424.5
100467.8
100312.3
100349.1
100379.5
100408.9
100260.1
100284.8
100302.1
100318.4
100284.7
100217.8
100234.8
100242.6
100248
100209.7
100233.8
100175.6
100186.1
100187
100183.3
100140.3
100148.4
100174
100153.4
100160.8
100158.9
100152.5
100110.9
100113.4
100127.5
100144.5
100136.3
100141.7
100138.4
100130.5
100091.9
100091.1
100099.6
100107.2
100121.8
100124.1
100128.2
100124.2
100116.1
100080.7
100078.9
100084.3
100088.4
100095.2
100104.1
100114.4
100117.6
100113.3
100105.2
100072.9
100070.6
100074.4
100076.4
100080.3
100083.3
100069.1
100106.4
100109
100104.6
100096.8
100067.2
100064.8
100067.7
100068.8
100071
100072.2
100058.4
100074.1
100100
100102.1
100097.8
100090.3
100063.2
100060.8
100063.2
100063.8
100065.4
100065.6
100053.8
100063.9
100057.1
100094.8
100096.6
100092.5
100085.5
100060.6
100058.4
100060.5
100061
100062.1
100062.2
100051.9
100060
100052.6
100049.9
100091.8
100093.5
100089.7
100083.3
100060.5
100058.7
100060.9
100061.5
100062.9
100063.2
100054.9
100061.7
100055.1
100051.1
100028.2
100090.1
100091.8
100088.4
100082.6
100061.9
100060.6
100062.8
100063.9
100065.5
100066.4
100059.8
100066
100059.4
100055.2
100027.8
100028
100094.9
100096.9
100094.4
100089.7
100071.5
100071.3
100074.5
100076.7
100079.6
100082.2
100078.5
100088.1
100091.1
100099.3
100109.7
100095.6
100097.8
100095.7
100091.7
100075.4
100075.7
100079.1
100081.8
100085.2
100088.3
100085.9
100095.8
100100
100109.1
100120.3
100095.7
100098
100096.3
100092.9
100078.1
100078.8
100082.4
100085.3
100089
100092.4
100090.9
100100.7
100105.8
100115.2
100126.8
100093.8
100096
100094.5
100091.4
100077.8
100078.6
100082.1
100085
100088.6
100092
100090.9
100100
100104.8
100113.6
100123.9
100090.5
100092.6
100091.2
100088.3
100075.5
100076.3
100079.7
100082.4
100085.7
100088.8
100087.8
100096.2
100100.5
100108.2
100117.3
100378.5
100431.2
100475
100322.1
100360.3
100392.6
100423.4
100274.8
100301.6
100321.7
100341.7
100314
100231.9
100250.6
100260.8
100269.6
100237.2
100265.7
100196.3
100209.2
100213.4
100214
100178.1
100193.5
100227.4
100159.7
100167.8
100166.8
100161.6
100122.1
100126.6
100143
100162.4
100140.5
100146.3
100143.5
100136.3
100098.8
100099.1
100108.9
100118.2
100134.4
100125.6
100129.9
100126
100118.1
100083.1
100081.6
100087.3
100091.9
100099.3
100108.8
100115
100118.3
100114.1
100106
100073.9
100071.6
100075.6
100077.8
100081.9
100085.2
100071.4
100106.4
100109
100104.6
100096.8
100067.2
100064.8
100067.7
100068.8
100071
100072.2
100058.4
100074.1
100099.4
100101.5
100097.1
100089.6
100062.4
100060
100062.2
100062.8
100064.2
100064.2
100052.1
100062.2
100055.5
100093.7
100095.4
100091.2
100084
100059
100056.6
100058.5
100058.8
100059.7
100059.5
100048.7
100056.6
100049.4
100047.4
100089.1
100090.6
100086.5
100079.8
100056.7
100054.6
100056.3
100056.6
100057.4
100057
100047.8
100054
100047.5
100044.1
100028
100086.5
100087.9
100084.2
100078
100056.8
100055.1
100056.8
100057.3
100058.3
100058.4
100050.6
100056.2
100049.9
100046.4
100027.3
100028
100085
100086.5
100083.1
100077.5
100058.2
100056.9
100058.8
100059.6
100061
100061.5
100055.3
100060.4
100054.4
100050.1
100027.4
100027.1
100028
100089.6
100091.4
100088.9
100084.4
100067.3
100066.9
100069.7
100071.6
100074.1
100076.1
100072.3
100080.6
100082.5
100088.9
100096.4
100090.5
100092.4
100090.3
100086.4
100071
100071.2
100074.2
100076.5
100079.4
100082
100079.5
100088
100091.2
100098.5
100107.2
100090.7
100092.8
100091
100087.7
100073.7
100074.2
100077.4
100080
100083.1
100086.1
100084.4
100093
100097
100104.8
100114.1
100089
100091
100089.5
100086.4
100073.5
100074.1
100077.3
100079.9
100083
100085.9
100084.7
100092.7
100096.7
100104.1
100112.6
100086
100087.9
100086.5
100083.6
100071.5
100072.1
100075.1
100077.6
100080.5
100083.3
100082.1
100089.5
100093.2
100099.8
100107.4
100327.4
100366.3
100399.6
100431.4
100283.6
100311.5
100333.4
100355.6
100331.3
100245.2
100265.5
100278.1
100290
100263
100295.8
100209.1
100223.5
100229.7
100233
100201.8
100221.7
100259.7
100178.5
100188.7
100190.4
100188.6
100154.6
100164.8
100188.4
100216.6
100146.4
100152.7
100150.7
100144.5
100108.6
100110.5
100122.1
100133.9
100152.7
100129.5
100134.1
100130.7
100123.4
100089.2
100088.6
100095.3
100101.3
100110.4
100121.8
100116.4
100119.8
100115.7
100107.9
100076
100074
100078.3
100080.9
100085.5
100089.4
100076.7
100107
100109.6
100105.3
100097.6
100068.1
100065.8
100068.7
100070
100072.4
100073.9
100060.4
100076.1
100099.4
100101.5
100097.1
100089.6
100062.4
100060
100062.2
100062.8
100064.2
100064.2
100052.1
100062.2
100055.5
100093.1
100094.8
100090.5
100083.4
100058.3
100055.9
100057.7
100057.9
100058.7
100058.3
100047.3
100055.1
100048
100046.2
100088
100089.4
100085.3
100078.5
100055.3
100053
100054.6
100054.6
100055.2
100054.6
100045
100051.1
100044.8
100041.9
100028
100083.9
100085.1
100081.2
100074.8
100053.3
100051.2
100052.7
100052.8
100053.3
100052.8
100044.3
100049.6
100043.5
100040.6
100027.1
100027.9
100081.6
100082.8
100079.1
100073.3
100053.5
100051.8
100053.3
100053.6
100054.4
100054.2
100047.1
100051.8
100046.1
100042.6
100026.9
100027.1
100028
100080.4
100081.6
100078.3
100073
100054.9
100053.6
100055.3
100055.9
100057
100057.3
100051.5
100055.9
100050.2
100046.3
100026.5
100026.8
100027.1
100028
100084.8
100086.4
100083.9
100079.5
100063.4
100063
100065.5
100067.1
100069.2
100070.8
100067.1
100074.3
100075.6
100080.6
100086.4
100085.7
100087.5
100085.4
100081.6
100067
100067.1
100069.8
100071.8
100074.3
100076.5
100073.9
100081.4
100083.8
100089.9
100096.8
100086.1
100087.9
100086.2
100082.9
100069.6
100070
100072.9
100075.2
100078
100080.5
100078.7
100086.3
100089.6
100096.1
100103.8
100084.5
100086.3
100084.8
100081.8
100069.5
100070
100073
100075.2
100078
100080.6
100079.2
100086.4
100089.7
100096
100103.2
100081.7
100083.5
100082
100079.3
100067.7
100068.2
100071
100073.2
100075.8
100078.2
100077
100083.7
100086.8
100092.5
100099.1
100288.4
100316.9
100339.7
100363
100340.6
100253.2
100274.4
100288.5
100302.3
100278.6
100313.7
100221.2
100236.9
100245
100250.9
100224
100248
100290
100190.3
100201.6
100205
100205.4
100175.1
100188.9
100216.7
100249.5
100163.6
100171.7
100171.9
100168.5
100136.9
100143.2
100160.5
100179.7
100207.6
100135
100140
100137.3
100130.8
100097.9
100098.5
100106.7
100114.7
100126.3
100140.5
100120
100123.7
100120
100112.6
100081.4
100080.2
100085.3
100088.9
100094.9
100100.6
100090.5
100108.3
100111
100106.9
100099.3
100070
100067.9
100071.1
100072.7
100075.5
100077.5
100064.8
100080.8
100100
100102.1
100097.8
100090.3
100063.2
100060.8
100063.2
100063.8
100065.4
100065.6
100053.8
100063.9
100057.1
100093.1
100094.8
100090.5
100083.4
100058.3
100055.9
100057.7
100057.9
100058.7
100058.3
100047.3
100055.1
100048
100046.2
100087.5
100088.9
100084.7
100077.9
100054.6
100052.3
100053.8
100053.7
100054.2
100053.5
100043.7
100049.8
100043.7
100041
100028
100082.8
100084
100080
100073.5
100051.9
100049.8
100051.1
100051
100051.3
100050.7
100041.9
100047
100041.2
100038.8
100027.1
100027.9
100079.1
100080.2
100076.4
100070.3
100050.2
100048.2
100049.5
100049.5
100049.8
100049.2
100041.5
100045.9
100040.5
100037.6
100026.7
100027
100027.9
100077.1
100078.1
100074.6
100069
100050.5
100048.8
100050.2
100050.4
100050.9
100050.7
100044.1
100048.2
100042.9
100039.8
100026.1
100026.7
100027.1
100028
100076
100077.1
100073.9
100068.8
100051.8
100050.5
100052.1
100052.6
100053.4
100053.6
100048.2
100052
100046.7
100043.1
100025.9
100026
100026.8
100027.1
100028
100080.3
100081.8
100079.3
100075.1
100059.9
100059.4
100061.6
100063
100064.8
100066.2
100062.6
100068.9
100069.8
100073.9
100078.4
100081.3
100082.9
100080.8
100077.2
100063.4
100063.3
100065.8
100067.6
100069.8
100071.6
100069.1
100075.6
100077.6
100082.6
100088.3
100081.7
100083.4
100081.7
100078.5
100065.9
100066.2
100068.8
100070.8
100073.3
100075.5
100073.7
100080.4
100083.2
100088.8
100095.2
100080.3
100082
100080.4
100077.6
100065.9
100066.3
100068.9
100071
100073.5
100075.7
100074.3
100080.8
100083.6
100089.1
100095.2
100077.7
100079.3
100077.9
100075.2
100064.2
100064.6
100067.2
100069.2
100071.6
100073.7
100072.4
100078.5
100081.1
100086.2
100091.9
100257.4
100279.2
100294
100308.8
100286.8
100323.3
100228.5
100245
100254.3
100261.7
100237.4
100263.8
100308.1
100201.3
100213.8
100218.8
100221.3
100194.3
100211.4
100243.2
100280.3
100174.4
100183.5
100185.2
100183.6
100155
100164
100184.8
100208.4
100240.9
100150.8
100157.4
100156.5
100152.4
100122.9
100127
100139.6
100153.3
100172.5
100196.4
100125.1
100129.2
100126.1
100119.4
100089.3
100089
100095.3
100100.4
100108.4
100116.7
100110.5
100111.7
100114.7
100110.8
100103.6
100075
100073.4
100077.3
100079.7
100083.5
100086.9
100076.4
100093.6
100101.2
100103.4
100099.2
100091.9
100065
100062.8
100065.3
100066.2
100068.1
100068.7
100057.5
100067.9
100060.9
100093.7
100095.4
100091.2
100084
100059
100056.6
100058.5
100058.8
100059.7
100059.5
100048.7
100056.6
100049.4
100047.4
100087.5
100088.9
100084.7
100077.9
100054.6
100052.3
100053.8
100053.7
100054.2
100053.5
100043.7
100049.8
100043.7
100041
100028
100082.4
100083.5
100079.5
100073
100051.3
100049.1
100050.3
100050.2
100050.5
100049.7
100040.8
100045.9
100040.2
100038
100027.1
100027.9
100078.1
100079.1
100075.3
100069.1
100049
100046.9
100048
100047.8
100048.1
100047.3
100039.3
100043.7
100038.5
100036.1
100026.8
100027
100027.9
100074.8
100075.6
100072
100066.2
100047.4
100045.5
100046.6
100046.5
100046.8
100046.1
100039.1
100042.9
100038
100035.5
100026
100026.7
100027.1
100027.9
100072.9
100073.8
100070.4
100065.1
100047.7
100046.1
100047.3
100047.4
100047.9
100047.5
100041.5
100045.1
100040.3
100037.4
100025.6
100026
100026.7
100027.1
100027.9
100072
100073
100069.9
100065.1
100049
100047.8
100049.2
100049.6
100050.3
100050.3
100045.3
100048.7
100043.8
100040.4
100025.2
100025.5
100026
100026.7
100027.1
100027.9
100076.2
100077.5
100075.1
100071
100056.7
100056.2
100058.2
100059.3
100060.9
100062.1
100058.7
100064.2
100064.8
100068.2
100071.9
100077.2
100078.6
100076.6
100073.1
100060
100059.9
100062.2
100063.7
100065.7
100067.2
100064.7
100070.6
100072.2
100076.5
100081.3
100077.6
100079.2
100077.5
100074.4
100062.4
100062.6
100065.1
100066.9
100069.1
100071
100069.2
100075.2
100077.6
100082.5
100088
100076.3
100077.9
100076.4
100073.6
100062.4
100062.8
100065.2
100067.1
100069.4
100071.3
100069.9
100075.8
100078.2
100083
100088.3
100073.9
100075.4
100074
100071.4
100060.9
100061.3
100063.7
100065.5
100067.6
100069.5
100068.2
100073.8
100076.1
100080.6
100085.6
100232.4
100249.3
100259.2
100267.4
100244.6
100272.3
100317.7
100208
100221.2
100227.1
100230.8
100205.9
100225
100259.2
100298.7
100184.5
100194.6
100197.6
100197.8
100171.8
100183.4
100207.4
100235.1
100272.2
100160.8
100168.3
100168.6
100166
100139
100145.3
100160.5
100177.8
100201.4
100230.3
100139.7
100145.1
100143.6
100138.9
100111.7
100114.2
100123.9
100133.5
100147.3
100163.5
100168
100116.4
100119.8
100116.4
100109.8
100082.1
100081.4
100086.2
100089.8
100095.1
100100.5
100093.1
100112.2
100104.3
100106.8
100102.9
100095.9
100069.5
100067.7
100070.9
100072.4
100075.1
100076.8
100067.2
100078.7
100071.8
100094.8
100096.6
100092.5
100085.5
100060.6
100058.4
100060.5
100061
100062.1
100062.2
100051.9
100060
100052.6
100049.9
100088
100089.4
100085.3
100078.5
100055.3
100053
100054.6
100054.6
100055.2
100054.6
100045
100051.1
100044.8
100041.9
100028
100082.4
100083.5
100079.5
100073
100051.3
100049.1
100050.3
100050.2
100050.5
100049.7
100040.8
100045.9
100040.2
100038
100027.1
100027.9
100077.7
100078.7
100074.8
100068.6
100048.4
100046.2
100047.3
100047.1
100047.3
100046.4
100038.4
100042.7
100037.7
100035.4
100026.7
100027
100027.9
100073.8
100074.7
100070.9
100065.1
100046.2
100044.3
100045.3
100045
100045.1
100044.4
100037.1
100040.9
100036.2
100034.1
100026
100026.7
100027.1
100027.9
100070.7
100071.5
100068
100062.4
100044.9
100043.1
100044
100043.9
100044.1
100043.4
100036.9
100040.3
100035.9
100033.6
100025.5
100026
100026.7
100027.1
100027.9
100069.1
100069.9
100066.6
100061.5
100045.2
100043.6
100044.7
100044.8
100045.2
100044.8
100039.2
100042.4
100037.9
100035.3
100024.9
100025.5
100026
100026.7
100027.1
100027.9
100068.3
100069.1
100066.2
100061.5
100046.4
100045.2
100046.5
100046.8
100047.4
100047.4
100042.8
100045.7
100041.2
100038.1
100024.5
100024.8
100025.5
100026
100026.7
100027.1
100027.9
100072.3
100073.5
100071.1
100067.2
100053.7
100053.1
100055
100056
100057.4
100058.4
100055.1
100060.1
100060.5
100063.4
100066.4
100073.3
100074.6
100072.7
100069.3
100056.9
100056.7
100058.8
100060.2
100061.9
100063.3
100060.9
100066.2
100067.5
100071.2
100075.3
100073.8
100075.2
100073.6
100070.6
100059.2
100059.3
100061.6
100063.2
100065.2
100066.9
100065.1
100070.6
100072.6
100076.9
100081.7
100072.6
100074.1
100072.6
100069.9
100059.2
100059.5
100061.8
100063.5
100065.6
100067.3
100065.9
100071.2
100073.4
100077.6
100082.3
100070.3
100071.7
100070.4
100067.8
100057.8
100058.1
100060.4
100062
100064
100065.7
100064.4
100069.5
100071.6
100075.6
100080
100211.5
100225.1
100231.6
100235.9
100212.1
100232.3
100267.7
100308.4
100190.7
100201.4
100205.2
100206.3
100182
100195.3
100221.1
100251.3
100290.8
100170.1
100178.5
100180
100178.8
100153.9
100162.3
100180
100200.6
100228.4
100262
100149
100155.2
100154.7
100151.4
100126.1
100130.4
100142.2
100154.6
100172
100192.8
100203.5
100130
100134.5
100132.6
100127.7
100102.3
100103.9
100111.4
100118.6
100128.4
100139.9
100140.7
100173.6
100108.7
100111.5
100108.1
100101.6
100075.9
100074.9
100078.8
100081.3
100085.2
100088.4
100081.2
100094.3
100087.9
100097.8
100099.8
100095.9
100089.2
100064.7
100062.9
100065.4
100066.5
100068.3
100069.3
100060.1
100069
100061.6
100058.5
100089.1
100090.6
100086.5
100079.8
100056.7
100054.6
100056.3
100056.6
100057.4
100057
100047.8
100054
100047.5
100044.1
100028
100082.8
100084
100080
100073.5
100051.9
100049.8
100051.1
100051
100051.3
100050.7
100041.9
100047
100041.2
100038.8
100027.1
100027.9
100077.7
100078.7
100074.8
100068.6
100048.4
100046.2
100047.3
100047.1
100047.3
100046.4
100038.4
100042.7
100037.7
100035.4
100026.7
100027
100027.9
100073.4
100074.2
100070.5
100064.6
100045.7
100043.7
100044.6
100044.4
100044.4
100043.6
100036.2
100040.1
100035.5
100033.5
100026
100026.7
100027.1
100027.9
100069.9
100070.6
100067
100061.4
100043.7
100041.9
100042.8
100042.5
100042.6
100041.8
100035.2
100038.5
100034.3
100032.4
100025.5
100026
100026.7
100027.1
100027.9
100067
100067.7
100064.3
100059
100042.5
100040.8
100041.7
100041.5
100041.6
100041
100035
100038.1
100034
100032
100024.8
100025.4
100026
100026.7
100027.1
100027.9
100065.5
100066.2
100063
100058.2
100042.8
100041.4
100042.3
100042.4
100042.7
100042.3
100037.1
100040
100035.9
100033.5
100024.3
100024.8
100025.5
100026
100026.7
100027.1
100027.9
100064.8
100065.6
100062.7
100058.3
100044
100042.9
100044
100044.3
100044.8
100044.8
100040.4
100043.1
100038.9
100036.1
100023.8
100024.2
100024.8
100025.5
100026
100026.7
100027.1
100027.9
100068.7
100069.7
100067.5
100063.7
100050.9
100050.3
100052
100053
100054.2
100055
100051.9
100056.5
100056.7
100059.2
100061.8
100069.7
100070.9
100069
100065.7
100053.9
100053.7
100055.7
100056.9
100058.5
100059.7
100057.4
100062.2
100063.3
100066.6
100070.1
100070.2
100071.5
100069.9
100067
100056.2
100056.3
100058.4
100059.8
100061.7
100063.2
100061.4
100066.5
100068.2
100072
100076.2
100069.1
100070.5
100069
100066.4
100056.3
100056.5
100058.6
100060.2
100062.1
100063.7
100062.2
100067.2
100069
100072.8
100077
100067
100068.3
100066.9
100064.5
100054.9
100055.2
100057.3
100058.8
100060.7
100062.2
100060.9
100065.6
100067.4
100071.1
100075.1
100193.9
100205
100209.2
100210.9
100187.5
100201.5
100228.4
100259.8
100300.7
100175.8
100184.7
100186.9
100186.5
100163
100172.7
100191.9
100214.5
100244.7
100280.9
100157.7
100164.6
100165.1
100163