/*--------------------------------*- C++ -*----------------------------------*\
| =========                 |                                                 |
| \\      /  F ield         | OpenFOAM: The Open Source CFD Toolbox           |
|  \\    /   O peration     | Version:  2306                                  |
|   \\  /    A nd           | Website:  www.openfoam.com                      |
|    \\/     M anipulation  |                                                 |
\*---------------------------------------------------------------------------*/
FoamFile
{
    version     2.0;
    format      ascii;
    arch        "LSB;label=32;scalar=64";
    class       volScalarField;
    location    "1.5/fuel";
    object      T;
}
// * * * * * * * * * * * * * * * * * * * * * * * * * * * * * * * * * * * * * //

dimensions      [0 0 0 1 0 0 0];

internalField   nonuniform List<scalar> 
16000
(
1123.183
1123.042
1124.838
1123.194
1122.719
1124.825
1123.054
1126.372
1124.846
1123.211
1122.121
1124.793
1122.732
1126.395
1124.832
1123.071
1127.823
1126.376
1124.858
1123.232
1121.122
1124.728
1122.136
1126.446
1124.799
1122.75
1127.857
1126.399
1124.844
1123.093
1129.224
1127.823
1126.384
1124.874
1123.257
1119.666
1124.608
1121.143
1126.531
1124.734
1122.157
1127.935
1126.448
1124.811
1122.773
1129.262
1127.858
1126.407
1124.86
1123.119
1130.585
1129.222
1127.828
1126.396
1124.894
1123.287
1118.02
1124.4
1119.698
1126.657
1124.611
1121.17
1128.069
1126.532
1124.744
1122.183
1129.347
1127.934
1126.455
1124.826
1122.8
1130.623
1129.26
1127.862
1126.418
1124.88
1123.15
1131.905
1130.58
1129.223
1127.836
1126.412
1124.919
1123.318
1116.516
1124.096
1118.067
1126.805
1124.399
1119.735
1128.278
1126.654
1124.618
1121.202
1129.497
1128.067
1126.537
1124.758
1122.214
1130.709
1129.344
1127.937
1126.466
1124.846
1122.833
1131.941
1130.618
1129.26
1127.869
1126.434
1124.905
1123.181
1133.181
1131.897
1130.579
1129.228
1127.848
1126.432
1124.944
1123.35
1115.399
1123.756
1116.577
1126.906
1124.094
1118.118
1128.549
1126.796
1124.403
1119.777
1129.731
1128.271
1126.655
1124.63
1121.24
1130.86
1129.491
1128.067
1126.545
1124.777
1122.251
1132.024
1130.703
1129.344
1127.944
1126.48
1124.87
1122.867
1133.216
1131.934
1130.616
1129.265
1127.881
1126.453
1124.93
1123.213
1134.412
1133.172
1131.894
1130.581
1129.236
1127.864
1126.453
1124.97
1123.381
1114.808
1123.468
1115.47
1126.945
1123.757
1116.642
1128.795
1126.893
1124.098
1118.173
1130.042
1128.535
1126.791
1124.412
1119.823
1131.097
1129.722
1128.268
1126.66
1124.647
1121.283
1132.171
1130.852
1129.489
1128.072
1126.558
1124.8
1122.289
1133.295
1132.016
1130.7
1129.347
1127.954
1126.499
1124.895
1122.901
1134.446
1133.207
1131.93
1130.618
1129.273
1127.896
1126.474
1124.955
1123.246
1135.597
1134.402
1133.167
1131.894
1130.586
1129.249
1127.88
1126.473
1124.995
1123.412
1114.808
1123.304
1114.886
1126.945
1123.472
1115.546
1128.974
1126.931
1123.763
1116.711
1130.338
1128.776
1126.884
1124.106
1118.233
1131.415
1130.026
1128.526
1126.79
1124.425
1119.875
1132.403
1131.086
1129.716
1128.269
1126.669
1124.668
1121.327
1133.436
1132.161
1130.847
1129.491
1128.081
1126.575
1124.824
1122.327
1134.521
1133.286
1132.011
1130.701
1129.354
1127.969
1126.518
1124.92
1122.935
1135.629
1134.435
1133.201
1131.93
1130.623
1129.285
1127.912
1126.494
1124.98
1123.278
1136.735
1135.586
1134.395
1133.164
1131.897
1130.596
1129.261
1127.896
1126.494
1125.02
1123.566
1115.399
1123.304
1114.886
1126.936
1123.31
1114.967
1129.083
1126.931
1123.481
1115.626
1130.569
1128.953
1126.92
1123.773
1116.785
1131.724
1130.318
1128.762
1126.879
1124.118
1118.297
1132.713
1131.398
1130.014
1128.52
1126.793
1124.442
1119.928
1133.658
1132.39
1131.078
1129.714
1128.273
1126.682
1124.69
1121.372
1134.655
1133.425
1132.155
1130.846
1129.496
1128.093
1126.592
1124.848
1122.366
1135.701
1134.51
1133.279
1132.01
1130.705
1129.365
1127.983
1126.538
1124.944
1122.97
1136.766
1135.618
1134.428
1133.199
1131.932
1130.632
1129.297
1127.928
1126.514
1125.006
1123.437
1137.826
1136.723
1135.578
1134.391
1133.166
1131.903
1130.605
1129.274
1127.913
1126.514
1125.145
1123.861
1116.516
1123.468
1115.47
1126.936
1123.31
1114.967
1129.134
1126.922
1123.321
1115.052
1130.721
1129.061
1126.92
1123.494
1115.709
1131.97
1130.546
1128.936
1126.914
1123.787
1116.862
1133.018
1131.702
1130.301
1128.752
1126.878
1124.135
1118.363
1133.957
1132.695
1131.385
1130.006
1128.519
1126.8
1124.46
1119.981
1134.867
1133.644
1132.38
1131.074
1129.715
1128.282
1126.695
1124.711
1121.417
1135.829
1134.643
1133.417
1132.152
1130.849
1129.505
1128.106
1126.609
1124.872
1122.405
1136.834
1135.689
1134.502
1133.276
1132.012
1130.713
1129.376
1127.998
1126.557
1124.969
1123.141
1137.855
1136.754
1135.609
1134.424
1133.2
1131.939
1130.641
1129.309
1127.944
1126.534
1125.13
1123.746
1138.87
1137.814
1136.714
1135.573
1134.391
1133.17
1131.91
1130.614
1129.286
1127.929
1126.616
1125.373
1124.17
1118.02
1123.756
1116.577
1126.945
1123.472
1115.546
1129.134
1126.922
1123.321
1115.052
1130.795
1129.112
1126.912
1123.336
1115.141
1132.135
1130.696
1129.043
1126.914
1123.511
1115.797
1133.263
1131.945
1130.526
1128.923
1126.912
1123.806
1116.94
1134.251
1132.996
1131.685
1130.289
1128.746
1126.882
1124.152
1118.427
1135.152
1133.938
1132.681
1131.375
1130.002
1128.521
1126.808
1124.479
1120.034
1136.031
1134.852
1133.633
1132.374
1131.073
1129.72
1128.29
1126.709
1124.734
1121.463
1136.956
1135.815
1134.634
1133.412
1132.152
1130.855
1129.514
1128.118
1126.627
1124.896
1122.597
1137.921
1136.822
1135.68
1134.498
1133.276
1132.017
1130.721
1129.387
1128.013
1126.576
1125.092
1123.483
1138.898
1137.843
1136.744
1135.604
1134.423
1133.204
1131.945
1130.65
1129.321
1127.96
1126.634
1125.358
1124.075
1139.867
1138.857
1137.804
1136.709
1135.571
1134.394
1133.175
1131.917
1130.624
1129.299
1128.01
1126.797
1125.602
1124.492
1119.666
1124.096
1118.067
1126.945
1123.757
1116.642
1129.083
1126.931
1123.481
1115.626
1130.795
1129.112
1126.912
1123.336
1115.141
1132.216
1130.769
1129.093
1126.906
1123.355
1115.234
1133.429
1132.109
1130.675
1129.03
1126.912
1123.532
1115.884
1134.489
1133.239
1131.925
1130.511
1128.914
1126.914
1123.825
1117.017
1135.435
1134.229
1132.978
1131.671
1130.28
1128.743
1126.886
1124.169
1118.492
1136.303
1135.134
1133.924
1132.671
1131.369
1130.002
1128.524
1126.816
1124.497
1120.087
1137.149
1136.015
1134.841
1133.626
1132.371
1131.075
1129.725
1128.299
1126.722
1124.756
1121.688
1138.037
1136.942
1135.805
1134.628
1133.411
1132.156
1130.861
1129.523
1128.131
1126.644
1125.015
1122.997
1138.961
1137.908
1136.812
1135.674
1134.496
1133.279
1132.023
1130.729
1129.398
1128.028
1126.671
1125.32
1123.857
1139.894
1138.885
1137.833
1136.738
1135.602
1134.426
1133.208
1131.951
1130.659
1129.333
1128.039
1126.811
1125.588
1124.421
1140.818
1139.854
1138.847
1137.797
1136.706
1135.572
1134.396
1133.179
1131.923
1130.633
1129.362
1128.152
1126.976
1125.834
1124.823
1121.122
1124.4
1119.698
1126.906
1124.094
1118.118
1128.974
1126.931
1123.763
1116.711
1130.721
1129.061
1126.92
1123.494
1115.709
1132.216
1130.769
1129.093
1126.906
1123.355
1115.234
1133.512
1132.19
1130.748
1129.079
1126.904
1123.378
1115.327
1134.651
1133.404
1132.087
1130.658
1129.02
1126.914
1123.554
1115.971
1135.663
1134.465
1133.218
1131.909
1130.499
1128.91
1126.916
1123.844
1117.094
1136.573
1135.413
1134.211
1132.964
1131.661
1130.275
1128.741
1126.889
1124.187
1118.556
1137.409
1136.284
1135.119
1133.912
1132.663
1131.367
1130.001
1128.526
1126.824
1124.515
1120.343
1138.222
1137.133
1136.003
1134.832
1133.622
1132.372
1131.078
1129.731
1128.307
1126.736
1124.865
1122.156
1139.072
1138.023
1136.932
1135.798
1134.625
1133.413
1132.16
1130.867
1129.532
1128.143
1126.729
1125.241
1123.45
1139.954
1138.947
1137.897
1136.805
1135.672
1134.498
1133.283
1132.028
1130.737
1129.409
1128.101
1126.839
1125.554
1124.259
1140.843
1139.88
1138.874
1137.826
1136.735
1135.603
1134.428
1133.212
1131.958
1130.668
1129.394
1128.176
1126.985
1125.822
1124.778
1141.723
1140.804
1139.843
1138.84
1137.794
1136.706
1135.574
1134.399
1133.184
1131.93
1130.68
1129.471
1128.29
1127.152
1126.067
1122.121
1124.608
1121.143
1126.805
1124.399
1119.735
1128.795
1126.893
1124.098
1118.173
1130.569
1128.953
1126.92
1123.773
1116.785
1132.135
1130.696
1129.043
1126.914
1123.511
1115.797
1133.512
1132.19
1130.748
1129.079
1126.904
1123.378
1115.327
1134.732
1133.486
1132.168
1130.73
1129.069
1126.906
1123.401
1115.419
1135.819
1134.626
1133.382
1132.069
1130.645
1129.014
1126.916
1123.576
1116.057
1136.792
1135.64
1134.445
1133.202
1131.896
1130.491
1128.905
1126.918
1123.863
1117.169
1137.667
1136.552
1135.395
1134.196
1132.953
1131.654
1130.27
1128.739
1126.893
1124.204
1118.859
1138.471
1137.391
1136.269
1135.107
1133.904
1132.66
1131.364
1130.001
1128.529
1126.831
1124.606
1120.817
1139.249
1138.206
1137.121
1135.994
1134.827
1133.621
1132.373
1131.08
1129.736
1128.316
1126.802
1125.081
1122.699
1140.061
1139.058
1138.012
1136.924
1135.795
1134.625
1133.414
1132.163
1130.873
1129.54
1128.205
1126.88
1125.481
1123.954
1140.901
1139.94
1138.936
1137.89
1136.802
1135.672
1134.5
1133.286
1132.034
1130.745
1129.464
1128.226
1127.004
1125.794
1124.68
1141.748
1140.83
1139.87
1138.867
1137.822
1136.735
1135.604
1134.431
1133.216
1131.964
1130.713
1129.497
1128.308
1127.158
1126.059
1142.583
1141.709
1140.794
1139.836
1138.835
1137.793
1136.706
1135.575
1134.402
1133.188
1131.964
1130.761
1129.576
1128.426
1127.328
1122.719
1124.728
1122.136
1126.657
1124.611
1121.17
1128.549
1126.796
1124.403
1119.777
1130.338
1128.776
1126.884
1124.106
1118.233
1131.97
1130.546
1128.936
1126.914
1123.787
1116.862
1133.429
1132.109
1130.675
1129.03
1126.912
1123.532
1115.884
1134.732
1133.486
1132.168
1130.73
1129.069
1126.906
1123.401
1115.419
1135.898
1134.706
1133.463
1132.149
1130.717
1129.063
1126.908
1123.425
1115.51
1136.942
1135.795
1134.604
1133.363
1132.055
1130.636
1129.008
1126.918
1123.597
1116.142
1137.877
1136.769
1135.62
1134.428
1133.188
1131.886
1130.483
1128.9
1126.921
1123.882
1117.526
1138.718
1137.646
1136.534
1135.38
1134.185
1132.945
1131.647
1130.265
1128.737
1126.897
1124.29
1119.371
1139.488
1138.453
1137.375
1136.257
1135.098
1133.9
1132.656
1131.362
1130
1128.532
1126.871
1124.782
1121.302
1140.231
1139.233
1138.193
1137.111
1135.988
1134.825
1133.62
1132.373
1131.083
1129.74
1128.357
1126.924
1125.32
1123.341
1141.005
1140.047
1139.046
1138.003
1136.919
1135.794
1134.625
1133.416
1132.167
1130.878
1129.584
1128.309
1127.03
1125.735
1124.505
1141.804
1140.888
1139.929
1138.928
1137.885
1136.801
1135.672
1134.501
1133.289
1132.039
1130.784
1129.555
1128.346
1127.169
1126.04
1142.607
1141.734
1140.819
1139.862
1138.862
1137.821
1136.735
1135.605
1134.433
1133.22
1131.996
1130.788
1129.596
1128.437
1127.33
1143.4
1142.57
1141.699
1140.786
1139.831
1138.834
1137.792
1136.706
1135.576
1134.404
1133.211
1132.021
1130.837
1129.677
1128.559
1123.042
1124.793
1122.732
1126.531
1124.734
1122.157
1128.278
1126.654
1124.618
1121.202
1130.042
1128.535
1126.791
1124.412
1119.823
1131.724
1130.318
1128.762
1126.879
1124.118
1118.297
1133.263
1131.945
1130.526
1128.923
1126.912
1123.806
1116.94
1134.651
1133.404
1132.087
1130.658
1129.02
1126.914
1123.554
1115.971
1135.898
1134.706
1133.463
1132.149
1130.717
1129.063
1126.908
1123.425
1115.51
1137.017
1135.873
1134.684
1133.444
1132.134
1130.707
1129.056
1126.91
1123.448
1115.6
1138.021
1136.918
1135.774
1134.586
1133.349
1132.044
1130.626
1129.002
1126.92
1123.619
1116.541
1138.92
1137.855
1136.749
1135.603
1134.415
1133.178
1131.877
1130.476
1128.895
1126.923
1123.975
1118.099
1139.726
1138.698
1137.629
1136.519
1135.369
1134.177
1132.938
1131.641
1130.26
1128.735
1126.917
1124.447
1119.847
1140.461
1139.47
1138.437
1137.363
1136.248
1135.093
1133.895
1132.652
1131.359
1130
1128.545
1126.945
1124.966
1121.789
1141.168
1140.215
1139.22
1138.183
1137.104
1135.985
1134.823
1133.619
1132.373
1131.085
1129.765
1128.427
1127.048
1125.59
1124.129
1141.903
1140.99
1140.035
1139.037
1137.998
1136.917
1135.792
1134.625
1133.417
1132.17
1130.907
1129.653
1128.406
1127.181
1126.002
1142.661
1141.79
1140.876
1139.921
1138.923
1137.884
1136.8
1135.672
1134.503
1133.292
1132.066
1130.847
1129.64
1128.461
1127.332
1143.423
1142.594
1141.723
1140.811
1139.857
1138.86
1137.819
1136.734
1135.606
1134.435
1133.241
1132.047
1130.858
1129.69
1128.564
1144.173
1143.386
1142.559
1141.69
1140.78
1139.828
1138.832
1137.791
1136.705
1135.577
1134.417
1133.247
1132.073
1130.91
1129.776
1123.183
1124.825
1123.054
1126.446
1124.799
1122.75
1128.069
1126.532
1124.744
1122.183
1129.731
1128.271
1126.655
1124.63
1121.24
1131.415
1130.026
1128.526
1126.79
1124.425
1119.875
1133.018
1131.702
1130.301
1128.752
1126.878
1124.135
1118.363
1134.489
1133.239
1131.925
1130.511
1128.914
1126.914
1123.825
1117.017
1135.819
1134.626
1133.382
1132.069
1130.645
1129.014
1126.916
1123.576
1116.057
1137.017
1135.873
1134.684
1133.444
1132.134
1130.707
1129.056
1126.91
1123.448
1115.6
1138.093
1136.993
1135.851
1134.666
1133.429
1132.123
1130.697
1129.05
1126.913
1123.471
1116.022
1139.058
1137.998
1136.897
1135.756
1134.572
1133.337
1132.033
1130.617
1128.996
1126.922
1123.722
1117.17
1139.92
1138.898
1137.836
1136.733
1135.59
1134.404
1133.168
1131.868
1130.468
1128.891
1126.935
1124.136
1118.606
1140.69
1139.706
1138.68
1137.614
1136.507
1135.36
1134.169
1132.93
1131.634
1130.255
1128.726
1126.959
1124.604
1120.279
1141.39
1140.443
1139.455
1138.425
1137.354
1136.242
1135.087
1133.89
1132.648
1131.357
1129.998
1128.57
1127.021
1125.153
1122.264
1142.061
1141.152
1140.202
1139.209
1138.175
1137.1
1135.981
1134.82
1133.617
1132.374
1131.096
1129.799
1128.491
1127.179
1125.907
1142.758
1141.889
1140.978
1140.025
1139.031
1137.995
1136.915
1135.791
1134.625
1133.419
1132.187
1130.949
1129.713
1128.5
1127.334
1143.475
1142.647
1141.778
1140.868
1139.915
1138.921
1137.882
1136.799
1135.672
1134.504
1133.308
1132.105
1130.903
1129.719
1128.574
1144.196
1143.41
1142.583
1141.715
1140.805
1139.854
1138.858
1137.818
1136.734
1135.606
1134.446
1133.272
1132.093
1130.924
1129.782
1144.905
1144.16
1143.376
1142.551
1141.685
1140.777
1139.826
1138.83
1137.789
1136.705
1135.582
1134.437
1133.279
1132.122
1130.98
1124.838
1123.194
1126.395
1124.832
1123.071
1127.935
1126.448
1124.811
1122.773
1129.497
1128.067
1126.537
1124.758
1122.214
1131.097
1129.722
1128.268
1126.66
1124.647
1121.283
1132.713
1131.398
1130.014
1128.52
1126.793
1124.442
1119.928
1134.251
1132.996
1131.685
1130.289
1128.746
1126.882
1124.152
1118.427
1135.663
1134.465
1133.218
1131.909
1130.499
1128.91
1126.916
1123.844
1117.094
1136.942
1135.795
1134.604
1133.363
1132.055
1130.636
1129.008
1126.918
1123.597
1116.142
1138.093
1136.993
1135.851
1134.666
1133.429
1132.123
1130.697
1129.05
1126.913
1123.471
1116.022
1139.127
1138.07
1136.972
1135.833
1134.651
1133.417
1132.111
1130.687
1129.043
1126.915
1123.582
1116.683
1140.052
1139.035
1137.978
1136.88
1135.742
1134.56
1133.326
1132.022
1130.608
1128.99
1126.933
1123.896
1117.715
1140.877
1139.898
1138.879
1137.82
1136.72
1135.58
1134.394
1133.158
1131.858
1130.46
1128.869
1126.961
1124.291
1119.046
1141.611
1140.67
1139.689
1138.666
1137.603
1136.499
1135.352
1134.161
1132.923
1131.628
1130.231
1128.716
1127.004
1124.757
1120.659
1142.275
1141.372
1140.428
1139.442
1138.415
1137.347
1136.236
1135.082
1133.885
1132.644
1131.344
1129.993
1128.594
1127.096
1125.335
1123.162
1142.91
1142.045
1141.139
1140.191
1139.202
1138.171
1137.096
1135.978
1134.818
1133.616
1132.374
1131.105
1129.826
1128.553
1127.323
1143.568
1142.743
1141.876
1140.969
1140.019
1139.028
1137.992
1136.912
1135.79
1134.625
1133.426
1132.206
1130.981
1129.767
1128.59
1144.246
1143.461
1142.636
1141.769
1140.862
1139.912
1138.918
1137.88
1136.798
1135.672
1134.511
1133.329
1132.138
1130.954
1129.795
1144.926
1144.182
1143.398
1142.574
1141.709
1140.802
1139.851
1138.856
1137.817
1136.733
1135.61
1134.461
1133.299
1132.135
1130.987
1145.594
1144.891
1144.149
1143.367
1142.545
1141.681
1140.774
1139.823
1138.828
1137.788
1136.704
1135.588
1134.452
1133.308
1132.168
1126.372
1124.846
1123.211
1127.857
1126.399
1124.844
1123.093
1129.347
1127.934
1126.455
1124.826
1122.8
1130.86
1129.491
1128.067
1126.545
1124.777
1122.251
1132.403
1131.086
1129.716
1128.269
1126.669
1124.668
1121.327
1133.957
1132.695
1131.385
1130.006
1128.519
1126.8
1124.46
1119.981
1135.435
1134.229
1132.978
1131.671
1130.28
1128.743
1126.886
1124.169
1118.492
1136.792
1135.64
1134.445
1133.202
1131.896
1130.491
1128.905
1126.918
1123.863
1117.169
1138.021
1136.918
1135.774
1134.586
1133.349
1132.044
1130.626
1129.002
1126.92
1123.619
1116.541
1139.127
1138.07
1136.972
1135.833
1134.651
1133.417
1132.111
1130.687
1129.043
1126.915
1123.582
1116.683
1140.119
1139.104
1138.049
1136.954
1135.818
1134.639
1133.405
1132.1
1130.677
1129.037
1126.926
1123.766
1117.252
1141.005
1140.03
1139.016
1137.961
1136.866
1135.73
1134.549
1133.315
1132.011
1130.598
1128.962
1126.955
1124.059
1118.181
1141.791
1140.856
1139.88
1138.864
1137.807
1136.71
1135.569
1134.384
1133.148
1131.849
1130.422
1128.837
1126.991
1124.438
1119.418
1142.488
1141.591
1140.653
1139.674
1138.655
1137.594
1136.49
1135.343
1134.153
1132.915
1131.595
1130.194
1128.71
1127.049
1124.901
1121.319
1143.117
1142.258
1141.357
1140.416
1139.433
1138.408
1137.34
1136.229
1135.076
1133.88
1132.624
1131.321
1129.988
1128.616
1127.165
1125.691
1123.698
1143.716
1142.895
1142.032
1141.128
1140.183
1139.197
1138.166
1137.092
1135.974
1134.815
1133.608
1132.364
1131.105
1129.844
1128.611
1144.337
1143.554
1142.731
1141.867
1140.962
1140.015
1139.024
1137.989
1136.91
1135.788
1134.624
1133.427
1132.216
1131.006
1129.817
1144.976
1144.233
1143.45
1142.627
1141.763
1140.858
1139.909
1138.915
1137.878
1136.796
1135.672
1134.516
1133.343
1132.166
1131.001
1145.616
1144.913
1144.171
1143.39
1142.568
1141.705
1140.799
1139.849
1138.854
1137.815
1136.731
1135.611
1134.471
1133.321
1132.175
1146.244
1145.581
1144.88
1144.14
1143.361
1142.541
1141.678
1140.771
1139.821
1138.826
1137.782
1136.698
1135.59
1134.465
1133.335
1127.823
1126.376
1124.858
1123.232
1129.262
1127.858
1126.407
1124.86
1123.119
1130.709
1129.344
1127.937
1126.466
1124.846
1122.833
1132.171
1130.852
1129.489
1128.072
1126.558
1124.8
1122.289
1133.658
1132.39
1131.078
1129.714
1128.273
1126.682
1124.69
1121.372
1135.152
1133.938
1132.681
1131.375
1130.002
1128.521
1126.808
1124.479
1120.034
1136.573
1135.413
1134.211
1132.964
1131.661
1130.275
1128.741
1126.889
1124.187
1118.556
1137.877
1136.769
1135.62
1134.428
1133.188
1131.886
1130.483
1128.9
1126.921
1123.882
1117.526
1139.058
1137.998
1136.897
1135.756
1134.572
1133.337
1132.033
1130.617
1128.996
1126.922
1123.722
1117.17
1140.119
1139.104
1138.049
1136.954
1135.818
1134.639
1133.405
1132.1
1130.677
1129.037
1126.926
1123.766
1117.252
1141.069
1140.097
1139.084
1138.032
1136.939
1135.806
1134.626
1133.393
1132.088
1130.667
1129.007
1126.948
1123.935
1117.735
1141.914
1140.983
1140.011
1138.999
1137.947
1136.855
1135.719
1134.537
1133.303
1132.001
1130.553
1128.919
1126.978
1124.21
1118.568
1142.663
1141.771
1140.838
1139.865
1138.851
1137.797
1136.699
1135.559
1134.374
1133.138
1131.803
1130.363
1128.812
1127.021
1124.574
1120.048
1143.324
1142.47
1141.575
1140.639
1139.663
1138.646
1137.585
1136.481
1135.335
1134.145
1132.878
1131.543
1130.162
1128.707
1127.091
1125.189
1122.03
1143.917
1143.1
1142.243
1141.345
1140.406
1139.426
1138.401
1137.334
1136.223
1135.07
1133.854
1132.587
1131.296
1129.98
1128.633
1127.292
1125.913
1124.004
1144.48
1143.701
1142.881
1142.021
1141.12
1140.178
1139.192
1138.161
1137.087
1135.971
1134.8
1133.583
1132.344
1131.094
1129.852
1145.063
1144.322
1143.542
1142.721
1141.86
1140.957
1140.011
1139.02
1137.986
1136.908
1135.78
1134.611
1133.419
1132.218
1131.024
1145.663
1144.962
1144.221
1143.441
1142.621
1141.759
1140.854
1139.906
1138.913
1137.876
1136.79
1135.663
1134.514
1133.351
1132.189
1146.264
1145.602
1144.902
1144.163
1143.384
1142.564
1141.702
1140.796
1139.846
1138.852
1137.807
1136.721
1135.608
1134.478
1133.341
1146.853
1146.231
1145.57
1144.872
1144.134
1143.357
1142.537
1141.674
1140.768
1139.818
1138.815
1137.766
1136.688
1135.588
1134.475
1129.224
1127.823
1126.384
1124.874
1123.257
1130.623
1129.26
1127.862
1126.418
1124.88
1123.15
1132.024
1130.703
1129.344
1127.944
1126.48
1124.87
1122.867
1133.436
1132.161
1130.847
1129.491
1128.081
1126.575
1124.824
1122.327
1134.867
1133.644
1132.38
1131.074
1129.715
1128.282
1126.695
1124.711
1121.417
1136.303
1135.134
1133.924
1132.671
1131.369
1130.002
1128.524
1126.816
1124.497
1120.087
1137.667
1136.552
1135.395
1134.196
1132.953
1131.654
1130.27
1128.739
1126.893
1124.204
1118.859
1138.92
1137.855
1136.749
1135.603
1134.415
1133.178
1131.877
1130.476
1128.895
1126.923
1123.975
1118.099
1140.052
1139.035
1137.978
1136.88
1135.742
1134.56
1133.326
1132.022
1130.608
1128.99
1126.933
1123.896
1117.715
1141.069
1140.097
1139.084
1138.032
1136.939
1135.806
1134.626
1133.393
1132.088
1130.667
1129.007
1126.948
1123.935
1117.735
1141.977
1141.047
1140.078
1139.068
1138.018
1136.928
1135.794
1134.614
1133.381
1132.077
1130.618
1128.96
1126.97
1124.091
1118.134
1142.782
1141.894
1140.965
1139.995
1138.986
1137.936
1136.843
1135.707
1134.526
1133.292
1131.947
1130.481
1128.884
1127.003
1124.349
1119.219
1143.492
1142.643
1141.753
1140.823
1139.852
1138.841
1137.786
1136.689
1135.548
1134.363
1133.089
1131.73
1130.312
1128.793
1127.052
1124.85
1120.832
1144.117
1143.305
1142.453
1141.561
1140.628
1139.655
1138.637
1137.576
1136.473
1135.327
1134.104
1132.816
1131.496
1130.134
1128.705
1127.179
1125.497
1122.542
1144.675
1143.9
1143.086
1142.231
1141.335
1140.399
1139.418
1138.394
1137.327
1136.217
1135.04
1133.807
1132.549
1131.269
1129.969
1128.654
1127.37
1126.044
1124.235
1145.203
1144.465
1143.688
1142.871
1142.013
1141.115
1140.172
1139.186
1138.156
1137.083
1135.951
1134.764
1133.548
1132.311
1131.068
1145.749
1145.049
1144.31
1143.532
1142.714
1141.855
1140.953
1140.006
1139.016
1137.982
1136.894
1135.755
1134.588
1133.403
1132.213
1146.311
1145.65
1144.951
1144.212
1143.434
1142.616
1141.755
1140.851
1139.902
1138.91
1137.864
1136.771
1135.648
1134.506
1133.355
1146.873
1146.251
1145.591
1144.893
1144.156
1143.379
1142.56
1141.698
1140.792
1139.843
1138.84
1137.788
1136.706
1135.601
1134.481
1147.424
1146.841
1146.22
1145.562
1144.866
1144.13
1143.353
1142.533
1141.671
1140.765
1139.804
1138.792
1137.747
1136.676
1135.585
1130.585
1129.222
1127.828
1126.396
1124.894
1123.287
1131.941
1130.618
1129.26
1127.869
1126.434
1124.905
1123.181
1133.295
1132.016
1130.7
1129.347
1127.954
1126.499
1124.895
1122.901
1134.655
1133.425
1132.155
1130.846
1129.496
1128.093
1126.592
1124.848
1122.366
1136.031
1134.852
1133.633
1132.374
1131.073
1129.72
1128.29
1126.709
1124.734
1121.463
1137.409
1136.284
1135.119
1133.912
1132.663
1131.367
1130.001
1128.526
1126.824
1124.515
1120.343
1138.718
1137.646
1136.534
1135.38
1134.185
1132.945
1131.647
1130.265
1128.737
1126.897
1124.29
1119.371
1139.92
1138.898
1137.836
1136.733
1135.59
1134.404
1133.168
1131.868
1130.468
1128.891
1126.935
1124.136
1118.606
1141.005
1140.03
1139.016
1137.961
1136.866
1135.73
1134.549
1133.315
1132.011
1130.598
1128.962
1126.955
1124.059
1118.181
1141.977
1141.047
1140.078
1139.068
1138.018
1136.928
1135.794
1134.614
1133.381
1132.077
1130.618
1128.96
1126.97
1124.091
1118.134
1142.842
1141.956
1141.029
1140.061
1139.054
1138.007
1136.916
1135.782
1134.602
1133.37
1132.02
1130.541
1128.92
1126.993
1124.233
1118.805
1143.608
1142.762
1141.876
1140.949
1139.982
1138.975
1137.925
1136.832
1135.696
1134.514
1133.235
1131.862
1130.419
1128.855
1127.028
1124.628
1120.052
1144.281
1143.473
1142.626
1141.738
1140.811
1139.843
1138.831
1137.776
1136.679
1135.538
1134.312
1133.009
1131.667
1130.269
1128.777
1127.118
1125.191
1121.461
1144.869
1144.099
1143.289
1142.44
1141.55
1140.62
1139.646
1138.628
1137.568
1136.464
1135.283
1134.036
1132.76
1131.454
1130.109
1128.699
1127.271
1125.717
1122.948
1145.392
1144.658
1143.886
1143.074
1142.221
1141.328
1140.391
1139.411
1138.387
1137.32
1136.184
1134.986
1133.759
1132.509
1131.24
1129.929
1128.663
1127.416
1126.144
1124.437
1145.884
1145.187
1144.452
1143.677
1142.862
1142.007
1141.109
1140.166
1139.181
1138.151
1137.059
1135.904
1134.715
1133.498
1132.261
1146.394
1145.734
1145.037
1144.301
1143.525
1142.709
1141.85
1140.948
1140.002
1139.012
1137.964
1136.859
1135.721
1134.557
1133.38
1146.919
1146.297
1145.639
1144.941
1144.206
1143.43
1142.612
1141.751
1140.847
1139.899
1138.894
1137.836
1136.745
1135.628
1134.495
1147.444
1146.861
1146.24
1145.583
1144.887
1144.152
1143.375
1142.556
1141.694
1140.789
1139.827
1138.813
1137.764
1136.688
1135.591
1147.956
1147.411
1146.83
1146.212
1145.556
1144.861
1144.126
1143.349
1142.53
1141.667
1140.748
1139.774
1138.765
1137.726
1136.661
1131.905
1130.58
1129.223
1127.836
1126.412
1124.919
1123.318
1133.216
1131.934
1130.616
1129.265
1127.881
1126.453
1124.93
1123.213
1134.521
1133.286
1132.011
1130.701
1129.354
1127.969
1126.518
1124.92
1122.935
1135.829
1134.643
1133.417
1132.152
1130.849
1129.505
1128.106
1126.609
1124.872
1122.405
1137.149
1136.015
1134.841
1133.626
1132.371
1131.075
1129.725
1128.299
1126.722
1124.756
1121.688
1138.471
1137.391
1136.269
1135.107
1133.904
1132.66
1131.364
1130.001
1128.529
1126.831
1124.606
1120.817
1139.726
1138.698
1137.629
1136.519
1135.369
1134.177
1132.938
1131.641
1130.26
1128.735
1126.917
1124.447
1119.847
1140.877
1139.898
1138.879
1137.82
1136.72
1135.58
1134.394
1133.158
1131.858
1130.46
1128.869
1126.961
1124.291
1119.046
1141.914
1140.983
1140.011
1138.999
1137.947
1136.855
1135.719
1134.537
1133.303
1132.001
1130.553
1128.919
1126.978
1124.21
1118.568
1142.842
1141.956
1141.029
1140.061
1139.054
1138.007
1136.916
1135.782
1134.602
1133.37
1132.02
1130.541
1128.92
1126.993
1124.233
1118.805
1143.667
1142.822
1141.937
1141.013
1140.048
1139.043
1137.995
1136.904
1135.77
1134.591
1133.31
1131.929
1130.474
1128.887
1127.016
1124.517
1119.666
1144.393
1143.588
1142.744
1141.86
1140.937
1139.972
1138.964
1137.914
1136.821
1135.685
1134.456
1133.144
1131.788
1130.366
1128.832
1127.085
1124.989
1120.75
1145.028
1144.262
1143.457
1142.612
1141.727
1140.801
1139.833
1138.821
1137.766
1136.669
1135.486
1134.228
1132.938
1131.611
1130.232
1128.748
1127.207
1125.46
1121.987
1145.58
1144.851
1144.084
1143.276
1142.429
1141.542
1140.611
1139.637
1138.619
1137.559
1136.42
1135.212
1133.974
1132.709
1131.416
1130.053
1128.69
1127.338
1125.888
1123.301
1146.068
1145.375
1144.644
1143.874
1143.064
1142.214
1141.321
1140.384
1139.404
1138.38
1137.285
1136.124
1134.93
1133.71
1132.469
1131.163
1129.901
1128.67
1127.453
1126.231
1124.631
1146.526
1145.869
1145.175
1144.441
1143.669
1142.856
1142.001
1141.103
1140.161
1139.175
1138.123
1137.004
1135.846
1134.653
1133.429
1146.999
1146.38
1145.723
1145.027
1144.293
1143.52
1142.704
1141.845
1140.943
1139.998
1138.991
1137.922
1136.816
1135.678
1134.519
1147.488
1146.906
1146.286
1145.63
1144.935
1144.201
1143.425
1142.607
1141.747
1140.843
1139.88
1138.859
1137.802
1136.714
1135.604
1147.976
1147.431
1146.85
1146.232
1145.576
1144.882
1144.148
1143.371
1142.552
1141.69
1140.77
1139.794
1138.781
1137.737
1136.667
1148.451
1147.944
1147.401
1146.821
1146.205
1145.551
1144.857
1144.122
1143.345
1142.526
1141.648
1140.713
1139.741
1138.736
1137.702
1133.181
1131.897
1130.579
1129.228
1127.848
1126.432
1124.944
1123.35
1134.446
1133.207
1131.93
1130.618
1129.273
1127.896
1126.474
1124.955
1123.246
1135.701
1134.51
1133.279
1132.01
1130.705
1129.365
1127.983
1126.538
1124.944
1122.97
1136.956
1135.815
1134.634
1133.412
1132.152
1130.855
1129.514
1128.118
1126.627
1124.896
1122.597
1138.222
1137.133
1136.003
1134.832
1133.622
1132.372
1131.078
1129.731
1128.307
1126.736
1124.865
1122.156
1139.488
1138.453
1137.375
1136.257
1135.098
1133.9
1132.656
1131.362
1130
1128.532
1126.871
1124.782
1121.302
1140.69
1139.706
1138.68
1137.614
1136.507
1135.36
1134.169
1132.93
1131.634
1130.255
1128.726
1126.959
1124.604
1120.279
1141.791
1140.856
1139.88
1138.864
1137.807
1136.71
1135.569
1134.384
1133.148
1131.849
1130.422
1128.837
1126.991
1124.438
1119.418
1142.782
1141.894
1140.965
1139.995
1138.986
1137.936
1136.843
1135.707
1134.526
1133.292
1131.947
1130.481
1128.884
1127.003
1124.349
1119.219
1143.667
1142.822
1141.937
1141.013
1140.048
1139.043
1137.995
1136.904
1135.77
1134.591
1133.31
1131.929
1130.474
1128.887
1127.016
1124.517
1119.666
1144.45
1143.647
1142.804
1141.922
1141
1140.037
1139.032
1137.984
1136.893
1135.759
1134.53
1133.213
1131.85
1130.416
1128.86
1127.069
1124.888
1120.397
1145.137
1144.374
1143.572
1142.73
1141.848
1140.926
1139.961
1138.954
1137.903
1136.81
1135.627
1134.363
1133.064
1131.723
1130.32
1128.787
1127.168
1125.286
1121.352
1145.735
1145.01
1144.246
1143.443
1142.6
1141.717
1140.791
1139.823
1138.811
1137.756
1136.616
1135.401
1134.154
1132.876
1131.563
1130.153
1128.717
1127.28
1125.68
1122.457
1146.252
1145.563
1144.836
1144.071
1143.266
1142.421
1141.533
1140.602
1139.628
1138.611
1137.514
1136.345
1135.146
1133.918
1132.663
1131.329
1129.989
1128.684
1127.391
1126.031
1123.64
1146.705
1146.052
1145.361
1144.632
1143.865
1143.057
1142.207
1141.313
1140.377
1139.397
1138.343
1137.22
1136.063
1134.875
1133.662
1132.366
1131.111
1129.886
1128.677
1127.486
1126.312
1124.831
1147.128
1146.511
1145.857
1145.164
1144.433
1143.663
1142.85
1141.995
1141.096
1140.155
1139.144
1138.063
1136.939
1135.774
1134.569
1147.567
1146.986
1146.368
1145.713
1145.02
1144.288
1143.514
1142.699
1141.84
1140.938
1139.973
1138.942
1137.87
1136.763
1135.628
1148.019
1147.475
1146.895
1146.277
1145.623
1144.93
1144.196
1143.421
1142.603
1141.742
1140.821
1139.839
1138.818
1137.763
1136.68
1148.47
1147.963
1147.42
1146.841
1146.225
1145.572
1144.878
1144.143
1143.367
1142.548
1141.67
1140.732
1139.757
1138.747
1137.708