/*--------------------------------*- C++ -*----------------------------------*\
| =========                 |                                                 |
| \\      /  F ield         | OpenFOAM: The Open Source CFD Toolbox           |
|  \\    /   O peration     | Version:  2306                                  |
|   \\  /    A nd           | Website:  www.openfoam.com                      |
|    \\/     M anipulation  |                                                 |
\*---------------------------------------------------------------------------*/
FoamFile
{
    version     2.0;
    format      ascii;
    arch        "LSB;label=32;scalar=64";
    class       volVectorField;
    location    "1.5/fuel";
    object      U;
}
// * * * * * * * * * * * * * * * * * * * * * * * * * * * * * * * * * * * * * //

dimensions      [0 1 -1 0 0 0 0];

internalField   nonuniform List<vector> 
16000
(
(8.56888e-05 6.617008e-05 -0.004444034)
(8.582863e-05 0.0001810875 -0.004513599)
(0.0001536047 6.72084e-05 -0.003715163)
(8.392057e-05 7.060485e-05 -0.01410219)
(8.643141e-05 0.0003209079 -0.004655614)
(0.0001531268 0.0001880267 -0.003757073)
(8.395371e-05 0.0001917581 -0.01432115)
(0.0001198546 6.088503e-05 -0.003122761)
(0.0001502272 7.042454e-05 -0.01180414)
(7.772593e-05 7.701453e-05 -0.02093126)
(8.685995e-05 0.0003956224 -0.00487445)
(0.0001526724 0.0003302917 -0.003840965)
(8.433619e-05 0.0003392454 -0.01476796)
(0.0001185925 0.0001713637 -0.003151933)
(0.0001495834 0.0001953869 -0.01193632)
(7.752587e-05 0.0002098288 -0.02125423)
(9.121941e-05 5.420184e-05 -0.002680618)
(0.0001172053 6.340449e-05 -0.009933153)
(0.0001389053 7.442539e-05 -0.0175365)
(7.031295e-05 8.232082e-05 -0.03440729)
(8.907168e-05 0.0005787201 -0.005163569)
(0.0001510541 0.0004204826 -0.003966239)
(8.440395e-05 0.0004207031 -0.01545642)
(0.000116378 0.000299446 -0.00320981)
(0.0001487903 0.000342751 -0.0122008)
(7.741905e-05 0.0003700337 -0.02191322)
(9.001329e-05 0.0001529946 -0.002702423)
(0.0001158476 0.0001769735 -0.0100253)
(0.0001379198 0.0002062208 -0.01773174)
(6.983872e-05 0.0002308961 -0.03493626)
(7.07362e-05 4.852744e-05 -0.002341681)
(8.922967e-05 5.626102e-05 -0.008534986)
(0.0001083216 6.626035e-05 -0.01476904)
(0.0001257462 7.728037e-05 -0.0288442)
(5.834576e-05 0.0001033888 -0.02798954)
(8.827713e-05 0.0004527365 -0.005492806)
(0.0001515743 0.0005903598 -0.004123773)
(8.612924e-05 0.0006103781 -0.01636576)
(0.000112259 0.000383516 -0.003295074)
(0.0001466245 0.0004370024 -0.01259582)
(7.670086e-05 0.0004639402 -0.02292846)
(8.782636e-05 0.0002665158 -0.002745423)
(0.0001134431 0.0003088949 -0.01020806)
(0.0001364166 0.0003607709 -0.0181224)
(6.915684e-05 0.0004059305 -0.03601527)
(6.971876e-05 0.0001372227 -0.002358684)
(8.796014e-05 0.0001574875 -0.008603955)
(0.0001067927 0.0001845074 -0.01490531)
(0.0001243638 0.000218882 -0.02916416)
(5.726019e-05 0.0002885588 -0.02841887)
(5.661396e-05 4.37905e-05 -0.002073356)
(6.918821e-05 5.026024e-05 -0.007462137)
(8.251425e-05 5.844045e-05 -0.01269902)
(9.798803e-05 6.806654e-05 -0.02430673)
(0.0001036082 9.190572e-05 -0.02346797)
(0.0004985356 0.0009460505 -0.05580461)
(9.214635e-05 0.0001175841 -0.005735293)
(0.000146356 0.0004804645 -0.004295192)
(8.471083e-05 0.000480873 -0.01740289)
(0.0001086069 0.000529723 -0.003399852)
(0.0001464261 0.0006108167 -0.01309263)
(7.732456e-05 0.0006629165 -0.02426913)
(8.395105e-05 0.0003421844 -0.002808205)
(0.0001090251 0.0003958914 -0.01047739)
(0.0001331263 0.0004613575 -0.01870592)
(6.75155e-05 0.0005143315 -0.03767858)
(6.785301e-05 0.0002384877 -0.002392061)
(8.564849e-05 0.0002740633 -0.008739908)
(0.0001040403 0.000321297 -0.01517558)
(0.000122035 0.0003818371 -0.02980412)
(5.531034e-05 0.0005048589 -0.02929565)
(5.576037e-05 0.0001239816 -0.002087005)
(6.812567e-05 0.0001409425 -0.007515977)
(8.114059e-05 0.0001631148 -0.0128011)
(9.625978e-05 0.0001933281 -0.0245302)
(0.0001012929 0.0002576597 -0.02372753)
(0.0004878054 0.002682149 -0.05666309)
(4.636995e-05 3.979631e-05 -0.00185569)
(5.537605e-05 4.527956e-05 -0.006612107)
(6.396276e-05 5.199177e-05 -0.01110949)
(7.469834e-05 5.967089e-05 -0.02091147)
(8.056144e-05 7.924102e-05 -0.01978003)
(0.0008864433 0.0008344215 -0.0467866)
(0.0005116644 0.0009762115 -0.03936329)
(9.458423e-05 5.739466e-05 -0.005890246)
(0.0001499738 0.0001783125 -0.004411542)
(8.814013e-05 0.0001345702 -0.01816355)
(0.0001001471 0.0004345051 -0.003511751)
(0.000140293 0.000497894 -0.01363472)
(7.458886e-05 0.0005291227 -0.02579838)
(8.017335e-05 0.0004682993 -0.002884153)
(0.0001050045 0.0005449804 -0.01080845)
(0.0001313826 0.0006391885 -0.01943979)
(6.684669e-05 0.0007241342 -0.03987649)
(6.460304e-05 0.0003065705 -0.002440475)
(8.157848e-05 0.0003519976 -0.008938494)
(9.909123e-05 0.0004123677 -0.01557392)
(0.0001174377 0.0004898231 -0.03076062)
(5.160238e-05 0.000650464 -0.03064712)
(5.418523e-05 0.0002150715 -0.002113699)
(6.617176e-05 0.0002447265 -0.007621618)
(7.861948e-05 0.0002832628 -0.01300235)
(9.31023e-05 0.0003358243 -0.02497318)
(9.705102e-05 0.000447277 -0.02424748)
(0.0004680579 0.004689343 -0.05841311)
(4.564701e-05 0.000112775 -0.001866898)
(5.448878e-05 0.0001271349 -0.00665537)
(6.283022e-05 0.000145328 -0.01118924)
(7.320326e-05 0.0001697127 -0.02107898)
(7.831195e-05 0.0002224497 -0.01996127)
(0.0008642261 0.002372225 -0.04730577)
(0.0005000297 0.002841168 -0.03997244)
(3.878872e-05 3.639691e-05 -0.001675495)
(4.535742e-05 4.10968e-05 -0.005922064)
(5.119123e-05 4.669409e-05 -0.009849333)
(5.787805e-05 5.286315e-05 -0.01830338)
(6.154488e-05 6.86403e-05 -0.01702044)
(0.0006888928 0.0007171149 -0.0394347)
(0.0009139494 0.0008597537 -0.03299054)
(0.0004998617 0.001010275 -0.04369217)
(9.65017e-05 6.523426e-06 -0.005977752)
(0.0001521064 9.908287e-05 -0.004482401)
(9.028565e-05 6.747949e-05 -0.01864893)
(9.917079e-05 0.0001738712 -0.0035835)
(0.0001432941 0.0001879596 -0.01400087)
(7.697791e-05 0.0001676582 -0.02691824)
(7.272216e-05 0.0003852256 -0.00296438)
(9.607996e-05 0.0004472607 -0.01116324)
(0.0001234349 0.000522641 -0.02024093)
(6.256616e-05 0.0005853114 -0.04239088)
(6.133349e-05 0.0004168226 -0.00249834)
(7.75674e-05 0.0004803817 -0.009178804)
(9.437891e-05 0.0005638305 -0.01606362)
(0.0001138989 0.000672349 -0.03196416)
(4.811742e-05 0.0008950377 -0.03243466)
(5.146976e-05 0.0002766426 -0.002152223)
(6.278482e-05 0.0003146419 -0.007774927)
(7.423445e-05 0.0003640775 -0.01329634)
(8.753465e-05 0.0004316645 -0.02562652)
(8.937461e-05 0.0005769527 -0.02502434)
(0.000431148 0.006057586 -0.06111804)
(4.430748e-05 0.0001953269 -0.001888749)
(5.284813e-05 0.0002203552 -0.00673994)
(6.073645e-05 0.0002518593 -0.01134574)
(7.043782e-05 0.0002940559 -0.02140899)
(7.411234e-05 0.0003846886 -0.02032118)
(0.0008228866 0.004114774 -0.04834296)
(0.0004785124 0.004966877 -0.04121402)
(3.816983e-05 0.0001032133 -0.001684863)
(4.460846e-05 0.0001154973 -0.00595762)
(5.025411e-05 0.0001306539 -0.009913458)
(5.666379e-05 0.0001504766 -0.01843433)
(5.970971e-05 0.0001927931 -0.01715628)
(0.0006679675 0.002040274 -0.03979734)
(0.0008901453 0.002505414 -0.03335907)
(0.0004876578 0.002892755 -0.04437038)
(3.296172e-05 3.346726e-05 -0.001523912)
(3.794629e-05 3.754733e-05 -0.005350433)
(4.192929e-05 4.22777e-05 -0.008825808)
(4.631631e-05 4.732511e-05 -0.01623503)
(4.762122e-05 6.030094e-05 -0.01490056)
(0.0005265702 0.0006199677 -0.03393516)
(0.0007101478 0.0007383977 -0.02779859)
(0.0008894059 0.0008851298 -0.03661284)
(0.0004878577 0.001017253 -0.04436039)
(9.737392e-05 2.113899e-06 -0.006016764)
(0.0001542154 3.331012e-05 -0.004521053)
(9.204097e-05 1.144877e-05 -0.01892288)
(9.828955e-05 9.886425e-05 -0.003625295)
(0.0001450199 0.000104635 -0.01422368)
(7.84379e-05 8.741883e-05 -0.02763216)
(7.110187e-05 0.0001593656 -0.003013591)
(9.482825e-05 0.0001805844 -0.01138946)
(0.0001250317 0.0002039084 -0.02078147)
(6.373805e-05 0.0002061502 -0.04422433)
(5.524414e-05 0.0003432988 -0.002559052)
(6.982082e-05 0.0003952129 -0.009433669)
(8.468136e-05 0.0004632299 -0.01658872)
(0.0001038428 0.000551559 -0.0332828)
(4.027894e-05 0.0007380519 -0.03447613)
(4.869116e-05 0.0003742249 -0.002197817)
(5.935379e-05 0.0004267607 -0.007958237)
(6.982275e-05 0.0004940436 -0.01365216)
(8.201688e-05 0.0005859102 -0.02643003)
(8.174353e-05 0.0007793283 -0.02600266)
(0.000394833 0.008303536 -0.06469555)
(4.201574e-05 0.000251323 -0.001920154)
(5.003117e-05 0.0002834533 -0.006862051)
(5.714133e-05 0.0003239252 -0.01157288)
(6.568522e-05 0.0003782484 -0.02189147)
(6.691374e-05 0.00049586 -0.02085173)
(0.0007487689 0.005312724 -0.0498981)
(0.0004384996 0.00642134 -0.04315776)
(3.701982e-05 0.0001785301 -0.001703077)
(4.321849e-05 0.0001998856 -0.006026907)
(4.851438e-05 0.0002260556 -0.01003882)
(5.440669e-05 0.0002602393 -0.0186911)
(5.627153e-05 0.0003326599 -0.01742443)
(0.0006285658 0.003525732 -0.04051512)
(0.0008457271 0.004345237 -0.0340954)
(0.000464951 0.005056126 -0.04575242)
(3.242621e-05 9.495722e-05 -0.001531858)
(3.730673e-05 0.0001055974 -0.005380176)
(4.114343e-05 0.0001183859 -0.008878542)
(4.532094e-05 0.0001347901 -0.01634039)
(4.61674e-05 0.0001694203 -0.01500673)
(0.0005096454 0.001764419 -0.03420708)
(0.0006879447 0.00215225 -0.02805611)
(0.000864712 0.002538648 -0.03702328)
(0.0004750732 0.002946494 -0.04505459)
(2.841466e-05 3.092088e-05 -0.00139465)
(3.225048e-05 3.449553e-05 -0.004869276)
(3.508579e-05 3.85501e-05 -0.007977515)
(3.793443e-05 4.274125e-05 -0.01455452)
(3.809349e-05 5.363738e-05 -0.01321926)
(0.0004073017 0.0005438791 -0.02971121)
(0.0005429256 0.0006380174 -0.02391629)
(0.0006908742 0.0007585876 -0.03084733)
(0.0008695271 0.0008882046 -0.03716324)
(0.0005117584 0.001138585 -0.03750147)
(9.737392e-05 -2.113899e-06 -0.006016764)
(0.000155179 1.045254e-05 -0.004537943)
(9.284033e-05 3.624608e-06 -0.01904495)
(9.84279e-05 3.675846e-05 -0.003647092)
(0.0001469063 3.590327e-05 -0.01434526)
(7.979927e-05 2.173943e-05 -0.02803487)
(6.982872e-05 9.139474e-05 -0.00304124)
(9.376821e-05 0.0001026388 -0.01152114)
(0.0001258399 0.0001139049 -0.02111029)
(6.439698e-05 0.0001105999 -0.04539184)
(5.368479e-05 0.0001447983 -0.002594901)
(6.803853e-05 0.0001644459 -0.009589019)
(8.286752e-05 0.0001903981 -0.01692324)
(0.0001038101 0.0002225351 -0.03416736)
(3.888755e-05 0.000300412 -0.03596927)
(4.368802e-05 0.000308376 -0.002245455)
(5.305933e-05 0.00035145 -0.008151419)
(6.163802e-05 0.0004065476 -0.01402976)
(7.141879e-05 0.0004819356 -0.02729529)
(6.656019e-05 0.0006430072 -0.02707095)
(0.0003183192 0.006868855 -0.06884823)
(3.964509e-05 0.0003385865 -0.001957015)
(4.713433e-05 0.000382617 -0.007006638)
(5.34499e-05 0.0004371751 -0.01184452)
(6.08062e-05 0.0005100736 -0.02247562)
(5.935956e-05 0.000664278 -0.02150477)
(0.0006732165 0.007155063 -0.05185526)
(0.0003986131 0.008796607 -0.04571029)
(3.506408e-05 0.000229742 -0.001729166)
(4.084873e-05 0.0002571827 -0.006126541)
(4.555106e-05 0.0002908192 -0.01021987)
(5.056834e-05 0.0003348311 -0.01906407)
(5.047563e-05 0.0004285521 -0.01781622)
(0.0005613119 0.004546875 -0.04157761)
(0.0007662901 0.005612042 -0.0352199)
(0.0004229932 0.006545456 -0.04792494)
(3.142904e-05 0.0001640636 -0.00154727)
(3.611676e-05 0.0001825209 -0.005437977)
(3.968043e-05 0.0002045494 -0.008981313)
(4.346537e-05 0.0002327612 -0.01654618)
(4.343956e-05 0.0002918621 -0.01521539)
(0.0004777106 0.003042367 -0.03474184)
(0.0006460864 0.003718805 -0.02856598)
(0.0008184569 0.004401827 -0.03784309)
(0.0004511526 0.005149562 -0.04646596)
(2.794712e-05 8.777101e-05 -0.001401471)
(3.169819e-05 9.706942e-05 -0.004894522)
(3.441806e-05 0.0001080112 -0.00802165)
(3.710542e-05 0.0001217849 -0.0146412)
(3.69207e-05 0.0001507281 -0.01330467)
(0.0003939457 0.001548128 -0.02992387)
(0.0005250169 0.001859976 -0.02410945)
(0.000668196 0.002176554 -0.03113422)
(0.0008439769 0.002574946 -0.03758405)
(0.0004971817 0.003267456 -0.03808353)
(2.477616e-05 2.868658e-05 -0.001283162)
(2.780711e-05 3.184791e-05 -0.004458732)
(2.982761e-05 3.535908e-05 -0.007263165)
(3.175136e-05 3.889296e-05 -0.01316125)
(3.119273e-05 4.819506e-05 -0.01185309)
(0.0003257797 0.0004832496 -0.02636149)
(0.0004199067 0.0005594767 -0.02093545)
(0.0005283741 0.0006547334 -0.02653711)
(0.0006752544 0.0007601301 -0.03130482)
(0.0009093946 0.0009885194 -0.03140949)
(0.004248077 0.01061003 -0.09838507)
(9.65017e-05 -6.523426e-06 -0.005977752)
(0.000155179 -1.045254e-05 -0.004537943)
(9.284033e-05 -3.624608e-06 -0.01904495)
(9.849879e-05 1.157371e-05 -0.003656291)
(0.0001477699 1.124226e-05 -0.0143984)
(8.042163e-05 6.776547e-06 -0.02821427)
(6.956004e-05 3.52903e-05 -0.003055084)
(9.381276e-05 3.845489e-05 -0.01158987)
(0.0001272005 4.057593e-05 -0.02128975)
(6.529857e-05 3.36938e-05 -0.0460502)
(5.249174e-05 8.33734e-05 -0.002614422)
(6.666209e-05 9.420736e-05 -0.009676225)
(8.144926e-05 0.0001081281 -0.01711795)
(0.0001035544 0.0001247302 -0.03470493)
(3.785581e-05 0.0001666294 -0.03691951)
(4.229736e-05 0.0001317614 -0.002272622)
(5.139307e-05 0.0001488386 -0.008264687)
(5.955151e-05 0.0001711496 -0.01425974)
(6.895077e-05 0.0002018914 -0.02784267)
(6.297697e-05 0.000274365 -0.02779135)
(0.0003011654 0.002855677 -0.07181549)
(3.547701e-05 0.000279055 -0.00199543)
(4.198034e-05 0.0003152197 -0.007158429)
(4.687473e-05 0.0003599475 -0.01213096)
(5.211003e-05 0.0004198497 -0.02309847)
(4.624823e-05 0.0005475386 -0.02220484)
(0.0005283875 0.005909612 -0.05404378)
(0.0003161132 0.007282863 -0.04894409)
(3.302588e-05 0.0003084653 -0.001759563)
(3.838804e-05 0.0003458145 -0.006243539)
(4.247345e-05 0.000390831 -0.01043427)
(4.657275e-05 0.0004494129 -0.01951025)
(4.432915e-05 0.0005713499 -0.01829095)
(0.0004901424 0.006075856 -0.04288417)
(0.0006847401 0.007555133 -0.03662355)
(0.0003804264 0.008958212 -0.05077496)
(2.974159e-05 0.0002111332 -0.001569279)
(3.40993e-05 0.0002348605 -0.005520811)
(3.720345e-05 0.0002631729 -0.009129121)
(4.033087e-05 0.0002994841 -0.01684361)
(3.887516e-05 0.0003758036 -0.01551826)
(0.0004240445 0.003920433 -0.03552683)
(0.0005747191 0.004796719 -0.02933784)
(0.0007360587 0.005688095 -0.03910233)
(0.0004071985 0.006674304 -0.04871277)
(2.707513e-05 0.0001514986 -0.001414675)
(3.066866e-05 0.0001675987 -0.004943466)
(3.317257e-05 0.0001864073 -0.008107432)
(3.555697e-05 0.0002100422 -0.01480999)
(3.471816e-05 0.0002593332 -0.01347194)
(0.0003687213 0.002665244 -0.03034001)
(0.0004911959 0.003206802 -0.02448951)
(0.0006253807 0.003759985 -0.03170203)
(0.0007959485 0.00446411 -0.03842209)
(0.0004695532 0.00571017 -0.0392773)
(2.436454e-05 8.145831e-05 -0.001289079)
(2.73257e-05 8.966042e-05 -0.004480421)
(2.925331e-05 9.91164e-05 -0.007300646)
(3.105069e-05 0.0001108544 -0.01323384)
(3.022758e-05 0.0001354526 -0.01192337)
(0.0003150331 0.001375693 -0.02653267)
(0.0004057917 0.001631178 -0.02108657)
(0.0005101637 0.00187887 -0.02675236)
(0.0006520975 0.002203897 -0.03159934)
(0.0008805952 0.002839074 -0.0317608)
(0.00411012 0.03060563 -0.1000847)
(2.183075e-05 2.671233e-05 -0.00118605)
(2.425178e-05 2.952843e-05 -0.004104445)
(2.572882e-05 3.260027e-05 -0.006653396)
(2.700251e-05 3.561289e-05 -0.01198759)
(2.612669e-05 4.36719e-05 -0.01072033)
(0.0002667481 0.0004338366 -0.02363976)
(0.0003358529 0.0004969439 -0.01857219)
(0.0004085748 0.0005736924 -0.02322828)
(0.0005166031 0.0006554724 -0.02692656)
(0.0007059496 0.0008439928 -0.02645312)
(0.007537389 0.009119719 -0.08236435)
(0.004371083 0.01054832 -0.0100702)
(9.458423e-05 -5.739466e-05 -0.005890246)
(0.0001542154 -3.331012e-05 -0.004521053)
(9.204097e-05 -1.144877e-05 -0.01892288)
(9.849879e-05 -1.157371e-05 -0.003656291)
(0.0001477699 -1.124226e-05 -0.0143984)
(8.042163e-05 -6.776547e-06 -0.02821427)
(6.943796e-05 1.112136e-05 -0.003060727)
(9.384154e-05 1.20848e-05 -0.01161889)
(0.0001278278 1.265756e-05 -0.02136819)
(6.571451e-05 1.043746e-05 -0.04634345)
(5.215088e-05 3.283933e-05 -0.002623831)
(6.634171e-05 3.651877e-05 -0.009719938)
(8.129012e-05 4.112726e-05 -0.01721963)
(0.000104306 4.602963e-05 -0.03499835)
(3.781457e-05 6.138565e-05 -0.03745527)
(4.124833e-05 7.602805e-05 -0.002286996)
(5.013268e-05 8.558578e-05 -0.008326295)
(5.798743e-05 9.783568e-05 -0.01438885)
(6.711564e-05 0.000114559 -0.02816092)
(6.039413e-05 0.0001545974 -0.02822897)
(0.0002888516 0.001590602 -0.07370169)
(3.425751e-05 0.0001203345 -0.002016638)
(4.051409e-05 0.0001350836 -0.007244325)
(4.50202e-05 0.0001536978 -0.01229879)
(4.966874e-05 0.0001790186 -0.02347479)
(4.223196e-05 0.0002371622 -0.02265084)
(0.0004899515 0.002546424 -0.05546548)
(0.0002964748 0.003042834 -0.05095999)
(2.950616e-05 0.0002542279 -0.001791202)
(3.41045e-05 0.0002849233 -0.006366102)
(3.712656e-05 0.0003218276 -0.01065949)
(3.966944e-05 0.0003699367 -0.0199832)
(3.406761e-05 0.0004704842 -0.01879438)
(0.0003685165 0.005010255 -0.04432679)
(0.0005299292 0.006241231 -0.03841175)
(0.0002944517 0.007426653 -0.05449742)
(2.797339e-05 0.0002826729 -0.001594758)
(3.19904e-05 0.0003147867 -0.005617376)
(3.461166e-05 0.000352464 -0.009302723)
(3.704188e-05 0.0004004963 -0.01719597)
(3.40125e-05 0.0004992997 -0.01588088)
(0.0003668364 0.005214943 -0.03647696)
(0.0004990122 0.006407912 -0.03027852)
(0.0006505288 0.007652998 -0.04067264)
(0.000361931 0.009130042 -0.05164503)
(2.560559e-05 0.000194959 -0.001433482)
(2.893126e-05 0.000215659 -0.0050134)
(3.107396e-05 0.0002398262 -0.008230383)
(3.295446e-05 0.0002702283 -0.01505295)
(3.105034e-05 0.0003337664 -0.01371347)
(0.0003266289 0.003432281 -0.03094719)
(0.0004344057 0.004132783 -0.02506201)
(0.0005525125 0.00485129 -0.03256764)
(0.0007106638 0.005771361 -0.03973233)
(0.0004191393 0.00741323 -0.04116668)
(2.359587e-05 0.0001404817 -0.001300511)
(2.642702e-05 0.0001546605 -0.00452238)
(2.818051e-05 0.0001708864 -0.00737332)
(2.974015e-05 0.0001909896 -0.01337479)
(2.841388e-05 0.0002328104 -0.01206057)
(0.0002947253 0.002365477 -0.02686629)
(0.0003791146 0.00280796 -0.02138249)
(0.0004757416 0.003238734 -0.02717571)
(0.0006083116 0.003806724 -0.03218023)
(0.000825956 0.004921363 -0.03246882)
(0.003830543 0.05344736 -0.1033842)
(2.146577e-05 7.587522e-05 -0.001191229)
(2.382852e-05 8.316212e-05 -0.004123272)
(2.522987e-05 9.141764e-05 -0.006685611)
(2.640244e-05 0.00010153 -0.01204927)
(2.531856e-05 0.0001227525 -0.01077918)
(0.0002579215 0.001235108 -0.02378068)
(0.000324505 0.00144895 -0.01869389)
(0.0003942511 0.001646439 -0.02339673)
(0.0004980802 0.001900592 -0.02714779)
(0.0006802865 0.002424249 -0.02669825)
(0.007268914 0.02630109 -0.08342756)
(0.004234701 0.03075277 -0.01050514)
(1.940427e-05 2.495523e-05 -0.001100737)
(2.137426e-05 2.748157e-05 -0.003795679)
(2.244987e-05 3.019044e-05 -0.006126975)
(2.330489e-05 3.278701e-05 -0.01098542)
(2.224038e-05 3.98487e-05 -0.009766)
(0.000223464 0.0003928367 -0.02138303)
(0.0002749922 0.0004460117 -0.01665241)
(0.0003267741 0.0005092676 -0.02060532)
(0.0003994043 0.0005739624 -0.02356638)
(0.0005403667 0.0007268416 -0.0227502)
(0.005846558 0.007753329 -0.06934081)
(0.007779499 0.00909083 -0.008391649)
(0.004223723 0.01084726 -0.02899397)
(9.214635e-05 -0.0001175841 -0.005735293)
(0.0001521064 -9.908287e-05 -0.004482401)
(9.028565e-05 -6.747949e-05 -0.01864893)
(9.84279e-05 -3.675846e-05 -0.003647092)
(0.0001469063 -3.590327e-05 -0.01434526)
(7.979927e-05 -2.173943e-05 -0.02803487)
(6.943796e-05 -1.112136e-05 -0.003060727)
(9.384154e-05 -1.20848e-05 -0.01161889)
(0.0001278278 -1.265756e-05 -0.02136819)
(6.571451e-05 -1.043746e-05 -0.04634345)
(5.199345e-05 1.03488e-05 -0.002627534)
(6.619677e-05 1.14885e-05 -0.009737763)
(8.122722e-05 1.28772e-05 -0.01726257)
(0.0001046597 1.430968e-05 -0.03512665)
(3.780788e-05 1.892492e-05 -0.03769391)
(4.091351e-05 3.031704e-05 -0.002293671)
(4.975931e-05 3.378411e-05 -0.008356026)
(5.756332e-05 3.8228e-05 -0.01445361)
(6.671962e-05 4.425668e-05 -0.02832714)
(5.986034e-05 6.021551e-05 -0.02846787)
(0.0002867546 0.0005987635 -0.07476544)
(3.334658e-05 6.951532e-05 -0.002027557)
(3.941783e-05 7.783227e-05 -0.007289705)
(4.364677e-05 8.813853e-05 -0.01239009)
(4.788574e-05 0.0001020976 -0.02368576)
(3.939768e-05 0.0001343605 -0.02291007)
(0.0004626746 0.001435992 -0.05632681)
(0.0002824783 0.001696821 -0.05223589)
(2.843973e-05 0.000110392 -0.001808132)
(3.282899e-05 0.0001231345 -0.00643319)
(3.55346e-05 0.0001387458 -0.01078686)
(3.759501e-05 0.0001594134 -0.02025781)
(3.073075e-05 0.0002052498 -0.01910117)
(0.0003298208 0.002184041 -0.04520262)
(0.000487586 0.002693758 -0.03934738)
(0.0002723636 0.003127049 -0.05670568)
(2.496338e-05 0.0002329469 -0.001621264)
(2.837953e-05 0.0002593422 -0.005718435)
(3.018926e-05 0.0002902063 -0.009484678)
(3.146924e-05 0.0003296072 -0.01756817)
(2.603644e-05 0.000410785 -0.0162628)
(0.0002723656 0.004294925 -0.03751979)
(0.0003701177 0.005284079 -0.03149801)
(0.0004905877 0.006323903 -0.04276221)
(0.0002723104 0.007577358 -0.05577625)
(2.405938e-05 0.0002603821 -0.001455124)
(2.710618e-05 0.0002882697 -0.005094401)
(2.886669e-05 0.0003202792 -0.008373747)
(3.020923e-05 0.0003602982 -0.01533838)
(2.713239e-05 0.0004422563 -0.01399984)
(0.0002816131 0.004550781 -0.03167324)
(0.000373776 0.005496276 -0.02574837)
(0.0004749077 0.006478234 -0.03362164)
(0.0006213233 0.007763387 -0.04135655)
(0.000366246 0.01013843 -0.0436437)
(2.230503e-05 0.0001807712 -0.001316757)
(2.491628e-05 0.000199001 -0.004582179)
(2.638013e-05 0.0002198406 -0.007477176)
(2.754646e-05 0.0002456818 -0.01357699)
(2.540459e-05 0.0002995062 -0.01225788)
(0.0002609906 0.00304459 -0.02735081)
(0.0003346283 0.003616328 -0.02182696)
(0.0004180167 0.004174732 -0.02781857)
(0.000533901 0.00491302 -0.03308495)
(0.0007293276 0.006367088 -0.03356675)
(0.00332814 0.06959901 -0.1093718)
(2.078349e-05 0.0001307538 -0.001201217)
(2.30375e-05 0.0001433329 -0.004159623)
(2.429677e-05 0.000157477 -0.006747942)
(2.527892e-05 0.0001747672 -0.01216873)
(2.379933e-05 0.0002107992 -0.01089377)
(0.0002412355 0.002121619 -0.02405438)
(0.000303047 0.002491235 -0.01893127)
(0.0003671606 0.002833719 -0.02372645)
(0.0004630297 0.003275802 -0.02758121)
(0.000631466 0.004186864 -0.02718864)
(0.006732089 0.04555349 -0.08542063)
(0.003957985 0.05413296 -0.01138834)
(1.90785e-05 7.090243e-05 -0.001105305)
(2.099938e-05 7.742231e-05 -0.003812168)
(2.201239e-05 8.468642e-05 -0.006154951)
(2.278537e-05 9.349152e-05 -0.01103846)
(2.155359e-05 0.0001120145 -0.009816001)
(0.0002160852 0.001118435 -0.0215011)
(0.0002656776 0.00130049 -0.01675264)
(0.0003152737 0.001461611 -0.02074102)
(0.0003848604 0.001664306 -0.0237397)
(0.0005199439 0.002087771 -0.02293384)
(0.005613917 0.02235561 -0.07010182)
(0.00751288 0.02649636 -0.008712935)
(0.004080092 0.03140824 -0.02984499)
(1.738637e-05 2.338234e-05 -0.001025225)
(1.900381e-05 2.56619e-05 -0.00352429)
(1.97974e-05 2.806906e-05 -0.00566802)
(2.034776e-05 3.032589e-05 -0.01011995)
(1.92244e-05 3.657719e-05 -0.008951022)
(0.0001902694 0.0003582288 -0.01948176)
(0.0002303854 0.0004037734 -0.01506093)
(0.000267552 0.0004568551 -0.01847479)
(0.0003194276 0.0005092472 -0.02090326)
(0.0004176741 0.0006358736 -0.01990902)
(0.00448074 0.006660507 -0.05961723)
(0.006035965 0.007737417 -0.00704316)
(0.007497838 0.00930548 -0.02422803)
(0.004185314 0.01091712 -0.01069727)
(8.827713e-05 -0.0004527365 -0.005492806)
(0.0001499738 -0.0001783125 -0.004411542)
(8.814013e-05 -0.0001345702 -0.01816355)
(9.828955e-05 -9.886425e-05 -0.003625295)
(0.0001450199 -0.000104635 -0.01422368)
(7.84379e-05 -8.741883e-05 -0.02763216)
(6.956004e-05 -3.52903e-05 -0.003055084)
(9.381276e-05 -3.845489e-05 -0.01158987)
(0.0001272005 -4.057593e-05 -0.02128975)
(6.529857e-05 -3.36938e-05 -0.0460502)
(5.199345e-05 -1.03488e-05 -0.002627534)
(6.619677e-05 -1.14885e-05 -0.009737763)
(8.122722e-05 -1.28772e-05 -0.01726257)
(0.0001046597 -1.430967e-05 -0.03512665)
(3.780788e-05 -1.892492e-05 -0.03769391)
(4.075834e-05 9.550693e-06 -0.002296203)
(4.95877e-05 1.062947e-05 -0.008367732)
(5.737258e-05 1.198447e-05 -0.01448004)
(6.65501e-05 1.380553e-05 -0.02839737)
(5.96376e-05 1.862723e-05 -0.02857234)
(0.0002859214 0.0001844978 -0.07523939)
(3.303829e-05 2.794988e-05 -0.002032439)
(3.906087e-05 3.107342e-05 -0.007310803)
(4.321253e-05 3.494887e-05 -0.01243418)
(4.734067e-05 4.023516e-05 -0.02379158)
(3.846704e-05 5.330258e-05 -0.02304552)
(0.0004555877 0.0005640046 -0.05679693)
(0.0002796613 0.0006425808 -0.05295667)
(2.764906e-05 6.381475e-05 -0.001816618)
(3.188327e-05 7.102621e-05 -0.006467666)
(3.436454e-05 7.970228e-05 -0.01085415)
(3.608945e-05 9.114452e-05 -0.02040694)
(2.838147e-05 0.0001165546 -0.01927315)
(0.000302687 0.001236986 -0.04570942)
(0.000457651 0.001519311 -0.03990644)
(0.0002567514 0.001746929 -0.05809782)
(2.402757e-05 0.0001016991 -0.001635024)
(2.727011e-05 0.0001127967 -0.005772015)
(2.882553e-05 0.0001259765 -0.009584215)
(2.973026e-05 0.0001430619 -0.01777657)
(2.337839e-05 0.0001799688 -0.01648682)
(0.000240919 0.00188247 -0.03811977)
(0.000328722 0.002304845 -0.0320586)
(0.0004447998 0.00273626 -0.0437737)
(0.0002478406 0.003209109 -0.05793362)
(2.145781e-05 0.0002145457 -0.001477643)
(2.402248e-05 0.000237462 -0.005179158)
(2.515219e-05 0.0002636571 -0.008523853)
(2.562414e-05 0.0002964352 -0.01563936)
(2.077911e-05 0.0003635666 -0.01430017)
(0.0002084407 0.003743951 -0.03246833)
(0.0002738997 0.00452622 -0.0266547)
(0.0003435649 0.005341958 -0.03506121)
(0.0004562417 0.006416225 -0.04375805)
(0.0002641029 0.008425773 -0.04706789)
(2.094245e-05 0.0002409242 -0.00133535)
(2.332342e-05 0.0002653874 -0.004651034)
(2.447927e-05 0.0002928818 -0.007597493)
(2.522394e-05 0.0003267581 -0.01381282)
(2.218435e-05 0.0003959955 -0.01248987)
(0.0002248451 0.004026544 -0.02792448)
(0.0002869995 0.004794088 -0.02235313)
(0.0003562371 0.00555052 -0.02858866)
(0.0004543848 0.00656034 -0.03417947)
(0.0006268883 0.008565747 -0.03493588)
(0.002781933 0.09466349 -0.1168001)
(1.964122e-05 0.0001682404 -0.001215382)
(2.171216e-05 0.0001844117 -0.004211314)
(2.273613e-05 0.0002025684 -0.00683679)
(2.340468e-05 0.0002247772 -0.01233961)
(2.128603e-05 0.0002710878 -0.01105798)
(0.0002136125 0.002729423 -0.02445044)
(0.0002674234 0.003206597 -0.01928722)
(0.000322035 0.003649959 -0.02422614)
(0.0004043126 0.004223335 -0.02825561)
(0.0005486574 0.005406098 -0.02794491)
(0.005791769 0.05900882 -0.08913276)
(0.00345194 0.07063753 -0.01571489)
(1.846904e-05 0.0001221018 -0.001114101)
(2.029815e-05 0.0001333429 -0.003843948)
(2.119354e-05 0.0001457715 -0.006208977)
(2.181191e-05 0.0001608048 -0.01114097)
(2.026207e-05 0.0001922174 -0.009913143)
(0.0002021322 0.001919595 -0.02172974)
(0.0002480587 0.002233767 -0.01694751)
(0.0002935154 0.002512591 -0.02100559)
(0.0003573293 0.002864184 -0.02407751)
(0.0004810911 0.003598086 -0.02329953)
(0.005151594 0.03858001 -0.07150053)
(0.006979004 0.04624308 -0.009369004)
(0.003788825 0.05602425 -0.03149362)
(1.709393e-05 6.644813e-05 -0.001029282)
(1.866955e-05 7.231559e-05 -0.003538843)
(1.941084e-05 7.875647e-05 -0.005692532)
(1.98936e-05 8.648706e-05 -0.01016604)
(1.863359e-05 0.0001028242 -0.00899402)
(0.0001840067 0.001019935 -0.01958214)
(0.0002226024 0.001177351 -0.01514496)
(0.0002581218 0.001311212 -0.01858659)
(0.0003077641 0.001476672 -0.02104304)
(0.000401676 0.001826446 -0.02005256)
(0.004297248 0.01920148 -0.06019955)
(0.005803128 0.0225461 -0.007297689)
(0.007219976 0.02693537 -0.02482633)
(0.004038994 0.03171491 -0.01122258)
(1.568709e-05 2.19663e-05 -0.0009579437)
(1.703277e-05 2.403458e-05 -0.003283964)
(1.761273e-05 2.618712e-05 -0.005264477)
(1.795743e-05 2.816477e-05 -0.00936516)
(1.681467e-05 3.374452e-05 -0.008247126)
(0.0001645304 0.0003286481 -0.01785806)
(0.0001961798 0.0003681347 -0.01372035)
(0.0002241771 0.0004134266 -0.01670874)
(0.0002615322 0.0004566497 -0.01874047)
(0.0003340229 0.0005637774 -0.01765768)
(0.003461559 0.005816523 -0.05216033)
(0.004624635 0.006650799 -0.006040757)
(0.005816158 0.007904968 -0.02037507)
(0.007434261 0.009355344 -0.008922774)
(0.004099871 0.0109028 -0.005477972)
(8.907168e-05 -0.0005787201 -0.005163569)
(0.000146356 -0.0004804645 -0.004295192)
(8.471083e-05 -0.000480873 -0.01740289)
(9.917079e-05 -0.0001738712 -0.0035835)
(0.0001432941 -0.0001879596 -0.01400087)
(7.697791e-05 -0.0001676582 -0.02691824)
(6.982872e-05 -9.139474e-05 -0.00304124)
(9.376821e-05 -0.0001026388 -0.01152114)
(0.0001258399 -0.0001139049 -0.02111029)
(6.439698e-05 -0.0001105999 -0.04539184)
(5.215088e-05 -3.283933e-05 -0.002623831)
(6.634171e-05 -3.651877e-05 -0.009719938)
(8.129012e-05 -4.112726e-05 -0.01721963)
(0.000104306 -4.602963e-05 -0.03499835)
(3.781457e-05 -6.138565e-05 -0.03745527)
(4.075834e-05 -9.550693e-06 -0.002296203)
(4.95877e-05 -1.062947e-05 -0.008367732)
(5.737258e-05 -1.198447e-05 -0.01448004)
(6.65501e-05 -1.380553e-05 -0.02839737)
(5.96376e-05 -1.862723e-05 -0.02857234)
(0.0002859214 -0.0001844978 -0.07523939)
(3.289534e-05 8.801117e-06 -0.002034218)
(3.889614e-05 9.774373e-06 -0.007318807)
(4.301456e-05 1.096002e-05 -0.01245156)
(4.70965e-05 1.256733e-05 -0.02383478)
(3.805721e-05 1.652436e-05 -0.02310277)
(0.0004525585 0.0001743372 -0.05700251)
(0.00027851 0.0001979723 -0.05327771)
(2.737175e-05 2.581119e-05 -0.001820265)
(3.155906e-05 2.857354e-05 -0.006483098)
(3.396877e-05 3.189956e-05 -0.01088547)
(3.558408e-05 3.632037e-05 -0.02047896)
(2.754604e-05 4.663928e-05 -0.01935947)
(0.0002934041 0.0004929541 -0.04597384)
(0.0004494632 0.0005980663 -0.04021116)
(0.0002530189 0.0006677981 -0.05888584)
(2.333788e-05 5.881205e-05 -0.00164174)
(2.645283e-05 6.510571e-05 -0.005798809)
(2.782902e-05 7.243758e-05 -0.009635371)
(2.84738e-05 8.190978e-05 -0.01788646)
(2.150918e-05 0.0001023174 -0.01660849)
(0.0002188987 0.00106819 -0.03845394)
(0.000299747 0.001305169 -0.03237461)
(0.0004126141 0.001543594 -0.04437222)
(0.0002306607 0.001795384 -0.05928251)
(2.06329e-05 9.407373e-05 -0.001488992)
(2.305274e-05 0.0001037953 -0.005222725)
(2.397842e-05 0.0001150517 -0.008603392)
(2.415711e-05 0.0001293326 -0.01580222)
(1.863198e-05 0.0001597449 -0.01447029)
(0.0001836242 0.001646231 -0.03290475)