/*--------------------------------*- C++ -*----------------------------------*\
| =========                 |                                                 |
| \\      /  F ield         | OpenFOAM: The Open Source CFD Toolbox           |
|  \\    /   O peration     | Version:  2306                                  |
|   \\  /    A nd           | Website:  www.openfoam.com                      |
|    \\/     M anipulation  |                                                 |
\*---------------------------------------------------------------------------*/
FoamFile
{
    version     2.0;
    format      ascii;
    arch        "LSB;label=32;scalar=64";
    class       volScalarField;
    location    "1.5/fuel";
    object      X.H2;
}
// * * * * * * * * * * * * * * * * * * * * * * * * * * * * * * * * * * * * * //

dimensions      [0 0 0 0 0 0 0];

internalField   nonuniform List<scalar> 
16000
(
0.9361953
0.9374119
0.9178351
0.9362659
0.9398368
0.9187976
0.9374832
0.8972863
0.9178998
0.9364039
0.9434018
0.9207146
0.9399096
0.8981548
0.9188627
0.9376225
0.8772549
0.897346
0.9180263
0.936607
0.9478535
0.9235318
0.9434769
0.8998852
0.9207806
0.9400516
0.8780672
0.8982148
0.91899
0.9378273
0.8580733
0.8773105
0.8974627
0.9182125
0.9368736
0.952451
0.9270528
0.9479324
0.9024304
0.9235993
0.9436235
0.879685
0.8999459
0.9209097
0.9402604
0.8588411
0.878123
0.8983322
0.9191775
0.9380963
0.839738
0.8581255
0.8774194
0.8976348
0.9184573
0.9371373
0.9558221
0.9307045
0.952535
0.9056157
0.9271226
0.9480863
0.8820644
0.9024922
0.9237313
0.943839
0.86037
0.8797415
0.9000646
0.9210997
0.9405346
0.8404676
0.8588936
0.8782325
0.8985052
0.9194238
0.9383624
0.8221916
0.8397874
0.858228
0.8775801
0.897861
0.9186994
0.9373554
0.9579317
0.9334216
0.9559083
0.9089249
0.9307775
0.9526989
0.8850418
0.9056794
0.9272592
0.9483127
0.8626178
0.8821218
0.9026132
0.9239255
0.944122
0.8419198
0.860423
0.879852
0.9002395
0.9213493
0.9408057
0.8228872
0.8405172
0.8589965
0.8783939
0.8987326
0.9196674
0.9385824
0.8053748
0.8222384
0.8398842
0.8583791
0.8777914
0.8980849
0.9188996
0.9375718
0.9591205
0.935155
0.9580187
0.9113928
0.9334956
0.9560766
0.8881352
0.9089911
0.9309203
0.9529399
0.8654298
0.8851007
0.905804
0.9274602
0.9486099
0.8440543
0.8626716
0.8822342
0.9027915
0.9241807
0.9444018
0.8242713
0.8419698
0.8605268
0.8800151
0.9004695
0.9215963
0.9410301
0.8060396
0.8229342
0.8406144
0.8591483
0.8786063
0.8989577
0.919869
0.9388008
0.7892331
0.8054194
0.8223304
0.8400272
0.8585781
0.8780007
0.8982701
0.9190983
0.9377865
0.9596526
0.936151
0.9592079
0.9129722
0.9352293
0.9581886
0.8904437
0.9114597
0.9336405
0.956324
0.8683508
0.8881964
0.9091207
0.9311305
0.9532565
0.8467238
0.865485
0.8852163
0.9059876
0.9277243
0.9489038
0.8263053
0.8441051
0.8627771
0.8824
0.9030258
0.9244331
0.9446338
0.8073623
0.8243187
0.8420679
0.86068
0.8802296
0.9006972
0.9218006
0.9412528
0.7898698
0.8060843
0.8230265
0.840758
0.8593481
0.8788165
0.8991438
0.9200689
0.9390175
0.7737183
0.7892756
0.8055069
0.8224662
0.8402155
0.8587751
0.8781737
0.8984538
0.9192955
0.9379995
0.9596526
0.9366031
0.9597402
0.9138825
0.9362252
0.9593785
0.8919228
0.9130391
0.9353745
0.9584383
0.8705313
0.8905054
0.9115906
0.9338538
0.9566489
0.8494963
0.868408
0.8883162
0.9093117
0.9314068
0.9535696
0.8288485
0.8467758
0.8655932
0.8853867
0.906229
0.9279857
0.9491486
0.8093057
0.8263534
0.8442046
0.8629327
0.8826181
0.9032577
0.9246423
0.9448644
0.7911365
0.8074074
0.8244117
0.8422127
0.8608817
0.8804419
0.9008855
0.9220034
0.941474
0.7743293
0.7899125
0.8061722
0.8231628
0.840947
0.859546
0.8789904
0.8993286
0.9202674
0.9392325
0.7587881
0.773759
0.7893592
0.8056363
0.8226451
0.8404021
0.8589381
0.8783454
0.8986361
0.9194911
0.9390233
0.9591205
0.9366031
0.9597402
0.9142968
0.9366773
0.959911
0.8927763
0.9139492
0.9363703
0.9596291
0.8719291
0.8919843
0.9131699
0.9355881
0.9587661
0.851566
0.8705888
0.8906262
0.9117836
0.934134
0.9569703
0.8314893
0.84955
0.86852
0.888493
0.9095629
0.9316802
0.9538329
0.811735
0.8288977
0.8468778
0.8657528
0.8856108
0.9064679
0.9282031
0.9493933
0.7929973
0.8093514
0.8264477
0.8443515
0.8631375
0.882834
0.9034498
0.9248503
0.9450939
0.7755445
0.7911795
0.8074959
0.8245492
0.8424033
0.8610814
0.8806176
0.9010724
0.9222048
0.9416935
0.7593752
0.7743701
0.7899964
0.8063021
0.8233424
0.8411343
0.8597097
0.8791629
0.8995119
0.9204643
0.9402656
0.7444046
0.758827
0.773839
0.7894827
0.8058068
0.8228224
0.8405563
0.8590998
0.8785158
0.8988169
0.9204318
0.9397208
0.9579317
0.936151
0.9592079
0.9142968
0.9366773
0.959911
0.8931651
0.9143634
0.9368224
0.960162
0.8727364
0.8928376
0.9140797
0.9365838
0.9599581
0.8528933
0.8719865
0.8921048
0.9133627
0.9358689
0.9590903
0.8334608
0.8516201
0.8707016
0.8908044
0.9120374
0.9344114
0.9572404
0.8142572
0.8315401
0.8496555
0.8686854
0.8887256
0.9098116
0.9319095
0.9540983
0.795323
0.8117818
0.8289943
0.8470284
0.865963
0.8858327
0.9066667
0.9284202
0.949638
0.7773294
0.7930408
0.8094411
0.8265871
0.844545
0.8633403
0.8830129
0.9036408
0.925057
0.945322
0.7605427
0.7755856
0.791264
0.8076268
0.8247302
0.8425922
0.8612466
0.880792
0.901258
0.9224046
0.9427486
0.7449694
0.7594143
0.7744504
0.7901204
0.8064732
0.8235203
0.8412892
0.8598721
0.8793341
0.8996937
0.9214111
0.9409725
0.7305341
0.7444419
0.7589037
0.7739573
0.7896457
0.8059758
0.822969
0.8407094
0.8592602
0.8786848
0.8996872
0.9210716
0.9402458
0.9558221
0.935155
0.9580187
0.9138825
0.9362252
0.9593785
0.8931651
0.9143634
0.9368224
0.960162
0.8731043
0.8932263
0.9144938
0.9370358
0.9604915
0.8536601
0.8727935
0.8929578
0.9142721
0.9368644
0.9602834
0.8347253
0.8529472
0.8720989
0.8922826
0.9136162
0.9361467
0.9593623
0.8161401
0.8335119
0.8517262
0.8708682
0.891039
0.9122887
0.934644
0.9575129
0.7977371
0.8143055
0.83164
0.8498114
0.8689032
0.8889561
0.9100202
0.9321403
0.9543661
0.7795598
0.7953675
0.8118736
0.829137
0.8472266
0.8661711
0.8860174
0.9068652
0.9286369
0.9498825
0.7622574
0.777371
0.7931264
0.8095737
0.8267706
0.8447366
0.8635084
0.8831908
0.9038307
0.9252625
0.9464202
0.7460927
0.7605821
0.7756664
0.7913889
0.8077992
0.8249096
0.8427485
0.8614107
0.8809651
0.9014422
0.9233659
0.9434824
0.7310782
0.7450069
0.7594912
0.774569
0.7902838
0.8066428
0.8236675
0.8414429
0.8600333
0.879504
0.9005688
0.9220574
0.9415072
0.7171465
0.73057
0.7445155
0.7590171
0.7741132
0.7898072
0.8061156
0.8231144
0.8408612
0.8594193
0.8794984
0.9002785
0.9215529
0.940597
0.952451
0.9334216
0.9559083
0.9129722
0.9352293
0.9581886
0.8927763
0.9139492
0.9363703
0.9596291
0.8731043
0.8932263
0.9144938
0.9370358
0.9604915
0.8540097
0.8731613
0.8933462
0.9146858
0.9373162
0.9608173
0.8354561
0.8537137
0.8729055
0.893135
0.914525
0.937142
0.960556
0.817348
0.8347762
0.8530529
0.8722649
0.8925166
0.9138672
0.9363793
0.9596361
0.7995394
0.8161886
0.8336123
0.851883
0.8710874
0.8912712
0.9124994
0.9348782
0.9577877
0.7818749
0.7977831
0.8144003
0.8317875
0.8500166
0.869119
0.8891493
0.91023
0.9323725
0.9546361
0.7643999
0.7796023
0.795455
0.8120093
0.8293249
0.8474231
0.8663443
0.8862018
0.9070634
0.9288533
0.9510649
0.7477421
0.7622972
0.7774528
0.7932529
0.8097484
0.8269525
0.8448954
0.8636755
0.8833676
0.9040194
0.9262522
0.9472253
0.7321601
0.7461304
0.7606595
0.7757859
0.7915536
0.8079701
0.825058
0.8429036
0.8615735
0.8811369
0.9023288
0.9240307
0.9440475
0.7176712
0.7311143
0.7450807
0.7596049
0.7747255
0.7904459
0.806783
0.8238135
0.8415954
0.8601931
0.8803216
0.9011654
0.9225454
0.9418663
0.7042145
0.7171811
0.7306407
0.7446244
0.7591667
0.7742679
0.7899407
0.8062542
0.8232588
0.8410119
0.8601857
0.8800508
0.9007232
0.9218746
0.9407729
0.9478535
0.9307045
0.952535
0.9113928
0.9334956
0.9560766
0.8919228
0.9130391
0.9353745
0.9584383
0.8727364
0.8928376
0.9140797
0.9365838
0.9599581
0.8540097
0.8731613
0.8933462
0.9146858
0.9373162
0.9608173
0.8357893
0.8540632
0.8732731
0.8935231
0.9149384
0.9375937
0.96109
0.8180461
0.8355067
0.853819
0.8730709
0.8933681
0.9147753
0.9373741
0.9608299
0.8006956
0.8173963
0.8348762
0.853209
0.8724834
0.8927482
0.9140773
0.936613
0.9599117
0.783603
0.7995855
0.8162839
0.8337606
0.8520894
0.8713046
0.8914661
0.9127115
0.9351138
0.9580648
0.7666233
0.7819187
0.7978735
0.8145405
0.831982
0.8502201
0.8692999
0.8893437
0.9104412
0.9326062
0.9559528
0.7498028
0.7644406
0.779686
0.7955844
0.8121881
0.8295112
0.8475866
0.8665172
0.8863858
0.9072612
0.9298999
0.9520599
0.7337486
0.7477803
0.7623756
0.7775738
0.7934197
0.8099216
0.8271032
0.8450533
0.8638415
0.8835433
0.9049291
0.9269676
0.9478845
0.7187142
0.7321964
0.7462047
0.760774
0.7759435
0.7917168
0.8081115
0.8252053
0.8430576
0.8617351
0.8819643
0.902941
0.9245403
0.9444339
0.7047209
0.7177058
0.7311852
0.74519
0.759755
0.7748807
0.7905799
0.8069222
0.8239584
0.8417467
0.860963
0.8808787
0.9016158
0.9228726
0.9420468
0.6917135
0.7042478
0.7172491
0.7307455
0.7447681
0.7593151
0.7743958
0.7900733
0.8063918
0.8234019
0.8417375
0.8607059
0.8804663
0.9010204
0.9220357
0.9434018
0.9270528
0.9479324
0.9089249
0.9307775
0.9526989
0.8904437
0.9114597
0.9336405
0.956324
0.8719291
0.8919843
0.9131699
0.9355881
0.9587661
0.8536601
0.8727935
0.8929578
0.9142721
0.9368644
0.9602834
0.8357893
0.8540632
0.8732731
0.8935231
0.9149384
0.9375937
0.96109
0.8183645
0.8358399
0.8541683
0.8734381
0.8937558
0.9151883
0.9378255
0.961364
0.8013639
0.8180941
0.8356063
0.8539745
0.8732885
0.8935989
0.9149846
0.9376071
0.9611052
0.7847118
0.8007415
0.8174911
0.8350239
0.8534147
0.8726998
0.8929422
0.9142884
0.9368479
0.9601891
0.768283
0.783647
0.7996763
0.8164248
0.833956
0.852294
0.8714869
0.8916622
0.912925
0.935351
0.9594156
0.7519412
0.7666653
0.782005
0.7980071
0.8147254
0.8321747
0.8503907
0.869482
0.8895394
0.9106537
0.933745
0.9573307
0.735733
0.7498418
0.7645206
0.7798097
0.795755
0.8123654
0.8296663
0.8477498
0.8666899
0.8865696
0.9082185
0.9307531
0.9530141
0.7202457
0.7337853
0.7478555
0.7624915
0.7777333
0.7935851
0.8100651
0.827253
0.8452102
0.8640066
0.8843908
0.9055852
0.9275453
0.9483656
0.7057275
0.7187491
0.7322677
0.7463147
0.7609251
0.7760998
0.7918519
0.8082519
0.8253515
0.8432104
0.8625135
0.8825353
0.9034099
0.9248871
0.9446309
0.6922026
0.7047543
0.7177741
0.7312902
0.7453341
0.7599039
0.775009
0.7907129
0.8070603
0.8241022
0.8424754
0.8614873
0.8812991
0.9019177
0.923037
0.6796208
0.6917456
0.7043134
0.7173499
0.7308837
0.7449107
0.7594378
0.7745227
0.7902047
0.8065283
0.8240917
0.8422298
0.861097
0.8807439
0.9011692
0.9398368
0.9235318
0.9434769
0.9056157
0.9271226
0.9480863
0.8881352
0.9089911
0.9309203
0.9529399
0.8705313
0.8905054
0.9115906
0.9338538
0.9566489
0.8528933
0.8719865
0.8921048
0.9133627
0.9358689
0.9590903
0.8354561
0.8537137
0.8729055
0.893135
0.914525
0.937142
0.960556
0.8183645
0.8358399
0.8541683
0.8734381
0.8937558
0.9151883
0.9378255
0.961364
0.8016687
0.8184124
0.8359391
0.8543234
0.8736553
0.8939862
0.9153972
0.9380581
0.9616391
0.7853527
0.8014096
0.8181886
0.8357533
0.8541792
0.873504
0.893792
0.9151946
0.9378408
0.9613819
0.7693479
0.7847556
0.8008319
0.8176314
0.8352184
0.8536184
0.8728811
0.8931371
0.9145006
0.9370838
0.9615384
0.7535373
0.7683251
0.7837337
0.7998105
0.8166105
0.8341498
0.8524657
0.8716703
0.8918596
0.9131398
0.9365066
0.9608092
0.7377919
0.7519814
0.7667479
0.7821328
0.7981834
0.8149087
0.8323364
0.8505624
0.8696653
0.8897364
0.91169
0.9348801
0.959027
0.7221586
0.7357704
0.7499186
0.7646391
0.7799728
0.7959242
0.8125129
0.8298211
0.8479128
0.8668623
0.8874595
0.9089963
0.9315484
0.9538557
0.7072053
0.720281
0.7338575
0.7479668
0.7626445
0.7778916
0.7937221
0.8102078
0.827402
0.8453662
0.8648031
0.8850015
0.9061142
0.9279614
0.9486258
0.6931748
0.7057611
0.7188178
0.7323735
0.7464598
0.761075
0.776229
0.791986
0.8083912
0.8254967
0.8439469
0.8630505
0.8829725
0.903729
0.9250633
0.6800936
0.6922347
0.70482
0.7178752
0.7314289
0.7454771
0.760027
0.7751364
0.7908449
0.8071973
0.8247947
0.8429715
0.861883
0.881581
0.9020693
0.667916
0.6796518
0.6918088
0.7044105
0.717483
0.7310209
0.7450286
0.7595596
0.7746487
0.7903352
0.8071859
0.8245595
0.8426
0.8613583
0.8808829
0.9374119
0.9207146
0.9399096
0.9024304
0.9235993
0.9436235
0.8850418
0.9056794
0.9272592
0.9483127
0.8683508
0.8881964
0.9091207
0.9311305
0.9532565
0.851566
0.8705888
0.8906262
0.9117836
0.934134
0.9569703
0.8347253
0.8529472
0.8720989
0.8922826
0.9136162
0.9361467
0.9593623
0.8180461
0.8355067
0.853819
0.8730709
0.8933681
0.9147753
0.9373741
0.9608299
0.8016687
0.8184124
0.8359391
0.8543234
0.8736553
0.8939862
0.9153972
0.9380581
0.9616391
0.7856451
0.8017144
0.8185066
0.8360858
0.8545277
0.8738704
0.8941788
0.9156067
0.9382912
0.9619154
0.7699635
0.7853963
0.8014995
0.8183282
0.835947
0.8543821
0.8736843
0.8939857
0.9154054
0.9380754
0.9627259
0.7545614
0.7693898
0.7848418
0.8009655
0.8178162
0.8354113
0.8537891
0.8730633
0.893333
0.9147137
0.9382315
0.9628677
0.7393287
0.7535776
0.7684081
0.783862
0.7999876
0.8167947
0.8343123
0.8526385
0.8718549
0.8920583
0.9141875
0.9376462
0.962461
0.7241431
0.7378305
0.7520606
0.7668702
0.7823012
0.7983582
0.8150624
0.8324991
0.8507353
0.8698498
0.8906975
0.9127193
0.9362292
0.9611683
0.7090509
0.7221945
0.7358442
0.7500323
0.7647954
0.7801346
0.7960649
0.8126602
0.8299756
0.8480755
0.8676974
0.888182
0.9097197
0.9322323
0.9544319
0.6946019
0.7072392
0.7203504
0.7339645
0.7481136
0.7627962
0.7780227
0.7938583
0.8103496
0.82755
0.8461191
0.8653768
0.8854939
0.9064947
0.9281842
0.6810333
0.6932071
0.7058272
0.7189195
0.732513
0.7466037
0.761199
0.7763574
0.792119
0.8085295
0.8261963
0.8444547
0.8634617
0.88327
0.903891
0.6683733
0.6801246
0.6922982
0.7049175
0.7180087
0.7315664
0.7455954
0.7601491
0.7752627
0.7909758
0.8078576
0.8252661
0.8433459
0.8621483
0.8817225
0.65658
0.6679459
0.6797128
0.6919025
0.7045388
0.7176151
0.7311343
0.7451456
0.7596803
0.7747736
0.7909638
0.8076319
0.8249113
0.8428473
0.8614891
0.9361953
0.9187976
0.9374832
0.8998852
0.9207806
0.9400516
0.8820644
0.9024922
0.9237313
0.943839
0.8654298
0.8851007
0.905804
0.9274602
0.9486099
0.8494963
0.868408
0.8883162
0.9093117
0.9314068
0.9535696
0.8334608
0.8516201
0.8707016
0.8908044
0.9120374
0.9344114
0.9572404
0.817348
0.8347762
0.8530529
0.8722649
0.8925166
0.9138672
0.9363793
0.9596361
0.8013639
0.8180941
0.8356063
0.8539745
0.8732885
0.8935989
0.9149846
0.9376071
0.9611052
0.7856451
0.8017144
0.8185066
0.8360858
0.8545277
0.8738704
0.8941788
0.9156067
0.9382912
0.9619154
0.7702443
0.7856886
0.801804
0.8186459
0.836279
0.8547301
0.8740502
0.8943719
0.9158168
0.9385251
0.9632565
0.7551534
0.7700052
0.7854821
0.8016325
0.8185121
0.8361389
0.8545518
0.8738653
0.8941802
0.915617
0.9392148
0.9640071
0.7403148
0.7546015
0.7694723
0.7849694
0.8011416
0.8179995
0.8355728
0.8539606
0.8732463
0.8935298
0.9157515
0.939317
0.9643765
0.7256244
0.7393675
0.7536571
0.7685308
0.7840311
0.8001631
0.8169492
0.834476
0.8528125
0.8720408
0.8930279
0.9152186
0.9389543
0.9643867
0.7109656
0.7241802
0.7379066
0.7521779
0.7670315
0.7824684
0.7985049
0.8152172
0.8326629
0.8509092
0.8707506
0.8916525
0.9139403
0.9378887
0.9639952
0.6963842
0.7090856
0.7222655
0.7359534
0.7501823
0.7649504
0.7802692
0.7962055
0.8128073
0.83013
0.8488642
0.8683755
0.8888541
0.9103402
0.9326905
0.6824126
0.6946346
0.7073061
0.7204533
0.7341056
0.7482592
0.7629218
0.778153
0.7939937
0.8104906
0.8282647
0.8466612
0.8658394
0.8858481
0.9066983
0.6692821
0.6810645
0.6932709
0.7059252
0.7190538
0.7326514
0.7467228
0.7613221
0.7764848
0.7922512
0.8091961
0.8266785
0.8448435
0.8637414
0.883421
0.6570226
0.6684032
0.6801858
0.6923921
0.7050461
0.7181412
0.7316802
0.7457127
0.7602703
0.7753881
0.7916068
0.8083068
0.8256218
0.8435969
0.8622814
0.6455952
0.6566088
0.6680048
0.6798033
0.6920263
0.7046662
0.7177244
0.7312468
0.7452616
0.7598002
0.7753756
0.7913899
0.8079672
0.8251463
0.8429711
0.9178351
0.9362659
0.8981548
0.9188627
0.9376225
0.879685
0.8999459
0.9209097
0.9402604
0.8626178
0.8821218
0.9026132
0.9239255
0.944122
0.8467238
0.865485
0.8852163
0.9059876
0.9277243
0.9489038
0.8314893
0.84955
0.86852
0.888493
0.9095629
0.9316802
0.9538329
0.8161401
0.8335119
0.8517262
0.8708682
0.891039
0.9122887
0.934644
0.9575129
0.8006956
0.8173963
0.8348762
0.853209
0.8724834
0.8927482
0.9140773
0.936613
0.9599117
0.7853527
0.8014096
0.8181886
0.8357533
0.8541792
0.873504
0.893792
0.9151946
0.9378408
0.9613819
0.7702443
0.7856886
0.801804
0.8186459
0.836279
0.8547301
0.8740502
0.8943719
0.9158168
0.9385251
0.9632565
0.7554235
0.7702859
0.7857742
0.8019367
0.8188294
0.8364705
0.8548993
0.8742305
0.8945657
0.9160275
0.9396604
0.9645157
0.7408849
0.7551934
0.7700873
0.7856091
0.8018078
0.8186945
0.8362995
0.8547221
0.8740469
0.8943753
0.9166455
0.9402606
0.9654229
0.7265748
0.7403533
0.7546806
0.7695944
0.7851377
0.8013163
0.818153
0.8357352
0.854133
0.8734303
0.8944888
0.916732
0.9405114
0.9660565
0.7123946
0.7256616
0.7394438
0.7537748
0.7686928
0.7841989
0.8003105
0.8171048
0.8346407
0.8529876
0.8729484
0.8939831
0.9164012
0.9404424
0.9665917
0.6982331
0.7110013
0.7242534
0.7380193
0.7523327
0.7671916
0.7826086
0.7986525
0.815373
0.8328278
0.8517591
0.8716464
0.8927861
0.9154397
0.9400424
0.9686555
0.684135
0.6964176
0.7091538
0.7223705
0.7360975
0.7503311
0.7650795
0.7804037
0.7963459
0.8129542
0.8308781
0.8495045
0.8690065
0.8894308
0.9107554
0.6706161
0.6824442
0.6946991
0.7074052
0.7205892
0.7342456
0.7483799
0.7630468
0.7782826
0.7941284
0.8111713
0.8287793
0.8470984
0.8661722
0.8860376
0.6579021
0.6693123
0.681126
0.6933655
0.7060547
0.7191872
0.7327659
0.746841
0.7614442
0.7766113
0.7928881
0.8096556
0.8270478
0.845108
0.8638834
0.6460239
0.6570515
0.6684624
0.6802766
0.6925163
0.7051738
0.7182507
0.7317931
0.7458292
0.7603906
0.7759923
0.792036
0.8086458
0.8258602
0.8437229
0.6349457
0.6456232
0.6566658
0.6680923
0.6799229
0.6921492
0.7047715
0.7178328
0.7313584
0.7453767
0.7603778
0.7757837
0.7917103
0.8081912
0.8252639
0.8972863
0.9178998
0.9364039
0.8780672
0.8982148
0.91899
0.9378273
0.86037
0.8797415
0.9000646
0.9210997
0.9405346
0.8440543
0.8626716
0.8822342
0.9027915
0.9241807
0.9444018
0.8288485
0.8467758
0.8655932
0.8853867
0.906229
0.9279857
0.9491486
0.8142572
0.8315401
0.8496555
0.8686854
0.8887256
0.9098116
0.9319095
0.9540983
0.7995394
0.8161886
0.8336123
0.851883
0.8710874
0.8912712
0.9124994
0.9348782
0.9577877
0.7847118
0.8007415
0.8174911
0.8350239
0.8534147
0.8726998
0.8929422
0.9142884
0.9368479
0.9601891
0.7699635
0.7853963
0.8014995
0.8183282
0.835947
0.8543821
0.8736843
0.8939857
0.9154054
0.9380754
0.9627259
0.7554235
0.7702859
0.7857742
0.8019367
0.8188294
0.8364705
0.8548993
0.8742305
0.8945657
0.9160275
0.9396604
0.9645157
0.7411449
0.7554634
0.7703678
0.7859008
0.8021115
0.8190113
0.8366306
0.855069
0.8744114
0.89476
0.9170515
0.9406881
0.9658904
0.7271242
0.7409232
0.7552721
0.7702088
0.7857766
0.8019816
0.8188471
0.8364607
0.8548931
0.8742292
0.8953248
0.9175892
0.9413818
0.9669646
0.7133115
0.7266118
0.7404292
0.7547977
0.7697555
0.7853046
0.8014626
0.8183073
0.8358983
0.8543062
0.8743271
0.8953958
0.917811
0.941808
0.9678899
0.6996129
0.7124304
0.725735
0.7395568
0.7539302
0.7688535
0.7843398
0.8004588
0.8172614
0.8348066
0.8538432
0.8738434
0.8950798
0.917746
0.9421139
0.9694791
0.6859217
0.6982675
0.7110717
0.7243617
0.738168
0.7524863
0.767326
0.7827498
0.7988011
0.8155299
0.8336335
0.8526049
0.8727107
0.8941791
0.9173839
0.9435751
0.971168
0.6722819
0.6841672
0.6964834
0.709255
0.7225092
0.7362406
0.7504549
0.7652083
0.780538
0.7964861
0.8136663
0.8314856
0.8501006
0.869548
0.8898167
0.6591931
0.6706466
0.6825064
0.6947947
0.7075361
0.720724
0.7343617
0.7484999
0.763171
0.7784115
0.7947784
0.8116614
0.8291943
0.8474129
0.8663502
0.6468756
0.6579313
0.6693717
0.6812173
0.6934903
0.7061832
0.7192974
0.7328796
0.7469584
0.7615655
0.777221
0.7933269
0.8100074
0.8272989
0.8452423
0.635361
0.6460519
0.6571086
0.66855
0.6803964
0.6926395
0.7052794
0.7183594
0.7319051
0.7459447
0.7609702
0.7764033
0.7923599
0.808873
0.8259799
0.6246163
0.6349727
0.6456783
0.6567504
0.6682078
0.6800416
0.6922509
0.704876
0.7179403
0.7314692
0.7459317
0.7607693
0.7760905
0.7919244
0.8083033
0.8772549
0.897346
0.9180263
0.936607
0.8588411
0.878123
0.8983322
0.9191775
0.9380963
0.8419198
0.860423
0.879852
0.9002395
0.9213493
0.9408057
0.8263053
0.8441051
0.8627771
0.8824
0.9030258
0.9244331
0.9446338
0.811735
0.8288977
0.8468778
0.8657528
0.8856108
0.9064679
0.9282031
0.9493933
0.7977371
0.8143055
0.83164
0.8498114
0.8689032
0.8889561
0.9100202
0.9321403
0.9543661
0.783603
0.7995855
0.8162839
0.8337606
0.8520894
0.8713046
0.8914661
0.9127115
0.9351138
0.9580648
0.7693479
0.7847556
0.8008319
0.8176314
0.8352184
0.8536184
0.8728811
0.8931371
0.9145006
0.9370838
0.9615384
0.7551534
0.7700052
0.7854821
0.8016325
0.8185121
0.8361389
0.8545518
0.8738653
0.8941802
0.915617
0.9392148
0.9640071
0.7411449
0.7554634
0.7703678
0.7859008
0.8021115
0.8190113
0.8366306
0.855069
0.8744114
0.89476
0.9170515
0.9406881
0.9658904
0.7273749
0.7411832
0.7555418
0.770489
0.7860679
0.8022849
0.8191634
0.8367912
0.8552392
0.8745928
0.8957048
0.9179783
0.941777
0.9673735
0.7138416
0.7271611
0.7409987
0.7553886
0.7703691
0.7859427
0.802127
0.8190002
0.8366225
0.8550646
0.8751166
0.896197
0.9186014
0.9425713
0.9686189
0.7004982
0.7133471
0.7266847
0.7405416
0.7549522
0.7699154
0.7854445
0.8016097
0.8184623
0.8360623
0.855151
0.8751761
0.8963953
0.9189825
0.9431924
0.970203
0.687255
0.6996474
0.7125011
0.7258437
0.7397061
0.7540844
0.7689884
0.7844815
0.8006082
0.8174191
0.8356172
0.8546876
0.8748722
0.8963281
0.9192563
0.9442711
0.9715175
0.6740096
0.6859548
0.6983353
0.711176
0.7245048
0.7383156
0.7526152
0.7674612
0.7828919
0.7989507
0.8162965
0.8344359
0.8536107
0.8740194
0.8959859
0.9205758
0.9456339
0.9730075
0.6608051
0.6723129
0.6842307
0.696581
0.7093886
0.7226469
0.7363597
0.7505786
0.765337
0.7806721
0.7971659
0.8142447
0.8320513
0.8506124
0.8699106
0.6481258
0.6592226
0.6707067
0.6825986
0.6949209
0.707666
0.7208357
0.734477
0.7486192
0.7632946
0.7790336
0.7952464
0.8120566
0.8294929
0.8475813
0.6361863
0.6469038
0.6579887
0.6694599
0.6813378
0.6936143
0.7062895
0.7194069
0.7329925
0.7470748
0.7621504
0.7776411
0.793663
0.8102467
0.8274265
0.6250189
0.6353881
0.6461071
0.6571934
0.6686658
0.6805154
0.6927414
0.7053843
0.7184673
0.7320162
0.7465016
0.7613644
0.7767134
0.792577
0.808987
0.614593
0.6246424
0.6350261
0.6457601
0.6568621
0.6683225
0.6801397
0.6923517
0.7049797
0.718047
0.7320031
0.7463079
0.7610636
0.7762954
0.7920315
0.8580733
0.8773105
0.8974627
0.9182125
0.9368736
0.8404676
0.8588936
0.8782325
0.8985052
0.9194238
0.9383624
0.8242713
0.8419698
0.8605268
0.8800151
0.9004695
0.9215963
0.9410301
0.8093057
0.8263534
0.8442046
0.8629327
0.8826181
0.9032577
0.9246423
0.9448644
0.795323
0.8117818
0.8289943
0.8470284
0.865963
0.8858327
0.9066667
0.9284202
0.949638
0.7818749
0.7977831
0.8144003
0.8317875
0.8500166
0.869119
0.8891493
0.91023
0.9323725
0.9546361
0.768283
0.783647
0.7996763
0.8164248
0.833956
0.852294
0.8714869
0.8916622
0.912925
0.935351
0.9594156
0.7545614
0.7693898
0.7848418
0.8009655
0.8178162
0.8354113
0.8537891
0.8730633
0.893333
0.9147137
0.9382315
0.9628677
0.7408849
0.7551934
0.7700873
0.7856091
0.8018078
0.8186945
0.8362995
0.8547221
0.8740469
0.8943753
0.9166455
0.9402606
0.9654229
0.7273749
0.7411832
0.7555418
0.770489
0.7860679
0.8022849
0.8191634
0.8367912
0.8552392
0.8745928
0.8957048
0.9179783
0.941777
0.9673735
0.7140835
0.7274116
0.7412585
0.755658
0.7706489
0.7862335
0.8024299
0.819316
0.8369523
0.85541
0.8754757
0.8965609
0.918961
0.9429213
0.9689552
0.70101
0.7138771
0.7272337
0.7411106
0.7555423
0.7705281
0.7860816
0.802273
0.819154
0.8367849
0.8559003
0.8759325
0.8971338
0.9196761
0.9438184
0.97069
0.6881105
0.7005325
0.7134174
0.7267928
0.74069
0.7551055
0.7700493
0.785585
0.8017575
0.8186182
0.8368624
0.8559515
0.8761128
0.8974817
0.9202342
0.9449064
0.9719236
0.6752989
0.6872882
0.6997154
0.7126057
0.7259872
0.7398542
0.7542138
0.7691242
0.7846243
0.8007586
0.81819
0.8364178
0.8556592
0.8760441
0.897731
0.9212074
0.9459642
0.9731815
0.6624769
0.6740416
0.6860202
0.6984359
0.7113139
0.7246469
0.7384395
0.752745
0.7675974
0.7830349
0.7996823
0.8170603
0.8353907
0.8548481
0.8757177
0.8989553
0.9224379
0.9472689
0.9744071
0.6496865
0.6608351
0.6723742
0.6843248
0.6967098
0.7095213
0.7227615
0.7364786
0.7507022
0.7654655
0.7813224
0.797718
0.8147834
0.8325372
0.8509552
0.6373974
0.6481542
0.6592806
0.6707958
0.6827205
0.6950463
0.7077737
0.7209468
0.7345917
0.7487378
0.7638911
0.7794814
0.7956238
0.812341
0.8296527
0.6258189
0.6362135
0.6469594
0.6580739
0.6695763
0.6814576
0.6937168
0.706395
0.7195156
0.7331045
0.7476366
0.7625532
0.7779628
0.7938916
0.8103682
0.6149835
0.6250451
0.6354416
0.6461891
0.6573054
0.6687809
0.6806139
0.6928425
0.7054882
0.7185743
0.7325519
0.7468803
0.7616618
0.7769212
0.7926859
0.6048629
0.6146183
0.6246941
0.6351052
0.6458682
0.656973
0.6684174
0.6802371
0.6924517
0.7050825
0.7185613
0.732365
0.7465906
0.7612602
0.7763981
0.839738
0.8581255
0.8774194
0.8976348
0.9184573
0.9371373
0.8228872
0.8405172
0.8589965
0.8783939
0.8987326
0.9196674
0.9385824
0.8073623
0.8243187
0.8420679
0.86068
0.8802296
0.9006972
0.9218006
0.9412528
0.7929973
0.8093514
0.8264477
0.8443515
0.8631375
0.882834
0.9034498
0.9248503
0.9450939
0.7795598
0.7953675
0.8118736
0.829137
0.8472266
0.8661711
0.8860174
0.9068652
0.9286369
0.9498825
0.7666233
0.7819187
0.7978735
0.8145405
0.831982
0.8502201
0.8692999
0.8893437
0.9104412
0.9326062
0.9559528
0.7535373
0.7683251
0.7837337
0.7998105
0.8166105
0.8341498
0.8524657
0.8716703
0.8918596
0.9131398
0.9365066
0.9608092
0.7403148
0.7546015
0.7694723
0.7849694
0.8011416
0.8179995
0.8355728
0.8539606
0.8732463
0.8935298
0.9157515
0.939317
0.9643765
0.7271242
0.7409232
0.7552721
0.7702088
0.7857766
0.8019816
0.8188471
0.8364607
0.8548931
0.8742292
0.8953248
0.9175892
0.9413818
0.9669646
0.7140835
0.7274116
0.7412585
0.755658
0.7706489
0.7862335
0.8024299
0.819316
0.8369523
0.85541
0.8754757
0.8965609
0.918961
0.9429213
0.9689552
0.7012436
0.7141188
0.727484
0.74137
0.7558114
0.7708075
0.786372
0.8025753
0.8194691
0.8371139
0.8562412
0.8762763
0.8974701
0.9199948
0.9441133
0.970931
0.688605
0.7010442
0.7139469
0.7273412
0.7412582
0.7556948
0.7706612
0.7862211
0.8024195
0.8193083
0.8375761
0.8566692
0.8768099
0.8981296
0.9208039
0.9453478
0.9722377
0.6761261
0.6881435
0.7006001
0.7135214
0.7269356
0.7408373
0.755234
0.7701839
0.7857263
0.8019061
0.8193788
0.837621
0.8568355
0.8771319
0.8986434
0.9217857
0.946356
0.9734145
0.6637244
0.675331
0.6873538
0.6998163
0.712744
0.7261297
0.7399785
0.7543441
0.7692609
0.7847681
0.8014938
0.8189518
0.8373397
0.8567666
0.8773619
0.8995447
0.9227421
0.9474655
0.9745094
0.6513052
0.6625078
0.6741047
0.6861173
0.6985687
0.7114507
0.7247661
0.7385642
0.7528757
0.7677344
0.7837346
0.8004114
0.8179697
0.8365659
0.8564545
0.8785107
0.9006851
0.9239228
0.9486024
0.9754822
0.6389095
0.6497155
0.6608943
0.6724651
0.6844492
0.6968377
0.7096317
0.7228759
0.7365973
0.7508255
0.7660889
0.7818507
0.7982324
0.8152462
0.8328627
0.6269929
0.637425
0.6482103
0.6593667
0.6709135
0.6828415
0.6951501
0.7078807
0.7210572
0.7347058
0.7493106
0.7643204
0.7798426
0.7958954
0.8124933
0.6157593
0.6258452
0.6362673
0.6470418
0.6581866
0.669692
0.6815566
0.6938187
0.7064998
0.7196235
0.7336449
0.7480236
0.7628617
0.7781816
0.7940076
0.6052417
0.6150089
0.6250969
0.6355209
0.6462975
0.6574166
0.668876
0.6807115
0.6929429
0.7055914
0.7190903
0.7329162
0.747166
0.7618612
0.7770256
0.5954137
0.6048874
0.6146684
0.6247708
0.6352099
0.6459756
0.6570648
0.6685115
0.6803337
0.692551
0.7055784
0.7189097
0.732637
0.7467795
0.7613586
0.8221916
0.8397874
0.858228
0.8775801
0.897861
0.9186994
0.9373554
0.8060396
0.8229342
0.8406144
0.8591483
0.8786063
0.8989577
0.919869
0.9388008
0.7911365
0.8074074
0.8244117
0.8422127
0.8608817
0.8804419
0.9008855
0.9220034
0.941474
0.7773294
0.7930408
0.8094411
0.8265871
0.844545
0.8633403
0.8830129
0.9036408
0.925057
0.945322
0.7643999
0.7796023
0.795455
0.8120093
0.8293249
0.8474231
0.8663443
0.8862018
0.9070634
0.9288533
0.9510649
0.7519412
0.7666653
0.782005
0.7980071
0.8147254
0.8321747
0.8503907
0.869482
0.8895394
0.9106537
0.933745
0.9573307
0.7393287
0.7535776
0.7684081
0.783862
0.7999876
0.8167947
0.8343123
0.8526385
0.8718549
0.8920583
0.9141875
0.9376462
0.962461
0.7265748
0.7403533
0.7546806
0.7695944
0.7851377
0.8013163
0.818153
0.8357352
0.854133
0.8734303
0.8944888
0.916732
0.9405114
0.9660565
0.7138416
0.7271611
0.7409987
0.7553886
0.7703691
0.7859427
0.802127
0.8190002
0.8366225
0.8550646
0.8751166
0.896197
0.9186014
0.9425713
0.9686189
0.7012436
0.7141188
0.727484
0.74137
0.7558114
0.7708075
0.786372
0.8025753
0.8194691
0.8371139
0.8562412
0.8762763
0.8974701
0.9199948
0.9441133
0.970931
0.6888307
0.7012776
0.7141885
0.7275913
0.7415173
0.7559635
0.7709401
0.786511
0.8027212
0.8196226
0.8379008
0.8569956
0.8771276
0.8984277
0.921073
0.9455707
0.9724038
0.6766044
0.6886379
0.7011115
0.7140504
0.7274832
0.7414048
0.7558224
0.7707947
0.7863611
0.8025666
0.8200603
0.8383044
0.8574969
0.8777436
0.8991759
0.9221892
0.946666
0.9736122
0.6645248
0.676158
0.6882087
0.7007004
0.7136589
0.7270773
0.7409607
0.7553631
0.7703191
0.7858683
0.8026313
0.8201003
0.8384593
0.857798
0.8782225
0.9000849
0.9231035
0.9477263
0.9746536
0.652513
0.6637554
0.6753943
0.6874511
0.6999495
0.7128812
0.7262493
0.7401037
0.7544753
0.7693986
0.785471
0.8022208
0.8198296
0.838391
0.8580126
0.8790667
0.9009708
0.9241083
0.9487452
0.9755525
0.6404776
0.6513351
0.6625688
0.6741984
0.6862455
0.6987007
0.7115656
0.7248861
0.7386898
0.7530072
0.7684048
0.7844322
0.80128
0.8190896
0.838092
0.8590978
0.8801362
0.9020645
0.9251381
0.9496828
0.9762989
0.6284585
0.6389376
0.6497728
0.6609821
0.6725852
0.6845727
0.6969442
0.709742
0.7229902
0.7367159
0.751424
0.7665952
0.7823429
0.7986744
0.8155564
0.6168979
0.6270195
0.6374793
0.6482936
0.6594805
0.6710304
0.6829417
0.6952534
0.7079871
0.721167
0.7352567
0.7497229
0.7646667
0.7801026
0.7960408
0.6059945