/*--------------------------------*- C++ -*----------------------------------*\
| =========                 |                                                 |
| \\      /  F ield         | OpenFOAM: The Open Source CFD Toolbox           |
|  \\    /   O peration     | Version:  2306                                  |
|   \\  /    A nd           | Website:  www.openfoam.com                      |
|    \\/     M anipulation  |                                                 |
\*---------------------------------------------------------------------------*/
FoamFile
{
    version     2.0;
    format      ascii;
    arch        "LSB;label=32;scalar=64";
    class       volVectorField;
    location    "1.5/phiEA";
    object      i;
}
// * * * * * * * * * * * * * * * * * * * * * * * * * * * * * * * * * * * * * //

dimensions      [0 -2 0 0 0 1 0];

internalField   nonuniform List<vector> 
20000
(
(-581.083 2340.63 1930.325)
(-610.7532 7519.462 1966.612)
(-1158.35 2043.927 1762.885)
(-580.4132 2339.178 5709.438)
(-675.3926 14203.07 2039.98)
(-1209.325 6576.366 1791.331)
(-610.0521 7515.076 5817.122)
(-1071.222 1830.876 1621.477)
(-1157.115 2042.79 5218.186)
(-579.118 2336.322 9349.43)
(-785.5186 23100.66 2138.017)
(-1320.681 12455.42 1848.402)
(-674.6263 14196.22 6034.852)
(-1107.942 5896.154 1645.718)
(-1208.042 6572.945 5302.816)
(-608.696 7506.446 9526.549)
(-911.2832 1676.726 1508.589)
(-1070.205 1829.907 4802.866)
(-1154.724 2040.542 8552.839)
(-577.2269 2332.093 12896.41)
(-953.1657 32934.96 2191.769)
(-1511.195 20322.93 1922.033)
(-784.6547 23094.59 6325.422)
(-1188.572 11184.38 1694.25)
(-1319.298 12450.19 5472.644)
(-673.1438 14182.74 9884.719)
(-938.6443 5402.868 1530.098)
(-1106.897 5893.243 4875.082)
(-1205.557 6566.188 8692.459)
(-606.7157 7493.664 13141.75)
(-774.7815 1557.265 1415.148)
(-910.4579 1675.865 4471.036)
(-1068.233 1827.988 7878.587)
(-1151.231 2037.205 11806.02)
(-574.7564 2326.509 15165.01)
(-1173.534 37419.74 2058.024)
(-1802.651 29054.8 1949.635)
(-952.1971 32938.16 6482.09)
(-1327.6 18280.96 1755.966)
(-1509.667 20318.88 5691.597)
(-782.9833 23082.77 10362.11)
(-998.8941 10258.84 1573.127)
(-1187.471 11179.97 5019.7)
(-1316.62 12439.87 8972.742)
(-670.9784 14162.79 13638.01)
(-796.5224 5020.045 1434.667)
(-937.8001 5400.287 4535.168)
(-1104.872 5887.481 7997.918)
(-1201.927 6556.149 11999.87)
(-604.1285 7476.782 15454.51)
(-668.6106 1459.316 1335.055)
(-774.0873 1556.485 4196.177)
(-908.8565 1674.161 7339.381)
(-1065.351 1825.133 10882.44)
(-1146.668 2032.789 13889.29)
(-784.6272 3182.418 19941.35)
(-1389.832 33707.97 1985.631)
(-2187.425 33053.08 1804.741)
(-1172.521 37427.99 6075.177)
(-1542.188 26172.66 1774.053)
(-1800.98 29059.49 5772.113)
(-950.3258 32944.97 10614.46)
(-1103.208 16786.77 1627.402)
(-1326.421 18277.77 5203.529)
(-1506.707 20310.95 9333.902)
(-780.5419 23065.4 14299.1)
(-844.4855 9538.739 1473.71)
(-998.012 10254.95 4663.507)
(-1185.335 11171.24 8236.996)
(-1312.707 12424.53 12389.19)
(-668.1485 14136.45 16040.37)
(-686.7294 4705.828 1353.016)
(-795.8141 5017.702 4254.416)
(-936.1616 5395.17 7445.468)
(-1101.909 5878.907 11048.33)
(-1197.184 6542.861 14118.38)
(-824.7377 10229.01 20347.39)
(-586.3635 1376.077 1264.896)
(-668.0096 1458.598 3960.428)
(-772.739 1554.936 6892.386)
(-906.5131 1671.622 10143.42)
(-1061.583 1821.352 12808.52)
(-1565.904 2781.314 18264.73)
(-781.5309 3174.399 18505.54)
(-1566.545 25594.44 1967.161)
(-2565.659 29777.86 1718.356)
(-1388.763 33711.61 5853.84)
(-1827.581 29789.66 1634.596)
(-2185.731 33062.33 5334.604)
(-1170.572 37444.87 9924.59)
(-1264.912 24054.99 1640.563)
(-1540.951 26177.51 5256.31)
(-1797.748 29069.08 9463.778)
(-947.5944 32955.66 14643.61)
(-927.7466 15620.78 1522.696)
(-1102.275 16784.07 4825.345)
(-1324.135 18271.5 8540.831)
(-1502.381 20299.24 12890.89)
(-777.3505 23042.55 16821.02)
(-726.758 8946.601 1388.944)
(-843.7488 9535.218 4370.941)
(-996.2991 10247.24 7657.868)
(-1182.211 11158.25 11380.86)
(-1307.592 12404.23 14578.76)
(-912.181 19348.3 21169.72)
(-601.9461 4438.571 1281.584)
(-686.1171 4703.672 4014.045)
(-794.4379 5013.054 6988.801)
(-933.7636 5387.547 10291.01)
(-1098.036 5867.544 13004.73)
(-1634.919 8953.468 18589.19)
(-821.4863 10204.74 18933.6)
(-521.8212 1303.49 1202.386)
(-585.8328 1375.41 3753.794)
(-666.8411 1457.172 6508.699)
(-770.7646 1552.628 9530.42)
(-903.4484 1668.257 11943.52)
(-1450.379 2492.276 16844.15)
(-1560.184 2774.846 16944.55)
(-778.3832 3165.296 18752.89)
(-1688.615 15741.08 1967.548)
(-2874.986 22606.6 1686.502)
(-1565.423 25595.16 5795.751)
(-2108.607 26832.36 1549.631)
(-2563.915 29782.59 5073.73)
(-1386.712 33719.15 9547.56)
(-1480.627 27388.88 1507.991)
(-1826.394 29798.64 4836.051)
(-2182.468 33081.01 8728.456)
(-1167.737 37470.66 13663.89)
(-1057.167 22398.47 1532.833)
(-1263.947 24059.77 4863.761)
(-1538.554 26187.36 8626.054)
(-1793.026 29083.71 13068.54)
(-944.0255 32970.38 17224.8)
(-796.3824 14659.96 1433.855)
(-926.9724 15618.42 4517.123)
(-1100.463 16778.76 7925.703)
(-1320.788 18262.21 11803.61)
(-1496.725 20283.78 15172.43)
(-1061.414 31567.57 22259.86)
(-636.4107 8442.209 1314.971)
(-726.123 8943.368 4121.333)
(-842.3168 9528.231 7181.806)
(-993.7912 10235.74 10586.7)
(-1178.125 11141.03 13398.3)
(-1785.79 16981.54 19242.29)
(-908.6083 19310.63 19801.45)
(-535.5215 4205.355 1217.999)
(-601.406 4436.568 3803.631)
(-684.9263 4699.392 6597.52)
(-792.4223 5006.125 9664.648)
(-930.6269 5377.438 12118.2)
(-1500.217 8030.147 17123.37)
(-1628.956 8933.964 17292.37)
(-818.1728 10177.17 19235.14)
(-470.0501 1239.074 1146.033)
(-521.3457 1302.866 3569.583)
(-584.8001 1374.084 6172.151)
(-665.1287 1455.045 9003.941)
(-768.1811 1549.567 11225.81)
(-1234.536 2282.927 15707.62)
(-1445.657 2486.685 15621.51)
(-1554.368 2767.401 17166.26)
(-775.1844 3155.109 18999.49)
(-1750.521 5293.411 1970.299)
(-3088.861 13901.32 1677.399)
(-1687.455 15740.95 5795.35)
(-2338.569 20362.42 1516.08)
(-2873.181 22608.24 4977.227)
(-1563.271 25596.78 9445.581)
(-1692.893 24667.98 1426.559)
(-2107.44 26837.1 4580.167)
(-2560.564 29792.16 8290.239)
(-1383.734 33730.77 13127.36)
(-1230.138 25509.85 1406.804)
(-1479.716 27397.44 4464.621)
(-1824.101 29816.7 7921.371)
(-2177.718 33109.27 12031.04)
(-1164.041 37505.52 16047.05)
(-904.8238 21031.08 1441.933)
(-1056.372 22403.11 4546.717)
(-1262.074 24069.42 7987.787)
(-1535.047 26202.29 11920.39)
(-1786.855 29103.48 15381.14)
(-1289.444 45238.79 22776.28)
(-696.452 13840.12 1356.589)
(-795.718 14657.84 4255.433)
(-925.467 15613.75 7423.961)
(-1097.808 16770.88 10959.75)
(-1316.41 18249.91 13899.11)
(-2044.38 27794.94 20082.16)
(-1057.37 31536.95 20940.95)
(-565.851 8001.542 1249.243)
(-635.8519 8439.209 3903.375)
(-724.8877 8936.946 6775.338)
(-840.2187 9517.812 9933.51)
(-990.5097 10220.49 12468.38)
(-1609.741 15253.68 17684.54)
(-1779.328 16951.79 17994.24)
(-904.9521 19268 20213.97)
(-482.2856 3998.273 1160.717)
(-535.038 4203.481 3616.225)
(-600.3548 4432.588 6254.752)
(-683.1809 4693.007 9127.661)
(-789.7845 4996.931 11384.75)
(-1271.703 7359.844 15957)
(-1495.349 8013.302 15923.22)
(-1622.877 8911.48 17562.91)
(-814.7974 10146.29 19535.91)
(-427.6546 1181.135 1094.735)
(-469.6195 1238.487 3403.423)
(-520.4197 1301.624 5871.916)
(-583.2857 1372.106 8541.884)
(-662.8869 1452.223 10609.19)
(-1049.729 2120.6 14764.93)
(-1230.698 2277.919 14564.04)
(-1440.857 2480.208 15821.07)
(-1548.457 2758.98 17387.33)
(-771.9346 3143.839 28048.87)
(-1750.521 -5293.411 1970.299)
(-3197.399 4674.354 1675.403)
(-1749.342 5293.301 5802.885)
(-2497.649 12516.95 1504.89)
(-3087.01 13901.76 4949.429)
(-1685.232 15740.79 9441.897)
(-1866.296 18716.19 1393.567)
(-2337.397 20364.21 4479.057)
(-2869.719 22611.57 8127.588)
(-1560.151 25599.39 12979.27)
(-1400.253 22975.67 1329.098)
(-1692.011 24672.56 4219.656)
(-2105.191 26846.64 7492.898)
(-2555.696 29806.63 11413.73)
(-1379.857 33746.53 15402.48)
(-1049.959 23958.02 1321.899)
(-1229.394 25518 4167.482)
(-1477.952 27414.64 7319.254)
(-1820.757 29843.96 10927.91)
(-2171.524 33147.2 14139.11)
(-1591.001 51488.3 20934.44)
(-790.1156 19862.7 1363.184)
(-904.1452 21035.55 4279.022)
(-1054.828 22412.46 7471.829)
(-1259.33 24084.03 11044.98)
(-1530.46 26222.38 14036.65)
(-2441.518 39942.92 20347.32)
(-1284.948 45269.53 21391.63)
(-618.7557 13122.91 1288.103)
(-695.869 13838.2 4027.703)
(-794.4248 14653.65 6997.643)
(-923.2602 15606.82 10271.06)
(-1094.333 16760.43 12910.66)
(-1798.96 25010.29 18397.43)
(-2037.202 27773.55 18892.05)
(-1053.218 31503.97 21491.23)
(-509.3933 7609.867 1190.112)
(-565.3516 7998.738 3709.599)
(-634.7638 8433.246 6420.153)
(-723.0764 8927.363 9375.496)
(-837.472 9503.974 11703.31)
(-1353.615 13994.12 16457.95)
(-1604.577 15228.17 16531.39)
(-1772.71 16917.55 18365.06)
(-901.2126 19220.38 20626.03)
(-438.7124 3811.923 1108.604)
(-481.848 3996.51 3447.306)
(-534.0962 4199.755 5949.256)
(-598.813 4426.648 8656.99)
(-680.8957 4684.529 10755.73)
(-1079.276 6839.349 14992.36)
(-1267.764 7344.759 14834.89)
(-1490.388 7993.751 16167.1)
(-1616.684 8886.012 17832.81)
(-811.3603 10112.11 28920.18)
(-392.2367 1128.496 1047.692)
(-427.2612 1180.58 3252.095)
(-468.7801 1237.319 5600.921)
(-519.0608 1299.772 8129.454)
(-581.3021 1369.479 10067.82)
(-905.824 1987.451 13955.16)
(-1046.496 2116.023 13687.74)
(-1226.801 2272.093 14746.86)
(-1435.979 2472.844 16020.08)
(-1542.451 2749.582 25661.18)
(-368.6397 1507.068 19515.83)
(-1688.615 -15741.08 1967.548)
(-3197.399 -4674.354 1675.403)
(-1749.342 -5293.301 5802.885)
(-2578.413 4208.032 1501.662)
(-3195.524 4674.434 4943.232)
(-1747.083 5293.109 9453.074)
(-1986.058 11502.87 1382.006)
(-2496.467 12517.52 4445.293)
(-3083.461 13902.68 8080.317)
(-1682.009 15740.65 12971.01)
(-1539.056 17430.77 1297.231)
(-1865.421 18717.97 4120.421)
(-2335.141 20367.82 7323.519)
(-2864.693 22616.64 11184.16)
(-1556.091 25603.03 15222.62)
(-1192.669 21578.81 1247.746)
(-1399.537 22980.05 3933.875)
(-1690.308 24681.75 6909.623)
(-2101.918 26861.02 10325.78)
(-2549.358 29826.03 13401.99)
(-1886.718 46304.56 19912.74)
(-915.614 22631.39 1248.628)
(-1049.327 23965.79 3917.957)
(-1227.951 25534.36 6837.051)
(-1475.378 27440.57 10104.24)
(-1816.394 29880.49 12849.98)
(-2969.047 45515.57 18456.52)
(-1586.487 51550.68 19103.58)
(-701.3911 18839.46 1293.575)
(-789.5222 19867.02 4046.963)
(-902.8247 21044.58 7035.832)
(-1052.565 22426.59 10336.89)
(-1255.74 24103.64 13011.3)
(-2092.207 35992.12 18570.82)
(-2433.722 39978.36 19119.43)
(-1280.355 45312.28 21924.28)
(-556.7284 12484.72 1226.607)
(-618.2358 13121.14 3825.736)
(-694.7332 13834.38 6626.384)
(-792.5277 14647.42 9685.571)
(-920.3702 15597.62 12103.73)
(-1495.716 22970.28 17090.01)
(-1793.394 24993 17301.34)
(-2029.822 27749.93 19388.32)
(-1048.958 31468.53 22042.9)
(-463.2272 7257.114 1136.376)
(-508.9419 7607.232 3535.18)
(-564.3782 7993.162 6104.16)
(-633.1672 8424.344 8887.616)
(-720.7041 8914.629 11049.5)
(-1144.516 13013.56 15449.2)
(-1349.472 13971.35 15380.72)
(-1599.287 15198.56 16866.34)
(-1765.937 16878.78 18735.51)
(-897.39 19167.72 30693.64)
(-402.3223 3642.546 1060.836)
(-438.3129 3810.257 3293.554)
(-480.9949 3993.002 5673.713)
(-532.7139 4194.191 8237.267)
(-596.7932 4418.759 10204.2)
(-930.4577 6411.969 14165.27)
(-1075.966 6825.563 13935.7)
(-1263.753 7327.177 15058.63)
(-1485.332 7971.491 16410.42)
(-1610.375 8857.553 26391.22)
(-387.3135 4859.144 20253.85)
(-362.1469 1080.279 1004.278)
(-391.8749 1127.97 3113.249)
(-426.4939 1179.477 5353.959)
(-467.5476 1235.575 7756.992)
(-517.2801 1297.312 9584.408)
(-794.313 1874.263 13244.27)
(-903.0195 1983.216 12935.54)
(-1043.215 2110.681 13857.46)
(-1222.844 2265.449 14929.19)
(-1431.024 2464.595 23635.5)
(-739.1957 1320.33 17843.06)
(-333.2336 1329.771 21062.67)
(-1566.545 -25594.44 1967.161)
(-3088.861 -13901.32 1677.399)
(-1687.455 -15740.95 5795.35)
(-2578.413 -4208.032 1501.662)
(-3195.524 -4674.434 4943.232)
(-1747.083 -5293.109 9453.074)
(-2046.795 3866.708 1378.441)
(-2577.225 4208.161 4435.539)
(-3191.929 4674.602 8069.588)
(-1743.808 5292.854 12985.23)
(-1634.809 10711.96 1285.819)
(-1985.182 11503.48 4085.652)
(-2494.193 12518.69 7266.88)
(-3078.31 13904.08 11117.02)
(-1677.816 15740.56 15210.58)
(-1309.035 16370.62 1217.132)
(-1538.35 17432.5 3838.111)
(-1863.733 18721.55 6743.755)
(-2331.862 20373.25 10087.8)
(-2858.153 22623.44 13127.73)
(-2128.143 35118.26 19604.45)
(-1039.015 20384.91 1177.786)
(-1192.064 21583 3695.119)
(-1398.155 22988.84 6446.706)
(-1687.826 24695.58 9529.197)
(-2097.653 26880.25 12132.11)
(-3487.015 40933.14 17335.86)
(-1882.068 46334.16 17810.33)
(-812.2136 21469.02 1184.04)
(-915.0626 22638.81 3702.468)
(-1048.099 23981.38 6431.735)
(-1225.844 25559 9444.128)
(-1472.017 27475.28 11887.18)
(-2484.685 41033.34 16777.9)
(-2961.464 45579.48 16856.15)
(-1582.011 51631.55 19052.01)
(-630.7418 17928.12 1231.204)
(-700.8632 18843.62 3841.72)
(-788.3664 19875.71 6657.592)
(-900.8882 21058.19 9738.193)
(-1049.601 22445.54 12181.68)
(-1716.906 33085.67 17215.95)
(-2086.391 36026.91 17446.92)
(-2425.74 40024.35 19604.04)
(-1275.667 45367.1 22462.26)
(-506.0729 11909.42 1170.804)
(-556.2592 12483.08 3644.286)
(-617.222 13117.62 6296.9)
(-693.066 13828.7 9175.415)
(-790.0422 14639.14 11417.49)
(-1257.994 21377.39 16023.1)
(-1491.302 22955.41 16067.8)
(-1787.663 24973.67 17750.41)
(-2022.239 27723.99 19885.87)
(-1044.59 31430.52 32993.14)
(-424.6945 6936.263 1087.163)
(-462.8154 7254.626 3376.595)
(-508.0613 7601.988 5819.547)
(-562.9492 7984.833 8453.335)
(-631.0751 8412.509 10477.65)
(-984.924 12206.94 14587.36)
(-1141.051 12992.79 14435.42)
(-1345.232 13944.8 15688.55)
(-1593.871 15164.83 17200.99)
(-1759.01 16835.43 27873.98)
(-428.1909 9280.652 21773.94)
(-371.414 3487.345 1016.771)
(-401.955 3640.967 3152.55)
(-437.5334 3806.943 5422.752)
(-479.742 3987.765 7858.497)
(-530.9022 4186.799 9712.187)
(-815.5046 6048.349 13440.12)
(-927.5908 6399.21 13165.3)
(-1072.598 6809.442 14143.63)
(-1259.67 7307.092 15281.85)
(-1480.184 7946.515 24277.75)
(-771.4688 4263.631 18471.2)
(-349.4015 4313.92 22078.36)
(-336.2032 1035.825 964.006)
(-361.8122 1079.78 2985.054)
(-391.1685 1126.924 5127.231)
(-425.3665 1177.829 7417.386)
(-465.9319 1233.258 9147.682)
(-706.8072 1775.535 12609.5)
(-791.8317 1870.309 12275.5)
(-900.1751 1978.261 13094.49)
(-1039.886 2104.576 14026.71)
(-1218.827 2257.987 22020.8)
(-689.094 1184.337 16422.45)
(-673.6962 1168.092 19240.74)
(-295.7623 1100.794 22009.74)
(-1389.832 -33707.97 1985.631)
(-2874.986 -22606.6 1686.502)
(-1565.423 -25595.16 5795.751)
(-2497.649 -12516.95 1504.89)
(-3087.01 -13901.76 4949.429)
(-1685.232 -15740.79 9441.897)
(-2046.795 -3866.708 1378.441)
(-2577.225 -4208.161 4435.539)
(-3191.929 -4674.602 8069.588)
(-1743.808 -5292.854 12985.23)
(-1683.332 3600.664 1282.206)
(-2045.917 3866.85 4074.937)
(-2574.94 4208.422 7250.493)
(-3186.714 4674.863 11101.59)
(-1739.548 5292.541 15226.46)
(-1389.259 10060.11 1206.047)
(-1634.106 10712.56 3803.838)
(-1983.492 11504.69 6685.656)
(-2490.888 12520.45 10008.16)
(-3071.609 13905.98 13047.24)
(-2294.887 21586.97 19562.48)
(-1139.606 15464.87 1148.423)
(-1308.44 16372.29 3603.171)
(-1536.987 17435.97 6286.815)
(-1861.274 18726.93 9296.554)
(-2327.591 20380.52 11848.64)
(-3910.213 31036.56 16914.17)
(-2123.306 35126.74 17381.98)
(-921.1948 19338.89 1116.261)
(-1038.489 20388.92 3489.635)
(-1190.892 21591.4 6059.561)
(-1396.137 23002.06 8896.485)
(-1684.591 24714.06 11202.1)
(-2870.562 36892.9 15697.79)
(-3479.403 40965.97 15515.79)
(-1877.539 46373.43 17415.2)
(-730.0764 20433.36 1126.291)
(-811.7243 21476.12 3512.389)
(-913.9917 22653.69 6081.403)
(-1046.304 24004.84 8888.886)
(-1223.09 25591.98 11115.29)
(-2013.86 37732.02 15523.78)
(-2479.323 41093.88 15323.8)
(-2953.927 45659.71 16823.77)
(-1577.574 51731.05 18998.5)
(-573.1256 17105.98 1174.7)
(-630.2663 17932.14 3657.715)
(-699.8341 18851.99 6322.824)
(-786.6702 19888.82 9218.506)
(-898.3512 21076.44 11479.99)
(-1435.117 30810.68 16119.96)
(-1712.354 33119.07 16171.31)
(-2080.415 36071.22 17886.12)
(-2417.569 40080.95 20093.43)
(-1270.88 45434.06 33588.43)
(-463.8255 11385.74 1119.76)
(-505.6455 11907.89 3479.552)
(-555.3437 12479.82 6000.696)
(-615.733 13112.39 8722.42)
(-690.8806 13821.15 10819.34)
(-1079.849 20064.27 15115.99)
(-1254.326 21364.19 15062.2)
(-1486.759 22938.65 16481.11)
(-1781.765 24952.21 18200.67)
(-2014.453 27695.62 29764.39)
(-498.7915 15501.37 23791.17)
(-391.9809 6642.082 1041.799)
(-424.3162 6933.906 3231.29)
(-462.0117 7249.674 5560.611)
(-506.7677 7594.152 8061.976)
(-561.0757 7973.756 9968.442)
(-862.4132 11519.64 13833.64)
(-981.932 12187.75 13628.44)
(-1137.507 12968.5 14721.93)
(-1340.894 13914.45 15996.13)
(-1588.33 15126.95 25581.83)
(-842.3255 8165.872 19764.34)
(-385.0874 8417.018 24234.3)
(-344.7698 3344.206 975.9073)
(-371.0743 3485.844 3022.413)
(-401.2377 3637.825 5192.462)
(-436.3879 3801.991 7513.34)
(-478.0992 3980.803 9268.012)
(-725.4434 5730.967 12793.23)
(-812.9712 6036.437 12490.21)
(-924.6757 6384.253 13360.24)
(-1069.173 6790.984 14351.1)
(-1255.516 7284.499 22602.53)
(-712.5747 3827.845 16978.92)
(-701.7782 3795.382 20118.54)
(-308.9209 3590.494 23269.34)
(-313.5578 994.6134 926.4821)
(-335.892 1035.348 2866.083)
(-361.1582 1078.785 4917.773)
(-390.1301 1125.361 7105.448)
(-423.8877 1175.639 8749.334)
(-636.6272 1687.902 12036.01)
(-704.5797 1771.821 11686.36)
(-789.3163 1865.675 12425.33)
(-897.291 1972.586 13253.03)
(-1036.51 2097.706 20686.2)
(-588.0165 1085.524 15292.35)
(-635.0985 1048.95 17690.53)
(-604.31 969.2085 20094.86)
(-256.6383 825.9309 22758.33)
(-1173.534 -37419.74 2058.024)
(-2565.659 -29777.86 1718.356)
(-1388.763 -33711.61 5853.84)
(-2338.569 -20362.42 1516.08)
(-2873.181 -22608.24 4977.227)
(-1563.271 -25596.78 9445.581)
(-1986.058 -11502.87 1382.006)
(-2496.467 -12517.52 4445.293)
(-3083.461 -13902.68 8080.317)
(-1682.009 -15740.65 12971.01)
(-1683.332 -3600.664 1282.206)
(-2045.917 -3866.85 4074.937)
(-2574.94 -4208.422 7250.493)
(-3186.714 -4674.863 11101.59)
(-1739.548 -5292.541 15226.46)
(-1429.893 3381.481 1202.493)
(-1682.628 3600.809 3793)
(-2044.225 3867.136 6667.763)
(-2571.618 4208.816 9985.095)
(-3179.929 4675.219 13028.6)
(-2379.451 7257.9 19575.03)
(-1208.93 9503.389 1137.723)
(-1388.666 10060.69 3569.902)
(-1632.746 10713.77 6229.641)
(-1981.033 11506.52 9215.103)
(-2486.586 12522.8 11753.75)
(-4202.719 19073.9 16786.9)
(-2289.902 21588.22 17291.41)
(-1010.019 14671.47 1088.096)
(-1139.09 15466.48 3401.474)
(-1307.289 16375.63 5906.14)
(-1534.999 17441.18 8672.418)
(-1858.071 18734.11 10925.29)
(-3185.9 27961.21 15270.56)
(-3902.417 31048.39 15003.17)
(-2118.628 35139.02 16847.43)
(-827.7736 18406.86 1061.35)
(-920.729 19342.72 3308.801)
(-1037.47 20396.95 5726.057)
(-1189.181 21604.02 8366.937)
(-1393.506 23019.71 10463.13)
(-2305.577 33920.99 14497.81)
(-2865.429 36924.63 14051.07)
(-3471.978 41007.26 15181.48)
(-1873.133 46422.34 17018.4)
(-663.1755 19498.7 1074.064)
(-729.6365 20440.15 3342.332)
(-810.7731 21490.34 5772.132)
(-912.4242 22676.07 8408.649)
(-1043.957 24036.23 10465.77)
(-1673.36 35146.62 14518.26)
(-2009.728 37789.1 14178.08)
(-2473.972 41169.17 15295.04)
(-2946.436 45756.38 16789.56)
(-1573.175 51849.31 27539.96)
(-525.1114 16357.1 1123.085)
(-572.6931 17109.85 3490.934)
(-629.3387 17940.2 6022.497)
(-698.3228 18864.61 8758.292)
(-784.4468 19906.38 10870.67)
(-1228.312 28932.01 15193.09)
(-1431.361 30842.64 15140.12)
(-1707.678 33161.26 16575.84)
(-2074.278 36125.12 18329.68)
(-2409.209 40148.21 30059.99)
(-609.7902 23132.74 24321.65)
(-427.9787 10905.26 1072.754)
(-463.4333 11384.3 3328.794)
(-504.8109 11904.85 5731.612)
(-553.998 12474.96 8314.969)
(-613.7802 13105.43 10288.01)
(-944.2945 18943.51 14325.4)
(-1076.696 20052.31 14207.89)
(-1250.555 21349.2 15447.3)
(-1482.089 22919.92 16895.54)
(-1775.701 24928.52 27233.46)
(-965.2813 13685.38 21463.26)
(-448.4088 14871.17 27332.99)
(-363.7904 6370.616 999.7578)
(-391.6313 6639.842 3097.284)
(-423.5772 6929.213 5323.217)
(-460.8301 7242.272 7705.742)
(-505.071 7583.729 9509.392)
(-766.733 10919.04 13162.51)
(-859.7751 11501.74 12923.1)
(-978.8748 12165.23 13897.35)
(-1133.886 12940.65 15008.2)
(-1336.46 13880.25 23783.83)
(-764.4126 7342.527 18124.79)
(-763.9589 7426.945 21984.23)
(-338.1882 7178.8 26064.61)
(-321.517 3211.473 937.8437)
(-344.454 3342.776 2901.681)
(-370.4105 3482.856 4979.798)
(-400.1831 3633.128 7196.455)
(-434.8852 3795.408 8863.105)
(-653.274 5449.092 12209.23)
(-723.1709 5719.776 11888.21)
(-810.3962 6022.445 12674.08)
(-921.7126 6367.095 13554.74)
(-1065.69 6770.183 21222.27)
(-605.5725 3510.445 15798.58)
(-655.7008 3411.293 18473.37)
(-627.2693 3166.235 21192.85)
(-266.342 2691.971 24217.93)
(-293.5829 956.233 891.3872)
(-313.2673 994.159 2755.184)
(-335.2837 1034.401 4723.279)
(-360.1964 1077.299 6817.133)
(-388.7675 1123.283 8383.307)
(-579.1666 1609.067 11512.88)
(-634.6058 1684.397 11154.23)
(-702.3222 1767.461 11828.24)
(-786.7667 1860.359 12574.76)
(-894.3673 1966.192 19542.88)
(-500.2822 1008.777 14360.19)
(-544.4299 962.0696 16460.64)
(-577.89 871.2017 18461.99)
(-531.7863 728.8939 20772.85)
(-216.3428 516.9541 15898.81)
(-953.1657 -32934.96 2191.769)
(-2187.425 -33053.08 1804.741)
(-1172.521 -37427.99 6075.177)
(-2108.607 -26832.36 1549.631)
(-2563.915 -29782.59 5073.73)
(-1386.712 -33719.15 9547.56)
(-1866.296 -18716.19 1393.567)
(-2337.397 -20364.21 4479.057)
(-2869.719 -22611.57 8127.588)
(-1560.151 -25599.39 12979.27)
(-1634.809 -10711.96 1285.819)
(-1985.182 -11503.48 4085.652)
(-2494.193 -12518.69 7266.88)
(-3078.31 -13904.08 11117.02)
(-1677.816 -15740.56 15210.58)
(-1429.893 -3381.481 1202.493)
(-1682.628 -3600.809 3793)
(-2044.225 -3867.136 6667.763)
(-2571.618 -4208.816 9985.095)
(-3179.929 -4675.219 13028.6)
(-2379.451 -7257.9 19575.03)
(-1244.035 3194.324 1134.271)
(-1429.301 3381.623 3559.25)
(-1681.269 3601.098 6211.584)
(-2041.762 3867.566 9190.032)
(-2567.294 4209.345 11726.25)
(-4351.149 6412.263 16755.85)
(-2374.389 7257.839 17286.67)
(-1071.222 9015.82 1077.795)
(-1208.417 9503.955 3369.378)
(-1387.521 10061.87 5850.689)
(-1630.766 10715.57 8592.367)
(-1977.829 11508.95 10828.43)
(-3403.904 17177.61 15126.95)
(-4194.751 19077.39 14842.51)
(-2285.092 21590.78 16707.22)
(-907.3967 13964.6 1034.318)
(-1009.562 14673.01 3224.257)
(-1138.091 15469.68 5579.014)
(-1305.609 16380.65 8152.048)
(-1532.409 17448.14 10196.68)
(-2543.542 25703.15 14083.94)
(-3180.804 27973.26 13546.2)
(-3894.87 31063.49 14548.04)
(-2114.109 35155.06 16312.23)
(-751.7534 17565.68 1011.756)
(-827.3556 18410.54 3147.298)
(-919.8254 19350.41 5432.305)
(-1035.98 20409.01 7910.435)
(-1186.948 21620.87 9844.378)
(-1907.254 31596.07 13544.18)
(-2301.681 33951.16 12977.36)
(-2860.408 36964 13749.64)
(-3464.74 41057 14845.55)
(-1868.848 46480.88 24083.07)
(-607.4615 18647.08 1026.422)
(-662.776 19505.22 3188.446)
(-728.7807 20453.77 5495.231)
(-809.3796 21511.74 7984.429)
(-910.3739 22706.01 9903.755)
(-1428.285 33010.65 13672.08)
(-1669.974 35200.6 13259.51)
(-2005.603 37859.78 14151.19)
(-2468.633 41259.34 15264.61)
(-2938.992 45869.63 24359.7)
(-763.7007 26645.02 18263.73)
(-484.3942 15669.62 1075.606)
(-524.715 16360.83 3338.509)
(-571.8488 17117.62 5750.11)
(-627.9755 17952.36 8345.204)
(-696.3409 18881.51 10330.89)
(-1072.558 27326.32 14388.27)
(-1225.098 28962.59 14268.55)
(-1427.506 30882.79 15517.24)
(-1702.878 33212.27 16984.39)
(-2067.979 36188.67 27416.55)
(-1159.704 20483.65 21789.46)
(-555.1388 24587.88 28683.52)
(-397.1016 10461.61 1029.228)
(-427.6165 10903.9 3189.899)
(-462.6669 11381.45 5485.214)
(-503.5835 11900.31 7944.637)
(-552.2325 12468.49 9809.932)
(-838.8965 17962.82 13623.15)
(-941.522 18932.53 13463.7)
(-1073.455 20038.67 14569.66)
(-1246.68 21332.37 15833.45)
(-1477.291 22899.12 25274.64)
(-855.139 12327.58 19624.39)
(-874.8739 13170.66 24659.03)
(-391.8334 13721.68 30638.94)
(-339.1959 6118.763 960.6186)
(-363.4657 6368.484 2973.042)
(-390.948 6635.382 5104.158)
(-422.4904 6922.196 7378.986)
(-459.2797 7232.422 9091.391)
(-690.1844 10385.11 12557.47)
(-764.3705 10902.24 12295.28)
(-857.0806 11480.7 13176.99)
(-975.7523 12139.37 14166.05)
(-1130.187 12909.2 22311.07)
(-644.4452 6740.229 16841.33)
(-701.587 6686.061 20138.68)
(-678.5007 6349.675 23635.59)
(-287.9264 5469.177 27614.17)
(-301.0094 3087.825 902.253)
(-321.2224 3210.107 2789.174)
(-343.8368 3339.927 4782.394)
(-369.434 3478.389 6903.684)
(-398.7991 3626.883 8491.231)
(-594.2136 5195.395 11676.82)
(-651.2132 5438.529 11344.88)
(-720.862 5706.61 12062.44)
(-807.78 6006.37 12857.55)
(-918.7015 6347.732 20042.2)
(-514.2592 3263.559 14828.14)
(-559.8786 3130.497 17175.7)
(-594.861 2848.587 19444.83)
(-548.798 2379.09 22051.48)
(-222.2626 1648.161 16972.52)
(-275.8026 920.3481 858.4548)
(-293.3108 955.7984 2651.421)
(-312.6992 993.2538 4541.885)
(-334.3884 1032.984 6549.292)
(-358.9336 1075.323 8044.88)
(-531.1712 1537.431 11032.16)
(-577.3163 1605.747 10668.94)
(-632.5576 1680.276 11289.07)
(-700.0347 1762.453 11969.74)
(-784.1831 1854.363 18541.05)
(-431.6271 945.7541 13562.88)
(-463.7813 894.4636 15449.01)
(-498.3555 799.4984 17168.67)
(-518.0511 655.8137 19075.66)
(-457.0029 457.7555 14511.3)
(-1581.123 2550.514 50459.64)
(-785.5186 -23100.66 2138.017)
(-1802.651 -29054.8 1949.635)
(-952.1971 -32938.16 6482.09)
(-1827.581 -29789.66 1634.596)
(-2185.731 -33062.33 5334.604)
(-1170.572 -37444.87 9924.59)
(-1692.893 -24667.98 1426.559)
(-2107.44 -26837.1 4580.167)
(-2560.564 -29792.16 8290.239)
(-1383.734 -33730.77 13127.36)
(-1539.056 -17430.77 1297.231)
(-1865.421 -18717.97 4120.421)
(-2335.141 -20367.82 7323.519)
(-2864.693 -22616.64 11184.16)
(-1556.091 -25603.03 15222.62)
(-1389.259 -10060.11 1206.047)
(-1634.106 -10712.56 3803.838)
(-1983.492 -11504.69 6685.656)
(-2490.888 -12520.45 10008.16)
(-3071.609 -13905.98 13047.24)
(-2294.887 -21586.97 19562.48)
(-1244.035 -3194.324 1134.271)
(-1429.301 -3381.623 3559.25)
(-1681.269 -3601.098 6211.584)
(-2041.762 -3867.566 9190.032)
(-2567.294 -4209.345 11726.25)
(-4351.149 -6412.263 16755.85)
(-2374.389 -7257.839 17286.67)
(-1102.211 3030.432 1074.458)
(-1243.523 3194.462 3359.034)
(-1428.157 3381.907 5832.96)
(-1679.289 3601.531 8567.111)
(-2038.553 3868.139 10798.63)
(-3514.557 5773.6 15085.16)
(-4343.086 6412.971 14800.74)
(-2369.507 7258.089 16687.06)
(-962.2557 8581.466 1024.406)
(-1070.769 9016.366 3193.361)
(-1207.424 9505.087 5525.544)
(-1385.85 10063.62 8074.462)
(-1628.184 10717.98 10101.57)
(-2707.782 15787.32 13939.43)
(-3398.785 17181.54 13375.42)
(-4187.055 19081.99 14345.36)
(-2280.455 21594.64 16122.88)
(-823.944 13326.65 985.7881)
(-906.9875 13966.08 3066.167)
(-1008.677 14676.09 5291.335)
(-1136.631 15474.5 7704.548)
(-1303.417 16387.33 9588.94)
(-2097.811 23939.17 13147.44)
(-2539.719 25714.83 12493.93)
(-3175.863 27988.24 13136.19)
(-3887.572 31081.84 14092.2)
(-2109.748 35174.84 22825.34)
(-688.4767 16799.17 966.568)
(-751.3743 17569.21 3001.344)
(-826.5438 18417.9 5169.742)
(-918.5037 19361.96 7508.069)
(-1034.035 20425.11 9310.736)
(-1624.555 29676.48 12745.56)
(-1904.084 31624.72 12123.95)
(-2297.869 33988.36 12699.35)
(-2855.5 37010.99 13446.72)
(-3457.691 41115.15 21025.09)
(-912.5695 23598.08 14981.14)
(-560.236 17865.05 982.6508)
(-607.0958 18653.34 3047.995)
(-661.9981 19518.29 5244.48)
(-727.5259 20474.26 7604.381)
(-807.556 21540.35 9407.084)
(-1245.517 31184.18 12939.8)
(-1425.399 33061.87 12486.61)
(-1666.594 35267.27 13234.15)
(-2001.484 37944.16 14122.74)
(-2463.305 41364.49 22148.26)
(-1430.66 23617.23 16188.14)
(-722.2898 29071.47 17953.13)
(-449.337 15034.52 1031.685)
(-484.0286 15673.22 3198.234)
(-523.9406 16368.33 5501.018)
(-570.6072 17129.33 7970.354)
(-626.1869 17968.63 9846.194)
(-952.0799 25919.79 13675.27)
(-1069.741 27355.61 13512.03)
(-1221.8 29000.86 14622.99)
(-1423.55 30931.17 15898.14)
(-1697.952 33272.17 25400.19)
(-1000.055 18478.96 19864.86)
(-1063.07 21849.07 25733.37)
(-491.7838 26884.69 34453.97)
(-370.1739 10049.79 988.7363)
(-396.7655 10460.33 3061.233)
(-426.9084 10901.22 5258.075)
(-461.5392 11377.19 7605.362)
(-501.9725 11894.27 9375.251)
(-754.7616 17090.04 12991.25)
(-836.4192 17952.65 12802.92)
(-938.6746 18919.95 13805.5)
(-1070.128 20023.28 14932.42)
(-1242.702 21313.61 23682.1)
(-712.7765 11328.96 18203.2)
(-784.2124 11880.06 22524.18)
(-772.929 12185.72 27641.05)
(-328.4932 11515.43 34071.18)
(-317.5112 5884.047 924.0395)
(-338.8931 6116.728 2857.327)
(-362.8306 6364.234 4900.95)
(-389.9423 6628.711 7077.325)
(-421.0636 6912.857 8707.842)
(-627.5985 9904.164 12006.5)
(-688.0447 10369.26 11729.46)
(-761.9584 10882.45 12536.04)
(-854.3298 11456.49 13430.68)
(-972.5647 12110.13 21056.6)
(-545.2662 6270.487 15792.37)
(-594.3937 6141.828 18697.78)
(-632.9549 5722.203 21634.35)
(-586.7484 4847.666 25036.23)
(-235.0706 3237.501 19545.37)
(-282.7577 2972.189 868.8629)
(-300.7335 3086.519 2683.932)
(-320.646 3207.387 4598.339)
(-342.9282 3335.669 6631.798)
(-368.1519 3472.448 8147.537)
(-544.8972 4964.772 11187.82)
(-592.3284 5185.387 10849.66)
(-649.1199 5426.083 11510.55)
(-718.5168 5691.464 12236.28)
(-805.1224 5988.208 19009.61)
(-443.2919 3060.605 13999.81)
(-476.1007 2911.655 16111.93)
(-511.1149 2615.586 18068.43)
(-530.7238 2142.35 20222.64)
(-467.4574 1460.883 15453.96)
(-1609.183 7685.278 53812.31)
(-259.8528 886.6823 827.4646)
(-275.5469 919.9318 2554.014)
(-292.7782 954.9325 4372.075)
(-311.8625 991.9008 6299.378)
(-333.2127 1031.1 7730.378)
(-490.4018 1471.807 10587.65)
(-529.466 1534.277 10223.07)
(-575.4419 1601.838 10797.45)
(-630.4826 1675.538 11423.55)
(-697.7173 1756.799 17647.75)
(-378.35 892.1293 12865.02)
(-400.1047 838.8764 14585.64)
(-425.2822 743.6086 16106.98)
(-450.2293 602.1672 17732.37)
(-456.2711 412.4094 13322.86)
(-3396.313 2269.909 46122.72)
(-1464.194 1708.46 29821.54)
(-675.3926 -14203.07 2039.98)
(-1511.195 -20322.93 1922.033)
(-784.6547 -23094.59 6325.422)
(-1542.188 -26172.66 1774.053)
(-1800.98 -29059.49 5772.113)
(-950.3258 -32944.97 10614.46)
(-1480.627 -27388.88 1507.991)
(-1826.394 -29798.64 4836.051)