/*--------------------------------*- C++ -*----------------------------------*\
| =========                 |                                                 |
| \\      /  F ield         | OpenFOAM: The Open Source CFD Toolbox           |
|  \\    /   O peration     | Version:  2306                                  |
|   \\  /    A nd           | Website:  www.openfoam.com                      |
|    \\/     M anipulation  |                                                 |
\*---------------------------------------------------------------------------*/
FoamFile
{
    version     2.0;
    format      ascii;
    arch        "LSB;label=32;scalar=64";
    class       volScalarField;
    location    "1.5/phiEA";
    object      phi;
}
// * * * * * * * * * * * * * * * * * * * * * * * * * * * * * * * * * * * * * //

dimensions      [1 2 -3 0 0 -1 0];

internalField   nonuniform List<scalar> 
20000
(
-0.004716988
-0.004850738
-0.00438494
-0.004712575
-0.005146671
-0.004501736
-0.004846243
-0.004055073
-0.004380911
-0.004703937
-0.005662342
-0.004760733
-0.005142008
-0.004159695
-0.004497642
-0.004837442
-0.003772813
-0.004051367
-0.004373013
-0.004691205
-0.006466709
-0.005213474
-0.005657455
-0.004391996
-0.004756508
-0.005132877
-0.003868626
-0.004155933
-0.004489615
-0.004824468
-0.00353434
-0.003769365
-0.004044095
-0.004361361
-0.00467446
-0.00754434
-0.005922043
-0.006461699
-0.004798802
-0.005209081
-0.005647884
-0.004081549
-0.004388124
-0.004748224
-0.005119415
-0.003623327
-0.003865129
-0.004148552
-0.004477773
-0.004807403
-0.003330081
-0.003531105
-0.003762594
-0.004033359
-0.004346028
-0.004656542
-0.00860498
-0.006873749
-0.007539636
-0.005436623
-0.005917587
-0.006451893
-0.004454846
-0.004794789
-0.005200465
-0.00563377
-0.0038212
-0.004077953
-0.004380523
-0.004735999
-0.005101705
-0.003413471
-0.003620047
-0.00385826
-0.004137652
-0.004462187
-0.004789143
-0.003152277
-0.00332703
-0.003524749
-0.003752589
-0.004019221
-0.004329614
-0.004641224
-0.009470509
-0.00781079
-0.008600441
-0.006294383
-0.006869624
-0.007530454
-0.005040793
-0.005432568
-0.005908849
-0.006437438
-0.004168397
-0.004451126
-0.004786908
-0.005187746
-0.0056152
-0.003598986
-0.003817831
-0.004070889
-0.004369296
-0.004719905
-0.005082751
-0.00323091
-0.003410378
-0.003613602
-0.003848111
-0.004123298
-0.004445503
-0.004773491
-0.002995016
-0.003149386
-0.003321029
-0.003515351
-0.003739409
-0.004004082
-0.004315587
-0.0046257
-0.01006752
-0.008575341
-0.009466013
-0.007138889
-0.007806862
-0.0085916
-0.005829417
-0.006290646
-0.006861555
-0.007516951
-0.004713816
-0.005037043
-0.005424608
-0.005895955
-0.006418422
-0.003924705
-0.004164917
-0.004443817
-0.004775267
-0.005171
-0.005595322
-0.003405909
-0.003595811
-0.003811209
-0.004060449
-0.004354509
-0.004702676
-0.005066422
-0.003069501
-0.00322798
-0.003404296
-0.003604073
-0.003834738
-0.004107927
-0.004431205
-0.004757587
-0.002854093
-0.002992268
-0.003143697
-0.003312153
-0.003502965
-0.00372529
-0.003991148
-0.004301374
-0.00460997
-0.01037
-0.009102596
-0.01006302
-0.007827661
-0.008571486
-0.009457262
-0.006605872
-0.007135347
-0.007799193
-0.008578618
-0.00544831
-0.00582597
-0.006283329
-0.006849673
-0.007499222
-0.004436697
-0.004710312
-0.005029676
-0.005412851
-0.005878978
-0.006398067
-0.003713322
-0.003921428
-0.004158073
-0.00443301
-0.004759929
-0.005153067
-0.005578101
-0.003235322
-0.003402904
-0.003589565
-0.003801416
-0.004046691
-0.004338672
-0.004687835
-0.005049749
-0.002924898
-0.003066717
-0.003222216
-0.003395298
-0.003591512
-0.003820412
-0.004094759
-0.004416682
-0.004741432
-0.002726416
-0.002851474
-0.002986857
-0.003135278
-0.003300448
-0.003489692
-0.00371323
-0.003978046
-0.004286976
-0.004594034
-0.01037
-0.009369702
-0.0103655
-0.008302456
-0.009098762
-0.01005427
-0.007239016
-0.007824195
-0.008563964
-0.009444423
-0.006171521
-0.006602611
-0.00712842
-0.007787913
-0.008561594
-0.005126481
-0.005445095
-0.005819212
-0.00627254
-0.006834056
-0.007480272
-0.004196774
-0.004433402
-0.004703423
-0.005018785
-0.005397362
-0.005860798
-0.006380461
-0.003526732
-0.003710221
-0.003914978
-0.004147948
-0.004418766
-0.004743497
-0.00513753
-0.005560421
-0.003082566
-0.003232467
-0.003396987
-0.003580324
-0.003788504
-0.00403195
-0.004325035
-0.004672685
-0.005032732
-0.00279391
-0.002922244
-0.003061236
-0.003213684
-0.003383432
-0.003578051
-0.003808143
-0.004081388
-0.004401934
-0.004725027
-0.002609719
-0.002723914
-0.002846314
-0.002978846
-0.003124172
-0.003287903
-0.003478357
-0.003701017
-0.003964779
-0.004272395
-0.004424565
-0.01006752
-0.009369702
-0.0103655
-0.008542915
-0.009365872
-0.01035674
-0.007675368
-0.008299016
-0.009091283
-0.01004144
-0.006761206
-0.007235831
-0.007817423
-0.008552909
-0.009427595
-0.005805727
-0.006168483
-0.006596227
-0.00711822
-0.007773104
-0.008543413
-0.004848333
-0.005123459
-0.005438785
-0.00580924
-0.006258351
-0.006817355
-0.007464331
-0.003985203
-0.004193658
-0.004426917
-0.004693234
-0.00500443
-0.005380767
-0.005845066
-0.006362414
-0.003359747
-0.003523788
-0.003704116
-0.003905433
-0.004134596
-0.0044035
-0.004729266
-0.00512158
-0.005542282
-0.00294424
-0.003079846
-0.003226843
-0.003388229
-0.003568136
-0.003774665
-0.004019261
-0.004311119
-0.004657227
-0.005015372
-0.002674205
-0.002791376
-0.002917018
-0.003053119
-0.003202428
-0.003370713
-0.003566524
-0.003795687
-0.004067814
-0.004386961
-0.004550154
-0.002502281
-0.002607325
-0.002718983
-0.002838672
-0.002968276
-0.003112266
-0.00327719
-0.003466879
-0.003688651
-0.003951346
-0.004117365
-0.004082163
-0.009470509
-0.009102596
-0.01006302
-0.008542915
-0.009365872
-0.01035674
-0.007896323
-0.008539482
-0.009358403
-0.01034389
-0.007167565
-0.007672209
-0.008292295
-0.009080293
-0.01002462
-0.006359556
-0.00675824
-0.007229598
-0.007807456
-0.0085384
-0.009409629
-0.005489996
-0.005802875
-0.00616253
-0.006586818
-0.007104818
-0.00775728
-0.008528406
-0.004603273
-0.004845479
-0.005117525
-0.005429467
-0.005796117
-0.006243169
-0.006803295
-0.007448433
-0.003795979
-0.003982246
-0.004187524
-0.00441732
-0.004679796
-0.004989045
-0.00536641
-0.005828932
-0.006343921
-0.003208602
-0.003356943
-0.003517988
-0.003695075
-0.00389284
-0.004120282
-0.004390282
-0.004714662
-0.005105216
-0.005523683
-0.002817865
-0.002941643
-0.003074486
-0.003218514
-0.003376673
-0.003555068
-0.003762755
-0.004006316
-0.004296925
-0.004641459
-0.004829493
-0.002564011
-0.00267178
-0.002786382
-0.002909276
-0.003042408
-0.00319036
-0.003359824
-0.003554825
-0.003783045
-0.004054038
-0.004227392
-0.004192977
-0.002402778
-0.002499985
-0.002602603
-0.002711676
-0.002828584
-0.002956939
-0.003102099
-0.003266344
-0.003455261
-0.003676135
-0.003808568
-0.003804468
-0.003722476
-0.00860498
-0.008575341
-0.009466013
-0.008302456
-0.009098762
-0.01005427
-0.007896323
-0.008539482
-0.009358403
-0.01034389
-0.007373318
-0.007893172
-0.008532776
-0.009347428
-0.01032706
-0.006741191
-0.007164626
-0.00766603
-0.008282406
-0.009065873
-0.01000667
-0.006013185
-0.006356774
-0.006752433
-0.007220416
-0.007794365
-0.008522902
-0.009394921
-0.005212004
-0.005487304
-0.005797281
-0.006153748
-0.006574446
-0.00709049
-0.007744211
-0.008513729
-0.004384211
-0.004600566
-0.004839871
-0.005108758
-0.005417198
-0.00578207
-0.006230388
-0.006789261
-0.007432578
-0.003624779
-0.003793165
-0.003976422
-0.004178441
-0.004404658
-0.00466539
-0.004975737
-0.005351689
-0.005812393
-0.006324977
-0.003070563
-0.003205926
-0.003351417
-0.003509395
-0.003683143
-0.003879336
-0.004107891
-0.00437672
-0.004699682
-0.005088437
-0.005323541
-0.002701558
-0.00281538
-0.002936522
-0.003066544
-0.003207521
-0.00336428
-0.003543823
-0.003750606
-0.003993114
-0.004282451
-0.004472668
-0.004441656
-0.002461968
-0.002561687
-0.002666999
-0.002778981
-0.002899056
-0.00303092
-0.003180028
-0.003348771
-0.003542952
-0.003770217
-0.003907263
-0.003901809
-0.003814208
-0.002310165
-0.002400575
-0.002495458
-0.002595605
-0.002702029
-0.002817763
-0.00294726
-0.003091807
-0.003255365
-0.003443502
-0.00354312
-0.00352075
-0.003476007
-0.003348505
-0.00754434
-0.00781079
-0.008600441
-0.007827661
-0.008571486
-0.009457262
-0.007675368
-0.008299016
-0.009091283
-0.01004144
-0.007373318
-0.007893172
-0.008532776
-0.009347428
-0.01032706
-0.006934419
-0.007370387
-0.007887009
-0.00852291
-0.009333028
-0.01030909
-0.006373703
-0.006738435
-0.007158871
-0.007656928
-0.008269419
-0.00905047
-0.00999202
-0.005708352
-0.00601056
-0.00635132
-0.006743871
-0.007208348
-0.007780373
-0.00851021
-0.009380659
-0.004963599
-0.005209453
-0.00548202
-0.005789025
-0.006142195
-0.006561213
-0.007078655
-0.007731421
-0.008499381
-0.004186086
-0.004381637
-0.004595244
-0.004831579
-0.005097208
-0.005404061
-0.005770244
-0.006217629
-0.006775255
-0.007416768
-0.003468478
-0.003622094
-0.003787618
-0.003967794
-0.004166453
-0.00439108
-0.00465293
-0.004962093
-0.0053366
-0.005795443
-0.006121274
-0.002943559
-0.003068003
-0.003200649
-0.003343228
-0.003498051
-0.003670345
-0.003867646
-0.004095179
-0.004362814
-0.004684327
-0.004907882
-0.004894396
-0.002593876
-0.002699177
-0.002810479
-0.002928933
-0.003056058
-0.003195729
-0.003353617
-0.003532354
-0.003738219
-0.003979655
-0.004127555
-0.00412075
-0.004021683
-0.002367
-0.002459737
-0.002557103
-0.002659911
-0.002769208
-0.002888092
-0.003021086
-0.003169543
-0.003337557
-0.003530906
-0.00363358
-0.003608162
-0.003556774
-0.003417333
-0.002223602
-0.002308047
-0.002396227
-0.002488745
-0.002586362
-0.002691678
-0.002808524
-0.002937462
-0.00308139
-0.003244255
-0.003318555
-0.00327522
-0.003218884
-0.00313464
-0.002963865
-0.006466709
-0.006873749
-0.007539636
-0.007138889
-0.007806862
-0.0085916
-0.007239016
-0.007824195
-0.008563964
-0.009444423
-0.007167565
-0.007672209
-0.008292295
-0.009080293
-0.01002462
-0.006934419
-0.007370387
-0.007887009
-0.00852291
-0.009333028
-0.01030909
-0.006556236
-0.00693167
-0.007364648
-0.007877932
-0.008509953
-0.009317648
-0.01029443
-0.006050374
-0.006371103
-0.006733032
-0.007150387
-0.007644966
-0.00825554
-0.009037894
-0.009977854
-0.005436032
-0.005705865
-0.00600541
-0.006343274
-0.00673261
-0.007195444
-0.007768914
-0.008497897
-0.009366842
-0.004738991
-0.004961173
-0.005204441
-0.005474216
-0.005778157
-0.006129832
-0.006550283
-0.007067071
-0.007718909
-0.008485365
-0.004005254
-0.004183631
-0.004376572
-0.004587373
-0.004820651
-0.005084836
-0.005393001
-0.005758439
-0.006204896
-0.006761279
-0.00725127
-0.003324715
-0.003465911
-0.0036168
-0.003779399
-0.003956403
-0.004153593
-0.004379336
-0.004640156
-0.00494811
-0.00532114
-0.005613116
-0.005680921
-0.002826003
-0.002941107
-0.003062954
-0.003192825
-0.003332412
-0.00348588
-0.003659268
-0.003855656
-0.004082145
-0.004348561
-0.00451914
-0.004520722
-0.004412442
-0.002493678
-0.00259159
-0.002694478
-0.002803212
-0.002918909
-0.003044808
-0.003185584
-0.003342742
-0.003520661
-0.003725593
-0.003835657
-0.003805024
-0.00373986
-0.003572836
-0.002278244
-0.002364856
-0.002455336
-0.002550305
-0.00265055
-0.002758722
-0.002878707
-0.003011106
-0.003158905
-0.00332618
-0.003402619
-0.003355392
-0.003291484
-0.003195381
-0.003006944
-0.002142403
-0.002221565
-0.002303867
-0.002389779
-0.002479876
-0.002576443
-0.002682841
-0.002799172
-0.002927546
-0.003070849
-0.003126218
-0.003067058
-0.002994432
-0.00290535
-0.002783579
-0.002709555
-0.005662342
-0.005922043
-0.006461699
-0.006294383
-0.006869624
-0.007530454
-0.006605872
-0.007135347
-0.007799193
-0.008578618
-0.006761206
-0.007235831
-0.007817423
-0.008552909
-0.009427595
-0.006741191
-0.007164626
-0.00766603
-0.008282406
-0.009065873
-0.01000667
-0.006556236
-0.00693167
-0.007364648
-0.007877932
-0.008509953
-0.009317648
-0.01029443
-0.006223542
-0.006553643
-0.006926283
-0.007356189
-0.007866003
-0.008496107
-0.009305102
-0.01028027
-0.005761576
-0.006047911
-0.006366002
-0.006725062
-0.007139231
-0.007632177
-0.008244208
-0.009025733
-0.009964175
-0.00518984
-0.005433668
-0.005700982
-0.005997808
-0.006332686
-0.006720564
-0.007184875
-0.007757796
-0.008485963
-0.009353472
-0.004534026
-0.004736678
-0.004956405
-0.005197036
-0.005463939
-0.005766523
-0.006119621
-0.006539584
-0.007055739
-0.007706678
-0.008341693
-0.003838965
-0.004002908
-0.004178798
-0.004369076
-0.004576994
-0.004808942
-0.005074421
-0.005381962
-0.005746658
-0.006192188
-0.006614853
-0.006943385
-0.003191682
-0.003322257
-0.003460848
-0.003608951
-0.003768544
-0.00394418
-0.004142472
-0.004367299
-0.004627068
-0.004933786
-0.005154854
-0.005218305
-0.005165157
-0.002716644
-0.002823651
-0.002936268
-0.003055466
-0.003182489
-0.003320805
-0.003475346
-0.003647906
-0.003843364
-0.00406879
-0.004195266
-0.004165334
-0.004085914
-0.003873098
-0.002400049
-0.002491482
-0.00258708
-0.00268751
-0.002793613
-0.002908153
-0.003035129
-0.003175237
-0.003331655
-0.003508744
-0.003590518
-0.003536094
-0.003456266
-0.003332897
-0.003101211
-0.002194995
-0.002276182
-0.002360625
-0.002448806
-0.002541323
-0.002640503
-0.002749747
-0.002869184
-0.003000982
-0.003148114
-0.003205031
-0.003141597
-0.003061057
-0.002960001
-0.002821725
-0.00273506
-0.002066001
-0.002140441
-0.002217542
-0.002297666
-0.002381257
-0.002470357
-0.002567975
-0.002673896
-0.002789709
-0.002917512
-0.002958865
-0.002888735
-0.002803588
-0.002702931
-0.002583029
-0.002551443
-0.002568258
-0.005146671
-0.005213474
-0.005657455
-0.005436623
-0.005917587
-0.006451893
-0.005829417
-0.006290646
-0.006861555
-0.007516951
-0.006171521
-0.006602611
-0.00712842
-0.007787913
-0.008561594
-0.006359556
-0.00675824
-0.007229598
-0.007807456
-0.0085384
-0.009409629
-0.006373703
-0.006738435
-0.007158871
-0.007656928
-0.008269419
-0.00905047
-0.00999202
-0.006223542
-0.006553643
-0.006926283
-0.007356189
-0.007866003
-0.008496107
-0.009305102
-0.01028027
-0.005926401
-0.006221086
-0.006548558
-0.006918338
-0.007345066
-0.007853249
-0.008484811
-0.00929298
-0.01026662
-0.005500514
-0.005759235
-0.006043075
-0.006358473
-0.006714576
-0.007127298
-0.007621734
-0.008233248
-0.009013986
-0.009950983
-0.004965207
-0.005187586
-0.005429023
-0.00569377
-0.0059878
-0.006321356
-0.006710698
-0.007174621
-0.00774702
-0.00847441
-0.009217776
-0.004345575
-0.004531817
-0.00473213
-0.004949357
-0.00518728
-0.005452934
-0.005756914
-0.006109626
-0.006529117
-0.00704466
-0.007581218
-0.008103543
-0.003685119
-0.003836719
-0.003998287
-0.004171644
-0.00435919
-0.004565871
-0.004799085
-0.005064025
-0.005370944
-0.005734902
-0.006059054
-0.006341477
-0.006652832
-0.003067951
-0.003189324
-0.003317405
-0.003453338
-0.003598582
-0.003756893
-0.003933611
-0.004131073
-0.004354965
-0.00461366
-0.004779737
-0.004795029
-0.004755337
-0.004532455
-0.002614475
-0.002714384
-0.002819006
-0.002929088
-0.00304557
-0.003171396
-0.00331076
-0.003464542
-0.003636258
-0.003830769
-0.00392516
-0.003867211
-0.003768334
-0.003599353
-0.003276736
-0.002312243
-0.002397937
-0.002487147
-0.002580388
-0.002678302
-0.002783309
-0.002898898
-0.003025259
-0.00316469
-0.003320357
-0.003381269
-0.003309696
-0.003212398
-0.003083879
-0.002905319
-0.002786408
-0.002116668
-0.002193009
-0.002272109
-0.002354346
-0.002440177
-0.002531682
-0.002631903
-0.00274064
-0.002859523
-0.002990712
-0.003033209
-0.002958642
-0.002865555
-0.002753111
-0.002617396
-0.002574142
-0.002585342
-0.001993916
-0.002064109
-0.002136565
-0.002211571
-0.002289469
-0.002372109
-0.00246223
-0.002559405
-0.002664845
-0.002780133
-0.002810926
-0.002733637
-0.00264003
-0.002530159
-0.002403353
-0.002369924
-0.002421838
-0.00241134
-0.004850738
-0.004760733
-0.005142008
-0.004798802
-0.005209081
-0.005647884
-0.005040793
-0.005432568
-0.005908849
-0.006437438
-0.00544831
-0.00582597
-0.006283329
-0.006849673
-0.007499222
-0.005805727
-0.006168483
-0.006596227
-0.00711822
-0.007773104
-0.008543413
-0.006013185
-0.006356774
-0.006752433
-0.007220416
-0.007794365
-0.008522902
-0.009394921
-0.006050374
-0.006371103
-0.006733032
-0.007150387
-0.007644966
-0.00825554
-0.009037895
-0.009977854
-0.005926401
-0.006221086
-0.006548558
-0.006918338
-0.007345066
-0.007853249
-0.008484811
-0.00929298
-0.01026662
-0.00565781
-0.005924067
-0.006216265
-0.006541053
-0.006907884
-0.007333168
-0.007842844
-0.008473898
-0.009281283
-0.01025346
-0.005262331
-0.005498282
-0.005754636
-0.006035934
-0.006348562
-0.006703355
-0.007117554
-0.007611634
-0.008222661
-0.009002653
-0.00981758
-0.004758694
-0.004963054
-0.005183157
-0.00542216
-0.005684272
-0.005977086
-0.006312076
-0.006701125
-0.007164682
-0.007736587
-0.008357099
-0.009004891
-0.00417125
-0.004343461
-0.00452747
-0.004725404
-0.004940067
-0.00517683
-0.005443844
-0.005747508
-0.006099847
-0.006518884
-0.006931004
-0.007372548
-0.007907972
-0.003542058
-0.003682965
-0.003832294
-0.003991444
-0.004162204
-0.004348592
-0.004556507
-0.004789246
-0.00505365
-0.005359949
-0.00561173
-0.00581045
-0.006082724
-0.006400397
-0.002952381
-0.003065686
-0.003184668
-0.003310207
-0.003443414
-0.003587451
-0.003746819
-0.003922777
-0.004119394
-0.004342331
-0.004469483
-0.004446604
-0.004373369
-0.00418705
-0.003706932
-0.002518678
-0.002612302
-0.00270992
-0.002812114
-0.002919599
-0.003034947
-0.003161795
-0.003300457
-0.003453467
-0.003624325
-0.003695331
-0.003617966
-0.003499354
-0.003324382
-0.003061396
-0.002862839
-0.00222964
-0.002310209
-0.002393766
-0.002480713
-0.002571543
-0.002668416
-0.002774445
-0.002889462
-0.003015198
-0.003153943
-0.003199513
-0.003116362
-0.003006394
-0.002866942
-0.002692781
-0.002619872
-0.002617697
-0.002042773
-0.002114754
-0.002189086
-0.002266065
-0.002346046
-0.002430913
-0.00252343
-0.002623178
-0.002731401
-0.002849724
-0.00288137
-0.002799598
-0.002698164
-0.002576849
-0.002434933
-0.002390414
-0.00243707
-0.002421837
-0.001925745
-0.001992091
-0.002060373
-0.002130812
-0.002203678
-0.002280667
-0.0023643
-0.002454005
-0.002550732
-0.002655687
-0.002678418
-0.00259661
-0.002497827
-0.00238199
-0.00224922
-0.002205317
-0.002250908
-0.002277247
-0.002245265
-0.004716988
-0.004501736
-0.004846243
-0.004391996
-0.004756508
-0.005132877
-0.004454846
-0.004794789
-0.005200465
-0.00563377
-0.004713816
-0.005037043
-0.005424608
-0.005895955
-0.006418422
-0.005126481
-0.005445095
-0.005819212
-0.00627254
-0.006834056
-0.007480272
-0.005489996
-0.005802875
-0.00616253
-0.006586818
-0.007104818
-0.00775728
-0.008528406
-0.005708352
-0.00601056
-0.00635132
-0.006743871
-0.007208348
-0.007780373
-0.00851021
-0.009380659
-0.005761576
-0.006047911
-0.006366002
-0.006725062
-0.007139231
-0.007632177
-0.008244208
-0.009025733
-0.009964175
-0.00565781
-0.005924067
-0.006216265
-0.006541053
-0.006907884
-0.007333168
-0.007842844
-0.008473898
-0.009281283
-0.01025346
-0.005412767
-0.005655586
-0.005919483
-0.006209147
-0.006531174
-0.006896698
-0.007323462
-0.007832792
-0.008463367
-0.009270012
-0.01012057
-0.005043374
-0.005260199
-0.005493897
-0.005747841
-0.006026529
-0.006337953
-0.006694192
-0.00710813
-0.007601878
-0.008212447
-0.008888016
-0.009612458
-0.004567677
-0.004756634
-0.004958822
-0.005176609
-0.005413117
-0.0056741
-0.00596831
-0.006303072
-0.006691846
-0.007155058
-0.007630641
-0.008172628
-0.008840342
-0.004009165
-0.004169223
-0.004339299
-0.004521038
-0.004716536
-0.004930113
-0.005168198
-0.005434947
-0.005738306
-0.006090287
-0.006413902
-0.006741875
-0.007200677
-0.007765177
-0.003408454
-0.00353999
-0.00367872
-0.003825737
-0.003982412
-0.004152082
-0.00433967
-0.00454716
-0.004779426
-0.005043297
-0.005244764
-0.00538176
-0.005575121
-0.00585738
-0.006229337
-0.002844038
-0.002950204
-0.003061214
-0.00317776
-0.003300693
-0.003432758
-0.003577826
-0.003736493
-0.003911677
-0.004107431
-0.004206484
-0.004157834
-0.004056453
-0.003856129
-0.003445519
-0.002953025
-0.002428573
-0.002516585
-0.002608008
-0.002703294
-0.002803001
-0.00290941
-0.003025753
-0.003151949
-0.003289898
-0.003442121
-0.003496013
-0.003405771
-0.003273657
-0.003088205
-0.002833769
-0.002688019
-0.002659802
-0.00215172
-0.00222768
-0.002306191
-0.002387573
-0.002472206
-0.002562046
-0.002659912
-0.002765406
-0.002879844
-0.003004947
-0.003038994
-0.002948467
-0.002830344
-0.002682816
-0.002504244
-0.002431719
-0.002465927
-0.002440752
-0.001972895
-0.002040927
-0.002110972
-0.002183261
-0.002258073
-0.002337134
-0.002422984
-0.002515057
-0.002614327
-0.002722031
-0.002745397
-0.002659124
-0.002552692
-0.002425803
-0.002278618
-0.002224165
-0.002264665
-0.002286614
-0.002251268
-0.00186114
-0.001923984
-0.001988486
-0.002054824
-0.002123205
-0.002195202
-0.002273154
-0.002356396
-0.002445683
-0.002541958
-0.002558411
-0.002473939
-0.002372268
-0.002253211
-0.002116908
-0.00206353
-0.002094838
-0.002117987
-0.002123541
-0.002074405
-0.00438494
-0.004712575
-0.004159695
-0.004497642
-0.004837442
-0.004081549
-0.004388124
-0.004748224
-0.005119415
-0.004168397
-0.004451126
-0.004786908
-0.005187746
-0.0056152
-0.004436697
-0.004710312
-0.005029676
-0.005412851
-0.005878978
-0.006398067
-0.004848333
-0.005123459
-0.005438785
-0.00580924
-0.006258351
-0.006817355
-0.007464331
-0.005212004
-0.005487304
-0.005797281
-0.006153748
-0.006574446
-0.00709049
-0.007744211
-0.008513729
-0.005436032
-0.005705865
-0.00600541
-0.006343274
-0.00673261
-0.007195444
-0.007768914
-0.008497897
-0.009366842
-0.005500514
-0.005759235
-0.006043075
-0.006358473
-0.006714576
-0.007127298
-0.007621734
-0.008233248
-0.009013986
-0.009950983
-0.005412767
-0.005655586
-0.005919483
-0.006209147
-0.006531174
-0.006896698
-0.007323462
-0.007832792
-0.008463367
-0.009270012
-0.01012057
-0.005187511
-0.005410643
-0.005651215
-0.005912709
-0.006199773
-0.006520599
-0.006887572
-0.007314084
-0.007823091
-0.008453218
-0.009156123
-0.009917455
-0.004840858
-0.005041335
-0.005256009
-0.005487414
-0.005738888
-0.006016459
-0.006329291
-0.006685331
-0.007099026
-0.007592466
-0.008109125
-0.008711469
-0.00945719
-0.004390086
-0.004565703
-0.004752582
-0.004952561
-0.005167979
-0.005403431
-0.005665769
-0.005959796
-0.006294345
-0.006682862
-0.007057331
-0.007463977
-0.008029759
-0.008727574
-0.003857812
-0.004007219
-0.004165231
-0.004333137
-0.004512555
-0.004707032
-0.004921891
-0.005159748
-0.005426241
-0.005729308
-0.005992203
-0.006239183
-0.006586032
-0.007074876
-0.007687867
-0.003283223
-0.003406466
-0.003535912
-0.003672428
-0.00381708
-0.003972725
-0.00414356
-0.004330764
-0.004537832
-0.004769627
-0.004934829
-0.005029728
-0.005164104
-0.005370173
-0.005704401
-0.00274215
-0.002841942
-0.002945902
-0.003054574
-0.003168625
-0.003290476
-0.003423544
-0.00356796
-0.003725913
-0.003900309
-0.003978807
-0.003912922
-0.003792989
-0.003578127
-0.003181637
-0.002768552
-0.002697098
-0.002343589
-0.002426556
-0.00251245
-0.002601632
-0.002694533
-0.002793214
-0.002900592
-0.003016325
-0.003141857
-0.003279079
-0.003320128
-0.003221763
-0.003081328
-0.002888964
-0.002634011
-0.002493327
-0.002503505
-0.002463138
-0.002078043
-0.002149829
-0.002223806
-0.002300224
-0.002379384
-0.002463071
-0.002553876
-0.002651241
-0.002756193
-0.002870043
-0.002895306
-0.002800254
-0.002677482
-0.002525281
-0.002343167
-0.002262174
-0.002290739
-0.002303495
-0.002261707
-0.001906676
-0.001971112
-0.002037277
-0.002105355
-0.002175559
-0.002249491
-0.002329506
-0.00241494
-0.002506565
-0.002605351
-0.002622272
-0.00253339
-0.002424277
-0.002294571
-0.002144505
-0.002081089
-0.002107496
-0.002126447
-0.002128893
-0.002077486
-0.001799802
-0.001859439
-0.001920502
-0.00198313
-0.002047485
-0.002115033
-0.002187966
-0.00226555
-0.002348399
-0.002437263
-0.002448759
-0.00236289
-0.002259929
-0.002139584
-0.002001954
-0.001941716
-0.001960068
-0.001971489
-0.001976479
-0.001964737
-0.001901562
-0.004055073
-0.004380911
-0.004703937
-0.003868626
-0.004155933
-0.004489615
-0.004824468
-0.0038212
-0.004077953
-0.004380523
-0.004735999
-0.005101705
-0.003924705
-0.004164917
-0.004443817
-0.004775267
-0.005171
-0.005595322
-0.004196774
-0.004433402
-0.004703423
-0.005018785
-0.005397362
-0.005860798
-0.006380461
-0.004603273
-0.004845479
-0.005117525
-0.005429467
-0.005796117
-0.006243169
-0.006803295
-0.007448433
-0.004963599
-0.005209453
-0.00548202
-0.005789025
-0.006142195
-0.006561213
-0.007078655
-0.007731421
-0.008499381
-0.00518984
-0.005433668
-0.005700982
-0.005997808
-0.006332686
-0.006720564
-0.007184875
-0.007757796
-0.008485963
-0.009353472
-0.005262331
-0.005498282
-0.005754636
-0.006035934
-0.006348562
-0.006703355
-0.007117554
-0.007611634
-0.008222661
-0.009002653
-0.00981758
-0.005187511
-0.005410643
-0.005651215
-0.005912709
-0.006199773
-0.006520599
-0.006887572
-0.007314084
-0.007823091
-0.008453218
-0.009156123
-0.009917455
-0.004979173
-0.005185478
-0.005406466
-0.005644753
-0.005903786
-0.006189735
-0.006511971
-0.006878755
-0.007305034
-0.007813742
-0.008350668
-0.008981835
-0.009764639
-0.004652584
-0.004838903
-0.005037323
-0.005249811
-0.00547887
-0.005729299
-0.006008236
-0.006320912
-0.00667677
-0.007090243
-0.007497245
-0.007949962
-0.008577655
-0.009352832
-0.004224266
-0.004388191
-0.004561817
-0.004746586
-0.004944306
-0.005158731
-0.005395497
-0.005657685
-0.005951542
-0.006285894
-0.006591627
-0.006903576
-0.007334855
-0.007931693
-0.008670021
-0.003715958
-0.003855942
-0.004003385
-0.00415932
-0.004325009
-0.004503462
-0.004699181
-0.004913843
-0.005151482
-0.00541773
-0.005637002
-0.005828952
-0.0060952
-0.006471925
-0.007006644
-0.00316547
-0.00328131
-0.003402545
-0.003529867
-0.00366412
-0.003807794
-0.00396457
-0.004135054
-0.004321876
-0.004528523
-0.00466697
-0.004732343
-0.004826231
-0.004974581
-0.005231045
-0.002646068
-0.00274013
-0.002837799
-0.002939513
-0.003045794
-0.003158815
-0.003281641
-0.003414101
-0.003557853
-0.003715078
-0.003778076
-0.003700907
-0.003569345
-0.003345856
-0.002954684
-0.002566219
-0.002536816
-0.00248007
-0.002263245
-0.002341644
-0.00242257
-0.002506308
-0.002593198
-0.002685121
-0.002784745
-0.00289155
-0.003006662
-0.003131519
-0.003162767
-0.00305944
-0.002914544
-0.002718918
-0.002464105
-0.0023189
-0.002324712
-0.002323483
-0.002273326
-0.002008232
-0.002076218
-0.002146092
-0.002218053
-0.002292333
-0.002370588
-0.002455213
-0.002545546
-0.002642403
-0.002746807
-0.002765232
-0.002667636
-0.0025426
-0.002388505
-0.002205119
-0.002116507
-0.002131493
-0.002141699
-0.002138201
-0.002082716
-0.001843807
-0.001904954
-0.001967588
-0.002031857
-0.002097926
-0.002167286
-0.002242145
-0.002321767
-0.00240678
-0.002497952
-0.002509785
-0.002419583
-0.002309397
-0.002178797
-0.002028013
-0.001958209
-0.001971862
-0.001979273
-0.001981308
-0.001967466
-0.001902655
-0.001741467
-0.001798157
-0.001856074
-0.001915329
-0.001976046
-0.002039602
-0.002108058
-0.002180643
-0.002257857
-0.002340308
-0.002347831
-0.002261459
-0.002158283
-0.002037986
-0.001900607
-0.001835913
-0.001844206
-0.001844622
-0.001840158
-0.001830033
-0.001803454
-0.001728605
-0.003772813
-0.004051367
-0.004373013
-0.004691205
-0.003623327
-0.003865129
-0.004148552
-0.004477773
-0.004807403
-0.003598986
-0.003817831
-0.004070889
-0.004369296
-0.004719905
-0.005082751
-0.003713322
-0.003921428
-0.004158073
-0.00443301
-0.004759929
-0.005153067
-0.005578101
-0.003985203
-0.004193658
-0.004426917
-0.004693234
-0.00500443
-0.005380767
-0.005845066
-0.006362414
-0.004384211
-0.004600566
-0.004839871
-0.005108758
-0.005417198
-0.00578207
-0.006230388
-0.006789261
-0.007432578
-0.004738991
-0.004961173
-0.005204441
-0.005474216
-0.005778157
-0.006129832
-0.006550283
-0.007067071
-0.007718909
-0.008485365
-0.004965207
-0.005187586
-0.005429023
-0.00569377
-0.0059878
-0.006321356
-0.006710698
-0.007174621
-0.00774702
-0.00847441
-0.009217776
-0.005043374
-0.005260199
-0.005493897
-0.005747841
-0.006026529
-0.006337953
-0.006694192
-0.00710813
-0.007601878
-0.008212447
-0.008888016
-0.009612458
-0.004979173
-0.005185478
-0.005406466
-0.005644753
-0.005903786
-0.006189735
-0.006511971
-0.006878755
-0.007305034
-0.007813742
-0.008350668
-0.008981835
-0.009764639
-0.004785491
-0.004977224
-0.005181479
-0.005400288
-0.005636237
-0.005894228
-0.006181546
-0.006503636
-0.006870246
-0.007296312
-0.007719275
-0.008193705
-0.00885057
-0.009662477
-0.004476797
-0.004650708
-0.004835056
-0.005031387
-0.00524164
-0.005469716
-0.005721468
-0.006000283
-0.006312819
-0.006668511
-0.007001391
-0.007350548
-0.0078293
-0.008487629
-0.009300356
-0.004068863
-0.004222445
-0.00438446
-0.004556064
-0.004738676
-0.004935459
-0.005151156
-0.005387798
-0.00564985
-0.005943551
-0.006200075
-0.006448072
-0.00678444
-0.007246202
-0.007881592
-0.003582588
-0.003714159
-0.003852256
-0.003997707
-0.004151519
-0.004316293
-0.00449595
-0.004691496
-0.004905969
-0.005143399
-0.005330409
-0.005483359
-0.005694415
-0.005989771
-0.006410021
-0.00305444
-0.003163627
-0.003277535
-0.00339673
-0.003521882
-0.003655205
-0.003799976
-0.003956429
-0.004126565
-0.004313006
-0.004431001
-0.004475338
-0.004540737
-0.00464906
-0.004845948
-0.002555244
-0.002644121
-0.002736138
-0.002831647
-0.002931063
-0.003036361
-0.003150331
-0.003272586
-0.003404426
-0.003547502
-0.003598581
-0.003514023
-0.00337572
-0.003148379
-0.002763256
-0.002386068
-0.00235485
-0.002338608
-0.002281389
-0.002187126
-0.002261368
-0.002337799
-0.002416649
-0.002498182
-0.002584138
-0.002676977
-0.00277606
-0.002882282
-0.002996763
-0.003020367
-0.002914259
-0.002767462
-0.002571434
-0.002318741
-0.002169386
-0.002162774
-0.002159765
-0.002148566
-0.002088318
-0.001941959
-0.002006469
-0.00207261
-0.00214054
-0.002210442
-0.002283856
-0.002363021
-0.002447201
-0.002537056
-0.002633398
-0.002646424
-0.002547625
-0.002421965
-0.002267877
-0.002085262
-0.001991481
-0.001994226
-0.001993309
-0.00198971
-0.001972101
-0.001904461
-0.00178402
-0.001842143
-0.001901549
-0.001962353
-0.002024685
-0.002089945
-0.002160206
-0.002234693
-0.002313918
-0.002398504
-0.00240626
-0.002315643
-0.002205462
-0.00207529
-0.001925319
-0.001851493
-0.001855286
-0.001851876
-0.0018446
-0.001832487
-0.001804384
-0.001728095
-0.001685908
-0.001739876
-0.001794904
-0.001851075