/*--------------------------------*- C++ -*----------------------------------*\
| =========                 |                                                 |
| \\      /  F ield         | OpenFOAM: The Open Source CFD Toolbox           |
|  \\    /   O peration     | Version:  2306                                  |
|   \\  /    A nd           | Website:  www.openfoam.com                      |
|    \\/     M anipulation  |                                                 |
\*---------------------------------------------------------------------------*/
FoamFile
{
    version     2.0;
    format      ascii;
    arch        "LSB;label=32;scalar=64";
    class       volScalarField;
    location    "1.5/phiEA";
    object      T;
}
// * * * * * * * * * * * * * * * * * * * * * * * * * * * * * * * * * * * * * //

dimensions      [0 0 0 1 0 0 0];

internalField   nonuniform List<scalar> 
20000
(
1169.554
1169.398
1171.397
1169.567
1169.04
1171.385
1169.412
1173.083
1171.406
1169.586
1168.378
1171.353
1169.055
1173.111
1171.393
1169.431
1174.654
1173.088
1171.419
1169.609
1167.274
1171.29
1168.397
1173.171
1171.361
1169.076
1174.694
1173.115
1171.406
1169.455
1176.16
1174.655
1173.096
1171.437
1169.637
1165.665
1171.172
1167.299
1173.273
1171.297
1168.42
1174.781
1173.174
1171.373
1169.101
1176.202
1174.694
1173.123
1171.423
1169.484
1177.614
1176.157
1174.66
1173.109
1171.459
1169.67
1163.845
1170.966
1165.702
1173.427
1171.176
1167.329
1174.934
1173.274
1171.308
1168.449
1176.295
1174.78
1173.181
1171.39
1169.132
1177.656
1176.198
1174.698
1173.135
1171.445
1169.518
1179.021
1177.609
1176.158
1174.668
1173.126
1171.485
1169.704
1162.182
1170.66
1163.899
1173.613
1170.966
1165.744
1175.171
1173.423
1171.184
1167.365
1176.46
1174.93
1173.279
1171.323
1168.484
1177.748
1176.291
1174.783
1173.192
1171.411
1169.168
1179.061
1177.65
1176.199
1174.706
1173.152
1171.471
1169.552
1180.381
1179.014
1177.607
1176.163
1174.681
1173.147
1171.513
1169.738
1160.946
1170.315
1162.252
1173.755
1170.658
1163.957
1175.482
1173.603
1170.97
1165.791
1176.719
1175.164
1173.424
1171.197
1167.407
1177.912
1176.454
1174.931
1173.288
1171.343
1168.524
1179.15
1177.741
1176.291
1174.79
1173.207
1171.437
1169.204
1180.418
1179.053
1177.648
1176.204
1174.718
1173.173
1171.499
1169.587
1181.691
1180.371
1179.01
1177.609
1176.172
1174.697
1173.169
1171.54
1169.772
1160.293
1170.022
1161.028
1173.829
1170.316
1162.327
1175.771
1173.74
1170.662
1164.02
1177.065
1175.467
1173.597
1170.979
1165.843
1178.17
1176.709
1175.16
1173.429
1171.215
1167.454
1179.307
1177.903
1176.452
1174.936
1173.301
1171.368
1168.565
1180.503
1179.141
1177.738
1176.294
1174.801
1173.227
1171.464
1169.242
1181.726
1180.409
1179.049
1177.649
1176.212
1174.734
1173.194
1171.526
1169.623
1182.951
1181.68
1180.365
1179.009
1177.615
1176.185
1174.715
1173.191
1171.567
1169.807
1160.293
1169.854
1160.382
1173.854
1170.025
1161.115
1175.988
1173.812
1170.321
1162.405
1177.398
1175.751
1173.729
1170.67
1164.087
1178.516
1177.048
1175.457
1173.595
1170.992
1165.901
1179.556
1178.158
1176.703
1175.16
1173.438
1171.237
1167.503
1180.652
1179.297
1177.898
1176.453
1174.945
1173.319
1171.394
1168.607
1181.807
1180.492
1179.136
1177.739
1176.302
1174.816
1173.248
1171.491
1169.279
1182.985
1181.715
1180.402
1179.048
1177.655
1176.224
1174.751
1173.215
1171.553
1169.658
1184.16
1182.939
1181.673
1180.363
1179.012
1177.624
1176.198
1174.732
1173.213
1171.594
1169.974
1160.946
1169.854
1160.382
1173.857
1169.86
1160.474
1176.125
1173.836
1170.034
1161.205
1177.661
1175.965
1173.799
1170.332
1162.487
1178.854
1177.376
1175.735
1173.723
1170.683
1164.159
1179.89
1178.497
1177.035
1175.451
1173.598
1171.011
1165.96
1180.889
1179.542
1178.149
1176.7
1175.165
1173.452
1171.26
1167.553
1181.949
1180.64
1179.29
1177.897
1176.458
1174.958
1173.337
1171.419
1168.65
1183.061
1181.795
1180.485
1179.134
1177.743
1176.313
1174.832
1173.268
1171.517
1169.318
1184.193
1182.973
1181.708
1180.4
1179.051
1177.664
1176.237
1174.768
1173.237
1171.58
1169.831
1185.319
1184.148
1182.931
1181.669
1180.364
1179.019
1177.634
1176.211
1174.749
1173.234
1171.728
1170.294
1162.182
1170.022
1161.028
1173.857
1169.86
1160.474
1176.19
1173.84
1169.87
1160.571
1177.835
1176.1
1173.823
1170.047
1161.299
1179.126
1177.635
1175.946
1173.791
1170.346
1162.575
1180.219
1178.831
1177.357
1175.723
1173.721
1170.7
1164.232
1181.208
1179.871
1178.483
1177.026
1175.449
1173.605
1171.03
1166.018
1182.174
1180.874
1179.532
1178.144
1176.701
1175.173
1173.466
1171.284
1167.603
1183.196
1181.936
1180.632
1179.286
1177.899
1176.467
1174.971
1173.355
1171.445
1168.693
1184.265
1183.048
1181.787
1180.482
1179.136
1177.751
1176.324
1174.847
1173.288
1171.544
1169.504
1185.35
1184.18
1182.964
1181.703
1180.4
1179.057
1177.673
1176.25
1174.784
1173.258
1171.713
1170.167
1186.427
1185.306
1184.138
1182.925
1181.668
1180.368
1179.026
1177.644
1176.224
1174.766
1173.342
1171.972
1170.632
1163.845
1170.315
1162.252
1173.854
1170.025
1161.115
1176.19
1173.84
1169.87
1160.571
1177.921
1176.165
1173.827
1169.885
1160.671
1179.31
1177.808
1176.08
1173.815
1170.064
1161.398
1180.486
1179.1
1177.614
1175.931
1173.787
1170.366
1162.662
1181.523
1180.196
1178.812
1177.343
1175.716
1173.724
1170.718
1164.305
1182.477
1181.189
1179.856
1178.473
1177.021
1175.451
1173.613
1171.049
1166.078
1183.41
1182.158
1180.863
1179.525
1178.143
1176.706
1175.182
1173.479
1171.307
1167.654
1184.393
1183.182
1181.926
1180.627
1179.286
1177.905
1176.477
1174.984
1173.373
1171.471
1168.903
1185.419
1184.251
1183.039
1181.781
1180.482
1179.141
1177.76
1176.336
1174.862
1173.308
1171.675
1169.877
1186.456
1185.336
1184.17
1182.958
1181.702
1180.404
1179.063
1177.682
1176.262
1174.801
1173.363
1171.956
1170.526
1187.484
1186.413
1185.295
1184.132
1182.923
1181.671
1180.373
1179.033
1177.653
1176.237
1174.851
1173.533
1172.217
1170.983
1165.665
1170.66
1163.899
1173.829
1170.316
1162.327
1176.125
1173.836
1170.034
1161.205
1177.921
1176.165
1173.827
1169.885
1160.671
1179.401
1177.893
1176.144
1173.819
1169.904
1160.776
1180.667
1179.282
1177.785
1176.064
1173.811
1170.086
1161.496
1181.779
1180.46
1179.078
1177.597
1175.921
1173.788
1170.385
1162.749
1182.778
1181.5
1180.177
1178.797
1177.334
1175.713
1173.727
1170.736
1164.377
1183.698
1182.457
1181.173
1179.844
1178.466
1177.02
1175.453
1173.62
1171.069
1166.137
1184.597
1183.393
1182.146
1180.855
1179.522
1178.145
1176.711
1175.191
1173.493
1171.331
1167.901
1185.541
1184.379
1183.171
1181.919
1180.625
1179.29
1177.912
1176.486
1174.997
1173.391
1171.598
1169.341
1186.522
1185.405
1184.241
1183.032
1181.78
1180.485
1179.147
1177.768
1176.347
1174.878
1173.408
1171.918
1170.286
1187.513
1186.442
1185.326
1184.163
1182.956
1181.705
1180.409
1179.07
1177.691
1176.275
1174.883
1173.549
1172.203
1170.904
1188.492
1187.47
1186.402
1185.288
1184.129
1182.924
1181.673
1180.377
1179.04
1177.663
1176.302
1174.999
1173.721
1172.465
1171.344
1167.274
1170.966
1165.702
1173.755
1170.658
1163.957
1175.988
1173.812
1170.321
1162.405
1177.835
1176.1
1173.823
1170.047
1161.299
1179.401
1177.893
1176.144
1173.819
1169.904
1160.776
1180.757
1179.373
1177.87
1176.127
1173.815
1169.928
1160.88
1181.954
1180.639
1179.258
1177.766
1176.052
1173.811
1170.109
1161.594
1183.022
1181.754
1180.438
1179.06
1177.583
1175.914
1173.789
1170.405
1162.834
1183.985
1182.755
1181.481
1180.161
1178.786
1177.328
1175.71
1173.73
1170.754
1164.448
1184.873
1183.679
1182.441
1181.161
1179.837
1178.463
1177.019
1175.455
1173.628
1171.088
1166.42
1185.736
1184.581
1183.381
1182.137
1180.85
1179.522
1178.148
1176.716
1175.199
1173.507
1171.447
1168.416
1186.64
1185.526
1184.368
1183.164
1181.916
1180.627
1179.294
1177.918
1176.495
1175.009
1173.48
1171.839
1169.837
1187.576
1186.508
1185.394
1184.234
1183.029
1181.781
1180.488
1179.152
1177.776
1176.358
1174.954
1173.584
1172.168
1170.725
1188.52
1187.498
1186.431
1185.318
1184.16
1182.957
1181.707
1180.413
1179.076
1177.7
1176.337
1175.025
1173.732
1172.453
1171.294
1189.452
1188.478
1187.459
1186.395
1185.284
1184.128
1182.925
1181.676
1180.382
1179.046
1177.712
1176.415
1175.143
1173.906
1172.714
1171.551
1168.378
1171.172
1167.299
1173.613
1170.966
1165.744
1175.771
1173.74
1170.662
1164.02
1177.661
1175.965
1173.799
1170.332
1162.487
1179.31
1177.808
1176.08
1173.815
1170.064
1161.398
1180.757
1179.373
1177.87
1176.127
1173.815
1169.928
1160.88
1182.042
1180.729
1179.348
1177.85
1176.115
1173.815
1169.953
1160.984
1183.189
1181.927
1180.616
1179.239
1177.751
1176.044
1173.812
1170.131
1161.69
1184.218
1182.997
1181.732
1180.42
1179.046
1177.574
1175.908
1173.79
1170.425
1162.919
1185.146
1183.962
1182.735
1181.465
1180.15
1178.779
1177.321
1175.706
1173.733
1170.772
1164.787
1185.999
1184.853
1183.662
1182.429
1181.152
1179.832
1178.46
1177.018
1175.457
1173.636
1171.184
1166.946
1186.826
1185.719
1184.567
1183.371
1182.131
1180.849
1179.523
1178.15
1176.721
1175.207
1173.576
1171.675
1169.012
1187.689
1186.625
1185.515
1184.359
1183.159
1181.916
1180.628
1179.297
1177.923
1176.503
1175.073
1173.637
1172.093
1170.39
1188.581
1187.561
1186.496
1185.386
1184.23
1183.029
1181.783
1180.491
1179.158
1177.784
1176.415
1175.083
1173.757
1172.424
1171.186
1189.478
1188.505
1187.487
1186.423
1185.314
1184.159
1182.957
1181.709
1180.417
1179.083
1177.747
1176.444
1175.163
1173.913
1172.706
1171.519
1190.363
1189.438
1188.467
1187.451
1186.39
1185.283
1184.128
1182.926
1181.678
1180.386
1179.081
1177.794
1176.523
1175.283
1174.091
1172.855
1171.618
1169.04
1171.29
1168.397
1173.427
1171.176
1167.329
1175.482
1173.603
1170.97
1165.791
1177.398
1175.751
1173.729
1170.67
1164.087
1179.126
1177.635
1175.946
1173.791
1170.346
1162.575
1180.667
1179.282
1177.785
1176.064
1173.811
1170.086
1161.496
1182.042
1180.729
1179.348
1177.85
1176.115
1173.815
1169.953
1160.984
1183.273
1182.014
1180.705
1179.328
1177.834
1176.106
1173.816
1169.976
1161.086
1184.378
1183.163
1181.904
1180.596
1179.223
1177.74
1176.036
1173.812
1170.153
1161.786
1185.369
1184.194
1182.976
1181.714
1180.405
1179.036
1177.565
1175.902
1173.791
1170.444
1163.319
1186.261
1185.124
1183.943
1182.72
1181.453
1180.141
1178.771
1177.315
1175.703
1173.736
1170.861
1165.359
1187.079
1185.98
1184.837
1183.65
1182.419
1181.147
1179.828
1178.457
1177.017
1175.459
1173.674
1171.368
1167.483
1187.868
1186.809
1185.706
1184.557
1183.364
1182.128
1180.848
1179.523
1178.152
1176.726
1175.249
1173.698
1171.928
1169.717
1188.689
1187.673
1186.612
1185.506
1184.354
1183.158
1181.916
1180.63
1179.301
1177.929
1176.548
1175.178
1173.791
1172.363
1170.993
1189.537
1188.566
1187.55
1186.488
1185.381
1184.229
1183.029
1181.784
1180.495
1179.163
1177.824
1176.508
1175.206
1173.928
1172.686
1171.453
1190.389
1189.464
1188.494
1187.479
1186.418
1185.313
1184.159
1182.958
1181.711
1180.421
1179.115
1177.823
1176.545
1175.296
1174.093
1172.849
1171.591
1191.228
1190.349
1189.426
1188.458
1187.446
1186.388
1185.282
1184.128
1182.927
1181.681
1180.409
1179.138
1177.872
1176.627
1175.422
1174.194
1172.893
1171.699
1169.398
1171.353
1169.055
1173.273
1171.297
1168.42
1175.171
1173.423
1171.184
1167.365
1177.065
1175.467
1173.597
1170.979
1165.843
1178.854
1177.376
1175.735
1173.723
1170.683
1164.159
1180.486
1179.1
1177.614
1175.931
1173.787
1170.366
1162.662
1181.954
1180.639
1179.258
1177.766
1176.052
1173.811
1170.109
1161.594
1183.273
1182.014
1180.705
1179.328
1177.834
1176.106
1173.816
1169.976
1161.086
1184.459
1183.247
1181.991
1180.685
1179.311
1177.823
1176.098
1173.816
1170
1161.187
1185.522
1184.353
1183.141
1181.885
1180.58
1179.211
1177.729
1176.028
1173.812
1170.175
1162.234
1186.475
1185.346
1184.173
1182.958
1181.7
1180.394
1179.025
1177.556
1175.896
1173.792
1170.539
1163.961
1187.33
1186.24
1185.105
1183.928
1182.708
1181.445
1180.133
1178.764
1177.31
1175.7
1173.752
1171.025
1165.89
1188.11
1187.059
1185.964
1184.824
1183.64
1182.413
1181.142
1179.824
1178.454
1177.016
1175.47
1173.746
1171.562
1168.024
1188.861
1187.851
1186.795
1185.695
1184.55
1183.361
1182.126
1180.846
1179.523
1178.154
1176.749
1175.317
1173.824
1172.213
1170.58
1189.641
1188.674
1187.661
1186.603
1185.5
1184.352
1183.157
1181.916
1180.631
1179.304
1177.958
1176.617
1175.277
1173.946
1172.647
1171.353
1190.445
1189.522
1188.554
1187.541
1186.482
1185.379
1184.228
1183.029
1181.785
1180.498
1179.19
1177.888
1176.594
1175.324
1174.098
1172.834
1171.537
1191.252
1190.374
1189.452
1188.485
1187.473
1186.416
1185.311
1184.158
1182.959
1181.714
1180.441
1179.166
1177.894
1176.642
1175.427
1174.194
1172.887
1171.676
1192.047
1191.214
1190.338
1189.417
1188.453
1187.443
1186.386
1185.28
1184.128
1182.928
1181.694
1180.445
1179.191
1177.946
1176.728
1175.498
1174.216
1172.936
1171.789
1169.554
1171.385
1169.412
1173.171
1171.361
1169.076
1174.934
1173.274
1171.308
1168.449
1176.719
1175.164
1173.424
1171.197
1167.407
1178.516
1177.048
1175.457
1173.595
1170.992
1165.901
1180.219
1178.831
1177.357
1175.723
1173.721
1170.7
1164.232
1181.779
1180.46
1179.078
1177.597
1175.921
1173.788
1170.385
1162.749
1183.189
1181.927
1180.616
1179.239
1177.751
1176.044
1173.812
1170.131
1161.69
1184.459
1183.247
1181.991
1180.685
1179.311
1177.823
1176.098
1173.816
1170
1161.187
1185.599
1184.433
1183.224
1181.971
1180.668
1179.299
1177.811
1176.09
1173.817
1170.024
1161.661
1186.622
1185.498
1184.331
1183.122
1181.869
1180.568
1179.198
1177.718
1176.021
1173.813
1170.281
1162.939
1187.535
1186.452
1185.325
1184.156
1182.944
1181.689
1180.383
1179.014
1177.547
1175.889
1173.798
1170.706
1164.53
1188.352
1187.309
1186.221
1185.09
1183.916
1182.699
1181.436
1180.125
1178.756
1177.304
1175.686
1173.787
1171.189
1166.375
1189.095
1188.091
1187.043
1185.95
1184.814
1183.633
1182.407
1181.136
1179.819
1178.451
1177.011
1175.489
1173.819
1171.759
1168.55
1189.808
1188.845
1187.837
1186.784
1185.687
1184.545
1183.357
1182.123
1180.845
1179.523
1178.164
1176.781
1175.378
1173.954
1172.547
1171.217
1190.546
1189.626
1188.661
1187.651
1186.596
1185.496
1184.349
1183.155
1181.916
1180.632
1179.32
1177.998
1176.676
1175.369
1174.102
1172.812
1171.458
1191.307
1190.431
1189.51
1188.545
1187.535
1186.48
1185.377
1184.226
1183.029
1181.787
1180.513
1179.229
1177.944
1176.674
1175.44
1174.193
1172.876
1171.633
1192.07
1191.238
1190.362
1189.443
1188.479
1187.47
1186.414
1185.309
1184.158
1182.959
1181.724
1180.472
1179.212
1177.961
1176.735
1175.5
1174.216
1172.932
1171.771
1192.82
1192.033
1191.202
1190.329
1189.411
1188.449
1187.44
1186.383
1185.279
1184.127
1182.933
1181.712
1180.476
1179.239
1178.017
1176.784
1175.512
1174.24
1172.983
1171.887
1171.397
1169.567
1173.111
1171.393
1169.431
1174.781
1173.174
1171.373
1169.101
1176.46
1174.93
1173.279
1171.323
1168.484
1178.17
1176.709
1175.16
1173.429
1171.215
1167.454
1179.89
1178.497
1177.035
1175.451
1173.598
1171.011
1165.96
1181.523
1180.196
1178.812
1177.343
1175.716
1173.724
1170.718
1164.305
1183.022
1181.754
1180.438
1179.06
1177.583
1175.914
1173.789
1170.405
1162.834
1184.378
1183.163
1181.904
1180.596
1179.223
1177.74
1176.036
1173.812
1170.153
1161.786
1185.599
1184.433
1183.224
1181.971
1180.668
1179.299
1177.811
1176.09
1173.817
1170.024
1161.661
1186.695
1185.574
1184.41
1183.204
1181.955
1180.655
1179.286
1177.799
1176.081
1173.817
1170.137
1162.404
1187.676
1186.598
1185.476
1184.313
1183.106
1181.857
1180.555
1179.186
1177.707
1176.013
1173.816
1170.46
1163.554
1188.549
1187.513
1186.432
1185.308
1184.142
1182.933
1181.678
1180.372
1179.004
1177.538
1175.86
1173.814
1170.866
1165.027
1189.328
1188.331
1187.291
1186.206
1185.078
1183.906
1182.689
1181.427
1180.116
1178.749
1177.275
1175.668
1173.826
1171.349
1166.802
1190.033
1189.076
1188.075
1187.03
1185.94
1184.807
1183.627
1182.401
1181.131
1179.815
1178.436
1177.001
1175.508
1173.891
1171.951
1190.707
1189.791
1188.831
1187.826
1186.776
1185.682
1184.541
1183.353
1182.12
1180.843
1179.522
1178.17
1176.804
1175.435
1174.096
1172.781
1171.358
1191.405
1190.531
1189.613
1188.651
1187.644
1186.592
1185.493
1184.347
1183.154
1181.915
1180.638
1179.338
1178.029
1176.728
1175.459
1174.191
1172.858
1171.569
1192.123
1191.293
1190.418
1189.501
1188.538
1187.531
1186.477
1185.374
1184.225
1183.029
1181.793
1180.532
1179.261
1177.994
1176.75
1175.503
1174.215
1172.922
1171.735
1192.843
1192.056
1191.226
1190.353
1189.437
1188.476
1187.467
1186.411
1185.308
1184.157
1182.962
1181.738
1180.497
1179.254
1178.024
1176.787
1175.513
1174.239
1172.98
1171.871
1193.55
1192.807
1192.021
1191.193
1190.322
1189.408
1188.446
1187.437
1186.381
1185.278
1184.125
1182.936
1181.726
1180.504
1179.286
1178.056
1176.793
1175.525
1174.264
1173.033
1171.987
1173.083
1171.406
1169.586
1174.694
1173.115
1171.406
1169.455
1176.295
1174.78
1173.181
1171.39
1169.132
1177.912
1176.454
1174.931
1173.288
1171.343
1168.524
1179.556
1178.158
1176.703
1175.16
1173.438
1171.237
1167.503
1181.208
1179.871
1178.483
1177.026
1175.449
1173.605
1171.03
1166.018
1182.778
1181.5
1180.177
1178.797
1177.334
1175.713
1173.727
1170.736
1164.377
1184.218
1182.997
1181.732
1180.42
1179.046
1177.574
1175.908
1173.79
1170.425
1162.919
1185.522
1184.353
1183.141
1181.885
1180.58
1179.211
1177.729
1176.028
1173.812
1170.175
1162.234
1186.695
1185.574
1184.41
1183.204
1181.955
1180.655
1179.286
1177.799
1176.081
1173.817
1170.137
1162.404
1187.747
1186.671
1185.553
1184.392
1183.188
1181.942
1180.642
1179.273
1177.788
1176.073
1173.82
1170.326
1163.045
1188.685
1187.653
1186.577
1185.459
1184.298
1183.094
1181.844
1180.543
1179.174
1177.697
1175.976
1173.825
1170.628
1164.08
1189.518
1188.527
1187.493
1186.415
1185.295
1184.131
1182.922
1181.666
1180.361
1178.994
1177.493
1175.817
1173.835
1171.019
1165.449
1190.257
1189.307
1188.313
1187.276
1186.194
1185.069
1183.897
1182.68
1181.418
1180.108
1178.712
1177.23
1175.654
1173.866
1171.5
1190.925
1190.014
1189.06
1188.062
1187.02
1185.933
1184.8
1183.62
1182.395
1181.125
1179.792
1178.407
1176.99
1175.525
1173.957
1191.56
1190.69
1189.777
1188.819
1187.817
1186.771
1185.677
1184.536
1183.349
1182.117
1180.833
1179.508
1178.165
1176.816
1175.486
1174.186
1172.837
1171.489
1192.218
1191.39
1190.518
1189.603
1188.644
1187.64
1186.588
1185.49
1184.344
1183.152
1181.912
1180.637
1179.345
1178.051
1176.774
1175.508
1174.213
1172.91
1171.683
1192.895
1192.109
1191.28
1190.409
1189.494
1188.534
1187.528
1186.474
1185.372
1184.223
1183.027
1181.795
1180.544
1179.287
1178.04
1176.792
1175.515
1174.238
1172.973
1171.841
1193.572
1192.829
1192.044
1191.217
1190.347
1189.433
1188.472
1187.464
1186.409
1185.306
1184.153
1182.961
1181.746
1180.519
1179.293
1178.059
1176.795
1175.526
1174.263
1173.031
1171.975
1194.237
1193.536
1192.795
1192.012
1191.187
1190.318
1189.404
1188.443
1187.434
1186.379
1185.27
1184.116
1182.936
1181.736
1180.53
1179.311
1178.061
1176.8
1175.538
1174.288
1173.085
1172.09
1174.654
1173.088
1171.419
1169.609
1176.202
1174.694
1173.123
1171.423
1169.484
1177.748
1176.291
1174.783
1173.192
1171.411
1169.168
1179.307
1177.903
1176.452
1174.936
1173.301
1171.368
1168.565
1180.889
1179.542
1178.149
1176.7
1175.165
1173.452
1171.26
1167.553
1182.477
1181.189
1179.856
1178.473
1177.021
1175.451
1173.613
1171.049
1166.078
1183.985
1182.755
1181.481
1180.161
1178.786
1177.328
1175.71
1173.73
1170.754
1164.448
1185.369
1184.194
1182.976
1181.714
1180.405
1179.036
1177.565
1175.902
1173.791
1170.444
1163.319
1186.622
1185.498
1184.331
1183.122
1181.869
1180.568
1179.198
1177.718
1176.021
1173.813
1170.281
1162.939
1187.747
1186.671
1185.553
1184.392
1183.188
1181.942
1180.642
1179.273
1177.788
1176.073
1173.82
1170.326
1163.045
1188.753
1187.723
1186.65
1185.534
1184.376
1183.176
1181.928
1180.629
1179.26
1177.776
1176.033
1173.828
1170.5
1163.592
1189.649
1188.662
1187.633
1186.56
1185.444
1184.286
1183.082
1181.832
1180.53
1179.162
1177.644
1175.92
1173.839
1170.784
1164.521
1190.441
1189.497
1188.509
1187.477
1186.402
1185.284
1184.12
1182.91
1181.655
1180.351
1178.942
1177.424
1175.782
1173.858
1171.161
1191.142
1190.238
1189.29
1188.299
1187.264
1186.185
1185.059
1183.888
1182.671
1181.409
1180.067
1178.653
1177.19
1175.643
1173.904
1191.771
1190.906
1189.999
1189.047
1188.052
1187.012
1185.926
1184.792
1183.613
1182.389
1181.097
1179.75
1178.377
1176.976
1175.536
1192.369
1191.544
1190.676
1189.765
1188.811
1187.811
1186.765
1185.671
1184.531
1183.345
1182.1
1180.805
1179.484
1178.148
1176.816
1175.512
1174.209
1172.894
1171.616
1192.987
1192.203
1191.377
1190.508
1189.595
1188.639
1187.635
1186.584
1185.486
1184.341
1183.142
1181.896
1180.626
1179.344
1178.066
1176.799
1175.518
1174.236
1172.963
1171.797
1193.622
1192.881
1192.097
1191.271
1190.402
1189.49
1188.53
1187.524
1186.47
1185.37
1184.215
1183.016
1181.791
1180.55
1179.308
1178.064
1176.798
1175.527
1174.262
1173.025
1171.95
1194.259
1193.559
1192.818
1192.035
1191.21
1190.343
1189.429
1188.468
1187.461
1186.406
1185.296
1184.14
1182.955
1181.75
1180.537
1179.314
1178.063
1176.801
1175.538
1174.288
1173.083
1172.08
1194.881
1194.223
1193.525
1192.786
1192.005
1191.182
1190.314
1189.4
1188.439
1187.431
1186.367
1185.251
1184.104
1182.932
1181.745
1180.544
1179.313
1178.064
1176.806
1175.55
1174.313
1173.137
1172.191
1176.16
1174.655
1173.096
1171.437
1169.637
1177.656
1176.198
1174.698
1173.135
1171.445
1169.518
1179.15
1177.741
1176.291
1174.79
1173.207
1171.437
1169.204
1180.652
1179.297
1177.898
1176.453
1174.945
1173.319
1171.394
1168.607
1182.174
1180.874
1179.532
1178.144
1176.701
1175.173
1173.466
1171.284
1167.603
1183.698
1182.457
1181.173
1179.844
1178.466
1177.02
1175.453
1173.62
1171.069
1166.137
1185.146
1183.962
1182.735
1181.465
1180.15
1178.779
1177.321
1175.706
1173.733
1170.772
1164.787
1186.475
1185.346
1184.173
1182.958
1181.7
1180.394
1179.025
1177.556
1175.896
1173.792
1170.539
1163.961
1187.676
1186.598
1185.476
1184.313
1183.106
1181.857
1180.555
1179.186
1177.707
1176.013
1173.816
1170.46
1163.554
1188.753
1187.723
1186.65
1185.534
1184.376
1183.176
1181.928
1180.629
1179.26
1177.776
1176.033
1173.828
1170.5
1163.592
1189.715
1188.73
1187.703
1186.632
1185.519
1184.364
1183.163
1181.915
1180.616
1179.247
1177.719
1175.971
1173.839
1170.661
1164.047
1190.568
1189.627
1188.643
1187.616
1186.546
1185.432
1184.273
1183.069
1181.819
1180.518
1179.103
1177.56
1175.872
1173.854
1170.928
1191.32
1190.421
1189.478
1188.493
1187.464
1186.392
1185.273
1184.109
1182.899
1181.644
1180.296
1178.861
1177.364
1175.753
1173.882
1191.982
1191.122
1190.221
1189.275
1188.287
1187.254
1186.175
1185.05
1183.878
1182.662
1181.365
1179.999
1178.599
1177.155
1175.634
1192.573
1191.753
1190.891
1189.986
1189.037
1188.044
1187.005
1185.918
1184.785
1183.606
1182.356
1181.045
1179.707
1178.345
1176.959
1193.133
1192.353
1191.53
1190.665
1189.757
1188.804
1187.805
1186.759
1185.666
1184.526
1183.323
1182.059
1180.764
1179.445
1178.114
1176.807
1175.521
1174.234
1172.952
1171.74
1193.712
1192.972
1192.19
1191.367
1190.5
1189.59
1188.634
1187.63
1186.58
1185.482
1184.325
1183.113
1181.87
1180.606
1179.335
1178.072
1176.802
1175.529
1174.261
1173.018
1171.913
1194.307
1193.608
1192.869
1192.087
1191.264
1190.397
1189.485
1188.526
1187.52
1186.467
1185.356
1184.193
1182.998
1181.78
1180.552
1179.319
1178.067
1176.803
1175.539
1174.287
1173.079
1172.06
1194.902
1194.245
1193.547
1192.808
1192.028
1191.206
1190.338
1189.425
1188.465
1187.458
1186.392
1185.274
1184.123
1182.945
1181.752
1180.546
1179.315
1178.066
1176.807
1175.55
1174.312
1173.136
1172.184
1195.485
1194.868
1194.212
1193.516
1192.779
1192.001
1191.178
1190.31
1189.396
1188.436
1187.415
1186.34
1185.229
1184.089
1182.926
1181.749
1180.544
1179.313
1178.066
1176.811
1175.561
1174.337
1173.188
1172.29
1177.614
1176.157
1174.66
1173.109
1171.459
1169.67
1179.061
1177.65
1176.199
1174.706
1173.152
1171.471
1169.552
1180.503
1179.141
1177.738
1176.294
1174.801
1173.227
1171.464
1169.242
1181.949
1180.64
1179.29
1177.897
1176.458
1174.958
1173.337
1171.419
1168.65
1183.41
1182.158
1180.863
1179.525
1178.143
1176.706
1175.182
1173.479
1171.307
1167.654
1184.873
1183.679
1182.441
1181.161
1179.837
1178.463
1177.019
1175.455
1173.628
1171.088
1166.42
1186.261
1185.124
1183.943
1182.72
1181.453
1180.141
1178.771
1177.315
1175.703
1173.736
1170.861
1165.359
1187.535
1186.452
1185.325
1184.156
1182.944
1181.689
1180.383
1179.014
1177.547
1175.889
1173.798
1170.706
1164.53
1188.685
1187.653
1186.577
1185.459
1184.298
1183.094
1181.844
1180.543
1179.174
1177.697
1175.976
1173.825
1170.628
1164.08
1189.715
1188.73
1187.703
1186.632
1185.519
1184.364
1183.163
1181.915
1180.616
1179.247
1177.719
1175.971
1173.839
1170.661
1164.047
1190.632
1189.693
1188.711
1187.686
1186.618
1185.507
1184.351
1183.15
1181.902
1180.603
1179.184
1177.629
1175.918
1173.852
1170.808
1191.442
1190.546
1189.608
1188.627
1187.602
1186.534
1185.42
1184.261
1183.057
1181.807
1180.456
1179.007
1177.487
1175.833
1173.872
1192.154
1191.3
1190.403
1189.463
1188.48
1187.454
1186.381
1185.262
1184.098
1182.888
1181.588
1180.208
1178.789
1177.312
1175.729
1192.777
1191.963
1191.106
1190.206
1189.264
1188.278
1187.245
1186.166
1185.04
1183.869
1182.616
1181.291
1179.937
1178.551
1177.124
1193.331
1192.556
1191.738
1190.878
1189.976
1189.029
1188.036
1186.997
1185.911
1184.778
1183.571
1182.297
1180.992
1179.662
1178.31
1193.854
1193.117
1192.339
1191.519
1190.656
1189.75
1188.798
1187.799
1186.753
1185.66
1184.5
1183.272
1182.006
1180.708
1179.386
1178.082
1176.807
1175.53
1174.259
1173.01
1171.864
1194.394
1193.697
1192.959
1192.18
1191.359
1190.495
1189.585
1188.629
1187.626
1186.575
1185.462
1184.287
1183.075
1181.835
1180.578
1179.328
1178.072
1176.806
1175.54
1174.286
1173.074
1172.03
1194.95
1194.293
1193.596
1192.859
1192.08
1191.259
1190.393
1189.48
1188.522
1187.516
1186.45
1185.325
1184.164
1182.974
1181.766
1180.552
1179.319
1178.068
1176.808
1175.55
1174.312
1173.133
1172.169
1195.505
1194.889
1194.233
1193.538
1192.802
1192.024
1191.201
1190.334
1189.421
1188.461
1187.44
1186.362
1185.247
1184.101
1182.933
1181.752
1180.546
1179.315
1178.067
1176.812
1175.562
1174.337
1173.188
1172.286
1196.048
1195.472
1194.857
1194.203
1193.509
1192.775
1191.996
1191.174
1190.306
1189.392
1188.417
1187.382
1186.31
1185.204
1184.071
1182.923
1181.747
1180.542
1179.313
1178.067
1176.816
1175.573
1174.362
1173.239
1172.385
1179.021
1177.609
1176.158
1174.668
1173.126
1171.485
1169.704
1180.418
1179.053
1177.648
1176.204
1174.718
1173.173
1171.499
1169.587
1181.807
1180.492
1179.136
1177.739
1176.302
1174.816
1173.248
1171.491
1169.279
1183.196
1181.936
1180.632
1179.286
1177.899
1176.467
1174.971
1173.355
1171.445
1168.693
1184.597
1183.393
1182.146
1180.855
1179.522
1178.145
1176.711
1175.191
1173.493
1171.331
1167.901
1185.999
1184.853
1183.662
1182.429
1181.152
1179.832
1178.46
1177.018
1175.457
1173.636
1171.184
1166.946
1187.33
1186.24
1185.105
1183.928
1182.708
1181.445
1180.133
1178.764
1177.31
1175.7
1173.752
1171.025
1165.89
1188.549
1187.513
1186.432
1185.308
1184.142
1182.933
1181.678
1180.372
1179.004
1177.538
1175.86
1173.814
1170.866
1165.027
1189.649
1188.662
1187.633
1186.56
1185.444
1184.286
1183.082
1181.832
1180.53
1179.162
1177.644
1175.92
1173.839
1170.784
1164.521
1190.632
1189.693
1188.711
1187.686
1186.618
1185.507
1184.351
1183.15
1181.902
1180.603
1179.184
1177.629
1175.918
1173.852
1170.808
1191.504
1190.61
1189.673
1188.694
1187.672
1186.606
1185.495
1184.339
1183.137
1181.889
1180.537
1179.082
1177.55
1175.874
1173.867
1192.273
1191.422
1190.528
1189.592
1188.613
1187.591
1186.523
1185.409
1184.249
1183.045
1181.744
1180.356
1178.924
1177.424
1175.8
1192.945
1192.134
1191.282
1190.388
1189.45
1188.47
1187.443
1186.37
1185.251
1184.087
1182.832
1181.498
1180.131
1178.726
1177.267
1193.53
1192.759
1191.946
1191.092
1190.195
1189.255
1188.268
1187.236
1186.156
1185.031
1183.822
1182.538
1181.224
1179.88
1178.507
1194.047
1193.314
1192.541
1191.726
1190.868
1189.968
1189.021
1188.029
1186.989
1185.903
1184.74
1183.505
1182.236
1180.938
1179.616
1194.532
1193.838
1193.104
1192.328
1191.51
1190.65
1189.744
1188.791
1187.793
1186.747
1185.63
1184.441
1183.208
1181.937
1180.631
1179.338
1178.078
1176.809
1175.541
1174.285
1173.068
1171.988
1195.034
1194.38
1193.685
1192.949
1192.172
1191.353
1190.489
1189.579
1188.623
1187.621
1186.552
1185.415
1184.239
1183.028
1181.792
1180.56
1179.325
1178.071
1176.81
1175.551
1174.311
1173.13
1172.146
1195.551
1194.936
1194.282
1193.587
1192.852
1192.075
1191.254
1190.388
1189.476
1188.518
1187.495
1186.411
1185.287
1184.129
1182.947
1181.757
1180.55
1179.317
1178.069
1176.813
1175.562
1174.337
1173.187
1172.276
1196.068
1195.492
1194.878
1194.224
1193.531
1192.797
1192.019
1191.197
1190.329
1189.416
1188.441
1187.403
1186.327
1185.216
1184.078
1182.925
1181.749
1180.543
1179.313
1178.068
1176.816
1175.573
1174.362
1173.239
1172.383
1196.571
1196.035
1195.461
1194.848
1194.196
1193.505
1192.77
1191.992
1191.169
1190.302
1189.371
1188.379
1187.346
1186.277
1185.177
1184.061
1182.92
1181.744
1180.539
1179.311
1178.068
1176.82
1175.584
1174.385
1173.287
1172.516
1180.381
1179.014
1177.607
1176.163
1174.681
1173.147
1171.513
1169.738
1181.726
1180.409
1179.049
1177.649
1176.212
1174.734
1173.194
1171.526
1169.623
1183.061
1181.795
1180.485
1179.134
1177.743
1176.313
1174.832
1173.268
1171.517
1169.318
1184.393
1183.182
1181.926
1180.627
1179.286
1177.905
1176.477
1174.984
1173.373
1171.471
1168.903
1185.736
1184.581
1183.381
1182.137
1180.85
1179.522
1178.148
1176.716
1175.199
1173.507
1171.447
1168.416
1187.079
1185.98
1184.837
1183.65
1182.419
1181.147
1179.828
1178.457
1177.017
1175.459
1173.674
1171.368
1167.483
1188.352
1187.309
1186.221
1185.09
1183.916
1182.699
1181.436
1180.125
1178.756
1177.304
1175.686
1173.787
1171.189
1166.375
1189.518
1188.527
1187.493
1186.415
1185.295
1184.131
1182.922
1181.666
1180.361
1178.994
1177.493
1175.817
1173.835
1171.019
1165.449
1190.568
1189.627
1188.643
1187.616
1186.546
1185.432
1184.273
1183.069
1181.819
1180.518
1179.103
1177.56
1175.872
1173.854
1170.928
1191.504