/*--------------------------------*- C++ -*----------------------------------*\
| =========                 |                                                 |
| \\      /  F ield         | OpenFOAM: The Open Source CFD Toolbox           |
|  \\    /   O peration     | Version:  2306                                  |
|   \\  /    A nd           | Website:  www.openfoam.com                      |
|    \\/     M anipulation  |                                                 |
\*---------------------------------------------------------------------------*/
FoamFile
{
    version     2.0;
    format      ascii;
    arch        "LSB;label=32;scalar=64";
    class       volScalarField;
    location    "0.6";
    object      contErrCp;
}
// * * * * * * * * * * * * * * * * * * * * * * * * * * * * * * * * * * * * * //

dimensions      [1 -1 -3 -1 0 0 0];

internalField   nonuniform List<scalar> 
52000
(
0
0
0
0
0
0
0
0
0
0
0
0
0
0
0
0
0
0
0
0
0
0
0
0
0
0
0
0
0
0
0
0
0
0
0
0
0
0
0
0
0
0
0
0
0
0
0
0
0
0
0
0
0
0
0
0
0
0
0
0
0
0
0
0
0
0
0
0
0
0
0
0
0
0
0
0
0
0
0
0
0
0
0
0
0
0
0
0
0
0
0
0
0
0
0
0
0
0
0
0
0
0
0
0
0
0
0
0
0
0
0
0
0
0
0
0
0
0
0
0
0
0
0
0
0
0
0
0
0
0
0
0
0
0
0
0
0
0
0
0
0
0
0
0
0
0
0
0
0
0
0
0
0
0
0
0
0
0
0
0
0
0
0
0
0
0
0
0
0
0
0
0
0
0
0
0
0
0
0
0
0
0
0
0
0
0
0
0
0
0
0
0
0
0
0
0
0
0
0
0
0
0
0
0
0
0
0
0
0
0
0
0
0
0
0
0
0
0
0
0
0
0
0
0
0
0
0
0
0
0
0
0
0
0
0
0
0
0
0
0
-0.000347895
0
0
0
0
0
0
0
0
0
0
0
0
0
0
0
0
0
0
0
0
0
0
0
0
0
0
0
0
0
0
0
0
0
0
0
0
0
0
0
0
0
0
0
0
0
0
0
0
0
0
0
0
0
0
0
0
0
0
0
0
0
0
0
0
0
0.0001161069
0
0
0
0
0
-8.352097e-05
0.0002705514
0
0
0
0
0
0
0
0
0
0
0
0
0
0
0
0
0
0
0
0
0
0
0
0
0
0
0
0
0
0
0
0
0
0
0
0
0
0
0
0
0
0
0
0
0
0
0
0
0
0
0
0
0
0
0
0
0
0
0
0
0
0
0
0
0
0
0
0
0
0
0.0001889003
0
0
0
0
0
0.0001717722
0.0007602455
0
0
0
0
0
1.069037e-05
-0.0007128843
0.0001382393
0
0
0
0
0
0
0
0
0
0
0
0
0
0
0
0
0
0
0
0
0
0
0
0
0
0
0
0
0
0
0
0
0
0
0
0
0
0
0
0
0
0
0
0
0
0
0
0
0
0
0
0
0
0
0
0
0
0
0
0
0
0
0
0
0
0
0
0
0
0
0
0
0
0
0
0.0005306501
0
0
0
0
0
0.000421238
0.0002623617
0
0
0
0
0
-0.0006237725
0.0008665483
-0.001045293
0
0
0
0
0
-0.0005406957
5.911206e-05
0.0003030841
-7.274105e-05
0
0
0
0
0
0
0
0
0
0
0
0
0
0
0
0
0
0
0
0
0
0
0
0
0
0
0
0
0
0
0
0
0
0
0
0
0
0
0
0
0
0
0
0
0
0
0
0
0
0
0
0
0
0
0
0
0
0
0
0
0
0
0
0
0
0
0
0
0
0
0
0
0
0
0
0
0
0
0
0
0.0002132239
0
0
0
0
0
-0.001178728
-0.001531727
0
0
0
0
0
0.0002282571
-0.0009603011
0.001953641
0
0
0
0
0
0.0005765034
0.001664152
0.000830985
0.0004742563
0
0
0
0
0
0.0003538951
9.031605e-05
-0.0004320904
-0.000743758
-0.0006523294
0
0
0
0
0
0
0
0
0
0
0
0
0
0
0
0
0
0
0
0
0
0
0
0
0
0
0
0
0
0
0
0
0
0
0
0
0
0
0
0
0
0
0
0
0
0
0
0
0
0
0
0
0
0
0
0
0
0
0
0
0
0
0
0
0
0
0
0
0
0
0
0
0
0
0
0
0
0
0
0
0
0
0
0
0
0.0007142608
0
0
0
0
0
0.001223116
-0.0007912536
0
0
0
0
0
0.0001562971
0.001339461
-0.001787782
0
0
0
0
0
-0.0003039692
-0.0006235593
-0.001521826
-0.002089602
0
0
0
0
0
-0.0006974719
0.0005923214
0.0001027582
5.958318e-05
-0.0006124992
0
0
0
0
0
0.0002072219
-0.0004556075
0.0003477078
0.0004259515
0.0005325751
0.0008261009
0
0
0
0
0
0
0
0
0
0
0
0
0
0
0
0
0
0
0
0
0
0
0
0
0
0
0
0
0
0
0
0
0
0
0
0
0
0
0
0
0
0
0
0
0
0
0
0
0
0
0
0
0
0
0
0
0
0
0
0
0
0
0
0
0
0
0
0
0
1.898965e-06
0
0
0
0
0
0
0
0
0
0
0
0
0
0
0
0
0
0
0
0
-0.0004560082
0
0
0
0
0
-0.0003047785
-9.646541e-05
0
0
0
0
0
-0.000321377
-0.001146265
0.0009897954
0
0
0
0
0
0.0001749213
-0.0009295686
0.0002825495
0.0003221694
0
0
0
0
0
0.0004062402
-0.0004669375
-0.001305544
0.002650245
0.00306111
0
0
0
0
0
-0.0005153079
0.001081859
0.0005537364
-0.000754167
-0.0006615612
0.0004699375
0
0
0
0
0
-0.000439494
-7.479251e-05
-0.0003652179
-1.640942e-05
0.0002222968
0.0001382955
-0.0006310852
0
0
0
0
0
0
0
0
0
0
0
0
0
0
0
0
0
0
0
0
0
0
0
0
0
0
0
0
0
0
0
0
0
0
0
0
0
0
0
0
0
0
0
0
0
0
0
0
0
0
0
0
0
0
0
0
0
1.493535e-06
0
0
0
0
0
0
0
0
0
0
0
0
0
0
0
-8.251385e-07
-4.013672e-06
0
0
0
0
0
0
0
0
0
0
0
0
0
0
0
0
0
0
0
0
0.0008071769
0
0
0
0
0
-1.765486e-05
0.0005020582
0
0
0
0
0
0.000626672
-0.000146356
-0.0004515059
0
0
0
0
0
-0.0001172063
-8.445574e-05
5.0158e-05
0.0004257818
0
0
0
0
0
0.000114927
0.0005836604
0.001252019
-0.001815803
-0.0001256682
0
0
0
0
0
-1.250328e-05
-0.0006757851
-5.005699e-05
0.001378716
-0.001840426
2.901297e-05
0
0
0
0
0
3.34999e-05
-0.0003898047
0.0001304118
-0.001312692
-0.001913883
-2.708492e-05
0.0001330946
0
0
0
0
0
0.0001751803
-4.553965e-05
-0.0007934797
0.0005230433
-0.0004481367
-3.36834e-05
-0.0007008151
-0.0003863046
0
0
0
0
0
0
0
0
0
0
0
0
0
0
0
0
0
0
0
0
0
0
0
0
0
0
0
0
0
0
0
0
0
0
0
0
0
0
0
0
0
0
0
0
-1.87626e-06
0
0
0
0
0
0
0
0
0
0
0
0
0
0
0
3.45827e-06
3.696667e-06
0
0
0
0
0
0
0
0
0
0
0
0
0
0
0
-3.313967e-07
3.660626e-06
-1.542914e-06
0
0
0
0
0
0
0
0
0
0
0
0
0
0
0
0
0
0
0
0
-9.15063e-05
0
0
0
0
0
0.0004982447
-0.0003331817
0
0
0
0
0
-0.0005039484
0.0009956168
-9.536908e-05
0
0
0
0
0
-0.0001195251
0.0002175544
-0.0001413437
0.0006137746
0
0
0
0
0
-0.0006778837
0.0009063234
0.000295706
-0.001010207
-0.0007255997
0
0
0
0
0
0.0001849299
0.001043102
-0.00104835
-0.0008225302
0.002217116
0.001545828
0
0
0
0
0
0.0005887409
0.0006444879
-0.0001578903
0.0007899658
0.0004593426
-0.00112567
-0.002366659
0
0
0
0
0
-0.0003229526
0.0009630305
0.001307171
-0.0002510168
0.001094282
0.0005167374
0.0003545798
-0.0001649015
0
0
0
0
0
0.0003305976
-0.0004612676
4.689976e-05
0.0001869735
-3.773604e-05
0.000645153
0.0002124343
-0.0001715133
6.740017e-05
0
0
0
0
0
0
0
0
0
0
0
0
0
0
0
0
0
0
0
0
0
0
0
0
0
0
0
0
0
0
2.087757e-06
0
0
0
0
0
0
0
0
0
0
0
0
0
0
0
1.451183e-06
2.811841e-06
0
0
0
0
0
0
0
0
0
0
0
0
0
0
0
-4.485654e-07
3.630289e-06
3.667768e-06
0
0
0
0
0
0
0
0
0
0
0
0
0
0
0
-2.177219e-07
4.077211e-06
5.853092e-07
-1.207106e-06
0
0
0
0
0
0
0
0
0
0
0
0
0
0
0
0
0
0
0
0
0.0001768854
0
0
0
0
0
-0.0006897997
-0.0008114682
0
0
0
0
0
3.26908e-05
-0.001642559
0.0005318484
0
0
0
0
0
0.0007335356
-0.0004612029
0.0008662218
-0.0002424923
0
0
0
0
0
0.0005612755
-0.0003000905
0.0003690157
0.0001747968
0.000916429
0
0
0
0
0
-0.0004109918
0.001169159
0.0003874575
-0.0004971581
-0.0004167577
-0.001626193
0
0
0
0
0
0.0001494724
0.0002900644
-0.002158495
-0.0004820246
0.0006117388
-0.001136956
-0.001722292
0
0
0
0
0
0.0003633256
-0.0009893996
-0.000729367
0.0008376302
-0.001424582
7.79577e-05
0.0003365813
0.002596762
0
0
0
0
0
4.138506e-05
0.0009088962
0.0005506962
8.351984e-05
-0.0001032058
-0.001607437
-5.35576e-05
-0.000144044
3.691122e-05
0
0
0
0
0
-2.263193e-05
-0.000366461
0.0003425563
-0.0001506514
0.0001482835
-0.000205992
0.0002028546
-0.0002629184
0.0003491964
-2.818083e-05
0
0
0
0
0
0
0
0
0
0
0
0
0
0
0
5.240536e-06
0
0
0
0
0
0
0
0
0
0
0
0
0
0
0
-1.408148e-06
3.868702e-06
0
0
0
0
0
0
0
0
0
0
0
0
0
0
0
3.515062e-06
-2.275969e-06
2.321879e-06
0
0
0
0
0
0
0
0
0
0
0
0
0
0
0
4.203242e-06
4.446842e-06
2.05338e-06
-5.122437e-06
0
0
0
0
0
0
0
0
0
0
0
0
0
0
0
-8.391439e-07
-1.444548e-06
4.165546e-06
1.992375e-06
-5.519196e-07
0
0
0
0
0
0
0
0
0
0
0
0
0
0
0
0
0
0
0
0
0
0
0
0
0
0.0002449399
0.0001799115
0
0
0
0
0
-0.0001079564
0.001001132
0.0001965109
0
0
0
0
0
-0.0005812487
0.0007502603
-1.439848e-05
0.0001443669
0
0
0
0
0
3.097855e-05
-0.0009821433
-0.001473256
-0.0007100204
-6.479711e-05
0
0
0
0
0
0.0003751669
-0.001434732
-0.00156301
0.001157699
0.0005208178
-0.001770143
0
0
0
0
0
0.0003758259
0.0008674025
0.0004899787
0.0008128727
-0.0004802102
0.0006126926
0.0003242907
0
0
0
0
0
-0.0007003616
-0.0005115145
-0.001239204
-0.0003102167
0.001747575
-1.109447e-05
0.001340382
0.001033533
0
0
0
0
0
0.0003127835
-6.931325e-05
0.0008698254
-0.0006015549
0.0004678594
6.441719e-05
0.001729117
0.0002470767
-0.001961754
0
0
0
0
0
-5.911573e-05
-0.0004212831
-0.001700844
0.0004079033
0.0003615059
-0.0002811674
-0.0007693868
-0.001004632
-0.0003567614
-0.0003846204
0
0
0
0
0
-0.0002749249
0.0003153218
0.0003437861
-0.0002120206
7.523317e-05
0.0002655754
0.0002145857
-3.625875e-05
-0.000331457
-0.0001367581
0.0002621774
0
0
0
0
0
0
0
0
0
0
0
0
0
0
0
-3.650265e-06
2.641791e-06
0
0
0
0
0
0
0
0
0
0
0
0
0
0
0
5.020251e-07
7.42642e-06
-2.483238e-06
0
0
0
0
0
0
0
0
0
0
0
0
0
0
0
-2.504412e-06
-2.826662e-06
1.384225e-06
-7.004163e-07
0
0
0
0
0
0
0
0
0
0
0
0
0
0
0
7.787158e-07
-2.379743e-07
-9.680127e-07
-2.375061e-06
-1.567143e-06
0
0
0
0
0
0
0
0
0
0
0
0
0
0
0
-3.71397e-07
2.496364e-06
-4.590101e-07
-1.48929e-06
-5.806248e-06
-2.659575e-05
0
0
0
0
0
0
0
0
0
0
0
0
0
0
0
0
0
0
0
0
0
0
0
0
0
0
0
0
0
0
-6.791251e-05
-0.0007198898
-5.849592e-05
0
0
0
0
0
0.000570812
-0.0005278271
-0.0009259245
0.0007744859
0
0
0
0
0
0.0002649403
0.00163979
0.0005201524
-0.0003148806
-4.157847e-06
0
0
0
0
0
-0.0005037393
0.0001405798
0.0009903433
-0.001390231
-0.000221358
0.0002278808
0
0
0
0
0
-2.773205e-06
-0.000147728
0.0003932867
-0.0008581754
-0.0004104495
-0.0001013799
0.0006968255
0
0
0
0
0
0.0002609782
0.0003263592
0.0004241556
0.0005529864
-0.0008125933
-0.0003764837
0.0009300391
3.722632e-05
0
0
0
0
0
-4.709007e-05
0.001041621
-0.0003676791
-0.0001042087
0.0009187175
0.001230278
-0.001468327
-0.0004234924
0.0002300957
0
0
0
0
0
0.0001272016
1.870734e-05
0.002055326
-0.001207755
-0.0008268662
-0.0007659714
0.001300131
0.0004456432
0.0005574467
0.0006851209
0
0
0
0
0
0.0004870886
-0.0007078063
-0.0006256708
0.001082857
-0.001608807
-0.0006177744
-0.00111055
0.0002433737
0.001619488
0.000409508
-0.0001816528
0
0
0
0
0
-0.0001512671
0.0001089664
-0.0005705461
4.060999e-05
0.0003734201
-0.0002096923
0.0005402853
-6.521289e-05
-0.0001319837
0.0005245835
1.924221e-05
-2.940344e-06
0
0
0
0
0
0
0
0
0
0
0
0
0
0
0
-3.247071e-06
-1.005417e-06
-3.473375e-06
0
0
0
0
0
0
0
0
0
0
0
0
0
0
0
6.414317e-07
8.167706e-07
6.489455e-07
6.991676e-06
0
0
0
0
0
0
0
0
0
0
0
0
0
0
0
-2.774602e-07
3.891935e-06
-1.05802e-06
-3.02506e-06
-3.891226e-06
0
0
0
0
0
0
0
0
0
0
0
0
0
0
0
-2.633575e-06
1.533733e-06
4.815102e-06
3.974863e-06
4.902506e-06
1.617069e-05
0
0
0
0
0
0
0
0
0
0
0
0
0
0
0
-2.697055e-07
1.815725e-06
-1.739587e-08
-2.205703e-06
-1.192001e-06
-1.865189e-05
-1.917634e-05
0
0
0
0
0
0
0
0
0
0
0
0
0
0
0
0
0
0
0
0
0
0
0
0
0
0
0
0
0
0
0
0
0
0
0
-4.984479e-05
-0.0002795856
0.0006297155
0.0001858781
0
0
0
0
0
-0.0004805177
-0.0005658148
0.0002495638
-0.0009163033
-0.0002208033
0
0
0
0
0
-0.0001645107
-0.001400503
0.0002213769
0.001038642
0.001726787
-0.001002591
0
0
0
0
0
0.000205011
-8.67245e-05
0.0002466341
-0.001131379
0.001055811
-0.001192866
-0.0001386535
0
0
0
0
0
9.006643e-05
-0.0003090744
-0.001071459
0.0007738889
0.001541799
5.157068e-05
-0.0007873282
-9.804697e-06
0
0
0
0
0
-0.0007800954
-0.0001935507
-0.0003025058
-0.0009994258
-0.002271199
-0.001468859
0.0002034055
-8.531447e-05
-0.0005962273
0
0
0
0
0
-0.0004976272
-0.0003926383
-0.0003244739
0.0005023652
0.001902723
0.0002497668
-0.002524283
-0.0002739219
-0.0009763473
-0.0001990058
0
0
0
0
0
-0.0003733615
0.0009240291
0.0002098123
-0.001766961
0.003027902
0.000137066
0.001152702
0.001110599
-0.001199098
-0.000704826
0.0003974436
0
0
0
0
0
-9.385323e-05
0.0002093871
0.0002630941
0.0004108667
-0.0002784774
0.00063764
-0.0003448696
-0.0002509689
-0.0005932649
-0.001344746
4.67346e-05
2.67415e-07
0
0
0
0
0
7.25667e-05
-0.00100999
-0.0006448123
0.0006002982
-0.0005218908
0.0001669538
-0.000680707
-0.0006471241
0.001043559
-0.0002517325
1.130132e-05
-6.67667e-08
1.744046e-06
0
0
0
0
0
0
0
0
0
0
0
0
0
0
0
1.945078e-06
1.76071e-06
1.061222e-06
-1.720284e-06
0
0
0
0
0
0
0
0
0
0
0
0
0
0
0
1.244053e-06
-2.046424e-06
-1.338167e-06
-1.799477e-07
-4.906943e-06
0
0
0
0
0
0
0
0
0
0
0
0
0
0
0
-1.441079e-06
1.693473e-06
1.090298e-06
-1.651486e-06
-4.889705e-06
-6.587283e-07
0
0
0
0
0
0
0
0
0
0
0
0
0
0
0
-8.469745e-07
-4.088865e-06
-1.774757e-06
-8.78013e-07
-1.484799e-07
-2.561186e-05
-5.149843e-05
0
0
0
0
0
0
0
0
0
0
0
0
0
0
0
1.475118e-06
-3.363376e-07
-9.004859e-07
9.217609e-08
1.736636e-06
-3.579954e-05
1.597026e-05
2.326191e-05
0
0
0
0
0
0
0
0
0
0
0
0
0
0
0
0
0
0
0
0
0
0
0
0
0
0
0
0
0
0
0
0
0
0
0
0
0
0
0
0
2.761047e-05
-0.0004707819
0.000637086
0.0002072199
-0.0005649985
0
0
0
0
0
0.0003666331
0.00097463
0.0001551048
-0.0005598437
0.001044196
0.001166626
0
0
0
0
0
-0.001035178
0.001348427
0.0004945283
0.0004220328
3.975684e-05
-0.0001260219
0.0006820191
0
0
0
0
0
0.0001891448
8.593061e-05
0.0003179492
-0.001008678
-0.001197051
0.001112699
0.0002686721
-0.0005145863
0
0
0
0
0
0.0006517517
0.001585953
-0.0005292328
-0.0005889969
0.0004268855
0.0006377996
-0.001171304
-0.0005382
0.001353452
0
0
0
0
0
-2.178168e-05
0.002196669
-0.001184441
3.857672e-05
-0.0002463913
0.001845944
0.001880912
0.000603271
0.0003168767
-0.0002855809
0
0
0
0
0
-0.0001637794
0.001987764
-0.0007310204
-0.001401569
-0.0004506357
-0.0009958387
-0.001299957
-0.0001409447
-8.274e-05
0.0005927242
0.0002257991
0
0
0
0
0
-0.00077545
0.0001093305
-0.0003241649
-0.000176427
0.001250584
-0.0007004141
-0.0003335453
-0.00126505
-0.0006982493
0.0002299299
-6.523536e-05
5.096558e-06
0
0
0
0
0
0.0001022176
0.002194225
-0.000490251
-0.0003813327
0.0006783841
-0.001540673
0.001697382
2.097293e-05
-0.0008415735
0.001666293
0.0004148635
-2.424217e-06
5.167524e-07
0
0
0
0
0
-0.0001228438
-0.0008239329
0.0005159337
0.0001713567
-0.0001234069
-0.0001922313
-0.0001643191
0.0001948415
0.0001312686
-0.0001600461
-5.563713e-05
-2.173518e-06
9.967775e-07
-2.076661e-06
0
0
0
0
0
0
0
0
0
0
0
0
0
0
0
2.789814e-07
3.103467e-06
-1.317181e-07
-6.003966e-06
7.571828e-07
0
0
0
0
0
0
0
0
0
0
0
0
0
0
0
1.247196e-06
-1.421377e-06
-3.475767e-06
-6.75852e-08
-6.851815e-07
-2.997679e-05
0
0
0
0
0
0
0
0
0
0
0
0
0
0
0
1.901309e-07
8.218754e-07
4.830903e-07
1.576436e-06
-2.998518e-06
-2.94954e-05
3.227959e-06
0
0
0
0
0
0
0
0
0
0
0
0
0
0
0
2.656458e-06
-3.955434e-07
-2.096795e-07
-1.194278e-06
-1.241039e-06
-1.131257e-05
-1.592351e-05
-1.819866e-05
0
0
0
0
0
0
0
0
0
0
0
0
0
0
0
1.238356e-06
-2.995867e-06
3.437291e-06
-2.87664e-06
1.21046e-07
-1.414883e-05
2.898347e-05
-4.055658e-05
-1.4484e-05
0
0
0
0
0
0
0
0
0
0
0
0
0
0
0
0
0
0
0
0
0
0
0
0
0
0
0
0
0
0
0
0
0
0
0
0
0
0
0
0
0
0
0
0
0
0.0001067245
-0.00017439
1.609525e-05
0.0001318088
-0.0001227254
-6.472293e-05
0
0
0
0
0
0.0002207312
-0.0001468382
7.990178e-05
-6.156963e-05
-0.001751524
3.341398e-06
-7.702746e-05
0
0
0
0
0
-3.0006e-05
0.001797592
-0.001575306
-0.0002396512
-0.0002746247
-0.001133116
0.0002547158
-0.0005096326
0
0
0
0
0
-0.0002806364
-0.002066232
-0.001056264
0.001020291
-7.285431e-05
0.001350341
0.0003280823
0.001207948
-0.000693566
0
0
0
0
0
0.0003930445
-0.0001737354
0.0001684617
0.001728706
-1.242855e-05
-0.0008518587
-0.001018879
0.001507128
0.0001590914
-9.078098e-05
0
0
0
0
0
0.0003737555
-0.0009675635
0.0002407119
-0.0003863777
-0.0005850411
0.001446389
0.0007147531
-9.700935e-05
-0.0003999513
-0.00165668
5.276949e-05
0
0
0
0
0
0.0001613282
0.0007128064
-0.002626351
-0.0005117049
2.078733e-05
-8.097762e-05
-4.556325e-06
0.0007641125
0.00045457
0.001058415
-0.0005069784
-2.493491e-06
0
0
0
0
0
0.0001610709
0.0001816481
0.001337899
0.002309229
-0.001086525
0.0001413943
-0.0002527641
-0.0005268883
0.001655734
-0.0007164573
-0.0002234313
-3.448887e-06
-1.760379e-06
0
0
0
0
0
-0.0003732469
0.0003818918
-3.364876e-05
-0.0004594651
0.00111749
0.001252874
0.001552032
-0.0006986658
0.00146109
8.881433e-05
-0.0005795436
1.796325e-07
4.919452e-06
-7.154546e-07
0
0
0
0
0
-0.0003306108
0.0001707491
0.0003995359
0.0001390829
0.0004245524
-0.0002295661
-0.0004845606
-0.0002533334
0.0009711046
-0.0003917123
-0.0002371119
2.291089e-06
4.991832e-07
-6.046492e-06
3.556759e-06
0
0
0
0
0
0
0
0
0
0
0
0
0
0
0
-1.968327e-06
9.985257e-08
-1.785881e-06
6.255994e-07
1.725838e-06
-2.406422e-05
0
0
0
0
0
0
0
0
0
0
0
0
0
0
0
-4.373446e-07
9.134111e-06
-2.855295e-07
5.140531e-07
-1.502219e-06
4.14596e-07
1.402128e-05
0
0
0
0
0
0
0
0
0
0
0
0
0
0
0
-1.091001e-06
3.514858e-06
-2.984219e-06
2.68029e-06
2.634243e-06
6.723931e-06
2.015744e-05
-1.63375e-05
0
0
0
0
0
0
0
0
0
0
0
0
0
0
0
-5.413363e-07
3.802731e-06
-2.609642e-06
7.625046e-08
6.055184e-07
-8.211252e-06
8.318415e-07
2.459314e-05
7.844932e-06
0
0
0
0
0
0
0
0
0
0
0
0
0
0
0
-1.722084e-06
-7.374775e-07
-3.579138e-06
5.226087e-07
5.052119e-07
-4.714549e-06
-3.226841e-06
-2.872382e-05
2.218425e-05
1.999181e-05
0
0
0
0
0
0
0
0
0
0
0
0
0
0
0
0
0
0
0
0
0
0
0
0
0
0
0
0
0
0
0
0
0
0
0
0
0
0
0
0
0
0
0
0
0
0
0
0
0
0
-0.0002983723
-0.0009678294
-8.938272e-05
0.0001832123
0.0003785649
-6.709167e-05
-3.504434e-05
0
0
0
0
0
0.0001708104
-0.0005702138
-0.0005322262
7.732504e-05
0.0002304051
0.001561637
-0.001233035
0.0002312517
0
0
0
0
0
8.143811e-05
0.0005063342
0.0003219389
0.001065262
0.0008131729
5.27905e-05
0.0002510064
-0.0004852689
4.485109e-05
0
0
0
0
0
-0.0005184095
-0.00176989
-4.02275e-05
-0.0006035432
0.0008039704
-0.0003507084
-0.001018942
-0.00115592
-0.0003981213
0.0008719968
0
0
0
0
0
-5.346622e-05
-0.001299719
-0.001562812
0.0006559787
-0.0006988912
-0.0007412124
-0.0002118057
-0.0002123513
-0.001365603
0.0009598227
-1.879319e-05
0
0
0
0
0
-0.0001218625
-0.000899153
0.001644431
-0.0002528779
0.001837059
0.001671925
0.0001275734
-0.001063506
-0.0007253829
-0.0003042146
7.747261e-05
-2.662981e-06
0
0
0
0
0
0.000371866
-0.0005003895
-0.001484271
0.0008169975
0.000939878
-0.0004508657
-0.0009418545
0.002006407
-0.001475689
0.000444604
-0.0003918095
5.261349e-07
-2.087557e-06
0
0
0
0
0
0.0003989972
-0.0006275744
-0.0001449851
-9.197416e-05
-0.001360718
0.0003357441
-0.0006938028
-9.404726e-05
0.0002248866
0.0002069995
-0.000359012
4.288498e-08
-3.71539e-06
4.408231e-06
0
0
0
0
0
-5.122175e-05
-4.830056e-05
0.000513047
-0.0001924285
0.001629243
0.0007706378
0.0003324101
0.000346548
-0.001436531
-0.0006199868
-2.115061e-05
-3.016111e-06
-3.066718e-06
5.337692e-06
4.679344e-08
0
0
0
0
0
-0.0002647445
0.0004154877
-0.0002815334
0.0001113525
-0.0002421529
0.000178996
0.0007004019
-0.0001484108
0.0001156798
-6.447504e-06
8.053646e-05
9.751848e-07
-3.964953e-08
-6.317266e-06
-4.022918e-06
3.606551e-05
0
0
0
0
0
0
0
0
0
0
0
0
0
0
0
-7.261294e-07
3.288855e-06
2.501971e-07
6.129416e-07
2.877965e-06
2.561261e-05
6.622958e-06
0
0
0
0
0
0
0
0
0
0
0
0
0
0
0
9.948399e-07
8.284685e-07
-9.557019e-07
-2.31775e-06
4.004551e-08
-4.15182e-05
-3.196638e-05
-9.575873e-07
0
0
0
0
0
0
0
0
0
0
0
0
0
0
0
2.041712e-06
-2.475877e-06
-1.146177e-06
-1.521174e-06
-1.571275e-06
9.91877e-07
1.661446e-05
-1.425916e-05
2.39108e-05
0
0
0
0
0
0
0
0
0
0
0
0
0
0
0
2.219947e-06
1.480348e-06
-1.133715e-06
-2.700843e-06
-1.720563e-08
-3.709332e-05
-3.242312e-06
-6.704697e-06
-2.810052e-05
-4.695485e-06
0
0
0
0
0
0
0
0
0
0
0
0
0
0
0
-4.520892e-07
2.140013e-06
2.131445e-06
-1.772078e-06
6.072838e-07
-2.787941e-05
-1.513075e-05
4.478659e-06
2.03681e-05
2.600487e-07
-74612.48
0
0
0
0
0
0
0
0
0
0
0
0
0
0
0
0
0
0
0
0
0
0
0
0
0
0
0
0
0
0
0
0
0
0
0
0
0
0
0
0
0
0
0
0
0
0
0
0
0
0
0
0
0
0
0
-0.0003769503
0.0003402439
0.001063545
-4.622109e-05
0.0002295233
-0.0004952727
0.0003155744
-0.0009368825
0
0
0
0
0
4.239321e-05
-0.0003798525
-0.0001689675
0.0001760668
-0.002222814
-0.0005688862
-0.0007022761
0.001068431
0.0008314024
0
0
0
0
0
0.0005685011
0.0006691596
0.001230785
0.0009774037
-0.001168806
-0.0002030717
0.0003460248
0.001854039
0.0006434629
-0.0007692212
0
0
0
0
0
-0.0005064955
-0.0007260381
-0.0008118581
-0.0007374106
0.0009227195
0.0001832682
0.000283147
0.0002581261
0.001725762
-0.0009164955
-0.0001878371
0
0
0
0
0
-0.0008276787
0.0003242432
0.002063247
0.001395348
-0.0006235809
-0.00120333
0.0007244202
0.001193356
0.001076274
0.000576439
0.0003191445
-3.597859e-06
0
0
0
0
0
8.847874e-05
-7.9941e-06
5.6498e-05
-0.00248488
0.0004989564
-0.0001102295
0.0003433428
-0.002403634
0.0005936452
7.321342e-05
0.0002809233
-2.95677e-06
5.437725e-06
0
0
0
0
0
0.0001796509
0.0008661194
0.0002203453
-1.326362e-05
-0.0003321169
0.0002193118
3.665152e-05
0.002204806
-0.001053584
-0.0003232452
-5.186024e-05
-6.310332e-07
6.463369e-06
4.91285e-06
0
0
0
0
0
0.0008304801
0.0009328079
-0.0001103876
-0.0005949382
-0.0009124401
-0.002082469
-0.0004563586
-0.0006745242
-0.0001855197
0.0003436065
8.170783e-05
4.674761e-06
-5.632554e-07
-7.69646e-06
-2.721687e-06
0
0
0
0
0
0.0004779733
-0.001337023
0.0008781332
-0.0002534345
0.0006987814
-0.002234505
-0.001354122
0.0002155116
-0.0005530711
0.0005133598
-6.458403e-05
1.08139e-06
4.387374e-07
1.176857e-07
3.015184e-06
7.030776e-06
0
0
0
0
0
-0.0001851306
0.0001944137
-0.0002111258
0.0002658909
0.0002698997
-0.0001709976
-0.0005416446
-0.0001976827
-1.078622e-05
1.360845e-06
-6.533948e-05
1.54244e-06
-3.34898e-07
7.943563e-06
9.622402e-07
-1.23547e-05
-4.519236e-05
0
0
0
0
0
0
0
0
0
0
0
0
0
0
0
2.765828e-06
2.057331e-07
-2.000945e-06
-1.327965e-06
-1.916353e-06
-1.179771e-05
-3.260299e-05
-1.973245e-05
0
0
0
0
0
0
0
0
0
0
0
0
0
0
0
-3.034011e-07
-6.32173e-06
1.469807e-07
5.552897e-06
-6.684088e-08
9.033206e-07
2.585315e-05
2.683483e-05
-3.036958e-06
0
0
0
0
0
0
0
0
0
0
0
0
0
0
0
-6.575127e-07
-6.773566e-07
2.677279e-06
5.96604e-07
-3.517211e-06
9.926828e-06
-4.128999e-06
-2.044085e-05
9.875421e-06
-1.851185e-05
0
0
0
0
0
0
0
0
0
0
0
0
0
0
0
-6.920274e-07
3.516641e-06
-3.141744e-06
2.940173e-06
-1.759285e-06
-1.123994e-05
3.205324e-05
-9.163801e-06
1.224103e-05
1.87215e-05
-75290.77
0
0
0
0
0
0
0
0
0
0
0
0
0
0
0
1.293812e-06
4.073214e-07
2.434813e-07
6.159082e-07
-1.396798e-06
-8.144164e-06
2.314838e-06
1.695171e-05
5.412272e-06
-4.487092e-06
-68599.79
-75177.89
0
0
0
0
0
0
0
0
0
0
0
0
0
0
0
0
0
0
0
0
0
0
0
0
0
0
0
0
0
0
0
0
0
0
0
0
0
0
0
0
0
0
0
0
0
0
0
0
0
0
0
0
0
0
0
0
0
0
0
0
-0.0001305238
0.0002740389
5.63745e-05
-0.0006311984
0.0005988104
0.0001976518
-0.0002895985
0.0002772519
-2.105976e-05
0
0
0
0
0
-0.0006138458
0.0007136797
-0.001304733
0.0009854007
-9.334836e-05
0.0009779089
0.0003729574
0.0004950485
-0.001516125
8.262973e-05
0
0
0
0
0
-0.0004200826
0.001333595
0.0003944877
-0.000276855
-0.002027815
0.001378625
0.0003060989
-0.0005136708
-0.001888588
-0.0003575829
5.421647e-05
0
0
0
0
0
0.0004522076
0.0006576367
-0.000912445
0.0028824
0.001035334
0.001268672
-0.001540545
0.0004202829
-0.0006905425
-0.0008498016
0.0001247145
4.484089e-06
0
0
0
0
0
-8.960429e-06
0.001574453
0.0009943162
0.0001668289
-0.0006981687
-0.0005172993
-0.0002736018
-0.000587642
0.0002758229
-0.0009100558
-6.64321e-05
1.874602e-06
-5.909836e-09
0
0
0
0
0
-0.000571504
-0.0005805893
0.001527132
0.001883227
-0.0001455195
-0.00107682
0.0003110888
-0.001640045
0.001852801
0.001066354
5.179677e-05
-5.438114e-06
-6.56785e-06
1.974513e-06
0
0
0
0
0
-0.0004304574
-0.002302169
-0.0001454961
-0.0007069578
-0.000956438
0.001601725
-0.0007274181
0.001241754
-0.001384819
-0.000701031
0.0001155879
-2.905514e-06
-5.137091e-06
2.875334e-06
-5.208364e-06
0
0
0
0
0
-0.0002906051
-0.0007617497
-0.0007449441
-0.000259234
-0.0005441429
9.155696e-05
0.001463314
0.001098547
0.00165185
-0.0009883832
-3.731618e-05
3.645332e-08
2.222258e-06
2.302482e-06
-4.758073e-06
-1.720107e-05
0
0
0
0
0
-3.928818e-05
0.0004291613
0.0001251303
-0.001119434
0.0006870849
-0.0002722258
0.001633943
0.001686317
0.0006127526
-0.001718976
8.758464e-06
2.030914e-06
-3.037592e-06
-4.214761e-06
-6.570815e-06
-3.712846e-06
-6.561618e-06
0
0
0
0
0
0.0001463618
-7.084514e-05
-7.619741e-05
-0.0002043713
0.0003298747
-0.001111847
-0.0003685096
0.0008559878
-0.0002283785
-0.0001095711
-4.927894e-05
2.843697e-06
-1.833087e-06
3.944612e-06
1.507815e-06
4.961109e-06
-3.09969e-05
-1.399926e-05
0
0
0
0
0
0
0
0
0
0
0
0
0
0
0
2.082764e-07
-2.503448e-07
1.841525e-07
3.528667e-06
-8.757202e-07
-1.587306e-05
-5.624293e-06
-6.152568e-06
-1.466814e-05
0
0
0
0
0
0
0
0
0
0
0
0
0
0
0
1.190419e-06
-2.314612e-06
-1.247455e-06
2.086882e-06
3.478095e-07
-1.536143e-05
-1.290911e-05
-1.152631e-05
-2.088885e-05
2.488758e-05
0
0
0
0
0
0
0
0
0
0
0
0
0
0
0
3.678827e-07
1.09986e-06
4.419277e-06
7.761948e-07
-1.250424e-06
7.97435e-06
9.580472e-07
4.56763e-06
1.648625e-05
-1.633949e-05
-76664.91
0
0
0
0
0
0
0
0
0
0
0
0
0
0
0
1.275862e-06
5.479825e-07
2.896855e-06
5.468855e-07
-1.630127e-06
-2.428651e-05
1.613929e-05
-1.03226e-05
1.392723e-05
7.286164e-06
-69037.78
-75867.04
0
0
0
0
0
0
0
0
0
0
0
0
0
0
0
1.014678e-06
-1.092776e-06
2.266466e-06
-1.525366e-06
1.137489e-06
-9.525125e-06
7.054009e-06
6.232803e-06
-5.940855e-06
-1.981942e-06
-63610.33
-69098.34
-76662.19
0
0
0
0
0
0
0
0
0
0
0
0
0
0
0
0
0
0
0
0
0
0
0
0
0
0
0
0
0
0
0
0
0
0
0
0
0
0
0
0
0
0
0
0
0
0
0
0
0
0
0
0
0
0
0
0
0
0
0
0
0
0
0
0
0
-0.0003031349
0.0001089153
0.0006684411
-0.0006577242
0.0005809019
0.0001547017
-0.0003969459
-4.291976e-05
-5.500386e-06
0.0004100896
0
0
0
0
0
0.0002189552
-0.000294317
-0.0008504182
4.944345e-05
5.587545e-05
-0.001917839
-0.001273774
-0.000908002
0.0003809342
0.0004475713
8.10169e-05
0
0
0
0
0
0.0001556801
-4.875412e-05
-0.0002916669
-0.002228666
-0.00179923
0.0005044893
0.001080421
-0.0007252988
0.0004596234
0.000589354
0.0002857485
1.378697e-06
0
0
0
0
0
-0.0002084406
-0.0004957991
-0.001157725
0.001057898
-0.001280465
-0.0007428115
-0.0001782198
0.0003457812
-0.00154044
0.001724649
0.0001984674
3.372919e-07
-1.282482e-06
0
0
0
0
0
0.0006244493
0.0001701939
-0.0007507761
-0.0001199062
0.001687781
0.0007097488
0.001285602
0.000225059
-0.000920369
-0.0003822992
0.0003180221
-3.673715e-07
2.083729e-06
-1.870691e-06
0
0
0
0
0
1.572756e-05
0.001827329
0.0003066942
-0.002017136
-0.0003348233
-0.0003772187
-1.176746e-05
-0.001288576
0.000269196
-0.0008576941
-7.865249e-06
2.138312e-06
2.85544e-06
-1.92867e-06
2.811151e-06
0
0
0
0
0
0.0002711892
0.001661286
0.0005667391
-2.941452e-05
-8.441595e-05
-0.0003183824
-0.0009834157
-0.0005233534
-0.001133113
0.0006704904
0.0003352377
-2.003038e-07
1.704329e-07
-4.75942e-06
2.033664e-07
1.355055e-05
0
0
0
0
0
-0.0002699864
4.199631e-05
0.001415116
0.0003242398
-0.0008754175
0.0005592457
0.0001336575
-0.0008452929
-0.000994379
0.0008879779
0.0004338233
-2.404555e-06
2.787151e-06
4.842818e-06
-1.977575e-06
-2.088543e-05
-1.141384e-05
0
0
0
0
0
-0.0005352196
-0.0002548046
8.181906e-05
0.001325682
0.0003929928
-0.0005452597
0.0006601773
-0.001445157
-0.0006632595
9.420924e-05
0.0006573403
9.06907e-07
1.623028e-06
2.055938e-06
-4.331416e-06
-2.911245e-05
-2.661185e-06
1.419733e-05
0
0
0
0
0
5.497965e-05
-0.0006595347
0.0003000275
5.757213e-05
-0.0005684734
-9.919115e-05
0.0002338377
-0.0001267325
-0.0004291258
-0.000154836
0.000164057
-4.692721e-06
1.217861e-06
-2.493312e-06
1.351165e-06
3.810059e-05
-1.140744e-06
1.732194e-05
6.647852e-07
0
0
0
0
0
0
0
0
0
0
0
0
0
0
0
-2.097008e-06
6.565533e-07
2.853344e-07
-8.975582e-10
4.26521e-06
-1.397366e-05
-7.371879e-06
1.448557e-05
-1.650341e-05
1.802291e-05
0
0
0
0
0
0
0
0
0
0
0
0
0
0
0
-7.637763e-07
-7.801072e-07
3.236564e-07
-3.580458e-06
1.939506e-06
2.34935e-05
2.345171e-05
7.266606e-06
2.107226e-06
2.088692e-05
-78721.2
0
0
0
0
0
0
0
0
0
0
0
0
0
0
0
6.622972e-07
2.094782e-06
2.022283e-06
-1.943676e-06
1.58677e-07
1.109133e-05
6.024541e-06
-1.381849e-05
-1.109335e-05
-2.752516e-05
-69902.34
-77262.96
0
0
0
0
0
0
0
0
0
0
0
0
0
0
0
-7.929532e-07
1.102411e-07
-8.88463e-07
-9.293089e-07
-2.551272e-06
-5.803236e-06
3.105653e-05
9.213241e-06
6.786419e-06
-8.60202e-06
-63945.27
-69543.67
-77377.52
0
0
0
0
0
0
0
0
0
0
0
0
0
0
0
-1.385248e-06
-5.205504e-07
1.238317e-06
-5.525839e-07
1.427581e-06
-8.398926e-07
7.822971e-06
-4.164714e-06
-3.102646e-06
4.547956e-06
-59638.3
-64058.77
-70394.9
-79109.6
0
0
0
0
0
0
0
0
0
0
0
0
0
0
0
0
0
0
0
0
0
0
0
0
0
0
0
0
0
0
0
0
0
0
0
0
0
0
0
0
0
0
0
0
0
0
0
0
0
0
0
0
0
0
0
0
0
0
0
0
0
0
0
0
0
0
0
0
0
0
-5.146207e-05
0.00118617
-0.0002191962
-0.000313146
0.0001387414
-7.988121e-05
0.0007988639
0.0007823747
-0.0001184032
0.0002752839
-8.046123e-05
0
0
0
0
0
-0.0005445274
-0.0005925851
-0.0004589588
0.001954055
0.001696276
-0.0006254934
0.001245485
0.0006167882
0.0004836074
-0.000216108
-0.0001807638
-4.957941e-06
0
0
0
0
0
-0.0003703248
3.454269e-05
0.001391012
-6.119711e-06
0.0002929684
0.0009278438
0.0002127868
-0.001283927
0.001344147
-0.00113826
1.488039e-05
-2.905509e-06
-1.368945e-06
0
0
0
0
0
0.0003520529
0.0001473938
-0.001026277
0.0003511575
-0.0004559333
2.119373e-05
0.0005359189
0.0006801312
0.002611994
0.0001243322
-5.421488e-05
2.117057e-06
-1.627774e-06
5.660302e-06
0
0
0
0
0
-0.0003865088
-0.0009102951
-0.001723726
0.0008070063
-0.002862502
-0.002222865
-0.0002991396
0.0003218258
-0.0006135514
0.0004952542
-6.032052e-05
-2.33906e-06
1.491484e-06
1.631353e-06
4.174829e-06
0
0
0
0
0
0.0003740477
-0.001587125
-0.001168527
0.0007370056
0.001474937
0.000519093
0.0007877469
-0.0002763313
0.0005755299
0.0009268119
0.000751984
-6.944159e-06
2.215371e-06
3.013389e-07
-1.395874e-06
3.031319e-05
0
0
0
0
0
-9.014538e-05
-0.00150517
-0.003260296
0.0009952378
0.0009032423
-0.0002392929
0.0009077915
-0.001109416
0.001698428
-0.001360889
-0.000217198
-4.495172e-06
-7.407339e-08
-4.235497e-06
1.171324e-07
4.073159e-06
-7.306891e-06
0
0
0
0
0
-0.0002911728
0.001217167
0.000418513
-0.001187328
-0.002166564
0.002724106
0.0002288854
0.001730057
-0.0002165648
-0.001351679
-0.0003492245
1.92926e-06
-2.943005e-06
3.048257e-06
2.139304e-06
4.42999e-06
-2.029612e-05
-6.932467e-06
0
0
0
0
0
-0.0008231041
0.001107361
-0.0009352766
-0.0003530296
-0.0006304127
-3.537523e-05
-0.001017548
0.0007548968
0.0002853726
0.0001770951
1.586679e-06
-7.724474e-07
-8.089262e-07
2.669921e-06
-6.509402e-07
3.416105e-06
-4.388458e-06
-1.812234e-05
-2.110622e-06
0
0
0
0
0
0.0001663015
0.0002224274
-1.004736e-05
0.0003525703
-0.0004970978
0.0006517876
0.001038154
7.579437e-05
-2.454887e-05
-0.0005921581
0.0001926853
2.209832e-07
3.690704e-06
3.29662e-06
-3.128131e-06
2.912572e-05
-3.83249e-06
-1.601759e-05
-1.562734e-05
-8.682789e-06
0
0
0
0
0
0
0
0
0
0
0
0
0
0
0
1.651102e-07
4.624859e-06
-3.923299e-08
4.39869e-06
-1.005686e-06
8.066911e-06
6.113485e-08
-1.377956e-05
-3.083165e-05
2.547479e-05
-81363.26
0
0
0
0
0
0
0
0
0
0
0
0
0
0
0
-4.288582e-07
-9.360025e-07
1.745233e-06
-4.343384e-07
-3.684309e-06
1.621619e-05
-3.928228e-05
-7.849724e-06
1.086384e-05
2.546747e-06
-71128.31
-79350.81
0
0
0
0
0
0
0
0
0
0
0
0
0
0
0
-3.069307e-07
5.447687e-07
6.513242e-07
-2.192335e-07
9.018623e-07
3.086586e-05
-2.125611e-05
-1.157826e-05
1.04313e-05
1.10397e-05
-64598.85
-70422.88
-78826.54
0
0
0
0
0
0
0
0
0
0
0
0
0
0
0
1.336857e-06
-1.373487e-06
-2.695858e-06
-2.913127e-06
1.70968e-06
-6.083465e-06