/*--------------------------------*- C++ -*----------------------------------*\
| =========                 |                                                 |
| \\      /  F ield         | OpenFOAM: The Open Source CFD Toolbox           |
|  \\    /   O peration     | Version:  2306                                  |
|   \\  /    A nd           | Website:  www.openfoam.com                      |
|    \\/     M anipulation  |                                                 |
\*---------------------------------------------------------------------------*/
FoamFile
{
    version     2.0;
    format      ascii;
    arch        "LSB;label=32;scalar=64";
    class       volScalarField;
    location    "0.6";
    object      k;
}
// * * * * * * * * * * * * * * * * * * * * * * * * * * * * * * * * * * * * * //

dimensions      [1 1 -3 -1 0 0 0];

internalField   nonuniform List<scalar> 
52000
(
20
20
20
20
20
20
20
20
20
20
20
20
20
20
20
20
20
20
20
20
20
20
20
20
20
20
20
20
20
20
20
20
20
20
20
20
20
20
20
20
20
20
20
20
20
20
20
20
20
20
20
20
20
20
20
20
20
20
20
20
20
20
20
20
20
20
20
20
20
20
20
20
20
20
20
20
20
20
20
20
20
20
20
20
20
20
20
20
20
20
20
20
20
20
20
20
20
20
20
20
20
20
20
20
20
20
20
20
20
20
20
20
20
20
20
20
20
20
20
20
20
20
20
20
20
20
20
20
20
20
20
20
20
20
20
20
20
20
20
20
20
20
20
20
20
20
20
20
20
20
20
20
20
20
20
20
20
20
20
20
20
20
20
20
20
20
20
20
20
20
20
20
20
20
20
20
20
20
20
20
20
20
20
20
20
20
20
20
20
20
20
20
20
20
20
20
20
20
20
20
20
20
20
20
20
20
20
20
20
20
20
20
20
20
20
20
20
20
20
20
20
20
20
20
20
20
20
20
20
20
20
20
20
20
20
20
20
20
20
20
0.08278422
20
20
20
20
20
20
20
20
20
20
20
20
20
20
20
20
20
20
20
20
20
20
20
20
20
20
20
20
20
20
20
20
20
20
20
20
20
20
20
20
20
20
20
20
20
20
20
20
20
20
20
20
20
20
20
20
20
20
20
20
20
20
20
20
20
0.08215449
20
20
20
20
20
0.08352167
0.08214381
20
20
20
20
20
20
20
20
20
20
20
20
20
20
20
20
20
20
20
20
20
20
20
20
20
20
20
20
20
20
20
20
20
20
20
20
20
20
20
20
20
20
20
20
20
20
20
20
20
20
20
20
20
20
20
20
20
20
20
20
20
20
20
20
20
20
20
20
20
20
0.08180459
20
20
20
20
20
0.08337124
0.08060317
20
20
20
20
20
0.08371791
0.08337007
0.08178495
20
20
20
20
20
20
20
20
20
20
20
20
20
20
20
20
20
20
20
20
20
20
20
20
20
20
20
20
20
20
20
20
20
20
20
20
20
20
20
20
20
20
20
20
20
20
20
20
20
20
20
20
20
20
20
20
20
20
20
20
20
20
20
20
20
20
20
20
20
20
20
20
20
20
20
0.08160517
20
20
20
20
20
0.08324087
0.07963647
20
20
20
20
20
0.08365905
0.08292622
0.07962136
20
20
20
20
20
0.08387897
0.08366321
0.0832396
0.08157525
20
20
20
20
20
20
20
20
20
20
20
20
20
20
20
20
20
20
20
20
20
20
20
20
20
20
20
20
20
20
20
20
20
20
20
20
20
20
20
20
20
20
20
20
20
20
20
20
20
20
20
20
20
20
20
20
20
20
20
20
20
20
20
20
20
20
20
20
20
20
20
20
20
20
20
20
20
20
20
20
0.08151245
20
20
20
20
20
0.083145
0.07905422
20
20
20
20
20
0.08360605
0.08253621
0.07815939
20
20
20
20
20
0.08385163
0.08349164
0.08253268
0.07901366
20
20
20
20
20
0.08402234
0.08385765
0.08361535
0.08314391
0.08146922
20
20
20
20
20
20
20
20
20
20
20
20
20
20
20
20
20
20
20
20
20
20
20
20
20
20
20
20
20
20
20
20
20
20
20
20
20
20
20
20
20
20
20
20
20
20
20
20
20
20
20
20
20
20
20
20
20
20
20
20
20
20
20
20
20
20
20
20
20
20
20
20
20
20
20
20
20
20
20
20
20
20
20
20
20
0.08151245
20
20
20
20
20
0.08309422
0.07877759
20
20
20
20
20
0.08356548
0.08224698
0.07723703
20
20
20
20
20
0.08382751
0.08333495
0.0819001
0.07720171
20
20
20
20
20
0.08400709
0.08378158
0.08333966
0.08223599
0.07869679
20
20
20
20
20
0.08415323
0.08401342
0.08384044
0.08358137
0.08309371
0.08145163
20
20
20
20
20
20
20
20
20
20
20
20
20
20
20
20
20
20
20
20
20
20
20
20
20
20
20
20
20
20
20
20
20
20
20
20
20
20
20
20
20
20
20
20
20
20
20
20
20
20
20
20
20
20
20
20
20
20
20
20
20
20
20
20
20
20
20
20
20
0.3586278
20
20
20
20
20
20
20
20
20
20
20
20
20
20
20
20
20
20
20
20
0.08160517
20
20
20
20
20
0.08309422
0.07877759
20
20
20
20
20
0.08354341
0.08209312
0.07678723
20
20
20
20
20
0.0838092
0.08321393
0.0814245
0.07602209
20
20
20
20
20
0.0839941
0.08371301
0.08308378
0.08141198
0.07668819
20
20
20
20
20
0.08414297
0.08397363
0.08372064
0.08322404
0.08207063
0.07863968
20
20
20
20
20
0.08427415
0.08414904
0.08400759
0.08383087
0.08356786
0.08309584
0.08152192
20
20
20
20
20
20
20
20
20
20
20
20
20
20
20
20
20
20
20
20
20
20
20
20
20
20
20
20
20
20
20
20
20
20
20
20
20
20
20
20
20
20
20
20
20
20
20
20
20
20
20
20
20
20
20
20
20
0.3586193
20
20
20
20
20
20
20
20
20
20
20
20
20
20
20
0.3587344
0.35869
20
20
20
20
20
20
20
20
20
20
20
20
20
20
20
20
20
20
20
20
0.08180459
20
20
20
20
20
0.083145
0.07905422
20
20
20
20
20
0.08354341
0.08209312
0.07678723
20
20
20
20
20
0.08379927
0.08314777
0.08116959
0.07543626
20
20
20
20
20
0.08398446
0.08366036
0.08288374
0.08078515
0.07535781
20
20
20
20
20
0.08413451
0.08393878
0.08361066
0.0828881
0.08113452
0.07659221
20
20
20
20
20
0.08426608
0.08412391
0.08394705
0.08367819
0.08316501
0.08205784
0.07884106
20
20
20
20
20
0.08438668
0.08427172
0.08414746
0.08400701
0.08383215
0.0835795
0.08315281
0.08169301
20
20
20
20
20
20
20
20
20
20
20
20
20
20
20
20
20
20
20
20
20
20
20
20
20
20
20
20
20
20
20
20
20
20
20
20
20
20
20
20
20
20
20
20
0.3586014
20
20
20
20
20
20
20
20
20
20
20
20
20
20
20
0.3587286
0.3586802
20
20
20
20
20
20
20
20
20
20
20
20
20
20
20
0.3588347
0.3587913
0.3587535
20
20
20
20
20
20
20
20
20
20
20
20
20
20
20
20
20
20
20
20
0.08215449
20
20
20
20
20
0.08324087
0.07963647
20
20
20
20
20
0.08356548
0.08224698
0.07723703
20
20
20
20
20
0.08379927
0.08314777
0.08116959
0.07543626
20
20
20
20
20
0.0839793
0.08363161
0.08277364
0.08044676
0.07469036
20
20
20
20
20
0.08412839
0.08391265
0.08352507
0.08262281
0.08041723
0.07523089
20
20
20
20
20
0.08425956
0.08410256
0.08389295
0.08353597
0.08278306
0.08110581
0.07691463
20
20
20
20
20
0.08437972
0.08425274
0.08411059
0.08393227
0.08366345
0.08317649
0.08220389
0.07932741
20
20
20
20
20
0.08449191
0.0843849
0.08427164
0.08415006
0.0840134
0.08384663
0.08361811
0.08326326
0.08200336
20
20
20
20
20
20
20
20
20
20
20
20
20
20
20
20
20
20
20
20
20
20
20
20
20
20
20
20
20
20
0.3585716
20
20
20
20
20
20
20
20
20
20
20
20
20
20
20
0.3587172
0.3586591
20
20
20
20
20
20
20
20
20
20
20
20
20
20
20
0.3588298
0.3587856
0.3587427
20
20
20
20
20
20
20
20
20
20
20
20
20
20
20
0.358926
0.3588848
0.3588491
0.3588184
20
20
20
20
20
20
20
20
20
20
20
20
20
20
20
20
20
20
20
20
0.08278422
20
20
20
20
20
0.08337124
0.08060317
20
20
20
20
20
0.08360605
0.08253621
0.07815939
20
20
20
20
20
0.0838092
0.08321393
0.0814245
0.07602209
20
20
20
20
20
0.0839793
0.08363161
0.08277364
0.08044676
0.07469036
20
20
20
20
20
0.08412516
0.0838986
0.08347797
0.08247593
0.08002821
0.07454636
20
20
20
20
20
0.08425492
0.08408699
0.0838518
0.08342397
0.08247937
0.08037483
0.07564553
20
20
20
20
20
0.08437414
0.08423699
0.08407865
0.08386441
0.08350455
0.08279253
0.08133568
0.07768097
20
20
20
20
20
0.0844856
0.08436884
0.08424452
0.08410616
0.08393381
0.08368313
0.08326285
0.08250023
0.08017051
20
20
20
20
20
0.08459067
0.08449038
0.08438532
0.08427519
0.08415795
0.08402808
0.08387561
0.08368342
0.08342464
0.0825613
20
20
20
20
20
20
20
20
20
20
20
20
20
20
20
0.3585133
20
20
20
20
20
20
20
20
20
20
20
20
20
20
20
0.3587001
0.3586212
20
20
20
20
20
20
20
20
20
20
20
20
20
20
20
0.3588202
0.3587742
0.3587192
20
20
20
20
20
20
20
20
20
20
20
20
20
20
20
0.3589216
0.3588802
0.3588434
0.358807
20
20
20
20
20
20
20
20
20
20
20
20
20
20
20
0.3590103
0.3589698
0.3589355
0.3589077
0.358885
20
20
20
20
20
20
20
20
20
20
20
20
20
20
20
20
20
20
20
20
20
20
20
20
20
0.08352167
0.08214381
20
20
20
20
20
0.08365905
0.08292622
0.07962136
20
20
20
20
20
0.08382751
0.08333495
0.0819001
0.07720171
20
20
20
20
20
0.08398446
0.08366036
0.08288374
0.08078515
0.07535781
20
20
20
20
20
0.08412516
0.0838986
0.08347797
0.08247593
0.08002821
0.07454636
20
20
20
20
20
0.08425249
0.08407876
0.08382949
0.0833619
0.08231056
0.07997783
0.07501087
20
20
20
20
20
0.08437019
0.08422575
0.08405504
0.08381212
0.08337827
0.08248612
0.0806707
0.0766193
20
20
20
20
20
0.08448056
0.08435566
0.08422162
0.08406754
0.08386051
0.08352752
0.08292274
0.08180455
0.07895636
20
20
20
20
20
0.08458484
0.08447592
0.08436266
0.08424379
0.08411325
0.0839551
0.08374007
0.08341938
0.08292549
0.08153836
20
20
20
20
20
0.08468364
0.08458925
0.08449091
0.08438904
0.08428323
0.084172
0.08405205
0.08392004
0.08377651
0.08364384
0.358248
20
20
20
20
20
20
20
20
20
20
20
20
20
20
20
0.3586794
0.3585447
20
20
20
20
20
20
20
20
20
20
20
20
20
20
20
0.3588064
0.3587578
0.3586766
20
20
20
20
20
20
20
20
20
20
20
20
20
20
20
0.3589129
0.3588716
0.3588321
0.3587821
20
20
20
20
20
20
20
20
20
20
20
20
20
20
20
0.3590062
0.3589658
0.3589313
0.358902
0.3588733
20
20
20
20
20
20
20
20
20
20
20
20
20
20
20
0.359089
0.3590487
0.3590142
0.3589869
0.3589672
0.6336709
20
20
20
20
20
20
20
20
20
20
20
20
20
20
20
20
20
20
20
20
20
20
20
20
20
20
20
20
20
20
0.08371791
0.08337007
0.08178495
20
20
20
20
20
0.08385163
0.08349164
0.08253268
0.07901366
20
20
20
20
20
0.0839941
0.08371301
0.08308378
0.08141198
0.07668819
20
20
20
20
20
0.08412839
0.08391265
0.08352507
0.08262281
0.08041723
0.07523089
20
20
20
20
20
0.08425249
0.08407876
0.08382949
0.0833619
0.08231056
0.07997783
0.07501087
20
20
20
20
20
0.08436814
0.08421991
0.08404248
0.08378353
0.0833079
0.08231546
0.08031009
0.07609497
20
20
20
20
20
0.08447699
0.08434637
0.08420511
0.08403863
0.08380335
0.08340287
0.0826506
0.08127404
0.07819599
20
20
20
20
20
0.08458015
0.0844641
0.08434378
0.08421691
0.0840733
0.0838866
0.08360853
0.08316192
0.08246506
0.08088528
20
20
20
20
20
0.08467817
0.08457586
0.0844706
0.08436316
0.08425237
0.08413393
0.08399819
0.08383377
0.08363577
0.08345023
0.3579687
20
20
20
20
20
0.08477133
0.08468227
0.08458979
0.08449453
0.08439679
0.08429643
0.08419308
0.08408674
0.08398362
0.0839128
0.3586902
0.3583396
20
20
20
20
20
20
20
20
20
20
20
20
20
20
20
0.3587934
0.3587394
0.3585963
20
20
20
20
20
20
20
20
20
20
20
20
20
20
20
0.3589006
0.3588604
0.3588159
0.3587378
20
20
20
20
20
20
20
20
20
20
20
20
20
20
20
0.358998
0.3589582
0.3589233
0.3588907
0.358848
20
20
20
20
20
20
20
20
20
20
20
20
20
20
20
0.359085
0.3590449
0.3590105
0.3589829
0.3589615
0.6336643
20
20
20
20
20
20
20
20
20
20
20
20
20
20
20
0.3591627
0.3591228
0.3590876
0.3590591
0.3590389
0.6337154
0.6336736
20
20
20
20
20
20
20
20
20
20
20
20
20
20
20
20
20
20
20
20
20
20
20
20
20
20
20
20
20
20
20
20
20
20
20
0.08387897
0.08366321
0.0832396
0.08157525
20
20
20
20
20
0.08400709
0.08378158
0.08333966
0.08223599
0.07869679
20
20
20
20
20
0.08413451
0.08393878
0.08361066
0.0828881
0.08113452
0.07659221
20
20
20
20
20
0.08425492
0.08408699
0.0838518
0.08342397
0.08247937
0.08037483
0.07564553
20
20
20
20
20
0.08436814
0.08421991
0.08404248
0.08378353
0.0833079
0.08231546
0.08031009
0.07609497
20
20
20
20
20
0.08447515
0.08434159
0.08419648
0.08402312
0.08377186
0.08333309
0.08249887
0.08098714
0.07782633
20
20
20
20
20
0.08457684
0.08445582
0.08433038
0.08419733
0.08404299
0.08383239
0.08350182
0.08295414
0.08211307
0.08048
20
20
20
20
20
0.08467377
0.08456493
0.08445379
0.08434137
0.08422557
0.08409897
0.08394511
0.0837436
0.08348386
0.08324665
0.3577503
20
20
20
20
20
0.08476618
0.08466971
0.08457099
0.08447144
0.08437182
0.08427177
0.0841699
0.08406446
0.08396315
0.0839044
0.3586495
0.3581148
20
20
20
20
20
0.08485421
0.08477002
0.08468278
0.08459322
0.08450187
0.08440915
0.08431555
0.08422268
0.08413664
0.08408452
0.3588484
0.3587341
0.3584338
20
20
20
20
20
20
20
20
20
20
20
20
20
20
20
0.3588899
0.3588539
0.3587973
0.3586606
20
20
20
20
20
20
20
20
20
20
20
20
20
20
20
0.3589865
0.3589489
0.3589136
0.3588743
0.358804
20
20
20
20
20
20
20
20
20
20
20
20
20
20
20
0.3590773
0.359038
0.3590038
0.3589753
0.3589501
0.6336499
20
20
20
20
20
20
20
20
20
20
20
20
20
20
20
0.359159
0.3591193
0.3590842
0.3590557
0.359035
0.6337121
0.633667
20
20
20
20
20
20
20
20
20
20
20
20
20
20
20
0.3592322
0.3591928
0.3591572
0.359127
0.3591045
0.6337539
0.6337178
0.6336764
20
20
20
20
20
20
20
20
20
20
20
20
20
20
20
20
20
20
20
20
20
20
20
20
20
20
20
20
20
20
20
20
20
20
20
20
20
20
20
20
0.08402234
0.08385765
0.08361535
0.08314391
0.08146922
20
20
20
20
20
0.08414297
0.08397363
0.08372064
0.08322404
0.08207063
0.07863968
20
20
20
20
20
0.08425956
0.08410256
0.08389295
0.08353597
0.08278306
0.08110581
0.07691463
20
20
20
20
20
0.08437019
0.08422575
0.08405504
0.08381212
0.08337827
0.08248612
0.0806707
0.0766193
20
20
20
20
20
0.08447515
0.08434159
0.08419648
0.08402312
0.08377186
0.08333309
0.08249887
0.08098714
0.07782633
20
20
20
20
20
0.08457513
0.08445157
0.08432345
0.08418702
0.08402659
0.08380227
0.0834417
0.08283788
0.08192263
0.08028357
20
20
20
20
20
0.08467066
0.08455728
0.08444193
0.08432576
0.08420581
0.08407185
0.08390172
0.08366758
0.08335633
0.08308445
0.357604
20
20
20
20
20
0.08476202
0.08465945
0.08455545
0.08445214
0.08435053
0.08424969
0.08414642
0.08403568
0.0839235
0.08385733
0.3585945
0.357931
20
20
20
20
20
0.08484934
0.08475816
0.08466512
0.08457185
0.0844797
0.08438987
0.08430346
0.08422306
0.08415646
0.08413181
0.3588626
0.3586997
0.3582532
20
20
20
20
20
0.08493265
0.08485295
0.08477049
0.08468603
0.08460016
0.08451347
0.08442681
0.08434203
0.08426526
0.08421959
0.358952
0.3588843
0.358783
0.3585302
20
20
20
20
20
20
20
20
20
20
20
20
20
20
20
0.3589766
0.3589457
0.3589084
0.3588546
0.3587331
20
20
20
20
20
20
20
20
20
20
20
20
20
20
20
0.3590663
0.3590294
0.3589963
0.3589661
0.3589332
0.6336254
20
20
20
20
20
20
20
20
20
20
20
20
20
20
20
0.3591515
0.3591126
0.3590781
0.3590496
0.3590276
0.6337056
0.6336526
20
20
20
20
20
20
20
20
20
20
20
20
20
20
20
0.3592286
0.3591894
0.359154
0.3591239
0.3591013
0.6337517
0.6337146
0.6336697
20
20
20
20
20
20
20
20
20
20
20
20
20
20
20
0.3592977
0.3592591
0.3592233
0.359192
0.359167
0.6337893
0.633756
0.6337202
0.6336791
20
20
20
20
20
20
20
20
20
20
20
20
20
20
20
20
20
20
20
20
20
20
20
20
20
20
20
20
20
20
20
20
20
20
20
20
20
20
20
20
20
20
20
20
20
0.08415323
0.08401342
0.08384044
0.08358137
0.08309371
0.08145163
20
20
20
20
20
0.08426608
0.08412391
0.08394705
0.08367819
0.08316501
0.08205784
0.07884106
20
20
20
20
20
0.08437414
0.08423699
0.08407865
0.08386441
0.08350455
0.08279253
0.08133568
0.07768097
20
20
20
20
20
0.08447699
0.08434637
0.08420511
0.08403863
0.08380335
0.08340287
0.0826506
0.08127404
0.07819599
20
20
20
20
20
0.08457513
0.08445157
0.08432345
0.08418702
0.08402659
0.08380227
0.0834417
0.08283788
0.08192263
0.08028357
20
20
20
20
20
0.08466905
0.08455336
0.08443583
0.08431765
0.08419531
0.08405697
0.08387719
0.08362402
0.08328388
0.08299542
0.3575308
20
20
20
20
20
0.08475908
0.08465227
0.08454453
0.08443843
0.08433512
0.08423298
0.084127
0.08400906
0.08388381
0.0838086
0.3585472
0.3578053
20
20
20
20
20
0.0848454
0.08474846
0.08465053
0.08455404
0.08446097
0.08437291
0.08429084
0.08421657
0.08415624
0.08413797
0.3588581
0.3586549
0.358101
20
20
20
20
20
0.08492804
0.08484172
0.0847538
0.08466593
0.08457963
0.08449649
0.08441862
0.08434943
0.08429707
0.08428136
0.3589813
0.3588947
0.3587523
0.3583861
20
20
20
20
20
0.08500698
0.08493145
0.0848534
0.08477358
0.08469259
0.08461108
0.08452995
0.08445111
0.08438008
0.08433741
0.3590352
0.3589831
0.3589234
0.3588348
0.3586281
20
20
20
20
20
20
20
20
20
20
20
20
20
20
20
0.3590567
0.3590268
0.3589948
0.3589597
0.3589119
0.6335871
20
20
20
20
20
20
20
20
20
20
20
20
20
20
20
0.359141
0.3591045
0.3590714
0.3590427
0.3590181
0.6336958
0.6336282
20
20
20
20
20
20
20
20
20
20
20
20
20
20
20
0.3592214
0.359183
0.3591482
0.3591184
0.3590954
0.6337474
0.633708
0.6336554
20
20
20
20
20
20
20
20
20
20
20
20
20
20
20
0.3592942
0.3592558
0.3592203
0.3591891
0.359164
0.6337874
0.6337538
0.633717
0.6336725
20
20
20
20
20
20
20
20
20
20
20
20
20
20
20
0.3593597
0.359322
0.3592865
0.3592544
0.3592273
0.6338232
0.6337912
0.6337582
0.6337227
0.6336818
20
20
20
20
20
20
20
20
20
20
20
20
20
20
20
20
20
20
20
20
20
20
20
20
20
20
20
20
20
20
20
20
20
20
20
20
20
20
20
20
20
20
20
20
20
20
20
20
20
20
0.08427415
0.08414904
0.08400759
0.08383087
0.08356786
0.08309584
0.08152192
20
20
20
20
20
0.08437972
0.08425274
0.08411059
0.08393227
0.08366345
0.08317649
0.08220389
0.07932741
20
20
20
20
20
0.08448056
0.08435566
0.08422162
0.08406754
0.08386051
0.08352752
0.08292274
0.08180455
0.07895636
20
20
20
20
20
0.08457684
0.08445582
0.08433038
0.08419733
0.08404299
0.08383239
0.08350182
0.08295414
0.08211307
0.08048
20
20
20
20
20
0.08466905
0.08455336
0.08443583
0.08431765
0.08419531
0.08405697
0.08387719
0.08362402
0.08328388
0.08299542
0.3575308
20
20
20
20
20
0.08475756
0.08464859
0.08453891
0.08443135
0.08432705
0.08422396
0.08411597
0.0839932
0.08385966
0.08377915
0.3585205
0.3577419
20
20
20
20
20
0.08484261
0.08474168
0.08464028
0.08454143
0.08444755
0.08436032
0.0842803
0.08420815
0.08414844
0.08413114
0.3588485
0.3586163
0.357995
20
20
20
20
20
0.0849243
0.08483254
0.08474001
0.08464919
0.08456234
0.08448171
0.08440992
0.08435033
0.08430991
0.08430436
0.3589929
0.3588917
0.3587151
0.3582624
20
20
20
20
20
0.08500261
0.08492081
0.08483759
0.08475455
0.08467323
0.0845953
0.08452299
0.08445999
0.08441349
0.08439977
0.359067
0.3590058
0.358929
0.3588063
0.358515
20
20
20
20
20
0.08507746
0.08500584
0.08493188
0.08485634
0.08477981
0.08470292
0.08462657
0.08455256
0.08448593
0.08444482
0.3591091
0.3590628
0.3590165
0.3589641
0.3588883
0.6335338
20
20
20
20
20
20
20
20
20
20
20
20
20
20
20
0.3591314
0.3591016
0.3590706
0.3590402
0.3590093
0.6336831
0.6335902
20
20
20
20
20
20
20
20
20
20
20
20
20
20
20
0.3592113
0.3591751
0.3591418
0.3591124
0.3590883
0.6337418
0.6336982
0.633631
20
20
20
20
20
20
20
20
20
20
20
20
20
20
20
0.3592874
0.3592497
0.3592148
0.3591839
0.3591587
0.6337841
0.6337496
0.6337105
0.6336582
20
20
20
20
20
20
20
20
20
20
20
20
20
20
20
0.3593564
0.3593188
0.3592835
0.3592516
0.3592246
0.6338215
0.6337893
0.6337559
0.6337194
0.6336752
20
20
20
20
20
20
20
20
20
20
20
20
20
20
20
0.3594184
0.3593817
0.3593467
0.3593143
0.3592859
0.6338562
0.6338249
0.633793
0.6337603
0.6337251
0.7252635
20
20
20
20
20
20
20
20
20
20
20
20
20
20
20
20
20
20
20
20
20
20
20
20
20
20
20
20
20
20
20
20
20
20
20
20
20
20
20
20
20
20
20
20
20
20
20
20
20
20
20
20
20
20
20
0.08438668
0.08427172
0.08414746
0.08400701
0.08383215
0.0835795
0.08315281
0.08169301
20
20
20
20
20
0.0844856
0.08436884
0.08424452
0.08410616
0.08393381
0.08368313
0.08326285
0.08250023
0.08017051
20
20
20
20
20
0.08458015
0.0844641
0.08434378
0.08421691
0.0840733
0.0838866
0.08360853
0.08316192
0.08246506
0.08088528
20
20
20
20
20
0.08467066
0.08455728
0.08444193
0.08432576
0.08420581
0.08407185
0.08390172
0.08366758
0.08335633
0.08308445
0.357604
20
20
20
20
20
0.08475756
0.08464859
0.08453891
0.08443135
0.08432705
0.08422396
0.08411597
0.0839932
0.08385966
0.08377915
0.3585205
0.3577419
20
20
20
20
20
0.08484116
0.08473821
0.08463502
0.08453493
0.08444056
0.08435362
0.0842743
0.08420257
0.08414219
0.08412474
0.3588418
0.3585943
0.357941
20
20
20
20
20
0.08492165
0.08482611
0.08473032
0.08463735
0.08454999
0.08447086
0.08440264
0.08434821
0.08431323
0.08431182
0.3589963
0.3588845
0.3586835
0.3581749
20
20
20
20
20
0.08499905
0.08491209
0.08482451
0.0847387
0.08465693
0.08458162
0.08451563
0.08446292
0.08442955
0.0844268
0.359083
0.359016
0.3589262
0.3587751
0.358417
20
20
20
20
20
0.08507331
0.08499575
0.08491689
0.08483829
0.08476143
0.08468793
0.08461997
0.084561
0.0845176
0.08450323
0.3591394
0.3590876
0.3590323
0.3589649
0.3588613
0.6334773
20
20
20
20
20
0.08514434
0.08507639
0.08500627
0.08493471
0.08486229
0.08478962
0.08471756
0.08464779
0.08458485
0.08454504
0.3591775
0.359134
0.3590922
0.3590508
0.3590053
0.6336687
0.6335376
20
20
20
20
20
20
20
20
20
20
20
20
20
20
20
0.3592017
0.3591718
0.3591408
0.3591109
0.3590835
0.6337359
0.6336855
0.6335933
20
20
20
20
20
20
20
20
20
20
20
20
20
20
20
0.3592776
0.359242
0.3592085
0.3591782
0.3591527
0.6337799
0.6337439
0.6337007
0.6336339
20
20
20
20
20
20
20
20
20
20
20
20
20
20
20
0.3593497
0.3593129
0.3592782
0.3592466
0.3592196
0.6338185
0.633786
0.6337517
0.6337129
0.6336609
20
20
20
20
20
20
20
20
20
20
20
20
20
20
20
0.3594152
0.3593787
0.3593439
0.3593116
0.3592832
0.6338547
0.6338232
0.6337912
0.6337581
0.6337219
0.7252585
20
20
20
20
20
20
20
20
20
20
20
20
20
20
20
0.3594741
0.3594386
0.3594042
0.3593719
0.3593426
0.6338884
0.6338577
0.6338265
0.6337949
0.6337624
0.7252957
0.7252652
20
20
20
20
20
20
20
20
20
20
20
20
20
20
20
20
20
20
20
20
20
20
20
20
20
20
20
20
20
20
20
20
20
20
20
20
20
20
20
20
20
20
20
20
20
20
20
20
20
20
20
20
20
20
20
20
20
20
20
20
0.08449191
0.0843849
0.08427164
0.08415006
0.0840134
0.08384663
0.08361811
0.08326326
0.08200336
20
20
20
20
20
0.08458484
0.08447592
0.08436266
0.08424379
0.08411325
0.0839551
0.08374007
0.08341938
0.08292549
0.08153836
20
20
20
20
20
0.08467377
0.08456493
0.08445379
0.08434137
0.08422557
0.08409897
0.08394511
0.0837436
0.08348386
0.08324665
0.3577503
20
20
20
20
20
0.08475908
0.08465227
0.08454453
0.08443843
0.08433512
0.08423298
0.084127
0.08400906
0.08388381
0.0838086
0.3585472
0.3578053
20
20
20
20
20
0.08484116
0.08473821
0.08463502
0.08453493
0.08444056
0.08435362
0.0842743
0.08420257
0.08414219
0.08412474
0.3588418
0.3585943
0.357941
20
20
20
20
20
0.08492027
0.08482281
0.08472534
0.08463125
0.08454359
0.08446513
0.08439852
0.08434627
0.08431335
0.08431355
0.3589969
0.3588794
0.3586656
0.3581301
20
20
20
20
20
0.08499652
0.08490599
0.08481531
0.08472749
0.08464531
0.08457163
0.08450954
0.08446276
0.08443613
0.08443852
0.3590905
0.3590196
0.3589205
0.3587492
0.3583469
20
20
20
20
20
0.08506993
0.08498747
0.08490447
0.08482324
0.08474595
0.08467496
0.08461308
0.08456407
0.08453351
0.08452972
0.3591557
0.3591013
0.3590402
0.3589613
0.3588347
0.6334284
20
20
20
20
20
0.08514039
0.08506681
0.08499204
0.08491756
0.0848448
0.08477528
0.08471106
0.08465531
0.08461388
0.08459849
0.3592051
0.3591576
0.3591099
0.3590601
0.3590015
0.6336536
0.633482
20
20
20
20
20
0.0852078
0.08514334
0.08507683
0.08500899
0.0849404
0.08487164
0.08480352
0.08473759
0.08467801
0.08463942
0.359242
0.3592002
0.3591604
0.3591222
0.3590854
0.6337315
0.633671
0.6335414
20
20
20
20
20
20
20
20
20
20
20
20
20
20
20
0.359268
0.3592382
0.359207
0.3591767
0.3591491
0.6337762
0.6337379
0.6336879
0.6335965
20
20
20
20
20
20
20
20
20
20
20
20
20
20
20
0.3593402
0.3593053
0.359272
0.359241
0.359214
0.6338149
0.6337817
0.633746
0.6337031
0.6336368
20
20
20
20
20
20
20
20
20
20
20
20
20
20
20
0.3594088
0.3593729
0.3593386
0.3593068
0.3592785
0.6338519
0.6338202
0.6337878
0.6337539
0.6337153
0.7252478
20
20
20
20
20
20
20
20
20
20
20
20
20
20
20
0.359471
0.3594356
0.3594015
0.3593693
0.35934
0.633887
0.6338562
0.6338249
0.6337931
0.6337602
0.7252932
0.7252603
20
20
20
20
20
20
20
20
20
20
20
20
20
20
20
0.359527
0.3594927
0.3594591
0.3594271
0.3593974
0.6339198
0.6338898
0.6338593
0.6338282
0.6337968
0.7253235
0.7252972
0.7252666
20
20
20
20
20
20
20
20
20
20
20
20
20
20
20
20
20
20
20
20
20
20
20
20
20
20
20
20
20
20
20
20
20
20
20
20
20
20
20
20
20
20
20
20
20
20
20
20
20
20
20
20
20
20
20
20
20
20
20
20
20
20
20
20
20
0.08459067
0.08449038
0.08438532
0.08427519
0.08415795
0.08402808
0.08387561
0.08368342
0.08342464
0.0825613
20
20
20
20
20
0.08467817
0.08457586
0.0844706
0.08436316
0.08425237
0.08413393
0.08399819
0.08383377
0.08363577
0.08345023
0.3579687
20
20
20
20
20
0.08476202
0.08465945
0.08455545
0.08445214
0.08435053
0.08424969
0.08414642
0.08403568
0.0839235
0.08385733
0.3585945
0.357931
20
20
20
20
20
0.08484261
0.08474168
0.08464028
0.08454143
0.08444755
0.08436032
0.0842803
0.08420815
0.08414844
0.08413114
0.3588485
0.3586163
0.357995
20
20
20
20
20
0.08492027
0.08482281
0.08472534
0.08463125
0.08454359
0.08446513
0.08439852
0.08434627
0.08431335
0.08431355
0.3589969
0.3588794
0.3586656
0.3581301
20
20
20
20
20
0.08499521
0.08490285
0.08481059
0.08472172
0.08463929
0.08456637
0.0845061
0.08446201
0.08443826
0.08444286
0.3590934
0.3590204
0.3589165
0.3587347
0.3583107
20
20
20
20
20
0.08506752
0.08498166
0.08489573
0.08481259
0.08473492
0.0846655
0.08460743
0.0845643
0.08454061
0.08454201
0.3591641
0.3591082
0.3590433
0.3589564
0.3588137
0.6333933
20
20
20
20
20
0.08513717
0.08505895
0.08498024
0.08490326
0.08483006
0.08476288
0.08470436
0.08465797
0.08462859
0.0846231
0.3592205
0.3591715
0.3591208
0.3590653
0.3589967
0.6336396
0.6334338
20
20
20
20
20
0.08520405
0.08513425
0.08506332
0.08499271
0.08492376
0.08485792
0.08479709
0.08474416
0.08470442
0.08468809
0.3592669
0.3592216
0.3591773
0.3591334
0.3590886
0.633728
0.6336559
0.6334867
20
20
20
20
20
0.08526803
0.08520688
0.08514379
0.08507947
0.08501446
0.08494935
0.08488489
0.08482251
0.08476603
0.08472877
0.3593034
0.359263
0.3592241
0.3591871
0.3591523
0.633775
0.6337334
0.6336733
0.6335452
20
20
20
20
20
20
20
20
20
20
20
20
20
20
20
0.3593307
0.3593011
0.35927
0.3592392
0.3592106
0.6338121
0.633778
0.63374
0.6336903
0.6335996
20
20
20
20
20
20
20
20
20
20
20
20
20
20
20
0.3593996
0.3593655
0.3593325
0.3593013
0.359273
0.6338485
0.6338166
0.6337836
0.6337481
0.6337055
0.7252298
20
20
20
20
20
20
20
20
20
20
20
20
20
20
20
0.3594648
0.3594301
0.3593964
0.3593645
0.3593355
0.6338843
0.6338534
0.6338219
0.6337897
0.633756
0.7252883
0.7252496
20
20
20
20
20
20
20
20
20
20
20
20
20
20
20
0.359524
0.3594898
0.3594565
0.3594246
0.359395
0.6339184
0.6338883
0.6338577
0.6338266
0.633795
0.7253218
0.7252948
0.7252617
20
20
20
20
20
20
20
20
20
20
20
20
20
20
20
0.3595773
0.3595442
0.3595116
0.3594802
0.3594504
0.6339503
0.6339211
0.6338912
0.6338608
0.6338299
0.7253491
0.7253248
0.7252984
0.7252676
20
20
20
20
20
20
20
20
20
20
20
20
20
20
20
20
20
20
20
20
20
20
20
20
20
20
20
20
20
20
20
20
20
20
20
20
20
20
20
20
20
20
20
20
20
20
20
20
20
20
20
20
20
20
20
20
20
20
20
20
20
20
20
20
20
20
20
20
20
20
0.08468364
0.08458925
0.08449091
0.08438904
0.08428323
0.084172
0.08405205
0.08392004
0.08377651
0.08364384
0.358248
20
20
20
20
20
0.08476618
0.08466971
0.08457099
0.08447144
0.08437182
0.08427177
0.0841699
0.08406446
0.08396315
0.0839044
0.3586495
0.3581148
20
20
20
20
20
0.0848454
0.08474846
0.08465053
0.08455404
0.08446097
0.08437291
0.08429084
0.08421657
0.08415624
0.08413797
0.3588581
0.3586549
0.358101
20
20
20
20
20
0.08492165
0.08482611
0.08473032
0.08463735
0.08454999
0.08447086
0.08440264
0.08434821
0.08431323
0.08431182
0.3589963
0.3588845
0.3586835
0.3581749
20
20
20
20
20
0.08499521
0.08490285
0.08481059
0.08472172
0.08463929
0.08456637
0.0845061
0.08446201
0.08443826
0.08444286
0.3590934
0.3590204
0.3589165
0.3587347
0.3583107
20
20
20
20
20
0.08506627
0.08497868
0.08489125
0.0848071
0.0847292
0.08466053
0.08460426
0.08456384
0.08454318
0.08454689
0.3591676
0.3591109
0.3590442
0.3589532
0.3588021
0.633375
20
20
20
20
20
0.08513487
0.08505343
0.08497194
0.08489313
0.08481956
0.08475384
0.0846989
0.0846581
0.08463527
0.08463478
0.3592286
0.359179
0.3591265
0.3590675
0.3589922
0.6336288
0.6333992
20
20
20
20
20
0.08520098
0.08512677
0.08505212
0.08497911
0.08490973
0.08484605
0.08479052
0.08474631
0.08471776
0.08471058
0.359281
0.3592346
0.3591883
0.3591411
0.3590909
0.6337248
0.633642
0.6334392
20
20
20
20
20
0.08526447
0.08519826
0.08513098
0.08506401
0.08499865
0.08493625
0.08487857
0.08482828
0.08479013
0.08477322
0.3593258
0.3592821
0.3592395
0.359198
0.3591575
0.6337752
0.6337297
0.6336582
0.6334913
20
20
20
20
20
0.08532517
0.08526719
0.08520736
0.08514636
0.08508474
0.08502305
0.08496202
0.08490297
0.08484942
0.08481357
0.3593619
0.3593228
0.3592848
0.3592482
0.3592138
0.6338118
0.6337766
0.6337352
0.6336756
0.6335491
20
20
20
20
20
20
20
20
20
20
20
20
20
20
20
0.3593901
0.3593611
0.3593301
0.3592991
0.3592696
0.6338459
0.6338136
0.6337798
0.633742
0.6336927
0.7252021
20
20
20
20
20
20
20
20
20
20
20
20
20
20
20
0.3594558
0.3594228
0.3593904
0.3593591
0.3593301
0.633881
0.63385
0.6338182
0.6337855
0.6337503
0.725281
0.7252316
20
20
20
20
20
20
20
20
20
20
20
20
20
20
20
0.359518
0.3594844
0.3594516
0.35942
0.3593905
0.6339158
0.6338857
0.6338549
0.6338236
0.6337916
0.7253186
0.7252899
0.725251
20
20
20
20
20
20
20
20
20
20
20
20
20
20
20
0.3595743
0.3595414
0.3595091
0.3594777
0.3594481
0.6339489
0.6339197
0.6338897
0.6338592
0.6338283
0.7253477
0.7253232
0.725296
0.7252626
20
20
20
20
20
20
20
20
20
20
20
20
20
20
20
0.3596251
0.3595933
0.3595618
0.359531
0.3595015
0.6339799
0.6339515
0.6339223
0.6338926
0.6338623
0.7253737
0.7253503
0.7253258
0.7252992
0.7252681
20
20
20
20
20
20
20
20
20
20
20
20
20
20
20
20
20
20
20
20
20
20
20
20
20
20
20
20
20
20
20
20
20
20
20
20
20
20
20
20
20
20
20
20
20
20
20
20
20
20
20
20
20
20
20
20
20
20
20
20
20
20
20
20
20
20
20
20
20
0.3585133
20
20
20
20
20
0.08477133
0.08468227
0.08458979
0.08449453
0.08439679
0.08429643
0.08419308
0.08408674
0.08398362
0.0839128
0.3586902
0.3583396
20
20
20
20
20
0.08484934
0.08475816
0.08466512
0.08457185
0.0844797
0.08438987
0.08430346
0.08422306
0.08415646
0.08413181
0.3588626
0.3586997
0.3582532
20
20
20
20
20
0.0849243
0.08483254
0.08474001
0.08464919
0.08456234
0.08448171
0.08440992
0.08435033
0.08430991
0.08430436
0.3589929
0.3588917
0.3587151
0.3582624
20
20
20
20
20
0.08499652
0.08490599
0.08481531
0.08472749
0.08464531
0.08457163
0.08450954
0.08446276
0.08443613
0.08443852
0.3590905
0.3590196
0.3589205
0.3587492
0.3583469
20
20
20
20
20
0.08506627
0.08497868
0.08489125
0.0848071
0.0847292
0.08466053
0.08460426
0.08456384
0.08454318
0.08454689
0.3591676
0.3591109
0.3590442
0.3589532
0.3588021
0.633375
20
20
20
20
20
0.08513368
0.0850506
0.08496767
0.08488791
0.08481412
0.0847491
0.08469586
0.08465765
0.08463775
0.08463952
0.3592321
0.3591822
0.359129
0.3590682
0.3589894
0.633623
0.6333813
20
20
20
20
20
0.08519879
0.08512153
0.08504422
0.08496948
0.08489972
0.0848374
0.08478521
0.08474621
0.08472381
0.08472131
0.3592885
0.3592418
0.3591946
0.3591454
0.359092
0.6337223
0.6336314
0.6334051
20
20
20
20
20
0.08526154
0.08519116
0.08512033
0.08505109
0.08498529
0.0849249
0.08487216