/*--------------------------------*- C++ -*----------------------------------*\
| =========                 |                                                 |
| \\      /  F ield         | OpenFOAM: The Open Source CFD Toolbox           |
|  \\    /   O peration     | Version:  2306                                  |
|   \\  /    A nd           | Website:  www.openfoam.com                      |
|    \\/     M anipulation  |                                                 |
\*---------------------------------------------------------------------------*/
FoamFile
{
    version     2.0;
    format      ascii;
    arch        "LSB;label=32;scalar=64";
    class       volScalarField;
    location    "0.6";
    object      rhoCp;
}
// * * * * * * * * * * * * * * * * * * * * * * * * * * * * * * * * * * * * * //

dimensions      [1 -1 -2 -1 0 0 0];

internalField   nonuniform List<scalar> 
52000
(
5346000
5346000
5346000
5346000
5346000
5346000
5346000
5346000
5346000
5346000
5346000
5346000
5346000
5346000
5346000
5346000
5346000
5346000
5346000
5346000
5346000
5346000
5346000
5346000
5346000
5346000
5346000
5346000
5346000
5346000
5346000
5346000
5346000
5346000
5346000
5346000
5346000
5346000
5346000
5346000
5346000
5346000
5346000
5346000
5346000
5346000
5346000
5346000
5346000
5346000
5346000
5346000
5346000
5346000
5346000
5346000
5346000
5346000
5346000
5346000
5346000
5346000
5346000
5346000
5346000
5346000
5346000
5346000
5346000
5346000
5346000
5346000
5346000
5346000
5346000
5346000
5346000
5346000
5346000
5346000
5346000
5346000
5346000
5346000
5346000
5346000
5346000
5346000
5346000
5346000
5346000
5346000
5346000
5346000
5346000
5346000
5346000
5346000
5346000
5346000
5346000
5346000
5346000
5346000
5346000
5346000
5346000
5346000
5346000
5346000
5346000
5346000
5346000
5346000
5346000
5346000
5346000
5346000
5346000
5346000
5346000
5346000
5346000
5346000
5346000
5346000
5346000
5346000
5346000
5346000
5346000
5346000
5346000
5346000
5346000
5346000
5346000
5346000
5346000
5346000
5346000
5346000
5346000
5346000
5346000
5346000
5346000
5346000
5346000
5346000
5346000
5346000
5346000
5346000
5346000
5346000
5346000
5346000
5346000
5346000
5346000
5346000
5346000
5346000
5346000
5346000
5346000
5346000
5346000
5346000
5346000
5346000
5346000
5346000
5346000
5346000
5346000
5346000
5346000
5346000
5346000
5346000
5346000
5346000
5346000
5346000
5346000
5346000
5346000
5346000
5346000
5346000
5346000
5346000
5346000
5346000
5346000
5346000
5346000
5346000
5346000
5346000
5346000
5346000
5346000
5346000
5346000
5346000
5346000
5346000
5346000
5346000
5346000
5346000
5346000
5346000
5346000
5346000
5346000
5346000
5346000
5346000
5346000
5346000
5346000
5346000
5346000
5346000
5346000
5346000
5346000
5346000
5346000
5346000
5346000
5346000
5346000
5346000
5346000
5346000
355.9361
5346000
5346000
5346000
5346000
5346000
5346000
5346000
5346000
5346000
5346000
5346000
5346000
5346000
5346000
5346000
5346000
5346000
5346000
5346000
5346000
5346000
5346000
5346000
5346000
5346000
5346000
5346000
5346000
5346000
5346000
5346000
5346000
5346000
5346000
5346000
5346000
5346000
5346000
5346000
5346000
5346000
5346000
5346000
5346000
5346000
5346000
5346000
5346000
5346000
5346000
5346000
5346000
5346000
5346000
5346000
5346000
5346000
5346000
5346000
5346000
5346000
5346000
5346000
5346000
5346000
358.9991
5346000
5346000
5346000
5346000
5346000
352.4131
359.0527
5346000
5346000
5346000
5346000
5346000
5346000
5346000
5346000
5346000
5346000
5346000
5346000
5346000
5346000
5346000
5346000
5346000
5346000
5346000
5346000
5346000
5346000
5346000
5346000
5346000
5346000
5346000
5346000
5346000
5346000
5346000
5346000
5346000
5346000
5346000
5346000
5346000
5346000
5346000
5346000
5346000
5346000
5346000
5346000
5346000
5346000
5346000
5346000
5346000
5346000
5346000
5346000
5346000
5346000
5346000
5346000
5346000
5346000
5346000
5346000
5346000
5346000
5346000
5346000
5346000
5346000
5346000
5346000
5346000
5346000
360.7191
5346000
5346000
5346000
5346000
5346000
353.1283
366.7366
5346000
5346000
5346000
5346000
5346000
351.5024
353.1361
360.82
5346000
5346000
5346000
5346000
5346000
5346000
5346000
5346000
5346000
5346000
5346000
5346000
5346000
5346000
5346000
5346000
5346000
5346000
5346000
5346000
5346000
5346000
5346000
5346000
5346000
5346000
5346000
5346000
5346000
5346000
5346000
5346000
5346000
5346000
5346000
5346000
5346000
5346000
5346000
5346000
5346000
5346000
5346000
5346000
5346000
5346000
5346000
5346000
5346000
5346000
5346000
5346000
5346000
5346000
5346000
5346000
5346000
5346000
5346000
5346000
5346000
5346000
5346000
5346000
5346000
5346000
5346000
5346000
5346000
5346000
5346000
5346000
5346000
5346000
5346000
361.7052
5346000
5346000
5346000
5346000
5346000
353.7497
371.6978
5346000
5346000
5346000
5346000
5346000
351.7795
355.2618
371.7789
5346000
5346000
5346000
5346000
5346000
350.7598
351.7633
353.7622
361.862
5346000
5346000
5346000
5346000
5346000
5346000
5346000
5346000
5346000
5346000
5346000
5346000
5346000
5346000
5346000
5346000
5346000
5346000
5346000
5346000
5346000
5346000
5346000
5346000
5346000
5346000
5346000
5346000
5346000
5346000
5346000
5346000
5346000
5346000
5346000
5346000
5346000
5346000
5346000
5346000
5346000
5346000
5346000
5346000
5346000
5346000
5346000
5346000
5346000
5346000
5346000
5346000
5346000
5346000
5346000
5346000
5346000
5346000
5346000
5346000
5346000
5346000
5346000
5346000
5346000
5346000
5346000
5346000
5346000
5346000
5346000
5346000
5346000
5346000
5346000
5346000
5346000
5346000
5346000
5346000
362.1652
5346000
5346000
5346000
5346000
5346000
354.2077
374.7401
5346000
5346000
5346000
5346000
5346000
352.0285
357.1468
379.5017
5346000
5346000
5346000
5346000
5346000
350.8872
352.5755
357.168
374.9606
5346000
5346000
5346000
5346000
5346000
350.1079
350.8622
351.9947
354.2262
362.3951
5346000
5346000
5346000
5346000
5346000
5346000
5346000
5346000
5346000
5346000
5346000
5346000
5346000
5346000
5346000
5346000
5346000
5346000
5346000
5346000
5346000
5346000
5346000
5346000
5346000
5346000
5346000
5346000
5346000
5346000
5346000
5346000
5346000
5346000
5346000
5346000
5346000
5346000
5346000
5346000
5346000
5346000
5346000
5346000
5346000
5346000
5346000
5346000
5346000
5346000
5346000
5346000
5346000
5346000
5346000
5346000
5346000
5346000
5346000
5346000
5346000
5346000
5346000
5346000
5346000
5346000
5346000
5346000
5346000
5346000
5346000
5346000
5346000
5346000
5346000
5346000
5346000
5346000
5346000
5346000
5346000
5346000
5346000
5346000
5346000
362.1652
5346000
5346000
5346000
5346000
5346000
354.4506
376.2002
5346000
5346000
5346000
5346000
5346000
352.219
358.5553
384.5138
5346000
5346000
5346000
5346000
5346000
350.999
353.3192
360.2612
384.7123
5346000
5346000
5346000
5346000
5346000
350.1781
351.2194
353.3036
358.6194
376.6418
5346000
5346000
5346000
5346000
5346000
349.5129
350.1517
350.9482
352.1641
354.4766
362.4915
5346000
5346000
5346000
5346000
5346000
5346000
5346000
5346000
5346000
5346000
5346000
5346000
5346000
5346000
5346000
5346000
5346000
5346000
5346000
5346000
5346000
5346000
5346000
5346000
5346000
5346000
5346000
5346000
5346000
5346000
5346000
5346000
5346000
5346000
5346000
5346000
5346000
5346000
5346000
5346000
5346000
5346000
5346000
5346000
5346000
5346000
5346000
5346000
5346000
5346000
5346000
5346000
5346000
5346000
5346000
5346000
5346000
5346000
5346000
5346000
5346000
5346000
5346000
5346000
5346000
5346000
5346000
5346000
5346000
351.7229
5346000
5346000
5346000
5346000
5346000
5346000
5346000
5346000
5346000
5346000
5346000
5346000
5346000
5346000
5346000
5346000
5346000
5346000
5346000
5346000
361.7052
5346000
5346000
5346000
5346000
5346000
354.4506
376.2002
5346000
5346000
5346000
5346000
5346000
352.3226
359.3084
386.9988
5346000
5346000
5346000
5346000
5346000
351.0836
353.895
362.6162
391.2937
5346000
5346000
5346000
5346000
5346000
350.2373
351.541
354.5247
362.6842
387.5603
5346000
5346000
5346000
5346000
5346000
349.5596
350.3368
351.5117
353.8635
359.4381
376.9532
5346000
5346000
5346000
5346000
5346000
348.9666
349.5343
350.1837
351.0017
352.2406
354.4812
362.1548
5346000
5346000
5346000
5346000
5346000
5346000
5346000
5346000
5346000
5346000
5346000
5346000
5346000
5346000
5346000
5346000
5346000
5346000
5346000
5346000
5346000
5346000
5346000
5346000
5346000
5346000
5346000
5346000
5346000
5346000
5346000
5346000
5346000
5346000
5346000
5346000
5346000
5346000
5346000
5346000
5346000
5346000
5346000
5346000
5346000
5346000
5346000
5346000
5346000
5346000
5346000
5346000
5346000
5346000
5346000
5346000
5346000
351.7681
5346000
5346000
5346000
5346000
5346000
5346000
5346000
5346000
5346000
5346000
5346000
5346000
5346000
5346000
5346000
351.015
351.307
5346000
5346000
5346000
5346000
5346000
5346000
5346000
5346000
5346000
5346000
5346000
5346000
5346000
5346000
5346000
5346000
5346000
5346000
5346000
5346000
360.7191
5346000
5346000
5346000
5346000
5346000
354.2077
374.7401
5346000
5346000
5346000
5346000
5346000
352.3226
359.3084
386.9988
5346000
5346000
5346000
5346000
5346000
351.1295
354.2103
363.8889
394.6337
5346000
5346000
5346000
5346000
5346000
350.2808
351.7881
355.4837
365.8279
395.0909
5346000
5346000
5346000
5346000
5346000
349.5974
350.4984
352.0294
355.4726
364.0785
388.1031
5346000
5346000
5346000
5346000
5346000
349.003
349.6503
350.4661
351.7204
354.1578
359.5145
375.8968
5346000
5346000
5346000
5346000
5346000
348.4588
348.9796
349.5461
350.1945
351.0082
352.2025
354.2286
361.3248
5346000
5346000
5346000
5346000
5346000
5346000
5346000
5346000
5346000
5346000
5346000
5346000
5346000
5346000
5346000
5346000
5346000
5346000
5346000
5346000
5346000
5346000
5346000
5346000
5346000
5346000
5346000
5346000
5346000
5346000
5346000
5346000
5346000
5346000
5346000
5346000
5346000
5346000
5346000
5346000
5346000
5346000
5346000
5346000
351.8621
5346000
5346000
5346000
5346000
5346000
5346000
5346000
5346000
5346000
5346000
5346000
5346000
5346000
5346000
5346000
351.0422
351.3601
5346000
5346000
5346000
5346000
5346000
5346000
5346000
5346000
5346000
5346000
5346000
5346000
5346000
5346000
5346000
350.3506
350.6355
350.8857
5346000
5346000
5346000
5346000
5346000
5346000
5346000
5346000
5346000
5346000
5346000
5346000
5346000
5346000
5346000
5346000
5346000
5346000
5346000
5346000
358.9991
5346000
5346000
5346000
5346000
5346000
353.7497
371.6978
5346000
5346000
5346000
5346000
5346000
352.219
358.5553
384.5138
5346000
5346000
5346000
5346000
5346000
351.1295
354.2103
363.8889
394.6337
5346000
5346000
5346000
5346000
5346000
350.3041
351.923
356.0133
367.5439
398.9636
5346000
5346000
5346000
5346000
5346000
349.6244
350.6194
352.433
356.7517
367.702
395.83
5346000
5346000
5346000
5346000
5346000
349.0317
349.7481
350.7178
352.3912
355.9905
364.2346
386.3201
5346000
5346000
5346000
5346000
5346000
348.49
349.0666
349.7167
350.5433
351.8024
354.1194
358.8179
373.3555
5346000
5346000
5346000
5346000
5346000
347.9857
348.4687
348.9842
349.5417
350.1765
350.957
352.0417
353.7274
359.8217
5346000
5346000
5346000
5346000
5346000
5346000
5346000
5346000
5346000
5346000
5346000
5346000
5346000
5346000
5346000
5346000
5346000
5346000
5346000
5346000
5346000
5346000
5346000
5346000
5346000
5346000
5346000
5346000
5346000
5346000
352.0246
5346000
5346000
5346000
5346000
5346000
5346000
5346000
5346000
5346000
5346000
5346000
5346000
5346000
5346000
5346000
351.0957
351.4759
5346000
5346000
5346000
5346000
5346000
5346000
5346000
5346000
5346000
5346000
5346000
5346000
5346000
5346000
5346000
350.3725
350.6623
350.9451
5346000
5346000
5346000
5346000
5346000
5346000
5346000
5346000
5346000
5346000
5346000
5346000
5346000
5346000
5346000
349.7377
350.0178
350.2533
350.4552
5346000
5346000
5346000
5346000
5346000
5346000
5346000
5346000
5346000
5346000
5346000
5346000
5346000
5346000
5346000
5346000
5346000
5346000
5346000
5346000
355.9361
5346000
5346000
5346000
5346000
5346000
353.1283
366.7366
5346000
5346000
5346000
5346000
5346000
352.0285
357.1468
379.5017
5346000
5346000
5346000
5346000
5346000
351.0836
353.895
362.6162
391.2937
5346000
5346000
5346000
5346000
5346000
350.3041
351.923
356.0133
367.5439
398.9636
5346000
5346000
5346000
5346000
5346000
349.6386
350.6844
352.6553
357.463
369.6924
399.8153
5346000
5346000
5346000
5346000
5346000
349.0518
349.8191
350.9092
352.9206
357.4587
367.9291
393.4573
5346000
5346000
5346000
5346000
5346000
348.5144
349.1381
349.8637
350.8595
352.5521
355.9606
363.1022
382.1287
5346000
5346000
5346000
5346000
5346000
348.0139
348.542
349.1088
349.7448
350.5478
351.726
353.728
357.3983
369.0146
5346000
5346000
5346000
5346000
5346000
347.5425
347.9944
348.4708
348.975
349.5163
350.124
350.8423
351.7602
352.9926
357.1396
5346000
5346000
5346000
5346000
5346000
5346000
5346000
5346000
5346000
5346000
5346000
5346000
5346000
5346000
5346000
352.3568
5346000
5346000
5346000
5346000
5346000
5346000
5346000
5346000
5346000
5346000
5346000
5346000
5346000
5346000
5346000
351.1756
351.6927
5346000
5346000
5346000
5346000
5346000
5346000
5346000
5346000
5346000
5346000
5346000
5346000
5346000
5346000
5346000
350.415
350.7148
351.0769
5346000
5346000
5346000
5346000
5346000
5346000
5346000
5346000
5346000
5346000
5346000
5346000
5346000
5346000
5346000
349.7572
350.0373
350.28
350.5187
5346000
5346000
5346000
5346000
5346000
5346000
5346000
5346000
5346000
5346000
5346000
5346000
5346000
5346000
5346000
349.1777
349.4477
349.6832
349.8659
350.0229
5346000
5346000
5346000
5346000
5346000
5346000
5346000
5346000
5346000
5346000
5346000
5346000
5346000
5346000
5346000
5346000
5346000
5346000
5346000
5346000
5346000
5346000
5346000
5346000
5346000
352.4131
359.0527
5346000
5346000
5346000
5346000
5346000
351.7795
355.2618
371.7789
5346000
5346000
5346000
5346000
5346000
350.999
353.3192
360.2612
384.7123
5346000
5346000
5346000
5346000
5346000
350.2808
351.7881
355.4837
365.8279
395.0909
5346000
5346000
5346000
5346000
5346000
349.6386
350.6844
352.6553
357.463
369.6924
399.8153
5346000
5346000
5346000
5346000
5346000
349.0622
349.8566
351.013
353.2146
358.2791
369.9619
397.1114
5346000
5346000
5346000
5346000
5346000
348.5313
349.1887
349.972
351.1031
353.1495
357.4411
366.4413
387.972
5346000
5346000
5346000
5346000
5346000
348.0357
348.6013
349.2132
349.9227
350.8892
352.4593
355.3537
360.7988
375.32
5346000
5346000
5346000
5346000
5346000
347.5685
348.0601
348.5744
349.1192
349.7228
350.4638
351.4782
353.0084
355.3737
362.1475
5346000
5346000
5346000
5346000
5346000
347.1265
347.5506
347.9958
348.4605
348.9484
349.4661
350.0323
350.66
351.3543
351.9968
354.0787
5346000
5346000
5346000
5346000
5346000
5346000
5346000
5346000
5346000
5346000
5346000
5346000
5346000
5346000
5346000
351.2603
352.1504
5346000
5346000
5346000
5346000
5346000
5346000
5346000
5346000
5346000
5346000
5346000
5346000
5346000
5346000
5346000
350.4749
350.7902
351.3253
5346000
5346000
5346000
5346000
5346000
5346000
5346000
5346000
5346000
5346000
5346000
5346000
5346000
5346000
5346000
349.7946
350.0732
350.332
350.6598
5346000
5346000
5346000
5346000
5346000
5346000
5346000
5346000
5346000
5346000
5346000
5346000
5346000
5346000
5346000
349.1958
349.4643
349.7008
349.8925
350.0883
5346000
5346000
5346000
5346000
5346000
5346000
5346000
5346000
5346000
5346000
5346000
5346000
5346000
5346000
5346000
348.6551
348.9243
349.1563
349.3448
349.4809
349.7684
5346000
5346000
5346000
5346000
5346000
5346000
5346000
5346000
5346000
5346000
5346000
5346000
5346000
5346000
5346000
5346000
5346000
5346000
5346000
5346000
5346000
5346000
5346000
5346000
5346000
5346000
5346000
5346000
5346000
5346000
351.5024
353.1361
360.82
5346000
5346000
5346000
5346000
5346000
350.8872
352.5755
357.168
374.9606
5346000
5346000
5346000
5346000
5346000
350.2373
351.541
354.5247
362.6842
387.5603
5346000
5346000
5346000
5346000
5346000
349.6244
350.6194
352.433
356.7517
367.702
395.83
5346000
5346000
5346000
5346000
5346000
349.0622
349.8566
351.013
353.2146
358.2791
369.9619
397.1114
5346000
5346000
5346000
5346000
5346000
348.5399
349.215
350.0296
351.2364
353.4832
358.2701
368.2735
390.914
5346000
5346000
5346000
5346000
5346000
348.0509
348.6428
349.2881
350.0555
351.1556
353.0483
356.6631
363.4279
379.361
5346000
5346000
5346000
5346000
5346000
347.5887
348.113
348.6598
349.2418
349.9065
350.7821
352.0959
354.2311
357.5921
365.4034
5346000
5346000
5346000
5346000
5346000
347.1507
347.6113
348.0883
348.5788
349.0899
349.6414
350.2818
351.0621
352.0128
352.9012
355.957
5346000
5346000
5346000
5346000
5346000
346.7348
347.1342
347.5518
347.9857
348.4349
348.9017
349.3874
349.8952
350.3936
350.7542
351.1157
353.4757
5346000
5346000
5346000
5346000
5346000
5346000
5346000
5346000
5346000
5346000
5346000
5346000
5346000
5346000
5346000
350.5117
350.8623
351.8124
5346000
5346000
5346000
5346000
5346000
5346000
5346000
5346000
5346000
5346000
5346000
5346000
5346000
5346000
5346000
349.8463
350.1156
350.4066
350.9198
5346000
5346000
5346000
5346000
5346000
5346000
5346000
5346000
5346000
5346000
5346000
5346000
5346000
5346000
5346000
349.2304
349.4939
349.7319
349.9448
350.2325
5346000
5346000
5346000
5346000
5346000
5346000
5346000
5346000
5346000
5346000
5346000
5346000
5346000
5346000
5346000
348.6721
348.9394
349.1705
349.361
349.5075
349.8336
5346000
5346000
5346000
5346000
5346000
5346000
5346000
5346000
5346000
5346000
5346000
5346000
5346000
5346000
5346000
348.1683
348.4323
348.6694
348.8615
349.0098
349.256
349.7364
5346000
5346000
5346000
5346000
5346000
5346000
5346000
5346000
5346000
5346000
5346000
5346000
5346000
5346000
5346000
5346000
5346000
5346000
5346000
5346000
5346000
5346000
5346000
5346000
5346000
5346000
5346000
5346000
5346000
5346000
5346000
5346000
5346000
5346000
5346000
350.7598
351.7633
353.7622
361.862
5346000
5346000
5346000
5346000
5346000
350.1781
351.2194
353.3036
358.6194
376.6418
5346000
5346000
5346000
5346000
5346000
349.5974
350.4984
352.0294
355.4726
364.0785
388.1031
5346000
5346000
5346000
5346000
5346000
349.0518
349.8191
350.9092
352.9206
357.4587
367.9291
393.4573
5346000
5346000
5346000
5346000
5346000
348.5399
349.215
350.0296
351.2364
353.4832
358.2701
368.2735
390.914
5346000
5346000
5346000
5346000
5346000
348.0586
348.6641
349.3272
350.1268
351.3024
353.3787
357.3966
364.863
381.3521
5346000
5346000
5346000
5346000
5346000
347.6026
348.1498
348.7201
349.3307
350.0457
351.034
352.5981
355.2229
359.3034
367.4483
5346000
5346000
5346000
5346000
5346000
347.1696
347.6601
348.164
348.6774
349.2117
349.8013
350.5268
351.482
352.7253
353.8582
357.4469
5346000
5346000
5346000
5346000
5346000
346.7575
347.191
347.6372
348.0908
348.5487
349.014
349.4926
349.9957
350.4834
350.7805
351.3549
354.9714
5346000
5346000
5346000
5346000
5346000
346.3654
346.7422
347.1355
347.5424
347.9617
348.3916
348.8315
349.2734
349.6923
349.96
350.0762
350.8394
352.8583
5346000
5346000
5346000
5346000
5346000
5346000
5346000
5346000
5346000
5346000
5346000
5346000
5346000
5346000
5346000
349.8698
350.1112
350.4828
351.3881
5346000
5346000
5346000
5346000
5346000
5346000
5346000
5346000
5346000
5346000
5346000
5346000
5346000
5346000
5346000
349.2781
349.5255
349.765
350.021
350.4901
5346000
5346000
5346000
5346000
5346000
5346000
5346000
5346000
5346000
5346000
5346000
5346000
5346000
5346000
5346000
348.7048
348.9663
349.1943
349.3895
349.5605
349.9764
5346000
5346000
5346000
5346000
5346000
5346000
5346000
5346000
5346000
5346000
5346000
5346000
5346000
5346000
5346000
348.1845
348.4465
348.6822
348.874
349.0252
349.2824
349.8015
5346000
5346000
5346000
5346000
5346000
5346000
5346000
5346000
5346000
5346000
5346000
5346000
5346000
5346000
5346000
347.711
347.9709
348.208
348.4115
348.5702
348.8136
349.2275
349.705
5346000
5346000
5346000
5346000
5346000
5346000
5346000
5346000
5346000
5346000
5346000
5346000
5346000
5346000
5346000
5346000
5346000
5346000
5346000
5346000
5346000
5346000
5346000
5346000
5346000
5346000
5346000
5346000
5346000
5346000
5346000
5346000
5346000
5346000
5346000
5346000
5346000
5346000
5346000
5346000
350.1079
350.8622
351.9947
354.2262
362.3951
5346000
5346000
5346000
5346000
5346000
349.5596
350.3368
351.5117
353.8635
359.4381
376.9532
5346000
5346000
5346000
5346000
5346000
349.0317
349.7481
350.7178
352.3912
355.9905
364.2346
386.3201
5346000
5346000
5346000
5346000
5346000
348.5313
349.1887
349.972
351.1031
353.1495
357.4411
366.4413
387.972
5346000
5346000
5346000
5346000
5346000
348.0586
348.6641
349.3272
350.1268
351.3024
353.3787
357.3966
364.863
381.3521
5346000
5346000
5346000
5346000
5346000
347.6098
348.1686
348.7512
349.3774
350.1209
351.1741
352.8815
355.7798
360.235
368.4464
5346000
5346000
5346000
5346000
5346000
347.1826
347.6939
348.217
348.7476
349.3011
349.9251
350.7271
351.8366
353.3256
354.6252
358.4536
5346000
5346000
5346000
5346000
5346000
346.7753
347.2366
347.7069
348.1777
348.6446
349.1134
349.5983
350.1254
350.6623
350.9899
351.7055
356.2138
5346000
5346000
5346000
5346000
5346000
346.3868
346.7956
347.2154
347.6393
348.0622
348.4787
348.8848
349.2678
349.5935
349.7262
349.9484
351.0328
354.0456
5346000
5346000
5346000
5346000
5346000
346.0164
346.3725
346.7435
347.1266
347.5199
347.9215
348.3276
348.7313
349.1039
349.3421
349.3921
349.8535
350.5303
352.2202
5346000
5346000
5346000
5346000
5346000
5346000
5346000
5346000
5346000
5346000
5346000
5346000
5346000
5346000
5346000
349.2989
349.5022
349.7548
350.1073
350.9174
5346000
5346000
5346000
5346000
5346000
5346000
5346000
5346000
5346000
5346000
5346000
5346000
5346000
5346000
5346000
348.75
348.9942
349.2145
349.42
349.64
350.227
5346000
5346000
5346000
5346000
5346000
5346000
5346000
5346000
5346000
5346000
5346000
5346000
5346000
5346000
5346000
348.2157
348.4717
348.7031
348.8943
349.0529
349.3355
349.9439
5346000
5346000
5346000
5346000
5346000
5346000
5346000
5346000
5346000
5346000
5346000
5346000
5346000
5346000
5346000
347.7265
347.9845
348.2199
348.4224
348.5817
348.8288
349.2539
349.7699
5346000
5346000
5346000
5346000
5346000
5346000
5346000
5346000
5346000
5346000
5346000
5346000
5346000
5346000
5346000
347.2813
347.5348
347.7721
347.9807
348.1568
348.3985
348.7886
349.1997
349.6729
5346000
5346000
5346000
5346000
5346000
5346000
5346000
5346000
5346000
5346000
5346000
5346000
5346000
5346000
5346000
5346000
5346000
5346000
5346000
5346000
5346000
5346000
5346000
5346000
5346000
5346000
5346000
5346000
5346000
5346000
5346000
5346000
5346000
5346000
5346000
5346000
5346000
5346000
5346000
5346000
5346000
5346000
5346000
5346000
5346000
349.5129
350.1517
350.9482
352.1641
354.4766
362.4915
5346000
5346000
5346000
5346000
5346000
349.003
349.6503
350.4661
351.7204
354.1578
359.5145
375.8968
5346000
5346000
5346000
5346000
5346000
348.5144
349.1381
349.8637
350.8595
352.5521
355.9606
363.1022
382.1287
5346000
5346000
5346000
5346000
5346000
348.0509
348.6428
349.2881
350.0555
351.1556
353.0483
356.6631
363.4279
379.361
5346000
5346000
5346000
5346000
5346000
347.6098
348.1686
348.7512
349.3774
350.1209
351.1741
352.8815
355.7798
360.235
368.4464
5346000
5346000
5346000
5346000
5346000
347.1893
347.7111
348.2443
348.784
349.3485
349.993
350.8404
352.0401
353.6676
355.0477
358.9588
5346000
5346000
5346000
5346000
5346000
346.7876
347.2682
347.7556
348.239
348.7136
349.1883
349.6855
350.2458
350.843
351.2108
352.0129
357.0704
5346000
5346000
5346000
5346000
5346000
346.4036
346.8386
347.2806
347.7192
348.1461
348.5541
348.9396
349.2931
349.5874
349.6858
349.9597
351.3132
355.0635
5346000
5346000
5346000
5346000
5346000
346.0366
346.4229
346.8188
347.2175
347.6127
347.9977
348.3628
348.6931
348.9498
349.042
349.166
349.7488
350.698
353.1556
5346000
5346000
5346000
5346000
5346000
345.6863
346.0232
346.3738
346.7352
347.1056
347.4824
347.8624
348.2368
348.582
348.8033
348.8487
349.2013
349.6098
350.1958
351.5785
5346000
5346000
5346000
5346000
5346000
5346000
5346000
5346000
5346000
5346000
5346000
5346000
5346000
5346000
5346000
348.7713
348.9692
349.1822
349.42
349.7386
350.6272
5346000
5346000
5346000
5346000
5346000
5346000
5346000
5346000
5346000
5346000
5346000
5346000
5346000
5346000
5346000
348.2591
348.4984
348.7195
348.9105
349.0857
349.4167
350.1936
5346000
5346000
5346000
5346000
5346000
5346000
5346000
5346000
5346000
5346000
5346000
5346000
5346000
5346000
5346000
347.7563
348.0087
348.2395
348.4397
348.6007
348.8565
349.3069
349.9121
5346000
5346000
5346000
5346000
5346000
5346000
5346000
5346000
5346000
5346000
5346000
5346000
5346000
5346000
5346000
347.2962
347.5479
347.7835
347.9909
348.1667
348.4097
348.8037
349.226
349.7377
5346000
5346000
5346000
5346000
5346000
5346000
5346000
5346000
5346000
5346000
5346000
5346000
5346000
5346000
5346000
346.8759
347.1229
347.3573
347.5704
347.7566
348.0056
348.3764
348.7641
349.1713
349.6421
5346000
5346000
5346000
5346000
5346000
5346000
5346000
5346000
5346000
5346000
5346000
5346000
5346000
5346000
5346000
5346000
5346000
5346000
5346000
5346000
5346000
5346000
5346000
5346000
5346000
5346000
5346000
5346000
5346000
5346000
5346000
5346000
5346000
5346000
5346000
5346000
5346000
5346000
5346000
5346000
5346000
5346000
5346000
5346000
5346000
5346000
5346000
5346000
5346000
5346000
348.9666
349.5343
350.1837
351.0017
352.2406
354.4812
362.1548
5346000
5346000
5346000
5346000
5346000
348.49
349.0666
349.7167
350.5433
351.8024
354.1194
358.8179
373.3555
5346000
5346000
5346000
5346000
5346000
348.0357
348.6013
349.2132
349.9227
350.8892
352.4593
355.3537
360.7988
375.32
5346000
5346000
5346000
5346000
5346000
347.6026
348.1498
348.7201
349.3307
350.0457
351.034
352.5981
355.2229
359.3034
367.4483
5346000
5346000
5346000
5346000
5346000
347.1893
347.7111
348.2443
348.784
349.3485
349.993
350.8404
352.0401
353.6676
355.0477
358.9588
5346000
5346000
5346000
5346000
5346000
346.7939
347.2843
347.7805
348.2706
348.7496
349.2286
349.7351
350.3177
350.9535
351.3453
352.1879
357.5042
5346000
5346000
5346000
5346000
5346000
346.4152
346.8684
347.3261
347.7753
348.2058
348.6097
348.9853
349.3281
349.6182
349.7096
350.0124
351.5608
355.7783
5346000
5346000
5346000
5346000
5346000
346.0525
346.4635
346.8803
347.2924
347.6899
348.0629
348.3994
348.6841
348.883
348.9239
349.0709
349.7488
350.9246
353.9736
5346000
5346000
5346000
5346000
5346000
345.7054
346.0709
346.445
346.8211
347.1929
347.553
347.8918
348.1921
348.4211
348.5018
348.608
349.0171
349.5362
350.3485
352.3024
5346000
5346000
5346000
5346000
5346000
345.3738
345.6928
346.0244
346.366
346.7154
347.0704
347.4274
347.7788
348.1018
348.3152
348.3659
348.6806
348.9955
349.3501
349.8555
351.2107
5346000
5346000
5346000
5346000
5346000
5346000
5346000
5346000
5346000
5346000
5346000
5346000
5346000
5346000
5346000
348.2818
348.4769
348.6847
348.887
349.1033
349.5214
350.5906
5346000
5346000
5346000
5346000
5346000
5346000
5346000
5346000
5346000
5346000
5346000
5346000
5346000
5346000
5346000
347.7982
348.0349
348.2551
348.4517
348.6184
348.8917
349.3882
350.1608
5346000
5346000
5346000
5346000
5346000
5346000
5346000
5346000
5346000
5346000
5346000
5346000
5346000
5346000
5346000
347.3249
347.5713
347.8024
348.007
348.1825
348.4287
348.8314
349.279
349.8795
5346000
5346000
5346000
5346000
5346000
5346000
5346000
5346000
5346000
5346000
5346000
5346000
5346000
5346000
5346000
346.8903
347.1355
347.3682
347.5801
347.7657
348.0152
348.3876
348.7792
349.1976
349.7068
5346000
5346000
5346000
5346000
5346000
5346000
5346000
5346000
5346000
5346000
5346000
5346000
5346000
5346000
5346000
346.4932
346.7325
346.9631
347.1769
347.3716
347.6223
347.9859
348.3548
348.7391
349.1441
349.6074
5346000
5346000
5346000
5346000
5346000
5346000
5346000
5346000
5346000
5346000
5346000
5346000
5346000
5346000
5346000
5346000
5346000
5346000
5346000
5346000
5346000
5346000
5346000
5346000
5346000
5346000
5346000
5346000
5346000
5346000
5346000
5346000
5346000
5346000
5346000
5346000
5346000
5346000
5346000
5346000
5346000
5346000
5346000
5346000
5346000
5346000
5346000
5346000
5346000
5346000
5346000
5346000
5346000
5346000
5346000
348.4588
348.9796
349.5461
350.1945
351.0082
352.2025
354.2286
361.3248
5346000
5346000
5346000
5346000
5346000
348.0139
348.542
349.1088
349.7448
350.5478
351.726
353.728
357.3983
369.0146
5346000
5346000
5346000
5346000
5346000
347.5887
348.113
348.6598
349.2418
349.9065
350.7821
352.0959
354.2311
357.5921
365.4034
5346000
5346000
5346000
5346000
5346000
347.1826
347.6939
348.217
348.7476
349.3011
349.9251
350.7271
351.8366
353.3256
354.6252
358.4536
5346000
5346000
5346000
5346000
5346000
346.7939
347.2843
347.7805
348.2706
348.7496
349.2286
349.7351
350.3177
350.9535
351.3453
352.1879
357.5042
5346000
5346000
5346000
5346000
5346000
346.4211
346.8836
347.3494
347.8042
348.2368
348.6392
349.0113
349.3518
349.6443
349.7353
350.0517
351.7025
356.1437
5346000
5346000
5346000
5346000
5346000
346.0635
346.4917
346.9232
347.3449
347.7445
348.1104
348.4298
348.6898
348.8621
348.8813
349.0371
349.7842
351.1235
354.5567
5346000
5346000
5346000
5346000
5346000
345.7205
346.1093
346.5031
346.8917
347.2653
347.6131
347.9222
348.1738
348.3399
348.3658
348.485
348.9302
349.5338
350.5343
352.9419
5346000
5346000
5346000
5346000
5346000
345.3919
345.7379
346.0918
346.4472
346.7981
347.1373
347.4552
347.7363
347.9496
348.0333
348.1371
348.4848
348.8563
349.3094
349.9987
351.8366
5346000
5346000
5346000
5346000
5346000
345.0779
345.38
345.6939
346.017
346.3473
346.6823
347.0189
347.3497
347.6548
347.8604
347.922
348.2152
348.501
348.778
349.091
349.6502
351.1656
5346000
5346000
5346000
5346000
5346000
5346000
5346000
5346000
5346000
5346000
5346000
5346000
5346000
5346000
5346000
347.8224
348.0182
348.2237
348.424
348.6119
348.9196
349.4934
350.5545
5346000
5346000
5346000
5346000
5346000
5346000
5346000
5346000
5346000
5346000
5346000
5346000
5346000
5346000
5346000
347.3654
347.5972
347.8182
348.018
348.1953
348.4486
348.8668
349.3604
350.1271
5346000
5346000
5346000
5346000
5346000
5346000
5346000
5346000
5346000
5346000
5346000
5346000
5346000
5346000
5346000
346.9179
347.1582
347.3867
347.5956