/*--------------------------------*- C++ -*----------------------------------*\
| =========                 |                                                 |
| \\      /  F ield         | OpenFOAM: The Open Source CFD Toolbox           |
|  \\    /   O peration     | Version:  2306                                  |
|   \\  /    A nd           | Website:  www.openfoam.com                      |
|    \\/     M anipulation  |                                                 |
\*---------------------------------------------------------------------------*/
FoamFile
{
    version     2.0;
    format      ascii;
    arch        "LSB;label=32;scalar=64";
    class       volScalarField;
    location    "0.6";
    object      T;
}
// * * * * * * * * * * * * * * * * * * * * * * * * * * * * * * * * * * * * * //

dimensions      [0 0 0 1 0 0 0];

internalField   nonuniform List<scalar> 
52000
(
1159.463
1159.461
1161.1
1159.405
1159.457
1161.1
1159.403
1163.284
1161.082
1159.291
1159.452
1161.098
1159.398
1163.284
1161.081
1159.287
1165.552
1163.284
1161.046
1159.124
1159.446
1161.096
1159.391
1163.282
1161.079
1159.278
1165.552
1163.283
1161.044
1159.116
1167.741
1165.558
1163.284
1160.997
1158.914
1159.44
1161.094
1159.382
1163.281
1161.076
1159.267
1165.55
1163.281
1161.042
1159.102
1167.74
1165.557
1163.282
1160.994
1158.899
1169.801
1167.749
1165.571
1163.287
1160.94
1158.74
1159.434
1161.091
1159.373
1163.279
1161.073
1159.253
1165.548
1163.279
1161.038
1159.082
1167.739
1165.555
1163.28
1160.99
1158.871
1169.801
1167.748
1165.57
1163.285
1160.936
1158.715
1171.726
1169.809
1167.765
1165.593
1163.298
1160.898
1158.627
1159.428
1161.089
1159.364
1163.276
1161.069
1159.238
1165.546
1163.276
1161.033
1159.058
1167.737
1165.553
1163.276
1160.984
1158.834
1169.8
1167.746
1165.567
1163.281
1160.929
1158.665
1171.725
1169.808
1167.764
1165.591
1163.296
1160.892
1158.595
1173.521
1171.733
1169.826
1167.793
1165.629
1163.316
1160.874
1158.524
1159.424
1161.086
1159.356
1163.274
1161.066
1159.222
1165.544
1163.273
1161.028
1159.033
1167.735
1165.55
1163.272
1160.977
1158.794
1169.798
1167.744
1165.563
1163.275
1160.92
1158.592
1171.724
1169.807
1167.761
1165.587
1163.29
1160.881
1158.529
1173.521
1171.732
1169.825
1167.791
1165.626
1163.313
1160.866
1158.485
1175.198
1173.528
1171.749
1169.853
1167.834
1165.667
1163.331
1160.856
1158.437
1159.422
1161.085
1159.351
1163.272
1161.063
1159.208
1165.542
1163.27
1161.022
1159.003
1167.733
1165.547
1163.266
1160.969
1158.766
1169.796
1167.741
1165.558
1163.267
1160.911
1158.499
1171.723
1169.805
1167.758
1165.581
1163.281
1160.864
1158.428
1173.52
1171.731
1169.822
1167.787
1165.62
1163.307
1160.85
1158.405
1175.198
1173.527
1171.748
1169.851
1167.831
1165.664
1163.328
1160.846
1158.393
1176.768
1175.205
1173.542
1171.774
1169.893
1167.876
1165.696
1163.351
1160.847
1158.371
1159.422
1161.084
1159.347
1163.271
1161.061
1159.198
1165.54
1163.267
1161.017
1158.975
1167.731
1165.544
1163.261
1160.959
1158.701
1169.794
1167.738
1165.553
1163.258
1160.903
1146.187
1171.721
1169.802
1167.753
1165.572
1163.268
1160.847
1158.286
1173.518
1171.729
1169.819
1167.78
1165.611
1163.298
1160.827
1158.28
1175.197
1173.526
1171.745
1169.847
1167.826
1165.66
1163.321
1160.826
1158.302
1176.768
1175.204
1173.541
1171.773
1169.891
1167.874
1165.694
1163.348
1160.835
1158.323
1178.241
1176.774
1175.217
1173.565
1171.812
1169.935
1167.908
1165.728
1163.377
1160.847
1158.328
1159.424
1161.084
1159.347
1163.27
1161.059
1159.192
1165.539
1163.265
1161.013
1158.953
1167.729
1165.541
1163.257
1160.949
1158.637
1169.792
1167.735
1165.548
1163.248
1160.884
1134.768
1171.719
1169.799
1167.748
1165.562
1163.249
1159.428
1134.568
1173.517
1171.727
1169.814
1167.772
1165.597
1163.289
1160.798
1158.102
1175.196
1173.524
1171.742
1169.842
1167.817
1165.654
1163.311
1160.796
1158.16
1176.767
1175.203
1173.539
1171.769
1169.886
1167.871
1165.69
1163.34
1160.811
1158.225
1178.241
1176.773
1175.217
1173.564
1171.81
1169.933
1167.907
1165.726
1163.372
1160.835
1158.278
1179.625
1178.246
1176.786
1175.239
1173.599
1171.85
1169.965
1167.943
1165.764
1163.407
1160.86
1158.308
1159.428
1161.085
1159.351
1163.27
1161.059
1159.192
1165.538
1163.264
1161.011
1158.941
1167.728
1165.54
1163.254
1160.941
1158.588
1169.791
1167.733
1165.543
1163.24
1160.861
1128.446
1171.718
1169.797
1167.743
1165.552
1163.231
1156.694
1106.832
1173.515
1171.724
1169.81
1167.762
1165.573
1162.734
1156.648
1128.071
1175.194
1173.522
1171.738
1169.834
1167.803
1165.647
1163.299
1160.754
1157.958
1176.766
1175.201
1173.536
1171.764
1169.878
1167.866
1165.684
1163.328
1160.775
1158.073
1178.24
1176.772
1175.215
1173.561
1171.805
1169.93
1167.904
1165.722
1163.364
1160.809
1158.177
1179.625
1178.246
1176.785
1175.237
1173.598
1171.848
1169.964
1167.942
1165.763
1163.403
1160.847
1158.259
1180.928
1179.63
1178.257
1176.805
1175.269
1173.634
1171.878
1169.998
1167.98
1165.804
1163.444
1160.885
1158.313
1159.434
1161.086
1159.356
1163.271
1161.061
1159.198
1165.538
1163.264
1161.011
1158.941
1167.727
1165.539
1163.252
1160.936
1158.562
1169.789
1167.731
1165.54
1163.234
1160.842
1124.85
1171.716
1169.794
1167.739
1165.544
1163.214
1154.331
1089.573
1173.514
1171.722
1169.805
1167.753
1165.554
1161.673
1148.579
1089.291
1175.193
1173.52
1171.734
1169.825
1167.779
1165.376
1161.717
1154.233
1124.264
1176.765
1175.199
1173.533
1171.757
1169.865
1167.86
1165.678
1163.311
1160.724
1157.858
1178.239
1176.771
1175.212
1173.556
1171.798
1169.926
1167.9
1165.717
1163.35
1160.769
1158.021
1179.624
1178.245
1176.783
1175.234
1173.594
1171.845
1169.962
1167.939
1165.759
1163.394
1160.821
1158.158
1180.928
1179.63
1178.256
1176.804
1175.268
1173.633
1171.877
1169.997
1167.979
1165.803
1163.44
1160.873
1158.264
1182.157
1180.933
1179.64
1178.275
1176.833
1175.301
1173.66
1171.908
1170.034
1168.02
1165.848
1163.487
1160.922
1158.34
1159.44
1161.089
1159.364
1163.272
1161.063
1159.208
1165.539
1163.265
1161.013
1158.953
1167.727
1165.539
1163.252
1160.936
1158.562
1169.789
1167.73
1165.538
1163.231
1160.832
1123.18
1171.715
1169.793
1167.736
1165.538
1163.202
1152.596
1079.232
1173.512
1171.72
1169.801
1167.745
1165.54
1160.724
1141.513
1063.401
1175.192
1173.518
1171.73
1169.816
1167.761
1164.889
1158.603
1141.401
1078.478
1176.763
1175.197
1173.529
1171.748
1169.843
1167.699
1164.968
1160.8
1152.425
1122.312
1178.238
1176.769
1175.209
1173.55
1171.786
1169.921
1167.896
1165.709
1163.33
1160.712
1157.803
1179.623
1178.243
1176.781
1175.23
1173.587
1171.842
1169.959
1167.936
1165.753
1163.379
1160.781
1158.004
1180.928
1179.629
1178.255
1176.801
1175.264
1173.63
1171.875
1169.996
1167.977
1165.799
1163.432
1160.848
1158.166
1182.156
1180.932
1179.639
1178.273
1176.832
1175.3
1173.659
1171.907
1170.033
1168.02
1165.846
1163.484
1160.911
1158.292
1183.316
1182.161
1180.942
1179.656
1178.3
1176.862
1175.324
1173.687
1171.941
1170.071
1168.063
1165.894
1163.536
1160.969
1158.39
1159.446
1161.091
1159.373
1163.274
1161.066
1159.222
1165.54
1163.267
1161.017
1158.975
1167.728
1165.54
1163.254
1160.941
1158.588
1169.789
1167.73
1165.538
1163.231
1160.832
1123.18
1171.714
1169.792
1167.734
1165.535
1163.196
1151.677
1074.333
1173.511
1171.718
1169.799
1167.74
1165.53
1160
1136.285
1047.196
1175.19
1173.516
1171.726
1169.809
1167.748
1164.467
1155.769
1129.974
1046.557
1176.762
1175.195
1173.525
1171.741
1169.826
1167.433
1163.595
1155.793
1135.966
1072.831
1178.237
1176.767
1175.205
1173.542
1171.765
1169.807
1167.519
1164.609
1160.102
1151.408
1121.926
1179.622
1178.242
1176.778
1175.224
1173.576
1171.837
1169.956
1167.932
1165.744
1163.358
1160.724
1157.791
1180.927
1179.627
1178.253
1176.797
1175.258
1173.627
1171.872
1169.994
1167.975
1165.793
1163.418
1160.811
1158.018
1182.156
1180.932
1179.638
1178.271
1176.828
1175.297
1173.657
1171.906
1170.032
1168.018
1165.844
1163.477
1160.889
1158.197
1183.315
1182.16
1180.941
1179.655
1178.299
1176.861
1175.323
1173.687
1171.94
1170.071
1168.063
1165.893
1163.533
1160.96
1158.341
1184.41
1183.32
1182.169
1180.957
1179.68
1178.326
1176.883
1175.349
1173.717
1171.975
1170.111
1168.107
1165.943
1163.588
1161.026
1159.216
1159.452
1161.094
1159.382
1163.276
1161.069
1159.238
1165.542
1163.27
1161.022
1159.003
1167.729
1165.541
1163.257
1160.949
1158.637
1169.789
1167.731
1165.54
1163.234
1160.842
1124.85
1171.714
1169.792
1167.734
1165.535
1163.196
1151.677
1074.333
1173.511
1171.717
1169.797
1167.737
1165.525
1159.607
1133.509
1039.328
1175.189
1173.514
1171.724
1169.805
1167.74
1164.149
1153.584
1121.416
1025.98
1176.761
1175.193
1173.522
1171.735
1169.815
1167.214
1162.366
1151.162
1121.12
1037.547
1178.235
1176.765
1175.202
1173.535
1171.751
1169.632
1166.808
1162.442
1153.614
1132.879
1071.76
1179.621
1178.24
1176.775
1175.217
1173.558
1171.745
1169.714
1167.369
1164.355
1159.739
1151.3
1123.082
1180.926
1179.626
1178.25
1176.792
1175.248
1173.623
1171.87
1169.991
1167.97
1165.785
1163.397
1160.758
1157.818
1182.155
1180.93
1179.636
1178.267
1176.823
1175.294
1173.655
1171.904
1170.03
1168.016
1165.839
1163.465
1160.857
1158.056
1183.315
1182.16
1180.94
1179.653
1178.296
1176.859
1175.322
1173.685
1171.939
1170.07
1168.062
1165.892
1163.529
1160.942
1158.246
1184.41
1183.319
1182.169
1180.956
1179.679
1178.325
1176.882
1175.348
1173.716
1171.975
1170.111
1168.108
1165.943
1163.587
1161.018
1159.15
1185.443
1184.413
1183.328
1182.183
1180.979
1179.704
1178.346
1176.905
1175.376
1173.748
1172.01
1170.151
1168.153
1165.994
1163.644
1161.786
1160.804
1159.457
1161.096
1159.391
1163.279
1161.073
1159.253
1165.544
1163.273
1161.028
1159.033
1167.731
1165.544
1163.261
1160.959
1158.701
1169.791
1167.733
1165.543
1163.24
1160.861
1128.446
1171.715
1169.793
1167.736
1165.538
1163.202
1152.596
1079.232
1173.511
1171.717
1169.797
1167.737
1165.525
1159.607
1133.509
1039.328
1175.189
1173.514
1171.723
1169.802
1167.736
1163.977
1152.392
1116.839
1015.82
1176.76
1175.192
1173.52
1171.73
1169.807
1167.054
1161.424
1147.549
1109.882
1014.433
1178.234
1176.764
1175.199
1173.53
1171.74
1169.494
1166.193
1160.463
1147.537
1116.043
1035.819
1179.62
1178.238
1176.772
1175.211
1173.544
1171.61
1169.27
1166.283
1161.593
1152.427
1132.509
1075.225
1180.925
1179.624
1178.247
1176.786
1175.232
1173.543
1171.685
1169.643
1167.283
1164.261
1159.789
1152.138
1125.997
1182.154
1180.929
1179.633
1178.263
1176.814
1175.291
1173.652
1171.902
1170.028
1168.012
1165.831
1163.448
1160.814
1157.874
1183.314
1182.159
1180.938
1179.65
1178.291
1176.856
1175.32
1173.684
1171.938
1170.069
1168.061
1165.889
1163.521
1160.917
1158.106
1184.409
1183.318
1182.168
1180.954
1179.676
1178.324
1176.881
1175.347
1173.715
1171.974
1170.111
1168.108
1165.944
1163.586
1161.002
1159.005
1185.443
1184.413
1183.327
1182.182
1180.978
1179.703
1178.345
1176.905
1175.375
1173.747
1172.011
1170.152
1168.154
1165.995
1163.644
1161.778
1160.707
1186.418
1185.446
1184.421
1183.341
1182.204
1181.001
1179.722
1178.367
1176.93
1175.404
1173.78
1172.047
1170.193
1168.199
1166.045
1164.313
1163.241
1162.403
1159.461
1161.098
1159.398
1163.281
1161.076
1159.267
1165.546
1163.276
1161.033
1159.058
1167.733
1165.547
1163.266
1160.969
1158.766
1169.792
1167.735
1165.548
1163.248
1160.884
1134.768
1171.716
1169.794
1167.739
1165.544
1163.214
1154.331
1089.573
1173.511
1171.718
1169.799
1167.74
1165.53
1160
1136.285
1047.196
1175.189
1173.514
1171.723
1169.802
1167.736
1163.977
1152.392
1116.839
1015.82
1176.76
1175.192
1173.519
1171.728
1169.804
1166.969
1160.911
1145.563
1103.835
1002.913
1178.234
1176.763
1175.197
1173.526
1171.734
1169.397
1165.735
1158.925
1142.75
1103.214
1012.191
1179.619
1178.237
1176.769
1175.206
1173.535
1171.507
1168.9
1165.322
1159.031
1145.523
1115.399
1041.363
1180.924
1179.623
1178.244
1176.78
1175.219
1173.427
1171.353
1168.989
1165.941
1161.209
1152.479
1134.962
1083.698
1182.153
1180.928
1179.631
1178.257
1176.799
1175.219
1173.495
1171.644
1169.619
1167.287
1164.365
1160.284
1153.891
1131.343
1183.313
1182.157
1180.936
1179.645
1178.283
1176.853
1175.318
1173.682
1171.936
1170.067
1168.058
1165.884
1163.509
1160.886
1157.936
1184.408
1183.317
1182.166
1180.951
1179.671
1178.321
1176.879
1175.346
1173.714
1171.974
1170.111
1168.109
1165.944
1163.584
1160.984
1158.721
1185.442
1184.412
1183.326
1182.181
1180.975
1179.701
1178.344
1176.904
1175.375
1173.747
1172.011
1170.153
1168.157
1165.999
1163.646
1161.765
1160.476
1186.418
1185.446
1184.42
1183.34
1182.203
1181
1179.721
1178.366
1176.929
1175.404
1173.78
1172.048
1170.194
1168.202
1166.047
1164.319
1163.234
1162.281
1187.339
1186.422
1185.454
1184.433
1183.36
1182.225
1181.018
1179.741
1178.389
1176.955
1175.433
1173.813
1172.085
1170.234
1168.245
1166.63
1165.593
1164.697
1164.017
1159.463
1161.1
1159.403
1163.282
1161.079
1159.278
1165.548
1163.279
1161.038
1159.082
1167.735
1165.55
1163.272
1160.977
1158.794
1169.794
1167.738
1165.553
1163.258
1160.903
1146.187
1171.718
1169.797
1167.743
1165.552
1163.231
1156.694
1106.832
1173.512
1171.72
1169.801
1167.745
1165.54
1160.724
1141.513
1063.401
1175.189
1173.514
1171.724
1169.805
1167.74
1164.149
1153.584
1121.416
1025.98
1176.76
1175.192
1173.519
1171.728
1169.804
1166.969
1160.911
1145.563
1103.835
1002.913
1178.233
1176.762
1175.196
1173.524
1171.73
1169.347
1165.489
1158.08
1140.103
1096.281
1000.391
1179.618
1178.236
1176.767
1175.203
1173.529
1171.436
1168.634
1164.593
1157.017
1140.048
1102.335
1019.292
1180.923
1179.621
1178.242
1176.775
1175.211
1173.34
1171.085
1168.431
1164.733
1158.348
1145.544
1119.354
1054.659
1182.152
1180.926
1179.628
1178.252
1176.787
1175.114
1173.216
1171.167
1168.839
1165.859
1161.411
1153.847
1140.084
1098.486
1183.312
1182.156
1180.933
1179.64
1178.269
1176.786
1175.176
1173.465
1171.641
1169.655
1167.402
1164.69
1161.214
1156.503
1141.041
1184.407
1183.316
1182.164
1180.947
1179.664
1178.318
1176.877
1175.344
1173.713
1171.972
1170.109
1168.107
1165.943
1163.581
1160.968
1157.917
1185.441
1184.411
1183.324
1182.178
1180.971
1179.699
1178.342
1176.903
1175.374
1173.747
1172.011
1170.154
1168.16
1166.003
1163.65
1161.76
1159.974
1186.418
1185.445
1184.419
1183.338
1182.2
1180.999
1179.72
1178.365
1176.929
1175.403
1173.78
1172.049
1170.197
1168.206
1166.053
1164.335
1163.224
1161.984
1187.339
1186.421
1185.453
1184.432
1183.359
1182.224
1181.017
1179.74
1178.389
1176.955
1175.433
1173.814
1172.086
1170.237
1168.249
1166.639
1165.608
1164.689
1163.877
1188.208
1187.342
1186.428
1185.465
1184.451
1183.379
1182.24
1181.036
1179.761
1178.412
1176.982
1175.463
1173.847
1172.122
1170.275
1168.758
1167.748
1166.871
1166.153
1165.649
1161.1
1159.405
1163.284
1161.081
1159.287
1165.55
1163.281
1161.042
1159.102
1167.737
1165.553
1163.276
1160.984
1158.834
1169.796
1167.741
1165.558
1163.267
1160.911
1158.499
1171.719
1169.799
1167.748
1165.562
1163.249
1159.428
1134.568
1173.514
1171.722
1169.805
1167.753
1165.554
1161.673
1148.579
1089.291
1175.19
1173.516
1171.726
1169.809
1167.748
1164.467
1155.769
1129.974
1046.557
1176.76
1175.192
1173.52
1171.73
1169.807
1167.054
1161.424
1147.549
1109.882
1014.433
1178.233
1176.762
1175.196
1173.524
1171.73
1169.347
1165.489
1158.08
1140.103
1096.281
1000.391
1179.618
1178.235
1176.766
1175.201
1173.526
1171.4
1168.494
1164.199
1155.903
1137.01
1095.267
1008.324
1180.922
1179.621
1178.24
1176.772
1175.205
1173.282
1170.897
1168.021
1163.805
1156.079
1140.025
1107.462
1036.105
1182.151
1180.925
1179.626
1178.247
1176.78
1175.036
1172.994
1170.773
1168.163
1164.555
1158.614
1147.712
1127.571
1076.961
1183.311
1182.155
1180.931
1179.635
1178.258
1176.689
1174.925
1173.069
1171.088
1168.863
1166.097
1162.249
1156.446
1147.496
1122.689
1184.407
1183.315
1182.161
1180.942
1179.651
1178.256
1176.746
1175.15
1173.468
1171.685
1169.766
1167.645
1165.249
1162.593
1160.079
1152.176
1185.441
1184.41
1183.322
1182.174
1180.964
1179.696
1178.34
1176.901
1175.372
1173.746
1172.011
1170.155
1168.162
1166.009
1163.66
1161.852
1158.66
1186.417
1185.444
1184.418
1183.335
1182.196
1180.997
1179.718
1178.364
1176.928
1175.403
1173.781
1172.051
1170.201
1168.213
1166.064
1164.386
1163.23
1161.35
1187.338
1186.421
1185.452
1184.431
1183.357
1182.222
1181.016
1179.74
1178.388
1176.955
1175.433
1173.815
1172.089
1170.242
1168.256
1166.662
1165.648
1164.679
1163.54
1188.207
1187.342
1186.428
1185.464
1184.45
1183.379
1182.24
1181.035
1179.761
1178.412
1176.982
1175.464
1173.848
1172.124
1170.279
1168.767
1167.768
1166.892
1166.145
1165.5
1189.026
1188.211
1187.349
1186.44
1185.482
1184.47
1183.394
1182.257
1181.055
1179.783
1178.437
1177.009
1175.493
1173.88
1172.158
1170.727
1169.738
1168.863
1168.145
1167.61
1166.522
1163.284
1161.082
1159.291
1165.552
1163.283
1161.044
1159.116
1167.739
1165.555
1163.28
1160.99
1158.871
1169.798
1167.744
1165.563
1163.275
1160.92
1158.592
1171.721
1169.802
1167.753
1165.572
1163.268
1160.847
1158.286
1173.515
1171.724
1169.81
1167.762
1165.573
1162.734
1156.648
1128.071
1175.192
1173.518
1171.73
1169.816
1167.761
1164.889
1158.603
1141.401
1078.478
1176.761
1175.193
1173.522
1171.735
1169.815
1167.214
1162.366
1151.162
1121.12
1037.547
1178.234
1176.763
1175.197
1173.526
1171.734
1169.397
1165.735
1158.925
1142.75
1103.214
1012.191
1179.618
1178.235
1176.766
1175.201
1173.526
1171.4
1168.494
1164.199
1155.903
1137.01
1095.267
1008.324
1180.922
1179.62
1178.239
1176.77
1175.203
1173.252
1170.8
1167.804
1163.298
1154.815
1136.956
1101.036
1026.991
1182.151
1180.924
1179.624
1178.244
1176.775
1174.984
1172.84
1170.492
1167.661
1163.542
1156.377
1142.815
1118.071
1063.575
1183.311
1182.153
1180.929
1179.631
1178.251
1176.618
1174.727
1172.747
1170.625
1168.167
1164.884
1159.894
1151.818
1139.23
1111.063
1184.406
1183.314
1182.159
1180.937
1179.641
1178.166
1176.514
1174.795
1173.016
1171.145
1169.098
1166.692
1163.714
1160.091
1156.685
1145.282
1185.44
1184.409
1183.32
1182.169
1180.952
1179.638
1178.218
1176.721
1175.153
1173.512
1171.787
1169.965
1168.039
1166.106
1164.684
1163.145
1154.221
1186.416
1185.443
1184.416
1183.332
1182.19
1180.994
1179.717
1178.363
1176.927
1175.402
1173.78
1172.052
1170.204
1168.221
1166.081
1164.633
1163.35
1159.893
1187.338
1186.42
1185.45
1184.428
1183.353
1182.22
1181.015
1179.739
1178.387
1176.955
1175.434
1173.816
1172.092
1170.249
1168.268
1166.726
1165.762
1164.681
1162.85
1188.207
1187.341
1186.427
1185.463
1184.448
1183.377
1182.239
1181.034
1179.761
1178.412
1176.982
1175.465
1173.851
1172.129
1170.286
1168.792
1167.821
1166.95
1166.131
1165.148
1189.026
1188.21
1187.348
1186.439
1185.481
1184.469
1183.393
1182.256
1181.054
1179.783
1178.437
1177.01
1175.495
1173.882
1172.161
1170.736
1169.758
1168.892
1168.171
1167.602
1166.373
1189.796
1189.029
1188.217
1187.359
1186.456
1185.5
1184.484
1183.41
1182.274
1181.075
1179.805
1178.462
1177.037
1175.524
1173.913
1172.559
1171.59
1170.714
1169.973
1169.415
1168.381
1166.616
1165.552
1163.284
1161.046
1159.124
1167.74
1165.557
1163.282
1160.994
1158.899
1169.8
1167.746
1165.567
1163.281
1160.929
1158.665
1171.723
1169.805
1167.758
1165.581
1163.281
1160.864
1158.428
1173.517
1171.727
1169.814
1167.772
1165.597
1163.289
1160.798
1158.102
1175.193
1173.52
1171.734
1169.825
1167.779
1165.376
1161.717
1154.233
1124.264
1176.762
1175.195
1173.525
1171.741
1169.826
1167.433
1163.595
1155.793
1135.966
1072.831
1178.234
1176.764
1175.199
1173.53
1171.74
1169.494
1166.193
1160.463
1147.537
1116.043
1035.819
1179.618
1178.236
1176.767
1175.203
1173.529
1171.436
1168.634
1164.593
1157.017
1140.048
1102.335
1019.292
1180.922
1179.62
1178.239
1176.77
1175.203
1173.252
1170.8
1167.804
1163.298
1154.815
1136.956
1101.036
1026.991
1182.151
1180.924
1179.623
1178.243
1176.772
1174.958
1172.762
1170.346
1167.392
1162.984
1155.127
1140.089
1112.947
1057.093
1183.31
1182.153
1180.927
1179.628
1178.247
1176.57
1174.591
1172.522
1170.292
1167.641
1163.927
1157.988
1148.091
1132.929
1103.879
1184.405
1183.313
1182.157
1180.934
1179.635
1178.099
1176.331
1174.51
1172.644
1170.687
1168.495
1165.765
1162.122
1157.399
1153.103
1139.815
1185.439
1184.408
1183.318
1182.165
1180.943
1179.553
1178
1176.394
1174.751
1173.078
1171.363
1169.572
1167.67
1165.792
1164.655
1162.416
1148.801
1186.415
1185.442
1184.414
1183.327
1182.179
1180.94
1179.601
1178.194
1176.724
1175.194
1173.605
1171.96
1170.279
1168.663
1167.575
1167.009
1164
1156.406
1187.337
1186.419
1185.449
1184.425
1183.347
1182.218
1181.013
1179.737
1178.386
1176.954
1175.433
1173.817
1172.096
1170.257
1168.286
1166.999
1166.151
1164.762
1161.439
1188.206
1187.34
1186.426
1185.46
1184.445
1183.375
1182.237
1181.033
1179.76
1178.412
1176.983
1175.466
1173.854
1172.135
1170.298
1168.856
1167.959
1167.093
1166.12
1164.459
1189.025
1188.21
1187.347
1186.437
1185.479
1184.468
1183.392
1182.256
1181.054
1179.783
1178.437
1177.011
1175.497
1173.887
1172.168
1170.76
1169.813
1168.966
1168.237
1167.583
1166.023
1189.795
1189.028
1188.216
1187.359
1186.455
1185.499
1184.483
1183.409
1182.274
1181.075
1179.806
1178.462
1177.038
1175.526
1173.916
1172.568
1171.61
1170.744
1170.008
1169.443
1168.372
1166.467
1190.519
1189.798
1189.035
1188.227
1187.375
1186.473
1185.513
1184.498
1183.426
1182.293
1181.095
1179.829
1178.487
1177.065
1175.553
1174.271
1173.325
1172.45
1171.685
1171.077
1170.083
1168.464
1166.71
1167.741
1165.558
1163.284
1160.997
1158.914
1169.801
1167.748
1165.57
1163.285
1160.936
1158.715
1171.724
1169.807
1167.761
1165.587
1163.29
1160.881
1158.529
1173.518
1171.729
1169.819
1167.78
1165.611
1163.298
1160.827
1158.28
1175.194
1173.522
1171.738
1169.834
1167.803
1165.647
1163.299
1160.754
1157.958
1176.763
1175.197
1173.529
1171.748
1169.843
1167.699
1164.968
1160.8
1152.425
1122.312
1178.235
1176.765
1175.202
1173.535
1171.751
1169.632
1166.808
1162.442
1153.614
1132.879
1071.76
1179.619
1178.237
1176.769
1175.206
1173.535
1171.507
1168.9
1165.322
1159.031
1145.523
1115.399
1041.363
1180.922
1179.621
1178.24
1176.772
1175.205
1173.282
1170.897
1168.021
1163.805
1156.079
1140.025
1107.462
1036.105
1182.151
1180.924
1179.623
1178.243
1176.772
1174.958
1172.762
1170.346
1167.392
1162.984
1155.127
1140.089
1112.947
1057.093
1183.31
1182.152
1180.927
1179.627
1178.245
1176.546
1174.523
1172.406
1170.117
1167.358
1163.396
1156.915
1146.007
1129.526
1100.404
1184.404
1183.312
1182.156
1180.931
1179.63
1178.054
1176.207
1174.312
1172.382
1170.353
1168.03
1165.009
1160.781
1155.138
1150.242
1136.138
1185.438
1184.407
1183.316
1182.162
1180.937
1179.49
1177.829
1176.131
1174.424
1172.719
1170.993
1169.182
1167.194
1165.139
1163.911
1161.173
1144.265
1186.415
1185.441
1184.412
1183.323
1182.17
1180.86
1179.396
1177.886
1176.352
1174.811
1173.277
1171.768
1170.322
1169.081
1168.555
1167.69
1163.493
1152.153
1187.336
1186.418
1185.447
1184.421
1183.336
1182.167
1180.904
1179.578
1178.195
1176.761
1175.279
1173.759
1172.228
1170.784
1169.826
1169.503
1167.678
1165.049
1158.697
1188.206
1187.339
1186.424
1185.457
1184.439
1183.373
1182.236
1181.032
1179.759
1178.411
1176.982
1175.467
1173.857
1172.143
1170.315
1169.119
1168.398
1167.485
1166.142
1163.188
1189.025
1188.209
1187.346
1186.435
1185.476
1184.466
1183.391
1182.255
1181.053
1179.782
1178.437
1177.012
1175.5
1173.893
1172.179
1170.82
1169.95
1169.142
1168.384
1167.554
1165.356
1189.795
1189.028
1188.215
1187.357
1186.453
1185.498
1184.482
1183.408
1182.274
1181.074
1179.806
1178.463
1177.04
1175.53
1173.922
1172.59
1171.662
1170.82
1170.094
1169.51
1168.351
1166.117
1190.519
1189.798
1189.034
1188.226
1187.374
1186.472
1185.512
1184.498
1183.426
1182.293
1181.096
1179.829
1178.488
1177.066
1175.556
1174.279
1173.344
1172.479
1171.721
1171.116
1170.112
1168.455
1166.561
1191.197
1190.522
1189.804
1189.045
1188.242
1187.391
1186.485
1185.527
1184.514
1183.444
1182.313
1181.117
1179.852
1178.512
1177.091
1175.876
1174.956
1174.088
1173.305
1172.65
1171.657
1170.154
1168.546
1166.804
1169.801
1167.749
1165.571
1163.287
1160.94
1158.74
1171.725
1169.808
1167.764
1165.591
1163.296
1160.892
1158.595
1173.52
1171.731
1169.822
1167.787
1165.62
1163.307
1160.85
1158.405
1175.196
1173.524
1171.742
1169.842
1167.817
1165.654
1163.311
1160.796
1158.16
1176.765
1175.199
1173.533
1171.757
1169.865
1167.86
1165.678
1163.311
1160.724
1157.858
1178.237
1176.767
1175.205
1173.542
1171.765
1169.807
1167.519
1164.609
1160.102
1151.408
1121.926
1179.62
1178.238
1176.772
1175.211
1173.544
1171.61
1169.27
1166.283
1161.593
1152.427
1132.509
1075.225
1180.923
1179.621
1178.242
1176.775
1175.211
1173.34
1171.085
1168.431
1164.733
1158.348
1145.544
1119.354
1054.659
1182.151
1180.924
1179.624
1178.244
1176.775
1174.984
1172.84
1170.492
1167.661
1163.542
1156.377
1142.815
1118.071
1063.575
1183.31
1182.152
1180.927
1179.627
1178.245
1176.546
1174.523
1172.406
1170.117
1167.358
1163.396
1156.915
1146.007
1129.526
1100.404
1184.404
1183.311
1182.155
1180.93
1179.628
1178.032
1176.143
1174.212
1172.247
1170.176
1167.776
1164.581
1160.012
1153.853
1148.669
1134.299
1185.438
1184.406
1183.315
1182.159
1180.933
1179.448
1177.713
1175.949
1174.196
1172.463
1170.718
1168.862
1166.751
1164.471
1163.104
1160.056
1141.136
1186.414
1185.44
1184.41
1183.32
1182.165
1180.8
1179.235
1177.64
1176.051
1174.497
1173
1171.575
1170.251
1169.145
1168.776
1167.75
1162.549
1148.458
1187.336
1186.417
1185.445
1184.417
1183.328
1182.091
1180.71
1179.288
1177.846
1176.407
1174.992
1173.637
1172.398
1171.419
1171.065
1170.559
1168.312
1164.655
1155.395
1188.205
1187.338
1186.422
1185.453
1184.429
1183.325
1182.132
1180.881
1179.579
1178.229
1176.839
1175.418
1173.996
1172.662
1171.767
1171.485
1170.063
1168.49
1166.214
1161.065
1189.024
1188.208
1187.344
1186.432
1185.471
1184.464
1183.39
1182.254
1181.052
1179.782
1178.437
1177.013
1175.503
1173.9
1172.195
1171.063
1170.376
1169.598
1168.719
1167.516
1164.18
1189.795
1189.027
1188.214
1187.355
1186.45
1185.496
1184.481
1183.408
1182.273
1181.074
1179.806
1178.464
1177.043
1175.535
1173.932
1172.646
1171.791
1170.996
1170.28
1169.645
1168.312
1165.452
1190.518
1189.798
1189.033
1188.225
1187.372
1186.471
1185.511
1184.497
1183.426
1182.293
1181.096
1179.83
1178.49
1177.07
1175.562
1174.3
1173.393
1172.552
1171.81
1171.206
1170.178
1168.434
1166.212
1191.196
1190.521
1189.804
1189.044
1188.241
1187.391
1186.485
1185.527
1184.514
1183.444
1182.313
1181.117
1179.853
1178.514
1177.094
1175.884
1174.974
1174.115
1173.34
1172.69
1171.697
1170.183
1168.538
1166.655
1191.83
1191.199
1190.527
1189.814
1189.059
1188.258
1187.403
1186.498
1185.542
1184.531
1183.462
1182.333
1181.139
1179.875
1178.537
1177.384
1176.492
1175.637
1174.846
1174.155
1173.157
1171.72
1170.226
1168.629
1166.899
1171.726
1169.809
1167.765
1165.593
1163.298
1160.898
1158.627
1173.521
1171.732
1169.825
1167.791
1165.626
1163.313
1160.866
1158.485
1175.197
1173.526
1171.745
1169.847
1167.826
1165.66
1163.321
1160.826
1158.302
1176.766
1175.201
1173.536
1171.764
1169.878
1167.866
1165.684
1163.328
1160.775
1158.073
1178.238
1176.769
1175.209
1173.55
1171.786
1169.921
1167.896
1165.709
1163.33
1160.712
1157.803
1179.621
1178.24
1176.775
1175.217
1173.558
1171.745
1169.714
1167.369
1164.355
1159.739
1151.3
1123.082
1180.924
1179.623
1178.244
1176.78
1175.219
1173.427
1171.353
1168.989
1165.941
1161.209
1152.479
1134.962
1083.698
1182.151
1180.925
1179.626
1178.247
1176.78
1175.036
1172.994
1170.773
1168.163
1164.555
1158.614
1147.712
1127.571
1076.961
1183.31
1182.153
1180.927
1179.628
1178.247
1176.57
1174.591
1172.522
1170.292
1167.641
1163.927
1157.988
1148.091
1132.929
1103.879
1184.404
1183.311
1182.155
1180.93
1179.628
1178.032
1176.143
1174.212
1172.247
1170.176
1167.776
1164.581
1160.012
1153.853
1148.669
1134.299
1185.438
1184.406
1183.314
1182.158
1180.931
1179.427
1177.654
1175.857
1174.079
1172.331
1170.57
1168.68
1166.485
1164.062
1162.609
1159.416
1139.553
1186.414
1185.439
1184.409
1183.318
1182.161
1180.76
1179.125
1177.47
1175.842
1174.276
1172.799
1171.415
1170.137
1169.056
1168.728
1167.607
1161.672
1145.851
1187.335
1186.416
1185.443
1184.414
1183.323
1182.035
1180.558
1179.055
1177.564
1176.118
1174.754
1173.514
1172.46
1171.718
1171.587
1171.028
1168.443
1163.933
1152.451
1188.204
1187.337
1186.42
1185.45
1184.422
1183.253
1181.949
1180.607
1179.248
1177.895
1176.573
1175.318
1174.192
1173.325
1173.012
1172.592
1170.997
1169.017
1165.882
1158.561
1189.023
1188.207
1187.343
1186.428
1185.461
1184.418
1183.292
1182.111
1180.881
1179.609
1178.301
1176.966
1175.633
1174.384
1173.527
1173.227
1171.97
1170.741
1169.38
1167.45
1162.342
1189.794
1189.026
1188.213
1187.352
1186.445
1185.494
1184.48
1183.406
1182.272
1181.073
1179.806
1178.465
1177.046
1175.542
1173.946
1172.868
1172.187
1171.444
1170.686
1169.9
1168.246
1164.287
1190.518
1189.797
1189.032
1188.223
1187.369
1186.469
1185.51
1184.496
1183.425
1182.293
1181.096
1179.831
1178.493
1177.075
1175.571
1174.351
1173.512
1172.719
1171.999
1171.383
1170.3
1168.394
1165.55
1191.196
1190.521
1189.803
1189.043
1188.24
1187.389
1186.484
1185.526
1184.513
1183.444
1182.313
1181.118
1179.855
1178.517
1177.099
1175.903
1175.019
1174.184
1173.426
1172.784
1171.786
1170.249
1168.516
1166.307
1191.83
1191.199
1190.527
1189.813
1189.058
1188.257
1187.402
1186.498
1185.542
1184.531
1183.462
1182.333
1181.14
1179.877
1178.539
1177.391
1176.509
1175.663
1174.88
1174.193
1173.197
1171.759
1170.255
1168.62
1166.75
1192.421
1191.833
1191.205
1190.537
1189.828
1189.074
1188.269
1187.416
1186.513
1185.557
1184.548
1183.481
1182.353
1181.16
1179.898
1178.804
1177.943
1177.106
1176.315
1175.599
1174.6
1173.211
1171.782
1170.298
1168.712
1166.988
1173.521
1171.733
1169.826
1167.793
1165.629
1163.316
1160.874
1158.524
1175.198
1173.527
1171.748
1169.851
1167.831
1165.664
1163.328
1160.846
1158.393
1176.767
1175.203
1173.539
1171.769
1169.886
1167.871
1165.69
1163.34
1160.811
1158.225
1178.239
1176.771
1175.212
1173.556
1171.798
1169.926
1167.9
1165.717
1163.35
1160.769
1158.021
1179.622
1178.242
1176.778
1175.224
1173.576
1171.837
1169.956
1167.932
1165.744
1163.358
1160.724
1157.791
1180.925
1179.624
1178.247
1176.786
1175.232