/*--------------------------------*- C++ -*----------------------------------*\
| =========                 |                                                 |
| \\      /  F ield         | OpenFOAM: The Open Source CFD Toolbox           |
|  \\    /   O peration     | Version:  2306                                  |
|   \\  /    A nd           | Website:  www.openfoam.com                      |
|    \\/     M anipulation  |                                                 |
\*---------------------------------------------------------------------------*/
FoamFile
{
    version     2.0;
    format      ascii;
    arch        "LSB;label=32;scalar=64";
    class       volVectorField;
    location    "0.9/phiEA";
    object      i;
}
// * * * * * * * * * * * * * * * * * * * * * * * * * * * * * * * * * * * * * //

dimensions      [0 -2 0 0 0 1 0];

internalField   nonuniform List<vector> 
20000
(
(-623.5642 2445.574 2045.775)
(-654.2784 7861.83 2082.517)
(-1253.547 2138.432 1864.499)
(-622.8391 2444.104 6056.991)
(-721.2606 14867.09 2156.792)
(-1306.716 6884.866 1893.315)
(-653.5216 7857.39 6166.106)
(-1174.811 1913.889 1708.052)
(-1252.196 2137.279 5524.663)
(-621.4349 2441.209 9930.975)
(-835.5577 24212.35 2255.68)
(-1423.016 13054.3 1951.138)
(-720.438 14860.16 6386.693)
(-1213.742 6167.139 1732.625)
(-1305.316 6881.401 5610.457)
(-652.0558 7848.642 10110.61)
(-1008.813 1749.121 1581.977)
(-1173.681 1912.906 5064.655)
(-1249.578 2135 9066.842)
(-619.3826 2436.919 13712.92)
(-1009.853 34556.12 2306.91)
(-1622.386 21326.43 2025.473)
(-834.6369 24206.34 6680.019)
(-1299.384 11710.39 1781.843)
(-1421.517 13049.01 5782.655)
(-718.8445 14846.53 10473.8)
(-1038.216 5639.138 1603.792)
(-1212.584 6164.188 5137.911)
(-1302.603 6874.547 9208.513)
(-649.9132 7835.677 13961.9)
(-863.5175 1619.857 1477.077)
(-1007.889 1748.248 4693.578)
(-1171.487 1910.958 8319.021)
(-1245.748 2131.612 12529.1)
(-616.6996 2431.25 16137.32)
(-1239.236 39280.45 2160.412)
(-1928.03 30519.34 2050.783)
(-1008.828 34559.93 6829.385)
(-1447.446 19162.21 1844.246)
(-1620.74 21322.44 6003.891)
(-832.8532 24194.64 10956.19)
(-1103.097 10717.26 1647.463)
(-1298.169 11705.92 5284.684)
(-1418.608 13038.56 9492.974)
(-716.5147 14826.34 14465.49)
(-887.1328 5224.298 1496.869)
(-1037.273 5636.518 4758.669)
(-1210.335 6158.338 8440.18)
(-1298.634 6864.355 12725.94)
(-647.112 7818.539 16431.27)
(-748.6426 1512.968 1386.985)
(-862.7375 1619.065 4384.565)
(-1006.093 1746.517 7715.075)
(-1168.274 1908.059 11503.66)
(-1240.741 2127.126 14751.65)
(-841.8376 3325.935 21224.17)
(-1464.332 35386.51 2079.897)
(-2332.12 34735.65 1894.476)
(-1238.172 39289.53 6384.457)
(-1676.588 27458.78 1860.471)
(-1926.244 30524.58 6077.737)
(-1006.846 34567.95 11196.9)
(-1215.76 17554.38 1702.422)
(-1446.154 19159.07 5470.713)
(-1617.549 21314.62 9858.28)
(-830.2452 24177.42 15134.03)
(-939.34 9934.945 1536.489)
(-1102.116 10713.31 4889.013)
(-1295.809 11697.07 8683.04)
(-1414.353 13023.02 13121.37)
(-713.468 14799.65 17026.07)
(-768.4746 4880.912 1405.181)
(-886.3383 5221.921 4443.656)
(-1035.439 5631.321 7822.838)
(-1207.041 6149.627 11672.2)
(-1293.444 6850.856 14984.4)
(-883.3725 10697.32 21637.61)
(-658.5993 1421.537 1307.976)
(-747.9662 1512.24 4118.972)
(-861.2191 1617.493 7211.635)
(-1003.46 1743.937 10674.83)
(-1164.069 1904.216 13550.87)
(-1694.267 2910.586 19403.48)
(-838.4767 3317.748 19690.85)
(-1648.145 26867.59 2057.688)
(-2729.258 31297.43 1800.919)
(-1463.216 35390.62 6138.963)
(-1981.89 31268.16 1711.275)
(-2330.323 34745.64 5606.162)
(-1236.123 39308.06 10444.1)
(-1390.915 25174.9 1714.112)
(-1675.241 27464.1 5518.071)
(-1922.785 30535.25 9977.46)
(-1003.95 34580.42 15462.82)
(-1030.236 16284.03 1586.113)
(-1214.728 17551.72 5053.014)
(-1443.642 19152.88 8990.821)
(-1612.879 21303.06 13629.27)
(-826.8341 24154.75 17815.95)
(-812.3764 9286.225 1441.612)
(-938.5166 9931.375 4561.98)
(-1100.206 10705.48 8038.738)
(-1292.352 11683.9 12010.24)
(-1408.787 13002.43 15452.25)
(-974.0152 20257.31 22474.91)
(-675.7491 4586.96 1324.857)
(-767.7865 4878.727 4173.325)
(-884.7914 5217.201 7309.538)
(-1032.751 5623.572 10824.86)
(-1202.731 6138.074 13750.33)
(-1766.278 9375.54 19734.17)
(-879.8541 10672.54 20128.82)
(-587.2134 1341.469 1237.573)
(-658.0016 1420.862 3885.89)
(-746.6479 1510.794 6778.54)
(-858.9914 1615.149 9983.409)
(-1000.012 1740.516 12579.91)
(-1590.29 2605.825 17825.42)
(-1687.992 2903.974 17997.2)
(-835.063 3308.416 19949.21)
(-1775.074 16523.1 2056.527)
(-3053.851 23760.17 1765.821)
(-1646.977 26868.52 6069.789)
(-2282.49 28169.21 1620.316)
(-2727.42 31302.57 5323.914)
(-1461.072 35399.1 10027.19)
(-1625.044 28676.63 1573.301)
(-1980.605 31277.77 5068.719)
(-2326.857 34765.8 9185.67)
(-1233.139 39336.31 14395.35)
(-1171.933 23365.95 1595.066)
(-1389.854 25180.06 5087.144)
(-1672.626 27474.86 9067.34)
(-1917.726 30551.48 13792.44)
(-1000.164 34597.49 18201.52)
(-888.9547 15228.46 1487.091)
(-1029.375 16281.69 4710.166)
(-1212.718 17546.46 8310.406)
(-1439.962 19143.7 12438.84)
(-1606.768 21287.78 16053.63)
(-1128.954 33093.12 23581.25)
(-713.7525 8730.143 1358.665)
(-811.6651 9282.949 4282.177)
(-936.9127 9924.284 7505.673)
(-1097.406 10693.81 11125.62)
(-1287.826 11666.41 14150.64)
(-1923.911 17801.49 20400.03)
(-970.1709 20218.91 21016.86)
(-602.3463 4329.38 1253.338)
(-675.1418 4584.932 3936.335)
(-766.4453 4874.384 6868.643)
(-882.5216 5210.16 10119.8)
(-1029.23 5613.289 12757.57)
(-1643.155 8400.872 18110.17)
(-1759.756 9355.597 18353.58)
(-876.2715 10644.28 20444.37)
(-529.4839 1270.208 1174.114)
(-586.6779 1340.839 3678.065)
(-656.8356 1419.519 6398.135)
(-744.7122 1508.636 9388.178)
(-856.0725 1612.038 11769.56)
(-1366.401 2381.94 16549.7)
(-1585.023 2600.106 16528.88)
(-1681.619 2896.331 18229.13)
(-831.5964 3297.941 20206.79)
(-1839.431 5556.194 2058.719)
(-3278.165 14610.24 1755.388)
(-1773.869 16523.06 6064.816)
(-2528.308 21378.52 1584.186)
(-3051.957 23761.99 5217.772)
(-1644.737 26870.55 9906.997)
(-1855.477 25833.25 1486.888)
(-2281.234 28174.29 4794.947)
(-2723.882 31312.96 8712.106)
(-1457.956 35412.11 13803.39)
(-1361.694 26622.54 1462.064)
(-1624.047 28685.72 4663.375)
(-1978.119 31297.08 8314.39)
(-2321.805 34796.26 12676.14)
(-1229.246 39374.44 16919.54)
(-1008.556 21860.32 1494.205)
(-1171.053 23370.91 4736.314)
(-1387.788 25190.48 8365.612)
(-1668.794 27491.16 12543.84)
(-1911.109 30573.37 16245.56)
(-1366.116 47473.75 24073.8)
(-780.1356 14322.24 1400.765)
(-888.2133 15226.35 4418.061)
(-1027.696 16277.06 7751.36)
(-1209.77 17538.64 11504.32)
(-1435.143 19131.53 14658.69)
(-2194.628 29172.11 21253.75)
(-1124.634 33062.55 22179.33)
(-635.9073 8242.361 1284.918)
(-713.1257 8727.107 4037.387)
(-810.2781 9276.436 7049.183)
(-934.5584 9913.702 10393.19)
(-1093.738 10678.31 13113.94)
(-1759.541 15973.8 18682.77)
(-1916.883 17771.12 19073.03)
(-966.2398 20175.29 21449.63)
(-543.0313 4100.02 1188.91)
(-601.8025 4327.487 3725.187)
(-673.9566 4580.9 6481.8)
(-764.4756 4867.902 9513.76)
(-879.547 5200.81 11931.12)
(-1406.364 7683.032 16804.07)
(-1637.739 8383.636 16838.16)
(-1753.115 9332.507 18637.07)
(-872.6249 10612.52 20759.14)
(-481.8526 1205.996 1116.389)
(-528.9992 1269.617 3490.622)
(-585.6323 1339.584 6058.683)
(-655.1222 1417.515 8865.01)
(-742.1743 1505.77 11071.61)
(-1169.771 2206.198 15485.19)
(-1362.084 2376.818 15342.87)
(-1579.673 2593.454 16737.54)
(-1675.146 2887.656 18460.39)
(-828.0774 3286.322 29823.37)
(-1839.431 -5556.194 2058.719)
(-3391.963 4912.622 1752.91)
(-1838.208 5556.106 6070.709)
(-2698.243 13141.98 1572.025)
(-3276.227 14610.76 5186.033)
(-1771.559 16523.07 9895.833)
(-2043.655 19602.65 1451.854)
(-2527.052 21380.45 4686.157)
(-3048.316 23765.69 8533.571)
(-1641.484 26873.78 13630.05)
(-1548.401 23983.09 1380.201)
(-1854.516 25838.11 4403.532)
(-2278.809 28184.51 7856.293)
(-2718.737 31328.66 12009.63)
(-1453.897 35429.71 16209.3)
(-1168.94 24911.94 1368.282)
(-1360.874 26631.14 4336.228)
(-1622.114 28703.97 7656.19)
(-1974.487 31326.21 11483.97)
(-2315.212 34837.11 14909.92)
(-1680.138 54056.23 22080.14)
(-883.9601 20566.1 1406.561)
(-1007.802 21865.07 4438.841)
(-1169.339 23380.9 7793.701)
(-1384.759 25206.23 11580.23)
(-1663.777 27513.06 14782.59)
(-2611.269 41961.92 21496.95)
(-1361.347 47508.04 22607.75)
(-694.596 13526.38 1324.17)
(-779.4839 14320.32 4163.231)
(-886.767 15222.19 7274.624)
(-1025.232 16270.17 10735.92)
(-1205.906 17528.27 13563.16)
(-1961.143 26219.54 19408.45)
(-2186.877 29150.8 19990.92)
(-1120.201 33029.49 22757.74)
(-573.0961 7807.646 1218.558)
(-635.3469 8239.527 3819.611)
(-711.9022 8721.068 6649.48)
(-808.2404 9266.709 9765.538)
(-931.4724 9899.639 12255.21)
(-1494.617 14621.6 17315.4)
(-1753.823 15947.71 17461.99)
(-1909.691 17735.99 19462.47)
(-962.2222 20126.38 21881.95)
(-494.1142 3893.258 1130.33)
(-542.5392 4098.242 3534.86)
(-600.7404 4323.719 6136.868)
(-672.2147 4574.878 8981.663)
(-761.8928 4859.29 11220.43)
(-1201.883 7118.72 15717.02)
(-1401.942 7667.596 15620.47)
(-1632.223 8363.548 17093.54)
(-1746.353 9306.264 18919.9)
(-868.9145 10577.27 30722.9)
(-441.8021 1147.593 1063.505)
(-481.4102 1205.438 3320.021)
(-528.0517 1268.439 5752.295)
(-584.0946 1337.711 8397.865)
(-652.8744 1414.853 10457.87)
(-1014.124 2060.822 14568.41)
(-1166.117 2201.521 14353.99)
(-1357.702 2370.836 15533.65)
(-1574.241 2585.866 16945.62)
(-1668.574 2877.95 27239.09)
(-395.289 1576.164 20738.33)
(-1775.074 -16523.1 2056.527)
(-3391.963 -4912.622 1752.91)
(-1838.208 -5556.106 6070.709)
(-2784.478 4418.214 1568.478)
(-3390.002 4912.721 5178.414)
(-1835.862 5555.958 9904.332)
(-2173.567 12048.54 1439.593)
(-2696.98 13142.61 4649.506)
(-3272.504 14611.82 8479.832)
(-1768.205 16523.17 13611.46)
(-1700.734 18197.62 1346.693)
(-2042.705 19604.54 4298.203)
(-2524.63 21384.34 7674.225)
(-3043.026 23771.28 11758.02)
(-1637.249 26878.23 15999.61)
(-1326.732 22442.85 1290.659)
(-1547.617 23987.71 4090.195)
(-1852.658 25847.86 7221.89)
(-2275.273 28199.9 10840.57)
(-2712.031 31349.69 14114.53)
(-1987.991 48615.64 20963.55)
(-1023.328 23440.79 1287.061)
(-1168.24 24920.08 4060.167)
(-1359.281 26648.39 7124.291)
(-1619.287 28731.46 10582.38)
(-1969.744 31365.21 13515.84)
(-3165.518 47837.48 19469.83)
(-1675.382 54123.64 20149.54)
(-786.4879 19428.4 1328.975)
(-883.2992 20570.65 4180.166)
(-1006.331 21874.63 7308.312)
(-1166.824 23395.99 10794.28)
(-1380.79 25227.36 13653.04)
(-2274.41 37764.86 19564.01)
(-2602.91 42000.55 20197.94)
(-1356.477 47554.94 23168.32)
(-625.7189 12816.43 1255.353)
(-694.0144 13524.62 3936.98)
(-778.2112 14316.53 6858.376)
(-884.6414 15215.99 10080.19)
(-1022 16261.02 12661.98)
(-1648.16 24023.42 17959.42)
(-1955.018 26202.28 18250.14)
(-2178.912 29127.11 20512.99)
(-1115.655 32993.81 23337.63)
(-521.3408 7415.485 1158.276)
(-572.5896 7804.988 3623.532)
(-634.2519 8233.889 6293.61)
(-710.1034 8712.044 9215.597)
(-805.5677 9253.778 11518.99)
(-1272.931 13555.84 16183.05)
(-1489.985 14598.32 16180.3)
(-1747.97 15917.32 17813.41)
(-1902.338 17696.08 19851.55)
(-958.1182 20072.15 32554.47)
(-452.994 3705.139 1076.684)
(-493.6653 3891.583 3361.714)
(-541.5774 4094.704 5825.719)
(-599.1782 4318.09 8506.912)
(-669.9292 4566.876 10596.15)
(-1041.1 6651.437 14782.31)
(-1198.149 7104.625 14607.86)
(-1397.443 7649.535 15854.25)
(-1626.607 8340.601 17348.33)
(-1739.472 9276.861 27994.14)
(-414.6444 5085.157 21503.79)
(-407.582 1094.076 1014.769)
(-441.3956 1147.066 3163.646)
(-480.5447 1204.328 5473.242)
(-526.6574 1266.68 7975.964)
(-582.0761 1335.222 9909.605)
(-892.0789 1936.436 13762.24)
(-1010.947 2056.501 13502.84)
(-1162.411 2196.044 14530.59)
(-1353.256 2363.994 15723.91)
(-1568.727 2577.345 24996.95)
(-799.2686 1382.61 18931.27)
(-357.0972 1391.793 22363.41)
(-1648.145 -26867.59 2057.688)
(-3278.165 -14610.24 1755.388)
(-1773.869 -16523.06 6064.816)
(-2784.478 -4418.214 1568.478)
(-3390.002 -4912.721 5178.414)
(-1835.862 -5555.958 9904.332)
(-2239.431 4050.269 1435.827)
(-2783.21 4418.356 4638.806)
(-3386.235 4912.927 8466.779)
(-1832.458 5555.766 13621.99)
(-1805.803 11184.23 1334.766)
(-2172.618 12049.18 4261.347)
(-2694.544 13143.88 7612.83)
(-3267.095 14613.43 11681.94)
(-1763.841 16523.39 15975.38)
(-1455.414 17028.63 1258.718)
(-1699.961 18199.44 3989.527)
(-2040.869 19608.34 7045.93)
(-2521.101 21390.19 10584.96)
(-3036.136 23778.79 13814.24)
(-2239.189 36868.3 20612.68)
(-1160.452 21118.35 1213.333)
(-1326.064 22447.23 3826.948)
(-1546.095 23996.96 6713.324)
(-1849.944 25862.52 9972.939)
(-2270.662 28220.47 12749.07)
(-3709.571 43025.12 18264.84)
(-1983.121 48648.02 18751.15)
(-909.9366 22147.02 1215.331)
(-1022.716 23448.52 3820.883)
(-1166.878 24936.41 6674.959)
(-1356.949 26674.35 9853.117)
(-1615.591 28768.26 12461.03)
(-2694.435 43073.21 17654.22)
(-3157.444 47905.9 17781.82)
(-1670.667 54210.5 20095.56)
(-708.1871 18412.69 1259.394)
(-785.8993 19432.75 3951.028)
(-882.0089 20579.79 6885.865)
(-1004.171 21889.06 10126.74)
(-1163.525 23416.22 12731.31)
(-1887.845 34629 18071.31)
(-2268.049 37802.36 18379.2)
(-2594.355 42050.28 20708.24)
(-1351.506 47614.52 23734.5)
(-569.0317 12175.47 1192.914)
(-625.1938 12814.8 3733.59)
(-692.8775 13521.13 6488.526)
(-776.3395 14310.87 9507.293)
(-881.8525 15207.74 11892.61)
(-1396.868 22287.26 16767.75)
(-1643.252 24008.54 16883.98)
(-1948.716 26182.86 18721.99)
(-2170.733 29100.97 21036.41)
(-1110.996 32955.39 34924.04)
(-477.8574 7058.471 1103.109)
(-520.879 7412.981 3445.312)
(-571.5989 7799.697 5972.962)
(-632.6408 8225.461 8725.656)
(-707.7427 8700.042 10873.63)
(-1100.865 12671.76 15212.36)
(-1269.036 13534.62 15119.88)
(-1485.248 14571.06 16502.51)
(-1741.983 15882.58 18164.53)
(-1894.822 17651.33 29528.6)
(-457.0606 9723.09 23081.27)
(-417.8674 3532.705 1027.26)
(-452.5817 3703.555 3203.066)
(-492.787 3888.246 5542.461)
(-540.1616 4089.416 8078.398)
(-597.1273 4310.607 10038.9)
(-915.4129 6251.311 13961.25)
(-1037.858 6638.411 13737.69)
(-1194.352 7088.085 14824.48)
(-1392.866 7628.842 16087.5)
(-1620.893 8314.791 25661.24)
(-832.9817 4467.442 19583.93)
(-373.8735 4517.939 23421.61)
(-377.9217 1044.739 969.6326)
(-407.2065 1093.577 3019.462)
(-440.5999 1146.016 5217.29)
(-479.2702 1202.669 7591.481)
(-524.8262 1264.341 9414.222)
(-795.3188 1827.483 13042.02)
(-889.265 1932.41 12754.68)
(-1007.727 2051.428 13667.7)
(-1158.653 2189.766 14706.72)
(-1348.746 2356.292 23190.07)
(-754.9875 1239.034 17362.12)
(-727.8902 1224.031 20400.44)
(-316.7705 1152.882 23354.32)
(-1464.332 -35386.51 2079.897)
(-3053.851 -23760.17 1765.821)
(-1646.977 -26868.52 6069.789)
(-2698.243 -13141.98 1572.025)
(-3276.227 -14610.76 5186.033)
(-1771.559 -16523.07 9895.833)
(-2239.431 -4050.269 1435.827)
(-2783.21 -4418.356 4638.806)
(-3386.235 -4912.927 8466.779)
(-1832.458 -5555.766 13621.99)
(-1859.039 3759.578 1331.027)
(-2238.481 4050.419 4250.032)
(-2780.765 4418.642 7594.888)
(-3380.764 4913.243 11663.3)
(-1828.027 5555.537 15986.91)
(-1544.128 10465.49 1247.248)
(-1805.034 11184.86 3953.713)
(-2170.784 12050.47 6984.379)
(-2690.998 13145.79 10498.72)
(-3260.053 14615.6 13723.2)
(-2412.613 22661.04 20553.56)
(-1272.256 16023.66 1182.898)
(-1454.758 17030.37 3731.029)
(-1698.465 18203.08 6545.299)
(-2038.19 19614.04 9726.247)
(-2516.502 21398.01 12444.74)
(-4153.792 32622.08 17805.91)
(-2234.143 36877.97 18276.62)
(-1031.411 19953.56 1145.179)
(-1159.87 21122.52 3599.418)
(-1324.769 22456.01 6285.55)
(-1543.871 24010.87 9276.705)
(-1846.402 25882.1 11735.17)
(-3107.323 38732.9 16503.02)
(-3701.515 43060.41 16347.8)
(-1978.378 48690.56 18336.08)
(-819.0481 20991.55 1151.121)
(-909.3928 22154.37 3609.406)
(-1021.525 23464.02 6285.105)
(-1164.883 24960.99 9236.545)
(-1353.898 26709.09 11607.39)
(-2210.267 39508.36 16279.8)
(-2688.603 43137.59 16124.58)
(-3149.418 47991.49 17747.88)
(-1665.991 54316.93 20039.52)
(-643.8263 17495.1 1196.348)
(-707.6566 18416.86 3745.406)
(-784.7489 19441.5 6511.356)
(-880.1114 20593.58 9545.369)
(-1001.336 21908.38 11948.1)
(-1590.863 32143.78 16853.34)
(-1882.812 34664.71 16974.44)
(-2261.516 37849.88 18841.11)
(-2585.601 42111.16 21223.58)
(-1346.433 47686.86 35487)
(-521.4367 11591.58 1135.829)
(-568.5536 12173.95 3548.945)
(-624.1667 12811.56 6155.803)
(-691.2041 13515.91 8997.932)
(-773.8822 14303.33 11220.1)
(-1205.313 20844.1 15750.49)
(-1392.764 22274.01 15761.4)
(-1638.205 23991.66 17317.13)
(-1942.235 26161.17 19195.09)
(-2162.341 29072.23 31481.6)
(-530.4432 16260.78 25172.11)
(-440.7264 6731.058 1052.315)
(-477.4336 7056.105 3282.132)
(-519.9752 7407.995 5681.318)
(-570.1404 7791.785 8283.942)
(-630.5253 8214.248 10298.42)
(-967.1604 11913.72 14361.49)
(-1097.492 12652.17 14211.45)
(-1265.055 13509.7 15418.81)
(-1480.406 14539.81 16824.45)
(-1735.862 15843.45 27011.03)
(-907.1019 8565.102 20928.48)
(-410.9464 8824.823 25669.64)
(-387.427 3373.695 981.4988)
(-417.4867 3531.203 3056.832)
(-451.7745 3700.399 5282.752)
(-491.4934 3883.26 7688.074)
(-538.302 4082.385 9535.698)
(-815.9127 5900.622 13228.31)
(-912.5441 6239.175 12973.66)
(-1034.564 6623.093 13940.07)
(-1190.492 7069.096 15040.62)
(-1388.212 7605.513 23791.21)
(-779.9286 4006.825 17940.17)
(-757.2628 3979.446 21316.45)
(-330.438 3762.664 24669.94)
(-351.897 999.0232 927.6605)
(-377.5733 1044.264 2885.866)
(-406.4709 1092.581 4981.146)
(-439.4272 1144.447 7238.635)
(-477.5954 1200.464 8962.584)
(-717.0779 1730.497 12391.22)
(-792.7918 1823.71 12086.49)
(-886.4135 1927.677 12909.51)
(-1004.463 2045.606 13832.13)
(-1154.844 2182.688 21686.83)
(-650.3635 1133.2 16099.79)
(-695.1391 1098.067 18693.14)
(-652.4578 1016.207 21295.23)
(-274.7337 865.546 24138.03)
(-1239.236 -39280.45 2160.412)
(-2729.258 -31297.43 1800.919)
(-1463.216 -35390.62 6138.963)
(-2528.308 -21378.52 1584.186)
(-3051.957 -23761.99 5217.772)
(-1644.737 -26870.55 9906.997)
(-2173.567 -12048.54 1439.593)
(-2696.98 -13142.61 4649.506)
(-3272.504 -14611.82 8479.832)
(-1768.205 -16523.17 13611.46)
(-1859.039 -3759.578 1331.027)
(-2238.481 -4050.419 4250.032)
(-2780.765 -4418.642 7594.888)
(-3380.764 -4913.243 11663.3)
(-1828.027 -5555.537 15986.91)
(-1589.062 3517.914 1243.615)
(-1858.27 3759.727 3942.494)
(-2236.645 4050.721 6965.494)
(-2777.205 4419.073 10473.51)
(-3373.641 4913.672 13700.79)
(-2500.544 7618.704 20560.06)
(-1349.317 9847.752 1171.912)
(-1543.476 10466.09 3696.606)
(-1803.544 11186.11 6485.566)
(-2168.109 12052.4 9639.994)
(-2686.376 13148.34 12342.07)
(-4460.656 20047.5 17663.76)
(-2407.422 22662.75 18167.89)
(-1130.447 15139.98 1116.159)
(-1271.686 16025.32 3508.046)
(-1453.488 17033.84 6125.534)
(-1696.28 18208.55 9041.302)
(-2034.694 19621.65 11441.74)
(-3444.496 29357.45 16045.68)
(-4145.576 32634.96 15794.54)
(-2229.261 36891.63 17715.24)
(-928.1499 18913.25 1084.264)
(-1030.895 19957.53 3398.719)
(-1158.739 21130.87 5915.422)
(-1322.873 22469.21 8690.543)
(-1540.966 24029.43 10921.11)
(-2527.039 35524.51 15194.3)
(-3101.769 38766.7 14772.31)
(-3693.656 43104.61 15996.1)
(-1973.761 48743.23 17919.22)
(-744.4255 19947.39 1093.026)
(-818.5589 20998.56 3419.972)
(-908.3329 22169.11 5940.243)
(-1019.777 23487.34 8701.169)
(-1162.271 24993.86 10885.27)
(-1852.314 36681.27 15167.31)
(-2205.72 39568.7 14869.01)
(-2682.783 43217.48 16094.7)
(-3141.44 48094.38 17711.99)
(-1661.357 54443.11 29049.66)
(-589.8256 16658.75 1138.773)
(-643.3438 17499.1 3558.989)
(-706.619 18425.24 6175.033)
(-783.056 19454.68 9029.639)
(-877.6204 20612.04 11265.66)
(-1369.108 30074.54 15818.44)
(-1586.681 32177.69 15828.86)
(-1877.644 34709.6 17398.75)
(-2254.811 37907.46 19307.6)
(-2576.647 42183.26 31748.03)
(-646.0387 24290.68 25689.52)
(-480.8143 11055.79 1083.31)
(-520.9983 11590.15 3380.048)
(-567.6175 12170.93 5853.542)
(-622.6539 12806.71 8539.432)
(-689.006 13508.97 10621.92)
(-1057.724 19604.82 14861.31)
(-1201.772 20832.09 14803.75)
(-1388.547 22258.9 16163.65)
(-1633.018 23972.69 17751.45)
(-1935.576 26137.13 28718.44)
(-1035.987 14370.99 22693.53)
(-476.8544 15611.87 28900.89)
(-408.5598 6429.001 1005.308)
(-440.3352 6728.816 3131.81)
(-476.6034 7051.391 5414.114)
(-518.6436 7400.538 7881.955)
(-568.2241 7781.255 9779.612)
(-861.6203 11248.65 13603.08)
(-964.1814 11895.48 13415.52)
(-1094.048 12629.11 14491.02)
(-1260.99 13481.05 15717.5)
(-1475.46 14504.51 25012.82)
(-835.0909 7693.035 19131.39)
(-822.3957 7795.013 23265.01)
(-360.8754 7531.377 27592.5)
(-360.7226 3226.324 938.9551)
(-387.0738 3372.268 2921.373)
(-416.7407 3528.211 5043.218)
(-450.5848 3695.682 7330.004)
(-489.7934 3876.628 9077.152)
(-735.5172 5588.297 12566.42)
(-813.3381 5889.247 12291.84)
(-909.6295 6224.878 13163.85)
(-1031.216 6605.479 14142.01)
(-1186.57 7047.654 22239.78)
(-669.2684 3666.408 16624.93)
(-717.0559 3572.884 19509.57)
(-676.5001 3321.615 22443.68)
(-284.823 2822.666 25664.72)
(-328.8353 956.4835 888.4957)
(-351.5725 998.5714 2761.581)
(-376.8902 1043.319 4762.215)
(-405.3862 1091.094 6912.926)
(-437.8856 1142.361 8547.94)
(-652.5326 1643.09 11797.82)
(-714.7848 1726.946 11482.84)
(-790.2315 1819.269 12232.56)
(-883.5244 1922.236 13063.94)
(-1001.156 2039.033 20395.09)
(-557.153 1049.985 15051.39)
(-601.5879 1004.862 17322.79)
(-631.8812 912.4591 19500.78)
(-573.7487 764.6522 22005.85)
(-231.4832 542.2072 16858.78)
(-1009.853 -34556.12 2306.91)
(-2332.12 -34735.65 1894.476)
(-1238.173 -39289.53 6384.457)
(-2282.49 -28169.21 1620.316)
(-2727.42 -31302.57 5323.914)
(-1461.072 -35399.1 10027.19)
(-2043.655 -19602.65 1451.854)
(-2527.052 -21380.45 4686.157)
(-3048.316 -23765.69 8533.571)
(-1641.484 -26873.78 13630.05)
(-1805.803 -11184.23 1334.766)
(-2172.618 -12049.18 4261.347)
(-2694.544 -13143.88 7612.83)
(-3267.095 -14613.43 11681.94)
(-1763.841 -16523.39 15975.38)
(-1589.062 -3517.914 1243.615)
(-1858.27 -3759.727 3942.494)
(-2236.645 -4050.721 6965.494)
(-2777.205 -4419.073 10473.51)
(-3373.641 -4913.673 13700.79)
(-2500.544 -7618.704 20560.06)
(-1388.341 3310.24 1168.414)
(-1588.411 3518.059 3685.716)
(-1856.781 3760.027 6466.873)
(-2233.969 4051.175 9613.544)
(-2772.566 4419.65 12312.03)
(-4616.317 6739.392 17627.46)
(-2495.278 7618.762 18156.9)
(-1198.699 9304.644 1105.65)
(-1348.75 9848.332 3475.087)
(-1542.213 10467.3 6068.159)
(-1801.369 11188 8957.679)
(-2164.62 12054.97 11339.2)
(-3677.433 18035.79 15890.9)
(-4452.279 20051.4 15618.04)
(-2402.413 22665.83 17554.54)
(-1017.096 14350.79 1056.568)
(-1129.942 15141.56 3311.613)
(-1270.579 16028.63 5763.041)
(-1451.629 17039.06 8466.452)
(-1693.426 18215.84 10641.24)
(-2785.338 26920.98 14756.18)
(-3439.004 29370.33 14234.08)
(-4137.621 32651.27 15315.77)
(-2224.545 36909.23 17153.16)
(-843.4399 17973.09 1029.216)
(-927.6861 18917.03 3219.208)
(-1029.891 19965.47 5588.624)
(-1157.082 21143.4 8182.942)
(-1320.393 22486.82 10235.35)
(-2109.081 32982.19 14143.25)
(-2522.77 35556.4 13601.2)
(-3096.336 38808.52 14455.87)
(-3685.994 43157.7 15642.67)
(-1969.272 48806.01 25359.39)
(-681.8506 18995.42 1040.038)
(-743.9811 19954.07 3248.472)
(-817.6044 21012.6 5631.071)
(-906.7767 22191.28 8227.236)
(-1017.488 23518.52 10257.92)
(-1590.151 34326.17 14226.07)
(-1848.559 36738.02 13852.72)
(-2201.18 39643.29 14841.23)
(-2676.976 43313 16063.05)
(-3133.512 48214.73 25698.36)
(-806.5598 27988.61 19265.61)
(-543.7579 15890.96 1085.852)
(-589.3836 16662.59 3388.661)
(-642.3993 17507.12 5869.911)
(-705.0908 18437.85 8566.212)
(-780.8323 19472.33 10660.01)
(-1199.944 28295.4 14916.65)
(-1365.514 30106.76 14855.91)
(-1582.388 32220.13 16223.08)
(-1872.34 34763.74 17827.28)
(-2247.931 37975.16 28878)
(-1240.248 21529.51 23008.18)
(-588.1996 25840.1 30283.55)
(-445.638 10561.26 1034.74)
(-480.41 11054.45 3224.585)
(-520.1393 11587.31 5576.882)
(-566.2379 12166.41 8122.675)
(-620.6657 12800.26 10083.24)
(-941.7005 18516.27 14070.38)
(-1054.604 19593.8 13967.04)
(-1198.135 20818.32 15180.21)
(-1384.216 22241.84 16566.99)
(-1627.692 23951.54 26553.18)
(-931.888 12929.31 20689.59)
(-938.8384 13839.34 26059.37)
(-416.7824 14415.21 32379.76)
(-380.3501 6148.948 961.624)
(-408.197 6426.872 2992.634)
(-439.5684 6724.348 5167.815)
(-475.3796 7044.34 7513.457)
(-516.8932 7390.611 9307.267)
(-776.4696 10655.84 12918.97)
(-858.9503 11231.57 12706.31)
(-961.1399 11873.98 13678.45)
(-1090.531 12602.56 14770.36)
(-1256.839 13448.64 23363.66)
(-711.2117 7045.508 17707.47)
(-765.9597 7009.067 21247.81)
(-730.2285 6667.933 25001.17)
(-307.2931 5740.894 29221.17)
(-337.0617 3089.164 899.2642)
(-360.3936 3224.966 2795.381)
(-386.3812 3369.424 4821.204)
(-415.6405 3523.736 6999.579)
(-449.0205 3689.406 8656.329)
(-669.2241 5306.705 11963.19)
(-733.1823 5577.589 11676.25)
(-810.7231 5875.829 12471.36)
(-906.6692 6208.417 13353.63)
(-1027.816 6585.564 20908.9)
(-572.3658 3398.343 15535.74)
(-618.2506 3271.239 18067.21)
(-649.959 2984.957 20527.96)
(-591.5838 2497.072 23344.96)
(-237.6478 1729.411 17982.55)
(-308.2236 916.7589 851.837)
(-328.532 956.0528 2645.559)
(-350.9358 997.6711 4558.429)
(-375.8824 1041.905 6610.81)
(-403.9596 1089.115 8165.039)
(-598.2679 1563.582 11252.96)
(-650.435 1639.736 10932.53)
(-712.4621 1722.76 11621.11)
(-787.6381 1814.158 12378.23)
(-880.5979 1916.089 19260.96)
(-482.9882 981.0723 14151.67)
(-516.0809 931.4402 16187.38)
(-550.1333 835.4287 18062.48)
(-565.8287 687.1956 20143.51)
(-492.6771 480.5613 15369.75)
(-1691.16 2678.425 53471.49)
(-835.5577 -24212.35 2255.68)
(-1928.03 -30519.34 2050.783)
(-1008.828 -34559.93 6829.385)
(-1981.89 -31268.16 1711.275)
(-2330.323 -34745.64 5606.162)
(-1236.123 -39308.06 10444.1)
(-1855.477 -25833.25 1486.888)
(-2281.234 -28174.29 4794.947)
(-2723.882 -31312.96 8712.106)
(-1457.956 -35412.11 13803.39)
(-1700.734 -18197.62 1346.693)
(-2042.705 -19604.54 4298.203)
(-2524.63 -21384.34 7674.225)
(-3043.026 -23771.28 11758.02)
(-1637.249 -26878.23 15999.61)
(-1544.128 -10465.49 1247.248)
(-1805.034 -11184.86 3953.713)
(-2170.784 -12050.47 6984.379)
(-2690.998 -13145.79 10498.72)
(-3260.053 -14615.6 13723.2)
(-2412.613 -22661.04 20553.56)
(-1388.341 -3310.24 1168.414)
(-1588.411 -3518.059 3685.716)
(-1856.781 -3760.027 6466.873)
(-2233.969 -4051.175 9613.544)
(-2772.566 -4419.65 12312.03)
(-4616.317 -6739.392 17627.46)
(-2495.278 -7618.762 18156.9)
(-1233.259 3127.669 1102.293)
(-1387.776 3310.38 3464.602)
(-1587.15 3518.349 6050.028)
(-1854.608 3760.475 8931.534)
(-2230.477 4051.779 11307.77)
(-3795.61 6062.091 15845.49)
(-4607.85 6740.203 15570.81)
(-2490.199 7619.143 17527.45)
(-1078.389 8819.637 1046.517)
(-1198.197 9305.198 3280.091)
(-1347.651 9849.49 5708.128)
(-1540.367 10469.11 8386.176)
(-1798.529 11190.5 10541.89)
(-2963.531 16536.35 14603.37)
(-3671.932 18040.01 14051.07)
(-4444.189 20056.45 15095.13)
(-2397.585 22670.26 16941.02)
(-924.1617 13637.59 1002.754)
(-1016.642 14352.3 3136.085)
(-1128.96 15144.73 5443.391)
(-1268.958 16033.61 7969.603)
(-1449.201 17046.02 9969.003)
(-2318.248 24992.53 13726.78)
(-2781.162 26933.33 13090.49)
(-3433.679 29386.3 13803.52)
(-4129.929 32671 14836.25)
(-2219.993 36930.76 24003.2)
(-772.436 17115.88 979.0542)
(-843.0191 17976.7 3056.874)
(-926.7826 18924.6 5296.063)
(-1028.418 19977.4 7734.413)
(-1154.915 21160.13 9641.155)
(-1807.204 30865.18 13257.64)
(-2105.578 33012.27 12660.53)
(-2518.592 35595.65 13310.2)
(-3091.025 38858.35 14137.85)
(-3678.53 43219.64 22154.91)
(-961.733 24785.47 15777.23)
(-628.4885 18121.29 991.3828)
(-681.4441 19001.81 3091.955)
(-743.1134 19967.47 5350.949)
(-816.2017 21033.72 7802.059)
(-904.7365 22220.92 9702.274)
(-1392.062 32300.32 13408.19)
(-1586.935 34379.73 12992.96)
(-1844.81 36808.01 13826.64)
(-2196.647 39732.24 14811.8)
(-2671.183 43424.27 23307.37)
(-1525.394 24831.66 17077.97)
(-762.9062 30558.88 18938.53)
(-503.8828 15182.01 1036.948)
(-543.3506 15894.64 3232.024)
(-588.5177 16670.28 5590.939)
(-641.0074 17519.2 8145.538)
(-703.0826 18454.73 10115.53)
(-1067.596 26731.15 14116.25)
(-1196.785 28326.06 14008.37)
(-1361.826 30146.97 15225)
(-1577.986 32271.17 16621.22)
(-1866.899 34827.19 26660.21)
(-1086.919 19396.61 20921.34)
(-1136.93 22979.59 27163.25)
(-521.2269 28275.62 36360.02)
(-414.8018 10102.56 989.6295)
(-445.2633 10559.99 3080.746)
(-479.6171 11051.78 5322.074)
(-518.8724 11583.08 7741.014)
(-564.4239 12160.38 9593.402)
(-848.2832 17545.07 13358.05)
(-938.9095 18506.06 13223.01)
(-1051.401 19581.11 14321.31)
(-1194.403 20802.73 15557.7)
(-1379.772 22222.75 24778.07)
(-785.1488 11852.71 19120.97)
(-854.258 12466.52 23738.72)
(-829.5003 12811.7 29198.85)
(-349.6178 12104.87 35992.84)
(-355.3617 5888.209 920.8838)
(-380.0124 6146.921 2863.24)
(-407.4855 6422.627 4939.646)
(-438.4373 6717.661 7173.616)
(-473.7701 7034.951 8874.1)
(-706.3153 10120.99 12296.08)
(-774.0508 10639.77 12066.74)
(-856.2251 11211.4 12954.63)
(-958.0359 11849.19 13941.17)
(-1086.942 12572.49 21953.49)
(-606.1815 6534.232 16534.51)
(-655.5516 6422.992 19653.03)
(-690.6118 6001.375 22818.33)
(-631.4288 5092.946 26474.25)
(-250.9987 3400.129 20678.63)
(-315.9159 2961.06 862.1187)
(-336.7544 3087.868 2677.79)
(-359.7482 3222.258 4614.593)
(-385.3593 3365.171 6693.172)
(-414.1933 3517.783 8267.847)
(-613.5052 5050.471 11409.54)
(-667.0891 5296.587 11115.34)
(-730.8112 5564.941 11846.27)
(-808.0678 5860.364 12650.48)
(-903.6633 6189.789 19741.77)
(-495.7806 3176.124 14602.68)
(-529.5107 3033.247 16875.72)
(-563.9145 2734.309 19000.92)
(-579.3454 2245.865 21343.62)
(-503.6562 1534.256 16357.55)
(-1720.451 8072.608 56983.64)
(-289.6626 879.5609 817.4328)
(-307.9393 916.3477 2536.918)
(-327.9366 955.1943 4368.092)
(-349.996 996.3248 6329.461)
(-374.5563 1040.024 7809.742)
(-551.9087 1490.717 10749.76)
(-596.3366 1560.404 10427.31)
(-648.3105 1635.778 11063.78)
(-710.1097 1717.94 11759.02)
(-785.0118 1808.379 18248.92)
(-424.739 922.0606 13362.45)
(-447.4118 870.5643 15214.79)
(-472.8331 774.6474 16872.75)
(-496.4666 629.4855 18651.62)
(-497.7119 432.416 14066.68)
(-3659.209 2385.506 48824.05)
(-1566.226 1794.806 31545.31)
(-721.2606 -14867.09 2156.792)
(-1622.386 -21326.43 2025.473)
(-834.6369 -24206.34 6680.019)
(-1676.588 -27458.78 1860.471)
(-1926.244 -30524.58 6077.737)
(-1006.846 -34567.95 11196.9)
(-1625.044 -28676.63 1573.301)
(-1980.605 -31277.77 5068.719)