/*--------------------------------*- C++ -*----------------------------------*\
| =========                 |                                                 |
| \\      /  F ield         | OpenFOAM: The Open Source CFD Toolbox           |
|  \\    /   O peration     | Version:  2306                                  |
|   \\  /    A nd           | Website:  www.openfoam.com                      |
|    \\/     M anipulation  |                                                 |
\*---------------------------------------------------------------------------*/
FoamFile
{
    version     2.0;
    format      ascii;
    arch        "LSB;label=32;scalar=64";
    class       volScalarField;
    location    "0.9/phiEA";
    object      phi;
}
// * * * * * * * * * * * * * * * * * * * * * * * * * * * * * * * * * * * * * //

dimensions      [1 2 -3 0 0 -1 0];

internalField   nonuniform List<scalar> 
20000
(
-0.004992294
-0.005132042
-0.004635972
-0.004987618
-0.005441542
-0.004758168
-0.005127282
-0.004275982
-0.00463171
-0.00497845
-0.00598159
-0.005029393
-0.005436612
-0.004385347
-0.004753841
-0.005117948
-0.003964652
-0.004272078
-0.004623344
-0.004964919
-0.006825105
-0.005504128
-0.005976434
-0.00462839
-0.005024933
-0.005426944
-0.004064601
-0.004381387
-0.004745344
-0.005104172
-0.003699517
-0.003961036
-0.004264405
-0.004610986
-0.004947106
-0.007956225
-0.006248046
-0.006819832
-0.005054512
-0.005499498
-0.005966321
-0.004286888
-0.004624317
-0.005016176
-0.005412672
-0.00379208
-0.004060936
-0.004373603
-0.004732793
-0.005086035
-0.003471213
-0.003696141
-0.003953923
-0.004253063
-0.004594706
-0.004928034
-0.009069702
-0.00724809
-0.007951287
-0.005723373
-0.006243359
-0.006809495
-0.004677016
-0.005050296
-0.005490405
-0.005951391
-0.003998049
-0.004283122
-0.00461631
-0.005003235
-0.00539388
-0.003557668
-0.003788659
-0.004053724
-0.004362095
-0.004716256
-0.005066614
-0.003271721
-0.003468043
-0.003689495
-0.003943401
-0.004238111
-0.004577268
-0.004911733
-0.009978312
-0.00823294
-0.009064948
-0.006623585
-0.00724376
-0.007941632
-0.005289996
-0.005719121
-0.006234154
-0.006794239
-0.004359792
-0.004673125
-0.005042007
-0.005476965
-0.005931729
-0.003750122
-0.003994537
-0.004275713
-0.00460447
-0.004986184
-0.005373755
-0.003352952
-0.003554456
-0.003781924
-0.004043055
-0.004346924
-0.004698543
-0.005049972
-0.003094871
-0.003268732
-0.003461798
-0.003679657
-0.003929524
-0.004222089
-0.004562367
-0.004895216
-0.01060499
-0.009036515
-0.009973608
-0.007510125
-0.008228824
-0.00905567
-0.006115582
-0.006619674
-0.007235276
-0.007927415
-0.004928565
-0.005286078
-0.005710761
-0.006220553
-0.006774151
-0.00408831
-0.004356166
-0.004665466
-0.005029746
-0.005459252
-0.005910669
-0.003533833
-0.003746827
-0.003987621
-0.004264748
-0.004588859
-0.004967916
-0.005356422
-0.003171526
-0.003349924
-0.003548129
-0.003771952
-0.004028982
-0.004330665
-0.004683366
-0.005033066
-0.002936171
-0.003092042
-0.003262839
-0.003452549
-0.003666676
-0.003914647
-0.004208402
-0.004547273
-0.004878484
-0.01092249
-0.009590664
-0.01060029
-0.008233254
-0.009032478
-0.009964438
-0.00692866
-0.007506422
-0.008220771
-0.009042028
-0.005694989
-0.006111986
-0.006612
-0.007222764
-0.007908728
-0.00462032
-0.004924919
-0.005278368
-0.005698396
-0.006202629
-0.006752635
-0.003851817
-0.004084911
-0.004349025
-0.00465413
-0.005013576
-0.005440271
-0.005892427
-0.003342264
-0.003530728
-0.003740334
-0.003977381
-0.004250283
-0.004572126
-0.004952184
-0.005338727
-0.003008754
-0.003168661
-0.003343955
-0.003538757
-0.003758793
-0.004013895
-0.00431674
-0.004667953
-0.005015898
-0.002792308
-0.002933487
-0.003086464
-0.003254107
-0.00344034
-0.003652755
-0.003901941
-0.004194541
-0.004531985
-0.004861538
-0.01092249
-0.009871386
-0.01091778
-0.008731755
-0.009586652
-0.01059113
-0.007591767
-0.008229633
-0.009024588
-0.009950964
-0.006449853
-0.006925261
-0.007499165
-0.008208911
-0.009024119
-0.005337471
-0.005691647
-0.006104922
-0.006600669
-0.007206302
-0.007888742
-0.004352247
-0.004616905
-0.004917739
-0.005266956
-0.005682089
-0.00618342
-0.006734028
-0.003642518
-0.003848616
-0.004078211
-0.004338449
-0.004639171
-0.00499624
-0.005423829
-0.005873703
-0.003170458
-0.003339327
-0.003524605
-0.003730715
-0.003963865
-0.004234773
-0.004557721
-0.004936127
-0.005320672
-0.002861222
-0.003006037
-0.003163011
-0.003335108
-0.003526384
-0.00374468
-0.004000975
-0.004302602
-0.004652304
-0.004998468
-0.002660827
-0.002789757
-0.002928192
-0.003078193
-0.003242577
-0.003427242
-0.003640867
-0.003889076
-0.004180506
-0.004516505
-0.004681361
-0.01060499
-0.009871386
-0.01091778
-0.008984225
-0.009867379
-0.01090861
-0.008048811
-0.008728162
-0.009578811
-0.01057767
-0.007065451
-0.007588449
-0.008222543
-0.009012973
-0.009933284
-0.006043859
-0.006446698
-0.006918595
-0.007488465
-0.008193321
-0.009004978
-0.005027023
-0.005334343
-0.005685077
-0.006094486
-0.00658575
-0.007188684
-0.007871928
-0.0041152
-0.004349032
-0.004610174
-0.004907105
-0.005251899
-0.005664607
-0.0061668
-0.006714956
-0.003454905
-0.003639491
-0.003842302
-0.004068283
-0.004324486
-0.004623128
-0.004981228
-0.005406953
-0.005854497
-0.00301478
-0.003167673
-0.003333533
-0.003515529
-0.003718013
-0.003949369
-0.004221424
-0.004543022
-0.004919746
-0.005302257
-0.002726403
-0.002858639
-0.003000675
-0.003154634
-0.003323425
-0.00351311
-0.003732598
-0.00398786
-0.004288251
-0.00463642
-0.004812708
-0.00253985
-0.002658396
-0.00278472
-0.002920339
-0.003067268
-0.003230204
-0.003416059
-0.003628832
-0.003876052
-0.004166299
-0.004351953
-0.004317678
-0.009978312
-0.009590664
-0.01060029
-0.008984225
-0.009867379
-0.01090861
-0.008280255
-0.008980639
-0.009859549
-0.01089514
-0.007489717
-0.008045521
-0.008721128
-0.00956727
-0.01056002
-0.006619919
-0.007062373
-0.007581943
-0.008212092
-0.008997713
-0.009914393
-0.005691721
-0.006040909
-0.006440504
-0.006908754
-0.007474387
-0.008176649
-0.00898918
-0.004752712
-0.005024081
-0.00532819
-0.005675363
-0.006080734
-0.006569776
-0.007173852
-0.007855159
-0.003902825
-0.004112162
-0.004342692
-0.0046002
-0.004893066
-0.005235749
-0.005649482
-0.006149757
-0.006695414
-0.003284964
-0.003452036
-0.003633519
-0.003832939
-0.004055171
-0.004309507
-0.004609238
-0.004965823
-0.005389641
-0.005834807
-0.002872549
-0.003012133
-0.003162175
-0.003324941
-0.003503541
-0.003704386
-0.003936894
-0.004207806
-0.004528032
-0.004903041
-0.005105124
-0.002602369
-0.002723942
-0.002853538
-0.002992721
-0.003143567
-0.003310889
-0.003501746
-0.003720334
-0.003974551
-0.004273688
-0.004467171
-0.004433661
-0.002427923
-0.002537531
-0.002653595
-0.002777246
-0.002909962
-0.003055543
-0.003219639
-0.003404738
-0.00361665
-0.003862869
-0.004015303
-0.004020097
-0.003935914
-0.009069702
-0.009036515
-0.009973608
-0.008731755
-0.009586652
-0.01059113
-0.008280255
-0.008980639
-0.009859549
-0.01089514
-0.00770455
-0.008276973
-0.008973622
-0.009848026
-0.01087748
-0.007016924
-0.007486666
-0.008039071
-0.008710761
-0.009552109
-0.01054116
-0.006233786
-0.006617042
-0.007056332
-0.007572344
-0.008198349
-0.008981398
-0.009898929
-0.005380744
-0.005688947
-0.006035112
-0.006431353
-0.0068958
-0.007459324
-0.008162879
-0.008973726
-0.004507059
-0.004749934
-0.00501829
-0.005319086
-0.005662556
-0.006066003
-0.006556327
-0.007159048
-0.007838436
-0.003710521
-0.003899947
-0.004106169
-0.004333293
-0.004587027
-0.004878004
-0.00522178
-0.005633975
-0.006132287
-0.006675398
-0.003129744
-0.003282238
-0.003446372
-0.00362466
-0.003820571
-0.0040411
-0.00429654
-0.004594988
-0.004950025
-0.005371892
-0.005622965
-0.002741719
-0.002870027
-0.003006905
-0.00315402
-0.003313589
-0.003490675
-0.003692659
-0.003924169
-0.00419392
-0.004512748
-0.00472424
-0.004694173
-0.002487622
-0.002600021
-0.002719082
-0.00284597
-0.00298221
-0.003131688
-0.003300157
-0.003490214
-0.00370789
-0.003961048
-0.004118556
-0.004122099
-0.004031987
-0.002323895
-0.002425706
-0.002532948
-0.00264647
-0.002767368
-0.002898821
-0.003045532
-0.003208946
-0.003393279
-0.003604321
-0.003722797
-0.003711103
-0.003671938
-0.0035392
-0.007956225
-0.00823294
-0.009064948
-0.008233254
-0.009032478
-0.009964438
-0.008048811
-0.008728162
-0.009578811
-0.01057767
-0.00770455
-0.008276973
-0.008973622
-0.009848026
-0.01087748
-0.007217947
-0.007701508
-0.008270541
-0.00896328
-0.00983289
-0.0108586
-0.006607358
-0.007014073
-0.00748068
-0.008029557
-0.008697131
-0.009535902
-0.01052576
-0.005892916
-0.006231082
-0.006611391
-0.007047412
-0.007559711
-0.008183647
-0.008968036
-0.009883932
-0.005102343
-0.005378126
-0.005683493
-0.006026542
-0.0064193
-0.006881931
-0.007446882
-0.008149402
-0.00895862
-0.004284685
-0.004504428
-0.004744462
-0.005009715
-0.005307078
-0.005648831
-0.006053601
-0.006542902
-0.007144273
-0.00782176
-0.003534925
-0.003707787
-0.003894264
-0.004097279
-0.004320874
-0.00457289
-0.004864977
-0.005207459
-0.00561808
-0.006114384
-0.006460188
-0.002987001
-0.003127148
-0.003276852
-0.003437966
-0.003612952
-0.003807293
-0.00402892
-0.004283238
-0.004580377
-0.004933832
-0.005180929
-0.005169062
-0.002620705
-0.002739314
-0.002865047
-0.002999147
-0.003143241
-0.003301402
-0.003479605
-0.0036807
-0.003911195
-0.004179765
-0.004349205
-0.004351717
-0.004249469
-0.002380982
-0.002485378
-0.002595382
-0.002711867
-0.002835966
-0.002970925
-0.00312152
-0.003289266
-0.003478513
-0.003695266
-0.00381723
-0.003802608
-0.003756622
-0.003611329
-0.002226839
-0.002321774
-0.002421326
-0.002526145
-0.00263705
-0.00275676
-0.00288931
-0.003035399
-0.003198124
-0.003381684
-0.003473334
-0.003440814
-0.003392199
-0.003310256
-0.003131313
-0.006825105
-0.00724809
-0.007951287
-0.007510125
-0.008228824
-0.00905567
-0.007591767
-0.008229633
-0.009024588
-0.009950964
-0.007489717
-0.008045521
-0.008721128
-0.00956727
-0.01056002
-0.007217947
-0.007701508
-0.008270541
-0.00896328
-0.00983289
-0.0108586
-0.006796515
-0.007215105
-0.007695539
-0.008261052
-0.008949682
-0.00981671
-0.01084321
-0.006245886
-0.00660468
-0.007008474
-0.007471842
-0.008017037
-0.008682551
-0.009522669
-0.01051088
-0.005587816
-0.005890364
-0.006225768
-0.006603041
-0.007035666
-0.007546191
-0.008171606
-0.008955074
-0.009869404
-0.004850372
-0.005099864
-0.005372975
-0.005675426
-0.006015248
-0.006406391
-0.006870476
-0.007434703
-0.008136219
-0.008943861
-0.004081673
-0.004282186
-0.004499242
-0.004736356
-0.004998401
-0.005294206
-0.005637277
-0.006041222
-0.006529502
-0.007129528
-0.007647188
-0.003373478
-0.003532322
-0.003702387
-0.003885832
-0.00408553
-0.004307543
-0.004560663
-0.004851623
-0.005192782
-0.005601795
-0.005921823
-0.005995162
-0.002854993
-0.002984524
-0.003122019
-0.003268858
-0.003426853
-0.003600382
-0.003795802
-0.004016427
-0.004269601
-0.004565402
-0.004759642
-0.004771684
-0.004659602
-0.002508256
-0.002618407
-0.00273456
-0.002857652
-0.002988889
-0.003131667
-0.003290917
-0.003468316
-0.003668508
-0.003897973
-0.004028331
-0.004008843
-0.00394874
-0.003774422
-0.002281495
-0.002378836
-0.002480944
-0.002588493
-0.002702328
-0.002825222
-0.002961266
-0.003111202
-0.003278217
-0.003466644
-0.003560833
-0.003524553
-0.003468237
-0.003373977
-0.003176497
-0.002135989
-0.002224808
-0.002317583
-0.002414821
-0.002517147
-0.002626932
-0.002747705
-0.002879683
-0.003025144
-0.003187173
-0.003258503
-0.003209779
-0.003145371
-0.003061076
-0.00293841
-0.002861687
-0.00598159
-0.006248046
-0.006819832
-0.006623585
-0.00724376
-0.007941632
-0.00692866
-0.007506422
-0.008220771
-0.009042028
-0.007065451
-0.007588449
-0.008222543
-0.009012973
-0.009933284
-0.007016924
-0.007486666
-0.008039071
-0.008710761
-0.009552109
-0.01054116
-0.006796515
-0.007215105
-0.007695539
-0.008261052
-0.008949682
-0.00981671
-0.01084321
-0.00642461
-0.006793844
-0.007209523
-0.007686726
-0.008248567
-0.008935138
-0.009803511
-0.01082834
-0.005922388
-0.006243358
-0.006599415
-0.007000203
-0.007460205
-0.008003638
-0.008670646
-0.009509872
-0.0104965
-0.005311718
-0.005585401
-0.005885346
-0.00621791
-0.006592039
-0.007023089
-0.007535118
-0.008159923
-0.00894251
-0.009855344
-0.004620377
-0.00484802
-0.005094984
-0.005365352
-0.005664789
-0.006003147
-0.006395728
-0.006859262
-0.007422789
-0.008123331
-0.008792572
-0.003895056
-0.004079296
-0.004277259
-0.004491557
-0.004725657
-0.004986269
-0.005283368
-0.005625744
-0.006028866
-0.00651613
-0.006975055
-0.007322404
-0.003224206
-0.003370996
-0.003527179
-0.00369437
-0.003874684
-0.004072913
-0.004296013
-0.00454813
-0.004837939
-0.005177746
-0.005426648
-0.005504996
-0.005450737
-0.00273235
-0.002852628
-0.00297963
-0.003114401
-0.003258286
-0.003414918
-0.003589502
-0.003784015
-0.00400362
-0.004255626
-0.004404356
-0.004386697
-0.004312283
-0.004089737
-0.002403362
-0.002506058
-0.002613865
-0.002727501
-0.002847873
-0.002977873
-0.003121709
-0.003280225
-0.003456808
-0.003656083
-0.003756529
-0.003713418
-0.003640945
-0.003518345
-0.00327543
-0.002188375
-0.002279439
-0.002374592
-0.002474359
-0.002579383
-0.002692082
-0.002816027
-0.002951465
-0.003100734
-0.00326701
-0.003340259
-0.003287399
-0.00321499
-0.003118343
-0.002978457
-0.002888471
-0.002050711
-0.002134042
-0.002220792
-0.002311355
-0.002406216
-0.002507482
-0.002618295
-0.00273854
-0.002869941
-0.003014768
-0.003070844
-0.003010747
-0.002933754
-0.002838732
-0.002720748
-0.002692571
-0.002712151
-0.005441542
-0.005504128
-0.005976434
-0.005723373
-0.006243359
-0.006809495
-0.006115582
-0.006619674
-0.007235276
-0.007927415
-0.006449853
-0.006925261
-0.007499165
-0.008208911
-0.009024119
-0.006619919
-0.007062373
-0.007581943
-0.008212092
-0.008997713
-0.009914393
-0.006607358
-0.007014073
-0.00748068
-0.008029557
-0.008697131
-0.009535902
-0.01052576
-0.00642461
-0.006793844
-0.007209523
-0.007686726
-0.008248567
-0.008935138
-0.009803511
-0.01082834
-0.006091795
-0.00642209
-0.006788596
-0.007201276
-0.007675124
-0.008235206
-0.008923273
-0.009790759
-0.010814
-0.005629663
-0.005919996
-0.006238388
-0.006591632
-0.006989306
-0.007447746
-0.007992698
-0.008659132
-0.009497511
-0.01048264
-0.005059724
-0.005309426
-0.005580648
-0.005877922
-0.006207552
-0.006580255
-0.007012788
-0.007524374
-0.0081486
-0.008930346
-0.009712644
-0.00440898
-0.004618139
-0.004843385
-0.005087759
-0.005355297
-0.005653389
-0.005993152
-0.00638529
-0.006848292
-0.00741114
-0.007991128
-0.008541735
-0.003722537
-0.00389279
-0.004074606
-0.004269955
-0.004481409
-0.00471418
-0.004976054
-0.005272551
-0.005614233
-0.006016535
-0.006376027
-0.006686649
-0.007015904
-0.003085545
-0.003221836
-0.003366091
-0.003519542
-0.003683768
-0.003862711
-0.004062003
-0.004284195
-0.004535288
-0.004823921
-0.005016057
-0.00504772
-0.005016381
-0.004783161
-0.002617964
-0.002730088
-0.002847952
-0.00297236
-0.003104325
-0.00324693
-0.003404589
-0.003578343
-0.003771933
-0.003990497
-0.004105352
-0.004059802
-0.003968352
-0.003798389
-0.003459841
-0.002305192
-0.002401257
-0.002501712
-0.002607117
-0.002718164
-0.002837369
-0.002968396
-0.003111555
-0.003269326
-0.003445081
-0.00352318
-0.00346255
-0.00337323
-0.003248232
-0.003066265
-0.002942413
-0.002100971
-0.002186404
-0.002275374
-0.002368288
-0.002465646
-0.002569595
-0.002683312
-0.002806697
-0.002941522
-0.003090117
-0.003147682
-0.003083294
-0.002998308
-0.002891189
-0.002756783
-0.002716426
-0.0027301
-0.001970467
-0.002048842
-0.00213019
-0.002214823
-0.002303115
-0.00239697
-0.002499231
-0.002609553
-0.002729265
-0.002860084
-0.002904553
-0.002836936
-0.002751343
-0.002647354
-0.00252365
-0.002495766
-0.002555529
-0.002546234
-0.005132042
-0.005029393
-0.005436612
-0.005054512
-0.005499498
-0.005966321
-0.005289996
-0.005719121
-0.006234154
-0.006794239
-0.005694989
-0.006111986
-0.006612
-0.007222764
-0.007908728
-0.006043859
-0.006446698
-0.006918595
-0.007488465
-0.008193321
-0.009004978
-0.006233786
-0.006617042
-0.007056332
-0.007572344
-0.008198349
-0.008981398
-0.009898929
-0.006245886
-0.00660468
-0.007008474
-0.007471842
-0.008017037
-0.008682551
-0.009522669
-0.01051088
-0.006091795
-0.00642209
-0.006788596
-0.007201276
-0.007675124
-0.008235206
-0.008923273
-0.009790759
-0.010814
-0.005790652
-0.006089411
-0.006417135
-0.006780837
-0.007190412
-0.007662701
-0.008224306
-0.008911809
-0.009778453
-0.01080018
-0.00536251
-0.005627393
-0.005915288
-0.006231036
-0.006581375
-0.006977634
-0.007437573
-0.007982117
-0.008648011
-0.009485586
-0.01034246
-0.004828126
-0.005057544
-0.005304912
-0.005573613
-0.005868132
-0.006196452
-0.006570603
-0.007002794
-0.00751396
-0.008137636
-0.008806836
-0.009488725
-0.004213576
-0.004406848
-0.004613728
-0.00483652
-0.005078224
-0.005344516
-0.005643973
-0.005983367
-0.006375078
-0.006837566
-0.007291637
-0.007771208
-0.008335706
-0.003562305
-0.003720374
-0.003888317
-0.00406765
-0.004260307
-0.00447052
-0.004704517
-0.004965859
-0.005261754
-0.005602745
-0.005887349
-0.006114389
-0.006413677
-0.006749625
-0.002956239
-0.003083279
-0.003217149
-0.003358804
-0.00350944
-0.003672379
-0.003852357
-0.00405082
-0.004272087
-0.004522134
-0.004673188
-0.004666434
-0.004603766
-0.00441682
-0.003912486
-0.002510925
-0.002615798
-0.002725614
-0.002841003
-0.00296274
-0.003093499
-0.003237103
-0.003393996
-0.003566906
-0.003759554
-0.003849395
-0.003784003
-0.003673527
-0.003500647
-0.003230363
-0.00302275
-0.002213058
-0.002303175
-0.002397094
-0.002495253
-0.002598188
-0.002708131
-0.002828332
-0.002958732
-0.003101206
-0.00325822
-0.003319651
-0.003247056
-0.003145106
-0.003010249
-0.002835863
-0.0027645
-0.002764097
-0.002018732
-0.00209908
-0.002182506
-0.002269333
-0.002359946
-0.002456284
-0.002561219
-0.002674414
-0.002797232
-0.002931438
-0.002977082
-0.002905135
-0.002811693
-0.00269601
-0.00255668
-0.00251727
-0.002571541
-0.002557264
-0.001894798
-0.001968673
-0.002045145
-0.002124465
-0.002206925
-0.002294261
-0.002389078
-0.002490881
-0.002600708
-0.002719882
-0.002755389
-0.002682989
-0.002592085
-0.002482246
-0.002353127
-0.002315384
-0.00237026
-0.002402761
-0.002370721
-0.004992295
-0.004758168
-0.005127282
-0.00462839
-0.005024933
-0.005426944
-0.004677016
-0.005050296
-0.005490405
-0.005951391
-0.004928565
-0.005286078
-0.005710761
-0.006220553
-0.006774151
-0.005337471
-0.005691647
-0.006104922
-0.006600669
-0.007206302
-0.007888742
-0.005691721
-0.006040909
-0.006440504
-0.006908754
-0.007474387
-0.008176649
-0.00898918
-0.005892916
-0.006231082
-0.006611391
-0.007047412
-0.007559711
-0.008183647
-0.008968036
-0.009883932
-0.005922388
-0.006243358
-0.006599415
-0.007000203
-0.007460205
-0.008003638
-0.008670646
-0.009509872
-0.0104965
-0.005790652
-0.006089411
-0.006417135
-0.006780837
-0.007190412
-0.007662701
-0.008224306
-0.008911809
-0.009778453
-0.01080018
-0.005515824
-0.005788389
-0.006084718
-0.006409806
-0.006770611
-0.007178777
-0.007652567
-0.008213774
-0.008900747
-0.009766595
-0.01066058
-0.005116992
-0.005360351
-0.005622923
-0.005908322
-0.006221342
-0.006570383
-0.006968104
-0.007427734
-0.007971896
-0.008637281
-0.009364952
-0.0101269
-0.004614063
-0.004826049
-0.005053249
-0.005298228
-0.005564331
-0.005857638
-0.006187361
-0.006561237
-0.006993106
-0.007503876
-0.008026302
-0.008612594
-0.009315618
-0.004032104
-0.00421154
-0.004402642
-0.004607191
-0.004827457
-0.005067999
-0.005335611
-0.005634754
-0.005973795
-0.006365094
-0.006727526
-0.007092746
-0.007590048
-0.008185252
-0.003412898
-0.003560236
-0.003716102
-0.003881681
-0.004058459
-0.004249953
-0.004461354
-0.004694873
-0.004955683
-0.00525098
-0.005482395
-0.005646123
-0.005866716
-0.006175964
-0.006569198
-0.002835255
-0.002954069
-0.003078796
-0.003210186
-0.003349162
-0.003498586
-0.00366253
-0.003841744
-0.004039362
-0.004259684
-0.004380694
-0.004347379
-0.004257022
-0.004059302
-0.003634731
-0.003117613
-0.002410481
-0.002508849
-0.002611512
-0.002718964
-0.002831806
-0.002952403
-0.00308413
-0.003227024
-0.003383139
-0.003555188
-0.003626454
-0.003547761
-0.003423884
-0.003241868
-0.002983881
-0.002836175
-0.002808357
-0.002126375
-0.002211122
-0.002299182
-0.002390905
-0.002486705
-0.002588593
-0.002699501
-0.002819118
-0.002948882
-0.00309066
-0.003139443
-0.003059126
-0.002948978
-0.002806493
-0.002629205
-0.002560629
-0.002601883
-0.002577141
-0.001941183
-0.002016916
-0.002095339
-0.002176711
-0.002261337
-0.002350981
-0.002448272
-0.00255272
-0.002665388
-0.002787634
-0.002824079
-0.002747374
-0.002648829
-0.002527744
-0.002383777
-0.002335114
-0.002384701
-0.002412609
-0.002377028
-0.0018233
-0.001893073
-0.001965121
-0.002039649
-0.002116887
-0.002198436
-0.002286702
-0.002381091
-0.002482431
-0.002591759
-0.002620216
-0.002544958
-0.002451096
-0.002338126
-0.002205836
-0.002158667
-0.002199295
-0.00223017
-0.002240436
-0.002190205
-0.004635972
-0.004987618
-0.004385347
-0.004753841
-0.005117948
-0.004286888
-0.004624317
-0.005016176
-0.005412672
-0.004359792
-0.004673125
-0.005042007
-0.005476965
-0.005931729
-0.00462032
-0.004924919
-0.005278368
-0.005698396
-0.006202629
-0.006752635
-0.005027023
-0.005334343
-0.005685077
-0.006094486
-0.00658575
-0.007188684
-0.007871928
-0.005380744
-0.005688947
-0.006035112
-0.006431353
-0.0068958
-0.007459324
-0.008162879
-0.008973726
-0.005587816
-0.005890364
-0.006225768
-0.006603041
-0.007035666
-0.007546191
-0.008171606
-0.008955074
-0.009869404
-0.005629663
-0.005919996
-0.006238388
-0.006591632
-0.006989306
-0.007447746
-0.007992698
-0.008659132
-0.009497511
-0.01048264
-0.005515824
-0.005788389
-0.006084718
-0.006409806
-0.006770611
-0.007178777
-0.007652567
-0.008213774
-0.008900747
-0.009766595
-0.01066058
-0.005263258
-0.005513672
-0.005783934
-0.006077774
-0.006400142
-0.006759654
-0.007169284
-0.007642776
-0.008203612
-0.008890086
-0.009646776
-0.01044721
-0.004890073
-0.005114935
-0.005356098
-0.005616305
-0.005899132
-0.006210952
-0.006561409
-0.006958887
-0.007418229
-0.007962035
-0.008528734
-0.009179156
-0.009963701
-0.004415275
-0.004612081
-0.004821954
-0.005046885
-0.005289407
-0.005554379
-0.005849043
-0.006178541
-0.006552159
-0.006983725
-0.007401478
-0.007851144
-0.008462139
-0.009196969
-0.003862906
-0.004030158
-0.004207524
-0.004396407
-0.004598559
-0.004817735
-0.005059553
-0.005326894
-0.005625736
-0.005964435
-0.00626266
-0.006544364
-0.006928841
-0.007457437
-0.008103788
-0.003273126
-0.003410919
-0.003556151
-0.003709762
-0.003872911
-0.004048593
-0.004241235
-0.004452204
-0.004685247
-0.004945528
-0.005138102
-0.005257689
-0.005417802
-0.005651017
-0.006014601
-0.002721741
-0.002833176
-0.002949776
-0.003072133
-0.00320097
-0.0033388
-0.003489199
-0.003652435
-0.003830871
-0.004027626
-0.004126332
-0.004075046
-0.003965985
-0.003755156
-0.003349462
-0.002920928
-0.002847577
-0.002315989
-0.002408489
-0.00250474
-0.002605141
-0.002710161
-0.002821922
-0.002943458
-0.003074523
-0.003216693
-0.003372015
-0.003429198
-0.003341998
-0.003209825
-0.003021576
-0.002765081
-0.002625327
-0.002641408
-0.002600672
-0.002044642
-0.002124516
-0.00220729
-0.002293246
-0.002382712
-0.002477518
-0.00258034
-0.002690701
-0.002809726
-0.002938847
-0.002977877
-0.002892787
-0.002777946
-0.00263109
-0.0024511
-0.002374908
-0.002412076
-0.00243036
-0.002387997
-0.001867912
-0.001939437
-0.002013321
-0.002089775
-0.002169039
-0.002252743
-0.002343308
-0.002440143
-0.002544099
-0.002656235
-0.002685444
-0.002605945
-0.002504676
-0.002380913
-0.002234506
-0.002176987
-0.002212548
-0.002239052
-0.002246063
-0.00219344
-0.001755628
-0.001821641
-0.001889658
-0.00195984
-0.002032371
-0.002108741
-0.00219119
-0.002279053
-0.002373009
-0.002473883
-0.002496708
-0.002419921
-0.002324747
-0.002210608
-0.002077294
-0.002023169
-0.002050385
-0.002069733
-0.002081076
-0.002072776
-0.002007627
-0.004275982
-0.00463171
-0.00497845
-0.004064601
-0.004381387
-0.004745344
-0.005104172
-0.003998049
-0.004283122
-0.00461631
-0.005003235
-0.00539388
-0.00408831
-0.004356166
-0.004665466
-0.005029746
-0.005459252
-0.005910669
-0.004352247
-0.004616905
-0.004917739
-0.005266956
-0.005682089
-0.00618342
-0.006734028
-0.004752712
-0.005024081
-0.00532819
-0.005675363
-0.006080734
-0.006569776
-0.007173852
-0.007855159
-0.005102343
-0.005378126
-0.005683493
-0.006026542
-0.0064193
-0.006881931
-0.007446882
-0.008149402
-0.00895862
-0.005311718
-0.005585401
-0.005885346
-0.00621791
-0.006592039
-0.007023089
-0.007535118
-0.008159923
-0.00894251
-0.009855344
-0.00536251
-0.005627393
-0.005915288
-0.006231036
-0.006581375
-0.006977634
-0.007437573
-0.007982117
-0.008648011
-0.009485586
-0.01034246
-0.005263258
-0.005513672
-0.005783934
-0.006077774
-0.006400142
-0.006759654
-0.007169284
-0.007642776
-0.008203612
-0.008890086
-0.009646776
-0.01044721
-0.00502983
-0.005261208
-0.005509432
-0.005777337
-0.006068613
-0.006389785
-0.006750715
-0.007160112
-0.007633327
-0.008193817
-0.008782365
-0.009463403
-0.01028666
-0.004679352
-0.00488811
-0.00511088
-0.005349798
-0.005607572
-0.005889279
-0.006202467
-0.006552728
-0.006949982
-0.007409059
-0.007862276
-0.008361517
-0.009038322
-0.009854006
-0.004229941
-0.00441338
-0.004608171
-0.004815885
-0.005038485
-0.005279947
-0.005546228
-0.005840703
-0.006169991
-0.00654337
-0.006888464
-0.007240358
-0.007715429
-0.00835886
-0.009136411
-0.003704631
-0.003861044
-0.004026318
-0.004201569
-0.004388172
-0.004589298
-0.004809705
-0.005051285
-0.005318365
-0.005616918
-0.00586841
-0.006092148
-0.006393408
-0.00680882
-0.007385508
-0.003141996
-0.003271229
-0.003407007
-0.003550086
-0.003701381
-0.003863494
-0.004040286
-0.004232534
-0.004443071
-0.004675641
-0.004839142
-0.004927361
-0.005045028
-0.005218986
-0.005504596
-0.002614966
-0.002719747
-0.002829061
-0.002943394
-0.003063313
-0.003191064
-0.003329839
-0.003479578
-0.003642093
-0.003819734
-0.003901445
-0.003838211
-0.003717337
-0.003498613
-0.003101126
-0.002701914
-0.002676457
-0.002618474
-0.002226902
-0.002314077
-0.002404546
-0.00249863
-0.002596706
-0.002700699
-0.002813369
-0.002934284
-0.003064675
-0.003206111
-0.003252423
-0.003159986
-0.003023369
-0.002832379
-0.002577306
-0.002434319
-0.002447755
-0.002451383
-0.002400209
-0.001967425
-0.002042855
-0.002120835
-0.002201592
-0.002285387
-0.002373906
-0.002469615
-0.002571925
-0.002681732
-0.002800157
-0.002831518
-0.002743709
-0.002626618
-0.002478125
-0.002297495
-0.002213944
-0.002237676
-0.002255065
-0.00225585
-0.002198933
-0.001798565
-0.001866234
-0.001935982
-0.002007975
-0.002082408
-0.002160793
-0.002245387
-0.002335524
-0.002431898
-0.002535356
-0.002558787
-0.002477843
-0.002375505
-0.002251015
-0.002104262
-0.002040312
-0.002062693
-0.002077884
-0.002086146
-0.002075644
-0.002008772
-0.001691479
-0.001754031
-0.001818356
-0.001884579
-0.001952846
-0.002024548
-0.002101788
-0.002183857
-0.002271314
-0.002364832
-0.002383093
-0.002305711
-0.002210341
-0.002096396
-0.001963634
-0.001904933
-0.001921544
-0.001929595
-0.001931817
-0.001926812
-0.001902533
-0.001824954
-0.003964652
-0.004272078
-0.004623344
-0.004964919
-0.00379208
-0.004060936
-0.004373603
-0.004732793
-0.005086035
-0.003750122
-0.003994537
-0.004275713
-0.00460447
-0.004986184
-0.005373755
-0.003851817
-0.004084911
-0.004349025
-0.00465413
-0.005013576
-0.005440271
-0.005892427
-0.0041152
-0.004349032
-0.004610174
-0.004907105
-0.005251899
-0.005664607
-0.0061668
-0.006714956
-0.004507059
-0.004749934
-0.00501829
-0.005319086
-0.005662556
-0.006066003
-0.006556327
-0.007159048
-0.007838436
-0.004850372
-0.005099864
-0.005372975
-0.005675426
-0.006015248
-0.006406391
-0.006870476
-0.007434703
-0.008136219
-0.008943861
-0.005059724
-0.005309426
-0.005580648
-0.005877922
-0.006207552
-0.006580255
-0.007012788
-0.007524374
-0.0081486
-0.008930346
-0.009712644
-0.005116992
-0.005360351
-0.005622923
-0.005908322
-0.006221342
-0.006570383
-0.006968104
-0.007427734
-0.007971896
-0.008637281
-0.009364952
-0.0101269
-0.00502983
-0.005261208
-0.005509432
-0.005777337
-0.006068613
-0.006389785
-0.006750715
-0.007160112
-0.007633327
-0.008193817
-0.008782365
-0.009463403
-0.01028666
-0.004813067
-0.005027873
-0.005257166
-0.005503152
-0.005768631
-0.006058792
-0.006381335
-0.006742079
-0.007151261
-0.007624221
-0.008094852
-0.008617479
-0.009325288
-0.01017932
-0.0044829
-0.004677476
-0.004884238
-0.005104872
-0.005341481
-0.005598206
-0.005881233
-0.006194261
-0.006544343
-0.006941392
-0.00731629
-0.007708581
-0.008234741
-0.008943567
-0.009798844
-0.004056581
-0.004228128
-0.004409642
-0.004602374
-0.004807871
-0.005029473
-0.005272198
-0.005538319
-0.005832619
-0.006161712
-0.006454105
-0.006738565
-0.007115507
-0.007622244
-0.008306092
-0.003556154
-0.003702847
-0.003857368
-0.004020621
-0.004193699
-0.004379333
-0.004581647
-0.004801844
-0.005043195
-0.005310026
-0.005526449
-0.005708561
-0.005951612
-0.006282864
-0.006743704
-0.00301866
-0.003140177
-0.00326748
-0.003401199
-0.003542066
-0.00369238
-0.003855566
-0.004031995
-0.00422385
-0.004433958
-0.004575005
-0.004640527
-0.004727928
-0.00485987
-0.005084046
-0.002514306
-0.002613051
-0.002715798
-0.002822941
-0.002934943
-0.003053831
-0.003182497
-0.003320655
-0.003469722
-0.0036315
-0.003699997
-0.003628853
-0.003501069
-0.003279083
-0.002889707
-0.002504693
-0.002479415
-0.002467293
-0.002408684
-0.002142745
-0.002225064
-0.00231029
-0.002398681
-0.002490539
-0.002587637
-0.00269251
-0.002804598
-0.002924882
-0.003054588
-0.003092333
-0.002996918
-0.002858476
-0.002667541
-0.002415628
-0.002269139
-0.002270437
-0.002274038
-0.00226675
-0.002204817
-0.001894346
-0.001965706
-0.002039317
-0.00211536
-0.002194046
-0.002276938
-0.002366331
-0.002461558
-0.002563348
-0.002672595
-0.002697828
-0.002608703
-0.002491047
-0.002342838
-0.002163524
-0.002074903
-0.002086032
-0.002092582
-0.002094968
-0.002080515
-0.002010663
-0.001732831
-0.001796949
-0.001862909
-0.001930841
-0.002000896
-0.002074489
-0.002153735
-0.002237926
-0.002327629
-0.002423537
-0.002442284
-0.002360842
-0.002258553
-0.00213468
-0.001989107
-0.001921065
-0.001933063
-0.001937165
-0.001936468
-0.001929386
-0.001903508
-0.001824412
-0.001630599
-0.001689942
-0.001750869