/*--------------------------------*- C++ -*----------------------------------*\
| =========                 |                                                 |
| \\      /  F ield         | OpenFOAM: The Open Source CFD Toolbox           |
|  \\    /   O peration     | Version:  2306                                  |
|   \\  /    A nd           | Website:  www.openfoam.com                      |
|    \\/     M anipulation  |                                                 |
\*---------------------------------------------------------------------------*/
FoamFile
{
    version     2.0;
    format      ascii;
    arch        "LSB;label=32;scalar=64";
    class       volScalarField;
    location    "0.9/phiEA";
    object      T;
}
// * * * * * * * * * * * * * * * * * * * * * * * * * * * * * * * * * * * * * //

dimensions      [0 0 0 1 0 0 0];

internalField   nonuniform List<scalar> 
20000
(
1252.321
1252.146
1254.434
1252.337
1251.742
1254.423
1252.162
1256.329
1254.444
1252.358
1250.996
1254.396
1251.76
1256.362
1254.433
1252.184
1258.064
1256.333
1254.458
1252.385
1249.75
1254.34
1251.017
1256.434
1254.405
1251.783
1258.108
1256.366
1254.447
1252.211
1259.716
1258.064
1256.342
1254.478
1252.416
1247.934
1254.233
1249.779
1256.56
1254.347
1251.045
1258.206
1256.437
1254.418
1251.812
1259.761
1258.107
1256.374
1254.466
1252.244
1261.312
1259.712
1258.068
1256.356
1254.502
1252.454
1245.881
1254.042
1247.978
1256.75
1254.237
1249.815
1258.377
1256.56
1254.359
1251.078
1259.862
1258.204
1256.445
1254.437
1251.847
1261.356
1259.757
1258.111
1256.387
1254.49
1252.282
1262.86
1261.306
1259.713
1258.077
1256.374
1254.532
1252.492
1244.005
1253.749
1245.944
1256.989
1254.04
1248.027
1258.646
1256.746
1254.246
1249.856
1260.04
1258.373
1256.565
1254.376
1251.117
1261.453
1259.857
1258.207
1256.457
1254.46
1251.888
1262.901
1261.349
1259.757
1258.12
1256.405
1254.519
1252.322
1264.359
1262.851
1261.303
1259.718
1258.091
1256.397
1254.562
1252.531
1242.609
1253.415
1244.087
1257.187
1253.746
1246.013
1259
1256.976
1254.044
1248.082
1260.321
1258.637
1256.746
1254.26
1249.904
1261.626
1260.033
1258.374
1256.575
1254.398
1251.163
1262.994
1261.446
1259.856
1258.214
1256.473
1254.489
1251.93
1264.398
1262.892
1261.346
1259.762
1258.133
1256.428
1254.549
1252.361
1265.809
1264.349
1262.846
1261.305
1259.727
1258.109
1256.421
1254.592
1252.57
1241.872
1253.129
1242.706
1257.313
1253.414
1244.174
1259.336
1257.169
1253.749
1246.086
1260.696
1258.983
1256.969
1254.054
1248.142
1261.899
1260.309
1258.632
1256.751
1254.279
1249.958
1263.158
1261.616
1260.03
1258.379
1256.589
1254.426
1251.21
1264.486
1262.984
1261.442
1259.86
1258.226
1256.495
1254.518
1251.972
1265.846
1264.387
1262.887
1261.347
1259.771
1258.15
1256.451
1254.579
1252.401
1267.209
1265.797
1264.342
1262.845
1261.311
1259.741
1258.127
1256.445
1254.622
1252.609
1241.872
1252.966
1241.976
1257.377
1253.131
1242.807
1259.596
1257.292
1253.419
1244.266
1261.061
1259.313
1257.156
1253.756
1246.164
1262.265
1260.677
1258.971
1256.966
1254.068
1248.209
1263.417
1261.885
1260.302
1258.632
1256.76
1254.303
1250.014
1264.641
1263.146
1261.611
1260.031
1258.388
1256.608
1254.454
1251.257
1265.93
1264.474
1262.978
1261.442
1259.867
1258.242
1256.517
1254.548
1252.015
1267.244
1265.834
1264.38
1262.886
1261.353
1259.784
1258.168
1256.474
1254.609
1252.441
1268.556
1267.196
1265.789
1264.339
1262.848
1261.321
1259.755
1258.146
1256.468
1254.652
1252.797
1242.609
1252.966
1241.976
1257.401
1252.969
1242.084
1259.765
1257.355
1253.138
1242.912
1261.353
1259.569
1257.276
1253.428
1244.362
1262.625
1261.037
1259.295
1257.148
1253.769
1246.248
1263.766
1262.245
1260.663
1258.964
1256.969
1254.088
1248.276
1264.887
1263.402
1261.876
1260.299
1258.637
1256.775
1254.329
1250.07
1266.077
1264.628
1263.138
1261.609
1260.037
1258.402
1256.628
1254.482
1251.306
1267.323
1265.917
1264.466
1262.976
1261.447
1259.88
1258.259
1256.539
1254.577
1252.058
1268.59
1267.231
1265.826
1264.377
1262.888
1261.363
1259.797
1258.186
1256.498
1254.639
1252.636
1269.851
1268.542
1267.186
1265.784
1264.34
1262.855
1261.331
1259.769
1258.164
1256.492
1254.801
1253.158
1244.005
1253.129
1242.706
1257.401
1252.969
1242.084
1259.847
1257.379
1252.978
1242.197
1261.55
1259.737
1257.338
1253.15
1243.022
1262.917
1261.325
1259.547
1257.265
1253.442
1244.463
1264.111
1262.6
1261.017
1259.282
1257.145
1253.788
1246.332
1265.218
1263.746
1262.229
1260.653
1258.961
1256.976
1254.108
1248.344
1266.31
1264.871
1263.391
1261.87
1260.3
1258.646
1256.79
1254.354
1250.127
1267.463
1266.062
1264.619
1263.134
1261.611
1260.047
1258.416
1256.647
1254.51
1251.355
1268.665
1267.309
1265.907
1264.462
1262.977
1261.455
1259.892
1258.275
1256.561
1254.607
1252.268
1269.884
1268.576
1267.221
1265.821
1264.377
1262.895
1261.372
1259.811
1258.204
1256.521
1254.786
1253.015
1271.094
1269.837
1268.532
1267.18
1265.783
1264.344
1262.863
1261.342
1259.783
1258.182
1256.609
1255.069
1253.538
1245.881
1253.415
1244.087
1257.377
1253.131
1242.807
1259.847
1257.379
1252.978
1242.197
1261.648
1259.818
1257.362
1252.992
1242.314
1263.114
1261.52
1259.713
1257.326
1253.167
1243.136
1264.392
1262.888
1261.302
1259.53
1257.259
1253.462
1244.564
1265.546
1264.086
1262.58
1261.001
1259.273
1257.147
1253.806
1246.415
1266.624
1265.197
1263.729
1262.218
1260.648
1258.963
1256.983
1254.129
1248.412
1267.685
1266.293
1264.858
1263.384
1261.869
1260.305
1258.655
1256.804
1254.38
1250.185
1268.799
1267.448
1266.052
1264.613
1263.134
1261.618
1260.056
1258.43
1256.667
1254.539
1251.593
1269.956
1268.65
1267.298
1265.901
1264.462
1262.983
1261.464
1259.904
1258.292
1256.583
1254.751
1252.689
1271.125
1269.869
1268.565
1267.214
1265.819
1264.382
1262.902
1261.382
1259.824
1258.222
1256.635
1255.054
1253.42
1272.284
1271.079
1269.826
1268.525
1267.178
1265.786
1264.349
1262.87
1261.352
1259.797
1258.274
1256.816
1255.339
1253.934
1247.934
1253.749
1245.944
1257.313
1253.414
1244.174
1259.765
1257.355
1253.138
1242.912
1261.648
1259.818
1257.362
1252.992
1242.314
1263.214
1261.617
1259.794
1257.35
1253.01
1242.436
1264.583
1263.084
1261.494
1259.694
1257.32
1253.189
1243.251
1265.813
1264.364
1262.864
1261.283
1259.518
1257.258
1253.482
1244.664
1266.936
1265.521
1264.066
1262.563
1260.991
1259.269
1257.148
1253.825
1246.499
1267.984
1266.603
1265.18
1263.717
1262.211
1260.646
1258.965
1256.991
1254.15
1248.48
1269.011
1267.667
1266.279
1264.85
1263.38
1261.871
1260.311
1258.664
1256.819
1254.405
1250.466
1270.084
1268.783
1267.436
1266.044
1264.611
1263.138
1261.625
1260.066
1258.443
1256.686
1254.678
1252.087
1271.194
1269.94
1268.639
1267.291
1265.899
1264.465
1262.989
1261.473
1259.916
1258.308
1256.691
1255.018
1253.15
1272.314
1271.11
1269.857
1268.558
1267.212
1265.821
1264.386
1262.909
1261.392
1259.838
1258.31
1256.837
1255.325
1253.845
1273.423
1272.269
1271.067
1269.818
1268.521
1267.179
1265.789
1264.354
1262.877
1261.362
1259.867
1258.433
1257.019
1255.612
1254.34
1249.75
1254.042
1247.978
1257.187
1253.746
1246.013
1259.596
1257.292
1253.419
1244.266
1261.55
1259.737
1257.338
1253.15
1243.022
1263.214
1261.617
1259.794
1257.35
1253.01
1242.436
1264.679
1263.183
1261.59
1259.774
1257.343
1253.034
1242.557
1265.996
1264.553
1263.059
1261.473
1259.68
1257.318
1253.211
1243.364
1267.191
1265.786
1264.34
1262.845
1261.268
1259.51
1257.257
1253.502
1244.763
1268.282
1266.912
1265.501
1264.049
1262.551
1260.984
1259.265
1257.151
1253.844
1246.582
1269.297
1267.963
1266.586
1265.167
1263.709
1262.208
1260.645
1258.967
1256.998
1254.171
1248.804
1270.287
1268.993
1267.653
1266.269
1264.845
1263.381
1261.874
1260.316
1258.673
1256.834
1254.532
1251.048
1271.317
1270.067
1268.77
1267.428
1266.041
1264.613
1263.142
1261.631
1260.076
1258.457
1256.782
1254.94
1252.646
1272.381
1271.178
1269.928
1268.631
1267.288
1265.901
1264.469
1262.995
1261.481
1259.928
1258.39
1256.88
1255.291
1253.644
1273.451
1272.298
1271.098
1269.849
1268.553
1267.212
1265.824
1264.39
1262.915
1261.402
1259.905
1258.463
1257.034
1255.6
1254.285
1274.51
1273.407
1272.257
1271.059
1269.813
1268.521
1267.179
1265.791
1264.359
1262.884
1261.414
1259.988
1258.588
1257.22
1255.886
1254.574
1250.996
1254.233
1249.779
1256.989
1254.04
1248.027
1259.336
1257.169
1253.749
1246.086
1261.353
1259.569
1257.276
1253.428
1244.362
1263.114
1261.52
1259.713
1257.326
1253.167
1243.136
1264.679
1263.183
1261.59
1259.774
1257.343
1253.034
1242.557
1266.088
1264.649
1263.156
1261.568
1259.759
1257.341
1253.058
1242.677
1267.365
1265.967
1264.528
1263.037
1261.457
1259.67
1257.316
1253.233
1243.476
1268.525
1267.164
1265.763
1264.321
1262.83
1261.258
1259.502
1257.257
1253.522
1244.862
1269.582
1268.258
1266.891
1265.484
1264.037
1262.544
1260.977
1259.261
1257.153
1253.863
1246.972
1270.561
1269.276
1267.945
1266.572
1265.158
1263.704
1262.205
1260.644
1258.969
1257.006
1254.273
1249.404
1271.512
1270.268
1268.978
1267.642
1266.263
1264.843
1263.381
1261.876
1260.321
1258.682
1256.906
1254.778
1251.722
1272.499
1271.3
1270.054
1268.761
1267.423
1266.041
1264.614
1263.146
1261.637
1260.085
1258.525
1256.948
1255.217
1253.267
1273.516
1272.365
1271.166
1269.919
1268.626
1267.288
1265.902
1264.472
1263.001
1261.49
1259.989
1258.528
1257.065
1255.571
1254.163
1274.537
1273.436
1272.286
1271.089
1269.844
1268.553
1267.213
1265.826
1264.395
1262.922
1261.451
1260.019
1258.611
1257.229
1255.877
1254.538
1275.546
1274.494
1273.395
1272.248
1271.053
1269.811
1268.52
1267.18
1265.794
1264.363
1262.921
1261.502
1260.103
1258.739
1257.42
1256.041
1254.65
1251.742
1254.34
1251.017
1256.75
1254.237
1249.815
1259
1256.976
1254.044
1248.082
1261.061
1259.313
1257.156
1253.756
1246.164
1262.917
1261.325
1259.547
1257.265
1253.442
1244.463
1264.583
1263.084
1261.494
1259.694
1257.32
1253.189
1243.251
1266.088
1264.649
1263.156
1261.568
1259.759
1257.341
1253.058
1242.677
1267.453
1266.059
1264.623
1263.134
1261.551
1259.748
1257.339
1253.081
1242.796
1268.692
1267.337
1265.943
1264.507
1263.02
1261.445
1259.66
1257.314
1253.255
1243.587
1269.815
1268.499
1267.141
1265.744
1264.305
1262.819
1261.248
1259.495
1257.256
1253.541
1245.323
1270.835
1269.558
1268.237
1266.874
1265.471
1264.028
1262.536
1260.971
1259.257
1257.155
1253.955
1247.629
1271.777
1270.54
1269.258
1267.932
1266.562
1265.152
1263.7
1262.202
1260.643
1258.971
1257.044
1254.47
1250.017
1272.688
1271.494
1270.253
1268.967
1267.635
1266.261
1264.842
1263.381
1261.879
1260.326
1258.726
1257.034
1255.05
1252.515
1273.63
1272.482
1271.287
1270.044
1268.755
1267.421
1266.041
1264.616
1263.15
1261.643
1260.133
1258.637
1257.112
1255.509
1253.945
1274.6
1273.5
1272.352
1271.156
1269.914
1268.625
1267.288
1265.904
1264.476
1263.006
1261.533
1260.088
1258.66
1257.248
1255.856
1254.464
1275.573
1274.522
1273.423
1272.277
1271.083
1269.842
1268.552
1267.213
1265.828
1264.399
1262.956
1261.533
1260.127
1258.754
1257.423
1256.034
1254.62
1276.532
1275.53
1274.481
1273.385
1272.242
1271.051
1269.81
1268.52
1267.181
1265.796
1264.387
1262.982
1261.585
1260.215
1258.887
1257.531
1256.083
1254.742
1252.146
1254.396
1251.76
1256.56
1254.347
1251.045
1258.646
1256.746
1254.246
1249.856
1260.696
1258.983
1256.969
1254.054
1248.142
1262.625
1261.037
1259.295
1257.148
1253.769
1246.248
1264.392
1262.888
1261.302
1259.53
1257.259
1253.462
1244.564
1265.996
1264.553
1263.059
1261.473
1259.68
1257.318
1253.211
1243.364
1267.453
1266.059
1264.623
1263.134
1261.551
1259.748
1257.339
1253.081
1242.796
1268.776
1267.424
1266.033
1264.601
1263.116
1261.538
1259.738
1257.337
1253.105
1242.913
1269.974
1268.664
1267.313
1265.922
1264.49
1263.007
1261.432
1259.651
1257.312
1253.277
1244.104
1271.059
1269.789
1268.477
1267.122
1265.728
1264.294
1262.807
1261.237
1259.487
1257.255
1253.638
1246.065
1272.04
1270.812
1269.538
1268.221
1266.861
1265.462
1264.019
1262.528
1260.964
1259.253
1257.167
1254.126
1248.242
1272.943
1271.756
1270.523
1269.244
1267.921
1266.556
1265.147
1263.695
1262.199
1260.642
1258.981
1257.115
1254.677
1250.634
1273.812
1272.669
1271.479
1270.242
1268.959
1267.631
1266.258
1264.84
1263.381
1261.881
1260.351
1258.796
1257.163
1255.356
1253.484
1274.711
1273.614
1272.469
1271.277
1270.038
1268.753
1267.42
1266.04
1264.617
1263.153
1261.675
1260.206
1258.74
1257.274
1255.816
1254.351
1275.633
1274.584
1273.487
1272.342
1271.15
1269.912
1268.624
1267.287
1265.905
1264.479
1263.035
1261.601
1260.18
1258.786
1257.429
1256.019
1254.559
1276.559
1275.557
1274.509
1273.413
1272.27
1271.08
1269.84
1268.551
1267.214
1265.83
1264.421
1263.011
1261.609
1260.231
1258.894
1257.531
1256.077
1254.717
1277.47
1276.517
1275.518
1274.472
1273.379
1272.238
1271.048
1269.808
1268.519
1267.182
1265.81
1264.425
1263.038
1261.664
1260.323
1258.969
1257.555
1256.13
1254.845
1252.321
1254.423
1252.162
1256.434
1254.405
1251.783
1258.377
1256.56
1254.359
1251.078
1260.321
1258.637
1256.746
1254.26
1249.904
1262.265
1260.677
1258.971
1256.966
1254.068
1248.209
1264.111
1262.6
1261.017
1259.282
1257.145
1253.788
1246.332
1265.813
1264.364
1262.864
1261.283
1259.518
1257.258
1253.482
1244.664
1267.365
1265.967
1264.528
1263.037
1261.457
1259.67
1257.316
1253.233
1243.476
1268.776
1267.424
1266.033
1264.601
1263.116
1261.538
1259.738
1257.337
1253.105
1242.913
1270.055
1268.748
1267.4
1266.012
1264.583
1263.102
1261.525
1259.727
1257.335
1253.128
1243.461
1271.212
1269.948
1268.641
1267.293
1265.906
1264.477
1262.994
1261.42
1259.641
1257.31
1253.383
1244.921
1272.256
1271.034
1269.767
1268.458
1267.107
1265.717
1264.282
1262.796
1261.227
1259.48
1257.253
1253.808
1246.726
1273.197
1272.017
1270.792
1269.521
1268.208
1266.852
1265.453
1264.01
1262.52
1260.958
1259.235
1257.195
1254.298
1248.803
1274.059
1272.922
1271.738
1270.508
1269.233
1267.914
1266.55
1265.141
1263.691
1262.196
1260.637
1258.999
1257.187
1254.887
1251.235
1274.887
1273.794
1272.654
1271.467
1270.233
1268.954
1267.627
1266.255
1264.839
1263.381
1261.892
1260.385
1258.859
1257.296
1255.713
1254.197
1275.741
1274.694
1273.6
1272.458
1271.269
1270.034
1268.75
1267.418
1266.04
1264.619
1263.171
1261.718
1260.27
1258.838
1257.438
1255.995
1254.47
1276.617
1275.617
1274.57
1273.476
1272.335
1271.147
1269.909
1268.622
1267.287
1265.906
1264.495
1263.077
1261.661
1260.266
1258.908
1257.531
1256.064
1254.668
1277.495
1276.543
1275.544
1274.499
1273.407
1272.267
1271.078
1269.838
1268.55
1267.214
1265.841
1264.453
1263.061
1261.68
1260.331
1258.971
1257.555
1256.125
1254.825
1278.358
1277.454
1276.504
1275.508
1274.465
1273.375
1272.235
1271.046
1269.806
1268.519
1267.186
1265.828
1264.458
1263.09
1261.741
1260.383
1258.984
1257.58
1256.182
1254.955
1254.434
1252.337
1256.362
1254.433
1252.184
1258.206
1256.437
1254.418
1251.812
1260.04
1258.373
1256.565
1254.376
1251.117
1261.899
1260.309
1258.632
1256.751
1254.279
1249.958
1263.766
1262.245
1260.663
1258.964
1256.969
1254.088
1248.276
1265.546
1264.086
1262.58
1261.001
1259.273
1257.147
1253.806
1246.415
1267.191
1265.786
1264.34
1262.845
1261.268
1259.51
1257.257
1253.502
1244.763
1268.692
1267.337
1265.943
1264.507
1263.02
1261.445
1259.66
1257.314
1253.255
1243.587
1270.055
1268.748
1267.4
1266.012
1264.583
1263.102
1261.525
1259.727
1257.335
1253.128
1243.461
1271.29
1270.028
1268.724
1267.379
1265.995
1264.57
1263.088
1261.512
1259.717
1257.333
1253.241
1244.321
1272.404
1271.187
1269.925
1268.621
1267.277
1265.893
1264.464
1262.981
1261.408
1259.632
1257.302
1253.563
1245.635
1273.405
1272.231
1271.012
1269.749
1268.443
1267.096
1265.705
1264.271
1262.785
1261.218
1259.444
1257.257
1253.973
1247.305
1274.305
1273.175
1271.998
1270.775
1269.508
1268.198
1266.842
1265.444
1264.002
1262.512
1260.926
1259.21
1257.228
1254.467
1249.299
1275.127
1274.039
1272.905
1271.724
1270.498
1269.226
1267.907
1266.543
1265.136
1263.686
1262.18
1260.626
1259.015
1257.258
1255.091
1275.913
1274.869
1273.779
1272.642
1271.458
1270.228
1268.949
1267.623
1266.252
1264.837
1263.381
1261.899
1260.409
1258.915
1257.437
1255.962
1254.359
1276.722
1275.725
1274.68
1273.589
1272.45
1271.265
1270.03
1268.747
1267.416
1266.04
1264.625
1263.19
1261.751
1260.325
1258.93
1257.53
1256.046
1254.597
1277.553
1276.602
1275.604
1274.56
1273.469
1272.331
1271.144
1269.906
1268.62
1267.287
1265.912
1264.515
1263.111
1261.715
1260.347
1258.976
1257.554
1256.116
1254.785
1278.383
1277.48
1276.53
1275.534
1274.492
1273.403
1272.263
1271.075
1269.836
1268.549
1267.217
1265.855
1264.48
1263.105
1261.749
1260.386
1258.986
1257.58
1256.179
1254.938
1279.2
1278.343
1277.442
1276.494
1275.501
1274.461
1273.371
1272.232
1271.043
1269.805
1268.515
1267.189
1265.842
1264.488
1263.14
1261.783
1260.393
1258.998
1257.606
1256.237
1255.068
1256.329
1254.444
1252.358
1258.108
1256.366
1254.447
1252.211
1259.862
1258.204
1256.445
1254.437
1251.847
1261.626
1260.033
1258.374
1256.575
1254.398
1251.163
1263.417
1261.885
1260.302
1258.632
1256.76
1254.303
1250.014
1265.218
1263.746
1262.229
1260.653
1258.961
1256.976
1254.108
1248.344
1266.936
1265.521
1264.066
1262.563
1260.991
1259.269
1257.148
1253.825
1246.499
1268.525
1267.164
1265.763
1264.321
1262.83
1261.258
1259.502
1257.257
1253.522
1244.862
1269.974
1268.664
1267.313
1265.922
1264.49
1263.007
1261.432
1259.651
1257.312
1253.277
1244.104
1271.29
1270.028
1268.724
1267.379
1265.995
1264.57
1263.088
1261.512
1259.717
1257.333
1253.241
1244.321
1272.479
1271.264
1270.005
1268.704
1267.362
1265.981
1264.556
1263.075
1261.499
1259.707
1257.323
1253.43
1245.068
1273.549
1272.379
1271.164
1269.906
1268.606
1267.264
1265.879
1264.451
1262.968
1261.396
1259.586
1257.295
1253.733
1246.251
1274.507
1273.382
1272.211
1270.995
1269.735
1268.432
1267.084
1265.693
1264.259
1262.774
1261.169
1259.39
1257.267
1254.131
1247.8
1275.366
1274.284
1273.155
1271.982
1270.762
1269.499
1268.188
1266.833
1265.435
1263.993
1262.474
1260.877
1259.19
1257.262
1254.626
1276.145
1275.107
1274.022
1272.89
1271.713
1270.49
1269.218
1267.9
1266.537
1265.13
1263.663
1262.151
1260.613
1259.028
1257.321
1276.889
1275.895
1274.854
1273.766
1272.632
1271.452
1270.222
1268.944
1267.619
1266.248
1264.827
1263.368
1261.896
1260.421
1258.964
1257.527
1256.023
1254.509
1277.655
1276.706
1275.711
1274.669
1273.581
1272.445
1271.26
1270.026
1268.744
1267.414
1266.037
1264.625
1263.199
1261.776
1260.374
1258.981
1257.553
1256.102
1254.727
1278.439
1277.537
1276.588
1275.594
1274.553
1273.465
1272.327
1271.14
1269.904
1268.619
1267.284
1265.915
1264.528
1263.139
1261.765
1260.391
1258.988
1257.579
1256.171
1254.905
1279.224
1278.368
1277.467
1276.52
1275.527
1274.487
1273.398
1272.26
1271.072
1269.834
1268.544
1267.215
1265.863
1264.503
1263.147
1261.786
1260.394
1258.999
1257.605
1256.234
1255.055
1279.994
1279.185
1278.331
1277.432
1276.487
1275.496
1274.456
1273.367
1272.228
1271.04
1269.795
1268.505
1267.188
1265.853
1264.515
1263.166
1261.788
1260.4
1259.011
1257.632
1256.294
1255.183
1258.064
1256.333
1254.458
1252.385
1259.761
1258.107
1256.374
1254.466
1252.244
1261.453
1259.857
1258.207
1256.457
1254.46
1251.888
1263.158
1261.616
1260.03
1258.379
1256.589
1254.426
1251.21
1264.887
1263.402
1261.876
1260.299
1258.637
1256.775
1254.329
1250.07
1266.624
1265.197
1263.729
1262.218
1260.648
1258.963
1256.983
1254.129
1248.412
1268.282
1266.912
1265.501
1264.049
1262.551
1260.984
1259.265
1257.151
1253.844
1246.582
1269.815
1268.499
1267.141
1265.744
1264.305
1262.819
1261.248
1259.495
1257.256
1253.541
1245.323
1271.212
1269.948
1268.641
1267.293
1265.906
1264.477
1262.994
1261.42
1259.641
1257.31
1253.383
1244.921
1272.479
1271.264
1270.005
1268.704
1267.362
1265.981
1264.556
1263.075
1261.499
1259.707
1257.323
1253.43
1245.068
1273.621
1272.453
1271.241
1269.985
1268.688
1267.349
1265.967
1264.542
1263.061
1261.486
1259.657
1257.313
1253.606
1245.708
1274.646
1273.524
1272.357
1271.146
1269.891
1268.593
1267.251
1265.866
1264.438
1262.956
1261.337
1259.516
1257.295
1253.894
1246.771
1275.562
1274.484
1273.362
1272.193
1270.98
1269.723
1268.42
1267.072
1265.682
1264.248
1262.72
1261.092
1259.345
1257.281
1254.28
1276.378
1275.344
1274.265
1273.14
1271.969
1270.753
1269.489
1268.178
1266.823
1265.426
1263.95
1262.412
1260.834
1259.174
1257.295
1277.116
1276.126
1275.09
1274.008
1272.879
1271.705
1270.482
1269.211
1267.893
1266.53
1265.101
1263.62
1262.119
1260.598
1259.036
1277.817
1276.871
1275.88
1274.841
1273.757
1272.626
1271.446
1270.216
1268.939
1267.615
1266.231
1264.798
1263.343
1261.879
1260.42
1258.987
1257.55
1256.086
1254.653
1278.539
1277.638
1276.692
1275.699
1274.661
1273.575
1272.44
1271.256
1270.022
1268.741
1267.404
1266.02
1264.614
1263.199
1261.793
1260.399
1258.992
1257.578
1256.161
1254.857
1279.279
1278.424
1277.524
1276.578
1275.586
1274.548
1273.46
1272.323
1271.136
1269.901
1268.609
1267.272
1265.91
1264.535
1263.163
1261.791
1260.398
1259.001
1257.605
1256.229
1255.028
1280.018
1279.209
1278.355
1277.457
1276.512
1275.522
1274.483
1273.394
1272.256
1271.069
1269.823
1268.529
1267.208
1265.868
1264.522
1263.169
1261.79
1260.401
1259.012
1257.631
1256.292
1255.173
1280.742
1279.979
1279.172
1278.321
1277.424
1276.482
1275.491
1274.452
1273.363
1272.225
1271.026
1269.774
1268.49
1267.183
1265.862
1264.529
1263.169
1261.791
1260.406
1259.024
1257.658
1256.351
1255.298
1259.716
1258.064
1256.342
1254.478
1252.416
1261.356
1259.757
1258.111
1256.387
1254.49
1252.282
1262.994
1261.446
1259.856
1258.214
1256.473
1254.489
1251.93
1264.641
1263.146
1261.611
1260.031
1258.388
1256.608
1254.454
1251.257
1266.31
1264.871
1263.391
1261.87
1260.3
1258.646
1256.79
1254.354
1250.127
1267.984
1266.603
1265.18
1263.717
1262.211
1260.646
1258.965
1256.991
1254.15
1248.48
1269.582
1268.258
1266.891
1265.484
1264.037
1262.544
1260.977
1259.261
1257.153
1253.863
1246.972
1271.059
1269.789
1268.477
1267.122
1265.728
1264.294
1262.807
1261.237
1259.487
1257.255
1253.638
1246.065
1272.404
1271.187
1269.925
1268.621
1267.277
1265.893
1264.464
1262.981
1261.408
1259.632
1257.302
1253.563
1245.635
1273.621
1272.453
1271.241
1269.985
1268.688
1267.349
1265.967
1264.542
1263.061
1261.486
1259.657
1257.313
1253.606
1245.708
1274.716
1273.596
1272.432
1271.222
1269.97
1268.675
1267.335
1265.954
1264.528
1263.047
1261.422
1259.58
1257.308
1253.769
1246.246
1275.697
1274.623
1273.504
1272.339
1271.131
1269.878
1268.58
1267.238
1265.853
1264.425
1262.892
1261.244
1259.457
1257.298
1254.042
1276.568
1275.539
1274.465
1273.345
1272.179
1270.969
1269.712
1268.408
1267.061
1265.671
1264.191
1262.634
1261.026
1259.308
1257.298
1277.342
1276.357
1275.326
1274.249
1273.127
1271.959
1270.743
1269.479
1268.169
1266.814
1265.379
1263.88
1262.355
1260.795
1259.16
1278.038
1277.096
1276.109
1275.076
1273.997
1272.871
1271.697
1270.474
1269.203
1267.886
1266.496
1265.047
1263.576
1262.086
1260.578
1278.698
1277.8
1276.856
1275.867
1274.832
1273.75
1272.619
1271.439
1270.21
1268.934
1267.591
1266.188
1264.756
1263.304
1261.844
1260.408
1258.995
1257.576
1256.149
1254.794
1279.376
1278.523
1277.625
1276.681
1275.691
1274.655
1273.569
1272.435
1271.251
1270.018
1268.724
1267.373
1265.992
1264.593
1263.191
1261.8
1260.403
1259.003
1257.603
1256.221
1254.987
1280.072
1279.263
1278.411
1277.513
1276.57
1275.581
1274.543
1273.455
1272.319
1271.133
1269.886
1268.584
1267.252
1265.899
1264.538
1263.175
1261.794
1260.404
1259.013
1257.631
1256.288
1255.151
1280.766
1280.003
1279.196
1278.345
1277.449
1276.507
1275.517
1274.478
1273.39
1272.253
1271.053
1269.798
1268.51
1267.197
1265.869
1264.532
1263.171
1261.793
1260.407
1259.024
1257.658
1256.35
1255.29
1281.445
1280.728
1279.967
1279.162
1278.313
1277.419
1276.477
1275.486
1274.447
1273.359
1272.207
1270.996
1269.749
1268.473
1267.176
1265.866
1264.529
1263.169
1261.794
1260.412
1259.036
1257.684
1256.408
1255.409
1261.312
1259.712
1258.068
1256.356
1254.502
1252.454
1262.901
1261.349
1259.757
1258.12
1256.405
1254.519
1252.322
1264.486
1262.984
1261.442
1259.86
1258.226
1256.495
1254.518
1251.972
1266.077
1264.628
1263.138
1261.609
1260.037
1258.402
1256.628
1254.482
1251.306
1267.685
1266.293
1264.858
1263.384
1261.869
1260.305
1258.655
1256.804
1254.38
1250.185
1269.297
1267.963
1266.586
1265.167
1263.709
1262.208
1260.645
1258.967
1256.998
1254.171
1248.804
1270.835
1269.558
1268.237
1266.874
1265.471
1264.028
1262.536
1260.971
1259.257
1257.155
1253.955
1247.629
1272.256
1271.034
1269.767
1268.458
1267.107
1265.717
1264.282
1262.796
1261.227
1259.48
1257.253
1253.808
1246.726
1273.549
1272.379
1271.164
1269.906
1268.606
1267.264
1265.879
1264.451
1262.968
1261.396
1259.586
1257.295
1253.733
1246.251
1274.716
1273.596
1272.432
1271.222
1269.97
1268.675
1267.335
1265.954
1264.528
1263.047
1261.422
1259.58
1257.308
1253.769
1246.246
1275.765
1274.693
1273.575
1272.413
1271.207
1269.957
1268.661
1267.322
1265.94
1264.514
1262.98
1261.322
1259.514
1257.307
1253.921
1276.7
1275.674
1274.602
1273.486
1272.325
1271.119
1269.866
1268.568
1267.225
1265.841
1264.36
1262.791
1261.164
1259.407
1257.306
1277.528
1276.547
1275.52
1274.448
1273.331
1272.168
1270.958
1269.7
1268.397
1267.049
1265.612
1264.1
1262.558
1260.969
1259.278
1278.259
1277.322
1276.339
1275.311
1274.237
1273.117
1271.949
1270.732
1269.469
1268.159
1266.766
1265.303
1263.816
1262.305
1260.761
1278.914
1278.02
1277.08
1276.095
1275.065
1273.988
1272.863
1271.688
1270.466
1269.195
1267.848
1266.435
1264.993
1263.529
1262.05
1279.532
1278.681
1277.785
1276.844
1275.857
1274.825
1273.743
1272.612
1271.433
1270.204
1268.905
1267.537
1266.133
1264.699
1263.244
1261.81
1260.408
1259.005
1257.602
1256.212
1254.934
1280.167
1279.36
1278.509
1277.613
1276.672
1275.685
1274.649
1273.564
1272.429
1271.246
1269.996
1268.682
1267.332
1265.956
1264.565
1263.184
1261.8
1260.407
1259.014
1257.63
1256.283
1255.118
1280.818
1280.056
1279.25
1278.4
1277.505
1276.564
1275.575
1274.537
1273.45
1272.314
1271.113
1269.851
1268.553
1267.227
1265.884
1264.538
1263.175
1261.796
1260.409
1259.025
1257.658
1256.348
1255.274
1281.468
1280.751
1279.99
1279.186
1278.337
1277.444
1276.502
1275.512
1274.473
1273.386
1272.233
1271.019
1269.768
1268.486
1267.183
1265.869
1264.532
1263.171
1261.795
1260.413
1259.036
1257.684
1256.408
1255.403
1282.103
1281.431
1280.715
1279.957
1279.155
1278.308
1277.414
1276.472
1275.482
1274.443
1273.337
1272.169
1270.962
1269.721
1268.453
1267.172
1265.864
1264.528
1263.168
1261.795
1260.417
1259.048
1257.71
1256.464
1255.514
1262.86
1261.306
1259.713
1258.077
1256.374
1254.532
1252.492
1264.398
1262.892
1261.346
1259.762
1258.133
1256.428
1254.549
1252.361
1265.93
1264.474
1262.978
1261.442
1259.867
1258.242
1256.517
1254.548
1252.015
1267.463
1266.062
1264.619
1263.134
1261.611
1260.047
1258.416
1256.647
1254.51
1251.355
1269.011
1267.667
1266.279
1264.85
1263.38
1261.871
1260.311
1258.664
1256.819
1254.405
1250.466
1270.561
1269.276
1267.945
1266.572
1265.158
1263.704
1262.205
1260.644
1258.969
1257.006
1254.273
1249.404
1272.04
1270.812
1269.538
1268.221
1266.861
1265.462
1264.019
1262.528
1260.964
1259.253
1257.167
1254.126
1248.242
1273.405
1272.231
1271.012
1269.749
1268.443
1267.096
1265.705
1264.271
1262.785
1261.218
1259.444
1257.257
1253.973
1247.305
1274.646
1273.524
1272.357
1271.146
1269.891
1268.593
1267.251
1265.866
1264.438
1262.956
1261.337
1259.516
1257.295
1253.894
1246.771
1275.765
1274.693
1273.575
1272.413
1271.207
1269.957
1268.661
1267.322
1265.94
1264.514
1262.98
1261.322
1259.514
1257.307
1253.921
1276.766
1275.742
1274.672
1273.557
1272.398
1271.194
1269.944
1268.648
1267.309
1265.927
1264.446
1262.871
1261.235
1259.458
1257.311
1277.656
1276.678
1275.654
1274.585
1273.472
1272.313
1271.106
1269.853
1268.555
1267.213
1265.775
1264.255
1262.702
1261.094
1259.365
1278.441
1277.507
1276.528
1275.504
1274.435
1273.32
1272.157
1270.946
1269.689
1268.386
1266.991
1265.519
1264.019
1262.491
1260.92
1279.13
1278.239
1277.304
1276.324
1275.298
1274.227
1273.107
1271.939
1270.723
1269.459
1268.109
1266.685
1265.233
1263.757
1262.259
1279.743
1278.895
1278.003
1277.066
1276.084
1275.056
1273.979
1272.854
1271.68
1270.458
1269.155
1267.78
1266.372
1264.937
1263.483
1280.319
1279.515
1278.666
1277.773
1276.834
1275.85
1274.817
1273.736
1272.605
1271.426
1270.172
1268.842
1267.471
1266.062
1264.62
1263.195
1261.806
1260.41
1259.015
1257.629
1256.276
1255.074
1280.912
1280.151
1279.347
1278.498
1277.605
1276.666
1275.678
1274.643
1273.558
1272.424
1271.22
1269.946
1268.631
1267.282
1265.911
1264.547
1263.181
1261.799
1260.411
1259.026
1257.657
1256.344
1255.249
1281.519
1280.803
1280.043
1279.24
1278.392
1277.499
1276.558
1275.57
1274.532
1273.446
1272.291
1271.07
1269.809
1268.515
1267.197
1265.875
1264.536
1263.174
1261.796
1260.414
1259.037
1257.684
1256.407
1255.393
1282.125
1281.453
1280.739
1279.98
1279.178
1278.332
1277.438
1276.497
1275.507
1274.469
1273.363
1272.191
1270.98
1269.734
1268.46
1267.174
1265.866
1264.529
1263.169
1261.796
1260.417
1259.048
1257.711
1256.464
1255.512
1282.716
1282.089
1281.418
1280.706
1279.949
1279.149
1278.302
1277.408
1276.467
1275.477
1274.418
1273.294
1272.128
1270.925
1269.691
1268.442
1267.168
1265.861
1264.525
1263.167
1261.796
1260.422
1259.059
1257.736
1256.517
1255.66
1264.359
1262.851
1261.303
1259.718
1258.091
1256.397
1254.562
1252.531
1265.846
1264.387
1262.887
1261.347
1259.771
1258.15
1256.451
1254.579
1252.401
1267.323
1265.917
1264.466
1262.976
1261.447
1259.88
1258.259
1256.539
1254.577
1252.058
1268.799
1267.448
1266.052
1264.613
1263.134
1261.618
1260.056
1258.43
1256.667
1254.539
1251.593
1270.287
1268.993
1267.653
1266.269
1264.845
1263.381
1261.874
1260.316
1258.673
1256.834
1254.532
1251.048
1271.777
1270.54
1269.258
1267.932
1266.562
1265.152
1263.7
1262.202
1260.643
1258.971
1257.044
1254.47
1250.017
1273.197
1272.017
1270.792
1269.521
1268.208
1266.852
1265.453
1264.01
1262.52
1260.958
1259.235
1257.195
1254.298
1248.803
1274.507
1273.382
1272.211
1270.995
1269.735
1268.432
1267.084
1265.693
1264.259
1262.774
1261.169
1259.39
1257.267
1254.131
1247.8
1275.697
1274.623
1273.504
1272.339
1271.131
1269.878
1268.58
1267.238
1265.853
1264.425
1262.892
1261.244
1259.457