/*--------------------------------*- C++ -*----------------------------------*\
| =========                 |                                                 |
| \\      /  F ield         | OpenFOAM: The Open Source CFD Toolbox           |
|  \\    /   O peration     | Version:  2306                                  |
|   \\  /    A nd           | Website:  www.openfoam.com                      |
|    \\/     M anipulation  |                                                 |
\*---------------------------------------------------------------------------*/
FoamFile
{
    version     2.0;
    format      ascii;
    arch        "LSB;label=32;scalar=64";
    class       volScalarField;
    location    "0.6/fuel";
    object      diffSp.H2;
}
// * * * * * * * * * * * * * * * * * * * * * * * * * * * * * * * * * * * * * //

dimensions      [0 2 -1 0 0 0 0];

internalField   nonuniform List<scalar> 
16000
(
0.0001011067
0.0001010952
0.00010136
0.0001011198
0.0001010664
0.0001013633
0.0001011086
0.0001015844
0.0001013706
0.0001011477
0.0001010123
0.0001013687
0.0001010802
0.0001015913
0.000101374
0.0001011369
0.0001017843
0.0001015928
0.0001013934
0.0001011803
0.0001009112
0.0001013769
0.000101027
0.0001016052
0.0001013795
0.0001011094
0.0001017918
0.0001015998
0.000101397
0.0001011699
0.0001019684
0.0001017911
0.0001016115
0.0001014202
0.0001012461
0.0001007712
0.0001013796
0.0001009274
0.0001016286
0.0001013878
0.0001010577
0.0001018074
0.0001016137
0.0001014029
0.0001011436
0.0001019758
0.0001017987
0.0001016186
0.0001014241
0.0001012368
0.0001021418
0.0001019739
0.0001018066
0.0001016336
0.0001014747
0.0001518926
0.0001005873
0.0001013847
0.0001007893
0.0001016578
0.0001013907
0.0001009603
0.0001018341
0.0001016371
0.0001014118
0.0001010936
0.0001019911
0.0001018142
0.0001016327
0.0001014305
0.0001012125
0.0001021488
0.0001019813
0.0001018143
0.0001016408
0.0001014791
0.0001518789
0.0001023067
0.0001021464
0.0001019871
0.0001018251
0.0001016788
0.0001522313
0.0001519037
0.0001004188
0.000101361
0.0001006078
0.0001016997
0.0001013957
0.0001008253
0.0001018698
0.0001016661
0.0001014152
0.0001009987
0.0001020175
0.0001018408
0.0001016563
0.0001014399
0.0001011657
0.0001021634
0.0001019967
0.00010183
0.0001016552
0.0001014865
0.0001518433
0.0001023132
0.0001021533
0.0001019946
0.0001018329
0.0001016863
0.000152238
0.0001518903
0.0001024642
0.0001023104
0.0001021577
0.0001020029
0.0001018634
0.000152534
0.0001522404
0.0001519189
0.0001002912
0.0001013319
0.0001004413
0.0001017215
0.0001013723
0.0001006466
0.0001019207
0.0001017075
0.0001014207
0.0001008668
0.0001020538
0.0001018763
0.0001016855
0.0001014441
0.0001010753
0.0001021885
0.000102023
0.0001018567
0.0001016791
0.0001014975
0.0001517746
0.0001023269
0.0001021679
0.00010201
0.0001018487
0.0001017013
0.0001522493
0.0001518552
0.0001024703
0.0001023169
0.0001021647
0.0001020104
0.0001018713
0.0001525454
0.0001522471
0.0001519058
0.0001026149
0.0001024673
0.0001023202
0.0001021713
0.0001020358
0.0001528083
0.0001525414
0.0001522528
0.0001519325
0.0001002237
0.0001013043
0.0001003151
0.0001017349
0.0001013435
0.0001004825
0.0001019561
0.0001017291
0.0001013978
0.0001006911
0.0001021052
0.0001019266
0.0001017268
0.0001014502
0.0001009487
0.0001022234
0.000102059
0.0001018921
0.0001017084
0.0001015034
0.0001516412
0.0001023504
0.0001021928
0.0001020363
0.0001018756
0.0001017261
0.0001522661
0.0001517874
0.0001024831
0.0001023306
0.0001021792
0.0001020259
0.0001018876
0.0001525679
0.0001522585
0.0001518713
0.0001026206
0.0001024734
0.0001023267
0.0001021783
0.0001020435
0.0001528202
0.0001525527
0.0001522595
0.0001519196
0.0001027593
0.0001026175
0.0001024758
0.0001023321
0.0001022
0.0001530649
0.0001528143
0.0001525515
0.0001522638
0.0001519481
0.0001002237
0.0001012885
0.0001002484
0.00010174
0.0001013163
0.000100358
0.0001019828
0.0001017424
0.0001013696
0.0001005296
0.000102144
0.0001019617
0.0001017483
0.0001014279
0.0001007775
0.0001022727
0.0001021098
0.0001019422
0.0001017498
0.0001015114
0.0001514541
0.0001023835
0.0001022275
0.0001020722
0.000101911
0.0001017564
0.0001522751
0.0001516555
0.0001025052
0.000102354
0.0001022042
0.0001020523
0.000101915
0.0001526051
0.0001522752
0.0001518047
0.0001026327
0.0001024861
0.0001023404
0.0001021929
0.0001020592
0.0001528446
0.0001525751
0.000152271
0.0001518857
0.0001027647
0.0001026232
0.0001024819
0.0001023386
0.0001022071
0.0001530764
0.0001528263
0.0001525628
0.0001522706
0.0001519355
0.0001028975
0.0001027614
0.0001026249
0.0001024862
0.0001023574
0.0001533095
0.0001530698
0.0001528227
0.0001525605
0.0001522765
0.0003700887
0.0001002912
0.0001012885
0.0001002484
0.0001017417
0.0001013006
0.0001002921
0.0001019986
0.0001017475
0.0001013428
0.0001004067
0.0001021743
0.0001019881
0.0001017616
0.0001014003
0.0001006193
0.0001023112
0.0001021482
0.0001019769
0.0001017713
0.0001014904
0.0001512005
0.00010243
0.0001022764
0.0001021228
0.0001019609
0.0001017986
0.0001522871
0.0001514704
0.0001025364
0.0001023868
0.0001022388
0.0001020881
0.000101951
0.0001526502
0.0001522841
0.0001516745
0.0001026535
0.0001025081
0.0001023638
0.000102218
0.0001020861
0.0001528856
0.0001526121
0.0001522878
0.0001518203
0.000102776
0.0001026352
0.0001024947
0.0001023523
0.000102222
0.0001531
0.0001528505
0.0001525852
0.0001522822
0.0001519024
0.0001029026
0.0001027667
0.0001026307
0.0001024923
0.000102364
0.0001533202
0.0001530813
0.0001528346
0.0001525718
0.0001522834
0.000370061
0.0001030298
0.0001028992
0.000102768
0.0001026342
0.0001025088
0.0001535443
0.0001533136
0.0001530768
0.0001528301
0.0001525709
0.0003708642
0.0003701995
0.0001004188
0.0001013043
0.0001003151
0.0001017417
0.0001013006
0.0001002921
0.0001020062
0.0001017491
0.0001013274
0.0001003417
0.0001021933
0.0001020038
0.0001017667
0.000101374
0.0001004987
0.0001023417
0.0001021782
0.0001020032
0.0001017846
0.0001014638
0.000150966
0.0001024671
0.0001023145
0.0001021608
0.0001019954
0.0001018204
0.0001522559
0.0001512192
0.0001025802
0.000102433
0.0001022873
0.0001021385
0.0001020013
0.0001527129
0.0001522957
0.0001514916
0.0001026829
0.0001025391
0.0001023965
0.0001022524
0.0001021222
0.0001529392
0.0001526567
0.0001522966
0.0001516918
0.0001027956
0.0001026559
0.0001025167
0.0001023758
0.0001022473
0.0001531401
0.0001528912
0.000152622
0.000152299
0.0001518382
0.0001029133
0.000102778
0.0001026427
0.0001025052
0.0001023779
0.0001533425
0.0001531048
0.0001528587
0.0001525941
0.0001522951
0.000369987
0.0001030347
0.0001029043
0.0001027734
0.0001026399
0.000102515
0.0001535543
0.0001533243
0.0001530882
0.000152842
0.0001525822
0.0003708811
0.0003701778
0.0001031565
0.0001030312
0.0001029051
0.0001027762
0.0001026544
0.0001537703
0.0001535476
0.0001533194
0.0001530829
0.0001528387
0.0003715617
0.000370947
0.0003703552
0.0001005873
0.0001013319
0.0001004413
0.00010174
0.0001013163
0.000100358
0.0001020062
0.0001017491
0.0001013274
0.0001003417
0.0001022027
0.0001020112
0.0001017684
0.0001013589
0.0001004347
0.0001023613
0.0001021971
0.0001020188
0.0001017898
0.0001014383
0.000150787
0.0001024967
0.0001023447
0.0001021906
0.0001020216
0.0001018341
0.0001522165
0.0001509872
0.0001026156
0.0001024697
0.0001023251
0.0001021762
0.0001020359
0.0001527453
0.0001522643
0.000151243
0.0001027242
0.0001025825
0.0001024424
0.0001023007
0.0001021728
0.0001530139
0.0001527186
0.000152308
0.0001515109
0.0001028236
0.0001026851
0.0001025475
0.0001024084
0.000102282
0.0001531939
0.0001529442
0.0001526662
0.0001523078
0.0001517115
0.000102932
0.0001027976
0.0001026633
0.0001025271
0.0001024016
0.0001533803
0.0001531446
0.0001528992
0.0001526307
0.0001523121
0.0003698427
0.0001030449
0.000102915
0.0001027847
0.0001026519
0.0001025279
0.000153575
0.0001533464
0.0001531116
0.000152866
0.0001526044
0.0003709098
0.0003701177
0.0001031611
0.0001030361
0.0001029102
0.0001027816
0.0001026602
0.0001537796
0.0001535576
0.0001533301
0.0001530943
0.0001528505
0.0003715886
0.0003709638
0.0003703423
0.0001032775
0.0001031576
0.0001030365
0.0001029125
0.0001027945
0.0001539879
0.000153773
0.0001535526
0.0001533245
0.0001530901
0.0003721983
0.0003716255
0.0003710625
0.0003704973
0.0001007712
0.000101361
0.0001006078
0.0001017349
0.0001013435
0.0001004825
0.0001019986
0.0001017475
0.0001013428
0.0001004067
0.0001022027
0.0001020112
0.0001017684
0.0001013589
0.0001004347
0.000102371
0.0001022064
0.0001020262
0.0001017916
0.0001014235
0.0001506922
0.0001025159
0.0001023641
0.0001022093
0.0001020371
0.0001018395
0.0001521787
0.0001508101
0.0001026439
0.000102499
0.0001023551
0.0001022058
0.0001020621
0.0001527655
0.0001522252
0.0001510134
0.000102758
0.0001026176
0.0001024788
0.0001023382
0.0001022104
0.0001530652
0.0001527503
0.0001522766
0.0001512647
0.0001028627
0.0001027261
0.0001025907
0.000102454
0.0001023304
0.000153269
0.0001530181
0.0001527274
0.0001523189
0.0001515329
0.0001029586
0.0001028254
0.0001026925
0.0001025579
0.0001024343
0.0001534319
0.0001531979
0.0001529517
0.0001526744
0.0001523208
0.000369552
0.0001030626
0.0001029336
0.0001028042
0.0001026726
0.0001025501
0.0001536104
0.0001533839
0.0001531511
0.0001529062
0.0001526409
0.000370951
0.0003699986
0.0001031708
0.0001030463
0.0001029209
0.0001027929
0.0001026723
0.0001537989
0.0001535782
0.0001533521
0.0001531176
0.0001528744
0.0003716414
0.0003709921
0.0003703023
0.0001032819
0.0001031622
0.0001030413
0.0001029176
0.0001027999
0.0001539965
0.0001537823
0.0001535625
0.0001533351
0.0001531014
0.0003722263
0.0003716507
0.00037108
0.0003704946
0.0001033931
0.0001032784
0.0001031623
0.0001030432
0.0001029291
0.0001541972
0.0001539901
0.0001537772
0.0001535568
0.0001533305
0.0003727979
0.000372247
0.0003717147
0.0003711631
0.0003706434
0.0001009112
0.0001013847
0.0001007893
0.0001017215
0.0001013723
0.0001006466
0.0001019828
0.0001017424
0.0001013696
0.0001005296
0.0001021933
0.0001020038
0.0001017667
0.000101374
0.0001004987
0.000102371
0.0001022064
0.0001020262
0.0001017916
0.0001014235
0.0001506922
0.0001025254
0.0001023738
0.0001022186
0.0001020445
0.0001018414
0.0001521569
0.0001507161
0.0001026624
0.000102518
0.0001023744
0.0001022244
0.0001020776
0.0001527737
0.0001521878
0.0001508381
0.0001027851
0.0001026457
0.0001025079
0.000102368
0.00010224
0.0001531041
0.0001527703
0.0001522379
0.0001510374
0.000102895
0.0001027596
0.0001026255
0.0001024901
0.0001023678
0.0001533249
0.0001530686
0.0001527585
0.0001522874
0.000151289
0.0001029957
0.0001028642
0.0001027332
0.0001026008
0.00010248
0.0001535038
0.0001532722
0.0001530248
0.0001527349
0.0001523318
0.0003691345
0.000103088
0.00010296
0.0001028318
0.0001027016
0.0001025809
0.0001536591
0.000153435
0.0001532039
0.0001529582
0.0001526842
0.00037097
0.0003697373
0.0001031877
0.0001030639
0.0001029394
0.0001028124
0.0001026931
0.000153832
0.0001536133
0.0001533894
0.0001531568
0.0001529144
0.000371727
0.0003710331
0.0003702199
0.0001032913
0.0001031719
0.0001030515
0.0001029283
0.0001028114
0.0001540147
0.0001538015
0.000153583
0.000153357
0.0001531246
0.0003722827
0.0003716995
0.0003711101
0.0003704786
0.0001033974
0.0001032828
0.0001031669
0.000103048
0.0001029342
0.0001542053
0.0001539987
0.0001537864
0.0001535667
0.0001533411
0.0003728246
0.0003722729
0.0003717384
0.0003711816
0.0003706522
0.0001035035
0.0001033939
0.0001032827
0.0001031683
0.0001030583
0.0001543985
0.000154199
0.0001539936
0.0001537808
0.0001535619
0.000373373
0.000372834
0.0003723166
0.0003717902
0.0003712647
0.0001010123
0.0001013796
0.0001009274
0.0001016997
0.0001013957
0.0001008253
0.0001019561
0.0001017291
0.0001013978
0.0001006911
0.0001021743
0.0001019881
0.0001017616
0.0001014003
0.0001006193
0.0001023613
0.0001021971
0.0001020188
0.0001017898
0.0001014383
0.000150787
0.0001025254
0.0001023738
0.0001022186
0.0001020445
0.0001018414
0.0001521569
0.0001507161
0.0001026716
0.0001025275
0.000102384
0.0001022336
0.0001020851
0.0001527766
0.0001521663
0.0001507452
0.0001028028
0.0001026641
0.0001025268
0.0001023872
0.0001022586
0.0001531273
0.0001527783
0.0001522009
0.0001508639
0.0001029209
0.0001027865
0.0001026534
0.0001025191
0.0001023975
0.0001533688
0.000153107
0.0001527782
0.000152249
0.000151064
0.0001030267
0.0001028962
0.0001027665
0.0001026354
0.000102516
0.0001535594
0.0001533273
0.0001530746
0.0001527654
0.0001523003
0.0003685647
0.0001031235
0.0001029969
0.0001028705
0.0001027422
0.0001026239
0.000153727
0.0001535062
0.0001532775
0.0001530304
0.0001527441
0.0003709906
0.0003693335
0.0001032121
0.0001030892
0.0001029657
0.00010284
0.0001027223
0.0001538779
0.0001536616
0.00015344
0.0001532091
0.0001529659
0.000371826
0.0003710477
0.0003700004
0.0001033075
0.0001031888
0.0001030691
0.0001029468
0.000102831
0.0001540457
0.0001538344
0.0001536179
0.0001533941
0.0001531636
0.0003723761
0.0003717784
0.0003711555
0.0003704423
0.0001034063
0.0001032921
0.0001031766
0.0001030582
0.000102945
0.0001542224
0.0001540168
0.0001538055
0.0001535871
0.0001533629
0.0003728791
0.0003723243
0.0003717837
0.0003712144
0.0003706636
0.0001035075
0.0001033981
0.0001032871
0.0001031729
0.0001030632
0.0001544061
0.0001542071
0.0001540022
0.0001537899
0.0001535717
0.0003733979
0.0003728585
0.0003723402
0.0003718122
0.0003712845
0.0001036087
0.0001035041
0.0001033977
0.0001032882
0.0001031822
0.0001545917
0.0001543999
0.000154202
0.0001539966
0.000153785
0.0003739277
0.0003733983
0.0003728877
0.000372374
0.0003718656
0.0001010664
0.0001013769
0.000101027
0.0001016578
0.0001013907
0.0001009603
0.0001019207
0.0001017075
0.0001014207
0.0001008668
0.000102144
0.0001019617
0.0001017483
0.0001014279
0.0001007775
0.0001023417
0.0001021782
0.0001020032
0.0001017846
0.0001014638
0.000150966
0.0001025159
0.0001023641
0.0001022093
0.0001020371
0.0001018395
0.0001521787
0.0001508101
0.0001026716
0.0001025275
0.000102384
0.0001022336
0.0001020851
0.0001527766
0.0001521663
0.0001507452
0.0001028116
0.0001026732
0.0001025362
0.0001023967
0.0001022677
0.0001531383
0.0001527812
0.0001521796
0.0001507719
0.0001029379
0.0001028041
0.0001026716
0.0001025378
0.0001024166
0.0001533965
0.0001531299
0.0001527861
0.0001522124
0.0001508923
0.0001030516
0.000102922
0.0001027932
0.0001026632
0.0001025448
0.0001536036
0.0001533707
0.0001531125
0.0001527848
0.0001522621
0.0003680418
0.0001031533
0.0001030276
0.0001029023
0.0001027752
0.0001026583
0.0001537806
0.0001535611
0.0001533319
0.0001530795
0.000152774
0.0003709123
0.0003687774
0.0001032461
0.0001031244
0.0001030025
0.0001028784
0.0001027628
0.0001539419
0.0001537289
0.0001535106
0.0001532819
0.0001530375
0.0003719614
0.0003710593
0.0003696022
0.0001033309
0.000103213
0.0001030943
0.000102973
0.0001028586
0.0001540891
0.0001538799
0.0001536657
0.0001534442
0.0001532154
0.0003724941
0.0003718651
0.0003711716
0.0003702834
0.0001034219
0.0001033083
0.0001031935
0.0001030758
0.0001029636
0.0001542517
0.0001540476
0.0001538382
0.0001536217
0.0001533997
0.0003729701
0.0003724094
0.0003718579
0.0003712671
0.0003706852
0.0001035162
0.000103407
0.0001032964
0.0001031827
0.0001030734
0.0001544223
0.0001542241
0.0001540201
0.000153809
0.000153592
0.000373449
0.0003729079
0.0003723868
0.000371854
0.000371321
0.0001036126
0.0001035081
0.0001034019
0.0001032925
0.0001031869
0.000154599
0.0001544076
0.0001542101
0.0001540052
0.0001537942
0.0003739508
0.0003734211
0.0003729099
0.0003723951
0.0003718859
0.0001037088
0.0001036091
0.0001035075
0.0001034027
0.000103301
0.0001547772
0.0001545929
0.0001544025
0.0001542045
0.0001540002
0.0003744639
0.000373944
0.000373439
0.0003729306
0.0003724307
0.0001010952
0.0001013687
0.0001010802
0.0001016286
0.0001013878
0.0001010577
0.0001018698
0.0001016661
0.0001014152
0.0001009987
0.0001021052
0.0001019266
0.0001017268
0.0001014502
0.0001009487
0.0001023112
0.0001021482
0.0001019769
0.0001017713
0.0001014904
0.0001512005
0.0001024967
0.0001023447
0.0001021906
0.0001020216
0.0001018341
0.0001522165
0.0001509872
0.0001026624
0.000102518
0.0001023744
0.0001022244
0.0001020776
0.0001527737
0.0001521878
0.0001508381
0.0001028116
0.0001026732
0.0001025362
0.0001023967
0.0001022677
0.0001531383
0.0001527812
0.0001521796
0.0001507719
0.0001029464
0.0001028129
0.0001026807
0.0001025472
0.0001024261
0.0001534101
0.0001531409
0.000152789
0.0001521914
0.0001508012
0.0001030679
0.0001029389
0.0001028107
0.0001026813
0.0001025635
0.000153632
0.0001533981
0.0001531352
0.0001527927
0.0001522259
0.000367643
0.0001031772
0.0001030524
0.0001029279
0.0001028018
0.000102686
0.0001538235
0.0001536049
0.0001533749
0.000153117
0.0001527931
0.0003708222
0.0003682789
0.0001032748
0.000103154
0.000103033
0.0001029101
0.0001027957
0.0001539931
0.0001537818
0.0001535648
0.0001533357
0.0001530859
0.0003720266
0.0003709696
0.0003690372
0.0001033636
0.0001032468
0.0001031294
0.0001030096
0.000102897
0.0001541495
0.0001539433
0.0001537324
0.0001535141
0.0001532876
0.0003726578
0.0003719878
0.0003711824
0.0003698528
0.0001034446
0.0001033316
0.0001032176
0.0001031009
0.0001029899
0.0001542928
0.0001540906
0.0001538833
0.0001536691
0.0001534493
0.0003730891
0.0003725138
0.0003719354
0.0003712911
0.0003706289
0.0001035312
0.0001034226
0.0001033125
0.0001031995
0.0001030911
0.00015445
0.0001542532
0.0001540508
0.0001538414
0.0001536264
0.0003735349
0.0003729905
0.0003724644
0.000371924
0.000371385
0.0001036209
0.0001035167
0.0001034109
0.0001033019
0.0001031967
0.0001546144
0.0001544236
0.000154227
0.000154023
0.0001538131
0.0003739984
0.0003734674
0.0003729541
0.0003724363
0.0003719243
0.0001037126
0.000103613
0.0001035116
0.0001034069
0.0001033054
0.0001547841
0.0001546002
0.0001544101
0.0001542126
0.0001540087
0.0003744854
0.000373965
0.0003734594
0.0003729501
0.0003724493
0.000103804
0.0001037091
0.0001036123
0.0001035121
0.0001034145
0.0001549548
0.0001547781
0.0001545951
0.0001544046
0.0001542076
0.0003749819
0.0003744725
0.0003739737
0.0003734699
0.0003729728
0.0001011067
0.0001013633
0.0001011086
0.0001016052
0.0001013795
0.0001011094
0.0001018341
0.0001016371
0.0001014118
0.0001010936
0.0001020538
0.0001018763
0.0001016855
0.0001014441
0.0001010753
0.0001022727
0.0001021098
0.0001019422
0.0001017498
0.0001015114
0.0001514541
0.0001024671
0.0001023145
0.0001021608
0.0001019954
0.0001018204
0.0001522559
0.0001512192
0.0001026439
0.000102499
0.0001023551
0.0001022058
0.0001020621
0.0001527655
0.0001522252
0.0001510134
0.0001028028
0.0001026641
0.0001025268
0.0001023872
0.0001022586
0.0001531273
0.0001527783
0.0001522009
0.0001508639
0.0001029464
0.0001028129
0.0001026807
0.0001025472
0.0001024261
0.0001534101
0.0001531409
0.000152789
0.0001521914
0.0001508012
0.0001030761
0.0001029473
0.0001028195
0.0001026903
0.0001025729
0.0001536461
0.0001534116
0.0001531461
0.0001527956
0.0001522051
0.0003674317
0.000103193
0.0001030687
0.0001029447
0.0001028192
0.000102704
0.0001538513
0.000153633
0.000153402
0.0001531395
0.0001528009
0.0003707382
0.0003679028
0.000103298
0.0001031778
0.0001030576
0.0001029355
0.0001028222
0.0001540343
0.0001538243
0.0001536081
0.0001533782
0.0001531229
0.0003720694
0.0003708777
0.0003685483
0.0001033914
0.0001032753
0.0001031588
0.00010304
0.0001029285
0.0001541985
0.000153994
0.0001537848
0.0001535677
0.0001533406
0.0003727668
0.0003720365
0.0003710751
0.000369258
0.000103476
0.0001033641
0.0001032513
0.0001031358
0.0001030265
0.0001543501
0.0001541506
0.0001539463
0.0001537353
0.0001535187
0.000373255
0.0003726651
0.0003720561
0.0003712917
0.0003701632
0.0001035531
0.0001034451
0.0001033357
0.0001032235
0.0001031162
0.0001544892
0.000154294
0.0001540935
0.0001538861
0.0001536734
0.0003736494
0.0003730964
0.0003725567
0.000371994
0.0003714307
0.0001036355
0.0001035317
0.0001034264
0.000103318
0.0001032135
0.0001546407
0.0001544512
0.0001542559
0.0001540534
0.0001538453
0.0003740788
0.0003735452
0.0003730285
0.000372506
0.0003719913
0.0001037207
0.0001036213
0.0001035202
0.0001034159
0.0001033147
0.0001547987
0.0001546154
0.0001544261
0.0001542293
0.0001540265
0.0003745298
0.0003740081
0.0003735005
0.0003729885
0.0003724849
0.0001038076
0.0001037129
0.0001036162
0.0001035162
0.0001034188
0.0001549614
0.000154785
0.0001546023
0.0001544121
0.0001542156
0.0003750019
0.0003744921
0.0003739926
0.0003734877
0.0003729895
0.0001038943
0.0001038042
0.000103712
0.0001036165
0.0001035231
0.0001551248
0.0001549555
0.0001547799
0.0001545968
0.0001544072
0.0003754818
0.0003749841
0.0003744931
0.0003739947
0.0003735001
0.00010136
0.0001011198
0.0001015913
0.000101374
0.0001011369
0.0001018074
0.0001016137
0.0001014029
0.0001011436
0.0001020175
0.0001018408
0.0001016563
0.0001014399
0.0001011657
0.0001022234
0.000102059
0.0001018921
0.0001017084
0.0001015034
0.0001516412
0.00010243
0.0001022764
0.0001021228
0.0001019609
0.0001017986
0.0001522871
0.0001514704
0.0001026156
0.0001024697
0.0001023251
0.0001021762
0.0001020359
0.0001527453
0.0001522643
0.000151243
0.0001027851
0.0001026457
0.0001025079
0.000102368
0.00010224
0.0001531041
0.0001527703
0.0001522379
0.0001510374
0.0001029379
0.0001028041
0.0001026716
0.0001025378
0.0001024166
0.0001533965
0.0001531299
0.0001527861
0.0001522124
0.0001508923
0.0001030761
0.0001029473
0.0001028195
0.0001026903
0.0001025729
0.0001536461
0.0001534116
0.0001531461
0.0001527956
0.0001522051
0.0003674317
0.000103201
0.0001030768
0.0001029531
0.0001028279
0.000102713
0.0001538652
0.0001536471
0.0001534155
0.0001531503
0.0001528038
0.0003706904
0.0003677046
0.0001033133
0.0001031936
0.0001030738
0.0001029522
0.0001028395
0.0001540612
0.000153852
0.0001536361
0.0001534051
0.0001531452
0.0003720873
0.0003707966
0.0003681869
0.0001034138
0.0001032984
0.0001031825
0.0001030645
0.0001029539
0.0001542379
0.0001540348
0.000153827
0.0001536106
0.0001533827
0.0003728516
0.0003720701
0.0003709769
0.0003687675
0.000103503
0.0001033917
0.0001032796
0.0001031651
0.0001030567
0.000154397
0.0001541991
0.0001539965
0.0001537872
0.0001535717
0.0003733759
0.0003727578
0.0003720864
0.0003711627
0.0003694998
0.0001035835
0.0001034764
0.0001033681
0.0001032571
0.0001031512
0.0001545437
0.0001543509
0.000154153
0.0001539486
0.0001537391
0.0003738095
0.0003732516
0.0003727067
0.0003721117
0.0003714502
0.001000053
0.0001036567
0.0001035535
0.0001034488
0.0001033411
0.0001032376
0.0001546782
0.0001544901
0.0001542964
0.0001540958
0.0001538897
0.0003741873
0.0003736476
0.0003731221
0.0003725862
0.0003720578
0.0001037347
0.0001036358
0.0001035352
0.0001034313
0.0001033309
0.0001548239
0.0001546416
0.0001544534
0.000154258
0.0001540567
0.000374605
0.000374081
0.0003735703
0.0003730539
0.000372547
0.0001038155
0.0001037209
0.0001036245
0.0001035248
0.0001034278
0.0001549754
0.0001547995
0.0001546175
0.000154428
0.0001542323
0.0003750436
0.0003745323
0.0003740307
0.000373523
0.0003730217
0.0001038979
0.0001038078
0.0001037158
0.0001036204
0.0001035271
0.0001551312
0.0001549621
0.0001547868
0.000154604
0.0001544147
0.0003755006
0.0003750023
0.0003745106
0.000374011
0.0003735152
0.0001039799
0.0001038944
0.0001038068
0.0001037159
0.0001036267
0.0001552873
0.0001551254
0.0001549571
0.0001547814
0.0001545991
0.0003759636
0.0003754787
0.0003749971
0.0003745058
0.000374015
0.0001015844
0.0001013706
0.0001011477
0.0001017918
0.0001015998
0.000101397
0.0001011699
0.0001019911
0.0001018142
0.0001016327
0.0001014305
0.0001012125
0.0001021885
0.000102023
0.0001018567
0.0001016791
0.0001014975
0.0001517746
0.0001023835
0.0001022275
0.0001020722
0.000101911
0.0001017564
0.0001522751
0.0001516555
0.0001025802
0.000102433
0.0001022873
0.0001021385
0.0001020013
0.0001527129
0.0001522957
0.0001514916
0.000102758
0.0001026176
0.0001024788
0.0001023382
0.0001022104
0.0001530652
0.0001527503
0.0001522766
0.0001512647
0.0001029209
0.0001027865
0.0001026534
0.0001025191
0.0001023975
0.0001533688
0.000153107
0.0001527782
0.000152249
0.000151064
0.0001030679
0.0001029389
0.0001028107
0.0001026813
0.0001025635
0.000153632
0.0001533981
0.0001531352
0.0001527927
0.0001522259
0.000367643
0.000103201
0.0001030768
0.0001029531
0.0001028279
0.000102713
0.0001538652
0.0001536471
0.0001534155
0.0001531503
0.0001528038
0.0003706904
0.0003677046
0.0001033209
0.0001032014
0.0001030819
0.0001029606
0.0001028482
0.0001540746
0.0001538658
0.00015365
0.0001534184
0.0001531559
0.0003720942
0.0003707515
0.000367998
0.0001034286
0.0001033136
0.0001031982
0.0001030806
0.0001029705
0.0001542637
0.0001540615
0.0001538544
0.0001536383
0.0001534093
0.0003729029
0.0003720839
0.0003708958
0.0003684145
0.0001035247
0.000103414
0.0001033025
0.0001031887
0.0001030811
0.0001544348
0.0001542382
0.000154037
0.0001538289
0.0001536142
0.0003734726
0.0003728317
0.0003721091
0.000371056
0.000368986
0.0001036097
0.0001035032
0.0001033956
0.0001032853
0.0001031803
0.0001545888
0.0001543974
0.0001542011
0.0001539983
0.0001537904
0.000373931
0.0003733578
0.0003727827
0.0003721235
0.0003712801
0.0009972114
0.0001036861
0.0001035837
0.00010348
0.0001033734
0.0001032711
0.0001547303
0.0001545443
0.0001543529
0.0001541549
0.0001539517
0.0003743397
0.0003737991
0.0003732773
0.0003727371
0.0003722065
0.00100398
0.001000916
0.0001037553
0.0001036569
0.0001035568
0.0001034537
0.000103354
0.0001548598
0.0001546788
0.000154492
0.0001542982
0.0001540987
0.0003747078
0.0003741786
0.000373661
0.0003731343
0.000372615
0.0001038291
0.000103735
0.0001036389
0.0001035397
0.0001034433
0.0001549995
0.0001548245
0.0001546435
0.0001544552
0.0001542608
0.0003751142
0.0003746005
0.0003740957
0.0003735836
0.0003730778
0.0001039055
0.0001038157
0.0001037238
0.0001036287
0.0001035358
0.0001551446
0.000154976
0.0001548012
0.0001546191
0.0001544305
0.0003755398
0.00037504
0.000374546
0.0003740435
0.0003735443
0.0001039834
0.000103898
0.0001038105
0.0001037196
0.0001036306
0.0001552934
0.0001551317
0.0001549636
0.0001547882
0.0001546062
0.0003759813
0.0003754958
0.0003750133
0.0003745208
0.0003740286
0.0001040608
0.00010398
0.0001038969
0.0001038104
0.0001037254
0.0001554424
0.0001552877
0.0001551267
0.0001549583
0.0001547833
0.0003764272
0.000375956
0.0003754853
0.0003750028
0.0003745178
0.0001017843
0.0001015928
0.0001013934
0.0001011803
0.0001019758
0.0001017987
0.0001016186
0.0001014241
0.0001012368
0.0001021634
0.0001019967
0.00010183
0.0001016552
0.0001014865
0.0001518433
0.0001023504
0.0001021928
0.0001020363
0.0001018756
0.0001017261
0.0001522661
0.0001517874
0.0001025364
0.0001023868
0.0001022388
0.0001020881
0.000101951
0.0001526502
0.0001522841
0.0001516745
0.0001027242
0.0001025825
0.0001024424
0.0001023007
0.0001021728
0.0001530139
0.0001527186
0.000152308
0.0001515109
0.000102895
0.0001027596
0.0001026255
0.0001024901
0.0001023678
0.0001533249
0.0001530686
0.0001527585
0.0001522874
0.000151289
0.0001030516
0.000102922
0.0001027932
0.0001026632
0.0001025448
0.0001536036
0.0001533707
0.0001531125
0.0001527848
0.0001522621
0.0003680418
0.000103193
0.0001030687
0.0001029447
0.0001028192
0.000102704
0.0001538513
0.000153633
0.000153402
0.0001531395
0.0001528009
0.0003707382
0.0003679028
0.0001033209
0.0001032014
0.0001030819
0.0001029606
0.0001028482
0.0001540746
0.0001538658
0.00015365
0.0001534184
0.0001531559
0.0003720942
0.0003707515
0.000367998
0.0001034361
0.0001033212
0.000103206
0.0001030887
0.0001029789
0.0001542767
0.0001540749
0.0001538681
0.0001536521
0.0001534225
0.0003729279
0.0003720895
0.0003708519
0.000368232
0.0001035392
0.0001034288
0.0001033177
0.0001032042
0.0001030971
0.0001544597
0.0001542639
0.0001540634
0.0001538561
0.0001536416
0.0003735343
0.0003728771
0.0003721179
0.0003709733
0.0003686336
0.0001036309
0.0001035249
0.0001034178
0.0001033081
0.0001032038
0.0001546252
0.000154435
0.0001542399
0.0001540385
0.0001538318
0.0003740293
0.0003734442
0.0003728453
0.0003721353
0.0003711524
0.0009952542
0.0001037116
0.0001036098
0.0001035067
0.0001034007
0.0001032992
0.0001547737
0.000154589
0.0001543991
0.0001542026
0.000154001
0.0003744581
0.0003739079
0.0003733692
0.0003727978
0.0003721868
0.00100323
0.0009983717
0.0001037839
0.0001036862
0.000103587
0.0001034848
0.0001033863
0.0001549098
0.0001547306
0.0001545459
0.0001543544
0.0001541575
0.0003748524
0.0003743242
0.0003738139
0.0003732934
0.0003728003
0.001006454
0.001004318
0.001001409
0.0001038492
0.0001037555
0.00010366
0.0001035613
0.0001034656
0.0001550341
0.0001548602
0.0001546804
0.0001544935
0.0001543007
0.0003752117
0.0003746934
0.0003741826
0.0003736612
0.0003731429
0.0001039188
0.0001038293
0.0001037378
0.0001036431
0.0001035507
0.0001551677
0.000155
0.0001548261
0.000154645
0.0001544575
0.0003756065
0.0003751041
0.0003746068
0.0003740996
0.0003735951
0.0001039908
0.0001039056
0.0001038183
0.0001037277
0.0001036389
0.0001553063
0.000155145
0.0001549775
0.0001548026
0.0001546212
0.0003760183
0.0003755312
0.0003750464
0.0003745508
0.000374055
0.0001040642
0.0001039834
0.0001039004
0.000103814
0.0001037291
0.0001554483
0.0001552938
0.000155133
0.0001549648
0.0001547901
0.000376444
0.0003759721
0.0003755004
0.0003750167
0.0003745302
0.0001041372
0.0001040608
0.0001039822
0.0001039002
0.0001038193
0.0001555903
0.0001554427
0.0001552889
0.0001551277
0.00015496
0.0003768728
0.000376416
0.0003759573
0.0003754852
0.0003750078
0.0001019684
0.0001017911
0.0001016115
0.0001014202
0.0001012461
0.0001021488
0.0001019813
0.0001018143
0.0001016408
0.0001014791
0.0001518789
0.0001023269
0.0001021679
0.00010201
0.0001018487
0.0001017013
0.0001522493
0.0001518552
0.0001025052
0.000102354
0.0001022042
0.0001020523
0.000101915
0.0001526051
0.0001522752
0.0001518047
0.0001026829
0.0001025391
0.0001023965
0.0001022524
0.0001021222
0.0001529392
0.0001526567
0.0001522966
0.0001516918
0.0001028627
0.0001027261
0.0001025907
0.000102454
0.0001023304
0.000153269
0.0001530181
0.0001527274
0.0001523189
0.0001515329
0.0001030267
0.0001028962
0.0001027665
0.0001026354
0.000102516
0.0001535594
0.0001533273
0.0001530746
0.0001527654
0.0001523003
0.0003685647
0.0001031772
0.0001030524
0.0001029279
0.0001028018
0.000102686
0.0001538235
0.0001536049
0.0001533749
0.000153117
0.0001527931
0.0003708222
0.0003682789
0.0001033133
0.0001031936
0.0001030738
0.0001029522
0.0001028395
0.0001540612
0.000153852
0.0001536361
0.0001534051
0.0001531452
0.0003720873