/*--------------------------------*- C++ -*----------------------------------*\
| =========                 |                                                 |
| \\      /  F ield         | OpenFOAM: The Open Source CFD Toolbox           |
|  \\    /   O peration     | Version:  2306                                  |
|   \\  /    A nd           | Website:  www.openfoam.com                      |
|    \\/     M anipulation  |                                                 |
\*---------------------------------------------------------------------------*/
FoamFile
{
    version     2.0;
    format      ascii;
    arch        "LSB;label=32;scalar=64";
    class       volScalarField;
    location    "0.6/fuel";
    object      eta.fuel;
}
// * * * * * * * * * * * * * * * * * * * * * * * * * * * * * * * * * * * * * //

dimensions      [1 2 -3 0 0 -1 0];

internalField   nonuniform List<scalar> 
16000
(
0.1126163
0.1131111
0.1073277
0.1089436
0.114084
0.1076708
0.1094105
0.102705
0.103951
0.1062993
0.1155091
0.1083303
0.1103279
0.1029797
0.1042757
0.1067478
0.09895283
0.0995875
0.1015039
0.1046483
0.1172767
0.1092627
0.111671
0.1035019
0.1048993
0.1076288
0.09918625
0.09984806
0.101816
0.1050874
0.0958081
0.09604706
0.09731781
0.09995623
0.1039695
0.1190707
0.1103545
0.1133359
0.1042267
0.1057805
0.1089192
0.09962638
0.1003428
0.102415
0.1059502
0.09601298
0.09626874
0.09756841
0.1002612
0.1044078
0.09307829
0.09308012
0.0939249
0.09586981
0.09928944
0
0.1202337
0.1113749
0.1150244
0.1050485
0.1068111
0.1105202
0.1002286
0.1010289
0.1032615
0.1072157
0.09639701
0.09668627
0.09804389
0.1008465
0.1052702
0.09326187
0.09327494
0.09413825
0.09611451
0.09959259
0
0.09065222
0.09050408
0.09108337
0.09256339
0.09522718
0
0
0.1208318
0.1119755
0.1161102
0.1057774
0.1077728
0.1121464
0.1008941
0.1018057
0.1042512
0.1087898
0.09691629
0.09725704
0.09870314
0.101674
0.1065379
0.09360444
0.09363969
0.09453978
0.09657866
0.1001747
0
0.09081934
0.09067885
0.091271
0.09277168
0.0954699
0
0
0.08845437
0.08821356
0.08861671
0.08979734
0.09194804
0
0
0
0.1210931
0.1122449
0.1166618
0.1061731
0.1083343
0.1131871
0.1014584
0.1024933
0.1051745
0.110395
0.09747777
0.09788668
0.09944893
0.1026422
0.1081213
0.09406304
0.09413236
0.09508837
0.09722223
0.1009985
0
0.09113014
0.09100459
0.09162199
0.09316352
0.0959304
0
0
0.08860835
0.08837285
0.08878517
0.08998054
0.09215443
0
0
0
0.0864357
0.08613699
0.08642322
0.08739771
0.08920904
0
0
0
0
0.1211852
0.1123392
0.1168984
0.1063234
0.108583
0.1137125
0.10174
0.1028632
0.10571
0.1114212
0.09793426
0.09841874
0.100108
0.1035463
0.1097458
0.09454946
0.09466382
0.09569273
0.09795019
0.1019641
0
0.09154269
0.09144011
0.09209572
0.09369875
0.09656918
0
0
0.08889403
0.08866871
0.08909883
0.09032307
0.09254271
0
0
0
0.08657893
0.08628392
0.08657686
0.08756222
0.08939048
0
0
0
0
0.08456091
0.08422797
0.08443387
0.08526442
0.08683531
0
0
0
0
0
0.1211852
0.1123631
0.11698
0.1063562
0.1086677
0.1139358
0.1018239
0.1030012
0.1059452
0.1119397
0.09814212
0.0986812
0.1004596
0.1040684
0.1107875
0.0949297
0.09509397
0.09620202
0.09859305
0.1028676
0
0.09197292
0.09190074
0.09260581
0.09428796
0.09729215
0
0
0.08927046
0.08906086
0.08951782
0.09078518
0.09307316
0
0
0
0.08684419
0.08655616
0.08686197
0.08786839
0.08972969
0
0
0
0
0.08469516
0.08436479
0.08457571
0.08541452
0.0869982
0
0
0
0
0
0.08280405
0.08245314
0.08260402
0.08332971
0.08472645
0
0
0
0
0
0
0.1210931
0.1123631
0.11698
0.1063546
0.1086881
0.114012
0.1018221
0.1030293
0.106024
0.1121606
0.09818342
0.09875693
0.100589
0.1042969
0.1113179
0.09508629
0.09528683
0.09645052
0.09893368
0.1033885
0
0.09229717
0.09225877
0.09301706
0.0947835
0.09793077
0
0
0.08965723
0.08946851
0.08995997
0.09128217
0.09365707
0
0
0
0.08719155
0.08691434
0.08723945
0.08827711
0.0901873
0
0
0
0
0.0849435
0.08461786
0.08483827
0.0856929
0.0873013
0
0
0
0
0
0.08293067
0.08258151
0.0827362
0.08346834
0.08487506
0
0
0
0
0
0
0.08114538
0.08078802
0.08090159
0.08154981
0.08281469
0
0
0
0
0
0
0
0.1208318
0.1123392
0.1168984
0.1063546
0.1086881
0.114012
0.1018059
0.1030262
0.1060424
0.1122363
0.09815942
0.0987526
0.1006138
0.1043732
0.1115472
0.0950984
0.09532226
0.09652006
0.09905766
0.103617
0
0.0924169
0.09240315
0.0931987
0.09502289
0.09826737
0
0
0.08993904
0.08977359
0.09030189
0.09168159
0.09414762
0
0
0
0.08754383
0.08728104
0.08763084
0.08870778
0.09067922
0
0
0
0
0.08526697
0.08494869
0.08518327
0.08606122
0.08770588
0
0
0
0
0
0.08316479
0.08281871
0.08298045
0.0837248
0.08515063
0
0
0
0
0
0
0.08126546
0.08090924
0.08102572
0.08167906
0.08295196
0
0
0
0
0
0
0
0.07956934
0.07921402
0.07930311
0.07989334
0.08105633
0
0
0
0
0
0
0
0
0.1202337
0.1122449
0.1166618
0.1063562
0.1086677
0.1139358
0.1018059
0.1030262
0.1060424
0.1122363
0.09813374
0.0987359
0.1006098
0.104391
0.1116273
0.09505939
0.09529688
0.09651376
0.09908052
0.1036942
0
0.0924085
0.09241089
0.09322953
0.09508818
0.09838923
0
0
0.09003154
0.0898831
0.090437
0.09185561
0.0943826
0
0
0
0.08779269
0.08754604
0.08792193
0.08903942
0.09107372
0
0
0
0
0.0855913
0.08528293
0.08553547
0.0864424
0.08813186
0
0
0
0
0
0.08346833
0.08312711
0.08329935
0.08406153
0.08551514
0
0
0
0
0
0
0.08148743
0.08113309
0.08125483
0.08191775
0.08320582
0
0
0
0
0
0
0
0.07968371
0.07932909
0.0794204
0.08001477
0.08118431
0
0
0
0
0
0
0
0
0.07806429
0.07771646
0.07779073
0.07833735
0.07942007
0
0
0
0
0
0
0
0
0
0.1190707
0.1119755
0.1161102
0.1063234
0.108583
0.1137125
0.1018221
0.1030293
0.106024
0.1121606
0.09813374
0.0987359
0.1006098
0.104391
0.1116273
0.09502741
0.09527122
0.09649668
0.0990761
0.1037127
0
0.09235922
0.09237122
0.09320295
0.09508043
0.09841146
0
0
0.09000851
0.08987138
0.09044121
0.09188303
0.09444547
0
0
0
0.08786469
0.08762983
0.08802362
0.08916807
0.09124358
0
0
0
0
0.08581406
0.08551685
0.08578814
0.08672445
0.08845889
0
0
0
0
0
0.08376968
0.08343508
0.08362053
0.08440458
0.08589202
0
0
0
0
0
0
0.08177409
0.08142278
0.08155233
0.08222912
0.08353906
0
0
0
0
0
0
0
0.07989515
0.07954156
0.0796368
0.08023878
0.08142061
0
0
0
0
0
0
0
0
0.07817356
0.07782617
0.07790216
0.07845215
0.07954033
0
0
0
0
0
0
0
0
0
0.07662058
0.07628446
0.07635043
0.07686445
0.07788307
0
0
0
0
0
0
0
0
0
0
0.1172767
0.1113749
0.1150244
0.1061731
0.1083343
0.1131871
0.1018239
0.1030012
0.1059452
0.1119397
0.09815942
0.0987526
0.1006138
0.1043732
0.1115472
0.09502741
0.09527122
0.09649668
0.0990761
0.1037127
0
0.092323
0.09233953
0.09317722
0.09506304
0.098407
0
0
0.08995216
0.08982189
0.09040085
0.09185541
0.09443679
0
0
0
0.08783113
0.0876042
0.08800913
0.08916952
0.09126872
0
0
0
0
0.08587037
0.08558131
0.08586521
0.08682058
0.08858376
0
0
0
0
0
0.08397145
0.08364442
0.08384345
0.08464921
0.08616982
0
0
0
0
0
0
0.08205615
0.08170917
0.08184842
0.08254201
0.08387817
0
0
0
0
0
0
0
0.08016722
0.07981543
0.07991647
0.08052937
0.08172876
0
0
0
0
0
0
0
0
0.07837569
0.07802878
0.07810773
0.07866383
0.07976212
0
0
0
0
0
0
0
0
0
0.07672535
0.07638938
0.07645674
0.07697356
0.07799678
0
0
0
0
0
0
0
0
0
0
0.075231
0.07490895
0.07497179
0.07546093
0.07642802
0
0
0
0
0
0
0
0
0
0
0.1155091
0.1103545
0.1133359
0.1057774
0.1077728
0.1121464
0.10174
0.1028632
0.10571
0.1114212
0.09818342
0.09875693
0.100589
0.1042969
0.1113179
0.09505939
0.09529688
0.09651376
0.09908052
0.1036942
0
0.092323
0.09233953
0.09317722
0.09506304
0.098407
0
0
0.08991314
0.08978613
0.09036928
0.09182951
0.09441915
0
0
0
0.08776999
0.08754796
0.08795929
0.08912842
0.09124019
0
0
0
0
0.08582916
0.08554569
0.08583737
0.08680383
0.0885832
0
0
0
0
0
0.08401561
0.08369409
0.08390205
0.08472144
0.08626258
0
0
0
0
0
0
0.08224061
0.08189879
0.08204786
0.08275772
0.08411892
0
0
0
0
0
0
0
0.08043289
0.08008372
0.08019199
0.08081792
0.08203804
0
0
0
0
0
0
0
0
0.07863512
0.07828898
0.07837232
0.07893715
0.08004974
0
0
0
0
0
0
0
0
0
0.0769194
0.07658326
0.07665293
0.07717475
0.0782064
0
0
0
0
0
0
0
0
0
0
0.0753318
0.07500965
0.07507354
0.07556509
0.07653612
0
0
0
0
0
0
0
0
0
0
0.07388911
0.07358323
0.07364618
0.07411668
0.07504133
0
0
0
0
0
0
0
0
0
0
0.114084
0.1092627
0.111671
0.1050485
0.1068111
0.1105202
0.1014584
0.1024933
0.1051745
0.110395
0.09814212
0.0986812
0.1004596
0.1040684
0.1107875
0.0950984
0.09532226
0.09652006
0.09905766
0.103617
0
0.09235922
0.09237122
0.09320295
0.09508043
0.09841146
0
0
0.08991314
0.08978613
0.09036928
0.09182951
0.09441915
0
0
0
0.08772916
0.08750949
0.08792377
0.08909681
0.09121404
0
0
0
0
0.08576481
0.08548486
0.08578102
0.08675349
0.08854131
0
0
0
0
0
0.08396883
0.08365125
0.08386464
0.08469174
0.08624407
0
0
0
0
0
0
0.08227512
0.08193706
0.08209237
0.08281206
0.08418813
0
0
0
0
0
0
0
0.08060325
0.0802571
0.08037262
0.08101083
0.0822502
0
0
0
0
0
0
0
0
0.07888697
0.07854193
0.07863061
0.07920574
0.08033496
0
0
0
0
0
0
0
0
0
0.07716792
0.07683162
0.07690451
0.07743345
0.07847695
0
0
0
0
0
0
0
0
0
0
0.07551871
0.07519596
0.07526142
0.07575719
0.07673538
0
0
0
0
0
0
0
0
0
0
0.07398636
0.0736802
0.07374391
0.07421641
0.07514453
0
0
0
0
0
0
0
0
0
0
0.07258993
0.07230127
0.07236725
0.07282332
0.07371295
0
0
0
0
0
0
0
0
0
0
0.1131111
0.1083303
0.1103279
0.1042267
0.1057804
0.1089192
0.1008941
0.1018057
0.1042512
0.1087898
0.09793426
0.09841874
0.100108
0.1035463
0.1097458
0.09508629
0.09528683
0.09645052
0.09893368
0.1033885
0
0.0924085
0.09241089
0.09322953
0.09508818
0.09838923
0
0
0.08995216
0.08982189
0.09040085
0.09185541
0.09443679
0
0
0
0.08772916
0.08750949
0.08792377
0.08909681
0.09121404
0
0
0
0
0.08572288
0.08544465
0.08574287
0.08671801
0.08850948
0
0
0
0
0
0.08390236
0.08358735
0.08380387
0.08463506
0.08619307
0
0
0
0
0
0
0.08222433
0.08188896
0.08204806
0.08277311
0.0841569
0
0
0
0
0
0
0
0.08063044
0.08028633
0.08040629
0.08105157
0.08230184
0
0
0
0
0
0
0
0
0.07904577
0.0787021
0.07879577
0.07938043
0.08052462
0
0
0
0
0
0
0
0
0
0.07740795
0.07707165
0.07714819
0.07768535
0.07874247
0
0
0
0
0
0
0
0
0
0
0.07575767
0.07543413
0.07550174
0.07600329
0.07699151
0
0
0
0
0
0
0
0
0
0
0.07416694
0.07385984
0.07392459
0.07440047
0.07533483
0
0
0
0
0
0
0
0
0
0
0.07268396
0.07239491
0.07246142
0.07291915
0.07381179
0
0
0
0
0
0
0
0
0
0
0.07132885
0.07105847
0.07112926
0.07157469
0.07243459
0
0
0
0
0
0
0
0
0
0
0.1126163
0.1076708
0.1094105
0.1035019
0.1048993
0.1076288
0.1002286
0.1010289
0.1032615
0.1072157
0.09747777
0.09788668
0.09944893
0.1026422
0.1081213
0.0949297
0.09509397
0.09620202
0.09859305
0.1028676
0
0.0924169
0.09240315
0.0931987
0.09502289
0.09826737
0
0
0.09000851
0.08987138
0.09044121
0.09188303
0.09444547
0
0
0
0.08776999
0.08754796
0.08795929
0.08912842
0.09124019
0
0
0
0
0.08572288
0.08544465
0.08574287
0.08671801
0.08850948
0
0
0
0
0
0.0838598
0.08354606
0.08376403
0.08459701
0.08615741
0
0
0
0
0
0
0.08215666
0.08182304
0.08198434
0.08271213
0.08409967
0
0
0
0
0
0
0
0.08057701
0.08023446
0.08035697
0.08100594
0.08226154
0
0
0
0
0
0
0
0
0.07906732
0.07872451
0.07882087
0.07941071
0.08056292
0
0
0
0
0
0
0
0
0
0.07755713
0.07722103
0.0773008
0.07784506
0.07891418
0
0
0
0
0
0
0
0
0
0
0.07598748
0.07566312
0.07573315
0.07624104
0.07724056
0
0
0
0
0
0
0
0
0
0
0.07439748
0.07408907
0.07415523
0.07463568
0.07557854
0
0
0
0
0
0
0
0
0
0
0.07285883
0.07256864
0.07263577
0.07309625
0.07399416
0
0
0
0
0
0
0
0
0
0
0.07141994
0.07114909
0.07122026
0.07166707
0.07252957
0
0
0
0
0
0
0
0
0
0
0.07010225
0.06985053
0.06992786
0.07036522
0.07120013
0
0
0
0
0
0
0
0
0
0
0.1073277
0.1089436
0.1029797
0.1042757
0.1067478
0.09962638
0.1003428
0.102415
0.1059502
0.09691629
0.09725704
0.09870314
0.101674
0.1065379
0.09454946
0.09466382
0.09569273
0.09795019
0.1019641
0
0.09229717
0.09225877
0.09301706
0.0947835
0.09793077
0
0
0.09003154
0.0898831
0.090437
0.09185561
0.0943826
0
0
0
0.08783113
0.0876042
0.08800913
0.08916952
0.09126872
0
0
0
0
0.08576481
0.08548486
0.08578102
0.08675349
0.08854131
0
0
0
0
0
0.0838598
0.08354606
0.08376403
0.08459701
0.08615741
0
0
0
0
0
0
0.08211388
0.08178113
0.08194346
0.08267243
0.08406149
0
0
0
0
0
0
0
0.08050887
0.0801674
0.08029132
0.08094212
0.08220012
0
0
0
0
0
0
0
0
0.07901225
0.07867021
0.07876799
0.07936028
0.08051612
0
0
0
0
0
0
0
0
0
0.07757435
0.07723824
0.07731947
0.07786711
0.07894226
0
0
0
0
0
0
0
0
0
0
0.07612861
0.07580356
0.07587554
0.07638864
0.07739753
0
0
0
0
0
0
0
0
0
0
0
0.07461841
0.07430854
0.07437617
0.07486157
0.07581364
0
0
0
0
0
0
0
0
0
0
0.07308177
0.07279002
0.07285792
0.07332209
0.07422711
0
0
0
0
0
0
0
0
0
0
0.07158959
0.07131748
0.071389
0.07183804
0.07270508
0
0
0
0
0
0
0
0
0
0
0.07019063
0.06993838
0.07001598
0.07045454
0.07129173
0
0
0
0
0
0
0
0
0
0
0.06890724
0.06867409
0.06875898
0.06919074
0.0700041
0
0
0
0
0
0
0
0
0
0
0.102705
0.103951
0.1062993
0.09918625
0.09984806
0.101816
0.1050874
0.09639701
0.09668627
0.09804389
0.1008465
0.1052702
0.09406304
0.09413236
0.09508837
0.09722223
0.1009985
0
0.09197292
0.09190074
0.09260581
0.09428796
0.09729215
0
0
0.08993904
0.08977359
0.09030189
0.09168159
0.09414762
0
0
0
0.08786469
0.08762983
0.08802362
0.08916807
0.09124358
0
0
0
0
0.08582916
0.08554569
0.08583737
0.08680383
0.0885832
0
0
0
0
0
0.08390236
0.08358735
0.08380387
0.08463506
0.08619307
0
0
0
0
0
0
0.08211388
0.08178113
0.08194346
0.08267243
0.08406149
0
0
0
0
0
0
0
0.08046617
0.08012528
0.08024983
0.08090141
0.08216032
0
0
0
0
0
0
0
0
0.07894414
0.07860271
0.07870125
0.07929459
0.08045192
0
0
0
0
0
0
0
0
0
0.07751838
0.07718244
0.07726431
0.07781327
0.07889079
0
0
0
0
0
0
0
0
0
0
0.07614252
0.07581679
0.07588933
0.07640454
0.07741757
0
0
0
0
0
0
0
0
0
0
0
0.07475268
0.07444152
0.07451011
0.07499932
0.0759587
0
0
0
0
0
0
0
0
0
0
0
0
0.07329473
0.07300122
0.07306984
0.07353787
0.07445053
0
0
0
0
0
0
0
0
0
0
0.07180561
0.07153177
0.0716037
0.07205568
0.07292881
0
0
0
0
0
0
0
0
0
0
0.0703555
0.07010189
0.07017965
0.07062009
0.07146119
0
0
0
0
0
0
0
0
0
0
0.06899306
0.06875939
0.06884446
0.06927726
0.07009266
0
0
0
0
0
0
0
0
0
0
0.06773975
0.0675265
0.06761945
0.06804728
0.06884234
0
0
0
0
0
0
0
0
0
0
0.09895283
0.0995875
0.1015039
0.1046483
0.09601298
0.09626874
0.09756841
0.1002612
0.1044078
0.09360444
0.09363969
0.09453978
0.09657866
0.1001747
0
0.09154269
0.09144011
0.09209572
0.09369875
0.09656918
0
0
0.08965723
0.08946851
0.08995997
0.09128217
0.09365707
0
0
0
0.08779269
0.08754604
0.08792193
0.08903942
0.09107372
0
0
0
0
0.08587037
0.08558131
0.08586521
0.08682058
0.08858376
0
0
0
0
0
0.08396883
0.08365125
0.08386464
0.08469174
0.08624407
0
0
0
0
0
0
0.08215666
0.08182304
0.08198434
0.08271213
0.08409967
0
0
0
0
0
0
0
0.08046617
0.08012528
0.08024983
0.08090141
0.08216032
0
0
0
0
0
0
0
0
0.07890176
0.07856067
0.07865956
0.0792533
0.08041115
0
0
0
0
0
0
0
0
0
0.0774507
0.077115
0.07719717
0.07774655
0.07882479
0
0
0
0
0
0
0
0
0
0
0.07608618
0.07576021
0.0758328
0.07634854
0.07736281
0
0
0
0
0
0
0
0
0
0
0
0.07476386
0.07445175
0.07452021
0.07501057
0.07597276
0
0
0
0
0
0
0
0
0
0
0
0
0.07342302
0.07312786
0.07319676
0.07366749
0.07458592
0
0
0
0
0
0
0
0
0
0
0
0
0
0.07201145
0.07173556
0.07180781
0.07226276
0.07314227
0
0
0
0
0
0
0
0
0
0
0.0705653
0.07030973
0.07038764
0.07083054
0.07167684
0
0
0
0
0
0
0
0
0
0
0.06915348
0.06891844
0.0690035
0.06943791
0.07025679
0
0
0
0
0
0
0
0
0
0
0.06782309
0.06760941
0.06770251
0.06813125
0.06892815
0
0
0
0
0
0
0
0
0
0
0.06659766
0.06640394
0.06650679
0.06693182
0.06771097
0
0
0
0
0
0
0
0
0
0
0.0958081
0.09604706
0.09731781
0.09995623
0.1039695
0.09326187
0.09327494
0.09413825
0.09611451
0.09959259
0
0.09113014
0.09100459
0.09162199
0.09316352
0.0959304
0
0
0.08927046
0.08906086
0.08951782
0.09078518
0.09307316
0
0
0
0.08754383
0.08728104
0.08763084
0.08870778
0.09067922
0
0
0
0
0.08581406
0.08551685
0.08578814
0.08672445
0.08845889
0
0
0
0
0
0.08401561
0.08369409
0.08390205
0.08472144
0.08626258
0
0
0
0
0
0
0.08222433
0.08188896
0.08204806
0.08277311
0.0841569
0
0
0
0
0
0
0
0.08050887
0.0801674
0.08029132
0.08094212
0.08220012
0
0
0
0
0
0
0
0
0.07890176
0.07856067
0.07865956
0.0792533
0.08041115
0
0
0
0
0
0
0
0
0
0.07740881
0.07707327
0.07715556
0.07770507
0.07878345
0
0
0
0
0
0
0
0
0
0
0.07601917
0.07569321
0.07576574
0.07628146
0.07729583
0
0
0
0
0
0
0
0
0
0
0
0.07470743
0.0743949
0.074463
0.0749533
0.07591593
0
0
0
0
0
0
0
0
0
0
0
0
0.07343229
0.07313563
0.07320409
0.07367525
0.07459548
0
0
0
0
0
0
0
0
0
0
0
0
0
0.07213483
0.07185668
0.07192877
0.07238565
0.0732697
0
0
0
0
0
0
0
0
0
0
0
0
0
0
0.07076498
0.0705069
0.07058473
0.07103009
0.07188174
0
0
0
0
0
0
0
0
0
0
0.06935753
0.06912048
0.06920537
0.06964188
0.07046536
0
0
0
0
0
0
0
0
0
0
0.06797925
0.06776429
0.0678573
0.06828743
0.06908745
0
0
0
0
0
0
0
0
0
0
0.06667889
0.06648449
0.06658756
0.06701343
0.06779426
0
0
0
0
0
0
0
0
0
0
0.0654799
0.06530443
0.06541732
0.06584195
0.06660697
0
0
0
0
0
0
0
0
0
0
0.09307829
0.09308012
0.0939249
0.09586981
0.09928944
0
0.09081934
0.09067885
0.091271
0.09277168
0.0954699
0
0
0.08889403
0.08866871
0.08909883
0.09032307
0.09254271
0
0
0
0.08719155
0.08691434
0.08723945
0.08827711
0.0901873
0
0
0
0
0.0855913
0.08528293
0.08553547
0.0864424
0.08813186
0
0
0
0
0
0.08397145
0.08364442
0.08384345
0.08464921
0.08616982
0
0
0
0
0
0
0.08227512
0.08193706
0.08209237
0.08281206
0.08418813
0
0
0
0
0
0
0
0.08057701
0.08023446
0.08035697
0.08100594
0.08226154
0
0
0
0
0
0
0
0
0.07894414
0.07860271
0.07870125
0.07929459
0.08045192
0
0
0
0
0
0
0
0
0
0.07740881
0.07707327
0.07715556
0.07770507
0.07878345
0
0
0
0
0
0
0
0
0
0
0.07597783
0.07565195
0.07572444
0.07624007
0.07725432
0
0
0
0
0
0
0
0
0
0
0
0.07464125
0.07432856
0.07439639
0.07488634
0.07584864
0
0
0
0
0
0
0
0
0
0
0
0
0.07337636
0.07307876
0.07314669
0.07361739
0.07453747
0
0
0
0
0
0
0
0
0
0
0
0
0
0.07214285
0.07186277
0.07193385
0.07239082
0.0732759
0
0
0
0
0
0
0
0
0
0
0
0
0
0
0.07088417
0.07062351
0.07070052
0.07114727
0.07200257
0
0
0
0
0
0
0
0
0
0
0
0
0
0
0
0.06955142
0.06931194
0.0693962
0.06983467
0.07066286
0
0
0
0
0
0
0
0
0
0
0.06817797
0.06796095
0.06805367
0.06848548
0.06928964
0
0
0
0
0
0
0
0
0
0
0.0668315
0.06663538
0.06673839
0.06716551
0.06794915
0
0
0
0
0
0
0
0
0
0
0.06555923
0.06538301
0.06549584
0.06592135
0.06668794
0
0
0
0
0
0
0
0
0
0
0.06438691
0.0642271
0.06434922
0.06477412
0.06552801
0
0
0
0
0
0
0
0
0
0
0.09065222
0.09050408
0.09108337
0.09256339
0.09522718
0
0
0.08860835
0.08837285
0.08878517
0.08998054
0.09215443
0
0
0
0.08684419
0.08655616
0.08686197
0.08786839
0.08972969
0
0
0
0
0.08526697
0.08494869
0.08518327
0.08606122
0.08770588
0
0
0
0
0
0.08376968
0.08343508
0.08362053
0.08440458
0.08589202
0
0
0
0
0
0
0.08224061
0.08189879
0.08204786
0.08275772
0.08411892
0
0
0
0
0
0
0
0.08063044
0.08028633
0.08040629
0.08105157
0.08230184
0
0
0
0
0
0
0
0
0.07901225
0.07867021
0.07876799
0.07936028
0.08051612
0
0
0
0
0
0
0
0
0
0.0774507
0.077115
0.07719717
0.07774655
0.07882479
0
0
0
0
0
0
0
0
0
0
0.07597783
0.07565195
0.07572444
0.07624007
0.07725432
0
0
0
0
0
0
0
0
0
0
0
0.07460057
0.07428784
0.07435555
0.07484525
0.07580723
0
0
0
0
0
0
0
0
0
0
0
0
0.07331133
0.07301325
0.07308076
0.0735509
0.07447032
0
0
0
0
0
0
0
0
0
0
0
0
0
0.07208771
0.07180646
0.0718765
0.07233284
0.07321735
0
0
0
0
0
0
0
0
0
0
0
0
0
0
0.07089123
0.07062857
0.0707041
0.07115034
0.07200629
0
0
0
0
0
0
0
0
0
0
0
0
0
0
0
0.06966679
0.06942474
0.06950779
0.0699469
0.0707781
0
0
0
0
0
0
0
0
0
0
0
0
0
0
0
0
0.06836684
0.06814704
0.06823913
0.06867225
0.06948049
0
0
0
0
0
0
0
0
0
0
0.06702573
0.06682706
0.06692966
0.06735825
0.06814551
0
0
0
0
0
0
0
0
0
0
0.0657086
0.06553058
0.06564287
0.06606959
0.0668388
0
0
0
0
0
0
0
0
0
0
0.06446445
0.06430388
0.06442586
0.06485133
0.0656068
0
0
0
0
0
0
0
0
0
0
0.06331594
0.0631725
0.06330172
0.06372656
0.06447056
0
0
0
0
0
0
0
0
0
0
0.08845437
0.08821356
0.08861671
0.08979734
0.09194804
0
0
0
0.08657893
0.08628392
0.08657686
0.08756222
0.08939048
0
0
0
0
0.0849435
0.08461786
0.08483827
0.0856929
0.0873013
0
0
0
0
0
0.08346833
0.08312711
0.08329935
0.08406153
0.08551514
0
0
0
0
0
0
0.08205615
0.08170917
0.08184842
0.08254201
0.08387817
0
0
0
0
0
0
0
0.08060325
0.0802571
0.08037262
0.08101083
0.0822502
0
0
0
0
0
0
0
0
0.07906732
0.07872451
0.07882087
0.07941071
0.08056292
0
0
0
0
0
0
0
0
0
0.07751838
0.07718244
0.07726431
0.07781327
0.07889079
0
0
0
0
0
0
0
0
0
0
0.07601917
0.07569321
0.07576574
0.07628146
0.07729583
0
0
0
0
0
0
0
0
0
0
0
0.07460057
0.07428784
0.07435555
0.07484525
0.07580723
0
0
0
0
0
0
0
0
0
0
0
0
0.07327144
0.07297317
0.07304045
0.07351028
0.07442924
0
0
0
0
0
0
0
0
0
0
0
0
0
0.07202395
0.07174209
0.07181139
0.07226704
0.07315071
0
0
0
0
0
0
0
0
0
0
0
0
0
0
0.07083697
0.0705731
0.07064736
0.07109246
0.07194769
0
0
0
0
0
0
0
0
0
0
0
0
0
0
0
0.06967321
0.069429
0.06951049
0.06994861
0.07077982
0
0
0
0
0
0
0
0
0
0
0
0
0
0
0
0
0.06847923
0.06825635
0.06834717
0.06878048
0.06959091
0
0
0
0
0
0
0
0
0
0
0
0
0
0
0
0
0
0.0672104
0.06700851
0.06711004
0.06753986
0.06833045
0
0
0
0
0
0
0
0
0
0
0.06589879
0.06571809
0.06582941
0.06625741
0.06702993
0
0
0
0
0
0
0
0
0
0
0.06461081
0.06444843
0.06456975
0.06499589
0.06575388
0
0
0
0
0
0
0
0
0
0
0.0633918
0.0632476
0.06337665
0.06380196
0.06454719
0
0
0
0
0
0
0
0
0
0
0.06226555
0.06213803
0.06227547
0.0626986
0.0634329
0
0
0
0
0
0
0
0
0
0
0.0864357
0.08613699
0.08642322
0.08739771
0.08920904
0
0
0
0
0.08469516
0.08436479
0.08457571
0.08541452
0.0869982
0
0
0
0
0
0.08316479
0.08281871
0.08298045
0.0837248
0.08515063
0
0
0
0
0
0
0.08177409
0.08142278
0.08155233
0.08222912
0.08353906
0
0
0
0
0
0
0
0.08043289
0.08008372
0.08019199
0.08081792
0.08203804
0
0
0
0
0
0
0
0
0.07904577
0.0787021
0.07879577
0.07938043
0.08052462
0
0
0
0
0
0
0
0
0
0.07757435
0.07723824
0.07731947
0.07786711
0.07894226
0
0
0
0
0
0
0
0
0
0
0.07608618
0.07576021
0.0758328
0.07634854
0.07736281
0
0
0
0
0
0
0
0
0
0
0
0.07464125
0.07432856
0.07439639
0.07488634
0.07584864
0
0
0
0
0
0
0
0
0
0
0
0
0.07327144
0.07297317
0.07304045
0.07351028
0.07442924
0
0
0
0
0
0
0
0
0
0
0
0
0
0.07198489
0.07170278
0.07177172
0.07222694
0.07311009
0
0
0
0
0
0
0
0
0
0
0
0
0
0
0.0707745
0.07050998
0.07058339
0.0710275
0.07188175
0
0
0
0
0
0
0
0
0
0
0
0
0
0
0
0.06962003
0.06937445
0.06945463
0.06989139
0.07072138
0
0
0
0
0
0
0
0
0
0
0
0
0
0
0
0
0.06848558
0.06826014
0.06834922
0.06878142
0.06959135
0
0
0
0
0
0
0
0
0
0
0
0
0
0
0
0
0
0.06732047
0.06711513
0.06721485
0.06764472
0.06843697
0
0
0
0
0
0
0
0
0
0
0
0
0
0
0
0
0
0
0.06607975
0.06589568
0.06600543
0.06643413
0.0672098
0
0
0
0
0
0
0
0
0
0
0.06479728
0.0646322
0.06475235
0.06517914
0.06594016
0
0
0
0
0
0
0
0
0
0
0.06353534
0.06338935
0.06351767
0.06394348
0.06469064
0
0
0
0
0
0
0
0
0
0
0.06233986
0.06221155
0.06234879
0.06277233
0.06350773
0
0
0
0
0
0
0
0
0
0
0.0612343
0.06112237
0.06126797
0.06169092
0.06241436
0
0
0
0
0
0
0
0
0
0
0.08456091
0.08422797
0.08443387
0.08526442
0.08683531
0
0
0
0
0
0.08293067
0.08258151
0.0827362
0.08346834
0.08487506
0
0
0
0
0
0
0.08148743
0.08113309
0.08125483
0.08191775
0.08320582
0
0
0
0
0
0
0
0.08016722
0.07981543
0.07991647
0.08052937
0.08172876
0
0
0
0
0
0
0
0
0.07888697
0.07854193
0.07863061
0.07920574
0.08033496
0
0
0
0
0
0
0
0
0
0.07755713
0.07722103
0.0773008
0.07784506
0.07891418
0
0
0
0
0
0
0
0
0
0
0.07614252
0.07581679
0.07588933
0.07640454
0.07741757
0
0
0
0
0
0
0
0
0
0
0
0.07470743
0.0743949
0.074463
0.0749533
0.07591593
0
0
0
0
0
0
0
0
0
0
0
0
0.07331133
0.07301325
0.07308076
0.0735509
0.07447032
0
0
0
0
0
0
0
0
0
0
0
0
0
0.07198489
0.07170278
0.07177172
0.07222694
0.07311009
0
0
0
0
0
0
0
0
0
0
0
0
0
0
0.07073628
0.07047147
0.07054448
0.07098804
0.07184167
0
0
0
0
0
0
0
0
0
0
0
0
0
0
0
0.06955894
0.06931261
0.06939191
0.06982757
0.07065629
0
0
0
0
0
0
0
0
0
0
0
0
0
0
0
0
0.06843381
0.06820669
0.06829432
0.06872513
0.0695336
0
0
0
0
0
0
0
0
0
0
0
0
0
0
0
0
0
0.06732714
0.06711899
0.06721655
0.06764511
0.06843671
0
0
0
0
0
0
0
0
0
0
0
0
0
0
0
0
0
0
0.06618795
0.06600025
0.06610777
0.06653593
0.06731304
0
0
0
0
0
0
0
0
0
0
0
0
0
0
0
0
0
0
0
0.06497489
0.06480639
0.06492475
0.06535167
0.06611523
0
0
0
0
0
0
0
0
0
0
0.06371836
0.06356966
0.06369674
0.06412294
0.06487243
0
0
0
0
0
0
0
0
0
0
0.06248084
0.06235067
0.06248716
0.06291109
0.06364819
0
0
0
0
0
0
0
0
0
0
0.06130717
0.06119444
0.06133978
0.0617631
0.06248755
0
0
0
0
0
0
0
0
0
0
0.06022394
0.0601242
0.06027799
0.06070111
0.06141567
0
0
0
0
0
0
0
0
0
0
0.08280405
0.08245314
0.08260402
0.08332971
0.08472645
0
0
0
0
0
0
0.08126546
0.08090924
0.08102572
0.08167906
0.08295196
0
0
0
0
0
0
0
0.07989515
0.07954156
0.0796368
0.08023878
0.08142061
0
0
0
0
0
0
0
0
0.07863512
0.07828898
0.07837232
0.07893715
0.08004974
0
0
0
0
0
0
0
0
0
0.07740795
0.07707165
0.07714819
0.07768535
0.07874247
0
0
0
0
0
0
0
0
0
0
0.07612861
0.07580356
0.07587554
0.07638864
0.07739753
0
0
0
0
0
0
0
0
0
0
0
0.07476386
0.07445175
0.07452021
0.07501057
0.07597276
0
0
0
0
0
0
0
0
0
0
0
0
0.07337636
0.07307876
0.07314669
0.07361739
0.07453747
0
0
0
0
0
0
0
0
0
0
0
0
0
0.07202395
0.07174209
0.07181139
0.07226704
0.07315071
0
0
0
0
0
0
0
0
0
0
0
0
0
0
0.07073628
0.07047147
0.07054448
0.07098804
0.07184167
0
0
0
0
0
0
0
0
0
0
0
0
0
0
0
0.06952157
0.06927492
0.06935378
0.06978886
0.07061685
0
0
0
0
0
0
0
0
0
0
0
0
0
0
0
0
0.0683743
0.0681462
0.06823286
0.06866256
0.06946968
0
0
0
0
0
0
0
0
0
0
0
0
0
0
0
0
0
0.06727698
0.06706698
0.06716278
0.06758981
0.06837993
0
0
0
0
0
0
0
0
0
0
0
0
0
0
0
0
0
0
0.0661952
0.06600455
0.06610964
0.06653606
0.06731231
0
0
0
0
0
0
0
0
0
0
0
0
0
0
0
0
0
0
0
0.06508152
0.06490935
0.06502524
0.06545115
0.06621549
0
0
0
0
0
0
0
0
0
0
0
0
0
0
0
0
0
0
0
0
0.06389292
0.06374078
0.06386598
0.06429201
0.06504338
0
0
0
0
0
0
0
0
0
0
0.06266073
0.06252778
0.06266297
0.06308716
0.06382626
0
0
0
0
0
0
0
0
0
0
0.0614458
0.06133116
0.06147566
0.06189929
0.0626253
0
0
0
0
0
0
0
0
0
0
0.06029547
0.06019492
0.06034841
0.06077182
0.06148733
0
0
0
0
0
0
0
0
0
0
0.05923302
0.05914534
0.05930428
0.05972798
0.06043443
0
0
0
0
0
0
0
0
0
0
0.08114538
0.08078802
0.08090159
0.08154981
0.08281469
0
0
0
0
0
0
0
0.07968371
0.07932909
0.0794204
0.08001477
0.08118431
0
0
0
0
0
0
0
0
0.07837569
0.07802878
0.07810773
0.07866383
0.07976212
0
0
0
0
0
0
0
0
0
0.07716792
0.07683162
0.07690451
0.07743345
0.07847695
0
0
0
0
0
0
0
0
0
0
0.07598748
0.07566312
0.07573315
0.07624104
0.07724056
0
0
0
0
0
0
0
0
0
0
0.07475268
0.07444152
0.07451011
0.07499932
0.0759587
0
0
0
0
0
0
0
0
0
0
0
0
0.07343229
0.07313563
0.07320409
0.07367525
0.07459548
0
0
0
0
0
0
0
0
0
0
0
0
0
0.07208771
0.07180646
0.0718765
0.07233284
0.07321735
0
0
0
0
0
0
0
0
0
0
0
0
0
0
0.0707745
0.07050998
0.07058339
0.0710275
0.07188175
0
0
0
0
0
0
0
0
0
0
0
0
0
0
0
0.06952157
0.06927492
0.06935378
0.06978886
0.07061685
0
0
0
0
0
0
0
0
0
0
0
0
0
0
0
0
0.06833788
0.06810935
0.06819554
0.06862462
0.06943099
0
0
0
0
0
0
0
0
0
0
0
0
0
0
0
0
0
0.06721911
0.06700805
0.06710267
0.06752851
0.06831726
0
0
0
0
0
0
0
0
0
0
0
0
0
0
0
0
0
0
0.06614678
0.06595417
0.06605734
0.06648191
0.06725654
0
0
0
0
0
0
0
0
0
0
0
0
0
0
0
0
0
0
0
0.0650895
0.06491434
0.06502765
0.06545153
0.06621456
0
0
0
0
0
0
0
0
0
0
0
0
0
0
0
0
0
0
0
0
0.06399824
0.0638424
0.06396503
0.06438977
0.0651414
0
0
0
0
0
0
0
0
0
0
0
0
0
0
0
0
0
0
0
0
0.06283261
0.06269612
0.06282934
0.0632532
0.06399382
0
0
0
0
0
0
0
0
0
0
0.06162287
0.06150538
0.06164845
0.06207223
0.06280002
0
0
0
0
0
0
0
0
0
0
0.06043192
0.06032945
0.06048202
0.06090562
0.06162255
0
0
0
0
0
0
0
0
0
0
0.05930327
0.0592148
0.05937342
0.05979735
0.06050465
0
0
0
0
0
0
0
0
0
0
0.05826181
0.05818444
0.05834873
0.05877035
0.05946949
0
0
0
0
0
0
0
0
0
0
0.07956934
0.07921402
0.07930311
0.07989334
0.08105633
0
0
0
0
0
0
0
0
0.07817356
0.07782617
0.07790216
0.07845215
0.07954033
0
0
0
0
0
0
0
0
0
0.0769194
0.07658326
0.07665293
0.07717475
0.0782064
0
0
0
0
0
0
0
0
0
0
0.07575767
0.07543413
0.07550174
0.07600329
0.07699151
0
0
0
0
0
0
0
0
0
0
0.07461841
0.07430854
0.07437617
0.07486157
0.07581364
0
0
0
0
0
0
0
0
0
0
0.07342302
0.07312786
0.07319676
0.07366749
0.07458592
0
0
0
0
0
0
0
0
0
0
0
0
0
0.07214285
0.07186277
0.07193385
0.07239082
0.0732759
0
0
0
0
0
0
0
0
0
0
0
0
0
0
0.07083697
0.07057309
0.07064736
0.07109246
0.07194769
0
0
0
0
0
0
0
0
0
0
0
0
0
0
0
0.06955894
0.06931261
0.06939191
0.06982757
0.07065629
0
0
0
0
0
0
0
0
0
0
0
0
0
0
0
0
0.06833788
0.06810935
0.06819554
0.06862462
0.06943099
0
0
0
0
0
0
0
0
0
0
0
0
0
0
0
0
0
0.06718367
0.06697212
0.06706617
0.06749137
0.06827935
0
0
0
0
0
0
0
0
0
0
0
0
0
0
0
0
0
0
0.06609061
0.06589687
0.06599877
0.06642196
0.06719516
0
0
0
0
0
0
0
0
0
0
0
0
0
0
0
0
0
0
0
0.06504285
0.0648657
0.064977
0.06539888
0.06615998
0
0
0
0
0
0
0
0
0
0
0
0
0
0
0
0
0
0
0
0
0.06400708
0.06384822
0.06396822
0.06439077
0.06514077
0
0
0
0
0
0
0
0
0
0
0
0
0
0
0
0
0
0
0
0
0.06293693
0.06279663
0.06292722
0.06334965
0.06409019
0
0
0
0
0
0
0
0
0
0
0
0
0
0
0
0
0
0
0
0
0.0617924
0.06167128
0.06181223
0.06223555
0.06296463
0
0
0
0
0
0
0
0
0
0
0.06060639
0.06050106
0.06065208
0.06107564
0.06179419
0
0
0
0
0
0
0
0
0
0
0.05943764
0.0593473
0.05950495
0.05992895
0.0606375
0
0
0
0
0
0
0
0
0
0
0.05833092
0.0582527
0.05841667
0.05883847
0.05953837
0
0
0
0
0
0
0
0
0
0
0.05730941
0.05724182
0.05741006
0.05783011
0.05851967
0
0
0
0
0
0
0
0
0
0
0.07806429
0.07771646
0.07779073
0.07833735
0.07942007
0
0
0
0
0
0
0
0
0
0.07672535
0.07638938
0.07645674
0.07697356
0.07799678
0
0
0
0
0
0
0
0
0
0
0.07551871
0.07519596
0.07526142
0.07575719
0.07673538
0
0
0
0
0
0
0
0
0
0
0.07439748
0.07408907
0.07415523
0.07463568
0.07557854
0
0
0
0
0
0
0
0
0
0
0.07329473
0.07300122
0.07306984
0.07353787
0.07445053
0
0
0
0
0
0
0
0
0
0
0.07213482
0.07185668
0.07192877
0.07238565
0.0732697
0
0
0
0
0
0
0
0
0
0
0
0
0
0
0.07089123
0.07062856
0.0707041
0.07115034
0.07200629
0
0
0
0
0
0
0
0
0
0
0
0
0
0
0
0.06962002
0.06937445
0.06945463
0.06989139
0.07072138
0
0
0
0
0
0
0
0
0
0
0
0
0
0
0
0
0.0683743
0.0681462
0.06823286
0.06866256
0.06946968
0
0
0
0
0
0
0
0
0
0
0
0
0
0
0
0
0
0.06718367
0.06697212
0.06706617
0.06749137
0.06827935
0
0
0
0
0
0
0
0
0
0
0
0
0
0
0
0
0
0
0.06605616
0.0658619
0.06596318
0.06638564
0.06715805
0
0
0
0
0
0
0
0
0
0
0
0
0
0
0
0
0
0
0
0.06498839
0.06481007
0.06492005
0.06534046
0.06609995
0
0
0
0
0
0
0
0
0
0
0
0
0
0
0
0
0
0
0
0
0.06396224
0.06380137
0.06391932
0.06433978
0.06508771
0
0
0
0
0
0
0
0
0
0
0
0
0
0
0
0
0
0
0
0
0.0629468