/*--------------------------------*- C++ -*----------------------------------*\
| =========                 |                                                 |
| \\      /  F ield         | OpenFOAM: The Open Source CFD Toolbox           |
|  \\    /   O peration     | Version:  2306                                  |
|   \\  /    A nd           | Website:  www.openfoam.com                      |
|    \\/     M anipulation  |                                                 |
\*---------------------------------------------------------------------------*/
FoamFile
{
    version     2.0;
    format      ascii;
    arch        "LSB;label=32;scalar=64";
    class       volScalarField;
    location    "0.6/fuel";
    object      H2;
}
// * * * * * * * * * * * * * * * * * * * * * * * * * * * * * * * * * * * * * //

dimensions      [0 0 0 0 0 0 0];

internalField   nonuniform List<scalar> 
16000
(
0.5894587
0.5943587
0.5207895
0.589738
0.6043249
0.5239074
0.594644
0.4582332
0.5209973
0.5902845
0.6194736
0.5302054
0.6046232
0.4605023
0.5241184
0.5952025
0.4081915
0.4583883
0.5214046
0.5910906
0.6392726
0.539676
0.6197933
0.4650746
0.530423
0.6052068
0.4099496
0.4606593
0.5245319
0.596026
0.3679656
0.4083114
0.4586924
0.5220056
0.5921526
0.6608321
0.5518881
0.6396249
0.471925
0.5399045
0.6204188
0.4134846
0.4652356
0.5308495
0.6060674
0.3693747
0.4100707
0.4609673
0.525142
0.5971109
0.3350147
0.3680611
0.4085466
0.4591416
0.5227977
0.5932063
0.6774271
0.5650179
0.6612268
0.4807149
0.5521324
0.6403141
0.418765
0.4720926
0.5403518
0.6213409
0.3722034
0.4136084
0.4655514
0.5314787
0.6072012
0.3361714
0.3694711
0.4103085
0.461422
0.525946
0.5981874
0.3075306
0.3350926
0.3682486
0.4088942
0.4597337
0.5235836
0.5940802
0.6881775
0.5751086
0.6778482
0.490112
0.5652824
0.6619992
0.4255129
0.4808921
0.552611
0.6413303
0.3764185
0.4188932
0.4724211
0.541012
0.6225557
0.3384905
0.3723017
0.4138514
0.4660177
0.5323078
0.6083262
0.3084981
0.33625
0.3696604
0.4106598
0.4620214
0.5267438
0.5990802
0.284249
0.3075954
0.3352458
0.3685259
0.4093526
0.4603213
0.5242349
0.5949494
0.6943678
0.5816921
0.688613
0.4972997
0.5753844
0.6786719
0.4326939
0.4903015
0.5658009
0.6631387
0.3817878
0.4256476
0.4812396
0.5533174
0.6426694
0.3419396
0.3765198
0.4191447
0.4729062
0.5418819
0.6237613
0.3104359
0.3385705
0.3724947
0.4142105
0.4666324
0.5331305
0.6092596
0.2850708
0.3085635
0.3364045
0.3699403
0.411123
0.4626162
0.527405
0.5999683
0.264267
0.2843038
0.307723
0.3354724
0.3688917
0.4098074
0.460808
0.5248825
0.5958139
0.697171
0.5855252
0.694811
0.5019787
0.5819733
0.6894647
0.4381657
0.4974954
0.5759247
0.679887
0.3874812
0.432837
0.4906735
0.5665664
0.664641
0.346322
0.3818938
0.4259119
0.4817529
0.5542483
0.6439987
0.3133134
0.3420219
0.3767189
0.4195163
0.4735455
0.542745
0.6247635
0.2867152
0.3105024
0.3387278
0.3727801
0.4146839
0.4672423
0.5338127
0.6101887
0.264974
0.285126
0.3086921
0.3366331
0.3703095
0.4115827
0.463109
0.5280626
0.6008517
0.2469242
0.264314
0.2844118
0.3079119
0.3357714
0.3692547
0.4101841
0.4612918
0.5255264
0.5966737
0.697171
0.5872774
0.6976176
0.504702
0.585809
0.6956775
0.4417201
0.5021771
0.5825241
0.6907205
0.3918068
0.4383126
0.4978795
0.5767224
0.6814889
0.3509558
0.3875933
0.4331178
0.4912229
0.5675756
0.6661333
0.316962
0.3464077
0.382102
0.4263025
0.4824295
0.5551722
0.6451096
0.2891539
0.3133816
0.3421836
0.3770132
0.4200062
0.47418
0.5434619
0.625763
0.2663876
0.2867713
0.310633
0.3389603
0.3731565
0.4151537
0.4677478
0.5344913
0.6111134
0.2475391
0.2650213
0.2852348
0.3088824
0.3369346
0.3706759
0.4119634
0.4635988
0.5287163
0.6017304
0.2317267
0.246965
0.2644066
0.2845716
0.308161
0.3360682
0.3695552
0.4105584
0.4617726
0.5261666
0.6008333
0.6943678
0.5872774
0.6976176
0.5059474
0.5875625
0.6984907
0.4437871
0.5049016
0.5863651
0.696955
0.3946119
0.4418684
0.5025662
0.5833372
0.692376
0.354468
0.3919215
0.4386011
0.4984468
0.577774
0.6830803
0.3208112
0.3510461
0.3878136
0.4335331
0.4919476
0.5685777
0.6673922
0.292241
0.3170329
0.3465763
0.3824099
0.4268175
0.483101
0.5559429
0.6462234
0.2684818
0.2892114
0.3135157
0.3424227
0.3774013
0.4204924
0.4747067
0.5441761
0.6267596
0.2487676
0.2664356
0.2868816
0.3108264
0.3392672
0.37353
0.4155429
0.4682505
0.5351663
0.6120337
0.2322664
0.2475801
0.2651145
0.2853958
0.3091335
0.3372339
0.3709794
0.4123418
0.4640857
0.5293663
0.6059814
0.2182974
0.2317624
0.2470453
0.2645437
0.2847827
0.3084084
0.3363139
0.3698538
0.4109303
0.4622504
0.529262
0.6036942
0.6881775
0.5855252
0.694811
0.5059474
0.5875625
0.6984907
0.4447321
0.5061475
0.5881208
0.6997778
0.3962419
0.443936
0.505293
0.5871857
0.6986389
0.3567424
0.3947274
0.4421597
0.503141
0.584409
0.6940204
0.3237231
0.3545601
0.3921468
0.4390275
0.499195
0.5788182
0.6844231
0.2954916
0.3208856
0.3512237
0.3881393
0.4340809
0.492667
0.5694203
0.6686662
0.271129
0.2923006
0.3171723
0.3468257
0.3828161
0.4273288
0.4836608
0.5567141
0.64734
0.2505861
0.2685309
0.2893244
0.3137141
0.3427383
0.3777866
0.4208959
0.4752312
0.5448876
0.6277532
0.2333442
0.2488092
0.2665301
0.287045
0.3110815
0.3395717
0.3738395
0.4159299
0.4687504
0.5358377
0.616488
0.218775
0.2323023
0.2476609
0.2652526
0.2856083
0.3093828
0.3374817
0.3712808
0.4127177
0.4645695
0.5325094
0.6089185
0.2063436
0.2183289
0.2318327
0.2471642
0.2647248
0.2849922
0.3086132
0.3365579
0.3701505
0.4112998
0.4645602
0.5313841
0.6058623
0.6774271
0.5816921
0.688613
0.504702
0.585809
0.6956775
0.4447321
0.5061475
0.5881208
0.6997778
0.3969871
0.4448813
0.5065398
0.5889447
0.7014743
0.3580631
0.3963577
0.4442283
0.5058711
0.5882674
0.7003114
0.3256066
0.356835
0.3949543
0.4425902
0.503899
0.5854731
0.6954054
0.2979469
0.3237988
0.3547413
0.3924801
0.43959
0.4999378
0.5796965
0.6857824
0.2739121
0.2955541
0.3210321
0.3514866
0.3885692
0.4346247
0.4932716
0.5702704
0.6699555
0.2528819
0.2711798
0.2924178
0.3173786
0.3471547
0.3832193
0.4277548
0.4842208
0.5574859
0.6484593
0.2349383
0.2506285
0.2686275
0.2894918
0.3139759
0.3430515
0.3781062
0.4212976
0.4757535
0.5455963
0.6325721
0.2197284
0.2333806
0.248891
0.2666701
0.2872607
0.3113349
0.339824
0.3741471
0.4163146
0.4692473
0.5390858
0.6196172
0.2067693
0.2188067
0.232373
0.2477806
0.2654349
0.2858193
0.3095892
0.3377279
0.3715803
0.4130913
0.4669085
0.5346719
0.6111551
0.1956343
0.2063716
0.218391
0.2319369
0.2473214
0.2649046
0.2851656
0.3088166
0.3368003
0.3704451
0.4130855
0.46614
0.5329891
0.6073191
0.6608321
0.5751086
0.6778482
0.5019787
0.5819733
0.6894647
0.4437871
0.5049016
0.5863651
0.696955
0.3969871
0.4448813
0.5065398
0.5889447
0.7014743
0.3586667
0.3971029
0.445174
0.5071193
0.5900306
0.7031593
0.3266997
0.3581559
0.3965851
0.4446603
0.5066334
0.5893413
0.701718
0.2995334
0.3256826
0.3570172
0.3952899
0.443158
0.5046514
0.5863666
0.6968046
0.2760114
0.2980103
0.3239479
0.3550095
0.3929198
0.4401485
0.5005622
0.5805828
0.6871584
0.2552924
0.2739652
0.295677
0.3212489
0.3518336
0.388996
0.4350817
0.4938812
0.571128
0.6712603
0.2369489
0.2529258
0.2712799
0.2925915
0.3176509
0.3474814
0.3835553
0.4281809
0.4847809
0.5582581
0.6539171
0.2211374
0.2349754
0.2507121
0.2687707
0.2897127
0.3142358
0.3433113
0.3784244
0.4216975
0.4762735
0.5490305
0.636146
0.2076186
0.2197604
0.2334521
0.2490123
0.2668548
0.2874749
0.3115447
0.3400747
0.3744528
0.416697
0.4716507
0.5413505
0.622045
0.196016
0.2067974
0.2188691
0.2324778
0.2479387
0.2656159
0.285994
0.3097942
0.3379724
0.3718778
0.4148966
0.4685137
0.5363138
0.6126648
0.1859846
0.1956594
0.2064269
0.218483
0.2320745
0.2474774
0.2650535
0.2853378
0.3090186
0.3370411
0.3718687
0.4143048
0.4673334
0.534066
0.6080512
0.6392726
0.5650179
0.6612268
0.4972997
0.5753844
0.6786719
0.4417201
0.5021771
0.5825241
0.6907205
0.3962419
0.443936
0.505293
0.5871857
0.6986389
0.3586667
0.3971029
0.445174
0.5071193
0.5900306
0.7031593
0.3271992
0.3587595
0.3973305
0.4456066
0.5078833
0.5911087
0.7045753
0.3004538
0.3267758
0.3583383
0.3969215
0.4452302
0.50739
0.5902418
0.7031368
0.2773668
0.299597
0.3258323
0.3572867
0.3957327
0.4437216
0.5052828
0.5872667
0.6982182
0.2571086
0.2760653
0.2981352
0.3241687
0.3553634
0.3933565
0.4406178
0.5011919
0.5814771
0.688551
0.2390574
0.2553382
0.27407
0.2958591
0.3215352
0.3521781
0.3893546
0.4355422
0.4944958
0.5719932
0.6776842
0.222913
0.2369872
0.2530122
0.2714281
0.2928207
0.3179212
0.3477535
0.3838912
0.428607
0.4853411
0.5620171
0.6585792
0.2088731
0.2211701
0.2350484
0.250836
0.2689597
0.2899321
0.3144515
0.3435699
0.378741
0.4220957
0.4787926
0.5515344
0.6390981
0.1967774
0.207647
0.2198235
0.2335582
0.2491724
0.2670384
0.2876522
0.3117532
0.3403239
0.3747567
0.4185458
0.4733216
0.5430962
0.623714
0.1863288
0.1960412
0.2068529
0.2189616
0.2326163
0.2480957
0.2657657
0.2861675
0.3099978
0.3382153
0.3733155
0.4161334
0.4697308
0.5374194
0.613426
0.1772449
0.1860071
0.1957088
0.2065087
0.2186046
0.2322113
0.2476066
0.2652012
0.2855088
0.3092192
0.3382041
0.3728396
0.4152251
0.4681335
0.5346067
0.6194736
0.5518881
0.6396249
0.490112
0.5652824
0.6619992
0.4381657
0.4974954
0.5759247
0.679887
0.3946119
0.4418684
0.5025662
0.5833372
0.692376
0.3580631
0.3963577
0.4442283
0.5058711
0.5882674
0.7003114
0.3271992
0.3587595
0.3973305
0.4456066
0.5078833
0.5911087
0.7045753
0.3008742
0.3272753
0.358942
0.3976671
0.4461772
0.5086417
0.5920122
0.7060026
0.2781527
0.3005174
0.3269255
0.3586081
0.3973652
0.4457958
0.5080242
0.5911478
0.7045681
0.2582804
0.2774208
0.2997223
0.3260539
0.3576425
0.3961724
0.4441945
0.5059186
0.5881733
0.6996462
0.2406445
0.257155
0.2761716
0.2983202
0.3244601
0.3557149
0.3937234
0.441091
0.501827
0.5823794
0.6954078
0.2247732
0.2390973
0.2554285
0.2742251
0.2960996
0.3218196
0.3524675
0.3897159
0.4360065
0.4951155
0.5762399
0.6845508
0.2104527
0.2229467
0.2370626
0.2531403
0.2716239
0.2930484
0.3181465
0.3480256
0.384227
0.429033
0.4880665
0.5651125
0.6631113
0.1979015
0.2089021
0.2212344
0.2351567
0.2509996
0.2691474
0.290114
0.3146661
0.3438273
0.3790563
0.4240236
0.4806221
0.5535693
0.6412679
0.1870153
0.1968029
0.2077032
0.2199172
0.2336984
0.2493315
0.2671903
0.2878285
0.3119603
0.3405714
0.3762254
0.4198287
0.4746074
0.5442896
0.6245676
0.1775569
0.1863515
0.1960909
0.2069352
0.2190839
0.2327538
0.2482257
0.2659145
0.2863398
0.3102
0.3393886
0.3742991
0.4170704
0.4705496
0.5379759
0.1692927
0.1772653
0.1860516
0.1957821
0.206617
0.2187254
0.2323244
0.2477348
0.265348
0.2856786
0.3101881
0.3389964
0.373572
0.4158417
0.4685349
0.6043249
0.539676
0.6197933
0.4807149
0.5521324
0.6403141
0.4326939
0.4903015
0.5658009
0.6631387
0.3918068
0.4383126
0.4978795
0.5767224
0.6814889
0.3567424
0.3947274
0.4421597
0.503141
0.584409
0.6940204
0.3266997
0.3581559
0.3965851
0.4446603
0.5066334
0.5893413
0.701718
0.3008742
0.3272753
0.358942
0.3976671
0.4461772
0.5086417
0.5920122
0.7060026
0.2785117
0.3009378
0.327425
0.3592119
0.3981112
0.4467436
0.509277
0.5929206
0.7074415
0.2589596
0.2782067
0.3006426
0.3271472
0.3589643
0.3978058
0.4462698
0.5086618
0.5920592
0.7060118
0.2416679
0.2583269
0.2775273
0.2999078
0.3263463
0.3579957
0.3965411
0.4446705
0.5065586
0.5890867
0.706663
0.2261722
0.2406849
0.2572465
0.276329
0.2985646
0.3247495
0.3560102
0.3940932
0.441568
0.5024674
0.5868088
0.7026392
0.2121061
0.2248083
0.239176
0.2555624
0.2744301
0.2963385
0.3220584
0.3527592
0.3900801
0.4364745
0.4981556
0.5805286
0.6931959
0.1993159
0.2104826
0.223013
0.2371744
0.2533095
0.2718183
0.293238
0.3183716
0.3482976
0.3845628
0.4311052
0.490298
0.5680236
0.6671583
0.1880282
0.1979274
0.2089592
0.2213299
0.2352997
0.2511621
0.2693031
0.2902951
0.3148796
0.3440835
0.3805824
0.4254212
0.4821049
0.5550424
0.6424472
0.1781788
0.1870382
0.1968531
0.2077864
0.2200409
0.2338376
0.2494632
0.2673413
0.2880035
0.3121661
0.341768
0.3772433
0.4208152
0.4754852
0.5448974
0.1695767
0.1775774
0.1863962
0.1961646
0.207044
0.2192054
0.2328676
0.2483547
0.2660622
0.2865108
0.3111769
0.3401907
0.3750439
0.4177004
0.4709615
0.1620267
0.1693112
0.1773055
0.1861177
0.195879
0.2067245
0.2188254
0.2324368
0.2478621
0.2654936
0.2864988
0.3108476
0.3395939
0.3740625
0.416151
0.5943587
0.5302054
0.6046232
0.471925
0.5399045
0.6204188
0.4255129
0.4808921
0.552611
0.6413303
0.3874812
0.432837
0.4906735
0.5665664
0.664641
0.354468
0.3919215
0.4386011
0.4984468
0.577774
0.6830803
0.3256066
0.356835
0.3949543
0.4425902
0.503899
0.5854731
0.6954054
0.3004538
0.3267758
0.3583383
0.3969215
0.4452302
0.50739
0.5902418
0.7031368
0.2785117
0.3009378
0.327425
0.3592119
0.3981112
0.4467436
0.509277
0.5929206
0.7074415
0.2592697
0.2785656
0.3010629
0.3276466
0.359568
0.398552
0.4472179
0.5099153
0.5938338
0.7088919
0.2422608
0.259006
0.2783131
0.300828
0.3274397
0.3593178
0.3981748
0.4467462
0.509303
0.592976
0.7130955
0.2270738
0.2417083
0.2584184
0.2776849
0.3001527
0.3266368
0.3582919
0.3969122
0.4451496
0.507203
0.5935621
0.7137255
0.2133487
0.2262077
0.2407646
0.2573822
0.2765369
0.2988073
0.3249926
0.3563078
0.394466
0.4420491
0.5056094
0.5912349
0.7114054
0.2007952
0.2121372
0.2248775
0.2392927
0.2557392
0.2746337
0.2965391
0.322299
0.3530531
0.3904472
0.4387699
0.5012052
0.5856985
0.7044045
0.1893019
0.1993425
0.2105415
0.2231115
0.2373221
0.2534776
0.2719803
0.2934276
0.3185967
0.3485695
0.3861957
0.4327988
0.4923877
0.5705462
0.6699566
0.1790963
0.1880515
0.1979785
0.209044
0.221456
0.2354418
0.2512968
0.269458
0.2904752
0.3150921
0.3453234
0.3816873
0.4265528
0.4831758
0.5558336
0.1701428
0.1781995
0.1870833
0.1969275
0.2078964
0.2201638
0.2339529
0.2495941
0.2674913
0.2881774
0.3131608
0.3425965
0.3780255
0.4214882
0.4759318
0.1622864
0.1695954
0.1776178
0.1864626
0.196262
0.2071521
0.2193059
0.2329807
0.2484829
0.2662089
0.2873372
0.311844
0.3407977
0.3755444
0.4180172
0.1553627
0.1620437
0.1693478
0.1773653
0.186205
0.1959754
0.2068135
0.2189247
0.2325483
0.2479885
0.2661972
0.2870568
0.3113448
0.3399938
0.3743084
0.5894587
0.5239074
0.594644
0.4650746
0.530423
0.6052068
0.418765
0.4720926
0.5403518
0.6213409
0.3817878
0.4256476
0.4812396
0.5533174
0.6426694
0.3509558
0.3875933
0.4331178
0.4912229
0.5675756
0.6661333
0.3237231
0.3545601
0.3921468
0.4390275
0.499195
0.5788182
0.6844231
0.2995334
0.3256826
0.3570172
0.3952899
0.443158
0.5046514
0.5863666
0.6968046
0.2781527
0.3005174
0.3269255
0.3586081
0.3973652
0.4457958
0.5080242
0.5911478
0.7045681
0.2592697
0.2785656
0.3010629
0.3276466
0.359568
0.398552
0.4472179
0.5099153
0.5938338
0.7088919
0.2425316
0.2593161
0.2786719
0.3012483
0.3279391
0.3599217
0.398921
0.4476944
0.5105567
0.594752
0.7160031
0.227596
0.2423012
0.2590975
0.2784706
0.3010729
0.3277302
0.359614
0.3985457
0.4472251
0.5099476
0.5974628
0.7199908
0.2141491
0.2271093
0.241788
0.2585542
0.2778932
0.300396
0.3268804
0.35859
0.3972857
0.4456319
0.5103591
0.5978476
0.7219139
0.2019062
0.2133801
0.2262777
0.2408827
0.2575614
0.2767435
0.2990112
0.3252377
0.3566078
0.3948419
0.4444083
0.5087322
0.5963856
0.7218855
0.1906333
0.200823
0.2121985
0.2249801
0.2394469
0.255915
0.2748047
0.2967412
0.3225415
0.3533493
0.3922473
0.4410693
0.504862
0.5921672
0.7197098
0.1802493
0.1893259
0.1993951
0.2106288
0.2232416
0.2374688
0.2536175
0.2721422
0.293617
0.3188216
0.3498917
0.3875289
0.434383
0.4941913
0.5722468
0.1709776
0.1791173
0.1880974
0.1980543
0.2091561
0.2215813
0.2355596
0.2514309
0.2696121
0.2906545
0.3161206
0.3462204
0.3825815
0.4273695
0.4837501
0.1628038
0.1701616
0.1782404
0.1871504
0.197026
0.2080057
0.2202655
0.2340674
0.249724
0.2676403
0.289018
0.313849
0.3432328
0.3785589
0.4218305
0.155601
0.1623034
0.1696321
0.1776779
0.1865503
0.1963588
0.2072416
0.2194058
0.2330929
0.2486101
0.2669175
0.2879013
0.3123488
0.3412055
0.375796
0.1492295
0.1553782
0.1620771
0.1694022
0.1774443
0.1862918
0.1960551
0.2069018
0.2190232
0.232659
0.2485989
0.2666756
0.2874772
0.3116775
0.3401944
0.5207895
0.589738
0.4605023
0.5241184
0.5952025
0.4134846
0.4652356
0.5308495
0.6060674
0.3764185
0.4188932
0.4724211
0.541012
0.6225557
0.346322
0.3818938
0.4259119
0.4817529
0.5542483
0.6439987
0.3208112
0.3510461
0.3878136
0.4335331
0.4919476
0.5685777
0.6673922
0.2979469
0.3237988
0.3547413
0.3924801
0.43959
0.4999378
0.5796965
0.6857824
0.2773668
0.299597
0.3258323
0.3572867
0.3957327
0.4437216
0.5052828
0.5872667
0.6982182
0.2589596
0.2782067
0.3006426
0.3271472
0.3589643
0.3978058
0.4462698
0.5086618
0.5920592
0.7060118
0.2425316
0.2593161
0.2786719
0.3012483
0.3279391
0.3599217
0.398921
0.4476944
0.5105567
0.594752
0.7160031
0.2278344
0.2425719
0.2594075
0.2788293
0.301493
0.3282295
0.3602177
0.3992917
0.448173
0.5112012
0.5992424
0.7228182
0.2146126
0.2276314
0.2423807
0.259233
0.2786787
0.301316
0.3279735
0.3599116
0.3989184
0.4477065
0.5131008
0.6016299
0.7277662
0.2026215
0.2141805
0.2271792
0.2419061
0.2587335
0.2781001
0.3006
0.3271254
0.35889
0.3976615
0.447993
0.5133683
0.6026226
0.7312411
0.1916325
0.2019342
0.2134421
0.2263815
0.2410388
0.2577394
0.2769171
0.2992166
0.3254847
0.3569102
0.396685
0.446751
0.5123516
0.6023374
0.7342296
0.1814537
0.1906582
0.2008777
0.2122895
0.2251158
0.2396001
0.2560625
0.274977
0.2969449
0.3227859
0.3548017
0.39405
0.4438237
0.509413
0.6007471
0.7459727
0.1720261
0.1802709
0.1893732
0.1994732
0.2107443
0.2233709
0.2375911
0.2537574
0.2723039
0.2938064
0.3199154
0.3509705
0.3887755
0.4357493
0.4954037
0.1635665
0.1709967
0.1791588
0.1881656
0.1981545
0.2092674
0.2216852
0.2356768
0.2515643
0.2697654
0.2915221
0.3168641
0.346946
0.3832266
0.4278073
0.1560756
0.162821
0.1701988
0.178301
0.187239
0.1971238
0.2080962
0.2203666
0.2341812
0.2498531
0.2683602
0.2895991
0.3143773
0.3436666
0.3788301
0.1494489
0.1556165
0.162337
0.1696867
0.1777573
0.1866375
0.1964389
0.2073304
0.2195049
0.2332043
0.2492246
0.2674009
0.2883279
0.3126878
0.3414104
0.1435669
0.1492437
0.1554088
0.1621267
0.1694741
0.1775229
0.1863636
0.1961342
0.2069895
0.219121
0.2331937
0.2490138
0.267036
0.2877585
0.3118443
0.4582332
0.5209973
0.5902845
0.4099496
0.4606593
0.5245319
0.596026
0.3722034
0.4136084
0.4655514
0.5314787
0.6072012
0.3419396
0.3765198
0.4191447
0.4729062
0.5418819
0.6237613
0.316962
0.3464077
0.382102
0.4263025
0.4824295
0.5551722
0.6451096
0.2954916
0.3208856
0.3512237
0.3881393
0.4340809
0.492667
0.5694203
0.6686662
0.2760114
0.2980103
0.3239479
0.3550095
0.3929198
0.4401485
0.5005622
0.5805828
0.6871584
0.2582804
0.2774208
0.2997223
0.3260539
0.3576425
0.3961724
0.4441945
0.5059186
0.5881733
0.6996462
0.2422608
0.259006
0.2783131
0.300828
0.3274397
0.3593178
0.3981748
0.4467462
0.509303
0.592976
0.7130955
0.2278344
0.2425719
0.2594075
0.2788293
0.301493
0.3282295
0.3602177
0.3992917
0.448173
0.5112012
0.5992424
0.7228182
0.2148241
0.2278698
0.2426513
0.2595429
0.2790373
0.3017361
0.3284726
0.360515
0.399664
0.4486538
0.514352
0.6033539
0.7304072
0.2030357
0.2146439
0.2277013
0.2424987
0.2594121
0.2788854
0.3015197
0.328218
0.3602106
0.3992931
0.4500605
0.5160188
0.6061485
0.7364159
0.1922756
0.2026495
0.2142424
0.227283
0.2420622
0.2589117
0.2782736
0.3008053
0.327372
0.3591918
0.3995014
0.4502427
0.5167112
0.6078766
0.7416724
0.1823572
0.1916577
0.2019895
0.213534
0.2265187
0.2411939
0.257889
0.2770919
0.2994237
0.3257336
0.358393
0.3985147
0.4494642
0.5165172
0.6091413
0.7507933
0.1731209
0.1814761
0.1907073
0.2009589
0.2124098
0.2252506
0.2397288
0.2562112
0.2751506
0.2971501
0.3239841
0.3562558
0.3962084
0.4472457
0.5154153
0.6151425
0.7608109
0.1645241
0.1720458
0.1803136
0.1894433
0.1995764
0.210859
0.2234785
0.2377132
0.2538972
0.2724656
0.294727
0.3208074
0.351979
0.3898503
0.4366671
0.156775
0.1635839
0.1710344
0.1792205
0.1882558
0.1982541
0.2093597
0.2217886
0.2357935
0.251697
0.2705075
0.2921489
0.3174654
0.3474693
0.3835725
0.1498858
0.1560913
0.1628549
0.1702539
0.1783812
0.187327
0.1972048
0.208186
0.220467
0.2342941
0.250477
0.2688578
0.2900452
0.3147374
0.3438872
0.1437695
0.1494632
0.1556473
0.1623869
0.1697589
0.1778362
0.1867096
0.1965184
0.2074186
0.2196033
0.2337424
0.2496436
0.2677664
0.2886144
0.3128581
0.1383238
0.1435801
0.1492719
0.1554543
0.1621924
0.1695455
0.1775879
0.1864348
0.1962127
0.2070765
0.2195933
0.233557
0.2493262
0.2672771
0.2878995
0.4081915
0.4583883
0.5214046
0.5910906
0.3693747
0.4100707
0.4609673
0.525142
0.5971109
0.3384905
0.3723017
0.4138514
0.4660177
0.5323078
0.6083262
0.3133134
0.3420219
0.3767189
0.4195163
0.4735455
0.542745
0.6247635
0.292241
0.3170329
0.3465763
0.3824099
0.4268175
0.483101
0.5559429
0.6462234
0.2739121
0.2955541
0.3210321
0.3514866
0.3885692
0.4346247
0.4932716
0.5702704
0.6699555
0.2571086
0.2760653
0.2981352
0.3241687
0.3553634
0.3933565
0.4406178
0.5011919
0.5814771
0.688551
0.2416679
0.2583269
0.2775273
0.2999078
0.3263463
0.3579957
0.3965411
0.4446705
0.5065586
0.5890867
0.706663
0.227596
0.2423012
0.2590975
0.2784706
0.3010729
0.3277302
0.359614
0.3985457
0.4472251
0.5099476
0.5974628
0.7199908
0.2148241
0.2278698
0.2426513
0.2595429
0.2790373
0.3017361
0.3284726
0.360515
0.399664
0.4486538
0.514352
0.6033539
0.7304072
0.2032247
0.2148554
0.2279395
0.2427691
0.2597219
0.2792438
0.3019395
0.3287167
0.3608135
0.4000379
0.4510037
0.5172274
0.6077582
0.738767
0.1926479
0.2030636
0.2147057
0.2278048
0.2426545
0.2595901
0.2790584
0.3017243
0.3284636
0.3605112
0.4011247
0.4522374
0.5191756
0.6110015
0.7459097
0.1829384
0.1923007
0.2027047
0.2143343
0.2274201
0.2422173
0.2590611
0.2784481
0.3010117
0.3276201
0.3606692
0.401254
0.4527406
0.5203783
0.6135688
0.7550794
0.1739417
0.1823798
0.1917072
0.2020715
0.2136556
0.226655
0.2413242
0.2580397
0.2772681
0.2996324
0.326954
0.3598649
0.4006335
0.452583
0.52126
0.6180233
0.7629149
0.1655233
0.1731412
0.1815205
0.1907802
0.2010663
0.2125294
0.2253638
0.2398584
0.256361
0.2753255
0.2981563
0.3251836
0.3579967
0.3988875
0.4517475
0.5254273
0.6236978
0.7721061
0.1576529
0.1645419
0.1720845
0.180377
0.189536
0.1996789
0.2109546
0.2235861
0.2378353
0.2540369
0.2732516
0.2954775
0.3216412
0.3528483
0.3905722
0.1505294
0.156791
0.1636183
0.1710904
0.179302
0.1883454
0.1983367
0.2094516
0.2218914
0.2359095
0.2523392
0.2710434
0.2926557
0.317899
0.3477499
0.144173
0.1499002
0.1561224
0.1629052
0.1703268
0.1784609
0.1874
0.1972852
0.2082753
0.2205667
0.23484
0.2509079
0.2692396
0.2903491
0.3149205
0.1385114
0.1437827
0.1494915
0.155693
0.1624528
0.1698307
0.1779015
0.1867813
0.1965974
0.2075061
0.2200784
0.2341092
0.2499603
0.2680118
0.2887583
0.1334559
0.1383359
0.1436061
0.1493138
0.1555145
0.1622577
0.1696047
0.1776525
0.1865056
0.1962907
0.2074968
0.2199141
0.2338305
0.2495352
0.2673979
0.3679656
0.4083114
0.4586924
0.5220056
0.5921526
0.3361714
0.3694711
0.4103085
0.461422
0.525946
0.5981874
0.3104359
0.3385705
0.3724947
0.4142105
0.4666324
0.5331305
0.6092596
0.2891539
0.3133816
0.3421836
0.3770132
0.4200062
0.47418
0.5434619
0.625763
0.271129
0.2923006
0.3171723
0.3468257
0.3828161
0.4273288
0.4836608
0.5567141
0.64734
0.2552924
0.2739652
0.295677
0.3212489
0.3518336
0.388996
0.4350817
0.4938812
0.571128
0.6712603
0.2406445
0.257155
0.2761716
0.2983202
0.3244601
0.3557149
0.3937234
0.441091
0.501827
0.5823794
0.6954078
0.2270738
0.2417083
0.2584184
0.2776849
0.3001527
0.3266368
0.3582919
0.3969122
0.4451496
0.507203
0.5935621
0.7137255
0.2146126
0.2276314
0.2423807
0.259233
0.2786787
0.301316
0.3279735
0.3599116
0.3989184
0.4477065
0.5131008
0.6016299
0.7277662
0.2032247
0.2148554
0.2279395
0.2427691
0.2597219
0.2792438
0.3019395
0.3287167
0.3608135
0.4000379
0.4510037
0.5172274
0.6077582
0.738767
0.1928177
0.2032525
0.2149171
0.228043
0.2429248
0.2598996
0.2794166
0.3021437
0.3289618
0.3611133
0.4018651
0.4531468
0.5203013
0.6124411
0.7478798
0.1832748
0.1926729
0.2031186
0.2147973
0.2279417
0.2428093
0.259739
0.2792323
0.3019298
0.3287104
0.3619803
0.4028181
0.4545919
0.5225581
0.6161556
0.7579893
0.1744695
0.1829611
0.1923502
0.2027866
0.2144557
0.2275564
0.2423474
0.2592114
0.2786237
0.3012195
0.3288343
0.3620763
0.4032001
0.4554787
0.5243402
0.6206651
0.7653746
0.1662722
0.1739622
0.1824246
0.1917809
0.20218
0.2137764
0.2267696
0.2414554
0.2581916
0.2774457
0.3006554
0.3281655
0.3615693
0.4030673
0.4561276
0.5274287
0.6250766
0.7731669
0.1585684
0.1655418
0.1731814
0.1815863
0.1908767
0.201173
0.2126298
0.2254779
0.239989
0.2565119
0.2761831
0.2991636
0.3266194
0.3601562
0.4024065
0.4592324
0.5313423
0.6306269
0.7809846
0.1513369
0.1576692
0.1645773
0.1721421
0.1804608
0.1896282
0.1997643
0.2110501
0.2236936
0.2379572
0.2547162
0.2738922
0.2961789
0.3223597
0.3534322
0.1447671
0.150544
0.1568225
0.1636694
0.1711645
0.179383
0.1884196
0.1984188
0.2095429
0.2219937
0.2364709
0.2528028
0.2714766
0.2930211
0.3181314
0.138885
0.1441863
0.1499287
0.1561685
0.1629717
0.1703992
0.1785269
0.1874724
0.1973651
0.208364
0.2210485
0.235217
0.2512385
0.2694997
0.2905036
0.1336301
0.1385236
0.1438088
0.1495335
0.1557534
0.1625184
0.1698901
0.1779664
0.1868524
0.1966757
0.2079288
0.2204022
0.2343864
0.250173
0.268135
0.1289251
0.1334672
0.13836
0.1436447
0.1493691
0.1555744
0.1623117
0.1696634
0.1777165
0.1865758
0.196667
0.2077821
0.2201556
0.2340135
0.2496399
0.3350147
0.3680611
0.4085466
0.4591416
0.5227977
0.5932063
0.3084981
0.33625
0.3696604
0.4106598
0.4620214
0.5267438
0.5990802
0.2867152
0.3105024
0.3387278
0.3727801
0.4146839
0.4672423
0.5338127
0.6101887
0.2684818
0.2892114
0.3135157
0.3424227
0.3774013
0.4204924
0.4747067
0.5441761
0.6267596
0.2528819
0.2711798
0.2924178
0.3173786
0.3471547
0.3832193
0.4277548
0.4842208
0.5574859
0.6484593
0.2390574
0.2553382
0.27407
0.2958591
0.3215352
0.3521781
0.3893546
0.4355422
0.4944958
0.5719932
0.6776842
0.2261722
0.2406849
0.2572465
0.276329
0.2985646
0.3247495
0.3560102
0.3940932
0.441568
0.5024674
0.5868088
0.7026392
0.2141491
0.2271093
0.241788
0.2585542
0.2778932
0.300396
0.3268804
0.35859
0.3972857
0.4456319
0.5103591
0.5978476
0.7219139
0.2030357
0.2146439
0.2277013
0.2424987
0.2594121
0.2788854
0.3015197
0.328218
0.3602106
0.3992931
0.4500605
0.5160188
0.6061485
0.7364159
0.1928177
0.2032525
0.2149171
0.228043
0.2429248
0.2598996
0.2794166
0.3021437
0.3289618
0.3611133
0.4018651
0.4531468
0.5203013
0.6124411
0.7478798
0.1834283
0.1928427
0.2033075
0.2150087
0.2281796
0.2430795
0.2600484
0.2795902
0.3023487
0.3292079
0.3625781
0.403531
0.4554375
0.5235633
0.6173784
0.7594375
0.174775
0.1832974
0.1927223
0.2032003
0.2149185
0.2280777
0.242939
0.2598887
0.279407
0.3021363
0.3299168
0.3633383
0.4046497
0.4571134
0.5261431
0.6225076
0.7672879
0.1667537
0.17449
0.1830057
0.1924237
0.2028949
0.2145764
0.2276707
0.2424782
0.2593626
0.2788003
0.3022361
0.3299907
0.3636388
0.4053322
0.4584335
0.5292672
0.6267169
0.7745959
0.1592544
0.1662909
0.1740028
0.182491
0.1918782
0.2022878
0.2138779
0.226885
0.2415877
0.2583446
0.2783163
0.301671
0.3295683
0.3635261
0.4058304
0.4607286
0.5323122
0.6314445
0.7816064
0.1521788
0.1585854
0.1655785
0.1732412
0.1816735
0.1909726
0.2012627
0.2127309
0.2255928
0.2401206
0.2572518
0.2770415
0.3003693
0.3283997
0.3629894
0.408244
0.4636307
0.5361273
0.6363778
0.7879965
0.1455123
0.1513519
0.1577016
0.1646297
0.1722182
0.1805441
0.189705
0.1998497
0.2111455
0.2238011
0.2385502
0.2552695
0.2744909
0.2967834
0.3228424
0.1394351
0.1447806
0.150573
0.1568693
0.163737
0.1712381
0.1794502
0.1884935
0.1985005
0.2096338
0.2224887
0.2368759
0.2531775
0.2717889
0.293217
0.133977
0.1388973
0.1442126
0.1499711
0.1562294
0.1630379
0.1704592
0.1785924
0.1875443
0.1974445
0.2087923
0.221381
0.2355061
0.2514637
0.2696319
0.1290873
0.1336415
0.1385478
0.1438476
0.1495891
0.1558136
0.1625726
0.1699491
0.1780307
0.1869229
0.1970542
0.2082167
0.2206469
0.2345724
0.2502798
0.1246984
0.1289356
0.1334895
0.1383957
0.1436958
0.1494242
0.1556239
0.1623653
0.1697216
0.1777801
0.1869148
0.1969225
0.2079969
0.2203171
0.2341052
0.3075306
0.3350926
0.3682486
0.4088942
0.4597337
0.5235836
0.5940802
0.2850708
0.3085635
0.3364045
0.3699403
0.411123
0.4626162
0.527405
0.5999683
0.2663876
0.2867713
0.310633
0.3389603
0.3731565
0.4151537
0.4677478
0.5344913
0.6111134
0.2505861
0.2685309
0.2893244
0.3137141
0.3427383
0.3777866
0.4208959
0.4752312
0.5448876
0.6277532
0.2369489
0.2529258
0.2712799
0.2925915
0.3176509
0.3474814
0.3835553
0.4281809
0.4847809
0.5582581
0.6539171
0.2247732
0.2390973
0.2554285
0.2742251
0.2960996
0.3218196
0.3524675
0.3897159
0.4360065
0.4951155
0.5762399
0.6845508
0.2133487
0.2262077
0.2407646
0.2573822
0.2765369
0.2988073
0.3249926
0.3563078
0.394466
0.4420491
0.5056094
0.5912349
0.7114054
0.2026215
0.2141805
0.2271792
0.2419061
0.2587335
0.2781001
0.3006
0.3271254
0.35889
0.3976615
0.447993
0.5133683
0.6026226
0.7312411
0.1926479
0.2030636
0.2147057
0.2278048
0.2426545
0.2595901
0.2790584
0.3017243
0.3284636
0.3605112
0.4011247
0.4522374
0.5191756
0.6110015
0.7459097
0.1834283
0.1928427
0.2033075
0.2150087
0.2281796
0.2430795
0.2600484
0.2795902
0.3023487
0.3292079
0.3625781
0.403531
0.4554375
0.5235633
0.6173784
0.7594375
0.1749143
0.1834508
0.192892
0.2033891
0.2151296
0.2283155
0.2432089
0.2601977
0.2797644
0.3025546
0.3304103
0.3639134
0.4053119
0.4578674
0.5269965
0.6234404
0.7683032
0.1670322
0.1747954
0.1833419
0.1927956
0.2033084
0.2150389
0.2281915
0.2430692
0.260039
0.2795825
0.3031457
0.3310318
0.3648073
0.4066109
0.4597839
0.5305531
0.6280176
0.7758135
0.1596952
0.1667723
0.1745305
0.183072
0.1925209
0.2030026
0.2146776
0.2277856
0.2426098
0.2595146
0.2796646
0.3032044
0.3312749
0.3653503
0.4076316
0.4621033
0.5334666
0.6325341
0.7824903
0.1528093
0.1592714
0.1663278
0.174063
0.1825789
0.191975
0.2023783
0.2139802
0.2270012
0.241721
0.2590948
0.2791806
0.3028469
0.3311783
0.3657459
0.4094117
0.4643598
0.5367173
0.6369661
0.7884183
0.1462889
0.1521944
0.1586189
0.165633
0.1733203
0.1817601
0.1910531
0.201353
0.2128328
0.2257085
0.2407657
0.2579924
0.2780689
0.3018636
0.3307333
0.3676811
0.4116613
0.4671792
0.5400948
0.641113
0.7934537
0.1401248
0.1455261
0.1513816
0.1577496
0.1646992
0.1722939
0.1806135
0.1897817
0.1999349
0.2112409
0.2243233
0.2390332
0.2557867
0.2750067
0.2971894
0.1344876
0.1394476
0.1448073
0.150616
0.1569312
0.1638042
0.1712992
0.1795171
0.1885671
0.1985818
0.2100735
0.2228457
0.2372033
0.2534476
0.2719563
0.1294102