/*--------------------------------*- C++ -*----------------------------------*\
| =========                 |                                                 |
| \\      /  F ield         | OpenFOAM: The Open Source CFD Toolbox           |
|  \\    /   O peration     | Version:  2306                                  |
|   \\  /    A nd           | Website:  www.openfoam.com                      |
|    \\/     M anipulation  |                                                 |
\*---------------------------------------------------------------------------*/
FoamFile
{
    version     2.0;
    format      ascii;
    arch        "LSB;label=32;scalar=64";
    class       volScalarField;
    location    "0.6/fuel";
    object      H2O;
}
// * * * * * * * * * * * * * * * * * * * * * * * * * * * * * * * * * * * * * //

dimensions      [0 0 0 0 0 0 0];

internalField   nonuniform List<scalar> 
16000
(
0.4105907
0.4056904
0.4792572
0.4103114
0.3957235
0.4761391
0.405405
0.5418096
0.4790494
0.4097648
0.3805736
0.4698408
0.3954251
0.5395404
0.4759281
0.4048465
0.5918473
0.5416545
0.4786421
0.4089587
0.360773
0.4603695
0.3802539
0.5349679
0.4696231
0.3948415
0.5900892
0.5393833
0.4755146
0.404023
0.6320696
0.5917274
0.5413503
0.478041
0.4078966
0.3392114
0.4481567
0.3604206
0.5281172
0.4601411
0.3796284
0.5865541
0.5348069
0.4691966
0.3939808
0.6306605
0.5899681
0.5390754
0.4749044
0.402938
0.6650171
0.6319741
0.5914922
0.5409011
0.4772489
0.4068428
0.3226147
0.4350259
0.3388167
0.5193269
0.4479123
0.3597314
0.5812735
0.5279496
0.4596936
0.3787061
0.6278317
0.5864303
0.5344911
0.4685674
0.392847
0.6638604
0.6305641
0.5897303
0.5386206
0.4741003
0.4018614
0.6924983
0.6649392
0.6317865
0.5911446
0.540309
0.476463
0.4059689
0.3118629
0.4249343
0.3221936
0.5099294
0.4347613
0.3380443
0.5745255
0.5191497
0.4474336
0.3587151
0.6236166
0.5811454
0.5276211
0.4590334
0.3774912
0.6615413
0.6277335
0.5861873
0.5340247
0.4677382
0.3917219
0.6915307
0.6637818
0.6303747
0.589379
0.5380212
0.4733025
0.4009685
0.7157772
0.6924334
0.664786
0.6315092
0.5906862
0.5397214
0.4758116
0.4050996
0.3056718
0.4183502
0.3114274
0.5027413
0.4246585
0.3213698
0.5673443
0.5097398
0.4342428
0.3369047
0.6182473
0.5743909
0.5188022
0.4467272
0.3573759
0.6580923
0.6235153
0.5808939
0.527136
0.4581635
0.3762855
0.689593
0.6614613
0.6275404
0.5858282
0.53341
0.4669154
0.3907883
0.7149554
0.6914653
0.6636273
0.6300948
0.5889158
0.5374264
0.4726412
0.4000803
0.7357567
0.7157223
0.6923058
0.6645594
0.6311435
0.5902314
0.5392346
0.4751639
0.404235
0.3028682
0.4145167
0.3052285
0.498062
0.418069
0.3105757
0.5618723
0.5025455
0.4241182
0.3201546
0.6125537
0.5672013
0.5093679
0.4334773
0.3354023
0.6537099
0.6181413
0.5741265
0.5182889
0.4457962
0.3560465
0.6867155
0.65801
0.6233162
0.5805223
0.5264966
0.4573003
0.3752832
0.713311
0.6895265
0.6613041
0.627255
0.5853548
0.5328001
0.4662332
0.3898591
0.7350498
0.7149001
0.6913367
0.6633987
0.6297256
0.5884561
0.5369336
0.4719837
0.3991968
0.7530973
0.7357097
0.7156144
0.692117
0.6642604
0.6307805
0.5898547
0.5387508
0.47452
0.4033751
0.3028682
0.4127643
0.3024215
0.4953385
0.4142328
0.304362
0.5583178
0.4978636
0.4175181
0.3093197
0.6082281
0.5617254
0.5021615
0.4233204
0.3185525
0.6490762
0.6124417
0.5669204
0.5088184
0.4324679
0.3339098
0.683067
0.6536242
0.617933
0.5737359
0.5176122
0.4448723
0.3549355
0.7108724
0.6866474
0.6578483
0.6230219
0.5800323
0.5258621
0.4565834
0.3742837
0.7336362
0.713255
0.6893959
0.6610715
0.6268786
0.584885
0.5322946
0.4655546
0.3889344
0.7524825
0.7350024
0.7147914
0.6911465
0.6630972
0.6293592
0.5880753
0.5364437
0.4713299
0.3983181
0.7682929
0.7530566
0.7356171
0.7154545
0.6918678
0.6639636
0.6304799
0.5894803
0.53827
0.4738798
0.3992152
0.3056718
0.4127643
0.3024215
0.4940929
0.4124792
0.3015484
0.5562507
0.4951389
0.4136767
0.3030843
0.6054229
0.5581694
0.4974744
0.416705
0.3076641
0.6455639
0.6081134
0.5614369
0.5015941
0.4222687
0.316961
0.6792179
0.6489858
0.6122214
0.5665051
0.5080937
0.4314658
0.3326508
0.7077854
0.6829961
0.6534556
0.6176251
0.5732208
0.5169407
0.4441016
0.3538216
0.7315421
0.7108149
0.6865133
0.6576091
0.6226338
0.5795461
0.5253354
0.4558692
0.373287
0.751254
0.7335882
0.7131446
0.6892025
0.6607647
0.6265051
0.5844957
0.5317918
0.4648795
0.3880141
0.7677532
0.7524415
0.7349092
0.7146304
0.6908953
0.6627979
0.6290558
0.587697
0.5359569
0.4706799
0.3940667
0.7817204
0.7682572
0.7529763
0.73548
0.7152435
0.6916204
0.6637179
0.6301813
0.5891084
0.5377922
0.4707842
0.3963541
0.3118629
0.4145167
0.3052285
0.4940929
0.4124792
0.3015484
0.5553056
0.4938928
0.4119209
0.3002611
0.6037929
0.5561018
0.4947474
0.4128561
0.3014004
0.6432895
0.6053074
0.5578782
0.4968996
0.4156331
0.3060195
0.676306
0.6454718
0.6078881
0.5610105
0.5008458
0.4212244
0.3156181
0.7045348
0.6791435
0.6488082
0.6118957
0.5659573
0.5073742
0.4306231
0.3313767
0.728895
0.7077258
0.6828567
0.6532062
0.6172189
0.5727096
0.5163808
0.4433303
0.3527049
0.7494357
0.731493
0.7107019
0.6863149
0.6572936
0.6222485
0.5791426
0.5248109
0.4551576
0.3722933
0.7666754
0.7512125
0.7334937
0.7129812
0.6889474
0.6604601
0.6261956
0.5841087
0.531292
0.4642081
0.3835594
0.7812428
0.7677174
0.7523607
0.7347712
0.7144179
0.690646
0.6625501
0.6287543
0.587321
0.535473
0.4675365
0.3911294
0.7936725
0.7816889
0.7681869
0.7528573
0.7352989
0.715034
0.6914156
0.6634739
0.6298847
0.5887389
0.5354823
0.468662
0.3941858
0.3226147
0.4183502
0.3114274
0.4953385
0.4142328
0.304362
0.5553056
0.4938928
0.4119209
0.3002611
0.6030477
0.5551565
0.4935005
0.4110969
0.2985646
0.6419687
0.6036771
0.5558095
0.4941693
0.4117743
0.2997277
0.6744225
0.6431969
0.6050805
0.5574477
0.4961416
0.414569
0.3046344
0.7020797
0.6762303
0.6452906
0.6075548
0.560448
0.500103
0.4203461
0.3142586
0.726112
0.7044724
0.678997
0.6485453
0.6114658
0.5654134
0.5067696
0.429773
0.3300873
0.7471399
0.7288442
0.7076085
0.6826504
0.6528772
0.6168158
0.5722835
0.5158209
0.4425585
0.3515855
0.7650814
0.7493932
0.7313964
0.7105345
0.6860531
0.6569804
0.6219289
0.5787409
0.5242886
0.4544489
0.367474
0.7802895
0.7666391
0.7511306
0.7333538
0.7127655
0.688694
0.6602078
0.625888
0.583724
0.530795
0.4609598
0.3804299
0.7932469
0.7812112
0.7676466
0.752241
0.7345889
0.7142069
0.6904396
0.662304
0.6284548
0.5869475
0.5331339
0.465374
0.3888926
0.8043804
0.7936445
0.7816268
0.7680827
0.7527002
0.7351191
0.7148606
0.6912122
0.6632315
0.62959
0.5869532
0.5339025
0.4670568
0.3927288
0.3392114
0.4249343
0.3221936
0.498062
0.418069
0.3105757
0.5562507
0.4951389
0.4136767
0.3030843
0.6030477
0.5551565
0.4935005
0.4110969
0.2985646
0.6413651
0.6029319
0.5548637
0.492921
0.4100109
0.2968794
0.6733294
0.641876
0.6034497
0.5553774
0.493407
0.4107003
0.298321
0.7004931
0.6743465
0.6430147
0.6047449
0.5568799
0.4953891
0.4136754
0.3032351
0.7240128
0.7020162
0.6760812
0.6450224
0.6071151
0.5598895
0.4994786
0.4194598
0.3128826
0.7447295
0.7260589
0.7043495
0.6787802
0.6481984
0.6110389
0.5649565
0.50616
0.4289154
0.3287824
0.763071
0.747096
0.7287441
0.7074349
0.6823782
0.6525506
0.6164798
0.5718575
0.5152608
0.4417862
0.3461273
0.7788806
0.7650444
0.7493096
0.7312532
0.7103136
0.6857931
0.6567206
0.6216107
0.578341
0.5237685
0.4510144
0.3638998
0.7923977
0.7802575
0.7665675
0.7510094
0.733169
0.7125514
0.6884842
0.6599571
0.6255823
0.5833417
0.5283915
0.458695
0.3780019
0.8039987
0.7932188
0.7811487
0.7675418
0.7520829
0.7344079
0.7140322
0.6902346
0.6620594
0.6281573
0.5851421
0.5315287
0.463732
0.3873827
0.8140287
0.8043553
0.7935893
0.7815348
0.7679451
0.7525442
0.7349703
0.7146884
0.6910103
0.6629908
0.6281664
0.5857339
0.532709
0.4659798
0.3919967
0.360773
0.4350259
0.3388167
0.5027413
0.4246585
0.3213698
0.5583178
0.4978636
0.4175181
0.3093197
0.6037929
0.5561018
0.4947474
0.4128561
0.3014004
0.6413651
0.6029319
0.5548637
0.492921
0.4100109
0.2968794
0.6728299
0.6412723
0.6027042
0.5544311
0.4921569
0.4089327
0.2954633
0.6995728
0.6732533
0.6416936
0.6031133
0.5548076
0.4926503
0.4097998
0.2969021
0.7226574
0.7004295
0.6741968
0.6427452
0.6043021
0.5563162
0.4947577
0.4127753
0.3018215
0.7429134
0.7239588
0.7018913
0.6758604
0.6446685
0.6066784
0.5594202
0.4988488
0.4185654
0.3114898
0.7609625
0.7446837
0.7259541
0.7041674
0.6784939
0.6478538
0.6106804
0.5644959
0.5055454
0.4280501
0.322358
0.7771051
0.7630327
0.7470096
0.7285959
0.7072057
0.6821078
0.6522784
0.6161439
0.5714314
0.5147006
0.438027
0.3414648
0.7911432
0.7788479
0.7649713
0.7491857
0.7310642
0.7100942
0.6855775
0.6564619
0.621294
0.5779428
0.5212493
0.4485104
0.3609475
0.8032373
0.7923692
0.7801943
0.7664614
0.7508492
0.7329855
0.712374
0.6882758
0.659708
0.6252785
0.5814928
0.5267206
0.4569491
0.3763327
0.8136845
0.8039735
0.7931633
0.7810562
0.7674034
0.7519259
0.7342581
0.7138587
0.690031
0.6618166
0.6267197
0.5839053
0.5303115
0.4626263
0.3866215
0.8227672
0.8140062
0.8043059
0.7935074
0.7814132
0.7678083
0.752415
0.7348225
0.7145173
0.6908097
0.6618278
0.6271955
0.5848135
0.5319089
0.4654392
0.3805736
0.4481567
0.3604206
0.5099294
0.4347613
0.3380443
0.5618723
0.5025455
0.4241182
0.3201546
0.6054229
0.5581694
0.4974744
0.416705
0.3076641
0.6419687
0.6036771
0.5558095
0.4941693
0.4117743
0.2997277
0.6728299
0.6412723
0.6027042
0.5544311
0.4921569
0.4089327
0.2954633
0.6991524
0.6727538
0.6410899
0.6023677
0.5538605
0.4913985
0.4080292
0.2940358
0.7218715
0.6995092
0.6731036
0.6414237
0.6026696
0.5542419
0.4920161
0.4088938
0.2954707
0.7417417
0.7226033
0.7003042
0.6739753
0.6423894
0.6038625
0.5558433
0.4941219
0.4118685
0.3003933
0.7593755
0.742867
0.7238526
0.7017063
0.675569
0.644317
0.6063116
0.558947
0.4982138
0.417663
0.3046325
0.775245
0.7609226
0.7445934
0.725799
0.7039269
0.6782095
0.6475644
0.6103191
0.5640317
0.5049256
0.4238032
0.3154908
0.7895637
0.7770714
0.7629573
0.7468815
0.7284001
0.706978
0.6818826
0.6520063
0.615808
0.5710054
0.5119751
0.4349314
0.3369323
0.8021133
0.7911142
0.7787835
0.7648631
0.7490222
0.7308765
0.7099123
0.6853629
0.6562046
0.6209788
0.5760149
0.5194198
0.4464753
0.3587775
0.8129981
0.8032119
0.7923131
0.7801007
0.7663213
0.7506902
0.7328335
0.7121978
0.6880686
0.6594605
0.6238097
0.5802098
0.5254347
0.4557556
0.3754791
0.8224552
0.8136618
0.8039238
0.793081
0.7809339
0.7672658
0.751796
0.7341093
0.7136864
0.6898289
0.6606432
0.625736
0.5829682
0.5294927
0.4620697
0.8307182
0.8227468
0.8139617
0.8042326
0.7933992
0.7812924
0.7676952
0.7522868
0.7346758
0.7143476
0.6898408
0.6610354
0.6264631
0.5841969
0.5315074
0.3957235
0.4603695
0.3802539
0.5193269
0.4479123
0.3597314
0.5673443
0.5097398
0.4342428
0.3369047
0.6082281
0.5617254
0.5021615
0.4233204
0.3185525
0.6432895
0.6053074
0.5578782
0.4968996
0.4156331
0.3060195
0.6733294
0.641876
0.6034497
0.5553774
0.493407
0.4107003
0.298321
0.6991524
0.6727538
0.6410899
0.6023677
0.5538605
0.4913985
0.4080292
0.2940358
0.7215125
0.6990888
0.6726041
0.64082
0.6019236
0.553294
0.4907632
0.4071207
0.2925969
0.7410625
0.7218175
0.699384
0.672882
0.6410676
0.602229
0.553768
0.4913784
0.4079823
0.2940268
0.7583522
0.7416952
0.7224969
0.7001188
0.6736828
0.6420362
0.6034937
0.5553673
0.4934818
0.4109551
0.2933759
0.773846
0.7593351
0.7427755
0.7236952
0.7014619
0.6752796
0.6440217
0.6059417
0.5584699
0.4975733
0.4132333
0.2974004
0.7879104
0.7752099
0.760844
0.7444596
0.725594
0.703688
0.6779707
0.6472728
0.6099549
0.5635636
0.5018855
0.4195142
0.306845
0.800699
0.7895339
0.777005
0.7628455
0.7467123
0.7282057
0.7067884
0.6816574
0.6517343
0.6154723
0.5689331
0.5097434
0.4320202
0.332885
0.8119853
0.8020874
0.7910571
0.7786881
0.76472
0.7488597
0.7307209
0.7097312
0.6851494
0.6559484
0.6194527
0.5746173
0.5179369
0.4450021
0.3575981
0.8218333
0.8129752
0.8031617
0.7922299
0.779977
0.7661821
0.7505584
0.7326825
0.7120227
0.6878628
0.6582639
0.6227918
0.5792234
0.5245569
0.4551478
0.8304342
0.8224347
0.8136171
0.8038501
0.7929722
0.7808124
0.767152
0.7516669
0.7339616
0.7135154
0.6888521
0.6598412
0.6249912
0.5823382
0.5290807
0.8379831
0.8306997
0.8227065
0.8138956
0.8041357
0.7932917
0.7811924
0.7675829
0.7521595
0.7345302
0.7135274
0.6891813
0.660438
0.6259727
0.5838876
0.4056904
0.4698408
0.3954251
0.5281172
0.4601411
0.3796284
0.5745255
0.5191497
0.4474336
0.3587151
0.6125537
0.5672013
0.5093679
0.4334773
0.3354023
0.6455639
0.6081134
0.5614369
0.5015941
0.4222687
0.316961
0.6744225
0.6431969
0.6050805
0.5574477
0.4961416
0.414569
0.3046344
0.6995728
0.6732533
0.6416936
0.6031133
0.5548076
0.4926503
0.4097998
0.2969021
0.7215125
0.6990888
0.6726041
0.64082
0.6019236
0.553294
0.4907632
0.4071207
0.2925969
0.7407523
0.7214586
0.6989636
0.6723826
0.6404638
0.6014828
0.5528198
0.4901249
0.4062074
0.2911464
0.7577593
0.7410161
0.7217111
0.6991985
0.6725894
0.640714
0.60186
0.5532915
0.4907373
0.4070654
0.2869426
0.7729445
0.7583118
0.7416036
0.7223392
0.6998738
0.6733923
0.64174
0.6031226
0.5548882
0.4928374
0.4064794
0.2863128
0.7866679
0.7738105
0.7592554
0.7426398
0.7234872
0.7012192
0.6750365
0.6437241
0.6055689
0.5579889
0.4944312
0.4088069
0.2886334
0.7992198
0.7878793
0.7751407
0.7607273
0.7442827
0.7253904
0.7034874
0.6777301
0.6469789
0.6095878
0.5612682
0.4988358
0.414344
0.2956355
0.8107116
0.8006724
0.789475
0.7769066
0.7626978
0.7465443
0.7280437
0.7065988
0.6814324
0.6514624
0.6138394
0.5672395
0.5076537
0.4294974
0.3300864
0.8209159
0.811962
0.8020363
0.7909723
0.778562
0.764578
0.7487249
0.730566
0.7095511
0.6849369
0.6547085
0.6183478
0.5734857
0.516866
0.4442109
0.8298681
0.8218126
0.8129301
0.8030872
0.7921199
0.7798541
0.7660668
0.7504276
0.7325326
0.7118488
0.6868682
0.6574354
0.6220096
0.5785504
0.5241103
0.8377234
0.8304156
0.8223943
0.8135508
0.8037527
0.7928641
0.7807119
0.767039
0.7515388
0.7338149
0.712689
0.6881849
0.6592342
0.6244907
0.5820214
0.8446461
0.8379661
0.8306631
0.8226468
0.8138083
0.8040393
0.7932027
0.7810932
0.7674713
0.7520331
0.7338266
0.7129695
0.6886841
0.660038
0.6257267
0.4105907
0.4761391
0.405405
0.5349679
0.4696231
0.3948415
0.5812735
0.5279496
0.4596936
0.3787061
0.6182473
0.5743909
0.5188022
0.4467272
0.3573759
0.6490762
0.6124417
0.5669204
0.5088184
0.4324679
0.3339098
0.676306
0.6454718
0.6078881
0.5610105
0.5008458
0.4212244
0.3156181
0.7004931
0.6743465
0.6430147
0.6047449
0.5568799
0.4953891
0.4136754
0.3032351
0.7218715
0.6995092
0.6731036
0.6414237
0.6026696
0.5542419
0.4920161
0.4088938
0.2954707
0.7407523
0.7214586
0.6989636
0.6723826
0.6404638
0.6014828
0.5528198
0.4901249
0.4062074
0.2911464
0.7574885
0.740706
0.7213523
0.6987783
0.6720901
0.6401102
0.6011137
0.5523433
0.4894835
0.4052892
0.2840345
0.7724223
0.7577189
0.7409246
0.7215536
0.6989537
0.6722989
0.6404179
0.6014891
0.5528126
0.4900926
0.4025783
0.2800467
0.7858675
0.772909
0.7582321
0.7414678
0.722131
0.6996305
0.6731488
0.6414419
0.6027492
0.5544059
0.4896812
0.4021936
0.2781236
0.7981088
0.7866365
0.7737406
0.7591373
0.7424606
0.7232806
0.7010154
0.6747915
0.6434241
0.6051931
0.5556296
0.4913083
0.4036558
0.2781525
0.8093803
0.7991921
0.787818
0.7750381
0.7605731
0.744107
0.7252194
0.7032853
0.6774876
0.6466827
0.6077876
0.5589687
0.4951788
0.4078748
0.2803288
0.819763
0.8106877
0.8006198
0.7893876
0.7767765
0.762551
0.7464043
0.7278819
0.7064094
0.6812074
0.6501403
0.6125062
0.5656552
0.50585
0.4277966
0.8290334
0.8208949
0.811916
0.8019605
0.7908603
0.7784367
0.7644602
0.7485909
0.7304119
0.7093719
0.6839084
0.6538116
0.6174536
0.5726689
0.5162917
0.837206
0.8298493
0.8217717
0.812863
0.8029888
0.7920106
0.7797524
0.7659523
0.7502976
0.7323836
0.7110083
0.68618
0.6567991
0.6214762
0.5782081
0.8444079
0.8377064
0.8303788
0.8223342
0.8134631
0.8036559
0.7927746
0.7806121
0.7669268
0.7514116
0.7331064
0.7121249
0.6876802
0.6588264
0.6242391
0.8507784
0.8446306
0.8379327
0.8306087
0.8225677
0.8137216
0.8039597
0.7931144
0.7809946
0.7673606
0.7514227
0.7333482
0.712549
0.6883514
0.6598375
0.4792572
0.4103114
0.5395404
0.4759281
0.4048465
0.5865541
0.5348069
0.4691966
0.3939808
0.6236166
0.5811454
0.5276211
0.4590334
0.3774912
0.6537099
0.6181413
0.5741265
0.5182889
0.4457962
0.3560465
0.6792179
0.6489858
0.6122214
0.5665051
0.5080937
0.4314658
0.3326508
0.7020797
0.6762303
0.6452906
0.6075548
0.560448
0.500103
0.4203461
0.3142586
0.7226574
0.7004295
0.6741968
0.6427452
0.6043021
0.5563162
0.4947577
0.4127753
0.3018215
0.7410625
0.7218175
0.699384
0.672882
0.6410676
0.602229
0.553768
0.4913784
0.4079823
0.2940268
0.7574885
0.740706
0.7213523
0.6987783
0.6720901
0.6401102
0.6011137
0.5523433
0.4894835
0.4052892
0.2840345
0.7721839
0.7574482
0.7406146
0.7211949
0.6985336
0.6717996
0.6398142
0.6007431
0.5518647
0.4888389
0.4007985
0.2772189
0.7854041
0.7723869
0.7576394
0.740789
0.7213455
0.6987105
0.6720556
0.6401203
0.6011164
0.5523312
0.4869393
0.3984109
0.2722705
0.7973936
0.7858361
0.772839
0.758114
0.7412885
0.7219241
0.6994265
0.6729037
0.6411419
0.6023733
0.5520447
0.4866719
0.3974182
0.2687956
0.8083811
0.7980808
0.7865745
0.7736368
0.7589813
0.7422826
0.7231071
0.7008099
0.6745445
0.6431217
0.6033499
0.5532869
0.4876887
0.3977036
0.2658072
0.8185587
0.8093555
0.7991373
0.787727
0.7749024
0.7604198
0.7439594
0.7250471
0.7030816
0.6772432
0.6452303
0.605985
0.5562143
0.4906276
0.3992943
0.2540627
0.827985
0.8197414
0.8106404
0.8005418
0.7892722
0.7766472
0.7624288
0.7462644
0.7277201
0.7062201
0.6801137
0.6490615
0.6112595
0.564289
0.5046375
0.8364435
0.8290143
0.8208534
0.8118479
0.8018603
0.7907489
0.7783328
0.7643429
0.7484575
0.7302585
0.7085043
0.6831649
0.653086
0.6168085
0.5722311
0.8439333
0.8371889
0.8298122
0.8217111
0.8127744
0.802891
0.7919201
0.7796513
0.7658385
0.7501685
0.7316636
0.7104272
0.6856516
0.6563653
0.621205
0.8505591
0.8443923
0.8376728
0.8303242
0.8222548
0.8133759
0.8035758
0.7926858
0.780513
0.7668154
0.7507971
0.732623
0.7116984
0.6873412
0.6586214
0.8564401
0.8507642
0.8446
0.8378831
0.8305368
0.8224891
0.8136498
0.8038805
0.7930267
0.7808968
0.7668259
0.7510079
0.7329879
0.7122677
0.6881846
0.5418096
0.4790494
0.4097648
0.5900892
0.5393833
0.4755146
0.404023
0.6278317
0.5864303
0.5344911
0.4685674
0.392847
0.6580923
0.6235153
0.5808939
0.527136
0.4581635
0.3762855
0.683067
0.6536242
0.617933
0.5737359
0.5176122
0.4448723
0.3549355
0.7045348
0.6791435
0.6488082
0.6118957
0.5659573
0.5073742
0.4306231
0.3313767
0.7240128
0.7020162
0.6760812
0.6450224
0.6071151
0.5598895
0.4994786
0.4194598
0.3128826
0.7417417
0.7226033
0.7003042
0.6739753
0.6423894
0.6038625
0.5558433
0.4941219
0.4118685
0.3003933
0.7577593
0.7410161
0.7217111
0.6991985
0.6725894
0.640714
0.60186
0.5532915
0.4907373
0.4070654
0.2869426
0.7721839
0.7574482
0.7406146
0.7211949
0.6985336
0.6717996
0.6398142
0.6007431
0.5518647
0.4888389
0.4007985
0.2772189
0.7851925
0.7721485
0.7573688
0.7404791
0.7209869
0.6982905
0.6715565
0.6395169
0.6003708
0.5513838
0.485688
0.3966867
0.2696292
0.7969795
0.7853727
0.772317
0.7575214
0.7406099
0.7211388
0.6985069
0.6718112
0.6398213
0.6007417
0.5499771
0.4840212
0.3938919
0.26362
0.8077381
0.7973656
0.7857742
0.7727353
0.7579579
0.7411103
0.7217506
0.6992213
0.6726572
0.6408401
0.6005334
0.549795
0.4833289
0.3921639
0.2583632
0.8176552
0.808356
0.7980256
0.7864825
0.7734996
0.7588261
0.742133
0.7229323
0.7006029
0.6742956
0.641639
0.6015202
0.5505736
0.483523
0.3908992
0.2492412
0.8268903
0.8185362
0.8093063
0.7990561
0.7876067
0.7747676
0.7602912
0.7438108
0.7248735
0.7028764
0.6760451
0.6437762
0.6038266
0.5527923
0.4846251
0.3848974
0.2392219
0.8354859
0.8279653
0.8196987
0.8105703
0.8004386
0.7891574
0.7765396
0.7623067
0.7461246
0.7275584
0.7052995
0.6792217
0.6480529
0.6101848
0.5633711
0.8432339
0.836426
0.8289766
0.8207917
0.8117577
0.8017608
0.7906566
0.7782294
0.7642263
0.7483248
0.7295165
0.7078775
0.6825637
0.6525626
0.6164626
0.8501222
0.8439175
0.837155
0.8297571
0.8216309
0.8126864
0.80281
0.7918302
0.7795509
0.7657256
0.7495447
0.7311661
0.7099812
0.6852915
0.6561447
0.8562375
0.8505447
0.8443615
0.837623
0.830252
0.8221759
0.8133037
0.8034963
0.7925977
0.7804146
0.7662773
0.7503781
0.7322575
0.7114119
0.6871708
0.8616824
0.856427
0.850736
0.8445545
0.8378174
0.8304654
0.8224241
0.8135785
0.803802
0.7929397
0.7804245
0.7664627
0.7506955
0.7327468
0.7121267
0.5918473
0.5416545
0.4786421
0.4089587
0.6306605
0.5899681
0.5390754
0.4749044
0.402938
0.6615413
0.6277335
0.5861873
0.5340247
0.4677382
0.3917219
0.6867155
0.65801
0.6233162
0.5805223
0.5264966
0.4573003
0.3752832
0.7077854
0.6829961
0.6534556
0.6176251
0.5732208
0.5169407
0.4441016
0.3538216
0.726112
0.7044724
0.678997
0.6485453
0.6114658
0.5654134
0.5067696
0.429773
0.3300873
0.7429134
0.7239588
0.7018913
0.6758604
0.6446685
0.6066784
0.5594202
0.4988488
0.4185654
0.3114898
0.7583522
0.7416952
0.7224969
0.7001188
0.6736828
0.6420362
0.6034937
0.5553673
0.4934818
0.4109551
0.2933759
0.7724223
0.7577189
0.7409246
0.7215536
0.6989537
0.6722989
0.6404179
0.6014891
0.5528126
0.4900926
0.4025783
0.2800467
0.7851925
0.7721485
0.7573688
0.7404791
0.7209869
0.6982905
0.6715565
0.6395169
0.6003708
0.5513838
0.485688
0.3966867
0.2696292
0.7967905
0.7851612
0.7720788
0.757251
0.7403002
0.7207804
0.6980871
0.6713124
0.6392184
0.5999968
0.5490339
0.4828125
0.3922821
0.2612685
0.8073659
0.7969516
0.785311
0.7722135
0.7573656
0.740432
0.7209658
0.6983023
0.6715656
0.6395207
0.5989101
0.5478002
0.4808642
0.3890386
0.2541252
0.817074
0.807713
0.7973104
0.7856824
0.7725982
0.7578028
0.7409609
0.7215761
0.6990148
0.6724091
0.6393627
0.5987808
0.547297
0.4796615
0.3864712
0.2449544
0.8260696
0.8176326
0.8083064
0.7979436
0.786361
0.7733632
0.7586959
0.7419823
0.7227561
0.7003942
0.6730751
0.640167
0.5994014
0.5474548
0.4787799
0.3820162
0.2371176
0.8344868
0.82687
0.8184919
0.8092334
0.7989488
0.7874872
0.7746544
0.7601616
0.743661
0.7246986
0.7018702
0.6748456
0.6420353
0.6011475
0.5482904
0.4746123
0.3763409
0.2279247
0.8423561
0.8354681
0.8279266
0.8196353
0.8104775
0.800336
0.7890619
0.776432
0.7621846
0.7459849
0.7267725
0.704549
0.678388
0.6471837
0.6094628
0.8494786
0.843218
0.8363916
0.8289206
0.8207102
0.8116681
0.8016782
0.7905648
0.7781266
0.7641103
0.7476826
0.7289806
0.7073707
0.6821301
0.6522821
0.8558341
0.8501077
0.8438865
0.8371047
0.8296842
0.8215512
0.8126135
0.8027295
0.791741
0.7794512
0.7651797
0.7491138
0.7307843
0.7096772
0.6851085
0.8614948
0.8562243
0.8505165
0.8443158
0.837557
0.8301802
0.8221106
0.8132321
0.8034174
0.7925101
0.7799395
0.7659106
0.7500614
0.7320121
0.711268
0.8665496
0.8616703
0.856401
0.8506941
0.8444943
0.8377521
0.8304062
0.8223596
0.8135078
0.8037241
0.7925195
0.7801038
0.7661892
0.7504865
0.7326259
0.6320696
0.5917274
0.5413503
0.478041
0.4078966
0.6638604
0.6305641
0.5897303
0.5386206
0.4741003
0.4018614
0.689593
0.6614613
0.6275404
0.5858282
0.53341
0.4669154
0.3907883
0.7108724
0.6866474
0.6578483
0.6230219
0.5800323
0.5258621
0.4565834
0.3742837
0.728895
0.7077258
0.6828567
0.6532062
0.6172189
0.5727096
0.5163808
0.4433303
0.3527049
0.7447295
0.7260589
0.7043495
0.6787802
0.6481984
0.6110389
0.5649565
0.50616
0.4289154
0.3287824
0.7593755
0.742867
0.7238526
0.7017063
0.675569
0.644317
0.6063116
0.558947
0.4982138
0.417663
0.3046325
0.7729445
0.7583118
0.7416036
0.7223392
0.6998738
0.6733923
0.64174
0.6031226
0.5548882
0.4928374
0.4064794
0.2863128
0.7854041
0.7723869
0.7576394
0.740789
0.7213455
0.6987105
0.6720556
0.6401203
0.6011164
0.5523312
0.4869393
0.3984109
0.2722705
0.7967905
0.7851612
0.7720788
0.757251
0.7403002
0.7207804
0.6980871
0.6713124
0.6392184
0.5999968
0.5490339
0.4828125
0.3922821
0.2612685
0.807196
0.7967626
0.7850995
0.7719753
0.7570953
0.7401224
0.7206076
0.6978829
0.6710673
0.6389185
0.5981696
0.5468908
0.4797384
0.3875988
0.2521549
0.8167376
0.8073409
0.7968965
0.7852193
0.7720766
0.7572108
0.740283
0.7207919
0.6980968
0.6713188
0.6380517
0.5972167
0.5454457
0.4774815
0.383884
0.2420441
0.8255417
0.8170514
0.8076635
0.7972285
0.7855609
0.7724619
0.7576727
0.7408107
0.7214006
0.6988071
0.6711949
0.6379556
0.5968348
0.5445588
0.4756994
0.3793741
0.2346575
0.833738
0.826049
0.8175878
0.8082328
0.7978351
0.7862402
0.7732487
0.7585646
0.7418305
0.7225785
0.6993712
0.6718637
0.6384627
0.5969676
0.54391
0.4726107
0.3749619
0.2268637
0.8414406
0.8344682
0.8268297
0.818426
0.8091369
0.798842
0.7873868
0.7745403
0.760031
0.7435101
0.7238411
0.700863
0.6734098
0.6398758
0.5976285
0.5408051
0.4686967
0.3694109
0.2190445
0.8486712
0.8423398
0.8354327
0.827869
0.8195515
0.8103853
0.8002506
0.7889664
0.7763245
0.7620627
0.7453058
0.7261319
0.7038476
0.6776694
0.6465997
0.85524
0.849464
0.8431865
0.8363405
0.8288466
0.8206292
0.8115938
0.8015961
0.7904734
0.7780243
0.763549
0.747219
0.7285474
0.7070053
0.6818976
0.8611213
0.8558208
0.8500792
0.8438404
0.8370382
0.8296117
0.8214853
0.812541
0.8026497
0.7916523
0.7789695
0.7648028
0.7487832
0.7305242
0.7095227
0.8663753
0.8614826
0.8561982
0.8504744
0.8442554
0.8374915
0.8301208
0.8220457
0.813161
0.803339
0.7920875
0.7796157
0.7656334
0.7498488
0.7318888
0.8710796
0.8665383
0.8616462
0.8563623
0.8506388
0.8444344
0.8376981
0.8303475
0.8222956
0.8134376
0.8033477
0.7922341
0.7798623
0.7660062
0.7503817
0.6650171
0.6319741
0.5914922
0.5409011
0.4772489
0.4068428
0.6915307
0.6637818
0.6303747
0.589379
0.5380212
0.4733025
0.4009685
0.713311
0.6895265
0.6613041
0.627255
0.5853548
0.5328001
0.4662332
0.3898591
0.7315421
0.7108149
0.6865133
0.6576091
0.6226338
0.5795461
0.5253354
0.4558692
0.373287
0.7471399
0.7288442
0.7076085
0.6826504
0.6528772
0.6168158
0.5722835
0.5158209
0.4425585
0.3515855
0.7609625
0.7446837
0.7259541
0.7041674
0.6784939
0.6478538
0.6106804
0.5644959
0.5055454
0.4280501
0.322358
0.773846
0.7593351
0.7427755
0.7236952
0.7014619
0.6752796
0.6440217
0.6059417
0.5584699
0.4975733
0.4132333
0.2974004
0.7858675
0.772909
0.7582321
0.7414678
0.722131
0.6996305
0.6731488
0.6414419
0.6027492
0.5544059
0.4896812
0.4021936
0.2781236
0.7969795
0.7853727
0.772317
0.7575214
0.7406099
0.7211388
0.6985069
0.6718112
0.6398213
0.6007417
0.5499771
0.4840212
0.3938919
0.26362
0.807196
0.7967626
0.7850995
0.7719753
0.7570953
0.7401224
0.7206076
0.6978829
0.6710673
0.6389185
0.5981696
0.5468908
0.4797384
0.3875988
0.2521549
0.8165842
0.807171
0.7967076
0.785008
0.7718387
0.7569406
0.7399737
0.7204341
0.6976778
0.6708212
0.6374538
0.5965038
0.5446
0.4764762
0.3826611
0.2405956
0.8252363
0.8167151
0.8072915
0.7968148
0.7850982
0.7719407
0.7570812
0.7401334
0.7206173
0.6978903
0.6701124
0.6366936
0.5953851
0.542924
0.4738964
0.3775313
0.2327438
0.8332565
0.8255212
0.8170067
0.80759
0.7971202
0.7854402
0.7723476
0.7575419
0.7406595
0.721224
0.6977905
0.6700385
0.6363932
0.5947026
0.541604
0.470772
0.3733214
0.2254344
0.8407548
0.8337193
0.8260085
0.8175214
0.8081355
0.7977273
0.7861387
0.7731333
0.7584324
0.7416774
0.7217079
0.6983556
0.670461
0.6365059
0.5942045
0.5393088
0.4677266
0.3685931
0.2184226
0.8478293
0.8414237
0.8344316
0.82677
0.8183389
0.809041
0.7987524
0.7872856
0.7744254
0.7598994
0.7427703
0.7229828
0.6996573
0.6716296
0.6370427
0.5917908
0.5364064
0.463911
0.3636591
0.2120312
0.8544949
0.8486562
0.8423075
0.8353803
0.8277929
0.8194682
0.8103085
0.8001653
0.7888709
0.7762171
0.7614698
0.7447524
0.7255333
0.7032432
0.6771867
0.8605712
0.8552265
0.849435
0.8431397
0.836273
0.8287729
0.820562
0.8115199
0.8015144
0.7903826
0.7775294
0.7631439
0.7468443
0.7282351
0.7068095
0.8660285
0.8611089
0.8557945
0.8500368
0.8437794
0.836972
0.8295517
0.8214197
0.8124691
0.8025703
0.7912241
0.778637
0.7645137
0.748558
0.730392
0.8709174
0.866364
0.8614585
0.8561595
0.8504188
0.8441953
0.8374372
0.8300618
0.8219814
0.8130904
0.8029606
0.7917996
0.7793711
0.7654473
0.7497419
0.8753057
0.8710691
0.866516
0.8616105
0.8563112
0.8505837
0.8443849
0.8376445
0.8302893
0.822232
0.8130986
0.8030922
0.7920193
0.7797008
0.7659145
0.6924983
0.6649392
0.6317865
0.5911446
0.540309
0.476463
0.4059689
0.7149554
0.6914653
0.6636273
0.6300948
0.5889158
0.5374264
0.4726412
0.4000803
0.7336362
0.713255
0.6893959
0.6610715
0.6268786
0.584885
0.5322946
0.4655546
0.3889344
0.7494357
0.731493
0.7107019
0.6863149
0.6572936
0.6222485
0.5791426
0.5248109
0.4551576
0.3722933
0.763071
0.747096
0.7287441
0.7074349
0.6823782
0.6525506
0.6164798
0.5718575
0.5152608
0.4417862
0.3461273
0.775245
0.7609226
0.7445934
0.725799
0.7039269
0.6782095
0.6475644
0.6103191
0.5640317
0.5049256
0.4238032
0.3154908
0.7866679
0.7738105
0.7592554
0.7426398
0.7234872
0.7012192
0.6750365
0.6437241
0.6055689
0.5579889
0.4944312
0.4088069
0.2886334
0.7973936
0.7858361
0.772839
0.758114
0.7412885
0.7219241
0.6994265
0.6729037
0.6411419
0.6023733
0.5520447
0.4866719
0.3974182
0.2687956
0.8073659
0.7969516
0.785311
0.7722135
0.7573656
0.740432
0.7209658
0.6983023
0.6715656
0.6395207
0.5989101
0.5478002
0.4808642
0.3890386
0.2541252
0.8165842
0.807171
0.7967076
0.785008
0.7718387
0.7569406
0.7399737
0.7204341
0.6976778
0.6708212
0.6374538
0.5965038
0.5446
0.4764762
0.3826611
0.2405956
0.825097
0.8165617
0.8071217
0.7966261
0.784887
0.7717028
0.7568112
0.7398244
0.7202599
0.697472
0.6696189
0.6361185
0.5947229
0.54217
0.4730429
0.3765984
0.2317284
0.832978
0.8252159
0.8166706
0.8072182
0.7967068
0.7849778
0.7718268
0.7569509
0.7399831
0.7204418
0.6968809
0.6689974
0.6352246
0.5934239
0.5402535
0.4694859
0.3720206
0.2242166
0.8403139
0.8332379
0.8254808
0.8169404
0.8074928
0.7970126
0.785339
0.7722327
0.7574103
0.7405074
0.7203597
0.6968223
0.6687544
0.6346817
0.5924032
0.5379339
0.4665721
0.3675034
0.2175385
0.8471989
0.8407377
0.8336823
0.8259482
0.8174335
0.8080387
0.7976368
0.7860365
0.7730171
0.7582991
0.7409273
0.7208437
0.6971798
0.668851
0.6342861
0.590623
0.5356773
0.463321
0.3630706
0.2116093
0.8537183
0.8478138
0.8413901
0.8343771
0.8266909
0.8182523
0.8089605
0.7986621
0.7871838
0.7743097
0.7592544
0.7420297
0.7219554
0.698163
0.669296
0.6323509
0.5883733
0.5328575
0.4599431
0.3589231
0.2065729
0.8598816
0.8544811
0.8486265
0.8422594
0.8353109
0.8277173
0.8193988
0.8102318
0.80008
0.7887756
0.7756948
0.7609868
0.7442353
0.7250174
0.7028371
0.865518
0.8605588
0.8551998
0.849392
0.8430777
0.8362057
0.8287119
0.8204951
0.8114464
0.8014331
0.7899429
0.7771723
0.7628165
0.7465742