/*--------------------------------*- C++ -*----------------------------------*\
| =========                 |                                                 |
| \\      /  F ield         | OpenFOAM: The Open Source CFD Toolbox           |
|  \\    /   O peration     | Version:  2306                                  |
|   \\  /    A nd           | Website:  www.openfoam.com                      |
|    \\/     M anipulation  |                                                 |
\*---------------------------------------------------------------------------*/
FoamFile
{
    version     2.0;
    format      ascii;
    arch        "LSB;label=32;scalar=64";
    class       volScalarField;
    location    "0.6/fuel";
    object      iDmdtfuel.H2;
}
// * * * * * * * * * * * * * * * * * * * * * * * * * * * * * * * * * * * * * //

dimensions      [1 -3 -1 0 0 0 0];

internalField   nonuniform List<scalar> 
16000
(
-10.46251
-10.54408
-9.529735
-9.994849
-10.70753
-9.581613
-10.07021
-8.716859
-9.128572
-9.664607
-10.95316
-9.682848
-10.2211
-8.756039
-9.176766
-9.735849
-8.0589
-8.370124
-8.842999
-9.460882
-11.27145
-9.828493
-10.44763
-8.831582
-9.270745
-9.878433
-8.090797
-8.406692
-8.888685
-9.529836
-7.510857
-7.753914
-8.121833
-8.664521
-9.371912
-11.61191
-10.00485
-10.74086
-8.938068
-9.405874
-10.09247
-8.151853
-8.477154
-8.977743
-9.667876
-7.537862
-7.783798
-8.156596
-8.708747
-9.440167
-7.040498
-7.239043
-7.534609
-7.965266
-8.583992
-0
-11.86334
-10.17589
-11.0541
-9.062669
-9.569392
-10.36959
-8.236797
-8.576432
-9.105777
-9.875249
-7.589308
-7.840965
-8.223554
-8.794958
-9.576916
-7.063912
-7.264424
-7.563088
-7.998947
-8.627667
-0
-6.628565
-6.795951
-7.04298
-7.39551
-7.893245
-0
-0
-12.01693
-10.28931
-11.28441
-9.177028
-9.727842
-10.66576
-8.333957
-8.69254
-9.260717
-10.14416
-7.660219
-7.920464
-8.317881
-8.918942
-9.782661
-7.108373
-7.312748
-7.617546
-8.063817
-8.712838
-0
-6.649221
-6.818019
-7.067221
-7.423133
-7.92648
-0
-0
-6.262096
-6.40695
-6.619122
-6.918113
-7.330821
-0
-0
-0
-12.10097
-10.35035
-11.42448
-9.246953
-9.83257
-10.88282
-8.419796
-8.799019
-9.41085
-10.4322
-7.739986
-8.011347
-8.428188
-9.069092
-10.05021
-7.169224
-7.379326
-7.693264
-8.155215
-8.835416
-0
-6.688354
-6.859898
-7.113356
-7.475948
-7.990502
-0
-0
-6.280553
-6.426465
-6.64024
-6.941653
-7.358076
-0
-0
-0
-5.93237
-6.060108
-6.246381
-6.506163
-6.859655
-0
-0
-0
-0
-12.1376
-10.37986
-11.50084
-9.279875
-9.888754
-11.01448
-8.469113
-8.863943
-9.509783
-10.64294
-7.808459
-8.091566
-8.529315
-9.214719
-10.33792
-7.236792
-7.454173
-7.779804
-8.262136
-8.98407
-0
-6.741617
-6.917189
-7.176903
-7.549384
-8.080743
-0
-0
-6.315468
-6.463418
-6.680301
-6.986445
-7.410191
-0
-0
-0
-5.949027
-6.077586
-6.26509
-6.526692
-6.882886
-0
-0
-0
-0
-5.633031
-5.747399
-5.913515
-6.143568
-6.453053
-0
-0
-0
-0
-0
-12.1376
-10.39152
-11.53404
-9.292956
-9.915828
-11.08611
-8.489566
-8.894416
-9.562727
-10.77066
-7.845843
-8.137521
-8.590781
-9.310425
-10.54836
-7.293476
-7.518347
-7.856139
-8.36018
-9.128491
-0
-6.800147
-6.98076
-7.248316
-7.633327
-8.186393
-0
-0
-6.362776
-6.513689
-6.735088
-7.04814
-7.482672
-0
-0
-0
-5.980505
-6.11063
-6.300501
-6.565629
-6.927091
-0
-0
-0
-0
-5.648183
-5.763204
-5.930297
-6.161774
-6.47332
-0
-0
-0
-0
-0
-5.359318
-5.462966
-5.612963
-5.819475
-6.095092
-0
-0
-0
-0
-0
-0
-12.10097
-10.39152
-11.53404
-9.29707
-9.9265
-11.11723
-8.495762
-8.90648
-9.5882
-10.84015
-7.859526
-8.156504
-8.619543
-9.361569
-10.67603
-7.323097
-7.553271
-7.899714
-8.419569
-9.22319
-0
-6.848331
-7.034015
-7.309487
-7.707348
-8.28333
-0
-0
-6.414318
-6.568886
-6.795852
-7.11747
-7.565559
-0
-0
-0
-6.023
-6.155381
-6.348658
-6.618874
-6.987987
-0
-0
-0
-0
-5.676802
-5.793058
-5.962014
-6.196227
-6.511758
-0
-0
-0
-0
-0
-5.373193
-5.47737
-5.628162
-5.835823
-6.113072
-0
-0
-0
-0
-0
-0
-5.107546
-5.202418
-5.33921
-5.526593
-5.775053
-0
-0
-0
-0
-0
-0
-0
-12.01693
-10.37986
-11.50084
-9.29707
-9.9265
-11.11723
-8.49683
-8.910257
-9.598233
-10.87035
-7.862219
-8.162211
-8.630896
-9.386181
-10.74563
-7.332638
-7.565979
-7.917633
-8.447282
-9.273773
-0
-6.872562
-7.061739
-7.34264
-7.749429
-8.341837
-0
-0
-6.456085
-6.614253
-6.846692
-7.176815
-7.638644
-0
-0
-0
-6.068967
-6.204093
-6.401506
-6.677919
-7.056436
-0
-0
-0
-0
-5.715318
-5.833338
-6.004952
-6.243076
-6.564327
-0
-0
-0
-0
-0
-5.399394
-5.504564
-5.65686
-5.866712
-6.147096
-0
-0
-0
-0
-0
-0
-5.120322
-5.215631
-5.353081
-5.541412
-5.791204
-0
-0
-0
-0
-0
-0
-0
-4.874781
-4.962354
-5.088119
-5.259604
-5.485745
-0
-0
-0
-0
-0
-0
-0
-0
-11.86334
-10.35035
-11.42448
-9.292956
-9.915828
-11.08611
-8.49683
-8.910257
-9.598233
-10.87035
-7.861816
-8.163171
-8.63444
-9.395884
-10.77594
-7.333338
-7.568425
-7.922976
-8.458202
-9.298159
-0
-6.879392
-7.070589
-7.354622
-7.76665
-8.369066
-0
-0
-6.476384
-6.636967
-6.873036
-7.208825
-7.680001
-0
-0
-0
-6.105723
-6.243494
-6.444877
-6.727272
-7.114996
-0
-0
-0
-0
-5.756729
-5.876867
-6.051663
-6.294475
-6.622629
-0
-0
-0
-0
-0
-5.434564
-5.541142
-5.695566
-5.908524
-6.193366
-0
-0
-0
-0
-0
-0
-5.144448
-5.240571
-5.379259
-5.569387
-5.821721
-0
-0
-0
-0
-0
-0
-0
-4.886599
-4.97454
-5.100859
-5.27314
-5.500391
-0
-0
-0
-0
-0
-0
-0
-0
-4.658704
-4.740062
-4.856483
-5.014521
-5.221927
-0
-0
-0
-0
-0
-0
-0
-0
-0
-11.61191
-10.28931
-11.28441
-9.279875
-9.888754
-11.01448
-8.495762
-8.90648
-9.5882
-10.84015
-7.861816
-8.163171
-8.63444
-9.395884
-10.77594
-7.332149
-7.568009
-7.923851
-8.461607
-9.307799
-0
-6.878887
-7.071167
-7.356869
-7.771744
-8.379787
-0
-0
-6.481349
-6.643286
-6.881361
-7.220306
-7.696836
-0
-0
-0
-6.123051
-6.262548
-6.466478
-6.752708
-7.146413
-0
-0
-0
-0
-5.789466
-5.911604
-6.089381
-6.336606
-6.671319
-0
-0
-0
-0
-0
-5.472181
-5.580429
-5.737366
-5.953995
-6.244131
-0
-0
-0
-0
-0
-0
-5.176761
-5.27403
-5.414456
-5.607112
-5.863031
-0
-0
-0
-0
-0
-0
-0
-4.908921
-4.997544
-5.124898
-5.298681
-5.52804
-0
-0
-0
-0
-0
-0
-0
-0
-4.669675
-4.751352
-4.868247
-5.026964
-5.235311
-0
-0
-0
-0
-0
-0
-0
-0
-0
-4.457389
-4.5334
-4.641745
-4.788255
-4.979676
-0
-0
-0
-0
-0
-0
-0
-0
-0
-0
-11.27145
-10.17589
-11.0541
-9.246953
-9.83257
-10.88282
-8.489566
-8.894416
-9.562727
-10.77066
-7.862219
-8.162211
-8.630896
-9.386181
-10.74563
-7.332149
-7.568009
-7.923851
-8.461607
-9.307799
-0
-6.877261
-7.07001
-7.356434
-7.772558
-8.383132
-0
-0
-6.48009
-6.642729
-6.881829
-7.222401
-7.701775
-0
-0
-0
-6.126694
-6.267122
-6.4724
-6.760657
-7.157586
-0
-0
-0
-0
-5.804483
-5.927889
-6.107515
-6.357465
-6.696264
-0
-0
-0
-0
-0
-5.50163
-5.61142
-5.770662
-5.99066
-6.285698
-0
-0
-0
-0
-0
-0
-5.211161
-5.309779
-5.452233
-5.647838
-5.907955
-0
-0
-0
-0
-0
-0
-0
-4.938756
-5.028334
-5.157136
-5.333015
-5.565327
-0
-0
-0
-0
-0
-0
-0
-0
-4.690407
-4.772668
-4.890447
-5.050437
-5.260564
-0
-0
-0
-0
-0
-0
-0
-0
-0
-4.467611
-4.543896
-4.652656
-4.799753
-4.991983
-0
-0
-0
-0
-0
-0
-0
-0
-0
-0
-4.269273
-4.340585
-4.441886
-4.578341
-4.755951
-0
-0
-0
-0
-0
-0
-0
-0
-0
-0
-10.95316
-10.00485
-10.74086
-9.177028
-9.727842
-10.66576
-8.469113
-8.863943
-9.509783
-10.64294
-7.859526
-8.156504
-8.619543
-9.361569
-10.67603
-7.333338
-7.568425
-7.922976
-8.458202
-9.298159
-0
-6.877261
-7.07001
-7.356434
-7.772558
-8.383132
-0
-0
-6.478221
-6.641156
-6.880685
-7.221941
-7.702544
-0
-0
-0
-6.124959
-6.265851
-6.471784
-6.761028
-7.159563
-0
-0
-0
-0
-5.807161
-5.931224
-6.11178
-6.363094
-6.703965
-0
-0
-0
-0
-0
-5.51481
-5.625548
-5.786172
-6.008175
-6.306146
-0
-0
-0
-0
-0
-0
-5.237855
-5.337702
-5.481974
-5.680228
-5.944137
-0
-0
-0
-0
-0
-0
-0
-4.970392
-5.061079
-5.191555
-5.369852
-5.605577
-0
-0
-0
-0
-0
-0
-0
-0
-4.718077
-4.801141
-4.92015
-5.081911
-5.294513
-0
-0
-0
-0
-0
-0
-0
-0
-0
-4.486945
-4.563721
-4.673251
-4.821448
-5.015201
-0
-0
-0
-0
-0
-0
-0
-0
-0
-0
-4.278831
-4.350378
-4.45204
-4.589014
-4.767328
-0
-0
-0
-0
-0
-0
-0
-0
-0
-0
-4.093003
-4.160173
-4.255222
-4.382835
-4.548326
-0
-0
-0
-0
-0
-0
-0
-0
-0
-0
-10.70753
-9.828493
-10.44763
-9.062669
-9.569392
-10.36959
-8.419796
-8.799019
-9.41085
-10.4322
-7.845843
-8.137521
-8.590781
-9.310425
-10.54836
-7.332638
-7.565979
-7.917633
-8.447282
-9.273773
-0
-6.878887
-7.071167
-7.356869
-7.771744
-8.379787
-0
-0
-6.478221
-6.641156
-6.880685
-7.221941
-7.702544
-0
-0
-0
-6.122962
-6.264045
-6.47024
-6.759879
-7.159071
-0
-0
-0
-0
-5.805124
-5.9295
-6.110482
-6.362416
-6.704245
-0
-0
-0
-0
-0
-5.516768
-5.627979
-5.78926
-6.012207
-6.311572
-0
-0
-0
-0
-0
-0
-5.249535
-5.350116
-5.495441
-5.695213
-5.961302
-0
-0
-0
-0
-0
-0
-0
-4.994772
-5.086428
-5.218383
-5.398805
-5.637547
-0
-0
-0
-0
-0
-0
-0
-0
-4.747331
-4.8313
-4.951714
-5.1155
-5.330932
-0
-0
-0
-0
-0
-0
-0
-0
-0
-4.512718
-4.590167
-4.70075
-4.850469
-5.046332
-0
-0
-0
-0
-0
-0
-0
-0
-0
-0
-4.296923
-4.368892
-4.471215
-4.609154
-4.788793
-0
-0
-0
-0
-0
-0
-0
-0
-0
-0
-4.101967
-4.16934
-4.264705
-4.392773
-4.558889
-0
-0
-0
-0
-0
-0
-0
-0
-0
-0
-3.927452
-3.990908
-4.080392
-4.200115
-4.354891
-0
-0
-0
-0
-0
-0
-0
-0
-0
-0
-10.54408
-9.682848
-10.2211
-8.938068
-9.405874
-10.09247
-8.333957
-8.69254
-9.260716
-10.14416
-7.808459
-8.091566
-8.529315
-9.214719
-10.33792
-7.323097
-7.553271
-7.899714
-8.419569
-9.22319
-0
-6.879392
-7.070589
-7.354622
-7.76665
-8.369066
-0
-0
-6.48009
-6.642729
-6.881829
-7.222401
-7.701775
-0
-0
-0
-6.122962
-6.264045
-6.47024
-6.759879
-7.159071
-0
-0
-0
-0
-5.803071
-5.92757
-6.108712
-6.360879
-6.703075
-0
-0
-0
-0
-0
-5.514543
-5.625969
-5.787529
-6.010869
-6.310824
-0
-0
-0
-0
-0
-0
-5.25095
-5.351871
-5.49767
-5.698111
-5.965166
-0
-0
-0
-0
-0
-0
-0
-5.005238
-5.097439
-5.230224
-5.41182
-5.652232
-0
-0
-0
-0
-0
-0
-0
-0
-4.769742
-4.854484
-4.976096
-5.141636
-5.359518
-0
-0
-0
-0
-0
-0
-0
-0
-0
-4.539893
-4.618095
-4.729854
-4.881295
-5.079552
-0
-0
-0
-0
-0
-0
-0
-0
-0
-0
-4.321014
-4.393558
-4.496783
-4.636042
-4.817509
-0
-0
-0
-0
-0
-0
-0
-0
-0
-0
-4.118948
-4.186687
-4.28263
-4.411539
-4.578825
-0
-0
-0
-0
-0
-0
-0
-0
-0
-0
-3.935878
-3.999514
-4.089278
-4.209402
-4.36473
-0
-0
-0
-0
-0
-0
-0
-0
-0
-0
-3.771619
-3.831744
-3.916209
-4.028868
-4.174049
-0
-0
-0
-0
-0
-0
-0
-0
-0
-0
-10.46251
-9.581613
-10.07021
-8.831582
-9.270745
-9.878433
-8.236797
-8.576432
-9.105777
-9.875249
-7.739986
-8.011347
-8.428188
-9.069092
-10.05021
-7.293476
-7.518347
-7.856139
-8.36018
-9.128491
-0
-6.872562
-7.061739
-7.34264
-7.749429
-8.341837
-0
-0
-6.481349
-6.643286
-6.881361
-7.220306
-7.696836
-0
-0
-0
-6.124959
-6.265851
-6.471784
-6.761028
-7.159563
-0
-0
-0
-0
-5.803071
-5.92757
-6.108712
-6.360879
-6.703075
-0
-0
-0
-0
-0
-5.512475
-5.623981
-5.785638
-6.009111
-6.309271
-0
-0
-0
-0
-0
-0
-5.248623
-5.349681
-5.495665
-5.696354
-5.963772
-0
-0
-0
-0
-0
-0
-0
-5.006254
-5.098686
-5.231812
-5.413891
-5.654988
-0
-0
-0
-0
-0
-0
-0
-0
-4.779207
-4.864362
-4.986607
-5.153084
-5.372273
-0
-0
-0
-0
-0
-0
-0
-0
-0
-4.560607
-4.639436
-4.752177
-4.905064
-5.105365
-0
-0
-0
-0
-0
-0
-0
-0
-0
-0
-4.346357
-4.419536
-4.523763
-4.664485
-4.848007
-0
-0
-0
-0
-0
-0
-0
-0
-0
-0
-4.141542
-4.209774
-4.306502
-4.436555
-4.605438
-0
-0
-0
-0
-0
-0
-0
-0
-0
-0
-3.951857
-4.015817
-4.106089
-4.226955
-4.38331
-0
-0
-0
-0
-0
-0
-0
-0
-0
-0
-3.779556
-3.839844
-3.924559
-4.037576
-4.183248
-0
-0
-0
-0
-0
-0
-0
-0
-0
-0
-3.624653
-3.681752
-3.761685
-3.867952
-4.004514
-0
-0
-0
-0
-0
-0
-0
-0
-0
-0
-9.529735
-9.994849
-8.756039
-9.176766
-9.735849
-8.151853
-8.477154
-8.977743
-9.667876
-7.660219
-7.920464
-8.317881
-8.918942
-9.782661
-7.236792
-7.454173
-7.779804
-8.262136
-8.98407
-0
-6.848331
-7.034015
-7.309487
-7.707348
-8.28333
-0
-0
-6.476384
-6.636967
-6.873036
-7.208825
-7.680001
-0
-0
-0
-6.126694
-6.267122
-6.4724
-6.760657
-7.157586
-0
-0
-0
-0
-5.805124
-5.9295
-6.110482
-6.362416
-6.704245
-0
-0
-0
-0
-0
-5.512475
-5.623981
-5.785638
-6.009111
-6.309271
-0
-0
-0
-0
-0
-0
-5.246573
-5.347677
-5.493717
-5.694479
-5.962005
-0
-0
-0
-0
-0
-0
-0
-5.003885
-5.096398
-5.229635
-5.41187
-5.653187
-0
-0
-0
-0
-0
-0
-0
-0
-4.779923
-4.865235
-4.987712
-5.154539
-5.374223
-0
-0
-0
-0
-0
-0
-0
-0
-0
-4.569231
-4.648378
-4.761613
-4.91523
-5.116585
-0
-0
-0
-0
-0
-0
-0
-0
-0
-0
-4.365593
-4.439287
-4.544333
-4.686262
-4.87149
-0
-0
-0
-0
-0
-0
-0
-0
-0
-0
-0
-4.165259
-4.234031
-4.331624
-4.462941
-4.633588
-0
-0
-0
-0
-0
-0
-0
-0
-0
-0
-3.973098
-4.037494
-4.128454
-4.250328
-4.40808
-0
-0
-0
-0
-0
-0
-0
-0
-0
-0
-3.794624
-3.855201
-3.940373
-4.054049
-4.200633
-0
-0
-0
-0
-0
-0
-0
-0
-0
-0
-3.632145
-3.68939
-3.76955
-3.87614
-4.013141
-0
-0
-0
-0
-0
-0
-0
-0
-0
-0
-3.485824
-3.540141
-3.615941
-3.716415
-3.84516
-0
-0
-0
-0
-0
-0
-0
-0
-0
-0
-8.716859
-9.128572
-9.664607
-8.090797
-8.406692
-8.888685
-9.529836
-7.589308
-7.840965
-8.223554
-8.794958
-9.576916
-7.169224
-7.379326
-7.693264
-8.155215
-8.835416
-0
-6.800147
-6.98076
-7.248316
-7.633327
-8.186393
-0
-0
-6.456085
-6.614253
-6.846692
-7.176815
-7.638644
-0
-0
-0
-6.123051
-6.262548
-6.466478
-6.752708
-7.146413
-0
-0
-0
-0
-5.807161
-5.931224
-6.11178
-6.363094
-6.703965
-0
-0
-0
-0
-0
-5.514543
-5.625969
-5.787529
-6.010869
-6.310824
-0
-0
-0
-0
-0
-0
-5.246573
-5.347677
-5.493717
-5.694479
-5.962005
-0
-0
-0
-0
-0
-0
-0
-5.001877
-5.09441
-5.227671
-5.40994
-5.651306
-0
-0
-0
-0
-0
-0
-0
-0
-4.777556
-4.862908
-4.985441
-5.152352
-5.372166
-0
-0
-0
-0
-0
-0
-0
-0
-0
-4.569724
-4.648972
-4.762366
-4.916222
-5.117937
-0
-0
-0
-0
-0
-0
-0
-0
-0
-0
-4.373506
-4.447444
-4.552882
-4.695393
-4.881455
-0
-0
-0
-0
-0
-0
-0
-0
-0
-0
-0
-4.183191
-4.252396
-4.35068
-4.483022
-4.655111
-0
-0
-0
-0
-0
-0
-0
-0
-0
-0
-0
-0
-3.99535
-4.060224
-4.151934
-4.274912
-4.434202
-0
-0
-0
-0
-0
-0
-0
-0
-0
-0
-3.814637
-3.875605
-3.961392
-4.07596
-4.223782
-0
-0
-0
-0
-0
-0
-0
-0
-0
-0
-3.646383
-3.703888
-3.78446
-3.891644
-4.029461
-0
-0
-0
-0
-0
-0
-0
-0
-0
-0
-3.492906
-3.547358
-3.623363
-3.724131
-3.853273
-0
-0
-0
-0
-0
-0
-0
-0
-0
-0
-3.354397
-3.406231
-3.478228
-3.573408
-3.695052
-0
-0
-0
-0
-0
-0
-0
-0
-0
-0
-8.0589
-8.370124
-8.842999
-9.460882
-7.537862
-7.783798
-8.156596
-8.708747
-9.440167
-7.108373
-7.312748
-7.617546
-8.063817
-8.712838
-0
-6.741617
-6.917189
-7.176903
-7.549384
-8.080743
-0
-0
-6.414318
-6.568886
-6.795852
-7.11747
-7.565559
-0
-0
-0
-6.105723
-6.243494
-6.444877
-6.727272
-7.114996
-0
-0
-0
-0
-5.804483
-5.927889
-6.107515
-6.357465
-6.696264
-0
-0
-0
-0
-0
-5.516768
-5.627979
-5.78926
-6.012207
-6.311572
-0
-0
-0
-0
-0
-0
-5.248623
-5.349681
-5.495665
-5.696354
-5.963772
-0
-0
-0
-0
-0
-0
-0
-5.001877
-5.09441
-5.227671
-5.40994
-5.651306
-0
-0
-0
-0
-0
-0
-0
-0
-4.775602
-4.860957
-4.983492
-5.150407
-5.370233
-0
-0
-0
-0
-0
-0
-0
-0
-0
-4.567386
-4.646646
-4.760058
-4.913947
-5.115721
-0
-0
-0
-0
-0
-0
-0
-0
-0
-0
-4.373828
-4.44783
-4.553372
-4.696048
-4.882357
-0
-0
-0
-0
-0
-0
-0
-0
-0
-0
-0
-4.190479
-4.259888
-4.358485
-4.491298
-4.664063
-0
-0
-0
-0
-0
-0
-0
-0
-0
-0
-0
-0
-4.012118
-4.077365
-4.169671
-4.293527
-4.454055
-0
-0
-0
-0
-0
-0
-0
-0
-0
-0
-0
-0
-0
-3.835567
-3.896954
-3.983412
-4.098952
-4.248129
-0
-0
-0
-0
-0
-0
-0
-0
-0
-0
-3.665281
-3.723132
-3.804261
-3.912248
-4.051168
-0
-0
-0
-0
-0
-0
-0
-0
-0
-0
-3.506379
-3.56107
-3.63745
-3.738758
-3.868638
-0
-0
-0
-0
-0
-0
-0
-0
-0
-0
-3.361094
-3.413059
-3.485246
-3.580694
-3.7027
-0
-0
-0
-0
-0
-0
-0
-0
-0
-0
-3.229804
-3.279334
-3.347902
-3.438209
-3.553355
-0
-0
-0
-0
-0
-0
-0
-0
-0
-0
-7.510857
-7.753914
-8.121833
-8.664521
-9.371912
-7.063912
-7.264424
-7.563088
-7.998947
-8.627667
-0
-6.688354
-6.859898
-7.113356
-7.475948
-7.990502
-0
-0
-6.362776
-6.513689
-6.735088
-7.04814
-7.482672
-0
-0
-0
-6.068967
-6.204093
-6.401506
-6.677919
-7.056436
-0
-0
-0
-0
-5.789466
-5.911604
-6.089381
-6.336606
-6.671319
-0
-0
-0
-0
-0
-5.51481
-5.625548
-5.786172
-6.008175
-6.306146
-0
-0
-0
-0
-0
-0
-5.25095
-5.351871
-5.49767
-5.698111
-5.965166
-0
-0
-0
-0
-0
-0
-0
-5.003885
-5.096398
-5.229635
-5.41187
-5.653187
-0
-0
-0
-0
-0
-0
-0
-0
-4.775602
-4.860957
-4.983492
-5.150407
-5.370233
-0
-0
-0
-0
-0
-0
-0
-0
-0
-4.565495
-4.644746
-4.758145
-4.912016
-5.113773
-0
-0
-0
-0
-0
-0
-0
-0
-0
-0
-4.371534
-4.445532
-4.551066
-4.693739
-4.880057
-0
-0
-0
-0
-0
-0
-0
-0
-0
-0
-0
-4.190661
-4.260116
-4.35878
-4.491702
-4.664638
-0
-0
-0
-0
-0
-0
-0
-0
-0
-0
-0
-0
-4.018875
-4.084271
-4.176844
-4.301087
-4.462171
-0
-0
-0
-0
-0
-0
-0
-0
-0
-0
-0
-0
-0
-3.851308
-3.913001
-3.999982
-4.116289
-4.266538
-0
-0
-0
-0
-0
-0
-0
-0
-0
-0
-0
-0
-0
-0
-3.685027
-3.743235
-3.824963
-3.933825
-4.073945
-0
-0
-0
-0
-0
-0
-0
-0
-0
-0
-3.524255
-3.579261
-3.656141
-3.758179
-3.889057
-0
-0
-0
-0
-0
-0
-0
-0
-0
-0
-3.373858
-3.426048
-3.49858
-3.59452
-3.717199
-0
-0
-0
-0
-0
-0
-0
-0
-0
-0
-3.236159
-3.285797
-3.354547
-3.445101
-3.560579
-0
-0
-0
-0
-0
-0
-0
-0
-0
-0
-3.111581
-3.15892
-3.224308
-3.310197
-3.419361
-0
-0
-0
-0
-0
-0
-0
-0
-0
-0
-7.040498
-7.239043
-7.534609
-7.965266
-8.583992
-0
-6.649221
-6.818019
-7.067221
-7.423133
-7.92648
-0
-0
-6.315468
-6.463418
-6.680301
-6.986445
-7.410191
-0
-0
-0
-6.023
-6.155381
-6.348658
-6.618874
-6.987987
-0
-0
-0
-0
-5.756729
-5.876867
-6.051663
-6.294475
-6.622629
-0
-0
-0
-0
-0
-5.50163
-5.61142
-5.770662
-5.99066
-6.285698
-0
-0
-0
-0
-0
-0
-5.249535
-5.350116
-5.495441
-5.695213
-5.961302
-0
-0
-0
-0
-0
-0
-0
-5.006254
-5.098686
-5.231812
-5.413891
-5.654988
-0
-0
-0
-0
-0
-0
-0
-0
-4.777556
-4.862908
-4.985441
-5.152352
-5.372166
-0
-0
-0
-0
-0
-0
-0
-0
-0
-4.565495
-4.644746
-4.758145
-4.912016
-5.113773
-0
-0
-0
-0
-0
-0
-0
-0
-0
-0
-4.369708
-4.443692
-4.549202
-4.691843
-4.878125
-0
-0
-0
-0
-0
-0
-0
-0
-0
-0
-0
-4.188422
-4.257862
-4.356503
-4.489397
-4.662308
-0
-0
-0
-0
-0
-0
-0
-0
-0
-0
-0
-0
-4.018966
-4.084371
-4.176992
-4.301306
-4.462504
-0
-0
-0
-0
-0
-0
-0
-0
-0
-0
-0
-0
-0
-3.857611
-3.919411
-4.006601
-4.123241
-4.273954
-0
-0
-0
-0
-0
-0
-0
-0
-0
-0
-0
-0
-0
-0
-3.699848
-3.758316
-3.840487
-3.95003
-4.091096
-0
-0
-0
-0
-0
-0
-0
-0
-0
-0
-0
-0
-0
-0
-0
-3.542908
-3.598247
-3.67565
-3.778474
-3.910437
-0
-0
-0
-0
-0
-0
-0
-0
-0
-0
-3.390794
-3.443272
-3.516262
-3.612862
-3.73645
-0
-0
-0
-0
-0
-0
-0
-0
-0
-0
-3.24829
-3.298113
-3.367186
-3.458195
-3.574287
-0
-0
-0
-0
-0
-0
-0
-0
-0
-0
-3.117623
-3.165058
-3.230601
-3.316725
-3.426195
-0
-0
-0
-0
-0
-0
-0
-0
-0
-0
-2.999379
-3.044559
-3.106944
-3.188737
-3.292458
-0
-0
-0
-0
-0
-0
-0
-0
-0
-0
-6.628565
-6.795951
-7.04298
-7.39551
-7.893245
-0
-0
-6.280553
-6.426465
-6.64024
-6.941653
-7.358076
-0
-0
-0
-5.980505
-6.11063
-6.300501
-6.565629
-6.927091
-0
-0
-0
-0
-5.715318
-5.833338
-6.004952
-6.243076
-6.564327
-0
-0
-0
-0
-0
-5.472181
-5.580429
-5.737366
-5.953995
-6.244131
-0
-0
-0
-0
-0
-0
-5.237855
-5.337702
-5.481974
-5.680228
-5.944137
-0
-0
-0
-0
-0
-0
-0
-5.005238
-5.097439
-5.230224
-5.41182
-5.652232
-0
-0
-0
-0
-0
-0
-0
-0
-4.779923
-4.865235
-4.987712
-5.154539
-5.374223
-0
-0
-0
-0
-0
-0
-0
-0
-0
-4.567386
-4.646646
-4.760058
-4.913947
-5.115721
-0
-0
-0
-0
-0
-0
-0
-0
-0
-0
-4.369708
-4.443692
-4.549202
-4.691843
-4.878125
-0
-0
-0
-0
-0
-0
-0
-0
-0
-0
-0
-4.186664
-4.256083
-4.354695
-4.48755
-4.660412
-0
-0
-0
-0
-0
-0
-0
-0
-0
-0
-0
-0
-4.016801
-4.082169
-4.174758
-4.299031
-4.460182
-0
-0
-0
-0
-0
-0
-0
-0
-0
-0
-0
-0
-0
-3.857637
-3.919428
-4.006628
-4.123321
-4.27411
-0
-0
-0
-0
-0
-0
-0
-0
-0
-0
-0
-0
-0
-0
-3.705744
-3.764302
-3.846636
-3.956449
-4.097918
-0
-0
-0
-0
-0
-0
-0
-0
-0
-0
-0
-0
-0
-0
-0
-3.556886
-3.612461
-3.690252
-3.793666
-3.926474
-0
-0
-0
-0
-0
-0
-0
-0
-0
-0
-0
-0
-0
-0
-0
-0
-3.40846
-3.461224
-3.534701
-3.631998
-3.756566
-0
-0
-0
-0
-0
-0
-0
-0
-0
-0
-3.264385
-3.314445
-3.38394
-3.475555
-3.592474
-0
-0
-0
-0
-0
-0
-0
-0
-0
-0
-3.129173
-3.176774
-3.242594
-3.329142
-3.439181
-0
-0
-0
-0
-0
-0
-0
-0
-0
-0
-3.005131
-3.050399
-3.112924
-3.194922
-3.298933
-0
-0
-0
-0
-0
-0
-0
-0
-0
-0
-2.892713
-2.935929
-2.995402
-3.073343
-3.172021
-0
-0
-0
-0
-0
-0
-0
-0
-0
-0
-6.262096
-6.40695
-6.619122
-6.918113
-7.330821
-0
-0
-0
-5.949027
-6.077586
-6.26509
-6.526692
-6.882886
-0
-0
-0
-0
-5.676802
-5.793058
-5.962014
-6.196227
-6.511758
-0
-0
-0
-0
-0
-5.434564
-5.541142
-5.695566
-5.908524
-6.193366
-0
-0
-0
-0
-0
-0
-5.211161
-5.309779
-5.452233
-5.647838
-5.907955
-0
-0
-0
-0
-0
-0
-0
-4.994772
-5.086428
-5.218383
-5.398805
-5.637547
-0
-0
-0
-0
-0
-0
-0
-0
-4.779207
-4.864362
-4.986607
-5.153084
-5.372273
-0
-0
-0
-0
-0
-0
-0
-0
-0
-4.569724
-4.648972
-4.762366
-4.916222
-5.117937
-0
-0
-0
-0
-0
-0
-0
-0
-0
-0
-4.371534
-4.445532
-4.551066
-4.693739
-4.880057
-0
-0
-0
-0
-0
-0
-0
-0
-0
-0
-0
-4.186664
-4.256083
-4.354695
-4.48755
-4.660412
-0
-0
-0
-0
-0
-0
-0
-0
-0
-0
-0
-0
-4.015116
-4.080455
-4.17301
-4.29724
-4.458335
-0
-0
-0
-0
-0
-0
-0
-0
-0
-0
-0
-0
-0
-3.85555
-3.917298
-4.004446
-4.12109
-4.27182
-0
-0
-0
-0
-0
-0
-0
-0
-0
-0
-0
-0
-0
-0
-3.705716
-3.764261
-3.846587
-3.956415
-4.097941
-0
-0
-0
-0
-0
-0
-0
-0
-0
-0
-0
-0
-0
-0
-0
-3.56242
-3.618067
-3.695999
-3.799632
-3.932774
-0
-0
-0
-0
-0
-0
-0
-0
-0
-0
-0
-0
-0
-0
-0
-0
-3.421691
-3.474643
-3.548475
-3.646296
-3.771605
-0
-0
-0
-0
-0
-0
-0
-0
-0
-0
-0
-0
-0
-0
-0
-0
-0
-3.281166
-3.331464
-3.401388
-3.493651
-3.611446
-0
-0
-0
-0
-0
-0
-0
-0
-0
-0
-3.144497
-3.192309
-3.258491
-3.3456
-3.456399
-0
-0
-0
-0
-0
-0
-0
-0
-0
-0
-3.016144
-3.061563
-3.12434
-3.206709
-3.311251
-0
-0
-0
-0
-0
-0
-0
-0
-0
-0
-2.898195
-2.941493
-3.001096
-3.079224
-3.178157
-0
-0
-0
-0
-0
-0
-0
-0
-0
-0
-2.791201
-2.832573
-2.889383
-2.963626
-3.057574
-0
-0
-0
-0
-0
-0
-0
-0
-0
-0
-5.93237
-6.060108
-6.246381
-6.506163
-6.859655
-0
-0
-0
-0
-5.648183
-5.763204
-5.930297
-6.161774
-6.47332
-0
-0
-0
-0
-0
-5.399394
-5.504564
-5.65686
-5.866712
-6.147096
-0
-0
-0
-0
-0
-0
-5.176761
-5.27403
-5.414456
-5.607112
-5.863031
-0
-0
-0
-0
-0
-0
-0
-4.970392
-5.061079
-5.191555
-5.369852
-5.605577
-0
-0
-0
-0
-0
-0
-0
-0
-4.769742
-4.854484
-4.976096
-5.141636
-5.359518
-0
-0
-0
-0
-0
-0
-0
-0
-0
-4.569231
-4.648378
-4.761613
-4.91523
-5.116585
-0
-0
-0
-0
-0
-0
-0
-0
-0
-0
-4.373828
-4.44783
-4.553372
-4.696048
-4.882357
-0
-0
-0
-0
-0
-0
-0
-0
-0
-0
-0
-4.188422
-4.257862
-4.356503
-4.489397
-4.662308
-0
-0
-0
-0
-0
-0
-0
-0
-0
-0
-0
-0
-4.015116
-4.080455
-4.17301
-4.29724
-4.458335
-0
-0
-0
-0
-0
-0
-0
-0
-0
-0
-0
-0
-0
-3.853936
-3.915653
-4.002761
-4.119357
-4.270029
-0
-0
-0
-0
-0
-0
-0
-0
-0
-0
-0
-0
-0
-0
-3.703705
-3.762206
-3.844476
-3.954237
-4.095697
-0
-0
-0
-0
-0
-0
-0
-0
-0
-0
-0
-0
-0
-0
-0
-3.562356
-3.617978
-3.695899
-3.799528
-3.932689
-0
-0
-0
-0
-0
-0
-0
-0
-0
-0
-0
-0
-0
-0
-0
-0
-3.426919
-3.47991
-3.55386
-3.651875
-3.777463
-0
-0
-0
-0
-0
-0
-0
-0
-0
-0
-0
-0
-0
-0
-0
-0
-0
-3.293731
-3.344178
-3.414402
-3.507146
-3.625604
-0
-0
-0
-0
-0
-0
-0
-0
-0
-0
-0
-0
-0
-0
-0
-0
-0
-0
-3.16047
-3.20849
-3.275044
-3.362731
-3.474344
-0
-0
-0
-0
-0
-0
-0
-0
-0
-0
-3.030755
-3.076367
-3.139472
-3.222333
-3.327576
-0
-0
-0
-0
-0
-0
-0
-0
-0
-0
-2.908709
-2.952146
-3.011981
-3.09045
-3.189852
-0
-0
-0
-0
-0
-0
-0
-0
-0
-0
-2.796434
-2.83788
-2.89481
-2.969227
-3.063409
-0
-0
-0
-0
-0
-0
-0
-0
-0
-0
-2.694495
-2.734134
-2.788448
-2.859296
-2.948732
-0
-0
-0
-0
-0
-0
-0
-0
-0
-0
-5.633031
-5.747399
-5.913515
-6.143568
-6.453053
-0
-0
-0
-0
-0
-5.373193
-5.47737
-5.628162
-5.835823
-6.113072
-0
-0
-0
-0
-0
-0
-5.144448
-5.240571
-5.379259
-5.569387
-5.821721
-0
-0
-0
-0
-0
-0
-0
-4.938756
-5.028334
-5.157136
-5.333015
-5.565327
-0
-0
-0
-0
-0
-0
-0
-0
-4.747331
-4.8313
-4.951714
-5.1155
-5.330932
-0
-0
-0
-0
-0
-0
-0
-0
-0
-4.560607
-4.639436
-4.752177
-4.905064
-5.105365
-0
-0
-0
-0
-0
-0
-0
-0
-0
-0
-4.373506
-4.447444
-4.552882
-4.695393
-4.881455
-0
-0
-0
-0
-0
-0
-0
-0
-0
-0
-0
-4.190661
-4.260116
-4.35878
-4.491702
-4.664638
-0
-0
-0
-0
-0
-0
-0
-0
-0
-0
-0
-0
-4.016801
-4.082169
-4.174758
-4.299031
-4.460182
-0
-0
-0
-0
-0
-0
-0
-0
-0
-0
-0
-0
-0
-3.853936
-3.915653
-4.002761
-4.119357
-4.270029
-0
-0
-0
-0
-0
-0
-0
-0
-0
-0
-0
-0
-0
-0
-3.70216
-3.76063
-3.842858
-3.952566
-4.093965
-0
-0
-0
-0
-0
-0
-0
-0
-0
-0
-0
-0
-0
-0
-0
-3.560423
-3.615997
-3.693862
-3.797421
-3.930499
-0
-0
-0
-0
-0
-0
-0
-0
-0
-0
-0
-0
-0
-0
-0
-0
-3.426842
-3.479789
-3.553718
-3.651724
-3.777312
-0
-0
-0
-0
-0
-0
-0
-0
-0
-0
-0
-0
-0
-0
-0
-0
-0
-3.298694
-3.349159
-3.419466
-3.512377
-3.631084
-0
-0
-0
-0
-0
-0
-0
-0
-0
-0
-0
-0
-0
-0
-0
-0
-0
-0
-3.17243
-3.220575
-3.287384
-3.375487
-3.48771
-0
-0
-0
-0
-0
-0
-0
-0
-0
-0
-0
-0
-0
-0
-0
-0
-0
-0
-0
-3.045982
-3.091781
-3.15522
-3.238592
-3.344569
-0
-0
-0
-0
-0
-0
-0
-0
-0
-0
-2.922659
-2.966273
-3.02641
-3.105327
-3.205354
-0
-0
-0
-0
-0
-0
-0
-0
-0
-0
-2.806487
-2.848058
-2.905204
-2.979935
-3.074549
-0
-0
-0
-0
-0
-0
-0
-0
-0
-0
-2.699497
-2.739203
-2.793627
-2.864637
-2.954291
-0
-0
-0
-0
-0
-0
-0
-0
-0
-0
-2.602426
-2.640283
-2.692256
-2.759929
-2.845212
-0
-0
-0
-0
-0
-0
-0
-0
-0
-0
-5.359318
-5.462966
-5.612963
-5.819475
-6.095092
-0
-0
-0
-0
-0
-0
-5.120322
-5.215631
-5.353081
-5.541412
-5.791204
-0
-0
-0
-0
-0
-0
-0
-4.908921
-4.997544
-5.124898
-5.298681
-5.52804
-0
-0
-0
-0
-0
-0
-0
-0
-4.718077
-4.801141
-4.92015
-5.081911
-5.294513
-0
-0
-0
-0
-0
-0
-0
-0
-0
-4.539893
-4.618095
-4.729854
-4.881295
-5.079552
-0
-0
-0
-0
-0
-0
-0
-0
-0
-0
-4.365593
-4.439287
-4.544333
-4.686262
-4.87149
-0
-0
-0
-0
-0
-0
-0
-0
-0
-0
-0
-4.190479
-4.259888
-4.358485
-4.491298
-4.664063
-0
-0
-0
-0
-0
-0
-0
-0
-0
-0
-0
-0
-4.018966
-4.084371
-4.176992
-4.301306
-4.462504
-0
-0
-0
-0
-0
-0
-0
-0
-0
-0
-0
-0
-0
-3.85555
-3.917298
-4.004446
-4.12109
-4.27182
-0
-0
-0
-0
-0
-0
-0
-0
-0
-0
-0
-0
-0
-0
-3.70216
-3.76063
-3.842858
-3.952566
-4.093965
-0
-0
-0
-0
-0
-0
-0
-0
-0
-0
-0
-0
-0
-0
-0
-3.558945
-3.614487
-3.69231
-3.795816
-3.928828
-0
-0
-0
-0
-0
-0
-0
-0
-0
-0
-0
-0
-0
-0
-0
-0
-3.424995
-3.477885
-3.551754
-3.649691
-3.775193
-0
-0
-0
-0
-0
-0
-0
-0
-0
-0
-0
-0
-0
-0
-0
-0
-0
-3.298617
-3.34903
-3.419295
-3.512188
-3.63089
-0
-0
-0
-0
-0
-0
-0
-0
-0
-0
-0
-0
-0
-0
-0
-0
-0
-0
-3.177159
-3.225309
-3.292177
-3.380409
-3.49285
-0
-0
-0
-0
-0
-0
-0
-0
-0
-0
-0
-0
-0
-0
-0
-0
-0
-0
-0
-3.057389
-3.103297
-3.166958
-3.250693
-3.357206
-0
-0
-0
-0
-0
-0
-0
-0
-0
-0
-0
-0
-0
-0
-0
-0
-0
-0
-0
-0
-2.937197
-2.98098
-3.041422
-3.120803
-3.221486
-0
-0
-0
-0
-0
-0
-0
-0
-0
-0
-2.819828
-2.861556
-2.918981
-2.994127
-3.089313
-0
-0
-0
-0
-0
-0
-0
-0
-0
-0
-2.709123
-2.748942
-2.803563
-2.874866
-2.964919
-0
-0
-0
-0
-0
-0
-0
-0
-0
-0
-2.607214
-2.645132
-2.697207
-2.765028
-2.850514
-0
-0
-0
-0
-0
-0
-0
-0
-0
-0
-2.514694
-2.550868
-2.600495
-2.665194
-2.746597
-0
-0
-0
-0
-0
-0
-0
-0
-0
-0
-5.107546
-5.202418
-5.33921
-5.526593
-5.775053
-0
-0
-0
-0
-0
-0
-0
-4.886599
-4.97454
-5.100859
-5.27314
-5.500391
-0
-0
-0
-0
-0
-0
-0
-0
-4.690407
-4.772668
-4.890447
-5.050437
-5.260564
-0
-0
-0
-0
-0
-0
-0
-0
-0
-4.512718
-4.590167
-4.70075
-4.850469
-5.046332
-0
-0
-0
-0
-0
-0
-0
-0
-0
-0
-4.346357
-4.419536
-4.523763
-4.664485
-4.848007
-0
-0
-0
-0
-0
-0
-0
-0
-0
-0
-4.183191
-4.252396
-4.35068
-4.483022
-4.655111
-0
-0
-0
-0
-0
-0
-0
-0
-0
-0
-0
-0
-4.018875
-4.084271
-4.176844
-4.301087
-4.462171
-0
-0
-0
-0
-0
-0
-0
-0
-0
-0
-0
-0
-0
-3.857637
-3.919428
-4.006628
-4.123321
-4.27411
-0
-0
-0
-0
-0
-0
-0
-0
-0
-0
-0
-0
-0
-0
-3.703705
-3.762206
-3.844476
-3.954237
-4.095697
-0
-0
-0
-0
-0
-0
-0
-0
-0
-0
-0
-0
-0
-0
-0
-3.558945
-3.614487
-3.69231
-3.795816
-3.928828
-0
-0
-0
-0
-0
-0
-0
-0
-0
-0
-0
-0
-0
-0
-0
-0
-3.423587
-3.476439
-3.550267
-3.648152
-3.77359
-0
-0
-0
-0
-0
-0
-0
-0
-0
-0
-0
-0
-0
-0
-0
-0
-0
-3.296858
-3.34721
-3.417406
-3.510227
-3.628846
-0
-0
-0
-0
-0
-0
-0
-0
-0
-0
-0
-0
-0
-0
-0
-0
-0
-0
-3.177092
-3.225183
-3.292001
-3.380196
-3.492621
-0
-0
-0
-0
-0
-0
-0
-0
-0
-0
-0
-0
-0
-0
-0
-0
-0
-0
-0
-3.061908
-3.107813
-3.171517
-3.255355
-3.362044
-0
-0
-0
-0
-0
-0
-0
-0
-0
-0
-0
-0
-0
-0
-0
-0
-0
-0
-0
-0
-2.948095
-2.991972
-3.052614
-3.13232
-3.233477
-0
-0
-0
-0
-0
-0
-0
-0
-0
-0
-0
-0
-0
-0
-0
-0
-0
-0
-0
-0
-2.833731
-2.875609
-2.933314
-3.008886
-3.104671
-0
-0
-0
-0
-0
-0
-0
-0
-0
-0
-2.7219
-2.76186
-2.816735
-2.888422
-2.979006
-0
-0
-0
-0
-0
-0
-0
-0
-0
-0
-2.616442
-2.654464
-2.706719
-2.774809
-2.860668
-0
-0
-0
-0
-0
-0
-0
-0
-0
-0
-2.519281
-2.555512
-2.605233
-2.670068
-2.751659
-0
-0
-0
-0
-0
-0
-0
-0
-0
-0
-2.431111
-2.465607
-2.513025
-2.574787
-2.652561
-0
-0
-0
-0
-0
-0
-0
-0
-0
-0
-4.874781
-4.962354
-5.088119
-5.259604
-5.485745
-0
-0
-0
-0
-0
-0
-0
-0
-4.669675
-4.751352
-4.868247
-5.026964
-5.235311
-0
-0
-0
-0
-0
-0
-0
-0
-0
-4.486945
-4.563721
-4.673251
-4.821448
-5.015201
-0
-0
-0
-0
-0
-0
-0
-0
-0
-0
-4.321014
-4.393558
-4.496783
-4.636042
-4.817509
-0
-0
-0
-0
-0
-0
-0
-0
-0
-0
-4.165259
-4.234031
-4.331624
-4.462941
-4.633588
-0
-0
-0
-0
-0
-0
-0
-0
-0
-0
-4.012118
-4.077365
-4.169671
-4.293527
-4.454055
-0
-0
-0
-0
-0
-0
-0
-0
-0
-0
-0
-0
-0
-3.857611
-3.919411
-4.006601
-4.123241
-4.273954
-0
-0
-0
-0
-0
-0
-0
-0
-0
-0
-0
-0
-0
-0
-3.705716
-3.764261
-3.846587
-3.956415
-4.097941
-0
-0
-0
-0
-0
-0
-0
-0
-0
-0
-0
-0
-0
-0
-0
-3.560423
-3.615997
-3.693862
-3.797421
-3.930499
-0
-0
-0
-0
-0
-0
-0
-0
-0
-0
-0
-0
-0
-0
-0
-0
-3.423587
-3.476439
-3.550267
-3.648152
-3.77359
-0
-0
-0
-0
-0
-0
-0
-0
-0
-0
-0
-0
-0
-0
-0
-0
-0
-3.295517
-3.345831
-3.415982
-3.508752
-3.627308
-0
-0
-0
-0
-0
-0
-0
-0
-0
-0
-0
-0
-0
-0
-0
-0
-0
-0
-3.175421
-3.223449
-3.290196
-3.37831
-3.490651
-0
-0
-0
-0
-0
-0
-0
-0
-0
-0
-0
-0
-0
-0
-0
-0
-0
-0
-0
-3.061854
-3.107699
-3.171349
-3.25514
-3.361794
-0
-0
-0
-0
-0
-0
-0
-0
-0
-0
-0
-0
-0
-0
-0
-0
-0
-0
-0
-0
-2.952423
-2.996292
-3.056968
-3.136757
-3.238061
-0
-0
-0
-0
-0
-0
-0
-0
-0
-0
-0
-0
-0
-0
-0
-0
-0
-0
-0
-0
-2.844164
-2.88612
-2.944005
-3.019873
-3.116087
-0
-0
-0
-0
-0
-0
-0
-0
-0
-0
-0
-0
-0
-0
-0
-0
-0
-0
-0
-0
-2.735219
-2.77531
-2.830437
-2.902519
-2.993655
-0
-0
-0
-0
-0
-0
-0
-0
-0
-0
-2.628695
-2.666844
-2.719331
-2.787774
-2.874127
-0
-0
-0
-0
-0
-0
-0
-0
-0
-0
-2.528136
-2.564465
-2.614352
-2.679436
-2.761371
-0
-0
-0
-0
-0
-0
-0
-0
-0
-0
-2.435512
-2.470058
-2.517564
-2.579454
-2.657401
-0
-0
-0
-0
-0
-0
-0
-0
-0
-0
-2.351468
-2.384324