/*--------------------------------*- C++ -*----------------------------------*\
| =========                 |                                                 |
| \\      /  F ield         | OpenFOAM: The Open Source CFD Toolbox           |
|  \\    /   O peration     | Version:  2306                                  |
|   \\  /    A nd           | Website:  www.openfoam.com                      |
|    \\/     M anipulation  |                                                 |
\*---------------------------------------------------------------------------*/
FoamFile
{
    version     2.0;
    format      ascii;
    arch        "LSB;label=32;scalar=64";
    class       volScalarField;
    location    "0.6/fuel";
    object      iDmdtfuel.H2O;
}
// * * * * * * * * * * * * * * * * * * * * * * * * * * * * * * * * * * * * * //

dimensions      [1 -3 -1 0 0 0 0];

internalField   nonuniform List<scalar> 
16000
(
93.49746
94.2264
85.16177
89.31823
95.68705
85.62538
89.99173
77.89757
81.57682
86.36705
97.88208
86.53006
91.34013
78.2477
82.0075
87.0037
72.01777
74.799
79.02482
84.54647
100.7265
87.83161
93.36451
78.92279
82.84734
88.27789
72.30281
75.12579
79.43308
85.16268
67.12022
69.29229
72.58016
77.42986
83.7514
103.769
89.40761
95.98494
79.87439
84.0549
90.19064
72.84844
75.75547
80.22894
86.39627
67.36155
69.55934
72.89082
77.82508
84.36136
62.91689
64.69117
67.33248
71.18101
76.71021
0
106.0158
90.9361
98.78417
80.98788
85.51617
92.66712
73.60753
76.64266
81.37311
88.24943
67.8213
70.07021
73.48919
78.5955
85.58341
63.12613
64.91799
67.58698
71.48201
77.10051
0
59.23569
60.73151
62.93907
66.08943
70.53741
0
0
107.3884
91.94964
100.8423
82.00984
86.93215
95.31376
74.4758
77.68024
82.75771
90.65251
68.45498
70.78065
74.33214
79.70347
87.42203
63.52345
65.34984
68.07364
72.06171
77.86164
0
59.42027
60.92872
63.1557
66.33629
70.83441
0
0
55.96076
57.25524
59.1513
61.82321
65.51134
0
0
0
108.1394
92.49517
102.0941
82.63472
87.86804
97.25355
75.24289
78.63179
84.09937
93.2266
69.16782
71.59281
75.31789
81.04528
89.81292
64.06724
65.94481
68.75029
72.87848
78.95705
0
59.76999
61.30298
63.56799
66.80826
71.40653
0
0
56.1257
57.42964
59.34002
62.03357
65.75491
0
0
0
53.01419
54.15571
55.82033
58.14185
61.30081
0
0
0
0
108.4667
92.75885
102.7764
82.92892
88.37012
98.43012
75.68361
79.21198
84.98347
95.1099
69.77972
72.30968
76.2216
82.34666
92.3841
64.67106
66.61367
69.52365
73.83397
80.28549
0
60.24596
61.81495
64.13586
67.46452
72.21296
0
0
56.43772
57.75987
59.69802
62.43385
66.22063
0
0
0
53.16304
54.3119
55.98751
58.32531
61.5084
0
0
0
0
50.33916
51.36121
52.84569
54.90154
57.66723
0
0
0
0
0
108.4667
92.86304
103.0731
83.04582
88.61207
99.07025
75.86638
79.4843
85.4566
96.25122
70.1138
72.72036
76.77088
83.20193
94.26468
65.17761
67.18716
70.20581
74.71013
81.57609
0
60.76901
62.38305
64.77404
68.21467
73.1571
0
0
56.86048
58.2091
60.18762
62.98519
66.86835
0
0
0
53.44435
54.6072
56.30396
58.67326
61.90344
0
0
0
0
50.47457
51.50245
52.99566
55.06424
57.84835
0
0
0
0
0
47.89315
48.81939
50.15983
52.00531
54.46834
0
0
0
0
0
0
108.1394
92.86304
103.0731
83.08259
88.70744
99.34828
75.92175
79.59211
85.68425
96.87222
70.23608
72.89
77.02791
83.65898
95.40552
65.44232
67.49925
70.59521
75.24086
82.42236
0
61.19961
62.85896
65.32069
68.87615
74.02337
0
0
57.32108
58.70237
60.73063
63.60475
67.60906
0
0
0
53.8241
55.00711
56.73431
59.14909
62.44764
0
0
0
0
50.73033
51.76924
53.2791
55.37213
58.19184
0
0
0
0
0
48.01714
48.94812
50.29566
52.1514
54.62902
0
0
0
0
0
0
45.64321
46.49103
47.71346
49.38799
51.60834
0
0
0
0
0
0
0
107.3884
92.75885
102.7764
83.08259
88.70744
99.34828
75.9313
79.62586
85.7739
97.14205
70.26015
72.941
77.12937
83.87892
96.02757
65.52758
67.61281
70.75535
75.48851
82.87439
0
61.41615
63.10671
65.61697
69.25221
74.54622
0
0
57.69433
59.10779
61.18496
64.13508
68.26218
0
0
0
54.23488
55.44242
57.20659
59.67674
63.05932
0
0
0
0
51.07452
52.1292
53.66281
55.79079
58.66163
0
0
0
0
0
48.25129
49.19114
50.55211
52.42744
54.93307
0
0
0
0
0
0
45.75738
46.60911
47.83741
49.52042
51.75267
0
0
0
0
0
0
0
43.56312
44.34572
45.4696
47.00206
49.02296
0
0
0
0
0
0
0
0
106.0158
92.49517
102.0941
83.04582
88.61207
99.07025
75.9313
79.62586
85.7739
97.14205
70.25654
72.94958
77.16104
83.96563
96.2984
65.53383
67.63467
70.80309
75.5861
83.09232
0
61.47718
63.1858
65.72404
69.4061
74.78955
0
0
57.87573
59.31077
61.42039
64.42114
68.63177
0
0
0
54.56335
55.79453
57.59417
60.11777
63.58264
0
0
0
0
51.44459
52.51819
54.08024
56.25012
59.18264
0
0
0
0
0
48.56558
49.51801
50.89801
52.80109
55.34656
0
0
0
0
0
0
45.97298
46.83198
48.07135
49.77042
52.02538
0
0
0
0
0
0
0
43.66873
44.45462
45.58345
47.12303
49.15384
0
0
0
0
0
0
0
0
41.63217
42.35922
43.39961
44.8119
46.66537
0
0
0
0
0
0
0
0
0
103.769
91.94964
100.8423
82.92892
88.37012
98.43012
75.92175
79.59211
85.68425
96.87222
70.25654
72.94958
77.16104
83.96563
96.2984
65.52321
67.63096
70.81091
75.61653
83.17846
0
61.47267
63.19097
65.74412
69.45162
74.88535
0
0
57.9201
59.36724
61.49478
64.52374
68.78221
0
0
0
54.7182
55.9648
57.78721
60.34508
63.8634
0
0
0
0
51.73714
52.82862
54.41731
56.62661
59.61776
0
0
0
0
0
48.90175
49.86909
51.27155
53.20744
55.80022
0
0
0
0
0
0
46.26174
47.13098
48.38589
50.10755
52.39455
0
0
0
0
0
0
0
43.86822
44.66018
45.79828
47.35127
49.40092
0
0
0
0
0
0
0
0
41.73021
42.46011
43.50473
44.92309
46.78497
0
0
0
0
0
0
0
0
0
39.83313
40.5124
41.48062
42.78989
44.50051
0
0
0
0
0
0
0
0
0
0
100.7265
90.9361
98.78417
82.63472
87.86804
97.25355
75.86638
79.4843
85.4566
96.25122
70.26015
72.941
77.12937
83.87892
96.02757
65.52321
67.63096
70.81091
75.61653
83.17846
0
61.45814
63.18063
65.74023
69.45889
74.91525
0
0
57.90885
59.36226
61.49896
64.54245
68.82635
0
0
0
54.75075
56.00568
57.84013
60.41611
63.96324
0
0
0
0
51.87134
52.97414
54.57936
56.81302
59.84067
0
0
0
0
0
49.16492
50.14604
51.5691
53.5351
56.17168
0
0
0
0
0
0
46.56916
47.45045
48.72348
50.47149
52.79601
0
0
0
0
0
0
0
44.13483
44.93534
46.08637
47.6581
49.73413
0
0
0
0
0
0
0
0
41.91547
42.6506
43.70312
45.13286
47.01064
0
0
0
0
0
0
0
0
0
39.92448
40.60619
41.57812
42.89264
44.61049
0
0
0
0
0
0
0
0
0
0
38.15204
38.78932
39.69459
40.91401
42.50121
0
0
0
0
0
0
0
0
0
0
97.88208
89.40761
95.98494
82.00984
86.93215
95.31376
75.68361
79.21198
84.98347
95.1099
70.23608
72.89
77.02791
83.65898
95.40552
65.53383
67.63467
70.80309
75.5861
83.09232
0
61.45814
63.18063
65.74023
69.45889
74.91525
0
0
57.89215
59.34821
61.48874
64.53835
68.83322
0
0
0
54.73524
55.99432
57.83462
60.41943
63.98091
0
0
0
0
51.89527
53.00395
54.61748
56.86333
59.90949
0
0
0
0
0
49.2827
50.2723
51.7077
53.69162
56.35441
0
0
0
0
0
0
46.80771
47.69998
48.98926
50.76094
53.11934
0
0
0
0
0
0
0
44.41755
45.22796
46.39395
47.98729
50.09383
0
0
0
0
0
0
0
0
42.16275
42.90504
43.96856
45.41413
47.31402
0
0
0
0
0
0
0
0
0
40.09725
40.78336
41.76217
43.08651
44.81798
0
0
0
0
0
0
0
0
0
0
38.23746
38.87683
39.78533
41.00938
42.60287
0
0
0
0
0
0
0
0
0
0
36.57682
37.17708
38.02648
39.16689
40.64578
0
0
0
0
0
0
0
0
0
0
95.68705
87.83161
93.36451
80.98788
85.51617
92.66712
75.24289
78.63179
84.09937
93.2266
70.1138
72.72036
76.77088
83.20193
94.26468
65.52758
67.61281
70.75535
75.48851
82.87439
0
61.47267
63.19097
65.74412
69.45162
74.88535
0
0
57.89215
59.34821
61.48874
64.53835
68.83322
0
0
0
54.7174
55.97818
57.82083
60.40916
63.97652
0
0
0
0
51.87707
52.98855
54.60588
56.85727
59.912
0
0
0
0
0
49.30019
50.29402
51.7353
53.72765
56.4029
0
0
0
0
0
0
46.91209
47.81092
49.1096
50.89485
53.27274
0
0
0
0
0
0
0
44.63541
45.45449
46.6337
48.24602
50.37953
0
0
0
0
0
0
0
0
42.42418
43.17456
44.25063
45.71429
47.63948
0
0
0
0
0
0
0
0
0
40.32757
41.01969
42.00791
43.34586
45.09618
0
0
0
0
0
0
0
0
0
0
38.39913
39.04228
39.95669
41.18937
42.7947
0
0
0
0
0
0
0
0
0
0
36.65692
37.259
38.11123
39.2557
40.74018
0
0
0
0
0
0
0
0
0
0
35.09739
35.66445
36.46412
37.53402
38.91716
0
0
0
0
0
0
0
0
0
0
94.2264
86.53006
91.34013
79.87439
84.0549
90.19064
74.4758
77.68024
82.75771
90.65251
69.77972
72.30968
76.2216
82.34666
92.3841
65.44232
67.49925
70.59521
75.24086
82.42236
0
61.47718
63.1858
65.72404
69.4061
74.78955
0
0
57.90885
59.36226
61.49896
64.54245
68.82635
0
0
0
54.7174
55.97818
57.82083
60.40916
63.97652
0
0
0
0
51.85871
52.97129
54.59006
56.84353
59.90154
0
0
0
0
0
49.28031
50.27606
51.71983
53.71569
56.39621
0
0
0
0
0
0
46.92473
47.8266
49.12953
50.92075
53.30726
0
0
0
0
0
0
0
44.72895
45.55289
46.73951
48.36233
50.51075
0
0
0
0
0
0
0
0
42.62445
43.38174
44.46851
45.94785
47.89494
0
0
0
0
0
0
0
0
0
40.57042
41.26927
42.26799
43.62133
45.39305
0
0
0
0
0
0
0
0
0
0
38.61443
39.26271
40.18517
41.42965
43.05132
0
0
0
0
0
0
0
0
0
0
36.80868
37.41402
38.27141
39.42339
40.91833
0
0
0
0
0
0
0
0
0
0
35.17268
35.74137
36.54353
37.61701
39.00509
0
0
0
0
0
0
0
0
0
0
33.70479
34.2421
34.99691
36.00368
37.30109
0
0
0
0
0
0
0
0
0
0
93.49746
85.62538
89.99173
78.92279
82.84734
88.27789
73.60753
76.64266
81.37311
88.24943
69.16782
71.59281
75.31789
81.04528
89.81292
65.17761
67.18716
70.20581
74.71013
81.57609
0
61.41615
63.10671
65.61697
69.25221
74.54622
0
0
57.9201
59.36724
61.49478
64.52374
68.78221
0
0
0
54.73524
55.99432
57.83462
60.41943
63.98091
0
0
0
0
51.85871
52.97129
54.59006
56.84353
59.90154
0
0
0
0
0
49.26183
50.25829
51.70293
53.69998
56.38234
0
0
0
0
0
0
46.90393
47.80703
49.1116
50.90505
53.29481
0
0
0
0
0
0
0
44.73802
45.56403
46.75371
48.38084
50.53538
0
0
0
0
0
0
0
0
42.70903
43.47001
44.56244
46.05015
48.00892
0
0
0
0
0
0
0
0
0
40.75553
41.45998
42.46748
43.83374
45.62372
0
0
0
0
0
0
0
0
0
0
38.8409
39.49486
40.42627
41.68383
43.32386
0
0
0
0
0
0
0
0
0
0
37.01058
37.62033
38.48474
39.64695
41.15616
0
0
0
0
0
0
0
0
0
0
35.31548
35.88705
36.69377
37.77388
39.17113
0
0
0
0
0
0
0
0
0
0
33.77572
34.31448
35.07153
36.0815
37.38329
0
0
0
0
0
0
0
0
0
0
32.39145
32.9017
33.61603
34.56567
35.78604
0
0
0
0
0
0
0
0
0
0
85.16177
89.31823
78.2477
82.0075
87.0037
72.84844
75.75547
80.22894
86.39627
68.45498
70.78065
74.33214
79.70347
87.42203
64.67106
66.61367
69.52365
73.83397
80.28549
0
61.19961
62.85896
65.32069
68.87615
74.02337
0
0
57.87573
59.31077
61.42039
64.42114
68.63177
0
0
0
54.75075
56.00568
57.84013
60.41611
63.96324
0
0
0
0
51.87707
52.98855
54.60588
56.85727
59.912
0
0
0
0
0
49.26183
50.25829
51.70293
53.69998
56.38234
0
0
0
0
0
0
46.88562
47.78912
49.0942
50.88829
53.27902
0
0
0
0
0
0
0
44.71686
45.54358
46.73425
48.36278
50.51929
0
0
0
0
0
0
0
0
42.71543
43.47782
44.57233
46.06316
48.02635
0
0
0
0
0
0
0
0
0
40.8326
41.53989
42.55181
43.92459
45.72399
0
0
0
0
0
0
0
0
0
0
39.0128
39.67136
40.6101
41.87844
43.53371
0
0
0
0
0
0
0
0
0
0
0
37.22253
37.83711
38.70924
39.88274
41.40772
0
0
0
0
0
0
0
0
0
0
35.5053
36.08077
36.89363
37.98274
39.39248
0
0
0
0
0
0
0
0
0
0
33.91038
34.45173
35.21285
36.22871
37.53865
0
0
0
0
0
0
0
0
0
0
32.4584
32.96996
33.68631
34.63884
35.86314
0
0
0
0
0
0
0
0
0
0
31.15081
31.63621
32.31359
33.21147
34.36199
0
0
0
0
0
0
0
0
0
0
77.89757
81.57682
86.36705
72.30281
75.12579
79.43308
85.16268
67.8213
70.07021
73.48919
78.5955
85.58341
64.06724
65.94481
68.75029
72.87848
78.95705
0
60.76901
62.38305
64.77404
68.21467
73.1571
0
0
57.69433
59.10779
61.18496
64.13508
68.26218
0
0
0
54.7182
55.9648
57.78721
60.34508
63.8634
0
0
0
0
51.89527
53.00395
54.61748
56.86333
59.90949
0
0
0
0
0
49.28031
50.27606
51.71983
53.71569
56.39621
0
0
0
0
0
0
46.88562
47.78912
49.0942
50.88829
53.27902
0
0
0
0
0
0
0
44.69891
45.52582
46.7167
48.34554
50.50248
0
0
0
0
0
0
0
0
42.69428
43.45702
44.55203
46.04362
48.00797
0
0
0
0
0
0
0
0
0
40.837
41.5452
42.55854
43.93346
45.73606
0
0
0
0
0
0
0
0
0
0
39.08351
39.74425
40.68649
41.96004
43.62277
0
0
0
0
0
0
0
0
0
0
0
37.38278
38.00123
38.87953
40.06219
41.60005
0
0
0
0
0
0
0
0
0
0
0
0
35.70415
36.28389
37.10346
38.20244
39.62592
0
0
0
0
0
0
0
0
0
0
34.08922
34.63406
35.40068
36.42451
37.74552
0
0
0
0
0
0
0
0
0
0
32.58563
33.09952
33.81955
34.77739
36.00898
0
0
0
0
0
0
0
0
0
0
31.2141
31.7007
32.37992
33.28043
34.4345
0
0
0
0
0
0
0
0
0
0
29.97633
30.43954
31.08293
31.9335
33.02056
0
0
0
0
0
0
0
0
0
0
72.01777
74.799
79.02482
84.54647
67.36155
69.55934
72.89082
77.82508
84.36136
63.52345
65.34984
68.07364
72.06171
77.86164
0
60.24596
61.81495
64.13586
67.46452
72.21296
0
0
57.32108
58.70237
60.73063
63.60475
67.60906
0
0
0
54.56335
55.79453
57.59417
60.11777
63.58264
0
0
0
0
51.87134
52.97414
54.57936
56.81302
59.84067
0
0
0
0
0
49.30019
50.29402
51.7353
53.72765
56.4029
0
0
0
0
0
0
46.90393
47.80703
49.1116
50.90505
53.29481
0
0
0
0
0
0
0
44.69891
45.52582
46.7167
48.34554
50.50248
0
0
0
0
0
0
0
0
42.67682
43.43959
44.53461
46.02623
47.99069
0
0
0
0
0
0
0
0
0
40.81611
41.52441
42.53791
43.91312
45.71627
0
0
0
0
0
0
0
0
0
0
39.08639
39.74771
40.69088
41.96589
43.63082
0
0
0
0
0
0
0
0
0
0
0
37.4479
38.06818
38.94928
40.13615
41.68006
0
0
0
0
0
0
0
0
0
0
0
0
35.854
36.43707
37.26196
38.36879
39.80334
0
0
0
0
0
0
0
0
0
0
0
0
0
34.27626
34.82485
35.59747
36.62998
37.96309
0
0
0
0
0
0
0
0
0
0
32.75451
33.27149
33.9965
34.96152
36.20297
0
0
0
0
0
0
0
0
0
0
31.3345
31.82325
32.50581
33.41114
34.5718
0
0
0
0
0
0
0
0
0
0
30.03617
30.50055
31.14565
31.99861
33.08891
0
0
0
0
0
0
0
0
0
0
28.86291
29.30553
29.91828
30.7253
31.7543
0
0
0
0
0
0
0
0
0
0
67.12022
69.29229
72.58016
77.42986
83.7514
63.12613
64.91799
67.58698
71.48201
77.10051
0
59.76999
61.30298
63.56799
66.80826
71.40653
0
0
56.86048
58.2091
60.18762
62.98519
66.86835
0
0
0
54.23488
55.44242
57.20659
59.67674
63.05932
0
0
0
0
51.73714
52.82862
54.41731
56.62661
59.61776
0
0
0
0
0
49.2827
50.2723
51.7077
53.69162
56.35441
0
0
0
0
0
0
46.92473
47.8266
49.12953
50.92075
53.30726
0
0
0
0
0
0
0
44.71686
45.54358
46.73425
48.36278
50.51929
0
0
0
0
0
0
0
0
42.67682
43.43959
44.53461
46.02623
47.99069
0
0
0
0
0
0
0
0
0
40.79921
41.50744
42.52081
43.89587
45.69886
0
0
0
0
0
0
0
0
0
0
39.06589
39.72717
40.67027
41.94525
43.61027
0
0
0
0
0
0
0
0
0
0
0
37.44953
38.07022
38.95192
40.13976
41.68519
0
0
0
0
0
0
0
0
0
0
0
0
35.91438
36.49879
37.32606
38.43635
39.87586
0
0
0
0
0
0
0
0
0
0
0
0
0
34.41693
34.96824
35.74554
36.78491
38.12761
0
0
0
0
0
0
0
0
0
0
0
0
0
0
32.93097
33.45115
34.1815
35.15434
36.40651
0
0
0
0
0
0
0
0
0
0
31.49425
31.98581
32.67283
33.58469
34.75427
0
0
0
0
0
0
0
0
0
0
30.15023
30.61663
31.2648
32.12216
33.21847
0
0
0
0
0
0
0
0
0
0
28.9197
29.36328
29.97766
30.78689
31.81885
0
0
0
0
0
0
0
0
0
0
27.80642
28.22946
28.8138
29.58133
30.55687
0
0
0
0
0
0
0
0
0
0
62.91689
64.69117
67.33248
71.18101
76.71021
0
59.42027
60.92872
63.1557
66.33629
70.83441
0
0
56.43772
57.75987
59.69802
62.43385
66.22063
0
0
0
53.8241
55.00711
56.73431
59.14909
62.44764
0
0
0
0
51.44459
52.51819
54.08024
56.25012
59.18264
0
0
0
0
0
49.16492
50.14604
51.5691
53.5351
56.17168
0
0
0
0
0
0
46.91209
47.81092
49.1096
50.89485
53.27274
0
0
0
0
0
0
0
44.73802
45.56403
46.75371
48.38084
50.53538
0
0
0
0
0
0
0
0
42.69428
43.45702
44.55203
46.04362
48.00797
0
0
0
0
0
0
0
0
0
40.79921
41.50744
42.52081
43.89587
45.69886
0
0
0
0
0
0
0
0
0
0
39.04958
39.71073
40.65361
41.92831
43.59301
0
0
0
0
0
0
0
0
0
0
0
37.42953
38.05007
38.93157
40.11917
41.66438
0
0
0
0
0
0
0
0
0
0
0
0
35.91519
36.49968
37.32738
38.4383
39.87884
0
0
0
0
0
0
0
0
0
0
0
0
0
34.47326
35.02553
35.80469
36.84704
38.19388
0
0
0
0
0
0
0
0
0
0
0
0
0
0
33.06342
33.58591
34.32023
35.29916
36.55978
0
0
0
0
0
0
0
0
0
0
0
0
0
0
0
31.66094
32.15547
32.84718
33.76606
34.94534
0
0
0
0
0
0
0
0
0
0
30.30158
30.77055
31.42281
32.28607
33.39051
0
0
0
0
0
0
0
0
0
0
29.02811
29.47334
30.09061
30.9039
31.94136
0
0
0
0
0
0
0
0
0
0
27.86041
28.28431
28.87003
29.63967
30.61794
0
0
0
0
0
0
0
0
0
0
26.80373
27.20748
27.76497
28.49591
29.42281
0
0
0
0
0
0
0
0
0
0
59.23569
60.73151
62.93907
66.08943
70.53741
0
0
56.1257
57.42964
59.34002
62.03357
65.75491
0
0
0
53.44435
54.6072
56.30396
58.67326
61.90344
0
0
0
0
51.07452
52.1292
53.66281
55.79079
58.66163
0
0
0
0
0
48.90175
49.86909
51.27155
53.20744
55.80022
0
0
0
0
0
0
46.80771
47.69998
48.98926
50.76094
53.11934
0
0
0
0
0
0
0
44.72895
45.55289
46.73951
48.36233
50.51075
0
0
0
0
0
0
0
0
42.71543
43.47782
44.57233
46.06316
48.02635
0
0
0
0
0
0
0
0
0
40.81611
41.52441
42.53791
43.91312
45.71627
0
0
0
0
0
0
0
0
0
0
39.04958
39.71073
40.65361
41.92831
43.59301
0
0
0
0
0
0
0
0
0
0
0
37.41382
38.03418
38.91542
40.10266
41.64743
0
0
0
0
0
0
0
0
0
0
0
0
35.89585
36.48001
37.30742
38.41798
39.85809
0
0
0
0
0
0
0
0
0
0
0
0
0
34.47349
35.02568
35.80494
36.84776
38.19527
0
0
0
0
0
0
0
0
0
0
0
0
0
0
33.11611
33.63941
34.37518
35.35651
36.62075
0
0
0
0
0
0
0
0
0
0
0
0
0
0
0
31.78585
32.2825
32.97767
33.90182
35.08865
0
0
0
0
0
0
0
0
0
0
0
0
0
0
0
0
30.45946
30.93098
31.5876
32.45708
33.57028
0
0
0
0
0
0
0
0
0
0
29.17194
29.6193
30.24033
31.05904
32.10388
0
0
0
0
0
0
0
0
0
0
27.96363
28.38901
28.9772
29.75064
30.73399
0
0
0
0
0
0
0
0
0
0
26.85513
27.25966
27.81842
28.55119
29.48067
0
0
0
0
0
0
0
0
0
0
25.85051
26.23671
26.76819
27.46471
28.34653
0
0
0
0
0
0
0
0
0
0
55.96076
57.25524
59.1513
61.82321
65.51134
0
0
0
53.16304
54.3119
55.98751
58.32531
61.5084
0
0
0
0
50.73033
51.76924
53.2791
55.37213
58.19184
0
0
0
0
0
48.56558
49.51801
50.89801
52.80109
55.34656
0
0
0
0
0
0
46.56916
47.45045
48.72348
50.47149
52.79601
0
0
0
0
0
0
0
44.63541
45.45449
46.6337
48.24602
50.37953
0
0
0
0
0
0
0
0
42.70903
43.47001
44.56244
46.05015
48.00892
0
0
0
0
0
0
0
0
0
40.837
41.5452
42.55854
43.93346
45.73606
0
0
0
0
0
0
0
0
0
0
39.06589
39.72717
40.67027
41.94525
43.61027
0
0
0
0
0
0
0
0
0
0
0
37.41382
38.03418
38.91542
40.10266
41.64743
0
0
0
0
0
0
0
0
0
0
0
0
35.88079
36.46469
37.2918
38.40197
39.84158
0
0
0
0
0
0
0
0
0
0
0
0
0
34.45484
35.00664
35.78544
36.82782
38.1748
0
0
0
0
0
0
0
0
0
0
0
0
0
0
33.11586
33.63904
34.37475
35.35621
36.62095
0
0
0
0
0
0
0
0
0
0
0
0
0
0
0
31.83531
32.33259
33.02902
33.95513
35.14495
0
0
0
0
0
0
0
0
0
0
0
0
0
0
0
0
30.57769
31.05089
31.71069
32.58486
33.70467
0
0
0
0
0
0
0
0
0
0
0
0
0
0
0
0
0
29.3219
29.77139
30.39625
31.22076
32.27342
0
0
0
0
0
0
0
0
0
0
28.10057
28.52784
29.11927
29.89771
30.88785
0
0
0
0
0
0
0
0
0
0
26.95355
27.35943
27.92044
28.65652
29.59075
0
0
0
0
0
0
0
0
0
0
25.89951
26.28643
26.81907
27.51726
28.40137
0
0
0
0
0
0
0
0
0
0
24.94337
25.31308
25.82076
26.48423
27.32378
0
0
0
0
0
0
0
0
0
0
53.01419
54.15571
55.82033
58.14185
61.30081
0
0
0
0
50.47457
51.50245
52.99566
55.06424
57.84835
0
0
0
0
0
48.25129
49.19114
50.55211
52.42744
54.93307
0
0
0
0
0
0
46.26174
47.13098
48.38589
50.10755
52.39455
0
0
0
0
0
0
0
44.41755
45.22796
46.39395
47.98729
50.09383
0
0
0
0
0
0
0
0
42.62445
43.38174
44.46851
45.94785
47.89494
0
0
0
0
0
0
0
0
0
40.8326
41.53989
42.55181
43.92459
45.72399
0
0
0
0
0
0
0
0
0
0
39.08639
39.74771
40.69088
41.96589
43.63082
0
0
0
0
0
0
0
0
0
0
0
37.42953
38.05007
38.93157
40.11917
41.66438
0
0
0
0
0
0
0
0
0
0
0
0
35.88079
36.46469
37.2918
38.40197
39.84158
0
0
0
0
0
0
0
0
0
0
0
0
0
34.44042
34.99195
35.77038
36.81234
38.1588
0
0
0
0
0
0
0
0
0
0
0
0
0
0
33.09789
33.62068
34.35588
35.33675
36.60089
0
0
0
0
0
0
0
0
0
0
0
0
0
0
0
31.83473
32.33179
33.02813
33.95421
35.14418
0
0
0
0
0
0
0
0
0
0
0
0
0
0
0
0
30.62441
31.09796
31.75881
32.63471
33.75702
0
0
0
0
0
0
0
0
0
0
0
0
0
0
0
0
0
29.43418
29.88501
30.51255
31.34135
32.39994
0
0
0
0
0
0
0
0
0
0
0
0
0
0
0
0
0
0
28.24331
28.67244
29.26719
30.0508
31.04822
0
0
0
0
0
0
0
0
0
0
27.08412
27.49173
28.05566
28.79614
29.73664
0
0
0
0
0
0
0
0
0
0
25.99346
26.38164
26.91635
27.61758
28.50588
0
0
0
0
0
0
0
0
0
0
24.99013
25.3605
25.86926
26.53428
27.37593
0
0
0
0
0
0
0
0
0
0
24.07916
24.43339
24.91876
25.55189
26.35113
0
0
0
0
0
0
0
0
0
0
50.33916
51.36121
52.84569
54.90154
57.66723
0
0
0
0
0
48.01714
48.94812
50.29566
52.1514
54.62902
0
0
0
0
0
0
45.97298
46.83198
48.07135
49.77042
52.02538
0
0
0
0
0
0
0
44.13483
44.93534
46.08637
47.6581
49.73413
0
0
0
0
0
0
0
0
42.42418
43.17456
44.25063
45.71429
47.63948
0
0
0
0
0
0
0
0
0
40.75553
41.45998
42.46748
43.83374
45.62372
0
0
0
0
0
0
0
0
0
0
39.08351
39.74425
40.68649
41.96004
43.62277
0
0
0
0
0
0
0
0
0
0
0
37.44953
38.07022
38.95192
40.13976
41.68519
0
0
0
0
0
0
0
0
0
0
0
0
35.89585
36.48001
37.30742
38.41798
39.85809
0
0
0
0
0
0
0
0
0
0
0
0
0
34.44042
34.99195
35.77038
36.81234
38.1588
0
0
0
0
0
0
0
0
0
0
0
0
0
0
33.08408
33.60659
34.34142
35.32181
36.58541
0
0
0
0
0
0
0
0
0
0
0
0
0
0
0
31.81746
32.31409
33.00992
33.93537
35.12461
0
0
0
0
0
0
0
0
0
0
0
0
0
0
0
0
30.62372
31.09688
31.75754
32.63337
33.75567
0
0
0
0
0
0
0
0
0
0
0
0
0
0
0
0
0
29.47853
29.92951
30.5578
31.3881
32.44891
0
0
0
0
0
0
0
0
0
0
0
0
0
0
0
0
0
0
28.35019
28.78044
29.37746
30.16479
31.16766
0
0
0
0
0
0
0
0
0
0
0
0
0
0
0
0
0
0
0
27.22019
27.62948
28.19639
28.94144
29.8885
0
0
0
0
0
0
0
0
0
0
26.11813
26.50788
27.04529
27.75052
28.64441
0
0
0
0
0
0
0
0
0
0
25.07997
25.45146
25.96214
26.62997
27.47548
0
0
0
0
0
0
0
0
0
0
24.12386
24.47869
24.96505
25.59962
26.4008
0
0
0
0
0
0
0
0
0
0
23.25639
23.59469
24.05915
24.6639
25.42603
0
0
0
0
0
0
0
0
0
0
47.89315
48.81939
50.15983
52.00531
54.46834
0
0
0
0
0
0
45.75738
46.60911
47.83741
49.52042
51.75267
0
0
0
0
0
0
0
43.86822
44.66018
45.79828
47.35127
49.40092
0
0
0
0
0
0
0
0
42.16275
42.90504
43.96856
45.41413
47.31402
0
0
0
0
0
0
0
0
0
40.57042
41.26927
42.26799
43.62133
45.39305
0
0
0
0
0
0
0
0
0
0
39.0128
39.67136
40.6101
41.87844
43.53371
0
0
0
0
0
0
0
0
0
0
0
37.4479
38.06818
38.94928
40.13615
41.68006
0
0
0
0
0
0
0
0
0
0
0
0
35.91519
36.49968
37.32738
38.4383
39.87884
0
0
0
0
0
0
0
0
0
0
0
0
0
34.45484
35.00664
35.78544
36.82782
38.1748
0
0
0
0
0
0
0
0
0
0
0
0
0
0
33.08408
33.60659
34.34142
35.32181
36.58541
0
0
0
0
0
0
0
0
0
0
0
0
0
0
0
31.80425
32.3006
32.99606
33.92103
35.10969
0
0
0
0
0
0
0
0
0
0
0
0
0
0
0
0
30.60722
31.07986
31.73999
32.61519
33.73674
0
0
0
0
0
0
0
0
0
0
0
0
0
0
0
0
0
29.47785
29.92836
30.55628
31.38641
32.44718
0
0
0
0
0
0
0
0
0
0
0
0
0
0
0
0
0
0
28.39245
28.82274
29.42029
30.20878
31.2136
0
0
0
0
0
0
0
0
0
0
0
0
0
0
0
0
0
0
0
27.32213
27.73238
28.30129
29.04958
30.00143
0
0
0
0
0
0
0
0
0
0
0
0
0
0
0
0
0
0
0
0
26.24804
26.63931
27.17945
27.88883
28.78857
0
0
0
0
0
0
0
0
0
0
25.19918
25.57209
26.08526
26.75679
27.60742
0
0
0
0
0
0
0
0
0
0
24.20988
24.56572
25.05383
25.69103
26.49578
0
0
0
0
0
0
0
0
0
0
23.29917
23.63803
24.10339
24.70947
25.47341
0
0
0
0
0
0
0
0
0
0
22.47238
22.79565
23.23913
23.81731
24.54476
0
0
0
0
0
0
0
0
0
0
45.64321
46.49103
47.71346
49.38799
51.60834
0
0
0
0
0
0
0
43.66873
44.45462
45.58345
47.12303
49.15384
0
0
0
0
0
0
0
0
41.91547
42.6506
43.70312
45.13286
47.01064
0
0
0
0
0
0
0
0
0
40.32757
41.01969
42.00791
43.34586
45.09618
0
0
0
0
0
0
0
0
0
0
38.8409
39.49486
40.42627
41.68383
43.32386
0
0
0
0
0
0
0
0
0
0
37.38278
38.00123
38.87953
40.06219
41.60005
0
0
0
0
0
0
0
0
0
0
0
0
35.91438
36.49879
37.32606
38.43635
39.87586
0
0
0
0
0
0
0
0
0
0
0
0
0
34.47349
35.02568
35.80494
36.84776
38.19527
0
0
0
0
0
0
0
0
0
0
0
0
0
0
33.09789
33.62068
34.35588
35.33675
36.60089
0
0
0
0
0
0
0
0
0
0
0
0
0
0
0
31.80425
32.3006
32.99606
33.92103
35.10969
0
0
0
0
0
0
0
0
0
0
0
0
0
0
0
0
30.59463
31.06694
31.7267
32.60144
33.72241
0
0
0
0
0
0
0
0
0
0
0
0
0
0
0
0
0
29.46213
29.91209
30.5394
31.36889
32.42892
0
0
0
0
0
0
0
0
0
0
0
0
0
0
0
0
0
0
28.39185
28.82162
29.41873
30.20687
31.21155
0
0
0
0
0
0
0
0
0
0
0
0
0
0
0
0
0
0
0
27.36251
27.77274
28.34203
29.09124
30.04466
0
0
0
0
0
0
0
0
0
0
0
0
0
0
0
0
0
0
0
0
26.34543
26.73754
27.27946
27.99175
28.89573
0
0
0
0
0
0
0
0
0
0
0
0
0
0
0
0
0
0
0
0
25.32343
25.69767
26.21334
26.88869
27.74466
0
0
0
0
0
0
0
0
0
0
24.32406
24.68116
25.17154
25.81217
26.62167
0
0
0
0
0
0
0
0
0
0
23.38165
23.72142
24.18839
24.79688
25.56415
0
0
0
0
0
0
0
0
0
0
22.51337
22.83714
23.28147
23.86087
24.59
0
0
0
0
0
0
0
0
0
0
21.72545
22.03372
22.45746
23.0094
23.70441
0
0
0
0
0
0
0
0
0
0
43.56312
44.34572
45.4696
47.00206
49.02296
0
0
0
0
0
0
0
0
41.73021
42.46011
43.50473
44.92309
46.78497
0
0
0
0
0
0
0
0
0
40.09725
40.78336
41.76217
43.08651
44.81798
0
0
0
0
0
0
0
0
0
0
38.61443
39.26271
40.18517
41.42965
43.05132
0
0
0
0
0
0
0
0
0
0
37.22253
37.83711
38.70924
39.88274
41.40772
0
0
0
0
0
0
0
0
0
0
35.854
36.43707
37.26196
38.36879
39.80334
0
0
0
0
0
0
0
0
0
0
0
0
0
34.47326
35.02553
35.80469
36.84704
38.19388
0
0
0
0
0
0
0
0
0
0
0
0
0
0
33.11586
33.63904
34.37475
35.35621
36.62095
0
0
0
0
0
0
0
0
0
0
0
0
0
0
0
31.81746
32.3141
33.00992
33.93537
35.12461
0
0
0
0
0
0
0
0
0
0
0
0
0
0
0
0
30.59463
31.06694
31.7267
32.60144
33.72241
0
0
0
0
0
0
0
0
0
0
0
0
0
0
0
0
0
29.45015
29.89977
30.52667
31.3557
32.41517
0
0
0
0
0
0
0
0
0
0
0
0
0
0
0
0
0
0
28.37692
28.80612
29.40259
30.19002
31.19395
0
0
0
0
0
0
0
0
0
0
0
0
0
0
0
0
0
0
0
27.36203
27.77173
28.34053
29.08932
30.04243
0
0
0
0
0
0
0
0
0
0
0
0
0
0
0
0
0
0
0
0
26.38411
26.77614
27.31837
28.0314
28.93669
0
0
0
0
0
0
0
0
0
0
0
0
0
0
0
0
0
0
0
0
25.41666
25.7916
26.30888
26.98687
27.84668
0
0
0
0
0
0
0
0
0
0
0
0
0
0
0
0
0
0
0
0
24.44309
24.80136
25.294
25.93815
26.75258
0
0
0
0
0
0
0
0
0
0
23.49114
23.83206
24.3011
24.91274
25.68442
0
0
0
0
0
0
0
0
0
0
22.59251
22.91715
23.36296
23.94458
24.67679
0
0
0
0
0
0
0
0
0
0
21.76477
22.07349
22.49802
23.0511
23.74767
0
0
0
0
0
0
0
0
0
0
21.01372
21.30733
21.71171
22.23899
22.90231
0
0
0
0
0
0
0
0
0
0
41.63217
42.35922
43.39961
44.8119
46.66537
0
0
0
0
0
0
0
0
0
39.92448
40.60619
41.57812
42.89264
44.61049
0
0
0
0
0
0
0
0
0
0
38.39913
39.04228
39.95669
41.18937
42.7947
0
0
0
0
0
0
0
0
0
0
37.01058
37.62033
38.48474
39.64695
41.15616
0
0
0
0
0
0
0
0
0
0
35.70415
36.28389
37.10346
38.20244
39.62592
0
0
0
0
0
0
0
0
0
0
34.41693
34.96824
35.74554
36.78491
38.12761
0
0
0
0
0
0
0
0
0
0
0
0
0
0
33.11611
33.63941
34.37518
35.35651
36.62075
0
0
0
0
0
0
0
0
0
0
0
0
0
0
0
31.83473
32.33179
33.02813
33.95421
35.14418
0
0
0
0
0
0
0
0
0
0
0
0
0
0
0
0
30.60722
31.07986
31.73999
32.61519
33.73674
0
0
0
0
0
0
0
0
0
0
0
0
0
0
0
0
0
29.45015
29.89977
30.52667
31.3557
32.41517
0
0
0
0
0
0
0
0
0
0
0
0
0
0
0
0
0
0
28.36551
28.79438
29.39044
30.17738
31.18077
0
0
0
0
0
0
0
0
0
0
0
0
0
0
0
0
0
0
0
27.34785
27.75699
28.32515
29.07321
30.0255
0
0
0
0
0
0
0
0
0
0
0
0
0
0
0
0
0
0
0
0
26.38377
26.77528
27.317
28.02956
28.93447
0
0
0
0
0
0
0
0
0
0
0
0
0
0
0
0
0
0
0
0
25.45383
25.82861
26.34613
27.02476
27.88569
0
0
0
0
0
0
0
0
0
0
0
0
0
0
0
0
0
0
0
0
24.53252
24.89135
25.38541
26.03197
26.84992
0
0
0
0
0
0
0
0
0
0
0
0
0
0
0
0
0
0
0
0
23.60533
23.94729
24.41837
25.03323
25.80949
0
0
0
0
0
0
0
0
0
0
22.69761
23.02332
23.47104
24.05557
24.79184
0
0
0
0
0
0
0
0
0
0
21.84085
22.15032
22.57624
23.13138
23.83081
0
0
0
0
0
0
0
0
0
0
21.05148
21.34552
21.7506
22.27895
22.94373
0
0
0
0
0
0
0
0
0
0
20.3375
20.61475
21.00039
21.50373
22.1373
0
0
0
0
0
0
0
0
0
0
39.83313
40.5124
41.48062
42.78989
44.50051
0
0
0
0
0
0
0
0
0
0
38.23746
38.87683
39.78533
41.00938
42.60287
0
0
0
0
0
0
0
0
0
0
36.80868
37.41402
38.27141
39.42339
40.91833
0
0
0
0
0
0
0
0
0
0
35.5053
36.08077
36.89363
37.98274
39.39248
0
0
0
0
0
0
0
0
0
0
34.27626
34.82485
35.59747
36.62998
37.96309
0
0
0
0
0
0
0
0
0
0
33.06342
33.58591
34.32023
35.29916
36.55978
0
0
0
0
0
0
0
0
0
0
0
0
0
0
0
31.83531
32.33259
33.02902
33.95513
35.14495
0
0
0
0
0
0
0
0
0
0
0
0
0
0
0
0
30.62372
31.09688
31.75754
32.63337
33.75567
0
0
0
0
0
0
0
0
0
0
0
0
0
0
0
0
0
29.46213
29.91209
30.5394
31.36889
32.42892
0
0
0
0
0
0
0
0
0
0
0
0
0
0
0
0
0
0
28.36551
28.79438
29.39044
30.17738
31.18077
0
0
0
0
0
0
0
0
0
0
0
0
0
0
0
0
0
0
0
27.33701
27.74582
28.31357
29.06114
30.01287
0
0
0
0
0
0
0
0
0
0
0
0
0
0
0
0
0
0
0
0
26.37032
26.76128
27.30237
28.01421
28.91829
0
0
0
0
0
0
0
0
0
0
0
0
0
0
0
0
0
0
0
0
25.45369
25.82791
26.34493
27.02308
27.88357
0
0
0
0
0
0
0
0
0
0
0
0
0
0
0
0
0
0
0
0
24.56834
24.92695
25.42116
26.06827
26.88721
0
0
0
0
0
0
0
0
0
0
0
0
0
0
0
0
0
0
0
0
23.69125
24.03368
24.50601
25.12304
25.90253
0
0
0
0
0
0
0
0
0
0
0
0
0
0
0
0
0
0
0
0
22.80726
23.13394
23.58353
24.171
24.91148
0
0
0
0
0
0
0
0
0
0
21.94192
22.2523
22.68001
23.23784
23.94103
0
0
0
0
0
0
0
0
0
0
21.12466
21.41941
21.82575
22.35604
23.02347
0
0
0
0
0
0
0
0
0
0
20.37382
20.65144
21.03775
21.54206
22.177
0
0
0
0
0
0
0
0
0
0
19.69538
19.95632
20.32185
20.80218
21.40707
0
0
0
0
0
0
0
0
0
0
38.15204
38.78932
39.69459
40.91401
42.50121
0
0
0
0
0
0
0
0
0
0
36.65692
37.259
38.11123
39.2557
40.74018
0
0
0
0
0
0
0
0
0
0
35.31548
35.88705
36.69377
37.77388
39.17113
0
0
0
0
0
0
0
0
0
0
34.08922
34.63406
35.40068
36.42451
37.74552
0
0
0
0
0
0
0
0
0
0
32.93098
33.45115
34.1815
35.15434
36.40651
0
0
0
0
0
0
0
0
0
0
31.78585
32.2825
32.97767
33.90182
35.08865
0
0
0
0
0
0
0
0
0
0
0
0
0
0
0
0
30.62441
31.09796
31.75881
32.63471
33.75702
0
0
0
0
0
0
0
0
0
0
0
0
0
0
0
0
0
29.47785
29.92836
30.55628
31.38641
32.44718
0
0
0
0
0
0
0
0
0
0
0
0
0
0
0
0
0
0
28.37692
28.80612
29.40259
30.19002
31.19395
0
0
0
0
0
0
0
0
0
0
0
0
0
0
0
0
0
0
0
27.33701
27.74582
28.31357
29.06114
30.01287
0
0
0
0
0
0
0
0
0
0
0
0
0
0
0
0
0
0
0
0
26.36001
26.75065
27.29135
28.00271
28.90623
0
0
0
0
0
0
0
0
0
0
0
0
0
0
0
0
0
0
0
0
25.44095
25.81463
26.33103
27.00847
27.86814
0
0
0
0
0
0
0
0
0
0
0
0
0
0
0
0
0
0
0
0
24.56844
24.92647
25.42014
26.06678
26.88526
0
0
0
0
0
0
0
0
0
0
0
0
0
0
0
0
0
0
0
0
23.72585
24.06804
24.54043
25.1579
25.93827
0
0
0
0
0
0
0
0
0
0
0
0
0
0
0
0
0
0
0
0
22.88989
23.21701
23.66772
24.25714
25.00057
0
0
0
0
0
0
0
0
0
0
0
0
0
0
0
0
0
0
0
0
22.04741
22.35859
22.78806
23.34861
24.05566
0
0
0
0
0
0
0
0
0
0
21.22192
21.51754
21.92547
22.45829
23.12921
0
0
0
0
0
0
0
0
0
0
20.44433
20.72256
21.11006
21.61614
22.25357
0
0
0
0
0
0
0
0
0
0
19.73031
19.99162
20.35776
20.83902
21.44516
0
0
0
0
0
0
0
0
0
0
19.09247
19.33073
19.67647
20.13275
20.71021
0
0
0
0
0
0
0
0
0
0
36.57682
37.17708
38.02648
39.16689
40.64578
0
0
0
0
0
0
0
0
0
0
35.17268
35.74137
36.54353
37.61701
39.00509
0
0
0
0
0
0
0
0
0
0
33.91038
34.45173
35.21285
36.22871
37.53865
0
0
0
0
0
0
0
0
0
0
32.75451
33.27149
33.9965
34.96152
36.20297
0
0
0
0
0
0
0
0
0
0
31.66094
32.15547
32.84718
33.76606
34.94534
0
0
0
0
0
0
0
0
0
0
30.57769
31.05089
31.71069
32.58486
33.70467
0
0
0
0
0
0
0
0
0
0
0
0
0
0
0
0
0
29.47853
29.92951
30.5578
31.3881
32.44891
0
0
0
0
0
0
0
0
0
0
0
0
0
0
0
0
0
0
28.39185
28.82162
29.41873
30.20687
31.21155
0
0
0
0
0
0
0
0
0
0
0
0