/*--------------------------------*- C++ -*----------------------------------*\
| =========                 |                                                 |
| \\      /  F ield         | OpenFOAM: The Open Source CFD Toolbox           |
|  \\    /   O peration     | Version:  2306                                  |
|   \\  /    A nd           | Website:  www.openfoam.com                      |
|    \\/     M anipulation  |                                                 |
\*---------------------------------------------------------------------------*/
FoamFile
{
    version     2.0;
    format      ascii;
    arch        "LSB;label=32;scalar=64";
    class       volScalarField;
    location    "0.6/fuel";
    object      p;
}
// * * * * * * * * * * * * * * * * * * * * * * * * * * * * * * * * * * * * * //

dimensions      [1 -1 -2 0 0 0 0];

internalField   nonuniform List<scalar> 
16000
(
100593.9
100586.4
100492.7
100574.5
100572.9
100485.2
100566.7
100412
100476.7
100532
100549.3
100471.4
100552.6
100405.3
100469
100523.6
100351.5
100398.7
100441.5
100482.8
100526.9
100447.9
100528.1
100392.9
100454.8
100508.3
100345.6
100391.9
100433.5
100473.7
100305.9
100340.2
100369.6
100400.8
100380.3
100482.4
100423.8
100504.5
100372.1
100430.8
100481.8
100334.7
100379.3
100418.6
100456.9
100300.7
100334.3
100362.5
100392.3
100369.7
100270.2
100296.2
100315.5
100335.7
100315.9
100360.7
100473.9
100381.5
100458.7
100350.4
100406.1
100455.7
100316.5
100358.1
100393.5
100428.2
100291.1
100323.2
100349.4
100376.6
100350
100265.6
100290.9
100309.4
100328.4
100306.6
100349.8
100241.7
100261.7
100274.8
100286.8
100265.2
100299.7
100354.4
100467.1
100369.7
100449.2
100313.7
100363.1
100407
100297.4
100336
100367.5
100399.2
100275
100304.7
100327.5
100350.2
100316.7
100257
100281.2
100297.9
100314.7
100289.1
100329.5
100237.5
100257
100269.4
100280.4
100257.3
100290.2
100343.5
100218.2
100234.1
100242.9
100249.9
100226.9
100251.7
100294.5
100343.9
100465.9
100360.9
100441.8
100302.5
100350.9
100395.5
100265.7
100298.8
100323
100347.2
100258.1
100285.3
100304.5
100322.6
100281.6
100242.7
100264.9
100279
100292
100260.2
100295.3
100229.8
100248.3
100259.4
100268.6
100242.5
100272.4
100323
100214.4
100229.9
100238.2
100244.4
100220.1
100243.7
100285
100332.8
100198.5
100211.4
100217.4
100221.1
100198.1
100215.4
100247.5
100285.8
100335.1
100465.4
100358.2
100440.3
100294.3
100341.8
100386.8
100255.6
100287.3
100309.7
100333.3
100230.4
100253.3
100266.4
100276.4
100222.6
100227.6
100247.8
100258.9
100267.9
100229.3
100259.1
100216.9
100233.9
100242.7
100249
100218
100243
100288.5
100207.4
100222.1
100229.2
100234
100207.4
100228.6
100267.1
100312
100195.1
100207.6
100213.2
100216.2
100192.3
100208.6
100239.4
100276.2
100323.9
100181.8
100192.4
100196.5
100198.1
100175.6
100188.2
100211.8
100240.2
100278.5
100324.2
100465.4
100356.9
100439.6
100291.4
100338.9
100384.6
100248.3
100279
100300.1
100323.1
100221.4
100243.1
100254.3
100262
100203.9
100203.1
100219.9
100226.2
100228.7
100179.5
100198.9
100203.3
100218.6
100225.1
100228.2
100191.8
100211.4
100251.9
100195.8
100209.1
100214.5
100216.9
100186.6
100203.8
100237.5
100277.1
100188.7
100200.5
100205.1
100207
100181.2
100195.7
100224.3
100258.1
100302.8
100178.7
100188.9
100192.6
100193.7
100170.5
100182.3
100204.9
100232.1
100268.8
100312.8
100167.4
100176.2
100178.9
100179.1
100157.6
100166.9
100185.1
100205.7
100234.2
100269.5
100296.5
100465.9
100356.9
100439.6
100290.1
100337.6
100383.6
100245.7
100276.1
100296.8
100320.2
100214.9
100235.6
100245.6
100251.7
100190.6
100195
100210.7
100215.5
100215.9
100162.7
100179.1
100181.5
100194
100196.7
100194.7
100150.2
100161
100191.2
100183.4
100195.4
100198.8
100198.7
100164.2
100177.2
100205.8
100239.8
100178.1
100188.8
100192
100191.9
100163.2
100174.6
100199.3
100228.2
100267.5
100172.8
100182.5
100185.3
100185.5
100160.8
100171.1
100192
100216.8
100250.6
100291.4
100164.5
100173.1
100175.4
100175.1
100153
100161.7
100179.1
100198.7
100226
100259.7
100284.7
100154.8
100162.3
100164
100163.2
100142.8
100149.9
100164.2
100179.8
100200.5
100226.7
100246.5
100302.9
100467.1
100358.2
100440.3
100290.1
100337.6
100383.6
100244.5
100274.7
100295.4
100318.8
100212.5
100232.9
100242.4
100248.1
100186
100189.2
100204.1
100207.9
100206.8
100150.9
100165.3
100174.1
100185.7
100187.2
100183.5
100135.9
100143.7
100171.2
100163.8
100173.4
100173.8
100169.7
100129.1
100135.2
100155
100178.3
100166.9
100176.4
100177.9
100175.8
100143.8
100152
100172.6
100196.2
100229.7
100163.1
100171.8
100173.5
100172
100144.9
100152.9
100170.8
100191.7
100220.5
100255.5
100159.1
100167.1
100168.8
100167.7
100144.4
100151.9
100167.9
100185.7
100210.7
100241.3
100262.5
100152.2
100159.4
100160.8
100159.6
100138.7
100145.3
100158.9
100173.8
100193.6
100218.5
100236.5
100291.3
100143.8
100150.2
100151.1
100149.7
100130.4
100135.9
100147.4
100159.5
100175.3
100194.2
100207.7
100251.9
100292.3
100473.9
100360.9
100441.8
100291.4
100338.9
100384.6
100244.5
100274.7
100295.4
100318.8
100211.4
100231.7
100241
100246.4
100183.9
100187
100201.7
100205
100203.4
100146.5
100160.3
100168.9
100179.8
100180.4
100175.6
100125.9
100131.6
100157.2
100157.1
100166
100165.3
100159.9
100116.9
100120.6
100137.6
100157.8
100149.1
100156.6
100155.6
100150.3
100113.5
100116.6
100130.4
100145
100167.5
100152.8
100160.5
100160.7
100157.6
100127.9
100133.3
100148.1
100164.8
100188.1
100217.1
100150.2
100157.4
100158
100155.6
100130.3
100135.9
100149.6
100164.4
100185.4
100210.9
100225.4
100147.2
100154
100154.7
100152.9
100130.9
100136.5
100149.1
100162.5
100180.5
100202.9
100217.7
100269.1
100141.3
100147.5
100148.1
100146.4
100126.7
100131.7
100142.8
100154.2
100169.3
100187.2
100199.3
100241.9
100280.4
100134
100139.5
100139.9
100138
100119.8
100124.1
100133.7
100143.3
100155.6
100169.8
100178
100212.1
100243.1
100290.1
100482.4
100369.7
100449.2
100294.3
100341.8
100386.8
100245.7
100276.1
100296.8
100320.2
100211.4
100231.7
100241
100246.4
100183.9
100186
100200.5
100203.8
100201.9
100144.6
100158.1
100166.9
100177.6
100177.9
100172.7
100122.2
100127.1
100152.1
100152.3
100160.7
100159.3
100153
100108.4
100110.5
100125.5
100143.5
100142.9
100149.8
100148
100141.6
100103
100104.2
100115.8
100127.3
100146.6
100136.6
100142.6
100140.7
100134.9
100101.4
100102.8
100112.5
100122.3
100136.6
100153.8
100140.7
100147
100146.4
100142.6
100115.2
100118.7
100130
100141.5
100158.2
100178.1
100185.3
100139
100145
100144.8
100141.9
100118.3
100122.3
100133
100144.1
100159.1
100177.5
100186.6
100231.7
100136.7
100142.5
100142.6
100140.3
100119.7
100123.9
100134
100144.3
100158
100174
100183.5
100223.1
100257.8
100131.7
100137
100137.1
100135
100116.4
100120.4
100129.5
100138.6
100150.3
100163.8
100170.9
100203.8
100233
100278
100125.2
100130
100130
100127.9
100110.7
100114.1
100122.1
100129.9
100139.8
100150.7
100155.8
100181.8
100204.8
100241.3
100287.6
100526.9
100381.5
100458.7
100302.5
100350.9
100395.5
100248.3
100279
100300.1
100323.1
100212.5
100232.9
100242.4
100248.1
100186
100186
100200.5
100203.8
100201.9
100144.6
100158.1
100166
100176.6
100176.8
100171.3
100120.5
100125.1
100149.9
100150.5
100158.7
100157
100150.3
100105.2
100106.6
100120.9
100138.3
100138.6
100145
100142.6
100135.5
100095.6
100095.6
100105.6
100115.1
100132
100130.9
100136.4
100133.8
100127.1
100092.1
100092.1
100100.1
100107.5
100118.7
100132.5
100125.8
100130.7
100128.3
100122.3
100091.7
100092
100099.4
100105.7
100115.5
100126
100120.4
100130.2
100135.5
100134.3
100130.1
100104.7
100107
100115.8
100124.3
100136
100150.1
100153
100191.5
100129.1
100134.2
100133.5
100130.2
100108.2
100111.1
100119.8
100128.2
100139.5
100152.4
100157.6
100191.7
100218.8
100127.4
100132.3
100132
100129.4
100110
100113.3
100121.6
100129.8
100140.4
100152.4
100157.5
100187.9
100213.9
100255.2
100123.1
100127.7
100127.4
100125.1
100107.6
100110.7
100118.4
100125.8
100135.1
100145.4
100149.7
100174.7
100196.4
100231.1
100275.5
100117.3
100121.5
100121.2
100118.9
100102.7
100105.5
100112.3
100118.8
100126.8
100135.5
100138.5
100159.1
100175.6
100203.3
100239.3
100549.3
100423.8
100504.5
100313.7
100363.1
100407
100255.6
100287.3
100309.7
100333.3
100214.9
100235.6
100245.6
100251.7
100190.6
100187
100201.7
100205
100203.4
100146.5
100160.3
100166
100176.6
100176.8
100171.3
100120.5
100125.1
100149.9
100149.7
100157.7
100156
100149.1
100103.7
100104.9
100118.9
100136
100136.9
100143.2
100140.5
100133.1
100092.8
100092.3
100101.7
100110.5
100126.7
100127
100132
100129
100121.6
100085.7
100084.7
100091.5
100097.2
100106.4
100117.7
100120.6
100125
100122
100115.2
100083.5
100082.7
100088.6
100093.2
100100.6
100107.9
100097.6
100116.5
100120.5
100117.8
100111.7
100083.7
100083.5
100089
100093.6
100100
100106.9
100100
100122.2
100120.9
100125.4
100123.8
100119.4
100095.9
100097.4
100104.5
100110.8
100119.6
100129.2
100129.6
100157.9
100177
100120.3
100124.7
100123.7
100120.2
100099.6
100101.8
100108.9
100115.5
100124.2
100133.8
100135.6
100161.8
100181.3
100215
100119
100123.3
100122.7
100119.9
100101.7
100104.2
100111.3
100117.9
100126.3
100135.4
100138.1
100161.3
100180.3
100211.8
100252.5
100115.3
100119.4
100118.8
100116.3
100099.9
100102.3
100108.9
100115
100122.6
100130.8
100133.1
100153
100168.4
100194.8
100229
100110.1
100113.9
100113.3
100110.9
100095.7
100097.9
100103.8
100109.3
100116
100123
100124.6
100141.4
100153.8
100174.3
100201.6
100572.9
100447.9
100528.1
100350.4
100406.1
100455.7
100265.7
100298.8
100323
100347.2
100221.4
100243.1
100254.3
100262
100203.9
100189.2
100204.1
100207.9
100206.8
100150.9
100165.3
100166.9
100177.6
100177.9
100172.7
100122.2
100127.1
100152.1
100149.7
100157.7
100156
100149.1
100103.7
100104.9
100118.9
100136
100136.1
100142.3
100139.6
100132
100091.6
100090.8
100099.9
100108.4
100124.3
100125.4
100130.4
100127.1
100119.5
100083.2
100081.8
100088.1
100093.3
100101.7
100112.2
100117
100121
100117.6
100110.3
100077.8
100076.2
100081.2
100084.5
100090.3
100095.5
100081.9
100111.7
100115.3
100112
100105.3
100076.3
100075.1
100079.6
100082.8
100087.4
100091.9
100081.3
100101
100108.2
100111.6
100108.7
100102.7
100077
100076.3
100080.8
100084
100088.7
100092.9
100085.9
100101.3
100095
100112.7
100116.5
100114.7
100110.3
100088.4
100089.4
100095.1
100100.1
100106.7
100113.7
100112
100133.6
100146.4
100172.1
100112.4
100116.2
100115
100111.4
100092.2
100093.8
100099.7
100105
100111.9
100119.1
100119.3
100139.2
100153.2
100178.2
100210.6
100111.5
100115.3
100114.4
100111.5
100094.5
100096.4
100102.4
100107.9
100114.7
100121.9
100123
100141.4
100154.9
100178.6
100209.5
100108.3
100111.8
100111.1
100108.5
100093
100095
100100.7
100105.8
100112.2
100118.8
100119.9
100136
100147.6
100167.1
100193
100103.6
100106.9
100106.2
100103.8
100089.4
100091.2
100096.4
100101
100106.7
100112.5
100113.2
100127.2
100136.7
100152.7
100172.9
100586.4
100471.4
100552.6
100372.1
100430.8
100481.8
100297.4
100336
100367.5
100399.2
100230.4
100253.3
100266.4
100276.4
100222.6
100195
100210.7
100215.5
100215.9
100162.7
100179.1
100168.9
100179.8
100180.4
100175.6
100125.9
100131.6
100157.2
100150.5
100158.7
100157
100150.3
100105.2
100106.6
100120.9
100138.3
100136.1
100142.3
100139.6
100132
100091.6
100090.8
100099.9
100108.4
100124.3
100124.7
100129.6
100126.2
100118.5
100082.1
100080.5
100086.7
100091.5
100099.6
100109.7
100115.5
100119.5
100115.9
100108.3
100075.5
100073.6
100078.3
100081.2
100086.3
100090.7
100075.9
100108.3
100111.6
100108
100100.8
100071.2
100069.4
100073.1
100075.3
100078.7
100081.5
100068.4
100086.4
100103.8
100106.8
100103.4
100096.9
100070.3
100068.9
100072.5
100074.5
100077.8
100080.2
100070.5
100083.8
100076.7
100100.9
100103.7
100100.8
100095
100071.2
100070.4
100074
100076.3
100079.7
100082.5
100075.3
100086.9
100079.9
100076.3
100105.4
100108.6
100106.6
100102.3
100082
100082.5
100087.3
100091.2
100096.5
100101.6
100099
100115.3
100124.2
100142.4
100166.3
100105.3
100108.7
100107.2
100103.6
100085.7
100086.8
100091.9
100096.3
100101.8
100107.5
100106.5
100122.3
100132
100150.7
100174.7
100104.7
100108
100107
100104
100088
100089.6
100094.8
100099.3
100105
100110.8
100110.9
100125.9
100135.9
100153.4
100176.8
100101.8
100105
100104.2
100101.5
100086.9
100088.6
100093.5
100097.9
100103.2
100108.7
100109
100122.4
100131.3
100146.4
100165.6
100097.6
100100.6
100099.8
100097.3
100083.7
100085.3
100089.8
100093.8
100098.7
100103.5
100103.7
100115.5
100123
100135.7
100151.4
100593.9
100485.2
100566.7
100392.9
100454.8
100508.3
100316.5
100358.1
100393.5
100428.2
100258.1
100285.3
100304.5
100322.6
100281.6
100203.1
100219.9
100226.2
100228.7
100179.5
100198.9
100174.1
100185.7
100187.2
100183.5
100135.9
100143.7
100171.2
100152.3
100160.7
100159.3
100153
100108.4
100110.5
100125.5
100143.5
100136.9
100143.2
100140.5
100133.1
100092.8
100092.3
100101.7
100110.5
100126.7
100124.7
100129.6
100126.2
100118.5
100082.1
100080.5
100086.7
100091.5
100099.6
100109.7
100114.9
100118.8
100115.1
100107.5
100074.6
100072.5
100077
100079.7
100084.5
100088.6
100073.3
100106.9
100110.1
100106.4
100099.1
100069.2
100067.1
100070.6
100072.4
100075.4
100077.5
100063.4
100081.1
100100.6
100103.3
100099.7
100092.7
100065.7
100063.7
100066.7
100068
100070.3
100071.5
100059.8
100071.8
100064.2
100096.8
100099.3
100095.9
100089.6
100065.2
100063.6
100066.5
100068
100070.3
100071.7
100062.4
100072.4
100064.9
100061.7
100094.4
100096.8
100093.8
100088.2
100066.2
100065.2
100068.2
100070
100072.6
100074.4
100067.5
100076.2
100069.6
100065.1
100028.5
100098.7
100101.5
100099.5
100095.2
100076.3
100076.5
100080.6
100083.8
100088
100091.9
100088.7
100101.8
100107.5
100120.9
100137.8
100098.9
100101.8
100100.3
100096.7
100079.9
100080.8
100085.1
100088.8
100093.4
100097.9
100096.3
100109.2
100116.2
100129.9
100147.8
100098.5
100101.5
100100.3
100097.3
100082.3
100083.5
100088
100091.9
100096.7
100101.5
100100.9
100113.4
100121
100134.6
100151.8
100095.9
100098.8
100097.8
100095.2
100081.4
100082.8
100087.1
100090.9
100095.5
100100
100099.8
100111.2
100118.2
100130.2
100145.2
100092.1
100094.8
100093.9
100091.4
100078.6
100079.9
100084
100087.4
100091.7
100095.8
100095.5
100105.7
100111.8
100122.2
100134.6
100492.7
100574.5
100405.3
100469
100523.6
100334.7
100379.3
100418.6
100456.9
100275
100304.7
100327.5
100350.2
100316.7
100227.6
100247.8
100258.9
100267.9
100229.3
100259.1
100181.5
100194
100196.7
100194.7
100150.2
100161
100191.2
100157.1
100166
100165.3
100159.9
100116.9
100120.6
100137.6
100157.8
100138.6
100145
100142.6
100135.5
100095.6
100095.6
100105.6
100115.1
100132
100125.4
100130.4
100127.1
100119.5
100083.2
100081.8
100088.1
100093.3
100101.7
100112.2
100114.9
100118.8
100115.1
100107.5
100074.6
100072.5
100077
100079.7
100084.5
100088.6
100073.3
100106.3
100109.5
100105.7
100098.3
100068.3
100066.1
100069.5
100071.1
100073.9
100075.8
100061.2
100078.8
100099.4
100102
100098.2
100091.2
100063.9
100061.7
100064.5
100065.5
100067.4
100068.1
100055.7
100067.3
100060
100093.8
100096.1
100092.4
100085.8
100061
100059
100061.3
100062.2
100063.7
100064.1
100053.5
100062.5
100054.8
100052
100090.5
100092.6
100089.2
100083.2
100060.7
100059.1
100061.5
100062.5
100064.2
100064.9
100056.4
100064
100057.2
100053.3
100027.7
100088.5
100090.5
100087.5
100082.2
100061.8
100060.8
100063.3
100064.7
100066.6
100067.9
100061.3
100068.3
100061.7
100057.5
100027.5
100027.5
100092.7
100095.2
100093.1
100088.9
100071.2
100071.3
100074.8
100077.4
100080.9
100083.9
100080.5
100091.2
100095.1
100104.8
100117.2
100093.1
100095.6
100094
100090.5
100074.8
100075.4
100079.2
100082.3
100086.1
100089.8
100087.8
100098.7
100103.8
100114.4
100127.5
100092.8
100095.4
100094.2
100091.3
100077.1
100078.1
100082.1
100085.4
100089.6
100093.5
100092.5
100103.2
100109.1
100119.9
100133.3
100090.5
100093.1
100092.1
100089.5
100076.5
100077.6
100081.5
100084.8
100088.8
100092.6
100092
100101.9
100107.5
100117.3
100129.1
100087
100089.4
100088.5
100086.1
100074
100075
100078.7
100081.8
100085.5
100089
100088.4
100097.4
100102.4
100111
100121.2
100412
100476.7
100532
100345.6
100391.9
100433.5
100473.7
100291.1
100323.2
100349.4
100376.6
100350
100242.7
100264.9
100279
100292
100260.2
100295.3
100203.3
100218.6
100225.1
100228.2
100191.8
100211.4
100251.9
100163.8
100173.4
100173.8
100169.7
100129.1
100135.2
100155
100178.3
100142.9
100149.8
100148
100141.6
100103
100104.2
100115.8
100127.3
100146.6
100127
100132
100129
100121.6
100085.7
100084.7
100091.5
100097.2
100106.4
100117.7
100115.5
100119.5
100115.9
100108.3
100075.5
100073.6
100078.3
100081.2
100086.3
100090.7
100075.9
100106.3
100109.5
100105.7
100098.3
100068.3
100066.1
100069.5
100071.1
100073.9
100075.8
100061.2
100078.8
100098.8
100101.4
100097.6
100090.4
100063.1
100060.8
100063.5
100064.3
100066.1
100066.6
100053.9
100065.3
100058.1
100092.7
100094.9
100091.1
100084.3
100059.3
100057.2
100059.3
100059.9
100061.2
100061.2
100050
100058.8
100051.3
100049.1
100087.8
100089.7
100086.1
100079.7
100056.8
100054.9
100056.8
100057.3
100058.4
100058.3
100048.8
100055.7
100048.9
100045.4
100027.5
100084.9
100086.6
100083.3
100077.6
100056.7
100055.2
100057.2
100057.9
100059.1
100059.5
100051.7
100057.8
100051.4
100047.8
100026.9
100027.4
100083.1
100084.9
100082
100076.8
100057.9
100056.8
100059
100060
100061.6
100062.4
100056.4
100062
100055.9
100051.6
100027
100026.7
100027.5
100087.2
100089.4
100087.3
100083.2
100066.7
100066.6
100069.7
100071.9
100074.8
100077.2
100073.7
100082.8
100085.4
100092.8
100101.6
100087.7
100090
100088.4
100085
100070.1
100070.6
100073.9
100076.6
100079.9
100082.9
100080.7
100090
100093.9
100102.2
100112.3
100087.6
100089.9
100088.7
100085.8
100072.5
100073.3
100076.8
100079.7
100083.3
100086.6
100085.4
100094.6
100099.3
100108.2
100118.7
100085.5
100087.9
100086.8
100084.2
100072
100072.9
100076.4
100079.3
100082.8
100086.1
100085.2
100093.9
100098.5
100106.7
100116.3
100082.3
100084.5
100083.5
100081.1
100069.7
100070.6
100073.9
100076.6
100079.9
100083
100082.2
100090.2
100094.3
100101.7
100110.2
100351.5
100398.7
100441.5
100482.8
100300.7
100334.3
100362.5
100392.3
100369.7
100257
100281.2
100297.9
100314.7
100289.1
100329.5
100216.9
100233.9
100242.7
100249
100218
100243
100288.5
100183.4
100195.4
100198.8
100198.7
100164.2
100177.2
100205.8
100239.8
100149.1
100156.6
100155.6
100150.3
100113.5
100116.6
100130.4
100145
100167.5
100130.9
100136.4
100133.8
100127.1
100092.1
100092.1
100100.1
100107.5
100118.7
100132.5
100117
100121
100117.6
100110.3
100077.8
100076.2
100081.2
100084.5
100090.3
100095.5
100081.9
100106.9
100110.1
100106.4
100099.1
100069.2
100067.1
100070.6
100072.4
100075.4
100077.5
100063.4
100081.1
100098.8
100101.4
100097.6
100090.4
100063.1
100060.8
100063.5
100064.3
100066.1
100066.6
100053.9
100065.3
100058.1
100092.2
100094.3
100090.5
100083.7
100058.6
100056.4
100058.4
100058.9
100060
100059.9
100048.4
100057.2
100049.7
100047.8
100086.7
100088.5
100084.8
100078.4
100055.3
100053.2
100055
100055.3
100056.1
100055.8
100045.8
100052.6
100046
100043
100027.5
100082.3
100083.9
100080.4
100074.4
100053.2
100051.3
100052.9
100053.2
100053.9
100053.7
100045
100050.7
100044.4
100041.4
100026.7
100027.4
100079.7
100081.2
100078
100072.6
100053.2
100051.7
100053.4
100053.9
100054.9
100054.9
100047.8
100052.9
100047.1
100043.5
100026.5
100026.6
100027.4
100078.2
100079.8
100076.9
100072
100054.4
100053.3
100055.2
100056
100057.3
100057.9
100052.2
100056.9
100051.2
100047.3
100026.2
100026.3
100026.7
100027.5
100082.2
100084.1
100082
100078.1
100062.6
100062.5
100065.2
100067
100069.5
100071.4
100068
100075.7
100077.6
100083.3
100090.1
100082.7
100084.8
100083.2
100079.9
100065.9
100066.2
100069.2
100071.5
100074.4
100076.9
100074.7
100082.7
100085.7
100092.5
100100.4
100082.7
100084.9
100083.6
100080.8
100068.2
100068.8
100072
100074.6
100077.7
100080.6
100079.2
100087.2
100091.1
100098.5
100107.1
100080.9
100083
100081.9
100079.4
100067.8
100068.6
100071.8
100074.3
100077.4
100080.3
100079.3
100086.9
100090.8
100097.7
100105.8
100077.9
100079.9
100078.9
100076.6
100065.7
100066.5
100069.5
100072
100074.9
100077.6
100076.7
100083.8
100087.3
100093.7
100100.9
100305.9
100340.2
100369.6
100400.8
100380.3
100265.6
100290.9
100309.4
100328.4
100306.6
100349.8
100229.8
100248.3
100259.4
100268.6
100242.5
100272.4
100323
100195.8
100209.1
100214.5
100216.9
100186.6
100203.8
100237.5
100277.1
100166.9
100176.4
100177.9
100175.8
100143.8
100152
100172.6
100196.2
100229.7
100136.6
100142.6
100140.7
100134.9
100101.4
100102.8
100112.5
100122.3
100136.6
100153.8
100120.6
100125
100122
100115.2
100083.5
100082.7
100088.6
100093.2
100100.6
100107.9
100097.6
100108.3
100111.6
100108
100100.8
100071.2
100069.4
100073.1
100075.3
100078.7
100081.5
100068.4
100086.4
100099.4
100102
100098.2
100091.2
100063.9
100061.7
100064.5
100065.5
100067.4
100068.1
100055.7
100067.3
100060
100092.2
100094.3
100090.5
100083.7
100058.6
100056.4
100058.4
100058.9
100060
100059.9
100048.4
100057.2
100049.7
100047.8
100086.2
100088
100084.2
100077.8
100054.7
100052.5
100054.2
100054.4
100055.1
100054.6
100044.5
100051.2
100044.7
100042
100027.5
100081.3
100082.8
100079.2
100073.1
100051.8
100049.8
100051.3
100051.4
100051.9
100051.4
100042.4
100048
100041.9
100039.4
100026.7
100027.4
100077.3
100078.7
100075.3
100069.6
100049.9
100048.1
100049.5
100049.7
100050.2
100049.7
100041.9
100046.6
100041.1
100038.1
100026.3
100026.6
100027.4
100075
100076.4
100073.3
100068
100050
100048.5
100050
100050.4
100051.2
100051.1
100044.5
100048.9
100043.5
100040.4
100025.8
100026.3
100026.7
100027.4
100073.7
100075.1
100072.3
100067.6
100051.2
100050.1
100051.8
100052.5
100053.5
100053.9
100048.6
100052.7
100047.4
100043.7
100025.6
100025.7
100026.3
100026.7
100027.4
100077.5
100079.3
100077.2
100073.5
100058.9
100058.7
100061.1
100062.7
100064.8
100066.4
100063.1
100069.8
100071.1
100075.8
100081
100078.2
100080
100078.4
100075.2
100062.1
100062.3
100065
100067
100069.5
100071.6
100069.4
100076.4
100078.8
100084.4
100090.9
100078.2
100080.2
100078.9
100076.2
100064.3
100064.8
100067.7
100070
100072.7
100075.2
100073.7
100080.9
100084.1
100090.3
100097.5
100076.5
100078.5
100077.4
100075
100064
100064.7
100067.5
100069.8
100072.6
100075.1
100074
100080.9
100084.1
100090.1
100097
100073.7
100075.6
100074.6
100072.4
100062.1
100062.8
100065.5
100067.8
100070.4
100072.8
100071.8
100078.2
100081.2
100086.8
100093
100270.2
100296.2
100315.5
100335.7
100315.9
100360.7
100237.5
100257
100269.4
100280.4
100257.3
100290.2
100343.5
100207.4
100222.1
100229.2
100234
100207.4
100228.6
100267.1
100312
100178.1
100188.8
100192
100191.9
100163.2
100174.6
100199.3
100228.2
100267.5
100152.8
100160.5
100160.7
100157.6
100127.9
100133.3
100148.1
100164.8
100188.1
100217.1
100125.8
100130.7
100128.3
100122.3
100091.7
100092
100099.4
100105.7
100115.5
100126
100120.4
100111.7
100115.3
100112
100105.3
100076.3
100075.1
100079.6
100082.8
100087.4
100091.9
100081.3
100101
100100.6
100103.3
100099.7
100092.7
100065.7
100063.7
100066.7
100068
100070.3
100071.5
100059.8
100071.8
100064.2
100092.7
100094.9
100091.1
100084.3
100059.3
100057.2
100059.3
100059.9
100061.2
100061.2
100050
100058.8
100051.3
100049.1
100086.2
100088
100084.2
100077.8
100054.7
100052.5
100054.2
100054.4
100055.1
100054.6
100044.5
100051.2
100044.7
100042
100027.5
100080.8
100082.3
100078.7
100072.5
100051.2
100049.1
100050.5
100050.6
100051
100050.4
100041.2
100046.8
100040.9
100038.5
100026.7
100027.3
100076.4
100077.7
100074.2
100068.4
100048.6
100046.7
100048
100048
100048.4
100047.7
100039.6
100044.3
100039
100036.5
100026.3
100026.6
100027.4
100072.8
100073.9
100070.7
100065.3
100047
100045.2
100046.5
100046.5
100046.9
100046.4
100039.3
100043.4
100038.3
100035.7
100025.6
100026.3
100026.6
100027.4
100070.7
100071.9
100068.9
100063.9
100047.1
100045.7
100047
100047.3
100047.9
100047.7
100041.7
100045.5
100040.6
100037.7
100025.2
100025.6
100026.3
100026.7
100027.4
100069.6
100070.8
100068.1
100063.7
100048.2
100047.2
100048.7
100049.3
100050.2
100050.4
100045.5
100049.1
100044.2
100040.8
100024.9
100025.1
100025.7
100026.3
100026.6
100027.4
100073.2
100074.8
100072.8
100069.2
100055.5
100055.2
100057.4
100058.8
100060.7
100062
100058.8
100064.8
100065.7
100069.5
100073.7
100073.9
100075.6
100074
100070.9
100058.5
100058.7
100061.1
100062.9
100065.1
100067
100064.7
100071
100072.9
100077.7
100083
100074
100075.8
100074.5
100071.9
100060.6
100061.1
100063.7
100065.8
100068.2
100070.4
100068.9
100075.3
100078
100083.4
100089.5
100072.5
100074.3
100073.2
100070.8
100060.4
100061
100063.7
100065.7
100068.2
100070.5
100069.3
100075.5
100078.3
100083.5
100089.4
100069.9
100071.6
100070.6
100068.5
100058.7
100059.3
100061.9
100063.9
100066.3
100068.4
100067.4
100073.2
100075.8
100080.7
100086.1
100241.7
100261.7
100274.8
100286.8
100265.2
100299.7
100354.4
100214.4
100229.9
100238.2
100244.4
100220.1
100243.7
100285
100332.8
100188.7
100200.5
100205.1
100207
100181.2
100195.7
100224.3
100258.1
100302.8
100163.1
100171.8
100173.5
100172
100144.9
100152.9
100170.8
100191.7
100220.5
100255.5
100140.7
100147
100146.4
100142.6
100115.2
100118.7
100130
100141.5
100158.2
100178.1
100185.3
100116.5
100120.5
100117.8
100111.7
100083.7
100083.5
100089
100093.6
100100
100106.9
100100
100122.2
100103.8
100106.8
100103.4
100096.9
100070.3
100068.9
100072.5
100074.5
100077.8
100080.2
100070.5
100083.8
100076.7
100093.8
100096.1
100092.4
100085.8
100061
100059
100061.3
100062.2
100063.7
100064.1
100053.5
100062.5
100054.8
100052
100086.7
100088.5
100084.8
100078.4
100055.3
100053.2
100055
100055.3
100056.1
100055.8
100045.8
100052.6
100046
100043
100027.5
100080.8
100082.3
100078.7
100072.5
100051.2
100049.1
100050.5
100050.6
100051
100050.4
100041.2
100046.8
100040.9
100038.5
100026.7
100027.3
100075.9
100077.2
100073.7
100067.9
100048.1
100046.1
100047.3
100047.3
100047.6
100046.8
100038.6
100043.3
100038
100035.7
100026.3
100026.6
100027.4
100071.9
100073
100069.7
100064.2
100045.8
100044
100045.1
100045
100045.3
100044.6
100037.2
100041.3
100036.5
100034.3
100025.6
100026.3
100026.6
100027.4
100068.6
100069.6
100066.5
100061.3
100044.3
100042.6
100043.7
100043.7
100044
100043.5
100037
100040.6
100036
100033.7
100025.1
100025.6
100026.3
100026.6
100027.4
100066.7
100067.8
100064.9
100060.2
100044.4
100043.1
100044.3
100044.5
100045
100044.8
100039.3
100042.6
100038.1
100035.5
100024.6
100025.1
100025.6
100026.3
100026.6
100027.4
100065.7
100066.8
100064.2
100060
100045.5
100044.5
100045.9
100046.4
100047.2
100047.3
100042.7
100045.9
100041.4
100038.3
100024.2
100024.5
100025.1
100025.6
100026.3
100026.6
100027.4
100069.3
100070.7
100068.7
100065.3
100052.4
100052.1
100054.1
100055.3
100056.9
100058.1
100055
100060.3
100061
100064.2
100067.6
100069.9
100071.5
100069.9
100067
100055.3
100055.3
100057.6
100059.2
100061.1
100062.8
100060.6
100066.2
100067.8
100071.9
100076.4
100070.1
100071.7
100070.5
100068
100057.3
100057.7
100060.1
100061.9
100064.1
100066.1
100064.6
100070.3
100072.6
100077.3
100082.6
100068.7
100070.3
100069.3
100067
100057.1
100057.6
100060.1
100062
100064.2
100066.2
100065.1
100070.7
100073.1
100077.7
100082.8
100066.2
100067.9
100066.9
100064.8
100055.5
100056.1
100058.4
100060.3
100062.5
100064.4
100063.4
100068.7
100071
100075.3
100080.1
100218.2
100234.1
100242.9
100249.9
100226.9
100251.7
100294.5
100343.9
100195.1
100207.6
100213.2
100216.2
100192.3
100208.6
100239.4
100276.2
100323.9
100172.8
100182.5
100185.3
100185.5
100160.8
100171.1
100192
100216.8
100250.6
100291.4
100150.2
100157.4
100158
100155.6
100130.3
100135.9
100149.6
100164.4
100185.4
100210.9
100225.4
100130.2
100135.5
100134.3
100130.1
100104.7
100107
100115.8
100124.3
100136
100150.1
100153
100191.5
100108.2
100111.6
100108.7
100102.7
100077
100076.3
100080.8
100084
100088.7
100092.9
100085.9
100101.3
100095
100096.8
100099.3
100095.9
100089.6
100065.2
100063.6
100066.5
100068
100070.3
100071.7
100062.4
100072.4
100064.9
100061.7
100087.8
100089.7
100086.1
100079.7
100056.8
100054.9
100056.8
100057.3
100058.4
100058.3
100048.8
100055.7
100048.9
100045.4
100027.5
100081.3
100082.8
100079.2
100073.1
100051.8
100049.8
100051.3
100051.4
100051.9
100051.4
100042.4
100048
100041.9
100039.4
100026.7
100027.4
100075.9
100077.2
100073.7
100067.9
100048.1
100046.1
100047.3
100047.3
100047.6
100046.8
100038.6
100043.3
100038
100035.7
100026.3
100026.6
100027.4
100071.5
100072.6
100069.2
100063.7
100045.3
100043.4
100044.5
100044.3
100044.5
100043.8
100036.3
100040.4
100035.7
100033.7
100025.6
100026.2
100026.6
100027.4
100067.7
100068.7
100065.5
100060.3
100043.2
100041.4
100042.5
100042.3
100042.5
100041.8
100035.2
100038.7
100034.4
100032.4
100025.1
100025.6
100026.3
100026.6
100027.4
100064.7
100065.6
100062.6
100057.8
100041.8
100040.3
100041.3
100041.2
100041.4
100040.9
100035
100038.2
100034
100032
100024.5
100025.1
100025.6
100026.3
100026.6
100027.4
100063
100063.9
100061.2
100056.7
100042
100040.7
100041.8
100042
100042.4
100042.1
100037.1
100040
100036
100033.6
100023.9
100024.4
100025.1
100025.6
100026.3
100026.6
100027.4
100062.1
100063.1
100060.7
100056.6
100043
100042.1
100043.3
100043.7
100044.4
100044.5
100040.3
100043.1
100039
100036.1
100023.5
100023.9
100024.5
100025.1
100025.6
100026.3
100026.6
100027.4
100065.5
100066.8
100064.9
100061.6
100049.5
100049.2
100051
100052.1
100053.5
100054.5
100051.7
100056.4
100056.9
100059.6
100062.5
100066.2
100067.6
100066.1
100063.3
100052.2
100052.3
100054.3
100055.8
100057.5
100059
100056.9
100061.9
100063.3
100066.8
100070.7
100066.4
100067.9
100066.7
100064.3
100054.2
100054.5
100056.7
100058.4
100060.4
100062.1
100060.6
100065.9
100067.9
100072
100076.6
100065.1
100066.6
100065.6
100063.4
100054
100054.5
100056.8
100058.5
100060.6
100062.4
100061.2
100066.3
100068.4
100072.6
100077.1
100062.8
100064.3
100063.4
100061.3
100052.5
100053
100055.2
100056.9
100059
100060.7
100059.7
100064.6
100066.6
100070.5
100074.8
100198.5
100211.4
100217.4
100221.1
100198.1
100215.4
100247.5
100285.8
100335.1
100178.7
100188.9
100192.6
100193.7
100170.5