/*--------------------------------*- C++ -*----------------------------------*\
| =========                 |                                                 |
| \\      /  F ield         | OpenFOAM: The Open Source CFD Toolbox           |
|  \\    /   O peration     | Version:  2306                                  |
|   \\  /    A nd           | Website:  www.openfoam.com                      |
|    \\/     M anipulation  |                                                 |
\*---------------------------------------------------------------------------*/
FoamFile
{
    version     2.0;
    format      ascii;
    arch        "LSB;label=32;scalar=64";
    class       volVectorField;
    location    "0.6/fuel";
    object      U;
}
// * * * * * * * * * * * * * * * * * * * * * * * * * * * * * * * * * * * * * //

dimensions      [0 1 -1 0 0 0 0];

internalField   nonuniform List<vector> 
16000
(
(0.0001004355 7.556914e-05 -0.004883973)
(0.0001004444 0.0002079749 -0.004956053)
(0.0001801171 7.52406e-05 -0.00402793)
(9.834936e-05 8.030579e-05 -0.0155148)
(0.0001008044 0.0003682954 -0.005102642)
(0.0001793133 0.0002111092 -0.004069957)
(9.824049e-05 0.0002192567 -0.01574181)
(0.0001397236 6.694231e-05 -0.003332591)
(0.0001761469 7.86229e-05 -0.01281285)
(9.105672e-05 8.698519e-05 -0.02304515)
(0.0001007181 0.0004569299 -0.005328515)
(0.000178245 0.0003699754 -0.004153778)
(9.835888e-05 0.0003876742 -0.01620326)
(0.0001381037 0.0001888045 -0.003361086)
(0.0001751604 0.0002187561 -0.01294549)
(9.069417e-05 0.0002379422 -0.02338012)
(0.0001048905 5.860009e-05 -0.002820537)
(0.0001366279 6.955204e-05 -0.01061398)
(0.0001628254 8.267579e-05 -0.01905092)
(8.234251e-05 9.238436e-05 -0.03791645)
(0.0001024108 0.0006638778 -0.005626606)
(0.0001754709 0.0004712383 -0.004279289)
(9.787879e-05 0.0004833927 -0.01691427)
(0.0001352092 0.0003290534 -0.003417423)
(0.0001737217 0.000382932 -0.01320992)
(9.028369e-05 0.0004194682 -0.02406095)
(0.0001033995 0.0001656809 -0.002841435)
(0.000134904 0.0001945411 -0.01070406)
(0.00016147 0.0002296069 -0.01924693)
(8.168178e-05 0.0002597356 -0.03846537)
(8.02464e-05 5.169812e-05 -0.002433449)
(0.0001025968 6.070615e-05 -0.008992453)
(0.0001262348 7.23795e-05 -0.01579576)
(0.0001473359 8.543222e-05 -0.03136535)
(6.820098e-05 0.000114722 -0.03085686)
(0.0001003152 0.0005261691 -0.005965784)
(0.0001747893 0.0006569809 -0.004437557)
(9.904647e-05 0.0006973191 -0.01785241)
(0.0001299392 0.0004211135 -0.003500768)
(0.0001703508 0.0004884248 -0.013606)
(8.895996e-05 0.0005280109 -0.02510986)
(0.0001006707 0.0002878642 -0.002882505)
(0.0001318036 0.0003387304 -0.01088209)
(0.000159269 0.0004009901 -0.01963772)
(8.064986e-05 0.0004565547 -0.03958072)
(7.901771e-05 0.0001463864 -0.002449498)
(0.0001010377 0.0001702166 -0.009058606)
(0.0001243306 0.0002018947 -0.01592904)
(0.0001455515 0.0002422967 -0.03168678)
(6.686712e-05 0.0003204899 -0.03130246)
(6.339489e-05 4.605032e-05 -0.00213109)
(7.848648e-05 5.345124e-05 -0.007765321)
(9.484524e-05 6.282847e-05 -0.01339278)
(0.0001141394 7.404385e-05 -0.02602307)
(0.0001212069 0.0001006564 -0.02553021)
(0.0005825487 0.001047993 -0.06154291)
(0.0001037255 0.0001525941 -0.006212422)
(0.0001670738 0.0005358997 -0.004610732)
(9.627942e-05 0.000555743 -0.0189217)
(0.0001250628 0.0005776523 -0.003603677)
(0.0001688934 0.0006783623 -0.01410556)
(8.895661e-05 0.0007514862 -0.02649361)
(9.590692e-05 0.0003691588 -0.002942762)
(0.0001262092 0.0004338034 -0.01114559)
(0.0001546974 0.0005128998 -0.02022311)
(7.833527e-05 0.0005800367 -0.04130015)
(7.674982e-05 0.0002537829 -0.002480897)
(9.817563e-05 0.0002954969 -0.009188566)
(0.0001208661 0.0003508544 -0.01619248)
(0.000142464 0.0004221171 -0.03232733)
(6.444822e-05 0.0005607252 -0.03220898)
(6.238353e-05 0.0001305282 -0.002143813)
(7.720998e-05 0.0001501013 -0.007816183)
(9.317942e-05 0.0001756066 -0.01349075)
(0.0001120253 0.0002105123 -0.02624179)
(0.0001183991 0.0002823591 -0.025791)
(0.0005695027 0.002973097 -0.06243425)
(5.134545e-05 4.137076e-05 -0.001888636)
(6.200484e-05 4.754279e-05 -0.006805915)
(7.25363e-05 5.511531e-05 -0.01157275)
(8.581796e-05 6.391805e-05 -0.02207745)
(9.368285e-05 8.548481e-05 -0.02118625)
(0.001036561 0.0009125379 -0.05091732)
(0.0005979701 0.00108092 -0.04341088)
(0.0001057209 7.953264e-05 -0.006367934)
(0.0001697905 0.0002039937 -0.0047273)
(9.922972e-05 0.0001701662 -0.01969581)
(0.000114536 0.0004736853 -0.003714658)
(0.0001601907 0.0005540956 -0.01465385)
(8.480385e-05 0.0006051825 -0.02807104)
(9.11823e-05 0.0005019684 -0.003016062)
(0.0001209357 0.0005933934 -0.01147108)
(0.0001516034 0.0007070013 -0.02096153)
(7.695793e-05 0.0008146335 -0.04357)
(7.285041e-05 0.0003258087 -0.002526674)
(9.320323e-05 0.0003790981 -0.009379341)
(0.0001147162 0.000449984 -0.01658245)
(0.0001364964 0.0005415276 -0.03328756)
(5.988482e-05 0.0007231811 -0.03360633)
(6.050775e-05 0.0002258992 -0.002168616)
(7.484907e-05 0.0002600249 -0.00791565)
(9.010373e-05 0.0003043257 -0.01368324)
(0.0001081362 0.0003650702 -0.02667384)
(0.0001132257 0.0004897919 -0.02631155)
(0.0005453484 0.005198091 -0.06424408)
(5.050252e-05 0.0001173504 -0.001898973)
(6.095818e-05 0.0001336487 -0.006846277)
(7.118947e-05 0.0001542387 -0.01164814)
(8.40276e-05 0.0001819335 -0.02223834)
(9.100422e-05 0.0002400878 -0.02136366)
(0.001009804 0.002595317 -0.05143924)
(0.0005838741 0.003147446 -0.04404353)
(4.251421e-05 3.744328e-05 -0.001689985)
(5.022086e-05 4.266346e-05 -0.006035962)
(5.729877e-05 4.888769e-05 -0.01014883)
(6.560291e-05 5.585767e-05 -0.01908771)
(7.057807e-05 7.298086e-05 -0.01797782)
(0.0008007211 0.0007726029 -0.04225574)
(0.001068585 0.0009398845 -0.03590154)
(0.000583913 0.001117575 -0.04818823)
(0.0001074045 1.681245e-05 -0.006454487)
(0.0001711299 0.0001142141 -0.004797812)
(0.0001009248 8.984548e-05 -0.02018313)
(0.0001128068 0.0001917803 -0.003785499)
(0.0001622615 0.0002139561 -0.01502106)
(8.668303e-05 0.0002036073 -0.02921119)
(8.223821e-05 0.0004124379 -0.003094437)
(0.0001099043 0.0004868566 -0.01182345)
(0.0001409953 0.0005790633 -0.02177241)
(7.117983e-05 0.0006627879 -0.04616546)
(6.888787e-05 0.0004403534 -0.002581706)
(8.822951e-05 0.0005142871 -0.009611533)
(0.0001087211 0.0006120478 -0.01706428)
(0.0001315003 0.0007405006 -0.03449946)
(5.54771e-05 0.0009945139 -0.0354528)
(5.731158e-05 0.0002901899 -0.002204594)
(7.080451e-05 0.0003338974 -0.00806075)
(8.48094e-05 0.0003907524 -0.01396587)
(0.000101339 0.0004689537 -0.02731393)
(0.000103913 0.000631717 -0.02709161)
(0.000500466 0.006720137 -0.06704197)
(4.893409e-05 0.000202805 -0.001919065)
(5.901401e-05 0.0002311376 -0.006924924)
(6.86887e-05 0.0002667683 -0.01179559)
(8.070247e-05 0.0003146962 -0.02255421)
(8.599278e-05 0.0004147814 -0.02171477)
(0.0009598307 0.004498831 -0.05247795)
(0.0005576701 0.005502401 -0.04532803)
(4.180227e-05 0.0001062683 -0.001698549)
(4.93509e-05 0.000120023 -0.006068784)
(5.620286e-05 0.0001369276 -0.0102087)
(6.417391e-05 0.0001591022 -0.01921159)
(6.842548e-05 0.0002050605 -0.01810829)
(0.0007759015 0.002198776 -0.04261096)
(0.001039978 0.002739594 -0.03627219)
(0.0005691918 0.00320145 -0.04889276)
(3.58054e-05 3.41012e-05 -0.001524389)
(4.158743e-05 3.857835e-05 -0.005404648)
(4.640762e-05 4.377614e-05 -0.009005391)
(5.181248e-05 4.940422e-05 -0.01674767)
(5.387774e-05 6.329044e-05 -0.01554647)
(0.0006035553 0.0006583905 -0.03585993)
(0.0008253094 0.0007952705 -0.02978468)
(0.00103963 0.0009667963 -0.03984559)
(0.000569818 0.001124458 -0.0489282)
(0.0001081524 5.497229e-06 -0.006492634)
(0.0001728383 3.98747e-05 -0.004835894)
(0.0001024458 2.177279e-05 -0.02045416)
(0.0001113495 0.0001089504 -0.003826837)
(0.0001631822 0.0001199196 -0.01524301)
(8.768769e-05 0.0001096992 -0.02992824)
(8.007584e-05 0.000171767 -0.003142379)
(0.0001078846 0.0001986658 -0.01204709)
(0.0001416226 0.0002299265 -0.02231493)
(7.180552e-05 0.000242532 -0.04803287)
(6.174306e-05 0.000362144 -0.002640229)
(7.896629e-05 0.000422638 -0.009860885)
(9.68844e-05 0.0005027135 -0.01758624)
(0.0001186775 0.0006082637 -0.03583549)
(4.588732e-05 0.0008226931 -0.0375602)
(5.401908e-05 0.0003904119 -0.002247418)
(6.667133e-05 0.0004503796 -0.008235281)
(7.942571e-05 0.0005275902 -0.01430995)
(9.450305e-05 0.0006339204 -0.0281052)
(9.451444e-05 0.0008517983 -0.02807701)
(0.0004555159 0.009208516 -0.07073867)
(4.627915e-05 0.0002606123 -0.00194809)
(5.571139e-05 0.0002969531 -0.007039077)
(6.443525e-05 0.0003427215 -0.01201073)
(7.503216e-05 0.0004044403 -0.02301839)
(7.743736e-05 0.0005343866 -0.02223468)
(0.000870614 0.005807765 -0.05404042)
(0.0005091984 0.007118894 -0.04734101)
(4.047459e-05 0.0001834342 -0.001715155)
(4.773033e-05 0.0002072888 -0.006132552)
(5.416127e-05 0.0002364604 -0.01032536)
(6.150964e-05 0.0002747013 -0.01945367)
(6.43873e-05 0.0003534557 -0.01836501)
(0.0007291002 0.003796291 -0.04331144)
(0.0009864205 0.004748445 -0.03701004)
(0.0005416897 0.005595809 -0.05032288)
(3.519667e-05 9.682374e-05 -0.001531597)
(4.085421e-05 0.0001085926 -0.005431863)
(4.550175e-05 0.0001226865 -0.009054104)
(5.065896e-05 0.0001407869 -0.0168461)
(5.219703e-05 0.0001778742 -0.01564692)
(0.0005837664 0.001874193 -0.03612133)
(0.0007990066 0.002318345 -0.03003707)
(0.001010053 0.002773583 -0.0402585)
(0.0005544583 0.003258148 -0.04964968)
(3.061244e-05 3.12275e-05 -0.00138434)
(3.502964e-05 3.510889e-05 -0.004878018)
(3.843629e-05 3.951615e-05 -0.008067327)
(4.196035e-05 4.413943e-05 -0.0148678)
(4.252575e-05 5.56535e-05 -0.01364329)
(0.0004605807 0.0005702274 -0.03101381)
(0.0006222048 0.0006773544 -0.02526996)
(0.0008026961 0.0008163605 -0.03305255)
(0.001016154 0.0009695167 -0.04044594)
(0.0005974388 0.001257236 -0.04136584)
(0.0001081524 -5.497221e-06 -0.006492634)
(0.0001735933 1.254347e-05 -0.004852379)
(0.0001031216 7.008427e-06 -0.02057353)
(0.0001112278 4.090108e-05 -0.003848392)
(0.0001646674 4.251218e-05 -0.01536294)
(8.882034e-05 3.187063e-05 -0.03032679)
(7.841472e-05 9.817992e-05 -0.00316952)
(0.0001062409 0.0001128269 -0.01217752)
(0.0001416214 0.0001291332 -0.02264278)
(7.200327e-05 0.0001327944 -0.04920574)
(5.980059e-05 0.0001534303 -0.002674685)
(7.663308e-05 0.0001769318 -0.01001243)
(9.428933e-05 0.0002083952 -0.01791727)
(0.0001176292 0.0002485958 -0.03672393)
(4.384296e-05 0.0003396279 -0.03908133)
(4.8252e-05 0.0003212139 -0.002292805)
(5.93066e-05 0.0003703835 -0.008421781)
(6.971187e-05 0.0004337325 -0.01467972)
(8.172747e-05 0.0005213074 -0.02896631)
(7.618572e-05 0.0007033059 -0.02915943)
(0.0003629028 0.007638054 -0.07503117)
(4.351941e-05 0.0003493393 -0.00198234)
(5.229514e-05 0.0003988004 -0.007175033)
(6.003982e-05 0.0004603783 -0.01226958)
(6.916982e-05 0.0005432175 -0.02358377)
(6.841867e-05 0.0007143563 -0.02287796)
(0.0007787097 0.007810452 -0.05601274)
(0.0004601389 0.009749438 -0.04998074)
(3.823868e-05 0.0002357638 -0.001739058)
(4.49943e-05 0.0002663847 -0.006224724)
(5.071412e-05 0.0003038679 -0.01049473)
(5.701185e-05 0.0003531019 -0.01980721)
(5.760743e-05 0.0004550608 -0.01874202)
(0.0006494934 0.004893541 -0.04435339)
(0.0008910201 0.006131892 -0.03814212)
(0.0004911077 0.007248653 -0.05257386)
(3.405956e-05 0.0001669617 -0.001545548)
(3.948557e-05 0.0001873322 -0.005484607)
(4.381042e-05 0.0002115985 -0.009148756)
(4.850334e-05 0.000242731 -0.01703775)
(4.904043e-05 0.0003061041 -0.0158437)
(0.0005463966 0.003228601 -0.0366335)
(0.0007493569 0.004002402 -0.03053502)
(0.0009545039 0.004806427 -0.04108025)
(0.0005256294 0.005694393 -0.05111073)
(3.00865e-05 8.869354e-05 -0.001390489)
(3.440376e-05 9.887012e-05 -0.004900943)
(3.767601e-05 0.0001107992 -0.008107739)
(4.101241e-05 0.0001258253 -0.01494795)
(4.118797e-05 0.000156434 -0.01372309)
(0.0004451836 0.00162343 -0.03121518)
(0.0006012867 0.001974841 -0.02545577)
(0.000775884 0.002342725 -0.03333382)
(0.0009856363 0.002811154 -0.04086962)
(0.000580005 0.003608887 -0.0419705)
(2.64945e-05 2.873069e-05 -0.001264445)
(2.995488e-05 3.213031e-05 -0.004432346)
(3.238357e-05 3.591133e-05 -0.007284412)
(3.475983e-05 3.977198e-05 -0.01332497)
(3.442707e-05 4.949497e-05 -0.01211418)
(0.0003634807 0.0005009204 -0.02722059)
(0.0004747578 0.0005864156 -0.02185042)
(0.000605355 0.0006945942 -0.02803997)
(0.0007843506 0.0008175332 -0.03354314)
(0.001062376 0.00107796 -0.03418519)
(0.004954818 0.01169244 -0.1085407)
(0.0001074045 -1.681246e-05 -0.006454487)
(0.0001735933 -1.254347e-05 -0.004852379)
(0.0001031216 -7.00842e-06 -0.02057353)
(0.0001111702 1.285285e-05 -0.003857474)
(0.0001653236 1.334363e-05 -0.01541486)
(8.932426e-05 1.0073e-05 -0.03050226)
(7.798545e-05 3.79841e-05 -0.003183218)
(0.0001060239 4.263821e-05 -0.0122456)
(0.0001425903 4.711421e-05 -0.02281996)
(7.26826e-05 4.360759e-05 -0.0498573)
(5.834312e-05 8.799694e-05 -0.002693649)
(7.486328e-05 0.0001010527 -0.01009817)
(9.228582e-05 0.000118281 -0.01811036)
(0.0001165586 0.000139904 -0.03726024)
(4.231429e-05 0.0001897798 -0.04003605)
(4.658205e-05 0.0001377013 -0.002318583)
(5.725184e-05 0.0001574991 -0.008530798)
(6.706921e-05 0.0001835033 -0.01490432)
(7.846233e-05 0.0002198035 -0.02950848)
(7.143389e-05 0.0003018814 -0.02988333)
(0.0003397182 0.003211412 -0.0780529)
(3.878391e-05 0.0002874725 -0.00201857)
(4.636769e-05 0.000328068 -0.007319879)
(5.238984e-05 0.0003785889 -0.01254637)
(5.892948e-05 0.0004467688 -0.02419447)
(5.293161e-05 0.0005887349 -0.02357465)
(0.0006051088 0.006454967 -0.05823483)
(0.0003606172 0.00809236 -0.05334435)
(3.589963e-05 0.0003150864 -0.001767052)
(4.214115e-05 0.0003565051 -0.006333563)
(4.71185e-05 0.0004065914 -0.01069652)
(5.230978e-05 0.000472143 -0.02023278)
(5.040133e-05 0.0006053541 -0.01920164)
(0.0005649727 0.006527166 -0.04564125)
(0.0007921694 0.008243805 -0.03955855)
(0.0004391726 0.009918871 -0.05552247)
(3.21526e-05 0.0002146107 -0.001565568)
(3.718602e-05 0.0002407707 -0.005560578)
(4.097003e-05 0.0002719487 -0.0092856)
(4.488693e-05 0.000312014 -0.01731623)
(4.377975e-05 0.0003938839 -0.01613083)
(0.0004838183 0.004158042 -0.03738953)
(0.0006649853 0.005160193 -0.031294)
(0.0008559052 0.006209948 -0.04234894)
(0.0004728742 0.00738443 -0.05344141)
(2.910278e-05 0.0001528077 -0.001402369)
(3.323371e-05 0.0001703929 -0.004945286)
(3.625428e-05 0.0001908928 -0.008186073)
(3.923819e-05 0.0002166822 -0.0151035)
(3.867366e-05 0.0002688746 -0.01387889)
(0.0004160882 0.00279223 -0.03160779)
(0.0005617545 0.003401739 -0.02582009)
(0.0007252139 0.004043829 -0.03388857)
(0.0009281513 0.004871008 -0.04171016)
(0.0005468998 0.006307063 -0.04320644)
(2.603579e-05 8.162314e-05 -0.00126975)
(2.941484e-05 9.051366e-05 -0.004451916)
(3.173677e-05 0.0001007278 -0.007318474)
(3.396784e-05 0.0001134025 -0.01339149)
(3.333918e-05 0.0001391364 -0.01217916)
(0.0003512534 0.00142622 -0.02738068)
(0.0004585005 0.001709843 -0.02199362)
(0.0005841199 0.001993519 -0.0282471)
(0.0007570195 0.002370553 -0.03383219)
(0.0010281 0.003096351 -0.03453856)
(0.004791039 0.03373002 -0.110317)
(2.318438e-05 2.654365e-05 -0.001160726)
(2.593095e-05 2.954574e-05 -0.004050579)
(2.770286e-05 3.282562e-05 -0.006621541)
(2.929533e-05 3.608989e-05 -0.0120368)
(2.853317e-05 4.443139e-05 -0.01085906)
(0.0002942318 0.0004451357 -0.02417295)
(0.0003746503 0.0005149789 -0.01917464)
(0.000461811 0.0006009162 -0.02424403)
(0.0005917096 0.0006950016 -0.02845142)
(0.0008197017 0.0009068955 -0.02834481)
(0.008797784 0.009926821 -0.08965408)
(0.005100164 0.01162968 -0.01111196)
(0.0001057209 -7.953266e-05 -0.006367934)
(0.0001728383 -3.98747e-05 -0.004835894)
(0.0001024458 -2.17728e-05 -0.02045416)
(0.0001111702 -1.285285e-05 -0.003857474)
(0.0001653236 -1.334363e-05 -0.01541486)
(8.932426e-05 -1.007299e-05 -0.03050226)
(7.778804e-05 1.193334e-05 -0.003188835)
(0.0001059242 1.337647e-05 -0.01227431)
(0.0001430185 1.472847e-05 -0.02289668)
(7.298611e-05 1.363447e-05 -0.05014412)
(5.789845e-05 3.46387e-05 -0.002702912)
(7.438057e-05 3.924093e-05 -0.01014151)
(9.186874e-05 4.529523e-05 -0.01821122)
(0.0001169293 5.249123e-05 -0.03755012)
(4.20539e-05 7.13328e-05 -0.04056631)
(4.534445e-05 7.914431e-05 -0.002332385)
(5.572336e-05 9.023869e-05 -0.008590742)
(6.511009e-05 0.0001046402 -0.01503143)
(7.60398e-05 0.0001246791 -0.02982436)
(6.798263e-05 0.0001704435 -0.03032013)
(0.0003229 0.001799298 -0.07994673)
(3.735469e-05 0.0001242936 -0.002038449)
(4.461886e-05 0.0001410169 -0.007401489)
(5.014497e-05 0.0001622017 -0.01270809)
(5.592556e-05 0.0001912279 -0.02456235)
(4.804196e-05 0.0002558292 -0.02401668)
(0.0005559513 0.002795132 -0.05966246)
(0.000334603 0.003416525 -0.05539097)
(3.194828e-05 0.0002592954 -0.001796634)
(3.728391e-05 0.0002933012 -0.006449329)
(4.099744e-05 0.000334371 -0.01091163)
(4.432598e-05 0.0003882478 -0.02069038)
(3.848152e-05 0.0004982378 -0.0196952)
(0.0004217708 0.00538177 -0.04708075)
(0.0006069955 0.006814216 -0.04139128)
(0.0003359335 0.008242158 -0.05940264)
(3.014817e-05 0.0002861003 -0.001588855)
(3.477422e-05 0.0003213081 -0.005649609)
(3.79886e-05 0.0003627462 -0.009447239)
(4.108133e-05 0.0004157721 -0.01764814)
(3.816816e-05 0.0005221896 -0.01647679)
(0.0004170028 0.005520474 -0.03831009)
(0.0005752183 0.006881563 -0.03222289)
(0.0007527965 0.008345085 -0.04393457)
(0.0004180314 0.01010057 -0.05647773)
(2.745881e-05 0.0001964227 -0.001419375)
(3.127561e-05 0.0002190098 -0.005008964)
(3.38768e-05 0.0002453426 -0.008298929)
(3.627544e-05 0.0002785123 -0.01532862)
(3.450299e-05 0.0003458203 -0.01410507)
(0.0003677069 0.003593652 -0.032184)
(0.0004955978 0.004381577 -0.02637323)
(0.0006392399 0.005215255 -0.03474055)
(0.0008264097 0.00629638 -0.04303276)
(0.0004867061 0.008191601 -0.04516592)
(2.517699e-05 0.0001405185 -0.001279987)
(2.840412e-05 0.0001558593 -0.004489706)
(3.052583e-05 0.0001733836 -0.007384364)
(3.248385e-05 0.0001950982 -0.01352029)
(3.129353e-05 0.0002389048 -0.01230564)
(0.0003281377 0.002450075 -0.02769158)
(0.0004277598 0.002940673 -0.02227308)
(0.0005439589 0.003433412 -0.0286531)
(0.0007053019 0.004091522 -0.03440018)
(0.0009629869 0.005364748 -0.0352487)
(0.004459485 0.0589065 -0.1137429)
(2.27811e-05 7.542558e-05 -0.001165348)
(2.546048e-05 8.325587e-05 -0.004067474)
(2.714632e-05 9.209877e-05 -0.006650632)
(2.862401e-05 0.0001029218 -0.0120929)
(2.76317e-05 0.0001249103 -0.01091299)
(0.0002843058 0.001267444 -0.02430337)
(0.0003617494 0.001501621 -0.01928855)
(0.0004453376 0.001724751 -0.02440373)
(0.0005701412 0.002015334 -0.02866456)
(0.000789481 0.002605129 -0.02858504)
(0.008480211 0.02862869 -0.09073486)
(0.004937955 0.0339089 -0.01157962)
(2.047698e-05 2.461293e-05 -0.001070179)
(2.269694e-05 2.72843e-05 -0.003720126)
(2.39923e-05 3.015468e-05 -0.006053465)
(2.507372e-05 3.29475e-05 -0.01094573)
(2.40675e-05 4.019322e-05 -0.009810968)
(0.0002438893 0.0003993373 -0.02167128)
(0.0003032648 0.0004575135 -0.01702535)
(0.0003644036 0.0005274297 -0.02127414)
(0.0004513219 0.0006009009 -0.02459665)
(0.0006186825 0.0007700251 -0.02403832)
(0.006782534 0.008317214 -0.07430678)
(0.009082379 0.009899657 -0.009134502)
(0.004925808 0.01194932 -0.03198194)
(0.0001037255 -0.0001525941 -0.006212422)
(0.0001711299 -0.0001142141 -0.004797812)
(0.0001009248 -8.98455e-05 -0.02018313)
(0.0001112278 -4.090108e-05 -0.003848392)
(0.0001646674 -4.251218e-05 -0.01536294)
(8.882034e-05 -3.187064e-05 -0.03032679)
(7.778804e-05 -1.193334e-05 -0.003188835)
(0.0001059242 -1.337647e-05 -0.01227431)
(0.0001430185 -1.472847e-05 -0.02289668)
(7.298611e-05 -1.363446e-05 -0.05014412)
(5.769405e-05 1.088028e-05 -0.002706602)
(7.41597e-05 1.231018e-05 -0.01015929)
(9.168063e-05 1.41641e-05 -0.01825377)
(0.0001170935 1.634688e-05 -0.03767568)
(4.194239e-05 2.206823e-05 -0.04079973)
(4.493748e-05 3.151199e-05 -0.0023389)
(5.524473e-05 3.559981e-05 -0.008620071)
(6.452391e-05 4.094491e-05 -0.01509573)
(7.538986e-05 4.841094e-05 -0.02998942)
(6.707261e-05 6.684724e-05 -0.03055625)
(0.0003188506 0.0006877636 -0.08099869)
(3.630412e-05 7.153757e-05 -0.002048805)
(4.33316e-05 8.095694e-05 -0.007445129)
(4.850227e-05 9.273894e-05 -0.01279704)
(5.37453e-05 0.0001088605 -0.02477027)
(4.458511e-05 0.0001449401 -0.02427417)
(0.0005208171 0.001578916 -0.06052126)
(0.0003158727 0.001915601 -0.05666638)
(3.072002e-05 0.0001128398 -0.001812334)
(3.579669e-05 0.0001270648 -0.006512296)
(3.912295e-05 0.0001445153 -0.01103278)
(4.185879e-05 0.0001677416 -0.02095525)
(3.453843e-05 0.0002177869 -0.01999533)
(0.0003751291 0.002352378 -0.04794802)
(0.0005533464 0.00295468 -0.0423251)
(0.0003073828 0.00350231 -0.06164194)
(2.680393e-05 0.0002354297 -0.001613458)
(3.072751e-05 0.0002643377 -0.005744245)
(3.299368e-05 0.0002982854 -0.009619262)
(3.47334e-05 0.0003418028 -0.01800412)
(2.904239e-05 0.0004293379 -0.01684627)
(0.0003075144 0.004544551 -0.0393357)
(0.0004236093 0.005674014 -0.03345397)
(0.0005621303 0.006899607 -0.04608255)
(0.0003108616 0.008400607 -0.0608048)
(2.572452e-05 0.0002612987 -0.001439033)
(2.921307e-05 0.0002915725 -0.005083083)
(3.137e-05 0.0003264181 -0.008431224)
(3.314367e-05 0.0003701105 -0.01559463)
(3.004438e-05 0.0004572752 -0.0143749)
(0.0003159208 0.004755749 -0.03287727)
(0.0004248683 0.00581658 -0.02703968)
(0.000547457 0.006953312 -0.03578222)
(0.0007191929 0.008460558 -0.04467515)
(0.0004231474 0.0112033 -0.04773118)
(2.374607e-05 0.0001806237 -0.001294605)
(2.671824e-05 0.0002003292 -0.004543833)
(2.850795e-05 0.0002228316 -0.007479007)
(3.001491e-05 0.0002507429 -0.01370604)
(2.791213e-05 0.000307151 -0.01248848)
(0.000289871 0.003151585 -0.0281458)
(0.0003766702 0.003785035 -0.02269641)
(0.0004768201 0.004423328 -0.02927491)
(0.0006176596 0.005278374 -0.03529288)
(0.0008481713 0.006939527 -0.03635634)
(0.003865225 0.0767248 -0.1200151)
(2.20255e-05 0.0001297616 -0.001174256)
(2.457919e-05 0.0001432558 -0.004100055)
(2.610343e-05 0.0001584062 -0.006706813)
(2.736508e-05 0.0001769199 -0.01220129)
(2.593604e-05 0.0002143 -0.01101773)
(0.0002655352 0.002175197 -0.02455581)
(0.0003373464 0.002579466 -0.01951)
(0.0004141711 0.002965927 -0.02471526)
(0.0005293123 0.003470746 -0.02908059)
(0.000731967 0.004496175 -0.0290645)
(0.007845461 0.04956623 -0.09274459)
(0.004609138 0.0596894 -0.01252633)
(2.011993e-05 6.995138e-05 -0.00107424)
(2.228371e-05 7.690088e-05 -0.003734855)
(2.350858e-05 8.462397e-05 -0.006078591)
(2.449781e-05 9.397282e-05 -0.01099367)
(2.330848e-05 0.0001130004 -0.009856443)
(0.0002356757 0.00113707 -0.0217796)
(0.0002927978 0.001334088 -0.01711819)
(0.0003513468 0.001513869 -0.02140122)
(0.0004346168 0.001742498 -0.02476119)
(0.0005949468 0.002211925 -0.02421494)
(0.00650968 0.02398083 -0.07506318)
(0.008766505 0.02885429 -0.009475342)
(0.0047556 0.03459979 -0.03288897)
(1.823791e-05 2.289822e-05 -0.0009905077)
(2.005192e-05 2.528975e-05 -0.003431479)
(2.101152e-05 2.782248e-05 -0.005561538)
(2.172836e-05 3.023437e-05 -0.01001033)
(2.062785e-05 3.659769e-05 -0.008923112)
(0.0002057614 0.0003610506 -0.01958215)
(0.0002513879 0.0004103582 -0.01526147)
(0.0002949566 0.0004683753 -0.01888885)
(0.0003561015 0.0005271678 -0.02158139)
(0.0004717751 0.0006652013 -0.02077892)
(0.005125321 0.007045463 -0.06299827)
(0.007003918 0.0083036 -0.007546429)
(0.008750403 0.01012567 -0.02636693)
(0.004880792 0.01202378 -0.01179977)
(0.0001003152 -0.0005261691 -0.005965784)
(0.0001697905 -0.0002039937 -0.0047273)
(9.922972e-05 -0.0001701662 -0.01969581)
(0.0001113495 -0.0001089504 -0.003826837)
(0.0001631822 -0.0001199195 -0.01524301)
(8.768769e-05 -0.0001096992 -0.02992824)
(7.798545e-05 -3.79841e-05 -0.003183218)
(0.0001060239 -4.263821e-05 -0.0122456)
(0.0001425903 -4.711421e-05 -0.02281996)
(7.26826e-05 -4.360759e-05 -0.0498573)
(5.769405e-05 -1.088028e-05 -0.002706602)
(7.41597e-05 -1.231018e-05 -0.01015929)
(9.168063e-05 -1.41641e-05 -0.01825377)
(0.0001170935 -1.634687e-05 -0.03767568)
(4.194239e-05 -2.206823e-05 -0.04079973)
(4.475044e-05 9.896229e-06 -0.002341412)
(5.502553e-05 1.116716e-05 -0.00863176)
(6.425782e-05 1.280715e-05 -0.01512214)
(7.509884e-05 1.508819e-05 -0.03005908)
(6.667156e-05 2.06971e-05 -0.03065855)
(0.0003170947 0.0002125048 -0.08146182)
(3.594285e-05 2.871302e-05 -0.002053518)
(4.290144e-05 3.227563e-05 -0.007465764)
(4.796221e-05 3.675571e-05 -0.01284061)
(5.303833e-05 4.294901e-05 -0.02487549)
(4.339621e-05 5.76462e-05 -0.02440877)
(0.0005103757 0.0006236282 -0.0609853)
(0.000311016 0.0007356398 -0.05737547)
(2.982253e-05 6.500689e-05 -0.001820289)
(3.470973e-05 7.304286e-05 -0.00654504)
(3.776145e-05 8.276743e-05 -0.01109759)
(4.008239e-05 9.56881e-05 -0.02110073)
(3.176629e-05 0.0001235834 -0.02016496)
(0.0003423668 0.001332449 -0.0484508)
(0.0005151616 0.001669139 -0.04287785)
(0.0002870163 0.00196587 -0.06303083)
(2.574102e-05 0.0001029714 -0.0016261)
(2.945509e-05 0.0001152021 -0.005793991)
(3.141932e-05 0.0001297458 -0.009712794)
(3.271174e-05 0.0001486457 -0.01820254)
(2.596566e-05 0.0001883536 -0.01706251)
(0.0002705685 0.001995231 -0.03992202)
(0.0003738584 0.002481299 -0.03400432)
(0.0005049188 0.002997732 -0.04708962)
(0.0002798347 0.00358657 -0.06298496)
(2.286021e-05 0.0002149997 -0.001459811)
(2.579227e-05 0.0002398516 -0.005161876)
(2.72218e-05 0.0002683706 -0.008571917)
(2.798724e-05 0.0003041714 -0.01587956)
(2.287263e-05 0.0003756438 -0.01466207)
(0.0002323536 0.003910299 -0.03364919)
(0.0003091972 0.004787965 -0.02794294)
(0.0003932187 0.005733106 -0.03724057)
(0.0005229619 0.006995998 -0.04715976)
(0.0003016053 0.009327976 -0.05131481)
(2.223227e-05 0.0002398441 -0.001311408)
(2.493659e-05 0.0002661633 -0.004606447)
(2.637309e-05 0.0002958319 -0.0075892)
(2.739667e-05 0.0003324557 -0.01392386)
(2.429185e-05 0.0004052963 -0.01270474)
(0.0002488497 0.004160432 -0.02868683)
(0.0003219311 0.005008693 -0.02320011)
(0.0004048852 0.005871241 -0.03002342)
(0.0005238218 0.007038073 -0.03637664)
(0.0007259454 0.009327529 -0.03774068)
(0.003218081 0.1043835 -0.1277592)
(2.076983e-05 0.0001667919 -0.001186951)
(2.311336e-05 0.0001841235 -0.004146614)
(2.437068e-05 0.0002035698 -0.006787297)
(2.527696e-05 0.0002273512 -0.01235714)
(2.314102e-05 0.0002754208 -0.0111686)
(0.0002345649 0.002796715 -0.02492326)
(0.0002969677 0.00331823 -0.01984503)
(0.0003624188 0.003818125 -0.02519178)
(0.0004611141 0.004472399 -0.02973485)
(0.0006346596 0.005803174 -0.02981009)
(0.006736164 0.06419518 -0.09655159)
(0.00400961 0.0779042 -0.01724525)
(1.945055e-05 0.0001202725 -0.001082059)
(2.150912e-05 0.0001322351 -0.003763226)
(2.260151e-05 0.0001454503 -0.00612705)
(2.341712e-05 0.000161421 -0.01108612)
(2.188044e-05 0.0001937313 -0.0099446)
(0.0002201403 0.001949877 -0.0219887)
(0.000272994 0.002289468 -0.01729812)
(0.0003266384 0.002600204 -0.02164816)
(0.0004029881 0.002996278 -0.02508068)
(0.0005497864 0.0038092 -0.02456591)
(0.005967724 0.04136163 -0.07644072)
(0.008134172 0.05033645 -0.01017074)
(0.004410885 0.06171707 -0.03463767)
(1.791977e-05 6.508704e-05 -0.0009941009)
(1.968636e-05 7.129271e-05 -0.003444428)
(2.058748e-05 7.809337e-05 -0.005583451)
(2.122907e-05 8.624303e-05 -0.01005176)
(1.998033e-05 0.0001028949 -0.008961969)
(0.0001988539 0.001028065 -0.01967355)
(0.0002427305 0.001196594 -0.01533862)
(0.0002843729 0.001344376 -0.01899247)
(0.0003428751 0.00152869 -0.02171248)
(0.000453431 0.001910759 -0.02091491)
(0.004912776 0.02031054 -0.06356771)
(0.006730543 0.02419534 -0.007812564)
(0.008422172 0.02930869 -0.02699434)
(0.004707575 0.03492941 -0.01236625)
(1.636231e-05 2.136498e-05 -0.0009199126)
(1.786469e-05 2.351971e-05 -0.003177366)
(1.857408e-05 2.576916e-05 -0.005131673)
(1.904278e-05 2.78704e-05 -0.009200023)
(1.790533e-05 3.350895e-05 -0.008161829)
(0.0001764162 0.0003286021 -0.01781228)
(0.0002121034 0.0003709521 -0.01378872)
(0.0002445204 0.0004199533 -0.01693146)
(0.0002882256 0.0004679673 -0.01916009)
(0.000372202 0.0005831993 -0.01822993)
(0.003906253 0.006076328 -0.054444)
(0.005291237 0.007037888 -0.006381619)
(0.006746316 0.008477333 -0.02182855)
(0.00867556 0.01017808 -0.009710408)
(0.004780558 0.0120056 -0.006041813)
(0.0001024108 -0.0006638778 -0.005626606)
(0.0001670738 -0.0005358997 -0.004610732)
(9.627942e-05 -0.000555743 -0.0189217)
(0.0001128068 -0.0001917803 -0.003785499)
(0.0001622615 -0.000213956 -0.01502106)
(8.668303e-05 -0.0002036073 -0.02921119)
(7.841472e-05 -9.817992e-05 -0.00316952)
(0.0001062409 -0.0001128269 -0.01217752)
(0.0001416214 -0.0001291332 -0.02264278)
(7.200327e-05 -0.0001327944 -0.04920574)
(5.789845e-05 -3.46387e-05 -0.002702912)
(7.438057e-05 -3.924093e-05 -0.01014151)
(9.186874e-05 -4.529523e-05 -0.01821122)
(0.0001169293 -5.249123e-05 -0.03755012)
(4.20539e-05 -7.13328e-05 -0.04056631)
(4.475044e-05 -9.896229e-06 -0.002341412)
(5.502553e-05 -1.116716e-05 -0.00863176)
(6.425782e-05 -1.280715e-05 -0.01512214)
(7.509884e-05 -1.508819e-05 -0.03005908)
(6.667156e-05 -2.06971e-05 -0.03065855)
(0.0003170947 -0.0002125048 -0.08146182)
(3.577684e-05 9.015405e-06 -0.002055268)
(4.270436e-05 1.012329e-05 -0.007473723)
(4.771649e-05 1.149816e-05 -0.012858)
(5.271945e-05 1.339213e-05 -0.02491872)
(4.286672e-05 1.786541e-05 -0.0244656)
(0.0005057732 0.0001929089 -0.06118629)
(0.0003089047 0.0002272179 -0.05768734)
(2.950453e-05 2.624722e-05 -0.001823769)
(3.433184e-05 2.933756e-05 -0.006559966)
(3.729201e-05 3.308836e-05 -0.01112827)
(3.947047e-05 3.811909e-05 -0.021172)
(3.076083e-05 4.949079e-05 -0.02025086)
(0.0003307668 0.000532156 -0.04871321)
(0.000503469 0.0006604909 -0.04317569)
(0.0002812541 0.0007605179 -0.06380439)
(2.496789e-05 5.935951e-05 -0.001632329)
(2.852997e-05 6.628323e-05 -0.00581914)
(3.028171e-05 7.43922e-05 -0.009761449)
(3.126319e-05 8.490869e-05 -0.01830849)
(2.380802e-05 0.0001069776 -0.01718131)
(0.0002447216 0.001131556 -0.0402512)
(0.0003389766 0.001405243 -0.03431433)
(0.0004644573 0.001693537 -0.04767909)
(0.0002578718 0.002014911 -0.06432352)
(2.193402e-05 9.441544e-05 -0.001470155)
(2.469477e-05 0.0001050171 -0.005201945)
(2.588666e-05 0.0001173054 -0.008645851)
(2.631067e-05 0.0001329179 -0.01603274)
(2.042764e-05 0.0001652191 -0.01482418)
(0.0002037464 0.001721373 -0.03406992)
(0.0002699999 0.002102153 -0.02830458)
(0.0003420058 0.002508638 -0.03782649)