/*--------------------------------*- C++ -*----------------------------------*\
| =========                 |                                                 |
| \\      /  F ield         | OpenFOAM: The Open Source CFD Toolbox           |
|  \\    /   O peration     | Version:  2306                                  |
|   \\  /    A nd           | Website:  www.openfoam.com                      |
|    \\/     M anipulation  |                                                 |
\*---------------------------------------------------------------------------*/
FoamFile
{
    version     2.0;
    format      ascii;
    arch        "LSB;label=32;scalar=64";
    class       volScalarField;
    location    "0.6/fuel";
    object      X.H2;
}
// * * * * * * * * * * * * * * * * * * * * * * * * * * * * * * * * * * * * * //

dimensions      [0 0 0 0 0 0 0];

internalField   nonuniform List<scalar> 
16000
(
0.9276849
0.9290341
0.9066292
0.9277623
0.9317223
0.9076817
0.9291121
0.8831399
0.9066997
0.9279136
0.9356708
0.9097774
0.9318017
0.8840796
0.9077526
0.9292646
0.8603895
0.8832043
0.9068376
0.9281363
0.9405957
0.912854
0.9357524
0.8859512
0.9098491
0.9319567
0.8612608
0.8841444
0.9078913
0.929489
0.8387599
0.8604491
0.8833307
0.9070409
0.928429
0.9456766
0.9166943
0.940681
0.8887018
0.9129271
0.9359118
0.8629957
0.8860166
0.9099894
0.9321848
0.8395771
0.8613206
0.8842713
0.9080958
0.9297839
0.8182302
0.8388155
0.8605659
0.883517
0.9073083
0.9287185
0.9494019
0.9206718
0.9457671
0.8921401
0.9167697
0.9408477
0.8655453
0.8887682
0.9130702
0.9361464
0.8412034
0.8630561
0.8861447
0.9101962
0.9324846
0.8190005
0.8396328
0.861438
0.8844584
0.9083645
0.9300756
0.7987196
0.8182822
0.8389244
0.8607384
0.8837621
0.9075729
0.9289579
0.9517341
0.9236274
0.9494944
0.8957074
0.9207504
0.9459437
0.8687323
0.8922084
0.9169173
0.941093
0.843593
0.8656065
0.8888985
0.913281
0.9364546
0.8205334
0.8412596
0.8631745
0.8863337
0.910468
0.9327811
0.7994484
0.8190527
0.8397422
0.8616112
0.8847047
0.9086305
0.9303169
0.7801474
0.7987685
0.8183844
0.8390854
0.8609656
0.8840049
0.9077917
0.9291955
0.9530493
0.9255104
0.9518273
0.8983634
0.923707
0.9496751
0.8720393
0.8957782
0.9209043
0.9462038
0.8465793
0.8687951
0.8923422
0.9171348
0.9414151
0.8227851
0.8436499
0.8657267
0.8890906
0.9135581
0.9367594
0.8008984
0.820586
0.8413699
0.8633492
0.8865823
0.910737
0.9330264
0.7808388
0.7994975
0.8191553
0.8399038
0.8618392
0.8849485
0.9088506
0.9305563
0.7624405
0.7801936
0.7988648
0.8185355
0.8392975
0.8611906
0.8842057
0.9080089
0.9294313
0.9536384
0.9265906
0.9531427
0.9000597
0.92559
0.9520092
0.8745027
0.8984348
0.9238628
0.949941
0.8496778
0.8721044
0.8959171
0.921131
0.9465454
0.8255985
0.8466377
0.8689183
0.8925395
0.9174206
0.9417338
0.8030279
0.8228384
0.8437617
0.865904
0.8893432
0.9138323
0.9370121
0.7822141
0.8009479
0.8206893
0.8415328
0.8635791
0.8868284
0.9109596
0.93327
0.7630979
0.7808852
0.7995941
0.8193069
0.8401166
0.8620651
0.8851502
0.9090689
0.9307939
0.7455344
0.7624843
0.7802846
0.7990072
0.8187345
0.8395076
0.8613766
0.8844049
0.9082243
0.9296652
0.9536384
0.9270806
0.9537319
0.9010354
0.9266702
0.953325
0.8760775
0.9001311
0.9257458
0.9522768
0.8519863
0.8745682
0.8985749
0.9240923
0.9502903
0.8285172
0.8497381
0.8722319
0.8961219
0.9214291
0.9468836
0.8056883
0.8256531
0.8467522
0.8691001
0.8927992
0.9177036
0.9419993
0.7842337
0.803078
0.8229431
0.8439269
0.8661374
0.8895934
0.9140595
0.9372634
0.7644054
0.7822608
0.8010451
0.8208421
0.8417473
0.863807
0.8870321
0.9111806
0.9335118
0.7461606
0.7631419
0.7809765
0.799737
0.8195066
0.8403275
0.862252
0.8853503
0.9092855
0.9310296
0.729372
0.745576
0.7625705
0.7804192
0.7991949
0.8189319
0.8396814
0.8615613
0.8846025
0.9084381
0.9307889
0.9530493
0.9270806
0.9537319
0.9014788
0.9271601
0.9539143
0.8769842
0.9011066
0.9268258
0.9535931
0.8534628
0.8761428
0.9002709
0.9259754
0.9526282
0.830692
0.852047
0.8746967
0.8987816
0.924394
0.950636
0.8084478
0.8285736
0.8498565
0.8724203
0.8963915
0.9217243
0.9471678
0.7867564
0.8057395
0.8257602
0.8469213
0.8693395
0.8930563
0.917939
0.9422648
0.766325
0.784281
0.8031765
0.8230978
0.8441444
0.8663686
0.8898007
0.9142854
0.9375133
0.7474058
0.7644496
0.7823527
0.801189
0.8210433
0.8419599
0.8639955
0.8872343
0.9114
0.9337519
0.7299695
0.7462023
0.7632283
0.7811115
0.7999253
0.8197047
0.840502
0.8624373
0.8855489
0.9095005
0.9321621
0.7139029
0.7294116
0.7456578
0.7626981
0.7805967
0.799381
0.8190951
0.8398539
0.8617444
0.8847986
0.909466
0.9315544
0.9517341
0.9265906
0.9531427
0.9014788
0.9271601
0.9539143
0.8773966
0.9015499
0.9273155
0.9541826
0.8543136
0.8770493
0.901246
0.927055
0.9539452
0.8320834
0.8535233
0.8762709
0.9004772
0.9262772
0.952976
0.8105041
0.8307486
0.8521661
0.8748864
0.8990536
0.9246927
0.9509266
0.7893728
0.8085007
0.8286843
0.8500315
0.8726683
0.8966586
0.9219719
0.9474546
0.7687226
0.7868047
0.8058403
0.8259186
0.8471441
0.8695767
0.8932702
0.9181741
0.9425301
0.749234
0.7663698
0.784374
0.8033222
0.8233017
0.8443599
0.8665602
0.8900068
0.91451
0.9377618
0.7311574
0.7474478
0.7645366
0.7824887
0.8013786
0.8212428
0.8421357
0.8641826
0.887435
0.9116177
0.9349054
0.7144737
0.7300092
0.7462844
0.7633563
0.7812896
0.800112
0.8198685
0.840675
0.8626213
0.8857459
0.910534
0.9329369
0.6990818
0.7139406
0.7294895
0.7457791
0.7628665
0.7807728
0.7995349
0.819257
0.8400249
0.8619262
0.8857421
0.9101651
0.9321305
0.9494019
0.9255104
0.9518273
0.9010354
0.9266702
0.953325
0.8773966
0.9015499
0.9273155
0.9541826
0.8547007
0.8774616
0.9016891
0.9275445
0.9545349
0.8328854
0.8543738
0.8771769
0.9014517
0.9273563
0.9542935
0.81182
0.8321398
0.853642
0.87646
0.9007486
0.926576
0.9532677
0.7913224
0.8105572
0.8308599
0.8523421
0.8751361
0.8993229
0.9249433
0.9512198
0.771209
0.7894227
0.8086047
0.828848
0.8502621
0.8729141
0.8968825
0.922221
0.9477438
0.7515171
0.7687683
0.7868998
0.8059892
0.8261273
0.8473649
0.869774
0.8934838
0.9184088
0.9427953
0.7329013
0.7492765
0.7664579
0.7845116
0.8035142
0.8235039
0.8445385
0.8667506
0.8902117
0.9147332
0.9389578
0.7156085
0.7311973
0.7475305
0.7646655
0.782668
0.8015667
0.8214079
0.8423103
0.8643683
0.8876342
0.9126648
0.9357075
0.6996279
0.7145115
0.7300873
0.7464061
0.7635252
0.7814662
0.8002664
0.820031
0.8408468
0.8628038
0.8866938
0.9112393
0.9335227
0.6848682
0.6991178
0.7140148
0.7296049
0.7459391
0.7630335
0.7809184
0.7996876
0.8194177
0.8401947
0.862801
0.8863831
0.9106909
0.9325158
0.9456766
0.9236274
0.9494944
0.9000597
0.92559
0.9520092
0.8769842
0.9011066
0.9268258
0.9535931
0.8547007
0.8774616
0.9016891
0.9275445
0.9545349
0.8332505
0.8547608
0.877589
0.9018945
0.9278455
0.9548834
0.8125787
0.8329416
0.854492
0.8773653
0.9017223
0.9276545
0.9545853
0.7925703
0.8118729
0.8322507
0.8538174
0.8767089
0.9010173
0.9268261
0.9535615
0.7730618
0.7913725
0.8106617
0.8310245
0.8525741
0.8753836
0.8995488
0.9251955
0.9515155
0.7538845
0.7712562
0.7895208
0.8087586
0.8290638
0.8504906
0.8731202
0.8971078
0.9224717
0.9480356
0.7350788
0.7515604
0.7688583
0.7870404
0.8061857
0.8263342
0.8475486
0.869971
0.8936971
0.9186431
0.9440775
0.7172743
0.7329416
0.7493601
0.7665882
0.7846931
0.8037047
0.8236714
0.8447161
0.8669399
0.8904153
0.9158081
0.939835
0.7007133
0.7156465
0.7312759
0.7476528
0.7648354
0.7828458
0.8017222
0.8215717
0.8424837
0.8645527
0.8885928
0.9133889
0.9363252
0.6853912
0.6996639
0.714586
0.7302031
0.7465665
0.7636928
0.7816123
0.8004197
0.8201922
0.8410172
0.8636823
0.88734
0.9117718
0.9339162
0.6712254
0.6849026
0.6991887
0.7141249
0.7297573
0.7460979
0.7631717
0.7810629
0.7998391
0.8195771
0.841012
0.863395
0.8868652
0.9110422
0.9327087
0.9405957
0.9206718
0.9457671
0.8983634
0.923707
0.9496751
0.8760775
0.9001311
0.9257458
0.9522768
0.8543136
0.8770493
0.901246
0.927055
0.9539452
0.8332505
0.8547608
0.877589
0.9018945
0.9278455
0.9548834
0.8129241
0.8333065
0.8548788
0.877777
0.9021646
0.9281435
0.9551751
0.7932899
0.8126314
0.833052
0.8546667
0.8776134
0.9019902
0.927904
0.9548787
0.7742478
0.7926201
0.8119769
0.8324145
0.8540484
0.8769556
0.9012424
0.9270775
0.9538573
0.7556486
0.7731092
0.7914711
0.8108164
0.8312414
0.852804
0.8755912
0.8997762
0.9254494
0.9518139
0.7373368
0.7539292
0.7713491
0.789666
0.8089616
0.8292777
0.8506823
0.8733276
0.8973346
0.922724
0.9494583
0.7193542
0.7351201
0.7516458
0.7689915
0.787226
0.8063804
0.8265063
0.8477321
0.8701677
0.8939099
0.9197761
0.9451587
0.7023065
0.7173127
0.7330211
0.7494839
0.7667602
0.7848731
0.8038624
0.8238379
0.8448926
0.8671281
0.8913967
0.916585
0.9405534
0.6864305
0.7007496
0.7157215
0.7313924
0.7478143
0.7650041
0.7829929
0.8018767
0.8217344
0.8426557
0.8654404
0.8892548
0.9139437
0.9367475
0.6717266
0.6854256
0.699735
0.7146963
0.7303559
0.7467258
0.7638313
0.7817573
0.8005717
0.8203522
0.8418378
0.8642808
0.8878276
0.9121289
0.9341139
0.6581198
0.6712582
0.6849704
0.6992938
0.7142702
0.7299086
0.7462293
0.7633087
0.7812063
0.7999894
0.8203449
0.8415667
0.8638416
0.8871872
0.9112181
0.9356708
0.9166943
0.940681
0.8957074
0.9207504
0.9459437
0.8745027
0.8984348
0.9238628
0.949941
0.8534628
0.8761428
0.9002709
0.9259754
0.9526282
0.8328854
0.8543738
0.8771769
0.9014517
0.9273563
0.9542935
0.8129241
0.8333065
0.8548788
0.877777
0.9021646
0.9281435
0.9551751
0.7936176
0.8129767
0.8334167
0.855053
0.8780246
0.9024321
0.9283925
0.9554682
0.7749319
0.7933395
0.8127349
0.8332151
0.8548967
0.8778591
0.9022143
0.9281542
0.9551736
0.756778
0.7742949
0.7927182
0.8121308
0.8326305
0.8542774
0.8771622
0.9014685
0.9273301
0.9541551
0.7390192
0.7556935
0.7732024
0.7916169
0.8110203
0.8314565
0.8529968
0.8758002
0.9000051
0.9257049
0.9532681
0.7215108
0.7373792
0.7540173
0.7714866
0.7898577
0.8091629
0.8294572
0.8508752
0.8735364
0.8975627
0.9239534
0.9509541
0.7042957
0.7193935
0.7352013
0.7517723
0.7691673
0.78741
0.8065425
0.8266783
0.8479153
0.8703641
0.8949401
0.9206999
0.9461975
0.6879559
0.7023432
0.7173885
0.7331389
0.7496473
0.7669309
0.7850223
0.8040193
0.8240034
0.845068
0.8680356
0.8921043
0.9172122
0.9410779
0.6727228
0.6864651
0.7008211
0.7158325
0.7315462
0.7479746
0.7651436
0.783139
0.80203
0.8218958
0.8434844
0.8660529
0.8897617
0.9143213
0.9369628
0.6586007
0.6717596
0.6854935
0.6998404
0.7148421
0.7305076
0.7468575
0.7639688
0.7819011
0.8007226
0.8211229
0.8423965
0.8647325
0.8881546
0.9123082
0.6455213
0.6581513
0.6713231
0.6850709
0.6994326
0.7144146
0.7300337
0.7463596
0.7634447
0.7813485
0.8007136
0.8208657
0.8419837
0.86414
0.8873485
0.9317223
0.912854
0.9357524
0.8921401
0.9167697
0.9408477
0.8720393
0.8957782
0.9209043
0.9462038
0.8519863
0.8745682
0.8985749
0.9240923
0.9502903
0.8320834
0.8535233
0.8762709
0.9004772
0.9262772
0.952976
0.8125787
0.8329416
0.854492
0.8773653
0.9017223
0.9276545
0.9545853
0.7936176
0.8129767
0.8334167
0.855053
0.8780246
0.9024321
0.9283925
0.9554682
0.7752434
0.7936671
0.81308
0.8335794
0.8552826
0.8782698
0.9026557
0.9286422
0.9557627
0.7574294
0.7749788
0.7934372
0.8128882
0.8334301
0.8551248
0.8780646
0.9024392
0.9284054
0.9554701
0.7400963
0.7568226
0.7743877
0.7928634
0.8123338
0.8328446
0.8544691
0.8773697
0.9016958
0.9275839
0.9556034
0.7231176
0.7390618
0.7557819
0.7733404
0.7918094
0.8112225
0.8316369
0.853191
0.8760105
0.9002354
0.9269497
0.9547758
0.7063579
0.7215512
0.737463
0.7541478
0.771668
0.7900478
0.8093318
0.8296379
0.8510694
0.8737465
0.8986755
0.9251801
0.9528016
0.6898604
0.7043331
0.7194708
0.7353216
0.7519392
0.7693417
0.7875632
0.8067044
0.8268499
0.8480981
0.871315
0.8957769
0.9215611
0.947115
0.6741848
0.687991
0.7024155
0.7175008
0.7332945
0.7498094
0.7670723
0.7851706
0.8041753
0.824168
0.8459144
0.8686895
0.8926746
0.9176639
0.9413617
0.6595564
0.6727559
0.6865335
0.7009271
0.7159791
0.7316988
0.7481072
0.7652821
0.783284
0.8021822
0.8226738
0.8440559
0.8665219
0.8901065
0.9145131
0.645983
0.6586323
0.6718246
0.6855943
0.6999796
0.7149868
0.730633
0.7469882
0.7641052
0.7820438
0.8014494
0.8216475
0.8428181
0.8650352
0.8883187
0.6334019
0.6455514
0.6582134
0.6714193
0.6852036
0.6995705
0.7145339
0.7301578
0.7464888
0.7635796
0.7820338
0.8012048
0.8212573
0.8422623
0.8642894
0.9290341
0.9097774
0.9318017
0.8887018
0.9129271
0.9359118
0.8687323
0.8922084
0.9169173
0.941093
0.8496778
0.8721044
0.8959171
0.921131
0.9465454
0.830692
0.852047
0.8746967
0.8987816
0.924394
0.950636
0.81182
0.8321398
0.853642
0.87646
0.9007486
0.926576
0.9532677
0.7932899
0.8126314
0.833052
0.8546667
0.8776134
0.9019902
0.927904
0.9548787
0.7752434
0.7936671
0.81308
0.8335794
0.8552826
0.8782698
0.9026557
0.9286422
0.9557627
0.7577261
0.7752902
0.7937645
0.8132329
0.8337939
0.8555101
0.8784748
0.9028799
0.9288926
0.9560585
0.7407177
0.7574739
0.7750711
0.7935817
0.8130902
0.8336433
0.8553155
0.8782709
0.9026648
0.9286574
0.9569099
0.7241464
0.7401387
0.7569106
0.7745251
0.7930549
0.8125351
0.8330239
0.8546618
0.8775783
0.9019241
0.9288181
0.9570367
0.7078945
0.7231582
0.7391459
0.7559129
0.7735226
0.7920003
0.8113922
0.8318186
0.8533864
0.8762222
0.9013586
0.9281782
0.9565684
0.6918347
0.7063965
0.721631
0.7375871
0.7543201
0.7718481
0.7902073
0.8095018
0.8298197
0.8512648
0.8747718
0.8997809
0.926639
0.9551397
0.67601
0.6898961
0.7044069
0.7195855
0.7354804
0.7521049
0.7694869
0.7877161
0.806866
0.8270213
0.8489842
0.872087
0.8965549
0.9223016
0.947744
0.6609589
0.6742183
0.68806
0.7025226
0.7176491
0.7334488
0.7499438
0.7672129
0.785318
0.8043303
0.8249621
0.846524
0.8692165
0.8930849
0.9179056
0.6469006
0.6595881
0.6728213
0.6866348
0.7010671
0.7161247
0.7318251
0.7482389
0.7654196
0.7834279
0.8029156
0.8232101
0.8444934
0.8668409
0.8902815
0.6338456
0.6460133
0.6586945
0.671921
0.6857274
0.7001179
0.7151065
0.7307575
0.7471179
0.7642406
0.7827315
0.801944
0.8220433
0.8431007
0.8651872
0.6217361
0.6334308
0.645611
0.6583056
0.6715464
0.6853355
0.6996845
0.7146523
0.7302809
0.7466171
0.7642298
0.7824984
0.801574
0.8215189
0.8424018
0.9276849
0.9076817
0.9291121
0.8859512
0.9098491
0.9319567
0.8655453
0.8887682
0.9130702
0.9361464
0.8465793
0.8687951
0.8923422
0.9171348
0.9414151
0.8285172
0.8497381
0.8722319
0.8961219
0.9214291
0.9468836
0.8105041
0.8307486
0.8521661
0.8748864
0.8990536
0.9246927
0.9509266
0.7925703
0.8118729
0.8322507
0.8538174
0.8767089
0.9010173
0.9268261
0.9535615
0.7749319
0.7933395
0.8127349
0.8332151
0.8548967
0.8778591
0.9022143
0.9281542
0.9551736
0.7577261
0.7752902
0.7937645
0.8132329
0.8337939
0.8555101
0.8784748
0.9028799
0.9288926
0.9560585
0.7410007
0.7577705
0.7753823
0.7939087
0.8134344
0.8340066
0.8557003
0.8786804
0.9031048
0.9291437
0.9574939
0.7247399
0.7407599
0.7575614
0.7752078
0.7937722
0.8132905
0.8338216
0.8555069
0.8784779
0.9028913
0.9298814
0.9582883
0.7088783
0.7241867
0.7402223
0.7570409
0.7747063
0.7932448
0.8127037
0.8332041
0.8548555
0.8777879
0.9030355
0.9299857
0.9586686
0.6933057
0.7079332
0.7232382
0.7392704
0.7560858
0.7737035
0.7921605
0.8115631
0.8320015
0.8535831
0.8772554
0.9024639
0.9295889
0.958663
0.677902
0.6918715
0.7064726
0.7217492
0.737751
0.7544911
0.7719992
0.7903679
0.8096729
0.8300027
0.8522192
0.8757906
0.9010923
0.928435
0.9582323
0.6627097
0.6760442
0.6899666
0.7045163
0.7197369
0.735638
0.7522427
0.7696318
0.7878689
0.8070274
0.827852
0.8497034
0.8728049
0.8972223
0.9227978
0.6482472
0.660991
0.6742844
0.6881625
0.7026642
0.7177963
0.7335767
0.7500774
0.7673526
0.7854646
0.8050787
0.8255339
0.8470154
0.8695955
0.8933043
0.6347272
0.646931
0.6596508
0.6729183
0.6867687
0.7012062
0.7162452
0.7319504
0.7483696
0.7655561
0.7841217
0.8034212
0.8236208
0.844791
0.8670028
0.6221628
0.6338746
0.646073
0.6587869
0.6720485
0.6858596
0.7002322
0.7152252
0.730881
0.7472466
0.764893
0.7831993
0.8023171
0.8223086
0.8432426
0.6105005
0.6217639
0.633488
0.6456994
0.6584274
0.6716727
0.6854445
0.6997976
0.7147698
0.7304031
0.7472353
0.7646706
0.7828477
0.8018206
0.8216499
0.9066292
0.9277623
0.8840796
0.9077526
0.9292646
0.8629957
0.8860166
0.9099894
0.9321848
0.843593
0.8656065
0.8888985
0.913281
0.9364546
0.8255985
0.8466377
0.8689183
0.8925395
0.9174206
0.9417338
0.8084478
0.8285736
0.8498565
0.8724203
0.8963915
0.9217243
0.9471678
0.7913224
0.8105572
0.8308599
0.8523421
0.8751361
0.8993229
0.9249433
0.9512198
0.7742478
0.7926201
0.8119769
0.8324145
0.8540484
0.8769556
0.9012424
0.9270775
0.9538573
0.7574294
0.7749788
0.7934372
0.8128882
0.8334301
0.8551248
0.8780646
0.9024392
0.9284054
0.9554701
0.7410007
0.7577705
0.7753823
0.7939087
0.8134344
0.8340066
0.8557003
0.8786804
0.9031048
0.9291437
0.9574939
0.7250103
0.7410428
0.7578578
0.7755187
0.7940988
0.8136343
0.8341844
0.8558911
0.8788866
0.9033303
0.9303628
0.958847
0.7094459
0.7247801
0.7408431
0.7576911
0.7753882
0.7939613
0.8134581
0.8340005
0.855699
0.8786856
0.9039921
0.9310047
0.9598159
0.6942475
0.7089168
0.7242663
0.7403462
0.7572129
0.7748862
0.793404
0.8128731
0.8333853
0.8550501
0.878809
0.904085
0.9312704
0.9604895
0.6793117
0.6933427
0.7080095
0.7233569
0.7394349
0.7562575
0.7738552
0.7923218
0.8117351
0.8321856
0.8545438
0.8782729
0.9037315
0.9311941
0.9610645
0.6645246
0.6779372
0.6919442
0.7065854
0.7219054
0.7379137
0.7546346
0.7721513
0.7905295
0.8098452
0.8308969
0.8531683
0.8770001
0.9027034
0.9307677
0.9632861
0.649928
0.6627424
0.6761116
0.6900712
0.7046608
0.7198872
0.7357693
0.7523804
0.7697765
0.7880214
0.8078099
0.8285264
0.8503726
0.8734207
0.8976687
0.636021
0.6482779
0.6610543
0.6743824
0.6882978
0.7028048
0.7179183
0.7337039
0.7502102
0.7674916
0.7861722
0.8056174
0.8259949
0.8473689
0.8697982
0.6230105
0.6347564
0.646991
0.6597437
0.6730465
0.6869017
0.7013212
0.7163647
0.7320749
0.7484993
0.7662141
0.7845998
0.8038082
0.8239001
0.8449421
0.610911
0.6221906
0.6339319
0.6461616
0.6589091
0.6721751
0.685969
0.7003456
0.7153431
0.7310036
0.7478669
0.7653367
0.7835523
0.8025672
0.8224417
0.5996732
0.6105272
0.6218188
0.6335728
0.6458162
0.6585484
0.6717771
0.6855527
0.6999098
0.7148863
0.730992
0.7476543
0.7650019
0.7830811
0.8019441
0.8831399
0.9066997
0.9279136
0.8612608
0.8841444
0.9078913
0.929489
0.8412034
0.8630561
0.8861447
0.9101962
0.9324846
0.8227851
0.8436499
0.8657267
0.8890906
0.9135581
0.9367594
0.8056883
0.8256531
0.8467522
0.8691001
0.8927992
0.9177036
0.9419993
0.7893728
0.8085007
0.8286843
0.8500315
0.8726683
0.8966586
0.9219719
0.9474546
0.7730618
0.7913725
0.8106617
0.8310245
0.8525741
0.8753836
0.8995488
0.9251955
0.9515155
0.756778
0.7742949
0.7927182
0.8121308
0.8326305
0.8542774
0.8771622
0.9014685
0.9273301
0.9541551
0.7407177
0.7574739
0.7750711
0.7935817
0.8130902
0.8336433
0.8553155
0.8782709
0.9026648
0.9286574
0.9569099
0.7250103
0.7410428
0.7578578
0.7755187
0.7940988
0.8136343
0.8341844
0.8558911
0.8788866
0.9033303
0.9303628
0.958847
0.7097045
0.7250503
0.7411258
0.7579871
0.7756986
0.7942874
0.8138014
0.8343627
0.8560824
0.8790934
0.904426
0.9314657
0.9603284
0.6947909
0.7094842
0.7248593
0.7409664
0.7578622
0.7755672
0.7941195
0.8136263
0.8341801
0.8558918
0.8796963
0.9050013
0.9322084
0.9614829
0.6802142
0.6942843
0.7089927
0.7243843
0.7405098
0.7573836
0.7750368
0.7935639
0.8130434
0.8335673
0.8559988
0.8797742
0.9052393
0.9326647
0.9624796
0.6658767
0.679347
0.6934156
0.7081227
0.7235136
0.7395982
0.7564015
0.7740079
0.7924843
0.8119083
0.833085
0.8554908
0.879441
0.9051727
0.9329973
0.9641809
0.6516703
0.6645583
0.6780067
0.692052
0.7067345
0.7220605
0.7380503
0.7547791
0.7723045
0.7906922
0.810687
0.8317868
0.854296
0.8784867
0.9047932
0.9345604
0.9660093
0.637636
0.6499593
0.662807
0.6762116
0.6902093
0.7048043
0.7200123
0.7359003
0.7525179
0.7699211
0.788761
0.8084451
0.8291541
0.8509469
0.8738328
0.6242545
0.6360505
0.6483386
0.6611482
0.674512
0.6884323
0.7029213
0.7180395
0.7338304
0.7503422
0.7681626
0.7866816
0.8060519
0.8263265
0.847558
0.6117267
0.6230385
0.634814
0.6470801
0.6598665
0.6731738
0.6870117
0.7014354
0.7164834
0.7321984
0.7491248
0.7666675
0.7849658
0.8040715
0.8240419
0.6000685
0.6109378
0.6222457
0.6340169
0.6462787
0.6590304
0.6722798
0.6860775
0.7004582
0.71546
0.7315944
0.7482887
0.7656715
0.7837889
0.8026928
0.5892344
0.5996989
0.6105799
0.6219003
0.633685
0.6459324
0.6586485
0.6718807
0.6856601
0.7000212
0.7154482
0.731391
0.7479693
0.7652232
0.7831979
0.8603895
0.8832043
0.9068376
0.9281363
0.8395771
0.8613206
0.8842713
0.9080958
0.9297839
0.8205334
0.8412596
0.8631745
0.8863337
0.910468
0.9327811
0.8030279
0.8228384
0.8437617
0.865904
0.8893432
0.9138323
0.9370121
0.7867564
0.8057395
0.8257602
0.8469213
0.8693395
0.8930563
0.917939
0.9422648
0.771209
0.7894227
0.8086047
0.828848
0.8502621
0.8729141
0.8968825
0.922221
0.9477438
0.7556486
0.7731092
0.7914711
0.8108164
0.8312414
0.852804
0.8755912
0.8997762
0.9254494
0.9518139
0.7400963
0.7568226
0.7743877
0.7928634
0.8123338
0.8328446
0.8544691
0.8773697
0.9016958
0.9275839
0.9556034
0.7247399
0.7407599
0.7575614
0.7752078
0.7937722
0.8132905
0.8338216
0.8555069
0.8784779
0.9028913
0.9298814
0.9582883
0.7097045
0.7250503
0.7411258
0.7579871
0.7756986
0.7942874
0.8138014
0.8343627
0.8560824
0.8790934
0.904426
0.9314657
0.9603284
0.6950385
0.7097427
0.7251293
0.7412488
0.7581579
0.7758771
0.794445
0.813969
0.8345416
0.8562743
0.880099
0.9054166
0.9326336
0.9619302
0.680735
0.6948275
0.7095597
0.7249767
0.7411291
0.7580321
0.7757169
0.7942782
0.8137952
0.8343604
0.8568304
0.8806236
0.9060827
0.9334846
0.9632745
0.6667424
0.6802494
0.6943568
0.7091052
0.7245402
0.7406722
0.7575266
0.7751883
0.7937247
0.8132146
0.8344551
0.8568964
0.880837
0.906492
0.9341529
0.9649683
0.6529682
0.6659105
0.6794167
0.6935237
0.7082722
0.7236692
0.7397352
0.7565466
0.7741618
0.7926478
0.8127546
0.8339724
0.8565793
0.8807702
0.906791
0.9353017
0.966388
0.6393098
0.6517025
0.6646248
0.6781099
0.6921945
0.7068826
0.7221907
0.7381877
0.7549245
0.7724586
0.7914877
0.8115253
0.8328451
0.855683
0.8804154
0.9081935
0.9367454
0.9680219
0.6258072
0.637666
0.6500212
0.6629028
0.6763438
0.6903465
0.7049238
0.7201372
0.7360312
0.7526552
0.7706221
0.7893615
0.8090366
0.829693
0.8513313
0.6129236
0.6242828
0.6361087
0.6484286
0.6612723
0.6746407
0.6885437
0.7030371
0.7181601
0.7339561
0.7509799
0.7686455
0.7870924
0.8063644
0.826504
0.6008538
0.6117536
0.6230939
0.6348995
0.647198
0.6599885
0.6732791
0.6871209
0.7015488
0.7166012
0.7327942
0.7495557
0.7670146
0.7852148
0.8042051
0.5896151
0.6000942
0.6109907
0.6223274
0.6341294
0.6463951
0.6591308
0.6723837
0.6861851
0.7005699
0.7160236
0.7319961
0.7486069
0.7658959
0.7839077
0.579165
0.5892591
0.5997497
0.6106583
0.6220081
0.6337965
0.6460284
0.6587479
0.6719835
0.6857666
0.700558
0.7158289
0.731691
0.7481797
0.765334
0.8387599
0.8604491
0.8833307
0.9070409
0.928429
0.8190005
0.8396328
0.861438
0.8844584
0.9083645
0.9300756
0.8008984
0.820586
0.8413699
0.8633492
0.8865823
0.910737
0.9330264
0.7842337
0.803078
0.8229431
0.8439269
0.8661374
0.8895934
0.9140595
0.9372634
0.7687226
0.7868047
0.8058403
0.8259186
0.8471441
0.8695767
0.8932702
0.9181741
0.9425301
0.7538845
0.7712562
0.7895208
0.8087586
0.8290638
0.8504906
0.8731202
0.8971078
0.9224717
0.9480356
0.7390192
0.7556935
0.7732024
0.7916169
0.8110203
0.8314565
0.8529968
0.8758002
0.9000051
0.9257049
0.9532681
0.7241464
0.7401387
0.7569106
0.7745251
0.7930549
0.8125351
0.8330239
0.8546618
0.8775783
0.9019241
0.9288181
0.9570367
0.7094459
0.7247801
0.7408431
0.7576911
0.7753882
0.7939613
0.8134581
0.8340005
0.855699
0.8786856
0.9039921
0.9310047
0.9598159
0.6950385
0.7097427
0.7251293
0.7412488
0.7581579
0.7758771
0.794445
0.813969
0.8345416
0.8562743
0.880099
0.9054166
0.9326336
0.9619302
0.6809722
0.695075
0.709818
0.7252464
0.7414111
0.7583273
0.7760264
0.7946032
0.8141371
0.834721
0.857208
0.881009
0.9064658
0.93386
0.9636414
0.6672419
0.6807699
0.6948996
0.7096717
0.7251317
0.7412907
0.7581742
0.7758672
0.7944376
0.8139646
0.8352385
0.8576924
0.8816188
0.9072298
0.9348218
0.9654985
0.6537993
0.666776
0.6803187
0.6944643
0.7092539
0.7246949
0.7408082
0.7576704
0.7753405
0.7938862
0.8140496
0.8352957
0.857886
0.8819916
0.9078293
0.9359766
0.9668286
0.6405568
0.6530006
0.6659772
0.6795202
0.6936666
0.7084208
0.7237998
0.7398732
0.7566926
0.7743166
0.7934472
0.8135902
0.8349933
0.8578187
0.8822635
0.9088607
0.9370929
0.9682083
0.6274165
0.6393408
0.6517663
0.6647236
0.6782462
0.692336
0.7070068
0.7223217
0.7383261
0.7550709
0.7732125
0.7922802
0.812523
0.8341474
0.8574833
0.8835568
0.9101537
0.9384789
0.9695687
0.6144174
0.6258361
0.6377254
0.6501131
0.6630295
0.6764752
0.6904608
0.7050431
0.720262
0.7361619
0.7533213
0.7711914
0.7899208
0.8095446
0.8300539
0.602006
0.6129508
0.6243387
0.6361951
0.6485476
0.6613956
0.6747473
0.6886544
0.7031523
0.71828
0.7345633
0.7514388
0.769035
0.787388
0.8065317
0.5903716
0.6008797
0.6118068
0.623176
0.6350126
0.647315
0.6600895
0.6733837
0.6872294
0.7016613
0.7171695
0.7332045
0.7498856
0.7672507
0.7853412
0.579532
0.5896399
0.6001451
0.6110692
0.6224354
0.6342412
0.6464914
0.6592304
0.6724867
0.686292
0.7011084
0.7164068
0.7322992
0.7488202
0.7660086
0.5694475
0.5791888
0.5893079
0.599825
0.6107619
0.6221153
0.6338887
0.6461237
0.6588464
0.6720855
0.6862801
0.7009217
0.7161151
0.7318914
0.748285
0.8182302
0.8388155
0.8605659
0.883517
0.9073083
0.9287185
0.7994484
0.8190527
0.8397422
0.8616112
0.8847047
0.9086305
0.9303169
0.7822141
0.8009479
0.8206893
0.8415328
0.8635791
0.8868284
0.9109596
0.93327
0.766325
0.784281
0.8031765
0.8230978
0.8441444
0.8663686
0.8898007
0.9142854
0.9375133
0.7515171
0.7687683
0.7868998
0.8059892
0.8261273
0.8473649
0.869774
0.8934838
0.9184088
0.9427953
0.7373368
0.7539292
0.7713491
0.789666
0.8089616
0.8292777
0.8506823
0.8733276
0.8973346
0.922724
0.9494583
0.7231176
0.7390618
0.7557819
0.7733404
0.7918094
0.8112225
0.8316369
0.853191
0.8760105
0.9002354
0.9269497
0.9547758
0.7088783
0.7241867
0.7402223
0.7570409
0.7747063
0.7932448
0.8127037
0.8332041
0.8548555
0.8777879
0.9030355
0.9299857
0.9586686
0.6947909
0.7094842
0.7248593
0.7409664
0.7578622
0.7755672
0.7941195
0.8136263
0.8341801
0.8558918
0.8796963
0.9050013
0.9322084
0.9614829
0.6809722
0.695075
0.709818
0.7252464
0.7414111
0.7583273
0.7760264
0.7946032
0.8141371
0.834721
0.857208
0.881009
0.9064658
0.93386
0.9636414
0.6674694
0.6810071
0.6951469
0.7099297
0.7254011
0.7415723
0.758469
0.7761761
0.7947619
0.8143057
0.8355943
0.8580536
0.8819743
0.9075684
0.9351363
0.965761
0.6542788
0.6672753
0.6808389
0.6950066
0.7098197
0.7252857
0.7414259
0.7583169
0.776018
0.7945975
0.8147903
0.8360454
0.8586186
0.8826757
0.9084326
0.9364444
0.9671696
0.6413552
0.6538315
0.6668423
0.6804215
0.6946064
0.7094017
0.7248246
0.740945
0.7578149
0.7754935
0.7946747
0.8148408
0.8362234
0.858962
0.8832253
0.90947
0.9375047
0.9684587
0.6286153
0.6405879
0.6530646
0.6660763
0.6796569
0.6938086
0.7085455
0.7239313
0.7400122
0.7568397
0.7750739
0.7942369
0.8145522
0.8361566
0.8592121
0.8841751
0.9104718
0.9386814
0.9696759
0.6159656
0.6274462
0.639402
0.651861
0.6648542
0.6783817
0.6924548
0.7071319
0.7224536
0.7384654
0.755787
0.7739638
0.7932239
0.8137512
0.8358385
0.8604176
0.8853655
0.9117139
0.9398938
0.9707691
0.6034441
0.6144451
0.6258931
0.6378136
0.6502346
0.6631553
0.6765845
0.6905748
0.7051622
0.7203866
0.736796
0.7538622
0.7717218
0.7904013
0.809885
0.5914815
0.6020322
0.6130045
0.6244217
0.6363094
0.6486659
0.6614978
0.6748533
0.6887645
0.7032668
0.7188591
0.7350002
0.751809
0.7693153
0.7875462
0.580261
0.5903965
0.6009308
0.6118857
0.6232847
0.635125
0.6474119
0.6601897
0.6734875
0.687337
0.7022042
0.7175609
0.7335187
0.7501101
0.7673706
0.5698014
0.5795558
0.5896888
0.6002206
0.6111731
0.6225428
0.6343336
0.646587
0.6593292
0.672589
0.6868071
0.7014744
0.7166959
0.7325023
0.7489273
0.5600654
0.5694704
0.5792358
0.5893805
0.5999247
0.610865
0.6222039
0.6339802
0.6462182
0.6589441
0.6725772
0.686628
0.7011951
0.7163062
0.7319917
0.7987196
0.8182822
0.8389244
0.8607384
0.8837621
0.9075729
0.9289579
0.7808388
0.7994975
0.8191553
0.8399038
0.8618392
0.8849485
0.9088506
0.9305563
0.7644054
0.7822608
0.8010451
0.8208421
0.8417473
0.863807
0.8870321
0.9111806
0.9335118
0.749234
0.7663698
0.784374
0.8033222
0.8233017
0.8443599
0.8665602
0.8900068
0.91451
0.9377618
0.7350788
0.7515604
0.7688583
0.7870404
0.8061857
0.8263342
0.8475486
0.869971
0.8936971
0.9186431
0.9440775
0.7215108
0.7373792
0.7540173
0.7714866
0.7898577
0.8091629
0.8294572
0.8508752
0.8735364
0.8975627
0.9239534
0.9509541
0.7078945
0.7231582
0.7391459
0.7559129
0.7735226
0.7920003
0.8113922
0.8318186
0.8533864
0.8762222
0.9013586
0.9281782
0.9565684
0.6942475
0.7089168
0.7242663
0.7403462
0.7572129
0.7748862
0.793404
0.8128731
0.8333853
0.8550501
0.878809
0.904085
0.9312704
0.9604895
0.680735
0.6948275
0.7095597
0.7249767
0.7411291
0.7580321
0.7757169
0.7942782
0.8137952
0.8343604
0.8568304
0.8806236
0.9060827
0.9334846
0.9632745
0.6674694
0.6810071
0.6951469
0.7099297
0.7254011
0.7415723
0.758469
0.7761761
0.7947619
0.8143057
0.8355943
0.8580536
0.8819743
0.9075684
0.9351363
0.965761
0.6544972
0.6675028
0.6810759
0.6952536
0.7100773
0.7255547
0.741707
0.7586111
0.7763263
0.794921
0.8151269
0.8363859
0.8589518
0.88299
0.908717
0.9366804
0.9673499
0.6418158
0.6543108
0.6673413
0.6809412
0.695148
0.7099666
0.7254145
0.7415616
0.7584601
0.7761695
0.795377
0.8155497
0.8369133
0.8596032
0.8837851
0.9098942
0.9378299
0.9686715
0.6293829
0.6413861
0.6538951
0.6669408
0.6805575
0.6947476
0.7095254
0.7249549
0.7410824
0.7579601
0.7762403
0.7954222
0.8157146
0.8372328
0.8601128
0.8847405
0.9108491
0.9389505
0.969828
0.6171189
0.6286451
0.6406492
0.6531595
0.6662072
0.6797928
0.6939278
0.708671
0.7240638
0.7401521
0.7575588
0.7758224
0.7951466
0.8156491
0.8374651
0.8609969
0.8856627
0.9119047
0.9400373
0.9708407
0.6049345
0.6159942
0.627505
0.6394928
0.6519862
0.664984
0.6784954
0.6925744
0.7072578
0.7225864
0.739147
0.756501
0.774859
0.7943862
0.8153466
0.8385962
0.8621058
0.8868053
0.9129904
0.9410428
0.9716906
0.5928667
0.6034708
0.6144999
0.6259777
0.6379301
0.6503553
0.6632601
0.6766937
0.6906887
0.7052812
0.7209913
0.7373109
0.7543663
0.7721775
0.7907233
0.5813307
0.5915066
0.6020838
0.6130842
0.6245315
0.636423
0.648764
0.6615994
0.6749588
0.688874
0.7038199