/*--------------------------------*- C++ -*----------------------------------*\
| =========                 |                                                 |
| \\      /  F ield         | OpenFOAM: The Open Source CFD Toolbox           |
|  \\    /   O peration     | Version:  2306                                  |
|   \\  /    A nd           | Website:  www.openfoam.com                      |
|    \\/     M anipulation  |                                                 |
\*---------------------------------------------------------------------------*/
FoamFile
{
    version     2.0;
    format      ascii;
    arch        "LSB;label=32;scalar=64";
    class       volScalarField;
    location    "0.6/air";
    object      diffSp.O2;
}
// * * * * * * * * * * * * * * * * * * * * * * * * * * * * * * * * * * * * * //

dimensions      [0 2 -1 0 0 0 0];

internalField   nonuniform List<scalar> 
16000
(
0.0001934295
0.0001903948
0.0001970058
0.0001903462
0.0001887647
0.0001961505
0.000183131
0.0001978877
0.0001961388
0.0001886738
0.0001878586
0.0001954169
0.0001787827
0.0001974967
0.000193627
0.0001787162
0.0001986201
0.0001975073
0.0001953903
0.000187716
0.0001874423
0.0001948808
0.0001762352
0.0001971467
0.0001914504
0.0001722994
0.0001984167
0.0001963564
0.0001914155
0.0001760586
0.0001992697
0.0001984369
0.0001971633
0.0001948312
0.000187231
0.0001874423
0.0001945983
0.0001750443
0.0001968796
0.0001898518
0.0001683827
0.0001982377
0.0001953105
0.0001879227
0.0001682343
0.0001991507
0.0001978522
0.0001953116
0.0001897514
0.0001746913
0.0001998647
0.0001991734
0.0001982733
0.0001968992
0.000194517
0.0001871371
0.0001150801
0.0001878586
0.0001945983
0.0001750443
0.0001967347
0.0001890073
0.0001665111
0.0001981018
0.0001945056
0.0001853353
0.0001633259
0.0001990493
0.0001973247
0.0001936047
0.0001852431
0.000166097
0.0001997865
0.0001988423
0.0001973419
0.0001944972
0.0001888083
0.0001744358
0.0002004123
0.000199809
0.0001990904
0.0001981523
0.0001967564
0.000194481
0.0001874284
0.0001150695
0.000115454
0.0001153306
0.0001887647
0.0001948808
0.0001762352
0.0001967347
0.0001890073
0.0001665111
0.000198028
0.000194067
0.0001839617
0.0001609441
0.0001989741
0.0001969188
0.0001922782
0.0001818779
0.0001606246
0.0001997225
0.0001985507
0.0001964868
0.0001922593
0.0001837124
0.0001656924
0.0002003542
0.0001995994
0.0001985737
0.000196954
0.000194043
0.0001886885
0.0001752809
0.0002009215
0.0002003753
0.0001997634
0.0001990342
0.000198096
0.000196763
0.0001947346
0.000188169
0.0001150464
0.0001154517
0.0001153155
0.0001158274
0.0001156862
0.0001155829
0.0001903948
0.0001954169
0.0001787827
0.0001968796
0.0001898518
0.0001683827
0.000198028
0.000194067
0.0001839617
0.0001609441
0.0001989338
0.0001966968
0.0001915514
0.0001800834
0.0001579462
0.0001996762
0.0001983305
0.0001958202
0.0001905061
0.0001798905
0.0001601056
0.0002003082
0.0001994201
0.0001981097
0.0001958388
0.0001914978
0.0001835074
0.0001670125
0.0002008741
0.0002002243
0.000199444
0.000198382
0.0001967567
0.0001940357
0.0001894231
0.0001773725
0.0002013966
0.0002008935
0.0002003467
0.0001997366
0.0001990166
0.0001981203
0.0001969287
0.0001952696
0.0001895581
0.0001150017
0.0001154476
0.00011528
0.0001158271
0.0001156839
0.0001155641
0.0001161829
0.0001160342
0.0001159186
0.0001158383
0.0001934295
0.0001961505
0.000183131
0.0001971467
0.0001914504
0.0001722994
0.0001981018
0.0001945056
0.0001853353
0.0001633259
0.0001989338
0.0001966968
0.0001915514
0.0001800834
0.0001579462
0.0001996517
0.0001982115
0.000195453
0.0001895409
0.0001778469
0.0001573652
0.0002002758
0.0001992879
0.0001977541
0.0001949603
0.0001894931
0.0001796155
0.0001617682
0.0002008373
0.0002000988
0.0001991651
0.0001977874
0.0001954988
0.0001914682
0.000184677
0.0001702253
0.0002013552
0.0002007726
0.0002001217
0.0001993428
0.0001983027
0.0001967989
0.0001945005
0.0001909739
0.0001811089
0.0002018418
0.000201373
0.0002008729
0.000200333
0.0001997356
0.0001990463
0.0001982319
0.000197247
0.0001960688
0.0001921612
0.0001148825
0.000115443
0.0001152041
0.0001158273
0.0001156801
0.0001155191
0.0001161833
0.0001160352
0.0001159163
0.0001158169
0.0001165141
0.0001163655
0.0001162407
0.000116152
0.0001160949
0.0001970058
0.0001903462
0.0001974967
0.000193627
0.0001787162
0.0001982377
0.0001953105
0.0001879227
0.0001682343
0.0001989741
0.0001969188
0.0001922782
0.0001818779
0.0001606246
0.0001996517
0.0001982115
0.000195453
0.0001895409
0.0001778469
0.0001573652
0.0002002589
0.0001992175
0.0001975601
0.0001944733
0.0001883862
0.0001775325
0.000159206
0.0002008119
0.0002000085
0.0001989562
0.0001973262
0.0001945003
0.0001894403
0.0001811153
0.000165771
0.0002013236
0.0002006742
0.0001999307
0.0001989935
0.0001976446
0.0001955496
0.0001922078
0.0001871386
0.0001757515
0.0002018044
0.0002012686
0.0002006955
0.0002000617
0.000199316
0.0001983621
0.0001970975
0.0001954023
0.000193237
0.0001874195
0.0002022601
0.0002018207
0.0002013562
0.0002008648
0.0002003386
0.0001997658
0.0001991286
0.0001984317
0.0001977132
0.0001971596
0.0001140527
0.0001154524
0.0001150117
0.0001158312
0.0001156771
0.0001154241
0.000116185
0.000116039
0.0001159124
0.0001157661
0.0001165147
0.0001163676
0.0001162427
0.0001161496
0.0001160722
0.0001168251
0.0001166755
0.0001165477
0.0001164475
0.0001163843
4.902974e-05
0.0001978877
0.0001961388
0.0001886738
0.0001984167
0.0001963564
0.0001914155
0.0001760586
0.0001990493
0.0001973247
0.0001936047
0.0001852431
0.000166097
0.0001996762
0.0001983305
0.0001958202
0.0001905061
0.0001798905
0.0001601056
0.0002002589
0.0001992175
0.0001975601
0.0001944733
0.0001883862
0.0001775325
0.000159206
0.0002007989
0.0001999612
0.000198844
0.0001970729
0.0001939443
0.0001883189
0.0001792102
0.0001636146
0.000201302
0.0002006048
0.0001997914
0.0001987287
0.0001971293
0.0001945527
0.000190394
0.0001842654
0.0001724894
0.0002017759
0.0002011847
0.0002005483
0.0001998283
0.0001989392
0.0001977247
0.0001960146
0.0001936402
0.0001906768
0.0001844961
0.0002022254
0.0002017265
0.0002012044
0.0002006546
0.0002000572
0.0001993789
0.0001985722
0.0001976393
0.0001966645
0.0001960674
0.0001130634
0.000202654
0.0002022404
0.0002018058
0.0002013505
0.0002008728
0.0002003674
0.0001998315
0.0001992682
0.0001987308
0.0001983905
0.0001156344
0.0001143686
0.0001158642
0.00011569
0.0001152106
0.0001161915
0.0001160521
0.0001159087
0.0001156629
0.0001165169
0.0001163738
0.000116249
0.0001161452
0.0001160191
0.0001168257
0.0001166778
0.0001165511
0.0001164502
0.0001163818
4.901998e-05
0.0001171158
0.0001169682
0.0001168363
0.0001167298
0.0001166525
4.914789e-05
4.903648e-05
0.0001986201
0.0001975073
0.0001953903
0.000187716
0.0001991507
0.0001978522
0.0001953116
0.0001897514
0.0001746913
0.0001997225
0.0001985507
0.0001964868
0.0001922593
0.0001837124
0.0001656924
0.0002002758
0.0001992879
0.0001977541
0.0001949603
0.0001894931
0.0001796155
0.0001617682
0.0002007989
0.0001999612
0.000198844
0.0001970729
0.0001939443
0.0001883189
0.0001792102
0.0001636146
0.000201291
0.0002005689
0.0001997178
0.0001985852
0.0001968445
0.0001939959
0.0001893903
0.0001827304
0.0001709278
0.0002017566
0.0002011263
0.0002004432
0.000199656
0.0001986504
0.0001972212
0.000195145
0.0001922383
0.0001887491
0.000182718
0.0002021991
0.0002016513
0.0002010802
0.0002004779
0.0001998121
0.0001990264
0.0001980429
0.0001968556
0.0001955946
0.0001949485
0.0001122843
0.0002026215
0.0002021533
0.0002016694
0.0002011723
0.0002006589
0.000200118
0.000199541
0.0001989336
0.0001983991
0.0001982203
0.0001154975
0.000113589
0.0002030255
0.0002026354
0.0002022266
0.0002018011
0.0002013588
0.0002008995
0.000200423
0.0001999389
0.0001994834
0.0001992112
0.0001162123
0.0001157758
0.0001147031
0.0001162302
0.0001161058
0.0001159153
0.0001154555
0.0001165239
0.0001163916
0.0001162665
0.0001161394
0.0001159159
0.0001168279
0.0001166846
0.0001165605
0.0001164577
0.0001163767
4.899729e-05
0.0001171164
0.0001169706
0.0001168401
0.0001167341
0.0001166556
4.914683e-05
4.902672e-05
0.0001173888
0.0001172435
0.0001171109
0.0001169971
0.0001169099
4.925671e-05
4.915393e-05
4.904316e-05
0.0001992697
0.0001984369
0.0001971633
0.0001948312
0.000187231
0.0001997865
0.0001988423
0.0001973419
0.0001944972
0.0001888083
0.0001744358
0.0002003082
0.0001994201
0.0001981097
0.0001958388
0.0001914978
0.0001835074
0.0001670125
0.0002008119
0.0002000085
0.0001989562
0.0001973262
0.0001945003
0.0001894403
0.0001811153
0.000165771
0.000201291
0.0002005689
0.0001997178
0.0001985852
0.0001968445
0.0001939959
0.0001893903
0.0001827304
0.0001709278
0.0002017468
0.0002010964
0.0002003885
0.0001995643
0.0001984928
0.0001969416
0.0001946577
0.0001914609
0.0001877174
0.0001818647
0.0002021813
0.0002015994
0.0002009928
0.0002003505
0.0001996293
0.0001987529
0.0001976186
0.000196214
0.0001947197
0.0001940675
0.0001117635
0.0002025969
0.000202084
0.0002015587
0.000201025
0.0002004774
0.0001998974
0.0001992666
0.0001985865
0.0001979914
0.000197865
0.0001152803
0.0001129396
0.000202995
0.0002025538
0.0002021006
0.0002016416
0.0002011796
0.0002007158
0.0002002523
0.0001998088
0.000199448
0.000199375
0.0001162882
0.0001156781
0.0001140898
0.0002033765
0.0002030079
0.0002026224
0.0002022224
0.0002018091
0.0002013835
0.0002009483
0.0002005119
0.000200108
0.0001998589
0.0001166099
0.0001163253
0.0001159467
0.0001150546
0.0001165624
0.0001164555
0.00011632
0.0001161371
0.0001157281
0.0001168348
0.0001167033
0.0001165842
0.0001164757
0.0001163681
4.89542e-05
0.0001171185
0.0001169774
0.0001168503
0.0001167454
0.0001166633
4.91445e-05
4.900407e-05
0.0001173894
0.0001172458
0.0001171147
0.0001170018
0.0001169148
4.925807e-05
4.915287e-05
4.903341e-05
0.0001176453
0.0001175036
0.0001173708
0.0001172534
0.0001171557
4.936163e-05
4.926203e-05
4.915989e-05
4.904991e-05
0.0001998647
0.0001991734
0.0001982733
0.0001968992
0.000194517
0.0001871371
0.0002003542
0.0001995994
0.0001985737
0.000196954
0.000194043
0.0001886885
0.0001752809
0.0002008373
0.0002000988
0.0001991651
0.0001977874
0.0001954988
0.0001914682
0.000184677
0.0001702253
0.000201302
0.0002006048
0.0001997914
0.0001987287
0.0001971293
0.0001945527
0.000190394
0.0001842654
0.0001724894
0.0002017468
0.0002010964
0.0002003885
0.0001995643
0.0001984928
0.0001969416
0.0001946577
0.0001914609
0.0001877174
0.0001818647
0.0002021724
0.0002015729
0.0002009478
0.0002002838
0.0001995313
0.0001986026
0.0001973811
0.0001958513
0.0001942292
0.0001935873
0.0001115038
0.0002025803
0.0002020363
0.0002014814
0.0002009204
0.0002003453
0.0001997304
0.0001990479
0.0001982947
0.0001976286
0.0001975264
0.0001150883
0.0001124941
0.0002029718
0.0002024889
0.0002019988
0.000201511
0.0002010302
0.0002005577
0.0002000935
0.0001996587
0.0001993248
0.0001993333
0.0001162656
0.0001155117
0.0001135587
0.0002033476
0.0002029308
0.0002025043
0.0002020752
0.0002016495
0.0002012322
0.0002008325
0.0002004688
0.0002001952
0.0002001414
0.0001167558
0.0001163996
0.0001158706
0.0001145763
0.0002037083
0.0002033596
0.0002029954
0.0002026183
0.0002022297
0.0002018318
0.0002014274
0.0002010256
0.000200654
0.0002004203
0.0001169309
0.0001167053
0.0001164605
0.0001161372
0.0001154152
0.0001168712
0.0001167675
0.0001166503
0.0001165204
0.0001163569
4.887926e-05
0.000117125
0.0001169954
0.0001168752
0.0001167706
0.0001166792
4.914022e-05
4.896115e-05
0.0001173913
0.0001172522
0.0001171248
0.0001170141
0.0001169266
4.92613e-05
4.915053e-05
4.901079e-05
0.0001176458
0.0001175057
0.0001173745
0.0001172582
0.0001171611
4.936378e-05
4.92634e-05
4.915884e-05
4.904018e-05
0.000117887
0.0001177491
0.0001176178
0.0001174979
0.0001173939
4.946241e-05
4.936633e-05
4.926729e-05
4.916592e-05
4.905652e-05
0.0002004123
0.000199809
0.0001990904
0.0001981523
0.0001967564
0.000194481
0.0001874284
0.0002008741
0.0002002243
0.000199444
0.000198382
0.0001967567
0.0001940357
0.0001894231
0.0001773725
0.0002013236
0.0002006742
0.0001999307
0.0001989935
0.0001976446
0.0001955496
0.0001922078
0.0001871386
0.0001757515
0.0002017566
0.0002011263
0.0002004432
0.000199656
0.0001986504
0.0001972212
0.000195145
0.0001922383
0.0001887491
0.000182718
0.0002021724
0.0002015729
0.0002009478
0.0002002838
0.0001995313
0.0001986026
0.0001973811
0.0001958513
0.0001942292
0.0001935873
0.0001115038
0.0002025719
0.000202012
0.0002014418
0.0002008663
0.0002002757
0.0001996401
0.000198926
0.0001981277
0.0001974169
0.0001973268
0.000114979
0.0001122695
0.0002029561
0.0002024444
0.000201928
0.0002014192
0.0002009235
0.0002004408
0.0001999685
0.0001995258
0.0001991899
0.0001992387
0.0001162178
0.0001153606
0.0001131857
0.0002033256
0.0002028697
0.0002024091
0.0002019553
0.0002015179
0.0002011046
0.0002007267
0.0002004045
0.0002001947
0.0002002248
0.0001168073
0.0001163941
0.0001157429
0.0001141511
0.0002036809
0.0002032867
0.000202884
0.0002024804
0.0002020827
0.0002016981
0.0002013367
0.0002010182
0.0002007845
0.0002007361
0.0001170955
0.0001168356
0.000116523
0.0001160739
0.0001150505
0.0002040222
0.0002036922
0.0002033477
0.0002029914
0.0002026251
0.0002022507
0.0002018719
0.0002014966
0.0002011501
0.0002009251
0.0001172148
0.0001170138
0.0001168188
0.0001166096
0.0001163372
4.876214e-05
0.0001171585
0.0001170564
0.0001169426
0.0001168289
0.0001167119
4.913355e-05
4.888685e-05
0.0001173973
0.0001172692
0.0001171491
0.0001170409
0.0001169504
4.926741e-05
4.914619e-05
4.896805e-05
0.0001176476
0.0001175117
0.0001173841
0.0001172704
0.0001171741
4.936882e-05
4.926662e-05
4.915649e-05
4.901762e-05
0.0001178875
0.0001177511
0.0001176213
0.0001175026
0.0001173993
4.946478e-05
4.936848e-05
4.926865e-05
4.916488e-05
4.90468e-05
0.000118115
0.0001179814
0.0001178524
0.000117732
0.0001176231
4.956066e-05
4.946656e-05
4.937095e-05
4.92726e-05
4.91718e-05
3.203801e-05
0.0002009215
0.0002003753
0.0001997634
0.0001990342
0.000198096
0.000196763
0.0001947346
0.000188169
0.0002013552
0.0002007726
0.0002001217
0.0001993428
0.0001983027
0.0001967989
0.0001945005
0.0001909739
0.0001811089
0.0002017759
0.0002011847
0.0002005483
0.0001998283
0.0001989392
0.0001977247
0.0001960146
0.0001936402
0.0001906768
0.0001844961
0.0002021813
0.0002015994
0.0002009928
0.0002003505
0.0001996293
0.0001987529
0.0001976186
0.000196214
0.0001947197
0.0001940675
0.0001117635
0.0002025719
0.000202012
0.0002014418
0.0002008663
0.0002002757
0.0001996401
0.000198926
0.0001981277
0.0001974169
0.0001973268
0.000114979
0.0001122695
0.0002029482
0.0002024217
0.0002018918
0.0002013719
0.0002008678
0.0002003786
0.0001998994
0.0001994481
0.0001991055
0.0001991723
0.0001161846
0.0001152734
0.0001129954
0.0002033108
0.0002028277
0.000202343
0.0002018714
0.0002014248
0.0002010121
0.0002006447
0.0002003419
0.0002001604
0.0002002333
0.0001168192
0.0001163635
0.0001156251
0.0001138464
0.0002036601
0.0002032288
0.0002027942
0.0002023683
0.0002019621
0.0002015866
0.0002012553
0.0002009905
0.0002008325
0.0002008665
0.0001171734
0.0001168902
0.0001165266
0.0001159757
0.0001147204
0.0002039962
0.000203623
0.0002032422
0.0002028613
0.0002024872
0.0002021276
0.0002017933
0.000201502
0.0002012908
0.0002012375
0.0001173784
0.0001171585
0.0001169266
0.0001166569
0.0001162824
4.862796e-05
0.0002043193
0.0002040069
0.0002036809
0.0002033438
0.0002029977
0.0002026445
0.0002022877
0.000201935
0.0002016087
0.0002013917
0.000117474
0.0001172881
0.000117112
0.0001169432
0.0001167641
4.91217e-05
4.877156e-05
0.0001174281
0.0001173259
0.0001172136
0.0001171014
0.0001169967
4.927858e-05
4.913935e-05
4.889441e-05
0.0001176531
0.0001175275
0.000117407
0.0001172967
0.0001171999
4.937831e-05
4.927265e-05
4.91521e-05
4.897508e-05
0.0001178891
0.0001177567
0.0001176304
0.0001175142
0.0001174123
4.947035e-05
4.937352e-05
4.927187e-05
4.916252e-05
4.902431e-05
0.0001181154
0.0001179833
0.0001178556
0.0001177364
0.0001176284
4.956305e-05
4.946894e-05
4.937311e-05
4.927397e-05
4.917076e-05
3.203171e-05
0.0001183304
0.0001182015
0.0001180754
0.0001179555
0.0001178442
4.965572e-05
4.956436e-05
4.947065e-05
4.937563e-05
4.927776e-05
3.211259e-05
3.20436e-05
0.0002013966
0.0002008935
0.0002003467
0.0001997366
0.0001990166
0.0001981203
0.0001969287
0.0001952696
0.0001895581
0.0002018044
0.0002012686
0.0002006955
0.0002000617
0.000199316
0.0001983621
0.0001970975
0.0001954023
0.000193237
0.0001874195
0.0002021991
0.0002016513
0.0002010802
0.0002004779
0.0001998121
0.0001990264
0.0001980429
0.0001968556
0.0001955946
0.0001949485
0.0001122843
0.0002025803
0.0002020363
0.0002014814
0.0002009204
0.0002003453
0.0001997304
0.0001990479
0.0001982947
0.0001976286
0.0001975264
0.0001150883
0.0001124941
0.0002029482
0.0002024217
0.0002018918
0.0002013719
0.0002008678
0.0002003786
0.0001998994
0.0001994481
0.0001991055
0.0001991723
0.0001161846
0.0001152734
0.0001129954
0.0002033034
0.0002028063
0.0002023093
0.0002018284
0.0002013766
0.0002009635
0.0002005998
0.000200304
0.0002001327
0.0002002249
0.0001168189
0.0001163403
0.0001155566
0.0001136893
0.000203646
0.000203189
0.0002027319
0.0002022901
0.0002018772
0.0002015067
0.0002011932
0.0002009586
0.00020084
0.000200917
0.0001172085
0.0001169083
0.0001165081
0.0001158853
0.0001144796
0.0002039765
0.0002035681
0.0002031571
0.0002027555
0.0002023745
0.0002020256
0.0002017237
0.0002014888
0.0002013554
0.0002013799
0.0001174634
0.0001172339
0.0001169786
0.0001166639
0.0001162073
4.850571e-05
0.0002042946
0.0002039412
0.0002035807
0.0002032205
0.0002028673
0.000202529
0.0002022155
0.0002019439
0.0002017457
0.0002016873
0.0001176291
0.0001174312
0.0001172315
0.0001170272
0.0001167958
4.909958e-05
4.863974e-05
0.0002046005
0.0002043048
0.0002039961
0.0002036771
0.0002033496
0.0002030158
0.0002026789
0.0002023461
0.0002020376
0.0002018276
0.0001177166
0.0001175396
0.0001173746
0.0001172193
0.0001170712
4.929418e-05
4.912717e-05
4.878091e-05
0.0001176814
0.0001175798
0.0001174674
0.0001173554
0.0001172495
4.939525e-05
4.928352e-05
4.914507e-05
4.89021e-05
0.0001178941
0.0001177714
0.0001176518
0.0001175393
0.000117438
4.94808e-05
4.938293e-05
4.927782e-05
4.915807e-05
4.898197e-05
0.0001181169
0.0001179886
0.0001178642
0.0001177474
0.0001176409
4.956865e-05
4.947451e-05
4.937814e-05
4.927717e-05
4.916839e-05
3.201711e-05
0.0001183308
0.0001182033
0.0001180785
0.0001179597
0.0001178492
4.965804e-05
4.956676e-05
4.947303e-05
4.937779e-05
4.927914e-05
3.211192e-05
3.203733e-05
0.0001185342
0.0001184102
0.0001182876
0.0001181693
0.0001180569
4.974787e-05
4.965903e-05
4.9568e-05
4.947479e-05
4.938017e-05
3.218112e-05
3.211762e-05
3.204719e-05
0.0002018418
0.000201373
0.0002008729
0.000200333
0.0001997356
0.0001990463
0.0001982319
0.000197247
0.0001960688
0.0001921612
0.0002022254
0.0002017265
0.0002012044
0.0002006546
0.0002000572
0.0001993789
0.0001985722
0.0001976393
0.0001966645
0.0001960674
0.0001130634
0.0002025969
0.000202084
0.0002015587
0.000201025
0.0002004774
0.0001998974
0.0001992666
0.0001985865
0.0001979914
0.000197865
0.0001152803
0.0001129396
0.0002029561
0.0002024444
0.000201928
0.0002014192
0.0002009235
0.0002004408
0.0001999685
0.0001995258
0.0001991899
0.0001992387
0.0001162178
0.0001153606
0.0001131857
0.0002033034
0.0002028063
0.0002023093
0.0002018284
0.0002013766
0.0002009635
0.0002005998
0.000200304
0.0002001327
0.0002002249
0.0001168189
0.0001163403
0.0001155566
0.0001136893
0.000203639
0.0002031688
0.0002027001
0.00020225
0.0002018335
0.000201465
0.0002011595
0.0002009383
0.0002008365
0.0002009331
0.0001172217
0.0001169121
0.0001164925
0.0001158325
0.000114354
0.0002039631
0.0002035303
0.0002030981
0.0002026817
0.0002022953
0.0002019531
0.0002016712
0.0002014698
0.000201379
0.0002014449
0.0001175066
0.0001172706
0.0001169995
0.0001166536
0.0001161398
4.841577e-05
0.0002042759
0.000203889
0.0002034999
0.0002031202
0.0002027609
0.0002024335
0.0002021521
0.0002019359
0.0002018131
0.0002018278
0.0001177128
0.0001175116
0.0001173
0.0001170728
0.0001168029
4.907169e-05
4.851955e-05
0.0002045771
0.0002042424
0.0002039009
0.0002035599
0.0002032259
0.0002029063
0.0002026108
0.0002023546
0.0002021663
0.0002021027
0.000117861
0.0001176751
0.000117493
0.0001173133
0.0001171323
4.930436e-05
4.910519e-05
4.86514e-05
0.0002048666
0.0002045867
0.0002042945
0.0002039925
0.0002036825
0.0002033666
0.000203048
0.0002027333
0.0002024409
0.0002022384
0.0001179456
0.000117776
0.0001176169
0.0001174689
0.0001173291
4.941983e-05
4.929843e-05
4.913257e-05
4.879036e-05
0.0001179202
0.0001178196
0.0001177078
0.0001175947
0.0001174869
4.949933e-05
4.939956e-05
4.928839e-05
4.915087e-05
4.890967e-05
0.0001181215
0.0001180022
0.0001178842
0.0001177711
0.0001176656
4.957915e-05
4.948489e-05
4.938747e-05
4.928304e-05
4.91639e-05
3.19897e-05
0.0001183322
0.0001182082
0.0001180866
0.0001179701
0.0001178612
4.966346e-05
4.957236e-05
4.947859e-05
4.938281e-05
4.928232e-05
3.211038e-05
3.202282e-05
0.0001185346
0.0001184119
0.0001182905
0.0001181733
0.0001180617
4.975009e-05
4.966136e-05
4.95704e-05
4.947718e-05
4.938233e-05
3.218201e-05
3.211696e-05
3.204094e-05
0.0001187272
0.0001186082
0.0001184896
0.0001183736
0.0001182615
4.983685e-05
4.975086e-05
4.966229e-05
4.957168e-05
4.94788e-05
3.224739e-05
3.218563e-05
3.21208e-05
3.204994e-05
0.0002022601
0.0002018207
0.0002013562
0.0002008648
0.0002003386
0.0001997658
0.0001991286
0.0001984317
0.0001977132
0.0001971596
0.0001140527
0.0002026215
0.0002021533
0.0002016694
0.0002011723
0.0002006589
0.000200118
0.000199541
0.0001989336
0.0001983991
0.0001982203
0.0001154975
0.000113589
0.0002029718
0.0002024889
0.0002019988
0.000201511
0.0002010302
0.0002005577
0.0002000935
0.0001996587
0.0001993248
0.0001993333
0.0001162656
0.0001155117
0.0001135587
0.0002033108
0.0002028277
0.000202343
0.0002018714
0.0002014248
0.0002010121
0.0002006447
0.0002003419
0.0002001604
0.0002002333
0.0001168192
0.0001163635
0.0001156251
0.0001138464
0.000203639
0.0002031688
0.0002027001
0.00020225
0.0002018335
0.000201465
0.0002011595
0.0002009383
0.0002008365
0.0002009331
0.0001172217
0.0001169121
0.0001164925
0.0001158325
0.000114354
0.0002039564
0.0002035112
0.000203068
0.000202644
0.0002022547
0.0002019154
0.000201643
0.000201457
0.0002013853
0.00020147
0.0001175247
0.0001172852
0.0001170058
0.0001166438
0.0001161006
4.83686e-05
0.0002042632
0.0002038532
0.0002034439
0.0002030503
0.0002026863
0.0002023658
0.0002021046
0.000201922
0.0002018415
0.0002018956
0.0001177573
0.0001175544
0.0001173357
0.0001170939
0.0001167981
4.904715e-05
4.843103e-05
0.0002045592
0.0002041928
0.0002038242
0.0002034647
0.000203125
0.000202816
0.0002025512
0.0002023479
0.0002022312
0.0002022358
0.0001179406
0.0001177538
0.0001175652
0.0001173722
0.0001171697
4.930702e-05
4.907776e-05
4.853323e-05
0.0002048443
0.0002045274
0.0002042041
0.0002038811
0.000203565
0.0002032625
0.000202983
0.0002027404
0.0002025603
0.0002024932
0.0001180793
0.0001179022
0.0001177293
0.0001175628
0.0001173991
4.944127e-05
4.930824e-05
4.911073e-05
4.866311e-05
0.0002051182
0.0002048536
0.000204577
0.000204291
0.0002039975
0.0002036985
0.0002033969
0.000203099
0.0002028217
0.0002026267
0.0001181632
0.0001179998
0.0001178458
0.0001177011
0.0001175652
4.952639e-05
4.942337e-05
4.930261e-05
4.913806e-05
4.879964e-05
0.0001181456
0.0001180469
0.0001179361
0.0001178228
0.0001177123
4.959766e-05
4.950313e-05
4.940378e-05
4.929331e-05
4.915652e-05
3.194305e-05
0.0001183365
0.000118221
0.0001181053
0.0001179923
0.0001178846
4.967362e-05
4.958279e-05
4.948891e-05
4.939206e-05
4.92881e-05
3.210743e-05
3.199559e-05
0.0001185359
0.0001184165
0.0001182981
0.0001181831
0.000118073
4.975528e-05
4.966679e-05
4.957599e-05
4.948273e-05
4.938734e-05
3.218408e-05
3.211544e-05
3.202648e-05
0.0001187276
0.0001186098
0.0001184923
0.0001183773
0.000118266
4.983896e-05
4.975308e-05
4.966462e-05
4.957409e-05
4.948119e-05
3.224879e-05
3.218653e-05
3.212014e-05
3.20437e-05
0.0001189101
0.0001187962
0.0001186818
0.0001185688
0.000118458
4.992274e-05
4.983957e-05
4.975379e-05
4.966559e-05
4.957524e-05
3.231125e-05
3.225145e-05
3.218841e-05
3.21232e-05
3.20514e-05
0.0001148825
0.000202654
0.0002022404
0.0002018058
0.0002013505
0.0002008728
0.0002003674
0.0001998315
0.0001992682
0.0001987308
0.0001983905
0.0001156344
0.0001143686
0.000202995
0.0002025538
0.0002021006
0.0002016416
0.0002011796
0.0002007158
0.0002002523
0.0001998088
0.000199448
0.000199375
0.0001162882
0.0001156781
0.0001140898
0.0002033256
0.0002028697
0.0002024091
0.0002019553
0.0002015179
0.0002011046
0.0002007267
0.0002004045
0.0002001947
0.0002002248
0.0001168073
0.0001163941
0.0001157429
0.0001141511
0.000203646
0.000203189
0.0002027319
0.0002022901
0.0002018772
0.0002015067
0.0002011932
0.0002009586
0.00020084
0.000200917
0.0001172085
0.0001169083
0.0001165081
0.0001158853
0.0001144796
0.0002039564
0.0002035112
0.000203068
0.000202644
0.0002022547
0.0002019154
0.000201643
0.000201457
0.0002013853
0.00020147
0.0001175247
0.0001172852
0.0001170058
0.0001166438
0.0001161006
4.83686e-05
0.0002042568
0.000203835
0.0002034154
0.0002030146
0.0002026479
0.0002023307
0.0002020793
0.0002019123
0.0002018511
0.0002019233
0.0001177767
0.0001175728
0.0001173506
0.0001171014
0.0001167925
4.903298e-05
4.838458e-05
0.0002045472
0.0002041587
0.000203771
0.0002033984
0.0002030542
0.000202752
0.0002025068
0.0002023359
0.0002022599
0.0002023016
0.0001179837
0.0001177972
0.0001176056
0.0001174049
0.0001171891
4.93058e-05
4.905368e-05
4.844612e-05
0.0002048273
0.0002044803
0.0002041311
0.0002037907
0.000203469
0.0002031767
0.0002029262
0.0002027337
0.000202621
0.0002026177
0.0001181538
0.0001179768
0.0001177998
0.0001176246
0.0001174471
4.945525e-05
4.931086e-05
4.908373e-05
4.854693e-05
0.000205097
0.0002047972
0.0002044911
0.0002041852
0.0002038858
0.0002035995
0.0002033347
0.0002031046
0.0002029324
0.0002028631
0.0001182871
0.0001181168
0.0001179508
0.0001177907
0.0001176362
4.95515e-05
4.94443e-05
4.931206e-05
4.911635e-05
4.86746e-05
0.0002053559
0.0002051059
0.0002048444
0.0002045737
0.0002042959
0.0002040127
0.0002037272
0.000203445
0.0002031819
0.0002029948
0.0001183703
0.000118213
0.0001180633
0.0001179217
0.0001177868
4.962473e-05
4.952946e-05
4.942685e-05
4.930687e-05
4.91434e-05
3.187246e-05
0.0001183589
0.0001182625
0.0001181536
0.0001180406
0.0001179288
4.969148e-05
4.960105e-05
4.950685e-05
4.940806e-05
4.929807e-05
3.210252e-05
3.19494e-05
0.0001185399
0.0001184285
0.0001183157
0.000118204
0.0001180952
4.976497e-05
4.967689e-05
4.958637e-05
4.949297e-05
4.93965e-05
3.21878e-05
3.21125e-05
3.19994e-05
0.0001187288
0.0001186143
0.0001184995
0.0001183867
0.0001182768
4.984391e-05
4.975828e-05
4.967005e-05
4.957968e-05
4.948673e-05
3.225205e-05
3.218861e-05
3.211862e-05
3.202929e-05
0.0001189104
0.0001187978
0.0001186845
0.0001185724
0.0001184623
4.992475e-05
4.984169e-05
4.975602e-05
4.966793e-05
4.957765e-05
3.231281e-05
3.225286e-05
3.218931e-05
3.212254e-05
3.204516e-05
0.0001190834
0.0001189748
0.0001188649
0.0001187554
0.0001186466
5.000546e-05
4.992523e-05
4.984223e-05
4.975677e-05
4.966877e-05
3.237375e-05
3.231494e-05
3.225389e-05
3.219046e-05
3.212441e-05
0.0001150017
0.0001154524
0.0001150117
0.0002030255
0.0002026354
0.0002022266
0.0002018011
0.0002013588
0.0002008995
0.000200423
0.0001999389
0.0001994834
0.0001992112
0.0001162123
0.0001157758
0.0001147031
0.0002033476
0.0002029308
0.0002025043
0.0002020752
0.0002016495
0.0002012322
0.0002008325
0.0002004688
0.0002001952
0.0002001414
0.0001167558
0.0001163996
0.0001158706
0.0001145763
0.0002036601
0.0002032288
0.0002027942
0.0002023683
0.0002019621
0.0002015866
0.0002012553
0.0002009905
0.0002008325
0.0002008665
0.0001171734
0.0001168902
0.0001165266
0.0001159757
0.0001147204
0.0002039631
0.0002035303
0.0002030981
0.0002026817
0.0002022953
0.0002019531
0.0002016712
0.0002014698
0.000201379
0.0002014449
0.0001175066
0.0001172706
0.0001169995
0.0001166536
0.0001161398
4.841577e-05
0.0002042568
0.000203835
0.0002034154
0.0002030146
0.0002026479
0.0002023307
0.0002020793
0.0002019123
0.0002018511
0.0002019233
0.0001177767
0.0001175728
0.0001173506
0.0001171014
0.0001167925
4.903298e-05
4.838458e-05
0.0002045411
0.0002041414
0.0002037439
0.0002033645
0.0002030179
0.0002027189
0.0002024832
0.0002023275
0.0002022702
0.0002023291
0.0001180029
0.0001178165
0.0001176235
0.0001174192
0.000117197
4.930415e-05
4.90398e-05
4.840037e-05
0.0002048159
0.0002044479
0.0002040806
0.0002037276
0.0002034018
0.0002031159
0.0002028841
0.0002027223
0.0002026482
0.0002026799
0.0001181947
0.0001180186
0.0001178404
0.000117661
0.0001174757
4.946304e-05
4.930972e-05
4.906012e-05
4.846121e-05
0.0002050809
0.0002047524
0.0002044217
0.0002040993
0.0002037946
0.0002035178
0.0002032805
0.0002030975
0.0002029886
0.0002029791
0.0001183567
0.0001181866
0.0001180177
0.0001178513
0.0001176868
4.956956e-05
4.945806e-05
4.931462e-05
4.908978e-05
4.856039e-05
0.0002053358
0.0002050524
0.0002047628
0.0002044732
0.0002041898
0.0002039186
0.0002036678
0.0002034494
0.0002032849
0.000203215
0.0001184856
0.0001183216
0.000118161
0.0001180059
0.0001178553
4.965048e-05
4.955403e-05
4.944728e-05
4.931596e-05
4.912181e-05
3.179238e-05
0.0002055803
0.0002053444
0.0002050972
0.0002048413
0.0002045784
0.0002043103
0.00020404
0.0002037726
0.0002035231
0.000203344
0.0001185678
0.0001184164
0.0001182712
0.0001181324
0.0001179988
4.971753e-05
4.962744e-05
4.953246e-05
4.943039e-05
4.931098e-05
3.209381e-05
3.187981e-05
0.0001185609
0.0001184673
0.0001183608
0.0001182492
0.0001181368
4.978197e-05
4.969452e-05
4.960436e-05
4.951061e-05
4.941218e-05
3.219411e-05
3.210754e-05
3.19536e-05
0.0001187325
0.0001186256
0.0001185162
0.0001184065
0.0001182978
4.985313e-05
4.976793e-05
4.96801e-05
4.958999e-05
4.949688e-05
3.225796e-05
3.21923e-05
3.211565e-05
3.200233e-05
0.0001189116
0.000118802
0.0001186914
0.0001185813
0.0001184726
4.992946e-05
4.984664e-05
4.976122e-05
4.967335e-05
4.958323e-05
3.231641e-05
3.225612e-05
3.219138e-05
3.2121e-05
3.203077e-05
0.0001190837
0.0001189763
0.0001188674
0.0001187588
0.0001186507
5.000739e-05
4.992725e-05
4.984436e-05
4.975901e-05
4.967111e-05
3.237532e-05
3.231651e-05
3.22553e-05
3.219136e-05
3.212373e-05
0.0001192477
0.0001191444
0.0001190392
0.0001189335
0.0001188274
5.008507e-05