/*--------------------------------*- C++ -*----------------------------------*\
| =========                 |                                                 |
| \\      /  F ield         | OpenFOAM: The Open Source CFD Toolbox           |
|  \\    /   O peration     | Version:  2306                                  |
|   \\  /    A nd           | Website:  www.openfoam.com                      |
|    \\/     M anipulation  |                                                 |
\*---------------------------------------------------------------------------*/
FoamFile
{
    version     2.0;
    format      ascii;
    arch        "LSB;label=32;scalar=64";
    class       volScalarField;
    location    "0.6/air";
    object      N2;
}
// * * * * * * * * * * * * * * * * * * * * * * * * * * * * * * * * * * * * * //

dimensions      [0 0 0 0 0 0 0];

internalField   nonuniform List<scalar> 
16000
(
0.7699419
0.7699225
0.7710206
0.7699561
0.7698986
0.7709535
0.7699278
0.7724791
0.7711114
0.7700112
0.7698796
0.7708679
0.7698952
0.7723691
0.7710183
0.769969
0.7743161
0.7726189
0.7713526
0.7701433
0.7698694
0.7707964
0.7698707
0.7722177
0.7709074
0.7699217
0.7742034
0.7724761
0.7712185
0.7700826
0.7761919
0.7744648
0.7729666
0.7718144
0.7704065
0.7698694
0.7707568
0.7698581
0.772083
0.7708188
0.7698882
0.7740486
0.7722871
0.7710629
0.770015
0.7760802
0.774319
0.7727856
0.7716322
0.7703222
0.7780293
0.7763396
0.7748337
0.7735825
0.7725712
0.7708829
0.8084503
0.7698796
0.7707568
0.7698581
0.7720055
0.7707711
0.7698719
0.7739107
0.7721231
0.7709417
0.7699673
0.7759271
0.7741271
0.7725474
0.7714125
0.7702244
0.7779217
0.7761955
0.7746492
0.773364
0.7723397
0.7707688
0.7798016
0.7781725
0.7767048
0.7754845
0.7745227
0.7737004
0.7716911
0.8071025
0.8099609
0.8086636
0.7698986
0.7707964
0.7698707
0.7720055
0.7707711
0.7698719
0.773831
0.77203
0.7708778
0.7699434
0.7757907
0.7739604
0.7723421
0.7712401
0.7701514
0.777774
0.7760063
0.7744099
0.7730803
0.7720532
0.7706274
0.7796985
0.7780338
0.7765242
0.7752659
0.7742687
0.7734185
0.7715364
0.7815009
0.7799387
0.7785264
0.7773459
0.7764659
0.775838
0.7752799
0.7730033
0.8043795
0.8087489
0.8073209
0.810302
0.8101568
0.8090895
0.7699225
0.7708679
0.7698952
0.772083
0.7708188
0.7698882
0.773831
0.77203
0.7708778
0.7699434
0.7757121
0.7738653
0.772226
0.7711501
0.7701134
0.7776425
0.7758421
0.7742039
0.7728346
0.7718189
0.7705144
0.7795571
0.7778518
0.7762904
0.7749817
0.773938
0.7730629
0.7713314
0.7814025
0.7798059
0.7783532
0.7771348
0.7762202
0.7755504
0.7749405
0.772772
0.7831295
0.781632
0.7802773
0.7791465
0.778306
0.7778125
0.7775716
0.7773918
0.7750873
0.80018
0.806306
0.8046154
0.8091706
0.8089486
0.8077557
0.8103926
0.8104835
0.8105479
0.8097267
0.7699419
0.7709535
0.7699278
0.7722177
0.7709074
0.7699217
0.7739107
0.7721231
0.7709417
0.7699673
0.7757121
0.7738653
0.772226
0.7711501
0.7701134
0.7775667
0.7757486
0.7740872
0.7726943
0.7716912
0.7704531
0.7794314
0.7776938
0.7760895
0.7747369
0.773654
0.772766
0.7711595
0.7812676
0.7796318
0.7781291
0.7768608
0.775898
0.7751729
0.7745057
0.7724598
0.7830354
0.7815052
0.7801118
0.7789451
0.7780725
0.7775448
0.7772461
0.7769649
0.7746549
0.7846921
0.7832547
0.7819557
0.7808702
0.7800722
0.7796126
0.7795476
0.7797643
0.7801359
0.7784352
0.7941087
0.8025558
0.8004821
0.806891
0.8065196
0.8050795
0.8093303
0.8093555
0.8093464
0.8084037
0.8104624
0.8105627
0.8108461
0.8111333
0.8105735
0.7710206
0.7699561
0.7723691
0.7710183
0.769969
0.7740486
0.7722871
0.7710629
0.770015
0.7757907
0.7739604
0.7723421
0.7712401
0.7701514
0.7775667
0.7757486
0.7740872
0.7726943
0.7716912
0.7704531
0.7793589
0.7776037
0.7759758
0.7745982
0.7734935
0.7726013
0.7710638
0.7811475
0.7794808
0.7779365
0.7766252
0.7756191
0.7748474
0.7741394
0.7721978
0.7829064
0.7813391
0.7798979
0.7786839
0.7777667
0.7771895
0.7768155
0.7764205
0.7741343
0.7846019
0.7831336
0.7817977
0.7806782
0.7798509
0.7793617
0.7792535
0.7793719
0.7795165
0.7773919
0.7861942
0.784812
0.7835642
0.7825224
0.7817544
0.7813276
0.7812816
0.7816915
0.7824758
0.7836955
0.7842161
0.7971791
0.7947322
0.8033941
0.8028236
0.8010446
0.8071905
0.8070883
0.8069402
0.8057606
0.8094578
0.8095034
0.8097237
0.8099397
0.8092617
0.8106352
0.810623
0.8109024
0.8113887
0.8119119
0.8117978
0.7724791
0.7711114
0.7700112
0.7742034
0.7724761
0.7712185
0.7700826
0.7759271
0.7741271
0.7725474
0.7714125
0.7702244
0.7776425
0.7758421
0.7742039
0.7728346
0.7718189
0.7705144
0.7793589
0.7776037
0.7759758
0.7745982
0.7734935
0.7726013
0.7710638
0.7810783
0.7793947
0.7778275
0.776492
0.7754607
0.7746635
0.773935
0.7720525
0.7827916
0.7811949
0.7797142
0.7784594
0.7775025
0.7768799
0.7764436
0.7759659
0.7737281
0.7844784
0.7829747
0.7815936
0.7804295
0.7795614
0.7790296
0.7788595
0.7788595
0.778785
0.7764614
0.7861077
0.784696
0.7834131
0.7823391
0.7815438
0.7810913
0.7810085
0.7813402
0.7819127
0.782539
0.781167
0.7876413
0.7863094
0.7851085
0.7841059
0.7833674
0.782952
0.7829253
0.7833281
0.784288
0.7858571
0.7885567
0.7871005
0.7983862
0.7977162
0.7956617
0.8039093
0.8036409
0.8033243
0.8018241
0.8074345
0.8073749
0.8074767
0.8075586
0.8066484
0.8096813
0.8096212
0.8098482
0.810273
0.8107259
0.8104975
0.8108909
0.8107878
0.8109439
0.811411
0.8121104
0.8130379
0.8120503
0.7743161
0.7726189
0.7713526
0.7701433
0.7760802
0.774319
0.7727856
0.7716322
0.7703222
0.777774
0.7760063
0.7744099
0.7730803
0.7720532
0.7706274
0.7794314
0.7776938
0.7760895
0.7747369
0.773654
0.772766
0.7711595
0.7810783
0.7793947
0.7778275
0.776492
0.7754607
0.7746635
0.773935
0.7720525
0.7827255
0.7811128
0.7796103
0.7783324
0.7773526
0.7767036
0.7762334
0.7757141
0.7735119
0.7843685
0.7828369
0.7814184
0.7802159
0.7793113
0.7787408
0.7785156
0.7784236
0.7782039
0.7758328
0.7859891
0.7845438
0.7832179
0.7821019
0.7812687
0.7807787
0.7806437
0.7808766
0.7812394
0.7814585
0.7795613
0.787558
0.7861979
0.7849637
0.7839306
0.7831664
0.7827275
0.7826689
0.7830019
0.7837763
0.7847915
0.7857023
0.7835108
0.7890381
0.7877521
0.7865939
0.7856275
0.7849138
0.7845118
0.7844748
0.7848774
0.7857925
0.7874765
0.7903682
0.7909969
0.7893457
0.7992134
0.7988817
0.7985225
0.7967432
0.8043328
0.8041398
0.8041022
0.8040213
0.802788
0.8077603
0.8076085
0.8077382
0.808048
0.8083663
0.80791
0.8099811
0.8098365
0.8099468
0.8103627
0.811001
0.8118593
0.8107523
0.8112293
0.8110364
0.8110925
0.8114243
0.8120875
0.8131546
0.8132702
0.8123049
0.7761919
0.7744648
0.7729666
0.7718144
0.7704065
0.7779217
0.7761955
0.7746492
0.773364
0.7723397
0.7707688
0.7795571
0.7778518
0.7762904
0.7749817
0.773938
0.7730629
0.7713314
0.7811475
0.7794808
0.7779365
0.7766252
0.7756191
0.7748474
0.7741394
0.7721978
0.7827255
0.7811128
0.7796103
0.7783324
0.7773526
0.7767036
0.7762334
0.7757141
0.7735119
0.7843052
0.7827585
0.7813192
0.7800952
0.7791694
0.7785765
0.7783197
0.7781798
0.7778906
0.7755209
0.7858836
0.7844118
0.7830505
0.7818983
0.7810314
0.7805068
0.780326
0.7804788
0.7806982
0.7806914
0.7786384
0.787444
0.7860519
0.7847767
0.7837037
0.7829041
0.7824308
0.7823264
0.7825728
0.7831618
0.7837941
0.7840785
0.7815577
0.7889578
0.7876448
0.7864549
0.7854594
0.7847214
0.7842975
0.7842311
0.7845707
0.7853137
0.7864879
0.7877139
0.7876868
0.7855894
0.7903887
0.7891448
0.7880258
0.7870923
0.7864019
0.7860083
0.7859668
0.7863345
0.7872213
0.7888087
0.7917004
0.7926284
0.7929082
0.7911847
0.7998952
0.7996761
0.7996246
0.7994682
0.7979032
0.8048158
0.80455
0.8045705
0.8047443
0.8048873
0.8040981
0.808149
0.8079254
0.8079512
0.8082725
0.8087943
0.8095164
0.8081701
0.8103589
0.810129
0.8101456
0.8104325
0.8110446
0.8120508
0.8120931
0.8110093
0.8116285
0.8113685
0.811327
0.8115488
0.8120634
0.8130663
0.8133699
0.8135044
0.8125617
0.7780293
0.7763396
0.7748337
0.7735825
0.7725712
0.7708829
0.7796985
0.7780338
0.7765242
0.7752659
0.7742687
0.7734185
0.7715364
0.7812676
0.7796318
0.7781291
0.7768608
0.775898
0.7751729
0.7745057
0.7724598
0.7827916
0.7811949
0.7797142
0.7784594
0.7775025
0.7768799
0.7764436
0.7759659
0.7737281
0.7843052
0.7827585
0.7813192
0.7800952
0.7791694
0.7785765
0.7783197
0.7781798
0.7778906
0.7755209
0.7858228
0.7843367
0.7829558
0.7817832
0.7808969
0.7803522
0.7801454
0.7802549
0.7804048
0.7802992
0.7782084
0.7873425
0.7859252
0.7846163
0.7835091
0.7826779
0.7821733
0.7820281
0.7822056
0.7826661
0.7830829
0.7830896
0.780462
0.7888478
0.7875043
0.7862753
0.785242
0.7844704
0.7840145
0.783906
0.7841671
0.784741
0.7855643
0.7862035
0.7857802
0.7834102
0.7903111
0.7890414
0.7878919
0.7869307
0.7862173
0.7858028
0.785734
0.7860424
0.7867689
0.7878774
0.7892168
0.7895452
0.7894554
0.7874122
0.7916967
0.7904918
0.7894087
0.7885053
0.787836
0.7874515
0.7874004
0.7877439
0.7885674
0.7900844
0.7927975
0.7938147
0.7943938
0.7944857
0.792739
0.8006039
0.8003313
0.8003694
0.8004946
0.8004912
0.7993035
0.805341
0.8050217
0.804956
0.8051701
0.8055419
0.8060694
0.8043676
0.8086061
0.8083063
0.8082505
0.8084553
0.8089707
0.8098571
0.8097535
0.8084321
0.8107933
0.8105004
0.8104237
0.8106068
0.8110765
0.8120281
0.8122673
0.8123288
0.8112684
0.8120787
0.8117621
0.8116466
0.8117622
0.8121559
0.8129882
0.8132682
0.8135871
0.8137407
0.8128206
0.7798016
0.7781725
0.7767048
0.7754845
0.7745227
0.7737004
0.7716911
0.7814025
0.7798059
0.7783532
0.7771348
0.7762202
0.7755504
0.7749405
0.772772
0.7829064
0.7813391
0.7798979
0.7786839
0.7777667
0.7771895
0.7768155
0.7764205
0.7741343
0.7843685
0.7828369
0.7814184
0.7802159
0.7793113
0.7787408
0.7785156
0.7784236
0.7782039
0.7758328
0.7858228
0.7843367
0.7829558
0.7817832
0.7808969
0.7803522
0.7801454
0.7802549
0.7804048
0.7802992
0.7782084
0.787284
0.7858531
0.7845256
0.7833991
0.7825497
0.7820269
0.7818585
0.7819994
0.7823964
0.782718
0.7826125
0.7799606
0.78875
0.7873824
0.7861212
0.7850555
0.7842541
0.7837689
0.7836234
0.7838218
0.7842805
0.7849059
0.785282
0.784657
0.7821828
0.7902049
0.7889059
0.7877191
0.7867217
0.7859765
0.7855317
0.7854235
0.7856588
0.7862279
0.7870099
0.787807
0.7877676
0.7873624
0.7851041
0.7916217
0.7903919
0.7892796
0.7883497
0.7876583
0.787254
0.7871769
0.7874645
0.788136
0.7892013
0.7904518
0.7909262
0.7911733
0.791014
0.7889968
0.7929655
0.7917964
0.7907466
0.789871
0.7892212
0.7888444
0.7887871
0.7891018
0.7898779
0.7912959
0.7938682
0.794793
0.7954642
0.7958464
0.7958311
0.7942791
0.8013249
0.8010172
0.8009846
0.8011809
0.8014342
0.8017364
0.7995902
0.80592
0.8055371
0.8054065
0.8055211
0.8059149
0.8066306
0.8063127
0.8046388
0.8091117
0.8087565
0.8086162
0.8087289
0.8091141
0.8099651
0.8100761
0.8099924
0.8086962
0.8112756
0.8109291
0.8107823
0.8108635
0.8112183
0.8120053
0.8122309
0.8124856
0.8125665
0.8115296
0.8125673
0.8122072
0.812029
0.8120631
0.8123413
0.8130343
0.8131789
0.8134718
0.8138062
0.8139789
0.8131365
0.7815009
0.7799387
0.7785264
0.7773459
0.7764659
0.775838
0.7752799
0.7730033
0.7830354
0.7815052
0.7801118
0.7789451
0.7780725
0.7775448
0.7772461
0.7769649
0.7746549
0.7844784
0.7829747
0.7815936
0.7804295
0.7795614
0.7790296
0.7788595
0.7788595
0.778785
0.7764614
0.7858836
0.7844118
0.7830505
0.7818983
0.7810314
0.7805068
0.780326
0.7804788
0.7806982
0.7806914
0.7786384
0.787284
0.7858531
0.7845256
0.7833991
0.7825497
0.7820269
0.7818585
0.7819994
0.7823964
0.782718
0.7826125
0.7799606
0.7886936
0.787313
0.7860342
0.7849501
0.7841315
0.7836293
0.7834629
0.7836279
0.7840305
0.784568
0.7848367
0.7841264
0.7816247
0.7901105
0.7887884
0.7875709
0.7865425
0.7857689
0.7852966
0.7851537
0.785331
0.7857931
0.7863933
0.7869481
0.7867187
0.7861343
0.7837896
0.791519
0.790261
0.7891129
0.7881485
0.7874267
0.7869936
0.7868791
0.7870975
0.7876206
0.788379
0.7891224
0.7892631
0.7892183
0.7888116
0.7866333
0.7928929
0.7916997
0.7906218
0.7897208
0.78905
0.7886542
0.788572
0.7888332
0.7894648
0.7904533
0.7916415
0.7920637
0.7924444
0.7926035
0.7923759
0.7905761
0.7941977
0.7930621
0.7920428
0.7911931
0.7905614
0.7901923
0.7901284
0.7904204
0.7911464
0.7924864
0.7949026
0.7957606
0.7963485
0.7968194
0.7970806
0.7971778
0.7945919
0.8020785
0.8017184
0.8016362
0.801749
0.8020569
0.8025761
0.8019915
0.7998774
0.8065346
0.8061074
0.8059037
0.8059423
0.8062231
0.8069316
0.8068547
0.8065575
0.8049116
0.8096584
0.8092559
0.809053
0.8090721
0.809354
0.8100523
0.81017
0.8102969
0.8102332
0.8089623
0.8117934
0.8114061
0.8111996
0.8112031
0.8114467
0.8121002
0.8121968
0.8124355
0.8127057
0.8128061
0.8118482
0.813087
0.8126912
0.8124639
0.8124286
0.8126173
0.8131792
0.8132155
0.8133713
0.8136772
0.8140271
0.8142694
0.81346
0.7831295
0.781632
0.7802773
0.7791465
0.778306
0.7778125
0.7775716
0.7773918
0.7750873
0.7846019
0.7831336
0.7817977
0.7806782
0.7798509
0.7793617
0.7792535
0.7793719
0.7795165
0.7773919
0.7859891
0.7845438
0.7832179
0.7821019
0.7812687
0.7807787
0.7806437
0.7808766
0.7812394
0.7814585
0.7795613
0.7873425
0.7859252
0.7846163
0.7835091
0.7826779
0.7821733
0.7820281
0.7822056
0.7826661
0.7830829
0.7830896
0.780462
0.7886936
0.787313
0.7860342
0.7849501
0.7841315
0.7836293
0.7834629
0.7836279
0.7840305
0.784568
0.7848367
0.7841264
0.7816247
0.7900561
0.7887215
0.7874871
0.7864413
0.7856514
0.7851631
0.7850005
0.7851472
0.7855571
0.7860775
0.7865332
0.7862225
0.7855598
0.7831922
0.7914276
0.7901475
0.7889699
0.7879759
0.7872271
0.7867678
0.7866205
0.7867842
0.7872069
0.7877948
0.7883141
0.7882828
0.7880694
0.7875116
0.7852752
0.7927934
0.7915731
0.7904608
0.7895266
0.7888267
0.7884034
0.7882856
0.7884809
0.7889715
0.7896691
0.7903797
0.7904936
0.7906126
0.790543
0.7901214
0.7882158
0.7941272
0.7929685
0.7919221
0.7910479
0.7903959
0.7900088
0.789921
0.7901618
0.7907494
0.7916797
0.7927784
0.7931692
0.7934942
0.7937764
0.7938484
0.7937402
0.7908969
0.7953963
0.7942914
0.7933008
0.7924748
0.7918601
0.7914982
0.7914295
0.7916996
0.7923845
0.7936474
0.7959354
0.796706
0.7972351
0.7976255
0.7979692
0.7983106
0.7974515
0.7949027
0.8028492
0.8024546
0.8023079
0.8023604
0.8025738
0.803121
0.8028101
0.8022471
0.8001649
0.8071802
0.8067143
0.8064578
0.806414
0.8066079
0.8071812
0.8071409
0.8070801
0.8068039
0.805186
0.8102349
0.8097971
0.8095402
0.809489
0.8096679
0.8102444
0.8102457
0.8103766
0.8105194
0.8104758
0.8092866
0.8123398
0.8119192
0.8116663
0.8116034
0.8117611
0.8122877
0.8122821
0.8123899
0.8126417
0.8129277
0.8130984
0.8121745
0.8136306
0.8132066
0.8129386
0.8128483
0.8129604
0.8134191
0.813352
0.8133982
0.8135653
0.8138842
0.8142965
0.8145669
0.8137064
0.7846921
0.7832547
0.7819557
0.7808702
0.7800722
0.7796126
0.7795476
0.7797643
0.7801359
0.7784352
0.7861077
0.784696
0.7834131
0.7823391
0.7815438
0.7810913
0.7810085
0.7813402
0.7819127
0.782539
0.781167
0.787444
0.7860519
0.7847767
0.7837037
0.7829041
0.7824308
0.7823264
0.7825728
0.7831618
0.7837941
0.7840785
0.7815577
0.78875
0.7873824
0.7861212
0.7850555
0.7842541
0.7837689
0.7836234
0.7838218
0.7842805
0.7849059
0.785282
0.784657
0.7821828
0.7900561
0.7887215
0.7874871
0.7864413
0.7856514
0.7851631
0.7850005
0.7851472
0.7855571
0.7860775
0.7865332
0.7862225
0.7855598
0.7831922
0.7913749
0.790083
0.7888891
0.7878785
0.7871141
0.7866396
0.7864737
0.7866084
0.7869826
0.7874956
0.7879242
0.7878193
0.7875311
0.7869054
0.7846574
0.7927049
0.7914634
0.7903227
0.7893601
0.7886344
0.788186
0.7880369
0.7881801
0.7885755
0.7891124
0.7896128
0.7895693
0.7895369
0.7893247
0.7887822
0.7868556
0.7940307
0.7928458
0.7917663
0.7908602
0.7901803
0.7897668
0.7896448
0.7898225
0.7902754
0.7909288
0.7915747
0.7916784
0.7917637
0.7918436
0.7917355
0.7914767
0.7885377
0.7953278
0.7942005
0.7931839
0.7923343
0.7917
0.7913208
0.791229
0.79145
0.7920021
0.7928726
0.7939025
0.7942338
0.7945245
0.7947482
0.794934
0.7950888
0.7940173
0.7912155
0.7965628
0.7954872
0.794523
0.7937194
0.7931202
0.7927655
0.7926923
0.7929441
0.7935903
0.7947883
0.7969556
0.7976596
0.7981107
0.798445
0.7987078
0.7991129
0.7985605
0.7977235
0.7952114
0.8036364
0.8032097
0.8030178
0.8029975
0.8031418
0.8035752
0.8033389
0.8030444
0.8025031
0.8004529
0.8078468
0.8073529
0.8070502
0.8069457
0.807048
0.8075164
0.8073784
0.8073514
0.8073069
0.8070517
0.8055199
0.8108353
0.8103686
0.8100704
0.8099585
0.8100589
0.8105166
0.8104279
0.8104406
0.8105848
0.8107437
0.8107717
0.8096189
0.8129081
0.8124613
0.8121699
0.8120546
0.8121387
0.8125658
0.8124612
0.8124655
0.8125847
0.8128496
0.8131984
0.8133976
0.8124231
0.814193
0.8137462
0.8134454
0.813309
0.8133598
0.8137299
0.8135845
0.8135263
0.8135825
0.8137609
0.8141368
0.8145722
0.8147933
0.8138739
0.7861942
0.784812
0.7835642
0.7825224
0.7817544
0.7813276
0.7812816
0.7816915
0.7824758
0.7836955
0.7842161
0.787558
0.7861979
0.7849637
0.7839306
0.7831664
0.7827275
0.7826689
0.7830019
0.7837763
0.7847915
0.7857023
0.7835108
0.7888478
0.7875043
0.7862753
0.785242
0.7844704
0.7840145
0.783906
0.7841671
0.784741
0.7855643
0.7862035
0.7857802
0.7834102
0.7901105
0.7887884
0.7875709
0.7865425
0.7857689
0.7852966
0.7851537
0.785331
0.7857931
0.7863933
0.7869481
0.7867187
0.7861343
0.7837896
0.7913749
0.790083
0.7888891
0.7878785
0.7871141
0.7866396
0.7864737
0.7866084
0.7869826
0.7874956
0.7879242
0.7878193
0.7875311
0.7869054
0.7846574
0.7926539
0.7914009
0.7902447
0.7892661
0.7885255
0.7880626
0.7878957
0.7880115
0.7883608
0.7888274
0.789243
0.7891329
0.7890332
0.7887557
0.7881579
0.7862366
0.7939449
0.7927395
0.7916327
0.7906993
0.7899946
0.7895571
0.789405
0.789533
0.7898951
0.7903957
0.7908433
0.7908011
0.7907483
0.7907014
0.7904782
0.7901285
0.7871775
0.7952341
0.7940816
0.7930329
0.7921526
0.7914915
0.7910869
0.7909622
0.7911226
0.7915456
0.7921514
0.7927501
0.7928115
0.792881
0.7929213
0.7929503
0.792963
0.7917524
0.788858
0.7964962
0.795399
0.7944094
0.7935831
0.7929652
0.7925936
0.7924983
0.7927027
0.7932212
0.7940425
0.7950042
0.7952937
0.7955246
0.7957121
0.7958369
0.796085
0.7953407
0.7942927
0.791532
0.7977002
0.7966512
0.7957122
0.794929
0.7943448
0.7939966
0.79392
0.7941551
0.7947678
0.7959057
0.797969
0.7986093
0.7990023
0.7992628
0.79947
0.7997829
0.7993453
0.7988089
0.7979939
0.7955182
0.804432
0.8039828
0.8037496
0.8036768
0.8037415
0.8040904
0.8037803
0.8035573
0.8032792
0.8027596
0.8008017
0.8085298
0.8080132
0.8076758
0.807518
0.8075518
0.8079134
0.8077033
0.8075768
0.8075632
0.8075352
0.8073534
0.805862
0.8114532
0.8109643
0.8106319
0.8104725
0.8105051
0.8108706
0.8106916
0.8106129
0.810637
0.8107946
0.8110171
0.8110746
0.8098721
0.8134933
0.8130255
0.8127033
0.8125441
0.8125694
0.8129108
0.8127318
0.8126361
0.8126504
0.812781
0.8131032
0.8134754
0.8136253
0.8125921
0.8147703
0.814305
0.8139772
0.8138031
0.8138021
0.8141
0.8138886
0.8137513
0.813702
0.8137683
0.8139995
0.8143952
0.814782
0.8149471
0.8139598
0.7941087
0.7876413
0.7863094
0.7851085
0.7841059
0.7833674
0.782952
0.7829253
0.7833281
0.784288
0.7858571
0.7885567
0.7871005
0.7889578
0.7876448
0.7864549
0.7854594
0.7847214
0.7842975
0.7842311
0.7845707
0.7853137
0.7864879
0.7877139
0.7876868
0.7855894
0.7902049
0.7889059
0.7877191
0.7867217
0.7859765
0.7855317
0.7854235
0.7856588
0.7862279
0.7870099
0.787807
0.7877676
0.7873624
0.7851041
0.7914276
0.7901475
0.7889699
0.7879759
0.7872271
0.7867678
0.7866205
0.7867842
0.7872069
0.7877948
0.7883141
0.7882828
0.7880694
0.7875116
0.7852752
0.7926539
0.7914009
0.7902447
0.7892661
0.7885255
0.7880626
0.7878957
0.7880115
0.7883608
0.7888274
0.789243
0.7891329
0.7890332
0.7887557
0.7881579
0.7862366
0.7938954
0.792679
0.7915572
0.7906085
0.7898895
0.789438
0.789269
0.7893707
0.789689
0.7901229
0.7904907
0.7903868
0.7902732
0.7901682
0.7898912
0.7894998
0.7865585
0.7951507
0.7939784
0.7929034
0.7919968
0.7913119
0.7908842
0.7907307
0.7908433
0.7911794
0.7916394
0.7920498
0.7919745
0.7919168
0.7918423
0.7917702
0.7916942
0.7904027
0.7874983
0.796405
0.7952834
0.7942629
0.793407
0.7927632
0.7923672
0.7922402
0.7923862
0.7927807
0.7933481
0.7938977
0.793932
0.7939564
0.7939767
0.793961
0.7940872
0.7932127
0.7920268
0.7891768
0.7976354
0.7965654
0.7956019
0.7947967
0.7941944
0.79383
0.793732
0.7939213
0.794411
0.7951863
0.7960916
0.7963383
0.7965274
0.7966554
0.7967427
0.7969177
0.7963187
0.795591
0.7945664
0.7918464
0.7988091
0.7977863
0.7968699
0.7961065
0.7955358
0.7951943
0.7951145
0.7953349
0.7959171
0.7970021
0.7989704
0.7995587
0.7998967
0.8001034
0.8002386
0.8004877
0.8000013
0.7995761
0.7990557
0.7982627
0.7958869
0.8052332
0.8047655
0.8045017
0.8043813
0.8043877
0.8046445
0.8042847
0.8039858
0.803776
0.8035144
0.8030705
0.8011592
0.8092239
0.8086903
0.8083242
0.8081253
0.8080991
0.8083791
0.8080915
0.8078914
0.8077764
0.8077764
0.807813
0.8076623
0.8061228
0.8120844
0.8115779
0.8112184
0.8110193
0.8109981
0.8112837
0.8110379
0.8108679
0.8107993
0.810835
0.8110504
0.8112969
0.8113052
0.8100443
0.8140918
0.813607
0.8132595
0.8130645
0.8130402
0.813312
0.81307
0.8128991
0.8128124
0.8128369
0.8130205
0.8133627
0.8136862
0.8137801
0.8126787
0.8153595
0.8148789
0.8145287
0.8143231
0.8142792
0.8145154
0.8142526
0.8140486
0.8139195
0.8138793
0.8139949
0.8142435
0.8145917
0.8149244
0.8150258
0.80018
0.7971791
0.7947322
0.7890381
0.7877521
0.7865939
0.7856275
0.7849138
0.7845118
0.7844748
0.7848774
0.7857925
0.7874765
0.7903682
0.7909969
0.7893457
0.7903111
0.7890414
0.7878919
0.7869307
0.7862173
0.7858028
0.785734
0.7860424
0.7867689
0.7878774
0.7892168
0.7895452
0.7894554
0.7874122
0.791519
0.790261
0.7891129
0.7881485
0.7874267
0.7869936
0.7868791
0.7870975
0.7876206
0.788379
0.7891224
0.7892631
0.7892183
0.7888116
0.7866333
0.7927049
0.7914634
0.7903227
0.7893601
0.7886344
0.788186
0.7880369
0.7881801
0.7885755
0.7891124
0.7896128
0.7895693
0.7895369
0.7893247
0.7887822
0.7868556
0.7938954
0.792679
0.7915572
0.7906085
0.7898895
0.789438
0.789269
0.7893707
0.789689
0.7901229
0.7904907
0.7903868
0.7902732
0.7901682
0.7898912
0.7894998
0.7865585
0.7951027
0.7939197
0.7928303
0.7919089
0.7912103
0.7907691
0.7905994
0.7906867
0.7909809
0.7913774
0.7917121
0.7915794
0.7914657
0.7913389
0.7912195
0.7911017
0.7897733
0.7868794
0.7963239
0.7951833
0.7941374
0.793256
0.7925892
0.792171
0.7920162
0.7921163
0.7924273
0.7928552
0.7932252
0.7931307
0.7930364
0.7929518
0.7928456
0.7928951
0.7919419
0.7906759
0.7878178
0.7975466
0.796453
0.7954596
0.7946257
0.7939985
0.7936105
0.7934819
0.7936149
0.7939851
0.7945164
0.7950267
0.795031
0.795026
0.7949993
0.7949603
0.7950276
0.7943185
0.7934611
0.7922998
0.7894939
0.7987459
0.7977027
0.7967626
0.795978
0.7953898
0.7950325
0.794932
0.7951082
0.7955717
0.7963071
0.7971605
0.797374
0.7975211
0.7976077
0.7976361
0.797765
0.7971372
0.7965509
0.7958397
0.7948383
0.7922244
0.799893
0.7988929
0.7979992
0.7972534
0.7966961
0.7963603
0.7962782
0.7964851
0.7970401
0.798077
0.7999606
0.800502
0.8007961
0.8009522
0.8010356
0.8012068
0.8006944
0.8002184
0.7998056
0.799301
0.7985861
0.7962648
0.8060362
0.8055551
0.8052652
0.8051086
0.8050627
0.8052505
0.8048295
0.8044794
0.8041917
0.8039951
0.8037994
0.8033889
0.8014317
0.8099256
0.809379
0.8089904
0.8087572
0.8086839
0.8088923
0.8085493
0.8082707
0.8080807
0.8079773
0.8080358
0.8080974
0.8078975
0.8063003
0.8127256
0.8122052
0.8118236
0.8115924
0.8115257
0.8117467
0.8114442
0.8112065
0.8110455
0.8109871
0.8110763
0.8113121
0.8115098
0.8114619
0.8101325
0.8147008
0.814202
0.8138337
0.8136088
0.8135435
0.8137558
0.8134651
0.8132306
0.8130678
0.8129902
0.8130643
0.8132655
0.81356
0.8138293
0.8138593
0.8159582
0.8154649
0.8150958
0.8148637
0.8147835
0.8149679
0.8146625
0.8144065
0.81421
0.8140891
0.8140955
0.8142267
0.814429
0.814725
0.8149971
0.8043795
0.8025558
0.8004821
0.7983862
0.7977162
0.7956617
0.7903887
0.7891448
0.7880258
0.7870923
0.7864019
0.7860083
0.7859668
0.7863345
0.7872213
0.7888087
0.7917004
0.7926284
0.7929082
0.7911847
0.7916217
0.7903919
0.7892796
0.7883497
0.7876583
0.787254
0.7871769
0.7874645
0.788136
0.7892013
0.7904518
0.7909262
0.7911733
0.791014
0.7889968
0.7927934
0.7915731
0.7904608
0.7895266
0.7888267
0.7884034
0.7882856
0.7884809
0.7889715
0.7896691
0.7903797
0.7904936
0.7906126
0.790543
0.7901214
0.7882158
0.7939449
0.7927395
0.7916327
0.7906993
0.7899946
0.7895571
0.789405
0.789533
0.7898951
0.7903957
0.7908433
0.7908011
0.7907483
0.7907014
0.7904782
0.7901285
0.7871775
0.7951027
0.7939197
0.7928303
0.7919089
0.7912103
0.7907691
0.7905994
0.7906867
0.7909809
0.7913774
0.7917121
0.7915794
0.7914657
0.7913389
0.7912195
0.7911017
0.7897733
0.7868794
0.7962772
0.7951263
0.7940664
0.7931708
0.7924908
0.7920597
0.7918892
0.791965
0.7922358
0.7926029
0.792901
0.7927523
0.792606
0.7924736
0.7923253
0.7923385
0.7913483
0.7900459
0.7871992
0.7974677
0.7963556
0.7953376
0.7944792
0.7938298
0.7934203
0.7932649
0.7933536
0.7936435
0.7940409
0.7943794
0.7942615
0.7941452
0.7940212
0.7939005
0.7939002
0.7931242
0.7921885
0.790948
0.7881362
0.7986594
0.7975933
0.7966242
0.7958119
0.7951995
0.7948195
0.7946894
0.7948111
0.7951593
0.7956598
0.7961335
0.7961159
0.7960797
0.7960223
0.7959351
0.7959688
0.7952445
0.7945485
0.7937082
0.7925715
0.7898758
0.7998314
0.7988115
0.7978947
0.7971283
0.7965541
0.7962031
0.796101
0.796265
0.7967051
0.7974044
0.7982125
0.7983958
0.7985107
0.7985567
0.7985446
0.7986084
0.7979726
0.7973552
0.7967816
0.7960867
0.7951653
0.7926116
0.8009509
0.7999748
0.7991003
0.7983725
0.7978268
0.7974973
0.7974127
0.7976077
0.7981376
0.7991311
0.8009375
0.8014388
0.801694
0.8018105
0.8018457
0.8019604
0.8014035
0.8008998
0.800434
0.8000336
0.799596
0.7989171
0.7965528
0.8068388
0.8063473
0.8060372
0.8058497
0.8057634
0.8058896
0.8054272
0.8050147
0.8046744
0.8043979
0.8042607
0.8040911
0.8036314
0.8016172
0.8106322
0.8100758
0.8096691
0.8094083
0.8092952
0.8094463
0.8090555
0.8087206
0.808451
0.8082712
0.8082218
0.8083013
0.8083138
0.8080574
0.8063912
0.8133743
0.8128427
0.8124431
0.8121851
0.8120811
0.8122469
0.811901
0.8116059
0.8113765
0.8112246
0.8112162
0.8113232
0.8115111
0.8116543
0.8115421
0.8153179
0.8148078
0.8144218
0.8141719
0.814072
0.8142344
0.8139034
0.8136195
0.8133925
0.8132379
0.8132071
0.8132968
0.8134517
0.8136939
0.8139024
0.8165645
0.8160607
0.8156756
0.8154206
0.8153095
0.8154495
0.8151099
0.8148109
0.8145618
0.8143728
0.814296
0.8143165
0.8144028
0.8145548
0.814793
0.8071025
0.806306
0.8046154
0.8033941
0.8028236
0.8010446
0.7992134
0.7988817
0.7985225
0.7967432
0.7916967
0.7904918
0.7894087
0.7885053
0.787836
0.7874515
0.7874004
0.7877439
0.7885674
0.7900844
0.7927975
0.7938147
0.7943938
0.7944857
0.792739
0.7928929
0.7916997
0.7906218
0.7897208
0.78905
0.7886542
0.788572
0.7888332
0.7894648
0.7904533
0.7916415
0.7920637
0.7924444
0.7926035
0.7923759
0.7905761
0.7940307
0.7928458
0.7917663
0.7908602
0.7901803
0.7897668
0.7896448
0.7898225
0.7902754
0.7909288
0.7915747
0.7916784
0.7917637
0.7918436
0.7917355
0.7914767
0.7885377
0.7951507
0.7939784
0.7929034
0.7919968
0.7913119
0.7908842
0.7907307
0.7908433
0.7911794
0.7916394
0.7920498
0.7919745
0.7919168
0.7918423
0.7917702
0.7916942
0.7904027
0.7874983
0.7962772
0.7951263
0.7940664
0.7931708
0.7924908
0.7920597
0.7918892
0.791965
0.7922358
0.7926029
0.792901
0.7927523
0.792606
0.7924736
0.7923253
0.7923385
0.7913483
0.7900459
0.7871992
0.7974223
0.7963002
0.7952686
0.7943965
0.7937343
0.7933124
0.7931419
0.7932072
0.7934584
0.7937975
0.7940672
0.7938982
0.7937331
0.793565
0.7934062
0.793374
0.7925665
0.7915941
0.7903175
0.7875182
0.7985825
0.7974985
0.7965055
0.7956695
0.7950357
0.7946349
0.7944789
0.7945579
0.7948286
0.7952002
0.7955091
0.7953753
0.7952339
0.7950858
0.7949236
0.7948973
0.794115
0.7933523
0.7924341
0.7912191
0.78852
0.7997471
0.7987049
0.7977599
0.7969667
0.7963691
0.7959961
0.7958653
0.7959767
0.7963053
0.7967779
0.7972204
0.7971827
0.7971238
0.7970346
0.7969161
0.7968939
0.7961738
0.7954603
0.7947773
0.793954
0.7928986
0.7902671
0.8008907
0.7998954
0.7989985
0.7982507
0.7976886
0.7973444
0.7972403
0.7973938
0.7978125
0.7984793
0.7992466
0.7994048
0.7994908
0.7995059
0.7994545
0.799473
0.7988059
0.7981788
0.7975717
0.7970106
0.7963835
0.7955001
0.792907
0.8019879
0.8010307
0.8001771
0.7994642
0.7989309
0.7986063
0.7985203
0.798704
0.7992113
0.8001648
0.8019011
0.8023668
0.8025892
0.8026709
0.802669
0.8027318
0.8021483
0.8015989
0.8011039
0.8006483
0.8003078
0.7998979
0.7991693
0.7967488
0.807639
0.8071399
0.8068133
0.8066012
0.8064802
0.8065578
0.8060589
0.8056043
0.8052003
0.8048697
0.8046477
0.8045324
0.8043132
0.8037962
0.8017123
0.8113419
0.8107778
0.8103566
0.810073
0.8099274
0.8100295
0.8096031
0.8092198
0.808893
0.8086324
0.808503
0.8084719
0.8085032
0.8084607
0.8081392
0.8140286
0.813488
0.8130733
0.8127931
0.8126577
0.8127773
0.8123956
0.8120565
0.8117689
0.8115477
0.8114429
0.8114504
0.8115109
0.8116462
0.8117282
0.8159414
0.815422
0.8150212
0.8147498
0.8146205
0.81474
0.8143768
0.8140522
0.8137752
0.8135557
0.8134454
0.8134288
0.8134736
0.813578
0.8137623
0.8171765
0.8166642
0.8162654
0.815991
0.815853
0.8159545
0.8155869
0.8152532
0.8149605
0.8147183
0.8145713
0.8145074
0.8144844
0.8145222
0.8146191
0.8084503
0.8087489
0.8073209
0.806891
0.8065196
0.8050795
0.8039093
0.8036409
0.8033243
0.8018241
0.7998952
0.7996761
0.7996246
0.7994682
0.7979032
0.7929655
0.7917964
0.7907466
0.789871
0.7892212
0.7888444
0.7887871
0.7891018
0.7898779
0.7912959
0.7938682
0.794793
0.7954642
0.7958464
0.7958311
0.7942791
0.7941272
0.7929685
0.7919221
0.7910479
0.7903959
0.7900088
0.789921
0.7901618
0.7907494
0.7916797
0.7927784
0.7931692
0.7934942
0.7937764
0.7938484
0.7937402
0.7908969
0.7952341
0.7940816
0.7930329
0.7921526
0.7914915
0.7910869
0.7909622
0.7911226
0.7915456
0.7921514
0.7927501
0.7928115
0.792881
0.7929213
0.7929503
0.792963
0.7917524
0.788858
0.7963239
0.7951833
0.7941374
0.793256
0.7925892
0.792171
0.7920162
0.7921163
0.7924273
0.7928552
0.7932252
0.7931307
0.7930364
0.7929518
0.7928456
0.7928951
0.7919419
0.7906759
0.7878178
0.7974223
0.7963002
0.7952686
0.7943965
0.7937343
0.7933124
0.7931419
0.7932072
0.7934584
0.7937975
0.7940672
0.7938982
0.7937331
0.793565
0.7934062
0.793374
0.7925665
0.7915941
0.7903175
0.7875182
0.7985382
0.7974446
0.7964385
0.7955891
0.794943
0.7945302
0.7943596
0.794416
0.7946494
0.794965
0.7952081
0.7950256
0.7948382
0.794649
0.7944519
0.7943973
0.7935877
0.7927936
0.7918389
0.7905883
0.7879028
0.7996721
0.7986125
0.7976444