/*--------------------------------*- C++ -*----------------------------------*\
| =========                 |                                                 |
| \\      /  F ield         | OpenFOAM: The Open Source CFD Toolbox           |
|  \\    /   O peration     | Version:  2306                                  |
|   \\  /    A nd           | Website:  www.openfoam.com                      |
|    \\/     M anipulation  |                                                 |
\*---------------------------------------------------------------------------*/
FoamFile
{
    version     2.0;
    format      ascii;
    arch        "LSB;label=32;scalar=64";
    class       volScalarField;
    location    "0.6/air";
    object      nernst;
}
// * * * * * * * * * * * * * * * * * * * * * * * * * * * * * * * * * * * * * //

dimensions      [1 2 -3 0 0 -1 0];

internalField   nonuniform List<scalar> 
16000
(
-0.6490664
-0.6426486
-0.6566246
-0.6425489
-0.6391861
-0.6548239
-0.6271442
-0.6586346
-0.6548165
-0.6390034
-0.6372566
-0.6532743
-0.6177571
-0.6578051
-0.6495238
-0.6176199
-0.6603421
-0.6578526
-0.6532712
-0.6369766
-0.6363689
-0.6521396
-0.61222
-0.657057
-0.6449148
-0.6036178
-0.6599051
-0.6554259
-0.6448745
-0.6118537
-0.6618885
-0.6599748
-0.6571681
-0.6521459
-0.6359653
-0.6363689
-0.6515409
-0.6096219
-0.6564842
-0.6415171
-0.5949808
-0.6595144
-0.6532109
-0.6374418
-0.5946629
-0.661628
-0.6587362
-0.6532634
-0.6413914
-0.6088888
-0.6633141
-0.6617032
-0.6596718
-0.6566788
-0.6515668
-0.6358074
-0.6610217
-0.6372566
-0.6515409
-0.6096219
-0.6561728
-0.6397181
-0.5908287
-0.6592156
-0.6515018
-0.6319039
-0.5837348
-0.6614
-0.6576115
-0.6496458
-0.6317568
-0.589935
-0.6631394
-0.660996
-0.6577026
-0.6516097
-0.639463
-0.6083668
-0.6646368
-0.6632134
-0.661569
-0.6594878
-0.6564783
-0.6516125
-0.6365062
-0.6608197
-0.6625782
-0.6619783
-0.6391861
-0.6521396
-0.61222
-0.6561728
-0.6397181
-0.5908287
-0.6590528
-0.6505691
-0.628953
-0.5783904
-0.6612282
-0.6567434
-0.6468254
-0.6245108
-0.5776862
-0.6629897
-0.6603664
-0.6558846
-0.6468594
-0.6285423
-0.5890639
-0.6645044
-0.6627609
-0.6604698
-0.6569547
-0.6507472
-0.639323
-0.6102828
-0.6658714
-0.6645747
-0.6631565
-0.6615205
-0.6594746
-0.6566316
-0.6523143
-0.638215
-0.6604084
-0.6624217
-0.6617598
-0.6640054
-0.6634641
-0.6629673
-0.6426486
-0.6532743
-0.6177571
-0.6564842
-0.6415171
-0.5949808
-0.6590528
-0.6505691
-0.628953
-0.5783904
-0.6611355
-0.656268
-0.645277
-0.6206279
-0.5716379
-0.6628789
-0.6598883
-0.6544635
-0.6431228
-0.6202809
-0.5765418
-0.664393
-0.662367
-0.6594741
-0.6545843
-0.6453369
-0.6282087
-0.5920597
-0.6657617
-0.6642452
-0.6624711
-0.6601342
-0.6566423
-0.6508665
-0.6410444
-0.6149578
-0.6670285
-0.6658274
-0.6645521
-0.6631679
-0.6615871
-0.6596697
-0.6571641
-0.6536648
-0.6413828
-0.6597508
-0.6621109
-0.6613036
-0.6638657
-0.6633081
-0.6627355
-0.6653225
-0.6647947
-0.6643751
-0.6639914
-0.6490664
-0.6548239
-0.6271442
-0.657057
-0.6449148
-0.6036178
-0.6592156
-0.6515018
-0.6319039
-0.5837348
-0.6611355
-0.656268
-0.645277
-0.6206279
-0.5716379
-0.6628197
-0.6596293
-0.6536798
-0.6410606
-0.615838
-0.5703438
-0.6643117
-0.6620738
-0.6587083
-0.6527116
-0.641056
-0.6197848
-0.5803344
-0.6656702
-0.6639643
-0.6618642
-0.6588605
-0.6539664
-0.6454027
-0.6308677
-0.5992743
-0.6669318
-0.6655615
-0.6640646
-0.6623238
-0.6600692
-0.6568721
-0.6520254
-0.6445483
-0.6232398
-0.6681167
-0.6669933
-0.6658202
-0.6645883
-0.6632667
-0.6617909
-0.6600907
-0.6580679
-0.65564
-0.6472527
-0.6586114
-0.6616485
-0.6605367
-0.6635896
-0.6629994
-0.6622468
-0.6651934
-0.66466
-0.6642193
-0.6637508
-0.6665511
-0.6660201
-0.6656056
-0.6653116
-0.6650517
-0.6566246
-0.6425489
-0.6578051
-0.6495238
-0.6176199
-0.6595144
-0.6532109
-0.6374418
-0.5946629
-0.6612282
-0.6567434
-0.6468254
-0.6245108
-0.5776862
-0.6628197
-0.6596293
-0.6536798
-0.6410606
-0.615838
-0.5703438
-0.6642687
-0.661917
-0.65829
-0.651672
-0.6386853
-0.6152494
-0.5745566
-0.6656041
-0.6637596
-0.661407
-0.6578692
-0.651836
-0.641067
-0.6231672
-0.5893775
-0.6668516
-0.665338
-0.6636428
-0.6615657
-0.6586585
-0.6542103
-0.6471403
-0.6363322
-0.6115593
-0.6680286
-0.6667624
-0.6654331
-0.6640015
-0.6623662
-0.6603328
-0.6576821
-0.654151
-0.6496078
-0.6370661
-0.6691431
-0.6680861
-0.6669926
-0.665866
-0.6646974
-0.6634672
-0.662145
-0.6607425
-0.6593409
-0.6583192
-0.6544571
-0.6610552
-0.6591609
-0.6631866
-0.662548
-0.6614189
-0.6649389
-0.6643981
-0.6639118
-0.6632431
-0.6664297
-0.6658974
-0.665475
-0.6651558
-0.6648067
-0.6677128
-0.6671682
-0.6667372
-0.6664379
-0.666273
-0.6657171
-0.6586346
-0.6548165
-0.6390034
-0.6599051
-0.6554259
-0.6448745
-0.6118537
-0.6614
-0.6576115
-0.6496458
-0.6317568
-0.589935
-0.6628789
-0.6598883
-0.6544635
-0.6431228
-0.6202809
-0.5765418
-0.6642687
-0.661917
-0.65829
-0.651672
-0.6386853
-0.6152494
-0.5745566
-0.6655694
-0.6636515
-0.6611605
-0.6573239
-0.6506479
-0.6386622
-0.6190261
-0.5845516
-0.6667939
-0.6651775
-0.663332
-0.6609878
-0.6575501
-0.6520796
-0.6432585
-0.6301347
-0.6043787
-0.6679555
-0.66657
-0.6651036
-0.663487
-0.6615472
-0.6589622
-0.6553662
-0.6503833
-0.6441103
-0.6307135
-0.6690612
-0.667877
-0.6666596
-0.6654074
-0.6640869
-0.6626331
-0.6609515
-0.6590445
-0.6570791
-0.6558983
-0.6504483
-0.6701133
-0.6691152
-0.6680884
-0.6670413
-0.6659763
-0.6648897
-0.6637804
-0.6626621
-0.6616547
-0.661134
-0.6607695
-0.6559355
-0.6627198
-0.6619975
-0.6600051
-0.6645697
-0.6640341
-0.6634659
-0.6623942
-0.6661903
-0.6656604
-0.6652237
-0.6648482
-0.6642922
-0.6675975
-0.6670535
-0.6666198
-0.6663101
-0.666117
-0.6654723
-0.6688107
-0.6682613
-0.6678037
-0.6674735
-0.6672904
-0.6668737
-0.665804
-0.6603421
-0.6578526
-0.6532712
-0.6369766
-0.661628
-0.6587362
-0.6532634
-0.6413914
-0.6088888
-0.6629897
-0.6603664
-0.6558846
-0.6468594
-0.6285423
-0.5890639
-0.6643117
-0.6620738
-0.6587083
-0.6527116
-0.641056
-0.6197848
-0.5803344
-0.6655694
-0.6636515
-0.6611605
-0.6573239
-0.6506479
-0.6386622
-0.6190261
-0.5845516
-0.6667637
-0.6650936
-0.6631671
-0.6606741
-0.6569369
-0.6508878
-0.6411046
-0.6268094
-0.6009226
-0.667903
-0.666433
-0.6648651
-0.663104
-0.6609162
-0.6578758
-0.6535007
-0.6473749
-0.639952
-0.6268274
-0.6689931
-0.6677035
-0.6663792
-0.6650129
-0.6635451
-0.6618622
-0.6598037
-0.6573503
-0.6547573
-0.6534267
-0.647374
-0.6700364
-0.6689213
-0.6677882
-0.6666504
-0.665508
-0.6643445
-0.6631451
-0.6619264
-0.6609037
-0.660659
-0.6599431
-0.6526478
-0.6710323
-0.6700873
-0.6691187
-0.668137
-0.6671489
-0.6661595
-0.6651748
-0.6642213
-0.663386
-0.6630163
-0.6631062
-0.6615587
-0.6574231
-0.6641576
-0.6636716
-0.6629258
-0.661035
-0.6658435
-0.6653376
-0.6648832
-0.6644019
-0.6634498
-0.6673702
-0.6668323
-0.6663962
-0.6660649
-0.6658081
-0.66496
-0.6687005
-0.6681525
-0.6676945
-0.6673598
-0.6671641
-0.6667176
-0.6655593
-0.6698519
-0.669301
-0.6688271
-0.668457
-0.6682278
-0.6678253
-0.6669524
-0.6658913
-0.6618885
-0.6599748
-0.6571681
-0.6521459
-0.6359653
-0.6631394
-0.660996
-0.6577026
-0.6516097
-0.639463
-0.6083668
-0.664393
-0.662367
-0.6594741
-0.6545843
-0.6453369
-0.6282087
-0.5920597
-0.6656041
-0.6637596
-0.661407
-0.6578692
-0.651836
-0.641067
-0.6231672
-0.5893775
-0.6667637
-0.6650936
-0.6631671
-0.6606741
-0.6569369
-0.6508878
-0.6411046
-0.6268094
-0.6009226
-0.6678755
-0.666362
-0.6647401
-0.6628993
-0.6605712
-0.6572717
-0.6524539
-0.6457033
-0.6377204
-0.6249571
-0.6689442
-0.6675806
-0.6661785
-0.6647247
-0.6631374
-0.6612606
-0.6588803
-0.6559598
-0.6528569
-0.6514868
-0.6453326
-0.6699723
-0.6687606
-0.6675367
-0.6663182
-0.6651005
-0.6638511
-0.662534
-0.661153
-0.6599818
-0.6598042
-0.6589595
-0.6500228
-0.6709595
-0.6699054
-0.6688408
-0.6677861
-0.6667539
-0.6657526
-0.6647916
-0.6639154
-0.6632587
-0.6632479
-0.6630856
-0.6608255
-0.6547327
-0.6719039
-0.6710077
-0.6700914
-0.6691662
-0.6682409
-0.6673232
-0.6664243
-0.6655686
-0.6648376
-0.6645109
-0.6647102
-0.6637727
-0.6624058
-0.6589268
-0.6654589
-0.6650451
-0.6645513
-0.6638555
-0.6621829
-0.6670403
-0.6665326
-0.6661022
-0.6657329
-0.6653563
-0.664131
-0.668483
-0.6679428
-0.6674873
-0.6671445
-0.6669207
-0.6664077
-0.6650474
-0.669746
-0.6691971
-0.6687238
-0.6683517
-0.6681162
-0.6676992
-0.6667964
-0.6656467
-0.6708395
-0.6702931
-0.6698079
-0.6694097
-0.6691268
-0.6687049
-0.667896
-0.6670314
-0.6659791
-0.6633141
-0.6617032
-0.6596718
-0.6566788
-0.6515668
-0.6358074
-0.6645044
-0.6627609
-0.6604698
-0.6569547
-0.6507472
-0.639323
-0.6102828
-0.6656702
-0.6639643
-0.6618642
-0.6588605
-0.6539664
-0.6454027
-0.6308677
-0.5992743
-0.6667939
-0.6651775
-0.663332
-0.6609878
-0.6575501
-0.6520796
-0.6432585
-0.6301347
-0.6043787
-0.6678755
-0.666362
-0.6647401
-0.6628993
-0.6605712
-0.6572717
-0.6524539
-0.6457033
-0.6377204
-0.6249571
-0.6689186
-0.667517
-0.6660741
-0.6645727
-0.6629179
-0.6609293
-0.6583629
-0.6551734
-0.6517915
-0.6504315
-0.6443176
-0.6699261
-0.668647
-0.6673577
-0.6660786
-0.6647999
-0.6634741
-0.6620441
-0.6605018
-0.659167
-0.659016
-0.6581403
-0.6482463
-0.6708987
-0.6697545
-0.6686085
-0.6674896
-0.6664146
-0.6653912
-0.6644239
-0.6635569
-0.6629371
-0.6630572
-0.6628325
-0.6599992
-0.6525235
-0.6718348
-0.6708358
-0.6698307
-0.6688418
-0.6678877
-0.666985
-0.6661567
-0.665446
-0.6649687
-0.6649958
-0.6649644
-0.6636973
-0.6617337
-0.656734
-0.6727316
-0.6718807
-0.6710122
-0.6701376
-0.6692661
-0.668407
-0.6675719
-0.666786
-0.6661178
-0.6658152
-0.6660113
-0.6652975
-0.664473
-0.6632865
-0.660441
-0.6666721
-0.6662678
-0.6658472
-0.6653933
-0.6647926
-0.6629203
-0.6681666
-0.6676584
-0.6672174
-0.6668623
-0.6665854
-0.6659519
-0.6642202
-0.6695369
-0.6689963
-0.668528
-0.6681534
-0.6679039
-0.667455
-0.6664864
-0.6651353
-0.6707375
-0.6701931
-0.6697093
-0.6693104
-0.6690238
-0.6685936
-0.6677698
-0.6668753
-0.6657346
-0.671778
-0.6712392
-0.6707502
-0.6703309
-0.670008
-0.6695548
-0.6687686
-0.6679668
-0.6671108
-0.6660671
-0.6646368
-0.6632134
-0.661569
-0.6594878
-0.6564783
-0.6516125
-0.6365062
-0.6657617
-0.6642452
-0.6624711
-0.6601342
-0.6566423
-0.6508665
-0.6410444
-0.6149578
-0.6668516
-0.665338
-0.6636428
-0.6615657
-0.6586585
-0.6542103
-0.6471403
-0.6363322
-0.6115593
-0.667903
-0.666433
-0.6648651
-0.663104
-0.6609162
-0.6578758
-0.6535007
-0.6473749
-0.639952
-0.6268274
-0.6689186
-0.667517
-0.6660741
-0.6645727
-0.6629179
-0.6609293
-0.6583629
-0.6551734
-0.6517915
-0.6504315
-0.6443176
-0.6699021
-0.6685884
-0.6672651
-0.6659535
-0.6646404
-0.6632692
-0.6617704
-0.6601295
-0.6586936
-0.6585572
-0.6576834
-0.6473557
-0.670855
-0.6696479
-0.6684437
-0.6672774
-0.6661679
-0.6651202
-0.6641316
-0.663241
-0.6626039
-0.662786
-0.6625531
-0.659316
-0.6510038
-0.671777
-0.6706932
-0.6696128
-0.6685686
-0.6675865
-0.6666885
-0.6659012
-0.6652686
-0.6649068
-0.6650719
-0.6649945
-0.6634778
-0.6610284
-0.654904
-0.672666
-0.6717177
-0.6707658
-0.6698332
-0.6689398
-0.6681062
-0.6673577
-0.6667391
-0.6663411
-0.6663736
-0.6663479
-0.6654477
-0.6643359
-0.6626573
-0.6586704
-0.6735184
-0.6727098
-0.6718855
-0.671057
-0.6702337
-0.6694248
-0.6686425
-0.6679097
-0.6672891
-0.6669959
-0.6671685
-0.6665404
-0.6659054
-0.6651877
-0.6641833
-0.6613401
-0.6678093
-0.667405
-0.6669922
-0.6666014
-0.6662158
-0.6653765
-0.6630162
-0.6692321
-0.6687229
-0.6682727
-0.6678965
-0.6676201
-0.667114
-0.6660302
-0.66431
-0.6705358
-0.6699999
-0.6695218
-0.6691235
-0.6688292
-0.6683808
-0.6675256
-0.6665653
-0.6652238
-0.6716794
-0.6711428
-0.6706553
-0.6702361
-0.669911
-0.6694522
-0.6686572
-0.6678406
-0.6669547
-0.6658229
-0.6726706
-0.6721425
-0.6716542
-0.6712228
-0.6708687
-0.6703945
-0.6696125
-0.6688324
-0.668038
-0.6671903
-0.6661597
-0.6658714
-0.6645747
-0.6631565
-0.6615205
-0.6594746
-0.6566316
-0.6523143
-0.638215
-0.6669318
-0.6655615
-0.6640646
-0.6623238
-0.6600692
-0.6568721
-0.6520254
-0.6445483
-0.6232398
-0.6679555
-0.66657
-0.6651036
-0.663487
-0.6615472
-0.6589622
-0.6553662
-0.6503833
-0.6441103
-0.6307135
-0.6689442
-0.6675806
-0.6661785
-0.6647247
-0.6631374
-0.6612606
-0.6588803
-0.6559598
-0.6528569
-0.6514868
-0.6453326
-0.6699021
-0.6685884
-0.6672651
-0.6659535
-0.6646404
-0.6632692
-0.6617704
-0.6601295
-0.6586936
-0.6585572
-0.6576834
-0.6473557
-0.6708321
-0.6695929
-0.6683586
-0.6671671
-0.6660383
-0.6649748
-0.6639694
-0.663057
-0.6623997
-0.6626095
-0.6623807
-0.6589352
-0.6502359
-0.6717353
-0.6705923
-0.6694585
-0.6683736
-0.6673692
-0.6664693
-0.6656999
-0.6651013
-0.6647864
-0.6650202
-0.6649412
-0.6632472
-0.6604564
-0.6536294
-0.6726108
-0.6715823
-0.6705599
-0.669577
-0.6686625
-0.6678444
-0.6671543
-0.6666398
-0.6663829
-0.666552
-0.6664829
-0.665461
-0.6641287
-0.6620472
-0.6571863
-0.6734559
-0.6725549
-0.6716518
-0.6707692
-0.6699273
-0.6691469
-0.6684544
-0.6678905
-0.6675351
-0.6675506
-0.6675134
-0.6667593
-0.6659552
-0.6649897
-0.6635849
-0.6597648
-0.6742668
-0.6734979
-0.672715
-0.6719291
-0.6711496
-0.6703857
-0.6696491
-0.6689613
-0.6683781
-0.6680935
-0.6682328
-0.6676519
-0.6670818
-0.6665185
-0.6659041
-0.6647466
-0.6614538
-0.6688833
-0.6684735
-0.6680591
-0.6676682
-0.6673286
-0.6667231
-0.6654539
-0.6631127
-0.6702411
-0.6697354
-0.6692764
-0.6688817
-0.6685721
-0.6680915
-0.667184
-0.6661088
-0.6644005
-0.6714844
-0.6709561
-0.6704748
-0.6700574
-0.6697281
-0.6692573
-0.6684444
-0.6675963
-0.6666446
-0.6653128
-0.6725751
-0.6720493
-0.6715626
-0.6711316
-0.6707763
-0.6702979
-0.6695099
-0.6687211
-0.6679118
-0.6670342
-0.6659157
-0.6735205
-0.6730052
-0.6725219
-0.6720842
-0.6717096
-0.6712202
-0.6704472
-0.6696703
-0.6688965
-0.6681093
-0.667274
-0.6662444
-0.6670285
-0.6658274
-0.6645521
-0.6631679
-0.6615871
-0.6596697
-0.6571641
-0.6536648
-0.6413828
-0.6680286
-0.6667624
-0.6654331
-0.6640015
-0.6623662
-0.6603328
-0.6576821
-0.654151
-0.6496078
-0.6370661
-0.6689931
-0.6677035
-0.6663792
-0.6650129
-0.6635451
-0.6618622
-0.6598037
-0.6573503
-0.6547573
-0.6534267
-0.647374
-0.6699261
-0.668647
-0.6673577
-0.6660786
-0.6647999
-0.6634741
-0.6620441
-0.6605018
-0.659167
-0.659016
-0.6581403
-0.6482463
-0.6708321
-0.6695929
-0.6683586
-0.6671671
-0.6660383
-0.6649748
-0.6639694
-0.663057
-0.6623997
-0.6626095
-0.6623807
-0.6589352
-0.6502359
-0.6717135
-0.6705403
-0.6693788
-0.6682726
-0.6672556
-0.666353
-0.6655891
-0.6650016
-0.6647021
-0.6649672
-0.6648935
-0.6631062
-0.6601396
-0.6529809
-0.672571
-0.6714865
-0.670414
-0.6693945
-0.6684632
-0.6676525
-0.6669956
-0.6665379
-0.6663517
-0.6665911
-0.6665205
-0.6654168
-0.6639311
-0.6615677
-0.6561441
-0.6734033
-0.672426
-0.6714563
-0.6705269
-0.6696672
-0.668906
-0.6682767
-0.6678228
-0.6676134
-0.6677577
-0.667681
-0.6668583
-0.6659387
-0.664782
-0.6630531
-0.6584483
-0.6742072
-0.6733506
-0.6724928
-0.6716559
-0.6708596
-0.6701242
-0.669475
-0.66895
-0.668618
-0.6686165
-0.6685562
-0.6678789
-0.6671916
-0.666476
-0.6656474
-0.6641597
-0.659899
-0.6749788
-0.6742476
-0.6735035
-0.6727574
-0.6720186
-0.6712958
-0.6706003
-0.669952
-0.669402
-0.6691248
-0.669235
-0.6686791
-0.6681417
-0.6676233
-0.6671273
-0.66636
-0.6648226
-0.6615674
-0.6698996
-0.6694877
-0.6690663
-0.6686676
-0.6683161
-0.6677776
-0.666791
-0.6655315
-0.6632098
-0.6711989
-0.6706992
-0.6702369
-0.6698255
-0.6694872
-0.6689954
-0.6681545
-0.6672541
-0.6661877
-0.6644916
-0.6723862
-0.6718684
-0.671388
-0.6709595
-0.6706017
-0.6701149
-0.6693149
-0.6685081
-0.6676673
-0.666724
-0.6654063
-0.6734279
-0.6729148
-0.6724332
-0.6719962
-0.6716208
-0.6711282
-0.6703507
-0.6695678
-0.6687851
-0.6679831
-0.667118
-0.6660006
-0.6743304
-0.6738296
-0.6733542
-0.6729157
-0.6725279
-0.6720314
-0.6712686
-0.6705
-0.6697285
-0.6689607
-0.6681846
-0.6673506
-0.6663086
-0.6681167
-0.6669933
-0.6658202
-0.6645883
-0.6632667
-0.6617909
-0.6600907
-0.6580679
-0.65564
-0.6472527
-0.6690612
-0.667877
-0.6666596
-0.6654074
-0.6640869
-0.6626331
-0.6609515
-0.6590445
-0.6570791
-0.6558983
-0.6504483
-0.6699723
-0.6687606
-0.6675367
-0.6663182
-0.6651005
-0.6638511
-0.662534
-0.661153
-0.6599818
-0.6598042
-0.6589595
-0.6500228
-0.670855
-0.6696479
-0.6684437
-0.6672774
-0.6661679
-0.6651202
-0.6641316
-0.663241
-0.6626039
-0.662786
-0.6625531
-0.659316
-0.6510038
-0.6717135
-0.6705403
-0.6693788
-0.6682726
-0.6672556
-0.666353
-0.6655891
-0.6650016
-0.6647021
-0.6649672
-0.6648935
-0.6631062
-0.6601396
-0.6529809
-0.6725502
-0.6714371
-0.6703387
-0.6693
-0.6683594
-0.6675512
-0.6669089
-0.6664757
-0.6663189
-0.6665907
-0.6665246
-0.6653786
-0.6638133
-0.6613053
-0.6556108
-0.6733652
-0.6723349
-0.6713178
-0.6703544
-0.6694806
-0.6687301
-0.6681391
-0.6677489
-0.6676175
-0.6678294
-0.6677521
-0.6668882
-0.6658935
-0.6646062
-0.6626529
-0.6575218
-0.6741569
-0.6732278
-0.6723069
-0.6714259
-0.6706134
-0.6698978
-0.6693112
-0.6688944
-0.6687038
-0.6688225
-0.668725
-0.6680039
-0.6672461
-0.6664235
-0.6654326
-0.6636625
-0.6585999
-0.674922
-0.6741073
-0.6732921
-0.6724977
-0.671743
-0.6710476
-0.6704353
-0.6699408
-0.6696258
-0.6696077
-0.6695278
-0.6688898
-0.6682622
-0.667635
-0.6669997
-0.6660725
-0.6642367
-0.6600327
-0.6756564
-0.674961
-0.6742536
-0.673545
-0.6728441
-0.6721595
-0.6715018
-0.6708895
-0.6703696
-0.6701013
-0.6701863
-0.6696503
-0.6691275
-0.6686284
-0.6681574
-0.6675191
-0.6664232
-0.6648985
-0.6616811
-0.6708641
-0.6704524
-0.6700276
-0.6696172
-0.6692492
-0.6687185
-0.6678384
-0.666859
-0.6656093
-0.6633073
-0.672109
-0.6716184
-0.6711565
-0.6707351
-0.6703716
-0.66987
-0.6690525
-0.6682175
-0.6673244
-0.6662667
-0.6645873
-0.6732445
-0.6727393
-0.6722639
-0.6718297
-0.6714529
-0.6709537
-0.6701676
-0.6693727
-0.668572
-0.6677384
-0.6668077
-0.6654919
-0.6742405
-0.6737419
-0.6732683
-0.6728305
-0.6724422
-0.6719431
-0.6711766
-0.6704035
-0.6696259
-0.6688493
-0.6680583
-0.6671945
-0.666065
-0.6751028
-0.6746177
-0.6741527
-0.6737172
-0.6733228
-0.6728245
-0.6720763
-0.6713172
-0.6705531
-0.6697867
-0.6690288
-0.6682534
-0.6674081
-0.6663537
-0.6691431
-0.6680861
-0.6669926
-0.665866
-0.6646974
-0.6634672
-0.662145
-0.6607425
-0.6593409
-0.6583192
-0.6544571
-0.6700364
-0.6689213
-0.6677882
-0.6666504
-0.665508
-0.6643445
-0.6631451
-0.6619264
-0.6609037
-0.660659
-0.6599431
-0.6526478
-0.6708987
-0.6697545
-0.6686085
-0.6674896
-0.6664146
-0.6653912
-0.6644239
-0.6635569
-0.6629371
-0.6630572
-0.6628325
-0.6599992
-0.6525235
-0.6717353
-0.6705923
-0.6694585
-0.6683736
-0.6673692
-0.6664693
-0.6656999
-0.6651013
-0.6647864
-0.6650202
-0.6649412
-0.6632472
-0.6604564
-0.6536294
-0.6725502
-0.6714371
-0.6703387
-0.6693
-0.6683594
-0.6675512
-0.6669089
-0.6664757
-0.6663189
-0.6665907
-0.6665246
-0.6653786
-0.6638133
-0.6613053
-0.6556108
-0.6733453
-0.6722878
-0.6712463
-0.6702651
-0.6693835
-0.6686375
-0.6680642
-0.667703
-0.667606
-0.6678493
-0.6677766
-0.6668924
-0.6658598
-0.6645057
-0.662438
-0.6570466
-0.6741204
-0.6731409
-0.672175
-0.671262
-0.6704368
-0.6697328
-0.6691849
-0.6688323
-0.6687194
-0.6689022
-0.6688043
-0.6680608
-0.6672615
-0.6663708
-0.6652718
-0.6632989
-0.6576855
-0.6748739
-0.6739903
-0.6731151
-0.6722788
-0.6715089
-0.6708327
-0.6702804
-0.669889
-0.669708
-0.6698011
-0.6696861
-0.6690151
-0.6683388
-0.6676419
-0.6669095
-0.6658514
-0.6637429
-0.6587508
-0.6756022
-0.6748275
-0.6740525
-0.6732979
-0.6725819
-0.6719231
-0.6713438
-0.6708761
-0.6705751
-0.6705445
-0.6704478
-0.6698373
-0.6692384
-0.6686544
-0.66808
-0.6673487
-0.6661324
-0.6643137
-0.6601661
-0.6763013
-0.6756399
-0.6749675
-0.6742944
-0.6736292
-0.6729803
-0.6723578
-0.671779
-0.6712873
-0.6710288
-0.6710949
-0.6705755
-0.6700645
-0.6695706
-0.6691062
-0.6685047
-0.6675745
-0.6664862
-0.6649746
-0.6617947
-0.6717807
-0.6713727
-0.670947
-0.6705295
-0.6701432
-0.6696133
-0.6687736
-0.6678992
-0.666927
-0.6656872
-0.6634093
-0.672975
-0.6724957
-0.6720381
-0.6716114
-0.6712309
-0.6707202
-0.6699222
-0.6691097
-0.6682807
-0.6673947
-0.66635
-0.6646749
-0.6740622
-0.6735713
-0.6731038
-0.6726691
-0.67228
-0.6717754
-0.6710021
-0.6702203
-0.6694307
-0.668636
-0.6678134
-0.6668841
-0.6655569
-0.6750153
-0.6745324
-0.6740692
-0.6736346
-0.6732399
-0.6727393
-0.6719879
-0.6712252
-0.6704566
-0.6696841
-0.6689174
-0.6681271
-0.667252
-0.6661102
-0.6758396
-0.6753712
-0.6749186
-0.6744894
-0.6740932
-0.6735979
-0.6728663
-0.6721212
-0.671366
-0.6706062
-0.6698488
-0.669091
-0.6683045
-0.6674479
-0.6663781
-0.6586114
-0.6701133
-0.6691152
-0.6680884
-0.6670413
-0.6659763
-0.6648897
-0.6637804
-0.6626621
-0.6616547
-0.661134
-0.6607695
-0.6559355
-0.6709595
-0.6699054
-0.6688408
-0.6677861
-0.6667539
-0.6657526
-0.6647916
-0.6639154
-0.6632587
-0.6632479
-0.6630856
-0.6608255
-0.6547327
-0.671777
-0.6706932
-0.6696128
-0.6685686
-0.6675865
-0.6666885
-0.6659012
-0.6652686
-0.6649068
-0.6650719
-0.6649945
-0.6634778
-0.6610284
-0.654904
-0.672571
-0.6714865
-0.670414
-0.6693945
-0.6684632
-0.6676525
-0.6669956
-0.6665379
-0.6663517
-0.6665911
-0.6665205
-0.6654168
-0.6639311
-0.6615677
-0.6561441
-0.6733453
-0.6722878
-0.6712463
-0.6702651
-0.6693835
-0.6686375
-0.6680642
-0.667703
-0.667606
-0.6678493
-0.6677766
-0.6668924
-0.6658598
-0.6645057
-0.662438
-0.6570466
-0.6741013
-0.6730961
-0.6721069
-0.6711772
-0.670345
-0.6696461
-0.6691165
-0.6687935
-0.6687156
-0.6689286
-0.6688351
-0.6680814
-0.6672622
-0.6663379
-0.6651847
-0.6631062
-0.6572163
-0.674839
-0.6739074
-0.6729894
-0.6721228
-0.671341
-0.6706761
-0.6701614
-0.6698317
-0.6697254
-0.6698787
-0.6697635
-0.6690782
-0.6683764
-0.6676387
-0.6668459
-0.6656957
-0.6633829
-0.6578483
-0.6755561
-0.6747159
-0.6738838
-0.6730893
-0.6723589
-0.6717183
-0.6711958
-0.6708253
-0.6706499
-0.6707223
-0.6705919
-0.6699534
-0.6693162
-0.6686815
-0.6680399
-0.6672377
-0.6659102
-0.6638232
-0.6589011
-0.6762495
-0.6755128
-0.6747761
-0.6740591
-0.6733796
-0.672755
-0.6722064
-0.6717632
-0.6714756
-0.6714359
-0.6713275
-0.6707381
-0.6701594
-0.669594
-0.6690471
-0.6683831
-0.6673994
-0.6661921
-0.6643907
-0.6602989
-0.6769146
-0.6762861
-0.675647
-0.6750076
-0.6743763
-0.6737611
-0.6731717
-0.6726244
-0.6721594
-0.671912
-0.671964
-0.6714616
-0.6709609
-0.6704719
-0.670004
-0.6694199
-0.6685546
-0.6676297
-0.6665493
-0.6650505
-0.6619114
-0.672653
-0.6722514
-0.6718287
-0.6714074
-0.6710086
-0.6704755
-0.6696637
-0.6688286
-0.6679599
-0.6669949
-0.6657693
-0.6635027
-0.6737998
-0.6733336
-0.6728832
-0.6724562
-0.6720647
-0.6715508
-0.6707683
-0.6699745
-0.669167
-0.6683439
-0.667469
-0.666426
-0.6647417
-0.6748417
-0.6743664
-0.6739092
-0.6734778
-0.6730826
-0.6725774
-0.6718203
-0.6710507
-0.6702733
-0.6694887
-0.6687038
-0.6678819
-0.6669414
-0.6656025
-0.6757544
-0.6752882
-0.6748374
-0.6744092
-0.6740128
-0.6735155
-0.6727811
-0.6720329
-0.671274
-0.6705097
-0.6697461
-0.6689795
-0.6681781
-0.6672917
-0.6661347
-0.6765429
-0.6760919
-0.675653
-0.6752327
-0.6748387
-0.6743499
-0.673637
-0.6729081
-0.6721664
-0.6714149
-0.6706632
-0.6699054
-0.6691366
-0.6683392
-0.6674687
-0.6597508
-0.6610552
-0.6591609
-0.6710323
-0.6700873
-0.6691187
-0.668137
-0.6671489
-0.6661595
-0.6651748
-0.6642213
-0.663386
-0.6630163
-0.6631062
-0.6615587
-0.6574231
-0.6718348
-0.6708358
-0.6698307
-0.6688418
-0.6678877
-0.666985
-0.6661567
-0.665446
-0.6649687
-0.6649958
-0.6649644
-0.6636973
-0.6617337
-0.656734
-0.6726108
-0.6715823
-0.6705599
-0.669577
-0.6686625
-0.6678444
-0.6671543
-0.6666398
-0.6663829
-0.666552
-0.6664829
-0.665461
-0.6641287
-0.6620472
-0.6571863
-0.6733652
-0.6723349
-0.6713178
-0.6703544
-0.6694806
-0.6687301
-0.6681391
-0.6677489
-0.6676175
-0.6678294
-0.6677521
-0.6668882
-0.6658935
-0.6646062
-0.6626529
-0.6575218
-0.6741013
-0.6730961
-0.6721069
-0.6711772
-0.670345
-0.6696461
-0.6691165
-0.6687935
-0.6687156
-0.6689286
-0.6688351
-0.6680814
-0.6672622
-0.6663379
-0.6651847
-0.6631062
-0.6572163
-0.6748207
-0.6738646
-0.6729246
-0.672042
-0.6712537
-0.670594
-0.670097
-0.6697962
-0.6697238
-0.6699055
-0.6697947
-0.6691036
-0.6683905
-0.6676338
-0.666812
-0.665614
-0.6631925
-0.6573851
-0.6755227
-0.6746368
-0.673764
-0.6729407
-0.6721989
-0.6715691
-0.6710822
-0.6707703
-0.6706653
-0.6707943
-0.6706637
-0.6700144
-0.6693589
-0.668697
-0.6680167
-0.6671671
-0.6657548
-0.6634667
-0.6580105
-0.6762054
-0.6754065
-0.6746154
-0.6738605
-0.6731671
-0.6725595
-0.6720644
-0.6717126
-0.6715425
-0.6715984
-0.6714575
-0.6708421
-0.6702304
-0.6696242
-0.6690264
-0.6683183
-0.667286
-0.6659689
-0.6639034
-0.6590507
-0.6768651
-0.6761651
-0.6754649
-0.6747838
-0.6741387
-0.6735465
-0.6730267
-0.6726068
-0.6723326
-0.6722875
-0.6721714
-0.6716017
-0.6710387
-0.6704867
-0.669949
-0.6693188
-0.6684281
-0.6674501
-0.6662518
-0.6644674
-0.6604333
-0.6774978
-0.6769007
-0.6762937
-0.6756866
-0.6750876
-0.6745044
-0.6739463
-0.6734287
-0.6729893
-0.6727541
-0.6727968
-0.6723113
-0.6718224
-0.6713384
-0.6708689
-0.6702911
-0.6694655
-0.6686043
-0.6676849
-0.6666122
-0.6651308
-0.6620183
-0.673484
-0.6730912
-0.6726744
-0.6722536
-0.6718468
-0.6713142
-0.670522
-0.669714
-0.6688836
-0.6680206
-0.667067
-0.6658442
-0.6635748
-0.674586
-0.6741343
-0.6736937
-0.67327
-0.6728733
-0.67236
-0.6715953
-0.6708164
-0.6700268
-0.6692243
-0.6684109
-0.6675367
-0.6664827
-0.6647888
-0.6755853
-0.6751265
-0.6746815
-0.6742565
-0.6738601
-0.6733587
-0.6726192
-0.6718652
-0.6710994
-0.6703263
-0.6695505
-0.6687657
-0.6679326
-0.6669807
-0.6656272
-0.6764598
-0.6760109
-0.6755739
-0.6751546
-0.6747606
-0.6742699
-0.6735546
-0.6728229
-0.6720781
-0.6713229
-0.6705666
-0.6698027
-0.669025
-0.6682126
-0.6673122
-0.6772142
-0.676781
-0.676357
-0.6759476
-0.675559
-0.6750795
-0.6743867
-0.6736763
-0.6729502
-0.6722117
-0.6714676
-0.6707152
-0.6699464
-0.6691668
-0.6683562
-0.6604084
-0.6616485
-0.6605367
-0.6627198
-0.6619975
-0.6600051
-0.6719039
-0.6710077
-0.6700914
-0.6691662
-0.6682409
-0.6673232
-0.6664243
-0.6655686
-0.6648376
-0.6645109
-0.6647102
-0.6637727
-0.6624058
-0.6589268
-0.672666
-0.6717177
-0.6707658
-0.6698332
-0.6689398
-0.6681062
-0.6673577
-0.6667391
-0.6663411
-0.6663736
-0.6663479
-0.6654477
-0.6643359
-0.6626573
-0.6586704
-0.6734033
-0.672426
-0.6714563
-0.6705269
-0.6696672
-0.668906
-0.6682767
-0.6678228
-0.6676134
-0.6677577
-0.667681
-0.6668583
-0.6659387
-0.664782
-0.6630531
-0.6584483
-0.6741204
-0.6731409
-0.672175
-0.671262
-0.6704368
-0.6697328
-0.6691849
-0.6688323
-0.6687194
-0.6689022
-0.6688043
-0.6680608
-0.6672615
-0.6663708
-0.6652718
-0.6632989
-0.6576855
-0.6748207
-0.6738646
-0.6729246
-0.672042
-0.6712537
-0.670594
-0.670097
-0.6697962
-0.6697238
-0.6699055
-0.6697947
-0.6691036
-0.6683905
-0.6676338
-0.666812
-0.665614
-0.6631925
-0.6573851
-0.6755051
-0.6745959
-0.6737021
-0.6728637
-0.6721157
-0.6714908
-0.6710208
-0.6707364
-0.6706637
-0.6708195
-0.6706931
-0.6700398
-0.669377
-0.6687031
-0.6680051
-0.6671316
-0.6656736
-0.6632785
-0.6575533
-0.6761734
-0.675331
-0.6745011
-0.6737187
-0.6730145
-0.6724171
-0.6719555
-0.6716589
-0.6715551
-0.6716639
-0.6715228
-0.6708978
-0.6702715
-0.6696447
-0.6690194
-0.6682837
-0.6672144
-0.6658139
-0.6635505
-0.6581719
-0.676823
-0.6760638
-0.6753118
-0.6745946
-0.6739362
-0.67336
-0.6728906
-0.6725566
-0.6723925
-0.6724362
-0.6722885
-0.6716938
-0.6711007
-0.6705134
-0.669934
-0.6692734
-0.6683605
-0.6673342
-0.6660277
-0.6639834
-0.6592007
-0.6774506
-0.6767857
-0.6761206
-0.6754738
-0.6748616
-0.6743001
-0.6738079
-0.6734104
-0.6731499
-0.6731024
-0.6729825
-0.6724319
-0.6718846
-0.6713434
-0.6708127
-0.6701978
-0.6693599
-0.6684731
-0.6675007
-0.6663113
-0.6645484
-0.6605562
-0.6780516
-0.6774853
-0.676909
-0.6763329
-0.6757647
-0.6752122
-0.6746839
-0.6741947
-0.67378
-0.6735576
-0.6735948
-0.6731271
-0.6726511
-0.6721746
-0.6717051
-0.6711342
-0.6703333
-0.669511
-0.6686539
-0.6677399
-0.6666795
-0.665204
-0.6621027
-0.6742762
-0.6738942
-0.6734858
-0.6730689
-0.6726594
-0.6721298
-0.6713574
-0.6705684
-0.6697644
-0.6689385
-0.6680852
-0.6671325
-0.6658996
-0.6636267
-0.6753358
-0.6748997
-0.6744707
-0.6740535
-0.6736561
-0.6731477
-0.6724016
-0.6716399
-0.6708647
-0.6700792
-0.6692853
-0.6684719
-0.6675865
-0.6665212
-0.6648148
-0.6762948
-0.6758532
-0.6754219
-0.6750059
-0.6746121
-0.6741178
-0.6733979
-0.6726611
-0.6719103
-0.6711481
-0.670383
-0.6696068
-0.6688109
-0.6679667
-0.6670008
-0.6771331
-0.6767021
-0.6762799
-0.6758715
-0.675483
-0.6750018
-0.6743068
-0.6735938
-0.6728651
-0.6721234
-0.6713755
-0.6706185
-0.6698435
-0.669055
-0.6682294
-0.677855
-0.67744
-0.6770317
-0.6766347
-0.6762541
-0.675786
-0.6751143
-0.6744236
-0.6737157
-0.6729924
-0.6722607
-0.6715156
-0.6707522
-0.6699727
-0.6691804
-0.6608197
-0.6621109
-0.6613036
-0.6631866
-0.662548
-0.6614189
-0.6641576
-0.6636716
-0.6629258
-0.661035
-0.6727316
-0.6718807
-0.6710122
-0.6701376
-0.6692661
-0.668407
-0.6675719
-0.666786
-0.6661178
-0.6658152
-0.6660113
-0.6652975
-0.664473
-0.6632865
-0.660441
-0.6734559
-0.6725549
-0.6716518
-0.6707692
-0.6699273
-0.6691469
-0.6684544
-0.6678905
-0.6675351
-0.6675506
-0.6675134
-0.6667593
-0.6659552
-0.6649897
-0.6635849
-0.6597648
-0.6741569
-0.6732278
-0.6723069
-0.6714259
-0.6706134
-0.6698978
-0.6693112
-0.6688944
-0.6687038
-0.6688225
-0.668725
-0.6680039
-0.6672461
-0.6664235
-0.6654326
-0.6636625
-0.6585999
-0.674839
-0.6739074
-0.6729894
-0.6721228
-0.671341
-0.6706761
-0.6701614
-0.6698317
-0.6697254
-0.6698787
-0.6697635
-0.6690782
-0.6683764
-0.6676387
-0.6668459
-0.6656957
-0.6633829
-0.6578483
-0.6755051
-0.6745959
-0.6737021
-0.6728637
-0.6721157
-0.6714908
-0.6710208
-0.6707364
-0.6706637
-0.6708195
-0.6706931
-0.6700398
-0.669377
-0.6687031
-0.6680051
-0.6671316
-0.6656736
-0.6632785
-0.6575533
-0.6761565
-0.675292
-0.6744421
-0.6736453
-0.6729351
-0.6723423
-0.6718967
-0.6716261
-0.6715528
-0.6716868
-0.6715496
-0.6709215
-0.6702896
-0.6696543
-0.6690171
-0.668268
-0.6671786
-0.6657331
-0.6633644
-0.6577206
-0.6767922
-0.6759918
-0.6752029
-0.6744595
-0.6737907
-0.673224
-0.6727862
-0.6725042
-0.6724023
-0.6724956
-0.6723475
-0.6717437
-0.6711377
-0.6705334
-0.6699324
-0.6692543
-0.6683245
-0.6672616
-0.6658729
-0.6636339
-0.6583327
-0.6774103
-0.6766891
-0.6759748
-0.6752936
-0.6746687
-0.6741223
-0.6736776
-0.6733611