/*--------------------------------*- C++ -*----------------------------------*\
| =========                 |                                                 |
| \\      /  F ield         | OpenFOAM: The Open Source CFD Toolbox           |
|  \\    /   O peration     | Version:  2306                                  |
|   \\  /    A nd           | Website:  www.openfoam.com                      |
|    \\/     M anipulation  |                                                 |
\*---------------------------------------------------------------------------*/
FoamFile
{
    version     2.0;
    format      ascii;
    arch        "LSB;label=32;scalar=64";
    class       volScalarField;
    location    "0.6/air";
    object      O2;
}
// * * * * * * * * * * * * * * * * * * * * * * * * * * * * * * * * * * * * * //

dimensions      [0 0 0 0 0 0 0];

internalField   nonuniform List<scalar> 
16000
(
0.229819
0.2298233
0.2291182
0.2297903
0.2298297
0.2291884
0.2297967
0.227509
0.2290223
0.2297236
0.2298359
0.2292781
0.2298058
0.2276143
0.2291189
0.2297356
0.225679
0.2273728
0.2287684
0.2295999
0.2298396
0.2293533
0.2298141
0.2277575
0.2292349
0.2297511
0.2257913
0.2275106
0.2289056
0.2296239
0.2238055
0.2255308
0.2270313
0.2282843
0.2293742
0.2298396
0.229395
0.2298191
0.2278842
0.2293281
0.2297646
0.2259454
0.2276899
0.2290669
0.2296509
0.2239172
0.2256763
0.2272096
0.2284707
0.2294266
0.2219685
0.223658
0.2251628
0.2264201
0.2274935
0.2289526
0.1915369
0.2298359
0.229395
0.2298191
0.2279567
0.2293785
0.2297723
0.2260825
0.2278442
0.2291937
0.2296741
0.2240703
0.2258673
0.2274383
0.2286948
0.2294853
0.2220762
0.223802
0.2253471
0.2266382
0.2277278
0.2290512
0.2201961
0.2218253
0.2232929
0.2245129
0.2254812
0.2263284
0.2281901
0.1928838
0.1900319
0.1913237
0.2298297
0.2293533
0.2298141
0.2279567
0.2293785
0.2297723
0.2261616
0.2279314
0.2292613
0.2296874
0.2242066
0.2260332
0.2276328
0.2288714
0.2295289
0.2222238
0.2239911
0.2255857
0.2269187
0.2280191
0.2291728
0.2202992
0.221964
0.2234735
0.2247314
0.2257356
0.2266062
0.2283374
0.2184966
0.220059
0.2214714
0.2226518
0.2235321
0.2241649
0.2247278
0.2269122
0.195605
0.1912438
0.1926656
0.1896926
0.189836
0.190898
0.2298233
0.2292781
0.2298058
0.2278842
0.2293281
0.2297646
0.2261616
0.2279314
0.2292613
0.2296874
0.2242852
0.2261276
0.2277418
0.2289656
0.2295513
0.2223553
0.2241553
0.2257908
0.2271572
0.2282583
0.2292642
0.2204406
0.222146
0.2237072
0.2250154
0.2260656
0.2269598
0.2285332
0.218595
0.2201918
0.2216446
0.222863
0.2237779
0.2244525
0.2250632
0.2271399
0.2168678
0.2183655
0.2197204
0.2208513
0.2216918
0.2221858
0.2224295
0.2226053
0.2248518
0.199801
0.1936866
0.1953692
0.1908241
0.1910441
0.192231
0.1896027
0.1895111
0.1894448
0.1902612
0.229819
0.2291884
0.2297967
0.2277575
0.2292349
0.2297511
0.2260825
0.2278442
0.2291937
0.2296741
0.2242852
0.2261276
0.2277418
0.2289656
0.2295513
0.2224311
0.2242487
0.2259068
0.227291
0.2283893
0.2293106
0.2205663
0.2223041
0.2239081
0.2252595
0.2263479
0.2272611
0.2286974
0.2187299
0.2203659
0.2218688
0.223137
0.2241001
0.2248297
0.2254948
0.2274473
0.2169619
0.2184922
0.2198859
0.2210528
0.2219254
0.2224536
0.2227547
0.2230296
0.2252822
0.215305
0.2167425
0.2180418
0.2191275
0.2199255
0.2203853
0.2204507
0.2202351
0.2198565
0.2215188
0.2058663
0.1974366
0.1994993
0.193104
0.1934731
0.1949055
0.1906651
0.1906393
0.1906463
0.1915834
0.1895334
0.1894326
0.1891486
0.1888594
0.1894147
0.2291182
0.2297903
0.2276143
0.2291189
0.2297356
0.2259454
0.2276899
0.2290669
0.2296509
0.2242066
0.2260332
0.2276328
0.2288714
0.2295289
0.2224311
0.2242487
0.2259068
0.227291
0.2283893
0.2293106
0.2206389
0.2223941
0.2240217
0.2253977
0.2265068
0.2274302
0.2287881
0.21885
0.220517
0.2220614
0.2233725
0.2243788
0.2251548
0.2258605
0.2277061
0.2170909
0.2186584
0.2200998
0.2213139
0.2222312
0.2228089
0.2231849
0.2235715
0.2257999
0.2153952
0.2168637
0.2181997
0.2193195
0.2201469
0.2206362
0.2207448
0.2206272
0.2204744
0.2225603
0.2138027
0.2151851
0.2164331
0.2174751
0.2182432
0.2186701
0.2187163
0.2183065
0.2175223
0.2162955
0.2157466
0.202813
0.2052437
0.1966013
0.1971689
0.1989374
0.1928052
0.1929067
0.1930525
0.194225
0.1905381
0.190492
0.190271
0.190053
0.1907259
0.1893609
0.1893727
0.1890929
0.1886059
0.1880809
0.188191
0.227509
0.2290223
0.2297236
0.2257913
0.2275106
0.2289056
0.2296239
0.2240703
0.2258673
0.2274383
0.2286948
0.2294853
0.2223553
0.2241553
0.2257908
0.2271572
0.2282583
0.2292642
0.2206389
0.2223941
0.2240217
0.2253977
0.2265068
0.2274302
0.2287881
0.2189192
0.220603
0.2221704
0.2235058
0.224537
0.2253384
0.2260652
0.2278495
0.2172056
0.2188026
0.2202836
0.2215384
0.2224954
0.2231185
0.2235565
0.2240247
0.226204
0.2155187
0.2170226
0.2184039
0.2195682
0.2204364
0.2209683
0.2211388
0.2211391
0.2212043
0.2234886
0.2138893
0.2153011
0.2165842
0.2176583
0.2184539
0.2189064
0.2189894
0.2186578
0.2180852
0.2174511
0.218792
0.2123555
0.2136875
0.2148886
0.2158914
0.21663
0.2170455
0.2170724
0.2166696
0.2157098
0.2141403
0.2114346
0.2128666
0.2016098
0.202276
0.2043156
0.1960866
0.1963545
0.1966683
0.1981587
0.1925615
0.1926207
0.1925182
0.1924341
0.1933378
0.1903149
0.1903746
0.1901472
0.1897217
0.1892669
0.1894908
0.1891056
0.1892084
0.1890519
0.1885843
0.1878841
0.1869548
0.1879386
0.225679
0.2273728
0.2287684
0.2295999
0.2239172
0.2256763
0.2272096
0.2284707
0.2294266
0.2222238
0.2239911
0.2255857
0.2269187
0.2280191
0.2291728
0.2205663
0.2223041
0.2239081
0.2252595
0.2263479
0.2272611
0.2286974
0.2189192
0.220603
0.2221704
0.2235058
0.224537
0.2253384
0.2260652
0.2278495
0.2172718
0.2188847
0.2203875
0.2216655
0.2226453
0.2232947
0.2237665
0.2242762
0.2264188
0.2156286
0.2171604
0.2185791
0.2197818
0.2206865
0.2212572
0.2214827
0.2215748
0.2217845
0.2241156
0.2140078
0.2154533
0.2167793
0.2178955
0.2187289
0.2192191
0.2193542
0.2191215
0.2187583
0.2185306
0.2203953
0.2124388
0.213799
0.2150334
0.2160667
0.216831
0.2172701
0.2173288
0.2169959
0.2162215
0.2152058
0.2142884
0.2164524
0.2109586
0.2122447
0.213403
0.2143696
0.2150835
0.2154856
0.2155227
0.2151202
0.214205
0.2125209
0.2096286
0.2089947
0.2106251
0.200783
0.2011142
0.2014698
0.2032355
0.1956634
0.1958562
0.1958931
0.1959713
0.1971958
0.1922361
0.1923875
0.1922574
0.1919469
0.1916264
0.192077
0.1900155
0.1901598
0.1900491
0.1896327
0.1889936
0.1881335
0.189236
0.1887675
0.1889601
0.1889036
0.1885714
0.1879077
0.1868398
0.1867226
0.187684
0.2238055
0.2255308
0.2270313
0.2282843
0.2293742
0.2220762
0.223802
0.2253471
0.2266382
0.2277278
0.2290512
0.2204406
0.222146
0.2237072
0.2250154
0.2260656
0.2269598
0.2285332
0.21885
0.220517
0.2220614
0.2233725
0.2243788
0.2251548
0.2258605
0.2277061
0.2172718
0.2188847
0.2203875
0.2216655
0.2226453
0.2232947
0.2237665
0.2242762
0.2264188
0.2156919
0.2172388
0.2186782
0.2199025
0.2208284
0.2214215
0.2216786
0.2218184
0.2220973
0.2244266
0.2141133
0.2155852
0.2169468
0.2180991
0.2189663
0.2194909
0.2196719
0.2195193
0.2192992
0.219297
0.2213167
0.2125528
0.2139451
0.2152204
0.2162935
0.2170933
0.2175668
0.2176713
0.217425
0.216836
0.216203
0.2159114
0.2184031
0.2110389
0.212352
0.2135421
0.2145376
0.2152759
0.2156999
0.2157664
0.2154269
0.2146839
0.2135096
0.212283
0.2123042
0.2143775
0.2096079
0.2108519
0.211971
0.2129047
0.2135952
0.213989
0.2140305
0.2136629
0.2127762
0.2111886
0.2082966
0.2073682
0.2070837
0.208789
0.2001013
0.2003202
0.2003712
0.2005242
0.2020771
0.1951807
0.1954462
0.1954253
0.1952509
0.1951055
0.195887
0.1918477
0.192071
0.1920447
0.191723
0.1912006
0.1904764
0.1918172
0.189638
0.1898675
0.1898507
0.1895633
0.1889507
0.1879437
0.1878997
0.1889791
0.1883686
0.1886283
0.1886695
0.1884473
0.1879322
0.1869288
0.1866244
0.1864883
0.1874273
0.2219685
0.223658
0.2251628
0.2264201
0.2274935
0.2289526
0.2202992
0.221964
0.2234735
0.2247314
0.2257356
0.2266062
0.2283374
0.2187299
0.2203659
0.2218688
0.223137
0.2241001
0.2248297
0.2254948
0.2274473
0.2172056
0.2188026
0.2202836
0.2215384
0.2224954
0.2231185
0.2235565
0.2240247
0.226204
0.2156919
0.2172388
0.2186782
0.2199025
0.2208284
0.2214215
0.2216786
0.2218184
0.2220973
0.2244266
0.2141741
0.2156604
0.2170415
0.2182143
0.2191008
0.2196456
0.2198525
0.2197431
0.2195925
0.2196889
0.2217459
0.2126543
0.2140718
0.2153808
0.2164881
0.2173195
0.2178243
0.2179696
0.2177922
0.2173317
0.2169141
0.2168997
0.2194974
0.2111489
0.2124925
0.2137216
0.2147551
0.2155268
0.2159829
0.2160915
0.2158305
0.2152566
0.2144332
0.2137934
0.2142102
0.2165545
0.2096855
0.2109553
0.2121049
0.2130662
0.2137798
0.2141944
0.2142634
0.213955
0.2132285
0.21212
0.2107804
0.2104515
0.2105359
0.2125581
0.2082999
0.2095049
0.2105881
0.2114915
0.212161
0.2125456
0.2125968
0.2122534
0.21143
0.2099129
0.2071996
0.2061821
0.2056025
0.2055063
0.2072372
0.1993928
0.1996652
0.1996269
0.1995011
0.1995014
0.2006787
0.1946558
0.1949748
0.1950402
0.1948257
0.1944533
0.1939234
0.1956177
0.1913908
0.1916903
0.1917458
0.1915406
0.1910248
0.1901377
0.1902394
0.1915552
0.1892037
0.1894965
0.1895728
0.1893894
0.1889193
0.1879671
0.1877272
0.187664
0.1887201
0.1879186
0.188235
0.1883502
0.1882343
0.1878402
0.1870074
0.1867269
0.1864072
0.1862521
0.1871684
0.2201961
0.2218253
0.2232929
0.2245129
0.2254812
0.2263284
0.2281901
0.218595
0.2201918
0.2216446
0.222863
0.2237779
0.2244525
0.2250632
0.2271399
0.2170909
0.2186584
0.2200998
0.2213139
0.2222312
0.2228089
0.2231849
0.2235715
0.2257999
0.2156286
0.2171604
0.2185791
0.2197818
0.2206865
0.2212572
0.2214827
0.2215748
0.2217845
0.2241156
0.2141741
0.2156604
0.2170415
0.2182143
0.2191008
0.2196456
0.2198525
0.2197431
0.2195925
0.2196889
0.2217459
0.2127128
0.2141439
0.2154715
0.2165981
0.2174477
0.2179707
0.2181392
0.2179984
0.2176014
0.2172788
0.2173765
0.2199981
0.2112467
0.2126144
0.2138757
0.2149416
0.2157432
0.2162285
0.2163742
0.2161758
0.2157172
0.2150916
0.2147148
0.2153329
0.2177805
0.2097917
0.2110908
0.2122777
0.2132752
0.2140206
0.2144655
0.2145738
0.2143387
0.2137696
0.2129875
0.2121903
0.2122292
0.2126284
0.2148641
0.2083749
0.2096047
0.2107172
0.2116471
0.2123386
0.212743
0.2128203
0.2125328
0.2118614
0.210796
0.2095455
0.2090709
0.2088233
0.2089777
0.2109764
0.207031
0.2082002
0.2092501
0.2101257
0.2107756
0.2111526
0.21121
0.2108954
0.2101194
0.2087014
0.2061289
0.2052039
0.2045325
0.2041498
0.2041613
0.2056997
0.1986719
0.1989796
0.1990119
0.1988153
0.1985615
0.1982564
0.2003923
0.194077
0.1944596
0.1945899
0.1944751
0.1940808
0.1933645
0.1936802
0.1953467
0.1908854
0.1912403
0.1913804
0.1912674
0.1908818
0.1900303
0.1899186
0.1900005
0.1912913
0.1887217
0.189068
0.1892145
0.189133
0.1887779
0.1879904
0.1877642
0.1875089
0.1874264
0.188459
0.1874302
0.1877901
0.1879681
0.1879337
0.1876551
0.1869617
0.1868167
0.1865232
0.1861881
0.1860139
0.1868526
0.2184966
0.220059
0.2214714
0.2226518
0.2235321
0.2241649
0.2247278
0.2269122
0.2169619
0.2184922
0.2198859
0.2210528
0.2219254
0.2224536
0.2227547
0.2230296
0.2252822
0.2155187
0.2170226
0.2184039
0.2195682
0.2204364
0.2209683
0.2211388
0.2211391
0.2212043
0.2234886
0.2141133
0.2155852
0.2169468
0.2180991
0.2189663
0.2194909
0.2196719
0.2195193
0.2192992
0.219297
0.2213167
0.2127128
0.2141439
0.2154715
0.2165981
0.2174477
0.2179707
0.2181392
0.2179984
0.2176014
0.2172788
0.2173765
0.2199981
0.2113031
0.2126837
0.2139628
0.215047
0.2158657
0.2163681
0.2165347
0.2163697
0.2159671
0.2154296
0.2151601
0.2158633
0.218338
0.2098861
0.2112083
0.2124259
0.2134544
0.2142282
0.2147006
0.2148437
0.2146664
0.2142044
0.2136042
0.2130493
0.2132781
0.2138562
0.2161773
0.2084776
0.2097356
0.2108838
0.2118483
0.2125703
0.2130035
0.2131181
0.2128998
0.2123768
0.2116183
0.210875
0.2107342
0.2107783
0.2111797
0.213338
0.2071036
0.2082968
0.2093748
0.2102759
0.2109469
0.2113428
0.2114251
0.211164
0.2105324
0.209544
0.2083557
0.2079334
0.2075526
0.207393
0.2076162
0.2094002
0.2057987
0.2069344
0.2079537
0.2088036
0.2094354
0.2098046
0.2098686
0.2095767
0.2088508
0.2075108
0.2050945
0.2042364
0.2036483
0.2031772
0.2029154
0.2028149
0.2053874
0.1979185
0.1982784
0.1983605
0.1982474
0.1979392
0.1974194
0.1980014
0.2001055
0.1934626
0.1938895
0.194093
0.1940542
0.193773
0.193064
0.1931404
0.1934354
0.1950741
0.1903389
0.1907411
0.1909439
0.1909245
0.1906423
0.1899435
0.1898253
0.1896978
0.1897597
0.1910253
0.1882042
0.1885912
0.1887974
0.1887937
0.1885498
0.1878959
0.1877989
0.1875597
0.1872887
0.1871867
0.1881404
0.1869108
0.1873064
0.1875334
0.1875685
0.1873795
0.1868172
0.1867805
0.1866243
0.1863179
0.1859673
0.1857233
0.1865291
0.2168678
0.2183655
0.2197204
0.2208513
0.2216918
0.2221858
0.2224295
0.2226053
0.2248518
0.2153952
0.2168637
0.2181997
0.2193195
0.2201469
0.2206362
0.2207448
0.2206272
0.2204744
0.2225603
0.2140078
0.2154533
0.2167793
0.2178955
0.2187289
0.2192191
0.2193542
0.2191215
0.2187583
0.2185306
0.2203953
0.2126543
0.2140718
0.2153808
0.2164881
0.2173195
0.2178243
0.2179696
0.2177922
0.2173317
0.2169141
0.2168997
0.2194974
0.2113031
0.2126837
0.2139628
0.215047
0.2158657
0.2163681
0.2165347
0.2163697
0.2159671
0.2154296
0.2151601
0.2158633
0.218338
0.2099405
0.2112751
0.2125097
0.2135557
0.2143457
0.2148341
0.2149969
0.2148503
0.2144405
0.21392
0.2134642
0.2137742
0.2144305
0.2167742
0.2085689
0.2098491
0.2110268
0.2120209
0.2127698
0.2132293
0.2133767
0.2132132
0.2127905
0.2122026
0.2116833
0.2117145
0.2119273
0.2124794
0.2146951
0.2072031
0.2084234
0.2095358
0.2104701
0.2111701
0.2115935
0.2117115
0.2115163
0.2110258
0.2103282
0.2096175
0.2095037
0.2093845
0.2094536
0.2098704
0.211759
0.2058692
0.207028
0.2080744
0.2089487
0.2096008
0.2099881
0.210076
0.2098353
0.2092478
0.2083175
0.2072188
0.2068279
0.2065028
0.2062205
0.2061479
0.2062524
0.2090801
0.2046002
0.2057051
0.2066957
0.2075218
0.2081366
0.2084986
0.2085675
0.2082974
0.2076126
0.2063498
0.2040618
0.2032911
0.2027618
0.2023712
0.2020273
0.2016853
0.2025413
0.205077
0.1971479
0.1975424
0.1976889
0.1976362
0.1974226
0.1968751
0.1971854
0.1977458
0.1998182
0.1928171
0.1932828
0.1935391
0.1935827
0.1933886
0.1928148
0.1928548
0.192915
0.1931891
0.1947999
0.1897626
0.1902002
0.1904569
0.1905079
0.1903286
0.1897519
0.1897501
0.1896188
0.1894753
0.189517
0.190701
0.1876579
0.1880784
0.188331
0.1883937
0.1882357
0.1877088
0.187714
0.1876057
0.1873535
0.1870667
0.1868944
0.1878142
0.1863674
0.1867912
0.187059
0.187149
0.1870366
0.1865776
0.1866444
0.1865978
0.1864303
0.1861108
0.1856978
0.1854258
0.1862828
0.215305
0.2167425
0.2180418
0.2191275
0.2199255
0.2203853
0.2204507
0.2202351
0.2198565
0.2215188
0.2138893
0.2153011
0.2165842
0.2176583
0.2184539
0.2189064
0.2189894
0.2186578
0.2180852
0.2174511
0.218792
0.2125528
0.2139451
0.2152204
0.2162935
0.2170933
0.2175668
0.2176713
0.217425
0.216836
0.216203
0.2159114
0.2184031
0.2112467
0.2126144
0.2138757
0.2149416
0.2157432
0.2162285
0.2163742
0.2161758
0.2157172
0.2150916
0.2147148
0.2153329
0.2177805
0.2099405
0.2112751
0.2125097
0.2135557
0.2143457
0.2148341
0.2149969
0.2148503
0.2144405
0.21392
0.2134642
0.2137742
0.2144305
0.2167742
0.2086216
0.2099136
0.2111076
0.2121183
0.2128828
0.2133575
0.2135235
0.2133889
0.2130148
0.2125018
0.2120732
0.212178
0.2124655
0.2130855
0.2153124
0.2072916
0.2085331
0.2096739
0.2106366
0.2113625
0.2118109
0.2119602
0.2118171
0.2114218
0.2108849
0.2103845
0.2104279
0.2104603
0.2106719
0.2112094
0.2131182
0.2059658
0.2071507
0.2082302
0.2091364
0.2098164
0.2102301
0.2103522
0.2101746
0.2097218
0.2090684
0.2084225
0.2083188
0.2082335
0.2081534
0.2082609
0.2085156
0.2114377
0.2046686
0.2057959
0.2068127
0.2076623
0.2082966
0.208676
0.2087679
0.2085471
0.207995
0.2071246
0.2060947
0.2057633
0.2054725
0.2052487
0.2050627
0.2049074
0.2059753
0.208762
0.2034337
0.2045092
0.2054735
0.2062772
0.2068764
0.2072313
0.2073045
0.2070529
0.2064068
0.2052089
0.2030415
0.2023375
0.2018863
0.2015518
0.2012889
0.2008835
0.2014354
0.2022693
0.2047687
0.1963608
0.1967874
0.1969792
0.1969993
0.1968548
0.1964211
0.1966571
0.1969511
0.1974898
0.1995305
0.1921506
0.1926444
0.1929469
0.1930512
0.1929486
0.19248
0.1926176
0.1926442
0.1926881
0.1929413
0.1944661
0.1891624
0.1896289
0.1899269
0.1900386
0.189938
0.1894799
0.1895683
0.1895552
0.1894105
0.189251
0.1892212
0.1903688
0.1870899
0.1875365
0.1878277
0.1879427
0.1878584
0.187431
0.1875353
0.1875306
0.187411
0.1871455
0.186796
0.1865952
0.1875656
0.1858052
0.1862518
0.1865524
0.1866885
0.1866375
0.1862672
0.1864122
0.1864701
0.1864136
0.1862347
0.1858582
0.185422
0.1851994
0.1861152
0.2138027
0.2151851
0.2164331
0.2174751
0.2182432
0.2186701
0.2187163
0.2183065
0.2175223
0.2162955
0.2157466
0.2124388
0.213799
0.2150334
0.2160667
0.216831
0.2172701
0.2173288
0.2169959
0.2162215
0.2152058
0.2142884
0.2164524
0.2111489
0.2124925
0.2137216
0.2147551
0.2155268
0.2159829
0.2160915
0.2158305
0.2152566
0.2144332
0.2137934
0.2142102
0.2165545
0.2098861
0.2112083
0.2124259
0.2134544
0.2142282
0.2147006
0.2148437
0.2146664
0.2142044
0.2136042
0.2130493
0.2132781
0.2138562
0.2161773
0.2086216
0.2099136
0.2111076
0.2121183
0.2128828
0.2133575
0.2135235
0.2133889
0.2130148
0.2125018
0.2120732
0.212178
0.2124655
0.2130855
0.2153124
0.2073426
0.2085956
0.2097519
0.2107306
0.2114713
0.2119343
0.2121013
0.2119857
0.2116365
0.2111699
0.2107543
0.2108644
0.210964
0.2112408
0.2118335
0.2137368
0.2060516
0.207257
0.2083638
0.2092973
0.2100021
0.2104398
0.2105919
0.2104641
0.2101021
0.2096015
0.209154
0.2091962
0.2092489
0.2092957
0.2095184
0.2098636
0.212797
0.2047624
0.2059149
0.2069636
0.207844
0.2085052
0.2089099
0.2090347
0.2088744
0.2084515
0.2078458
0.2072471
0.2071857
0.2071162
0.2070757
0.2070466
0.2070334
0.20824
0.211118
0.2035003
0.2045975
0.2055871
0.2064135
0.2070315
0.2074031
0.2074985
0.2072943
0.2067758
0.2059547
0.2049929
0.2047035
0.2044724
0.2042848
0.20416
0.2039117
0.2046555
0.2056999
0.2084459
0.2022963
0.2033453
0.2042843
0.2050676
0.2056518
0.2060001
0.2060768
0.2058419
0.2052293
0.2040915
0.2020282
0.2013879
0.2009948
0.2007341
0.2005268
0.2002136
0.2006511
0.201187
0.2019989
0.2044622
0.1955654
0.1960144
0.1962475
0.1963201
0.1962553
0.1959061
0.196216
0.1964387
0.1967163
0.1972333
0.1991818
0.1914678
0.1919843
0.1923215
0.1924791
0.1924451
0.1920832
0.192293
0.1924192
0.1924324
0.1924598
0.1926396
0.1941241
0.1885447
0.1890334
0.1893656
0.1895248
0.189492
0.1891262
0.189305
0.1893833
0.1893588
0.1892007
0.1889776
0.1889183
0.1901157
0.1865049
0.1869725
0.1872945
0.1874535
0.1874279
0.1870863
0.187265
0.1873604
0.1873457
0.1872146
0.1868919
0.1865189
0.1863674
0.1873966
0.1852282
0.1856932
0.1860208
0.1861947
0.1861955
0.1858974
0.1861085
0.1862455
0.1862944
0.1862277
0.185996
0.1855998
0.1852123
0.1850456
0.1860294
0.2058663
0.2123555
0.2136875
0.2148886
0.2158914
0.21663
0.2170455
0.2170724
0.2166696
0.2157098
0.2141403
0.2114346
0.2128666
0.2110389
0.212352
0.2135421
0.2145376
0.2152759
0.2156999
0.2157664
0.2154269
0.2146839
0.2135096
0.212283
0.2123042
0.2143775
0.2097917
0.2110908
0.2122777
0.2132752
0.2140206
0.2144655
0.2145738
0.2143387
0.2137696
0.2129875
0.2121903
0.2122292
0.2126284
0.2148641
0.2085689
0.2098491
0.2110268
0.2120209
0.2127698
0.2132293
0.2133767
0.2132132
0.2127905
0.2122026
0.2116833
0.2117145
0.2119273
0.2124794
0.2146951
0.2073426
0.2085956
0.2097519
0.2107306
0.2114713
0.2119343
0.2121013
0.2119857
0.2116365
0.2111699
0.2107543
0.2108644
0.210964
0.2112408
0.2118335
0.2137368
0.2061011
0.2073175
0.2084393
0.2093882
0.2101072
0.2105588
0.2107279
0.2106264
0.2103082
0.2098744
0.2095066
0.2096105
0.209724
0.2098289
0.2101053
0.2104922
0.2134156
0.2048457
0.206018
0.2070931
0.2079997
0.2086847
0.2091126
0.2092662
0.2091537
0.2088177
0.2083577
0.2079475
0.2080227
0.2080804
0.2081548
0.2082268
0.2083022
0.2095895
0.2124769
0.2035914
0.204713
0.2057335
0.2065896
0.2072334
0.2076295
0.2077566
0.2076107
0.2072164
0.206649
0.2060994
0.2060651
0.2060407
0.2060204
0.206036
0.2059096
0.2067837
0.2079657
0.2107997
0.2023611
0.2034311
0.2043946
0.2051998
0.2058022
0.2061667
0.2062649
0.2060756
0.2055861
0.2048108
0.2039055
0.2036588
0.2034698
0.2033417
0.2032543
0.2030791
0.2036779
0.2044052
0.2054263
0.2081318
0.2011875
0.2022102
0.2031266
0.20389
0.2044608
0.2048024
0.2048823
0.2046621
0.2040799
0.202995
0.2010268
0.2004385
0.2001005
0.1998936
0.1997583
0.1995091
0.1999952
0.2004202
0.2009402
0.2017302
0.2040937
0.1947642
0.1952318
0.1954956
0.1956158
0.1956092
0.1953523
0.1957118
0.1960105
0.19622
0.1964811
0.1969224
0.1988246
0.1907739
0.1913073
0.1916733
0.1918719
0.191898
0.1916178
0.1919051
0.1921049
0.1922196
0.1922192
0.192182
0.1923307
0.1938634
0.1879136
0.18842
0.1887793
0.1889782
0.1889992
0.1887134
0.1889589
0.1891287
0.1891969
0.1891608
0.1889449
0.1886978
0.1886877
0.1899435
0.1859066
0.1863911
0.1867384
0.1869333
0.1869573
0.1866853
0.186927
0.1870977
0.1871841
0.1871592
0.1869751
0.1866324
0.1863081
0.1862127
0.18731
0.1846391
0.1851196
0.1854696
0.1856749
0.1857187
0.1854822
0.1857447
0.1859484
0.1860773
0.1861171
0.1860011
0.185752
0.1854033
0.1850699
0.1849669
0.199801
0.202813
0.2052437
0.2109586
0.2122447
0.213403
0.2143696
0.2150835
0.2154856
0.2155227
0.2151202
0.214205
0.2125209
0.2096286
0.2089947
0.2106251
0.2096855
0.2109553
0.2121049
0.2130662
0.2137798
0.2141944
0.2142634
0.213955
0.2132285
0.21212
0.2107804
0.2104515
0.2105359
0.2125581
0.2084776
0.2097356
0.2108838
0.2118483
0.2125703
0.2130035
0.2131181
0.2128998
0.2123768
0.2116183
0.210875
0.2107342
0.2107783
0.2111797
0.213338
0.2072916
0.2085331
0.2096739
0.2106366
0.2113625
0.2118109
0.2119602
0.2118171
0.2114218
0.2108849
0.2103845
0.2104279
0.2104603
0.2106719
0.2112094
0.2131182
0.2061011
0.2073175
0.2084393
0.2093882
0.2101072
0.2105588
0.2107279
0.2106264
0.2103082
0.2098744
0.2095066
0.2096105
0.209724
0.2098289
0.2101053
0.2104922
0.2134156
0.2048938
0.2060767
0.2071662
0.2080877
0.2087864
0.2092276
0.2093975
0.2093103
0.2090162
0.2086198
0.2082851
0.2084179
0.2085315
0.2086582
0.2087776
0.2088948
0.2102188
0.2130953
0.2036725
0.2048132
0.2058591
0.2067405
0.2074074
0.2078257
0.2079806
0.2078806
0.2075697
0.2071419
0.2067719
0.2068665
0.2069608
0.2070454
0.2071515
0.2071018
0.2080546
0.2093164
0.2121578
0.2024498
0.2035435
0.2045369
0.2053708
0.2059981
0.2063862
0.2065149
0.206382
0.2060119
0.2054807
0.2049705
0.2049662
0.2049711
0.2049978
0.2050367
0.2049693
0.2056783
0.2065353
0.2076927
0.2104829
0.2012506
0.2022938
0.2032339
0.2040185
0.2046068
0.2049641
0.2050647
0.2048887
0.2044254
0.20369
0.2028367
0.2026232
0.2024761
0.2023894
0.2023609
0.2022318
0.2028596
0.2034457
0.2041565
0.2051544
0.2077542
0.2001036
0.2011036
0.2019974
0.2027432
0.2033005
0.2036364
0.2037186
0.2035118
0.202957
0.2019201
0.2000367
0.1994953
0.1992011
0.1990449
0.1989614
0.1987901
0.1993023
0.1997782
0.2001907
0.2006949
0.2014068
0.2037162
0.1939613
0.1944424
0.1947322
0.1948886
0.1949344
0.1947464
0.1951673
0.1955171
0.1958046
0.1960008
0.196196
0.1966041
0.1985522
0.1900723
0.1906187
0.1910072
0.1912403
0.1913134
0.1911048
0.1914476
0.1917259
0.1919156
0.1920187
0.1919598
0.1918976
0.1920954
0.193686
0.1872727
0.1877929
0.1881743
0.1884054
0.1884718
0.1882506
0.1885529
0.1887903
0.188951
0.1890091
0.1889194
0.1886832
0.1884848
0.188531
0.1898553
0.1852978
0.1857963
0.1861645
0.1863892
0.1864543
0.1862418
0.1865322
0.1867665
0.1869289
0.1870063
0.1869318
0.1867301
0.1864351
0.186165
0.1861335
0.1840406
0.1845337
0.1849027
0.1851346
0.1852146
0.18503
0.1853351
0.1855908
0.185787
0.1859077
0.1859009
0.1857693
0.1855665
0.18527
0.1849971
0.195605
0.1974366
0.1994993
0.2016098
0.202276
0.2043156
0.2096079
0.2108519
0.211971
0.2129047
0.2135952
0.213989
0.2140305
0.2136629
0.2127762
0.2111886
0.2082966
0.2073682
0.2070837
0.208789
0.2083749
0.2096047
0.2107172
0.2116471
0.2123386
0.212743
0.2128203
0.2125328
0.2118614
0.210796
0.2095455
0.2090709
0.2088233
0.2089777
0.2109764
0.2072031
0.2084234
0.2095358
0.2104701
0.2111701
0.2115935
0.2117115
0.2115163
0.2110258
0.2103282
0.2096175
0.2095037
0.2093845
0.2094536
0.2098704
0.211759
0.2060516
0.207257
0.2083638
0.2092973
0.2100021
0.2104398
0.2105919
0.2104641
0.2101021
0.2096015
0.209154
0.2091962
0.2092489
0.2092957
0.2095184
0.2098636
0.212797
0.2048938
0.2060767
0.2071662
0.2080877
0.2087864
0.2092276
0.2093975
0.2093103
0.2090162
0.2086198
0.2082851
0.2084179
0.2085315
0.2086582
0.2087776
0.2088948
0.2102188
0.2130953
0.2037192
0.2048701
0.2059301
0.2068257
0.2075058
0.207937
0.2081076
0.2080319
0.2077612
0.2073942
0.2070962
0.2072449
0.2073911
0.2075235
0.2076718
0.2076585
0.2086481
0.2099463
0.212776
0.2025287
0.2036409
0.2046589
0.2055173
0.2061668
0.2065764
0.2067319
0.2066433
0.2063535
0.2059562
0.2056178
0.2057357
0.205852
0.2059759
0.2060966
0.2060967
0.2068727
0.2078079
0.2090444
0.2118398
0.2013371
0.2024031
0.2033723
0.2041847
0.2047971
0.2051772
0.2053073
0.2051858
0.2048377
0.2043373
0.2038637
0.2038813
0.2039174
0.2039748
0.204062
0.2040282
0.2047524
0.2054483
0.2062881
0.2074211
0.2101014
0.2001652
0.201185
0.2021018
0.2028682
0.2034425
0.2037935
0.2038958
0.2037319
0.2032919
0.2025927
0.2017847
0.2016014
0.2014864
0.2014404
0.2014525
0.2013886
0.2020242
0.2026416
0.203215
0.2039095
0.2048275
0.2073672
0.1990458
0.2000218
0.2008962
0.2016241
0.2021698
0.2024994
0.2025841
0.2023892
0.2018594
0.2008661
0.1990598
0.1985585
0.1983033
0.1981867
0.1981514
0.1980366
0.1985934
0.1990969
0.1995625
0.1999627
0.2003999
0.2010758
0.2034284
0.1931589
0.1936503
0.1939603
0.1941477
0.1942339
0.1941075
0.1945697
0.194982
0.1953222
0.1955984
0.1957353
0.1959043
0.1963616
0.1983668
0.1893659
0.1899221
0.1903287
0.1905894
0.1907023
0.190551
0.1909416
0.1912762
0.1915456
0.1917252
0.1917742
0.1916943
0.1916812
0.1919355
0.1935951
0.1866241
0.1871556
0.187555
0.1878128
0.1879166
0.1877506
0.1880963
0.1883912
0.1886203
0.1887719
0.18878
0.1886726
0.1884841
0.1883403
0.1884508
0.1846809
0.1851908
0.1855766
0.1858263
0.185926
0.1857635
0.1860942
0.1863778
0.1866046
0.1867588
0.1867894
0.1866992
0.1865439
0.1863012
0.1860919
0.1834346
0.1839382
0.1843231
0.1845778
0.1846888
0.1845486
0.184888
0.1851867
0.1854356
0.1856243
0.1857008
0.1856799
0.1855932
0.1854407
0.1852019
0.1928838
0.1936866
0.1953692
0.1966013
0.1971689
0.1989374
0.200783
0.2011142
0.2014698
0.2032355
0.2082999
0.2095049
0.2105881
0.2114915
0.212161
0.2125456
0.2125968
0.2122534
0.21143
0.2099129
0.2071996
0.2061821
0.2056025
0.2055063
0.2072372
0.2071036
0.2082968
0.2093748
0.2102759
0.2109469
0.2113428
0.2114251
0.211164
0.2105324
0.209544
0.2083557
0.2079334
0.2075526
0.207393
0.2076162
0.2094002
0.2059658
0.2071507
0.2082302
0.2091364
0.2098164
0.2102301
0.2103522
0.2101746
0.2097218
0.2090684
0.2084225
0.2083188
0.2082335
0.2081534
0.2082609
0.2085156
0.2114377
0.2048457
0.206018
0.2070931
0.2079997
0.2086847
0.2091126
0.2092662
0.2091537
0.2088177
0.2083577
0.2079475
0.2080227
0.2080804
0.2081548
0.2082268
0.2083022
0.2095895
0.2124769
0.2037192
0.2048701
0.2059301
0.2068257
0.2075058
0.207937
0.2081076
0.2080319
0.2077612
0.2073942
0.2070962
0.2072449
0.2073911
0.2075235
0.2076718
0.2076585
0.2086481
0.2099463
0.212776
0.2025742
0.2036963
0.2047278
0.2056
0.2062622
0.2066842
0.2068549
0.2067897
0.2065386
0.2061996
0.2059299
0.206099
0.2062641
0.2064322
0.2065909
0.206623
0.2074305
0.2084024
0.2096748
0.2124575
0.201414
0.2024979
0.2034909
0.204327
0.2049609
0.2053617
0.2055178
0.205439
0.2051684
0.2047969
0.204488
0.2046219
0.2047632
0.2049113
0.2050735
0.2050997
0.205882
0.2066446
0.2075623
0.2087733
0.2114564
0.2002495
0.2012916
0.2022366
0.2030298
0.2036275
0.2040006
0.2041314
0.2040202
0.2036917
0.2032192
0.2027768
0.2028145
0.2028734
0.2029625
0.203081
0.2031031
0.2038231
0.2045366
0.2052195
0.2060423
0.207094
0.2097104
0.1991059
0.2001012
0.200998
0.2017459
0.202308
0.2026523
0.2027564
0.2026031
0.2021845
0.2015179
0.2007506
0.2005924
0.2005064
0.2004913
0.2005426
0.200524
0.2011911
0.201818
0.202425
0.2029859
0.2036126
0.2044927
0.2070722
0.1980089
0.198966
0.1998195
0.2005324
0.2010658
0.2013905
0.2014765
0.201293
0.2007858
0.1998324
0.1980963
0.1976306
0.1974082
0.1973264
0.1973282
0.1972654
0.1978487
0.1983979
0.1988928
0.1993482
0.1996885
0.2000979
0.2008237
0.2032325
0.1923589
0.1928579
0.1931844
0.1933964
0.1935172
0.1934394
0.1939382
0.1943927
0.1947964
0.1951268
0.1953485
0.1954635
0.1956822
0.1961968
0.1982717
0.1886564
0.1892203
0.1896414
0.1899248
0.1900702
0.189968
0.1903942
0.1907773
0.1911039
0.1913642
0.1914933
0.1915241
0.1914923
0.1915342
0.1918537
0.1859701
0.1865105
0.186925
0.187205
0.1873402
0.1872205
0.187602
0.1879408
0.1882282
0.1884491
0.1885536
0.1885458
0.1884849
0.1883491
0.1882664
0.1840576
0.1845768
0.1849774
0.1852486
0.1853778
0.185258
0.185621
0.1859454
0.1862221
0.1864414
0.1865513
0.1865677
0.1865225
0.1864176
0.1862328
0.1828228
0.1833349
0.1837334
0.1840077
0.1841455
0.1840438
0.1844112
0.1847447
0.1850371
0.1852791
0.1854257
0.1854893
0.185512
0.1854738
0.1853764
0.1915369
0.1912438
0.1926656
0.193104
0.1934731
0.1949055
0.1960866
0.1963545
0.1966683
0.1981587
0.2001013
0.2003202
0.2003712
0.2005242
0.2020771
0.207031
0.2082002
0.2092501
0.2101257
0.2107756
0.2111526
0.21121
0.2108954
0.2101194
0.2087014
0.2061289
0.2052039
0.2045325
0.2041498
0.2041613
0.2056997
0.2058692
0.207028
0.2080744
0.2089487
0.2096008
0.2099881
0.210076
0.2098353
0.2092478
0.2083175
0.2072188
0.2068279
0.2065028
0.2062205
0.2061479
0.2062524
0.2090801
0.2047624
0.2059149
0.2069636
0.207844
0.2085052
0.2089099
0.2090347
0.2088744
0.2084515
0.2078458
0.2072471
0.2071857
0.2071162
0.2070757
0.2070466
0.2070334
0.20824
0.211118
0.2036725
0.2048132
0.2058591
0.2067405
0.2074074
0.2078257
0.2079806
0.2078806
0.2075697
0.2071419
0.2067719
0.2068665
0.2069608
0.2070454
0.2071515
0.2071018
0.2080546
0.2093164
0.2121578
0.2025742
0.2036963
0.2047278
0.2056
0.2062622
0.2066842
0.2068549
0.2067897
0.2065386
0.2061996
0.2059299
0.206099
0.2062641
0.2064322
0.2065909
0.206623
0.2074305
0.2084024
0.2096748
0.2124575
0.2014583
0.2025519
0.203558
0.2044074
0.2050536
0.2054664
0.2056371
0.2055809
0.2053476
0.2050321
0.2047891
0.2049716
0.2051589
0.2053482
0.2055453
0.2055998
0.2064093
0.2072033
0.2081575
0.209404
0.2120732
0.2003245
0.201384