/*--------------------------------*- C++ -*----------------------------------*\
| =========                 |                                                 |
| \\      /  F ield         | OpenFOAM: The Open Source CFD Toolbox           |
|  \\    /   O peration     | Version:  2306                                  |
|   \\  /    A nd           | Website:  www.openfoam.com                      |
|    \\/     M anipulation  |                                                 |
\*---------------------------------------------------------------------------*/
FoamFile
{
    version     2.0;
    format      ascii;
    arch        "LSB;label=32;scalar=64";
    class       volVectorField;
    location    "0.6/air";
    object      U;
}
// * * * * * * * * * * * * * * * * * * * * * * * * * * * * * * * * * * * * * //

dimensions      [0 1 -1 0 0 0 0];

internalField   nonuniform List<vector> 
16000
(
(0.475553 0.06443451 -0.06457708)
(0.8227371 0.1207901 -0.09947746)
(0.494036 0.006141584 -0.005944783)
(0.822941 0.0990342 -0.122349)
(0.9668895 0.1036841 -0.09984779)
(0.963103 0.01543429 -0.01126354)
(1.593171 0.2014782 -0.2055405)
(0.3427775 -0.002120953 0.002146724)
(0.9633502 0.011479 -0.01476529)
(0.9675108 0.09919038 -0.1077813)
(1.023208 0.06516378 -0.09763906)
(1.213754 0.01563584 -0.01190789)
(1.965219 0.18755 -0.2246804)
(0.7102987 -0.002902289 0.003615729)
(2.10626 0.03128327 -0.03069674)
(1.966228 0.2187712 -0.1975282)
(0.4080794 0.001264211 -0.001261045)
(0.7105751 -0.003583798 0.003001757)
(1.214951 0.01204503 -0.01477093)
(1.024452 0.09677822 -0.07265895)
(1.04267 0.02192964 -0.0961351)
(1.354978 0.01041707 -0.0115921)
(2.107702 0.1253399 -0.2288445)
(0.9292387 -0.002759932 0.003878275)
(2.772823 0.03767399 -0.03907594)
(2.441121 0.2166768 -0.2312329)
(0.8297105 0.002099724 -0.002250767)
(1.635553 -0.004988493 0.005093161)
(2.775207 0.03896105 -0.03747493)
(2.110276 0.2213075 -0.1432248)
(0.3721646 -0.0006385071 0.0006466153)
(0.8299686 0.002224818 -0.00218988)
(0.9305859 -0.003864099 0.002888689)
(1.358301 0.01161752 -0.009691068)
(1.045157 0.09493789 -0.03353496)
(1.04267 -0.02192964 -0.0961351)
(1.417418 0.003709328 -0.01150923)
(2.158212 0.04329963 -0.2275458)
(1.05473 -0.001888342 0.004097314)
(3.168661 0.02703255 -0.03810307)
(2.654619 0.1478199 -0.2382001)
(1.074017 0.002050146 -0.00244769)
(2.233217 -0.004765242 0.005750551)
(3.765884 0.04527222 -0.04636387)
(2.657311 0.2203112 -0.1728956)
(0.7653624 -0.001095625 0.001112085)
(1.880762 0.00361274 -0.003929455)
(2.235828 -0.005792712 0.004843012)
(3.177205 0.03717684 -0.02760309)
(2.164705 0.2181954 -0.06983928)
(0.3919255 0.0003898645 -0.0003820594)
(0.7656103 -0.001129282 0.001035773)
(1.075315 0.002393419 -0.002359441)
(1.058411 -0.004124269 0.001919563)
(1.424429 0.01139377 -0.003532578)
(1.047413 0.09438798 0.005311285)
(0.0005741362 -0.001063366 -0.0005029689)
(1.023208 -0.06516378 -0.09763906)
(1.417418 -0.003709328 -0.01150923)
(2.158212 -0.04329963 -0.2275458)
(1.113505 -0.0006442943 0.004187004)
(3.345904 0.009923182 -0.03720271)
(2.732567 0.05188398 -0.2378267)
(1.213801 0.001333259 -0.002441833)
(2.592144 -0.003141353 0.006125336)
(4.332619 0.03561138 -0.04952246)
(2.907913 0.1523531 -0.1821445)
(0.9977877 -0.001076396 0.001195521)
(2.542772 0.003622473 -0.004382236)
(3.116349 -0.005449826 0.005238264)
(4.340574 0.04679737 -0.03848378)
(2.740573 0.2171029 -0.08787942)
(0.8013873 0.0006219203 -0.0006993639)
(1.753817 -0.002043107 0.001784367)
(2.545359 0.003859849 -0.004453436)
(2.601082 -0.006446608 0.002980506)
(3.364811 0.03536798 -0.01204058)
(2.171219 0.2161203 0.007643061)
(0.381271 -0.0001697734 0.0001792973)
(0.8016395 0.0006772186 -0.000697306)
(0.9990373 -0.001239111 0.00083566)
(1.21742 0.002356961 -0.001980131)
(1.121264 -0.004283054 0.000378943)
(1.430756 0.01118278 0.002909462)
(1.032541 0.09513297 0.04281207)
(0.0005886717 -0.003077008 -0.0005205658)
(0.0006171269 -0.0009273635 -0.0004625533)
(0.0005793354 -0.001065676 -0.0009784249)
(0.9668895 -0.1036841 -0.09984779)
(1.354978 -0.01041707 -0.0115921)
(2.107702 -0.1253399 -0.2288445)
(1.113505 0.0006442944 0.004187004)
(3.345904 -0.009923182 -0.03720271)
(2.732567 -0.05188398 -0.2378267)
(1.278136 0.0004508141 -0.002421821)
(2.760608 -0.001050309 0.006374296)
(4.588433 0.01331785 -0.04970702)
(2.999871 0.05392418 -0.1836049)
(1.132783 -0.0007102058 0.001204461)
(2.93433 0.002418487 -0.004340772)
(3.656359 -0.003267285 0.005244669)
(5.013859 0.03750798 -0.04267413)
(3.0059 0.1506247 -0.09530696)
(1.041125 0.0005953181 -0.0007797274)
(2.387369 -0.00213264 0.002023021)
(3.513681 0.003883907 -0.005110901)
(3.665029 -0.005934498 0.002705998)
(4.612073 0.04530399 -0.01838714)
(2.750642 0.2145028 0.005767917)
(0.7821985 -0.0002974413 0.0002867433)
(1.82638 0.001013204 -0.001321433)
(2.389871 -0.002471042 0.00142657)
(2.943302 0.00360912 -0.003954968)
(2.780976 -0.007125033 0.0003480256)
(3.3832 0.03423693 0.00585145)
(2.13268 0.2155141 0.08151306)
(0.3869845 0.0001339876 -0.0001253481)
(0.7824483 -0.00030323 0.0002411475)
(1.042391 0.0007277672 -0.0008825525)
(1.136272 -0.001276114 0.0001855394)
(1.285865 0.002286138 -0.00158001)
(1.127539 -0.004414042 -0.001528781)
(1.378494 0.01093647 0.008108682)
(0.9867896 0.09683673 0.07562553)
(0.0006140789 -0.005557164 -0.0005602684)
(0.0006361284 -0.002685359 -0.0004765158)
(0.0005939069 -0.003088841 -0.001020377)
(0.0004094011 -0.0008834163 -0.0004296949)
(0.0006213542 -0.0009299154 -0.0008993324)
(0.0005771224 -0.001059436 -0.002671232)
(0.8227371 -0.1207901 -0.09947746)
(1.213754 -0.01563584 -0.0119079)
(1.965219 -0.18755 -0.2246804)
(1.05473 0.001888342 0.004097314)
(3.168661 -0.02703255 -0.03810307)
(2.654619 -0.1478199 -0.2382001)
(1.278136 -0.0004508142 -0.002421821)
(2.760608 0.001050309 0.006374296)
(4.588433 -0.01331785 -0.04970702)
(2.999871 -0.05392418 -0.1836049)
(1.195471 -0.0002447947 0.001208681)
(3.11683 0.0008328721 -0.004236181)
(3.911995 -0.001035926 0.005320725)
(5.319113 0.01417055 -0.04361565)
(3.103139 0.05344276 -0.09752904)
(1.179458 0.0003777682 -0.0007931691)
(2.767201 -0.001480048 0.0021252)
(4.100003 0.00261258 -0.005136268)
(4.325802 -0.003468426 0.002365119)
(5.337325 0.03655368 -0.02164445)
(3.018124 0.14861 0.0028425)
(1.018285 -0.000288387 0.0002901248)
(2.477892 0.0009869419 -0.001548242)
(3.321154 -0.00268655 0.001611616)
(4.108815 0.003566202 -0.004694618)
(3.937532 -0.006657697 -7.595014e-05)
(4.639235 0.04376666 0.006116723)
(2.692343 0.2132496 0.09444402)
(0.7925668 0.000211849 -0.0002483285)
(1.788281 -0.0005921674 0.0003317997)
(2.480421 0.001025887 -0.001817111)
(2.775883 -0.00275921 0.0001615588)
(3.137417 0.003214428 -0.003274038)
(2.798699 -0.007749663 -0.002686607)
(3.236402 0.03377449 0.02087778)
(2.020799 0.2099313 0.1391954)
(0.3837343 -3.380471e-05 4.248771e-05)
(0.7928177 0.0002305978 -0.0002720637)
(1.01954 -0.0003340888 5.018187e-05)
(1.182989 0.0007120215 -0.0009871858)
(1.202934 -0.001326386 -0.0006861601)
(1.292346 0.002183187 -0.001401024)
(1.077913 -0.004571489 -0.003868848)
(1.252258 0.01095306 0.01164036)
(0.8634365 0.0979978 0.08529493)
(0.0006611544 -0.007283238 -0.0008680193)
(0.0006695561 -0.004825735 -0.0005084952)
(0.0006193354 -0.005479836 -0.001103803)
(0.00042054 -0.002558262 -0.0004423405)
(0.0006403723 -0.002697458 -0.0009330714)
(0.0005915233 -0.003060882 -0.002733325)
(0.0005795289 -0.0008220982 -0.0004036372)
(0.000411838 -0.0008862225 -0.0008355922)
(0.0006182081 -0.0009252461 -0.002457674)
(0.0005704922 -0.001036057 -0.000914348)
(0.475553 -0.06443451 -0.06457708)
(0.963103 -0.01543429 -0.01126354)
(1.593171 -0.2014782 -0.2055405)
(0.9292387 0.002759933 0.003878275)
(2.772823 -0.03767399 -0.03907594)
(2.441121 -0.2166768 -0.2312329)
(1.213801 -0.001333259 -0.002441833)
(2.592144 0.003141353 0.006125336)
(4.332619 -0.03561138 -0.04952246)
(2.907913 -0.1523531 -0.1821445)
(1.195471 0.0002447948 0.001208681)
(3.11683 -0.0008328721 -0.004236181)
(3.911995 0.001035926 0.005320725)
(5.319113 -0.01417055 -0.04361565)
(3.103139 -0.05344276 -0.09752904)
(1.243475 0.0001267001 -0.0007958384)
(2.945706 -0.0005218315 0.00217457)
(4.376305 0.0009055438 -0.00503133)
(4.640412 -0.001077753 0.00225829)
(5.666651 0.0138823 -0.02284576)
(3.116344 0.05270094 0.0008384593)
(1.155081 -0.0001898862 0.0002814947)
(2.866226 0.0006354984 -0.001601097)
(3.892371 -0.001924424 0.001710746)
(4.82515 0.002366603 -0.004812391)
(4.660132 -0.003979776 -0.0004327511)
(5.369759 0.03526049 0.0050946)
(2.950579 0.147091 0.09567383)
(1.030712 0.0002077726 -0.0002918265)
(2.430963 -0.0006200366 0.0003040504)
(3.435821 0.0009709175 -0.002225404)
(3.900916 -0.003091329 9.411093e-05)
(4.40231 0.003054576 -0.003955863)
(3.964184 -0.007433758 -0.002909403)
(4.426903 0.04253142 0.02699422)
(2.51541 0.2077107 0.1623671)
(0.786681 -6.455987e-05 4.775897e-05)
(1.80905 0.0003164087 -0.0005826259)
(2.433467 -0.000761557 -9.940703e-05)
(2.874999 0.000882272 -0.002165185)
(2.965672 -0.003061789 -0.001567766)
(3.15582 0.002751049 -0.002775034)
(2.655978 -0.008397507 -0.006208814)
(2.880912 0.03427399 0.0301498)
(1.696295 0.1943115 0.1502173)
(0.385294 5.668831e-05 -4.856445e-05)
(0.7869308 -6.354357e-05 1.082463e-05)
(1.031969 0.0002468127 -0.000452785)
(1.158577 -0.0003533429 -0.0003336291)
(1.251016 0.0006698473 -0.00117716)
(1.209144 -0.00142229 -0.001792746)
(1.237702 0.001991618 -0.001603283)
(0.9654129 -0.004641428 -0.006321206)
(1.027719 0.0105075 0.008387874)
(0.565427 0.06913823 0.007637104)
(0.0007110913 -0.01457299 -0.001148784)
(0.0007314749 -0.006328651 -0.0007635741)
(0.0006650228 -0.007126858 -0.001671487)
(0.000440117 -0.004591163 -0.0004715297)
(0.0006737716 -0.004764546 -0.001000546)
(0.0006166176 -0.005357032 -0.0028537)
(0.000590614 -0.002380337 -0.000415127)
(0.000423005 -0.002570763 -0.0008664484)
(0.0006369925 -0.002674828 -0.00250559)
(0.0005845027 -0.003013309 -0.000948569)
(0.0005326948 -0.0007822448 -0.0003820578)
(0.0005844423 -0.0008248758 -0.0007847989)
(0.0004094168 -0.0008820301 -0.002283623)
(0.0006051475 -0.0009064919 -0.0008404081)
(0.0005674962 -0.001037075 -0.009128176)
(0.494036 -0.006141584 -0.005944783)
(0.822941 -0.0990342 -0.122349)
(0.7102987 0.002902289 0.003615729)
(2.10626 -0.03128327 -0.03069674)
(1.966228 -0.2187712 -0.1975282)
(1.074017 -0.002050146 -0.002447689)
(2.233217 0.004765242 0.005750551)
(3.765884 -0.04527222 -0.04636387)
(2.657311 -0.2203112 -0.1728956)
(1.132783 0.0007102059 0.001204461)
(2.93433 -0.002418487 -0.004340772)
(3.656359 0.003267285 0.005244669)
(5.013859 -0.03750798 -0.04267413)
(3.0059 -0.1506247 -0.09530696)
(1.243475 -0.0001267001 -0.0007958383)
(2.945706 0.0005218314 0.00217457)
(4.376305 -0.0009055439 -0.00503133)
(4.640412 0.001077753 0.002258289)
(5.666651 -0.0138823 -0.02284576)
(3.116344 -0.05270094 0.0008384592)
(1.21854 -6.560332e-05 0.000277884)
(3.048185 0.0002139195 -0.001601936)
(4.163695 -0.0006892505 0.001771331)
(5.165305 0.000816146 -0.004757251)
(5.005105 -0.001255863 -0.0005990534)
(5.701413 0.01338498 0.004225786)
(3.046151 0.05202639 0.09395707)
(1.168424 0.0001335023 -0.0003057674)
(2.815463 -0.0004348973 0.0002767254)
(4.018701 0.0006042118 -0.002350585)
(4.60119 -0.002266847 0.000108363)
(5.18543 0.001960379 -0.004107457)
(4.692635 -0.00458199 -0.00298946)
(5.116469 0.03397398 0.02806212)
(2.744332 0.1416907 0.1652242)
(1.023676 -5.905358e-05 3.065553e-05)
(2.456751 0.0003097994 -0.0007412906)
(3.377213 -0.0008434754 -0.0002682976)
(4.027331 0.0007621936 -0.002735225)
(4.189013 -0.003500484 -0.001972064)
(4.430049 0.002496183 -0.003227704)
(3.747221 -0.008226803 -0.006090532)
(3.925785 0.03939471 0.03707801)
(2.095812 0.1837412 0.1695381)
(0.7894752 8.7829e-05 -0.0001113147)
(1.797284 -0.0001661882 -7.921635e-05)
(2.459259 0.0002792401 -0.001039031)
(2.824151 -0.0009203656 -0.0009108825)
(3.068315 0.0006353401 -0.002592319)
(2.983361 -0.003480951 -0.003597844)
(3.000613 0.002120214 -0.002635523)
(2.332434 -0.009208174 -0.009616731)
(2.282636 0.02557019 0.02278072)
(1.019929 0.1294313 0.03325738)
(0.3842453 4.143103e-06 3.759143e-06)
(0.7897248 9.548318e-05 -0.0001417047)
(1.024926 -7.215086e-05 -0.0001658535)
(1.171926 0.000233607 -0.0006650053)
(1.226007 -0.0003925529 -0.0008568052)
(1.257333 0.0005794059 -0.001558626)
(1.155665 -0.001617476 -0.003208147)
(1.11215 0.001740919 -0.002269848)
(0.7655978 -0.004624462 -0.009960603)
(0.6074845 0.00225063 -0.01919585)
(0.002882755 -0.01058338 -0.009480688)
(0.0007962389 -0.01246014 -0.001022572)
(0.0007119911 -0.01140783 -0.002193796)
(0.0004750438 -0.00601964 -0.0007107242)
(0.0007336304 -0.006198911 -0.001471464)
(0.0006606054 -0.006927803 -0.003393693)
(0.0006094701 -0.004269799 -0.0004416742)
(0.0004425911 -0.004535173 -0.0009282342)
(0.00066993 -0.004662736 -0.002597687)
(0.0006088129 -0.005207962 -0.001019887)
(0.0005416143 -0.002264947 -0.0003927675)
(0.0005955803 -0.00239252 -0.0008129557)
(0.0004204655 -0.002550132 -0.002326)
(0.000623361 -0.002639461 -0.0008675636)
(0.0005814579 -0.002985245 -0.009231244)
(0.0005966208 -0.0007418726 -0.0003635656)
(0.0005373978 -0.0007850398 -0.0007428992)
(0.0005823827 -0.0008211731 -0.002145104)
(0.0003989903 -0.0008654209 -0.0007810746)
(0.0006062715 -0.0009070211 -0.00840694)
(6.096021e-05 -0.0001128016 -0.003488196)
(0.3427775 0.002120953 0.002146724)
(0.9633502 -0.011479 -0.01476529)
(0.9675108 -0.09919038 -0.1077813)
(0.8297105 -0.002099724 -0.002250767)
(1.635553 0.004988493 0.005093161)
(2.775207 -0.03896105 -0.03747493)
(2.110276 -0.2213075 -0.1432248)
(0.9977877 0.001076396 0.001195521)
(2.542772 -0.003622473 -0.004382236)
(3.116349 0.005449826 0.005238264)
(4.340574 -0.04679737 -0.03848378)
(2.740573 -0.2171029 -0.08787942)
(1.179458 -0.0003777682 -0.0007931691)
(2.767201 0.001480048 0.0021252)
(4.100003 -0.00261258 -0.005136268)
(4.325802 0.003468426 0.002365119)
(5.337325 -0.03655369 -0.02164445)
(3.018124 -0.14861 0.0028425)
(1.21854 6.560333e-05 0.000277884)
(3.048185 -0.0002139195 -0.001601936)
(4.163695 0.0006892506 0.001771331)
(5.165305 -0.0008161459 -0.004757251)
(5.005105 0.001255863 -0.0005990534)
(5.701413 -0.01338498 0.004225786)
(3.046151 -0.05202639 0.09395707)
(1.23224 4.490899e-05 -0.0003106596)
(2.996021 -0.0001545843 0.0002661969)
(4.294852 0.0001988966 -0.002370096)
(4.936319 -0.0008214218 0.000148286)
(5.558736 0.0006650776 -0.004094391)
(5.040393 -0.001479491 -0.003069734)
(5.428839 0.01281895 0.02761351)
(2.830154 0.04978367 0.1632955)
(1.16089 -3.855679e-05 1.91265e-05)
(2.843565 0.0001977965 -0.0008083819)
(3.954984 -0.000617978 -0.0003636658)
(4.740998 0.0004247741 -0.002935783)
(4.956027 -0.00260423 -0.002065998)
(5.219347 0.001536314 -0.003287608)
(4.425761 -0.005174143 -0.005796234)
(4.520879 0.03095993 0.03902341)
(2.268569 0.1226301 0.1715051)
(1.026992 8.915578e-05 -0.0001415437)
(2.442179 -0.0001754722 -0.0001714088)
(3.40969 0.0002498511 -0.00136957)
(3.963531 -0.001065787 -0.001285125)
(4.32033 0.000433762 -0.003269812)
(4.215769 -0.003996209 -0.00425213)
(4.194729 0.001866251 -0.002632117)
(3.259453 -0.009110651 -0.009248983)
(3.036834 0.03064103 0.03047981)
(1.216926 0.11425 0.04201425)
(0.7875604 -4.927874e-07 -1.792762e-05)
(1.80279 0.0001067566 -0.0003480538)
(2.444673 -0.0002584738 -0.0005011637)
(2.852261 0.0001642333 -0.001554573)
(3.015964 -0.001145656 -0.001959984)
(3.086287 0.0002416571 -0.003193211)
(2.830908 -0.004128327 -0.005797829)
(2.647885 0.001173683 -0.002868499)
(1.783279 -0.009648143 -0.01261033)
(1.236675 0.01224384 -0.01002553)
(0.00446869 0.000660126 -0.006561982)
(0.3846157 3.15693e-05 -2.454518e-05)
(0.7878094 3.110168e-06 -5.001787e-05)
(1.02824 0.0001007575 -0.0003109286)
(1.164373 -8.652359e-05 -0.0004540208)
(1.239715 0.0001973206 -0.0009724275)
(1.232242 -0.0004792006 -0.001572756)
(1.202751 0.0003881397 -0.002244186)
(1.034001 -0.001865604 -0.004873122)
(0.8899534 0.001614291 -0.004830795)
(0.4306154 -0.007431847 -0.02286834)
(0.003161952 -0.009325595 -0.008008461)
(0.0008369676 -0.008753679 -0.01298736)
(0.0005135329 -0.01180851 -0.0009578386)
(0.0007947775 -0.009816688 -0.001916364)
(0.000706143 -0.01022153 -0.003910447)
(0.0006426839 -0.005594481 -0.0006630149)
(0.0004765537 -0.005898874 -0.001369718)
(0.0007275333 -0.006030928 -0.003035061)
(0.0006504761 -0.006695469 -0.001391691)
(0.0005565194 -0.0040607 -0.0004175968)
(0.0006144774 -0.00421874 -0.0008692202)
(0.0004398082 -0.00444029 -0.002407259)
(0.0006551757 -0.004545891 -0.0009246708)
(0.0006057304 -0.005121212 -0.009424046)
(0.0006048966 -0.002147918 -0.0003735831)
(0.0005463652 -0.00227696 -0.0007692524)
(0.0005934228 -0.002373864 -0.002183114)
(0.0004097496 -0.002519741 -0.0008057973)
(0.0006244695 -0.002612075 -0.008478672)
(6.234006e-05 -0.0003234328 -0.003521621)
(0.0005905346 -0.000709875 -0.0003473439)
(0.000602325 -0.0007446204 -0.0007069043)
(0.000535683 -0.0007816445 -0.0020307)
(0.0005738232 -0.0008061897 -0.0007335753)
(0.0004009101 -0.0008651696 -0.007812707)
(6.374405e-05 -9.913791e-05 -0.003212702)
(5.524665e-05 -0.0001015871 -0.004133098)
(0.4080794 -0.001264211 -0.001261045)
(0.7105751 0.003583798 0.003001757)
(1.214951 -0.01204503 -0.01477093)
(1.024452 -0.09677822 -0.07265895)
(0.7653624 0.001095625 0.001112085)
(1.880762 -0.00361274 -0.003929455)
(2.235828 0.005792712 0.004843012)
(3.177205 -0.03717684 -0.02760309)
(2.164705 -0.2181954 -0.06983928)
(1.041125 -0.0005953181 -0.0007797273)
(2.387369 0.002132639 0.002023021)
(3.513681 -0.003883907 -0.005110901)
(3.665029 0.005934498 0.002705998)
(4.612073 -0.04530399 -0.01838714)
(2.750642 -0.2145028 0.005767916)
(1.155081 0.0001898863 0.0002814946)
(2.866226 -0.0006354984 -0.001601097)
(3.892371 0.001924424 0.001710746)
(4.82515 -0.002366603 -0.004812391)
(4.660132 0.003979776 -0.0004327511)
(5.369759 -0.03526049 0.0050946)
(2.950579 -0.147091 0.09567383)
(1.23224 -4.490911e-05 -0.0003106596)
(2.996021 0.0001545843 0.0002661969)
(4.294852 -0.0001988967 -0.002370096)
(4.936319 0.000821422 0.0001482859)
(5.558736 -0.0006650774 -0.004094391)
(5.040393 0.001479491 -0.003069734)
(5.428839 -0.01281895 0.02761351)
(2.830154 -0.04978367 0.1632955)
(1.224521 -1.35039e-05 1.44586e-05)
(3.02504 6.59189e-05 -0.0008302339)
(4.229264 -0.000224374 -0.0003984086)
(5.081764 0.0001293468 -0.002979785)
(5.324501 -0.0009500958 -0.002053436)
(5.59568 0.0005097916 -0.00326044)
(4.74883 -0.001699286 -0.005737109)
(4.788498 0.01155843 0.0388083)
(2.333547 0.04248421 0.1695335)
(1.164425 5.797098e-05 -0.0001540964)
(2.827736 -0.000126664 -0.0002254069)
(3.990592 0.0001420899 -0.00152102)
(4.671528 -0.0008064741 -0.001460651)
(5.101526 0.0001579684 -0.003503651)
(4.988845 -0.002975384 -0.0043732)
(4.929798 0.001122972 -0.002443243)
(3.829242 -0.005756795 -0.008720022)
(3.46727 0.02322284 0.03189083)
(1.300365 0.07288737 0.04252973)
(1.02469 2.642049e-06 -3.889179e-05)
(2.448929 0.0001036642 -0.0004756765)
(3.391364 -0.000298711 -0.0007457292)
(3.999148 8.86625e-05 -0.002055266)
(4.254531 -0.001363439 -0.002530088)
(4.347489 -3.014468e-05 -0.003837963)
(3.983725 -0.00463047 -0.006401893)
(3.665358 0.001093058 -0.002085173)
(2.446714 -0.009150132 -0.01095043)
(1.589402 0.01446974 -0.003116234)
(0.00515104 0.0005335729 -0.004630226)
(0.7881599 4.824147e-05 -6.684911e-05)
(1.798923 -4.758003e-05 -0.0001808959)
(2.451416 5.525978e-05 -0.0007664565)
(2.836384 -0.000377665 -0.0011374)
(3.044992 -4.124896e-05 -0.002186932)
(3.033721 -0.001521134 -0.003211489)
(2.930975 -0.0004051673 -0.003993036)
(2.487628 -0.005015262 -0.007819006)
(2.041601 3.350326e-06 -0.004359532)
(0.9264803 -0.007669273 -0.01729656)
(0.005365283 -1.482487e-05 -0.005579243)
(0.000851209 -0.00167481 -0.009353892)
(0.3841172 1.737838e-05 -9.713266e-06)
(0.788408 5.155423e-05 -0.0001003251)
(1.025933 2.591129e-07 -0.0002124656)
(1.1679 8.832787e-05 -0.0005410397)
(1.231955 -0.0001212979 -0.0008516639)
(1.245972 0.0001146052 -0.001455478)
(1.17807 -0.0006628771 -0.002572791)
(1.078213 0.0001385313 -0.003240776)
(0.8219333 -0.001874332 -0.00761296)
(0.5083572 -0.002750795 -0.0197108)
(0.002151032 -0.008878732 -0.007545334)
(0.0009521391 -0.007589613 -0.01093495)
(0.0008005871 -0.007998012 -0.009097832)
(0.000679855 -0.01096772 -0.0008887336)
(0.0005126417 -0.009315853 -0.00178799)
(0.0007868183 -0.00881733 -0.003453983)
(0.0006935096 -0.00911907 -0.001738331)
(0.0005827678 -0.005319903 -0.0006269707)
(0.0006468561 -0.005484009 -0.001277601)
(0.0004726368 -0.0057415 -0.002811317)
(0.0007096114 -0.005847512 -0.001231412)
(0.0006467238 -0.006565791 -0.009793113)
(0.0006183483 -0.003849726 -0.000396838)
(0.0005613087 -0.004013047 -0.0008219493)
(0.0006121164 -0.004131482 -0.002255702)
(0.0004285361 -0.004335077 -0.0008578677)
(0.0006563057 -0.004466215 -0.008606913)
(6.486368e-05 -0.0005551119 -0.0035895)
(0.0005978068 -0.002055258 -0.0003568139)
(0.0006106531 -0.002159616 -0.0007316196)
(0.0005445756 -0.002259613 -0.00206576)
(0.0005846551 -0.002347199 -0.0007560492)
(0.0004116478 -0.002492025 -0.007870522)
(6.554374e-05 -0.0002844858 -0.003234847)
(5.647171e-05 -0.0002939429 -0.004173319)
(0.0006158926 -0.0006795698 -0.0003328961)
(0.0005963566 -0.000712589 -0.0006753772)
(0.0006008148 -0.0007415068 -0.001932426)
(0.0005284982 -0.000767822 -0.0006945064)
(0.0005727724 -0.0008058307 -0.007340484)
(4.16539e-05 -9.482569e-05 -0.002985656)
(5.700472e-05 -8.945952e-05 -0.003806607)
(5.425726e-05 -0.0001013527 -0.00407679)
(0.3721646 0.0006385071 0.0006466154)
(0.8299686 -0.002224817 -0.00218988)
(0.9305859 0.003864099 0.002888689)
(1.358301 -0.01161752 -0.009691068)
(1.045157 -0.09493789 -0.03353496)
(0.8013873 -0.0006219203 -0.0006993638)
(1.753817 0.002043107 0.001784367)
(2.545359 -0.003859849 -0.004453436)
(2.601082 0.006446607 0.002980506)
(3.364811 -0.03536798 -0.01204058)
(2.171219 -0.2161203 0.007643061)
(1.018285 0.0002883872 0.0002901247)
(2.477892 -0.0009869419 -0.001548243)
(3.321154 0.00268655 0.001611616)
(4.108815 -0.003566202 -0.004694618)
(3.937532 0.006657697 -7.59501e-05)
(4.639235 -0.04376666 0.006116723)
(2.692343 -0.2132496 0.09444402)
(1.168424 -0.0001335023 -0.0003057674)
(2.815463 0.0004348972 0.0002767255)
(4.018701 -0.0006042119 -0.002350585)
(4.60119 0.002266847 0.0001083631)
(5.18543 -0.001960379 -0.004107457)
(4.692635 0.00458199 -0.00298946)
(5.116469 -0.03397398 0.02806212)
(2.744332 -0.1416907 0.1652242)
(1.224521 1.350399e-05 1.44586e-05)
(3.02504 -6.591897e-05 -0.0008302339)
(4.229264 0.0002243738 -0.0003984085)
(5.081764 -0.0001293468 -0.002979785)
(5.324501 0.000950096 -0.002053436)
(5.59568 -0.0005097916 -0.00326044)
(4.74883 0.001699286 -0.005737109)
(4.788498 -0.01155843 0.0388083)
(2.333547 -0.04248421 0.1695335)
(1.228136 1.947579e-05 -0.000158877)
(3.008734 -4.601212e-05 -0.0002471714)
(4.266131 4.353908e-05 -0.001574078)
(5.010224 -0.0002972735 -0.001518585)
(5.47604 2.854404e-05 -0.003552682)
(5.360288 -0.001085207 -0.004348148)
(5.279084 0.0003684485 -0.002331005)
(4.099007 -0.001906441 -0.008580999)
(3.658771 0.008592586 0.0317533)
(1.330971 0.02471056 0.04215708)
(1.16195 1.416298e-06 -5.001375e-05)
(2.83502 6.327867e-05 -0.0005388303)
(3.970563 -0.0002288905 -0.0008777101)
(4.71069 5.82969e-06 -0.002280558)
(5.029861 -0.001048347 -0.002749924)
(5.134827 -0.0001879351 -0.003995164)
(4.702389 -0.003378778 -0.006362554)
(4.283198 0.0007112461 -0.001513078)
(2.846839 -0.005730559 -0.01018923)
(1.781946 0.01076269 -0.001829625)
(0.005439032 0.0003255173 -0.004060632)
(1.025341 5.073269e-05 -9.14533e-05)
(2.444105 -5.40562e-05 -0.00028246)
(3.399721 3.093512e-05 -0.001050786)
(3.979074 -0.0004636718 -0.001558872)
(4.291399 -0.0001802023 -0.00280669)
(4.281395 -0.001805623 -0.003855151)
(4.11148 -0.0006797195 -0.004335271)
(3.466373 -0.005309323 -0.00785002)
(2.774747 0.0003375177 -0.002035325)
(1.226013 -0.006326413 -0.01084963)
(0.006598506 4.109655e-05 -0.003932374)
(0.00085915 -0.0008532903 -0.006889818)
(0.7872831 2.720378e-05 -4.030964e-05)
(1.79994 4.118561e-05 -0.0002674993)
(2.446583 -0.0001169206 -0.0005748933)
(2.843646 -4.888898e-05 -0.00129861)
(3.028584 -0.0005733205 -0.0019365)
(3.062805 -0.0003996857 -0.002980998)
(2.879424 -0.002150303 -0.004628365)
(2.580377 -0.001357435 -0.004860198)
(1.905708 -0.005624524 -0.009470538)
(1.074029 -0.001214979 -0.01355962)
(0.003902196 -0.0001150249 -0.005243932)
(0.000971377 -0.001623297 -0.007917808)
(0.0008105348 -0.00225009 -0.007577959)
(0.3841032 2.069691e-05 -1.370417e-05)
(0.7875309 2.679204e-05 -7.356371e-05)
(1.026579 5.318764e-05 -0.0002598463)
(1.165413 -1.262994e-05 -0.0004601073)
(1.235554 5.51441e-05 -0.0008648253)
(1.238176 -0.0002008037 -0.001421462)
(1.191496 -6.237859e-05 -0.002215105)
(1.0548 -0.0009004937 -0.003835393)
(0.8598091 5.606355e-05 -0.005622441)
(0.4649254 -0.004959 -0.01962053)
(0.002585514 -0.008223017 -0.007004066)
(0.0005994614 -0.007207791 -0.01029377)
(0.0009088582 -0.006953493 -0.007773276)
(0.0007712278 -0.007278818 -0.00511779)
(0.0006121975 -0.01041514 -0.0008416942)
(0.0006814504 -0.008654249 -0.001661642)
(0.0005076097 -0.00837402 -0.003196396)
(0.0007655978 -0.007908787 -0.001518525)
(0.0006893446 -0.008633256 -0.01022431)
(0.0006419452 -0.005042054 -0.0005947444)
(0.0005869023 -0.005215949 -0.001208237)
(0.000643489 -0.00533938 -0.002626594)
(0.0004598331 -0.005575241 -0.001144491)
(0.0007099756 -0.005728022 -0.008859171)
(6.915107e-05 -0.0007108458 -0.003695418)
(0.0006093731 -0.00368259 -0.0003788423)
(0.0006241455 -0.003805134 -0.0007810169)
(0.0005593646 -0.003930875 -0.002132665)
(0.0006029536 -0.004036401 -0.0008033786)
(0.0004304004 -0.004256758 -0.007971372)
(6.883794e-05 -0.0004867508 -0.003278925)
(5.871904e-05 -0.0005044687 -0.004253906)
(0.0006226543 -0.001967457 -0.0003418766)
(0.0006036787 -0.002066693 -0.0006987994)
(0.0006090786 -0.002143461 -0.001964972)
(0.0005372365 -0.002235447 -0.0007154948)
(0.0005835331 -0.002320777 -0.007389602)
(4.271881e-05 -0.0002722305 -0.003002811)
(5.85973e-05 -0.0002592407 -0.00383341)
(5.544988e-05 -0.0002902242 -0.004116041)
(0.0006196126 -0.0006532985 -0.0003198745)
(0.0006221688 -0.0006822304 -0.0006472677)
(0.0005950287 -0.0007096866 -0.00184631)
(0.0005945466 -0.0007286523 -0.0006608695)
(0.0005271733 -0.0007672853 -0.006949711)
(6.120266e-05 -8.845097e-05 -0.002805262)
(3.700804e-05 -8.571696e-05 -0.00353753)
(5.560958e-05 -8.945188e-05 -0.003754832)
(5.357955e-05 -9.865353e-05 -0.003677106)
(0.3919255 -0.0003898645 -0.0003820593)
(0.7656103 0.001129282 0.001035773)
(1.075315 -0.002393419 -0.002359441)
(1.058411 0.004124269 0.001919563)
(1.424429 -0.01139377 -0.003532578)
(1.047413 -0.09438798 0.005311285)
(0.7821985 0.0002974414 0.0002867433)
(1.82638 -0.001013204 -0.001321433)
(2.389871 0.002471042 0.00142657)
(2.943302 -0.00360912 -0.003954968)
(2.780976 0.007125033 0.0003480256)
(3.3832 -0.03423693 0.00585145)
(2.13268 -0.2155141 0.08151306)
(1.030712 -0.0002077725 -0.0002918265)
(2.430963 0.0006200365 0.0003040503)
(3.435821 -0.0009709175 -0.002225404)
(3.900916 0.003091329 9.411078e-05)
(4.40231 -0.003054576 -0.003955863)
(3.964184 0.007433758 -0.002909403)
(4.426903 -0.04253142 0.02699422)
(2.51541 -0.2077107 0.1623671)
(1.16089 3.855694e-05 1.912644e-05)
(2.843565 -0.0001977965 -0.000808382)
(3.954984 0.0006179781 -0.0003636658)
(4.740998 -0.0004247743 -0.002935783)
(4.956027 0.002604231 -0.002065998)
(5.219347 -0.001536313 -0.003287607)
(4.425761 0.005174143 -0.005796234)
(4.520879 -0.03095993 0.03902341)
(2.268569 -0.1226301 0.1715051)
(1.228136 -1.947634e-05 -0.000158877)
(3.008734 4.601178e-05 -0.0002471713)
(4.266131 -4.353909e-05 -0.001574078)
(5.010224 0.0002972735 -0.001518585)
(5.47604 -2.854429e-05 -0.003552682)
(5.360288 0.001085208 -0.004348148)
(5.279084 -0.0003684485 -0.002331005)
(4.099007 0.001906442 -0.008580999)
(3.658771 -0.008592586 0.0317533)
(1.330971 -0.02471056 0.04215708)
(1.225595 1.362118e-07 -5.44199e-05)
(3.016217 2.019948e-05 -0.0005625784)
(4.24545 -8.520909e-05 -0.0009297312)
(5.050832 -8.958999e-06 -0.002357099)
(5.402236 -0.0003888846 -0.002807426)
(5.512362 -9.687122e-05 -0.003996704)
(5.046479 -0.001219648 -0.006247746)
(4.574707 0.0002436002 -0.001272709)
(3.034702 -0.00190088 -0.01000355)
(1.866918 0.003903842 -0.001517783)
(0.005544129 0.0001067675 -0.003813374)
(1.162597 3.332228e-05 -0.0001028013)
(2.829754 -4.365129e-05 -0.0003380998)
(3.979614 5.032204e-07 -0.001193701)
(4.688696 -0.000367659 -0.001762839)
(5.070451 -0.000210578 -0.003050977)
(5.062833 -0.001378096 -0.004013995)
(4.843778 -0.000612689 -0.004242548)
(4.068349 -0.003697618 -0.00743799)
(3.210359 0.0004146731 -0.001033562)
(1.402575 -0.003660335 -0.009382981)
(0.007272146 3.755455e-05 -0.003425758)
(0.0008599328 -0.0002564576 -0.006058729)
(1.024318 3.110465e-05 -6.20143e-05)
(2.44519 3.815813e-05 -0.0003785654)
(3.393597 -0.0001478242 -0.0008215931)
(3.988106 -0.0001131222 -0.001744269)
(4.270604 -0.0007192301 -0.002500088)
(4.318351 -0.0006021475 -0.003585865)
(4.04673 -0.002443392 -0.005075947)
(3.584107 -0.001474847 -0.004496713)
(2.607495 -0.005426076 -0.007901453)
(1.410244 -2.218616e-05 -0.007374588)
(0.004959178 -4.710773e-05 -0.003677569)
(0.0009837803 -0.0008492153 -0.005825456)
(0.0008174399 -0.001195901 -0.006523326)
(0.7871891 2.849704e-05 -4.561909e-05)
(1.798255 7.217553e-06 -0.000220031)
(2.447656 -1.246197e-05 -0.0006559301)
(2.83835 -0.0002218089 -0.001130616)
(3.03602 -0.0002345594 -0.001953896)
(3.046302 -0.0009174888 -0.002903584)
(2.907732 -0.001009715 -0.003949836)
(2.531984 -0.003049687 -0.005997501)
(1.982824 -0.002293547 -0.006191592)
(0.9932202 -0.004828979 -0.01438599)
(0.004585193 -7.34875e-05 -0.004857186)
(0.0006201267 -0.001568133 -0.007437896)
(0.0009216528 -0.002103033 -0.00648988)
(0.0007845603 -0.002712016 -0.004124155)
(0.3839092 1.826417e-05 -1.156533e-05)
(0.7874363 3.207113e-05 -7.482588e-05)
(1.025554 2.623155e-05 -0.0002261125)
(1.166045 4.154388e-05 -0.0004854056)
(1.232989 -4.484438e-05 -0.0008051721)
(1.241769 -2.128991e-05 -0.001351571)
(1.183828 -0.0003707878 -0.002255095)
(1.067434 -0.0002932061 -0.003250262)
(0.8395262 -0.0009458407 -0.006230285)