/*--------------------------------*- C++ -*----------------------------------*\
| =========                 |                                                 |
| \\      /  F ield         | OpenFOAM: The Open Source CFD Toolbox           |
|  \\    /   O peration     | Version:  2306                                  |
|   \\  /    A nd           | Website:  www.openfoam.com                      |
|    \\/     M anipulation  |                                                 |
\*---------------------------------------------------------------------------*/
FoamFile
{
    version     2.0;
    format      ascii;
    arch        "LSB;label=32;scalar=64";
    class       volScalarField;
    location    "0.6/air";
    object      X.O2;
}
// * * * * * * * * * * * * * * * * * * * * * * * * * * * * * * * * * * * * * //

dimensions      [0 0 0 0 0 0 0];

internalField   nonuniform List<scalar> 
16000
(
0.2073459
0.2073639
0.2063452
0.2073327
0.207386
0.2064073
0.207359
0.2049924
0.2062609
0.2072816
0.2074037
0.2064868
0.2073892
0.2050945
0.2063473
0.2073208
0.2032895
0.2048628
0.2060372
0.2071591
0.2074132
0.2065532
0.207412
0.2052349
0.2064502
0.2073647
0.2033939
0.2049953
0.2061616
0.2072153
0.2015514
0.2031517
0.2045404
0.2056089
0.2069148
0.2074132
0.2065898
0.2074236
0.2053598
0.2065324
0.2073957
0.2035374
0.2051705
0.2063059
0.2072781
0.2016548
0.2032868
0.2047083
0.2057778
0.2069931
0.1998497
0.2014146
0.2028098
0.2039695
0.2049071
0.2064729
0.1717909
0.2074037
0.2065898
0.2074236
0.2054317
0.2065766
0.2074109
0.2036653
0.2053226
0.2064183
0.2073223
0.2017967
0.2034646
0.2049292
0.2059816
0.2070838
0.1999493
0.2015481
0.2029808
0.2041721
0.2051218
0.2065787
0.198209
0.1997171
0.2010763
0.2022067
0.203098
0.2038602
0.2057232
0.1730294
0.1704034
0.1715949
0.207386
0.2065532
0.207412
0.2054317
0.2065766
0.2074109
0.2037391
0.2054089
0.2064776
0.2073445
0.2019231
0.2036192
0.2051195
0.2061415
0.2071515
0.2000861
0.2017233
0.2032026
0.2044351
0.2053875
0.2067099
0.1983044
0.1998455
0.2012436
0.2024093
0.2033334
0.2041215
0.2058667
0.1966366
0.1980821
0.1993894
0.2004825
0.2012976
0.2018793
0.2023963
0.2045065
0.175533
0.1715166
0.1728287
0.17009
0.1702234
0.1712037
0.2073639
0.2064868
0.2073892
0.2053598
0.2065324
0.2073957
0.2037391
0.2054089
0.2064776
0.2073445
0.2019959
0.2037073
0.2052271
0.2062251
0.2071868
0.2002078
0.2018755
0.2033935
0.2046628
0.2056047
0.2068147
0.1984352
0.200014
0.2014602
0.2026727
0.2036399
0.2044512
0.2060568
0.1967277
0.198205
0.1995498
0.200678
0.2015251
0.2021457
0.2027108
0.2047209
0.1951303
0.1965154
0.1977687
0.1988154
0.1995934
0.2000504
0.2002735
0.20044
0.2025748
0.1793974
0.1737616
0.175316
0.1711292
0.1713331
0.1724292
0.1700068
0.1699233
0.1698642
0.1706185
0.2073459
0.2064073
0.207359
0.2052349
0.2064502
0.2073647
0.2036653
0.2053226
0.2064183
0.2073223
0.2019959
0.2037073
0.2052271
0.2062251
0.2071868
0.200278
0.2019621
0.2035016
0.2047929
0.2057231
0.2068716
0.1985516
0.2001604
0.2016463
0.2028995
0.2039032
0.2047265
0.2062163
0.1968525
0.1983661
0.1997573
0.2009318
0.2018237
0.2024955
0.2031137
0.2050104
0.1952173
0.1966326
0.1979219
0.1990018
0.1998097
0.2002983
0.2005749
0.2008354
0.2029755
0.1936856
0.1950145
0.1962159
0.1972201
0.1979585
0.198384
0.1984441
0.1982435
0.1978996
0.1994738
0.1849917
0.1772107
0.1791193
0.1732238
0.1735653
0.1748893
0.1709825
0.1709594
0.1709677
0.1718337
0.1699428
0.1698506
0.1695905
0.1693267
0.1698407
0.2063452
0.2073327
0.2050945
0.2063473
0.2073208
0.2035374
0.2051705
0.2063059
0.2072781
0.2019231
0.2036192
0.2051195
0.2061415
0.2071515
0.200278
0.2019621
0.2035016
0.2047929
0.2057231
0.2068716
0.1986188
0.2002437
0.2017516
0.203028
0.204052
0.2048792
0.2063051
0.1969635
0.198506
0.1999356
0.20115
0.2020821
0.2027971
0.2034533
0.2052533
0.1953366
0.1967863
0.1981199
0.1992436
0.2000928
0.2006273
0.2009738
0.2013396
0.203458
0.1937689
0.1951265
0.196362
0.1973978
0.1981634
0.1986161
0.1987163
0.1986067
0.1984729
0.2004399
0.1922973
0.1935747
0.1947283
0.1956917
0.1964021
0.1967969
0.1968395
0.1964603
0.1957348
0.1946069
0.1941256
0.1821614
0.1844167
0.1764394
0.1769643
0.1786015
0.1729486
0.1730425
0.1731787
0.174263
0.1708654
0.1708235
0.1706212
0.1704228
0.1710456
0.1697841
0.1697953
0.1695387
0.1690923
0.1686119
0.1687167
0.2049924
0.2062609
0.2072816
0.2033939
0.2049953
0.2061616
0.2072153
0.2017967
0.2034646
0.2049292
0.2059816
0.2070838
0.2002078
0.2018755
0.2033935
0.2046628
0.2056047
0.2068147
0.1986188
0.2002437
0.2017516
0.203028
0.204052
0.2048792
0.2063051
0.1970276
0.1985856
0.2000365
0.2012734
0.2022288
0.2029675
0.2036427
0.205388
0.1954427
0.1969197
0.1982899
0.1994514
0.2003375
0.2009141
0.2013183
0.2017607
0.2038346
0.1938831
0.1952734
0.1965508
0.1976279
0.1984313
0.1989235
0.199081
0.199081
0.19915
0.2013017
0.1923773
0.193682
0.194868
0.1958612
0.1965969
0.1970155
0.1970922
0.1967852
0.1962557
0.1956764
0.1969455
0.1909605
0.1921909
0.1933007
0.1942275
0.1949103
0.1952944
0.1953191
0.1949466
0.1940591
0.1926088
0.190115
0.19146
0.1810494
0.1816666
0.1835599
0.1759655
0.1762124
0.1765036
0.177884
0.1727243
0.1727791
0.1726855
0.1726103
0.1734469
0.1706601
0.1707153
0.1705068
0.1701167
0.1697008
0.1699106
0.1695493
0.169644
0.1695006
0.1690718
0.1684297
0.1675784
0.1684849
0.2032895
0.2048628
0.2060372
0.2071591
0.2016548
0.2032868
0.2047083
0.2057778
0.2069931
0.2000861
0.2017233
0.2032026
0.2044351
0.2053875
0.2067099
0.1985516
0.2001604
0.2016463
0.2028995
0.2039032
0.2047265
0.2062163
0.1970276
0.1985856
0.2000365
0.2012734
0.2022288
0.2029675
0.2036427
0.205388
0.1955039
0.1969956
0.1983861
0.199569
0.2004763
0.2010774
0.2015129
0.201994
0.2040349
0.1939847
0.1954008
0.196713
0.1978256
0.1986628
0.1991909
0.1993994
0.1994846
0.199688
0.2018841
0.1924869
0.1938226
0.1950485
0.1960806
0.1968514
0.1973048
0.1974297
0.1972142
0.1968785
0.1966758
0.1984314
0.1910374
0.1922939
0.1934345
0.1943896
0.1950961
0.195502
0.1955563
0.1952483
0.1945322
0.1935937
0.1927519
0.1947777
0.1896706
0.1908582
0.191928
0.192821
0.1934807
0.1938522
0.1938864
0.1935143
0.1926685
0.1911127
0.1884426
0.1878624
0.1893866
0.1802875
0.180593
0.1809239
0.1825631
0.1755759
0.1757535
0.175788
0.1758624
0.1769971
0.172425
0.1725644
0.1724452
0.1721606
0.1718681
0.1722874
0.1703848
0.1705176
0.1704163
0.1700344
0.1694482
0.1686602
0.1696765
0.1692386
0.1694157
0.1693642
0.1690596
0.1684507
0.1674714
0.1673653
0.1682512
0.2015514
0.2031517
0.2045404
0.2056089
0.2069148
0.1999493
0.2015481
0.2029808
0.2041721
0.2051218
0.2065787
0.1984352
0.200014
0.2014602
0.2026727
0.2036399
0.2044512
0.2060568
0.1969635
0.198506
0.1999356
0.20115
0.2020821
0.2027971
0.2034533
0.2052533
0.1955039
0.1969956
0.1983861
0.199569
0.2004763
0.2010774
0.2015129
0.201994
0.2040349
0.1940433
0.1954734
0.1968046
0.1979373
0.1987941
0.199343
0.1995807
0.1997103
0.1999781
0.2021731
0.1925843
0.1939446
0.1952033
0.196269
0.197071
0.1975563
0.1977237
0.1975823
0.1973792
0.1973855
0.1992857
0.1911427
0.1924289
0.1936073
0.1945993
0.1953387
0.1957764
0.195873
0.1956451
0.1951004
0.1945158
0.1942528
0.196584
0.1897447
0.1909572
0.1920565
0.1929763
0.1936585
0.1940504
0.1941117
0.1937978
0.193111
0.1920259
0.1908934
0.1909185
0.1928562
0.1884237
0.189572
0.1906053
0.1914676
0.1921054
0.1924692
0.1925074
0.1921677
0.1913485
0.1898823
0.1872131
0.186357
0.1860989
0.1876891
0.1796596
0.1798614
0.1799089
0.1800528
0.1814943
0.1751318
0.1753762
0.1753573
0.1751975
0.175066
0.1757918
0.1720678
0.1722733
0.1722495
0.1719543
0.1714749
0.1708116
0.1720484
0.1700378
0.1702489
0.1702337
0.1699702
0.1694082
0.1684845
0.1684456
0.1694406
0.1688721
0.1691108
0.1691488
0.1689453
0.1684728
0.1675524
0.1672738
0.1671504
0.1680155
0.1998497
0.2014146
0.2028098
0.2039695
0.2049071
0.2064729
0.1983044
0.1998455
0.2012436
0.2024093
0.2033334
0.2041215
0.2058667
0.1968525
0.1983661
0.1997573
0.2009318
0.2018237
0.2024955
0.2031137
0.2050104
0.1954427
0.1969197
0.1982899
0.1994514
0.2003375
0.2009141
0.2013183
0.2017607
0.2038346
0.1940433
0.1954734
0.1968046
0.1979373
0.1987941
0.199343
0.1995807
0.1997103
0.1999781
0.2021731
0.1926405
0.1940141
0.1952909
0.1963754
0.1971954
0.1976994
0.1978908
0.1977895
0.1976508
0.1977485
0.1996838
0.1912365
0.1925459
0.1937556
0.1947792
0.1955479
0.1960146
0.1961489
0.1959847
0.1955588
0.1951734
0.1951672
0.1975978
0.1898462
0.191087
0.1922224
0.1931773
0.1938905
0.194312
0.1944122
0.1941709
0.1936404
0.1928794
0.1922887
0.1926799
0.1948707
0.1884953
0.1896675
0.190729
0.1916169
0.192276
0.192659
0.1927226
0.1924376
0.1917663
0.1907424
0.1895055
0.1892023
0.1892852
0.1911721
0.1872166
0.1883286
0.1893284
0.1901625
0.1907807
0.1911358
0.191183
0.1908657
0.1901052
0.1887045
0.186201
0.1852628
0.1847288
0.184644
0.186255
0.1790072
0.1792581
0.1792231
0.1791078
0.179111
0.1802045
0.1746488
0.1749424
0.1750028
0.1748059
0.1744641
0.1739791
0.1755439
0.1716478
0.1719233
0.1719745
0.1717863
0.1713128
0.1704987
0.1705938
0.1718076
0.1696389
0.1699079
0.1699783
0.1698102
0.1693789
0.1685053
0.1682857
0.1682293
0.1692027
0.1684588
0.1687495
0.1688555
0.1687493
0.168388
0.1676241
0.1673671
0.1670745
0.1669336
0.1677779
0.198209
0.1997171
0.2010763
0.2022067
0.203098
0.2038602
0.2057232
0.1967277
0.198205
0.1995498
0.200678
0.2015251
0.2021457
0.2027108
0.2047209
0.1953366
0.1967863
0.1981199
0.1992436
0.2000928
0.2006273
0.2009738
0.2013396
0.203458
0.1939847
0.1954008
0.196713
0.1978256
0.1986628
0.1991909
0.1993994
0.1994846
0.199688
0.2018841
0.1926405
0.1940141
0.1952909
0.1963754
0.1971954
0.1976994
0.1978908
0.1977895
0.1976508
0.1977485
0.1996838
0.1912905
0.1926126
0.1938395
0.1948809
0.1956664
0.19615
0.1963058
0.1961754
0.1958082
0.1955108
0.1956083
0.1980618
0.1899365
0.1911996
0.1923648
0.1933497
0.1940905
0.1945391
0.1946736
0.1944901
0.1940661
0.1934879
0.1931403
0.193718
0.1960058
0.1885933
0.1897926
0.1908886
0.1918099
0.1924985
0.1929095
0.1930095
0.1927921
0.1922662
0.1915437
0.1908074
0.1908438
0.1912181
0.1933047
0.1872858
0.1884207
0.1894476
0.1903062
0.1909447
0.1913182
0.1913895
0.1911238
0.1905036
0.1895198
0.1883655
0.1879276
0.1876996
0.1878466
0.1897086
0.186046
0.1871246
0.1880934
0.1889016
0.1895014
0.1898494
0.1899022
0.1896117
0.1888952
0.1875864
0.1852134
0.1843607
0.183742
0.1833896
0.1834038
0.1848345
0.1783434
0.1786268
0.1786567
0.178476
0.1782429
0.1779647
0.1799405
0.1741165
0.1744685
0.1745885
0.1744832
0.1741211
0.1734632
0.1737554
0.1752945
0.1711834
0.1715096
0.1716385
0.171535
0.1711811
0.1703995
0.1702975
0.1703744
0.171565
0.1691961
0.1695142
0.169649
0.1695744
0.1692487
0.1685262
0.1683191
0.1680853
0.1680111
0.1689629
0.1680103
0.1683409
0.1685045
0.1684732
0.1682178
0.1675818
0.1674491
0.1671803
0.1668735
0.1667151
0.167488
0.1966366
0.1980821
0.1993894
0.2004825
0.2012976
0.2018793
0.2023963
0.2045065
0.1952173
0.1966326
0.1979219
0.1990018
0.1998097
0.2002983
0.2005749
0.2008354
0.2029755
0.1938831
0.1952734
0.1965508
0.1976279
0.1984313
0.1989235
0.199081
0.199081
0.19915
0.2013017
0.1925843
0.1939446
0.1952033
0.196269
0.197071
0.1975563
0.1977237
0.1975823
0.1973792
0.1973855
0.1992857
0.1912905
0.1926126
0.1938395
0.1948809
0.1956664
0.19615
0.1963058
0.1961754
0.1958082
0.1955108
0.1956083
0.1980618
0.1899886
0.1912637
0.1924452
0.1934471
0.1942038
0.1946681
0.194822
0.1946694
0.1942972
0.1938003
0.1935519
0.1942085
0.1965221
0.1886805
0.1899011
0.1910255
0.1919755
0.1926903
0.1931268
0.1932589
0.193095
0.192668
0.1921134
0.1916008
0.1918128
0.1923527
0.1945199
0.1873806
0.1885415
0.1896015
0.190492
0.1911587
0.1915588
0.1916645
0.1914628
0.1909796
0.1902791
0.1895927
0.1894628
0.1895041
0.1898796
0.1918916
0.186113
0.1872138
0.1882085
0.1890402
0.1896596
0.190025
0.1901009
0.1898597
0.1892765
0.1883641
0.1872675
0.186878
0.1865268
0.18638
0.1865899
0.1882507
0.1849096
0.1859569
0.1868972
0.1876813
0.1882643
0.188605
0.1886639
0.1883944
0.1877244
0.186488
0.1842597
0.1834687
0.1829268
0.1824929
0.1822522
0.1821626
0.1845461
0.1776499
0.1779813
0.178057
0.1779531
0.1776698
0.177192
0.1777299
0.1796761
0.1735515
0.1739441
0.1741314
0.174096
0.1738378
0.1731865
0.1732573
0.1735304
0.1750437
0.1706812
0.1710508
0.1712373
0.1712197
0.1709608
0.1703194
0.1702113
0.1700947
0.1701532
0.1713206
0.1687207
0.1690762
0.1692658
0.1692626
0.169039
0.1684391
0.1683504
0.1681314
0.1678833
0.1677912
0.1686704
0.1675334
0.1678967
0.1681053
0.1681377
0.1679645
0.1674488
0.1674155
0.1672725
0.1669919
0.1666708
0.1664485
0.1671911
0.1951303
0.1965154
0.1977687
0.1988154
0.1995934
0.2000504
0.2002735
0.20044
0.2025748
0.1937689
0.1951265
0.196362
0.1973978
0.1981634
0.1986161
0.1987163
0.1986067
0.1984729
0.2004399
0.1924869
0.1938226
0.1950485
0.1960806
0.1968514
0.1973048
0.1974297
0.1972142
0.1968785
0.1966758
0.1984314
0.1912365
0.1925459
0.1937556
0.1947792
0.1955479
0.1960146
0.1961489
0.1959847
0.1955588
0.1951734
0.1951672
0.1975978
0.1899886
0.1912637
0.1924452
0.1934471
0.1942038
0.1946681
0.194822
0.1946694
0.1942972
0.1938003
0.1935519
0.1942085
0.1965221
0.1887307
0.1899628
0.1911029
0.1920691
0.192799
0.1932502
0.1934005
0.193265
0.1928861
0.1924052
0.1919841
0.1922712
0.1928836
0.1950723
0.1874649
0.1886463
0.1897335
0.1906514
0.191343
0.1917674
0.1919035
0.1917523
0.1913617
0.1908187
0.1903391
0.190368
0.1905651
0.1910802
0.1931466
0.1862048
0.1873306
0.1883571
0.1892195
0.1898657
0.1902566
0.1903654
0.1901851
0.189732
0.1890879
0.1884319
0.1883269
0.188217
0.1882813
0.1886704
0.1904299
0.1849746
0.1860433
0.1870086
0.1878153
0.188417
0.1887744
0.1888554
0.1886331
0.1880908
0.1872323
0.1862186
0.1858582
0.1855584
0.1852982
0.1852317
0.1853316
0.1879547
0.1838046
0.1848232
0.1857367
0.1864987
0.1870658
0.1873997
0.1874632
0.1872139
0.186582
0.1854171
0.1833076
0.1825974
0.1821099
0.1817502
0.1814335
0.181119
0.1819105
0.1842596
0.1769407
0.1773038
0.1774388
0.1773905
0.1771942
0.1766907
0.1769767
0.1774948
0.1794113
0.1729581
0.1733863
0.173622
0.1736623
0.1734841
0.1729571
0.1729942
0.1730501
0.173304
0.1747913
0.1701517
0.1705537
0.1707897
0.1708368
0.1706724
0.170143
0.1701418
0.1700216
0.1698904
0.1699304
0.1710226
0.1682192
0.1686053
0.1688374
0.1688952
0.1687504
0.168267
0.1682721
0.1681731
0.1679421
0.1676796
0.167523
0.1683709
0.1670346
0.1674237
0.1676696
0.1677525
0.1676496
0.1672286
0.1672902
0.1672478
0.1670946
0.1668019
0.1664236
0.1661756
0.166965
0.1936856
0.1950145
0.1962159
0.1972201
0.1979585
0.198384
0.1984441
0.1982435
0.1978996
0.1994738
0.1923773
0.193682
0.194868
0.1958612
0.1965969
0.1970155
0.1970922
0.1967852
0.1962557
0.1956764
0.1969455
0.1911427
0.1924289
0.1936073
0.1945993
0.1953387
0.1957764
0.195873
0.1956451
0.1951004
0.1945158
0.1942528
0.196584
0.1899365
0.1911996
0.1923648
0.1933497
0.1940905
0.1945391
0.1946736
0.1944901
0.1940661
0.1934879
0.1931403
0.193718
0.1960058
0.1887307
0.1899628
0.1911029
0.1920691
0.192799
0.1932502
0.1934005
0.193265
0.1928861
0.1924052
0.1919841
0.1922712
0.1928836
0.1950723
0.1875135
0.1887059
0.1898081
0.1907414
0.1914474
0.1918858
0.1920391
0.1919146
0.191569
0.191095
0.1906992
0.190796
0.1910622
0.1916403
0.1937177
0.1862864
0.1874319
0.1884846
0.1893732
0.1900433
0.1904574
0.1905951
0.1904628
0.1900977
0.1896019
0.1891399
0.18918
0.18921
0.1894059
0.1899068
0.1916862
0.1850636
0.1861564
0.1871523
0.1879885
0.188616
0.1889978
0.1891104
0.1889463
0.1885282
0.1879252
0.1873291
0.1872335
0.1871548
0.187081
0.1871808
0.1874196
0.1901326
0.1838677
0.184907
0.1858446
0.1866283
0.1872135
0.1875635
0.1876482
0.1874442
0.1869348
0.1861317
0.1851819
0.1848763
0.1846083
0.184402
0.1842307
0.184088
0.185076
0.1876606
0.1827294
0.1837207
0.1846097
0.1853507
0.1859033
0.1862305
0.186298
0.1860658
0.1854698
0.1843651
0.1823674
0.1817187
0.1813032
0.1809952
0.1807532
0.1803801
0.1808888
0.1816599
0.183975
0.1762165
0.1766091
0.1767856
0.1768043
0.1766715
0.1762728
0.1764902
0.1767611
0.1772592
0.1791462
0.1723455
0.1727993
0.1730775
0.1731736
0.1730795
0.1726491
0.1727759
0.1728007
0.1728416
0.1730762
0.1744843
0.1696004
0.1700289
0.1703027
0.1704056
0.1703133
0.169893
0.1699745
0.1699628
0.1698304
0.1696845
0.1696588
0.1707174
0.1676976
0.1681077
0.1683751
0.168481
0.1684037
0.1680117
0.1681078
0.1681038
0.1679944
0.1677513
0.1674312
0.1672484
0.1681427
0.1665186
0.1669285
0.1672045
0.1673297
0.167283
0.1669435
0.1670769
0.1671303
0.1670788
0.1669151
0.1665701
0.1661707
0.1659679
0.1668113
0.1922973
0.1935747
0.1947283
0.1956917
0.1964021
0.1967969
0.1968395
0.1964603
0.1957348
0.1946069
0.1941256
0.1910374
0.1922939
0.1934345
0.1943896
0.1950961
0.195502
0.1955563
0.1952483
0.1945322
0.1935937
0.1927519
0.1947777
0.1898462
0.191087
0.1922224
0.1931773
0.1938905
0.194312
0.1944122
0.1941709
0.1936404
0.1928794
0.1922887
0.1926799
0.1948707
0.1886805
0.1899011
0.1910255
0.1919755
0.1926903
0.1931268
0.1932589
0.193095
0.192668
0.1921134
0.1916008
0.1918128
0.1923527
0.1945199
0.1875135
0.1887059
0.1898081
0.1907414
0.1914474
0.1918858
0.1920391
0.1919146
0.191569
0.191095
0.1906992
0.190796
0.1910622
0.1916403
0.1937177
0.1863335
0.1874895
0.1885566
0.18946
0.1901439
0.1905713
0.1907254
0.1906185
0.190296
0.189865
0.1894814
0.189583
0.1896751
0.1899312
0.1904834
0.1922581
0.1851428
0.1862545
0.1872756
0.188137
0.1887874
0.1891914
0.1893317
0.1892136
0.1888793
0.1884172
0.1880041
0.1880431
0.1880918
0.1881351
0.1883411
0.1886638
0.1913888
0.1839541
0.1850167
0.1859839
0.186796
0.1874059
0.1877793
0.1878943
0.1877464
0.187356
0.186797
0.1862448
0.1861881
0.186124
0.1860868
0.1860601
0.1860483
0.1871652
0.1898368
0.1827908
0.183802
0.1847144
0.1854764
0.1860463
0.186389
0.186477
0.1862884
0.1858101
0.1850527
0.184166
0.1838991
0.1836862
0.1835134
0.1833984
0.1831697
0.1838558
0.184822
0.1873685
0.1816814
0.1826479
0.1835134
0.1842354
0.184774
0.1850951
0.1851657
0.1849489
0.184384
0.183335
0.1814337
0.1808439
0.1804819
0.180242
0.1800512
0.179763
0.1801661
0.1806601
0.1814107
0.1836922
0.1754848
0.1758979
0.1761123
0.1761793
0.1761199
0.1757989
0.1760841
0.1762893
0.1765451
0.1770231
0.1788251
0.1717179
0.1721926
0.1725026
0.1726476
0.1726166
0.1722842
0.1724773
0.1725936
0.172606
0.1726318
0.1727989
0.1741697
0.169033
0.1694819
0.1697871
0.1699335
0.1699036
0.1695679
0.1697323
0.1698046
0.1697824
0.1696377
0.1694334
0.1693807
0.1704849
0.1671606
0.1675899
0.1678855
0.1680317
0.1680084
0.1676951
0.1678594
0.1679473
0.1679341
0.1678142
0.1675185
0.167177
0.1670394
0.1679876
0.165989
0.1664159
0.1667166
0.1668763
0.1668773
0.166604
0.1667979
0.1669238
0.166969
0.1669083
0.1666961
0.1663331
0.1659783
0.1658268
0.1667326
0.1849917
0.1909605
0.1921909
0.1933007
0.1942275
0.1949103
0.1952944
0.1953191
0.1949466
0.1940591
0.1926088
0.190115
0.19146
0.1897447
0.1909572
0.1920565
0.1929763
0.1936585
0.1940504
0.1941117
0.1937978
0.193111
0.1920259
0.1908934
0.1909185
0.1928562
0.1885933
0.1897926
0.1908886
0.1918099
0.1924985
0.1929095
0.1930095
0.1927921
0.1922662
0.1915437
0.1908074
0.1908438
0.1912181
0.1933047
0.1874649
0.1886463
0.1897335
0.1906514
0.191343
0.1917674
0.1919035
0.1917523
0.1913617
0.1908187
0.1903391
0.190368
0.1905651
0.1910802
0.1931466
0.1863335
0.1874895
0.1885566
0.18946
0.1901439
0.1905713
0.1907254
0.1906185
0.190296
0.189865
0.1894814
0.189583
0.1896751
0.1899312
0.1904834
0.1922581
0.1851884
0.1863103
0.1873453
0.1882208
0.1888845
0.1893013
0.1894573
0.1893634
0.1890696
0.1886691
0.1883296
0.1884255
0.1885302
0.1886272
0.1888829
0.1892442
0.1919607
0.1840309
0.1851118
0.1861033
0.1869396
0.1875716
0.1879664
0.188108
0.1880041
0.1876939
0.1872694
0.1868908
0.1869603
0.1870135
0.1870822
0.1871488
0.1872188
0.1884107
0.1910926
0.1828748
0.1839086
0.1848495
0.1856388
0.1862327
0.1865979
0.1867151
0.1865804
0.1862165
0.1856931
0.1851862
0.1851546
0.1851321
0.1851134
0.1851279
0.1850115
0.185818
0.186912
0.1895425
0.1817411
0.182727
0.183615
0.1843573
0.1849127
0.1852487
0.1853391
0.1851645
0.184713
0.1839981
0.1831636
0.1829362
0.182762
0.1826441
0.1825636
0.1824023
0.1829543
0.183625
0.1845697
0.1870784
0.1806599
0.1816021
0.1824464
0.1831499
0.1836759
0.1839908
0.1840643
0.1838612
0.1833244
0.1823245
0.1805113
0.1799695
0.1796583
0.179468
0.1793435
0.1791142
0.1795619
0.1799535
0.1804328
0.1811631
0.1833523
0.1747479
0.175178
0.1754206
0.1755313
0.1755254
0.1752893
0.1756201
0.1758951
0.1760881
0.1763288
0.1767371
0.178496
0.1710803
0.1715704
0.1719068
0.1720895
0.1721136
0.1718564
0.1721206
0.1723044
0.1724101
0.1724102
0.1723765
0.172515
0.17393
0.1684536
0.1689185
0.1692486
0.1694314
0.1694509
0.1691887
0.1694143
0.1695704
0.1696334
0.1696006
0.1694029
0.1691766
0.1691689
0.1703267
0.1666115
0.1670562
0.1673751
0.167554
0.1675763
0.1673269
0.167549
0.1677058
0.1677854
0.167763
0.1675944
0.1672804
0.1669836
0.1668974
0.1679081
0.1654486
0.1658894
0.1662107
0.1663992
0.1664396
0.1662228
0.1664639
0.166651
0.1667695
0.1668064
0.1667003
0.1664722
0.1661529
0.1658477
0.1657547
0.1793974
0.1821614
0.1844167
0.1896706
0.1908582
0.191928
0.192821
0.1934807
0.1938522
0.1938864
0.1935143
0.1926685
0.1911127
0.1884426
0.1878624
0.1893866
0.1884953
0.1896675
0.190729
0.1916169
0.192276
0.192659
0.1927226
0.1924376
0.1917663
0.1907424
0.1895055
0.1892023
0.1892852
0.1911721
0.1873806
0.1885415
0.1896015
0.190492
0.1911587
0.1915588
0.1916645
0.1914628
0.1909796
0.1902791
0.1895927
0.1894628
0.1895041
0.1898796
0.1918916
0.1862864
0.1874319
0.1884846
0.1893732
0.1900433
0.1904574
0.1905951
0.1904628
0.1900977
0.1896019
0.1891399
0.18918
0.18921
0.1894059
0.1899068
0.1916862
0.1851884
0.1863103
0.1873453
0.1882208
0.1888845
0.1893013
0.1894573
0.1893634
0.1890696
0.1886691
0.1883296
0.1884255
0.1885302
0.1886272
0.1888829
0.1892442
0.1919607
0.1840752
0.1851659
0.1861707
0.1870208
0.1876654
0.1880725
0.1882292
0.1881486
0.1878771
0.1875112
0.1872024
0.1873248
0.1874298
0.1875467
0.1876569
0.1877656
0.1889917
0.1916643
0.1829495
0.1840009
0.1849653
0.185778
0.1863931
0.1867789
0.1869217
0.1868294
0.1865425
0.1861478
0.1858064
0.1858937
0.1859806
0.1860587
0.1861567
0.186111
0.1869904
0.1881586
0.1907974
0.1818228
0.1828306
0.1837462
0.1845149
0.1850933
0.1854512
0.1855697
0.1854471
0.1851057
0.1846157
0.1841453
0.1841413
0.1841459
0.1841705
0.1842065
0.1841444
0.1847983
0.1855889
0.1866601
0.1892497
0.1807181
0.181679
0.1825453
0.1832684
0.1838106
0.1841399
0.1842325
0.1840701
0.1836429
0.182965
0.1821786
0.1819819
0.1818464
0.1817665
0.1817404
0.1816216
0.1822001
0.1827403
0.1833958
0.1843189
0.1867297
0.1796617
0.1805827
0.1814059
0.182093
0.1826065
0.182916
0.1829916
0.182801
0.1822896
0.1813342
0.1795995
0.179101
0.1788302
0.1786865
0.1786097
0.1784522
0.1789239
0.1793621
0.1797422
0.1802069
0.1808653
0.1830041
0.1740096
0.174452
0.1747185
0.1748625
0.1749047
0.174732
0.1751192
0.1754411
0.1757058
0.1758866
0.1760666
0.1764442
0.1782452
0.1704357
0.1709377
0.1712947
0.171509
0.1715763
0.1713849
0.1717
0.1719559
0.1721305
0.1722256
0.1721718
0.1721152
0.1722989
0.1737669
0.1678651
0.1683427
0.168693
0.1689053
0.1689665
0.1687636
0.1690413
0.1692595
0.1694073
0.1694609
0.169379
0.1691626
0.1689811
0.1690251
0.1702457
0.1660528
0.1665103
0.1668483
0.1670546
0.1671145
0.1669197
0.1671864
0.1674016
0.167551
0.1676223
0.1675542
0.1673696
0.1670994
0.1668523
0.1668248
0.1648995
0.1653519
0.1656905
0.1659034
0.1659769
0.1658078
0.1660879
0.1663227
0.166503
0.1666139
0.1666081
0.1664877
0.1663021
0.1660306
0.165781
0.175533
0.1772107
0.1791193
0.1810494
0.1816666
0.1835599
0.1884237
0.189572
0.1906053
0.1914676
0.1921054
0.1924692
0.1925074
0.1921677
0.1913485
0.1898823
0.1872131
0.186357
0.1860989
0.1876891
0.1872858
0.1884207
0.1894476
0.1903062
0.1909447
0.1913182
0.1913895
0.1911238
0.1905036
0.1895198
0.1883655
0.1879276
0.1876996
0.1878466
0.1897086
0.1862048
0.1873306
0.1883571
0.1892195
0.1898657
0.1902566
0.1903654
0.1901851
0.189732
0.1890879
0.1884319
0.1883269
0.188217
0.1882813
0.1886704
0.1904299
0.1851428
0.1862545
0.1872756
0.188137
0.1887874
0.1891914
0.1893317
0.1892136
0.1888793
0.1884172
0.1880041
0.1880431
0.1880918
0.1881351
0.1883411
0.1886638
0.1913888
0.1840752
0.1851659
0.1861707
0.1870208
0.1876654
0.1880725
0.1882292
0.1881486
0.1878771
0.1875112
0.1872024
0.1873248
0.1874298
0.1875467
0.1876569
0.1877656
0.1889917
0.1916643
0.1829926
0.1840535
0.1850307
0.1858567
0.1864839
0.1868817
0.1870389
0.186969
0.1867192
0.1863805
0.1861055
0.1862427
0.1863776
0.1864998
0.1866366
0.1866244
0.1875381
0.1887401
0.1913688
0.1818955
0.1829203
0.1838587
0.18465
0.1852489
0.1856265
0.1857699
0.1856881
0.1854207
0.1850542
0.1847421
0.1848508
0.1849581
0.1850724
0.1851837
0.1851839
0.1858997
0.1867628
0.1879075
0.1905034
0.1807977
0.1817798
0.1826728
0.1834215
0.183986
0.1843363
0.1844562
0.184344
0.184023
0.1835617
0.1831251
0.1831412
0.1831746
0.1832275
0.1833079
0.1832769
0.1839444
0.1845862
0.185361
0.1864095
0.1888971
0.1797184
0.1806577
0.1815022
0.1822083
0.1827374
0.1830608
0.183155
0.1830038
0.1825982
0.1819539
0.1812094
0.1810405
0.1809347
0.1808923
0.1809035
0.1808447
0.1814303
0.1819992
0.1825278
0.1831682
0.1840175
0.1863724
0.1786878
0.1795864
0.1803916
0.181062
0.1815647
0.1818683
0.1819462
0.1817665
0.1812784
0.1803633
0.1787
0.1782386
0.1780038
0.1778965
0.1778642
0.1777586
0.1782711
0.1787348
0.1791636
0.1795323
0.1799352
0.1805604
0.1827386
0.1732719
0.1737236
0.1740087
0.174181
0.1742605
0.1741444
0.1745695
0.1749488
0.1752618
0.1755161
0.1756423
0.1757982
0.1762212
0.1780745
0.1697868
0.1702978
0.1706713
0.1709109
0.1710148
0.170876
0.1712349
0.1715426
0.1717903
0.1719555
0.1720009
0.1719279
0.1719164
0.172152
0.1736833
0.1672697
0.1677577
0.1681244
0.1683611
0.1684566
0.1683044
0.168622
0.1688929
0.1691035
0.1692429
0.1692507
0.1691524
0.1689799
0.1688484
0.1689514
0.1654867
0.1659546
0.1663087
0.1665379
0.1666296
0.1664806
0.1667843
0.1670448
0.1672531
0.1673949
0.1674232
0.1673409
0.1671988
0.1669765
0.1667852
0.1643436
0.1648055
0.1651587
0.1653925
0.1654944
0.165366
0.1656775
0.1659518
0.1661803
0.1663537
0.1664241
0.1664053
0.1663261
0.1661866
0.1659681
0.1730294
0.1737616
0.175316
0.1764394
0.1769643
0.1786015
0.1802875
0.180593
0.1809239
0.1825631
0.1872166
0.1883286
0.1893284
0.1901625
0.1907807
0.1911358
0.191183
0.1908657
0.1901052
0.1887045
0.186201
0.1852628
0.1847288
0.184644
0.186255
0.186113
0.1872138
0.1882085
0.1890402
0.1896596
0.190025
0.1901009
0.1898597
0.1892765
0.1883641
0.1872675
0.186878
0.1865268
0.18638
0.1865899
0.1882507
0.1850636
0.1861564
0.1871523
0.1879885
0.188616
0.1889978
0.1891104
0.1889463
0.1885282
0.1879252
0.1873291
0.1872335
0.1871548
0.187081
0.1871808
0.1874196
0.1901326
0.1840309
0.1851118
0.1861033
0.1869396
0.1875716
0.1879664
0.188108
0.1880041
0.1876939
0.1872694
0.1868908
0.1869603
0.1870135
0.1870822
0.1871488
0.1872188
0.1884107
0.1910926
0.1829926
0.1840535
0.1850307
0.1858567
0.1864839
0.1868817
0.1870389
0.186969
0.1867192
0.1863805
0.1861055
0.1862427
0.1863776
0.1864998
0.1866366
0.1866244
0.1875381
0.1887401
0.1913688
0.1819374
0.1829714
0.1839222
0.1847263
0.1853369
0.1857261
0.1858834
0.1858231
0.1855914
0.1852787
0.1850299
0.1851858
0.1853381
0.1854931
0.1856396
0.1856692
0.1864141
0.1873113
0.1884894
0.1910742
0.1808686
0.1818671
0.1827822
0.1835527
0.184137
0.1845065
0.1846503
0.1845775
0.1843279
0.1839853
0.1837005
0.1838239
0.1839542
0.1840907
0.1842403
0.1842645
0.1849859
0.1856893
0.1865362
0.1876573
0.1901489
0.1797961
0.1807558
0.1816263
0.1823572
0.1829079
0.1832517
0.1833722
0.1832696
0.1829667
0.1825312
0.1821234
0.1821582
0.1822124
0.1822946
0.1824038
0.1824243
0.1830878
0.1837455
0.1843752
0.1851343
0.1861077
0.1885359
0.1787432
0.1796595
0.1804854
0.1811742
0.1816921
0.1820092
0.182105
0.1819636
0.1815779
0.1809637
0.1802569
0.1801112
0.1800321
0.1800181
0.1800655
0.1800484
0.1806628
0.1812404
0.1817997
0.1823167
0.1828946
0.1837089
0.1861
0.1777333
0.1786143
0.1794001
0.1800566
0.1805477
0.1808467
0.1809259
0.1807567
0.1802894
0.1794114
0.1778132
0.1773846
0.17718
0.1771048
0.1771065
0.1770488
0.1775857
0.1780913
0.1785469
0.1789663
0.1792798
0.1796572
0.1803282
0.182558
0.1725364
0.1729951
0.1732953
0.1734903
0.1736014
0.1735301
0.1739887
0.1744067
0.1747781
0.1750822
0.1752863
0.1753924
0.175594
0.1760695
0.1779869
0.1691352
0.1696532
0.1700399
0.1703004
0.170434
0.1703404
0.1707319
0.1710841
0.1713842
0.1716236
0.1717425
0.1717711
0.1717423
0.1717813
0.1720768
0.1666695
0.1671655
0.167546
0.1678031
0.1679274
0.1678176
0.168168
0.1684792
0.1687432
0.1689462
0.1690425
0.1690356
0.1689801
0.1688559
0.1687806
0.1649149
0.1653913
0.1657589
0.1660078
0.1661264
0.1660168
0.16635
0.1666478
0.1669019
0.1671033
0.1672045
0.1672198
0.1671787
0.1670829
0.1669138
0.1637825
0.1642522
0.1646178
0.1648695
0.164996
0.1649029
0.1652401
0.1655461
0.1658146
0.1660367
0.1661715
0.1662301
0.1662513
0.1662166
0.1661277
0.1717909
0.1715166
0.1728287
0.1732238
0.1735653
0.1748893
0.1759655
0.1762124
0.1765036
0.177884
0.1796596
0.1798614
0.1799089
0.1800528
0.1814943
0.186046
0.1871246
0.1880934
0.1889016
0.1895014
0.1898494
0.1899022
0.1896117
0.1888952
0.1875864
0.1852134
0.1843607
0.183742
0.1833896
0.1834038
0.1848345
0.1849746
0.1860433
0.1870086
0.1878153
0.188417
0.1887744
0.1888554
0.1886331
0.1880908
0.1872323
0.1862186
0.1858582
0.1855584
0.1852982
0.1852317
0.1853316
0.1879547
0.1839541
0.1850167
0.1859839
0.186796
0.1874059
0.1877793
0.1878943
0.1877464
0.187356
0.186797
0.1862448
0.1861881
0.186124
0.1860868
0.1860601
0.1860483
0.1871652
0.1898368
0.1829495
0.1840009
0.1849653
0.185778
0.1863931
0.1867789
0.1869217
0.1868294
0.1865425
0.1861478
0.1858064
0.1858937
0.1859806
0.1860587
0.1861567
0.186111
0.1869904
0.1881586
0.1907974
0.1819374
0.1829714
0.1839222
0.1847263
0.1853369
0.1857261
0.1858834
0.1858231
0.1855914
0.1852787
0.1850299
0.1851858
0.1853381
0.1854931
0.1856396
0.1856692
0.1864141
0.1873113
0.1884894
0.1910742
0.1809094
0.1819168
0.1828439
0.1836268
0.1842224
0.184603
0.1847603
0.1847084
0.1844931
0.1842022
0.1839781
0.1841463
0.184319
0.1844935
0.1846753
0.1847256
0.1854722
0.1862046
0.1870853
0.1882395
0.1907189
0.1798651
0.180841
0.1817327
0.1824848
0.1830547
0.183417