/*--------------------------------*- C++ -*----------------------------------*\
| =========                 |                                                 |
| \\      /  F ield         | OpenFOAM: The Open Source CFD Toolbox           |
|  \\    /   O peration     | Version:  2306                                  |
|   \\  /    A nd           | Website:  www.openfoam.com                      |
|    \\/     M anipulation  |                                                 |
\*---------------------------------------------------------------------------*/
FoamFile
{
    version     2.0;
    format      ascii;
    arch        "LSB;label=32;scalar=64";
    class       volScalarField;
    location    "1.2/fuel";
    object      diffSp.H2;
}
// * * * * * * * * * * * * * * * * * * * * * * * * * * * * * * * * * * * * * //

dimensions      [0 2 -1 0 0 0 0];

internalField   nonuniform List<scalar> 
16000
(
0.0001121623
0.0001121479
0.0001124742
0.0001121781
0.000112112
0.0001124785
0.0001121639
0.0001127457
0.0001124869
0.0001122112
0.0001120448
0.0001124856
0.0001121286
0.0001127543
0.0001124913
0.0001121976
0.0001129842
0.0001127559
0.0001125141
0.0001122498
0.0001119203
0.0001124967
0.0001120625
0.0001127718
0.0001124986
0.0001121634
0.0001129935
0.0001127646
0.0001125187
0.0001122368
0.0001132021
0.0001129924
0.0001127782
0.0001125459
0.0001123278
0.0001117477
0.0001125026
0.0001119399
0.0001128015
0.0001125098
0.0001120992
0.0001130127
0.000112782
0.0001125264
0.0001122039
0.0001132111
0.0001130017
0.000112787
0.0001125507
0.000112316
0.0001134064
0.0001132089
0.0001130111
0.0001128044
0.0001126104
0.0001685194
0.000111522
0.0001125127
0.0001117698
0.0001128395
0.0001125159
0.0001119793
0.0001130457
0.0001128117
0.0001125383
0.0001121418
0.0001132297
0.0001130209
0.0001128047
0.000112559
0.0001122856
0.0001134147
0.0001132179
0.0001130205
0.0001128134
0.0001126159
0.0001685021
0.0001135997
0.000113412
0.0001132248
0.0001130332
0.0001128581
0.0001689384
0.0001685326
0.000111315
0.0001124892
0.0001115471
0.0001128942
0.0001125259
0.0001118129
0.0001130906
0.0001128495
0.000112545
0.0001120251
0.000113262
0.0001130539
0.0001128347
0.0001125717
0.0001122275
0.0001134322
0.0001132365
0.0001130398
0.0001128314
0.0001126255
0.0001684576
0.0001136075
0.0001134203
0.0001132338
0.0001130427
0.0001128675
0.0001689468
0.0001685156
0.0001137838
0.0001136044
0.0001134256
0.0001132436
0.0001130787
0.0001693058
0.0001689491
0.0001685505
0.0001111581
0.0001124588
0.0001113427
0.0001129258
0.0001125026
0.0001115939
0.0001131547
0.0001129036
0.0001125556
0.0001118627
0.0001133066
0.0001130985
0.0001128725
0.0001125793
0.0001121162
0.0001134625
0.0001132686
0.0001130729
0.0001128617
0.00011264
0.0001683722
0.0001136238
0.0001134378
0.0001132525
0.0001130622
0.0001128862
0.0001689614
0.0001684717
0.000113791
0.0001136122
0.000113434
0.0001132527
0.0001130884
0.00016932
0.0001689575
0.0001685339
0.0001139592
0.0001137877
0.0001136162
0.0001134419
0.0001132829
0.0001696337
0.0001693145
0.0001689636
0.0001685665
0.0001110752
0.0001124291
0.0001111877
0.0001129469
0.0001124726
0.0001113926
0.0001132009
0.0001129348
0.0001125329
0.0001116475
0.00011337
0.0001131619
0.0001129266
0.0001125906
0.0001119604
0.0001135049
0.0001133129
0.0001131174
0.0001128998
0.0001126496
0.0001682081
0.000113652
0.000113468
0.0001132846
0.0001130954
0.0001129176
0.0001689834
0.0001683875
0.0001138062
0.0001136284
0.0001134515
0.0001132715
0.0001131085
0.0001693482
0.0001689721
0.0001684907
0.000113966
0.0001137949
0.000113624
0.0001134504
0.0001132922
0.0001696483
0.0001693286
0.0001689721
0.0001685503
0.0001141266
0.0001139625
0.000113798
0.0001136305
0.0001134763
0.0001699376
0.0001696407
0.0001693264
0.0001689766
0.000168585
0.0001110752
0.0001124118
0.0001111057
0.0001129568
0.0001124433
0.0001112397
0.0001132364
0.0001129557
0.0001125035
0.0001114494
0.0001134186
0.0001132075
0.0001129576
0.0001125686
0.000111751
0.0001135648
0.0001133756
0.0001131804
0.0001129538
0.0001126632
0.000167978
0.0001136917
0.00011351
0.0001133288
0.0001131399
0.0001129568
0.0001689982
0.0001682253
0.0001138325
0.0001136565
0.0001134817
0.0001133038
0.0001131424
0.0001693952
0.0001689941
0.000168408
0.0001139802
0.00011381
0.0001136403
0.000113468
0.0001133114
0.0001696784
0.0001693567
0.0001689868
0.0001685079
0.0001141329
0.0001139692
0.0001138053
0.0001136383
0.0001134849
0.0001699516
0.0001696554
0.0001693405
0.0001689852
0.0001685691
0.0001142863
0.0001141293
0.0001139716
0.0001138106
0.0001136609
0.0001702258
0.0001699434
0.0001696506
0.000169337
0.0001689916
0.0004106183
0.0001111581
0.0001124118
0.0001111057
0.0001129609
0.0001124263
0.0001111588
0.000113258
0.0001129656
0.0001124747
0.0001112987
0.000113457
0.0001132427
0.0001129784
0.0001125398
0.0001115572
0.0001136121
0.0001134238
0.0001132258
0.0001129848
0.0001126427
0.0001676678
0.0001137477
0.0001135694
0.0001133912
0.0001132028
0.0001130117
0.0001690184
0.0001679978
0.0001138696
0.0001136959
0.0001135236
0.0001133479
0.0001131876
0.0001694536
0.0001690086
0.0001682481
0.0001140047
0.0001138362
0.0001136684
0.0001134982
0.0001133441
0.0001697291
0.0001694034
0.000169009
0.0001684266
0.0001141462
0.0001139834
0.0001138204
0.0001136547
0.0001135028
0.0001699803
0.0001696852
0.0001693685
0.0001689999
0.0001685276
0.0001142922
0.0001141356
0.0001139784
0.0001138179
0.0001136689
0.0001702387
0.0001699573
0.0001696652
0.000169351
0.0001690002
0.0004105831
0.0001144385
0.0001142885
0.0001141375
0.0001139828
0.0001138378
0.0001705012
0.0001702306
0.0001699517
0.0001696593
0.0001693492
0.0004115789
0.0004107476
0.000111315
0.0001124291
0.0001111877
0.0001129609
0.0001124263
0.0001111588
0.0001132685
0.0001129696
0.000112458
0.0001112189
0.0001134814
0.0001132641
0.0001129883
0.0001125116
0.0001114093
0.0001136498
0.0001134618
0.0001132606
0.0001130056
0.0001126152
0.0001673808
0.0001137926
0.0001136162
0.0001134388
0.0001132478
0.0001130431
0.0001689879
0.0001676908
0.0001139219
0.0001137514
0.0001135826
0.0001134099
0.0001132508
0.0001695353
0.0001690283
0.0001680234
0.0001140396
0.0001138731
0.0001137076
0.00011354
0.0001133886
0.0001697964
0.0001694611
0.0001690234
0.0001682688
0.0001141693
0.0001140078
0.0001138466
0.0001136828
0.0001135334
0.0001700292
0.0001697356
0.000169415
0.0001690221
0.0001684479
0.0001143048
0.0001141489
0.0001139925
0.0001138331
0.0001136855
0.0001702655
0.0001699859
0.0001696949
0.0001693789
0.0001690151
0.0004104905
0.0001144441
0.0001142945
0.0001141438
0.0001139896
0.0001138452
0.0001705131
0.0001702435
0.0001699655
0.0001696738
0.0001693632
0.0004116
0.0004107198
0.0001145836
0.0001144404
0.0001142958
0.0001141475
0.0001140073
0.0001707652
0.0001705052
0.0001702375
0.0001699589
0.0001696694
0.0004124267
0.0004116731
0.0004109304
0.000111522
0.0001124588
0.0001113427
0.0001129568
0.0001124433
0.0001112397
0.0001132685
0.0001129696
0.000112458
0.0001112189
0.0001134935
0.0001132745
0.0001129924
0.0001124952
0.0001113308
0.0001136742
0.000113486
0.000113282
0.0001130155
0.0001125878
0.0001671616
0.0001138286
0.0001136536
0.0001134766
0.0001132824
0.0001130643
0.0001689472
0.0001674068
0.0001139643
0.0001137959
0.000113629
0.0001134573
0.0001132959
0.0001695818
0.0001689977
0.0001677197
0.0001140886
0.000113925
0.0001137628
0.0001135987
0.0001134509
0.0001698904
0.0001695418
0.0001690427
0.0001680468
0.0001142021
0.0001140424
0.0001138833
0.0001137219
0.0001135754
0.0001700954
0.0001698021
0.0001694722
0.0001690364
0.0001682924
0.0001143265
0.0001141719
0.000114017
0.0001138593
0.0001137138
0.0001703112
0.0001700345
0.000169745
0.0001694252
0.0001690374
0.0004103114
0.000114456
0.000114307
0.0001141571
0.0001140038
0.0001138605
0.0001705379
0.0001702701
0.000169994
0.0001697034
0.000169391
0.0004116366
0.0004106442
0.0001145889
0.000114446
0.0001143017
0.0001141538
0.0001140141
0.0001707763
0.000170517
0.0001702503
0.0001699727
0.0001696839
0.0004124601
0.0004116939
0.0004109133
0.0001147217
0.0001145852
0.0001144469
0.0001143048
0.0001141696
0.0001710184
0.0001707685
0.000170511
0.0001702435
0.0001699673
0.0004131885
0.0004124981
0.0004118059
0.0004110972
0.0001117477
0.0001124892
0.0001115471
0.0001129469
0.0001124726
0.0001113926
0.000113258
0.0001129656
0.0001124747
0.0001112987
0.0001134935
0.0001132745
0.0001129924
0.0001124952
0.0001113308
0.0001136863
0.000113498
0.0001132923
0.0001130197
0.0001125719
0.0001670453
0.0001138519
0.0001136777
0.0001135007
0.0001133036
0.0001130745
0.0001689068
0.00016719
0.0001139983
0.0001138315
0.0001136661
0.0001134948
0.0001133306
0.0001696132
0.0001689573
0.0001674389
0.0001141286
0.0001139669
0.0001138069
0.0001136447
0.0001134982
0.0001699572
0.0001695874
0.0001690121
0.0001677461
0.0001142482
0.0001140911
0.0001139349
0.0001137768
0.0001136343
0.000170188
0.0001698951
0.0001695519
0.0001690554
0.0001680732
0.0001143575
0.0001142045
0.0001140514
0.0001138959
0.0001137531
0.0001703738
0.0001701
0.0001698109
0.0001694818
0.0001690517
0.0004099549
0.0001144765
0.0001143286
0.00011418
0.0001140282
0.0001138869
0.0001705803
0.0001703154
0.0001700422
0.0001697532
0.0001694371
0.0004116905
0.000410496
0.0001146002
0.0001144578
0.0001143143
0.0001141671
0.0001140284
0.0001707993
0.0001705417
0.0001702768
0.000170001
0.0001697133
0.0004125262
0.0004117297
0.0004108622
0.0001147268
0.0001145905
0.0001144525
0.0001143108
0.000114176
0.0001710286
0.0001707795
0.0001705228
0.0001702563
0.000169981
0.0004132228
0.0004125293
0.0004118274
0.0004110926
0.0001148532
0.0001147231
0.000114591
0.0001144551
0.000114325
0.000171261
0.000171021
0.0001707734
0.000170516
0.0001702506
0.0004138994
0.0004132424
0.0004125996
0.000411921
0.0004112691
0.0001119203
0.0001125127
0.0001117698
0.0001129258
0.0001125026
0.0001115939
0.0001132364
0.0001129557
0.0001125035
0.0001114494
0.0001134814
0.0001132641
0.0001129883
0.0001125116
0.0001114093
0.0001136863
0.000113498
0.0001132923
0.0001130197
0.0001125719
0.0001670453
0.0001138636
0.0001136897
0.0001135126
0.0001133139
0.0001130787
0.0001688832
0.000167075
0.0001140205
0.0001138547
0.0001136901
0.0001135187
0.0001133518
0.0001696284
0.0001689173
0.0001672245
0.0001141608
0.0001140007
0.0001138423
0.0001136816
0.0001135356
0.0001700088
0.0001696184
0.000168972
0.0001674683
0.0001142861
0.0001141307
0.0001139765
0.0001138206
0.0001136802
0.0001702582
0.000169961
0.0001695968
0.0001690246
0.0001677756
0.000114401
0.0001142502
0.0001140998
0.0001139472
0.0001138081
0.0001704613
0.0001701916
0.0001699029
0.0001695606
0.0001690706
0.0004094443
0.000114506
0.0001143595
0.0001142125
0.0001140626
0.0001139236
0.0001706388
0.0001703774
0.0001701071
0.0001698184
0.0001694932
0.0004117222
0.0004101763
0.0001146197
0.0001144783
0.0001143359
0.00011419
0.000114053
0.0001708386
0.0001705838
0.0001703219
0.0001700489
0.0001697628
0.0004126342
0.0004117828
0.0004107586
0.0001147375
0.0001146017
0.0001144644
0.0001143233
0.0001141894
0.0001710501
0.0001708023
0.0001705473
0.0001702826
0.0001700092
0.0004132923
0.0004125902
0.0004118649
0.0004110706
0.000114858
0.0001147281
0.0001145964
0.0001144607
0.000114331
0.0001712706
0.0001710312
0.0001707844
0.0001705278
0.0001702633
0.0004139318
0.0004132741
0.0004126287
0.0004119434
0.0004112784
0.0001149782
0.0001148543
0.0001147284
0.0001145985
0.0001144735
0.0001714933
0.0001712632
0.0001710253
0.0001707777
0.000170522
0.0004145773
0.000413939
0.0004133211
0.0004126845
0.0004120373
0.0001120448
0.0001125026
0.0001119399
0.0001128942
0.0001125259
0.0001118129
0.0001132009
0.0001129348
0.0001125329
0.0001116475
0.000113457
0.0001132427
0.0001129784
0.0001125398
0.0001115572
0.0001136742
0.000113486
0.000113282
0.0001130155
0.0001125878
0.0001671616
0.0001138636
0.0001136897
0.0001135126
0.0001133139
0.0001130787
0.0001688832
0.000167075
0.0001140316
0.0001138663
0.000113702
0.0001135305
0.0001133621
0.0001696348
0.000168894
0.0001671107
0.0001141819
0.0001140227
0.0001138653
0.0001137054
0.0001135594
0.0001700403
0.0001696334
0.0001689324
0.0001672562
0.0001143167
0.0001141627
0.0001140101
0.0001138557
0.0001137169
0.0001703138
0.0001700119
0.0001696274
0.0001689848
0.0001675008
0.0001144371
0.0001142879
0.0001141392
0.0001139886
0.0001138517
0.0001705294
0.0001702608
0.0001699678
0.0001696047
0.0001690396
0.0004087509
0.0001145472
0.0001144027
0.000114258
0.0001141107
0.000113975
0.0001707206
0.000170464
0.0001701978
0.0001699094
0.0001695713
0.0004117606
0.0004096855
0.0001146477
0.0001145076
0.0001143666
0.0001142224
0.0001140875
0.0001708934
0.0001706417
0.0001703833
0.0001701132
0.0001698274
0.0004127628
0.0004118085
0.0004104904
0.0001147561
0.0001146212
0.0001144848
0.0001143449
0.0001142125
0.0001710868
0.0001708414
0.0001705891
0.0001703274
0.0001700568
0.000413408
0.0004126896
0.0004119222
0.0004110227
0.0001148683
0.0001147388
0.0001146076
0.0001144725
0.0001143436
0.0001712906
0.0001710526
0.0001708071
0.0001705522
0.0001702895
0.0004139981
0.0004133375
0.000412685
0.0004119835
0.0004112895
0.0001149828
0.0001148591
0.0001147334
0.0001146038
0.0001144792
0.0001715023
0.0001712727
0.0001710354
0.0001707885
0.0001705337
0.0004146073
0.0004139687
0.00041335
0.0004127114
0.000412061
0.0001150968
0.0001149791
0.0001148591
0.0001147352
0.0001146154
0.0001717155
0.0001714951
0.0001712668
0.0001710288
0.0001707827
0.0004152283
0.0004146048
0.0004139996
0.0004133851
0.0004127693
0.000112112
0.0001124967
0.0001120625
0.0001128395
0.0001125159
0.0001119793
0.0001131547
0.0001129036
0.0001125556
0.0001118627
0.0001134186
0.0001132075
0.0001129576
0.0001125686
0.000111751
0.0001136498
0.0001134618
0.0001132606
0.0001130056
0.0001126152
0.0001673808
0.0001138519
0.0001136777
0.0001135007
0.0001133036
0.0001130745
0.0001689068
0.00016719
0.0001140316
0.0001138663
0.000113702
0.0001135305
0.0001133621
0.0001696348
0.000168894
0.0001671107
0.0001141924
0.0001140338
0.0001138769
0.0001137173
0.0001135712
0.0001700556
0.0001696398
0.0001689095
0.0001671437
0.0001143367
0.0001141836
0.000114032
0.0001138786
0.0001137406
0.0001703492
0.0001700431
0.0001696422
0.0001689457
0.000167291
0.0001144662
0.0001143182
0.000114171
0.0001140219
0.0001138867
0.000170584
0.0001703158
0.0001700182
0.0001696348
0.0001690001
0.0004081137
0.0001145816
0.0001144385
0.0001142954
0.0001141499
0.0001140162
0.0001707854
0.0001705314
0.0001702662
0.0001699735
0.0001696146
0.000411683
0.0004090122
0.000114687
0.0001145486
0.0001144096
0.0001142677
0.0001141356
0.0001709698
0.0001707228
0.0001704691
0.000170203
0.0001699176
0.0004129402
0.0004118363
0.0004100097
0.0001147829
0.000114649
0.000114514
0.0001143755
0.0001142449
0.0001711381
0.0001708957
0.0001706466
0.0001703882
0.0001701205
0.0004135563
0.0004128027
0.0004119487
0.0004108281
0.000114886
0.0001147573
0.000114627
0.000114493
0.0001143653
0.0001713251
0.0001710891
0.000170846
0.0001705937
0.000170334
0.0004141093
0.0004134428
0.0004127777
0.0004120484
0.0004113113
0.0001149926
0.0001148693
0.0001147441
0.000114615
0.0001144911
0.0001715212
0.0001712927
0.0001710566
0.0001708112
0.000170558
0.0004146689
0.0004140289
0.0004134072
0.0004127628
0.0004121047
0.0001151013
0.0001149837
0.000114864
0.0001147402
0.0001146208
0.000171724
0.000171504
0.0001712763
0.0001710389
0.0001707936
0.000415256
0.0004146322
0.0004140265
0.0004134109
0.0004127938
0.0001152094
0.0001150976
0.0001149835
0.0001148654
0.0001147508
0.0001719278
0.0001717169
0.0001714982
0.0001712698
0.0001710332
0.000415855
0.0004152455
0.0004146506
0.0004140472
0.0004134484
0.0001121479
0.0001124856
0.0001121286
0.0001128015
0.0001125098
0.0001120992
0.0001130906
0.0001128495
0.000112545
0.0001120251
0.00011337
0.0001131619
0.0001129266
0.0001125906
0.0001119604
0.0001136121
0.0001134238
0.0001132258
0.0001129848
0.0001126427
0.0001676678
0.0001138286
0.0001136536
0.0001134766
0.0001132824
0.0001130643
0.0001689472
0.0001674068
0.0001140205
0.0001138547
0.0001136901
0.0001135187
0.0001133518
0.0001696284
0.0001689173
0.0001672245
0.0001141924
0.0001140338
0.0001138769
0.0001137173
0.0001135712
0.0001700556
0.0001696398
0.0001689095
0.0001671437
0.0001143468
0.0001141941
0.000114043
0.0001138901
0.0001137524
0.0001703668
0.0001700583
0.0001696486
0.0001689231
0.0001671797
0.0001144853
0.0001143381
0.0001141918
0.0001140437
0.0001139095
0.0001706193
0.0001703509
0.0001700491
0.0001696496
0.0001689614
0.0004076276
0.0001146094
0.0001144674
0.0001143255
0.0001141814
0.0001140494
0.0001708375
0.0001705854
0.0001703206
0.0001700233
0.0001696443
0.0004115896
0.0004084073
0.0001147199
0.0001145827
0.0001144452
0.0001143049
0.0001141746
0.0001710311
0.0001707869
0.0001705357
0.0001702705
0.0001699808
0.0004130359
0.0004117448
0.0004093293
0.0001148203
0.000114688
0.0001145548
0.0001144184
0.0001142902
0.0001712098
0.0001709715
0.000170727
0.0001704733
0.0001702096
0.000413763
0.0004129648
0.0004119765
0.0004103125
0.0001149117
0.000114784
0.0001146548
0.000114522
0.000114396
0.0001713734
0.00017114
0.0001708998
0.0001706507
0.0001703943
0.0004142558
0.0004135743
0.0004128786
0.0004120827
0.0004112398
0.0001150096
0.000114887
0.0001147626
0.0001146344
0.0001145116
0.0001715536
0.0001713269
0.0001710929
0.0001708498
0.0001705992
0.0004147727
0.0004141298
0.0004135029
0.0004128492
0.0004121815
0.0001151106
0.0001149934
0.0001148742
0.0001147509
0.0001146321
0.0001717418
0.0001715228
0.0001712961
0.00017106
0.0001708161
0.000415313
0.0004146881
0.0004140802
0.0004134612
0.0004128404
0.0001152136
0.000115102
0.0001149881
0.0001148702
0.0001147559
0.0001719358
0.0001717254
0.0001715071
0.0001712792
0.0001710432
0.0004158805
0.0004152708
0.0004146752
0.0004140708
0.0004134709
0.000115316
0.00011521
0.0001151016
0.0001149892
0.0001148798
0.0001721304
0.0001719289
0.0001717196
0.0001715007
0.0001712735
0.0004164578
0.0004158636
0.000415279
0.0004146847
0.0004140939
0.0001121623
0.0001124785
0.0001121639
0.0001127718
0.0001124986
0.0001121634
0.0001130457
0.0001128117
0.0001125383
0.0001121418
0.0001133066
0.0001130985
0.0001128725
0.0001125793
0.0001121162
0.0001135648
0.0001133756
0.0001131804
0.0001129538
0.0001126632
0.000167978
0.0001137926
0.0001136162
0.0001134388
0.0001132478
0.0001130431
0.0001689879
0.0001676908
0.0001139983
0.0001138315
0.0001136661
0.0001134948
0.0001133306
0.0001696132
0.0001689573
0.0001674389
0.0001141819
0.0001140227
0.0001138653
0.0001137054
0.0001135594
0.0001700403
0.0001696334
0.0001689324
0.0001672562
0.0001143468
0.0001141941
0.000114043
0.0001138901
0.0001137524
0.0001703668
0.0001700583
0.0001696486
0.0001689231
0.0001671797
0.0001144949
0.0001143481
0.0001142022
0.0001140546
0.0001139209
0.0001706369
0.0001703684
0.0001700642
0.0001696558
0.000168939
0.0004073698
0.0001146277
0.0001144864
0.0001143453
0.0001142021
0.0001140711
0.0001708714
0.0001706204
0.0001703554
0.0001700538
0.0001696589
0.0004115
0.0004079506
0.0001147464
0.0001146103
0.0001144739
0.0001143349
0.0001142061
0.0001710805
0.0001708385
0.0001705892
0.0001703243
0.00017003
0.0004131031
0.0004116488
0.0004087389
0.0001148519
0.0001147207
0.0001145887
0.0001144537
0.0001143273
0.0001712679
0.0001710322
0.0001707904
0.0001705391
0.0001702763
0.0004139059
0.0004130403
0.0004118644
0.0004095998
0.0001149475
0.0001148212
0.0001146936
0.0001145627
0.0001144388
0.000171441
0.0001712111
0.000170975
0.0001707304
0.0001704787
0.0004144609
0.0004137664
0.0004130392
0.0004121007
0.0004106864
0.0001150342
0.0001149125
0.0001147892
0.0001146621
0.0001145407
0.0001715993
0.0001713749
0.0001711434
0.0001709031
0.0001706557
0.0004149117
0.0004142605
0.0004136193
0.0004129395
0.0004122387
0.000115127
0.0001150104
0.0001148918
0.0001147694
0.0001146516
0.0001717724
0.000171555
0.0001713301
0.0001710961
0.0001708544
0.0004154093
0.0004147822
0.0004141711
0.0004135467
0.0004129217
0.0001152227
0.0001151114
0.0001149979
0.0001148804
0.0001147666
0.0001719527
0.0001717431
0.0001715257
0.000171299
0.0001710642
0.0004159334
0.0004153225
0.0004147249
0.0004141174
0.000413514
0.0001153201
0.0001152142
0.000115106
0.0001149938
0.0001148847
0.000172138
0.0001719369
0.000171728
0.0001715096
0.0001712829
0.0004164816
0.0004158869
0.0004153016
0.0004147062
0.0004141141
0.0001154168
0.0001153165
0.0001152137
0.0001151069
0.0001150027
0.0001723235
0.0001721313
0.0001719312
0.0001717217
0.0001715039
0.0004170373
0.0004164593
0.0004158868
0.000415302
0.000414718
0.0001124742
0.0001121781
0.0001127543
0.0001124913
0.0001121976
0.0001130127
0.000112782
0.0001125264
0.0001122039
0.000113262
0.0001130539
0.0001128347
0.0001125717
0.0001122275
0.0001135049
0.0001133129
0.0001131174
0.0001128998
0.0001126496
0.0001682081
0.0001137477
0.0001135694
0.0001133912
0.0001132028
0.0001130117
0.0001690184
0.0001679978
0.0001139643
0.0001137959
0.000113629
0.0001134573
0.0001132959
0.0001695818
0.0001689977
0.0001677197
0.0001141608
0.0001140007
0.0001138423
0.0001136816
0.0001135356
0.0001700088
0.0001696184
0.000168972
0.0001674683
0.0001143367
0.0001141836
0.000114032
0.0001138786
0.0001137406
0.0001703492
0.0001700431
0.0001696422
0.0001689457
0.000167291
0.0001144949
0.0001143481
0.0001142022
0.0001140546
0.0001139209
0.0001706369
0.0001703684
0.0001700642
0.0001696558
0.000168939
0.0004073698
0.0001146369
0.0001144959
0.0001143553
0.0001142125
0.000114082
0.0001708884
0.0001706379
0.0001703727
0.0001700688
0.0001696651
0.0004114486
0.0004077097
0.000114764
0.0001146286
0.0001144928
0.0001143546
0.0001142267
0.0001711128
0.0001708721
0.0001706239
0.0001703588
0.0001700602
0.0004131367
0.0004115619
0.0004083019
0.0001148774
0.0001147472
0.0001146162
0.0001144823
0.0001143571
0.0001713147
0.0001710811
0.0001708415
0.0001705921
0.0001703295
0.0004140187
0.0004130956
0.0004117606
0.0004090102
0.0001149778
0.0001148526
0.0001147261
0.0001145965
0.0001144741
0.0001714961
0.0001712686
0.0001710351
0.0001707931
0.0001705438
0.0004146131
0.0004138894
0.0004130927
0.0004119635
0.000409895
0.0001150686
0.0001149482
0.0001148262
0.0001147008
0.0001145814
0.0001716632
0.0001714419
0.000171214
0.0001709778
0.0001707348
0.0004151068
0.0004144531
0.0004138105
0.0004130985
0.0004122835
0.001157376
0.0001151507
0.0001150349
0.0001149172
0.0001147958
0.0001146793
0.0001718158
0.0001716004
0.0001713777
0.0001711461
0.0001709073
0.0004155398
0.0004149068
0.0004142867
0.0004136475
0.0004130048
0.0001152384
0.0001151276
0.0001150148
0.000114898
0.0001147852
0.0001719818
0.0001717736
0.0001715578
0.0001713328
0.0001711
0.000416023
0.0004154099
0.0004148092
0.000414197
0.0004135893
0.0001153288
0.0001152232
0.0001151154
0.0001150036
0.0001148949
0.0001721541
0.0001719537
0.0001717456
0.0001715281
0.0001713025
0.0004165308
0.0004159349
0.0004153474
0.0004147488
0.000414153
0.0001154207
0.0001153205
0.0001152179
0.0001151113
0.0001150073
0.0001723308
0.0001721389
0.0001719392
0.0001717301
0.0001715127
0.0004170594
0.000416481
0.0004159076
0.0004153216
0.0004147361
0.000115512
0.0001154172
0.0001153199
0.0001152186
0.0001151194
0.0001725074
0.0001723243
0.0001721333
0.000171933
0.0001717245
0.0004175934
0.0004170329
0.0004164739
0.0004159004
0.0004153241
0.0001127457
0.0001124869
0.0001122112
0.0001129935
0.0001127646
0.0001125187
0.0001122368
0.0001132297
0.0001130209
0.0001128047
0.000112559
0.0001122856
0.0001134625
0.0001132686
0.0001130729
0.0001128617
0.00011264
0.0001683722
0.0001136917
0.00011351
0.0001133288
0.0001131399
0.0001129568
0.0001689982
0.0001682253
0.0001139219
0.0001137514
0.0001135826
0.0001134099
0.0001132508
0.0001695353
0.0001690283
0.0001680234
0.0001141286
0.0001139669
0.0001138069
0.0001136447
0.0001134982
0.0001699572
0.0001695874
0.0001690121
0.0001677461
0.0001143167
0.0001141627
0.0001140101
0.0001138557
0.0001137169
0.0001703138
0.0001700119
0.0001696274
0.0001689848
0.0001675008
0.0001144853
0.0001143381
0.0001141918
0.0001140437
0.0001139095
0.0001706193
0.0001703509
0.0001700491
0.0001696496
0.0001689614
0.0004076276
0.0001146369
0.0001144959
0.0001143553
0.0001142125
0.000114082
0.0001708884
0.0001706379
0.0001703727
0.0001700688
0.0001696651
0.0004114486
0.0004077097
0.0001147728
0.0001146377
0.0001145023
0.0001143645
0.0001142371
0.000171129
0.000170889
0.0001706413
0.0001703759
0.0001700751
0.0004131513
0.0004115134
0.0004080733
0.0001148943
0.0001147647
0.0001146343
0.0001145012
0.0001143768
0.0001713455
0.0001711132
0.0001708749
0.0001706265
0.0001703636
0.0004140886
0.0004131234
0.0004116734
0.000408585
0.0001150024
0.000114878
0.0001147525
0.0001146238
0.0001145025
0.0001715406
0.0001713151
0.0001710837
0.0001708438
0.0001705962
0.0004147357
0.0004139887
0.0004131344
0.0004118493
0.0004092801
0.0001150978
0.0001149784
0.0001148575
0.0001147332
0.0001146151
0.0001717157
0.0001714966
0.0001712711
0.0001710373
0.0001707969
0.0004152563
0.0004145875
0.0004139138
0.0004131304
0.0004120984
0.001153777
0.0001151837
0.0001150691
0.0001149527
0.0001148328
0.000114718
0.0001718765
0.0001716639
0.0001714444
0.0001712163
0.0001709815
0.0004157235
0.0004150918
0.0004144799
0.0004138414
0.0004132047
0.001162576
0.001158484
0.0001152612
0.0001151512
0.0001150392
0.0001149233
0.0001148117
0.0001720231
0.0001718167
0.0001716028
0.00017138
0.0001711497
0.0004161456
0.0004155275
0.0004149198
0.0004142963
0.0004136735
0.0001153439
0.0001152389
0.0001151316
0.0001150205
0.0001149126
0.0001721817
0.0001719826
0.0001717759
0.00017156
0.0001713361
0.0004166145
0.0004160163
0.0004154255
0.0004148221
0.000414221
0.0001154291
0.0001153292
0.0001152269
0.0001151207
0.0001150171
0.0001723461
0.0001721549
0.0001719559
0.0001717476
0.0001715312
0.0004171056
0.0004165256
0.00041595
0.0004153606
0.0004147712
0.0001155158
0.0001154211
0.000115324
0.0001152228
0.0001151239
0.0001725143
0.0001723315
0.0001721408
0.0001719409
0.0001717328
0.0004176142
0.0004170531
0.0004164932
0.0004159184
0.0004153405
0.0001156016
0.0001155123
0.0001154203
0.0001153244
0.0001152303
0.0001726823
0.000172508
0.000172326
0.0001721348
0.0001719354
0.0004181265
0.0004175842
0.0004170404
0.0004164798
0.0004159133
0.0001129842
0.0001127559
0.0001125141
0.0001122498
0.0001132111
0.0001130017
0.000112787
0.0001125507
0.000112316
0.0001134322
0.0001132365
0.0001130398
0.0001128314
0.0001126255
0.0001684576
0.000113652
0.000113468
0.0001132846
0.0001130954
0.0001129176
0.0001689834
0.0001683875
0.0001138696
0.0001136959
0.0001135236
0.0001133479
0.0001131876
0.0001694536
0.0001690086
0.0001682481
0.0001140886
0.000113925
0.0001137628
0.0001135987
0.0001134509
0.0001698904
0.0001695418
0.0001690427
0.0001680468
0.0001142861
0.0001141307
0.0001139765
0.0001138206
0.0001136802
0.0001702582
0.000169961
0.0001695968
0.0001690246
0.0001677756
0.0001144662
0.0001143182
0.000114171
0.0001140219
0.0001138867
0.000170584
0.0001703158
0.0001700182
0.0001696348
0.0001690001
0.0004081137
0.0001146277
0.0001144864
0.0001143453
0.0001142021
0.0001140711
0.0001708714
0.0001706204
0.0001703554
0.0001700538
0.0001696589
0.0004115
0.0004079506
0.0001147728
0.0001146377
0.0001145023
0.0001143645
0.0001142371
0.000171129
0.000170889
0.0001706413
0.0001703759
0.0001700751
0.0004131513
0.0004115134
0.0004080733
0.0001149028
0.0001147734
0.0001146434
0.0001145106
0.0001143866
0.0001713609
0.0001711293
0.0001708917
0.0001706437
0.0001703806
0.0004141231
0.000413136
0.000411626
0.0004083651
0.0001150187
0.0001148948
0.0001147699
0.0001146419
0.0001145213
0.0001715699
0.0001713456
0.0001711155
0.0001708769
0.0001706303
0.0004148148
0.0004140509
0.0004131556
0.00041176
0.0004088575
0.0001151215
0.0001150028
0.0001148828
0.0001147594
0.0001146423
0.0001717582
0.0001715408
0.0001713172
0.0001710855
0.0001708472
0.0004153777
0.0004146976
0.0004139991
0.0004131588
0.0004119594
0.001151288
0.000115212
0.0001150982
0.0001149828
0.0001148639
0.0001147502
0.0001719267
0.000171716
0.0001714986
0.0001712728
0.0001710405
0.0004158669
0.0004152261
0.0004145975
0.0004139268
0.0004131998
0.0011617
0.00115528
0.000115293
0.0001151841
0.0001150733
0.0001149587
0.0001148486
0.0001720809
0.000171877
0.0001716659
0.0001714462
0.0001712195
0.0004163185
0.0004157033
0.000415107
0.0004144953
0.0004139115
0.00116581
0.001162974
0.001159125
0.000115366
0.0001152616
0.0001151551
0.0001150448
0.000114938
0.0001722213
0.0001720237
0.0001718187
0.0001716047
0.000171383
0.00041673
0.0004161273
0.0004155303
0.0004149167
0.0004143007
0.0001154437
0.0001153443
0.0001152426
0.0001151369
0.000115034
0.0001723725
0.0001721824
0.0001719846
0.0001717777
0.0001715628
0.0004171841
0.0004166018
0.0004160226
0.0004154281
0.0004148326
0.0001155239
0.0001154295
0.0001153326
0.0001152318
0.0001151333
0.000172529
0.0001723467
0.0001721567
0.0001719576
0.0001717502
0.0004176576
0.0004170949
0.0004165326
0.0004159544
0.0004153723
0.0001156053
0.000115516
0.0001154243
0.0001153285
0.0001152345
0.0001726889
0.0001725149
0.0001723331
0.0001721423
0.0001719433
0.0004181461
0.0004176032
0.0004170583
0.0004164964
0.0004159282
0.0001156859
0.0001156018
0.0001155152
0.0001154245
0.0001153354
0.0001728483
0.0001726827
0.0001725094
0.0001723272
0.0001721369
0.0004186367
0.0004181133
0.0004175858
0.0004170398
0.0004164849
0.0001132021
0.0001129924
0.0001127782
0.0001125459
0.0001123278
0.0001134147
0.0001132179
0.0001130205
0.0001128134
0.0001126159
0.0001685021
0.0001136238
0.0001134378
0.0001132525
0.0001130622
0.0001128862
0.0001689614
0.0001684717
0.0001138325
0.0001136565
0.0001134817
0.0001133038
0.0001131424
0.0001693952
0.0001689941
0.000168408
0.0001140396
0.0001138731
0.0001137076
0.00011354
0.0001133886
0.0001697964
0.0001694611
0.0001690234
0.0001682688
0.0001142482
0.0001140911
0.0001139349
0.0001137768
0.0001136343
0.000170188
0.0001698951
0.0001695519
0.0001690554
0.0001680732
0.0001144371
0.0001142879
0.0001141392
0.0001139886
0.0001138517
0.0001705294
0.0001702608
0.0001699678
0.0001696047
0.0001690396
0.0004087509
0.0001146094
0.0001144674
0.0001143255
0.0001141814
0.0001140494
0.0001708375
0.0001705854
0.0001703206
0.0001700233
0.0001696443
0.0004115896
0.0004084073
0.000114764
0.0001146286
0.0001144928
0.0001143546
0.0001142267
0.0001711128
0.0001708721
0.0001706239
0.0001703588
0.0001700602