/*--------------------------------*- C++ -*----------------------------------*\
| =========                 |                                                 |
| \\      /  F ield         | OpenFOAM: The Open Source CFD Toolbox           |
|  \\    /   O peration     | Version:  2306                                  |
|   \\  /    A nd           | Website:  www.openfoam.com                      |
|    \\/     M anipulation  |                                                 |
\*---------------------------------------------------------------------------*/
FoamFile
{
    version     2.0;
    format      ascii;
    arch        "LSB;label=32;scalar=64";
    class       volScalarField;
    location    "1.2/fuel";
    object      eta.fuel;
}
// * * * * * * * * * * * * * * * * * * * * * * * * * * * * * * * * * * * * * //

dimensions      [1 2 -3 0 0 -1 0];

internalField   nonuniform List<scalar> 
16000
(
0.125257
0.1258657
0.1196389
0.1216097
0.1270745
0.1200601
0.1221892
0.114904
0.1162854
0.1189887
0.1288528
0.120878
0.1233398
0.1152409
0.1166875
0.119549
0.1111331
0.1118047
0.1138583
0.1173633
0.1310722
0.1220361
0.1250318
0.115888
0.1174678
0.1206613
0.1114192
0.1121269
0.1142473
0.1179138
0.1080076
0.1082407
0.1095504
0.1123315
0.1167152
0.13335
0.1233967
0.1271425
0.116787
0.1185721
0.1222978
0.1119647
0.1127453
0.1150019
0.1190071
0.1082586
0.1085147
0.1098622
0.112713
0.117265
0.1053134
0.105289
0.1061298
0.1081184
0.1116887
0
0.1348906
0.1246828
0.1293082
0.1178101
0.1198683
0.1243412
0.1127126
0.1136038
0.1160696
0.1206178
0.1087346
0.1090365
0.1104605
0.1134532
0.1183582
0.1055383
0.1055297
0.1063951
0.108424
0.1120682
0
0.1029323
0.1027454
0.1033002
0.1047804
0.1074943
0
0
0.1357475
0.1254728
0.1307654
0.11873
0.1210921
0.1264408
0.1135445
0.1145796
0.1173226
0.1226332
0.1093808
0.1097516
0.1112908
0.1145008
0.1199717
0.1059629
0.1059856
0.1069002
0.1090103
0.112805
0
0.103137
0.1029612
0.1035334
0.1050403
0.1077979
0
0
0.1007847
0.1004973
0.1008633
0.1020232
0.1041797
0
0
0
0.136169
0.1258613
0.1315708
0.119253
0.1218397
0.1278494
0.1142642
0.1154554
0.1185052
0.1247111
0.1100867
0.1105456
0.1122336
0.1157309
0.1219979
0.1065348
0.1066039
0.107592
0.109824
0.1138487
0
0.1035221
0.1033684
0.1039749
0.1055353
0.1083803
0
0
0.1009731
0.1006939
0.1010725
0.1022517
0.1044377
0
0
0
0.09881918
0.09846894
0.09871007
0.09965081
0.1014466
0
0
0
0
0.136338
0.1260249
0.1319641
0.1194757
0.1222051
0.1286258
0.1146469
0.1159502
0.1192245
0.1261044
0.1106779
0.1112308
0.1130788
0.1168927
0.1240977
0.1071503
0.1072781
0.1083592
0.1107478
0.1150756
0
0.1040373
0.1039161
0.1045733
0.1062129
0.1091888
0
0
0.1013266
0.1010635
0.1014671
0.1026843
0.1049288
0
0
0
0.09899421
0.09865009
0.09890082
0.09985597
0.1016732
0
0
0
0
0.09699811
0.09661142
0.09676717
0.09755584
0.09909773
0
0
0
0
0
0.136338
0.1260813
0.1321208
0.1195464
0.1223576
0.1290038
0.1147859
0.116159
0.1195747
0.1268732
0.1109737
0.1115923
0.1135535
0.1175971
0.1255085
0.1076514
0.1078409
0.1090197
0.1115753
0.1162365
0
0.1045848
0.1045043
0.1052248
0.1069638
0.1101069
0
0
0.1017968
0.1015574
0.1019975
0.1032704
0.1056012
0
0
0
0.09932188
0.09898968
0.09925921
0.1002426
0.1021023
0
0
0
0
0.0971619
0.09677986
0.09694305
0.09774291
0.09930118
0
0
0
0
0
0.09529464
0.094889
0.09498741
0.09566597
0.09702527
0
0
0
0
0
0
0.136169
0.1260813
0.1321208
0.1195612
0.1224097
0.1291542
0.1148111
0.116224
0.1197202
0.1272483
0.1110627
0.1117216
0.1137523
0.1179395
0.1262906
0.1078879
0.1081197
0.1093656
0.1120376
0.1169391
0
0.1050195
0.1049812
0.105767
0.1076093
0.1109294
0
0
0.1022911
0.102081
0.102566
0.1039079
0.1063462
0
0
0
0.09975563
0.09944087
0.09973771
0.1007622
0.1026835
0
0
0
0
0.09746797
0.09709493
0.09727257
0.09809425
0.09968458
0
0
0
0
0
0.09544884
0.09504677
0.09515106
0.09583852
0.09721077
0
0
0
0
0
0
0.09368805
0.09327623
0.09333626
0.09393484
0.09515678
0
0
0
0
0
0
0
0.1357475
0.1260249
0.1319641
0.1195612
0.1224097
0.1291542
0.1148058
0.1162368
0.1197697
0.1273979
0.1110619
0.1117433
0.1138131
0.118082
0.1266751
0.1079443
0.1082015
0.1094876
0.1122301
0.1172812
0
0.1052135
0.1052038
0.1060331
0.1079449
0.1113869
0
0
0.1026748
0.1024947
0.1030253
0.104437
0.1069859
0
0
0
0.1002072
0.09991386
0.100244
0.1013183
0.1033153
0
0
0
0
0.09787139
0.09751147
0.09770996
0.09856307
0.1001996
0
0
0
0
0
0.09573657
0.09534134
0.09545699
0.09616167
0.09755913
0
0
0
0
0
0
0.09383397
0.0934249
0.09348965
0.09409546
0.09532788
0
0
0
0
0
0
0
0.09216245
0.09175351
0.09178922
0.09232857
0.09344586
0
0
0
0
0
0
0
0
0.1348906
0.1258613
0.1315708
0.1195464
0.1223576
0.1290038
0.1148058
0.1162368
0.1197697
0.1273979
0.1110455
0.1117371
0.1138246
0.1181305
0.1268295
0.1079271
0.1081984
0.1095065
0.1122884
0.1174243
0
0.1052473
0.1052544
0.1061092
0.1080616
0.1115766
0
0
0.102837
0.1026769
0.1032372
0.1046944
0.1073163
0
0
0
0.1005506
0.1002791
0.1006424
0.1017663
0.1038389
0
0
0
0
0.09828781
0.0979439
0.0981675
0.09905835
0.1007506
0
0
0
0
0
0.09611442
0.0957291
0.09586104
0.09659033
0.09802383
0
0
0
0
0
0
0.09410594
0.09370209
0.09377587
0.09439559
0.09564829
0
0
0
0
0
0
0
0.09230113
0.09189432
0.09193387
0.09247918
0.09360515
0
0
0
0
0
0
0
0
0.09070551
0.0903058
0.09032742
0.09082314
0.09185867
0
0
0
0
0
0
0
0
0
0.13335
0.1254728
0.1307654
0.1194757
0.1222051
0.1286258
0.1148111
0.116224
0.1197202
0.1272483
0.1110455
0.1117371
0.1138246
0.1181305
0.1268295
0.1079039
0.1081816
0.1094996
0.1122991
0.1174735
0
0.1052193
0.1052357
0.1061042
0.1080786
0.1116338
0
0
0.1028544
0.1027061
0.1032832
0.1047662
0.10743
0
0
0
0.1006884
0.1004311
0.1008154
0.1019707
0.1040914
0
0
0
0
0.09859878
0.09827097
0.09851917
0.09944674
0.1011934
0
0
0
0
0
0.0965015
0.0961282
0.09627956
0.09703804
0.09851437
0
0
0
0
0
0
0.09446191
0.09406558
0.09415225
0.09479172
0.09607319
0
0
0
0
0
0
0
0.09255941
0.09215656
0.09220338
0.09276009
0.09390275
0
0
0
0
0
0
0
0
0.09083781
0.09043975
0.09046451
0.09096522
0.09200805
0
0
0
0
0
0
0
0
0
0.08930748
0.08892149
0.08893642
0.08940009
0.09037128
0
0
0
0
0
0
0
0
0
0
0.1310722
0.1246828
0.1293082
0.119253
0.1218397
0.1278494
0.1147859
0.116159
0.1195747
0.1268732
0.1110619
0.1117433
0.1138131
0.118082
0.1266751
0.1079039
0.1081816
0.1094996
0.1122991
0.1174735
0
0.1051918
0.1052124
0.1060869
0.1080711
0.1116443
0
0
0.1028189
0.102677
0.1032631
0.1047596
0.1074457
0
0
0
0.1006937
0.1004447
0.1008408
0.1020132
0.1041604
0
0
0
0
0.09871727
0.09839976
0.09866322
0.09961329
0.1013933
0
0
0
0
0
0.09678579
0.09642443
0.09659451
0.09738081
0.09889798
0
0
0
0
0
0
0.09482415
0.09443686
0.09453872
0.09520136
0.09651656
0
0
0
0
0
0
0
0.09289647
0.09249931
0.09255643
0.09312923
0.09429542
0
0
0
0
0
0
0
0
0.09108407
0.090689
0.09071966
0.09122984
0.09228663
0
0
0
0
0
0
0
0
0
0.08943412
0.08904939
0.08906691
0.0895348
0.09051222
0
0
0
0
0
0
0
0
0
0
0.08796029
0.0875914
0.08760507
0.08804529
0.08896528
0
0
0
0
0
0
0
0
0
0
0.1288528
0.1233967
0.1271425
0.11873
0.1210921
0.1264408
0.1146469
0.1159502
0.1192245
0.1261044
0.1110627
0.1117216
0.1137523
0.1179395
0.1262906
0.1079271
0.1081984
0.1095065
0.1122884
0.1174243
0
0.1051918
0.1052124
0.1060869
0.1080711
0.1116443
0
0
0.1027887
0.1026496
0.1032396
0.104742
0.1074377
0
0
0
0.100653
0.1004085
0.1008107
0.1019918
0.1041525
0
0
0
0
0.09871338
0.09840184
0.09867362
0.09963563
0.1014333
0
0
0
0
0
0.09688883
0.09653494
0.09671631
0.09751914
0.09906055
0
0
0
0
0
0
0.09508622
0.09470779
0.09482403
0.0955083
0.09685497
0
0
0
0
0
0
0
0.09323746
0.09284704
0.09291617
0.09350762
0.0947011
0
0
0
0
0
0
0
0
0.09140464
0.09101383
0.09105278
0.09157624
0.09265259
0
0
0
0
0
0
0
0
0
0.08966973
0.08928725
0.08930958
0.08978542
0.09077468
0
0
0
0
0
0
0
0
0
0
0.08808182
0.08771391
0.08772975
0.08817357
0.08909893
0
0
0
0
0
0
0
0
0
0
0.08665744
0.08630792
0.0863246
0.08674787
0.08762662
0
0
0
0
0
0
0
0
0
0
0.1270745
0.1220361
0.1250318
0.1178101
0.1198683
0.1243412
0.1142642
0.1154554
0.1185052
0.1247111
0.1109737
0.1115923
0.1135535
0.1175971
0.1255085
0.1079443
0.1082015
0.1094876
0.1122301
0.1172812
0
0.1052193
0.1052357
0.1061042
0.1080786
0.1116338
0
0
0.1027887
0.1026496
0.1032396
0.104742
0.1074377
0
0
0
0.1006209
0.1003784
0.1007832
0.101968
0.1041344
0
0
0
0
0.09866901
0.09836071
0.09863671
0.09960459
0.1014108
0
0
0
0
0
0.09687794
0.09652833
0.09671571
0.09752699
0.09908066
0
0
0
0
0
0
0.09517672
0.09480369
0.09492833
0.09562504
0.09698974
0
0
0
0
0
0
0
0.09348082
0.09309691
0.09317718
0.09378569
0.09500406
0
0
0
0
0
0
0
0
0.09172723
0.09134142
0.09138991
0.09192858
0.09302734
0
0
0
0
0
0
0
0
0
0.08997575
0.08959644
0.08962549
0.0901124
0.09111813
0
0
0
0
0
0
0
0
0
0
0.08830793
0.08794168
0.08796148
0.08841204
0.08934754
0
0
0
0
0
0
0
0
0
0
0.08677441
0.0864256
0.08644411
0.08687048
0.08775391
0
0
0
0
0
0
0
0
0
0
0.08539377
0.08506499
0.08508774
0.08549928
0.08634449
0
0
0
0
0
0
0
0
0
0
0.1258657
0.120878
0.1233398
0.116787
0.1185721
0.1222978
0.1135445
0.1145796
0.1173226
0.1226332
0.1106779
0.1112308
0.1130788
0.1168927
0.1240977
0.1078879
0.1081197
0.1093656
0.1120376
0.1169391
0
0.1052473
0.1052544
0.1061092
0.1080616
0.1115766
0
0
0.1028189
0.102677
0.1032631
0.1047596
0.1074457
0
0
0
0.1006209
0.1003784
0.1007832
0.101968
0.1041344
0
0
0
0
0.09863566
0.09832881
0.09860661
0.0995769
0.1013866
0
0
0
0
0
0.09683095
0.09648367
0.09667402
0.0974893
0.09904865
0
0
0
0
0
0
0.09516042
0.09479044
0.09491941
0.09562224
0.09699563
0
0
0
0
0
0
0
0.09356107
0.09318097
0.09326751
0.09388547
0.09511761
0
0
0
0
0
0
0
0
0.09195468
0.09157359
0.09163072
0.09218301
0.09330178
0
0
0
0
0
0
0
0
0
0.09028225
0.08990661
0.08994329
0.09044272
0.09146713
0
0
0
0
0
0
0
0
0
0
0.08860104
0.08823709
0.08826237
0.08872224
0.08967179
0
0
0
0
0
0
0
0
0
0
0.08699205
0.08664436
0.08666615
0.08709829
0.0879905
0
0
0
0
0
0
0
0
0
0
0.08550663
0.08517834
0.08520259
0.08561685
0.08646617
0
0
0
0
0
0
0
0
0
0
0.0841649
0.08385778
0.0838887
0.08429244
0.08511039
0
0
0
0
0
0
0
0
0
0
0.125257
0.1200601
0.1221892
0.115888
0.1174678
0.1206613
0.1127126
0.1136038
0.1160696
0.1206178
0.1100867
0.1105456
0.1122336
0.1157309
0.1219979
0.1076514
0.1078409
0.1090197
0.1115753
0.1162365
0
0.1052135
0.1052038
0.1060331
0.1079449
0.1113869
0
0
0.1028544
0.1027061
0.1032832
0.1047662
0.10743
0
0
0
0.100653
0.1004085
0.1008107
0.1019918
0.1041525
0
0
0
0
0.09863566
0.09832881
0.09860661
0.0995769
0.1013866
0
0
0
0
0
0.09679683
0.09645059
0.0966422
0.09745906
0.09902065
0
0
0
0
0
0
0.09511163
0.0947433
0.09487434
0.09557992
0.0969571
0
0
0
0
0
0
0
0.09354064
0.09316263
0.09325226
0.09387463
0.09511307
0
0
0
0
0
0
0
0
0.09202647
0.091648
0.09170974
0.09226926
0.09339867
0
0
0
0
0
0
0
0
0
0.09049601
0.09012374
0.09016714
0.09067751
0.09171824
0
0
0
0
0
0
0
0
0
0
0.08889344
0.08853204
0.08856347
0.08903375
0.08999902
0
0
0
0
0
0
0
0
0
0
0.08727373
0.08692753
0.08695381
0.08739388
0.08829817
0
0
0
0
0
0
0
0
0
0
0.08571665
0.08538908
0.08541598
0.08583523
0.08669222
0
0
0
0
0
0
0
0
0
0
0.08427398
0.08396722
0.08399939
0.08440548
0.08522709
0
0
0
0
0
0
0
0
0
0
0.08296685
0.08268221
0.0827229
0.08312173
0.08391731
0
0
0
0
0
0
0
0
0
0
0.1196389
0.1216097
0.1152409
0.1166875
0.119549
0.1119647
0.1127453
0.1150019
0.1190071
0.1093808
0.1097516
0.1112908
0.1145008
0.1199717
0.1071503
0.1072781
0.1083592
0.1107478
0.1150756
0
0.1050195
0.1049812
0.105767
0.1076093
0.1109294
0
0
0.102837
0.1026769
0.1032372
0.1046944
0.1073163
0
0
0
0.1006937
0.1004447
0.1008408
0.1020132
0.1041604
0
0
0
0
0.09866901
0.09836071
0.09863671
0.09960459
0.1014108
0
0
0
0
0
0.09679683
0.09645059
0.0966422
0.09745906
0.09902065
0
0
0
0
0
0
0.09507707
0.09470948
0.09484138
0.09554802
0.0969266
0
0
0
0
0
0
0
0.09349066
0.09311377
0.09320482
0.09382905
0.09507004
0
0
0
0
0
0
0
0
0.09200283
0.09162576
0.09168964
0.09225233
0.09338629
0
0
0
0
0
0
0
0
0
0.09056075
0.09019018
0.09023697
0.09075284
0.09180187
0
0
0
0
0
0
0
0
0
0
0.08909546
0.08873623
0.08877291
0.08925206
0.09023075
0
0
0
0
0
0
0
0
0
0
0
0.08755374
0.08720915
0.0872403
0.08768913
0.08860681
0
0
0
0
0
0
0
0
0
0
0.08598808
0.08566143
0.08569191
0.08611793
0.08698544
0
0
0
0
0
0
0
0
0
0
0.08447708
0.08417074
0.08420509
0.08461543
0.08544382
0
0
0
0
0
0
0
0
0
0
0.08307252
0.08278806
0.08282983
0.08323072
0.08402953
0
0
0
0
0
0
0
0
0
0
0.08179652
0.08153457
0.08158645
0.08198271
0.08275966
0
0
0
0
0
0
0
0
0
0
0.114904
0.1162854
0.1189887
0.1114192
0.1121269
0.1142473
0.1179138
0.1087346
0.1090365
0.1104605
0.1134532
0.1183582
0.1065348
0.1066039
0.107592
0.109824
0.1138487
0
0.1045848
0.1045043
0.1052248
0.1069638
0.1101069
0
0
0.1026748
0.1024947
0.1030253
0.104437
0.1069859
0
0
0
0.1006884
0.1004311
0.1008154
0.1019707
0.1040914
0
0
0
0
0.09871338
0.09840184
0.09867362
0.09963563
0.1014333
0
0
0
0
0
0.09683095
0.09648367
0.09667402
0.0974893
0.09904865
0
0
0
0
0
0
0.09507707
0.09470948
0.09484138
0.09554802
0.0969266
0
0
0
0
0
0
0
0.09345592
0.09307954
0.09317115
0.09379606
0.09503792
0
0
0
0
0
0
0
0
0.09195211
0.09157579
0.09164059
0.09220448
0.0933401
0
0
0
0
0
0
0
0
0
0.09053468
0.09016495
0.09021317
0.09073124
0.09178356
0
0
0
0
0
0
0
0
0
0
0.0891544
0.08879606
0.08883516
0.08931852
0.09030371
0
0
0
0
0
0
0
0
0
0
0
0.08774561
0.08740226
0.08743737
0.08789346
0.0888223
0
0
0
0
0
0
0
0
0
0
0
0
0.08625709
0.08593133
0.08596563
0.08639898
0.08727803
0
0
0
0
0
0
0
0
0
0
0.08473924
0.0844334
0.08447063
0.08488671
0.0857243
0
0
0
0
0
0
0
0
0
0
0.08326937
0.08298503
0.0830286
0.08343317
0.08423793
0
0
0
0
0
0
0
0
0
0
0.08189904
0.08163718
0.08168995
0.08208803
0.08286788
0
0
0
0
0
0
0
0
0
0
0.08065121
0.08041197
0.08047586
0.08087162
0.08163307
0
0
0
0
0
0
0
0
0
0
0.1111331
0.1118047
0.1138583
0.1173633
0.1082586
0.1085147
0.1098622
0.112713
0.117265
0.1059629
0.1059856
0.1069002
0.1090103
0.112805
0
0.1040373
0.1039161
0.1045733
0.1062129
0.1091888
0
0
0.1022911
0.102081
0.102566
0.1039079
0.1063462
0
0
0
0.1005506
0.1002791
0.1006424
0.1017663
0.1038389
0
0
0
0
0.09871727
0.09839976
0.09866322
0.09961329
0.1013933
0
0
0
0
0
0.09687794
0.09652833
0.09671571
0.09752699
0.09908066
0
0
0
0
0
0
0.09511163
0.0947433
0.09487434
0.09557992
0.0969571
0
0
0
0
0
0
0
0.09345592
0.09307954
0.09317115
0.09379606
0.09503792
0
0
0
0
0
0
0
0
0.09191736
0.09154139
0.09160652
0.09217081
0.09330692
0
0
0
0
0
0
0
0
0
0.09048361
0.09011429
0.09016307
0.09068185
0.09173517
0
0
0
0
0
0
0
0
0
0
0.08912655
0.08876856
0.08880853
0.08929339
0.09028087
0
0
0
0
0
0
0
0
0
0
0
0.08779975
0.08745666
0.08749334
0.08795262
0.08888658
0
0
0
0
0
0
0
0
0
0
0
0
0.0864401
0.08611488
0.08615211
0.08659131
0.08747975
0
0
0
0
0
0
0
0
0
0
0
0
0
0.08499841
0.08469291
0.08473312
0.08515534
0.08600287
0
0
0
0
0
0
0
0
0
0
0.08352322
0.08323891
0.08328485
0.08369435
0.08450713
0
0
0
0
0
0
0
0
0
0
0.08209019
0.08182822
0.08188242
0.08228375
0.08306887
0
0
0
0
0
0
0
0
0
0
0.08075087
0.0805116
0.08057623
0.08097359
0.08173767
0
0
0
0
0
0
0
0
0
0
0.07952922
0.07931193
0.07938837
0.07978506
0.08053381
0
0
0
0
0
0
0
0
0
0
0.1080076
0.1082407
0.1095504
0.1123315
0.1167152
0.1055383
0.1055297
0.1063951
0.108424
0.1120682
0
0.1035221
0.1033684
0.1039749
0.1055353
0.1083803
0
0
0.1017968
0.1015574
0.1019975
0.1032704
0.1056012
0
0
0
0.1002072
0.09991386
0.100244
0.1013183
0.1033153
0
0
0
0
0.09859878
0.09827097
0.09851917
0.09944674
0.1011934
0
0
0
0
0
0.09688883
0.09653494
0.09671631
0.09751914
0.09906055
0
0
0
0
0
0
0.09516042
0.09479044
0.09491941
0.09562224
0.09699563
0
0
0
0
0
0
0
0.09349066
0.09311377
0.09320482
0.09382905
0.09507004
0
0
0
0
0
0
0
0
0.09191736
0.09154139
0.09160652
0.09217081
0.09330692
0
0
0
0
0
0
0
0
0
0.09044901
0.09007989
0.09012884
0.09064781
0.09170135
0
0
0
0
0
0
0
0
0
0
0.08907544
0.08871759
0.0887578
0.08924301
0.090231
0
0
0
0
0
0
0
0
0
0
0
0.08777066
0.08742753
0.08746459
0.08792479
0.08886033
0
0
0
0
0
0
0
0
0
0
0
0
0.08649021
0.08616481
0.08620294
0.08664443
0.08753691
0
0
0
0
0
0
0
0
0
0
0
0
0
0.08517368
0.08486813
0.08491049
0.0853374
0.08619278
0
0
0
0
0
0
0
0
0
0
0
0
0
0
0.08377364
0.08348913
0.0835374
0.08395208
0.08477344
0
0
0
0
0
0
0
0
0
0
0.0823365
0.08207425
0.08213026
0.08253589
0.08332809
0
0
0
0
0
0
0
0
0
0
0.08093685
0.08069725
0.08076303
0.08116318
0.08193201
0
0
0
0
0
0
0
0
0
0
0.07962625
0.07940884
0.07948588
0.079884
0.08063509
0
0
0
0
0
0
0
0
0
0
0.07842864
0.07823292
0.07832166
0.0787204
0.07945851
0
0
0
0
0
0
0
0
0
0
0.1053134
0.105289
0.1061298
0.1081184
0.1116887
0
0.103137
0.1029612
0.1035334
0.1050403
0.1077979
0
0
0.1013266
0.1010635
0.1014671
0.1026843
0.1049288
0
0
0
0.09975563
0.09944087
0.09973771
0.1007622
0.1026835
0
0
0
0
0.09828781
0.0979439
0.0981675
0.09905835
0.1007506
0
0
0
0
0
0.09678579
0.09642443
0.09659451
0.09738081
0.09889798
0
0
0
0
0
0
0.09517672
0.09480369
0.09492833
0.09562504
0.09698974
0
0
0
0
0
0
0
0.09354064
0.09316263
0.09325226
0.09387463
0.09511307
0
0
0
0
0
0
0
0
0.09195211
0.09157579
0.09164059
0.09220448
0.0933401
0
0
0
0
0
0
0
0
0
0.09044901
0.09007989
0.09012884
0.09064781
0.09170135
0
0
0
0
0
0
0
0
0
0
0.08904111
0.08868333
0.08872359
0.08920883
0.09019684
0
0
0
0
0
0
0
0
0
0
0
0.08771974
0.08737655
0.08741358
0.08787384
0.08880954
0
0
0
0
0
0
0
0
0
0
0
0
0.08646025
0.08613456
0.08617268
0.0866146
0.08750806
0
0
0
0
0
0
0
0
0
0
0
0
0
0.0852205
0.08491431
0.0849571
0.0853856
0.08624405
0
0
0
0
0
0
0
0
0
0
0
0
0
0
0.08394217
0.08365708
0.08370681
0.08412531
0.08495324
0
0
0
0
0
0
0
0
0
0
0
0
0
0
0
0.08257907
0.08231622
0.08237391
0.08278395
0.08358365
0
0
0
0
0
0
0
0
0
0
0.08117635
0.08093614
0.08100333
0.08140714
0.08218229
0
0
0
0
0
0
0
0
0
0
0.0798075
0.0795896
0.0796675
0.08006806
0.08082338
0
0
0
0
0
0
0
0
0
0
0.07852325
0.07832734
0.07841656
0.07881654
0.0795568
0
0
0
0
0
0
0
0
0
0
0.07734877
0.07717321
0.07727432
0.07767538
0.07840459
0
0
0
0
0
0
0
0
0
0
0.1029323
0.1027454
0.1033002
0.1047804
0.1074943
0
0
0.1009731
0.1006939
0.1010725
0.1022517
0.1044377
0
0
0
0.09932188
0.09898968
0.09925921
0.1002426
0.1021023
0
0
0
0
0.09787139
0.09751147
0.09770996
0.09856307
0.1001996
0
0
0
0
0
0.0965015
0.0961282
0.09627956
0.09703804
0.09851437
0
0
0
0
0
0
0.09508622
0.09470779
0.09482403
0.0955083
0.09685497
0
0
0
0
0
0
0
0.09356107
0.09318097
0.09326751
0.09388547
0.09511761
0
0
0
0
0
0
0
0
0.09200283
0.09162576
0.09168964
0.09225233
0.09338629
0
0
0
0
0
0
0
0
0
0.0904836
0.09011429
0.09016306
0.09068185
0.09173517
0
0
0
0
0
0
0
0
0
0
0.08904111
0.08868333
0.08872359
0.08920883
0.09019684
0
0
0
0
0
0
0
0
0
0
0
0.08768578
0.08734256
0.08737952
0.08783967
0.08877525
0
0
0
0
0
0
0
0
0
0
0
0
0.08640969
0.08608379
0.08612168
0.0865634
0.08745673
0
0
0
0
0
0
0
0
0
0
0
0
0
0.08519006
0.08488328
0.08492581
0.08535435
0.08621328
0
0
0
0
0
0
0
0
0
0
0
0
0
0
0.08398627
0.08370023
0.08374991
0.08416948
0.08499972
0
0
0
0
0
0
0
0
0
0
0
0
0
0
0
0.0827417
0.08247786
0.08253642
0.0829495
0.08375477
0
0
0
0
0
0
0
0
0
0
0
0
0
0
0
0
0.08141192
0.08117071
0.0812391
0.08164657
0.08242831
0
0
0
0
0
0
0
0
0
0
0.08004084
0.07982207
0.07990097
0.08030469
0.08106558
0
0
0
0
0
0
0
0
0
0
0.07870019
0.07850363
0.07859349
0.07899557
0.07973963
0
0
0
0
0
0
0
0
0
0
0.07744113
0.07726532
0.07736682
0.07776898
0.07850012
0
0
0
0
0
0
0
0
0
0
0.07628778
0.0761322
0.07624473
0.07664867
0.07736982
0
0
0
0
0
0
0
0
0
0
0.1007847
0.1004973
0.1008633
0.1020232
0.1041797
0
0
0
0.09899421
0.09865009
0.09890082
0.09985597
0.1016732
0
0
0
0
0.09746797
0.09709493
0.09727257
0.09809425
0.09968458
0
0
0
0
0
0.09611442
0.0957291
0.09586104
0.09659033
0.09802383
0
0
0
0
0
0
0.09482415
0.09443686
0.09453872
0.09520136
0.09651656
0
0
0
0
0
0
0
0.09348082
0.09309691
0.09317718
0.09378569
0.09500406
0
0
0
0
0
0
0
0
0.09202647
0.091648
0.09170974
0.09226926
0.09339867
0
0
0
0
0
0
0
0
0
0.09053468
0.09016495
0.09021317
0.09073124
0.09178356
0
0
0
0
0
0
0
0
0
0
0.08907544
0.08871759
0.0887578
0.08924301
0.090231
0
0
0
0
0
0
0
0
0
0
0
0.08768578
0.08734256
0.08737952
0.08783967
0.08877525
0
0
0
0
0
0
0
0
0
0
0
0
0.08637615
0.08605016
0.0860879
0.0865294
0.08742248
0
0
0
0
0
0
0
0
0
0
0
0
0
0.08514005
0.0848329
0.08487506
0.0853032
0.08616175
0
0
0
0
0
0
0
0
0
0
0
0
0
0
0.08395562
0.08366881
0.08371793
0.08413728
0.08496761
0
0
0
0
0
0
0
0
0
0
0
0
0
0
0
0.08278361
0.0825185
0.08257666
0.08299031
0.08379733
0
0
0
0
0
0
0
0
0
0
0
0
0
0
0
0
0.08156944
0.08132683
0.0813956
0.08180543
0.08259188
0
0
0
0
0
0
0
0
0
0
0
0
0
0
0
0
0
0.08027012
0.08005004
0.08012967
0.08053647
0.08130308
0
0
0
0
0
0
0
0
0
0
0.07892791
0.07873027
0.07882081
0.07922556
0.0799746
0
0
0
0
0
0
0
0
0
0
0.07761408
0.07743752
0.07753947
0.07794344
0.07867797
0
0
0
0
0
0
0
0
0
0
0.07637807
0.07622219
0.07633502
0.07673994
0.07746283
0
0
0
0
0
0
0
0
0
0
0.07524461
0.07510821
0.07523239
0.07563872
0.07635289
0
0
0
0
0
0
0
0
0
0
0.09881918
0.09846894
0.09871007
0.09965081
0.1014466
0
0
0
0
0.0971619
0.09677986
0.09694305
0.09774291
0.09930118
0
0
0
0
0
0.09573657
0.09534134
0.09545699
0.09616167
0.09755913
0
0
0
0
0
0
0.09446191
0.09406558
0.09415225
0.09479172
0.09607319
0
0
0
0
0
0
0
0.09323745
0.09284704
0.09291617
0.09350762
0.0947011
0
0
0
0
0
0
0
0
0.09195468
0.09157359
0.09163072
0.09218301
0.09330178
0
0
0
0
0
0
0
0
0
0.09056075
0.09019018
0.09023696
0.09075284
0.09180187
0
0
0
0
0
0
0
0
0
0
0.08912655
0.08876855
0.08880853
0.08929339
0.09028087
0
0
0
0
0
0
0
0
0
0
0
0.08771974
0.08737655
0.08741358
0.08787384
0.08880953
0
0
0
0
0
0
0
0
0
0
0
0
0.08637615
0.08605016
0.0860879
0.0865294
0.08742248
0
0
0
0
0
0
0
0
0
0
0
0
0
0.08510702
0.08479968
0.08484163
0.08526948
0.08612767
0
0
0
0
0
0
0
0
0
0
0
0
0
0
0.08390628
0.08361898
0.08366757
0.0840864
0.08491616
0
0
0
0
0
0
0
0
0
0
0
0
0
0
0
0.08275304
0.08248696
0.08254437
0.08295749
0.08376434
0
0
0
0
0
0
0
0
0
0
0
0
0
0
0
0
0.08160964
0.08136549
0.08143353
0.08184354
0.08263119
0
0
0
0
0
0
0
0
0
0
0
0
0
0
0
0
0
0.08042319
0.0802014
0.08028094
0.08068954
0.08146009
0
0
0
0
0
0
0
0
0
0
0
0
0
0
0
0
0
0
0.07915154
0.07895234
0.07904321
0.07945048
0.08020456
0
0
0
0
0
0
0
0
0
0
0.07783666
0.07765887
0.07776121
0.07816745
0.07890639
0
0
0
0
0
0
0
0
0
0
0.07654735
0.07639062
0.07650375
0.07691023
0.07763617
0
0
0
0
0
0
0
0
0
0
0.07533297
0.07519623
0.07532063
0.07572784
0.0764436
0
0
0
0
0
0
0
0
0
0
0.07421865
0.07410029
0.07423572
0.07464511
0.07535229
0
0
0
0
0
0
0
0
0
0
0.09699811
0.09661142
0.09676717
0.09755584
0.09909773
0
0
0
0
0
0.09544884
0.09504677
0.09515106
0.09583852
0.09721077
0
0
0
0
0
0
0.09410594
0.09370209
0.09377587
0.09439559
0.09564829
0
0
0
0
0
0
0
0.09289647
0.09249931
0.09255643
0.09312923
0.09429542
0
0
0
0
0
0
0
0
0.09172723
0.09134142
0.09138991
0.09192858
0.09302734
0
0
0
0
0
0
0
0
0
0.090496
0.09012374
0.09016714
0.09067751
0.09171824
0
0
0
0
0
0
0
0
0
0
0.08915439
0.08879605
0.08883516
0.08931852
0.0903037
0
0
0
0
0
0
0
0
0
0
0
0.08777066
0.08742753
0.08746459
0.0879248
0.08886033
0
0
0
0
0
0
0
0
0
0
0
0
0.08640969
0.08608379
0.08612169
0.08656339
0.08745673
0
0
0
0
0
0
0
0
0
0
0
0
0
0.08510702
0.08479968
0.08484163
0.08526948
0.08612767
0
0
0
0
0
0
0
0
0
0
0
0
0
0
0.08387378
0.08358626
0.08363456
0.08405304
0.08488237
0
0
0
0
0
0
0
0
0
0
0
0
0
0
0
0.08270449
0.08243779
0.08249459
0.08290702
0.08371319
0
0
0
0
0
0
0
0
0
0
0
0
0
0
0
0
0.08157939
0.08133408
0.08140117
0.08181047
0.08259764
0
0
0
0
0
0
0
0
0
0
0
0
0
0
0
0
0
0.08046208
0.08023853
0.08031704
0.08072546
0.08149679
0
0
0
0
0
0
0
0
0
0
0
0
0
0
0
0
0
0
0.07930072
0.07909955
0.07918997
0.0795985
0.08035588
0
0
0
0
0
0
0
0
0
0
0
0
0
0
0
0
0
0
0
0.07805518
0.07787564
0.07797799
0.07838627
0.07912958
0
0
0
0
0
0
0
0
0
0
0.07676522
0.07660711
0.07672042
0.07712883
0.07785869
0
0
0
0
0
0
0
0
0
0
0.07549889
0.07536119
0.07548575
0.07589433
0.07661283
0
0
0
0
0
0
0
0
0
0
0.07430522
0.07418649
0.07432207
0.07473223
0.07544086
0
0
0
0
0
0
0
0
0
0
0.07320971
0.07310795
0.07325384
0.07366629
0.0743676
0
0
0
0
0
0
0
0
0
0
0.09529464
0.094889
0.09498741
0.09566597
0.09702527
0
0
0
0
0
0
0.09383397
0.0934249
0.09348965
0.09409546
0.09532788
0
0
0
0
0
0
0
0.0925594
0.09215656
0.09220338
0.09276009
0.09390275
0
0
0
0
0
0
0
0
0.09140464
0.09101383
0.09105278
0.09157624
0.09265259
0
0
0
0
0
0
0
0
0
0.09028224
0.08990661
0.08994329
0.09044272
0.09146713
0
0
0
0
0
0
0
0
0
0
0.08909545
0.08873622
0.08877291
0.08925206
0.09023075
0
0
0
0
0
0
0
0
0
0
0
0.08779975
0.08745666
0.08749334
0.08795262
0.08888658
0
0
0
0
0
0
0
0
0
0
0
0
0.08646025
0.08613455
0.08617268
0.08661459
0.08750806
0
0
0
0
0
0
0
0
0
0
0
0
0
0.08514006
0.0848329
0.08487506
0.0853032
0.08616175
0
0
0
0
0
0
0
0
0
0
0
0
0
0
0.08387378
0.08358626
0.08363456
0.08405304
0.08488237
0
0
0
0
0
0
0
0
0
0
0
0
0
0
0
0.08267257
0.0824056
0.08246206
0.08287408
0.08367977
0
0
0
0
0
0
0
0
0
0
0
0
0
0
0
0
0.08153174
0.08128571
0.08135206
0.08176059
0.08254692
0
0
0
0
0
0
0
0
0
0
0
0
0
0
0
0
0
0.08043233
0.0802075
0.08028487
0.08069237
0.08146303
0
0
0
0
0
0
0
0
0
0
0
0
0
0
0
0
0
0
0.07933863
0.07913554
0.07922468
0.0796327
0.08039047
0
0
0
0
0
0
0
0
0
0
0
0
0
0
0
0
0
0
0
0.07820094
0.07801925
0.07812084
0.07852996
0.07927595
0
0
0
0
0
0
0
0
0
0
0
0
0
0
0
0
0
0
0
0
0.07697912
0.07681908
0.07693216
0.0773422
0.07807588
0
0
0
0
0
0
0
0
0
0
0.07571247
0.07557325
0.07569779
0.076108
0.07683
0
0
0
0
0
0
0
0
0
0
0.07446801
0.07434828
0.07448387
0.07489521
0.07560634
0
0
0
0
0
0
0
0
0
0
0.07329461
0.07319244
0.07333844
0.07375156
0.0744542
0
0
0
0
0
0
0
0
0
0
0.07221713
0.07213106
0.07228634
0.07270145
0.07339731
0
0
0
0
0
0
0
0
0
0
0.09368805
0.09327623
0.09333626
0.09393484
0.09515678
0
0
0
0
0
0
0
0.09230113
0.09189432
0.09193387
0.09247918
0.09360515
0
0
0
0
0
0
0
0
0.09108407
0.090689
0.09071966
0.09122984
0.09228663
0
0
0
0
0
0
0
0
0
0.08997574
0.08959644
0.08962549
0.0901124
0.09111813
0
0
0
0
0
0
0
0
0
0
0.08889344
0.08853203
0.08856347
0.08903375
0.08999902
0
0
0
0
0
0
0
0
0
0
0.0877456
0.08740225
0.08743737
0.08789346
0.0888223
0
0
0
0
0
0
0
0
0
0
0
0
0.08649021
0.08616481
0.08620294
0.08664443
0.08753691
0
0
0
0
0
0
0
0
0
0
0
0
0
0.08519006
0.08488329
0.08492581
0.08535435
0.08621327
0
0
0
0
0
0
0
0
0
0
0
0
0
0
0.08390628
0.08361898
0.08366757
0.0840864
0.08491616
0
0
0
0
0
0
0
0
0
0
0
0
0
0
0
0.08267257
0.0824056
0.08246206
0.08287408
0.08367977
0
0
0
0
0
0
0
0
0
0
0
0
0
0
0
0
0.08150045
0.08125409
0.08132005
0.08172814
0.08251393
0
0
0
0
0
0
0
0
0
0
0
0
0
0
0
0
0
0.08038565
0.08016002
0.08023656
0.08064318
0.08141293
0
0
0
0
0
0
0
0
0
0
0
0
0
0
0
0
0
0
0.07930955
0.07910505
0.07919294
0.07959986
0.08035674
0
0
0
0
0
0
0
0
0
0
0
0
0
0
0
0
0
0
0
0.07823815
0.0780544
0.07815453
0.07856288
0.07930891
0
0
0
0
0
0
0
0
0
0
0
0
0
0
0
0
0
0
0
0
0.07712192
0.07695954
0.07707161
0.07748213
0.078218
0
0
0
0
0
0
0
0
0
0
0
0
0
0
0
0
0
0
0
0
0.07592223
0.0757809
0.07590495
0.07631649
0.07704182
0
0
0
0
0
0
0
0
0
0
0.07467762
0.0745563
0.07469166
0.07510437
0.07581865
0
0
0
0
0
0
0
0
0
0
0.07345454
0.07335127
0.0734972
0.07391132
0.07461621
0
0
0
0
0
0
0
0
0
0
0.07230048
0.07221397
0.0723693
0.07278501
0.07348209
0
0
0
0
0
0
0
0
0
0
0.07124251
0.07116905
0.07133314
0.0717502
0.07244063
0
0
0
0
0
0
0
0
0
0
0.09216244
0.09175351
0.09178922
0.09232857
0.09344586
0
0
0
0
0
0
0
0
0.09083781
0.09043975
0.09046451
0.09096522
0.09200805
0
0
0
0
0
0
0
0
0
0.08966972
0.08928725
0.08930958
0.08978542
0.09077468
0
0
0
0
0
0
0
0
0
0
0.08860102
0.08823708
0.08826237
0.08872224
0.08967179
0
0
0
0
0
0
0
0
0
0
0.08755374
0.08720914
0.08724029
0.08768913
0.08860681
0
0
0
0
0
0
0
0
0
0
0.0864401
0.08611488
0.0861521
0.0865913
0.08747975
0
0
0
0
0
0
0
0
0
0
0
0
0
0.0852205
0.08491431
0.0849571
0.0853856
0.08624404
0
0
0
0
0
0
0
0
0
0
0
0
0
0
0.08395563
0.08366881
0.08371793
0.08413728
0.08496761
0
0
0
0
0
0
0
0
0
0
0
0
0
0
0
0.08270449
0.0824378
0.08249459
0.08290702
0.08371319
0
0
0
0
0
0
0
0
0
0
0
0
0
0
0
0
0.08150045
0.08125409
0.08132005
0.08172814
0.08251393
0
0
0
0
0
0
0
0
0
0
0
0
0
0
0
0
0
0.08035502
0.08012902
0.08020512
0.08061125
0.08138043
0
0
0
0
0
0
0
0
0
0
0
0
0
0
0
0
0
0
0.07926391
0.07905856
0.07914553
0.07955147
0.08030733
0
0
0
0
0
0
0
0
0
0
0
0
0
0
0
0
0
0
0
0.07820985
0.07802462
0.07812337
0.07853049
0.07927545
0
0
0
0
0
0
0
0
0
0
0
0
0
0
0
0
0
0
0
0
0.07715867
0.07699412
0.07710458
0.07751412
0.07824974
0
0
0
0
0
0
0
0
0
0
0
0
0
0
0
0
0
0
0
0
0.07606246
0.07591863
0.07604145
0.07645317
0.07718026
0
0
0
0
0
0
0
0
0
0
0
0
0
0
0
0
0
0
0
0
0.07488358
0.07476007
0.07489472
0.07530844
0.07602566
0
0
0
0
0
0
0
0
0
0
0.07366056
0.07355555
0.07370114
0.07411637
0.07482408
0
0
0
0
0
0
0
0
0
0
0.07245775
0.0723701
0.07252522
0.07294181
0.07364092
0
0
0
0
0
0
0
0
0
0
0.07132443
0.07125049
0.07141459
0.07183217
0.07252373
0
0
0
0
0
0
0
0
0
0
0.07028497
0.07022357
0.07039376
0.07081253
0.0714972
0
0
0
0
0
0
0
0
0
0
0.09070551
0.0903058
0.09032742
0.09082314
0.09185867
0
0
0
0
0
0
0
0
0
0.0894341
0.08904939
0.08906691
0.0895348
0.09051222
0
0
0
0
0
0
0
0
0
0
0.08830791
0.08794167
0.08796148
0.08841203
0.08934754
0
0
0
0
0
0
0
0
0
0
0.08727372
0.08692752
0.0869538
0.08739388
0.08829816
0
0
0
0
0
0
0
0
0
0
0.08625709
0.08593132
0.08596562
0.08639897
0.08727803
0
0
0
0
0
0
0
0
0
0
0.08517369
0.08486813
0.08491048
0.0853374
0.08619277
0
0
0
0
0
0
0
0
0
0
0
0
0
0
0.08398628
0.08370023
0.08374991
0.08416947
0.08499972
0
0
0
0
0
0
0
0
0
0
0
0
0
0
0
0.08275304
0.08248696
0.08254438
0.08295749
0.08376434
0
0
0
0
0
0
0
0
0
0
0
0
0
0
0
0
0.08153174
0.08128571
0.08135206
0.08176059
0.08254692
0
0
0
0
0
0
0
0
0
0
0
0
0
0
0
0
0
0.08035502
0.08012902
0.08020512
0.08061125
0.08138043
0
0
0
0
0
0
0
0
0
0
0
0
0
0
0
0
0
0
0.07923395
0.0790282
0.07911471
0.07952011
0.08027536
0
0
0
0
0
0
0
0
0
0
0
0
0
0
0
0
0
0
0
0.0781653
0.07797916
0.07807694
0.07848302
0.07922687
0
0
0
0
0
0
0
0
0
0
0
0
0
0
0
0
0
0
0
0
0.07713128
0.07696517
0.07707417
0.07748236
0.07821677
0
0
0
0
0
0
0
0
0
0
0
0
0
0
0
0
0
0
0
0
0.07609901
0.07595288
0.07607396
0.07648452
0.07721113
0
0
0
0
0
0
0
0
0
0
0
0
0
0
0
0
0
0
0
0
0.07502156
0.07489546
0.07502867
0.0754423
0.07616093
0
0
0
0
0
0
0
0
0
0
0
0
0
0
0
0
0
0
0
0
0.07386314
0.07375578
0.07390052
0.07431647
0.07502674
0
0
0
0
0
0
0
0
0
0
0.07266043
0.072571
0.07272559
0.07314313
0.07384473
0
0
0
0
0
0
0
0
0
0
0.07147927
0.07140411
0.07156793
0.07198622
0.07267963
0
0
0
0
0
0
0
0
0
0
0.07036554
0.07030365