/*--------------------------------*- C++ -*----------------------------------*\
| =========                 |                                                 |
| \\      /  F ield         | OpenFOAM: The Open Source CFD Toolbox           |
|  \\    /   O peration     | Version:  2306                                  |
|   \\  /    A nd           | Website:  www.openfoam.com                      |
|    \\/     M anipulation  |                                                 |
\*---------------------------------------------------------------------------*/
FoamFile
{
    version     2.0;
    format      ascii;
    arch        "LSB;label=32;scalar=64";
    class       volScalarField;
    location    "1.2/fuel";
    object      H2;
}
// * * * * * * * * * * * * * * * * * * * * * * * * * * * * * * * * * * * * * //

dimensions      [0 0 0 0 0 0 0];

internalField   nonuniform List<scalar> 
16000
(
0.5990988
0.6038531
0.5291351
0.5993664
0.6135138
0.5321429
0.6041266
0.4651034
0.5293344
0.5998914
0.6281784
0.5382141
0.6137998
0.4672911
0.5323453
0.604663
0.4137885
0.4652524
0.5297258
0.6006669
0.6473044
0.5473346
0.6284852
0.4716968
0.5384229
0.6143606
0.4154854
0.4674419
0.5327426
0.6054554
0.3725076
0.4139038
0.4655451
0.5303044
0.60169
0.6680583
0.5590766
0.6476427
0.4782929
0.5475537
0.6290866
0.4188962
0.4718514
0.5388326
0.615189
0.3738697
0.415602
0.4677383
0.53333
0.6065008
0.3386763
0.3725996
0.4141305
0.4659782
0.5310679
0.6027063
0.6839198
0.5716672
0.6684378
0.4867463
0.5593109
0.648306
0.4239881
0.4784538
0.5479836
0.6299748
0.3766031
0.4190153
0.4721554
0.5394384
0.6162819
0.3397959
0.3739625
0.4158312
0.4681767
0.5341051
0.6075391
0.310446
0.3387515
0.3727806
0.4144661
0.4665498
0.5318262
0.6035489
0.6941119
0.5812904
0.6843249
0.495764
0.5719207
0.6691819
0.4304885
0.4869164
0.5597707
0.6492858
0.3806742
0.4241113
0.4787699
0.5486191
0.6311466
0.34204
0.3766978
0.4192495
0.4726049
0.5402377
0.6173674
0.3113836
0.3398718
0.3741453
0.4161703
0.4687553
0.5348748
0.6084001
0.2865229
0.3105086
0.3388995
0.3730487
0.4149092
0.4671175
0.5324547
0.6043869
0.6999368
0.5875306
0.694531
0.5026289
0.5815546
0.685119
0.4373931
0.4959459
0.5724187
0.6702815
0.3858557
0.430618
0.4872508
0.5604506
0.6505786
0.3453761
0.3807719
0.4243537
0.4792375
0.5494576
0.6323106
0.313261
0.3421172
0.3768841
0.4195962
0.4731982
0.5410315
0.6182681
0.2873202
0.3114468
0.3400211
0.3744159
0.4166181
0.46933
0.5355128
0.6092566
0.2659826
0.286576
0.3106321
0.3391188
0.3734027
0.4153494
0.4675878
0.5330795
0.6052204
0.7025607
0.5911442
0.7003637
0.5070744
0.5877999
0.6953525
0.4426312
0.5028166
0.5820732
0.6862923
0.3913404
0.4375306
0.4963035
0.5731551
0.6717333
0.3496117
0.3859578
0.4308727
0.4877453
0.5613477
0.6518632
0.3160478
0.3454555
0.380964
0.4247124
0.4798546
0.5502904
0.6332783
0.2889151
0.3133252
0.3422691
0.37716
0.4200538
0.4737875
0.5416897
0.6191644
0.2666692
0.2873736
0.3115712
0.3402423
0.3747733
0.4170629
0.4698061
0.5361472
0.6101084
0.248149
0.2660281
0.2866805
0.310815
0.3394086
0.3737544
0.4157138
0.4680552
0.5337006
0.6060493
0.7025607
0.5927899
0.702991
0.5096499
0.5914159
0.7012
0.4460171
0.5072645
0.5883284
0.696566
0.3954899
0.4427723
0.5031856
0.5828402
0.6878412
0.354083
0.3914484
0.4378012
0.4968326
0.5741274
0.6731768
0.319579
0.3496944
0.3861588
0.4312497
0.4883981
0.5622389
0.6529368
0.2912797
0.3161137
0.3456118
0.3812485
0.425186
0.4804675
0.550982
0.6342432
0.2680416
0.2889693
0.3134516
0.3424942
0.3775243
0.4205084
0.4742759
0.5423444
0.6200565
0.2487466
0.266715
0.2874789
0.3117556
0.3405345
0.3751283
0.4174313
0.4702793
0.5367778
0.6109556
0.232516
0.2481885
0.2661179
0.2868355
0.3110567
0.3396964
0.3740456
0.416076
0.4685197
0.5343181
0.6100586
0.6999368
0.5927899
0.702991
0.510824
0.5930627
0.7038339
0.4479776
0.5098411
0.5919493
0.7024352
0.398168
0.4461596
0.5076381
0.5891098
0.6981678
0.3574582
0.3956003
0.44305
0.5037315
0.5838527
0.6893815
0.3232984
0.3541702
0.3916609
0.4382018
0.4975314
0.5750936
0.6743945
0.2942709
0.3196474
0.3498574
0.3864564
0.4317474
0.4890466
0.5629823
0.6540131
0.2700742
0.2913352
0.3162434
0.3458433
0.3816242
0.4256564
0.4809762
0.551671
0.6352053
0.2499405
0.268088
0.2890762
0.313639
0.3427916
0.3778863
0.420885
0.4747616
0.5429956
0.6209441
0.233041
0.2487863
0.2668053
0.287635
0.3119992
0.3408248
0.3754223
0.4177974
0.4707496
0.5374047
0.6150539
0.2186973
0.2325505
0.2482664
0.266251
0.2870404
0.311297
0.3399348
0.3743349
0.4164358
0.4689812
0.5373035
0.6128149
0.6941119
0.5911442
0.7003637
0.510824
0.5930627
0.7038339
0.4488714
0.5110157
0.5935982
0.7050789
0.3997177
0.4481206
0.5102168
0.5927379
0.7040654
0.3596336
0.3982792
0.4464398
0.508191
0.5901413
0.6997605
0.326101
0.3575471
0.3958177
0.4434611
0.5044525
0.5848589
0.6906811
0.2974159
0.3233703
0.3543418
0.3919757
0.4387309
0.4982258
0.575906
0.6756268
0.272642
0.2943285
0.3197823
0.3500987
0.3868495
0.4322419
0.4895872
0.5637262
0.6550921
0.2517071
0.2701217
0.2914447
0.3164357
0.3461491
0.3819974
0.4260467
0.4814829
0.5523574
0.6361645
0.2340892
0.2499807
0.2681796
0.2892347
0.3138865
0.343087
0.3781861
0.4212594
0.4752444
0.5436432
0.6252405
0.2191622
0.2330757
0.2488647
0.2669393
0.2878414
0.3122412
0.3410652
0.3757143
0.4181611
0.471217
0.5404363
0.6178845
0.2063929
0.2187278
0.2326188
0.2483819
0.266427
0.287244
0.3114958
0.3401715
0.3746222
0.4167932
0.4712122
0.5393494
0.6149034
0.6839198
0.5875306
0.694531
0.5096499
0.5914159
0.7012
0.4488714
0.5110157
0.5935982
0.7050789
0.400424
0.4490146
0.5113922
0.5943899
0.7067219
0.3608916
0.3998291
0.4484017
0.5107726
0.5937787
0.7056863
0.3279053
0.359723
0.398498
0.4468546
0.5089209
0.5911663
0.7011017
0.299782
0.3261742
0.3577222
0.3961396
0.4440042
0.5051688
0.5857051
0.6919964
0.2753377
0.2974763
0.3235121
0.3545962
0.3923916
0.4392567
0.4988092
0.5767256
0.6768738
0.2539362
0.2726912
0.2944421
0.3199822
0.3504176
0.3872401
0.432654
0.4901279
0.5644706
0.6561738
0.2356393
0.2517482
0.2702154
0.291607
0.3166897
0.3464529
0.3823071
0.4264354
0.4819874
0.553041
0.6408162
0.2200902
0.2341245
0.2500601
0.2683155
0.2894441
0.3141325
0.3433317
0.3784841
0.4216316
0.4757244
0.5467761
0.6282583
0.2068075
0.2191929
0.2331444
0.248981
0.2671165
0.2880465
0.3124416
0.3413039
0.3760044
0.4185224
0.4734762
0.5425212
0.6200397
0.195366
0.2064201
0.2187881
0.2327201
0.2485347
0.2666019
0.2874126
0.3116932
0.3404065
0.3749076
0.4185206
0.4727376
0.5408965
0.6163066
0.6680583
0.5812904
0.6843249
0.5070744
0.5877999
0.6953525
0.4479776
0.5098411
0.5919493
0.7024352
0.400424
0.4490146
0.5113922
0.5943899
0.7067219
0.3614649
0.4005355
0.4492961
0.5119492
0.5954347
0.7083554
0.3289481
0.3609811
0.4000483
0.4488179
0.5115064
0.5948129
0.7070491
0.3013039
0.3279787
0.3598989
0.398822
0.4474025
0.5096461
0.5920268
0.7024564
0.2773631
0.2998434
0.3263184
0.3579816
0.3965649
0.4445437
0.505771
0.586559
0.6933278
0.2562733
0.2753891
0.2975955
0.3237222
0.3549325
0.392805
0.4396984
0.4993975
0.5775523
0.678136
0.2375931
0.2539787
0.2727882
0.2946106
0.3202464
0.3507345
0.3875655
0.4330661
0.4906687
0.5652154
0.661448
0.2214614
0.2356752
0.2518293
0.2703544
0.2918216
0.3169421
0.3467049
0.3826153
0.4268222
0.4824897
0.5563535
0.6442675
0.2076348
0.2201212
0.234194
0.2501779
0.2684951
0.2896523
0.3143362
0.3435749
0.3787803
0.4220014
0.4780458
0.5489598
0.6306001
0.1957381
0.2068349
0.2192536
0.2332463
0.2491347
0.2672925
0.2882162
0.3126407
0.3415411
0.3762926
0.4202688
0.4750261
0.5441039
0.6214946
0.1854271
0.1953903
0.2064737
0.2188777
0.2328541
0.2486867
0.2667466
0.2875799
0.3118893
0.34064
0.3762866
0.4196997
0.4738898
0.5419344
0.6170117
0.6473044
0.5716672
0.6684378
0.5026289
0.5815546
0.685119
0.4460171
0.5072645
0.5883284
0.696566
0.3997177
0.4481206
0.5102168
0.5927379
0.7040654
0.3614649
0.4005355
0.4492961
0.5119492
0.5954347
0.7083554
0.3294232
0.3615544
0.4007549
0.4497128
0.5126846
0.5964729
0.7097279
0.302183
0.3290216
0.3611572
0.400373
0.4493676
0.5122354
0.59568
0.7084237
0.2786648
0.3013654
0.3281235
0.3601597
0.3992501
0.4479468
0.5102547
0.5928936
0.7038248
0.2580274
0.2774153
0.2999644
0.3265323
0.3583245
0.3969875
0.4449971
0.5063781
0.5874204
0.6946752
0.2396394
0.2563177
0.2754907
0.2977721
0.324
0.3552666
0.3931522
0.4401436
0.4999905
0.5783863
0.6843496
0.2231883
0.2376302
0.2540626
0.2729322
0.2948332
0.320509
0.3509985
0.3878909
0.4334781
0.4912095
0.5688405
0.6659585
0.2088566
0.221493
0.2357461
0.2519497
0.2705381
0.2920348
0.3171515
0.3469558
0.3829221
0.4272074
0.4849225
0.5587683
0.6471206
0.1964803
0.2076625
0.2201826
0.2342971
0.2503337
0.2686736
0.2898246
0.3145386
0.3438165
0.3790746
0.4237898
0.4796592
0.550643
0.6322104
0.1857629
0.1957625
0.2068888
0.2193436
0.233381
0.2492876
0.2674382
0.2883848
0.3128383
0.3417766
0.3776851
0.4214648
0.4762012
0.5451696
0.622228
0.1764228
0.185449
0.1954384
0.2065534
0.2189961
0.2329873
0.2488124
0.2668903
0.2877461
0.312084
0.3417678
0.3772268
0.4205896
0.4746621
0.5424554
0.6281784
0.5590766
0.6476427
0.495764
0.5719207
0.6691819
0.4426312
0.5028166
0.5820732
0.6862923
0.398168
0.4461596
0.5076381
0.5891098
0.6981678
0.3608916
0.3998291
0.4484017
0.5107726
0.5937787
0.7056863
0.3294232
0.3615544
0.4007549
0.4497128
0.5126846
0.5964729
0.7097279
0.3025835
0.3294966
0.3617305
0.4010798
0.4502631
0.5134152
0.5973428
0.7111111
0.2794164
0.3022446
0.3291664
0.3614182
0.4008019
0.4499137
0.5128463
0.5965522
0.70981
0.259154
0.2787171
0.3014868
0.3283382
0.3605042
0.3996755
0.4484034
0.5108672
0.5937665
0.7052071
0.2411737
0.2580724
0.2775184
0.3001439
0.326815
0.3586653
0.3973426
0.4454543
0.5069904
0.5882896
0.7013086
0.2249951
0.2396781
0.2564054
0.2756414
0.2980057
0.3242762
0.3555473
0.3935021
0.4405924
0.5005885
0.5824799
0.6909994
0.2103941
0.223221
0.2377035
0.2541871
0.2731225
0.2950545
0.3207277
0.3512624
0.3882162
0.4338901
0.4938408
0.571826
0.6703489
0.1975758
0.2088847
0.2215556
0.2358514
0.2521088
0.2707207
0.2922117
0.3173599
0.3472054
0.3832274
0.4290722
0.486689
0.5607311
0.6492193
0.1864324
0.196505
0.207717
0.2202737
0.2344336
0.2504886
0.2688215
0.2899959
0.3147398
0.3440566
0.3804972
0.4250306
0.4809007
0.5517936
0.633034
0.1767273
0.1857849
0.1958109
0.206969
0.2194627
0.233515
0.2494141
0.267583
0.2885522
0.3130346
0.3429145
0.3786377
0.4223709
0.4769917
0.545706
0.1682274
0.1764426
0.1854923
0.1955098
0.2066589
0.2191139
0.2330975
0.2489372
0.267033
0.2879111
0.3130245
0.342536
0.3779359
0.4211858
0.4750496
0.6135138
0.5473346
0.6284852
0.4867463
0.5593109
0.648306
0.4373931
0.4959459
0.5724187
0.6702815
0.3954899
0.4427723
0.5031856
0.5828402
0.6878412
0.3596336
0.3982792
0.4464398
0.508191
0.5901413
0.6997605
0.3289481
0.3609811
0.4000483
0.4488179
0.5115064
0.5948129
0.7070491
0.3025835
0.3294966
0.3617305
0.4010798
0.4502631
0.5134152
0.5973428
0.7111111
0.2797587
0.302645
0.3296415
0.3619916
0.4015089
0.4508098
0.514027
0.5982172
0.7125053
0.2598042
0.2794687
0.3023659
0.3293811
0.361763
0.4012281
0.4503712
0.5134605
0.5974294
0.7112081
0.2421585
0.259199
0.2788203
0.3016667
0.3286219
0.3608466
0.4000323
0.448863
0.5114839
0.5946457
0.7119979
0.2263488
0.2412129
0.2581613
0.2776713
0.3003813
0.327096
0.3589516
0.3977006
0.4459151
0.5076077
0.5925554
0.7083025
0.2120013
0.2250291
0.2397545
0.2565355
0.2758407
0.298238
0.3245081
0.3558301
0.3938548
0.4410448
0.5035217
0.5866139
0.6993785
0.1989535
0.2104231
0.2232855
0.2378122
0.2543517
0.2733117
0.2952389
0.3209464
0.3515262
0.3885414
0.435894
0.4959952
0.5746345
0.6742736
0.1874203
0.1976009
0.2089403
0.2216485
0.2359906
0.252267
0.2708722
0.2923877
0.3175672
0.3474538
0.3847057
0.4304238
0.4881208
0.5621522
0.6503607
0.1773344
0.1864547
0.1965538
0.207798
0.2203942
0.2345692
0.2506168
0.2689683
0.290166
0.3149396
0.3452171
0.3814831
0.4259845
0.4817481
0.5523796
0.1685049
0.1767473
0.1858284
0.1958827
0.207075
0.2195811
0.2336259
0.2495397
0.2677266
0.2887185
0.3139829
0.3436921
0.3793589
0.4229801
0.4773893
0.1607372
0.1682455
0.1764818
0.1855566
0.1956043
0.2067638
0.2192113
0.2332069
0.2490611
0.2671747
0.288708
0.3136647
0.3431152
0.3784108
0.4214848
0.6038531
0.5382141
0.6137998
0.4782929
0.5475537
0.6290866
0.4304885
0.4869164
0.5597707
0.6492858
0.3913404
0.4375306
0.4963035
0.5731551
0.6717333
0.3574582
0.3956003
0.44305
0.5037315
0.5838527
0.6893815
0.3279053
0.359723
0.398498
0.4468546
0.5089209
0.5911663
0.7011017
0.302183
0.3290216
0.3611572
0.400373
0.4493676
0.5122354
0.59568
0.7084237
0.2797587
0.302645
0.3296415
0.3619916
0.4015089
0.4508098
0.514027
0.5982172
0.7125053
0.2601003
0.2798109
0.3027662
0.3298561
0.3623364
0.4019353
0.4512675
0.5146417
0.5990962
0.7139103
0.2427267
0.2598492
0.2795718
0.3025457
0.3296648
0.3621057
0.401585
0.450831
0.514078
0.5983118
0.7180669
0.2272171
0.2421977
0.2592879
0.2789735
0.3019046
0.3289038
0.3611337
0.4003913
0.4493255
0.5121047
0.5989533
0.7188242
0.2132046
0.2263832
0.2412903
0.2582932
0.2778735
0.3006172
0.3273321
0.3592401
0.3980614
0.4463796
0.5106363
0.5968136
0.7167782
0.2003926
0.2120315
0.2250964
0.2398681
0.2567077
0.2760389
0.298433
0.3247418
0.3561152
0.3942102
0.4432634
0.5064637
0.5915977
0.7102457
0.1886619
0.1989794
0.2104804
0.2233813
0.2379561
0.2545153
0.2734692
0.2954231
0.3211649
0.3517899
0.3901229
0.4375318
0.4980128
0.5770691
0.6769902
0.1782297
0.1874429
0.1976506
0.2090228
0.2217713
0.2361291
0.2523982
0.2710229
0.2925628
0.3177735
0.3486564
0.3857759
0.4315183
0.489155
0.5629157
0.1690578
0.1773545
0.1864987
0.1966264
0.2079053
0.220514
0.2346815
0.2507441
0.2691142
0.290335
0.3159052
0.3460205
0.3822406
0.4266353
0.4821794
0.160991
0.168523
0.1767867
0.1858931
0.1959777
0.2071804
0.2196791
0.233736
0.2496644
0.2678693
0.2895215
0.3146305
0.3442807
0.3798436
0.4232864
0.1538654
0.1607537
0.1682812
0.1765401
0.1856418
0.1956983
0.2068506
0.2193081
0.2333156
0.2491841
0.2678589
0.2892501
0.3141472
0.343503
0.378649
0.5990988
0.5321429
0.6041266
0.4716968
0.5384229
0.6143606
0.4239881
0.4784538
0.5479836
0.6299748
0.3858557
0.430618
0.4872508
0.5604506
0.6505786
0.354083
0.3914484
0.4378012
0.4968326
0.5741274
0.6731768
0.326101
0.3575471
0.3958177
0.4434611
0.5044525
0.5848589
0.6906811
0.3013039
0.3279787
0.3598989
0.398822
0.4474025
0.5096461
0.5920268
0.7024564
0.2794164
0.3022446
0.3291664
0.3614182
0.4008019
0.4499137
0.5128463
0.5965522
0.70981
0.2601003
0.2798109
0.3027662
0.3298561
0.3623364
0.4019353
0.4512675
0.5146417
0.5990962
0.7139103
0.2429854
0.2601452
0.279914
0.302946
0.3301398
0.3626792
0.4022922
0.4517273
0.5152594
0.5999798
0.720798
0.227718
0.2427658
0.259938
0.2797248
0.3027835
0.3299468
0.3623927
0.4019437
0.4512931
0.5146987
0.6026291
0.7247314
0.2139761
0.2272516
0.2422751
0.2594199
0.279176
0.3021411
0.3291403
0.3614226
0.4007525
0.449791
0.5151445
0.6030707
0.7267308
0.2014693
0.2132351
0.2264513
0.2414052
0.2584676
0.2780745
0.3008154
0.3275699
0.3595309
0.398425
0.4486581
0.5136431
0.6017647
0.7269044
0.1899579
0.2004195
0.2120912
0.2251964
0.2400183
0.2568788
0.2762053
0.2986295
0.3249773
0.3564024
0.3959532
0.445486
0.5099914
0.5978333
0.7250819
0.1793543
0.1886852
0.1990306
0.2105654
0.2235081
0.2380991
0.2546516
0.2736267
0.2956073
0.3213833
0.3530722
0.3914143
0.4390642
0.4997547
0.5787112
0.1698729
0.1782502
0.1874877
0.1977245
0.2091321
0.2218935
0.2362439
0.2525288
0.2711728
0.292737
0.3187722
0.3495263
0.3866421
0.4323083
0.4897098
0.1614966
0.1690761
0.1773943
0.186564
0.1967224
0.2080119
0.2206132
0.2347931
0.2508707
0.2692591
0.2911518
0.3165733
0.3466375
0.3827571
0.4269663
0.1540984
0.1610075
0.1685589
0.1768452
0.1859787
0.1960721
0.2072677
0.2197765
0.2338453
0.2497883
0.2685584
0.2900695
0.3151204
0.344676
0.3800872
0.1475391
0.1538805
0.1607863
0.1683342
0.1766173
0.1857266
0.1957761
0.2069368
0.2194041
0.2334234
0.2497781
0.2683241
0.2896585
0.3144701
0.3436974
0.5291351
0.5993664
0.4672911
0.5323453
0.604663
0.4188962
0.4718514
0.5388326
0.615189
0.3806742
0.4241113
0.4787699
0.5486191
0.6311466
0.3496117
0.3859578
0.4308727
0.4877453
0.5613477
0.6518632
0.3232984
0.3541702
0.3916609
0.4382018
0.4975314
0.5750936
0.6743945
0.299782
0.3261742
0.3577222
0.3961396
0.4440042
0.5051688
0.5857051
0.6919964
0.2786648
0.3013654
0.3281235
0.3601597
0.3992501
0.4479468
0.5102547
0.5928936
0.7038248
0.2598042
0.2794687
0.3023659
0.3293811
0.361763
0.4012281
0.4503712
0.5134605
0.5974294
0.7112081
0.2429854
0.2601452
0.279914
0.302946
0.3301398
0.3626792
0.4022922
0.4517273
0.5152594
0.5999798
0.720798
0.227946
0.2430245
0.260234
0.2800669
0.3031837
0.3304217
0.362966
0.4026507
0.4521891
0.5158799
0.6043001
0.7273857
0.2144211
0.2277524
0.2428432
0.2600698
0.2799272
0.3030199
0.3301829
0.3626811
0.4023042
0.4517576
0.5177345
0.6066299
0.7322365
0.2021594
0.2140066
0.2273196
0.2423901
0.2595945
0.2793773
0.3023394
0.3293781
0.3617133
0.401116
0.4520698
0.5180379
0.6076516
0.7357277
0.1909271
0.2014965
0.2132954
0.2265523
0.2415573
0.258641
0.2782434
0.3010151
0.3278097
0.359824
0.4002085
0.4509185
0.5171252
0.6074802
0.7388196
0.1805276
0.1899821
0.2004728
0.2121798
0.2253286
0.2401677
0.2570226
0.276373
0.2988275
0.3252146
0.3578108
0.3976988
0.4481485
0.5143817
0.6061022
0.7499594
0.1708963
0.1793754
0.1887312
0.1991066
0.210678
0.2236342
0.2382182
0.2547879
0.2737841
0.2957913
0.3224454
0.3541187
0.3926222
0.4403859
0.5009259
0.1622418
0.1698915
0.1782906
0.1875541
0.1978223
0.2092407
0.2219948
0.2363581
0.2526586
0.2713219
0.2935802
0.319494
0.3502301
0.3872671
0.4327319
0.1545625
0.1615133
0.1691123
0.1774535
0.1866505
0.1968179
0.2081002
0.2207117
0.2349039
0.2509963
0.2699593
0.2917165
0.3170862
0.3470582
0.3830198
0.1477537
0.1541135
0.1610403
0.1686121
0.1769228
0.1860639
0.1961503
0.2073543
0.2198731
0.2339538
0.2503863
0.2690285
0.290484
0.3154494
0.3448747
0.1416965
0.147553
0.1539104
0.1608347
0.1684044
0.1766941
0.1857967
0.1958533
0.2070223
0.2194995
0.2339442
0.2501819
0.2686745
0.2899318
0.314632
0.4651034
0.5293344
0.5998914
0.4154854
0.4674419
0.5327426
0.6054554
0.3766031
0.4190153
0.4721554
0.5394384
0.6162819
0.3453761
0.3807719
0.4243537
0.4792375
0.5494576
0.6323106
0.319579
0.3496944
0.3861588
0.4312497
0.4883981
0.5622389
0.6529368
0.2974159
0.3233703
0.3543418
0.3919757
0.4387309
0.4982258
0.575906
0.6756268
0.2773631
0.2998434
0.3263184
0.3579816
0.3965649
0.4445437
0.505771
0.586559
0.6933278
0.259154
0.2787171
0.3014868
0.3283382
0.3605042
0.3996755
0.4484034
0.5108672
0.5937665
0.7052071
0.2427267
0.2598492
0.2795718
0.3025457
0.3296648
0.3621057
0.401585
0.450831
0.514078
0.5983118
0.7180669
0.227946
0.2430245
0.260234
0.2800669
0.3031837
0.3304217
0.362966
0.4026507
0.4521891
0.5158799
0.6043001
0.7273857
0.2146236
0.2279804
0.2431017
0.2603657
0.2802691
0.30342
0.3306577
0.363254
0.4030107
0.452653
0.5189127
0.6082464
0.7347105
0.2025572
0.2144515
0.2278203
0.2429579
0.2602442
0.2801283
0.3032178
0.3304202
0.3629708
0.4026664
0.4540286
0.520538
0.6109603
0.7405751
0.1915479
0.2021866
0.2140669
0.2274207
0.2425422
0.2597681
0.2795461
0.3025389
0.3296174
0.3620057
0.4028954
0.4542375
0.5212476
0.6126845
0.7457777
0.1814045
0.1909515
0.2015503
0.2133851
0.2266861
0.2417085
0.2587867
0.2784135
0.3012163
0.3280513
0.3612612
0.4019775
0.4535345
0.5211291
0.614006
0.7544351
0.1719634
0.1805495
0.19003
0.200552
0.2122972
0.2254601
0.2402931
0.2571674
0.2765419
0.299027
0.326378
0.3592214
0.3997895
0.4514568
0.5201715
0.6196622
0.7636824
0.163177
0.1709154
0.179417
0.1887996
0.1992073
0.21079
0.2237392
0.2383372
0.254924
0.2739414
0.2966862
0.3233118
0.3550974
0.3936639
0.4412743
0.1552463
0.1622587
0.1699283
0.1783508
0.1876421
0.1979195
0.2093308
0.2220956
0.2364717
0.2527878
0.2720438
0.2941894
0.320078
0.3507379
0.3876022
0.1481812
0.1545778
0.1615464
0.1691661
0.1775318
0.1867365
0.196897
0.2081878
0.2208096
0.2350139
0.2516035
0.2704432
0.29215
0.3174358
0.347272
0.1418949
0.1477677
0.1541436
0.1610889
0.1686827
0.1769999
0.1861343
0.196228
0.2074403
0.2199689
0.2344779
0.2507941
0.2693839
0.2907623
0.3156147
0.136285
0.1417094
0.1475805
0.1539548
0.1608989
0.1684743
0.1767576
0.1858663
0.19593
0.2071072
0.2199598
0.234298
0.2504859
0.2689089
0.2900688
0.4137885
0.4652524
0.5297258
0.6006669
0.3738697
0.415602
0.4677383
0.53333
0.6065008
0.34204
0.3766978
0.4192495
0.4726049
0.5402377
0.6173674
0.3160478
0.3454555
0.380964
0.4247124
0.4798546
0.5502904
0.6332783
0.2942709
0.3196474
0.3498574
0.3864564
0.4317474
0.4890466
0.5629823
0.6540131
0.2753377
0.2974763
0.3235121
0.3545962
0.3923916
0.4392567
0.4988092
0.5767256
0.6768738
0.2580274
0.2774153
0.2999644
0.3265323
0.3583245
0.3969875
0.4449971
0.5063781
0.5874204
0.6946752
0.2421585
0.259199
0.2788203
0.3016667
0.3286219
0.3608466
0.4000323
0.448863
0.5114839
0.5946457
0.7119979
0.227718
0.2427658
0.259938
0.2797248
0.3027835
0.3299468
0.3623927
0.4019437
0.4512931
0.5146987
0.6026291
0.7247314
0.2146236
0.2279804
0.2431017
0.2603657
0.2802691
0.30342
0.3306577
0.363254
0.4030107
0.452653
0.5189127
0.6082464
0.7347105
0.2027383
0.214654
0.2280482
0.2432164
0.2605399
0.2804701
0.3036177
0.3308945
0.3635432
0.4033722
0.4549196
0.5216743
0.6124654
0.7427687
0.1919058
0.2025843
0.2145116
0.2279212
0.2431098
0.2604175
0.2802967
0.3034167
0.3306585
0.3632619
0.4044372
0.4561247
0.5235656
0.6156028
0.7497161
0.1819661
0.1915723
0.2022403
0.2141564
0.2275544
0.2426934
0.2599136
0.2797159
0.3027395
0.3298582
0.363437
0.4045879
0.4566415
0.5247637
0.6181284
0.7583971
0.1727606
0.1814265
0.1909998
0.2016303
0.2135037
0.2268192
0.2418355
0.2589335
0.278585
0.3014191
0.3292359
0.3626869
0.4040249
0.4565392
0.5256827
0.6223236
0.7656265
0.1641516
0.1719833
0.1805927
0.1901012
0.2006568
0.2124139
0.2255706
0.2404194
0.2573133
0.2767121
0.3000052
0.3275431
0.3609106
0.4023852
0.4558095
0.5296128
0.6275199
0.7741091
0.1561041
0.1631944
0.1709532
0.1794788
0.1888902
0.1993075
0.2108833
0.2238441
0.2384562
0.2550601
0.2747062
0.297416
0.3241219
0.3559412
0.3943639
0.1488108
0.1552618
0.1622923
0.1699829
0.1784304
0.1877297
0.1980001
0.2094204
0.2221958
0.2365847
0.2534131
0.2725651
0.2946821
0.3204991
0.3510101
0.1422898
0.1481952
0.1546081
0.1615955
0.1692373
0.1776097
0.1868077
0.1969755
0.2082749
0.2209068
0.2355456
0.252023
0.2708146
0.2924453
0.3176135
0.1364688
0.1419077
0.1477953
0.1541882
0.1611534
0.1687529
0.1770637
0.1862043
0.196305
0.2075257
0.2204321
0.2348352
0.2511024
0.2696225
0.2909021
0.1312593
0.1362969
0.1417347
0.1476214
0.1540137
0.1609628
0.1685321
0.1768207
0.1859354
0.196006
0.207517
0.2202724
0.2345644
0.2506893
0.2690264
0.3725076
0.4139038
0.4655451
0.5303044
0.60169
0.3397959
0.3739625
0.4158312
0.4681767
0.5341051
0.6075391
0.313261
0.3421172
0.3768841
0.4195962
0.4731982
0.5410315
0.6182681
0.2912797
0.3161137
0.3456118
0.3812485
0.425186
0.4804675
0.550982
0.6342432
0.272642
0.2943285
0.3197823
0.3500987
0.3868495
0.4322419
0.4895872
0.5637262
0.6550921
0.2562733
0.2753891
0.2975955
0.3237222
0.3549325
0.392805
0.4396984
0.4993975
0.5775523
0.678136
0.2411737
0.2580724
0.2775184
0.3001439
0.326815
0.3586653
0.3973426
0.4454543
0.5069904
0.5882896
0.7013086
0.2272171
0.2421977
0.2592879
0.2789735
0.3019046
0.3289038
0.3611337
0.4003913
0.4493255
0.5121047
0.5989533
0.7188242
0.2144211
0.2277524
0.2428432
0.2600698
0.2799272
0.3030199
0.3301829
0.3626811
0.4023042
0.4517576
0.5177345
0.6066299
0.7322365
0.2027383
0.214654
0.2280482
0.2432164
0.2605399
0.2804701
0.3036177
0.3308945
0.3635432
0.4033722
0.4549196
0.5216743
0.6124654
0.7427687
0.1920687
0.2027654
0.214714
0.228149
0.2433681
0.2607131
0.2806383
0.3038161
0.3311324
0.3638337
0.4051384
0.4569824
0.524621
0.6169426
0.7515415
0.1822897
0.1919301
0.202638
0.214601
0.2280546
0.2432607
0.2605626
0.2804659
0.3036164
0.330898
0.3646849
0.4060714
0.4583881
0.5268043
0.6205245
0.7610803
0.1732709
0.1819881
0.1916206
0.2023202
0.214275
0.2276874
0.2428202
0.26006
0.2798867
0.3029414
0.3310364
0.3647985
0.4064649
0.4592732
0.5285567
0.6247542
0.7678915
0.1648793
0.1727806
0.1814702
0.1910717
0.2017362
0.2136216
0.2269309
0.2419635
0.2590814
0.2787578
0.3024134
0.3304112
0.3643368
0.406375
0.459951
0.5314659
0.6287843
0.7750824
0.1569977
0.1641697
0.1720225
0.180657
0.1901954
0.2007611
0.2125119
0.2256818
0.2405468
0.2574603
0.2775466
0.3009849
0.3289385
0.3630068
0.4057954
0.4628856
0.5350525
0.6338648
0.7822976
0.1496003
0.15612
0.1632289
0.1710094
0.1795607
0.1889802
0.1993909
0.2109765
0.2239489
0.238575
0.2557215
0.2753297
0.2980983
0.3248204
0.3565083
0.1428713
0.148825
0.1552925
0.1623422
0.1700553
0.1785096
0.1878022
0.1980803
0.2095095
0.2222956
0.2371317
0.2538644
0.2729867
0.2950374
0.320725
0.1368347
0.1423028
0.1482231
0.1546531
0.1616605
0.1693082
0.1776741
0.1868784
0.1970534
0.2083614
0.2213764
0.2359128
0.2523448
0.2710676
0.2925955
0.13143
0.1364807
0.1419332
0.1478364
0.1542473
0.1612176
0.168811
0.1771271
0.1862737
0.1963815
0.2079379
0.2207476
0.2351051
0.2513093
0.2697424
0.1265803
0.1312703
0.1363204
0.1417725
0.1476756
0.1540723
0.1610156
0.1685895
0.1768832
0.1860039
0.1963733
0.2077953
0.2205078
0.2347425
0.2507912
0.3386763
0.3725996
0.4141305
0.4659782
0.5310679
0.6027063
0.3113836
0.3398718
0.3741453
0.4161703
0.4687553
0.5348748
0.6084001
0.2889151
0.3133252
0.3422691
0.37716
0.4200538
0.4737875
0.5416897
0.6191644
0.2700742
0.2913352
0.3162434
0.3458433
0.3816242
0.4256564
0.4809762
0.551671
0.6352053
0.2539362
0.2726912
0.2944421
0.3199822
0.3504176
0.3872401
0.432654
0.4901279
0.5644706
0.6561738
0.2396394
0.2563177
0.2754907
0.2977721
0.324
0.3552666
0.3931522
0.4401436
0.4999905
0.5783863
0.6843496
0.2263488
0.2412129
0.2581613
0.2776713
0.3003813
0.327096
0.3589516
0.3977006
0.4459151
0.5076077
0.5925554
0.7083025
0.2139761
0.2272516
0.2422751
0.2594199
0.279176
0.3021411
0.3291403
0.3614226
0.4007525
0.449791
0.5151445
0.6030707
0.7267308
0.2025572
0.2144515
0.2278203
0.2429579
0.2602442
0.2801283
0.3032178
0.3304202
0.3629708
0.4026664
0.4540286
0.520538
0.6109603
0.7405751
0.1920687
0.2027654
0.214714
0.228149
0.2433681
0.2607131
0.2806383
0.3038161
0.3311324
0.3638337
0.4051384
0.4569824
0.524621
0.6169426
0.7515415
0.1824369
0.192093
0.2028189
0.2148033
0.2282823
0.2435189
0.2608579
0.2808071
0.3040154
0.3313712
0.3652523
0.4067456
0.4591834
0.5277423
0.621654
0.7624136
0.173565
0.1823116
0.1919783
0.2027177
0.2147192
0.2281873
0.2433871
0.2607084
0.2806358
0.3038171
0.3320684
0.3659981
0.4078363
0.4608083
0.5302309
0.6264456
0.76965
0.1653451
0.1732909
0.1820316
0.1916923
0.202426
0.2143928
0.2277988
0.2429477
0.2602072
0.2800585
0.3039292
0.3321571
0.3663086
0.4085191
0.4621092
0.533162
0.6302843
0.7763907
0.1576646
0.1648976
0.1728202
0.181535
0.1911668
0.2018415
0.2137207
0.2270435
0.2420924
0.2592304
0.2796048
0.3034
0.3317714
0.3662301
0.4090409
0.4642755
0.5359447
0.6346064
0.7828622
0.1504224
0.1570142
0.1642055
0.1720809
0.1807422
0.1902891
0.2008487
0.2126106
0.2257939
0.240675
0.2581809
0.2783824
0.3021581
0.3306693
0.3657578
0.4113275
0.4669423
0.5394398
0.6391218
0.7887637
0.1436003
0.1496149
0.1561516
0.1632801
0.1710838
0.1796422
0.1890553
0.1994742
0.2110696
0.2240537
0.2391529
0.2562606
0.2759127
0.2986866
0.3252899
0.1373733
0.1428844
0.1488533
0.1553383
0.1624083
0.1701273
0.1785753
0.1878744
0.19816
0.2095982
0.2227782
0.2375264
0.2542293
0.2732906
0.2952279
0.1317699
0.1368467
0.1423285
0.1482645
0.1547128
0.1617253
0.1693668
0.1777382
0.1869487
0.1971309
0.2087792
0.2217005
0.2361945
0.2525641
0.2711962
0.1267393
0.1314411
0.1365043
0.1419711
0.1478908
0.1543062
0.1612706
0.1688686
0.17719
0.1863426
0.1967508
0.2082188
0.2209861
0.2352864
0.2514133
0.1222141
0.1265905
0.1312921
0.1363554
0.1418226
0.1477295
0.1541208
0.1610681
0.1686465
0.1769453
0.186335
0.1966227
0.2080048
0.2206652
0.2348318
0.310446
0.3387515
0.3727806
0.4144661
0.4665498
0.5318262
0.6035489
0.2873202
0.3114468
0.3400211
0.3744159
0.4166181
0.46933
0.5355128
0.6092566
0.2680416
0.2889693
0.3134516
0.3424942
0.3775243
0.4205084
0.4742759
0.5423444
0.6200565
0.2517071
0.2701217
0.2914447
0.3164357
0.3461491
0.3819974
0.4260467
0.4814829
0.5523574
0.6361645
0.2375931
0.2539787
0.2727882
0.2946106
0.3202464
0.3507345
0.3875655
0.4330661
0.4906687
0.5652154
0.661448
0.2249951
0.2396781
0.2564054
0.2756414
0.2980057
0.3242762
0.3555473
0.3935021
0.4405924
0.5005885
0.5824799
0.6909994
0.2132046
0.2263832
0.2412903
0.2582932
0.2778735
0.3006172
0.3273321
0.3592401
0.3980614
0.4463796
0.5106363
0.5968136
0.7167782
0.2021594
0.2140066
0.2273196
0.2423901
0.2595945
0.2793773
0.3023394
0.3293781
0.3617133
0.401116
0.4520698
0.5180379
0.6076516
0.7357277
0.1919058
0.2025843
0.2145116
0.2279212
0.2431098
0.2604175
0.2802967
0.3034167
0.3306585
0.3632619
0.4044372
0.4561247
0.5235656
0.6156028
0.7497161
0.1824369
0.192093
0.2028189
0.2148033
0.2282823
0.2435189
0.2608579
0.2808071
0.3040154
0.3313712
0.3652523
0.4067456
0.4591834
0.5277423
0.621654
0.7624136
0.1736987
0.1824589
0.192141
0.2028985
0.2149214
0.2284148
0.2436451
0.2610034
0.2809766
0.3042154
0.3325376
0.3665431
0.4084608
0.4615143
0.5310215
0.6273007
0.770582
0.1656134
0.1735849
0.1823551
0.1920498
0.2028232
0.2148368
0.2282985
0.2435141
0.2608548
0.2808065
0.3047977
0.3331485
0.3674164
0.4097232
0.4633675
0.534346
0.6314716
0.7775039
0.1580914
0.1653633
0.1733304
0.1820964
0.1917873
0.2025312
0.2144916
0.227911
0.243076
0.2603553
0.2808993
0.3048688
0.3334002
0.3679609
0.4107316
0.4655485
0.537004
0.6355938
0.7836646
0.1510358
0.1576813
0.1649336
0.172879
0.181621
0.1912614
0.20193
0.2138205
0.2271569
0.2422223
0.259961
0.2804453
0.3045417
0.3333318
0.3683764
0.4124155
0.4676156
0.5399774
0.639649
0.7891419
0.1443591
0.1504376
0.1570469
0.1642587
0.1721582
0.1808269
0.1903678
0.2009369
0.2127101
0.2259069
0.2413038
0.2589027
0.2793833
0.3036129
0.3329391
0.3702134
0.4144881
0.470206
0.5430708
0.6434477
0.7937991
0.1380484
0.1436138
0.149644
0.1561985
0.163348
0.1711578
0.17971
0.1891302
0.1995575
0.2111627
0.224563
0.2396238
0.2567646
0.2764152
0.299082
0.1322702
0.1373855
0.1429105
0.1488954
0.1553988
0.1624741
0.1701871
0.1786406
0.1879462
0.1982394
0.2100272
0.2231263
0.2378455