/*--------------------------------*- C++ -*----------------------------------*\
| =========                 |                                                 |
| \\      /  F ield         | OpenFOAM: The Open Source CFD Toolbox           |
|  \\    /   O peration     | Version:  2306                                  |
|   \\  /    A nd           | Website:  www.openfoam.com                      |
|    \\/     M anipulation  |                                                 |
\*---------------------------------------------------------------------------*/
FoamFile
{
    version     2.0;
    format      ascii;
    arch        "LSB;label=32;scalar=64";
    class       volScalarField;
    location    "1.2/fuel";
    object      H2O;
}
// * * * * * * * * * * * * * * * * * * * * * * * * * * * * * * * * * * * * * //

dimensions      [0 0 0 0 0 0 0];

internalField   nonuniform List<scalar> 
16000
(
0.4009136
0.3961593
0.4708775
0.400646
0.3864984
0.4678696
0.3958858
0.5349087
0.4706781
0.4001211
0.3718333
0.4617983
0.3862123
0.532721
0.4676672
0.3953494
0.586223
0.5347598
0.4702867
0.3993455
0.3527069
0.4526775
0.3715266
0.5283153
0.4615895
0.3856515
0.5845261
0.5325702
0.4672698
0.3945569
0.6275032
0.5861077
0.534467
0.4697081
0.3983224
0.3319524
0.4409354
0.3523686
0.521719
0.4524585
0.3709252
0.5811153
0.5281606
0.4611797
0.384823
0.6261411
0.5844095
0.5322738
0.4666825
0.3935115
0.6613338
0.6274112
0.585881
0.5340339
0.4689446
0.3973061
0.3160904
0.4283445
0.331573
0.5132655
0.4407011
0.3517053
0.5760233
0.5215582
0.4520286
0.3700369
0.6234077
0.5809961
0.5278567
0.460574
0.3837302
0.6602142
0.6260483
0.5841803
0.5318354
0.4659074
0.3924732
0.6895634
0.6612586
0.6272302
0.5855454
0.5334623
0.4681863
0.3964635
0.305898
0.4187211
0.3156854
0.5042477
0.4280909
0.3308288
0.5695228
0.5130954
0.4402412
0.3507255
0.6193365
0.5759001
0.521242
0.4513931
0.3688651
0.6579701
0.623313
0.5807619
0.5274071
0.4597747
0.3826446
0.6886258
0.6601383
0.6258655
0.5838412
0.5312568
0.4651376
0.3916121
0.7134858
0.6895008
0.6611106
0.6269621
0.5851023
0.5328946
0.4675578
0.3956254
0.3000728
0.4124806
0.3054788
0.4973827
0.4184569
0.3148913
0.5626182
0.5040658
0.4275929
0.3297292
0.6141551
0.5693933
0.5127611
0.4395614
0.3494327
0.6546339
0.6192389
0.5756577
0.5207745
0.4505546
0.3677011
0.6867484
0.6578929
0.6231267
0.5804153
0.5268138
0.4589809
0.3817439
0.7126886
0.6885626
0.659989
0.6255949
0.5833934
0.5306821
0.4644996
0.3907556
0.7340255
0.7134328
0.6893773
0.6608912
0.6266081
0.5846622
0.5324243
0.466933
0.3947919
0.2974488
0.408867
0.299646
0.4929371
0.4122114
0.3046573
0.55738
0.4971949
0.4179382
0.3137179
0.6086703
0.5624807
0.5037082
0.4268565
0.3282774
0.6503984
0.6140529
0.5691386
0.5122665
0.4386642
0.3481481
0.6839616
0.6545546
0.6190467
0.575299
0.5201574
0.4497217
0.3667334
0.7110937
0.6866842
0.657741
0.6228508
0.5799576
0.5262245
0.4583226
0.3808476
0.7333389
0.7126352
0.6884382
0.6597678
0.6252375
0.5829486
0.530206
0.4638653
0.3899038
0.7518585
0.73398
0.7133282
0.6891944
0.6606015
0.6262564
0.5842977
0.5319569
0.4663118
0.393963
0.2974488
0.4072212
0.2970185
0.4903615
0.4085952
0.2988096
0.553994
0.492747
0.4116828
0.3034438
0.6045207
0.5572389
0.496826
0.4171712
0.3121689
0.645927
0.6085623
0.5622101
0.503179
0.4258842
0.3268339
0.6804304
0.6503156
0.6138519
0.5687616
0.5116137
0.437773
0.3470744
0.7087291
0.6838957
0.6543983
0.6187622
0.5748254
0.5195444
0.4490301
0.3657685
0.7319665
0.7110394
0.6865578
0.6575158
0.6224864
0.5795031
0.5257361
0.4576679
0.3799555
0.7512609
0.7332931
0.7125298
0.6882538
0.6594756
0.6248825
0.5825802
0.5297327
0.4632346
0.3890566
0.767491
0.751819
0.7338902
0.7131732
0.6889527
0.6603136
0.6259652
0.5839355
0.5314924
0.4656944
0.3899536
0.3000728
0.4072212
0.2970185
0.4891873
0.4069484
0.2961756
0.5520335
0.4901703
0.4080618
0.2975744
0.6018426
0.5538516
0.4923733
0.4109014
0.301842
0.6425518
0.6044103
0.5569612
0.49628
0.4161587
0.3106287
0.676711
0.6458399
0.6083498
0.5618095
0.5024803
0.424918
0.3256162
0.7057379
0.680362
0.6501527
0.6135543
0.5682639
0.5109652
0.4370295
0.3459981
0.7299339
0.7086736
0.683766
0.6541668
0.6183865
0.574355
0.5190357
0.4483411
0.3648064
0.7500671
0.7319201
0.7109326
0.6863704
0.6572185
0.6221245
0.5791265
0.5252505
0.4570167
0.3790678
0.766966
0.7512212
0.7332028
0.7123737
0.6880102
0.6591853
0.6245885
0.5822141
0.5292624
0.4626077
0.3849581
0.7813091
0.7674564
0.7517411
0.7337571
0.7129683
0.6887125
0.6600753
0.6256759
0.5835757
0.5310309
0.4627089
0.3871972
0.305898
0.408867
0.299646
0.4891873
0.4069484
0.2961756
0.5511397
0.4889957
0.4064128
0.2949306
0.6002929
0.5518905
0.4897946
0.4072733
0.2959442
0.6403764
0.6017315
0.5535714
0.4918205
0.4098699
0.3002493
0.6739084
0.6424629
0.604193
0.55655
0.4955591
0.4151525
0.3093291
0.7025928
0.6766391
0.6456682
0.608035
0.5612804
0.5017859
0.4241056
0.3243839
0.7273662
0.7056802
0.6802271
0.6499113
0.6131612
0.5677694
0.5104246
0.4362856
0.344919
0.7483005
0.7298864
0.7085641
0.6835737
0.653861
0.6180133
0.5739646
0.518529
0.4476547
0.3638471
0.7659177
0.7500268
0.7318285
0.7107741
0.6861229
0.656923
0.6218247
0.578752
0.5247676
0.4563691
0.3747714
0.7808442
0.7669312
0.7511428
0.7330688
0.7121673
0.6877682
0.6589449
0.6242965
0.5818504
0.5287951
0.459576
0.3821276
0.793613
0.7812786
0.7673882
0.7516256
0.7335812
0.7127647
0.6885136
0.6598386
0.6253886
0.5832183
0.5287998
0.460663
0.3851087
0.3160904
0.4124806
0.3054788
0.4903615
0.4085952
0.2988096
0.5511397
0.4889957
0.4064128
0.2949306
0.5995866
0.5509965
0.4886192
0.4056212
0.2932876
0.6391184
0.6001815
0.5516094
0.4892388
0.4062325
0.2943232
0.6721041
0.6402871
0.6015127
0.5531565
0.4910906
0.4088449
0.2989081
0.7002267
0.6738353
0.6422879
0.6038711
0.556007
0.4948427
0.4143062
0.3080137
0.7246705
0.7025324
0.6764973
0.6454138
0.6076191
0.5607546
0.5012024
0.423286
0.3231368
0.7460714
0.727317
0.7055666
0.6800272
0.6495925
0.6127706
0.5673573
0.5098839
0.4355413
0.3438374
0.7643677
0.7482594
0.7297927
0.7084017
0.6833197
0.6535572
0.6177037
0.573576
0.5180246
0.446971
0.3591953
0.7799163
0.7658825
0.7499474
0.7316926
0.7105646
0.6858769
0.6566783
0.6215267
0.5783799
0.5242876
0.4532361
0.3717535
0.7931984
0.7808135
0.7668626
0.7510266
0.7328917
0.7119623
0.6875678
0.6587062
0.6240063
0.581489
0.5265358
0.4574911
0.3799722
0.8046395
0.7935859
0.7812183
0.7672869
0.7514728
0.7334063
0.7125962
0.6883162
0.6596036
0.6251032
0.5814909
0.5272744
0.4591159
0.3837054
0.3319524
0.4187211
0.3156854
0.4929371
0.4122114
0.3046573
0.5520335
0.4901703
0.4080618
0.2975744
0.5995866
0.5509965
0.4886192
0.4056212
0.2932876
0.6385451
0.5994751
0.550715
0.4880621
0.4045764
0.291654
0.6710613
0.639029
0.5999623
0.5511932
0.488505
0.4051982
0.2929604
0.6987049
0.6720307
0.6401111
0.6011886
0.5526087
0.4903653
0.4079844
0.2975533
0.7226451
0.7001654
0.673691
0.6420284
0.6034458
0.5554674
0.4942406
0.4134524
0.3066823
0.7437343
0.724619
0.7024133
0.6762872
0.6450776
0.6072057
0.5603128
0.5006142
0.4224593
0.3218746
0.7624139
0.7460289
0.7272199
0.7053982
0.679763
0.6492756
0.6124452
0.5669452
0.5093431
0.4347965
0.3385631
0.7785451
0.7643318
0.7481783
0.7296538
0.7081872
0.6830673
0.6533051
0.6173954
0.5731891
0.5175222
0.4436585
0.3557439
0.7923711
0.7798852
0.765813
0.7498296
0.731513
0.7103565
0.6856732
0.6564352
0.6212305
0.57801
0.5219661
0.4510524
0.3694117
0.8042674
0.7931711
0.7807529
0.7667607
0.7508728
0.7327156
0.7117925
0.6873687
0.658469
0.6237182
0.5797427
0.5249859
0.4559084
0.3785174
0.814578
0.8046152
0.7935322
0.7811288
0.7671529
0.7513209
0.7332615
0.7124288
0.6881201
0.6593701
0.6237242
0.5803118
0.5261222
0.4580779
0.3830003
0.3527069
0.4283445
0.331573
0.4973827
0.4184569
0.3148913
0.553994
0.492747
0.4116828
0.3034438
0.6002929
0.5518905
0.4897946
0.4072733
0.2959442
0.6385451
0.5994751
0.550715
0.4880621
0.4045764
0.291654
0.6705862
0.6384557
0.5992557
0.5502983
0.4873268
0.4035381
0.2902815
0.6978257
0.6709878
0.6388528
0.5996376
0.5506435
0.487776
0.4043311
0.2915859
0.7213434
0.6986433
0.6718859
0.6398504
0.6007605
0.5520643
0.4897568
0.4071176
0.2961849
0.7419802
0.7225929
0.7000444
0.6734771
0.6416855
0.6030231
0.555014
0.4936334
0.4125909
0.3053349
0.7603677
0.7436899
0.7245175
0.7022366
0.6760094
0.6447434
0.6068585
0.5598676
0.5000211
0.4216252
0.3156609
0.7768182
0.7623768
0.745945
0.727076
0.7051755
0.6795004
0.6490116
0.6121198
0.5665332
0.5088022
0.4311713
0.3340524
0.7911494
0.7785134
0.7642609
0.7480579
0.72947
0.7079739
0.6828579
0.6530543
0.6170886
0.572804
0.5150894
0.4412437
0.3528908
0.8035252
0.7923435
0.7798239
0.7657099
0.7496738
0.7313345
0.7101841
0.6854708
0.6561935
0.6209362
0.5762216
0.5203528
0.4493691
0.3678013
0.8142422
0.8042429
0.7931171
0.7806628
0.7666259
0.7507199
0.7325699
0.7116239
0.6871711
0.6582335
0.6223256
0.5785466
0.5238108
0.4548426
0.3777839
0.8235819
0.8145561
0.8045671
0.7934525
0.7810103
0.7670197
0.7511952
0.7331178
0.7122626
0.6879254
0.6582423
0.622784
0.5794218
0.5253499
0.4575569
0.3718333
0.4409354
0.3523686
0.5042477
0.4280909
0.3308288
0.55738
0.4971949
0.4179382
0.3137179
0.6018426
0.5538516
0.4923733
0.4109014
0.301842
0.6391184
0.6001815
0.5516094
0.4892388
0.4062325
0.2943232
0.6705862
0.6384557
0.5992557
0.5502983
0.4873268
0.4035381
0.2902815
0.6974253
0.6705127
0.6382795
0.5989308
0.549748
0.4865962
0.4026682
0.2888983
0.7205918
0.6977642
0.670843
0.6385918
0.5992087
0.5500974
0.487165
0.4034589
0.2901995
0.7408537
0.7212911
0.698522
0.6716712
0.6395058
0.6003351
0.5516077
0.4891442
0.4062446
0.2948027
0.7588334
0.7419352
0.7224898
0.6998648
0.6731944
0.6413448
0.602668
0.5545569
0.4930211
0.4117218
0.2987013
0.7750114
0.760329
0.7436022
0.7243668
0.702003
0.6757332
0.6444627
0.6065086
0.5594188
0.4994231
0.4175316
0.309011
0.7896119
0.7767856
0.7623035
0.7458205
0.7268857
0.7049542
0.6792817
0.6487477
0.6117945
0.5661212
0.5061709
0.4281858
0.329662
0.8024298
0.7911213
0.7784509
0.7641556
0.7478987
0.7292874
0.7077971
0.6826495
0.6528047
0.6167833
0.5709392
0.5133229
0.4392809
0.3507921
0.8135726
0.8035005
0.7922889
0.7797328
0.7655734
0.749519
0.7311867
0.7100129
0.6852697
0.6559535
0.6195135
0.5749808
0.5191113
0.4482185
0.3669777
0.8232773
0.8142201
0.8041946
0.793037
0.7805437
0.7664919
0.7505934
0.7324252
0.7114565
0.6869748
0.6570956
0.6213731
0.5776405
0.5230203
0.4543062
0.8317768
0.823562
0.8145128
0.8044957
0.793347
0.7808925
0.7669095
0.7510704
0.7329751
0.7120977
0.6869849
0.6574741
0.6220748
0.5788256
0.5249624
0.3864984
0.4526775
0.3715266
0.5132655
0.4407011
0.3517053
0.5626182
0.5040658
0.4275929
0.3297292
0.6045207
0.5572389
0.496826
0.4171712
0.3121689
0.6403764
0.6017315
0.5535714
0.4918205
0.4098699
0.3002493
0.6710613
0.639029
0.5999623
0.5511932
0.488505
0.4051982
0.2929604
0.6974253
0.6705127
0.6382795
0.5989308
0.549748
0.4865962
0.4026682
0.2888983
0.7202495
0.6973638
0.6703679
0.6380185
0.5985017
0.5492013
0.4859843
0.4017938
0.2875041
0.7402034
0.7205395
0.6976429
0.6706283
0.638247
0.5987825
0.5496399
0.4865508
0.4025816
0.2888013
0.7578486
0.7408086
0.7211879
0.6983421
0.6713876
0.6391634
0.5999783
0.5511481
0.4885275
0.4053654
0.2880117
0.7736578
0.7587942
0.7418463
0.7223369
0.6996275
0.6729134
0.6410585
0.6023101
0.5540961
0.4924037
0.4074559
0.2917073
0.7880047
0.7749774
0.7602525
0.7434721
0.7241675
0.7017708
0.6755013
0.6441799
0.6061559
0.5589664
0.4964899
0.4133976
0.3006317
0.8010521
0.7895829
0.776721
0.7621948
0.7456559
0.7266965
0.7047699
0.6790631
0.6484839
0.6114693
0.5641173
0.5040165
0.4253772
0.3257373
0.8125848
0.8024046
0.7910657
0.778358
0.7640164
0.7477405
0.729136
0.7076211
0.6824422
0.6525562
0.615305
0.5695876
0.511891
0.4378597
0.3496506
0.8226702
0.8135504
0.8034517
0.7922079
0.7796123
0.7654378
0.7493908
0.7310398
0.7098427
0.6850698
0.654793
0.6185277
0.5740269
0.5182638
0.4476325
0.8314993
0.8232574
0.8141766
0.8041228
0.792931
0.7804253
0.766381
0.7504678
0.7322815
0.7112903
0.6860265
0.656318
0.6206519
0.5770314
0.5226227
0.8392667
0.8317588
0.8235228
0.8144484
0.8044012
0.7932421
0.7807951
0.7668
0.7509464
0.7328334
0.7113008
0.6863447
0.6568949
0.6215999
0.5785266
0.3961593
0.4617983
0.3862123
0.521719
0.4524585
0.3709252
0.5695228
0.5130954
0.4402412
0.3507255
0.6086703
0.5624807
0.5037082
0.4268565
0.3282774
0.6425518
0.6044103
0.5569612
0.49628
0.4161587
0.3106287
0.6721041
0.6402871
0.6015127
0.5531565
0.4910906
0.4088449
0.2989081
0.6978257
0.6709878
0.6388528
0.5996376
0.5506435
0.487776
0.4043311
0.2915859
0.7202495
0.6973638
0.6703679
0.6380185
0.5985017
0.5492013
0.4859843
0.4017938
0.2875041
0.7399074
0.7201972
0.6972426
0.6701533
0.6376736
0.5980753
0.5487436
0.4853696
0.4009148
0.286099
0.7572804
0.7401584
0.7204364
0.697463
0.6703446
0.6379043
0.5984256
0.5491801
0.4859334
0.4016992
0.2819424
0.7727894
0.7578094
0.7407197
0.7210347
0.6981042
0.6711056
0.6388763
0.5996193
0.5506856
0.4879067
0.4010578
0.2811853
0.7868014
0.7736233
0.7587168
0.7417145
0.7221347
0.6993916
0.6726774
0.6407699
0.6019493
0.5536315
0.4893752
0.4031976
0.2832315
0.799613
0.7879745
0.7749101
0.760139
0.7432999
0.7239693
0.7015758
0.6752676
0.6438949
0.6058005
0.5567478
0.4935479
0.4084136
0.2897643
0.8113432
0.8010262
0.7895257
0.7766252
0.762051
0.7454922
0.7265389
0.7045856
0.6788445
0.6482202
0.6098878
0.5624795
0.5019989
0.4229425
0.3230206
0.821775
0.8125622
0.8023549
0.7909832
0.7782352
0.7638779
0.7476093
0.7289853
0.707446
0.6822359
0.6513536
0.6142348
0.5684931
0.5108568
0.4370962
0.8309464
0.8226501
0.8135064
0.8033791
0.7921007
0.7794925
0.7653255
0.7492634
0.7308939
0.7096737
0.6841042
0.6539896
0.6177702
0.5733761
0.5178325
0.8390129
0.8314812
0.823218
0.8141119
0.8040278
0.7928255
0.7803273
0.766271
0.7503431
0.7321388
0.7104873
0.6853789
0.6557294
0.6201672
0.5767251
0.8461381
0.8392502
0.8317231
0.8234645
0.8143632
0.8043071
0.7931553
0.7806984
0.7666914
0.7508234
0.7321493
0.7107587
0.6858622
0.6565071
0.6213618
0.4009136
0.4678696
0.3958858
0.5283153
0.4615895
0.3856515
0.5760233
0.5215582
0.4520286
0.3700369
0.6141551
0.5693933
0.5127611
0.4395614
0.3494327
0.645927
0.6085623
0.5622101
0.503179
0.4258842
0.3268339
0.6739084
0.6424629
0.604193
0.55655
0.4955591
0.4151525
0.3093291
0.6987049
0.6720307
0.6401111
0.6011886
0.5526087
0.4903653
0.4079844
0.2975533
0.7205918
0.6977642
0.670843
0.6385918
0.5992087
0.5500974
0.487165
0.4034589
0.2901995
0.7399074
0.7201972
0.6972426
0.6701533
0.6376736
0.5980753
0.5487436
0.4853696
0.4009148
0.286099
0.7570217
0.7398624
0.7200942
0.6970628
0.6698696
0.6373308
0.5977183
0.5482838
0.484752
0.4000312
0.2792112
0.7722886
0.7572412
0.7400696
0.7202834
0.6972253
0.6700626
0.6376173
0.5980669
0.548718
0.4853126
0.3973819
0.2752778
0.7860299
0.772755
0.757732
0.7405877
0.7208322
0.6978677
0.6708692
0.6385874
0.5992581
0.5502202
0.4848669
0.3969404
0.2732785
0.7985363
0.7867709
0.7735553
0.7586018
0.74154
0.7219337
0.6991934
0.6724395
0.6404791
0.6015856
0.551353
0.4863683
0.3982464
0.2731051
0.8100472
0.799586
0.7879148
0.7748102
0.7599888
0.7431288
0.7238029
0.7013793
0.6750322
0.6436076
0.6040575
0.5545252
0.4900201
0.4021779
0.2749277
0.8206503
0.8113199
0.800975
0.7894406
0.7764984
0.761908
0.7453559
0.7263814
0.7044015
0.6786261
0.6469379
0.6085964
0.5609471
0.500257
0.4213004
0.8301314
0.8217545
0.8125174
0.802281
0.7908739
0.778113
0.7637631
0.7474788
0.7288354
0.7072718
0.6812372
0.6504838
0.6133686
0.5677031
0.5103021
0.8385072
0.8309281
0.8226103
0.8134411
0.8032831
0.7919941
0.7793933
0.7652139
0.7491369
0.730749
0.708857
0.6834361
0.6533726
0.6172536
0.573045
0.8459051
0.8389963
0.8314454
0.8231594
0.8140263
0.8039333
0.7927383
0.78023
0.7661616
0.7502193
0.7314497
0.7099393
0.684889
0.6553341
0.6199236
0.8524641
0.846123
0.8392176
0.83167
0.8233873
0.8142784
0.8042294
0.7930692
0.7806023
0.7665836
0.7502294
0.7316841
0.7103502
0.6855393
0.6563127
0.4708775
0.400646
0.532721
0.4676672
0.3953494
0.5811153
0.5281606
0.4611797
0.384823
0.6193365
0.5759001
0.521242
0.4513931
0.3688651
0.6503984
0.6140529
0.5691386
0.5122665
0.4386642
0.3481481
0.676711
0.6458399
0.6083498
0.5618095
0.5024803
0.424918
0.3256162
0.7002267
0.6738353
0.6422879
0.6038711
0.556007
0.4948427
0.4143062
0.3080137
0.7213434
0.6986433
0.6718859
0.6398504
0.6007605
0.5520643
0.4897568
0.4071176
0.2961849
0.7402034
0.7205395
0.6976429
0.6706283
0.638247
0.5987825
0.5496399
0.4865508
0.4025816
0.2888013
0.7570217
0.7398624
0.7200942
0.6970628
0.6698696
0.6373308
0.5977183
0.5482838
0.484752
0.4000312
0.2792112
0.7720605
0.7569826
0.7397736
0.7199413
0.6968251
0.6695877
0.637044
0.5973599
0.547822
0.4841314
0.3957108
0.2726235
0.785585
0.7722542
0.7571639
0.7399378
0.720081
0.6969889
0.6698265
0.637329
0.5977064
0.5482535
0.4822768
0.393381
0.2677726
0.7978462
0.7859994
0.772687
0.757617
0.7404131
0.7206309
0.6976694
0.6706313
0.6382968
0.5988946
0.5479413
0.4819734
0.3923593
0.2642815
0.8090781
0.7985091
0.7867106
0.7734542
0.7584498
0.7413666
0.7217648
0.6989937
0.6721997
0.640186
0.5998022
0.5490927
0.4828862
0.3925308
0.2611896
0.8194771
0.810023
0.7995328
0.7878262
0.7746779
0.7598394
0.7429851
0.7236352
0.7011813
0.6747949
0.6421992
0.6023118
0.5518626
0.4856297
0.3939089
0.2500494
0.829108
0.8206293
0.8112739
0.8008989
0.789328
0.7763724
0.7617889
0.7452197
0.726224
0.7042174
0.677564
0.6458914
0.6073885
0.5596253
0.4990857
0.8377621
0.8301128
0.821714
0.8124509
0.8021833
0.7907653
0.7780117
0.7636489
0.7473489
0.7286862
0.7064286
0.6805154
0.6497799
0.6127436
0.5672795
0.845441
0.8384905
0.830892
0.8225512
0.8133546
0.8031876
0.7919058
0.7792947
0.7651031
0.7490112
0.7300488
0.7082923
0.6829232
0.6529519
0.6169909
0.8522494
0.84589
0.8389636
0.8313921
0.8230819
0.8139412
0.8038552
0.7926516
0.7801334
0.7660531
0.7496212
0.7309797
0.7095248
0.68456
0.6551354
0.8583063
0.8524502
0.8460931
0.8391691
0.8315998
0.8233105
0.8142083
0.8041521
0.7929837
0.780507
0.7660628
0.7498257
0.7313337
0.710077
0.6853774
0.5349087
0.4706781
0.4001211
0.5845261
0.5325702
0.4672698
0.3945569
0.6234077
0.5809961
0.5278567
0.460574
0.3837302
0.6546339
0.6192389
0.5756577
0.5207745
0.4505546
0.3677011
0.6804304
0.6503156
0.6138519
0.5687616
0.5116137
0.437773
0.3470744
0.7025928
0.6766391
0.6456682
0.608035
0.5612804
0.5017859
0.4241056
0.3243839
0.7226451
0.7001654
0.673691
0.6420284
0.6034458
0.5554674
0.4942406
0.4134524
0.3066823
0.7408537
0.7212911
0.698522
0.6716712
0.6395058
0.6003351
0.5516077
0.4891442
0.4062446
0.2948027
0.7572804
0.7401584
0.7204364
0.697463
0.6703446
0.6379043
0.5984256
0.5491801
0.4859334
0.4016992
0.2819424
0.7720605
0.7569826
0.7397736
0.7199413
0.6968251
0.6695877
0.637044
0.5973599
0.547822
0.4841314
0.3957108
0.2726235
0.7853825
0.7720262
0.7569054
0.7396419
0.7197391
0.6965888
0.6693517
0.636756
0.5969999
0.5473581
0.4810986
0.3917645
0.2652985
0.7974484
0.7855546
0.7721863
0.7570492
0.7397635
0.7198799
0.696791
0.6695892
0.6370392
0.5973442
0.5459825
0.4794733
0.3890505
0.2594339
0.8084572
0.7978191
0.7859392
0.7725859
0.7574649
0.7402396
0.7204621
0.6974699
0.670392
0.6380043
0.5971152
0.5457735
0.4787637
0.3873263
0.2542312
0.8186002
0.8090537
0.7984553
0.786621
0.7733204
0.7582986
0.7412209
0.7215947
0.6987925
0.6719581
0.6387489
0.5980331
0.5464766
0.4788823
0.3860049
0.2455736
0.8280409
0.8194552
0.8099751
0.7994536
0.7877089
0.7745464
0.759714
0.7428402
0.7234663
0.7009818
0.6736314
0.6407887
0.6002212
0.5485543
0.4798399
0.3803485
0.2363259
0.8368269
0.8290889
0.8205877
0.8112055
0.8007982
0.789216
0.7762674
0.7616698
0.7450836
0.7260667
0.7033226
0.6766977
0.6449127
0.6063468
0.558737
0.8447573
0.8377451
0.830076
0.8216539
0.812363
0.802086
0.7906752
0.7779109
0.7635353
0.7472198
0.7279644
0.7058194
0.6799315
0.6492722
0.6124085
0.851822
0.8454257
0.8384575
0.8308382
0.8224729
0.8132686
0.8031086
0.7918181
0.7791969
0.7649931
0.748404
0.7295649
0.7078588
0.6825736
0.652738
0.858108
0.8522355
0.8458599
0.8389149
0.8313215
0.8230047
0.8138707
0.8037775
0.7925656
0.7800375
0.7655291
0.7492134
0.7306243
0.7092465
0.6843947
0.8637175
0.8582935
0.8524227
0.8460487
0.8391049
0.8315299
0.823247
0.8141387
0.8040755
0.7928988
0.7800467
0.765709
0.7495216
0.7310992
0.70994
0.586223
0.5347598
0.4702867
0.3993455
0.6261411
0.5844095
0.5322738
0.4666825
0.3935115
0.6579701
0.623313
0.5807619
0.5274071
0.4597747
0.3826446
0.6839616
0.6545546
0.6190467
0.575299
0.5201574
0.4497217
0.3667334
0.7057379
0.680362
0.6501527
0.6135543
0.5682639
0.5109652
0.4370295
0.3459981
0.7246705
0.7025324
0.6764973
0.6454138
0.6076191
0.5607546
0.5012024
0.423286
0.3231368
0.7419802
0.7225929
0.7000444
0.6734771
0.6416855
0.6030231
0.555014
0.4936334
0.4125909
0.3053349
0.7578486
0.7408086
0.7211879
0.6983421
0.6713876
0.6391634
0.5999783
0.5511481
0.4885275
0.4053654
0.2880117
0.7722886
0.7572412
0.7400696
0.7202834
0.6972253
0.6700626
0.6376173
0.5980669
0.548718
0.4853126
0.3973819
0.2752778
0.7853825
0.7720262
0.7569054
0.7396419
0.7197391
0.6965888
0.6693517
0.636756
0.5969999
0.5473581
0.4810986
0.3917645
0.2652985
0.7972673
0.7853521
0.7719584
0.7567907
0.7394678
0.7195381
0.6963911
0.6691149
0.6364668
0.5966384
0.5450915
0.478337
0.3875454
0.2572402
0.8080994
0.7974213
0.7854944
0.7720854
0.7568973
0.7395901
0.7197115
0.6965921
0.6693509
0.6367481
0.5955734
0.5438864
0.4764456
0.384408
0.2502926
0.8180387
0.8084328
0.7977653
0.7858496
0.7724522
0.7573137
0.740094
0.7202923
0.6972693
0.6701513
0.636573
0.5954227
0.5433695
0.4752475
0.3818823
0.2416114
0.8272438
0.8185782
0.8090053
0.7983753
0.7865024
0.7731874
0.7581716
0.7410741
0.7214232
0.6985897
0.6707735
0.6373232
0.5959858
0.5434719
0.4743285
0.377687
0.2343817
0.8358523
0.828021
0.819412
0.809904
0.7993488
0.7875921
0.774436
0.7595876
0.7426944
0.7232961
0.7000036
0.6724663
0.6390995
0.5976255
0.5442017
0.4703984
0.3724906
0.2258988
0.8438995
0.8368095
0.8290511
0.8205258
0.811115
0.8006981
0.7891227
0.7761624
0.7615509
0.7449475
0.725302
0.7025928
0.6758875
0.6440688
0.6056468
0.8511924
0.8447417
0.8377116
0.8300213
0.8215743
0.8122754
0.8020054
0.7905856
0.7778106
0.7634223
0.7465945
0.727443
0.7053267
0.6795103
0.649
0.8577131
0.8518079
0.8453954
0.8384084
0.830767
0.822395
0.8131973
0.80303
0.7917311
0.7790997
0.7644614
0.7479846
0.7291936
0.7075634
0.6823959
0.8635337
0.8580951
0.8522079
0.8458153
0.8388504
0.8312513
0.8229409
0.8138008
0.8037005
0.7924803
0.7795744
0.7651718
0.7489052
0.7303857
0.7091067
0.868743
0.8637056
0.8582681
0.8523818
0.8459898
0.8390411
0.8314721
0.823184
0.8140697
0.8039994
0.7924889
0.7797341
0.7654426
0.7493182
0.7309818
0.6275032
0.5861077
0.534467
0.4697081
0.3983224
0.6602142
0.6260483
0.5841803
0.5318354
0.4659074
0.3924732
0.6867484
0.6578929
0.6231267
0.5804153
0.5268138
0.4589809
0.3817439
0.7087291
0.6838957
0.6543983
0.6187622
0.5748254
0.5195444
0.4490301
0.3657685
0.7273662
0.7056802
0.6802271
0.6499113
0.6131612
0.5677694
0.5104246
0.4362856
0.344919
0.7437343
0.724619
0.7024133
0.6762872
0.6450776
0.6072057
0.5603128
0.5006142
0.4224593
0.3218746
0.7588334
0.7419352
0.7224898
0.6998648
0.6731944
0.6413448
0.602668
0.5545569
0.4930211
0.4117218
0.2987013
0.7727894
0.7578094
0.7407197
0.7210347
0.6981042
0.6711056
0.6388763
0.5996193
0.5506856
0.4879067
0.4010578
0.2811853
0.785585
0.7722542
0.7571639
0.7399378
0.720081
0.6969889
0.6698265
0.637329
0.5977064
0.5482535
0.4822768
0.393381
0.2677726
0.7972673
0.7853521
0.7719584
0.7567907
0.7394678
0.7195381
0.6963911
0.6691149
0.6364668
0.5966384
0.5450915
0.478337
0.3875454
0.2572402
0.8079365
0.7972402
0.785292
0.7718576
0.756639
0.7392946
0.7193699
0.6961927
0.668877
0.6361764
0.5948722
0.5430286
0.4753902
0.3830681
0.2484671
0.8177151
0.808075
0.7973676
0.7854051
0.7719519
0.7567463
0.739445
0.7195423
0.6963924
0.6691114
0.6353251
0.5939392
0.5416229
0.4732069
0.3794862
0.2389281
0.8267334
0.8180167
0.8083846
0.7976854
0.7857311
0.7723192
0.7571869
0.7399477
0.7201215
0.6970674
0.6689731
0.6352115
0.5935457
0.5407379
0.4714544
0.3752563
0.2321166
0.8351246
0.8272238
0.8185346
0.8089335
0.7982694
0.7863844
0.7730757
0.7580436
0.7409262
0.7212504
0.6975954
0.6695982
0.6356732
0.5936356
0.5400601
0.4685452
0.3712261
0.2249253
0.8430059
0.8358343
0.8279818
0.8193477
0.8098098
0.7992445
0.7874941
0.7743247
0.7594603
0.7425474
0.7224616
0.6990239
0.6710709
0.6370033
0.5942153
0.5371254
0.4649585
0.3661454
0.2177098
0.8504029
0.8438835
0.8367751
0.8289949
0.820444
0.8110249
0.8006147
0.7890295
0.7760576
0.761432
0.7442861
0.7246785
0.7019105
0.675189
0.6435017
0.8571316
0.8511782
0.844711
0.8376617
0.8299489
0.8214951
0.8122029
0.8019252
0.7904965
0.7777109
0.7628754
0.7461432
0.7270215
0.7049714
0.6792845
0.8631678
0.8577001
0.8517801
0.8453504
0.8383433
0.8306961
0.8223305
0.8131266
0.8029521
0.7916446
0.7786301
0.7640942
0.7476627
0.7289406
0.7074133
0.8685722
0.8635218
0.8580696
0.8521668
0.8457562
0.8387863
0.8311933
0.8228775
0.8137313
0.803624
0.792068
0.7792588
0.7649018
0.7486982
0.7302658
0.8734217
0.868732
0.8636821
0.8582303
0.8523276
0.8459312
0.8389882
0.8314147
0.8231214
0.8140011
0.8036321
0.7922106
0.7794987
0.7652645
0.7492163
0.6613338
0.6274112
0.585881
0.5340339
0.4689446
0.3973061
0.6886258
0.6601383
0.6258655
0.5838412
0.5312568
0.4651376
0.3916121
0.7110937
0.6866842
0.657741
0.6228508
0.5799576
0.5262245
0.4583226
0.3808476
0.7299339
0.7086736
0.683766
0.6541668
0.6183865
0.574355
0.5190357
0.4483411
0.3648064
0.7460714
0.727317
0.7055666
0.6800272
0.6495925
0.6127706
0.5673573
0.5098839
0.4355413
0.3438374
0.7603677
0.7436899
0.7245175
0.7022366
0.6760094
0.6447434
0.6068585
0.5598676
0.5000211
0.4216252
0.3156609
0.7736578
0.7587942
0.7418463
0.7223369
0.6996275
0.6729134
0.6410585
0.6023101
0.5540961
0.4924037
0.4074559
0.2917073
0.7860299
0.772755
0.757732
0.7405877
0.7208322
0.6978677
0.6708692
0.6385874
0.5992581
0.5502202
0.4848669
0.3969404
0.2732785
0.7974484
0.7855546
0.7721863
0.7570492
0.7397635
0.7198799
0.696791
0.6695892
0.6370392
0.5973442
0.5459825
0.4794733
0.3890505
0.2594339
0.8079365
0.7972402
0.785292
0.7718576
0.756639
0.7392946
0.7193699
0.6961927
0.668877
0.6361764
0.5948722
0.5430286
0.4753902
0.3830681
0.2484671
0.8175678
0.8079122
0.7971867
0.7852028
0.7717243
0.7564882
0.7391497
0.7192011
0.6959934
0.6686382
0.6347577
0.593265
0.5408276
0.4722689
0.3783566
0.2375947
0.8264394
0.8176931
0.8080269
0.7972879
0.7852869
0.7718192
0.75662
0.7392992
0.7193724
0.6961917
0.667941
0.634012
0.5921743
0.5392027
0.4697802
0.3735649
0.2303581
0.8346589
0.8267135
0.8179731
0.8083129
0.7975796
0.7856132
0.7722077
0.7570594
0.7398004
0.7199497
0.6960796
0.6678523
0.6337015
0.5914915
0.5379018
0.466849
0.369726
0.223617
0.842339
0.8351064
0.8271842
0.8184697
0.8088384
0.798164
0.7862854
0.7729631
0.7579147
0.7407772
0.7204034
0.6966089
0.668238
0.6337799
0.5909697
0.5357354
0.4640663
0.3654037
0.2171452
0.8495808
0.8429894
0.8357985
0.8279234
0.8192626
0.809716
0.7991569
0.7873954
0.7742126
0.759332
0.7418267
0.7216258
0.6978507
0.6693401
0.6342522
0.588683
0.5330686
0.460571
0.3608882
0.2112434
0.8564026
0.8503883
0.843852
0.8367238
0.8289205
0.8203625
0.8109499
0.8005314
0.7889364
0.7759528
0.7608542
0.743747
0.7240955
0.7013222
0.6747195
0.8626292
0.8571184
0.8511499
0.8446653
0.8375956
0.8298769
0.8214294
0.8121307
0.8018455
0.7904078
0.7772283
0.7624806
0.7457782
0.7267175
0.7047809
0.8682323
0.8631558
0.8576744
0.8517387
0.8452908
0.8382786
0.8306374
0.8222665
0.8130564
0.8028746
0.7912268
0.7783059
0.7638125
0.7474435
0.728812
0.8732627
0.8685612
0.8634982
0.8580317
0.8521124
0.8456973
0.8387332
0.8311356
0.8228147
0.8136624
0.8032547
0.7917872
0.7790204
0.7647206
0.7485943
0.8777876
0.8734115
0.8687101
0.8636472
0.8581803
0.8522736
0.8458827
0.8389358
0.8313578
0.8230593
0.8136701
0.8033828
0.7920012
0.7793413
0.7651752
0.6895634
0.6612586
0.6272302
0.5855454
0.5334623
0.4681863
0.3964635
0.7126886
0.6885626
0.659989
0.6255949
0.5833934
0.5306821
0.4644996
0.3907556
0.7319665
0.7110394
0.6865578
0.6575158
0.6224864
0.5795031
0.5257361
0.4576679
0.3799555
0.7483005
0.7298864
0.7085641
0.6835737
0.653861
0.6180133
0.5739646
0.518529
0.4476547
0.3638471
0.7624139
0.7460289
0.7272199
0.7053982
0.679763
0.6492756
0.6124452
0.5669452
0.5093431
0.4347965
0.3385631
0.7750114
0.760329
0.7436022
0.7243668
0.702003
0.6757332
0.6444627
0.6065086
0.5594188
0.4994231
0.4175316
0.309011
0.7868014
0.7736233
0.7587168
0.7417145
0.7221347
0.6993916
0.6726774
0.6407699
0.6019493
0.5536315
0.4893752
0.4031976
0.2832315
0.7978462
0.7859994
0.772687
0.757617
0.7404131
0.7206309
0.6976694
0.6706313
0.6382968
0.5988946
0.5479413
0.4819734
0.3923593
0.2642815
0.8080994
0.7974213
0.7854944
0.7720854
0.7568973
0.7395901
0.7197115
0.6965921
0.6693509
0.6367481
0.5955734
0.5438864
0.4764456
0.384408
0.2502926
0.8175678
0.8079122
0.7971867
0.7852028
0.7717243
0.7564882
0.7391497
0.7192011
0.6959934
0.6686382
0.6347577
0.593265
0.5408276
0.4722689
0.3783566
0.2375947
0.8263056
0.8175459
0.8078641
0.7971071
0.7850847
0.7715917
0.756362
0.7390042
0.7190316
0.6957934
0.6674718
0.6334669
0.5915498
0.5384967
0.4689896
0.3727098
0.229426
0.8343905
0.8264195
0.8176497
0.8079554
0.7971824
0.7851692
0.7717081
0.756493
0.7391528
0.7192017
0.6952111
0.666861
0.6325936
0.5902874
0.5366435
0.4656651
0.3685386
0.2225037
0.8419123
0.8346407
0.826674
0.8179084
0.8082179
0.7974744
0.7855144
0.7720956
0.7569311
0.7396524
0.7191089
0.69514
0.6666092
0.6320492
0.589279
0.5344625
0.4630069
0.3644163
0.2163428
0.8489674
0.8423223
0.8350703
0.8271253
0.8183838
0.8087438
0.7980756
0.7861855
0.7728497
0.7577848
0.7400466
0.7195629
0.6954671
0.6666777
0.6316337
0.587595
0.5323953
0.4600334
0.360361
0.2108652
0.8556438
0.8495656
0.8429566
0.8357453
0.8278461
0.8191778
0.8096373
0.7990687
0.7872959
0.7740997
0.7587032
0.741105
0.7206249
0.6963959
0.6670703
0.6297967
0.5855224
0.5298048
0.45694
0.3565621
0.2062078
0.8619542
0.8563891
0.8503593
0.843805
0.8366559
0.8288465
0.8202947
0.8108749
0.8004481
0.7888434
0.7754435
0.7603832
0.743243
0.723593
0.7009268
0.8677321
0.862617
0.8570923
0.8511078
0.8446047
0.8375298
0.8298172
0.8213641
0.8120589
0.8017661
0.7899788
0.7768802