/*--------------------------------*- C++ -*----------------------------------*\
| =========                 |                                                 |
| \\      /  F ield         | OpenFOAM: The Open Source CFD Toolbox           |
|  \\    /   O peration     | Version:  2306                                  |
|   \\  /    A nd           | Website:  www.openfoam.com                      |
|    \\/     M anipulation  |                                                 |
\*---------------------------------------------------------------------------*/
FoamFile
{
    version     2.0;
    format      ascii;
    arch        "LSB;label=32;scalar=64";
    class       volScalarField;
    location    "1.2/fuel";
    object      iDmdtfuel.H2;
}
// * * * * * * * * * * * * * * * * * * * * * * * * * * * * * * * * * * * * * //

dimensions      [1 -3 -1 0 0 0 0];

internalField   nonuniform List<scalar> 
16000
(
-9.970726
-10.05528
-9.098285
-9.567097
-10.22622
-9.151598
-9.645908
-8.353731
-8.752173
-9.281532
-10.48449
-9.256423
-9.805135
-8.393856
-8.802108
-9.356498
-7.754519
-8.054019
-8.505304
-9.10589
-10.82172
-9.407285
-10.04549
-8.471766
-8.900244
-9.507929
-7.787166
-8.091758
-8.552922
-9.178717
-7.255443
-7.490305
-7.83899
-8.351337
-9.029655
-11.18671
-9.590164
-10.35899
-8.58144
-9.04139
-9.73648
-7.850095
-8.165005
-8.646488
-9.325866
-7.283095
-7.521115
-7.87507
-8.3976
-9.101812
-6.826178
-7.01948
-7.299972
-7.70361
-8.282109
-0
-11.46445
-9.768409
-10.69788
-8.709637
-9.212368
-10.03463
-7.937554
-8.268061
-8.781032
-9.548093
-7.336144
-7.58048
-7.94508
-8.488509
-9.247705
-6.850177
-7.045651
-7.329494
-7.738691
-8.327848
-0
-6.449236
-6.613507
-6.848984
-7.179402
-7.641465
-0
-0
-11.64156
-9.889017
-10.95485
-8.82754
-9.378861
-10.35701
-8.037566
-8.38844
-8.943993
-9.83837
-7.409263
-7.662945
-8.043556
-8.619258
-9.468324
-6.896067
-7.095841
-7.386361
-7.806759
-8.417754
-0
-6.470426
-6.636278
-6.874111
-7.208135
-7.676123
-0
-0
-6.112927
-6.256214
-6.459476
-6.740514
-7.123403
-0
-0
-0
-11.74311
-9.956301
-11.11822
-8.900614
-9.491221
-10.60084
-8.126273
-8.499054
-9.102657
-10.15285
-7.491659
-7.757179
-8.158556
-8.777711
-9.757196
-6.958944
-7.164983
-7.465333
-7.902508
-8.547137
-0
-6.510849
-6.679804
-6.922283
-7.263478
-7.743382
-0
-0
-6.131873
-6.276367
-6.481377
-6.764994
-7.151788
-0
-0
-0
-5.809443
-5.936776
-6.116144
-6.361166
-6.689771
-0
-0
-0
-0
-11.78904
-9.990507
-11.21169
-8.935936
-9.553764
-10.75555
-8.178098
-8.56744
-9.209464
-10.39033
-7.56297
-7.840676
-8.264177
-8.932093
-10.07121
-7.029055
-7.242841
-7.555541
-8.014345
-8.704113
-0
-6.565991
-6.739413
-6.988625
-7.340329
-7.838018
-0
-0
-6.167949
-6.314794
-6.523229
-6.811923
-7.206466
-0
-0
-0
-5.826551
-5.954832
-6.135558
-6.382525
-6.71396
-0
-0
-0
-0
-5.533056
-5.647962
-5.808742
-6.026521
-6.314959
-0
-0
-0
-0
-0
-11.78904
-10.00471
-11.25391
-8.950689
-9.585514
-10.84398
-8.200355
-8.600412
-9.268815
-10.54091
-7.602957
-7.88933
-8.329291
-9.035775
-10.30822
-7.088655
-7.310146
-7.635411
-8.117065
-8.857266
-0
-6.62698
-6.805827
-7.063297
-7.428113
-7.94862
-0
-0
-6.216989
-6.367188
-6.580525
-6.876545
-7.282403
-0
-0
-0
-5.85908
-5.989197
-6.172567
-6.423337
-6.760333
-0
-0
-0
-0
-5.548624
-5.664296
-5.826161
-6.045474
-6.336072
-0
-0
-0
-0
-0
-5.279543
-5.384462
-5.530428
-5.726656
-5.984263
-0
-0
-0
-0
-0
-0
-11.74311
-10.00471
-11.25391
-8.955674
-9.598684
-10.88391
-8.207723
-8.614149
-9.298926
-10.62698
-7.618571
-7.910153
-8.360603
-9.093326
-10.45858
-7.121069
-7.347779
-7.681801
-8.180193
-8.959906
-0
-6.678121
-6.862212
-7.127782
-7.505805
-8.050248
-0
-0
-6.27088
-6.425091
-6.644329
-6.94927
-7.36917
-0
-0
-0
-5.903174
-6.035889
-6.223009
-6.479201
-6.824194
-0
-0
-0
-0
-5.578194
-5.695342
-5.859307
-6.081597
-6.376412
-0
-0
-0
-0
-0
-5.293802
-5.399352
-5.546208
-5.743677
-6.003003
-0
-0
-0
-0
-0
-0
-5.045619
-5.142363
-5.276178
-5.454952
-5.687866
-0
-0
-0
-0
-0
-0
-0
-11.64156
-9.990507
-11.21169
-8.955674
-9.598684
-10.88391
-8.209373
-8.618779
-9.311417
-10.66586
-7.622526
-7.917008
-8.373622
-9.122536
-10.54464
-7.13276
-7.362408
-7.701577
-8.210475
-9.016848
-0
-6.705278
-6.892784
-7.163711
-7.550761
-8.112495
-0
-0
-6.315576
-6.473576
-6.698435
-7.01203
-7.445946
-0
-0
-0
-5.951374
-6.087157
-6.278724
-6.541397
-6.896072
-0
-0
-0
-0
-5.618182
-5.737403
-5.904327
-6.130825
-6.431634
-0
-0
-0
-0
-0
-5.320863
-5.427622
-5.576193
-5.77606
-6.038723
-0
-0
-0
-0
-0
-0
-5.058749
-5.156022
-5.290581
-5.470383
-5.704702
-0
-0
-0
-0
-0
-0
-0
-4.828696
-4.918616
-5.042291
-5.206548
-5.419229
-0
-0
-0
-0
-0
-0
-0
-0
-11.46445
-9.956301
-11.11822
-8.950689
-9.585514
-10.84398
-8.209373
-8.618779
-9.311417
-10.66586
-7.622743
-7.918523
-8.378003
-9.134666
-10.58355
-7.13489
-7.366067
-7.708046
-8.223047
-9.045788
-0
-6.714424
-6.903746
-7.177601
-7.569842
-8.142278
-0
-0
-6.338847
-6.499238
-6.72766
-7.046851
-7.490185
-0
-0
-0
-5.990993
-6.129613
-6.325317
-6.594091
-6.958067
-0
-0
-0
-0
-5.6617
-5.783343
-5.953729
-6.185184
-6.493116
-0
-0
-0
-0
-0
-5.357386
-5.465834
-5.616804
-5.820034
-6.087401
-0
-0
-0
-0
-0
-0
-5.083654
-5.181936
-5.317921
-5.499703
-5.736735
-0
-0
-0
-0
-0
-0
-0
-4.840844
-4.931213
-5.05552
-5.220645
-5.4345
-0
-0
-0
-0
-0
-0
-0
-0
-4.626705
-4.710819
-4.825881
-4.97787
-5.173558
-0
-0
-0
-0
-0
-0
-0
-0
-0
-11.18671
-9.889017
-10.95485
-8.935936
-9.553764
-10.75555
-8.207723
-8.614149
-9.298926
-10.62698
-7.622743
-7.918523
-8.378003
-9.134666
-10.58355
-7.134409
-7.366237
-7.709457
-8.227275
-9.057828
-0
-6.715482
-6.905692
-7.181026
-7.576045
-8.154631
-0
-0
-6.346215
-6.507819
-6.738066
-7.06023
-7.50887
-0
-0
-0
-6.011281
-6.151643
-6.34988
-6.622425
-6.992299
-0
-0
-0
-0
-5.697202
-5.821045
-5.994586
-6.230595
-6.545166
-0
-0
-0
-0
-0
-5.396983
-5.507383
-5.661133
-5.868276
-6.141152
-0
-0
-0
-0
-0
-0
-5.11721
-5.216893
-5.354862
-5.539405
-5.780235
-0
-0
-0
-0
-0
-0
-0
-4.863875
-4.955098
-5.080611
-5.247399
-5.463513
-0
-0
-0
-0
-0
-0
-0
-0
-4.637988
-4.72249
-4.838095
-4.990826
-5.187512
-0
-0
-0
-0
-0
-0
-0
-0
-0
-4.437954
-4.517052
-4.624678
-4.766127
-4.947326
-0
-0
-0
-0
-0
-0
-0
-0
-0
-0
-10.82172
-9.768409
-10.69788
-8.900614
-9.491221
-10.60084
-8.200355
-8.600412
-9.268815
-10.54091
-7.622526
-7.917008
-8.373622
-9.122536
-10.54464
-7.134409
-7.366237
-7.709457
-8.227275
-9.057828
-0
-6.714636
-6.905204
-7.181152
-7.577381
-8.158787
-0
-0
-6.346594
-6.508757
-6.739858
-7.063478
-7.514904
-0
-0
-0
-6.017352
-6.158558
-6.358023
-6.632435
-7.00536
-0
-0
-0
-0
-5.715123
-5.840282
-6.015696
-6.254422
-6.57301
-0
-0
-0
-0
-0
-5.429082
-5.541225
-5.697461
-5.908127
-6.186015
-0
-0
-0
-0
-0
-0
-5.153473
-5.25476
-5.395005
-5.582728
-5.827953
-0
-0
-0
-0
-0
-0
-0
-4.894862
-4.987264
-5.114446
-5.283543
-5.502802
-0
-0
-0
-0
-0
-0
-0
-0
-4.659376
-4.74461
-4.861248
-5.015399
-5.213998
-0
-0
-0
-0
-0
-0
-0
-0
-0
-4.448471
-4.527906
-4.636005
-4.778098
-4.960157
-0
-0
-0
-0
-0
-0
-0
-0
-0
-0
-4.261026
-4.335742
-4.436861
-4.569127
-4.737785
-0
-0
-0
-0
-0
-0
-0
-0
-0
-0
-10.48449
-9.590164
-10.35899
-8.82754
-9.378861
-10.35701
-8.178098
-8.56744
-9.209464
-10.39033
-7.618571
-7.910153
-8.360603
-9.093326
-10.45858
-7.13489
-7.366067
-7.708046
-8.223047
-9.045788
-0
-6.714636
-6.905204
-7.181152
-7.577381
-8.158787
-0
-0
-6.345547
-6.507922
-6.739353
-7.063563
-7.516185
-0
-0
-0
-6.017285
-6.158856
-6.358854
-6.634102
-7.008476
-0
-0
-0
-0
-5.720212
-5.845982
-6.022257
-6.262248
-6.58276
-0
-0
-0
-0
-0
-5.445085
-5.558244
-5.715917
-5.928618
-6.209428
-0
-0
-0
-0
-0
-0
-5.18271
-5.285405
-5.427654
-5.61819
-5.867334
-0
-0
-0
-0
-0
-0
-0
-4.928255
-5.021994
-5.151074
-5.322807
-5.545671
-0
-0
-0
-0
-0
-0
-0
-0
-4.688116
-4.774355
-4.892416
-5.048528
-5.249778
-0
-0
-0
-0
-0
-0
-0
-0
-0
-4.468404
-4.548475
-4.657469
-4.800788
-4.98449
-0
-0
-0
-0
-0
-0
-0
-0
-0
-0
-4.270857
-4.345872
-4.447406
-4.580236
-4.749644
-0
-0
-0
-0
-0
-0
-0
-0
-0
-0
-4.094734
-4.165571
-4.260943
-4.385112
-4.542774
-0
-0
-0
-0
-0
-0
-0
-0
-0
-0
-10.22622
-9.407285
-10.04549
-8.709637
-9.212368
-10.03463
-8.126273
-8.499054
-9.102657
-10.15285
-7.602957
-7.88933
-8.329291
-9.035775
-10.30822
-7.13276
-7.362408
-7.701577
-8.210475
-9.016848
-0
-6.715482
-6.905692
-7.181026
-7.576045
-8.154631
-0
-0
-6.345547
-6.507922
-6.739353
-7.063563
-7.516185
-0
-0
-0
-6.016127
-6.15783
-6.358018
-6.633575
-7.00852
-0
-0
-0
-0
-5.71984
-5.845859
-6.022479
-6.262986
-6.584322
-0
-0
-0
-0
-0
-5.449412
-5.563021
-5.721324
-5.934918
-6.217038
-0
-0
-0
-0
-0
-0
-5.19713
-5.300625
-5.444
-5.636117
-5.887472
-0
-0
-0
-0
-0
-0
-0
-4.955056
-5.049949
-5.180674
-5.354701
-5.580724
-0
-0
-0
-0
-0
-0
-0
-0
-4.719012
-4.806382
-4.926049
-5.084381
-5.288643
-0
-0
-0
-0
-0
-0
-0
-0
-0
-4.495159
-4.576099
-4.686322
-4.831329
-5.017298
-0
-0
-0
-0
-0
-0
-0
-0
-0
-0
-4.289492
-4.365065
-4.467384
-4.601286
-4.772121
-0
-0
-0
-0
-0
-0
-0
-0
-0
-0
-4.103952
-4.175052
-4.270793
-4.395461
-4.553783
-0
-0
-0
-0
-0
-0
-0
-0
-0
-0
-3.93808
-4.005437
-4.095677
-4.212647
-4.360564
-0
-0
-0
-0
-0
-0
-0
-0
-0
-0
-10.05528
-9.256423
-9.805135
-8.58144
-9.04139
-9.73648
-8.037566
-8.38844
-8.943993
-9.83837
-7.56297
-7.840676
-8.264177
-8.932093
-10.07121
-7.121069
-7.347779
-7.681801
-8.180193
-8.959906
-0
-6.714424
-6.903746
-7.177601
-7.569842
-8.142278
-0
-0
-6.346594
-6.508757
-6.739858
-7.063478
-7.514904
-0
-0
-0
-6.016127
-6.15783
-6.358018
-6.633575
-7.00852
-0
-0
-0
-0
-5.718627
-5.844727
-6.021459
-6.262137
-6.583764
-0
-0
-0
-0
-0
-5.448833
-5.562612
-5.721145
-5.935068
-6.217691
-0
-0
-0
-0
-0
-0
-5.200855
-5.304688
-5.448531
-5.641304
-5.89359
-0
-0
-0
-0
-0
-0
-0
-4.968151
-5.063682
-5.195308
-5.370589
-5.598347
-0
-0
-0
-0
-0
-0
-0
-0
-4.743712
-4.832044
-4.95308
-5.113319
-5.320182
-0
-0
-0
-0
-0
-0
-0
-0
-0
-4.52386
-4.605771
-4.71737
-4.864273
-5.052801
-0
-0
-0
-0
-0
-0
-0
-0
-0
-0
-4.314483
-4.390814
-4.494207
-4.629577
-4.802376
-0
-0
-0
-0
-0
-0
-0
-0
-0
-0
-4.121426
-4.193016
-4.289453
-4.415066
-4.574642
-0
-0
-0
-0
-0
-0
-0
-0
-0
-0
-3.946745
-4.014335
-4.104904
-4.22232
-4.370823
-0
-0
-0
-0
-0
-0
-0
-0
-0
-0
-3.790201
-3.854409
-3.940016
-4.050524
-4.189741
-0
-0
-0
-0
-0
-0
-0
-0
-0
-0
-9.970726
-9.151598
-9.645908
-8.471766
-8.900244
-9.507929
-7.937554
-8.268061
-8.781032
-9.548093
-7.491659
-7.757179
-8.158556
-8.777711
-9.757196
-7.088655
-7.310146
-7.635411
-8.117065
-8.857266
-0
-6.705278
-6.892784
-7.163711
-7.550761
-8.112495
-0
-0
-6.346215
-6.507819
-6.738066
-7.06023
-7.50887
-0
-0
-0
-6.017285
-6.158856
-6.358854
-6.634102
-7.008476
-0
-0
-0
-0
-5.718627
-5.844727
-6.021459
-6.262137
-6.583764
-0
-0
-0
-0
-0
-5.447597
-5.561425
-5.720024
-5.934042
-6.216819
-0
-0
-0
-0
-0
-0
-5.200136
-5.304083
-5.448079
-5.641069
-5.893671
-0
-0
-0
-0
-0
-0
-0
-4.971396
-5.067181
-5.19916
-5.374933
-5.603379
-0
-0
-0
-0
-0
-0
-0
-0
-4.755681
-4.844531
-4.966299
-5.127553
-5.335806
-0
-0
-0
-0
-0
-0
-0
-0
-0
-4.546728
-4.629453
-4.74221
-4.890718
-5.081426
-0
-0
-0
-0
-0
-0
-0
-0
-0
-0
-4.341244
-4.418413
-4.523001
-4.66001
-4.835009
-0
-0
-0
-0
-0
-0
-0
-0
-0
-0
-4.144844
-4.217097
-4.314479
-4.441384
-4.602677
-0
-0
-0
-0
-0
-0
-0
-0
-0
-0
-3.963175
-4.031201
-4.122384
-4.240642
-4.390256
-0
-0
-0
-0
-0
-0
-0
-0
-0
-0
-3.798363
-3.862783
-3.948684
-4.05959
-4.199331
-0
-0
-0
-0
-0
-0
-0
-0
-0
-0
-3.650332
-3.711684
-3.793081
-3.897736
-4.029117
-0
-0
-0
-0
-0
-0
-0
-0
-0
-0
-9.098285
-9.567097
-8.393856
-8.802108
-9.356498
-7.850095
-8.165005
-8.646488
-9.325866
-7.409263
-7.662945
-8.043556
-8.619258
-9.468324
-7.029055
-7.242841
-7.555541
-8.014345
-8.704113
-0
-6.678121
-6.862212
-7.127782
-7.505805
-8.050248
-0
-0
-6.338847
-6.499238
-6.72766
-7.046851
-7.490185
-0
-0
-0
-6.017352
-6.158558
-6.358023
-6.632435
-7.00536
-0
-0
-0
-0
-5.71984
-5.845859
-6.022479
-6.262986
-6.584322
-0
-0
-0
-0
-0
-5.447597
-5.561425
-5.720024
-5.934042
-6.216819
-0
-0
-0
-0
-0
-0
-5.1989
-5.302875
-5.446907
-5.639946
-5.892626
-0
-0
-0
-0
-0
-0
-0
-4.970583
-5.066443
-5.198523
-5.374437
-5.603086
-0
-0
-0
-0
-0
-0
-0
-0
-4.758535
-4.847579
-4.969614
-5.131244
-5.340016
-0
-0
-0
-0
-0
-0
-0
-0
-0
-4.557732
-4.640882
-4.754242
-4.903584
-5.095427
-0
-0
-0
-0
-0
-0
-0
-0
-0
-0
-4.362508
-4.440366
-4.545947
-4.684328
-4.861178
-0
-0
-0
-0
-0
-0
-0
-0
-0
-0
-0
-4.169881
-4.24286
-4.341286
-4.469625
-4.632833
-0
-0
-0
-0
-0
-0
-0
-0
-0
-0
-3.985178
-4.05379
-4.145809
-4.265211
-4.416343
-0
-0
-0
-0
-0
-0
-0
-0
-0
-0
-3.813845
-3.878657
-3.965109
-4.076765
-4.217498
-0
-0
-0
-0
-0
-0
-0
-0
-0
-0
-3.658037
-3.719579
-3.801243
-3.906257
-4.038108
-0
-0
-0
-0
-0
-0
-0
-0
-0
-0
-3.517819
-3.576548
-3.654108
-3.753433
-3.877699
-0
-0
-0
-0
-0
-0
-0
-0
-0
-0
-8.353731
-8.752173
-9.281532
-7.787166
-8.091758
-8.552922
-9.178717
-7.336144
-7.58048
-7.94508
-8.488509
-9.247705
-6.958944
-7.164983
-7.465333
-7.902508
-8.547137
-0
-6.62698
-6.805827
-7.063297
-7.428113
-7.94862
-0
-0
-6.315576
-6.473576
-6.698435
-7.01203
-7.445946
-0
-0
-0
-6.011281
-6.151643
-6.34988
-6.622425
-6.992299
-0
-0
-0
-0
-5.720212
-5.845982
-6.022257
-6.262248
-6.58276
-0
-0
-0
-0
-0
-5.448833
-5.562612
-5.721145
-5.935068
-6.217691
-0
-0
-0
-0
-0
-0
-5.1989
-5.302875
-5.446907
-5.639946
-5.892626
-0
-0
-0
-0
-0
-0
-0
-4.969363
-5.065235
-5.19733
-5.373265
-5.601949
-0
-0
-0
-0
-0
-0
-0
-0
-4.757662
-4.846753
-4.968852
-5.13057
-5.339471
-0
-0
-0
-0
-0
-0
-0
-0
-0
-4.560265
-4.643562
-4.757129
-4.90676
-5.099002
-0
-0
-0
-0
-0
-0
-0
-0
-0
-0
-4.37268
-4.450885
-4.55697
-4.696047
-4.873838
-0
-0
-0
-0
-0
-0
-0
-0
-0
-0
-0
-4.189729
-4.263298
-4.362577
-4.492104
-4.656905
-0
-0
-0
-0
-0
-0
-0
-0
-0
-0
-0
-0
-4.008669
-4.077921
-4.170856
-4.291519
-4.444336
-0
-0
-0
-0
-0
-0
-0
-0
-0
-0
-3.834567
-3.899904
-3.987101
-4.099775
-4.24186
-0
-0
-0
-0
-0
-0
-0
-0
-0
-0
-3.67266
-3.734553
-3.816715
-3.922403
-4.055142
-0
-0
-0
-0
-0
-0
-0
-0
-0
-0
-3.525106
-3.584009
-3.66181
-3.761461
-3.886153
-0
-0
-0
-0
-0
-0
-0
-0
-0
-0
-3.392085
-3.44839
-3.522422
-3.616876
-3.734653
-0
-0
-0
-0
-0
-0
-0
-0
-0
-0
-7.754519
-8.054019
-8.505304
-9.10589
-7.283095
-7.521115
-7.87507
-8.3976
-9.101812
-6.896067
-7.095841
-7.386361
-7.806759
-8.417754
-0
-6.565991
-6.739413
-6.988625
-7.340329
-7.838018
-0
-0
-6.27088
-6.425091
-6.644329
-6.94927
-7.36917
-0
-0
-0
-5.990993
-6.129613
-6.325317
-6.594091
-6.958067
-0
-0
-0
-0
-5.715123
-5.840282
-6.015696
-6.254422
-6.57301
-0
-0
-0
-0
-0
-5.449412
-5.563021
-5.721324
-5.934918
-6.217038
-0
-0
-0
-0
-0
-0
-5.200136
-5.304083
-5.448079
-5.641069
-5.893671
-0
-0
-0
-0
-0
-0
-0
-4.969363
-5.065235
-5.19733
-5.373265
-5.601949
-0
-0
-0
-0
-0
-0
-0
-0
-4.756466
-4.845559
-4.967658
-5.129379
-5.338286
-0
-0
-0
-0
-0
-0
-0
-0
-0
-4.559357
-4.64268
-4.756285
-4.905967
-5.098287
-0
-0
-0
-0
-0
-0
-0
-0
-0
-0
-4.37495
-4.453264
-4.559509
-4.698811
-4.876912
-0
-0
-0
-0
-0
-0
-0
-0
-0
-0
-0
-4.199177
-4.273034
-4.372732
-4.502847
-4.668442
-0
-0
-0
-0
-0
-0
-0
-0
-0
-0
-0
-0
-4.027256
-4.09702
-4.190696
-4.312391
-4.466596
-0
-0
-0
-0
-0
-0
-0
-0
-0
-0
-0
-0
-0
-3.856665
-3.92257
-4.010581
-4.124371
-4.267945
-0
-0
-0
-0
-0
-0
-0
-0
-0
-0
-3.692222
-3.754583
-3.837418
-3.944019
-4.077964
-0
-0
-0
-0
-0
-0
-0
-0
-0
-0
-3.538945
-3.598164
-3.676415
-3.776678
-3.90217
-0
-0
-0
-0
-0
-0
-0
-0
-0
-0
-3.39899
-3.455453
-3.529705
-3.624455
-3.742619
-0
-0
-0
-0
-0
-0
-0
-0
-0
-0
-3.272645
-3.326672
-3.397441
-3.487412
-3.599252
-0
-0
-0
-0
-0
-0
-0
-0
-0
-0
-7.255443
-7.490305
-7.83899
-8.351337
-9.029655
-6.850177
-7.045651
-7.329494
-7.738691
-8.327848
-0
-6.510849
-6.679804
-6.922283
-7.263478
-7.743382
-0
-0
-6.216989
-6.367188
-6.580525
-6.876545
-7.282403
-0
-0
-0
-5.951374
-6.087157
-6.278724
-6.541397
-6.896072
-0
-0
-0
-0
-5.697202
-5.821045
-5.994586
-6.230595
-6.545166
-0
-0
-0
-0
-0
-5.445085
-5.558244
-5.715917
-5.928618
-6.209428
-0
-0
-0
-0
-0
-0
-5.200855
-5.304688
-5.448531
-5.641304
-5.89359
-0
-0
-0
-0
-0
-0
-0
-4.970583
-5.066443
-5.198523
-5.374437
-5.603086
-0
-0
-0
-0
-0
-0
-0
-0
-4.756466
-4.845559
-4.967658
-5.129379
-5.338286
-0
-0
-0
-0
-0
-0
-0
-0
-0
-4.558192
-4.641509
-4.755105
-4.904777
-5.097086
-0
-0
-0
-0
-0
-0
-0
-0
-0
-0
-4.374028
-4.452351
-4.558612
-4.697941
-4.876083
-0
-0
-0
-0
-0
-0
-0
-0
-0
-0
-0
-4.20123
-4.275166
-4.374986
-4.505277
-4.671115
-0
-0
-0
-0
-0
-0
-0
-0
-0
-0
-0
-0
-4.036066
-4.106073
-4.200102
-4.322294
-4.477175
-0
-0
-0
-0
-0
-0
-0
-0
-0
-0
-0
-0
-0
-3.874123
-3.940475
-4.029137
-4.143831
-4.28862
-0
-0
-0
-0
-0
-0
-0
-0
-0
-0
-0
-0
-0
-0
-3.713063
-3.775927
-3.85949
-3.967088
-4.102358
-0
-0
-0
-0
-0
-0
-0
-0
-0
-0
-3.55745
-3.617093
-3.695947
-3.797036
-3.923615
-0
-0
-0
-0
-0
-0
-0
-0
-0
-0
-3.412112
-3.468861
-3.543522
-3.638826
-3.757719
-0
-0
-0
-0
-0
-0
-0
-0
-0
-0
-3.279201
-3.33337
-3.40434
-3.494582
-3.606774
-0
-0
-0
-0
-0
-0
-0
-0
-0
-0
-3.159048
-3.210941
-3.278654
-3.364481
-3.470852
-0
-0
-0
-0
-0
-0
-0
-0
-0
-0
-6.826178
-7.01948
-7.299972
-7.70361
-8.282109
-0
-6.470426
-6.636278
-6.874111
-7.208135
-7.676123
-0
-0
-6.167949
-6.314794
-6.523229
-6.811923
-7.206466
-0
-0
-0
-5.903174
-6.035889
-6.223009
-6.479201
-6.824194
-0
-0
-0
-0
-5.6617
-5.783343
-5.953729
-6.185184
-6.493116
-0
-0
-0
-0
-0
-5.429082
-5.541225
-5.697461
-5.908127
-6.186015
-0
-0
-0
-0
-0
-0
-5.19713
-5.300625
-5.444
-5.636117
-5.887472
-0
-0
-0
-0
-0
-0
-0
-4.971396
-5.067181
-5.19916
-5.374933
-5.603379
-0
-0
-0
-0
-0
-0
-0
-0
-4.757662
-4.846753
-4.968852
-5.13057
-5.339471
-0
-0
-0
-0
-0
-0
-0
-0
-0
-4.558192
-4.641509
-4.755105
-4.904777
-5.097086
-0
-0
-0
-0
-0
-0
-0
-0
-0
-0
-4.372899
-4.45121
-4.557455
-4.696766
-4.874885
-0
-0
-0
-0
-0
-0
-0
-0
-0
-0
-0
-4.200307
-4.27424
-4.37406
-4.504358
-4.670214
-0
-0
-0
-0
-0
-0
-0
-0
-0
-0
-0
-0
-4.037934
-4.108002
-4.202123
-4.32445
-4.479524
-0
-0
-0
-0
-0
-0
-0
-0
-0
-0
-0
-0
-0
-3.882371
-3.948925
-4.037892
-4.15301
-4.298376
-0
-0
-0
-0
-0
-0
-0
-0
-0
-0
-0
-0
-0
-0
-3.729508
-3.792762
-3.8769
-3.9853
-4.121641
-0
-0
-0
-0
-0
-0
-0
-0
-0
-0
-0
-0
-0
-0
-0
-3.577149
-3.637241
-3.716747
-3.818734
-3.946502
-0
-0
-0
-0
-0
-0
-0
-0
-0
-0
-3.429654
-3.486783
-3.561993
-3.658043
-3.777922
-0
-0
-0
-0
-0
-0
-0
-0
-0
-0
-3.291665
-3.346095
-3.417437
-3.508185
-3.621038
-0
-0
-0
-0
-0
-0
-0
-0
-0
-0
-3.16528
-3.217305
-3.285202
-3.371276
-3.47797
-0
-0
-0
-0
-0
-0
-0
-0
-0
-0
-3.050929
-3.100775
-3.165633
-3.247586
-3.348902
-0
-0
-0
-0
-0
-0
-0
-0
-0
-0
-6.449236
-6.613507
-6.848984
-7.179402
-7.641465
-0
-0
-6.131873
-6.276367
-6.481377
-6.764994
-7.151788
-0
-0
-0
-5.85908
-5.989197
-6.172567
-6.423337
-6.760333
-0
-0
-0
-0
-5.618182
-5.737403
-5.904327
-6.130825
-6.431634
-0
-0
-0
-0
-0
-5.396983
-5.507383
-5.661133
-5.868276
-6.141152
-0
-0
-0
-0
-0
-0
-5.18271
-5.285405
-5.427654
-5.61819
-5.867334
-0
-0
-0
-0
-0
-0
-0
-4.968151
-5.063682
-5.195308
-5.370589
-5.598347
-0
-0
-0
-0
-0
-0
-0
-0
-4.758535
-4.847579
-4.969614
-5.131244
-5.340016
-0
-0
-0
-0
-0
-0
-0
-0
-0
-4.559357
-4.64268
-4.756285
-4.905967
-5.098287
-0
-0
-0
-0
-0
-0
-0
-0
-0
-0
-4.372899
-4.45121
-4.557455
-4.696766
-4.874885
-0
-0
-0
-0
-0
-0
-0
-0
-0
-0
-0
-4.199217
-4.273134
-4.372932
-4.503205
-4.669031
-0
-0
-0
-0
-0
-0
-0
-0
-0
-0
-0
-0
-4.03702
-4.107077
-4.201186
-4.323506
-4.478578
-0
-0
-0
-0
-0
-0
-0
-0
-0
-0
-0
-0
-0
-3.884088
-3.950682
-4.03972
-4.154943
-4.30046
-0
-0
-0
-0
-0
-0
-0
-0
-0
-0
-0
-0
-0
-0
-3.737257
-3.800682
-3.885079
-3.993848
-4.130687
-0
-0
-0
-0
-0
-0
-0
-0
-0
-0
-0
-0
-0
-0
-0
-3.592679
-3.653115
-3.73313
-3.83583
-3.964553
-0
-0
-0
-0
-0
-0
-0
-0
-0
-0
-0
-0
-0
-0
-0
-0
-3.448314
-3.505846
-3.581643
-3.678501
-3.799453
-0
-0
-0
-0
-0
-0
-0
-0
-0
-0
-3.308324
-3.363099
-3.434938
-3.526366
-3.640112
-0
-0
-0
-0
-0
-0
-0
-0
-0
-0
-3.17714
-3.229402
-3.297639
-3.384175
-3.491474
-0
-0
-0
-0
-0
-0
-0
-0
-0
-0
-3.056863
-3.10683
-3.171858
-3.254038
-3.355649
-0
-0
-0
-0
-0
-0
-0
-0
-0
-0
-2.947905
-2.995834
-3.057976
-3.136316
-3.232914
-0
-0
-0
-0
-0
-0
-0
-0
-0
-0
-6.112927
-6.256214
-6.459476
-6.740514
-7.123403
-0
-0
-0
-5.826551
-5.954832
-6.135558
-6.382525
-6.71396
-0
-0
-0
-0
-5.578194
-5.695342
-5.859307
-6.081597
-6.376412
-0
-0
-0
-0
-0
-5.357386
-5.465834
-5.616804
-5.820034
-6.087401
-0
-0
-0
-0
-0
-0
-5.153473
-5.25476
-5.395005
-5.582728
-5.827953
-0
-0
-0
-0
-0
-0
-0
-4.955056
-5.049949
-5.180674
-5.354701
-5.580724
-0
-0
-0
-0
-0
-0
-0
-0
-4.755681
-4.844531
-4.966298
-5.127553
-5.335806
-0
-0
-0
-0
-0
-0
-0
-0
-0
-4.560265
-4.643562
-4.757129
-4.90676
-5.099002
-0
-0
-0
-0
-0
-0
-0
-0
-0
-0
-4.374028
-4.452351
-4.558612
-4.697941
-4.876083
-0
-0
-0
-0
-0
-0
-0
-0
-0
-0
-0
-4.199217
-4.273134
-4.372932
-4.503205
-4.669031
-0
-0
-0
-0
-0
-0
-0
-0
-0
-0
-0
-0
-4.035969
-4.106007
-4.200092
-4.322382
-4.477419
-0
-0
-0
-0
-0
-0
-0
-0
-0
-0
-0
-0
-0
-3.883191
-3.949765
-4.038785
-4.15399
-4.29949
-0
-0
-0
-0
-0
-0
-0
-0
-0
-0
-0
-0
-0
-0
-3.738844
-3.802296
-3.886744
-3.995597
-4.132554
-0
-0
-0
-0
-0
-0
-0
-0
-0
-0
-0
-0
-0
-0
-0
-3.599984
-3.660563
-3.740803
-3.843821
-3.972981
-0
-0
-0
-0
-0
-0
-0
-0
-0
-0
-0
-0
-0
-0
-0
-0
-3.463017
-3.52085
-3.597102
-3.694597
-3.816404
-0
-0
-0
-0
-0
-0
-0
-0
-0
-0
-0
-0
-0
-0
-0
-0
-0
-3.326036
-3.381173
-3.453541
-3.545702
-3.660419
-0
-0
-0
-0
-0
-0
-0
-0
-0
-0
-3.192989
-3.245565
-3.314254
-3.401409
-3.509524
-0
-0
-0
-0
-0
-0
-0
-0
-0
-0
-3.068164
-3.11835
-3.183689
-3.266293
-3.368458
-0
-0
-0
-0
-0
-0
-0
-0
-0
-0
-2.953563
-3.001604
-3.063902
-3.142451
-3.239322
-0
-0
-0
-0
-0
-0
-0
-0
-0
-0
-2.849656
-2.895759
-2.95536
-3.03028
-3.122483
-0
-0
-0
-0
-0
-0
-0
-0
-0
-0
-5.809443
-5.936776
-6.116144
-6.361166
-6.689771
-0
-0
-0
-0
-5.548624
-5.664296
-5.826161
-6.045474
-6.336072
-0
-0
-0
-0
-0
-5.320863
-5.427622
-5.576193
-5.77606
-6.038723
-0
-0
-0
-0
-0
-0
-5.11721
-5.216893
-5.354862
-5.539405
-5.780235
-0
-0
-0
-0
-0
-0
-0
-4.928255
-5.021994
-5.151074
-5.322807
-5.545671
-0
-0
-0
-0
-0
-0
-0
-0
-4.743712
-4.832044
-4.95308
-5.113319
-5.320182
-0
-0
-0
-0
-0
-0
-0
-0
-0
-4.557731
-4.640882
-4.754241
-4.903584
-5.095427
-0
-0
-0
-0
-0
-0
-0
-0
-0
-0
-4.37495
-4.453264
-4.559509
-4.698811
-4.876912
-0
-0
-0
-0
-0
-0
-0
-0
-0
-0
-0
-4.200307
-4.27424
-4.37406
-4.504358
-4.670214
-0
-0
-0
-0
-0
-0
-0
-0
-0
-0
-0
-0
-4.035969
-4.106007
-4.200092
-4.322382
-4.477419
-0
-0
-0
-0
-0
-0
-0
-0
-0
-0
-0
-0
-0
-3.882181
-3.948734
-4.037728
-4.1529
-4.298361
-0
-0
-0
-0
-0
-0
-0
-0
-0
-0
-0
-0
-0
-0
-3.737969
-3.801398
-3.88582
-3.994648
-4.131579
-0
-0
-0
-0
-0
-0
-0
-0
-0
-0
-0
-0
-0
-0
-0
-3.601462
-3.662057
-3.742333
-3.845414
-3.974669
-0
-0
-0
-0
-0
-0
-0
-0
-0
-0
-0
-0
-0
-0
-0
-0
-3.469926
-3.527879
-3.604323
-3.702097
-3.824285
-0
-0
-0
-0
-0
-0
-0
-0
-0
-0
-0
-0
-0
-0
-0
-0
-0
-3.339988
-3.395391
-3.468165
-3.560898
-3.676382
-0
-0
-0
-0
-0
-0
-0
-0
-0
-0
-0
-0
-0
-0
-0
-0
-0
-0
-3.209832
-3.262734
-3.331905
-3.419724
-3.528722
-0
-0
-0
-0
-0
-0
-0
-0
-0
-0
-3.083265
-3.133738
-3.199492
-3.282661
-3.385572
-0
-0
-0
-0
-0
-0
-0
-0
-0
-0
-2.964347
-3.012589
-3.075175
-3.154114
-3.251493
-0
-0
-0
-0
-0
-0
-0
-0
-0
-0
-2.855058
-2.901264
-2.96101
-3.036123
-3.128578
-0
-0
-0
-0
-0
-0
-0
-0
-0
-0
-2.75591
-2.800249
-2.857443
-2.929168
-3.017225
-0
-0
-0
-0
-0
-0
-0
-0
-0
-0
-5.533056
-5.647962
-5.808742
-6.026521
-6.314959
-0
-0
-0
-0
-0
-5.293802
-5.399352
-5.546208
-5.743677
-6.003003
-0
-0
-0
-0
-0
-0
-5.083654
-5.181936
-5.317921
-5.499703
-5.736735
-0
-0
-0
-0
-0
-0
-0
-4.894862
-4.987264
-5.114446
-5.283543
-5.502802
-0
-0
-0
-0
-0
-0
-0
-0
-4.719012
-4.806382
-4.926049
-5.084381
-5.288643
-0
-0
-0
-0
-0
-0
-0
-0
-0
-4.546728
-4.629453
-4.74221
-4.890718
-5.081426
-0
-0
-0
-0
-0
-0
-0
-0
-0
-0
-4.37268
-4.450885
-4.55697
-4.696046
-4.873838
-0
-0
-0
-0
-0
-0
-0
-0
-0
-0
-0
-4.20123
-4.275166
-4.374986
-4.505277
-4.671115
-0
-0
-0
-0
-0
-0
-0
-0
-0
-0
-0
-0
-4.03702
-4.107076
-4.201186
-4.323506
-4.478578
-0
-0
-0
-0
-0
-0
-0
-0
-0
-0
-0
-0
-0
-3.882181
-3.948734
-4.037728
-4.1529
-4.298361
-0
-0
-0
-0
-0
-0
-0
-0
-0
-0
-0
-0
-0
-0
-3.737001
-3.800406
-3.8848
-3.993594
-4.130485
-0
-0
-0
-0
-0
-0
-0
-0
-0
-0
-0
-0
-0
-0
-0
-3.600615
-3.661181
-3.741428
-3.844477
-3.973701
-0
-0
-0
-0
-0
-0
-0
-0
-0
-0
-0
-0
-0
-0
-0
-0
-3.471315
-3.529272
-3.60574
-3.703562
-3.825823
-0
-0
-0
-0
-0
-0
-0
-0
-0
-0
-0
-0
-0
-0
-0
-0
-0
-3.346542
-3.402046
-3.474985
-3.567962
-3.683782
-0
-0
-0
-0
-0
-0
-0
-0
-0
-0
-0
-0
-0
-0
-0
-0
-0
-0
-3.223098
-3.276238
-3.345772
-3.434106
-3.543797
-0
-0
-0
-0
-0
-0
-0
-0
-0
-0
-0
-0
-0
-0
-0
-0
-0
-0
-0
-3.099308
-3.150078
-3.21627
-3.300046
-3.403759
-0
-0
-0
-0
-0
-0
-0
-0
-0
-0
-2.978757
-3.027262
-3.090229
-3.169689
-3.267751
-0
-0
-0
-0
-0
-0
-0
-0
-0
-0
-2.865364
-2.911755
-2.971766
-3.04724
-3.140164
-0
-0
-0
-0
-0
-0
-0
-0
-0
-0
-2.761074
-2.805508
-2.862836
-2.934741
-3.023031
-0
-0
-0
-0
-0
-0
-0
-0
-0
-0
-2.666435
-2.709049
-2.763939
-2.832648
-2.916835
-0
-0
-0
-0
-0
-0
-0
-0
-0
-0
-5.279543
-5.384462
-5.530428
-5.726656
-5.984263
-0
-0
-0
-0
-0
-0
-5.058749
-5.156022
-5.290581
-5.470383
-5.704702
-0
-0
-0
-0
-0
-0
-0
-4.863875
-4.955098
-5.080611
-5.247399
-5.463513
-0
-0
-0
-0
-0
-0
-0
-0
-4.688116
-4.774355
-4.892416
-5.048528
-5.249778
-0
-0
-0
-0
-0
-0
-0
-0
-0
-4.523859
-4.605771
-4.71737
-4.864273
-5.052801
-0
-0
-0
-0
-0
-0
-0
-0
-0
-0
-4.362508
-4.440365
-4.545947
-4.684328
-4.861178
-0
-0
-0
-0
-0
-0
-0
-0
-0
-0
-0
-4.199177
-4.273033
-4.372732
-4.502847
-4.668441
-0
-0
-0
-0
-0
-0
-0
-0
-0
-0
-0
-0
-4.037935
-4.108002
-4.202123
-4.32445
-4.479524
-0
-0
-0
-0
-0
-0
-0
-0
-0
-0
-0
-0
-0
-3.883191
-3.949765
-4.038785
-4.15399
-4.29949
-0
-0
-0
-0
-0
-0
-0
-0
-0
-0
-0
-0
-0
-0
-3.737001
-3.800407
-3.8848
-3.993594
-4.130485
-0
-0
-0
-0
-0
-0
-0
-0
-0
-0
-0
-0
-0
-0
-0
-3.599688
-3.660229
-3.740447
-3.84346
-3.972643
-0
-0
-0
-0
-0
-0
-0
-0
-0
-0
-0
-0
-0
-0
-0
-0
-3.4705
-3.528424
-3.604858
-3.702645
-3.824867
-0
-0
-0
-0
-0
-0
-0
-0
-0
-0
-0
-0
-0
-0
-0
-0
-0
-3.347854
-3.403355
-3.476307
-3.569317
-3.685196
-0
-0
-0
-0
-0
-0
-0
-0
-0
-0
-0
-0
-0
-0
-0
-0
-0
-0
-3.229331
-3.282556
-3.352234
-3.44078
-3.550768
-0
-0
-0
-0
-0
-0
-0
-0
-0
-0
-0
-0
-0
-0
-0
-0
-0
-0
-0
-3.111945
-3.16293
-3.22945
-3.31369
-3.41803
-0
-0
-0
-0
-0
-0
-0
-0
-0
-0
-0
-0
-0
-0
-0
-0
-0
-0
-0
-0
-2.994063
-3.042839
-3.106208
-3.186221
-3.285018
-0
-0
-0
-0
-0
-0
-0
-0
-0
-0
-2.879136
-2.925767
-2.98613
-3.062083
-3.155636
-0
-0
-0
-0
-0
-0
-0
-0
-0
-0
-2.770935
-2.815541
-2.873114
-2.945352
-3.034076
-0
-0
-0
-0
-0
-0
-0
-0
-0
-0
-2.671378
-2.714079
-2.769094
-2.83797
-2.922373
-0
-0
-0
-0
-0
-0
-0
-0
-0
-0
-2.581011
-2.621944
-2.674605
-2.740442
-2.820985
-0
-0
-0
-0
-0
-0
-0
-0
-0
-0
-5.045619
-5.142363
-5.276178
-5.454952
-5.687866
-0
-0
-0
-0
-0
-0
-0
-4.840843
-4.931213
-5.05552
-5.220645
-5.4345
-0
-0
-0
-0
-0
-0
-0
-0
-4.659376
-4.744609
-4.861248
-5.015399
-5.213998
-0
-0
-0
-0
-0
-0
-0
-0
-0
-4.495158
-4.576099
-4.686322
-4.831329
-5.017298
-0
-0
-0
-0
-0
-0
-0
-0
-0
-0
-4.341243
-4.418412
-4.523001
-4.66001
-4.835009
-0
-0
-0
-0
-0
-0
-0
-0
-0
-0
-4.189729
-4.263298
-4.362577
-4.492104
-4.656905
-0
-0
-0
-0
-0
-0
-0
-0
-0
-0
-0
-0
-4.036066
-4.106073
-4.200102
-4.322294
-4.477176
-0
-0
-0
-0
-0
-0
-0
-0
-0
-0
-0
-0
-0
-3.884088
-3.950682
-4.03972
-4.154943
-4.300459
-0
-0
-0
-0
-0
-0
-0
-0
-0
-0
-0
-0
-0
-0
-3.737969
-3.801398
-3.88582
-3.994648
-4.131579
-0
-0
-0
-0
-0
-0
-0
-0
-0
-0
-0
-0
-0
-0
-0
-3.599688
-3.660229
-3.740447
-3.84346
-3.972643
-0
-0
-0
-0
-0
-0
-0
-0
-0
-0
-0
-0
-0
-0
-0
-0
-3.469613
-3.527511
-3.603916
-3.701667
-3.823847
-0
-0
-0
-0
-0
-0
-0
-0
-0
-0
-0
-0
-0
-0
-0
-0
-0
-3.347073
-3.402539
-3.475453
-3.568425
-3.684262
-0
-0
-0
-0
-0
-0
-0
-0
-0
-0
-0
-0
-0
-0
-0
-0
-0
-0
-3.230579
-3.283795
-3.353477
-3.442045
-3.552078
-0
-0
-0
-0
-0
-0
-0
-0
-0
-0
-0
-0
-0
-0
-0
-0
-0
-0
-0
-3.117887
-3.168944
-3.235589
-3.320017
-3.424619
-0
-0
-0
-0
-0
-0
-0
-0
-0
-0
-0
-0
-0
-0
-0
-0
-0
-0
-0
-0
-3.006123
-3.055091
-3.118758
-3.199194
-3.298561
-0
-0
-0
-0
-0
-0
-0
-0
-0
-0
-0
-0
-0
-0
-0
-0
-0
-0
-0
-0
-2.893761
-2.940639
-3.00137
-3.077833
-3.17206
-0
-0
-0
-0
-0
-0
-0
-0
-0
-0
-2.784112
-2.828941
-2.886838
-2.959519
-3.048825
-0
-0
-0
-0
-0
-0
-0
-0
-0
-0
-2.680827
-2.723686
-2.778929
-2.848113
-2.932918
-0
-0
-0
-0
-0
-0
-0
-0
-0
-0
-2.585747
-2.626762
-2.679539
-2.745532
-2.826274
-0
-0
-0
-0
-0
-0
-0
-0
-0
-0
-2.499531
-2.538725
-2.589237
-2.652318
-2.729403
-0
-0
-0
-0
-0
-0
-0
-0
-0
-0
-4.828696
-4.918616
-5.042291
-5.206548
-5.419229
-0
-0
-0
-0
-0
-0
-0
-0
-4.637988
-4.72249
-4.838095
-4.990826
-5.187512
-0
-0
-0
-0
-0
-0
-0
-0
-0
-4.468403
-4.548475
-4.657468
-4.800788
-4.98449
-0
-0
-0
-0
-0
-0
-0
-0
-0
-0
-4.314482
-4.390814
-4.494207
-4.629577
-4.802376
-0
-0
-0
-0
-0
-0
-0
-0
-0
-0
-4.16988
-4.24286
-4.341285
-4.469625
-4.632833
-0
-0
-0
-0
-0
-0
-0
-0
-0
-0
-4.027256
-4.09702
-4.190695
-4.31239
-4.466596
-0
-0
-0
-0
-0
-0
-0
-0
-0
-0
-0
-0
-0
-3.882371
-3.948925
-4.037891
-4.15301
-4.298376
-0
-0
-0
-0
-0
-0
-0
-0
-0
-0
-0
-0
-0
-0
-3.738844
-3.802296
-3.886744
-3.995597
-4.132554
-0
-0
-0
-0
-0
-0
-0
-0
-0
-0
-0
-0
-0
-0
-0
-3.600615
-3.661181
-3.741428
-3.844477
-3.9737
-0
-0
-0
-0
-0
-0
-0
-0
-0
-0
-0
-0
-0
-0
-0
-0
-3.469613
-3.527511
-3.603916
-3.701667
-3.823847
-0
-0
-0
-0
-0
-0
-0
-0
-0
-0
-0
-0
-0
-0
-0
-0
-0
-3.346226
-3.401666
-3.474549
-3.567485
-3.683281
-0
-0
-0
-0
-0
-0
-0
-0
-0
-0
-0
-0
-0
-0
-0
-0
-0
-0
-3.229833
-3.283013
-3.352656
-3.441182
-3.551169
-0
-0
-0
-0
-0
-0
-0
-0
-0
-0
-0
-0
-0
-0
-0
-0
-0
-0
-0
-3.11908
-3.170124
-3.236767
-3.321209
-3.425842
-0
-0
-0
-0
-0
-0
-0
-0
-0
-0
-0
-0
-0
-0
-0
-0
-0
-0
-0
-0
-3.011801
-3.06083
-3.124607
-3.205209
-3.304809
-0
-0
-0
-0
-0
-0
-0
-0
-0
-0
-0
-0
-0
-0
-0
-0
-0
-0
-0
-0
-2.905291
-2.95234
-3.013343
-3.090193
-3.18494
-0
-0
-0
-0
-0
-0
-0
-0
-0
-0
-0
-0
-0
-0
-0
-0
-0
-0
-0
-0
-2.798106
-2.843163
-2.901397
-2.974548
-3.064475
-0
-0
-0
-0
-0
-0
-0
-0
-0
-0
-2.693454
-2.736517
-2.79206
-2.861654
-2.946997
-0
-0
-0
-0
-0
-0
-0
-0
-0
-0
-2.59481
-2.635972
-2.688959
-2.75524
-2.836355
-0
-0
-0
-0
-0
-0
-0
-0
-0
-0
-2.504076
-2.543344
-2.593964
-2.657189
-2.734461
-0
-0
-0
-0
-0
-0
-0
-0
-0
-0
-2.421832
-2.459299