/*--------------------------------*- C++ -*----------------------------------*\
| =========                 |                                                 |
| \\      /  F ield         | OpenFOAM: The Open Source CFD Toolbox           |
|  \\    /   O peration     | Version:  2306                                  |
|   \\  /    A nd           | Website:  www.openfoam.com                      |
|    \\/     M anipulation  |                                                 |
\*---------------------------------------------------------------------------*/
FoamFile
{
    version     2.0;
    format      ascii;
    arch        "LSB;label=32;scalar=64";
    class       volScalarField;
    location    "1.2/fuel";
    object      iDmdtfuel.H2O;
}
// * * * * * * * * * * * * * * * * * * * * * * * * * * * * * * * * * * * * * //

dimensions      [1 -3 -1 0 0 0 0];

internalField   nonuniform List<scalar> 
16000
(
89.10266
89.85829
81.30616
85.49566
91.38591
81.78258
86.19995
74.65251
78.21316
82.94373
93.69391
82.71935
87.62287
75.01108
78.65939
83.61366
69.29769
71.97415
76.00702
81.37412
96.7075
84.06751
89.77077
75.70731
79.53638
84.96691
69.58944
72.3114
76.43256
82.02493
64.83774
66.93656
70.05255
74.63111
80.69285
99.96921
85.7018
92.57238
76.68741
80.79772
87.00934
70.1518
72.96597
77.26871
83.33992
65.08484
67.2119
70.37498
75.04454
81.33767
61.00164
62.72907
65.23567
68.84274
74.01246
0
102.4512
87.29467
95.60082
77.83303
82.32565
89.6737
70.93337
73.88692
78.47105
85.32583
65.55891
67.74241
71.00062
75.85693
82.64144
61.2161
62.96294
65.49949
69.15624
74.4212
0
57.63312
59.10112
61.20545
64.1582
68.28739
0
0
104.034
88.37248
97.89723
78.88666
83.8135
92.55466
71.82712
74.96268
79.92734
87.91987
66.21233
68.47934
71.88065
77.02537
84.61298
61.62619
63.41146
66.00768
69.76453
75.22464
0
57.82249
59.30461
61.42999
64.41497
68.59711
0
0
54.62772
55.9082
57.72463
60.23611
63.65777
0
0
0
104.9414
88.97376
99.35715
79.53968
84.8176
94.73363
72.61984
75.95117
81.34522
90.73018
66.94866
69.32146
72.90834
78.44137
87.19447
62.1881
64.02934
66.7134
70.62018
76.38086
0
58.18372
59.69358
61.86048
64.90954
69.19816
0
0
54.79704
56.08829
57.92035
60.45487
63.91143
0
0
0
51.91566
53.05357
54.65647
56.84609
59.78265
0
0
0
0
105.3519
89.27944
100.1924
79.85533
85.37651
96.11622
73.08298
76.5623
82.2997
92.85244
67.58593
70.06763
73.85221
79.82099
90.0006
62.81463
64.72512
67.51954
71.6196
77.78366
0
58.6765
60.22627
62.45334
65.59631
70.04387
0
0
55.11942
56.43169
58.29435
60.87425
64.40005
0
0
0
52.06855
53.21492
54.82997
57.03697
59.99881
0
0
0
0
49.44575
50.4726
51.90939
53.85557
56.43316
0
0
0
0
0
105.3519
89.40633
100.5697
79.98717
85.66024
96.90642
73.28187
76.85695
82.83008
94.1981
67.94326
70.50242
74.4341
80.74754
92.11867
63.34725
65.32658
68.23329
72.53755
79.15231
0
59.22153
60.81978
63.12063
66.38079
71.03226
0
0
55.55767
56.8999
58.80638
61.45174
65.07866
0
0
0
52.35924
53.52202
55.16069
57.40168
60.41322
0
0
0
0
49.58487
50.61857
52.06506
54.02493
56.62184
0
0
0
0
0
47.18025
48.11785
49.42226
51.17585
53.47793
0
0
0
0
0
0
104.9414
89.40633
100.5697
80.03172
85.77793
97.26323
73.34771
76.97971
83.09917
94.96727
68.0828
70.6885
74.71392
81.26184
93.46236
63.63691
65.66289
68.64785
73.1017
80.06954
0
59.67854
61.32365
63.6969
67.07507
71.94045
0
0
56.03926
57.41735
59.37656
62.10164
65.85405
0
0
0
52.75328
53.93928
55.61146
57.90091
60.98391
0
0
0
0
49.84912
50.896
52.36127
54.34775
56.98234
0
0
0
0
0
47.30767
48.25091
49.56328
51.32795
53.6454
0
0
0
0
0
0
45.0898
45.95435
47.15018
48.74778
50.82919
0
0
0
0
0
0
0
104.034
89.27944
100.1924
80.03172
85.77793
97.26323
73.36246
77.02109
83.2108
95.3147
68.11814
70.74976
74.83026
81.52287
94.23138
63.74139
65.79362
68.82457
73.3723
80.5784
0
59.92123
61.59686
64.01798
67.47682
72.49672
0
0
56.43868
57.85064
59.86007
62.66249
66.54015
0
0
0
53.18402
54.39743
56.10936
58.45671
61.62624
0
0
0
0
50.20647
51.27188
52.76358
54.78767
57.47582
0
0
0
0
0
47.5495
48.50355
49.83124
51.61733
53.9646
0
0
0
0
0
0
45.20714
46.07642
47.27889
48.88568
50.97965
0
0
0
0
0
0
0
43.15129
43.95485
45.06006
46.52794
48.42854
0
0
0
0
0
0
0
0
102.4512
88.97376
99.35715
79.98717
85.66024
96.90642
73.36246
77.02109
83.2108
95.3147
68.12008
70.7633
74.86941
81.63127
94.57915
63.76042
65.82632
68.88239
73.48466
80.83702
0
60.00296
61.69482
64.14211
67.64734
72.76287
0
0
56.64664
58.07997
60.12124
62.97367
66.93549
0
0
0
53.53807
54.77684
56.52574
58.92761
62.18026
0
0
0
0
50.59537
51.68242
53.20507
55.27344
58.02526
0
0
0
0
0
47.87589
48.84503
50.19416
52.01031
54.39961
0
0
0
0
0
0
45.4297
46.30799
47.52321
49.14769
51.26591
0
0
0
0
0
0
0
43.25984
44.06742
45.17828
46.65391
48.56501
0
0
0
0
0
0
0
0
41.34621
42.09789
43.12613
44.48437
46.23312
0
0
0
0
0
0
0
0
0
99.96921
88.37248
97.89723
79.85533
85.37651
96.11622
73.34771
76.97971
83.09917
94.96727
68.12008
70.7633
74.86941
81.63127
94.57915
63.75613
65.82784
68.895
73.52244
80.94461
0
60.01242
61.71221
64.17272
67.70277
72.87326
0
0
56.71248
58.15665
60.21423
63.09323
67.10247
0
0
0
53.71937
54.97371
56.74523
59.18082
62.48617
0
0
0
0
50.91263
52.01934
53.57018
55.67926
58.4904
0
0
0
0
0
48.22975
49.21633
50.5903
52.44142
54.87996
0
0
0
0
0
0
45.72957
46.62038
47.85333
49.50249
51.65464
0
0
0
0
0
0
0
43.46566
44.28087
45.4025
46.893
48.82429
0
0
0
0
0
0
0
0
41.44704
42.20218
43.23528
44.60015
46.35782
0
0
0
0
0
0
0
0
0
39.65945
40.36631
41.32809
42.59215
44.21141
0
0
0
0
0
0
0
0
0
0
96.7075
87.29467
95.60082
79.53968
84.8176
94.73363
73.28187
76.85695
82.83008
94.1981
68.11814
70.74976
74.83026
81.52287
94.23138
63.75613
65.82784
68.895
73.52244
80.94461
0
60.00486
61.70785
64.17384
67.71471
72.9104
0
0
56.71587
58.16503
60.23024
63.12226
67.15639
0
0
0
53.77363
55.0355
56.81801
59.27027
62.60288
0
0
0
0
51.07278
52.19125
53.75883
55.89218
58.73922
0
0
0
0
0
48.51659
49.51875
50.91494
52.79755
55.28087
0
0
0
0
0
0
46.05363
46.95878
48.21207
49.88964
52.08108
0
0
0
0
0
0
0
43.74258
44.56832
45.70487
47.216
49.17539
0
0
0
0
0
0
0
0
41.63817
42.39986
43.44218
44.81974
46.59451
0
0
0
0
0
0
0
0
0
39.75343
40.4633
41.42932
42.69913
44.32608
0
0
0
0
0
0
0
0
0
0
38.07834
38.74604
39.64968
40.83167
42.33887
0
0
0
0
0
0
0
0
0
0
93.69391
85.7018
92.57238
78.88666
83.8135
92.55466
73.08298
76.5623
82.2997
92.85244
68.0828
70.6885
74.71392
81.26184
93.46236
63.76042
65.82632
68.88239
73.48466
80.83702
0
60.00486
61.70785
64.17384
67.71471
72.9104
0
0
56.70651
58.15757
60.22574
63.12301
67.16784
0
0
0
53.77302
55.03817
56.82544
59.28516
62.63073
0
0
0
0
51.11825
52.24219
53.81746
55.96212
58.82635
0
0
0
0
0
48.6596
49.67084
51.07987
52.98066
55.4901
0
0
0
0
0
0
46.31491
47.23264
48.50383
50.20654
52.433
0
0
0
0
0
0
0
44.04099
44.87868
46.0322
47.56687
49.55848
0
0
0
0
0
0
0
0
41.895
42.66567
43.72072
45.1158
46.91425
0
0
0
0
0
0
0
0
0
39.93156
40.64711
41.62113
42.90189
44.54353
0
0
0
0
0
0
0
0
0
0
38.1662
38.83656
39.74392
40.93095
42.44484
0
0
0
0
0
0
0
0
0
0
36.59229
37.22532
38.07761
39.18723
40.59617
0
0
0
0
0
0
0
0
0
0
91.38591
84.06751
89.77077
77.83303
82.32565
89.6737
72.61984
75.95117
81.34522
90.73018
67.94326
70.50242
74.4341
80.74754
92.11867
63.74139
65.79362
68.82457
73.3723
80.5784
0
60.01242
61.71221
64.17272
67.70277
72.87326
0
0
56.70651
58.15757
60.22574
63.12301
67.16784
0
0
0
53.76268
55.02899
56.81796
59.28045
62.63112
0
0
0
0
51.11493
52.24109
53.81944
55.96871
58.84031
0
0
0
0
0
48.69827
49.71353
51.12819
53.03696
55.5581
0
0
0
0
0
0
46.44377
47.36865
48.64991
50.36674
52.61296
0
0
0
0
0
0
0
44.2805
45.1285
46.29671
47.85189
49.87173
0
0
0
0
0
0
0
0
42.1711
42.95188
44.02127
45.4362
47.26157
0
0
0
0
0
0
0
0
0
40.17066
40.89398
41.87898
43.17482
44.83672
0
0
0
0
0
0
0
0
0
0
38.33273
39.00808
39.92245
41.11905
42.64571
0
0
0
0
0
0
0
0
0
0
36.67466
37.31004
38.16563
39.27972
40.69455
0
0
0
0
0
0
0
0
0
0
35.19237
35.79429
36.60071
37.64601
38.96786
0
0
0
0
0
0
0
0
0
0
89.85829
82.71935
87.62287
76.68741
80.79772
87.00934
71.82712
74.96268
79.92734
87.91987
67.58593
70.06763
73.85221
79.82099
90.0006
63.63691
65.66289
68.64785
73.1017
80.06954
0
60.00296
61.69482
64.14211
67.64734
72.76287
0
0
56.71587
58.16503
60.23024
63.12226
67.15639
0
0
0
53.76268
55.02899
56.81796
59.28045
62.63112
0
0
0
0
51.10409
52.23097
53.81033
55.96113
58.83532
0
0
0
0
0
48.6931
49.70987
51.12659
53.0383
55.56394
0
0
0
0
0
0
46.47706
47.40495
48.6904
50.4131
52.66763
0
0
0
0
0
0
0
44.39752
45.25123
46.42749
47.99388
50.02922
0
0
0
0
0
0
0
0
42.39183
43.18121
44.26284
45.6948
47.54341
0
0
0
0
0
0
0
0
0
40.42714
41.15914
42.15643
43.46922
45.15398
0
0
0
0
0
0
0
0
0
0
38.55606
39.23819
40.16215
41.37188
42.91608
0
0
0
0
0
0
0
0
0
0
36.83083
37.47058
38.33239
39.45491
40.88095
0
0
0
0
0
0
0
0
0
0
35.26979
35.87381
36.68317
37.73245
39.05954
0
0
0
0
0
0
0
0
0
0
33.87085
34.44465
35.20966
36.19721
37.44131
0
0
0
0
0
0
0
0
0
0
89.10266
81.78258
86.19995
75.70731
79.53638
84.96691
70.93337
73.88692
78.47105
85.32583
66.94866
69.32146
72.90834
78.44137
87.19447
63.34725
65.32658
68.23329
72.53755
79.15231
0
59.92123
61.59686
64.01798
67.47682
72.49672
0
0
56.71248
58.15665
60.21423
63.09323
67.10247
0
0
0
53.77302
55.03817
56.82544
59.28516
62.63073
0
0
0
0
51.10409
52.23097
53.81033
55.96113
58.83532
0
0
0
0
0
48.68205
49.69927
51.11657
53.02913
55.55615
0
0
0
0
0
0
46.47063
47.39955
48.68636
50.411
52.66836
0
0
0
0
0
0
0
44.42651
45.28249
46.46191
48.03269
50.07419
0
0
0
0
0
0
0
0
42.4988
43.2928
44.38096
45.822
47.68304
0
0
0
0
0
0
0
0
0
40.6315
41.37077
42.37841
43.70555
45.40979
0
0
0
0
0
0
0
0
0
0
38.79521
39.48482
40.41946
41.64384
43.2077
0
0
0
0
0
0
0
0
0
0
37.04009
37.68578
38.55603
39.6901
41.13149
0
0
0
0
0
0
0
0
0
0
35.41662
36.02453
36.83939
37.89618
39.2332
0
0
0
0
0
0
0
0
0
0
33.94379
34.51947
35.28712
36.27823
37.52702
0
0
0
0
0
0
0
0
0
0
32.62093
33.16919
33.89659
34.83183
36.00591
0
0
0
0
0
0
0
0
0
0
81.30616
85.49566
75.01108
78.65939
83.61366
70.1518
72.96597
77.26871
83.33992
66.21233
68.47934
71.88065
77.02537
84.61298
62.81463
64.72512
67.51954
71.6196
77.78366
0
59.67854
61.32365
63.6969
67.07507
71.94045
0
0
56.64664
58.07997
60.12124
62.97367
66.93549
0
0
0
53.77363
55.0355
56.81801
59.27027
62.60288
0
0
0
0
51.11493
52.24109
53.81944
55.96871
58.84031
0
0
0
0
0
48.68205
49.69927
51.11657
53.02913
55.55615
0
0
0
0
0
0
46.45959
47.38875
48.67588
50.40096
52.65902
0
0
0
0
0
0
0
44.41925
45.27589
46.45622
48.02826
50.07157
0
0
0
0
0
0
0
0
42.5243
43.32003
44.41059
45.85498
47.72066
0
0
0
0
0
0
0
0
0
40.72984
41.4729
42.48593
43.82052
45.53491
0
0
0
0
0
0
0
0
0
0
38.98524
39.681
40.62452
41.86115
43.44156
0
0
0
0
0
0
0
0
0
0
0
37.26383
37.91601
38.79558
39.94247
41.40097
0
0
0
0
0
0
0
0
0
0
35.61325
36.2264
37.04872
38.11574
39.46633
0
0
0
0
0
0
0
0
0
0
34.08215
34.66133
35.4339
36.43171
37.68936
0
0
0
0
0
0
0
0
0
0
32.68978
33.23975
33.96953
34.90798
36.08626
0
0
0
0
0
0
0
0
0
0
31.43673
31.96156
32.65467
33.54227
34.65278
0
0
0
0
0
0
0
0
0
0
74.65251
78.21316
82.94373
69.58944
72.3114
76.43256
82.02493
65.55891
67.74241
71.00062
75.85693
82.64144
62.1881
64.02934
66.7134
70.62018
76.38086
0
59.22153
60.81978
63.12063
66.38079
71.03226
0
0
56.43868
57.85064
59.86007
62.66249
66.54015
0
0
0
53.71937
54.97371
56.74523
59.18082
62.48617
0
0
0
0
51.11825
52.24219
53.81746
55.96212
58.82635
0
0
0
0
0
48.6931
49.70987
51.12659
53.0383
55.56394
0
0
0
0
0
0
46.45959
47.38875
48.67588
50.40096
52.65902
0
0
0
0
0
0
0
44.40835
45.2651
46.44556
48.01778
50.0614
0
0
0
0
0
0
0
0
42.5165
43.31266
44.40378
45.84897
47.71579
0
0
0
0
0
0
0
0
0
40.75247
41.49685
42.51174
43.8489
45.56686
0
0
0
0
0
0
0
0
0
0
39.07613
39.77501
40.72302
41.96588
43.5547
0
0
0
0
0
0
0
0
0
0
0
37.44121
38.09865
38.98585
40.14336
41.61609
0
0
0
0
0
0
0
0
0
0
0
0
35.82318
36.44204
37.27255
38.35085
39.71648
0
0
0
0
0
0
0
0
0
0
34.26732
34.85121
35.63044
36.63734
37.90707
0
0
0
0
0
0
0
0
0
0
32.82046
33.37355
34.10779
35.05227
36.23848
0
0
0
0
0
0
0
0
0
0
31.50186
32.02823
32.7235
33.61402
34.72832
0
0
0
0
0
0
0
0
0
0
30.31312
30.81629
31.47786
32.32195
33.37445
0
0
0
0
0
0
0
0
0
0
69.29769
71.97415
76.00702
81.37412
65.08484
67.2119
70.37498
75.04454
81.33767
61.62619
63.41146
66.00768
69.76453
75.22464
0
58.6765
60.22627
62.45334
65.59631
70.04387
0
0
56.03926
57.41735
59.37656
62.10164
65.85405
0
0
0
53.53807
54.77684
56.52574
58.92761
62.18026
0
0
0
0
51.07278
52.19125
53.75883
55.89218
58.73922
0
0
0
0
0
48.69827
49.71353
51.12819
53.03696
55.5581
0
0
0
0
0
0
46.47063
47.39955
48.68636
50.411
52.66836
0
0
0
0
0
0
0
44.40835
45.2651
46.44556
48.01778
50.0614
0
0
0
0
0
0
0
0
42.50581
43.30199
44.39312
45.83832
47.70521
0
0
0
0
0
0
0
0
0
40.74436
41.48897
42.50419
43.84182
45.56047
0
0
0
0
0
0
0
0
0
0
39.09642
39.79627
40.74572
41.99058
43.58216
0
0
0
0
0
0
0
0
0
0
0
37.52563
38.18565
39.0766
40.23936
41.71919
0
0
0
0
0
0
0
0
0
0
0
0
35.98928
36.61272
37.44984
38.53736
39.91541
0
0
0
0
0
0
0
0
0
0
0
0
0
34.4648
35.05376
35.84026
36.85714
38.14018
0
0
0
0
0
0
0
0
0
0
32.99527
33.55256
34.2928
35.24544
36.44242
0
0
0
0
0
0
0
0
0
0
31.62552
32.15473
32.85402
33.75
34.87146
0
0
0
0
0
0
0
0
0
0
30.37483
30.8794
31.54295
32.38968
33.44564
0
0
0
0
0
0
0
0
0
0
29.24576
29.72856
30.36098
31.165
32.16445
0
0
0
0
0
0
0
0
0
0
64.83774
66.93656
70.05255
74.63111
80.69285
61.2161
62.96294
65.49949
69.15624
74.4212
0
58.18372
59.69358
61.86048
64.90954
69.19816
0
0
55.55767
56.8999
58.80638
61.45174
65.07866
0
0
0
53.18402
54.39743
56.10936
58.45671
61.62624
0
0
0
0
50.91263
52.01934
53.57018
55.67926
58.4904
0
0
0
0
0
48.6596
49.67084
51.07987
52.98066
55.4901
0
0
0
0
0
0
46.47706
47.40495
48.6904
50.4131
52.66763
0
0
0
0
0
0
0
44.41925
45.27589
46.45622
48.02826
50.07157
0
0
0
0
0
0
0
0
42.50581
43.30199
44.39312
45.83832
47.70521
0
0
0
0
0
0
0
0
0
40.73395
41.47851
42.49365
43.83118
45.54973
0
0
0
0
0
0
0
0
0
0
39.08818
39.78811
40.7377
41.98281
43.57476
0
0
0
0
0
0
0
0
0
0
0
37.54398
38.20471
39.09674
40.26107
41.74308
0
0
0
0
0
0
0
0
0
0
0
0
36.068
36.69362
37.5339
38.62586
40.00995
0
0
0
0
0
0
0
0
0
0
0
0
0
34.62082
35.21376
36.00609
37.03104
38.32494
0
0
0
0
0
0
0
0
0
0
0
0
0
0
33.18152
33.74329
34.49005
35.45159
36.66042
0
0
0
0
0
0
0
0
0
0
31.79089
32.32388
33.02856
33.93193
35.0631
0
0
0
0
0
0
0
0
0
0
30.49209
30.99922
31.66643
32.5181
33.58058
0
0
0
0
0
0
0
0
0
0
29.30434
29.78842
30.42264
31.22908
32.23167
0
0
0
0
0
0
0
0
0
0
28.2306
28.69434
29.29945
30.06643
31.01701
0
0
0
0
0
0
0
0
0
0
61.00164
62.72907
65.23567
68.84274
74.01246
0
57.82249
59.30461
61.42999
64.41497
68.59711
0
0
55.11942
56.43169
58.29435
60.87425
64.40005
0
0
0
52.75328
53.93928
55.61146
57.90091
60.98391
0
0
0
0
50.59537
51.68242
53.20507
55.27344
58.02526
0
0
0
0
0
48.51659
49.51875
50.91494
52.79755
55.28087
0
0
0
0
0
0
46.44377
47.36865
48.64991
50.36674
52.61296
0
0
0
0
0
0
0
44.42651
45.28249
46.46191
48.03269
50.07419
0
0
0
0
0
0
0
0
42.5165
43.31266
44.40378
45.84897
47.71579
0
0
0
0
0
0
0
0
0
40.73395
41.47851
42.49365
43.83118
45.54973
0
0
0
0
0
0
0
0
0
0
39.07809
39.77791
40.72736
41.9723
43.56405
0
0
0
0
0
0
0
0
0
0
0
37.53574
38.19643
39.08847
40.25287
41.73502
0
0
0
0
0
0
0
0
0
0
0
0
36.08471
36.71086
37.55196
38.64513
40.03094
0
0
0
0
0
0
0
0
0
0
0
0
0
34.69452
35.28928
36.08432
37.11307
38.41212
0
0
0
0
0
0
0
0
0
0
0
0
0
0
33.32848
33.89374
34.64563
35.61434
36.83274
0
0
0
0
0
0
0
0
0
0
0
0
0
0
0
31.96693
32.50394
33.21444
34.12584
35.26763
0
0
0
0
0
0
0
0
0
0
30.64885
31.15938
31.83149
32.68983
33.76112
0
0
0
0
0
0
0
0
0
0
29.41572
29.90213
30.53968
31.35064
32.35914
0
0
0
0
0
0
0
0
0
0
28.2863
28.75121
29.35797
30.12716
31.08063
0
0
0
0
0
0
0
0
0
0
27.2644
27.70985
28.28945
29.02181
29.92722
0
0
0
0
0
0
0
0
0
0
57.63312
59.10112
61.20545
64.1582
68.28739
0
0
54.79704
56.08829
57.92035
60.45487
63.91143
0
0
0
52.35924
53.52202
55.16069
57.40168
60.41322
0
0
0
0
50.20647
51.27188
52.76358
54.78767
57.47582
0
0
0
0
0
48.22975
49.21633
50.5903
52.44142
54.87996
0
0
0
0
0
0
46.31491
47.23264
48.50383
50.20654
52.433
0
0
0
0
0
0
0
44.39751
45.25123
46.42749
47.99388
50.02922
0
0
0
0
0
0
0
0
42.5243
43.32003
44.41059
45.85498
47.72066
0
0
0
0
0
0
0
0
0
40.74436
41.48897
42.50419
43.84182
45.56047
0
0
0
0
0
0
0
0
0
0
39.07809
39.77791
40.72736
41.9723
43.56405
0
0
0
0
0
0
0
0
0
0
0
37.52599
38.18654
39.07839
40.24256
41.72446
0
0
0
0
0
0
0
0
0
0
0
0
36.07653
36.70259
37.54359
38.63669
40.02248
0
0
0
0
0
0
0
0
0
0
0
0
0
34.70987
35.30498
36.10066
37.13034
38.43074
0
0
0
0
0
0
0
0
0
0
0
0
0
0
33.39772
33.96451
34.71872
35.69073
36.91358
0
0
0
0
0
0
0
0
0
0
0
0
0
0
0
32.10571
32.64579
33.36085
34.27861
35.42894
0
0
0
0
0
0
0
0
0
0
0
0
0
0
0
0
30.81561
31.32973
32.00709
32.87265
33.95354
0
0
0
0
0
0
0
0
0
0
29.5646
30.05409
30.69607
31.51311
32.5296
0
0
0
0
0
0
0
0
0
0
28.39228
28.85932
29.46911
30.24243
31.2013
0
0
0
0
0
0
0
0
0
0
27.31743
27.76396
28.34507
29.07947
29.98752
0
0
0
0
0
0
0
0
0
0
26.34374
26.77206
27.32738
28.02746
28.8907
0
0
0
0
0
0
0
0
0
0
54.62772
55.9082
57.72463
60.23611
63.65777
0
0
0
52.06855
53.21492
54.82997
57.03697
59.99881
0
0
0
0
49.84912
50.896
52.36127
54.34775
56.98234
0
0
0
0
0
47.87589
48.84503
50.19416
52.01031
54.39961
0
0
0
0
0
0
46.05363
46.95878
48.21207
49.88964
52.08108
0
0
0
0
0
0
0
44.2805
45.1285
46.29671
47.85189
49.87173
0
0
0
0
0
0
0
0
42.4988
43.2928
44.38096
45.822
47.68304
0
0
0
0
0
0
0
0
0
40.75247
41.49685
42.51174
43.8489
45.56686
0
0
0
0
0
0
0
0
0
0
39.08818
39.78811
40.7377
41.98281
43.57476
0
0
0
0
0
0
0
0
0
0
0
37.52599
38.18654
39.07839
40.24256
41.72446
0
0
0
0
0
0
0
0
0
0
0
0
36.06714
36.69303
37.53382
38.62665
40.01213
0
0
0
0
0
0
0
0
0
0
0
0
0
34.70185
35.29679
36.09231
37.12183
38.42208
0
0
0
0
0
0
0
0
0
0
0
0
0
0
33.41191
33.97894
34.7336
35.70636
36.93027
0
0
0
0
0
0
0
0
0
0
0
0
0
0
0
32.17099
32.71236
33.42941
34.35003
35.50425
0
0
0
0
0
0
0
0
0
0
0
0
0
0
0
0
30.947
31.46382
32.14524
33.01649
34.10501
0
0
0
0
0
0
0
0
0
0
0
0
0
0
0
0
0
29.72288
30.2156
30.86232
31.68591
32.71106
0
0
0
0
0
0
0
0
0
0
28.53391
29.00375
29.61759
30.39644
31.36261
0
0
0
0
0
0
0
0
0
0
27.41842
27.8669
28.45081
29.18898
30.10198
0
0
0
0
0
0
0
0
0
0
26.3943
26.82361
27.38033
28.08229
28.94796
0
0
0
0
0
0
0
0
0
0
25.46574
25.87774
26.41036
27.07987
27.90384
0
0
0
0
0
0
0
0
0
0
51.91566
53.05357
54.65647
56.84609
59.78265
0
0
0
0
49.58487
50.61857
52.06506
54.02493
56.62184
0
0
0
0
0
47.5495
48.50355
49.83124
51.61733
53.9646
0
0
0
0
0
0
45.72957
46.62038
47.85333
49.50249
51.65464
0
0
0
0
0
0
0
44.04099
44.87868
46.0322
47.56687
49.55848
0
0
0
0
0
0
0
0
42.39183
43.1812
44.26284
45.6948
47.54341
0
0
0
0
0
0
0
0
0
40.72983
41.4729
42.48593
43.82052
45.53491
0
0
0
0
0
0
0
0
0
0
39.09642
39.79627
40.74572
41.99058
43.58216
0
0
0
0
0
0
0
0
0
0
0
37.53574
38.19644
39.08847
40.25287
41.73502
0
0
0
0
0
0
0
0
0
0
0
0
36.06714
36.69303
37.53382
38.62665
40.01213
0
0
0
0
0
0
0
0
0
0
0
0
0
34.69283
35.28757
36.08286
37.11209
38.41199
0
0
0
0
0
0
0
0
0
0
0
0
0
0
33.40409
33.97091
34.72534
35.69788
36.92155
0
0
0
0
0
0
0
0
0
0
0
0
0
0
0
32.1842
32.7257
33.44309
34.36426
35.51934
0
0
0
0
0
0
0
0
0
0
0
0
0
0
0
0
31.00874
31.52663
32.20977
33.08352
34.17544
0
0
0
0
0
0
0
0
0
0
0
0
0
0
0
0
0
29.84756
30.34267
30.99301
31.82171
32.85372
0
0
0
0
0
0
0
0
0
0
0
0
0
0
0
0
0
0
28.68443
29.15719
29.77532
30.56011
31.53417
0
0
0
0
0
0
0
0
0
0
27.55337
28.00442
28.59202
29.33526
30.25491
0
0
0
0
0
0
0
0
0
0
26.49067
26.92178
27.48108
28.18651
29.05673
0
0
0
0
0
0
0
0
0
0
25.51402
25.92693
26.46085
27.13209
27.95831
0
0
0
0
0
0
0
0
0
0
24.62799
25.02422
25.53533
26.1763
26.96321
0
0
0
0
0
0
0
0
0
0
49.44575
50.4726
51.90939
53.85557
56.43316
0
0
0
0
0
47.30767
48.25091
49.56328
51.32795
53.6454
0
0
0
0
0
0
45.4297
46.30799
47.52321
49.14769
51.26591
0
0
0
0
0
0
0
43.74258
44.56832
45.70487
47.216
49.17539
0
0
0
0
0
0
0
0
42.1711
42.95188
44.02127
45.4362
47.26157
0
0
0
0
0
0
0
0
0
40.6315
41.37077
42.37841
43.70555
45.40979
0
0
0
0
0
0
0
0
0
0
39.07613
39.77501
40.72302
41.96588
43.5547
0
0
0
0
0
0
0
0
0
0
0
37.54398
38.20471
39.09674
40.26107
41.74308
0
0
0
0
0
0
0
0
0
0
0
0
36.07653
36.70259
37.54359
38.63669
40.02248
0
0
0
0
0
0
0
0
0
0
0
0
0
34.69283
35.28757
36.08286
37.11209
38.41199
0
0
0
0
0
0
0
0
0
0
0
0
0
0
33.39543
33.96205
34.71623
35.68846
36.91177
0
0
0
0
0
0
0
0
0
0
0
0
0
0
0
32.17664
32.71788
33.435
34.35588
35.51068
0
0
0
0
0
0
0
0
0
0
0
0
0
0
0
0
31.02115
31.53908
32.22243
33.09661
34.18919
0
0
0
0
0
0
0
0
0
0
0
0
0
0
0
0
0
29.90612
30.40213
31.05395
31.88483
32.91985
0
0
0
0
0
0
0
0
0
0
0
0
0
0
0
0
0
0
28.80298
29.27786
29.89925
30.68863
31.66888
0
0
0
0
0
0
0
0
0
0
0
0
0
0
0
0
0
0
0
27.69674
28.15045
28.74197
29.49062
30.41744
0
0
0
0
0
0
0
0
0
0
26.61944
27.05291
27.61561
28.32569
29.20202
0
0
0
0
0
0
0
0
0
0
25.60612
26.02068
26.55697
27.23143
28.06184
0
0
0
0
0
0
0
0
0
0
24.67413
25.07122
25.58353
26.2261
27.01509
0
0
0
0
0
0
0
0
0
0
23.82841
24.20922
24.69974
25.31375
26.06608
0
0
0
0
0
0
0
0
0
0
47.18025
48.11785
49.42226
51.17585
53.47793
0
0
0
0
0
0
45.20714
46.07642
47.27889
48.88568
50.97965
0
0
0
0
0
0
0
43.46566
44.28087
45.4025
46.893
48.82429
0
0
0
0
0
0
0
0
41.895
42.66567
43.72072
45.1158
46.91425
0
0
0
0
0
0
0
0
0
40.42714
41.15914
42.15643
43.46922
45.15398
0
0
0
0
0
0
0
0
0
0
38.98523
39.681
40.62452
41.86115
43.44156
0
0
0
0
0
0
0
0
0
0
0
37.52563
38.18565
39.0766
40.23936
41.71919
0
0
0
0
0
0
0
0
0
0
0
0
36.08471
36.71086
37.55196
38.64513
40.03094
0
0
0
0
0
0
0
0
0
0
0
0
0
34.70185
35.29679
36.09231
37.12183
38.42208
0
0
0
0
0
0
0
0
0
0
0
0
0
0
33.39543
33.96205
34.71623
35.68846
36.91177
0
0
0
0
0
0
0
0
0
0
0
0
0
0
0
32.16834
32.70937
33.42623
34.3468
35.50123
0
0
0
0
0
0
0
0
0
0
0
0
0
0
0
0
31.01387
31.5315
32.21455
33.08841
34.18065
0
0
0
0
0
0
0
0
0
0
0
0
0
0
0
0
0
29.91785
30.41383
31.06576
31.89694
32.93249
0
0
0
0
0
0
0
0
0
0
0
0
0
0
0
0
0
0
28.85868
29.33432
29.95699
30.74828
31.73118
0
0
0
0
0
0
0
0
0
0
0
0
0
0
0
0
0
0
0
27.80967
28.26529
28.85974
29.61255
30.54498
0
0
0
0
0
0
0
0
0
0
0
0
0
0
0
0
0
0
0
0
26.75622
27.19211
27.7584
28.47343
29.35633
0
0
0
0
0
0
0
0
0
0
25.72918
26.1459
26.68533
27.36408
28.20011
0
0
0
0
0
0
0
0
0
0
24.76226
25.16087
25.67538
26.32092
27.1138
0
0
0
0
0
0
0
0
0
0
23.87257
24.25417
24.74581
25.36131
26.11557
0
0
0
0
0
0
0
0
0
0
23.06501
23.43081
23.90141
24.48976
25.20952
0
0
0
0
0
0
0
0
0
0
45.0898
45.95435
47.15018
48.74778
50.82919
0
0
0
0
0
0
0
43.25984
44.06742
45.17828
46.65391
48.56501
0
0
0
0
0
0
0
0
41.63817
42.39985
43.44218
44.81974
46.59451
0
0
0
0
0
0
0
0
0
40.17065
40.89398
41.87897
43.17482
44.83672
0
0
0
0
0
0
0
0
0
0
38.7952
39.48482
40.41946
41.64384
43.2077
0
0
0
0
0
0
0
0
0
0
37.44121
38.09865
38.98585
40.14336
41.61609
0
0
0
0
0
0
0
0
0
0
0
0
36.068
36.69362
37.5339
38.62586
40.00995
0
0
0
0
0
0
0
0
0
0
0
0
0
34.70987
35.30498
36.10066
37.13034
38.43074
0
0
0
0
0
0
0
0
0
0
0
0
0
0
33.40409
33.97092
34.72534
35.69788
36.92155
0
0
0
0
0
0
0
0
0
0
0
0
0
0
0
32.16835
32.70937
33.42623
34.3468
35.50123
0
0
0
0
0
0
0
0
0
0
0
0
0
0
0
0
31.00594
31.52335
32.20613
33.07968
34.17153
0
0
0
0
0
0
0
0
0
0
0
0
0
0
0
0
0
29.91087
30.40654
31.05813
31.88897
32.92414
0
0
0
0
0
0
0
0
0
0
0
0
0
0
0
0
0
0
28.86983
29.34539
29.9681
30.75959
31.74288
0
0
0
0
0
0
0
0
0
0
0
0
0
0
0
0
0
0
0
27.86277
28.31904
28.9146
29.66909
30.60386
0
0
0
0
0
0
0
0
0
0
0
0
0
0
0
0
0
0
0
0
26.864
27.3016
27.87055
28.58936
29.47735
0
0
0
0
0
0
0
0
0
0
0
0
0
0
0
0
0
0
0
0
25.85988
26.2788
26.82152
27.50483
28.34688
0
0
0
0
0
0
0
0
0
0
24.88001
25.28063
25.79802
26.44753
27.2456
0
0
0
0
0
0
0
0
0
0
23.95701
24.34002
24.83369
25.45195
26.2098
0
0
0
0
0
0
0
0
0
0
23.10734
23.47386
23.9455
24.53524
25.25679
0
0
0
0
0
0
0
0
0
0
22.33688
22.68713
23.13853
23.70224
24.39111
0
0
0
0
0
0
0
0
0
0
43.15129
43.95485
45.06006
46.52794
48.42854
0
0
0
0
0
0
0
0
41.44704
42.20218
43.23528
44.60015
46.35782
0
0
0
0
0
0
0
0
0
39.93156
40.64711
41.62112
42.90189
44.54353
0
0
0
0
0
0
0
0
0
0
38.55605
39.23818
40.16216
41.37188
42.91608
0
0
0
0
0
0
0
0
0
0
37.26383
37.91601
38.79558
39.94248
41.40097
0
0
0
0
0
0
0
0
0
0
35.98928
36.61272
37.44984
38.53736
39.91541
0
0
0
0
0
0
0
0
0
0
0
0
0
34.69453
35.28928
36.08432
37.11307
38.41212
0
0
0
0
0
0
0
0
0
0
0
0
0
0
33.41191
33.97894
34.7336
35.70636
36.93027
0
0
0
0
0
0
0
0
0
0
0
0
0
0
0
32.17664
32.71788
33.435
34.35588
35.51068
0
0
0
0
0
0
0
0
0
0
0
0
0
0
0
0
31.00594
31.52335
32.20613
33.07968
34.17153
0
0
0
0
0
0
0
0
0
0
0
0
0
0
0
0
0
29.9033
30.39874
31.05006
31.88057
32.91537
0
0
0
0
0
0
0
0
0
0
0
0
0
0
0
0
0
0
28.86317
29.3384
29.96076
30.75187
31.73476
0
0
0
0
0
0
0
0
0
0
0
0
0
0
0
0
0
0
0
27.87343
28.32958
28.92513
29.67974
30.61479
0
0
0
0
0
0
0
0
0
0
0
0
0
0
0
0
0
0
0
0
26.91474
27.35288
27.92282
28.64312
29.53319
0
0
0
0
0
0
0
0
0
0
0
0
0
0
0
0
0
0
0
0
25.96292
26.38337
26.92852
27.61528
28.46198
0
0
0
0
0
0
0
0
0
0
0
0
0
0
0
0
0
0
0
0
25.00507
25.40771
25.92812
26.58183
27.38545
0
0
0
0
0
0
0
0
0
0
24.06985
24.45468
24.95104
25.57296
26.33562
0
0
0
0
0
0
0
0
0
0
23.18833
23.55617
24.02969
24.622
25.34688
0
0
0
0
0
0
0
0
0
0
22.37749
22.72841
23.18077
23.74578
24.43631
0
0
0
0
0
0
0
0
0
0
21.64252
21.97735
22.40931
22.94942
23.60877
0
0
0
0
0
0
0
0
0
0
41.34621
42.09789
43.12613
44.48437
46.23312
0
0
0
0
0
0
0
0
0
39.75343
40.4633
41.42931
42.69913
44.32608
0
0
0
0
0
0
0
0
0
0
38.33272
39.00807
39.92245
41.11905
42.64571
0
0
0
0
0
0
0
0
0
0
37.04009
37.68577
38.55602
39.6901
41.13149
0
0
0
0
0
0
0
0
0
0
35.82318
36.44204
37.27254
38.35084
39.71648
0
0
0
0
0
0
0
0
0
0
34.62082
35.21376
36.00609
37.03104
38.32493
0
0
0
0
0
0
0
0
0
0
0
0
0
0
33.39773
33.96452
34.71872
35.69073
36.91358
0
0
0
0
0
0
0
0
0
0
0
0
0
0
0
32.18421
32.7257
33.44309
34.36426
35.51934
0
0
0
0
0
0
0
0
0
0
0
0
0
0
0
0
31.01387
31.5315
32.21455
33.08842
34.18065
0
0
0
0
0
0
0
0
0
0
0
0
0
0
0
0
0
29.9033
30.39874
31.05006
31.88057
32.91537
0
0
0
0
0
0
0
0
0
0
0
0
0
0
0
0
0
0
28.85595
29.33095
29.95304
30.74382
31.72634
0
0
0
0
0
0
0
0
0
0
0
0
0
0
0
0
0
0
0
27.86709
28.32291
28.9181
29.67231
30.60694
0
0
0
0
0
0
0
0
0
0
0
0
0
0
0
0
0
0
0
0
26.92498
27.36298
27.93285
28.65321
29.54348
0
0
0
0
0
0
0
0
0
0
0
0
0
0
0
0
0
0
0
0
26.01151
26.43242
26.97842
27.66652
28.51508
0
0
0
0
0
0
0
0
0
0
0
0
0
0
0
0
0
0
0
0
25.10371
25.50777
26.03037
26.68724
27.49513
0
0
0
0
0
0
0
0
0
0
0
0
0
0
0
0
0
0
0
0
24.18969
24.57636
25.07552
25.7013
26.4691
0
0
0
0
0
0
0
0
0
0
23.29659
23.66612
24.14211
24.73783
25.46716
0
0
0
0
0
0
0
0
0
0
22.45529
22.80741
23.26153
23.82891
24.52255
0
0
0
0
0
0
0
0
0
0
21.68152
22.01698
22.44983
22.99115
23.65205
0
0
0
0
0
0
0
0
0
0
20.98252
21.30008
21.713
22.22957
22.86077
0
0
0
0
0
0
0
0
0
0
39.65945
40.36631
41.32809
42.59215
44.21141
0
0
0
0
0
0
0
0
0
0
38.16619
38.83656
39.74392
40.93095
42.44484
0
0
0
0
0
0
0
0
0
0
36.83082
37.47058
38.33238
39.45492
40.88095
0
0
0
0
0
0
0
0
0
0
35.61325
36.2264
37.04871
38.11574
39.46633
0
0
0
0
0
0
0
0
0
0
34.46481
35.05376
35.84026
36.85713
38.14018
0
0
0
0
0
0
0
0
0
0
33.32848
33.89374
34.64563
35.61434
36.83274
0
0
0
0
0
0
0
0
0
0
0
0
0
0
0
32.17099
32.71236
33.42941
34.35003
35.50425
0
0
0
0
0
0
0
0
0
0
0
0
0
0
0
0
31.02115
31.53908
32.22243
33.09661
34.18919
0
0
0
0
0
0
0
0
0
0
0
0
0
0
0
0
0
29.91087
30.40654
31.05813
31.88897
32.92414
0
0
0
0
0
0
0
0
0
0
0
0
0
0
0
0
0
0
28.85595
29.33095
29.95304
30.74382
31.72634
0
0
0
0
0
0
0
0
0
0
0
0
0
0
0
0
0
0
0
27.86021
28.31579
28.91071
29.66461
30.59886
0
0
0
0
0
0
0
0
0
0
0
0
0
0
0
0
0
0
0
0
26.91896
27.35662
27.92614
28.6461
29.53594
0
0
0
0
0
0
0
0
0
0
0
0
0
0
0
0
0
0
0
0
26.02141
26.44213
26.98804
27.67615
28.52485
0
0
0
0
0
0
0
0
0
0
0
0
0
0
0
0
0
0
0
0
25.15033
25.55478
26.07813
26.73619
27.54576
0
0
0
0
0
0
0
0
0
0
0
0
0
0
0
0
0
0
0
0
24.28429
24.67222
25.17341
25.80208
26.57379
0
0
0
0
0
0
0
0
0
0
0
0
0
0
0
0
0
0
0
0
23.41156
23.7828
24.26135
24.86066
25.59474
0
0
0
0
0
0
0
0
0
0
22.55929
22.91296
23.36938
23.93991
24.63771
0
0
0
0
0
0
0
0
0
0
21.75632
22.09291
22.52738
23.07091
23.7347
0
0
0
0
0
0
0
0
0
0
21.02003
21.33816
21.75192
22.26961
22.90226
0
0
0
0
0
0
0
0
0
0
20.3564
20.65594
21.04826
21.542
22.14542
0
0
0
0
0
0
0
0
0
0
38.07833
38.74604
39.64968
40.83167
42.33887
0
0
0
0
0
0
0
0
0
0
36.67466
37.31003
38.16563
39.27972
40.69455
0
0
0
0
0
0
0
0
0
0
35.41663
36.02453
36.83938
37.89618
39.2332
0
0
0
0
0
0
0
0
0
0
34.26733
34.85121
35.63044
36.63733
37.90706
0
0
0
0
0
0
0
0
0
0
33.18152
33.7433
34.49005
35.45159
36.66042
0
0
0
0
0
0
0
0
0
0
32.10572
32.6458
33.36085
34.27862
35.42894
0
0
0
0
0
0
0
0
0
0
0
0
0
0
0
0
31.00874
31.52663
32.20978
33.08352
34.17545
0
0
0
0
0
0
0
0
0
0
0
0
0
0
0
0
0
29.91785
30.41383
31.06576
31.89694
32.93249
0
0
0
0
0
0
0
0
0
0
0
0
0
0
0
0
0
0
28.86317
29.33841
29.96076
30.75187
31.73477
0
0
0
0
0
0
0
0
0
0
0
0
0
0
0
0
0
0
0
27.86021
28.31579
28.91071
29.66461
30.59886
0
0
0
0
0
0
0
0
0
0
0
0
0
0
0
0
0
0
0
0
26.91241
27.34984
27.91908
28.63873
29.52821
0
0
0
0
0
0
0
0
0
0
0
0
0
0
0
0
0
0
0
0
26.01572
26.4361
26.98165
27.66936
28.51762
0
0
0
0
0
0
0
0
0
0
0
0
0
0
0
0
0
0
0
0
25.15992
25.56417
26.0874
26.74543
27.55508
0
0
0
0
0
0
0
0
0
0
0
0
0
0
0
0
0
0
0
0
24.32911
24.71736
25.21922
25.84895
26.62217
0
0
0
0
0
0
0
0
0
0
0
0
0
0
0
0
0
0
0
0
23.5024
23.87479
24.35519
24.95718
25.69485
0
0
0
0
0
0
0
0
0
0
0
0
0
0
0
0
0
0
0
0
22.66976
23.02497
23.48378
24.05762
24.75983
0
0
0
0
0
0
0
0
0
0
21.85631
22.19437
22.63096
23.17744
23.84507
0
0
0
0
0
0
0
0
0
0
21.09205
21.41119
21.82648
22.34624
22.98158
0
0
0
0
0
0
0
0
0
0
20.39248
20.69258
21.08568
21.58046
22.18524
0
0
0
0
0
0
0
0
0
0
19.76886
20.04452
20.41577
20.8854
21.46203
0
0
0
0
0
0
0
0
0
0
36.59228
37.22531
38.0776
39.18723
40.59617
0
0
0
0
0
0
0
0
0
0
35.2698
35.87381
36.68316
37.73244
39.05954
0
0
0
0
0
0
0
0
0
0
34.08215
34.66133
35.4339
36.4317
37.68936
0
0
0
0
0
0
0
0
0
0
32.99528
33.55256
34.29281
35.24543
36.44242
0
0
0
0
0
0
0
0
0
0
31.96693
32.50395
33.21444
34.12584
35.26762
0
0
0
0
0
0
0
0
0
0
30.947
31.46383
32.14524
33.0165
34.10502
0
0
0
0
0
0
0
0
0
0
0
0
0
0
0
0
0
29.90612
30.40213
31.05395
31.88483
32.91985
0
0
0
0
0
0
0
0
0
0
0
0
0
0
0
0
0
0
28.86983
29.34539
29.9681
30.75959
31.74288
0
0
0
0
0
0
0
0
0
0
0
0
0
0
0
0
0
0
0
27.86709
28.32291