/*--------------------------------*- C++ -*----------------------------------*\
| =========                 |                                                 |
| \\      /  F ield         | OpenFOAM: The Open Source CFD Toolbox           |
|  \\    /   O peration     | Version:  2306                                  |
|   \\  /    A nd           | Website:  www.openfoam.com                      |
|    \\/     M anipulation  |                                                 |
\*---------------------------------------------------------------------------*/
FoamFile
{
    version     2.0;
    format      ascii;
    arch        "LSB;label=32;scalar=64";
    class       volScalarField;
    location    "1.2/fuel";
    object      j;
}
// * * * * * * * * * * * * * * * * * * * * * * * * * * * * * * * * * * * * * //

dimensions      [0 -3 0 0 0 1 0];

internalField   nonuniform List<scalar> 
16000
(
9.544242e+08
9.625182e+08
8.709119e+08
9.157878e+08
9.788812e+08
8.760151e+08
9.233318e+08
7.996412e+08
8.377812e+08
8.884528e+08
1.003603e+09
8.860493e+08
9.385734e+08
8.034821e+08
8.42561e+08
8.956287e+08
7.422831e+08
7.70952e+08
8.141501e+08
8.716398e+08
1.035884e+09
9.004901e+08
9.615807e+08
8.109398e+08
8.519549e+08
9.101241e+08
7.454081e+08
7.745645e+08
8.187083e+08
8.78611e+08
6.945102e+08
7.169918e+08
7.503688e+08
7.99412e+08
8.643424e+08
1.070821e+09
9.179958e+08
9.915901e+08
8.214381e+08
8.654657e+08
9.320016e+08
7.514318e+08
7.815759e+08
8.276647e+08
8.926965e+08
6.971571e+08
7.19941e+08
7.538225e+08
8.038405e+08
8.712495e+08
6.534198e+08
6.719231e+08
6.987727e+08
7.374099e+08
7.927853e+08
0
1.097407e+09
9.350579e+08
1.024029e+09
8.337094e+08
8.818322e+08
9.605409e+08
7.598037e+08
7.914406e+08
8.405435e+08
9.139687e+08
7.022351e+08
7.256236e+08
7.60524e+08
8.125425e+08
8.852148e+08
6.55717e+08
6.744283e+08
7.015985e+08
7.407679e+08
7.971636e+08
0
6.173379e+08
6.330623e+08
6.556029e+08
6.872313e+08
7.314612e+08
0
0
1.114361e+09
9.466029e+08
1.048627e+09
8.449954e+08
8.977693e+08
9.914003e+08
7.69377e+08
8.029636e+08
8.561426e+08
9.417547e+08
7.092342e+08
7.335173e+08
7.699504e+08
8.250581e+08
9.063329e+08
6.601097e+08
6.792326e+08
7.07042e+08
7.472836e+08
8.057696e+08
0
6.193663e+08
6.352421e+08
6.58008e+08
6.899817e+08
7.347788e+08
0
0
5.851455e+08
5.988613e+08
6.183181e+08
6.452198e+08
6.81871e+08
0
0
0
1.124081e+09
9.530435e+08
1.064265e+09
8.519903e+08
9.085248e+08
1.01474e+09
7.778683e+08
8.135519e+08
8.713304e+08
9.718575e+08
7.171214e+08
7.425377e+08
7.809585e+08
8.402257e+08
9.339846e+08
6.661285e+08
6.858511e+08
7.146014e+08
7.564489e+08
8.181545e+08
0
6.232357e+08
6.394085e+08
6.626193e+08
6.952793e+08
7.412169e+08
0
0
5.869591e+08
6.007904e+08
6.204146e+08
6.475631e+08
6.84588e+08
0
0
0
5.560953e+08
5.682839e+08
5.854535e+08
6.089076e+08
6.403625e+08
0
0
0
0
1.128478e+09
9.563177e+08
1.073212e+09
8.553714e+08
9.145116e+08
1.02955e+09
7.828292e+08
8.20098e+08
8.815543e+08
9.9459e+08
7.239475e+08
7.505302e+08
7.910688e+08
8.550035e+08
9.640426e+08
6.728397e+08
6.933039e+08
7.232364e+08
7.671542e+08
8.331806e+08
0
6.28514e+08
6.451144e+08
6.689697e+08
7.026356e+08
7.502758e+08
0
0
5.904124e+08
6.044688e+08
6.244207e+08
6.520553e+08
6.898219e+08
0
0
0
5.577328e+08
5.700122e+08
5.873118e+08
6.109522e+08
6.42678e+08
0
0
0
0
5.296387e+08
5.406379e+08
5.560281e+08
5.768746e+08
6.044845e+08
0
0
0
0
0
1.128478e+09
9.57677e+08
1.077254e+09
8.567836e+08
9.175507e+08
1.038014e+09
7.849596e+08
8.232541e+08
8.872354e+08
1.009004e+09
7.277751e+08
7.551875e+08
7.973017e+08
8.649283e+08
9.867302e+08
6.785448e+08
6.997465e+08
7.308817e+08
7.769869e+08
8.478409e+08
0
6.343521e+08
6.514718e+08
6.761174e+08
7.110386e+08
7.608629e+08
0
0
5.951066e+08
6.09484e+08
6.299052e+08
6.582411e+08
6.970909e+08
0
0
0
5.608466e+08
5.733018e+08
5.908544e+08
6.148587e+08
6.47117e+08
0
0
0
0
5.311289e+08
5.422014e+08
5.576955e+08
5.786887e+08
6.065055e+08
0
0
0
0
0
5.053718e+08
5.154149e+08
5.293871e+08
5.481707e+08
5.728294e+08
0
0
0
0
0
0
1.124081e+09
9.57677e+08
1.077254e+09
8.572607e+08
9.188114e+08
1.041836e+09
7.856649e+08
8.245691e+08
8.901178e+08
1.017243e+09
7.292698e+08
7.571808e+08
8.002991e+08
8.704372e+08
1.001123e+09
6.816475e+08
7.033488e+08
7.353223e+08
7.830297e+08
8.576659e+08
0
6.392474e+08
6.568691e+08
6.822902e+08
7.184755e+08
7.70591e+08
0
0
6.002652e+08
6.150267e+08
6.360127e+08
6.652025e+08
7.053964e+08
0
0
0
5.650674e+08
5.777712e+08
5.956829e+08
6.202063e+08
6.532299e+08
0
0
0
0
5.339594e+08
5.451731e+08
5.608684e+08
5.821466e+08
6.10367e+08
0
0
0
0
0
5.067367e+08
5.168402e+08
5.308977e+08
5.497999e+08
5.746233e+08
0
0
0
0
0
0
4.829799e+08
4.922406e+08
5.050497e+08
5.221624e+08
5.444575e+08
0
0
0
0
0
0
0
1.114361e+09
9.563177e+08
1.073212e+09
8.572607e+08
9.188114e+08
1.041836e+09
7.858228e+08
8.250123e+08
8.913134e+08
1.020965e+09
7.296483e+08
7.578369e+08
8.015453e+08
8.732333e+08
1.009361e+09
6.827667e+08
7.047491e+08
7.372153e+08
7.859283e+08
8.631165e+08
0
6.418469e+08
6.597955e+08
6.857294e+08
7.227788e+08
7.765495e+08
0
0
6.045436e+08
6.196678e+08
6.411919e+08
6.7121e+08
7.127457e+08
0
0
0
5.696813e+08
5.826787e+08
6.010161e+08
6.261598e+08
6.601102e+08
0
0
0
0
5.377872e+08
5.491994e+08
5.651777e+08
5.868588e+08
6.15653e+08
0
0
0
0
0
5.093271e+08
5.195464e+08
5.337679e+08
5.528997e+08
5.780425e+08
0
0
0
0
0
0
4.842368e+08
4.935481e+08
5.064284e+08
5.236396e+08
5.460692e+08
0
0
0
0
0
0
0
4.622156e+08
4.708229e+08
4.826614e+08
4.983846e+08
5.187429e+08
0
0
0
0
0
0
0
0
1.097407e+09
9.530435e+08
1.064265e+09
8.567836e+08
9.175507e+08
1.038014e+09
7.858228e+08
8.250123e+08
8.913134e+08
1.020965e+09
7.296691e+08
7.57982e+08
8.019646e+08
8.743943e+08
1.013086e+09
6.829705e+08
7.050994e+08
7.378345e+08
7.871318e+08
8.658867e+08
0
6.427224e+08
6.608448e+08
6.87059e+08
7.246053e+08
7.794004e+08
0
0
6.067711e+08
6.221243e+08
6.439893e+08
6.745432e+08
7.169803e+08
0
0
0
5.734736e+08
5.867428e+08
6.054761e+08
6.312038e+08
6.660446e+08
0
0
0
0
5.419529e+08
5.535969e+08
5.699067e+08
5.920621e+08
6.215382e+08
0
0
0
0
0
5.128232e+08
5.232041e+08
5.376553e+08
5.571091e+08
5.827021e+08
0
0
0
0
0
0
4.866208e+08
4.960286e+08
5.090455e+08
5.264461e+08
5.491354e+08
0
0
0
0
0
0
0
4.633783e+08
4.720287e+08
4.839277e+08
4.997339e+08
5.202047e+08
0
0
0
0
0
0
0
0
4.428805e+08
4.509321e+08
4.619461e+08
4.764948e+08
4.952266e+08
0
0
0
0
0
0
0
0
0
1.070821e+09
9.466029e+08
1.048627e+09
8.553714e+08
9.145116e+08
1.02955e+09
7.856649e+08
8.245691e+08
8.901178e+08
1.017243e+09
7.296691e+08
7.57982e+08
8.019646e+08
8.743943e+08
1.013086e+09
6.829245e+08
7.051157e+08
7.379696e+08
7.875365e+08
8.670392e+08
0
6.428237e+08
6.610311e+08
6.873868e+08
7.251991e+08
7.805828e+08
0
0
6.074765e+08
6.229456e+08
6.449855e+08
6.758239e+08
7.187689e+08
0
0
0
5.754157e+08
5.888515e+08
6.078273e+08
6.33916e+08
6.693213e+08
0
0
0
0
5.453512e+08
5.572058e+08
5.738176e+08
5.964091e+08
6.265206e+08
0
0
0
0
0
5.166135e+08
5.271813e+08
5.418986e+08
5.617269e+08
5.878473e+08
0
0
0
0
0
0
4.898329e+08
4.993748e+08
5.125816e+08
5.302465e+08
5.532993e+08
0
0
0
0
0
0
0
4.65583e+08
4.743151e+08
4.863295e+08
5.022949e+08
5.229819e+08
0
0
0
0
0
0
0
0
4.439605e+08
4.520492e+08
4.631152e+08
4.777351e+08
4.965624e+08
0
0
0
0
0
0
0
0
0
4.248127e+08
4.323842e+08
4.426864e+08
4.562263e+08
4.735711e+08
0
0
0
0
0
0
0
0
0
0
1.035884e+09
9.350579e+08
1.024029e+09
8.519903e+08
9.085248e+08
1.01474e+09
7.849596e+08
8.232541e+08
8.872354e+08
1.009004e+09
7.296483e+08
7.578369e+08
8.015453e+08
8.732333e+08
1.009361e+09
6.829245e+08
7.051157e+08
7.379696e+08
7.875365e+08
8.670392e+08
0
6.427427e+08
6.609843e+08
6.873989e+08
7.253269e+08
7.809806e+08
0
0
6.075128e+08
6.230354e+08
6.45157e+08
6.761348e+08
7.193465e+08
0
0
0
5.759968e+08
5.895135e+08
6.086068e+08
6.348742e+08
6.705715e+08
0
0
0
0
5.470667e+08
5.590473e+08
5.758383e+08
5.986898e+08
6.291859e+08
0
0
0
0
0
5.196861e+08
5.304207e+08
5.45376e+08
5.655415e+08
5.921417e+08
0
0
0
0
0
0
4.933041e+08
5.029995e+08
5.164242e+08
5.343935e+08
5.578671e+08
0
0
0
0
0
0
0
4.685492e+08
4.773941e+08
4.895683e+08
5.057547e+08
5.267427e+08
0
0
0
0
0
0
0
0
4.460078e+08
4.541666e+08
4.653315e+08
4.800872e+08
4.990976e+08
0
0
0
0
0
0
0
0
0
4.258194e+08
4.334232e+08
4.437706e+08
4.573722e+08
4.747993e+08
0
0
0
0
0
0
0
0
0
0
4.078766e+08
4.150287e+08
4.24708e+08
4.373689e+08
4.535133e+08
0
0
0
0
0
0
0
0
0
0
1.003603e+09
9.179958e+08
9.915901e+08
8.449954e+08
8.977693e+08
9.914003e+08
7.828292e+08
8.20098e+08
8.815543e+08
9.9459e+08
7.292698e+08
7.571808e+08
8.002991e+08
8.704372e+08
1.001123e+09
6.829705e+08
7.050994e+08
7.378345e+08
7.871318e+08
8.658867e+08
0
6.427427e+08
6.609843e+08
6.873989e+08
7.253269e+08
7.809806e+08
0
0
6.074125e+08
6.229555e+08
6.451087e+08
6.761429e+08
7.194691e+08
0
0
0
5.759904e+08
5.89542e+08
6.086863e+08
6.350337e+08
6.708698e+08
0
0
0
0
5.475538e+08
5.595928e+08
5.764664e+08
5.994389e+08
6.301192e+08
0
0
0
0
0
5.212179e+08
5.320498e+08
5.471427e+08
5.67503e+08
5.943829e+08
0
0
0
0
0
0
4.961027e+08
5.05933e+08
5.195494e+08
5.37788e+08
5.616367e+08
0
0
0
0
0
0
0
4.717456e+08
4.807185e+08
4.930745e+08
5.095131e+08
5.308462e+08
0
0
0
0
0
0
0
0
4.487588e+08
4.570139e+08
4.68315e+08
4.832585e+08
5.025226e+08
0
0
0
0
0
0
0
0
0
4.277274e+08
4.35392e+08
4.458252e+08
4.595442e+08
4.771286e+08
0
0
0
0
0
0
0
0
0
0
4.088177e+08
4.159983e+08
4.257175e+08
4.384323e+08
4.546485e+08
0
0
0
0
0
0
0
0
0
0
3.919587e+08
3.987395e+08
4.078688e+08
4.197545e+08
4.348464e+08
0
0
0
0
0
0
0
0
0
0
9.788812e+08
9.004901e+08
9.615807e+08
8.337094e+08
8.818322e+08
9.605409e+08
7.778683e+08
8.135519e+08
8.713304e+08
9.718575e+08
7.277751e+08
7.551875e+08
7.973017e+08
8.649283e+08
9.867302e+08
6.827667e+08
7.047491e+08
7.372153e+08
7.859283e+08
8.631165e+08
0
6.428237e+08
6.610311e+08
6.873868e+08
7.251991e+08
7.805828e+08
0
0
6.074125e+08
6.229555e+08
6.451087e+08
6.761429e+08
7.194691e+08
0
0
0
5.758796e+08
5.894437e+08
6.086063e+08
6.349833e+08
6.70874e+08
0
0
0
0
5.475182e+08
5.595811e+08
5.764876e+08
5.995095e+08
6.302687e+08
0
0
0
0
0
5.216321e+08
5.325071e+08
5.476602e+08
5.68106e+08
5.951113e+08
0
0
0
0
0
0
4.97483e+08
5.073898e+08
5.211141e+08
5.39504e+08
5.635644e+08
0
0
0
0
0
0
0
4.743111e+08
4.833945e+08
4.959078e+08
5.125661e+08
5.342017e+08
0
0
0
0
0
0
0
0
4.517163e+08
4.600796e+08
4.715344e+08
4.866904e+08
5.062429e+08
0
0
0
0
0
0
0
0
0
4.302885e+08
4.380363e+08
4.485871e+08
4.624676e+08
4.80269e+08
0
0
0
0
0
0
0
0
0
0
4.106015e+08
4.178355e+08
4.276298e+08
4.404472e+08
4.568e+08
0
0
0
0
0
0
0
0
0
0
3.928411e+08
3.99647e+08
4.088116e+08
4.207452e+08
4.359002e+08
0
0
0
0
0
0
0
0
0
0
3.769635e+08
3.83411e+08
3.92049e+08
4.032457e+08
4.174047e+08
0
0
0
0
0
0
0
0
0
0
9.625182e+08
8.860493e+08
9.385734e+08
8.214381e+08
8.654657e+08
9.320016e+08
7.69377e+08
8.029636e+08
8.561426e+08
9.417547e+08
7.239475e+08
7.505302e+08
7.910688e+08
8.550035e+08
9.640426e+08
6.816475e+08
7.033488e+08
7.353223e+08
7.830297e+08
8.576659e+08
0
6.427224e+08
6.608448e+08
6.87059e+08
7.246053e+08
7.794003e+08
0
0
6.075128e+08
6.230354e+08
6.45157e+08
6.761348e+08
7.193465e+08
0
0
0
5.758796e+08
5.894437e+08
6.086063e+08
6.349833e+08
6.70874e+08
0
0
0
0
5.474021e+08
5.594727e+08
5.7639e+08
5.994283e+08
6.302152e+08
0
0
0
0
0
5.215767e+08
5.324679e+08
5.476431e+08
5.681204e+08
5.951739e+08
0
0
0
0
0
0
4.978396e+08
5.077787e+08
5.215478e+08
5.400005e+08
5.6415e+08
0
0
0
0
0
0
0
4.755645e+08
4.84709e+08
4.973086e+08
5.14087e+08
5.358886e+08
0
0
0
0
0
0
0
0
4.540806e+08
4.62536e+08
4.741219e+08
4.894604e+08
5.092618e+08
0
0
0
0
0
0
0
0
0
4.330358e+08
4.408766e+08
4.515591e+08
4.656211e+08
4.836674e+08
0
0
0
0
0
0
0
0
0
0
4.129937e+08
4.203004e+08
4.301974e+08
4.431554e+08
4.596961e+08
0
0
0
0
0
0
0
0
0
0
3.945138e+08
4.013666e+08
4.105978e+08
4.226218e+08
4.378968e+08
0
0
0
0
0
0
0
0
0
0
3.777928e+08
3.842628e+08
3.929322e+08
4.041716e+08
4.183867e+08
0
0
0
0
0
0
0
0
0
0
3.62808e+08
3.689543e+08
3.771487e+08
3.877269e+08
4.01053e+08
0
0
0
0
0
0
0
0
0
0
9.544242e+08
8.760151e+08
9.233318e+08
8.109398e+08
8.519549e+08
9.101241e+08
7.598037e+08
7.914406e+08
8.405435e+08
9.139687e+08
7.171214e+08
7.425377e+08
7.809585e+08
8.402257e+08
9.339846e+08
6.785448e+08
6.997465e+08
7.308817e+08
7.769869e+08
8.478409e+08
0
6.418469e+08
6.597955e+08
6.857294e+08
7.227788e+08
7.765495e+08
0
0
6.074765e+08
6.229456e+08
6.449855e+08
6.758239e+08
7.187689e+08
0
0
0
5.759904e+08
5.89542e+08
6.086863e+08
6.350337e+08
6.708698e+08
0
0
0
0
5.474021e+08
5.594727e+08
5.7639e+08
5.994283e+08
6.302152e+08
0
0
0
0
0
5.214584e+08
5.323543e+08
5.475358e+08
5.680222e+08
5.950903e+08
0
0
0
0
0
0
4.977708e+08
5.077208e+08
5.215046e+08
5.39978e+08
5.641578e+08
0
0
0
0
0
0
0
4.758751e+08
4.850439e+08
4.976773e+08
5.145028e+08
5.363703e+08
0
0
0
0
0
0
0
0
4.552264e+08
4.637313e+08
4.753872e+08
4.908229e+08
5.107574e+08
0
0
0
0
0
0
0
0
0
4.352249e+08
4.431435e+08
4.539368e+08
4.681525e+08
4.864075e+08
0
0
0
0
0
0
0
0
0
0
4.155553e+08
4.229422e+08
4.329536e+08
4.460685e+08
4.628198e+08
0
0
0
0
0
0
0
0
0
0
3.967554e+08
4.036716e+08
4.129934e+08
4.25141e+08
4.405804e+08
0
0
0
0
0
0
0
0
0
0
3.793656e+08
3.858772e+08
3.946055e+08
4.059254e+08
4.202469e+08
0
0
0
0
0
0
0
0
0
0
3.635893e+08
3.697558e+08
3.779784e+08
3.885947e+08
4.019711e+08
0
0
0
0
0
0
0
0
0
0
3.494194e+08
3.552922e+08
3.630837e+08
3.731016e+08
3.856777e+08
0
0
0
0
0
0
0
0
0
0
8.709119e+08
9.157878e+08
8.034821e+08
8.42561e+08
8.956287e+08
7.514318e+08
7.815759e+08
8.276647e+08
8.926965e+08
7.092342e+08
7.335173e+08
7.699504e+08
8.250581e+08
9.063329e+08
6.728397e+08
6.933039e+08
7.232364e+08
7.671542e+08
8.331806e+08
0
6.392474e+08
6.568691e+08
6.822902e+08
7.184755e+08
7.70591e+08
0
0
6.067711e+08
6.221243e+08
6.439893e+08
6.745432e+08
7.169803e+08
0
0
0
5.759968e+08
5.895135e+08
6.086068e+08
6.348742e+08
6.705715e+08
0
0
0
0
5.475182e+08
5.595811e+08
5.764876e+08
5.995095e+08
6.302687e+08
0
0
0
0
0
5.214584e+08
5.323543e+08
5.475358e+08
5.680222e+08
5.950903e+08
0
0
0
0
0
0
4.976525e+08
5.076052e+08
5.213923e+08
5.398705e+08
5.640577e+08
0
0
0
0
0
0
0
4.757974e+08
4.849733e+08
4.976164e+08
5.144553e+08
5.363422e+08
0
0
0
0
0
0
0
0
4.554995e+08
4.64023e+08
4.757046e+08
4.911762e+08
5.111604e+08
0
0
0
0
0
0
0
0
0
4.362781e+08
4.442375e+08
4.550886e+08
4.69384e+08
4.877478e+08
0
0
0
0
0
0
0
0
0
0
4.175908e+08
4.250436e+08
4.3515e+08
4.483963e+08
4.653248e+08
0
0
0
0
0
0
0
0
0
0
0
3.99152e+08
4.061378e+08
4.155593e+08
4.278443e+08
4.43467e+08
0
0
0
0
0
0
0
0
0
0
3.814717e+08
3.880395e+08
3.968478e+08
4.082773e+08
4.22744e+08
0
0
0
0
0
0
0
0
0
0
3.650713e+08
3.712753e+08
3.795507e+08
3.902387e+08
4.037101e+08
0
0
0
0
0
0
0
0
0
0
3.50157e+08
3.56048e+08
3.63865e+08
3.739173e+08
3.865384e+08
0
0
0
0
0
0
0
0
0
0
3.367349e+08
3.423566e+08
3.497809e+08
3.592885e+08
3.711836e+08
0
0
0
0
0
0
0
0
0
0
7.996412e+08
8.377812e+08
8.884528e+08
7.454081e+08
7.745645e+08
8.187083e+08
8.78611e+08
7.022351e+08
7.256236e+08
7.60524e+08
8.125425e+08
8.852148e+08
6.661285e+08
6.858511e+08
7.146014e+08
7.564489e+08
8.181545e+08
0
6.343521e+08
6.514718e+08
6.761174e+08
7.110386e+08
7.608629e+08
0
0
6.045436e+08
6.196678e+08
6.411919e+08
6.7121e+08
7.127457e+08
0
0
0
5.754157e+08
5.888515e+08
6.078273e+08
6.33916e+08
6.693213e+08
0
0
0
0
5.475538e+08
5.595928e+08
5.764664e+08
5.994389e+08
6.301192e+08
0
0
0
0
0
5.215767e+08
5.324679e+08
5.476431e+08
5.681204e+08
5.951739e+08
0
0
0
0
0
0
4.976525e+08
5.076052e+08
5.213923e+08
5.398705e+08
5.640577e+08
0
0
0
0
0
0
0
4.756805e+08
4.848576e+08
4.975021e+08
5.143431e+08
5.362333e+08
0
0
0
0
0
0
0
0
4.55416e+08
4.63944e+08
4.756316e+08
4.911117e+08
5.111082e+08
0
0
0
0
0
0
0
0
0
4.365206e+08
4.44494e+08
4.55365e+08
4.69688e+08
4.880899e+08
0
0
0
0
0
0
0
0
0
0
4.185644e+08
4.260505e+08
4.362052e+08
4.49518e+08
4.665367e+08
0
0
0
0
0
0
0
0
0
0
0
4.01052e+08
4.080942e+08
4.175974e+08
4.29996e+08
4.457713e+08
0
0
0
0
0
0
0
0
0
0
0
0
3.837204e+08
3.903494e+08
3.992453e+08
4.107956e+08
4.254236e+08
0
0
0
0
0
0
0
0
0
0
3.670548e+08
3.733091e+08
3.816559e+08
3.924413e+08
4.06042e+08
0
0
0
0
0
0
0
0
0
0
3.515567e+08
3.574812e+08
3.653461e+08
3.754628e+08
3.881689e+08
0
0
0
0
0
0
0
0
0
0
3.374325e+08
3.430708e+08
3.505182e+08
3.60057e+08
3.719928e+08
0
0
0
0
0
0
0
0
0
0
3.246993e+08
3.30089e+08
3.371755e+08
3.462169e+08
3.574908e+08
0
0
0
0
0
0
0
0
0
0
7.422831e+08
7.70952e+08
8.141501e+08
8.716398e+08
6.971571e+08
7.19941e+08
7.538225e+08
8.038405e+08
8.712495e+08
6.601097e+08
6.792326e+08
7.07042e+08
7.472836e+08
8.057696e+08
0
6.28514e+08
6.451144e+08
6.689697e+08
7.026356e+08
7.502758e+08
0
0
6.002652e+08
6.150267e+08
6.360127e+08
6.652025e+08
7.053964e+08
0
0
0
5.734736e+08
5.867428e+08
6.054761e+08
6.312038e+08
6.660446e+08
0
0
0
0
5.470667e+08
5.590473e+08
5.758383e+08
5.986898e+08
6.291859e+08
0
0
0
0
0
5.216321e+08
5.325071e+08
5.476602e+08
5.68106e+08
5.951113e+08
0
0
0
0
0
0
4.977708e+08
5.077208e+08
5.215046e+08
5.39978e+08
5.641578e+08
0
0
0
0
0
0
0
4.756805e+08
4.848576e+08
4.975021e+08
5.143431e+08
5.362333e+08
0
0
0
0
0
0
0
0
4.553015e+08
4.638297e+08
4.755174e+08
4.909977e+08
5.109949e+08
0
0
0
0
0
0
0
0
0
4.364337e+08
4.444096e+08
4.552841e+08
4.696121e+08
4.880215e+08
0
0
0
0
0
0
0
0
0
0
4.187818e+08
4.262782e+08
4.364482e+08
4.497826e+08
4.668309e+08
0
0
0
0
0
0
0
0
0
0
0
4.019563e+08
4.090261e+08
4.185695e+08
4.310244e+08
4.468756e+08
0
0
0
0
0
0
0
0
0
0
0
0
3.854996e+08
3.921776e+08
4.011444e+08
4.127934e+08
4.275544e+08
0
0
0
0
0
0
0
0
0
0
0
0
0
3.691701e+08
3.754788e+08
3.839034e+08
3.947957e+08
4.08539e+08
0
0
0
0
0
0
0
0
0
0
3.534293e+08
3.593986e+08
3.673278e+08
3.775319e+08
3.903535e+08
0
0
0
0
0
0
0
0
0
0
3.387571e+08
3.444258e+08
3.519162e+08
3.615136e+08
3.735261e+08
0
0
0
0
0
0
0
0
0
0
3.253603e+08
3.307651e+08
3.378727e+08
3.469424e+08
3.582534e+08
0
0
0
0
0
0
0
0
0
0
3.132663e+08
3.184378e+08
3.25212e+08
3.338243e+08
3.445299e+08
0
0
0
0
0
0
0
0
0
0
6.945102e+08
7.169918e+08
7.503688e+08
7.99412e+08
8.643424e+08
6.55717e+08
6.744283e+08
7.015985e+08
7.407679e+08
7.971636e+08
0
6.232357e+08
6.394085e+08
6.626193e+08
6.952793e+08
7.412169e+08
0
0
5.951066e+08
6.09484e+08
6.299052e+08
6.582411e+08
6.970909e+08
0
0
0
5.696813e+08
5.826787e+08
6.010161e+08
6.261598e+08
6.601102e+08
0
0
0
0
5.453512e+08
5.572058e+08
5.738176e+08
5.964091e+08
6.265206e+08
0
0
0
0
0
5.212179e+08
5.320498e+08
5.471427e+08
5.67503e+08
5.943829e+08
0
0
0
0
0
0
4.978396e+08
5.077787e+08
5.215478e+08
5.400005e+08
5.6415e+08
0
0
0
0
0
0
0
4.757974e+08
4.849733e+08
4.976164e+08
5.144553e+08
5.363422e+08
0
0
0
0
0
0
0
0
4.553015e+08
4.638297e+08
4.755174e+08
4.909977e+08
5.109949e+08
0
0
0
0
0
0
0
0
0
4.363222e+08
4.442975e+08
4.551712e+08
4.694982e+08
4.879065e+08
0
0
0
0
0
0
0
0
0
0
4.186935e+08
4.261908e+08
4.363624e+08
4.496994e+08
4.667516e+08
0
0
0
0
0
0
0
0
0
0
0
4.021528e+08
4.092302e+08
4.187852e+08
4.31257e+08
4.471315e+08
0
0
0
0
0
0
0
0
0
0
0
0
3.863429e+08
3.930441e+08
4.020449e+08
4.137414e+08
4.285671e+08
0
0
0
0
0
0
0
0
0
0
0
0
0
3.708413e+08
3.771926e+08
3.856796e+08
3.966584e+08
4.10518e+08
0
0
0
0
0
0
0
0
0
0
0
0
0
0
3.554242e+08
3.614417e+08
3.694405e+08
3.797402e+08
3.926886e+08
0
0
0
0
0
0
0
0
0
0
3.405285e+08
3.462377e+08
3.537858e+08
3.634623e+08
3.755788e+08
0
0
0
0
0
0
0
0
0
0
3.266164e+08
3.320486e+08
3.391953e+08
3.483181e+08
3.596988e+08
0
0
0
0
0
0
0
0
0
0
3.138937e+08
3.19079e+08
3.258725e+08
3.345107e+08
3.4525e+08
0
0
0
0
0
0
0
0
0
0
3.023924e+08
3.073598e+08
3.138414e+08
3.22057e+08
3.322391e+08
0
0
0
0
0
0
0
0
0
0
6.534198e+08
6.719231e+08
6.987727e+08
7.374099e+08
7.927853e+08
0
6.193663e+08
6.352421e+08
6.58008e+08
6.899817e+08
7.347788e+08
0
0
5.904124e+08
6.044688e+08
6.244207e+08
6.520553e+08
6.898219e+08
0
0
0
5.650674e+08
5.777712e+08
5.956829e+08
6.202063e+08
6.532299e+08
0
0
0
0
5.419529e+08
5.535969e+08
5.699067e+08
5.920621e+08
6.215382e+08
0
0
0
0
0
5.196861e+08
5.304207e+08
5.45376e+08
5.655415e+08
5.921417e+08
0
0
0
0
0
0
4.97483e+08
5.073898e+08
5.211141e+08
5.39504e+08
5.635644e+08
0
0
0
0
0
0
0
4.758751e+08
4.850439e+08
4.976773e+08
5.145028e+08
5.363703e+08
0
0
0
0
0
0
0
0
4.55416e+08
4.63944e+08
4.756316e+08
4.911117e+08
5.111082e+08
0
0
0
0
0
0
0
0
0
4.363222e+08
4.442975e+08
4.551712e+08
4.694982e+08
4.879065e+08
0
0
0
0
0
0
0
0
0
0
4.185854e+08
4.260816e+08
4.362516e+08
4.495868e+08
4.666368e+08
0
0
0
0
0
0
0
0
0
0
0
4.020645e+08
4.091416e+08
4.186966e+08
4.311691e+08
4.470452e+08
0
0
0
0
0
0
0
0
0
0
0
0
3.865218e+08
3.932288e+08
4.022383e+08
4.139478e+08
4.287919e+08
0
0
0
0
0
0
0
0
0
0
0
0
0
3.716308e+08
3.780015e+08
3.865177e+08
3.975371e+08
4.114519e+08
0
0
0
0
0
0
0
0
0
0
0
0
0
0
3.569984e+08
3.630532e+08
3.711071e+08
3.814834e+08
3.945343e+08
0
0
0
0
0
0
0
0
0
0
0
0
0
0
0
3.424141e+08
3.481664e+08
3.557769e+08
3.655393e+08
3.777696e+08
0
0
0
0
0
0
0
0
0
0
3.282955e+08
3.337641e+08
3.409634e+08
3.501575e+08
3.616326e+08
0
0
0
0
0
0
0
0
0
0
3.150868e+08
3.20297e+08
3.271261e+08
3.358127e+08
3.466154e+08
0
0
0
0
0
0
0
0
0
0
3.02989e+08
3.079689e+08
3.144682e+08
3.227074e+08
3.329205e+08
0
0
0
0
0
0
0
0
0
0
2.92043e+08
2.968144e+08
3.030228e+08
3.108675e+08
3.205657e+08
0
0
0
0
0
0
0
0
0
0
6.173379e+08
6.330623e+08
6.556029e+08
6.872313e+08
7.314612e+08
0
0
5.869591e+08
6.007904e+08
6.204146e+08
6.475631e+08
6.84588e+08
0
0
0
5.608466e+08
5.733018e+08
5.908544e+08
6.148587e+08
6.47117e+08
0
0
0
0
5.377872e+08
5.491994e+08
5.651777e+08
5.868588e+08
6.15653e+08
0
0
0
0
0
5.166135e+08
5.271813e+08
5.418986e+08
5.617269e+08
5.878473e+08
0
0
0
0
0
0
4.961027e+08
5.05933e+08
5.195494e+08
5.37788e+08
5.616367e+08
0
0
0
0
0
0
0
4.755645e+08
4.84709e+08
4.973086e+08
5.14087e+08
5.358886e+08
0
0
0
0
0
0
0
0
4.554996e+08
4.64023e+08
4.757046e+08
4.911762e+08
5.111604e+08
0
0
0
0
0
0
0
0
0
4.364337e+08
4.444096e+08
4.552841e+08
4.696121e+08
4.880215e+08
0
0
0
0
0
0
0
0
0
0
4.185854e+08
4.260815e+08
4.362516e+08
4.495868e+08
4.666368e+08
0
0
0
0
0
0
0
0
0
0
0
4.019601e+08
4.090356e+08
4.185886e+08
4.310587e+08
4.46932e+08
0
0
0
0
0
0
0
0
0
0
0
0
3.864342e+08
3.931402e+08
4.021486e+08
4.138574e+08
4.287013e+08
0
0
0
0
0
0
0
0
0
0
0
0
0
3.717951e+08
3.781697e+08
3.866926e+08
3.977221e+08
4.116514e+08
0
0
0
0
0
0
0
0
0
0
0
0
0
0
3.577401e+08
3.638113e+08
3.7189e+08
3.823017e+08
3.954003e+08
0
0
0
0
0
0
0
0
0
0
0
0
0
0
0
3.439007e+08
3.496858e+08
3.573451e+08
3.671758e+08
3.794975e+08
0
0
0
0
0
0
0
0
0
0
0
0
0
0
0
0
3.300817e+08
3.355888e+08
3.428443e+08
3.521158e+08
3.636937e+08
0
0
0
0
0
0
0
0
0
0
3.166815e+08
3.219247e+08
3.288013e+08
3.37553e+08
3.484412e+08
0
0
0
0
0
0
0
0
0
0
3.041242e+08
3.091269e+08
3.156588e+08
3.239422e+08
3.342132e+08
0
0
0
0
0
0
0
0
0
0
2.92611e+08
2.97394e+08
3.036186e+08
3.114851e+08
3.212116e+08
0
0
0
0
0
0
0
0
0
0
2.821813e+08
2.867692e+08
2.927175e+08
3.002164e+08
3.094631e+08
0
0
0
0
0
0
0
0
0
0
5.851455e+08
5.988613e+08
6.183181e+08
6.452198e+08
6.81871e+08
0
0
0
5.577328e+08
5.700122e+08
5.873118e+08
6.109522e+08
6.42678e+08
0
0
0
0
5.339594e+08
5.451731e+08
5.608684e+08
5.821466e+08
6.10367e+08
0
0
0
0
0
5.128232e+08
5.232041e+08
5.376553e+08
5.571091e+08
5.827021e+08
0
0
0
0
0
0
4.93304e+08
5.029995e+08
5.164242e+08
5.343935e+08
5.578671e+08
0
0
0
0
0
0
0
4.743111e+08
4.833945e+08
4.959078e+08
5.125661e+08
5.342017e+08
0
0
0
0
0
0
0
0
4.552264e+08
4.637313e+08
4.753872e+08
4.908229e+08
5.107574e+08
0
0
0
0
0
0
0
0
0
4.365206e+08
4.44494e+08
4.55365e+08
4.69688e+08
4.880899e+08
0
0
0
0
0
0
0
0
0
0
4.186935e+08
4.261908e+08
4.363624e+08
4.496994e+08
4.667515e+08
0
0
0
0
0
0
0
0
0
0
0
4.019601e+08
4.090356e+08
4.185886e+08
4.310587e+08
4.46932e+08
0
0
0
0
0
0
0
0
0
0
0
0
3.863336e+08
3.930379e+08
4.020439e+08
4.137498e+08
4.285904e+08
0
0
0
0
0
0
0
0
0
0
0
0
0
3.717093e+08
3.78082e+08
3.866032e+08
3.976309e+08
4.115586e+08
0
0
0
0
0
0
0
0
0
0
0
0
0
0
3.57892e+08
3.639658e+08
3.720494e+08
3.824691e+08
3.95579e+08
0
0
0
0
0
0
0
0
0
0
0
0
0
0
0
3.446e+08
3.503988e+08
3.580795e+08
3.679407e+08
3.803042e+08
0
0
0
0
0
0
0
0
0
0
0
0
0
0
0
0
3.314892e+08
3.370251e+08
3.443241e+08
3.536566e+08
3.653163e+08
0
0
0
0
0
0
0
0
0
0
0
0
0
0
0
0
0
3.18377e+08
3.236548e+08
3.305821e+08
3.39404e+08
3.503849e+08
0
0
0
0
0
0
0
0
0
0
3.056413e+08
3.10674e+08
3.172492e+08
3.255918e+08
3.359409e+08
0
0
0
0
0
0
0
0
0
0
2.936928e+08
2.984967e+08
3.047512e+08
3.126582e+08
3.224377e+08
0
0
0
0
0
0
0
0
0
0
2.827228e+08
2.873214e+08
2.932848e+08
3.008037e+08
3.100765e+08
0
0
0
0
0
0
0
0
0
0
2.727766e+08
2.771897e+08
2.828949e+08
2.900664e+08
2.988924e+08
0
0
0
0
0
0
0
0
0
0
5.560953e+08
5.682839e+08
5.854535e+08
6.089076e+08
6.403625e+08
0
0
0
0
5.311289e+08
5.422014e+08
5.576955e+08
5.786887e+08
6.065055e+08
0
0
0
0
0
5.093271e+08
5.195464e+08
5.337679e+08
5.528997e+08
5.780425e+08
0
0
0
0
0
0
4.898329e+08
4.993748e+08
5.125816e+08
5.302465e+08
5.532993e+08
0
0
0
0
0
0
0
4.717456e+08
4.807185e+08
4.930745e+08
5.095131e+08
5.308462e+08
0
0
0
0
0
0
0
0
4.540806e+08
4.62536e+08
4.741219e+08
4.894604e+08
5.092618e+08
0
0
0
0
0
0
0
0
0
4.362781e+08
4.442375e+08
4.550885e+08
4.69384e+08
4.877478e+08
0
0
0
0
0
0
0
0
0
0
4.187818e+08
4.262782e+08
4.364482e+08
4.497826e+08
4.668309e+08
0
0
0
0
0
0
0
0
0
0
0
4.020645e+08
4.091416e+08
4.186966e+08
4.311691e+08
4.470452e+08
0
0
0
0
0
0
0
0
0
0
0
0
3.863336e+08
3.930378e+08
4.020439e+08
4.137498e+08
4.285904e+08
0
0
0
0
0
0
0
0
0
0
0
0
0
3.716127e+08
3.779832e+08
3.86502e+08
3.975266e+08
4.114505e+08
0
0
0
0
0
0
0
0
0
0
0
0
0
0
3.578083e+08
3.638799e+08
3.719609e+08
3.823783e+08
3.954857e+08
0
0
0
0
0
0
0
0
0
0
0
0
0
0
0
3.447415e+08
3.505418e+08
3.58226e+08
3.680932e+08
3.804659e+08
0
0
0
0
0
0
0
0
0
0
0
0
0
0
0
0
3.321505e+08
3.376979e+08
3.450154e+08
3.543745e+08
3.660707e+08
0
0
0
0
0
0
0
0
0
0
0
0
0
0
0
0
0
3.197125e+08
3.250158e+08
3.319819e+08
3.408586e+08
3.51913e+08
0
0
0
0
0
0
0
0
0
0
0
0
0
0
0
0
0
0
3.072536e+08
3.123176e+08
3.189387e+08
3.27345e+08
3.377786e+08
0
0
0
0
0
0
0
0
0
0
2.951382e+08
2.999697e+08
3.062638e+08
3.14225e+08
3.240759e+08
0
0
0
0
0
0
0
0
0
0
2.837551e+08
2.88373e+08
2.943639e+08
3.019201e+08
3.112415e+08
0
0
0
0
0
0
0
0
0
0
2.732937e+08
2.777166e+08
2.834357e+08
2.906257e+08
2.994758e+08
0
0
0
0
0
0
0
0
0
0
2.63803e+08
2.680472e+08
2.73522e+08
2.803877e+08
2.888167e+08
0
0
0
0
0
0
0
0
0
0
5.296387e+08
5.406379e+08
5.560281e+08
5.768746e+08
6.044845e+08
0
0
0
0
0
5.067367e+08
5.168402e+08
5.308977e+08
5.497999e+08
5.746233e+08
0
0
0
0
0
0
4.866208e+08
4.960286e+08
5.090455e+08
5.264461e+08
5.491354e+08
0
0
0
0
0
0
0
4.685491e+08
4.773941e+08
4.895683e+08
5.057547e+08
5.267427e+08
0
0
0
0
0
0
0
0
4.517163e+08
4.600796e+08
4.715344e+08
4.866904e+08
5.062429e+08
0
0
0
0
0
0
0
0
0
4.352248e+08
4.431435e+08
4.539368e+08
4.681525e+08
4.864075e+08
0
0
0
0
0
0
0
0
0
0
4.185644e+08
4.260505e+08
4.362052e+08
4.49518e+08
4.665367e+08
0
0
0
0
0
0
0
0
0
0
0
4.021528e+08
4.092302e+08
4.187852e+08
4.31257e+08
4.471315e+08
0
0
0
0
0
0
0
0
0
0
0
0
3.864342e+08
3.931402e+08
4.021486e+08
4.138574e+08
4.287013e+08
0
0
0
0
0
0
0
0
0
0
0
0
0
3.716127e+08
3.779832e+08
3.86502e+08
3.975266e+08
4.114505e+08
0
0
0
0
0
0
0
0
0
0
0
0
0
0
3.577156e+08
3.637849e+08
3.718633e+08
3.822774e+08
3.953809e+08
0
0
0
0
0
0
0
0
0
0
0
0
0
0
0
3.446604e+08
3.504579e+08
3.581394e+08
3.680035e+08
3.803731e+08
0
0
0
0
0
0
0
0
0
0
0
0
0
0
0
0
3.322834e+08
3.378312e+08
3.45151e+08
3.545147e+08
3.662179e+08
0
0
0
0
0
0
0
0
0
0
0
0
0
0
0
0
0
3.203398e+08
3.256528e+08
3.326347e+08
3.415347e+08
3.526213e+08
0
0
0
0
0
0
0
0
0
0
0
0
0
0
0
0
0
0
3.085234e+08
3.136102e+08
3.202662e+08
3.287217e+08
3.392216e+08
0
0
0
0
0
0
0
0
0
0
0
0
0
0
0
0
0
0
0
2.966739e+08
3.015338e+08
3.078699e+08
3.158891e+08
3.258168e+08
0
0
0
0
0
0
0
0
0
0
2.851345e+08
2.897775e+08
2.958049e+08
3.03411e+08
3.127978e+08
0
0
0
0
0
0
0
0
0
0
2.742802e+08
2.787208e+08
2.844653e+08
2.916898e+08
3.005847e+08
0
0
0
0
0
0
0
0
0
0
2.642973e+08
2.685506e+08
2.740383e+08
2.809212e+08
2.893725e+08
0
0
0
0
0
0
0
0
0
0
2.552382e+08
2.593173e+08
2.645715e+08
2.711486e+08
2.792072e+08
0
0
0
0
0
0
0
0
0
0
5.053718e+08
5.154149e+08
5.293871e+08
5.481707e+08
5.728294e+08
0
0
0
0
0
0
4.842368e+08
4.935481e+08
5.064284e+08
5.236396e+08
5.460692e+08
0
0
0
0
0
0
0
4.65583e+08
4.743151e+08
4.863295e+08
5.022949e+08
5.229819e+08
0
0
0
0
0
0
0
0
4.487588e+08
4.570139e+08
4.68315e+08
4.832585e+08
5.025226e+08
0
0
0
0
0
0
0
0
0
4.330358e+08
4.408766e+08
4.515591e+08
4.656211e+08
4.836674e+08
0
0
0
0
0
0
0
0
0
0
4.175908e+08
4.250435e+08
4.3515e+08
4.483962e+08
4.653248e+08
0
0
0
0
0
0
0
0
0
0
0
4.019563e+08
4.090261e+08
4.185694e+08
4.310244e+08
4.468756e+08
0
0
0
0
0
0
0
0
0
0
0
0
3.865218e+08
3.932288e+08
4.022383e+08
4.139478e+08
4.287919e+08
0
0
0
0
0
0
0
0
0
0
0
0
0
3.717093e+08
3.78082e+08
3.866032e+08
3.976309e+08
4.115586e+08
0
0
0
0
0
0
0
0
0
0
0
0
0
0
3.577156e+08
3.63785e+08
3.718633e+08
3.822774e+08
3.953809e+08
0
0
0
0
0
0
0
0
0
0
0
0
0
0
0
3.445716e+08
3.503668e+08
3.580455e+08
3.679062e+08
3.802719e+08
0
0
0
0
0
0
0
0
0
0
0
0
0
0
0
0
3.322054e+08
3.3775e+08
3.450666e+08
3.544269e+08
3.661264e+08
0
0
0
0
0
0
0
0
0
0
0
0
0
0
0
0
0
3.204654e+08
3.257781e+08
3.327613e+08
3.416645e+08
3.527567e+08
0
0
0
0
0
0
0
0
0
0
0
0
0
0
0
0
0
0
3.091201e+08
3.14215e+08
3.208847e+08
3.293605e+08
3.398889e+08
0
0
0
0
0
0
0
0
0
0
0
0
0
0
0
0
0
0
0
2.978836e+08
3.02764e+08
3.091315e+08
3.171952e+08
3.271829e+08
0
0
0
0
0
0
0
0
0
0
0
0
0
0
0
0
0
0
0
0
2.865996e+08
2.912686e+08
2.973344e+08
3.049935e+08
3.144506e+08
0
0
0
0
0
0
0
0
0
0
2.755985e+08
2.800621e+08
2.858402e+08
2.931107e+08
3.020658e+08
0
0
0
0
0
0
0
0
0
0
2.652412e+08
2.69511e+08
2.750221e+08
2.819369e+08
2.904298e+08
0
0
0
0
0
0
0
0
0
0
2.557114e+08
2.597988e+08
2.65065e+08
2.71658e+08
2.797373e+08
0
0
0
0
0
0
0
0
0
0
2.470611e+08
2.509794e+08
2.560203e+08
2.623224e+08
2.700321e+08
0
0
0
0
0
0
0
0
0
0
4.829799e+08
4.922406e+08
5.050497e+08
5.221624e+08
5.444575e+08
0
0
0
0
0
0
0
4.633783e+08
4.720287e+08
4.839277e+08
4.997339e+08
5.202047e+08
0
0
0
0
0
0
0
0
4.460078e+08
4.541665e+08
4.653315e+08
4.800872e+08
4.990976e+08
0
0
0
0
0
0
0
0
0
4.302884e+08
4.380363e+08
4.485871e+08
4.624676e+08
4.80269e+08
0
0
0
0
0
0
0
0
0
0
4.155553e+08
4.229421e+08
4.329536e+08
4.460684e+08