/*--------------------------------*- C++ -*----------------------------------*\
| =========                 |                                                 |
| \\      /  F ield         | OpenFOAM: The Open Source CFD Toolbox           |
|  \\    /   O peration     | Version:  2306                                  |
|   \\  /    A nd           | Website:  www.openfoam.com                      |
|    \\/     M anipulation  |                                                 |
\*---------------------------------------------------------------------------*/
FoamFile
{
    version     2.0;
    format      ascii;
    arch        "LSB;label=32;scalar=64";
    class       volScalarField;
    location    "1.2/fuel";
    object      nernst;
}
// * * * * * * * * * * * * * * * * * * * * * * * * * * * * * * * * * * * * * //

dimensions      [1 2 -3 0 0 -1 0];

internalField   nonuniform List<scalar> 
16000
(
-1.806474
-1.807472
-1.791902
-1.806543
-1.809491
-1.792559
-1.807543
-1.778738
-1.791951
-1.806673
-1.812527
-1.793883
-1.809566
-1.779236
-1.792608
-1.807676
-1.76809
-1.778773
-1.792044
-1.806862
-1.81643
-1.79587
-1.81261
-1.780241
-1.793933
-1.809707
-1.768495
-1.779271
-1.792702
-1.807871
-1.759316
-1.768117
-1.778842
-1.79218
-1.807111
-1.820552
-1.798422
-1.816526
-1.781751
-1.795922
-1.812764
-1.76931
-1.780276
-1.79403
-1.809912
-1.759657
-1.768521
-1.779341
-1.79284
-1.808126
-1.751891
-1.759337
-1.76817
-1.778944
-1.79236
-1.807361
-1.823463
-1.801139
-1.820667
-1.7837
-1.798476
-1.816702
-1.770537
-1.781787
-1.796023
-1.812988
-1.760344
-1.769337
-1.780347
-1.794172
-1.810181
-1.752185
-1.759677
-1.768575
-1.779443
-1.793022
-1.808383
-1.745463
-1.751907
-1.75938
-1.76825
-1.779078
-1.79254
-1.807572
-1.825101
-1.80316
-1.823597
-1.785796
-1.801196
-1.820875
-1.772122
-1.783736
-1.798583
-1.816957
-1.761377
-1.770563
-1.781859
-1.796171
-1.813282
-1.752779
-1.760364
-1.769391
-1.780451
-1.79436
-1.810452
-1.745723
-1.752201
-1.75972
-1.768655
-1.779579
-1.793206
-1.808599
-1.739799
-1.745476
-1.751942
-1.759445
-1.768357
-1.779214
-1.792693
-1.807782
-1.825891
-1.804407
-1.82525
-1.787401
-1.803218
-1.823832
-1.773832
-1.78583
-1.801309
-1.821173
-1.762711
-1.772147
-1.783809
-1.798741
-1.817291
-1.75367
-1.761397
-1.770618
-1.781966
-1.796367
-1.813578
-1.746245
-1.752794
-1.760408
-1.769473
-1.780589
-1.794548
-1.810681
-1.740031
-1.745735
-1.752237
-1.759786
-1.768762
-1.779716
-1.79336
-1.808815
-1.734735
-1.739809
-1.745506
-1.751997
-1.759532
-1.768464
-1.779328
-1.792844
-1.807991
-1.826196
-1.805088
-1.826051
-1.78844
-1.804468
-1.825505
-1.775159
-1.787433
-1.803336
-1.824165
-1.764153
-1.773855
-1.785905
-1.801478
-1.821562
-1.754822
-1.762729
-1.772202
-1.78392
-1.798949
-1.817626
-1.74703
-1.753686
-1.76144
-1.770701
-1.782108
-1.796564
-1.813828
-1.740498
-1.746258
-1.75283
-1.760474
-1.769581
-1.780729
-1.794707
-1.810909
-1.734945
-1.740041
-1.745765
-1.752291
-1.759874
-1.768871
-1.779831
-1.793514
-1.80903
-1.730154
-1.734743
-1.739835
-1.745552
-1.75207
-1.759621
-1.768555
-1.779442
-1.792995
-1.8082
-1.826196
-1.805382
-1.826361
-1.789038
-1.80515
-1.826319
-1.776036
-1.788472
-1.804589
-1.825863
-1.765278
-1.77518
-1.787508
-1.803512
-1.824596
-1.756066
-1.764169
-1.77391
-1.78602
-1.801703
-1.821952
-1.748043
-1.754836
-1.762773
-1.772286
-1.784068
-1.799159
-1.817912
-1.7412
-1.747042
-1.753721
-1.761507
-1.770812
-1.782252
-1.796731
-1.814079
-1.735368
-1.740508
-1.746288
-1.752885
-1.760562
-1.769691
-1.780846
-1.794865
-1.811137
-1.730346
-1.734953
-1.740067
-1.745812
-1.752365
-1.759963
-1.768962
-1.779946
-1.793667
-1.809244
-1.725968
-1.73016
-1.734765
-1.739875
-1.745616
-1.752145
-1.759695
-1.768645
-1.779555
-1.793145
-1.809211
-1.825891
-1.805382
-1.826361
-1.789309
-1.805446
-1.826636
-1.776553
-1.78907
-1.805274
-1.826693
-1.766029
-1.776056
-1.788546
-1.80477
-1.826324
-1.757041
-1.765292
-1.775234
-1.787624
-1.803746
-1.825029
-1.749138
-1.756079
-1.764212
-1.773996
-1.786174
-1.801928
-1.822288
-1.742104
-1.748054
-1.754871
-1.76284
-1.7724
-1.784217
-1.799336
-1.8182
-1.736002
-1.741209
-1.747072
-1.753777
-1.761597
-1.770923
-1.782373
-1.796897
-1.814329
-1.730732
-1.735376
-1.740534
-1.746335
-1.75296
-1.760652
-1.769783
-1.780963
-1.795023
-1.811364
-1.726145
-1.730352
-1.734975
-1.740107
-1.745876
-1.752441
-1.760038
-1.769053
-1.78006
-1.793819
-1.810283
-1.722113
-1.725973
-1.730179
-1.734801
-1.739931
-1.745681
-1.752208
-1.759769
-1.768734
-1.779668
-1.793872
-1.81002
-1.825101
-1.805088
-1.826051
-1.789309
-1.805446
-1.826636
-1.776791
-1.789341
-1.805571
-1.827017
-1.766475
-1.776571
-1.789144
-1.805459
-1.827172
-1.757694
-1.766041
-1.776108
-1.788662
-1.80501
-1.826786
-1.749996
-1.757051
-1.765333
-1.775319
-1.787781
-1.803981
-1.825402
-1.743082
-1.749147
-1.756113
-1.76428
-1.774113
-1.78633
-1.80212
-1.822628
-1.73682
-1.742113
-1.748083
-1.754927
-1.762932
-1.772515
-1.784342
-1.799514
-1.818488
-1.731311
-1.736009
-1.741234
-1.747119
-1.753852
-1.761688
-1.771017
-1.782493
-1.797062
-1.814579
-1.726501
-1.730738
-1.735397
-1.740574
-1.746399
-1.753036
-1.760728
-1.769875
-1.78108
-1.79518
-1.812466
-1.722277
-1.72615
-1.730371
-1.735011
-1.740163
-1.745941
-1.752504
-1.760112
-1.769143
-1.780174
-1.794556
-1.811121
-1.718536
-1.722117
-1.72599
-1.730211
-1.73485
-1.739988
-1.745735
-1.752271
-1.759843
-1.768823
-1.780212
-1.794448
-1.810686
-1.823463
-1.804407
-1.82525
-1.789038
-1.80515
-1.826319
-1.776791
-1.789341
-1.805571
-1.827017
-1.766683
-1.776809
-1.789415
-1.805758
-1.827506
-1.758084
-1.766487
-1.776623
-1.789261
-1.805703
-1.827653
-1.750574
-1.757703
-1.766081
-1.776192
-1.78882
-1.805252
-1.827185
-1.74385
-1.750004
-1.757084
-1.765401
-1.775436
-1.787939
-1.804181
-1.82578
-1.737705
-1.743089
-1.749176
-1.756169
-1.764374
-1.774231
-1.786461
-1.802314
-1.822972
-1.732058
-1.736827
-1.742138
-1.748131
-1.755004
-1.763025
-1.772611
-1.784468
-1.799692
-1.818778
-1.727034
-1.731317
-1.736031
-1.741275
-1.747184
-1.753929
-1.761765
-1.771111
-1.782613
-1.797227
-1.815797
-1.722606
-1.726506
-1.730757
-1.735433
-1.74063
-1.746464
-1.753099
-1.760803
-1.769966
-1.781195
-1.79594
-1.813376
-1.718689
-1.722281
-1.726167
-1.730403
-1.73506
-1.74022
-1.745995
-1.752567
-1.760186
-1.769232
-1.780723
-1.795141
-1.811817
-1.715197
-1.718539
-1.722132
-1.726019
-1.730255
-1.734901
-1.740035
-1.745789
-1.752333
-1.759916
-1.769254
-1.780642
-1.794916
-1.811202
-1.820552
-1.80316
-1.823597
-1.78844
-1.804468
-1.825505
-1.776553
-1.78907
-1.805274
-1.826693
-1.766683
-1.776809
-1.789415
-1.805758
-1.827506
-1.758266
-1.766694
-1.77686
-1.789532
-1.806004
-1.827996
-1.75092
-1.758092
-1.766526
-1.776707
-1.789419
-1.805948
-1.828068
-1.744367
-1.75058
-1.757734
-1.766147
-1.776308
-1.788978
-1.805456
-1.827587
-1.738399
-1.743855
-1.750031
-1.757139
-1.765493
-1.775554
-1.788071
-1.804383
-1.826162
-1.732866
-1.73771
-1.743114
-1.749223
-1.756247
-1.764469
-1.77433
-1.786594
-1.802509
-1.823321
-1.727722
-1.732063
-1.736848
-1.742179
-1.748196
-1.755081
-1.763103
-1.772707
-1.784593
-1.79987
-1.820198
-1.723101
-1.727039
-1.731336
-1.736067
-1.741332
-1.74725
-1.753993
-1.761841
-1.771204
-1.782732
-1.798026
-1.81686
-1.718996
-1.72261
-1.726522
-1.730789
-1.735483
-1.740688
-1.746519
-1.753162
-1.760877
-1.770057
-1.781755
-1.796547
-1.81415
-1.715341
-1.718692
-1.722296
-1.726195
-1.730447
-1.735111
-1.740268
-1.746049
-1.752629
-1.760259
-1.769666
-1.781156
-1.795618
-1.812362
-1.712065
-1.7152
-1.718552
-1.722158
-1.726059
-1.730301
-1.734943
-1.740082
-1.745842
-1.752395
-1.76027
-1.769591
-1.780988
-1.795273
-1.811563
-1.81643
-1.801139
-1.820667
-1.787401
-1.803218
-1.823832
-1.776036
-1.788472
-1.804589
-1.825863
-1.766475
-1.776571
-1.789144
-1.805459
-1.827172
-1.758266
-1.766694
-1.77686
-1.789532
-1.806004
-1.827996
-1.751081
-1.758274
-1.766732
-1.776944
-1.78969
-1.806251
-1.828419
-1.744678
-1.750925
-1.758123
-1.766591
-1.776822
-1.789577
-1.806155
-1.828486
-1.738868
-1.744371
-1.750606
-1.757788
-1.766238
-1.776425
-1.789111
-1.805662
-1.827994
-1.733501
-1.738403
-1.743878
-1.750077
-1.757216
-1.765587
-1.775653
-1.788205
-1.804586
-1.826549
-1.728466
-1.73287
-1.737731
-1.743155
-1.74929
-1.756326
-1.764548
-1.77443
-1.786727
-1.802706
-1.825043
-1.723739
-1.727726
-1.732082
-1.736884
-1.742236
-1.748263
-1.755146
-1.76318
-1.772803
-1.784718
-1.800738
-1.82159
-1.719458
-1.723105
-1.727056
-1.731368
-1.736117
-1.741389
-1.747305
-1.754057
-1.761916
-1.771296
-1.78331
-1.798686
-1.817817
-1.715629
-1.719
-1.722625
-1.726551
-1.730833
-1.735534
-1.740735
-1.746573
-1.753225
-1.760952
-1.770495
-1.782196
-1.797048
-1.81477
-1.7122
-1.715343
-1.718705
-1.722321
-1.726236
-1.730493
-1.735153
-1.740315
-1.746103
-1.752691
-1.760615
-1.770003
-1.781504
-1.795982
-1.812747
-1.709112
-1.712067
-1.715212
-1.718576
-1.722194
-1.7261
-1.730338
-1.734984
-1.740129
-1.745895
-1.752693
-1.760543
-1.769861
-1.78125
-1.795517
-1.812527
-1.798422
-1.816526
-1.785796
-1.801196
-1.820875
-1.775159
-1.787433
-1.803336
-1.824165
-1.766029
-1.776056
-1.788546
-1.80477
-1.826324
-1.758084
-1.766487
-1.776623
-1.789261
-1.805703
-1.827653
-1.751081
-1.758274
-1.766732
-1.776944
-1.78969
-1.806251
-1.828419
-1.744823
-1.751086
-1.758304
-1.766797
-1.777059
-1.789849
-1.80646
-1.828845
-1.73915
-1.744681
-1.75095
-1.758176
-1.766682
-1.776939
-1.78971
-1.806364
-1.828908
-1.73393
-1.738871
-1.744393
-1.750651
-1.757863
-1.766331
-1.776523
-1.789245
-1.805869
-1.828405
-1.729052
-1.733504
-1.738423
-1.743918
-1.750143
-1.757294
-1.765666
-1.775752
-1.788341
-1.804791
-1.828459
-1.724429
-1.72847
-1.732888
-1.737767
-1.743212
-1.749357
-1.756392
-1.764628
-1.774531
-1.786862
-1.803674
-1.827032
-1.720053
-1.723742
-1.727743
-1.732114
-1.736934
-1.742294
-1.748318
-1.755211
-1.763258
-1.772899
-1.785329
-1.801521
-1.823006
-1.716062
-1.719461
-1.72312
-1.727084
-1.731413
-1.736168
-1.741437
-1.747359
-1.75412
-1.761991
-1.771745
-1.783773
-1.799253
-1.818626
-1.712472
-1.715632
-1.719013
-1.722651
-1.726591
-1.730879
-1.735576
-1.740783
-1.746627
-1.753287
-1.76131
-1.770836
-1.782553
-1.797435
-1.815218
-1.70924
-1.712202
-1.715355
-1.718729
-1.722358
-1.726277
-1.73053
-1.735195
-1.740361
-1.746156
-1.75299
-1.760887
-1.770273
-1.781767
-1.796231
-1.706318
-1.709114
-1.712078
-1.715234
-1.71861
-1.722232
-1.726134
-1.730376
-1.735026
-1.740175
-1.746152
-1.752919
-1.760759
-1.770062
-1.781426
-1.809491
-1.79587
-1.81261
-1.7837
-1.798476
-1.816702
-1.773832
-1.78583
-1.801309
-1.821173
-1.765278
-1.77518
-1.787508
-1.803512
-1.824596
-1.757694
-1.766041
-1.776108
-1.788662
-1.80501
-1.826786
-1.75092
-1.758092
-1.766526
-1.776707
-1.789419
-1.805948
-1.828068
-1.744823
-1.751086
-1.758304
-1.766797
-1.777059
-1.789849
-1.80646
-1.828845
-1.739282
-1.744826
-1.751111
-1.758357
-1.766887
-1.777175
-1.789982
-1.80667
-1.829274
-1.734189
-1.739152
-1.744703
-1.750995
-1.75825
-1.766774
-1.777035
-1.789844
-1.806574
-1.829334
-1.729448
-1.733932
-1.73889
-1.744432
-1.750715
-1.75794
-1.766408
-1.776621
-1.78938
-1.806078
-1.830426
-1.724973
-1.729054
-1.733521
-1.738458
-1.743975
-1.750209
-1.757359
-1.765745
-1.775853
-1.788477
-1.8058
-1.830622
-1.720697
-1.724432
-1.728485
-1.73292
-1.737818
-1.743271
-1.749414
-1.756459
-1.764709
-1.774633
-1.787522
-1.8047
-1.829498
-1.71662
-1.720055
-1.723757
-1.727771
-1.732159
-1.736986
-1.742342
-1.748374
-1.755276
-1.763335
-1.773366
-1.785859
-1.802279
-1.824374
-1.712879
-1.716064
-1.719474
-1.723146
-1.727125
-1.731458
-1.73621
-1.741485
-1.747414
-1.754183
-1.762356
-1.772097
-1.784162
-1.799707
-1.819235
-1.709497
-1.712473
-1.715644
-1.719036
-1.722688
-1.726633
-1.730917
-1.735618
-1.74083
-1.74668
-1.753589
-1.761583
-1.771108
-1.782822
-1.797699
-1.706439
-1.709241
-1.712213
-1.715377
-1.718762
-1.722396
-1.726311
-1.730568
-1.735236
-1.740408
-1.746413
-1.753215
-1.761103
-1.770473
-1.781942
-1.703663
-1.706319
-1.709124
-1.712098
-1.715265
-1.718644
-1.722262
-1.726167
-1.730413
-1.735067
-1.740399
-1.746342
-1.753096
-1.760919
-1.770195
-1.807472
-1.793883
-1.809566
-1.781751
-1.795922
-1.812764
-1.772122
-1.783736
-1.798583
-1.816957
-1.764153
-1.773855
-1.785905
-1.801478
-1.821562
-1.757041
-1.765292
-1.775234
-1.787624
-1.803746
-1.825029
-1.750574
-1.757703
-1.766081
-1.776192
-1.78882
-1.805252
-1.827185
-1.744678
-1.750925
-1.758123
-1.766591
-1.776822
-1.789577
-1.806155
-1.828486
-1.739282
-1.744826
-1.751111
-1.758357
-1.766887
-1.777175
-1.789982
-1.80667
-1.829274
-1.73431
-1.739284
-1.744847
-1.751155
-1.758431
-1.766979
-1.777272
-1.790116
-1.806881
-1.829706
-1.729687
-1.73419
-1.739171
-1.744741
-1.751058
-1.758326
-1.76685
-1.777133
-1.789979
-1.806785
-1.831423
-1.725341
-1.729449
-1.733949
-1.738924
-1.744488
-1.75078
-1.758004
-1.766486
-1.77672
-1.789516
-1.807103
-1.832627
-1.721204
-1.724974
-1.729069
-1.733552
-1.738508
-1.744033
-1.750265
-1.757424
-1.765825
-1.775954
-1.789146
-1.806848
-1.833187
-1.717224
-1.720699
-1.724446
-1.728514
-1.732966
-1.73787
-1.74332
-1.74947
-1.756526
-1.76479
-1.775131
-1.788199
-1.805925
-1.83266
-1.713404
-1.716621
-1.720068
-1.723783
-1.727812
-1.732205
-1.737028
-1.74239
-1.748429
-1.75534
-1.763712
-1.773762
-1.78636
-1.802969
-1.825536
-1.709881
-1.71288
-1.716076
-1.719498
-1.723182
-1.727166
-1.731496
-1.736252
-1.741532
-1.747468
-1.754488
-1.762636
-1.772388
-1.784462
-1.800021
-1.706682
-1.709498
-1.712484
-1.715665
-1.71907
-1.722725
-1.726667
-1.730954
-1.735659
-1.740876
-1.746939
-1.753813
-1.761799
-1.77131
-1.782999
-1.703777
-1.70644
-1.709251
-1.712233
-1.715408
-1.718797
-1.722426
-1.726344
-1.730605
-1.735277
-1.740632
-1.746602
-1.753391
-1.761261
-1.770604
-1.701132
-1.703663
-1.706328
-1.709143
-1.712127
-1.715297
-1.718672
-1.722293
-1.726201
-1.730449
-1.735265
-1.740561
-1.746489
-1.753224
-1.761022
-1.806474
-1.792559
-1.807543
-1.780241
-1.793933
-1.809707
-1.770537
-1.781787
-1.796023
-1.812988
-1.762711
-1.772147
-1.783809
-1.798741
-1.817291
-1.756066
-1.764169
-1.77391
-1.78602
-1.801703
-1.821952
-1.749996
-1.757051
-1.765333
-1.775319
-1.787781
-1.803981
-1.825402
-1.744367
-1.75058
-1.757734
-1.766147
-1.776308
-1.788978
-1.805456
-1.827587
-1.73915
-1.744681
-1.75095
-1.758176
-1.766682
-1.776939
-1.78971
-1.806364
-1.828908
-1.73431
-1.739284
-1.744847
-1.751155
-1.758431
-1.766979
-1.777272
-1.790116
-1.806881
-1.829706
-1.729799
-1.734311
-1.739302
-1.744885
-1.751218
-1.758506
-1.767054
-1.777369
-1.79025
-1.807094
-1.831829
-1.725563
-1.729687
-1.734206
-1.739204
-1.744796
-1.751123
-1.758389
-1.766926
-1.777231
-1.790114
-1.80782
-1.833642
-1.721548
-1.725341
-1.729463
-1.733979
-1.738973
-1.744545
-1.750834
-1.758067
-1.766564
-1.77682
-1.790181
-1.808123
-1.835112
-1.7177
-1.721205
-1.724988
-1.729097
-1.733597
-1.738559
-1.744081
-1.75032
-1.75749
-1.765905
-1.776451
-1.789818
-1.808059
-1.836222
-1.713973
-1.717225
-1.720711
-1.724472
-1.728555
-1.733013
-1.737913
-1.743369
-1.749527
-1.756593
-1.765188
-1.775632
-1.789006
-1.807442
-1.836964
-1.710378
-1.713405
-1.716633
-1.720092
-1.72382
-1.727854
-1.732243
-1.737071
-1.742438
-1.748484
-1.755654
-1.764024
-1.774131
-1.786802
-1.803507
-1.707047
-1.709882
-1.712891
-1.716097
-1.719531
-1.72322
-1.7272
-1.731534
-1.736294
-1.741579
-1.747728
-1.754717
-1.762864
-1.772607
-1.784658
-1.704009
-1.706683
-1.709508
-1.712504
-1.715696
-1.719105
-1.722756
-1.7267
-1.730991
-1.735701
-1.741102
-1.747126
-1.753989
-1.761956
-1.771438
-1.701242
-1.703778
-1.706449
-1.70927
-1.712262
-1.71544
-1.718825
-1.722457
-1.726378
-1.730641
-1.735475
-1.740793
-1.746747
-1.753518
-1.761361
-1.698713
-1.701133
-1.703672
-1.706345
-1.709169
-1.712156
-1.715323
-1.7187
-1.722323
-1.726234
-1.730626
-1.735403
-1.740684
-1.746593
-1.753305
-1.791902
-1.806543
-1.779236
-1.792608
-1.807676
-1.76931
-1.780276
-1.79403
-1.809912
-1.761377
-1.770563
-1.781859
-1.796171
-1.813282
-1.754822
-1.762729
-1.772202
-1.78392
-1.798949
-1.817626
-1.749138
-1.756079
-1.764212
-1.773996
-1.786174
-1.801928
-1.822288
-1.74385
-1.750004
-1.757084
-1.765401
-1.775436
-1.787939
-1.804181
-1.82578
-1.738868
-1.744371
-1.750606
-1.757788
-1.766238
-1.776425
-1.789111
-1.805662
-1.827994
-1.734189
-1.739152
-1.744703
-1.750995
-1.75825
-1.766774
-1.777035
-1.789844
-1.806574
-1.829334
-1.729799
-1.734311
-1.739302
-1.744885
-1.751218
-1.758506
-1.767054
-1.777369
-1.79025
-1.807094
-1.831829
-1.725667
-1.729799
-1.734327
-1.739335
-1.74494
-1.751282
-1.758568
-1.76713
-1.777466
-1.790385
-1.808134
-1.83406
-1.721756
-1.725563
-1.729701
-1.734236
-1.739253
-1.744852
-1.751176
-1.758452
-1.767003
-1.777329
-1.790776
-1.808821
-1.836071
-1.718022
-1.721548
-1.725354
-1.72949
-1.734023
-1.739023
-1.744591
-1.750889
-1.758132
-1.766643
-1.777308
-1.790816
-1.809252
-1.837901
-1.714421
-1.7177
-1.721217
-1.725013
-1.729137
-1.733643
-1.738602
-1.744129
-1.750376
-1.757557
-1.766299
-1.77694
-1.790596
-1.809448
-1.839795
-1.710915
-1.713973
-1.717236
-1.720735
-1.724509
-1.728598
-1.733051
-1.737956
-1.743419
-1.749585
-1.756923
-1.765583
-1.776229
-1.790001
-1.80943
-1.844563
-1.707517
-1.710378
-1.713416
-1.716655
-1.720126
-1.723858
-1.727888
-1.732281
-1.737113
-1.742486
-1.748751
-1.755908
-1.764311
-1.774449
-1.787122
-1.704356
-1.707047
-1.709892
-1.712911
-1.716129
-1.719566
-1.723251
-1.727234
-1.731571
-1.736336
-1.741806
-1.747919
-1.754901
-1.763032
-1.772742
-1.701462
-1.704009
-1.706692
-1.709526
-1.712533
-1.715728
-1.719133
-1.722787
-1.726734
-1.731028
-1.735899
-1.741261
-1.747271
-1.754113
-1.762053
-1.698818
-1.701242
-1.703787
-1.706466
-1.709297
-1.712291
-1.715466
-1.718853
-1.722487
-1.726411
-1.730819
-1.735613
-1.740915
-1.74685
-1.753595
-1.696394
-1.698713
-1.70114
-1.703688
-1.70637
-1.709197
-1.712181
-1.715349
-1.718728
-1.722354
-1.726394
-1.730746
-1.735507
-1.740769
-1.746655
-1.778738
-1.791951
-1.806673
-1.768495
-1.779271
-1.792702
-1.807871
-1.760344
-1.769337
-1.780347
-1.794172
-1.810181
-1.75367
-1.761397
-1.770618
-1.781966
-1.796367
-1.813578
-1.748043
-1.754836
-1.762773
-1.772286
-1.784068
-1.799159
-1.817912
-1.743082
-1.749147
-1.756113
-1.76428
-1.774113
-1.78633
-1.80212
-1.822628
-1.738399
-1.743855
-1.750031
-1.757139
-1.765493
-1.775554
-1.788071
-1.804383
-1.826162
-1.73393
-1.738871
-1.744393
-1.750651
-1.757863
-1.766331
-1.776523
-1.789245
-1.805869
-1.828405
-1.729687
-1.73419
-1.739171
-1.744741
-1.751058
-1.758326
-1.76685
-1.777133
-1.789979
-1.806785
-1.831423
-1.725667
-1.729799
-1.734327
-1.739335
-1.74494
-1.751282
-1.758568
-1.76713
-1.777466
-1.790385
-1.808134
-1.83406
-1.721853
-1.725667
-1.729813
-1.734356
-1.739383
-1.744996
-1.751335
-1.758631
-1.767207
-1.777564
-1.791046
-1.809128
-1.836468
-1.718218
-1.721756
-1.725575
-1.729728
-1.734279
-1.739302
-1.744898
-1.751229
-1.758515
-1.76708
-1.777811
-1.791387
-1.809898
-1.838724
-1.714726
-1.718022
-1.72156
-1.725379
-1.72953
-1.734068
-1.739064
-1.744639
-1.750943
-1.758197
-1.767027
-1.777762
-1.791525
-1.810486
-1.841006
-1.71134
-1.714421
-1.717711
-1.72124
-1.72505
-1.729179
-1.733681
-1.738644
-1.744178
-1.750433
-1.757882
-1.766681
-1.777509
-1.791491
-1.811028
-1.844742
-1.708027
-1.710916
-1.713984
-1.717258
-1.720769
-1.724548
-1.728632
-1.73309
-1.738
-1.743469
-1.749866
-1.757247
-1.766055
-1.776968
-1.791301
-1.81275
-1.84899
-1.704803
-1.707518
-1.710388
-1.713436
-1.716686
-1.720161
-1.723889
-1.727922
-1.732319
-1.737156
-1.742719
-1.748963
-1.75614
-1.764555
-1.774666
-1.701793
-1.704356
-1.707056
-1.709911
-1.71294
-1.716161
-1.719594
-1.723282
-1.727267
-1.731608
-1.736536
-1.741967
-1.74807
-1.755033
-1.763129
-1.699028
-1.701462
-1.704018
-1.706709
-1.709553
-1.712563
-1.715754
-1.719161
-1.722817
-1.726767
-1.731205
-1.736035
-1.741381
-1.747371
-1.754186
-1.696495
-1.698818
-1.70125
-1.703803
-1.706491
-1.709325
-1.712316
-1.715492
-1.718881
-1.722518
-1.72657
-1.730937
-1.735716
-1.740998
-1.746909
-1.694167
-1.696395
-1.698721
-1.701156
-1.703712
-1.706396
-1.70922
-1.712205
-1.715374
-1.718756
-1.722499
-1.726498
-1.730835
-1.735577
-1.740817
-1.76809
-1.778773
-1.792044
-1.806862
-1.759657
-1.768521
-1.779341
-1.79284
-1.808126
-1.752779
-1.760364
-1.769391
-1.780451
-1.79436
-1.810452
-1.74703
-1.753686
-1.76144
-1.770701
-1.782108
-1.796564
-1.813828
-1.742104
-1.748054
-1.754871
-1.76284
-1.7724
-1.784217
-1.799336
-1.8182
-1.737705
-1.743089
-1.749176
-1.756169
-1.764374
-1.774231
-1.786461
-1.802314
-1.822972
-1.733501
-1.738403
-1.743878
-1.750077
-1.757216
-1.765587
-1.775653
-1.788205
-1.804586
-1.826549
-1.729448
-1.733932
-1.73889
-1.744432
-1.750715
-1.75794
-1.766408
-1.776621
-1.78938
-1.806078
-1.830426
-1.725563
-1.729687
-1.734206
-1.739204
-1.744796
-1.751123
-1.758389
-1.766926
-1.777231
-1.790114
-1.80782
-1.833642
-1.721853
-1.725667
-1.729813
-1.734356
-1.739383
-1.744996
-1.751335
-1.758631
-1.767207
-1.777564
-1.791046
-1.809128
-1.836468
-1.71831
-1.721853
-1.725679
-1.729839
-1.734399
-1.739433
-1.745041
-1.751388
-1.758693
-1.767283
-1.778043
-1.791646
-1.810183
-1.839067
-1.71491
-1.718217
-1.721767
-1.7256
-1.729767
-1.734324
-1.739343
-1.744944
-1.751282
-1.758578
-1.767458
-1.778241
-1.79205
-1.811046
-1.841612
-1.711628
-1.714726
-1.718033
-1.721582
-1.725415
-1.729571
-1.734105
-1.739106
-1.744686
-1.750998
-1.758513
-1.767378
-1.778273
-1.792303
-1.811816
-1.84513
-1.70843
-1.71134
-1.714431
-1.717732
-1.721274
-1.725088
-1.729213
-1.733719
-1.738688
-1.744228
-1.75071
-1.758193
-1.767128
-1.778166
-1.792506
-1.813109
-1.848567
-1.705288
-1.708027
-1.710925
-1.714004
-1.71729
-1.720805
-1.72458
-1.728668
-1.733129
-1.738045
-1.743714
-1.750139
-1.757636
-1.766641
-1.777935
-1.793428
-1.814703
-1.852403
-1.702219
-1.704803
-1.707526
-1.710407
-1.713465
-1.716718
-1.720189
-1.72392
-1.727956
-1.732357
-1.73736
-1.742898
-1.749155
-1.756334
-1.764713
-1.699344
-1.701793
-1.704364
-1.707074
-1.709938
-1.71297
-1.716187
-1.719622
-1.723312
-1.727301
-1.731786
-1.736673
-1.742092
-1.748175
-1.755105
-1.696696
-1.699028
-1.70147
-1.704034
-1.706734
-1.709581
-1.712587
-1.71578
-1.719189
-1.722848
-1.726927
-1.731323
-1.736137
-1.741462
-1.747426
-1.694263
-1.696495
-1.698825
-1.701265
-1.703827
-1.706517
-1.709347
-1.71234
-1.715518
-1.718909
-1.722663
-1.726674
-1.731025
-1.735784
-1.741043
-1.692022
-1.694167
-1.696402
-1.698735
-1.701178
-1.703736
-1.706418
-1.709242
-1.712229
-1.7154
-1.718888
-1.722591
-1.726574
-1.730892
-1.735614
-1.759316
-1.768117
-1.778842
-1.79218
-1.807111
-1.752185
-1.759677
-1.768575
-1.779443
-1.793022
-1.808383
-1.746245
-1.752794
-1.760408
-1.769473
-1.780589
-1.794548
-1.810681
-1.7412
-1.747042
-1.753721
-1.761507
-1.770812
-1.782252
-1.796731
-1.814079
-1.73682
-1.742113
-1.748083
-1.754927
-1.762932
-1.772515
-1.784342
-1.799514
-1.818488
-1.732866
-1.73771
-1.743114
-1.749223
-1.756247
-1.764469
-1.77433
-1.786594
-1.802509
-1.823321
-1.729052
-1.733504
-1.738423
-1.743918
-1.750143
-1.757294
-1.765666
-1.775752
-1.788341
-1.804791
-1.828459
-1.725341
-1.729449
-1.733949
-1.738924
-1.744488
-1.75078
-1.758004
-1.766486
-1.77672
-1.789516
-1.807103
-1.832627
-1.721756
-1.725563
-1.729701
-1.734236
-1.739253
-1.744852
-1.751176
-1.758452
-1.767003
-1.777329
-1.790776
-1.808821
-1.836071
-1.71831
-1.721853
-1.725679
-1.729839
-1.734399
-1.739433
-1.745041
-1.751388
-1.758693
-1.767283
-1.778043
-1.791646
-1.810183
-1.839067
-1.714997
-1.718309
-1.721864
-1.725703
-1.729878
-1.734443
-1.739473
-1.745087
-1.751441
-1.758756
-1.767657
-1.778462
-1.79229
-1.811296
-1.841872
-1.711803
-1.71491
-1.718227
-1.721789
-1.725635
-1.729807
-1.73436
-1.739383
-1.744991
-1.751336
-1.758888
-1.767787
-1.778713
-1.792763
-1.812258
-1.845416
-1.708704
-1.711627
-1.714735
-1.718053
-1.721616
-1.725452
-1.729604
-1.734142
-1.739148
-1.744734
-1.751266
-1.758797
-1.767775
-1.778837
-1.793144
-1.813501
-1.848527
-1.705672
-1.70843
-1.711349
-1.714451
-1.717763
-1.721309
-1.725119
-1.729248
-1.733758
-1.738731
-1.744468
-1.750971
-1.75856
-1.767646
-1.778914
-1.793808
-1.814782
-1.85183
-1.702682
-1.705288
-1.708036
-1.710944
-1.714034
-1.717322
-1.720834
-1.724612
-1.728703
-1.733169
-1.73826
-1.743947
-1.750467
-1.75812
-1.76741
-1.779496
-1.794657
-1.816268
-1.855152
-1.699752
-1.702219
-1.704812
-1.707544
-1.710434
-1.713495
-1.716745
-1.720218
-1.723951
-1.72799
-1.732539
-1.737514
-1.743059
-1.749313
-1.756453
-1.696999
-1.699344
-1.701801
-1.70438
-1.707099
-1.709966
-1.712994
-1.716213
-1.71965
-1.723343
-1.727461
-1.731905
-1.736779
-1.742177
-1.748228
-1.694456
-1.696696
-1.699036
-1.701485
-1.704058
-1.70676
-1.709604
-1.712611
-1.715806
-1.719217
-1.722992
-1.727029
-1.731409
-1.736202
-1.741502
-1.692114
-1.694263
-1.696502
-1.69884
-1.701287
-1.703851
-1.706538
-1.709369
-1.712363
-1.715543
-1.719041
-1.722754
-1.726749
-1.731081
-1.735818
-1.689952
-1.692022
-1.694173
-1.696415
-1.698756
-1.701201
-1.703756
-1.706438
-1.709264
-1.712252
-1.715522
-1.71897
-1.722656
-1.726622
-1.730919
-1.751891
-1.759337
-1.76817
-1.778944
-1.79236
-1.807361
-1.745723
-1.752201
-1.75972
-1.768655
-1.779579
-1.793206
-1.808599
-1.740498
-1.746258
-1.75283
-1.760474
-1.769581
-1.780729
-1.794707
-1.810909
-1.736002
-1.741209
-1.747072
-1.753777
-1.761597
-1.770923
-1.782373
-1.796897
-1.814329
-1.732058
-1.736827
-1.742138
-1.748131
-1.755004
-1.763025
-1.772611
-1.784468
-1.799692
-1.818778
-1.728466
-1.73287
-1.737731
-1.743155
-1.74929
-1.756326
-1.764548
-1.77443
-1.786727
-1.802706
-1.825043
-1.724973
-1.729054
-1.733521
-1.738458
-1.743975
-1.750209
-1.757359
-1.765745
-1.775853
-1.788477
-1.8058
-1.830622
-1.721548
-1.725341
-1.729463
-1.733979
-1.738973
-1.744545
-1.750834
-1.758067
-1.766564
-1.77682
-1.790181
-1.808123
-1.835112
-1.718218
-1.721756
-1.725575
-1.729728
-1.734279
-1.739302
-1.744898
-1.751229
-1.758515
-1.76708
-1.777811
-1.791387
-1.809898
-1.838724
-1.714997
-1.718309
-1.721864
-1.725703
-1.729878
-1.734443
-1.739473
-1.745087
-1.751441
-1.758756
-1.767657
-1.778462
-1.79229
-1.811296
-1.841872
-1.711885
-1.714996
-1.718319
-1.721886
-1.725739
-1.729918
-1.734479
-1.739513
-1.745133
-1.751494
-1.759063
-1.767977
-1.778917
-1.792975
-1.812462
-1.845558
-1.70887
-1.711802
-1.714919
-1.718248
-1.721822
-1.725672
-1.72984
-1.734396
-1.739424
-1.745037
-1.751599
-1.759154
-1.768151
-1.779224
-1.793519
-1.813782
-1.848588
-1.705933
-1.708703
-1.711636
-1.714754
-1.718084
-1.72165
-1.725483
-1.729638
-1.734179
-1.73919
-1.744966
-1.751504
-1.759121
-1.768216
-1.779449
-1.794174
-1.814975
-1.851587
-1.703048
-1.705671
-1.708438
-1.711367
-1.71448
-1.717796
-1.721338
-1.72515
-1.729283
-1.733797
-1.738943
-1.744692
-1.751281
-1.758986
-1.768236
-1.779853
-1.794826
-1.816271
-1.854568
-1.700194
-1.702682
-1.705296
-1.708053
-1.710971
-1.714064
-1.717349
-1.720863
-1.724644
-1.728739
-1.733361
-1.738463
-1.74423
-1.750878
-1.758757
-1.76864
-1.780388
-1.795644
-1.817569
-1.857385
-1.697389
-1.699752
-1.702227
-1.704828
-1.707569
-1.710462
-1.713519
-1.716771
-1.720246
-1.723982
-1.728154
-1.732672
-1.737651
-1.743189
-1.749403
-1.694747
-1.696999
-1.699351
-1.701816
-1.704404
-1.707125
-1.709988
-1.713018
-1.716238
-1.719678
-1.723488
-1.727564
-1.731994
-1.736847
-1.742215
-1.6923
-1.694456
-1.696703
-1.69905
-1.701508
-1.704082
-1.706781
-1.709626
-1.712635
-1.715831
-1.719349
-1.723082
-1.727102
-1.731462
-1.736231
-1.690041
-1.692114
-1.694269
-1.696515
-1.698861
-1.701311
-1.703871
-1.706559
-1.709392
-1.712387
-1.715665
-1.719122
-1.722818
-1.726795
-1.731105
-1.687952
-1.689952
-1.692028
-1.694186
-1.696435
-1.698778
-1.70122
-1.703776
-1.706459
-1.709286
-1.712365
-1.715594
-1.719027
-1.722695
-1.726641
-1.745463
-1.751907
-1.75938
-1.76825
-1.779078
-1.79254
-1.807572
-1.740031
-1.745735
-1.752237
-1.759786
-1.768762
-1.779716
-1.79336
-1.808815
-1.735368
-1.740508
-1.746288
-1.752885
-1.760562
-1.769691
-1.780846
-1.794865
-1.811137
-1.731311
-1.736009
-1.741234
-1.747119
-1.753852
-1.761688
-1.771017
-1.782493
-1.797062
-1.814579
-1.727722
-1.732063
-1.736848
-1.742179
-1.748196
-1.755081
-1.763103
-1.772707
-1.784593
-1.79987
-1.820198
-1.724429
-1.72847
-1.732888
-1.737767
-1.743212
-1.749357
-1.756392
-1.764628
-1.774531
-1.786862
-1.803674
-1.827032
-1.721204
-1.724974
-1.729069
-1.733552
-1.738508
-1.744033
-1.750265
-1.757424
-1.765825
-1.775954
-1.789146
-1.806848
-1.833187
-1.718022
-1.721548
-1.725354
-1.72949
-1.734023
-1.739023
-1.744591
-1.750889
-1.758132
-1.766643
-1.777308
-1.790816
-1.809252
-1.837901
-1.71491
-1.718217
-1.721767
-1.7256
-1.729767
-1.734324
-1.739343
-1.744944
-1.751282
-1.758578
-1.767458
-1.778241
-1.79205
-1.811046
-1.841612
-1.711885
-1.714996
-1.718319
-1.721886
-1.725739
-1.729918
-1.734479
-1.739513
-1.745133
-1.751494
-1.759063
-1.767977
-1.778917
-1.792975
-1.812462
-1.845558
-1.708948
-1.711884
-1.715005
-1.718339
-1.721919
-1.725775
-1.729951
-1.734515
-1.739554
-1.745179
-1.751754
-1.75932
-1.768327
-1.779405
-1.793697
-1.813926
-1.848638
-1.706091
-1.708869
-1.71181
-1.714938
-1.718278
-1.721856
-1.725702
-1.729873
-1.734433
-1.739466
-1.745264
-1.75182
-1.759449
-1.768548
-1.779769
-1.794433
-1.815149
-1.851507
-1.703298
-1.705932
-1.708711
-1.711654
-1.714783
-1.718116
-1.721678
-1.725513
-1.729672
-1.734217
-1.739395
-1.74517
-1.751777
-1.759482
-1.768696
-1.780178
-1.795044
-1.81637
-1.854252
-1.700545
-1.703047
-1.705679
-1.708455
-1.711394
-1.71451
-1.717822
-1.721367
-1.725182
-1.729318
-1.733986
-1.739138
-1.744959
-1.751642
-1.759474
-1.768966
-1.78057
-1.795739
-1.817559
-1.856841
-1.697813
-1.700194
-1.702689
-1.705313
-1.708079
-1.711
-1.714089
-1.717376
-1.720893
-1.724676
-1.728912
-1.73354
-1.738711
-1.744586
-1.751421
-1.759768
-1.769337
-1.781106
-1.796462
-1.818649
-1.85918
-1.695121
-1.697389
-1.699759
-1.702242
-1.704852
-1.707595
-1.710484
-1.713543
-1.716797
-1.720274
-1.724131
-1.728271
-1.73279
-1.737759
-1.743257
-1.692579
-1.694746
-1.697005
-1.699366
-1.701838
-1.704429
-1.707146
-1.71001
-1.713042
-1.716264
-1.719811
-1.723578