/*--------------------------------*- C++ -*----------------------------------*\
| =========                 |                                                 |
| \\      /  F ield         | OpenFOAM: The Open Source CFD Toolbox           |
|  \\    /   O peration     | Version:  2306                                  |
|   \\  /    A nd           | Website:  www.openfoam.com                      |
|    \\/     M anipulation  |                                                 |
\*---------------------------------------------------------------------------*/
FoamFile
{
    version     2.0;
    format      ascii;
    arch        "LSB;label=32;scalar=64";
    class       volScalarField;
    location    "1.2/fuel";
    object      p;
}
// * * * * * * * * * * * * * * * * * * * * * * * * * * * * * * * * * * * * * //

dimensions      [1 -1 -2 0 0 0 0];

internalField   nonuniform List<scalar> 
16000
(
100659.6
100651.4
100547.8
100638.1
100636.7
100539.6
100629.6
100459.3
100530.1
100591.1
100610.9
100524.3
100614.2
100451.8
100521.6
100581.8
100392.8
100444.5
100491.1
100536.5
100586.7
100498.3
100587.4
100438.1
100506
100565
100386.3
100437
100482.2
100526.4
100342.7
100380.3
100412.1
100445.8
100422.6
100538.1
100471.7
100561.9
100414.9
100479.4
100536
100374.1
100422.9
100465.8
100508
100337
100373.7
100404.3
100436.5
100410.8
100303.5
100331.9
100352.7
100374.4
100351.4
100400.7
100529.6
100424.9
100511.8
100390.7
100452.1
100507.6
100353.8
100399.4
100437.9
100476.4
100326.2
100361.3
100389.7
100419.1
100389
100298.3
100326
100345.9
100366.3
100341
100388.7
100271.9
100293.9
100308
100320.6
100295.7
100333.3
100393.8
100522.8
100411.9
100502.2
100349.9
100404.5
100454.2
100332.5
100374.8
100409.1
100444.6
100308.2
100340.8
100365.3
100389.8
100352.1
100288.6
100315.1
100333.1
100351
100321.6
100366.2
100267.3
100288.7
100302
100313.6
100286.9
100322.8
100381.7
100246
100263.5
100272.9
100280.1
100253.6
100280.7
100327.5
100382.1
100522.1
100402.3
100494.7
100337.5
100391
100442.2
100297.1
100333.4
100359.8
100387.5
100289.2
100319.1
100339.7
100359.2
100313.3
100272.6
100296.9
100311.9
100325.7
100289.5
100328.3
100258.6
100278.9
100290.7
100300.3
100270.3
100303
100358.9
100241.7
100258.8
100267.5
100273.9
100246.1
100271.7
100317
100369.8
100224.2
100238.4
100244.7
100248.4
100222
100240.8
100275.9
100317.8
100372.3
100521.8
100399.3
100493.6
100328.4
100381.1
100433.2
100285.9
100320.7
100345.2
100372.7
100258.3
100283.3
100297.3
100308
100248.2
100255.6
100277.7
100289.5
100298.9
100255.2
100288.2
100244.1
100262.7
100272.1
100278.5
100243.1
100270.3
100320.8
100233.8
100249.9
100257.5
100262.3
100231.9
100254.9
100297.1
100346.7
100220.3
100234.1
100239.9
100242.9
100215.4
100233.1
100266.9
100307.2
100359.9
100205.7
100217.3
100221.5
100222.9
100197.2
100210.9
100236.7
100267.8
100309.7
100360.2
100521.8
100398
100493.1
100325.2
100378
100431.2
100277.7
100311.4
100334.6
100361.9
100248.2
100271.9
100283.8
100292.1
100227.7
100228.2
100246.5
100253
100255.2
100199.8
100221.6
100228.8
100245.6
100252.3
100255.2
100213.8
100235.2
100280.2
100220.7
100235.4
100241
100243.2
100208.5
100227.2
100264.1
100308
100213.1
100226.1
100230.9
100232.6
100203
100218.7
100250
100287.1
100336.5
100202.1
100213.4
100217.2
100218
100191.4
100204.2
100229
100258.7
100299
100347.5
100189.7
100199.4
100202.1
100201.9
100177.3
100187.4
100207.3
100229.8
100261.1
100299.7
100329.3
100522.1
100398
100493.1
100323.8
100376.5
100430.4
100274.8
100308.2
100331.1
100359
100240.9
100263.6
100274.1
100280.7
100213.3
100219.1
100236.2
100241.1
100241
100181.2
100199.9
100204.3
100217.9
100220.5
100217.8
100167.5
100179.2
100213
100206.8
100219.9
100223.4
100222.8
100183.6
100197.6
100228.9
100266.7
100201.2
100212.9
100216.1
100215.6
100182.8
100195.2
100222.2
100253.8
100297.3
100195.4
100206.1
100209
100208.7
100180.5
100191.7
100214.6
100241.7
100278.7
100323.8
100186.4
100195.8
100198.1
100197.5
100172.2
100181.5
100200.6
100222.1
100251.9
100288.8
100316.3
100175.7
100183.9
100185.5
100184.3
100161
100168.6
100184.3
100201.4
100224.1
100252.7
100274.1
100336.5
100522.8
100399.3
100493.6
100323.8
100376.5
100430.4
100273.4
100306.7
100329.5
100357.7
100238.2
100260.6
100270.7
100276.8
100208.3
100212.6
100228.9
100232.6
100230.8
100168.2
100184.8
100196
100208.7
100209.9
100205.3
100151.6
100160
100191
100184.7
100195.2
100195.2
100190.3
100144.3
100150.7
100172.5
100198.6
100188.5
100198.9
100200.2
100197.5
100161.1
100169.8
100192.4
100218.2
100255.4
100184.5
100194.1
100195.6
100193.6
100162.7
100171.2
100190.9
100213.7
100245.2
100284
100180.2
100189.1
100190.7
100189.1
100162.4
100170.5
100188.1
100207.6
100234.8
100268.3
100291.6
100172.7
100180.6
100181.9
100180.3
100156.3
100163.4
100178.4
100194.6
100216.3
100243.5
100263
100323.5
100163.4
100170.4
100171.2
100169.3
100147.2
100153.1
100165.8
100179
100196.4
100217
100231.4
100280.1
100324.7
100529.6
100402.3
100494.7
100325.2
100378
100431.2
100273.4
100306.7
100329.5
100357.7
100237
100259.2
100269.1
100275
100206.1
100210.1
100226.1
100229.4
100227.1
100163.4
100179.5
100190.1
100202.1
100202.3
100196.5
100140.5
100146.7
100175.7
100177.2
100186.9
100185.8
100179.3
100130.7
100134.5
100153.2
100176
100168.3
100176.6
100175.1
100168.9
100127.1
100130.2
100145.4
100161.3
100186.4
100172.8
100181.3
100181.3
100177.3
100143.5
100149.3
100165.5
100183.6
100209.2
100241.3
100170.2
100178.1
100178.4
100175.4
100146.5
100152.5
100167.6
100183.7
100206.6
100234.5
100250.4
100167
100174.4
100175
100172.7
100147.5
100153.5
100167.3
100182
100201.7
100226.2
100242
100299
100160.6
100167.4
100167.8
100165.6
100143
100148.4
100160.6
100173.1
100189.6
100209.1
100222.1
100269
100311.5
100152.4
100158.5
100158.7
100156.4
100135.5
100140.1
100150.6
100161.1
100174.6
100190.2
100198.9
100236.4
100270.3
100322.2
100538.1
100411.9
100502.2
100328.4
100381.1
100433.2
100274.8
100308.2
100331.1
100359
100237
100259.2
100269.1
100275
100206.1
100209
100224.9
100228
100225.5
100161.2
100177.1
100187.9
100199.6
100199.5
100193.2
100136.3
100141.7
100170.3
100171.8
100180.9
100179
100171.5
100121.2
100123.2
100139.8
100160.3
100161.5
100169
100166.6
100159.1
100115.3
100116.4
100129
100141.7
100163.4
100154.4
100161
100158.7
100151.8
100113.7
100115.1
100125.7
100136.3
100151.9
100171.2
100159.4
100166.3
100165.4
100160.8
100129.5
100133.2
100145.5
100158.1
100176.3
100198.1
100205.8
100157.6
100164.3
100163.8
100160.2
100133.2
100137.5
100149.3
100161.4
100177.7
100197.8
100207.4
100257.4
100155.3
100161.6
100161.6
100158.7
100135
100139.5
100150.7
100162
100176.9
100194.4
100204.4
100248
100286.4
100149.8
100155.7
100155.6
100153
100131.6
100135.8
100145.9
100155.9
100168.7
100183.4
100190.9
100227.1
100259.1
100308.8
100142.6
100147.9
100147.7
100145.1
100125.3
100129
100137.8
100146.4
100157.2
100169.2
100174.5
100203.1
100228.3
100268.3
100319.5
100586.7
100424.9
100511.8
100337.5
100391
100442.2
100277.7
100311.4
100334.6
100361.9
100238.2
100260.6
100270.7
100276.8
100208.3
100209
100224.9
100228
100225.5
100161.2
100177.1
100186.9
100198.5
100198.2
100191.7
100134.4
100139.4
100167.8
100169.8
100178.7
100176.5
100168.6
100117.5
100118.9
100134.7
100154.7
100156.6
100163.6
100160.6
100152.2
100107.1
100106.7
100117.7
100128.2
100147.5
100148.1
100154.1
100150.9
100143.1
100103.3
100103.1
100111.8
100119.8
100132.1
100147.6
100142.5
100147.8
100144.9
100137.8
100103
100103.2
100111.2
100118.1
100128.6
100140
100133.7
100147.7
100153.4
100151.9
100146.9
100117.9
100120.3
100129.9
100139.2
100151.9
100167.2
100170
100212.8
100146.6
100152.2
100151.3
100147.3
100122.1
100125.1
100134.7
100143.8
100156.2
100170.2
100175.5
100213.1
100243
100144.9
100150.3
100149.8
100146.5
100124.3
100127.8
100137
100146
100157.5
100170.6
100175.9
100209.4
100237.7
100283.5
100140.2
100145.3
100144.8
100141.9
100121.8
100125.1
100133.6
100141.7
100152
100163.2
100167.6
100195.2
100218.8
100256.9
100306
100133.8
100138.4
100137.9
100135.1
100116.4
100119.4
100126.9
100134
100142.9
100152.4
100155.4
100178.2
100196.2
100226.6
100266
100610.9
100471.7
100561.9
100349.9
100404.5
100454.2
100285.9
100320.7
100345.2
100372.7
100240.9
100263.6
100274.1
100280.7
100213.3
100210.1
100226.1
100229.4
100227.1
100163.4
100179.5
100186.9
100198.5
100198.2
100191.7
100134.4
100139.4
100167.8
100168.8
100177.6
100175.3
100167.2
100115.9
100117
100132.5
100152.2
100154.7
100161.5
100158.2
100149.6
100103.9
100103.1
100113.4
100123
100141.7
100143.6
100149.2
100145.4
100136.9
100096.1
100094.8
100102.1
100108.4
100118.4
100131.3
100136.7
100141.5
100137.8
100129.9
100093.8
100092.7
100099.2
100104.1
100112.1
100120.1
100108.5
100132.1
100136.4
100133.2
100126.1
100094.2
100093.7
100099.8
100104.7
100111.7
100119
100111.1
100135.8
100137.3
100142.2
100140.2
100135.1
100108.2
100109.7
100117.4
100124.3
100133.9
100144.3
100144.3
100175.5
100196.6
100136.8
100141.6
100140.3
100136.1
100112.5
100114.8
100122.6
100129.8
100139.3
100149.7
100151.4
100180.2
100201.5
100238.7
100135.6
100140.3
100139.4
100136
100115.1
100117.8
100125.5
100132.7
100142
100152
100154.6
100180.2
100200.9
100235.4
100280.4
100131.5
100136
100135.2
100132.1
100113.2
100115.8
100123
100129.7
100138.1
100147.1
100149.3
100171.3
100188.2
100217
100254.6
100125.8
100129.9
100129.1
100126.1
100108.6
100111
100117.5
100123.4
100130.8
100138.5
100140.1
100158.6
100172.2
100194.8
100224.7
100636.7
100498.3
100587.4
100390.7
100452.1
100507.6
100297.1
100333.4
100359.8
100387.5
100248.2
100271.9
100283.8
100292.1
100227.7
100212.6
100228.9
100232.6
100230.8
100168.2
100184.8
100187.9
100199.6
100199.5
100193.2
100136.3
100141.7
100170.3
100168.8
100177.6
100175.3
100167.2
100115.9
100117
100132.5
100152.2
100153.8
100160.6
100157.2
100148.4
100102.5
100101.4
100111.4
100120.8
100139.1
100141.9
100147.3
100143.3
100134.5
100093.3
100091.6
100098.4
100104
100113.3
100125.3
100132.5
100136.9
100132.8
100124.3
100087.3
100085.4
100090.8
100094.4
100100.6
100106.2
100091.2
100126.7
100130.6
100126.7
100118.9
100085.9
100084.4
100089.3
100092.6
100097.6
100102.3
100090.3
100112.4
100122.9
100126.5
100123.1
100116.1
100086.7
100085.8
100090.7
100094.1
100099.2
100103.6
100095.6
100112.5
100105.4
100128.2
100132.3
100130.1
100124.9
100099.8
100100.7
100107.1
100112.5
100119.7
100127.2
100125
100148.7
100162.7
100191
100128
100132.2
100130.6
100126.3
100104.3
100105.9
100112.4
100118.2
100125.8
100133.6
100133.5
100155.4
100170.7
100198.1
100233.9
100127.2
100131.3
100130.1
100126.6
100107
100109.1
100115.7
100121.7
100129.2
100137.1
100137.9
100158.3
100173
100199
100232.9
100123.6
100127.5
100126.6
100123.4
100105.6
100107.7
100113.9
100119.5
100126.5
100133.7
100134.7
100152.6
100165.2
100186.7
100215.1
100118.4
100122.1
100121.1
100118.1
100101.6
100103.5
100109.2
100114.3
100120.6
100126.9
100127.5
100143
100153.4
100170.9
100193.2
100651.4
100524.3
100614.2
100414.9
100479.4
100536
100332.5
100374.8
100409.1
100444.6
100258.3
100283.3
100297.3
100308
100248.2
100219.1
100236.2
100241.1
100241
100181.2
100199.9
100190.1
100202.1
100202.3
100196.5
100140.5
100146.7
100175.7
100169.8
100178.7
100176.5
100168.6
100117.5
100118.9
100134.7
100154.7
100153.8
100160.6
100157.2
100148.4
100102.5
100101.4
100111.4
100120.8
100139.1
100141.1
100146.4
100142.4
100133.4
100092.1
100090.1
100096.8
100102
100110.9
100122.7
100130.9
100135.2
100130.9
100122.1
100084.9
100082.5
100087.6
100090.6
100096.2
100101
100084.6
100122.8
100126.4
100122.1
100113.8
100080.1
100077.9
100081.9
100084.2
100087.9
100090.8
100076
100096.3
100117.9
100121.1
100117.1
100109.5
100079.2
100077.4
100081.3
100083.5
100087
100089.5
100078.4
100093.1
100085.2
100114.7
100117.8
100114.2
100107.5
100080.3
100079.2
100083.2
100085.7
100089.3
100092.3
100084
100096.7
100088.7
100084.6
100119.9
100123.5
100121.1
100115.9
100092.6
100093.1
100098.4
100102.6
100108.4
100113.9
100110.7
100128.7
100138.3
100158.2
100184.6
100120.1
100123.7
100121.9
100117.7
100097
100098.2
100103.8
100108.5
100114.6
100120.8
100119.4
100136.9
100147.4
100167.9
100194.2
100119.5
100123.2
100121.8
100118.3
100099.9
100101.5
100107.2
100112.2
100118.4
100124.7
100124.6
100141.2
100152.1
100171.3
100196.9
100116.4
100119.9
100118.8
100115.6
100098.7
100100.5
100105.9
100110.7
100116.6
100122.6
100122.7
100137.6
100147.3
100163.9
100185
100111.7
100115
100113.9
100110.9
100095.2
100096.8
100101.9
100106.3
100111.6
100116.9
100116.9
100130.1
100138.3
100152.3
100169.6
100659.6
100539.6
100629.6
100438.1
100506
100565
100353.8
100399.4
100437.9
100476.4
100289.2
100319.1
100339.7
100359.2
100313.3
100228.2
100246.5
100253
100255.2
100199.8
100221.6
100196
100208.7
100209.9
100205.3
100151.6
100160
100191
100171.8
100180.9
100179
100171.5
100121.2
100123.2
100139.8
100160.3
100154.7
100161.5
100158.2
100149.6
100103.9
100103.1
100113.4
100123
100141.7
100141.1
100146.4
100142.4
100133.4
100092.1
100090.1
100096.8
100102
100110.9
100122.7
100130.2
100134.4
100130
100121.2
100083.7
100081.3
100086.2
100089
100094.2
100098.6
100081.7
100121.3
100124.8
100120.3
100111.8
100077.8
100075.3
100079.1
100080.9
100084.1
100086.3
100070.5
100090.5
100114.3
100117.2
100112.9
100104.8
100074
100071.6
100074.8
100076.1
100078.6
100079.7
100066.5
100079.7
100071.4
100110
100112.7
100108.7
100101.4
100073.5
100071.6
100074.7
100076.2
100078.7
100080.1
100069.5
100080.6
100072.1
100068.5
100107.4
100110
100106.4
100099.9
100074.8
100073.5
100076.8
100078.6
100081.4
100083.3
100075.4
100084.9
100077.3
100072.2
100031.5
100112.5
100115.6
100113.1
100108
100086.3
100086.5
100091
100094.4
100099
100103.2
100099.4
100113.9
100119.9
100134.6
100153.1
100112.9
100116.1
100114.2
100110
100090.6
100091.4
100096.3
100100.2
100105.3
100110.1
100108.1
100122.4
100130
100145
100164.7
100112.6
100115.8
100114.4
100110.8
100093.4
100094.7
100099.7
100103.9
100109.2
100114.4
100113.5
100127.5
100135.7
100150.7
100169.6
100109.8
100112.9
100111.7
100108.5
100092.6
100094
100098.8
100103
100108
100113
100112.5
100125.2
100132.9
100146.1
100162.5
100105.5
100108.5
100107.3
100104.3
100089.5
100090.8
100095.3
100099.2
100103.8
100108.3
100107.8
100119.2
100125.9
100137.3
100151.1
100547.8
100638.1
100451.8
100521.6
100581.8
100374.1
100422.9
100465.8
100508
100308.2
100340.8
100365.3
100389.8
100352.1
100255.6
100277.7
100289.5
100298.9
100255.2
100288.2
100204.3
100217.9
100220.5
100217.8
100167.5
100179.2
100213
100177.2
100186.9
100185.8
100179.3
100130.7
100134.5
100153.2
100176
100156.6
100163.6
100160.6
100152.2
100107.1
100106.7
100117.7
100128.2
100147.5
100141.9
100147.3
100143.3
100134.5
100093.3
100091.6
100098.4
100104
100113.3
100125.3
100130.2
100134.4
100130
100121.2
100083.7
100081.3
100086.2
100089
100094.2
100098.6
100081.7
100120.7
100124.1
100119.5
100111
100076.8
100074.2
100077.8
100079.5
100082.4
100084.4
100068
100087.9
100112.9
100115.7
100111.2
100103.1
100071.9
100069.3
100072.3
100073.3
100075.4
100076
100061.9
100074.8
100066.7
100106.7
100109.1
100104.8
100097.1
100068.7
100066.3
100068.9
100069.7
100071.3
100071.6
100059.5
100069.5
100060.9
100057.8
100103
100105.3
100101.3
100094.3
100068.5
100066.6
100069.2
100070.2
100072
100072.6
100063
100071.3
100063.6
100059.1
100030.6
100100.8
100103
100099.5
100093.2
100069.9
100068.5
100071.3
100072.7
100074.9
100076.1
100068.6
100076.2
100068.7
100063.9
100030.4
100030.4
100105.8
100108.5
100105.9
100101
100080.7
100080.6
100084.5
100087.3
100091.1
100094.4
100090.4
100102.2
100106.3
100116.9
100130.4
100106.3
100109.1
100107.2
100103
100084.9
100085.4
100089.6
100093
100097.2
100101.2
100098.8
100110.8
100116.3
100127.9
100142.3
100106.2
100109.1
100107.5
100104.1
100087.7
100088.7
100093.1
100096.7
100101.3
100105.6
100104.3
100116.1
100122.6
100134.5
100149.2
100103.7
100106.5
100105.2
100102.1
100087.1
100088.2
100092.5
100096.1
100100.5
100104.7
100103.8
100114.9
100121
100131.8
100144.9
100099.8
100102.5
100101.2
100098.3
100084.3
100085.4
100089.5
100092.8
100096.9
100100.8
100100
100110
100115.4
100125
100136.2
100459.3
100530.1
100591.1
100386.3
100437
100482.2
100526.4
100326.2
100361.3
100389.7
100419.1
100389
100272.6
100296.9
100311.9
100325.7
100289.5
100328.3
100228.8
100245.6
100252.3
100255.2
100213.8
100235.2
100280.2
100184.7
100195.2
100195.2
100190.3
100144.3
100150.7
100172.5
100198.6
100161.5
100169
100166.6
100159.1
100115.3
100116.4
100129
100141.7
100163.4
100143.6
100149.2
100145.4
100136.9
100096.1
100094.8
100102.1
100108.4
100118.4
100131.3
100130.9
100135.2
100130.9
100122.1
100084.9
100082.5
100087.6
100090.6
100096.2
100101
100084.6
100120.7
100124.1
100119.5
100111
100076.8
100074.2
100077.8
100079.5
100082.4
100084.4
100068
100087.9
100112.3
100115
100110.5
100102.2
100071
100068.3
100071.2
100072
100073.9
100074.3
100059.9
100072.6
100064.7
100105.4
100107.7
100103.3
100095.5
100066.8
100064.3
100066.6
100067.2
100068.5
100068.4
100055.6
100065.4
100056.9
100054.5
100099.9
100101.9
100097.7
100090.3
100064.1
100061.8
100063.9
100064.3
100065.4
100065.2
100054.4
100062
100054.3
100050.4
100030.3
100096.7
100098.6
100094.7
100088
100064.1
100062.2
100064.4
100065.1
100066.4
100066.6
100057.7
100064.5
100057.2
100053.1
100029.7
100030.3
100094.8
100096.7
100093.2
100087.2
100065.5
100064.1
100066.5
100067.6
100069.3
100070.1
100063.1
100069.3
100062.3
100057.4
100029.8
100029.5
100030.4
100099.6
100102
100099.5
100094.7
100075.6
100075.4
100078.8
100081.2
100084.3
100086.9
100082.9
100092.9
100095.6
100103.7
100113.3
100100.3
100102.8
100100.8
100096.8
100079.7
100080.1
100083.8
100086.6
100090.3
100093.5
100090.9
100101.2
100105.4
100114.5
100125.6
100100.3
100102.9
100101.3
100097.9
100082.4
100083.2
100087.2
100090.3
100094.3
100097.9
100096.3
100106.6
100111.8
100121.5
100133.1
100098.1
100100.6
100099.3
100096.2
100082
100082.9
100086.8
100090
100093.8
100097.4
100096.3
100106
100111
100120.1
100130.7
100094.5
100096.9
100095.6
100092.8
100079.5
100080.4
100084.1
100087.1
100090.7
100094.1
100093.1
100101.9
100106.5
100114.6
100124
100392.8
100444.5
100491.1
100536.5
100337
100373.7
100404.3
100436.5
100410.8
100288.6
100315.1
100333.1
100351
100321.6
100366.2
100244.1
100262.7
100272.1
100278.5
100243.1
100270.3
100320.8
100206.8
100219.9
100223.4
100222.8
100183.6
100197.6
100228.9
100266.7
100168.3
100176.6
100175.1
100168.9
100127.1
100130.2
100145.4
100161.3
100186.4
100148.1
100154.1
100150.9
100143.1
100103.3
100103.1
100111.8
100119.8
100132.1
100147.6
100132.5
100136.9
100132.8
100124.3
100087.3
100085.4
100090.8
100094.4
100100.6
100106.2
100091.2
100121.3
100124.8
100120.3
100111.8
100077.8
100075.3
100079.1
100080.9
100084.1
100086.3
100070.5
100090.5
100112.3
100115
100110.5
100102.2
100071
100068.3
100071.2
100072
100073.9
100074.3
100059.9
100072.6
100064.7
100104.8
100107.1
100102.6
100094.7
100066
100063.4
100065.6
100066.1
100067.2
100066.9
100053.9
100063.6
100055.2
100053.1
100098.7
100100.6
100096.3
100088.8
100062.4
100059.9
100061.9
100062.1
100062.9
100062.4
100051.1
100058.5
100051.1
100047.7
100030.3
100093.8
100095.5
100091.3
100084.4
100060
100057.8
100059.6
100059.8
100060.5
100060.1
100050.2
100056.5
100049.4
100045.9
100029.5
100030.2
100090.9
100092.6
100088.8
100082.4
100060.1
100058.3
100060.2
100060.6
100061.6
100061.6
100053.5
100059.1
100052.4
100048.4
100029.3
100029.4
100030.3
100089.3
100090.9
100087.6
100081.8
100061.5
100060.2
100062.3
100063.1
100064.5
100065
100058.5
100063.7
100057.2
100052.7
100029
100029.1
100029.5
100030.3
100094
100096.1
100093.6
100089
100071.1
100070.8
100073.8
100075.8
100078.4
100080.5
100076.5
100085.1
100087
100093.3
100100.7
100094.7
100097
100095
100091.1
100075
100075.2
100078.5
100081
100084.1
100086.9
100084.2
100093.1
100096.4
100103.8
100112.5
100094.8
100097.2
100095.6
100092.3
100077.7
100078.3
100081.8
100084.6
100088.1
100091.2
100089.4
100098.5
100102.7
100110.8
100120.3
100092.8
100095.2
100093.8
100090.8
100077.3
100078.1
100081.6
100084.4
100087.9
100091
100089.7
100098.3
100102.5
100110.2
100119.1
100089.5
100091.7
100090.5
100087.7
100075.1
100075.9
100079.2
100081.9
100085.1
100088.1
100087
100094.9
100098.7
100105.8
100113.8
100342.7
100380.3
100412.1
100445.8
100422.6
100298.3
100326
100345.9
100366.3
100341
100388.7
100258.6
100278.9
100290.7
100300.3
100270.3
100303
100358.9
100220.7
100235.4
100241
100243.2
100208.5
100227.2
100264.1
100308
100188.5
100198.9
100200.2
100197.5
100161.1
100169.8
100192.4
100218.2
100255.4
100154.4
100161
100158.7
100151.8
100113.7
100115.1
100125.7
100136.3
100151.9
100171.2
100136.7
100141.5
100137.8
100129.9
100093.8
100092.7
100099.2
100104.1
100112.1
100120.1
100108.5
100122.8
100126.4
100122.1
100113.8
100080.1
100077.9
100081.9
100084.2
100087.9
100090.8
100076
100096.3
100112.9
100115.7
100111.2
100103.1
100071.9
100069.3
100072.3
100073.3
100075.4
100076
100061.9
100074.8
100066.7
100104.8
100107.1
100102.6
100094.7
100066
100063.4
100065.6
100066.1
100067.2
100066.9
100053.9
100063.6
100055.2
100053.1
100098.1
100100
100095.6
100088.1
100061.6
100059.1
100060.9
100061.1
100061.8
100061.1
100049.6
100057
100049.7
100046.5
100030.3
100092.6
100094.3
100090
100082.9
100058.5
100056.1
100057.7
100057.7
100058.3
100057.6
100047.3
100053.5
100046.6
100043.7
100029.5
100030.2
100088.2
100089.6
100085.6
100079
100056.4
100054.2
100055.8
100055.8
100056.4
100055.7
100046.8
100052.1
100045.7
100042.4
100029.1
100029.4
100030.3
100085.6
100087.1
100083.4
100077.3
100056.6
100054.8
100056.4
100056.8
100057.5
100057.3
100049.8
100054.7
100048.5
100044.9
100028.5
100029.1
100029.5
100030.3
100084.2
100085.7
100082.4
100077
100058
100056.6
100058.5
100059.2
100060.3
100060.6
100054.5
100059
100053
100048.7
100028.3
100028.4
100029.1
100029.5
100030.3
100088.8
100090.6
100088.2
100083.7
100066.9
100066.6
100069.2
100071
100073.2
100075
100071.1
100078.6
100079.9
100085
100090.6
100089.6
100091.6
100089.6
100085.9
100070.7
100070.8
100073.8
100075.9
100078.7
100081
100078.3
100086.2
100088.7
100094.9
100102
100089.8
100091.9
100090.3
100087.1
100073.3
100073.8
100077
100079.5
100082.5
100085.2
100083.4
100091.4
100094.9
100101.8
100109.7
100087.9
100090.1
100088.7
100085.8
100073
100073.7
100076.9
100079.4
100082.5
100085.2
100083.9
100091.5
100095.1
100101.7
100109.3
100084.8
100086.9
100085.6
100082.9
100071
100071.7
100074.7
100077.2
100080.1
100082.7
100081.5
100088.6
100091.9
100098.1
100105
100303.5
100331.9
100352.7
100374.4
100351.4
100400.7
100267.3
100288.7
100302
100313.6
100286.9
100322.8
100381.7
100233.8
100249.9
100257.5
100262.3
100231.9
100254.9
100297.1
100346.7
100201.2
100212.9
100216.1
100215.6
100182.8
100195.2
100222.2
100253.8
100297.3
100172.8
100181.3
100181.3
100177.3
100143.5
100149.3
100165.5
100183.6
100209.2
100241.3
100142.5
100147.8
100144.9
100137.8
100103
100103.2
100111.2
100118.1
100128.6
100140
100133.7
100126.7
100130.6
100126.7
100118.9
100085.9
100084.4
100089.3
100092.6
100097.6
100102.3
100090.3
100112.4
100114.3
100117.2
100112.9
100104.8
100074
100071.6
100074.8
100076.1
100078.6
100079.7
100066.5
100079.7
100071.4
100105.4
100107.7
100103.3
100095.5
100066.8
100064.3
100066.6
100067.2
100068.5
100068.4
100055.6
100065.4
100056.9
100054.5
100098.1
100100
100095.6
100088.1
100061.6
100059.1
100060.9
100061.1
100061.8
100061.1
100049.6
100057
100049.7
100046.5
100030.3
100092.1
100093.7
100089.4
100082.3
100057.8
100055.3
100056.9
100056.8
100057.2
100056.4
100046
100052.2
100045.4
100042.7
100029.5
100030.2
100087.1
100088.5
100084.4
100077.7
100055
100052.7
100054.1
100054
100054.3
100053.5
100044.3
100049.4
100043.4
100040.5
100029.1
100029.4
100030.2
100083.1
100084.3
100080.5
100074.2
100053.1
100051
100052.4
100052.4
100052.7
100052
100043.9
100048.5
100042.7
100039.7
100028.4
100029
100029.5
100030.3
100080.8
100082
100078.5
100072.7
100053.3
100051.6
100053.1
100053.3
100053.9
100053.6
100046.7
100050.9
100045.3
100042
100027.9
100028.3
100029.1
100029.5
100030.3
100079.6
100080.9
100077.7
100072.5
100054.7
100053.4
100055.1
100055.6
100056.6
100056.7
100051.1
100055
100049.4
100045.6
100027.6
100027.8
100028.4
100029.1
100029.5
100030.3
100083.9
100085.6
100083.2
100079
100063.1
100062.7
100065.1
100066.6
100068.6
100070.1
100066.3
100072.9
100073.8
100078
100082.6
100084.8
100086.6
100084.7
100081
100066.7
100066.7
100069.5
100071.4
100073.8
100075.8
100073.1
100080.1
100082.2
100087.5
100093.3
100085
100087
100085.4
100082.3
100069.2
100069.6
100072.5
100074.8
100077.5
100079.8
100078
100085.2
100088.1
100094.1
100100.8
100083.4
100085.3
100084
100081.2
100069.1
100069.6
100072.6
100074.8
100077.6
100080
100078.6
100085.5
100088.6
100094.4
100100.9
100080.5
100082.4
100081.1
100078.5
100067.2
100067.8
100070.6
100072.8
100075.4
100077.8
100076.5
100083
100085.9
100091.3
100097.4
100271.9
100293.9
100308
100320.6
100295.7
100333.3
100393.8
100241.7
100258.8
100267.5
100273.9
100246.1
100271.7
100317
100369.8
100213.1
100226.1
100230.9
100232.6
100203
100218.7
100250
100287.1
100336.5
100184.5
100194.1
100195.6
100193.6
100162.7
100171.2
100190.9
100213.7
100245.2
100284
100159.4
100166.3
100165.4
100160.8
100129.5
100133.2
100145.5
100158.1
100176.3
100198.1
100205.8
100132.1
100136.4
100133.2
100126.1
100094.2
100093.7
100099.8
100104.7
100111.7
100119
100111.1
100135.8
100117.9
100121.1
100117.1
100109.5
100079.2
100077.4
100081.3
100083.5
100087
100089.5
100078.4
100093.1
100085.2
100106.7
100109.1
100104.8
100097.1
100068.7
100066.3
100068.9
100069.7
100071.3
100071.6
100059.5
100069.5
100060.9
100057.8
100098.7
100100.6
100096.3
100088.8
100062.4
100059.9
100061.9
100062.1
100062.9
100062.4
100051.1
100058.5
100051.1
100047.7
100030.3
100092.1
100093.7
100089.4
100082.3
100057.8
100055.3
100056.9
100056.8
100057.2
100056.4
100046
100052.2
100045.4
100042.7
100029.5
100030.2
100086.6
100088
100083.9
100077.1
100054.3
100052
100053.3
100053.1
100053.4
100052.5
100043.1
100048.3
100042.3
100039.7
100029.1
100029.4
100030.2
100082.1
100083.3
100079.3
100072.9
100051.8
100049.6
100050.8
100050.6
100050.8
100050
100041.6
100046.1
100040.6
100038.1
100028.4
100029
100029.4
100030.2
100078.4
100079.5
100075.7
100069.8
100050.1
100048.1
100049.3
100049.2
100049.5
100048.8
100041.4
100045.4
100040.2
100037.5
100027.8
100028.3
100029.1
100029.5
100030.2
100076.3
100077.4
100074
100068.5
100050.3
100048.7
100050
100050.2
100050.7
100050.3
100044
100047.7
100042.6
100039.6
100027.2
100027.8
100028.4
100029.1
100029.4
100030.2
100075.2
100076.4
100073.4
100068.4
100051.7
100050.4
100051.9
100052.4
100053.2
100053.3
100048
100051.5
100046.4
100042.8
100026.8
100027.1
100027.8
100028.4
100029.1
100029.4
100030.2
100079.4
100081
100078.6
100074.5
100059.6
100059.2
100061.4
100062.7
100064.4
100065.7
100062.1
100068
100068.6
100072.2
100075.9
100080.3
100082
100080.1
100076.6
100063
100063
100065.5
100067.2
100069.4
100071.1
100068.5
100074.8
100076.5
100081
100086
100080.6
100082.4
100080.9
100077.8
100065.4
100065.8
100068.5
100070.5
100072.9
100075
100073.2
100079.7
100082.1
100087.4
100093.2
100079.1
100080.9
100079.6
100076.8
100065.3
100065.8
100068.5
100070.6
100073.1
100075.3
100073.8
100080.2
100082.8
100087.9
100093.6
100076.4
100078.2
100076.9
100074.4
100063.6
100064.1
100066.7
100068.8
100071.2
100073.3
100072
100078
100080.5
100085.4
100090.7
100246
100263.5
100272.9
100280.1
100253.6
100280.7
100327.5
100382.1
100220.3
100234.1
100239.9
100242.9
100215.4
100233.1
100266.9
100307.2
100359.9
100195.4
100206.1
100209
100208.7
100180.5
100191.7
100214.6
100241.7
100278.7
100323.8
100170.2
100178.1
100178.4
100175.4
100146.5
100152.5
100167.6
100183.7
100206.6
100234.5
100250.4
100147.7
100153.4
100151.9
100146.9
100117.9
100120.3
100129.9
100139.2
100151.9
100167.2
100170
100212.8
100122.9
100126.5
100123.1
100116.1
100086.7
100085.8
100090.7
100094.1
100099.2
100103.6
100095.6
100112.5
100105.4
100110
100112.7
100108.7
100101.4
100073.5
100071.6
100074.7
100076.2
100078.7
100080.1
100069.5
100080.6
100072.1
100068.5
100099.9
100101.9
100097.7
100090.3
100064.1
100061.8
100063.9
100064.3
100065.4
100065.2
100054.4
100062
100054.3
100050.4
100030.3
100092.6
100094.3
100090
100082.9
100058.5
100056.1
100057.7
100057.7
100058.3
100057.6
100047.3
100053.5
100046.6
100043.7
100029.5
100030.2
100086.6
100088
100083.9
100077.1
100054.3
100052
100053.3
100053.1
100053.4
100052.5
100043.1
100048.3
100042.3
100039.7
100029.1
100029.4
100030.2
100081.6
100082.8
100078.8
100072.4
100051.2
100048.9
100050.1
100049.9
100050
100049.1
100040.6
100045.1
100039.7
100037.4
100028.4
100029
100029.4
100030.2
100077.4
100078.5
100074.7
100068.6
100048.8
100046.8
100047.9
100047.7
100047.8
100046.9
100039.3
100043.3
100038.4
100036.1
100027.8
100028.3
100029.1
100029.4
100030.2
100074
100075
100071.4
100065.8
100047.3
100045.5
100046.6
100046.4
100046.6
100045.9
100039.1
100042.7
100038
100035.6
100027.1
100027.8
100028.3
100029.1
100029.4
100030.2
100072.1
100073.1
100069.9
100064.7
100047.6
100046
100047.2
100047.4
100047.8
100047.4
100041.6
100044.9
100040.2
100037.4
100026.5
100027.1
100027.8
100028.4
100029.1
100029.4
100030.2
100071.2
100072.2
100069.3
100064.6
100048.8
100047.7
100049
100049.4
100050.2
100050.2
100045.3
100048.4
100043.7
100040.4
100026.1
100026.4
100027.1
100027.8
100028.3
100029.1
100029.4
100030.2
100075.2
100076.6
100074.4
100070.5
100056.4
100055.9
100057.9
100059.1
100060.7
100061.7
100058.3
100063.7
100064.1
100067.1
100070.3
100076.1
100077.7
100075.8
100072.4
100059.6
100059.6
100061.8
100063.4
100065.3
100066.9
100064.4
100070.1
100071.5
100075.4
100079.7
100076.4
100078.1
100076.6
100073.7
100061.9
100062.2
100064.7
100066.5
100068.7
100070.6
100068.8
100074.7
100076.9
100081.5
100086.6
100075
100076.7
100075.4
100072.8
100061.9
100062.3
100064.8
100066.7
100069
100071
100069.5
100075.3
100077.6
100082.2
100087.2
100072.5
100074.2
100073
100070.5
100060.2
100060.7
100063.2
100065
100067.3
100069.2
100067.9
100073.4
100075.6
100080
100084.7
100224.2
100238.4
100244.7
100248.4
100222
100240.8