/*--------------------------------*- C++ -*----------------------------------*\
| =========                 |                                                 |
| \\      /  F ield         | OpenFOAM: The Open Source CFD Toolbox           |
|  \\    /   O peration     | Version:  2306                                  |
|   \\  /    A nd           | Website:  www.openfoam.com                      |
|    \\/     M anipulation  |                                                 |
\*---------------------------------------------------------------------------*/
FoamFile
{
    version     2.0;
    format      ascii;
    arch        "LSB;label=32;scalar=64";
    class       volScalarField;
    location    "1.2/fuel";
    object      T;
}
// * * * * * * * * * * * * * * * * * * * * * * * * * * * * * * * * * * * * * //

dimensions      [0 0 0 1 0 0 0];

internalField   nonuniform List<scalar> 
16000
(
1268.586
1268.405
1270.781
1268.603
1267.987
1270.77
1268.422
1272.742
1270.791
1268.625
1267.215
1270.744
1268.006
1272.777
1270.781
1268.445
1274.531
1272.747
1270.807
1268.652
1265.928
1270.69
1267.238
1272.854
1270.753
1268.03
1274.577
1272.781
1270.795
1268.473
1276.23
1274.532
1272.756
1270.827
1268.685
1264.052
1270.585
1265.959
1272.987
1270.697
1267.267
1274.68
1272.857
1270.768
1268.06
1276.278
1274.577
1272.79
1270.815
1268.506
1277.868
1276.227
1274.537
1272.77
1270.852
1268.723
1261.93
1270.396
1264.098
1273.191
1270.589
1265.996
1274.861
1272.988
1270.71
1267.301
1276.384
1274.679
1272.865
1270.787
1268.096
1277.914
1276.274
1274.582
1272.804
1270.84
1268.546
1279.452
1277.862
1276.228
1274.546
1272.789
1270.882
1268.763
1259.99
1270.103
1261.997
1273.447
1270.395
1264.149
1275.145
1273.186
1270.598
1266.039
1276.571
1274.858
1272.993
1270.728
1267.342
1278.016
1276.379
1274.682
1272.878
1270.811
1268.138
1279.496
1277.907
1276.275
1274.591
1272.822
1270.87
1268.586
1280.985
1279.444
1277.86
1276.233
1274.56
1272.813
1270.913
1268.802
1258.546
1269.766
1260.076
1273.662
1270.1
1262.068
1275.519
1273.434
1270.399
1264.207
1276.866
1275.136
1273.187
1270.613
1266.088
1278.197
1276.564
1274.858
1273.003
1270.75
1267.389
1279.592
1278.008
1276.378
1274.69
1272.895
1270.84
1268.181
1281.025
1279.487
1277.904
1276.279
1274.604
1272.845
1270.9
1268.626
1282.463
1280.974
1279.439
1277.862
1276.243
1274.578
1272.837
1270.943
1268.842
1257.783
1269.475
1258.648
1273.801
1269.765
1260.167
1275.876
1273.644
1270.103
1262.144
1277.261
1275.502
1273.427
1270.409
1264.269
1278.483
1276.854
1275.132
1273.192
1270.633
1266.144
1279.764
1278.187
1276.561
1274.863
1273.018
1270.778
1267.437
1281.117
1279.583
1278.005
1276.382
1274.702
1272.917
1270.87
1268.224
1282.502
1281.015
1279.482
1277.906
1276.288
1274.622
1272.869
1270.931
1268.667
1283.887
1282.451
1280.967
1279.438
1277.868
1276.257
1274.597
1272.861
1270.974
1268.881
1257.783
1269.309
1257.893
1273.873
1269.477
1258.753
1276.153
1273.779
1269.769
1260.263
1277.646
1275.853
1273.63
1270.111
1262.225
1278.867
1277.242
1275.49
1273.424
1270.424
1264.338
1280.036
1278.469
1276.847
1275.132
1273.201
1270.658
1266.202
1281.279
1279.752
1278.182
1276.562
1274.873
1273.037
1270.807
1267.486
1282.588
1281.105
1279.577
1278.005
1276.39
1274.719
1272.939
1270.9
1268.268
1283.924
1282.489
1281.007
1279.481
1277.912
1276.302
1274.64
1272.893
1270.962
1268.708
1285.256
1283.874
1282.443
1280.964
1279.442
1277.878
1276.271
1274.616
1272.885
1271.005
1269.074
1258.546
1269.309
1257.893
1273.901
1269.313
1258.006
1276.333
1273.851
1269.484
1258.863
1277.955
1276.125
1273.763
1269.779
1260.362
1279.246
1277.621
1275.834
1273.622
1270.124
1262.312
1280.401
1278.847
1277.227
1275.482
1273.426
1270.444
1264.408
1281.535
1280.02
1278.46
1276.844
1275.136
1273.216
1270.683
1266.26
1282.741
1281.265
1279.745
1278.18
1276.568
1274.887
1273.057
1270.835
1267.535
1284.006
1282.575
1281.097
1279.575
1278.01
1276.402
1274.735
1272.961
1270.93
1268.312
1285.29
1283.91
1282.481
1281.004
1279.483
1277.921
1276.316
1274.658
1272.916
1270.992
1268.907
1286.569
1285.242
1283.865
1282.438
1280.965
1279.449
1277.888
1276.285
1274.634
1272.909
1271.156
1269.442
1259.99
1269.475
1258.648
1273.901
1269.313
1258.006
1276.421
1273.879
1269.322
1258.124
1278.163
1276.304
1273.833
1269.496
1258.977
1279.553
1277.926
1276.103
1273.752
1269.793
1260.468
1280.763
1279.221
1277.601
1275.82
1273.618
1270.142
1262.399
1281.881
1280.38
1278.831
1277.217
1275.479
1273.433
1270.464
1264.477
1282.984
1281.519
1280.009
1278.454
1276.845
1275.145
1273.231
1270.709
1266.319
1284.151
1282.727
1281.256
1279.741
1278.182
1276.578
1274.901
1273.077
1270.864
1267.585
1285.368
1283.992
1282.566
1281.093
1279.576
1278.018
1276.415
1274.752
1272.984
1270.96
1268.526
1286.602
1285.276
1283.9
1282.476
1281.005
1279.49
1277.931
1276.329
1274.676
1272.94
1271.142
1269.295
1287.826
1286.554
1285.231
1283.858
1282.437
1280.97
1279.456
1277.899
1276.299
1274.653
1273.028
1271.428
1269.831
1261.93
1269.766
1260.076
1273.873
1269.477
1258.753
1276.421
1273.879
1269.322
1258.124
1278.266
1276.391
1273.861
1269.335
1258.245
1279.762
1278.132
1276.279
1273.821
1269.513
1259.096
1281.057
1279.524
1277.902
1276.085
1273.745
1269.813
1260.572
1282.225
1280.738
1279.2
1277.585
1275.811
1273.619
1270.161
1262.486
1283.312
1281.86
1280.364
1278.819
1277.211
1275.481
1273.44
1270.485
1264.548
1284.381
1282.967
1281.506
1280.001
1278.452
1276.85
1275.154
1273.246
1270.735
1266.378
1285.507
1284.136
1282.716
1281.25
1279.741
1278.189
1276.587
1274.915
1273.097
1270.893
1267.829
1286.676
1285.353
1283.981
1282.56
1281.093
1279.582
1278.027
1276.427
1274.769
1273.006
1271.107
1268.957
1287.857
1286.587
1285.265
1283.894
1282.474
1281.009
1279.497
1277.941
1276.343
1274.694
1273.056
1271.414
1269.708
1289.027
1287.81
1286.542
1285.224
1283.856
1282.44
1280.975
1279.463
1277.909
1276.313
1274.746
1273.238
1271.703
1270.235
1264.052
1270.103
1261.997
1273.801
1269.765
1260.167
1276.333
1273.851
1269.484
1258.863
1278.266
1276.391
1273.861
1269.335
1258.245
1279.866
1278.234
1276.365
1273.849
1269.354
1258.372
1281.258
1279.73
1278.105
1276.259
1273.813
1269.536
1259.215
1282.504
1281.029
1279.499
1277.882
1276.071
1273.743
1269.833
1260.676
1283.637
1282.199
1280.716
1279.183
1277.573
1275.806
1273.621
1270.18
1262.572
1284.693
1283.29
1281.843
1280.351
1278.812
1277.21
1275.482
1273.448
1270.506
1264.618
1285.726
1284.363
1282.953
1281.497
1279.998
1278.455
1276.855
1275.163
1273.26
1270.761
1266.666
1286.808
1285.491
1284.124
1282.709
1281.248
1279.744
1278.195
1276.597
1274.929
1273.116
1271.034
1268.335
1287.928
1286.66
1285.342
1283.974
1282.558
1281.096
1279.588
1278.036
1276.439
1274.785
1273.115
1271.378
1269.429
1289.058
1287.842
1286.575
1285.258
1283.891
1282.477
1281.013
1279.504
1277.951
1276.356
1274.784
1273.26
1271.689
1270.143
1290.175
1289.012
1287.799
1286.534
1285.22
1283.857
1282.443
1280.98
1279.471
1277.919
1276.384
1274.907
1273.443
1271.98
1270.65
1265.928
1270.396
1264.098
1273.662
1270.1
1262.068
1276.153
1273.779
1269.769
1260.263
1278.163
1276.304
1273.833
1269.496
1258.977
1279.866
1278.234
1276.365
1273.849
1269.354
1258.372
1281.359
1279.834
1278.207
1276.345
1273.841
1269.378
1258.498
1282.696
1281.228
1279.704
1278.083
1276.244
1273.811
1269.558
1259.332
1283.903
1282.476
1281.004
1279.479
1277.867
1276.063
1273.742
1269.853
1260.779
1285.002
1283.612
1282.178
1280.699
1279.17
1277.566
1275.801
1273.622
1270.199
1262.658
1286.023
1284.671
1283.272
1281.829
1280.342
1278.809
1277.208
1275.484
1273.455
1270.527
1264.952
1287.018
1285.708
1284.349
1282.943
1281.492
1279.998
1278.457
1276.86
1275.172
1273.275
1270.889
1267.264
1288.055
1286.791
1285.478
1284.115
1282.705
1281.25
1279.748
1278.202
1276.607
1274.943
1273.212
1271.3
1268.908
1289.126
1287.913
1286.648
1285.334
1283.97
1282.559
1281.1
1279.594
1278.045
1276.451
1274.868
1273.306
1271.655
1269.935
1290.204
1289.042
1287.83
1286.567
1285.254
1283.892
1282.479
1281.018
1279.511
1277.961
1276.424
1274.938
1273.46
1271.968
1270.592
1291.268
1290.159
1289
1287.79
1286.53
1285.22
1283.858
1282.445
1280.984
1279.478
1277.972
1276.506
1275.063
1273.647
1272.258
1267.215
1270.585
1265.959
1273.447
1270.395
1264.149
1275.876
1273.644
1270.103
1262.144
1277.955
1276.125
1273.763
1269.779
1260.362
1279.762
1278.132
1276.279
1273.821
1269.513
1259.096
1281.359
1279.834
1278.207
1276.345
1273.841
1269.378
1258.498
1282.792
1281.328
1279.807
1278.184
1276.329
1273.838
1269.402
1258.622
1284.085
1282.666
1281.202
1279.682
1278.066
1276.233
1273.808
1269.581
1259.448
1285.255
1283.876
1282.452
1280.984
1279.463
1277.855
1276.054
1273.74
1269.873
1260.881
1286.318
1284.978
1283.591
1282.161
1280.686
1279.162
1277.559
1275.796
1273.624
1270.218
1263.06
1287.301
1286.001
1284.653
1283.259
1281.82
1280.337
1278.805
1277.206
1275.485
1273.462
1270.63
1265.57
1288.256
1286.999
1285.693
1284.338
1282.937
1281.491
1279.998
1278.459
1276.865
1275.181
1273.347
1271.138
1267.956
1289.248
1288.038
1286.778
1285.469
1284.11
1282.705
1281.251
1279.752
1278.208
1276.616
1275.011
1273.38
1271.581
1269.546
1290.27
1289.11
1287.9
1286.639
1285.329
1283.97
1282.561
1281.103
1279.6
1278.053
1276.512
1275.007
1273.493
1271.939
1270.466
1291.296
1290.188
1289.03
1287.821
1286.562
1285.253
1283.892
1282.481
1281.022
1279.517
1278.011
1276.539
1275.087
1273.657
1272.249
1292.309
1291.252
1290.146
1288.99
1287.784
1286.528
1285.219
1283.859
1282.448
1280.989
1279.515
1278.06
1276.622
1275.215
1273.848
1267.987
1270.69
1267.238
1273.191
1270.589
1265.996
1275.519
1273.434
1270.399
1264.207
1277.646
1275.853
1273.63
1270.111
1262.225
1279.553
1277.926
1276.103
1273.752
1269.793
1260.468
1281.258
1279.73
1278.105
1276.259
1273.813
1269.536
1259.215
1282.792
1281.328
1279.807
1278.184
1276.329
1273.838
1269.402
1258.622
1284.177
1282.762
1281.301
1279.784
1278.166
1276.317
1273.835
1269.426
1258.745
1285.429
1284.057
1282.641
1281.18
1279.664
1278.053
1276.223
1273.805
1269.603
1259.563
1286.56
1285.229
1283.852
1282.432
1280.968
1279.451
1277.844
1276.046
1273.739
1269.893
1261.358
1287.584
1286.294
1284.957
1283.574
1282.147
1280.677
1279.153
1277.551
1275.792
1273.626
1270.31
1263.739
1288.528
1287.28
1285.983
1284.639
1283.248
1281.814
1280.332
1278.802
1277.205
1275.487
1273.499
1270.829
1266.201
1289.441
1288.237
1286.984
1285.681
1284.331
1282.934
1281.489
1279.998
1278.462
1276.87
1275.224
1273.474
1271.413
1268.77
1290.387
1289.231
1288.024
1286.768
1285.463
1284.109
1282.705
1281.253
1279.755
1278.214
1276.664
1275.122
1273.544
1271.877
1270.241
1291.36
1290.253
1289.097
1287.89
1286.634
1285.328
1283.97
1282.562
1281.106
1279.605
1278.096
1276.612
1275.139
1273.677
1272.228
1292.336
1291.281
1290.175
1289.02
1287.815
1286.56
1285.252
1283.893
1282.483
1281.026
1279.552
1278.093
1276.648
1275.231
1273.852
1293.298
1292.293
1291.24
1290.137
1288.984
1287.782
1286.526
1285.219
1283.859
1282.45
1281.013
1279.575
1278.144
1276.734
1275.364
1268.405
1270.744
1268.006
1272.987
1270.697
1267.267
1275.145
1273.186
1270.598
1266.039
1277.261
1275.502
1273.427
1270.409
1264.269
1279.246
1277.621
1275.834
1273.622
1270.124
1262.312
1281.057
1279.524
1277.902
1276.085
1273.745
1269.813
1260.572
1282.696
1281.228
1279.704
1278.083
1276.244
1273.811
1269.558
1259.332
1284.177
1282.762
1281.301
1279.784
1278.166
1276.317
1273.835
1269.426
1258.745
1285.516
1284.148
1282.736
1281.279
1279.765
1278.152
1276.306
1273.832
1269.45
1258.867
1286.726
1285.401
1284.032
1282.619
1281.162
1279.65
1278.04
1276.212
1273.803
1269.625
1260.098
1287.816
1286.534
1285.206
1283.833
1282.417
1280.956
1279.439
1277.833
1276.037
1273.738
1269.99
1262.125
1288.799
1287.56
1286.273
1284.94
1283.561
1282.138
1280.667
1279.145
1277.544
1275.788
1273.635
1270.482
1264.371
1289.703
1288.507
1287.262
1285.969
1284.628
1283.242
1281.808
1280.327
1278.798
1277.203
1275.495
1273.567
1271.038
1266.836
1290.573
1289.422
1288.222
1286.972
1285.673
1284.327
1282.931
1281.487
1279.998
1278.464
1276.894
1275.291
1273.602
1271.723
1269.765
1291.473
1290.37
1289.217
1288.014
1286.761
1285.46
1284.107
1282.704
1281.254
1279.759
1278.245
1276.736
1275.224
1273.706
1272.188
1292.397
1291.344
1290.24
1289.087
1287.884
1286.631
1285.326
1283.97
1282.563
1281.109
1279.633
1278.164
1276.703
1275.264
1273.859
1293.324
1292.32
1291.268
1290.166
1289.014
1287.812
1286.558
1285.251
1283.893
1282.486
1281.048
1279.606
1278.169
1276.751
1275.371
1294.235
1293.282
1292.28
1291.23
1290.13
1288.981
1287.779
1286.525
1285.218
1283.86
1282.463
1281.05
1279.631
1278.223
1276.843
1268.586
1270.77
1268.422
1272.854
1270.753
1268.03
1274.861
1272.988
1270.71
1267.301
1276.866
1275.136
1273.187
1270.613
1266.088
1278.867
1277.242
1275.49
1273.424
1270.424
1264.338
1280.763
1279.221
1277.601
1275.82
1273.618
1270.142
1262.399
1282.504
1281.029
1279.499
1277.882
1276.071
1273.743
1269.833
1260.676
1284.085
1282.666
1281.202
1279.682
1278.066
1276.233
1273.808
1269.581
1259.448
1285.516
1284.148
1282.736
1281.279
1279.765
1278.152
1276.306
1273.832
1269.45
1258.867
1286.809
1285.488
1284.122
1282.714
1281.26
1279.75
1278.137
1276.294
1273.829
1269.474
1259.434
1287.975
1286.699
1285.377
1284.011
1282.602
1281.149
1279.636
1278.026
1276.202
1273.8
1269.731
1260.944
1289.022
1287.79
1286.511
1285.187
1283.817
1282.404
1280.944
1279.427
1277.822
1276.029
1273.733
1270.161
1262.808
1289.964
1288.776
1287.54
1286.256
1284.926
1283.551
1282.128
1280.658
1279.136
1277.537
1275.766
1273.66
1270.656
1264.95
1290.825
1289.682
1288.489
1287.248
1285.958
1284.621
1283.235
1281.802
1280.322
1278.795
1277.196
1275.509
1273.637
1271.25
1267.455
1291.653
1290.554
1289.407
1288.21
1286.963
1285.668
1284.323
1282.928
1281.485
1279.998
1278.473
1276.925
1275.351
1273.733
1272.084
1292.507
1291.456
1290.356
1289.206
1288.007
1286.758
1285.457
1284.105
1282.704
1281.255
1279.776
1278.287
1276.798
1275.32
1273.869
1293.384
1292.381
1291.33
1290.23
1289.08
1287.881
1286.629
1285.325
1283.969
1282.564
1281.125
1279.675
1278.223
1276.788
1275.387
1294.261
1293.308
1292.307
1291.258
1290.159
1289.01
1287.809
1286.556
1285.25
1283.894
1282.496
1281.079
1279.655
1278.239
1276.851
1295.123
1294.22
1293.269
1292.27
1291.223
1290.127
1288.978
1287.777
1286.523
1285.217
1283.864
1282.481
1281.083
1279.683
1278.299
1270.781
1268.603
1272.777
1270.781
1268.445
1274.68
1272.857
1270.768
1268.06
1276.571
1274.858
1272.993
1270.728
1267.342
1278.483
1276.854
1275.132
1273.192
1270.633
1266.144
1280.401
1278.847
1277.227
1275.482
1273.426
1270.444
1264.408
1282.225
1280.738
1279.2
1277.585
1275.811
1273.619
1270.161
1262.486
1283.903
1282.476
1281.004
1279.479
1277.867
1276.063
1273.742
1269.853
1260.779
1285.429
1284.057
1282.641
1281.18
1279.664
1278.053
1276.223
1273.805
1269.603
1259.563
1286.809
1285.488
1284.122
1282.714
1281.26
1279.75
1278.137
1276.294
1273.829
1269.474
1259.434
1288.055
1286.782
1285.463
1284.101
1282.696
1281.246
1279.735
1278.123
1276.283
1273.826
1269.588
1260.324
1289.175
1287.948
1286.675
1285.357
1283.994
1282.588
1281.134
1279.622
1278.013
1276.192
1273.789
1269.913
1261.683
1290.178
1288.997
1287.768
1286.493
1285.171
1283.805
1282.392
1280.932
1279.415
1277.812
1275.989
1273.732
1270.328
1263.407
1291.077
1289.941
1288.756
1287.523
1286.243
1284.916
1283.54
1282.118
1280.649
1279.128
1277.502
1275.736
1273.689
1270.827
1265.463
1291.897
1290.805
1289.664
1288.474
1287.236
1285.95
1284.613
1283.228
1281.796
1280.318
1278.777
1277.181
1275.522
1273.705
1271.457
1268.606
1292.681
1291.634
1290.539
1289.394
1288.201
1286.958
1285.663
1284.318
1282.924
1281.483
1279.996
1278.478
1276.945
1275.403
1273.871
1293.49
1292.49
1291.442
1290.345
1289.198
1288.002
1286.754
1285.454
1284.103
1282.703
1281.261
1279.793
1278.318
1276.851
1275.411
1294.319
1293.367
1292.368
1291.32
1290.223
1289.076
1287.877
1286.626
1285.323
1283.969
1282.57
1281.145
1279.708
1278.276
1276.868
1295.148
1294.245
1293.295
1292.297
1291.25
1290.155
1289.007
1287.806
1286.554
1285.249
1283.896
1282.509
1281.106
1279.699
1278.307
1295.962
1295.108
1294.207
1293.259
1292.263
1291.219
1290.123
1288.974
1287.774
1286.521
1285.214
1283.866
1282.495
1281.112
1279.732
1272.742
1270.791
1268.625
1274.577
1272.781
1270.795
1268.473
1276.384
1274.679
1272.865
1270.787
1268.096
1278.197
1276.564
1274.858
1273.003
1270.75
1267.389
1280.036
1278.469
1276.847
1275.132
1273.201
1270.658
1266.202
1281.881
1280.38
1278.831
1277.217
1275.479
1273.433
1270.464
1264.477
1283.637
1282.199
1280.716
1279.183
1277.573
1275.806
1273.621
1270.18
1262.572
1285.255
1283.876
1282.452
1280.984
1279.463
1277.855
1276.054
1273.74
1269.873
1260.881
1286.726
1285.401
1284.032
1282.619
1281.162
1279.65
1278.04
1276.212
1273.803
1269.625
1260.098
1288.055
1286.782
1285.463
1284.101
1282.696
1281.246
1279.735
1278.123
1276.283
1273.826
1269.588
1260.324
1289.252
1288.028
1286.758
1285.443
1284.084
1282.681
1281.231
1279.721
1278.109
1276.272
1273.813
1269.778
1261.097
1290.325
1289.149
1287.926
1286.656
1285.34
1283.981
1282.575
1281.12
1279.609
1278.001
1276.141
1273.777
1270.085
1262.32
1291.284
1290.154
1288.976
1287.75
1286.478
1285.159
1283.793
1282.38
1280.919
1279.404
1277.759
1275.929
1273.738
1270.488
1263.919
1292.14
1291.055
1289.922
1288.74
1287.51
1286.233
1284.906
1283.53
1282.108
1280.64
1279.086
1277.448
1275.712
1273.72
1270.988
1266.349
1292.917
1291.876
1290.787
1289.65
1288.463
1287.228
1285.942
1284.606
1283.221
1281.79
1280.292
1278.743
1277.164
1275.531
1273.766
1271.854
1269.3
1293.658
1292.663
1291.619
1290.526
1289.385
1288.194
1286.952
1285.658
1284.314
1282.921
1281.472
1279.98
1278.47
1276.953
1275.448
1294.422
1293.473
1292.476
1291.431
1290.336
1289.193
1287.997
1286.75
1285.451
1284.101
1282.699
1281.258
1279.8
1278.34
1276.897
1295.204
1294.303
1293.354
1292.357
1291.312
1290.218
1289.072
1287.874
1286.623
1285.321
1283.966
1282.571
1281.156
1279.735
1278.324
1295.986
1295.133
1294.232
1293.285
1292.29
1291.246
1290.151
1289.003
1287.804
1286.552
1285.244
1283.893
1282.516
1281.127
1279.74
1296.753
1295.947
1295.095
1294.197
1293.252
1292.259
1291.214
1290.119
1288.971
1287.771
1286.511
1285.202
1283.864
1282.505
1281.138
1274.531
1272.747
1270.807
1268.652
1276.278
1274.577
1272.79
1270.815
1268.506
1278.016
1276.379
1274.682
1272.878
1270.811
1268.138
1279.764
1278.187
1276.561
1274.863
1273.018
1270.778
1267.437
1281.535
1280.02
1278.46
1276.844
1275.136
1273.216
1270.683
1266.26
1283.312
1281.86
1280.364
1278.819
1277.211
1275.481
1273.44
1270.485
1264.548
1285.002
1283.612
1282.178
1280.699
1279.17
1277.566
1275.801
1273.622
1270.199
1262.658
1286.56
1285.229
1283.852
1282.432
1280.968
1279.451
1277.844
1276.046
1273.739
1269.893
1261.358
1287.975
1286.699
1285.377
1284.011
1282.602
1281.149
1279.636
1278.026
1276.202
1273.8
1269.731
1260.944
1289.252
1288.028
1286.758
1285.443
1284.084
1282.681
1281.231
1279.721
1278.109
1276.272
1273.813
1269.778
1261.097
1290.4
1289.226
1288.005
1286.738
1285.426
1284.07
1282.667
1281.216
1279.706
1278.096
1276.217
1273.797
1269.956
1261.76
1291.426
1290.301
1289.127
1287.907
1286.64
1285.327
1283.967
1282.561
1281.107
1279.595
1277.937
1276.064
1273.771
1270.247
1262.859
1292.34
1291.261
1290.133
1288.958
1287.736
1286.466
1285.147
1283.78
1282.368
1280.908
1279.346
1277.676
1275.879
1273.748
1270.638
1264.787
1293.153
1292.119
1291.036
1289.905
1288.727
1287.5
1286.222
1284.895
1283.52
1282.099
1280.594
1279.019
1277.4
1275.691
1273.75
1271.305
1267.292
1293.887
1292.897
1291.859
1290.773
1289.638
1288.455
1287.22
1285.934
1284.598
1283.214
1281.759
1280.245
1278.708
1277.144
1275.535
1273.872
1272.103
1269.701
1294.586
1293.64
1292.647
1291.606
1290.517
1289.378
1288.188
1286.946
1285.652
1284.309
1282.902
1281.44
1279.952
1278.449
1276.946
1295.305
1294.405
1293.459
1292.464
1291.422
1290.331
1289.188
1287.993
1286.746
1285.447
1284.089
1282.68
1281.245
1279.797
1278.354
1296.041
1295.189
1294.29
1293.343
1292.35
1291.307
1290.213
1289.068
1287.87
1286.62
1285.311
1283.952
1282.565
1281.161
1279.757
1296.777
1295.971
1295.12
1294.222
1293.277
1292.285
1291.241
1290.146
1288.999
1287.8
1286.54
1285.228
1283.884
1282.519
1281.146
1297.496
1296.738
1295.934
1295.085
1294.189
1293.247
1292.254
1291.21
1290.115
1288.967
1287.756
1286.489
1285.187
1283.858
1282.512
1276.23
1274.532
1272.756
1270.827
1268.685
1277.914
1276.274
1274.582
1272.804
1270.84
1268.546
1279.592
1278.008
1276.378
1274.69
1272.895
1270.84
1268.181
1281.279
1279.752
1278.182
1276.562
1274.873
1273.037
1270.807
1267.486
1282.984
1281.519
1280.009
1278.454
1276.845
1275.145
1273.231
1270.709
1266.319
1284.693
1283.29
1281.843
1280.351
1278.812
1277.21
1275.482
1273.448
1270.506
1264.618
1286.318
1284.978
1283.591
1282.161
1280.686
1279.162
1277.559
1275.796
1273.624
1270.218
1263.06
1287.816
1286.534
1285.206
1283.833
1282.417
1280.956
1279.439
1277.833
1276.037
1273.738
1269.99
1262.125
1289.175
1287.948
1286.675
1285.357
1283.994
1282.588
1281.134
1279.622
1278.013
1276.192
1273.789
1269.913
1261.683
1290.4
1289.226
1288.005
1286.738
1285.426
1284.07
1282.667
1281.216
1279.706
1278.096
1276.217
1273.797
1269.956
1261.76
1291.498
1290.375
1289.204
1287.986
1286.722
1285.412
1284.055
1282.652
1281.202
1279.692
1278.028
1276.133
1273.787
1270.121
1262.318
1292.478
1291.402
1290.279
1289.109
1287.891
1286.627
1285.314
1283.954
1282.547
1281.093
1279.527
1277.837
1275.998
1273.771
1270.398
1263.765
1293.347
1292.318
1291.241
1290.116
1288.944
1287.724
1286.454
1285.135
1283.768
1282.356
1280.847
1279.253
1277.604
1275.837
1273.761
1270.938
1265.845
1294.117
1293.132
1292.1
1291.02
1289.892
1288.717
1287.489
1286.212
1284.885
1283.511
1282.05
1280.519
1278.958
1277.356
1275.673
1273.812
1271.646
1267.97
1294.808
1293.868
1292.88
1291.845
1290.762
1289.63
1288.446
1287.212
1285.926
1284.591
1283.179
1281.701
1280.197
1278.67
1277.121
1275.525
1273.936
1272.252
1270.002
1295.464
1294.568
1293.625
1292.635
1291.597
1290.51
1289.371
1288.181
1286.94
1285.647
1284.284
1282.856
1281.395
1279.908
1278.408
1296.139
1295.288
1294.391
1293.447
1292.456
1291.416
1290.325
1289.182
1287.988
1286.742
1285.43
1284.057
1282.651
1281.222
1279.786
1296.83
1296.026
1295.175
1294.279
1293.335
1292.344
1291.302
1290.209
1289.063
1287.866
1286.605
1285.285
1283.931
1282.552
1281.162
1297.52
1296.762
1295.958
1295.11
1294.215
1293.272
1292.28
1291.237
1290.142
1288.996
1287.784
1286.514
1285.207
1283.872
1282.519
1298.194
1297.482
1296.726
1295.924
1295.078
1294.184
1293.242
1292.249
1291.205
1290.11
1288.949
1287.725
1286.463
1285.168
1283.85
1277.868
1276.227
1274.537
1272.77
1270.852
1268.723
1279.496
1277.907
1276.275
1274.591
1272.822
1270.87
1268.586
1281.117
1279.583
1278.005
1276.382
1274.702
1272.917
1270.87
1268.224
1282.741
1281.265
1279.745
1278.18
1276.568
1274.887
1273.057
1270.835
1267.535
1284.381
1282.967
1281.506
1280.001
1278.452
1276.85
1275.154
1273.246
1270.735
1266.378
1286.023
1284.671
1283.272
1281.829
1280.342
1278.809
1277.208
1275.484
1273.455
1270.527
1264.952
1287.584
1286.294
1284.957
1283.574
1282.147
1280.677
1279.153
1277.551
1275.792
1273.626
1270.31
1263.739
1289.022
1287.79
1286.511
1285.187
1283.817
1282.404
1280.944
1279.427
1277.822
1276.029
1273.733
1270.161
1262.808
1290.325
1289.149
1287.926
1286.656
1285.34
1283.981
1282.575
1281.12
1279.609
1278.001
1276.141
1273.777
1270.085
1262.32
1291.498
1290.375
1289.204
1287.986
1286.722
1285.412
1284.055
1282.652
1281.202
1279.692
1278.028
1276.133
1273.787
1270.121
1262.318
1292.548
1291.474
1290.353
1289.185
1287.97
1286.708
1285.398
1284.041
1282.638
1281.187
1279.619
1277.92
1276.06
1273.782
1270.275
1263.254
1293.481
1292.455
1291.382
1290.261
1289.094
1287.879
1286.614
1285.301
1283.94
1282.534
1281.024
1279.419
1277.75
1275.943
1273.774
1270.699
1264.899
1294.305
1293.325
1292.298
1291.224
1290.102
1288.932
1287.712
1286.442
1285.123
1283.756
1282.294
1280.75
1279.172
1277.541
1275.801
1273.793
1271.312
1266.683
1295.031
1294.096
1293.114
1292.084
1291.007
1289.882
1288.706
1287.479
1286.202
1284.875
1283.46
1281.969
1280.45
1278.902
1277.317
1275.634
1273.876
1271.892
1268.5
1295.681
1294.789
1293.851
1292.866
1291.834
1290.753
1289.621
1288.438
1287.203
1285.918
1284.552
1283.113
1281.643
1280.147
1278.63
1277.053
1275.515
1273.976
1272.368
1270.262
1296.294
1295.447
1294.553
1293.613
1292.625
1291.589
1290.503
1289.364
1288.175
1286.933
1285.617
1284.228
1282.798
1281.333
1279.843
1296.925
1296.123
1295.274
1294.38
1293.439
1292.45
1291.41
1290.319
1289.177
1287.983
1286.719
1285.386
1284.014
1282.611
1281.191
1297.572
1296.815
1296.013
1295.165
1294.271
1293.33
1292.339
1291.297
1290.204
1289.059
1287.846
1286.568
1285.252
1283.904
1282.535
1298.216
1297.505
1296.749
1295.948
1295.102
1294.209
1293.267
1292.275
1291.232
1290.138
1288.975
1287.749
1286.482
1285.182
1283.857
1298.845
1298.179
1297.47
1296.716
1295.917
1295.072
1294.179
1293.237
1292.244
1291.201
1290.088
1288.91
1287.691
1286.434
1285.148
1279.452
1277.862
1276.228
1274.546
1272.789
1270.882
1268.763
1281.025
1279.487
1277.904
1276.279
1274.604
1272.845
1270.9
1268.626
1282.588
1281.105
1279.577
1278.005
1276.39
1274.719
1272.939
1270.9
1268.268
1284.151
1282.727
1281.256
1279.741
1278.182
1276.578
1274.901
1273.077
1270.864
1267.585
1285.726
1284.363
1282.953
1281.497
1279.998
1278.455
1276.855
1275.163
1273.26
1270.761
1266.666
1287.301
1286.001
1284.653
1283.259
1281.82
1280.337
1278.805
1277.206
1275.485
1273.462
1270.63
1265.57
1288.799
1287.56
1286.273
1284.94
1283.561
1282.138
1280.667
1279.145
1277.544
1275.788
1273.635
1270.482
1264.371
1290.178
1288.997
1287.768
1286.493
1285.171
1283.805
1282.392
1280.932
1279.415
1277.812
1275.989
1273.732
1270.328
1263.407
1291.426
1290.301
1289.127
1287.907
1286.64
1285.327
1283.967
1282.561
1281.107
1279.595
1277.937
1276.064
1273.771
1270.247
1262.859
1292.548
1291.474
1290.353
1289.185
1287.97
1286.708
1285.398
1284.041
1282.638
1281.187
1279.619
1277.92
1276.06
1273.782
1270.275
1263.254
1293.548
1292.524
1291.453
1290.335
1289.169
1287.957
1286.695
1285.384
1284.027
1282.624
1281.114
1279.504
1277.825
1275.998
1273.782
1270.579
1264.431
1294.435
1293.458
1292.435
1291.364
1290.246
1289.081
1287.866
1286.601
1285.287
1283.927
1282.465
1280.913
1279.324
1277.675
1275.896
1273.79
1271.091
1265.834
1295.215
1294.284
1293.306
1292.282
1291.21
1290.091
1288.921
1287.7
1286.43
1285.111
1283.695
1282.195
1280.664
1279.1
1277.487
1275.732
1273.843
1271.611
1267.373
1295.898
1295.011
1294.078
1293.099
1292.072
1290.997
1289.872
1288.696
1287.469
1286.192
1284.823
1283.375
1281.895
1280.387
1278.852
1277.232
1275.589
1273.925
1272.086
1268.954
1296.506
1295.662
1294.773
1293.838
1292.855
1291.825
1290.744
1289.612
1288.429
1287.195
1285.876
1284.48
1283.047
1281.583
1280.096
1278.528
1277.006
1275.51
1274.009
1272.47
1270.509
1297.077
1296.277
1295.432
1294.541
1293.603
1292.618
1291.582
1290.495
1289.357
1288.168
1286.9
1285.552
1284.158
1282.722
1281.248
1297.665
1296.909
1296.109
1295.263
1294.371
1293.432
1292.443
1291.404
1290.313
1289.171
1287.956
1286.666
1285.332
1283.961
1282.563
1298.267
1297.557
1296.802
1296.002
1295.157
1294.265
1293.324
1292.333
1291.291
1290.199
1289.035
1287.802
1286.525
1285.212
1283.872
1298.867
1298.202
1297.492
1296.739
1295.94
1295.096
1294.204
1293.262
1292.27
1291.227
1290.114
1288.933
1287.709
1286.447
1285.154
1299.452
1298.831
1298.167
1297.46
1296.708
1295.911
1295.067
1294.174
1293.231
1292.239
1291.176
1290.044
1288.869
1287.653
1286.403
1280.985
1279.444
1277.86
1276.233
1274.56
1272.813
1270.913
1268.802
1282.502
1281.015
1279.482
1277.906
1276.288
1274.622
1272.869
1270.931
1268.667
1284.006
1282.575
1281.097
1279.575
1278.01
1276.402
1274.735
1272.961
1270.93
1268.312
1285.507
1284.136
1282.716
1281.25
1279.741
1278.189
1276.587
1274.915
1273.097
1270.893
1267.829
1287.018
1285.708
1284.349
1282.943
1281.492
1279.998
1278.457
1276.86
1275.172
1273.275
1270.889
1267.264
1288.528
1287.28
1285.983
1284.639
1283.248
1281.814
1280.332
1278.802
1277.205
1275.487
1273.499
1270.829
1266.201
1289.964
1288.776
1287.54
1286.256
1284.926
1283.551
1282.128
1280.658
1279.136
1277.537
1275.766
1273.66
1270.656
1264.95
1291.284
1290.154
1288.976
1287.75
1286.478
1285.159
1283.793
1282.38
1280.919
1279.404
1277.759
1275.929
1273.738
1270.488
1263.919
1292.478
1291.402
1290.279
1289.109
1287.891
1286.627
1285.314
1283.954
1282.547
1281.093
1279.527
1277.837
1275.998
1273.771
1270.398
1263.765
1293.548
1292.524
1291.453
1290.335
1289.169
1287.957
1286.695
1285.384
1284.027
1282.624
1281.114
1279.504
1277.825
1275.998
1273.782
1270.579
1264.431
1294.501
1293.525
1292.504
1291.435
1290.32
1289.157
1287.944
1286.681
1285.371
1284.013
1282.552
1280.997
1279.402
1277.744
1275.946
1273.79
1270.981
1265.412
1295.341
1294.413
1293.439
1292.418
1291.35
1290.235
1289.069
1287.853
1286.588
1285.274
1283.859
1282.354
1280.816
1279.241
1277.61
1275.806
1273.826
1271.42
1266.624
1296.077
1295.194
1294.265
1293.29
1292.268
1291.199
1290.079
1288.909
1287.688
1286.418
1285.049
1283.594
1282.106
1280.588
1279.038
1277.375
1275.655
1273.889
1271.857
1267.976
1296.718
1295.878
1294.994
1294.063
1293.086
1292.062
1290.987
1289.862
1288.685
1287.459
1286.139
1284.736
1283.297
1281.827
1280.331
1278.741
1277.136
1275.559
1273.967
1272.25
1269.379
1297.284
1296.487
1295.646
1294.76
1293.827
1292.847
1291.816
1290.735
1289.604
1288.421
1287.151
1285.8
1284.408
1282.98
1281.524
1279.969
1278.46
1276.981
1275.51
1274.041
1272.565
1270.758
1297.813
1297.06
1296.263
1295.42
1294.531
1293.595
1292.61
1291.574
1290.488
1289.35
1288.131
1286.827
1285.473
1284.071
1282.622
1298.358
1297.649
1296.896
1296.098
1295.254
1294.365
1293.426
1292.437
1291.398
1290.307
1289.141
1287.896
1286.603
1285.268
1283.899
1298.917
1298.253
1297.544
1296.791
1295.994
1295.151
1294.259
1293.318
1292.327
1291.286
1290.172
1288.984
1287.751
1286.476
1285.169
1299.474
1298.853
1298.189
1297.482
1296.731
1295.935
1295.091
1294.198
1293.256
1292.264
1291.201
1290.066