/*--------------------------------*- C++ -*----------------------------------*\
| =========                 |                                                 |
| \\      /  F ield         | OpenFOAM: The Open Source CFD Toolbox           |
|  \\    /   O peration     | Version:  2306                                  |
|   \\  /    A nd           | Website:  www.openfoam.com                      |
|    \\/     M anipulation  |                                                 |
\*---------------------------------------------------------------------------*/
FoamFile
{
    version     2.0;
    format      ascii;
    arch        "LSB;label=32;scalar=64";
    class       volVectorField;
    location    "1.2/fuel";
    object      U;
}
// * * * * * * * * * * * * * * * * * * * * * * * * * * * * * * * * * * * * * //

dimensions      [0 1 -1 0 0 0 0];

internalField   nonuniform List<vector> 
16000
(
(0.0001052401 7.859875e-05 -0.005116728)
(0.0001053286 0.0002156056 -0.005194193)
(0.0001882196 7.902628e-05 -0.0042268)
(0.0001030851 8.363814e-05 -0.01629631)
(0.0001058927 0.0003813739 -0.005352368)
(0.0001874862 0.0002214839 -0.004271719)
(0.0001030472 0.0002276526 -0.01654109)
(0.0001455154 7.06363e-05 -0.003507469)
(0.000184122 8.261568e-05 -0.01347904)
(9.547712e-05 9.084479e-05 -0.02424883)
(0.0001061339 0.0004709863 -0.005596594)
(0.0001866188 0.0003881843 -0.004361557)
(0.0001033507 0.0004020956 -0.01704069)
(0.0001438647 0.0001990845 -0.003537935)
(0.0001831935 0.0002296163 -0.01362125)
(9.516342e-05 0.0002478759 -0.02461085)
(0.0001093008 6.205068e-05 -0.002977509)
(0.0001423265 7.340988e-05 -0.01119788)
(0.0001702541 8.696816e-05 -0.02007542)
(8.637098e-05 9.672983e-05 -0.03997821)
(0.0001084378 0.0006853036 -0.005919887)
(0.000184148 0.0004943693 -0.004495891)
(0.0001031654 0.0004993348 -0.01781205)
(0.0001409328 0.000347051 -0.003598314)
(0.0001819289 0.0004019615 -0.01390558)
(9.488893e-05 0.0004365915 -0.02534967)
(0.0001077638 0.0001753378 -0.00299991)
(0.0001405658 0.0002051908 -0.01129449)
(0.0001689263 0.0002412907 -0.02028605)
(8.573261e-05 0.0002714934 -0.04057298)
(8.376253e-05 5.491262e-05 -0.002576148)
(0.0001069348 6.429463e-05 -0.009515131)
(0.0001315354 7.644829e-05 -0.01669178)
(0.0001541086 8.996234e-05 -0.03311714)
(7.156421e-05 0.0001207127 -0.03256568)
(0.0001069421 0.0005379175 -0.006289086)
(0.0001840948 0.0006899901 -0.004664978)
(0.0001048967 0.0007211674 -0.01883292)
(0.0001355702 0.0004443097 -0.00368742)
(0.0001788163 0.0005126304 -0.01433084)
(9.377626e-05 0.0005478605 -0.02649023)
(0.0001049581 0.0003047134 -0.003044043)
(0.000137416 0.0003573471 -0.01148589)
(0.0001668325 0.0004213918 -0.02070716)
(8.477791e-05 0.0004768811 -0.04178647)
(8.249035e-05 0.0001554108 -0.002593406)
(0.0001053262 0.0001801775 -0.009586258)
(0.0001295818 0.0002131039 -0.01683503)
(0.0001523158 0.0002549605 -0.03346339)
(7.019496e-05 0.0003369684 -0.03304908)
(6.630313e-05 4.904916e-05 -0.002261949)
(8.194326e-05 5.678551e-05 -0.00823945)
(9.887904e-05 6.658104e-05 -0.01419338)
(0.0001189616 7.826047e-05 -0.02755159)
(0.0001268098 0.0001062336 -0.02698098)
(0.0006112837 0.001103473 -0.06500192)
(0.0001112618 0.0001449624 -0.006560891)
(0.0001768808 0.0005620977 -0.004849685)
(0.0001026663 0.0005697743 -0.02000055)
(0.0001306542 0.0006100479 -0.003797082)
(0.0001779243 0.0007126774 -0.01486621)
(9.4211e-05 0.000780248 -0.02799947)
(0.0001000455 0.0003908964 -0.003108639)
(0.0001317103 0.0004577943 -0.01176846)
(0.0001624084 0.0005389234 -0.02133704)
(8.257452e-05 0.0006045137 -0.04366091)
(8.014632e-05 0.0002694798 -0.002627257)
(0.00010238 0.0003128544 -0.009726333)
(0.000126041 0.0003703852 -0.01711884)
(0.0001492565 0.0004441512 -0.03415536)
(6.772653e-05 0.0005893194 -0.03403652)
(6.525245e-05 0.0001389651 -0.002275675)
(8.062074e-05 0.0001593853 -0.008294307)
(9.715665e-05 0.0001859922 -0.01429894)
(0.000116783 0.0002223879 -0.02778722)
(0.0001239119 0.0002978891 -0.02726224)
(0.0005978191 0.00312892 -0.06596969)
(5.380616e-05 4.417746e-05 -0.002009472)
(6.486298e-05 5.064769e-05 -0.00723997)
(7.574789e-05 5.85835e-05 -0.01229795)
(8.948668e-05 6.777407e-05 -0.02344049)
(9.764396e-05 9.049408e-05 -0.02245082)
(0.001084487 0.0009633928 -0.05385102)
(0.0006274486 0.001138306 -0.0458382)
(0.0001139856 7.133585e-05 -0.006735185)
(0.0001806059 0.0002122324 -0.004974295)
(0.0001064722 0.0001641234 -0.02085661)
(0.0001198754 0.0005001969 -0.003914955)
(0.0001696414 0.0005814036 -0.01545267)
(9.043513e-05 0.0006240571 -0.02972573)
(9.517683e-05 0.0005319476 -0.003186974)
(0.0001263741 0.0006267461 -0.01211633)
(0.0001597191 0.0007433869 -0.02213005)
(8.148599e-05 0.0008492069 -0.04614287)
(7.610567e-05 0.0003460295 -0.002676514)
(9.724785e-05 0.0004014861 -0.009931449)
(0.0001197392 0.0004751472 -0.01753789)
(0.0001433055 0.0005697138 -0.03519104)
(6.305796e-05 0.0007593499 -0.03556166)
(6.330661e-05 0.0002405367 -0.002302503)
(7.817861e-05 0.0002761565 -0.008401859)
(9.39821e-05 0.0003223735 -0.01450684)
(0.0001127858 0.00038569 -0.02825381)
(0.0001185899 0.0005166482 -0.02782522)
(0.0005729864 0.005468631 -0.06794282)
(5.292824e-05 0.0001252597 -0.002020657)
(6.377506e-05 0.0001423124 -0.007283641)
(7.43504e-05 0.0001638626 -0.01237942)
(8.763135e-05 0.0001928251 -0.02361424)
(9.486353e-05 0.0002540804 -0.02264217)
(0.001056785 0.00273929 -0.05441434)
(0.0006128759 0.003313357 -0.04652484)
(4.463239e-05 4.007952e-05 -0.001802202)
(5.263863e-05 4.556532e-05 -0.006436232)
(5.995295e-05 5.210511e-05 -0.01081198)
(6.852094e-05 5.940234e-05 -0.02032042)
(7.359179e-05 7.748439e-05 -0.0191045)
(0.0008345394 0.0008180331 -0.04480993)
(0.001117992 0.0009923198 -0.03796033)
(0.0006127251 0.001177448 -0.05088542)
(0.0001162041 9.725798e-06 -0.006834097)
(0.0001827526 0.0001182345 -0.005050069)
(0.0001088537 8.272761e-05 -0.02140475)
(0.0001182483 0.0002021999 -0.003989988)
(0.0001726545 0.0002228296 -0.01584641)
(9.302419e-05 0.0002013453 -0.03098955)
(8.590617e-05 0.0004370524 -0.003270486)
(0.0001150628 0.000514152 -0.01249157)
(0.0001493319 0.0006081802 -0.02299907)
(7.589499e-05 0.0006873814 -0.04898982)
(7.199704e-05 0.0004679795 -0.002735597)
(9.211757e-05 0.0005450537 -0.0101803)
(0.0001136292 0.000646687 -0.01805388)
(0.0001385242 0.0007793482 -0.03649559)
(5.862172e-05 0.001043974 -0.03758299)
(5.99836e-05 0.0003090125 -0.002341369)
(7.398527e-05 0.0003546749 -0.008558441)
(8.850697e-05 0.0004140187 -0.01481131)
(0.0001057883 0.0004955136 -0.02894324)
(0.0001089995 0.0006662421 -0.02866752)
(0.0005267627 0.007064595 -0.07099894)
(5.129695e-05 0.0002164985 -0.002042456)
(6.1757e-05 0.0002461554 -0.007368962)
(7.175882e-05 0.0002834519 -0.01253917)
(8.41899e-05 0.0003335663 -0.02395619)
(8.966624e-05 0.0004389229 -0.02302177)
(0.00100516 0.004747569 -0.05553866)
(0.0005858766 0.005790534 -0.04792462)
(4.388924e-05 0.0001137075 -0.001811491)
(5.173215e-05 0.0001281334 -0.00647185)
(5.881244e-05 0.000145872 -0.01087688)
(6.703573e-05 0.000169131 -0.02045461)
(7.135188e-05 0.0002176551 -0.01924556)
(0.0008087471 0.00232764 -0.04519334)
(0.001088345 0.002891975 -0.03836021)
(0.0005974709 0.003371787 -0.05165007)
(3.765512e-05 3.658463e-05 -0.001629099)
(4.366835e-05 4.130079e-05 -0.005775959)
(4.86524e-05 4.677438e-05 -0.009616374)
(5.422293e-05 5.267998e-05 -0.01787351)
(5.627008e-05 6.738497e-05 -0.01656472)
(0.0006292845 0.0006991213 -0.03813342)
(0.0008601513 0.000842059 -0.03157753)
(0.001087704 0.001020973 -0.04213301)
(0.0005979397 0.001185082 -0.05166333)
(0.0001172226 3.053694e-06 -0.006878389)
(0.0001850747 4.059153e-05 -0.005091343)
(0.0001108816 1.529506e-05 -0.02171561)
(0.0001168722 0.0001148995 -0.004033663)
(0.0001743315 0.0001243268 -0.01608564)
(9.460189e-05 0.0001052126 -0.031798)
(8.36857e-05 0.0001818415 -0.003321433)
(0.0001131272 0.0002094864 -0.01272911)
(0.000150725 0.0002400196 -0.02358199)
(7.705815e-05 0.0002447235 -0.05106526)
(6.455869e-05 0.0003847761 -0.002798318)
(8.251307e-05 0.0004478938 -0.01044666)
(0.0001014553 0.000531062 -0.01861071)
(0.0001256877 0.0006395302 -0.03793037)
(4.880613e-05 0.0008614255 -0.03989732)
(5.655788e-05 0.0004159412 -0.002387578)
(6.969758e-05 0.0004786852 -0.008746347)
(8.294166e-05 0.0005593165 -0.01518078)
(9.877551e-05 0.000670092 -0.0297925)
(9.939953e-05 0.0008982182 -0.0297294)
(0.0004809681 0.009677407 -0.07504884)
(4.852996e-05 0.0002781932 -0.002073924)
(5.832183e-05 0.0003162638 -0.007492629)
(6.73431e-05 0.0003642027 -0.01277178)
(7.831365e-05 0.0004287533 -0.02445739)
(8.07911e-05 0.0005654714 -0.02358237)
(0.000912927 0.006127791 -0.05722701)
(0.0005358564 0.00748647 -0.05012137)
(4.250515e-05 0.0001962914 -0.001829553)
(5.004565e-05 0.00022132 -0.006541235)
(5.669007e-05 0.0002519344 -0.01100369)
(6.426922e-05 0.0002920426 -0.0207175)
(6.715186e-05 0.0003751537 -0.0195238)
(0.0007601427 0.004018392 -0.04595129)
(0.001032953 0.005011661 -0.03915846)
(0.0005690497 0.005891753 -0.05320852)
(3.701833e-05 0.0001038397 -0.001636936)
(4.290265e-05 0.000116212 -0.005805566)
(4.770744e-05 0.0001310334 -0.009669337)
(5.302082e-05 0.0001500656 -0.01798046)
(5.451774e-05 0.0001893329 -0.01667365)
(0.0006086786 0.001989808 -0.03841623)
(0.0008328086 0.002454465 -0.03184984)
(0.001057006 0.00292852 -0.04257849)
(0.0005819918 0.003432894 -0.0524462)
(3.224736e-05 3.357336e-05 -0.001482432)
(3.684665e-05 3.767103e-05 -0.00522418)
(4.036818e-05 4.232221e-05 -0.008633691)
(4.399872e-05 4.71829e-05 -0.01590403)
(4.450108e-05 5.940739e-05 -0.01457274)
(0.000480994 0.0006071918 -0.03306691)
(0.0006487154 0.0007192739 -0.02686608)
(0.000836562 0.0008645408 -0.03504435)
(0.001063151 0.001024008 -0.04276525)
(0.0006269481 0.001325674 -0.04367661)
(0.0001172226 -3.053694e-06 -0.006878389)
(0.0001861426 1.271921e-05 -0.005109361)
(0.0001118141 4.765156e-06 -0.02185475)
(0.0001168492 4.307218e-05 -0.004056411)
(0.0001763969 4.342556e-05 -0.016216)
(9.616537e-05 2.693663e-05 -0.03225624)
(8.197225e-05 0.0001040135 -0.003350165)
(0.0001115517 0.000118999 -0.01286727)
(0.0001513444 0.0001343073 -0.02393607)
(7.769517e-05 0.0001313995 -0.05239133)
(6.253635e-05 0.0001627625 -0.002835253)
(8.011426e-05 0.0001873247 -0.01060814)
(9.889995e-05 0.0002198429 -0.01896298)
(0.0001251976 0.0002601366 -0.03888718)
(4.694434e-05 0.0003519104 -0.04158979)
(5.053701e-05 0.0003420656 -0.002436539)
(6.202942e-05 0.0003935716 -0.008946706)
(7.286144e-05 0.0004597634 -0.01557643)
(8.559472e-05 0.0005509105 -0.03071292)
(8.052815e-05 0.0007410404 -0.03089302)
(0.0003855744 0.008009763 -0.07976305)
(4.565226e-05 0.0003730448 -0.002111063)
(5.476604e-05 0.0004249302 -0.007639739)
(6.277771e-05 0.0004894591 -0.01305099)
(7.223982e-05 0.0005760871 -0.02506582)
(7.144609e-05 0.0007558625 -0.02427351)
(0.0008184625 0.00823888 -0.05935389)
(0.000485702 0.0102494 -0.0530113)
(4.016996e-05 0.0002522498 -0.001855551)
(4.719303e-05 0.0002843999 -0.006641452)
(5.310076e-05 0.0003237629 -0.01118753)
(5.959309e-05 0.0003754214 -0.0211006)
(6.009849e-05 0.0004829894 -0.01993131)
(0.0006774601 0.005179506 -0.04707554)
(0.0009342158 0.006470638 -0.04038062)
(0.0005167068 0.007627385 -0.05566461)
(3.583029e-05 0.0001790703 -0.001652143)
(4.14751e-05 0.0002004924 -0.0058631)
(4.594494e-05 0.0002260144 -0.009772527)
(5.077623e-05 0.0002587487 -0.01818925)
(5.12278e-05 0.0003258216 -0.01688758)
(0.0005697791 0.003427593 -0.03897176)
(0.0007812253 0.004236958 -0.03238836)
(0.0009994455 0.005073973 -0.04346748)
(0.0005521219 0.005998126 -0.054038)
(3.169606e-05 9.532754e-05 -0.00148913)
(3.619165e-05 0.0001060491 -0.005249177)
(3.957341e-05 0.0001186203 -0.008677739)
(4.300866e-05 0.0001344539 -0.01599136)
(4.310322e-05 0.0001669446 -0.01465955)
(0.0004649321 0.001728395 -0.03328543)
(0.0006269292 0.002096849 -0.02706703)
(0.0008086742 0.002480675 -0.03534781)
(0.001031437 0.002968778 -0.04322221)
(0.0006088031 0.003804545 -0.04433286)
(2.795351e-05 3.095204e-05 -0.001356653)
(3.156079e-05 3.45485e-05 -0.004756387)
(3.407048e-05 3.854688e-05 -0.0078121)
(3.651418e-05 4.26133e-05 -0.01428473)
(3.60982e-05 5.296088e-05 -0.01296927)
(0.0003803337 0.0005347647 -0.0290935)
(0.0004957894 0.0006244416 -0.02329203)
(0.0006311245 0.0007376927 -0.02981309)
(0.0008174248 0.0008658778 -0.03556263)
(0.001111516 0.001138836 -0.03614457)
(0.00520018 0.01233998 -0.1145891)
(0.0001162041 -9.7258e-06 -0.006834097)
(0.0001861426 -1.271921e-05 -0.005109361)
(0.0001118141 -4.765156e-06 -0.02185475)
(0.000116845 1.35347e-05 -0.004066001)
(0.0001773492 1.35823e-05 -0.01627292)
(9.688799e-05 8.339084e-06 -0.03246125)
(8.153517e-05 4.024209e-05 -0.003364611)
(0.0001114256 4.490914e-05 -0.0129393)
(0.0001528027 4.845198e-05 -0.02412905)
(7.871578e-05 4.048385e-05 -0.05314264)
(6.101008e-05 9.336508e-05 -0.002855563)
(7.828758e-05 0.0001070596 -0.01069912)
(9.6933e-05 0.0001247966 -0.01916788)
(0.0001245883 0.0001459864 -0.03946776)
(4.558178e-05 0.0001952172 -0.04267046)
(4.879166e-05 0.000146298 -0.002464473)
(5.989035e-05 0.0001671075 -0.009063871)
(7.013717e-05 0.0001943404 -0.01581618)
(8.231672e-05 0.0002319989 -0.0312911)
(7.589753e-05 0.0003172714 -0.03167342)
(0.0003633636 0.003339588 -0.08312916)
(4.069859e-05 0.0003067824 -0.002150394)
(4.857725e-05 0.0003494139 -0.007796353)
(5.480951e-05 0.0004024085 -0.01334882)
(6.160315e-05 0.000473723 -0.02572048)
(5.537883e-05 0.0006227019 -0.02501891)
(0.0006390504 0.006803827 -0.06174304)
(0.0003829941 0.00849008 -0.05669007)
(3.772648e-05 0.0003372072 -0.001886035)
(4.421686e-05 0.0003807487 -0.00675979)
(4.935472e-05 0.0004333723 -0.01140627)
(5.470265e-05 0.0005021469 -0.02156062)
(5.260213e-05 0.0006425042 -0.02042643)
(0.0005897495 0.006907607 -0.04846016)
(0.0008324323 0.00869693 -0.04190703)
(0.0004633626 0.0104334 -0.05889224)
(3.383462e-05 0.0002301211 -0.001673978)
(3.907253e-05 0.000257647 -0.005945959)
(4.298061e-05 0.0002904593 -0.00992159)
(4.700621e-05 0.0003326052 -0.01849218)
(4.574316e-05 0.0004192441 -0.01719906)
(0.000504633 0.004414135 -0.03978949)
(0.0006935628 0.0054622 -0.03320654)
(0.0008972154 0.006554422 -0.04483687)
(0.0004973976 0.007774182 -0.05657939)
(3.066619e-05 0.0001642436 -0.001502104)
(3.496859e-05 0.0001827758 -0.005297652)
(3.808864e-05 0.0002043817 -0.00876335)
(4.115702e-05 0.0002315569 -0.01616134)
(4.047684e-05 0.0002869425 -0.01482948)
(0.0004345881 0.002972698 -0.03371259)
(0.000585769 0.003611697 -0.02746198)
(0.0007559957 0.004281449 -0.03594774)
(0.000971776 0.005143134 -0.04413129)
(0.0005743948 0.006647358 -0.04567934)
(2.747179e-05 8.791063e-05 -0.001362442)
(3.099451e-05 9.729615e-05 -0.004777768)
(3.339296e-05 0.000108081 -0.007849309)
(3.568531e-05 0.0001214641 -0.0143574)
(3.495916e-05 0.0001488444 -0.01304015)
(0.0003675513 0.00152235 -0.02926777)
(0.0004788273 0.001820543 -0.02344736)
(0.0006090005 0.002116968 -0.03003711)
(0.0007889834 0.002510494 -0.03587439)
(0.001075839 0.003270867 -0.03652579)
(0.005028994 0.0355957 -0.1165114)
(2.44972e-05 2.865173e-05 -0.001247659)
(2.736406e-05 3.183393e-05 -0.004354993)
(2.919394e-05 3.530882e-05 -0.007115264)
(3.082745e-05 3.875301e-05 -0.01293041)
(2.997267e-05 4.765018e-05 -0.01165075)
(0.0003084911 0.0004763509 -0.02589515)
(0.0003920145 0.0005497838 -0.02048987)
(0.0004822497 0.0006399712 -0.02584542)
(0.0006168783 0.0007381929 -0.03024914)
(0.0008542334 0.0009607068 -0.03005096)
(0.009205385 0.01049213 -0.09478097)
(0.005352455 0.0122709 -0.01172585)
(0.0001139856 -7.133585e-05 -0.006735185)
(0.0001850747 -4.059153e-05 -0.005091343)
(0.0001108816 -1.529506e-05 -0.02171561)
(0.000116845 -1.35347e-05 -0.004066001)
(0.0001773492 -1.35823e-05 -0.01627292)
(9.688799e-05 -8.339084e-06 -0.03246125)
(8.133468e-05 1.264933e-05 -0.00337052)
(0.0001113752 1.408868e-05 -0.01296968)
(0.0001534814 1.510406e-05 -0.02421332)
(7.919328e-05 1.24973e-05 -0.05347874)
(6.053933e-05 3.67189e-05 -0.002865474)
(7.779481e-05 4.15731e-05 -0.01074492)
(9.658602e-05 4.773344e-05 -0.01927477)
(0.000125342 5.433054e-05 -0.03978421)
(4.54828e-05 7.208085e-05 -0.04328262)
(4.749114e-05 8.404185e-05 -0.002479495)
(5.829069e-05 9.575884e-05 -0.009128222)
(6.811192e-05 0.0001108784 -0.01595128)
(7.989323e-05 0.000131604 -0.03162699)
(7.257548e-05 0.0001788753 -0.03214673)
(0.000347526 0.001860323 -0.08527592)
(3.920349e-05 0.000132244 -0.002172185)
(4.674977e-05 0.000149861 -0.007885022)
(5.247213e-05 0.0001721757 -0.01352293)
(5.849848e-05 0.0002025946 -0.02611396)
(5.035693e-05 0.0002703351 -0.02549076)
(0.0005901787 0.002939731 -0.06328358)
(0.0003577655 0.003556647 -0.05897453)
(3.358613e-05 0.0002772759 -0.001918338)
(3.913532e-05 0.0003130562 -0.006885756)
(4.296197e-05 0.0003562551 -0.01163922)
(4.638296e-05 0.0004128192 -0.0220539)
(4.019731e-05 0.0005286667 -0.02095602)
(0.0004410447 0.005693129 -0.05000065)
(0.0006408478 0.007183331 -0.04387186)
(0.0003565226 0.008653745 -0.0631306)
(3.173702e-05 0.0003068284 -0.001699435)
(3.655213e-05 0.0003439154 -0.006043175)
(3.986784e-05 0.0003875482 -0.01009765)
(4.303721e-05 0.0004433279 -0.01885274)
(3.989163e-05 0.0005558254 -0.0175734)
(0.000435079 0.005860064 -0.04078179)
(0.0006003674 0.007283096 -0.03420459)
(0.0007907528 0.0088053 -0.04654538)
(0.0004408419 0.01062972 -0.05990134)
(2.89425e-05 0.0002110599 -0.001520694)
(3.291864e-05 0.0002348741 -0.005367294)
(3.560233e-05 0.0002626442 -0.00888666)
(3.80616e-05 0.0002976132 -0.01640709)
(3.611874e-05 0.0003690407 -0.01507578)
(0.0003841221 0.003825739 -0.03433804)
(0.0005168845 0.004651777 -0.02805969)
(0.0006666156 0.005521215 -0.03686603)
(0.0008661278 0.006646898 -0.04555795)
(0.0005117684 0.008629868 -0.04781626)
(2.657094e-05 0.0001513462 -0.001373637)
(2.993587e-05 0.0001675452 -0.004819153)
(3.212568e-05 0.0001860506 -0.007921474)
(3.413335e-05 0.000208979 -0.01449848)
(3.281802e-05 0.0002555788 -0.0131785)
(0.000343392 0.002615207 -0.02960711)
(0.0004467615 0.003130976 -0.02375125)
(0.0005671689 0.003645781 -0.03047722)
(0.0007351851 0.004332509 -0.03648847)
(0.001008122 0.005665965 -0.03729378)
(0.004682473 0.06215308 -0.1202379)
(2.40729e-05 8.139709e-05 -0.00125271)
(2.686981e-05 8.967946e-05 -0.004373482)
(2.860983e-05 9.903303e-05 -0.007147103)
(3.012347e-05 0.0001104828 -0.01299183)
(2.902701e-05 0.0001339291 -0.01170973)
(0.0002980939 0.001356125 -0.02603752)
(0.000378526 0.001602958 -0.02061381)
(0.0004650574 0.001836642 -0.02601865)
(0.0005944004 0.002140389 -0.03047958)
(0.0008227649 0.00275947 -0.03031013)
(0.008873849 0.03025765 -0.09594351)
(0.00518308 0.0357754 -0.01222516)
(2.166685e-05 2.661734e-05 -0.001152357)
(2.398647e-05 2.945444e-05 -0.004006977)
(2.532314e-05 3.250089e-05 -0.006517092)
(2.642829e-05 3.545224e-05 -0.01178134)
(2.532597e-05 4.319694e-05 -0.01054786)
(0.0002561747 0.0004283013 -0.02326515)
(0.0003179581 0.0004896065 -0.01823484)
(0.0003812779 0.0005631492 -0.02273507)
(0.0004712796 0.0006400075 -0.0262202)
(0.0006449646 0.0008180159 -0.02555714)
(0.007067998 0.008813484 -0.07876985)
(0.009502999 0.01046217 -0.009652336)
(0.005169698 0.01261296 -0.03376269)
(0.0001112618 -0.0001449624 -0.006560891)
(0.0001827526 -0.0001182345 -0.005050069)
(0.0001088537 -8.272761e-05 -0.02140475)
(0.0001168492 -4.307218e-05 -0.004056411)
(0.0001763969 -4.342556e-05 -0.016216)
(9.616537e-05 -2.693663e-05 -0.03225624)
(8.133468e-05 -1.264933e-05 -0.00337052)
(0.0001113752 -1.408868e-05 -0.01296968)
(0.0001534814 -1.510406e-05 -0.02421332)
(7.919328e-05 -1.24973e-05 -0.05347874)
(6.032199e-05 1.153766e-05 -0.002869419)
(7.756985e-05 1.304828e-05 -0.01076366)
(9.643681e-05 1.492646e-05 -0.01931986)
(0.0001257035 1.68841e-05 -0.03992243)
(4.545581e-05 2.220021e-05 -0.04355646)
(4.705863e-05 3.339118e-05 -0.002486626)
(5.778509e-05 3.774549e-05 -0.009159665)
(6.751061e-05 4.338256e-05 -0.01601934)
(7.928888e-05 5.104815e-05 -0.03180222)
(7.183111e-05 6.990279e-05 -0.03240475)
(0.0003445877 0.0007014867 -0.0864923)
(3.809937e-05 7.602711e-05 -0.002183666)
(4.539788e-05 8.599303e-05 -0.007932635)
(5.075449e-05 9.845286e-05 -0.01361856)
(5.624102e-05 0.0001153744 -0.02633538)
(4.681475e-05 0.0001531406 -0.0257648)
(0.0005555949 0.00165857 -0.06421523)
(0.0003398819 0.001983533 -0.06042509)
(3.230097e-05 0.0001202391 -0.001935742)
(3.757957e-05 0.0001352398 -0.006954962)
(4.100335e-05 0.0001536783 -0.01177107)
(4.381339e-05 0.000178151 -0.02233964)
(3.610469e-05 0.0002309273 -0.02127734)
(0.0003930019 0.002486263 -0.05092714)
(0.0005872328 0.003108204 -0.04488088)
(0.0003284019 0.003652174 -0.0656325)
(2.822721e-05 0.000252251 -0.001726445)
(3.231129e-05 0.0002827224 -0.006146744)
(3.464063e-05 0.0003185089 -0.01028511)
(3.640525e-05 0.0003643272 -0.01923891)
(3.037233e-05 0.0004568703 -0.01797207)
(0.0003210958 0.004822667 -0.04188243)
(0.0004428901 0.006002599 -0.0355192)
(0.0005931331 0.007274728 -0.04884632)
(0.0003296628 0.008825851 -0.06461346)
(2.71246e-05 0.0002807932 -0.001542257)
(3.075943e-05 0.0003127439 -0.005448542)
(3.29803e-05 0.0003495101 -0.009031375)
(3.478858e-05 0.0003955772 -0.01669745)
(3.145889e-05 0.0004880003 -0.0153692)
(0.0003300974 0.005062754 -0.03508865)
(0.0004432422 0.006174713 -0.0287776)
(0.0005712592 0.00735971 -0.03798511)
(0.0007551697 0.008928483 -0.0473268)
(0.0004459117 0.01179805 -0.0506227)
(2.506788e-05 0.000194474 -0.001389648)
(2.816761e-05 0.0002152893 -0.004878486)
(3.001127e-05 0.000239065 -0.008025167)
(3.154867e-05 0.0002685514 -0.01470188)
(2.927739e-05 0.0003285648 -0.01337833)
(0.0003033888 0.003363799 -0.03010202)
(0.0003934628 0.004029768 -0.02421028)
(0.0004972393 0.004696623 -0.03114902)
(0.0006440244 0.005588684 -0.03745003)
(0.0008886622 0.007327756 -0.0384887)
(0.004060895 0.08093322 -0.12704)
(2.327877e-05 0.000140036 -0.001262464)
(2.594496e-05 0.0001543128 -0.004409214)
(2.751629e-05 0.0001703397 -0.007208743)
(2.880425e-05 0.0001899259 -0.01311081)
(2.72488e-05 0.0002297785 -0.01182458)
(0.0002784371 0.002327416 -0.02631386)
(0.0003530172 0.002753525 -0.02085539)
(0.0004325371 0.003158225 -0.0263574)
(0.0005518585 0.003685831 -0.03093045)
(0.0007628914 0.004761879 -0.03082847)
(0.008211259 0.05237498 -0.09811345)
(0.004839806 0.06296316 -0.01323857)
(2.129044e-05 7.563284e-05 -0.0011568)
(2.355156e-05 8.299779e-05 -0.004023118)
(2.481453e-05 9.118078e-05 -0.006544638)
(2.582324e-05 0.0001010881 -0.01183392)
(2.452828e-05 0.0001214189 -0.0105977)
(0.0002475551 0.00121937 -0.02338369)
(0.0003069928 0.001427539 -0.01833615)
(0.0003676232 0.001616217 -0.02287334)
(0.0004538413 0.00185574 -0.02639862)
(0.0006202181 0.002349589 -0.02574815)
(0.006783514 0.02541058 -0.07958345)
(0.009173483 0.03049229 -0.01001478)
(0.004991627 0.03652018 -0.0347353)
(1.932356e-05 2.480663e-05 -0.001068368)
(2.122074e-05 2.735202e-05 -0.003702518)
(2.220928e-05 3.004473e-05 -0.005998267)
(2.293774e-05 3.259727e-05 -0.01079463)
(2.174187e-05 3.941209e-05 -0.009612001)
(0.0002165049 0.0003880594 -0.02106519)
(0.000264049 0.0004401303 -0.0163809)
(0.0003092371 0.0005012915 -0.02023227)
(0.0003725786 0.0005629128 -0.02306251)
(0.0004926099 0.0007086031 -0.02215061)
(0.0053426 0.007486503 -0.06697045)
(0.00729879 0.008798292 -0.007996481)
(0.009155823 0.01070303 -0.02787321)
(0.005122402 0.01269257 -0.01245535)
(0.0001069421 -0.0005379175 -0.006289086)
(0.0001806059 -0.0002122324 -0.004974295)
(0.0001064722 -0.0001641234 -0.02085661)
(0.0001168722 -0.0001148995 -0.004033663)
(0.0001743315 -0.0001243268 -0.01608564)
(9.460189e-05 -0.0001052126 -0.031798)
(8.153517e-05 -4.024209e-05 -0.003364611)
(0.0001114256 -4.490914e-05 -0.0129393)
(0.0001528027 -4.845198e-05 -0.02412905)
(7.871578e-05 -4.048386e-05 -0.05314264)
(6.032199e-05 -1.153766e-05 -0.002869419)
(7.756985e-05 -1.304828e-05 -0.01076366)
(9.643681e-05 -1.492646e-05 -0.01931986)
(0.0001257035 -1.68841e-05 -0.03992243)
(4.545581e-05 -2.220022e-05 -0.04355646)
(4.685888e-05 1.048678e-05 -0.002489391)
(5.755261e-05 1.184413e-05 -0.009172187)
(6.723813e-05 1.357539e-05 -0.01604721)
(7.902444e-05 1.591015e-05 -0.03187618)
(7.151912e-05 2.162293e-05 -0.03251747)
(0.0003434227 0.0002159889 -0.08703656)
(3.771664e-05 3.041741e-05 -0.00218897)
(4.494161e-05 3.421557e-05 -0.007955265)
(5.018601e-05 3.899092e-05 -0.01366534)
(5.551286e-05 4.551222e-05 -0.02644692)
(4.561881e-05 6.086501e-05 -0.02590782)
(0.0005462392 0.0006531613 -0.06472294)
(0.0003360693 0.0007523201 -0.06124857)
(3.135835e-05 6.915619e-05 -0.001944732)
(3.643762e-05 7.766013e-05 -0.006991354)
(3.957493e-05 8.797856e-05 -0.01184188)
(4.195752e-05 0.0001016325 -0.02249634)
(3.322615e-05 0.0001310492 -0.02145814)
(0.0003593226 0.001408078 -0.05146264)
(0.0005494219 0.001753839 -0.04548194)
(0.0003086068 0.002040478 -0.06721478)
(2.711468e-05 0.0001098962 -0.001740614)
(3.097969e-05 0.0001228065 -0.006202045)
(3.299343e-05 0.0001382049 -0.01038809)
(3.429286e-05 0.0001581879 -0.01945531)
(2.716543e-05 0.000200272 -0.01820557)
(0.0002827232 0.00211592 -0.04251065)
(0.0003916024 0.002622694 -0.03610751)
(0.0005355101 0.0031546 -0.04993526)
(0.0002987317 0.003745478 -0.06705536)
(2.411382e-05 0.0002308008 -0.001565176)
(2.716868e-05 0.0002570423 -0.00553523)
(2.863148e-05 0.0002871672 -0.009185578)
(2.939033e-05 0.0003249519 -0.01700847)
(2.396033e-05 0.0004007698 -0.01568103)
(0.0002429097 0.004161593 -0.03592151)
(0.0003228109 0.005081217 -0.02974468)
(0.0004109778 0.006065604 -0.03954155)
(0.0005514728 0.007377578 -0.04998341)
(0.0003194401 0.009808823 -0.05452736)
(2.347839e-05 0.0002582368 -0.001408134)
(2.629935e-05 0.0002860641 -0.004947355)
(2.777434e-05 0.0003174282 -0.008146171)
(2.880731e-05 0.0003561245 -0.01494065)
(2.548616e-05 0.0004335745 -0.01361462)
(0.0002604999 0.004440589 -0.03069068)
(0.0003363502 0.005332322 -0.02475523)
(0.0004223176 0.006233223 -0.03195522)
(0.0005464734 0.007450025 -0.03861384)
(0.0007617985 0.009845458 -0.0399795)
(0.003384885 0.1100605 -0.1354794)
(2.19573e-05 0.0001799269 -0.001276392)
(2.440469e-05 0.0001982702 -0.004460351)
(2.569729e-05 0.0002188529 -0.007297128)
(2.661404e-05 0.0002440248 -0.01328193)
(2.43165e-05 0.0002952874 -0.01198997)
(0.0002459956 0.002992209 -0.02671565)
(0.0003108008 0.003541919 -0.02122003)
(0.000378534 0.004065422 -0.02687401)
(0.0004808056 0.004749188 -0.03163681)
(0.0006616095 0.006145353 -0.03163165)
(0.007052938 0.06781883 -0.1022005)
(0.004213316 0.08215601 -0.01824466)
(2.058546e-05 0.0001300396 -0.00116537)
(2.273712e-05 0.0001427209 -0.00405427)
(2.386164e-05 0.0001567248 -0.006597882)
(2.468866e-05 0.0001736501 -0.01193559)
(2.302795e-05 0.0002081704 -0.01069458)
(0.0002312555 0.002091048 -0.02361313)
(0.0002862508 0.002449863 -0.01853302)
(0.000341788 0.002775961 -0.02314272)
(0.0004208298 0.003190866 -0.02674594)
(0.0005731412 0.004045912 -0.02612849)
(0.006218499 0.04382021 -0.08107014)
(0.008513964 0.05318265 -0.0107553)
(0.004630954 0.0651322 -0.03661724)
(1.898755e-05 7.049968e-05 -0.001072305)
(2.083524e-05 7.709029e-05 -0.003716727)
(2.176263e-05 8.430798e-05 -0.006022324)
(2.241225e-05 9.295887e-05 -0.01084014)
(2.106015e-05 0.0001107848 -0.009654672)
(0.0002092426 0.001104822 -0.02116543)
(0.0002549625 0.001283296 -0.0164653)
(0.000298147 0.001438702 -0.02034533)
(0.0003587436 0.001632206 -0.02320509)
(0.0004734546 0.002035265 -0.02229813)
(0.00512082 0.02158096 -0.06758427)
(0.007013853 0.02563565 -0.008279782)
(0.008812963 0.03097898 -0.02854251)
(0.004941087 0.03687181 -0.01305935)
(1.735917e-05 2.318525e-05 -0.0009938364)
(1.893119e-05 2.548229e-05 -0.003434072)
(1.966e-05 2.787852e-05 -0.005544209)
(2.013164e-05 3.010541e-05 -0.009938519)
(1.890132e-05 3.615522e-05 -0.008808272)
(0.0001859295 0.0003538923 -0.01919832)
(0.0002231769 0.0003987093 -0.01483038)
(0.0002568278 0.0004504734 -0.0181748)
(0.0003021714 0.0005008911 -0.02052204)
(0.000389404 0.0006228365 -0.01948127)
(0.004078334 0.006474263 -0.05803072)
(0.005515688 0.007477897 -0.006781729)
(0.007030195 0.00898361 -0.02313924)
(0.009077495 0.01075882 -0.01026337)
(0.005017209 0.01267439 -0.006378286)
(0.0001084378 -0.0006853036 -0.005919887)
(0.0001768808 -0.0005620977 -0.004849685)
(0.0001026663 -0.0005697743 -0.02000055)
(0.0001182483 -0.0002021999 -0.003989988)
(0.0001726545 -0.0002228296 -0.01584641)
(9.302419e-05 -0.0002013453 -0.03098955)
(8.197225e-05 -0.0001040135 -0.003350165)
(0.0001115517 -0.000118999 -0.01286727)
(0.0001513444 -0.0001343073 -0.02393607)
(7.769517e-05 -0.0001313995 -0.05239133)
(6.053933e-05 -3.67189e-05 -0.002865474)
(7.779481e-05 -4.15731e-05 -0.01074492)
(9.658602e-05 -4.773344e-05 -0.01927477)
(0.000125342 -5.433054e-05 -0.03978421)
(4.54828e-05 -7.208085e-05 -0.04328262)
(4.685888e-05 -1.048678e-05 -0.002489391)
(5.755261e-05 -1.184413e-05 -0.009172187)
(6.723813e-05 -1.357539e-05 -0.01604721)
(7.902444e-05 -1.591015e-05 -0.03187618)
(7.151912e-05 -2.162293e-05 -0.03251747)
(0.0003434227 -0.0002159889 -0.08703656)
(3.754003e-05 9.548077e-06 -0.002190972)
(4.473162e-05 1.073219e-05 -0.007964041)
(4.992653e-05 1.220086e-05 -0.01368398)
(5.518482e-05 1.419623e-05 -0.02649261)
(4.508969e-05 1.886306e-05 -0.02596821)
(0.0005422363 0.0002018932 -0.06494471)
(0.0003345174 0.0002316252 -0.06161698)
(3.102288e-05 2.780957e-05 -0.001948774)
(3.603775e-05 3.10989e-05 -0.007008189)
(3.907869e-05 3.511198e-05 -0.01187557)
(4.13154e-05 4.046058e-05 -0.02257296)
(3.218462e-05 5.246598e-05 -0.02154928)
(0.0003475637 0.000561994 -0.05174165)
(0.0005387327 0.0006920943 -0.04580892)
(0.0003037057 0.0007810488 -0.06811492)
(2.630307e-05 6.322279e-05 -0.001747792)
(3.000816e-05 7.055057e-05 -0.006230542)
(3.179898e-05 7.917075e-05 -0.01044224)
(3.277464e-05 9.032767e-05 -0.0195713)
(2.491379e-05 0.000113741 -0.01833364)
(0.0002558714 0.001200024 -0.04286173)
(0.000355711 0.001485089 -0.0364379)
(0.0004950823 0.001780291 -0.05057709)
(0.0002770824 0.002095657 -0.06858685)
(2.314391e-05 0.0001009277 -0.001576892)
(2.601958e-05 0.0001121298 -0.005580267)
(2.723355e-05 0.0001251643 -0.009267907)
(2.763578e-05 0.0001417145 -0.01717748)
(2.140494e-05 0.0001760976 -0.01585799)
(0.0002130874 0.001830651 -0.03637625)
(0.0002820927 0.002229428 -0.03013252)