/*--------------------------------*- C++ -*----------------------------------*\
| =========                 |                                                 |
| \\      /  F ield         | OpenFOAM: The Open Source CFD Toolbox           |
|  \\    /   O peration     | Version:  2306                                  |
|   \\  /    A nd           | Website:  www.openfoam.com                      |
|    \\/     M anipulation  |                                                 |
\*---------------------------------------------------------------------------*/
FoamFile
{
    version     2.0;
    format      ascii;
    arch        "LSB;label=32;scalar=64";
    class       volScalarField;
    location    "1.2/fuel";
    object      X.H2;
}
// * * * * * * * * * * * * * * * * * * * * * * * * * * * * * * * * * * * * * //

dimensions      [0 0 0 0 0 0 0];

internalField   nonuniform List<scalar> 
16000
(
0.9303317
0.9316063
0.9094352
0.9304039
0.9341459
0.910425
0.9316791
0.8859752
0.9095011
0.9305453
0.9378766
0.9123955
0.9342201
0.8868603
0.9104912
0.9318218
0.863157
0.8860357
0.9096303
0.9307539
0.9425296
0.915289
0.9379531
0.8886231
0.9124626
0.9343654
0.8639808
0.8869211
0.9106212
0.9320322
0.8413911
0.8632132
0.8861545
0.9098211
0.9310285
0.9473251
0.9189006
0.9426099
0.8912143
0.9153575
0.9381029
0.8656209
0.8886845
0.9125942
0.9345796
0.8421667
0.8640372
0.8870404
0.9108131
0.932309
0.8206698
0.8414436
0.8633235
0.8863299
0.9100723
0.9313004
0.9508245
0.9226382
0.9474105
0.8944535
0.9189714
0.942767
0.8680316
0.8912768
0.9154919
0.9383236
0.8437104
0.8656778
0.8888051
0.9127885
0.9348614
0.8214038
0.8422194
0.864148
0.8872168
0.9110658
0.9325832
0.8009204
0.8207192
0.8415469
0.8634866
0.8865611
0.9103212
0.9315253
0.9530016
0.9254053
0.950912
0.8978118
0.9227121
0.9475776
0.8710451
0.8945178
0.9191103
0.9429985
0.8459786
0.8680894
0.8913995
0.9156902
0.9386141
0.8228642
0.8437635
0.8657897
0.8889832
0.9130443
0.9351405
0.8016173
0.8214533
0.8423231
0.8643118
0.8874491
0.9113161
0.93281
0.7820685
0.800967
0.8208164
0.8416997
0.8637017
0.8867903
0.910527
0.9317484
0.9542217
0.9271597
0.95309
0.9003039
0.9254801
0.9510834
0.8741698
0.8978786
0.9228571
0.947824
0.8488133
0.8711045
0.894644
0.9193152
0.9433032
0.8250097
0.8460326
0.868203
0.8915807
0.9159512
0.9389018
0.8030037
0.8229142
0.8438681
0.865955
0.8892179
0.9132977
0.9353715
0.7827319
0.8016641
0.8215509
0.8424765
0.8645278
0.8876794
0.9115232
0.933035
0.7640463
0.7821127
0.8010589
0.8209603
0.8419013
0.8639149
0.8869799
0.9107313
0.9319698
0.9547658
0.9281616
0.9543105
0.9018888
0.9272347
0.9532629
0.8764897
0.9003712
0.925627
0.9513361
0.8517521
0.8742312
0.8980097
0.9230711
0.9481483
0.8276902
0.8488686
0.871221
0.8948304
0.9195849
0.9436049
0.80504
0.8250603
0.8461387
0.868371
0.8918195
0.9162099
0.9391402
0.7840514
0.8030509
0.8230125
0.8440228
0.8661729
0.8894506
0.9135074
0.9356008
0.7646791
0.7827762
0.8017563
0.8216954
0.8426789
0.8647419
0.8878698
0.9117287
0.9332583
0.7467941
0.7640883
0.7821998
0.801195
0.8211502
0.8421012
0.8640913
0.8871679
0.910934
0.9321895
0.9547658
0.9286146
0.9548546
0.9027968
0.9282366
0.9544841
0.8779666
0.9019561
0.9273817
0.9535178
0.8539344
0.8765516
0.9005035
0.9258438
0.9516686
0.8304686
0.8518093
0.8743521
0.8982034
0.9233529
0.9484695
0.8075837
0.8277421
0.8489774
0.8713934
0.895076
0.9198522
0.9438563
0.7859891
0.8050878
0.8251601
0.8462957
0.8685923
0.8920562
0.9164243
0.9393774
0.7659376
0.7840961
0.8031438
0.8231581
0.8442269
0.8663891
0.8896431
0.9137156
0.9358285
0.7473988
0.7647213
0.7828637
0.8018929
0.821886
0.8428796
0.864919
0.8880588
0.9119326
0.9334799
0.7302592
0.7468341
0.7641711
0.7823289
0.8013747
0.8213387
0.8422666
0.8642662
0.8873545
0.9111351
0.9332453
0.9542217
0.9286146
0.9548546
0.9032084
0.9286895
0.9550285
0.8788139
0.902864
0.9283835
0.9547398
0.8553245
0.8780284
0.9020882
0.9275988
0.953853
0.8325319
0.8539919
0.8766733
0.9006991
0.9261293
0.9519979
0.8102197
0.8305223
0.8519219
0.8745307
0.8984587
0.9236322
0.9487396
0.7884092
0.8076326
0.8278442
0.8491383
0.8716206
0.8953195
0.9200747
0.9441077
0.7677854
0.7860344
0.805182
0.8253077
0.8465027
0.8688118
0.8922523
0.9166373
0.9396133
0.7486012
0.76598
0.7841841
0.8032814
0.8233502
0.8444293
0.8665679
0.8898341
0.9139222
0.9360545
0.7308378
0.747439
0.7648043
0.7829932
0.8020732
0.8220751
0.8430456
0.8650948
0.8882463
0.9121349
0.9345447
0.7143945
0.7302974
0.7469131
0.7642939
0.7824994
0.801553
0.8214945
0.8424306
0.8644399
0.8875397
0.9121022
0.9339644
0.9530016
0.9281616
0.9543105
0.9032084
0.9286895
0.9550285
0.8791982
0.9032754
0.9288363
0.9552846
0.8561224
0.8788754
0.9029957
0.9286003
0.9550762
0.8338466
0.8553818
0.8781498
0.9022834
0.9278845
0.954185
0.8121772
0.8325859
0.8541052
0.8768533
0.9009567
0.9264123
0.9522748
0.7909168
0.8102702
0.8306279
0.8520885
0.8747664
0.8987118
0.9238664
0.9490121
0.7700928
0.7884555
0.8077289
0.8279954
0.8493505
0.8718459
0.8955221
0.9202968
0.9443589
0.7503664
0.7678284
0.7861236
0.8053214
0.8255024
0.846708
0.8689937
0.8924472
0.9168492
0.9398479
0.7319883
0.7486416
0.7660637
0.7843146
0.803463
0.8235408
0.8445967
0.8667454
0.8900238
0.9141273
0.9371408
0.714949
0.7308761
0.7475181
0.7649275
0.7831642
0.8022521
0.8222315
0.8432103
0.8652692
0.8884324
0.9131078
0.9352732
0.6991582
0.714431
0.7303727
0.7470301
0.7644561
0.7826686
0.8017005
0.8216491
0.8425934
0.8646121
0.8884305
0.91276
0.9345058
0.9508245
0.9271597
0.95309
0.9027968
0.9282366
0.9544841
0.8791982
0.9032754
0.9288363
0.9552846
0.8564845
0.8792596
0.903407
0.929053
0.9556215
0.8346014
0.8561795
0.8789964
0.9031904
0.9288858
0.9554093
0.8134247
0.8339003
0.8554947
0.8783293
0.9025406
0.9281677
0.9544636
0.7927789
0.812228
0.8326921
0.8542729
0.8770907
0.9012121
0.9266496
0.9525541
0.7724834
0.7909646
0.8103698
0.8307842
0.8523082
0.8750001
0.898924
0.9241021
0.949287
0.7525703
0.7701367
0.7885467
0.8078716
0.8281949
0.849561
0.8720334
0.8957244
0.9205186
0.9446101
0.733677
0.7504072
0.7679131
0.7862557
0.8055054
0.8256957
0.8468782
0.8691745
0.892641
0.9170598
0.9409772
0.7160511
0.7320268
0.7487212
0.7661877
0.7844869
0.8036433
0.8236985
0.8447629
0.8669215
0.8902121
0.915114
0.9378965
0.69969
0.7149855
0.7309517
0.7476355
0.7650902
0.783334
0.8024001
0.8223867
0.8433737
0.8654422
0.8893277
0.9137717
0.9358242
0.6845125
0.6991931
0.714503
0.7304844
0.7471847
0.7646172
0.7828086
0.8018468
0.8218025
0.8427548
0.8654413
0.8890358
0.9132547
0.9348678
0.9473251
0.9254053
0.950912
0.9018888
0.9272347
0.9532629
0.8788139
0.902864
0.9283835
0.9547398
0.8564845
0.8792596
0.903407
0.929053
0.9556215
0.8349441
0.8565415
0.8793804
0.9036014
0.9293383
0.955955
0.8141412
0.8346549
0.856292
0.8791752
0.9034469
0.9291686
0.9556884
0.7939657
0.8134753
0.8340061
0.8556618
0.8785659
0.9027955
0.9284048
0.9547442
0.7742585
0.7928269
0.8123281
0.8328493
0.854494
0.8773261
0.9014264
0.9268885
0.952836
0.7548534
0.7725287
0.7910588
0.8105173
0.8309906
0.8525263
0.8751961
0.8991376
0.9243394
0.9495644
0.7357853
0.752612
0.7702233
0.7886818
0.8080599
0.8283928
0.8497362
0.8722206
0.8959263
0.92074
0.9458251
0.7176689
0.733716
0.7504879
0.7680386
0.7864302
0.8056881
0.8258558
0.8470473
0.8693542
0.8928337
0.9180741
0.9418062
0.7007471
0.7160879
0.7321028
0.7488394
0.7663515
0.7846579
0.8037924
0.8238551
0.8449279
0.8670964
0.8911182
0.9157963
0.9384787
0.6850232
0.699725
0.7150577
0.7310637
0.7477906
0.7652518
0.7834745
0.8025469
0.8225407
0.8435359
0.8662752
0.8899381
0.914273
0.9361944
0.6704233
0.6845459
0.699262
0.7146098
0.7306321
0.7473383
0.7647503
0.7829475
0.8019919
0.8219547
0.8435325
0.8660043
0.8894909
0.9135853
0.9350492
0.9425296
0.9226382
0.9474105
0.9003039
0.9254801
0.9510834
0.8779666
0.9019561
0.9273817
0.9535178
0.8561224
0.8788754
0.9029957
0.9286003
0.9550762
0.8349441
0.8565415
0.8793804
0.9036014
0.9293383
0.955955
0.8144665
0.8349975
0.8566538
0.8795589
0.9038574
0.9296209
0.9562343
0.7946474
0.8141916
0.8347603
0.8564583
0.879411
0.9037011
0.9294051
0.9559689
0.77539
0.7940135
0.8135749
0.8341627
0.8558821
0.8788006
0.903009
0.9286431
0.9550266
0.7565487
0.7743041
0.7929216
0.8124763
0.8330568
0.8547135
0.8775236
0.901642
0.9271289
0.9531203
0.7379691
0.7548965
0.7726181
0.7911984
0.810712
0.8311955
0.8527092
0.8753933
0.8993526
0.9245782
0.9509173
0.7196883
0.7358251
0.7526945
0.7703517
0.7888603
0.8082469
0.8285575
0.8499111
0.8724075
0.8961279
0.9218109
0.9468513
0.7022987
0.7177061
0.7337929
0.7506075
0.7682045
0.7866034
0.8058394
0.826015
0.8472155
0.8695329
0.8937622
0.9188074
0.942486
0.6860381
0.7007823
0.7161606
0.7322156
0.7489955
0.7665142
0.7847994
0.8039405
0.8240105
0.8450917
0.8679386
0.8917439
0.9163192
0.938877
0.670914
0.6850567
0.6997941
0.7151649
0.7312118
0.7479446
0.7653854
0.7836138
0.8026926
0.8226935
0.8443168
0.8668426
0.8903988
0.9146092
0.9363804
0.6568594
0.6704553
0.684612
0.6993643
0.7147511
0.7307788
0.7474653
0.7648825
0.7830853
0.8021359
0.8226878
0.8440602
0.8664277
0.889795
0.9137509
0.9378766
0.9189006
0.9426099
0.8978118
0.9227121
0.9475776
0.8764897
0.9003712
0.925627
0.9513361
0.8553245
0.8780284
0.9020882
0.9275988
0.953853
0.8346014
0.8561795
0.8789964
0.9031904
0.9288858
0.9554093
0.8144665
0.8349975
0.8566538
0.8795589
0.9038574
0.9296209
0.9562343
0.794957
0.8145168
0.8351026
0.8568198
0.8797942
0.9041113
0.929857
0.9565148
0.77604
0.794695
0.8142908
0.8349162
0.8566778
0.8796449
0.9039137
0.9296424
0.956251
0.7576293
0.7754353
0.7941077
0.8137225
0.8343693
0.8561007
0.8789971
0.9032235
0.9288824
0.9553109
0.7395906
0.7565919
0.7743939
0.7930619
0.8126721
0.8332628
0.8548975
0.8777223
0.901859
0.9273709
0.9545065
0.7217799
0.7380102
0.7549815
0.7727507
0.7913829
0.8109054
0.8313673
0.8528933
0.8755918
0.8995689
0.925742
0.9523424
0.7042352
0.7197263
0.7359037
0.7528167
0.7705213
0.7890375
0.8084025
0.828722
0.8500858
0.8725941
0.8971038
0.9226845
0.947839
0.6875276
0.7023343
0.7177796
0.733907
0.7507655
0.7683692
0.7867469
0.8059899
0.8261733
0.8473827
0.8703945
0.8944318
0.9193996
0.9429828
0.6718893
0.6860718
0.7008519
0.7162684
0.7323646
0.7491506
0.7666488
0.7849398
0.8040874
0.8241647
0.8458808
0.8685197
0.8922232
0.9166752
0.9390801
0.6573314
0.6709461
0.6851229
0.6998967
0.7153065
0.7313589
0.748072
0.765518
0.7837521
0.8028372
0.8234295
0.8448485
0.8672709
0.8907076
0.914778
0.6437926
0.6568902
0.6705187
0.68471
0.6994996
0.7148914
0.7309001
0.7475913
0.7650136
0.7832219
0.8028298
0.8231851
0.844457
0.8667105
0.8899473
0.9341459
0.915289
0.9379531
0.8944535
0.9189714
0.942767
0.8741698
0.8978786
0.9228571
0.947824
0.8539344
0.8765516
0.9005035
0.9258438
0.9516686
0.8338466
0.8553818
0.8781498
0.9022834
0.9278845
0.954185
0.8141412
0.8346549
0.856292
0.8791752
0.9034469
0.9291686
0.9556884
0.794957
0.8145168
0.8351026
0.8568198
0.8797942
0.9041113
0.929857
0.9565148
0.7763353
0.7950045
0.8146158
0.8352582
0.8570388
0.8800276
0.9043234
0.9300939
0.9567966
0.7582501
0.7760852
0.7947889
0.8144377
0.835122
0.8568955
0.8798404
0.904127
0.9298805
0.9565345
0.7406242
0.7576723
0.7755247
0.7942474
0.8139174
0.8345745
0.8562837
0.8791946
0.903439
0.9291229
0.9566942
0.7233328
0.7396318
0.7566774
0.7745271
0.7932472
0.8128664
0.8334356
0.8550828
0.8779224
0.9020774
0.9285501
0.9559442
0.7062408
0.7218191
0.7380913
0.7551078
0.7729259
0.7915661
0.8110676
0.8315403
0.8530786
0.8757916
0.9006239
0.9269038
0.9541054
0.6893865
0.7042716
0.7198014
0.7360203
0.7529782
0.7706897
0.789185
0.8085578
0.8288862
0.8502602
0.8734979
0.8978966
0.9234995
0.9487128
0.6733205
0.6875616
0.7024046
0.7178886
0.7340579
0.7509224
0.7685057
0.7868896
0.8061395
0.8263306
0.8481892
0.8710155
0.8949717
0.9198263
0.9432519
0.6582694
0.6719216
0.6861384
0.7009551
0.7164109
0.7325127
0.7492789
0.7667824
0.7850793
0.8042333
0.8249081
0.8464249
0.8689647
0.8925492
0.916856
0.6442469
0.6573623
0.6710097
0.6852212
0.7000323
0.7154473
0.7314806
0.7481984
0.7656496
0.7838893
0.8035337
0.8239305
0.8452498
0.867558
0.8908627
0.6311967
0.6438221
0.656951
0.6706128
0.6848397
0.699634
0.7150075
0.7310205
0.7477163
0.7651437
0.7838806
0.8033003
0.823559
0.8447221
0.8668521
0.9316063
0.9123955
0.9342201
0.8912143
0.9153575
0.9381029
0.8710451
0.8945178
0.9191103
0.9429985
0.8517521
0.8742312
0.8980097
0.9230711
0.9481483
0.8325319
0.8539919
0.8766733
0.9006991
0.9261293
0.9519979
0.8134247
0.8339003
0.8554947
0.8783293
0.9025406
0.9281677
0.9544636
0.7946474
0.8141916
0.8347603
0.8564583
0.879411
0.9037011
0.9294051
0.9559689
0.7763353
0.7950045
0.8146158
0.8352582
0.8570388
0.8800276
0.9043234
0.9300939
0.9567966
0.7585321
0.7763803
0.7950981
0.8147624
0.8354636
0.857256
0.8802227
0.9045361
0.9303314
0.9570797
0.7412181
0.758293
0.7761741
0.7949279
0.8146318
0.8353262
0.8570776
0.8800366
0.904341
0.9301195
0.9579116
0.7243228
0.7406652
0.7577574
0.7756573
0.7944318
0.8141109
0.8347462
0.8564677
0.879393
0.9036555
0.9302928
0.9580622
0.7077298
0.7233722
0.7397133
0.7568041
0.774703
0.7934312
0.8130295
0.8336096
0.8552694
0.8781237
0.9031427
0.9297134
0.9576545
0.6913117
0.7062783
0.7218965
0.7382116
0.7552746
0.7731
0.7917197
0.8112309
0.8317144
0.8532651
0.8767668
0.9016723
0.9282866
0.9563393
0.6751067
0.6894214
0.7043434
0.7199128
0.7361744
0.7531386
0.7708299
0.7893322
0.808713
0.8290502
0.8511051
0.8742318
0.8986342
0.9242008
0.9493126
0.6596458
0.6733532
0.687629
0.702509
0.7180328
0.7342077
0.7510525
0.7686413
0.7870315
0.8062882
0.8270898
0.8487701
0.871516
0.8953602
0.9200547
0.6451496
0.6583004
0.6719855
0.6862373
0.7010915
0.7165525
0.7326352
0.7494063
0.766915
0.7852177
0.8049365
0.8254206
0.8468417
0.8692674
0.8927147
0.6316343
0.6442765
0.6574233
0.671104
0.6853513
0.7001672
0.7155637
0.7316014
0.7483239
0.7657801
0.7845504
0.8040076
0.8243085
0.8455188
0.8677021
0.6190478
0.6312251
0.6438806
0.6570414
0.6707373
0.6849687
0.6997452
0.7151226
0.7311399
0.7478403
0.7657705
0.7843273
0.8036541
0.8238088
0.8448548
0.9303317
0.910425
0.9316791
0.8886231
0.9124626
0.9343654
0.8680316
0.8912768
0.9154919
0.9383236
0.8488133
0.8711045
0.894644
0.9193152
0.9433032
0.8304686
0.8518093
0.8743521
0.8982034
0.9233529
0.9484695
0.8121772
0.8325859
0.8541052
0.8768533
0.9009567
0.9264123
0.9522748
0.7939657
0.8134753
0.8340061
0.8556618
0.8785659
0.9027955
0.9284048
0.9547442
0.77604
0.794695
0.8142908
0.8349162
0.8566778
0.8796449
0.9039137
0.9296424
0.956251
0.7585321
0.7763803
0.7950981
0.8147624
0.8354636
0.857256
0.8802227
0.9045361
0.9303314
0.9570797
0.7414878
0.7585749
0.7764691
0.7952368
0.814956
0.8356674
0.8574376
0.8804183
0.9047494
0.9305695
0.9584537
0.7248916
0.7412589
0.7583776
0.7763061
0.7951115
0.8148243
0.8354971
0.8572603
0.8802335
0.9045558
0.9312801
0.9592284
0.708679
0.7243619
0.7407462
0.7578835
0.7758324
0.794615
0.8142729
0.8349189
0.8566526
0.8795924
0.9047098
0.9313981
0.9596194
0.6927409
0.7077675
0.7234499
0.7398341
0.7569716
0.7748778
0.7935856
0.8131936
0.8337847
0.8554571
0.8791066
0.9041903
0.9310488
0.9596532
0.6769563
0.6913475
0.7063524
0.7220115
0.7383708
0.7554403
0.773246
0.7918744
0.8113952
0.8318896
0.8541758
0.8777361
0.9029167
0.9299899
0.959297
0.6613634
0.6751401
0.6894901
0.70445
0.7200601
0.7363275
0.7532722
0.7709698
0.7894793
0.8088679
0.8298451
0.8517913
0.8749145
0.8992671
0.924671
0.6464743
0.6596772
0.6734178
0.687729
0.702647
0.7181761
0.7343318
0.7511818
0.7687762
0.7871725
0.807006
0.8276367
0.8492386
0.8718761
0.895568
0.6325037
0.6451794
0.6583618
0.6720804
0.6863681
0.7012272
0.7166697
0.7327569
0.7495327
0.7670467
0.7858849
0.8054211
0.825813
0.8471251
0.8694211
0.6194695
0.6316628
0.6443351
0.6575139
0.6712288
0.6854805
0.7002786
0.7156792
0.7317212
0.7484483
0.7664092
0.7850002
0.8043652
0.8245619
0.8456538
0.6073237
0.6190751
0.6312814
0.6439675
0.657161
0.670861
0.6850753
0.6998555
0.7152369
0.7312583
0.7484382
0.7661955
0.784663
0.8038904
0.8239339
0.9094352
0.9304039
0.8868603
0.9104912
0.9318218
0.8656209
0.8886845
0.9125942
0.9345796
0.8459786
0.8680894
0.8913995
0.9156902
0.9386141
0.8276902
0.8488686
0.871221
0.8948304
0.9195849
0.9436049
0.8102197
0.8305223
0.8519219
0.8745307
0.8984587
0.9236322
0.9487396
0.7927789
0.812228
0.8326921
0.8542729
0.8770907
0.9012121
0.9266496
0.9525541
0.77539
0.7940135
0.8135749
0.8341627
0.8558821
0.8788006
0.903009
0.9286431
0.9550266
0.7582501
0.7760852
0.7947889
0.8144377
0.835122
0.8568955
0.8798404
0.904127
0.9298805
0.9565345
0.7414878
0.7585749
0.7764691
0.7952368
0.814956
0.8356674
0.8574376
0.8804183
0.9047494
0.9305695
0.9584537
0.72515
0.7415286
0.7586593
0.7766007
0.79542
0.8151481
0.8358377
0.8576197
0.8806144
0.9049633
0.9317257
0.9597471
0.7092245
0.7249306
0.7413396
0.7585032
0.7764804
0.7952938
0.8149854
0.8356685
0.8574437
0.8804311
0.9056001
0.9323435
0.9606868
0.693652
0.7087165
0.7244393
0.7408665
0.7580501
0.7760063
0.7947684
0.8144357
0.8350923
0.8568383
0.8805638
0.905704
0.9326132
0.9613566
0.6783294
0.6927769
0.7078418
0.7235654
0.7399938
0.757138
0.7750245
0.7937411
0.8133589
0.833961
0.856374
0.8800739
0.9053913
0.932568
0.9619452
0.6631419
0.6769907
0.6914185
0.7064624
0.7221636
0.7385289
0.7555794
0.773393
0.7920302
0.8115607
0.8327458
0.8550819
0.8788874
0.9044462
0.9322039
0.9640316
0.6481273
0.6613954
0.675206
0.6895923
0.7045909
0.7202065
0.736455
0.7534055
0.7711096
0.7896261
0.809619
0.8304906
0.8524299
0.8755005
0.8996907
0.6337795
0.6465044
0.6597392
0.6735138
0.6878613
0.7027842
0.7182948
0.7344553
0.7513103
0.7689103
0.7878534
0.807523
0.8280776
0.8495756
0.8720688
0.6203074
0.6325324
0.6452384
0.6584529
0.672206
0.6864982
0.7013394
0.716786
0.7328776
0.7496582
0.7676815
0.7863447
0.8057922
0.8260799
0.847269
0.6077304
0.6194969
0.6317191
0.6444222
0.6576338
0.6713529
0.6855875
0.7003893
0.7157938
0.73184
0.7490482
0.7668371
0.7853395
0.8046049
0.8246891
0.596004
0.6073501
0.6191293
0.631365
0.6440825
0.6572799
0.6709634
0.6851811
0.6999649
0.7153502
0.7318295
0.7488434
0.766515
0.7848873
0.8040087
0.8859752
0.9095011
0.9305453
0.8639808
0.8869211
0.9106212
0.9320322
0.8437104
0.8656778
0.8888051
0.9127885
0.9348614
0.8250097
0.8460326
0.868203
0.8915807
0.9159512
0.9389018
0.8075837
0.8277421
0.8489774
0.8713934
0.895076
0.9198522
0.9438563
0.7909168
0.8102702
0.8306279
0.8520885
0.8747664
0.8987118
0.9238664
0.9490121
0.7742585
0.7928269
0.8123281
0.8328493
0.854494
0.8773261
0.9014264
0.9268885
0.952836
0.7576293
0.7754353
0.7941077
0.8137225
0.8343693
0.8561007
0.8789971
0.9032235
0.9288824
0.9553109
0.7412181
0.758293
0.7761741
0.7949279
0.8146318
0.8353262
0.8570776
0.8800366
0.904341
0.9301195
0.9579116
0.72515
0.7415286
0.7586593
0.7766007
0.79542
0.8151481
0.8358377
0.8576197
0.8806144
0.9049633
0.9317257
0.9597471
0.7094722
0.7251889
0.741609
0.7587846
0.7767746
0.7956019
0.8153087
0.8360085
0.8578023
0.8808111
0.9060028
0.9327699
0.961162
0.6941755
0.7092617
0.7250076
0.7414592
0.758669
0.7766535
0.7954463
0.8151471
0.8358405
0.8576277
0.8813927
0.9065559
0.9334815
0.9622776
0.6792046
0.6936878
0.7087904
0.7245541
0.7410254
0.7582157
0.776152
0.7949226
0.8145994
0.8352667
0.8577439
0.8814807
0.9067965
0.9339309
0.9632547
0.6644622
0.6783639
0.6928481
0.7079522
0.723718
0.7401526
0.7572777
0.7751722
0.7938976
0.8135253
0.8348224
0.8572775
0.8811841
0.9067563
0.9342739
0.964855
0.6498387
0.6631749
0.6770587
0.6915239
0.7066079
0.7223147
0.7386616
0.7557193
0.773541
0.792187
0.8123694
0.8335983
0.8561592
0.8803032
0.9064314
0.9357283
0.9665301
0.6353713
0.648158
0.6614587
0.675304
0.6897274
0.7047311
0.7203283
0.7365822
0.7535387
0.7712492
0.7903383
0.810229
0.8310918
0.8529783
0.8758928
0.6215368
0.6338084
0.646564
0.6598313
0.6736407
0.6879928
0.7028978
0.7184129
0.734578
0.7514381
0.769558
0.7883437
0.8079399
0.8283949
0.8497559
0.6085384
0.620335
0.6325891
0.645326
0.6585735
0.6723308
0.6866058
0.7014508
0.7169015
0.7329974
0.7502634
0.7681189
0.7866968
0.8060447
0.8262155
0.5963964
0.6077568
0.6195512
0.6318029
0.6445375
0.657753
0.6714556
0.6856935
0.700499
0.7159075
0.7324131
0.7494562
0.76716
0.785567
0.8047253
0.5850696
0.5960294
0.6074022
0.6192098
0.6314756
0.6441969
0.6573783
0.6710649
0.685286
0.7000735
0.7158966
0.7322165
0.749148
0.7667284
0.7849996
0.863157
0.8860357
0.9096303
0.9307539
0.8421667
0.8640372
0.8870404
0.9108131
0.932309
0.8228642
0.8437635
0.8657897
0.8889832
0.9130443
0.9351405
0.80504
0.8250603
0.8461387
0.868371
0.8918195
0.9162099
0.9391402
0.7884092
0.8076326
0.8278442
0.8491383
0.8716206
0.8953195
0.9200747
0.9441077
0.7724834
0.7909646
0.8103698
0.8307842
0.8523082
0.8750001
0.898924
0.9241021
0.949287
0.7565487
0.7743041
0.7929216
0.8124763
0.8330568
0.8547135
0.8775236
0.901642
0.9271289
0.9531203
0.7406242
0.7576723
0.7755247
0.7942474
0.8139174
0.8345745
0.8562837
0.8791946
0.903439
0.9291229
0.9566942
0.7248916
0.7412589
0.7583776
0.7763061
0.7951115
0.8148243
0.8354971
0.8572603
0.8802335
0.9045558
0.9312801
0.9592284
0.7094722
0.7251889
0.741609
0.7587846
0.7767746
0.7956019
0.8153087
0.8360085
0.8578023
0.8808111
0.9060028
0.9327699
0.961162
0.6944133
0.7095094
0.7252657
0.7417284
0.75895
0.7769473
0.7957539
0.8154698
0.8361798
0.8579855
0.8817678
0.9069409
0.9338739
0.962691
0.6797076
0.6942111
0.7093353
0.7251218
0.7416174
0.7588338
0.7767983
0.7955994
0.8153093
0.8360132
0.8585236
0.8822734
0.9075787
0.9346867
0.9639867
0.6653037
0.679239
0.6937586
0.7089003
0.7247059
0.7411833
0.7583544
0.7762984
0.7950775
0.8147638
0.8361169
0.8585996
0.8824896
0.9079809
0.9353361
0.965577
0.6511091
0.6644953
0.6784321
0.6929538
0.7080982
0.7238697
0.7402858
0.7574183
0.7753209
0.7940552
0.8143384
0.8356719
0.8583155
0.8824469
0.9082883
0.936405
0.9668778
0.6370193
0.6498704
0.6632402
0.6771597
0.6916633
0.7067525
0.7224415
0.7387952
0.7558603
0.7736899
0.7929534
0.8131751
0.8346127
0.8574848
0.8821414
0.9095934
0.9377125
0.9683775
0.6230707
0.6354008
0.6482188
0.6615528
0.6754336
0.6898617
0.7048477
0.72045
0.7367093
0.7536716
0.7719263
0.7909168
0.8107974
0.8316081
0.8533456
0.6097238
0.6215647
0.6338657
0.6466526
0.6599532
0.6737669
0.6881018
0.7030109
0.7185302
0.7347
0.7520554
0.7700242
0.7887391
0.8082399
0.8285648
0.5971759
0.6085649
0.6203896
0.6326733
0.6454419
0.6586934
0.6724341
0.6867126
0.7015614
0.7170161
0.7335754
0.7506803
0.7684538
0.7869363
0.8061729
0.5854483
0.5964218
0.6078091
0.6196319
0.6319139
0.6446522
0.6578516
0.6715574
0.6857988
0.700608
0.7164557
0.7328027
0.749764
0.7673764
0.7856812
0.5745027
0.585094
0.5960796
0.6074797
0.6193163
0.6315857
0.6442914
0.6574759
0.6711657
0.6853901
0.7005969
0.7162668
0.7325074
0.7493514
0.7668352
0.8413911
0.8632132
0.8861545
0.9098211
0.9310285
0.8214038
0.8422194
0.864148
0.8872168
0.9110658
0.9325832
0.8030037
0.8229142
0.8438681
0.865955
0.8892179
0.9132977
0.9353715
0.7859891
0.8050878
0.8251601
0.8462957
0.8685923
0.8920562
0.9164243
0.9393774
0.7700928
0.7884555
0.8077289
0.8279954
0.8493505
0.8718459
0.8955221
0.9202968
0.9443589
0.7548534
0.7725287
0.7910588
0.8105173
0.8309906
0.8525263
0.8751961
0.8991376
0.9243394
0.9495644
0.7395906
0.7565919
0.7743939
0.7930619
0.8126721
0.8332628
0.8548975
0.8777223
0.901859
0.9273709
0.9545065
0.7243228
0.7406652
0.7577574
0.7756573
0.7944318
0.8141109
0.8347462
0.8564677
0.879393
0.9036555
0.9302928
0.9580622
0.7092245
0.7249306
0.7413396
0.7585032
0.7764804
0.7952938
0.8149854
0.8356685
0.8574437
0.8804311
0.9056001
0.9323435
0.9606868
0.6944133
0.7095094
0.7252657
0.7417284
0.75895
0.7769473
0.7957539
0.8154698
0.8361798
0.8579855
0.8817678
0.9069409
0.9338739
0.962691
0.6799361
0.6944489
0.7095828
0.7253797
0.7418862
0.7591144
0.7770917
0.7959064
0.8156314
0.8363517
0.8588768
0.882632
0.907933
0.9350317
0.9643237
0.6657874
0.6797418
0.6942816
0.7094446
0.7252729
0.7417746
0.7589716
0.7769436
0.795753
0.8154722
0.8368542
0.8593452
0.8832175
0.9086624
0.9359481
0.9660623
0.6519189
0.6653367
0.6793069
0.6938638
0.7090455
0.7248568
0.7413156
0.7584938
0.7764456
0.7952332
0.8155662
0.8369211
0.8595422
0.8835846
0.9092443
0.9370189
0.967281
0.6382426
0.6511409
0.6645608
0.6785335
0.6930937
0.7082434
0.723997
0.74042
0.7575598
0.7754706
0.7948256
0.815141
0.8366489
0.8594972
0.883865
0.9102034
0.938028
0.9685477
0.6246587
0.6370498
0.6499331
0.6633372
0.6772935
0.6918019
0.7068739
0.7225692
0.7389297
0.7560022
0.7744185
0.7937176
0.8141346
0.8358618
0.8592067
0.8850717
0.9113743
0.9392848
0.9697985
0.6112028
0.6230992
0.6354593
0.6483092
0.6616772
0.6755624
0.6899734
0.7049642
0.7205715
0.7368363
0.7543168
0.7724763
0.7914559
0.8112858
0.8319542
0.5983196
0.6097507
0.6216198
0.6339509
0.6467698
0.6600745
0.6738715
0.6882102
0.7031232
0.7186469
0.7352894
0.7524997
0.7704003
0.7890238
0.8084005
0.5862008
0.5972015
0.6086175
0.6204707
0.6327849
0.6455573
0.6587927
0.6725366
0.6868186
0.7016712
0.717569
0.7339736
0.7509996
0.7686816
0.787058
0.5748685
0.5854729
0.5964722
0.6078868
0.6197387
0.6320242
0.644747
0.6579495
0.6716584
0.6859032
0.7011331
0.7168284
0.7330967
0.7499704
0.767485
0.5642868
0.5745263
0.5851425
0.5961544
0.6075824
0.6194223
0.6316767
0.6443853
0.6575727
0.6712656
0.6858921
0.7009516
0.7165452
0.7327018
0.7494533
0.8206698
0.8414436
0.8633235
0.8863299
0.9100723
0.9313004
0.8016173
0.8214533
0.8423231
0.8643118
0.8874491
0.9113161
0.93281
0.7840514
0.8030509
0.8230125
0.8440228
0.8661729
0.8894506
0.9135074
0.9356008
0.7677854
0.7860344
0.805182
0.8253077
0.8465027
0.8688118
0.8922523
0.9166373
0.9396133
0.7525703
0.7701367
0.7885467
0.8078716
0.8281949
0.849561
0.8720334
0.8957244
0.9205186
0.9446101
0.7379691
0.7548965
0.7726181
0.7911984
0.810712
0.8311955
0.8527092
0.8753933
0.8993526
0.9245782
0.9509173
0.7233328
0.7396318
0.7566774
0.7745271
0.7932472
0.8128664
0.8334356
0.8550828
0.8779224
0.9020774
0.9285501
0.9559442
0.708679
0.7243619
0.7407462
0.7578835
0.7758324
0.794615
0.8142729
0.8349189
0.8566526
0.8795924
0.9047098
0.9313981
0.9596194
0.6941755
0.7092617
0.7250076
0.7414592
0.758669
0.7766535
0.7954463
0.8151471
0.8358405
0.8576277
0.8813927
0.9065559
0.9334815
0.9622776
0.6799361
0.6944489
0.7095828
0.7253797
0.7418862
0.7591144
0.7770917
0.7959064
0.8156314
0.8363517
0.8588768
0.882632
0.907933
0.9350317
0.9643237
0.6660071
0.6799702
0.6945192
0.7096919
0.7255304
0.742043
0.7592518
0.7772365
0.7960594
0.8157934
0.8371881
0.8596826
0.8835474
0.9089742
0.9362352
0.9663023
0.6523843
0.6658201
0.6798094
0.6943863
0.7095892
0.7254231
0.741906
0.75911
0.7770895
0.7959071
0.8162656
0.8376259
0.8602268
0.8842188
0.9097973
0.9374437
0.9675927
0.6390224
0.6519505
0.6654018
0.6794077
0.6940029
0.7091899
0.7249832
0.7414486
0.7586339
0.7765935
0.7959932
0.8163256
0.8378078
0.8605663
0.8847537
0.9107587
0.9384008
0.968776
0.6258375
0.6382732
0.6512038
0.6646581
0.6786677
0.6932328
0.7083652
0.7241252
0.740555
0.7577024
0.7762026
0.7955865
0.8160646
0.8377619
0.8608252
0.8856391
0.9116636
0.9394669
0.9698956
0.6127339
0.624688
0.63711
0.6500263
0.6634656
0.6774265
0.6919182
0.7069961
0.7226978
0.7390651
0.7566962
0.7751451
0.7946281
0.8153166
0.837485
0.8619537
0.8867201
0.9127894
0.9405678
0.9709027
0.5997464
0.6112302
0.6231554
0.6355462
0.6484288
0.661801
0.6756697
0.6900851
0.7050805
0.7206928
0.7374521
0.754841
0.7729891
0.7919194
0.8116132
0.5873048
0.5983454
0.6098037
0.6217018
0.6340636
0.6468863
0.6601749
0.6739755
0.6883179
0.7032349
0.7192105
0.7357137
0.7528582
0.770671
0.7891762
0.5755952
0.5862255
0.5972522
0.6086956
0.6205781
0.6328959
0.6456527
0.6588912
0.6726384
0.6869239
0.7022007
0.7179498
0.7342785
0.7512167
0.7687973
0.5646403
0.5748921
0.5855214
0.5965471
0.6079897
0.619845
0.6321155
0.6448411
0.6580466
0.6717587
0.6864069
0.7014901
0.7171096
0.7332938
0.7500739
0.5544068
0.5643096
0.574573
0.5852146
0.5962534
0.6076846
0.61951
0.631767
0.6444784
0.6576687
0.6717476
0.6862322
0.7012182
0.7167311
0.7327991
0.8009204
0.8207192
0.8415469
0.8634866
0.8865611
0.9103212
0.9315253
0.7827319
0.8016641
0.8215509
0.8424765
0.8645278
0.8876794
0.9115232
0.933035
0.7659376
0.7840961
0.8031438
0.8231581
0.8442269
0.8663891
0.8896431
0.9137156
0.9358285
0.7503664
0.7678284
0.7861236
0.8053214
0.8255024
0.846708
0.8689937
0.8924472
0.9168492
0.9398479
0.7357853
0.752612
0.7702233
0.7886818
0.8080599
0.8283928
0.8497362
0.8722206
0.8959263
0.92074
0.9458251
0.7217799
0.7380102
0.7549815
0.7727507
0.7913829
0.8109054
0.8313673
0.8528933
0.8755918
0.8995689
0.925742
0.9523424
0.7077298
0.7233722
0.7397133
0.7568041
0.774703
0.7934312
0.8130295
0.8336096
0.8552694
0.8781237
0.9031427
0.9297134
0.9576545
0.693652
0.7087165
0.7244393
0.7408665
0.7580501
0.7760063
0.7947684
0.8144357
0.8350923
0.8568383
0.8805638
0.905704
0.9326132
0.9613566
0.6797076
0.6942111
0.7093353
0.7251218
0.7416174
0.7588338
0.7767983
0.7955994
0.8153093
0.8360132
0.8585236
0.8822734
0.9075787
0.9346867
0.9639867
0.6660071
0.6799702
0.6945192
0.7096919
0.7255304
0.742043
0.7592518
0.7772365
0.7960594
0.8157934
0.8371881
0.8596826
0.8835474
0.9089742
0.9362352
0.9663023
0.6525957
0.6660398
0.6800376
0.6946236
0.7098361
0.7256802
0.7421741
0.7593897
0.7773817
0.7962128
0.8165826
0.837945
0.8605373
0.8845094
0.9100575
0.9376577
0.9677573
0.6394705
0.6524157
0.665885
0.6799097
0.6945248
0.7097329
0.7255487
0.742038
0.7592489
0.7772359
0.7966586
0.8169942
0.8384549
0.8611629
0.8852687
0.9111447
0.9386949
0.9689697
0.6265888
0.6390528
0.6520131
0.6654986
0.6795412
0.6941413
0.7093109
0.7251103
0.7415822
0.7587747
0.7773154
0.7967129
0.8171636
0.8387718
0.8616605
0.8861563
0.9120061
0.9397087
0.9700333
0.6138703
0.6258668
0.6383336
0.6512973
0.6647869
0.6788011
0.6933496
0.7084879
0.7242543
0.740691
0.7583995
0.7769259
0.7964627
0.8171175
0.8390132
0.8624872
0.8869916
0.9129616
0.9406955
0.9709668
0.6012234
0.6127621
0.624746
0.6371997
0.6501497
0.6635933
0.6775381
0.6920353
0.7071192
0.7228272
0.7397275
0.7573887
0.7760114
0.7957503
0.8168532
0.8400757
0.8634977
0.88803
0.9139466
0.9416103
0.9717519
0.588682
0.5997728
0.6112844
0.6232391
0.6356613
0.6485478
0.661904
0.6757768
0.6901966
0.7051967
0.7212816
0.7379526
0.7553298
0.77343
0.7922301
0.5766613
0.5873297
0.5983966
0.6098827
0.6218104
0.6341758
0.6469829
0.6602748
0.6740789
0.688425
0.7037747