/*--------------------------------*- C++ -*----------------------------------*\
| =========                 |                                                 |
| \\      /  F ield         | OpenFOAM: The Open Source CFD Toolbox           |
|  \\    /   O peration     | Version:  2306                                  |
|   \\  /    A nd           | Website:  www.openfoam.com                      |
|    \\/     M anipulation  |                                                 |
\*---------------------------------------------------------------------------*/
FoamFile
{
    version     2.0;
    format      ascii;
    arch        "LSB;label=32;scalar=64";
    class       volScalarField;
    location    "1.2/fuel";
    object      X.H2O;
}
// * * * * * * * * * * * * * * * * * * * * * * * * * * * * * * * * * * * * * //

dimensions      [0 0 0 0 0 0 0];

internalField   nonuniform List<scalar> 
16000
(
0.06966832
0.06839368
0.09056482
0.06959612
0.06585409
0.08957503
0.06832085
0.1140248
0.09049894
0.06945467
0.0621234
0.08760451
0.06577991
0.1131397
0.08950876
0.06817819
0.136843
0.1139643
0.09036971
0.06924606
0.05747038
0.08471104
0.06204692
0.1113769
0.08753739
0.06563463
0.1360192
0.1130789
0.08937876
0.06796782
0.1586089
0.1367868
0.1138455
0.09017894
0.06897153
0.05267488
0.08109938
0.05739014
0.1087857
0.08464252
0.06189714
0.1343791
0.1113155
0.08740577
0.06542043
0.1578333
0.1359628
0.1129596
0.08918688
0.06769099
0.1793302
0.1585564
0.1366765
0.1136701
0.08992773
0.06869962
0.04917554
0.07736177
0.05258954
0.1055465
0.08102858
0.05723305
0.1319684
0.1087232
0.08450815
0.06167636
0.1562896
0.1343222
0.1111949
0.0872115
0.06513859
0.1785962
0.1577806
0.135852
0.1127832
0.08893421
0.0674168
0.1990796
0.1792808
0.1584531
0.1365134
0.1134389
0.08967881
0.06847474
0.04699841
0.07459475
0.04908797
0.1021882
0.07728787
0.05242242
0.1289549
0.1054822
0.08088975
0.05700148
0.1540214
0.1319106
0.1086005
0.08430984
0.0613859
0.1771358
0.1562365
0.1342103
0.1110168
0.0869557
0.06485946
0.1983827
0.1785467
0.1576769
0.1356882
0.1125509
0.08868385
0.06719003
0.2179315
0.199033
0.1791836
0.1583003
0.1362983
0.1132097
0.08947296
0.06825158
0.04577825
0.07284034
0.04691002
0.09969615
0.07451985
0.04891655
0.1258302
0.1021214
0.07714292
0.05217601
0.1511867
0.1288955
0.105356
0.08068484
0.05669682
0.1749903
0.1539674
0.131797
0.1084193
0.08404875
0.06109824
0.1969963
0.1770858
0.1561319
0.134045
0.1107821
0.08670226
0.06462849
0.2172681
0.1983359
0.1784491
0.1575235
0.1354722
0.1123206
0.08847679
0.06696499
0.2359537
0.2178873
0.1989411
0.1790397
0.1580987
0.1360851
0.1130201
0.08926868
0.06803015
0.04523424
0.07183839
0.04568952
0.09811124
0.07276534
0.04673708
0.1235103
0.09962877
0.07437297
0.04866389
0.1482479
0.1257688
0.1019903
0.07692894
0.05185174
0.1723098
0.1511314
0.128779
0.1051696
0.08041506
0.05639509
0.19496
0.1749397
0.1538613
0.131629
0.1081805
0.08379008
0.06085979
0.2159486
0.1969491
0.1769875
0.1559772
0.1338271
0.1105494
0.08649257
0.06439917
0.2353209
0.2172238
0.1982437
0.1783046
0.1573211
0.1352581
0.1121302
0.08827132
0.06674167
0.2532059
0.2359117
0.2178002
0.198805
0.1788498
0.1578988
0.1359087
0.1128321
0.08906599
0.06781045
0.04523424
0.0713854
0.04514535
0.09720315
0.07176344
0.04551593
0.1220334
0.09804395
0.07261827
0.04648224
0.1460656
0.1234484
0.09949645
0.07415616
0.04833144
0.1695314
0.1481907
0.1256479
0.1017966
0.07664713
0.0515305
0.1924163
0.1722579
0.1510226
0.1286066
0.104924
0.08014776
0.05614369
0.2140109
0.1949122
0.1748399
0.1537043
0.1314077
0.1079438
0.08357574
0.06062262
0.2340624
0.2159039
0.1968562
0.1768419
0.1557731
0.1336109
0.1103569
0.08628441
0.06417151
0.2526012
0.2352787
0.2171363
0.1981071
0.178114
0.1571204
0.135081
0.1119412
0.08806743
0.06652009
0.2697408
0.2531659
0.2358289
0.2176711
0.1986253
0.1786613
0.1577334
0.1357338
0.1126455
0.08886489
0.06675472
0.04577825
0.0713854
0.04514535
0.09679159
0.0713105
0.04497149
0.1211861
0.09713603
0.0716165
0.0452602
0.1446755
0.1219716
0.09791182
0.07240123
0.046147
0.1674681
0.1460081
0.1233267
0.09930094
0.07387065
0.04800212
0.1897803
0.1694777
0.1480781
0.1254693
0.1015413
0.07636784
0.0512604
0.2115908
0.1923674
0.1721558
0.1508617
0.1283794
0.1046805
0.07992532
0.05589234
0.2322146
0.2139656
0.194818
0.1746923
0.1534973
0.1311882
0.1077477
0.08336266
0.06038673
0.2513988
0.23402
0.2158159
0.1967186
0.1766498
0.1555707
0.1334321
0.1101659
0.08607777
0.06394551
0.2691622
0.252561
0.2351957
0.2170068
0.1979268
0.1779249
0.1569544
0.1349052
0.1117537
0.08786512
0.06545533
0.2856055
0.2697026
0.2530869
0.2357061
0.2175006
0.198447
0.1785055
0.1575694
0.1355601
0.1124603
0.08789776
0.06603558
0.04699841
0.07183839
0.04568952
0.09679159
0.0713105
0.04497149
0.1208018
0.09672457
0.07116365
0.04471538
0.1438776
0.1211246
0.09700426
0.07139969
0.04492383
0.1661534
0.1446182
0.1218502
0.09771663
0.07211545
0.04581496
0.1878228
0.1674141
0.1458948
0.1231467
0.0990433
0.07358773
0.04772522
0.2090832
0.1897298
0.1693721
0.1479115
0.1252336
0.1012882
0.0761336
0.0509879
0.2299072
0.2115445
0.1922711
0.1720046
0.1506495
0.1281541
0.1044779
0.07970321
0.05564106
0.2496336
0.2321716
0.2138764
0.1946786
0.1744976
0.153292
0.1310063
0.1075528
0.08315082
0.06015215
0.2680117
0.2513584
0.2339363
0.2156854
0.196537
0.1764592
0.1554033
0.1332546
0.1099762
0.08587266
0.06285917
0.285051
0.2691239
0.2524819
0.2350725
0.2168358
0.1977479
0.1777685
0.1567897
0.1347308
0.1115676
0.08689222
0.0647268
0.3008418
0.285569
0.2696273
0.2529699
0.2355439
0.2173314
0.1982995
0.1783509
0.1574066
0.1353879
0.1115695
0.08724003
0.06549423
0.04917554
0.07284034
0.04691002
0.09720315
0.07176344
0.04551593
0.1208018
0.09672457
0.07116365
0.04471538
0.1435155
0.1207404
0.09659299
0.07094699
0.04437854
0.1653986
0.1438205
0.1210036
0.09680961
0.07111424
0.0445907
0.1865753
0.1660997
0.1445053
0.1216707
0.09745944
0.07183229
0.04553635
0.2072211
0.187772
0.1673079
0.1457271
0.1229093
0.09878787
0.0733504
0.04744586
0.2275166
0.2090354
0.1896302
0.1692158
0.1476918
0.1249999
0.101076
0.07589787
0.05071297
0.2474297
0.2298633
0.2114533
0.1921284
0.1718051
0.150439
0.1279666
0.1042756
0.07948145
0.05538986
0.266323
0.2495928
0.2320869
0.2137443
0.1944946
0.1743043
0.1531218
0.1308255
0.107359
0.08294024
0.05902285
0.2839489
0.2679732
0.2512788
0.2338123
0.2155131
0.1963567
0.1763015
0.1552371
0.1330785
0.1097879
0.08488598
0.0621035
0.30031
0.2850145
0.2690483
0.2523645
0.2349098
0.216666
0.1975999
0.1776133
0.1566263
0.1345578
0.1106723
0.08622827
0.06417578
0.3154875
0.3008069
0.285497
0.2695156
0.2528153
0.2353828
0.2171914
0.1981532
0.1781975
0.1572452
0.1345587
0.1109642
0.08674532
0.06513222
0.05267488
0.07459475
0.04908797
0.09811124
0.07276534
0.04673708
0.1211861
0.09713603
0.0716165
0.0452602
0.1435155
0.1207404
0.09659299
0.07094699
0.04437854
0.1650559
0.1434585
0.1206196
0.09639863
0.07066174
0.04404495
0.1858588
0.1653451
0.143708
0.1208248
0.09655314
0.07083141
0.04431161
0.2060343
0.1865247
0.1659939
0.1443382
0.1214341
0.09720447
0.07159519
0.04525584
0.2257415
0.2071731
0.1876719
0.1671507
0.145506
0.1226739
0.09857363
0.07311152
0.04716401
0.2451466
0.2274713
0.2089412
0.1894827
0.1690094
0.1474737
0.1248039
0.1008624
0.07566061
0.0504356
0.2642147
0.247388
0.2297767
0.2113182
0.1919401
0.1716072
0.1502638
0.1277794
0.1040737
0.07926003
0.05417489
0.2823311
0.266284
0.2495121
0.2319614
0.2135698
0.1943119
0.1741442
0.1529527
0.1306458
0.1071663
0.0819259
0.05819379
0.2992529
0.2839121
0.2678972
0.2511606
0.2336485
0.2153421
0.1962076
0.1761449
0.1550721
0.1329036
0.1088818
0.08420369
0.06152126
0.3149768
0.300275
0.2849423
0.2689363
0.2522094
0.2347482
0.2165255
0.1974531
0.1774593
0.1564641
0.1337248
0.1100619
0.08572698
0.06380563
0.3295767
0.3154541
0.300738
0.2853902
0.2693679
0.2526617
0.2352497
0.2170525
0.1980081
0.1780453
0.1564675
0.1339957
0.1105091
0.08641471
0.06495084
0.05747038
0.07736177
0.05258954
0.09969615
0.07451985
0.04891655
0.1220334
0.09804395
0.07261827
0.04648224
0.1438776
0.1211246
0.09700426
0.07139969
0.04492383
0.1650559
0.1434585
0.1206196
0.09639863
0.07066174
0.04404495
0.1855335
0.1650025
0.1433462
0.1204411
0.09614256
0.07037913
0.04376568
0.2053526
0.1858084
0.1652397
0.1435417
0.120589
0.0962989
0.07059491
0.04403106
0.22461
0.2059865
0.1864251
0.1658373
0.1441179
0.1211994
0.09699099
0.07135695
0.04497342
0.2434513
0.2256959
0.2070784
0.1875237
0.1669432
0.1452865
0.1224764
0.098358
0.07287109
0.04687969
0.2620309
0.2451035
0.2273819
0.2088016
0.189288
0.1688045
0.1472908
0.1246067
0.1006474
0.07542182
0.04908268
0.2803117
0.2641749
0.2473055
0.2296483
0.2111397
0.1917531
0.1714425
0.1500889
0.1275925
0.1038721
0.0781891
0.05314868
0.2977013
0.2822939
0.2662071
0.2493925
0.2317955
0.2133966
0.1941606
0.173985
0.1527845
0.1304671
0.1062378
0.08119264
0.05751403
0.3139619
0.2992177
0.2838394
0.2677844
0.2510045
0.2334858
0.2152006
0.1960595
0.1759895
0.1549083
0.1320614
0.1082561
0.08368076
0.06112298
0.329086
0.3149433
0.3002059
0.2848351
0.2687882
0.2520554
0.2346146
0.2163862
0.1973074
0.1773065
0.1556832
0.1331574
0.1096012
0.08539078
0.06361956
0.3431406
0.3295447
0.315388
0.3006357
0.2852489
0.2692212
0.2525347
0.2351175
0.2169147
0.1978641
0.1773122
0.1559398
0.1335723
0.110205
0.08624914
0.0621234
0.08109938
0.05739014
0.1021882
0.07728787
0.05242242
0.1235103
0.09962877
0.07437297
0.04866389
0.1446755
0.1219716
0.09791182
0.07240123
0.046147
0.1653986
0.1438205
0.1210036
0.09680961
0.07111424
0.0445907
0.1855335
0.1650025
0.1433462
0.1204411
0.09614256
0.07037913
0.04376568
0.205043
0.1854832
0.1648974
0.1431802
0.1202058
0.09588873
0.07014295
0.04348515
0.22396
0.205305
0.1857092
0.1650838
0.1433222
0.1203551
0.09608631
0.07035759
0.04374903
0.2423707
0.2245647
0.2058923
0.1862775
0.1656307
0.1438993
0.1210029
0.09677649
0.07111758
0.04468909
0.2604094
0.2434081
0.2256061
0.2069381
0.1873279
0.1667372
0.1451025
0.1222777
0.09814099
0.07262909
0.04549348
0.2782201
0.2619898
0.2450185
0.2272493
0.2086171
0.1890946
0.1686327
0.1471067
0.1244082
0.1004311
0.07425798
0.04765758
0.2957648
0.2802737
0.2640963
0.2471833
0.2294787
0.2109625
0.1915975
0.171278
0.1499142
0.1274059
0.1028962
0.0773155
0.05216099
0.3124724
0.2976657
0.2822204
0.266093
0.2492345
0.2316308
0.2132531
0.1940101
0.1738267
0.1526173
0.1296055
0.1055682
0.08060043
0.05701719
0.3281107
0.3139282
0.2991481
0.2837316
0.2676354
0.2508494
0.2333512
0.2150602
0.1959126
0.1758353
0.1541192
0.1314803
0.1077768
0.08332479
0.06091992
0.3426686
0.3290539
0.3148771
0.3001033
0.2846935
0.2686411
0.251928
0.234482
0.2162479
0.1971628
0.1765705
0.1551515
0.1327291
0.1092924
0.08522196
0.3562074
0.3431098
0.3294813
0.31529
0.3005004
0.2851086
0.2690999
0.2524087
0.2349864
0.2167781
0.1971702
0.1768149
0.155543
0.1332895
0.1100527
0.06585409
0.08471104
0.06204692
0.1055465
0.08102858
0.05723305
0.1258302
0.1021214
0.07714292
0.05217601
0.1460656
0.1234484
0.09949645
0.07415616
0.04833144
0.1661534
0.1446182
0.1218502
0.09771663
0.07211545
0.04581496
0.1858588
0.1653451
0.143708
0.1208248
0.09655314
0.07083141
0.04431161
0.205043
0.1854832
0.1648974
0.1431802
0.1202058
0.09588873
0.07014295
0.04348515
0.2236647
0.2049955
0.1853842
0.1647418
0.1429612
0.1199724
0.0956766
0.06990612
0.04320335
0.2417499
0.2239148
0.2052111
0.1855623
0.164878
0.1431045
0.1201596
0.095873
0.07011947
0.04346553
0.2593758
0.2423277
0.2244753
0.2057526
0.1860826
0.1654255
0.1437163
0.1208054
0.09656098
0.07087708
0.04330584
0.2766672
0.2603682
0.2433226
0.2254729
0.2067528
0.1871336
0.1665644
0.1449172
0.1220776
0.09792258
0.07144985
0.04405581
0.2937592
0.2781809
0.2619087
0.2448922
0.2270741
0.2084339
0.1889324
0.1684597
0.1469214
0.1242084
0.09937606
0.0730962
0.04589457
0.3106135
0.2957284
0.2801986
0.2639797
0.2470218
0.2293103
0.210815
0.1914422
0.1711138
0.1497398
0.1265021
0.1021034
0.07650047
0.05128721
0.3266795
0.3124384
0.2975954
0.2821114
0.2659421
0.2490776
0.2314943
0.2131104
0.1938605
0.1736694
0.1518108
0.1289845
0.1050283
0.08017375
0.05674811
0.3417306
0.3280784
0.3138616
0.2990449
0.2835891
0.2674873
0.2507211
0.2332176
0.2149207
0.1957667
0.1750919
0.1535751
0.1310353
0.1074508
0.08314396
0.3557531
0.3426377
0.3289903
0.3147788
0.2999677
0.2845527
0.2685194
0.2518016
0.2343504
0.2161107
0.1964663
0.1760695
0.1547502
0.132442
0.1091373
0.3688033
0.3561779
0.343049
0.3293872
0.3151603
0.300366
0.2849925
0.2689795
0.2522837
0.2348563
0.2161194
0.1966997
0.176441
0.1552779
0.1331479
0.06839368
0.08760451
0.06577991
0.1087857
0.08464252
0.06189714
0.1289549
0.1054822
0.08088975
0.05700148
0.1482479
0.1257688
0.1019903
0.07692894
0.05185174
0.1674681
0.1460081
0.1233267
0.09930094
0.07387065
0.04800212
0.1865753
0.1660997
0.1445053
0.1216707
0.09745944
0.07183229
0.04553635
0.2053526
0.1858084
0.1652397
0.1435417
0.120589
0.0962989
0.07059491
0.04403106
0.2236647
0.2049955
0.1853842
0.1647418
0.1429612
0.1199724
0.0956766
0.06990612
0.04320335
0.2414679
0.2236197
0.2049019
0.1852376
0.1645364
0.142744
0.1197773
0.09546389
0.06966863
0.04292029
0.2587819
0.241707
0.2238259
0.2050721
0.1853682
0.1646738
0.1429224
0.1199634
0.09565896
0.06988055
0.04208843
0.2756772
0.2593348
0.2422426
0.2243427
0.2055682
0.1858891
0.1652538
0.1435323
0.120607
0.09634447
0.06970723
0.04193779
0.2922702
0.2766278
0.2602867
0.2431959
0.225297
0.2065688
0.1869705
0.1663904
0.1447306
0.1218763
0.09685733
0.07028661
0.04234553
0.3086883
0.2937217
0.2781035
0.2617884
0.2447254
0.2269
0.2082803
0.1887691
0.1682856
0.1467349
0.1232332
0.09832767
0.07171339
0.04366068
0.3248933
0.3105786
0.2956566
0.2800872
0.2638256
0.2468614
0.2291701
0.2106678
0.191287
0.1709498
0.1488949
0.1257682
0.1013658
0.07579922
0.0506874
0.3403542
0.3266468
0.312371
0.297491
0.2819672
0.2657923
0.2489475
0.2313587
0.2129685
0.1937118
0.1729102
0.1512299
0.128484
0.1046398
0.07994525
0.3548504
0.3416996
0.3280145
0.3137627
0.2989085
0.2834475
0.2673648
0.2505937
0.233085
0.2147823
0.1950635
0.1745794
0.1531583
0.1307326
0.1072853
0.3683657
0.3557235
0.3425767
0.328896
0.3146487
0.2998328
0.2844363
0.2683986
0.2516761
0.2342199
0.2154496
0.1959924
0.1756915
0.1544812
0.1322979
0.3809522
0.3687749
0.3561194
0.3429586
0.3292627
0.3150313
0.3002548
0.2848774
0.2688601
0.2521597
0.2342295
0.2156727
0.1963459
0.1761912
0.1551452
0.06966832
0.08957503
0.06832085
0.1113769
0.08753739
0.06563463
0.1319684
0.1087232
0.08450815
0.06167636
0.1511867
0.1288955
0.105356
0.08068484
0.05669682
0.1695314
0.1481907
0.1256479
0.1017966
0.07664713
0.0515305
0.1878228
0.1674141
0.1458948
0.1231467
0.0990433
0.07358773
0.04772522
0.2060343
0.1865247
0.1659939
0.1443382
0.1214341
0.09720447
0.07159519
0.04525584
0.22396
0.205305
0.1857092
0.1650838
0.1433222
0.1203551
0.09608631
0.07035759
0.04374903
0.2414679
0.2236197
0.2049019
0.1852376
0.1645364
0.142744
0.1197773
0.09546389
0.06966863
0.04292029
0.2585122
0.2414251
0.2235309
0.2047632
0.185044
0.1643326
0.1425624
0.1195817
0.09525058
0.06943048
0.04154628
0.2751084
0.2587411
0.2416224
0.2236939
0.2048885
0.1851757
0.1645029
0.1427397
0.1197665
0.09544419
0.06871987
0.04077161
0.291321
0.2756381
0.2592538
0.2421165
0.2241676
0.205385
0.1857271
0.1650811
0.1433474
0.1204076
0.09529025
0.06860194
0.04038058
0.3072591
0.2922325
0.2765501
0.2601659
0.2430284
0.2251222
0.2064144
0.1868064
0.1662153
0.1445429
0.1208934
0.0958097
0.06895119
0.04034675
0.3230437
0.3086525
0.2936476
0.2779885
0.2616292
0.2445597
0.226754
0.2081256
0.1886048
0.1681104
0.1458242
0.1222639
0.09708332
0.07001008
0.040703
0.3386366
0.3248599
0.3105099
0.29555
0.2799399
0.2636725
0.2467278
0.2290302
0.2105207
0.1911321
0.1701549
0.1482087
0.1250855
0.1007329
0.07532897
0.3535257
0.3403228
0.3265822
0.312271
0.297353
0.2818239
0.2656682
0.2488182
0.2312238
0.2128275
0.192994
0.1723633
0.1507614
0.1281239
0.104432
0.3674963
0.3548206
0.3416382
0.3279196
0.3136319
0.2987728
0.2833303
0.2672431
0.2504673
0.2329533
0.2141151
0.1945789
0.174187
0.1528749
0.1305789
0.3805305
0.3683372
0.3556649
0.3424861
0.3287712
0.3145195
0.2997214
0.2843208
0.2682788
0.2515517
0.2335908
0.2149998
0.1956348
0.1754381
0.1543462
0.3926763
0.3809249
0.3687186
0.3560325
0.342839
0.329139
0.3149247
0.3001445
0.2847631
0.2687417
0.2515618
0.2338045
0.215337
0.1961096
0.1760661
0.09056482
0.06959612
0.1131397
0.08950876
0.06817819
0.1343791
0.1113155
0.08740577
0.06542043
0.1540214
0.1319106
0.1086005
0.08430984
0.0613859
0.1723098
0.1511314
0.128779
0.1051696
0.08041506
0.05639509
0.1897803
0.1694777
0.1480781
0.1254693
0.1015413
0.07636784
0.0512604
0.2072211
0.187772
0.1673079
0.1457271
0.1229093
0.09878787
0.0733504
0.04744586
0.22461
0.2059865
0.1864251
0.1658373
0.1441179
0.1211994
0.09699099
0.07135695
0.04497342
0.2417499
0.2239148
0.2052111
0.1855623
0.164878
0.1431045
0.1201596
0.095873
0.07011947
0.04346553
0.2585122
0.2414251
0.2235309
0.2047632
0.185044
0.1643326
0.1425624
0.1195817
0.09525058
0.06943048
0.04154628
0.27485
0.2584714
0.2413407
0.2233993
0.20458
0.1848519
0.1641623
0.1423803
0.1193856
0.09503669
0.06827431
0.04025288
0.2907755
0.2750694
0.2586604
0.2414968
0.2235196
0.2047062
0.1850146
0.1643315
0.1425563
0.1195689
0.09439986
0.06765649
0.03931317
0.306348
0.2912835
0.2755607
0.2591335
0.2419499
0.2239937
0.2052316
0.1855643
0.1649077
0.1431617
0.1194362
0.09429603
0.06738679
0.03864343
0.3216706
0.3072231
0.2921582
0.2764346
0.2600062
0.242862
0.2249755
0.2062589
0.1866411
0.166039
0.143626
0.1199261
0.0946087
0.067432
0.03805479
0.3368581
0.3230093
0.3085815
0.2935376
0.2778364
0.2614711
0.2444206
0.226607
0.2079698
0.1884393
0.1672542
0.1449181
0.1211126
0.09555385
0.06779613
0.03596836
0.3518727
0.3386046
0.324794
0.3104077
0.2954091
0.2797935
0.263545
0.2465945
0.2288904
0.2103739
0.190381
0.1695094
0.1475701
0.1244995
0.1003093
0.3662205
0.3534956
0.3402608
0.3264862
0.3121387
0.2972158
0.2817052
0.2655447
0.2486897
0.2310897
0.2121466
0.192477
0.1719224
0.1504244
0.1279312
0.3796926
0.3674676
0.3547616
0.3415471
0.327794
0.3135018
0.2986606
0.283214
0.2671224
0.2503418
0.2323185
0.2136553
0.1942078
0.1739201
0.152731
0.3922696
0.3805031
0.3682809
0.3555778
0.3423662
0.3286471
0.3144125
0.2996107
0.2842062
0.26816
0.2509518
0.2331629
0.2146605
0.1953951
0.1753109
0.403996
0.3926499
0.3808707
0.368635
0.3559175
0.3427201
0.3290366
0.3148189
0.3000351
0.2846498
0.2681705
0.2511566
0.233485
0.2151127
0.1959913
0.1140248
0.09049894
0.06945467
0.1360192
0.1130789
0.08937876
0.06796782
0.1562896
0.1343222
0.1111949
0.0872115
0.06513859
0.1749903
0.1539674
0.131797
0.1084193
0.08404875
0.06109824
0.1924163
0.1722579
0.1510226
0.1286066
0.104924
0.08014776
0.05614369
0.2090832
0.1897298
0.1693721
0.1479115
0.1252336
0.1012882
0.0761336
0.0509879
0.2257415
0.2071731
0.1876719
0.1671507
0.145506
0.1226739
0.09857363
0.07311152
0.04716401
0.2423707
0.2245647
0.2058923
0.1862775
0.1656307
0.1438993
0.1210029
0.09677649
0.07111758
0.04468909
0.2587819
0.241707
0.2238259
0.2050721
0.1853682
0.1646738
0.1429224
0.1199634
0.09565896
0.06988055
0.04208843
0.27485
0.2584714
0.2413407
0.2233993
0.20458
0.1848519
0.1641623
0.1423803
0.1193856
0.09503669
0.06827431
0.04025288
0.2905278
0.2748111
0.258391
0.2412154
0.2232254
0.2043981
0.1846913
0.1639915
0.1421977
0.1191889
0.09399719
0.06723011
0.03883797
0.3058245
0.2907383
0.2749924
0.2585408
0.241331
0.2233465
0.2045537
0.1848529
0.1641595
0.1423723
0.1186073
0.09344414
0.06651851
0.0377224
0.3207954
0.3063122
0.2912096
0.2754459
0.2589746
0.2417843
0.223848
0.2050774
0.1854006
0.1647333
0.1422561
0.1185193
0.09320355
0.06606914
0.0367453
0.3355378
0.3216361
0.3071519
0.2920478
0.276282
0.2598474
0.2427223
0.2248278
0.2061024
0.1864747
0.1651776
0.1427225
0.1188159
0.09324372
0.06572615
0.03514495
0.3501613
0.3368251
0.3229413
0.3084761
0.2933921
0.2776853
0.2613384
0.2442807
0.226459
0.207813
0.1876306
0.1664017
0.1438408
0.1196968
0.09356863
0.06427174
0.03346992
0.3646287
0.351842
0.3385413
0.324696
0.3102726
0.2952689
0.2796717
0.2634178
0.2464613
0.2287508
0.2096617
0.189771
0.1689082
0.1470217
0.1241072
0.3784632
0.3661916
0.353436
0.3401687
0.3263593
0.3120072
0.2971022
0.2815871
0.265422
0.2485619
0.230442
0.2116563
0.1920601
0.1716051
0.1502441
0.3914616
0.379665
0.3674109
0.354674
0.3414265
0.3276692
0.3133942
0.2985492
0.2830985
0.2670026
0.2497366
0.2318811
0.2133032
0.1939553
0.1737845
0.4036036
0.3922432
0.3804488
0.3681971
0.3554625
0.342247
0.3285444
0.3143065
0.299501
0.2840925
0.2675869
0.2505438
0.23284
0.214433
0.1952747
0.4149304
0.4039706
0.3925978
0.3807902
0.3685244
0.3558031
0.3426217
0.3289351
0.314714
0.2999265
0.2841034
0.2677835
0.250852
0.2332716
0.2150004
0.136843
0.1139643
0.09036971
0.06924606
0.1578333
0.1359628
0.1129596
0.08918688
0.06769099
0.1771358
0.1562365
0.1342103
0.1110168
0.0869557
0.06485946
0.19496
0.1749397
0.1538613
0.131629
0.1081805
0.08379008
0.06085979
0.2115908
0.1923674
0.1721558
0.1508617
0.1283794
0.1046805
0.07992532
0.05589234
0.2275166
0.2090354
0.1896302
0.1692158
0.1476918
0.1249999
0.101076
0.07589787
0.05071297
0.2434513
0.2256959
0.2070784
0.1875237
0.1669432
0.1452865
0.1224764
0.098358
0.07287109
0.04687969
0.2593758
0.2423277
0.2244753
0.2057526
0.1860826
0.1654255
0.1437163
0.1208054
0.09656098
0.07087708
0.04330584
0.2751084
0.2587411
0.2416224
0.2236939
0.2048885
0.1851757
0.1645029
0.1427397
0.1197665
0.09544419
0.06871987
0.04077161
0.2905278
0.2748111
0.258391
0.2412154
0.2232254
0.2043981
0.1846913
0.1639915
0.1421977
0.1191889
0.09399719
0.06723011
0.03883797
0.3055867
0.2904906
0.2747343
0.2582716
0.24105
0.2230527
0.2042461
0.1845302
0.1638202
0.1420145
0.1182322
0.09305912
0.06612612
0.03730898
0.3202924
0.3057889
0.2906647
0.2748782
0.2583826
0.2411662
0.2232017
0.2044006
0.1846907
0.1639868
0.1414764
0.1177266
0.09242127
0.06531329
0.03601334
0.3346963
0.320761
0.3062414
0.2910997
0.2752941
0.2588167
0.2416456
0.2237016
0.2049225
0.1852362
0.1638831
0.1414004
0.1175104
0.09201913
0.06466393
0.034423
0.3488909
0.3355047
0.3215679
0.3070462
0.2919018
0.2761303
0.2597142
0.2425817
0.2246791
0.2059448
0.1856616
0.1643281
0.1416845
0.1175531
0.09171168
0.063595
0.03312219
0.3629807
0.3501296
0.3367598
0.3228403
0.3083367
0.2932475
0.2775585
0.2612048
0.2441397
0.2263101
0.2070466
0.1868249
0.1653873
0.1425152
0.1178586
0.09040655
0.06228749
0.03162255
0.3769293
0.3645992
0.3517812
0.3384472
0.3245664
0.3101383
0.2951523
0.27955
0.2632907
0.2463284
0.2280737
0.2090832
0.1892026
0.1683919
0.1466544
0.3902762
0.3784353
0.3661343
0.3533474
0.3400468
0.3262331
0.3118982
0.2969891
0.2814698
0.2653
0.2479446
0.2299758
0.2112609
0.1917601
0.1714352
0.4028241
0.3914351
0.3796104
0.3673267
0.3545581
0.3413066
0.3275659
0.3132874
0.2984386
0.2829839
0.2664246
0.2493197
0.2315462
0.2130637
0.1938271
0.4145517
0.4035782
0.3921909
0.3803681
0.3680861
0.3553478
0.3421484
0.3284426
0.3142012
0.299392
0.2835443
0.2671973
0.250236
0.2326236
0.2143188
0.4254973
0.414906
0.4039204
0.3925203
0.3806837
0.3684143
0.3557086
0.3425241
0.3288343
0.3146099
0.2994031
0.2837332
0.2674926
0.2506486
0.2331648
0.1586089
0.1367868
0.1138455
0.09017894
0.06897153
0.1785962
0.1577806
0.135852
0.1127832
0.08893421
0.0674168
0.1969963
0.1770858
0.1561319
0.134045
0.1107821
0.08670226
0.06462849
0.2140109
0.1949122
0.1748399
0.1537043
0.1314077
0.1079438
0.08357574
0.06062262
0.2299072
0.2115445
0.1922711
0.1720046
0.1506495
0.1281541
0.1044779
0.07970321
0.05564106
0.2451466
0.2274713
0.2089412
0.1894827
0.1690094
0.1474737
0.1248039
0.1008624
0.07566061
0.0504356
0.2604094
0.2434081
0.2256061
0.2069381
0.1873279
0.1667372
0.1451025
0.1222777
0.09814099
0.07262909
0.04549348
0.2756772
0.2593348
0.2422426
0.2243427
0.2055682
0.1858891
0.1652538
0.1435323
0.120607
0.09634447
0.06970723
0.04193779
0.2907755
0.2750694
0.2586604
0.2414968
0.2235196
0.2047062
0.1850146
0.1643315
0.1425563
0.1195689
0.09439986
0.06765649
0.03931317
0.3055867
0.2904906
0.2747343
0.2582716
0.24105
0.2230527
0.2042461
0.1845302
0.1638202
0.1420145
0.1182322
0.09305912
0.06612612
0.03730898
0.3200639
0.3055511
0.2904172
0.2746203
0.2581138
0.2408856
0.2229083
0.2040936
0.1843686
0.1636483
0.1411232
0.117368
0.09206695
0.06496826
0.0356763
0.3342126
0.3202582
0.3057184
0.2905554
0.2747271
0.2582254
0.2410284
0.2230564
0.204247
0.1845278
0.1631458
0.1406548
0.1167825
0.09133761
0.06405194
0.03393773
0.3480811
0.3346633
0.3206931
0.3061362
0.2909545
0.2751432
0.2586844
0.2415062
0.2235544
0.2047668
0.1844338
0.1630789
0.1404578
0.1164154
0.09075572
0.06298114
0.03271898
0.3617574
0.3488591
0.3354392
0.3214665
0.3069063
0.2917566
0.276003
0.25958
0.2424402
0.2245294
0.2051744
0.184859
0.1633511
0.1405028
0.116135
0.08979657
0.06197205
0.03145227
0.3753413
0.3629502
0.3500669
0.3366628
0.3227065
0.3081981
0.2931261
0.2774308
0.2610703
0.2439978
0.2255815
0.2062824
0.1858654
0.1641382
0.1407933
0.1149283
0.08862568
0.06071518
0.03020145
0.3887972
0.3769008
0.3645407
0.3516908
0.3383228
0.3244376
0.3100266
0.2950358
0.2794285
0.2631637
0.2456832
0.2275237
0.2085441
0.1887142
0.1680458
0.4016804
0.3902493
0.3783802
0.3660491
0.3532302
0.3399255
0.3261285
0.3117898
0.2968768
0.2813531
0.2647106
0.2475003
0.2295997
0.2109762
0.1915995
0.4137992
0.4027985
0.3913825
0.3795293
0.3672151
0.3544427
0.3412073
0.3274634
0.3131814
0.2983288
0.282431
0.2660264
0.2490004
0.2313184
0.212942
0.4251315
0.4145271
0.4035278
0.3921132
0.3802613
0.3679758
0.355253
0.3420505
0.3283416
0.3140968
0.2988669
0.2831716
0.2669033
0.2500296
0.232515
0.4357132
0.4254737
0.4148575
0.4038456
0.3924176
0.3805777
0.3683233
0.3556147
0.3424273
0.3287344
0.3141079
0.2990484
0.2834548
0.2672982
0.2505467
0.1793302
0.1585564
0.1366765
0.1136701
0.08992773
0.06869962
0.1983827
0.1785467
0.1576769
0.1356882
0.1125509
0.08868385
0.06719003
0.2159486
0.1969491
0.1769875
0.1559772
0.1338271
0.1105494
0.08649257
0.06439917
0.2322146
0.2139656
0.194818
0.1746923
0.1534973
0.1311882
0.1077477
0.08336266
0.06038673
0.2474297
0.2298633
0.2114533
0.1921284
0.1718051
0.150439
0.1279666
0.1042756
0.07948145
0.05538986
0.2620309
0.2451035
0.2273819
0.2088016
0.189288
0.1688045
0.1472908
0.1246067
0.1006474
0.07542182
0.04908268
0.2766672
0.2603682
0.2433226
0.2254729
0.2067528
0.1871336
0.1665644
0.1449172
0.1220776
0.09792258
0.07144985
0.04405581
0.291321
0.2756381
0.2592538
0.2421165
0.2241676
0.205385
0.1857271
0.1650811
0.1433474
0.1204076
0.09529025
0.06860194
0.04038058
0.3058245
0.2907383
0.2749924
0.2585408
0.241331
0.2233465
0.2045537
0.1848529
0.1641595
0.1423723
0.1186073
0.09344414
0.06651851
0.0377224
0.3200639
0.3055511
0.2904172
0.2746203
0.2581138
0.2408856
0.2229083
0.2040936
0.1843686
0.1636483
0.1411232
0.117368
0.09206695
0.06496826
0.0356763
0.3339929
0.3200298
0.3054808
0.2903081
0.2744696
0.257957
0.2407482
0.2227635
0.2039406
0.1842066
0.1628119
0.1403174
0.1164526
0.09102575
0.06376481
0.03369768
0.3476157
0.3341799
0.3201906
0.3056137
0.2904108
0.2745769
0.258094
0.24089
0.2229105
0.2040929
0.1837344
0.1623741
0.1397732
0.1157812
0.0902027
0.06255632
0.03240734
0.3609776
0.3480495
0.3345982
0.3205923
0.3059971
0.2908101
0.2750168
0.2585514
0.2413661
0.2234065
0.2040068
0.1836744
0.1621922
0.1394337
0.1152463
0.08924127
0.06159921
0.03122398
0.3741625
0.3617268
0.3487962
0.3353419
0.3213323
0.3067672
0.2916348
0.2758748
0.259445
0.2422976
0.2237974
0.2044135
0.1839354
0.1622381
0.1391748
0.1143609
0.08833638
0.06053312
0.03010442
0.3872661
0.375312
0.36289
0.3499737
0.3365344
0.3225735
0.3080818
0.2930039
0.2773022
0.2609349
0.2433038
0.2248549
0.2053719
0.1846834
0.162515
0.1380463
0.1132799
0.08721056
0.05943223
0.02909725
0.4002536
0.3887698
0.3768446
0.3644538
0.3515712
0.338199
0.3243303
0.3099149
0.2949195
0.2793072
0.2625479
0.245159
0.2270109
0.2080806
0.1883868
0.4126952
0.4016546
0.3901963
0.3782982
0.3659364
0.3531137
0.3398251
0.3260245
0.3116821
0.2967651
0.2807895
0.2642863
0.2471418
0.229329
0.2108238
0.4244048
0.4137745
0.4027478
0.3913044
0.3794219
0.3671041
0.3543473
0.3411088
0.3273616
0.3130761
0.2977993
0.2820502
0.2657215
0.2487833
0.2312027
0.4353597
0.4251079
0.4144786
0.4034529
0.3920103
0.380155
0.3678845
0.3551589
0.3419534
0.3282413
0.3135931
0.2985099
0.2828904
0.2667062
0.2499261
0.4455932
0.4356904
0.425427
0.4147854
0.4037466
0.3923154
0.38049
0.368233
0.3555216
0.3423313
0.3282524
0.3137678
0.2987818
0.2832689
0.2672009
0.1990796
0.1792808
0.1584531
0.1365134
0.1134389
0.08967881
0.06847474
0.2172681
0.1983359
0.1784491
0.1575235
0.1354722
0.1123206
0.08847679
0.06696499
0.2340624
0.2159039
0.1968562
0.1768419
0.1557731
0.1336109
0.1103569
0.08628441
0.06417151
0.2496336
0.2321716
0.2138764
0.1946786
0.1744976
0.153292
0.1310063
0.1075528
0.08315082
0.06015215
0.2642147
0.247388
0.2297767
0.2113182
0.1919401
0.1716072
0.1502638
0.1277794
0.1040737
0.07926003
0.05417489
0.2782201
0.2619898
0.2450185
0.2272493
0.2086171
0.1890946
0.1686327
0.1471067
0.1244082
0.1004311
0.07425798
0.04765758
0.2922702
0.2766278
0.2602867
0.2431959
0.225297
0.2065688
0.1869705
0.1663904
0.1447306
0.1218763
0.09685733
0.07028661
0.04234553
0.306348
0.2912835
0.2755607
0.2591335
0.2419499
0.2239937
0.2052316
0.1855643
0.1649077
0.1431617
0.1194362
0.09429603
0.06738679
0.03864343
0.3202924
0.3057889
0.2906647
0.2748782
0.2583826
0.2411662
0.2232017
0.2044006
0.1846907
0.1639868
0.1414764
0.1177266
0.09242127
0.06531329
0.03601334
0.3339929
0.3200298
0.3054808
0.2903081
0.2744696
0.257957
0.2407482
0.2227635
0.2039406
0.1842066
0.1628119
0.1403174
0.1164526
0.09102575
0.06376481
0.03369768
0.3474043
0.3339602
0.3199624
0.3053764
0.2901639
0.2743198
0.2578259
0.2406103
0.2226183
0.2037872
0.1834174
0.162055
0.1394627
0.1154906
0.08994254
0.06234228
0.03224266
0.3605295
0.3475843
0.334115
0.3200903
0.3054752
0.2902671
0.2744513
0.257962
0.2407511
0.2227641
0.2033414
0.1830058
0.1615451
0.1388371
0.1147313
0.08885533
0.06130513
0.03103025
0.3734112
0.3609472
0.3479869
0.3345014
0.3204588
0.3058587
0.2906891
0.2748897
0.2584178
0.2412253
0.2226846
0.2032871
0.1828364
0.1612282
0.1383395
0.1138437