/*--------------------------------*- C++ -*----------------------------------*\
| =========                 |                                                 |
| \\      /  F ield         | OpenFOAM: The Open Source CFD Toolbox           |
|  \\    /   O peration     | Version:  2306                                  |
|   \\  /    A nd           | Website:  www.openfoam.com                      |
|    \\/     M anipulation  |                                                 |
\*---------------------------------------------------------------------------*/
FoamFile
{
    version     2.0;
    format      ascii;
    arch        "LSB;label=32;scalar=64";
    class       volVectorField;
    location    "1.5/phiEC";
    object      i;
}
// * * * * * * * * * * * * * * * * * * * * * * * * * * * * * * * * * * * * * //

dimensions      [0 -2 0 0 0 1 0];

internalField   nonuniform List<vector> 
20000
(
(41.05733 88.10517 19083.72)
(40.61617 257.6516 18894.09)
(98.68733 83.69355 18248.85)
(125.916 291.1477 19875.62)
(39.76673 406.7675 18527.3)
(97.66927 244.7456 18068.77)
(124.4488 855.193 19635.78)
(115.3806 77.92457 17081.42)
(301.7717 276.4753 18982.49)
(219.6827 567.7768 21662.59)
(38.57732 520.9068 18010.2)
(95.70944 386.379 17720.44)
(121.6037 1361.025 19160.79)
(114.2536 227.8727 16913.78)
(298.3936 812.0697 18754.91)
(216.7909 1687.315 21353.35)
(109.6148 72.42378 15914.21)
(351.5479 257.3669 17752)
(523.4116 538.8589 20639.96)
(330.442 909.6261 24727.42)
(37.15391 585.9588 17386.78)
(92.96601 494.7786 17229.42)
(117.5786 1760.115 18466.67)
(112.0846 359.735 16589.52)
(291.8454 1292.323 18304.22)
(211.0792 2744.996 20705.03)
(108.584 211.7862 15758.4)
(347.8188 755.9304 17540.23)
(516.7791 1601.28 20346.81)
(325.7565 2770.304 24467.48)
(96.98318 67.61616 14867.14)
(333.2425 239.1843 16532.62)
(605.355 501.4525 19269.18)
(780.4525 862.771 23483.94)
(468.3783 1087.648 28881.73)
(35.63659 591.5777 16718.82)
(89.68371 556.5516 16637.47)
(112.7084 1996.786 17594.96)
(109.0494 460.6496 16132.44)
(282.5857 1671.162 17645.72)
(202.7662 3652.556 19666.33)
(106.6003 334.3376 15457.05)
(340.5931 1202.946 17120.9)
(503.6873 2604.749 19732.34)
(316.1418 4735.06 23849.73)
(96.08909 197.7274 14721.67)
(329.8364 702.5212 16335.84)
(598.067 1490.072 18996.56)
(769.7501 2627.301 23237.74)
(462.7399 3442.698 29062.09)
(84.30582 63.48282 13956.65)
(294.5278 223.306 15443.52)
(571.3109 465.9792 17932.93)
(892.9534 802.6018 21875.46)
(1093.804 1031.264 27327.33)
(598.0857 683.5884 31894.1)
(34.18444 535.4916 16079.63)
(86.18542 561.883 16003.25)
(107.4781 2022.74 16632.39)
(105.4192 518.1529 15581.43)
(271.3869 1895.781 16818.86)
(192.3733 4254.519 18197.65)
(103.8248 428.1247 15032.26)
(330.3808 1555.529 16508.25)
(484.6503 3465.497 18748.12)
(301.2197 6774.872 22622.62)
(94.36861 312.1434 14440.33)
(323.2379 1117.942 15946.19)
(583.6919 2423.708 18425.19)
(747.8143 4489.691 22652.83)
(450.458 6434.716 29479.68)
(83.53483 185.6405 13820.08)
(291.5751 655.8838 15259.8)
(564.67 1384.649 17679.65)
(881.2511 2443.921 21646.61)
(1080.954 3263.495 27497.93)
(594.626 2041.47 32423.2)
(73.53499 59.90622 13165.98)
(255.9252 209.658 14498.14)
(503.8784 435.0429 16749)
(837.2788 745.7483 20340.27)
(1234.088 959.1549 25394.2)
(1381.919 648.9915 30088.83)
(692.1403 423.8573 33130.56)
(32.94919 424.5622 15537.62)
(82.8373 508.6176 15396.33)
(102.4744 1826.923 15718.21)
(101.5508 523.1135 14991.08)
(259.3629 1920.399 15905.89)
(180.936 4345.085 16381.44)
(100.5058 481.5654 14520.19)
(318.0364 1764.557 15739.02)
(460.8721 4036.216 17356.87)
(280.8658 8566.57 20224.13)
(91.96159 399.7044 14043.74)
(313.9145 1445.596 15376.92)
(562.8108 3224.404 17510.11)
(713.8287 6422.112 21491.49)
(428.9934 10903.75 30309.72)
(82.05126 293.0627 13555.93)
(285.8555 1043.726 14896.02)
(551.5758 2252.187 17148.81)
(857.2992 4175.846 21103.02)
(1053.028 6097.251 27893.2)
(587.6938 3288.532 33650.54)
(72.8639 175.1817 13037.1)
(253.3795 615.7983 14325.65)
(498.1267 1292.721 16512.54)
(826.6422 2270.759 20127.68)
(1220.078 3034.94 25552.68)
(1373.962 1937.551 30589)
(690.1217 1219.174 33597.43)
(64.80629 56.77187 12472.94)
(223.2077 197.8488 13677.59)
(437.492 408.4627 15724.6)
(736.1937 696.2367 18993.97)
(1147.609 891.1677 23590.44)
(1538.771 604.0209 27910.29)
(1588.222 403.6711 31180.47)
(793.0955 216.7254 33919.67)
(32.05463 271.8742 15146.56)
(79.98886 403.2641 14881.67)
(98.23917 1441.573 14960.04)
(97.8484 473.526 14426.15)
(247.8588 1734.534 15038.77)
(170.0727 3880.181 14759.91)
(96.96928 486.1747 13971.56)
(304.7864 1787.46 14889.72)
(434.719 4122.078 15636.72)
(256.4211 8898.23 15381.53)
(89.0833 449.5972 13565.66)
(302.6475 1639.837 14662.17)
(536.7577 3755.205 16216.78)
(667.5612 8118.585 19222.38)
(392.7232 18736.7 32067.08)
(79.9757 375.2716 13183.58)
(277.7747 1349.626 14364.54)
(532.5652 2996.155 16298.7)
(820.2655 5972.341 20023.96)
(1004.382 10326.4 28679.35)
(577.7181 3926 36006.83)
(71.57256 276.5522 12787.83)
(248.4481 979.9384 13984.09)
(486.7876 2102.66 16016.95)
(804.8862 3879.835 19622.74)
(1189.709 5668.993 25919.99)
(1358.072 3119.454 31749.8)
(686.2778 1802.363 34562.44)
(64.21465 166.0161 12350.8)
(220.9918 581.1134 13514.81)
(432.5342 1213.741 15502.57)
(726.9903 2119.995 18795.48)
(1134.895 2819.71 23737.61)
(1530.006 1802.997 28374.76)
(1583.467 1160.55 31620.57)
(792.3116 609.5942 34293.27)
(57.76445 53.98975 11858.36)
(196.718 187.4994 12958.34)
(381.4947 385.4648 14836.25)
(638.4745 653.7143 17833.73)
(1005.188 832.0097 22025.42)
(1420.179 561.3456 25911.21)
(1753.411 376.3074 28883.86)
(1806.59 208.886 31835.46)
(900.5616 50.25371 34356.02)
(31.58591 93.49906 14942.22)
(77.92566 258.2414 14510.33)
(95.19006 918.9165 14425.13)
(94.698 375.4458 13947.08)
(238.1189 1368.73 14319.55)
(161.0488 3010.722 13515.09)
(93.58447 440.0894 13446.55)
(292.1081 1614.483 14083.05)
(409.8695 3681.309 14100.64)
(234.3273 7559.612 12321.12)
(86.01655 453.9003 13053.46)
(290.5558 1661.116 13873.04)
(508.1215 3835.059 14617.87)
(612.0758 8432.845 14642.26)
(328.7901 20151.1 7282.477)
(77.49383 422.115 12734.73)
(268.0105 1530.971 13697.26)
(508.8584 3489.322 15097.23)
(769.9626 7549.041 17916.02)
(922.4933 17734.66 30344.11)
(567.2755 1995.349 40384.05)
(69.76594 354.1301 12436.45)
(241.4814 1267.146 13485.08)
(470.3282 2797.23 15223.28)
(771.2805 5548.746 18620.47)
(1137.014 9598.406 26650.77)
(1335.309 3721.818 33979.38)
(681.3134 1844.327 36027.66)
(63.07618 262.0831 12114.57)
(216.6995 924.7451 13192.47)
(422.7605 1974.202 15037.24)
(708.1702 3622.229 18324.07)
(1107.367 5266.608 24078.76)
(1512.567 2901.999 29452.98)
(1574.466 1714.28 32531.12)
(790.8261 858.2988 34994.44)
(57.23652 157.8805 11742.21)
(194.7644 550.7162 12804.08)
(377.1793 1145.405 14626.72)
(630.5433 1990.524 17647.35)
(994.1926 2632.519 22162.8)
(1412.189 1675.519 26342.51)
(1748.037 1081.607 29291.98)
(1804.507 586.8998 32185.22)
(900.9273 144.4051 34682.64)
(52.01611 51.49255 11307.35)
(175.3533 178.3127 12320.42)
(336.2391 365.3088 14057.57)
(556.6136 616.9246 16828.69)
(870.5475 781.2137 20682.15)
(1239.686 524.1204 24189.94)
(1610.501 349.9278 26803.1)
(1976.507 195.8997 29447.14)
(2035.476 53.91074 32143.73)
(1014.324 -109.8985 34487.86)
(31.58591 -93.49906 14942.22)
(76.84445 88.81185 14316.29)
(93.59937 315.1766 14149.91)
(92.41559 240.4301 13601.41)
(231.1042 872.5186 13812.05)
(154.6704 1892.149 12689.45)
(90.7041 348.936 13001.33)
(281.3702 1274.027 13413.93)
(389.2126 2856.699 12921.12)
(217.0336 5582.487 10417.21)
(83.08135 410.8743 12563.3)
(278.9853 1500.371 13123.5)
(480.901 3425.117 13189.9)
(561.8604 7165.737 11746.35)
(285.0263 13808.83 5279.306)
(74.84947 426.1551 12253.82)
(257.532 1550.837 12960.52)
(482.8095 3563.511 13611.94)
(709.7422 7841.222 13661.77)
(778.6725 19074.13 6920.632)
(67.60565 398.3348 12012.88)
(233.0634 1437.41 12858.55)
(449.8068 3257.649 14101.6)
(725.6835 7013.352 16662.64)
(1048.705 16479.6 28198.41)
(1311.595 1890.923 38122.09)
(677.1035 837.2809 37675.86)
(61.48343 335.6026 11781.58)
(210.6354 1195.778 12721.55)
(408.574 2626.348 14292.02)
(679.1101 5180.314 17388.34)
(1059.689 8916.355 24757.59)
(1487.716 3461.232 31524.44)
(1562.93 1752.583 33915.2)
(788.9643 812.5802 35886.64)
(56.22065 249.24 11517.55)
(190.98 876.3745 12498.6)
(368.672 1863.058 14187.56)
(614.3258 3401.033 17204.69)
(970.3979 4916.937 22481.25)
(1396.318 2696.558 27343.83)
(1737.926 1596.985 30136.75)
(1800.641 824.8263 32842.53)
(901.4689 208.9928 35256.92)
(51.54017 150.5781 11196.57)
(173.61 523.7336 12173.71)
(332.4342 1085.514 13858.98)
(549.71 1878.508 16652.79)
(861.0731 2471.809 20811.12)
(1232.765 1564.389 24592.54)
(1605.548 1005.694 27181.88)
(1973.875 550.1068 29770.36)
(2035.759 153.4781 32445.38)
(1016.037 -291.311 34846.72)
(47.24284 49.23036 10808.71)
(157.9131 170.0664 11748.37)
(299.7585 347.4156 13366.7)
(490.6289 584.6788 15947.64)
(758.7116 737.2656 19519.77)
(1072.341 492.1294 22716.66)
(1402.809 326.7809 25021.41)
(1806.423 182.5667 27313.22)
(2205.635 53.08761 29684.66)
(2273.725 -92.76558 32152.82)
(1134.066 -308.6064 34284.19)
(32.05463 -271.8742 15146.56)
(76.84445 -88.81185 14316.29)
(93.59937 -315.1766 14149.91)
(91.21931 82.68699 13420.78)
(227.4439 299.2698 13550.91)
(151.3843 643.9438 12280.66)
(88.6171 223.4544 12680.09)
(273.6338 812.1666 12941.75)
(374.6011 1795.504 12138.61)
(205.3582 3387.778 9308.395)
(80.5835 325.772 12147.64)
(269.1839 1183.987 12501.77)
(458.2538 2658.038 12093.24)
(522.4892 5292.796 9944.005)
(255.6895 9036.17 4157.869)
(72.31854 385.7588 11793.62)
(247.505 1400.763 12260.75)
(458.0435 3182.632 12285.4)
(655.1565 6663.746 10971.25)
(679.8438 13077.82 5025.811)
(65.30394 402.1474 11559.06)
(224.0298 1456.062 12166.82)
(427.2608 3326.909 12714.94)
(671.1417 7284.784 12711.49)
(894.275 17724.61 6449.494)
(59.57887 377.4949 11380.16)
(203.3082 1356.455 12130.29)
(390.8875 3058.649 13238.81)
(639.6963 6547.653 15560.53)
(979.9559 15307.27 26195.29)
(1461.97 1758.209 35373.77)
(1553.222 795.1814 35473.59)
(787.5023 347.1502 36637.89)
(54.79941 319.157 11200.87)
(185.6336 1133.233 12052.29)
(356.3238 2478.5 13484.26)
(589.2868 4864.008 16326.05)
(929.2129 8324.296 23114.96)
(1373.754 3215.848 29267.76)
(1725.076 1631.886 31421.58)
(1795.917 779.3425 33680.53)
(901.9253 200.8775 35908.65)
(50.62435 237.7121 10982.31)
(170.233 833.4373 11883.19)
(324.9332 1765.647 13442.76)
(535.5939 3209.664 16235.01)
(840.5725 4616.81 21110.11)
(1219.025 2517.656 25527.27)
(1596.255 1484.674 27966.05)
(1969.074 772.3971 30378.22)
(2036.088 218.9722 32976.38)
(1018.88 -367.7099 35464.76)
(46.81015 143.9629 10702.8)
(156.3414 499.5132 11608.44)
(296.3629 1032.346 13177.83)
(484.5415 1780.327 15780.92)
(750.4645 2332.769 19641.48)
(1066.374 1468.904 23094.67)
(1398.501 939.1474 25374.93)
(1803.894 512.5631 27612.82)
(2205.277 150.5312 29961.53)
(2276.618 -245.7503 32478.66)
(1137.733 -832.4965 34775.3)
(43.21022 47.16569 10353.99)
(143.4296 162.5959 11230.61)
(269.9785 331.353 12746.95)
(437.4779 556.0507 15165.61)
(668.855 698.743 18500.62)
(934.367 464.4437 21442.62)
(1212.545 306.8476 23499.31)
(1570.065 170.6045 25496.77)
(2005.538 50.32869 27520.56)
(2438.824 -80.97345 29642.36)
(2520.026 -271.9349 31837.81)
(1258.962 -601.0036 33613.89)
(32.94919 -424.5622 15537.62)
(77.92566 -258.2414 14510.33)
(95.19006 -918.9165 14425.13)
(91.21931 -82.68699 13420.78)
(227.4439 -299.2698 13550.91)
(151.3843 -643.9438 12280.66)
(87.52315 76.849 12512.22)
(269.5956 278.573 12698.78)
(367.0695 611.0826 11751.12)
(199.508 1132.755 8797.444)
(78.77359 208.6205 11847.72)
(262.1209 754.7729 12063.02)
(442.2209 1670.719 11365.62)
(495.8711 3212.523 8893.979)
(237.5536 5131.68 3552.464)
(70.16471 305.8584 11403.36)
(239.0107 1105.383 11680.3)
(437.4297 2469.898 11266.6)
(612.2744 4922.593 9296.368)
(613.3808 8561.443 3964.589)
(63.10096 364.0267 11124.78)
(215.3854 1315.158 11509.79)
(405.8235 2971.318 11476.49)
(621.6667 6191.059 10212.51)
(787.6693 12155.91 4689.389)
(57.54962 381.1082 10950.07)
(195.4452 1374.057 11477.48)
(371.4567 3123.679 11936.78)
(592.565 6801.055 11871.79)
(840.8055 16463.78 5997.968)
(53.09993 358.9967 10819.12)
(179.1735 1285.508 11491.94)
(340.9292 2886.476 12490.27)
(555.3305 6147.9 14609.72)
(860.3914 14290.77 24457.17)
(1350.437 1633.463 32843.15)
(1714.354 740.2006 32868.91)
(1792.29 332.5299 34387.51)
(902.1413 86.03603 36373.67)
(49.34307 304.3955 10680.27)
(165.4621 1077.713 11458.74)
(314.0455 2348.92 12776.2)
(513.7994 4590.36 15405.74)
(805.0958 7816.29 21705.11)
(1199.508 3002.428 27323.34)
(1584.487 1516.865 29158.99)
(1963.337 729.0703 31153.91)
(2036.203 207.601 33580.07)
(1021.822 -304.1664 36140.65)
(45.97755 227.269 10497.95)
(153.2969 794.8951 11331.36)
(289.6688 1679.171 12781.99)
(472.094 3041.927 15384.95)
(732.6199 4357.163 19923.63)
(1054.53 2363.993 23972.31)
(1390.425 1386.377 26106.85)
(1799.307 719.4396 28176.4)
(2204.539 213.432 30449.22)
(2281.411 -309.8613 33040.01)
(1143.945 -1084.933 35639.01)
(42.81416 137.9253 10252.52)
(142.0007 477.5714 11096.82)
(266.917 984.6165 12566.81)
(432.0449 1693.159 15007.05)
(661.5824 2210.891 18615.97)
(929.1715 1386.274 21799.36)
(1208.825 881.8576 23831.22)
(1567.831 478.9502 25776.27)
(2004.957 142.5124 27776.56)
(2440.757 -214.4509 29938.91)
(2526.54 -733.7097 32278.17)
(1265.751 -1646.123 34356.25)
(39.74982 45.26976 9936.702)
(131.192 155.7775 10758.38)
(245.2421 316.8008 12185.82)
(394.0881 530.3492 14463.74)
(596.5387 664.5398 17595.56)
(823.8161 440.1749 20325.38)
(1056.392 289.5857 22183.56)
(1356.126 160.2241 23947.99)
(1739.332 47.27556 25689.94)
(2205.895 -73.43261 27468.57)
(2674.06 -243.4615 29300.14)
(2772.131 -533.1174 31083.37)
(1387.117 -1050.967 32226.52)
(34.18444 -535.4916 16079.63)
(79.98886 -403.2641 14881.67)
(98.23917 -1441.573 14960.04)
(92.41559 -240.4301 13601.41)
(231.1042 -872.5186 13812.05)
(154.6704 -1892.149 12689.45)
(87.52315 -76.849 12512.22)
(269.5956 -278.573 12698.78)
(367.0695 -611.0826 11751.12)
(199.508 -1132.755 8797.444)
(77.82485 71.74743 11690.99)
(258.4337 258.888 11837.25)
(433.9517 568.628 11005.28)
(482.521 1074.253 8410.01)
(228.8711 1665.846 3285.918)
(68.60406 195.8679 11121.77)
(232.8891 704.6646 11270.68)
(422.8305 1552.484 10590.61)
(583.2337 2988.096 8320.428)
(572.1945 4863.496 3391.487)
(61.22622 288.6272 10756.5)
(208.0622 1037.828 10964.8)
(387.9778 2305.908 10525.35)
(582.7628 4573.567 8656.768)
(715.7013 7959.677 3703.411)
(55.60742 344.9816 10538.51)
(187.921 1241.088 10857.44)
(352.9811 2789.802 10773.92)
(549.8007 5779.958 9538.762)
(744.5406 11292.09 4363.247)
(51.28919 362.4329 10410.11)
(172.2409 1302.189 10873.25)
(324.0163 2947.846 11261.45)
(514.7283 6385.828 11145.94)
(740.3711 15370.46 5601.175)
(47.81095 342.3927 10316.17)
(159.6973 1222.528 10925.83)
(300.4714 2735.573 11834.13)
(484.2431 5802.068 13785.85)
(745.8253 13418.86 22965.37)
(1179.359 1525.041 30661.24)
(1574.704 687.9577 30503.06)
(1959.023 310.8803 31808.98)
(2036.112 88.19612 34011.7)
(1023.699 -117.8691 36598.08)
(44.81271 291.023 10209.18)
(148.9956 1027.875 10926.53)
(279.9521 2233.883 12148.05)
(452.8754 4350.5 14598.97)
(701.7396 7376.824 20485.15)
(1037.711 2819.191 25658.74)
(1380.213 1416.375 27220.39)
(1793.873 678.8364 28895.86)
(2203.543 201.1173 31004.18)
(2286.363 -255.9747 33654.15)
(1150.575 -932.446 36615.95)
(42.05204 217.7377 10056.25)
(139.2328 759.9789 10831.9)
(260.8815 1601.54 12189.25)
(420.9354 2893.002 14630.44)
(645.8459 4129.561 18883.37)
(918.8607 2231.029 22627.64)
(1201.855 1301.799 24518.41)
(1563.789 672.1931 26302.1)
(2003.866 201.6277 28227.59)
(2443.953 -270.2549 30449.88)
(2537.576 -956.51 33052.49)
(1277.532 -2208.365 35725.87)
(39.38526 132.3811 9839.309)
(129.8841 457.5447 10630.2)
(242.4586 941.3753 12013.59)
(389.1893 1614.902 14312.5)
(590.0475 2102.677 17705.26)
(819.2345 1313.841 20663.48)
(1053.152 832.2503 22496.79)
(1354.187 449.8026 24210.38)
(1738.744 133.8112 25928.59)
(2207.188 -194.4631 27741.91)
(2678.953 -656.9932 29698.43)
(2784.305 -1460.423 31744.53)
(1398.905 -2944.484 33336.05)
(36.74034 43.52005 9551.792)
(120.6897 149.5162 10324.98)
(224.3363 303.5181 11673.92)
(358.0354 507.063 13828.01)
(537.4993 633.8313 16782.85)
(734.9095 418.6277 19332.82)
(931.4886 274.4525 21029.55)
(1181.344 151.2131 22609.66)
(1501.255 44.45661 24132.18)
(1908.904 -68.04019 25641.74)
(2405.599 -223.0071 27139.78)
(2908.628 -479.2607 28555.86)
(3025.829 -933.0892 29667.75)
(1514.84 -1710.527 29755.23)
(35.63659 -591.5777 16718.82)
(82.8373 -508.6176 15396.33)
(102.4744 -1826.923 15718.21)
(94.698 -375.4458 13947.08)
(238.1189 -1368.73 14319.55)
(161.0488 -3010.722 13515.09)
(88.6171 -223.4544 12680.09)
(273.6338 -812.1666 12941.75)
(374.6011 -1795.504 12138.61)
(205.3582 -3387.778 9308.395)
(77.82485 -71.74743 11690.99)
(258.4337 -258.888 11837.25)
(433.9517 -568.628 11005.28)
(482.521 -1074.253 8410.01)
(228.8711 -1665.846 3285.918)
(67.78597 67.36159 10974.63)
(229.6932 241.7008 11059.9)
(415.2985 528.3909 10255.83)
(568.6526 999.254 7870.554)
(552.4475 1579.022 3139.103)
(59.86779 184.8331 10490.78)
(202.7846 661.598 10580.21)
(375.337 1449.407 9894.247)
(556.3949 2776.305 7750.204)
(670.9759 4522.347 3170.847)
(53.95461 273.5267 10189.5)
(181.5467 979.3752 10343.12)
(337.6003 2165.033 9880.842)
(516.1622 4269.875 8086.338)
(679.4356 7394.51 3447.455)
(49.55612 328.0766 10018.7)
(165.607 1176.173 10285.62)
(307.9348 2632.754 10163.99)
(477.8859 5427.031 8955.243)
(657.2769 10542.21 4075.019)
(46.17851 345.67 9926.075)
(153.5109 1238.393 10337.44)
(285.5585 2793.735 10669.49)
(448.9022 6026.609 10516.67)
(642.4806 14432.63 5258.938)
(43.41982 327.3511 9861.072)
(143.7982 1165.995 10418.25)
(267.8379 2601.606 11252.08)
(426.8116 5498.929 13063.62)
(650.1488 12664.62 21674.52)
(1020.352 1431.973 28792.94)
(1371.735 642.3642 28475.09)
(1789.819 289.3932 29503.67)
(2202.738 85.12887 31401.4)
(2289.517 -99.09809 34069.99)
(1154.95 -371.4028 37305.22)
(40.9858 278.8181 9779.594)
(135.3222 982.7262 10444.86)
(252.1207 2130.611 11584.6)
(403.7821 4137.535 13882.9)
(618.6128 6991.58 19415.54)
(904.2195 2660.651 24219.23)
(1193.045 1329.962 25563.94)
(1559.014 634.1885 26973.46)
(2002.533 189.5915 28741.03)
(2447.241 -223.1116 31009.08)
(2549.359 -822.3871 33928.1)
(1290.608 -1970.382 37405.82)
(38.68374 208.9853 9650.934)
(127.3503 728.11 10376.39)
(236.9711 1531.207 11652.61)
(379.172 2759.299 13953.29)
(576.0014 3927.467 17959.57)
(810.1417 2114.473 21448.49)
(1047.082 1228.575 23145.33)
(1350.682 631.2715 24704.03)
(1737.662 189.1933 26349.07)
(2209.322 -245.0265 28212.93)
(2687.246 -856.7454 30398.79)
(2805.433 -1959.795 32964.35)
(1420.097 -4134.508 35530.04)
(36.40322 127.2645 9458.163)
(119.4857 439.1544 10201.95)
(221.7882 901.9063 11508.9)
(353.5812 1543.998 13683.4)
(531.646 2005.519 16887.47)
(730.8203 1249.53 19654.37)
(928.6318 788.7608 21326.41)
(1179.652 424.5058 22857.28)
(1500.724 125.8186 24356.16)
(1909.871 -180.1815 25896.3)
(2409.217 -601.8488 27506.05)
(2917.969 -1313.099 29152)
(3046.965 -2614.685 30652.03)
(1534.153 -4949.637 31258.22)
(34.09316 41.89854 9195.225)
(111.555 143.7377 9925.173)
(206.3907 291.3203 11204.01)
(327.5543 485.8073 13247.84)
(488.4226 606.0072 16046.38)
(662.3186 399.2828 18441.17)
(831.0828 261.017 20003.99)
(1041.773 143.3099 21435.56)
(1307.635 41.96304 22786.49)
(1646.471 -63.76294 24090.25)
(2077.163 -207.2839 25336.23)
(2602.286 -439.7069 26441.14)
(3138.283 -839.5997 27211.31)
(3273.652 -1517.4 27266.81)
(1635.959 -2553.961 50336.29)
(37.15391 -585.9588 17386.78)
(86.18542 -561.883 16003.25)
(107.4781 -2022.74 16632.39)
(97.8484 -473.526 14426.15)
(247.8588 -1734.534 15038.77)
(170.0727 -3880.181 14759.91)
(90.7041 -348.936 13001.33)
(281.3702 -1274.027 13413.93)
(389.2126 -2856.699 12921.12)
(217.0336 -5582.487 10417.21)
(78.77359 -208.6205 11847.72)
(262.1209 -754.7729 12063.02)
(442.2209 -1670.719 11365.62)
(495.8711 -3212.523 8893.979)
(237.5536 -5131.68 3552.464)
(67.78597 -67.36159 10974.63)
(229.6932 -241.7008 11059.9)
(415.2985 -528.3909 10255.83)
(568.6526 -999.254 7870.554)
(552.4475 -1579.022 3139.103)
(59.1557 63.56654 10351.92)
(200.0292 226.9287 10382.3)
(368.8148 493.3084 9581.701)
(543.1487 928.4417 7332.296)
(649.4945 1468.377 2936.286)
(52.75699 175.1628 9937.671)
(176.953 624.3343 9980.179)
(326.7051 1360.854 9288.275)
(493.3563 2591.955 7239.98)
(638.9201 4201.428 2952.776)
(48.08128 260.123 9686.794)
(159.9871 928.1481 9798.191)
(294.5471 2043.148 9321.142)
(448.9031 4009.123 7591.443)
(601.0427 6903.472 3220.047)
(44.6161 312.9026 9552.772)
(147.591 1118.55 9778.582)
(271.3788 2495.11 9629.357)
(416.834 5121.705 8449.077)
(570.918 9898.802 3825.866)
(41.93572 330.4845 9488.111)
(138.2207 1181.126 9857.057)
(254.5287 2656.92 10144.43)
(395.6461 5711.738 9965.051)
(560.1948 13621.38 4962.413)
(39.7108 313.6227 9446.086)
(130.597 1114.78 9958.891)
(241.198 2481.339 10730.02)
(380.5186 5229.775 12422.64)
(573.1129 12003.41 20542.77)
(889.1088 1351.452 27177.24)
(1185.733 603.1722 26742.04)
(1555.462 270.3412 27540.69)
(2001.533 80.14753 29108.67)
(2449.326 -86.3341 31387.85)
(2557.135 -327.6518 34545.68)
(1299.654 -807.1364 38729.22)
(37.70228 267.6106 9385.394)
(123.7707 941.5174 10005.57)
(229.0057 2037.048 11074.5)
(363.7047 3946.331 13240.27)
(551.6925 6649.493 18465.68)
(797.2299 2521.673 22956.96)
(1039.41 1255.16 24132.05)
(1346.545 595.5672 25334.32)
(1736.368 177.7849 26827.81)
(2211.511 -202.2427 28728.49)
(2696.108 -736.8547 31190.77)
(2828.882 -1749.167 34460.58)
(1445.099 -3935.793 38581.69)
(35.75451 200.908 9277.068)
(117.1534 698.8451 9958.339)
(216.7649 1467.01 11163.05)
(344.4728 2638.156 13339.95)
(518.9799 3746.011 17130.02)
(722.7046 2010.983 20400.96)
(923.2786 1164.381 21941.07)
(1176.595 595.7693 23323.15)
(1499.75 177.8628 24750.84)
(1911.464 -227.0271 26334.99)
(2415.355 -784.9556 28150.16)
(2934.186 -1762.599 30252.02)
(3084.962 -3672.569 32599.3)
(1570.606 -7454.01 34505.84)
(33.78021 122.5227 9105.085)
(110.4417 422.1821 9806.902)
(204.0452 865.661 11045.63)
(323.4767 1479.276 13109.29)
(483.1003 1917.484 16146.41)
(658.6313 1191.792 18747.87)
(828.5331 750.1495 20286.33)
(1040.281 402.3196 21670.25)
(1307.166 118.7594 22997.86)
(1647.259 -168.8568 24329.12)
(2080.023 -559.4402 25677.1)
(2609.321 -1204.842 26988.73)
(3154.532 -2353.153 28097.39)
(3308.171 -4391.975 28595.25)
(1665.202 -7695.103 53696.59)
(31.74223 40.39055 8863.729)
(103.5194 138.3825 9554.785)
(190.7792 280.0628 10770.46)
(301.3806 466.2869 12715.13)
(446.9105 580.6082 15374.04)
(601.953 381.7554 17632.91)
(749.0964 248.9558 19082.43)
(929.6215 136.2942 20391.79)
(1153.275 39.76848 21605.59)
(1434.002 -60.16031 22750.3)
(1790.399 -194.4077 23807.35)
(2242.146 -408.9104 24687.1)
(2792.475 -770.5981 25191.3)
(3356.272 -1365.34 24976.33)
(3503.719 -2261.524 45846.74)
(223.8533 -517.8919 15858.11)
(38.57732 -520.9068 18010.2)
(89.68371 -556.5516 16637.47)
(112.7084 -1996.786 17594.96)
(101.5508 -523.1135 14991.08)
(259.3629 -1920.399 15905.89)
(180.936 -4345.085 16381.44)
(93.58447 -440.0894 13446.55)
(292.1081 -1614.483 14083.05)
(409.8695 -3681.309 14100.64)
(234.3273 -7559.612 12321.12)
(80.5835 -325.772 12147.64)
(269.1839 -1183.987 12501.77)
(458.2538 -2658.038 12093.24)
(522.4892 -5292.796 9944.005)
(255.6895 -9036.17 4157.869)
(68.60406 -195.8679 11121.77)
(232.8891 -704.6646 11270.68)
(422.8305 -1552.484 10590.61)
(583.2337 -2988.096 8320.428)
(572.1945 -4863.496 3391.487)
(59.1557 -63.56655 10351.92)
(200.0292 -226.9287 10382.3)
(368.8148 -493.3084 9581.701)
(543.1487 -928.4417 7332.296)
(649.4945 -1468.377 2936.286)
(52.12921 60.24076 9806.077)
(174.5546 214.147 9793.417)
(321.0834 463.1684 8994.813)
(481.8973 866.7925 6849.825)
(619.4442 1364.207 2734.893)
(47.01263 166.5791 9447.306)
(155.937 591.6771 9454.226)
(285.0638 1284.237 8761.91)
(429.2521 2433.655 6796.738)
(566.0303 3922.433 2758.221)
(43.2865 248.0918 9236.211)
(142.576 882.6749 9315.019)
(259.5745 1936.323 8830.541)
(391.607 3783.536 7161.94)
(522.4799 6482.044 3023.052)
(40.51529 299.1565 9131.206)
(132.8835 1066.824 9324.034)
(241.874 2372.915 9155.189)
(367.3672 4854.079 8005.391)
(497.9052 9342.207 3609.859)
(38.35231 316.6247 9088.765)
(125.5261 1129.246 9422.342)
(229.1978 2534.096 9673.544)
(352.7008 5432.166 9475.585)
(493.7747 12910.2 4702.475)
(36.52867 301.0163 9065.291)
(119.4452 1068.034 9539.974)
(219.0745 2372.377 10257.43)
(342.7271 4988.116 11847.43)
(511.076 11416.23 19537.74)
(783.9037 1280.866 25760.52)
(1033.044 569.2502 25243.91)
(1343.47 253.8742 25866.88)
(1735.414 75.12724 27170.64)
(2212.895 -78.24668 29077.75)
(2701.962 -293.641 31749.36)
(2845.103 -716.6764 35639.31)
(1463.942 -1694.802 41507.52)
(34.84693 257.2674 9021.791)
(113.8584 903.6755 9602.418)
(209.4731 1951.645 10609.17)
(330.4088 3773.087 12658.21)
(497.0584 6342.326 17612.74)
(711.1796 2398.27 21835.62)
(916.513 1189.586 22876.25)
(1172.988 562.0736 23917.98)
(1498.593 167.1103 25200.2)
(1913.097 -187.3807 26815.2)
(2421.922 -675.2289 28878.58)
(2952.193 -1573.682 31601.6)
(3129.781 -3497.35 35309.72)
(1617.805 -7947.863 39916.11)
(33.17801 193.4224 8930.737)
(108.2849 671.8366 9572.701)
(199.4211 1408.056 10713.67)
(315.1383 2527.574 12780.23)
(471.5829 3581.591 16378.31)
(651.3132 1918.066 19459.96)
(823.7554 1107.387 20870.9)
(1037.585 564.6343 22111.77)
(1306.308 167.8792 23370.32)
(1648.557 -212.7627 24740.77)
(2084.878 -729.7021 26276.57)
(2621.544 -1617.553 27999.31)
(3183.75 -3306.348 29851.1)
(3373.327 -6617.488 31469.27)
(1723.755 -12792.4 61742.52)
(31.45077 118.113 8776.832)
(102.4859 406.4531 9440.919)
(188.6102 832.2094 10618.2)
(297.6269 1419.839 12582.15)
(442.038 1837.121 15469.87)
(598.6003 1139.477 17926.14)
(746.7975 715.4869 19351.71)
(928.2903 382.6244 20614.99)
(1152.861 112.5484 21805.92)
(1434.676 -159.3189 22975.71)
(1792.784 -524.7024 24127.14)
(2247.762 -1120.517 25196.52)
(2804.765 -2160.019 26004.71)
(3382.701 -3952.883 26170.54)
(3555.733 -6817.143 48791.29)
(230.0206 -1650.917 16934.62)
(29.63737 38.98397 8554.601)
(96.38268 133.4023 9210.42)
(177.0439 269.6297 10368.77)
(278.6046 448.2706 12223.55)
(411.2491 557.2821 14756.54)
(550.8696 365.7561 16894.84)
(680.8998 238.0284 18246.83)
(838.0352 129.9977 19453.53)
(1029.286 37.8221 20555.34)
(1264.888 -57.01841 21573.99)
(1559.261 -183.4411 22487.07)
(1931.387 -383.5543 23202.57)
(2401.02 -716.6971 23525.87)
(2970.831 -1253.113 23124.52)
(3552.513 -2033.817 41961.47)
(471.4691 -456.2189 14422.2)
(265.5533 -827.6881 22698.59)
(39.76673 -406.7675 18527.3)
(92.96601 -494.7786 17229.42)
(117.5786 -1760.115 18466.67)
(105.4192 -518.1529 15581.43)
(271.3869 -1895.781 16818.86)
(192.3733 -4254.519 18197.65)
(96.96928 -486.1747 13971.56)
(304.7864 -1787.46 14889.72)
(434.719 -4122.078 15636.72)
(256.4211 -8898.23 15381.53)
(83.08135 -410.8743 12563.3)
(278.9853 -1500.371 13123.5)
(480.901 -3425.117 13189.9)
(561.8604 -7165.737 11746.35)
(285.0263 -13808.83 5279.306)
(70.16471 -305.8584 11403.36)
(239.0107 -1105.383 11680.3)
(437.4297 -2469.898 11266.6)
(612.2744 -4922.593 9296.368)
(613.3808 -8561.443 3964.589)
(59.86779 -184.8331 10490.78)
(202.7846 -661.598 10580.21)
(375.337 -1449.407 9894.247)
(556.3949 -2776.305 7750.204)
(670.9759 -4522.347 3170.847)
(52.12921 -60.24076 9806.077)
(174.5546 -214.147 9793.417)
(321.0834 -463.1684 8994.813)
(481.8973 -866.7925 6849.825)
(619.4442 -1364.207 2734.893)
(46.45245 57.2887 9322.16)
(153.8225 202.9454 9277.228)
(280.1705 437.091 8484.958)
(419.3778 813.8519 6430.396)
(549.1947 1273.618 2554.808)
(42.32309 158.8744 9007.798)
(138.9618 562.6882 8987.9)
(251.2129 1217.088 8300.527)
(374.5025 2296.703 6411.916)
(492.3178 3682.947 2589.406)
(39.30651 237.1928 8828.55)
(128.3622 841.8563 8881.9)
(231.3393 1841.488 8395.469)
(345.1217 3585.808 6785.459)
(455.744 6117.47 2852.162)
(37.05211 286.6105 8746.827)
(120.6737 1019.964 8912.724)
(217.7878 2263.216 8730.011)
(327.4602 4616.462 7611.773)
(438.8397 8854.294 3420.51)
(35.27821 303.8976 8722.332)
(114.8035 1081.894 9025.918)
(208.1636 2422.818 9247.317)
(317.6423 5181.154 9036.451)
(440.2488 12278.65 4471.77)
(33.76165 289.382 8714.059)
(109.8768 1025.107 9155.536)
(200.3818 2272.919 9826.34)
(311.3339 4769.151 11326.48)
(460.4291 10888.97 18635.26)
(699.2843 1218.19 24502.02)
(910.8988 539.5125 23930.04)
(1170.309 239.597 24420.58)
(1497.744 70.60952 25522.01)
(1914.127 -72.4949 27140.53)
(2426.265 -269.1149 29392.37)
(2964.657 -644.9214 32665.05)
(3163.552 -1506.377 37910.51)
(1659.355 -3732.964 47247.61)
(32.33551 247.682 8684.97)
(105.2378 868.7511 9230.533)
(192.7088 1873.218 10182.04)
(302.263 3614.942 12127.05)
(451.6488 6063.985 16839.83)
(640.9206 2287.47 20828.34)
(817.7169 1131.363 21760.31)
(1034.404 532.702 22675.53)
(1305.289 157.7265 23794.38)
(1649.887 -175.6112 25191.4)
(2090.077 -627.7548 26954.56)
(2635.132 -1444.461 29239.41)
(3218.226 -3149.89 32293.59)
(3457.692 -7060.378 36265.93)
(1810.117 -16677.56 79355.23)
(30.88993 186.4609 8608.76)
(100.4837 646.8065 9215.442)
(184.3339 1353.646 10299.07)
(289.9509 2426.019 12266.31)
(431.4938 3431.496 15692.05)
(591.9461 1833.876 18606.98)
(742.4897 1056.22 19909.27)
(925.8844 536.9943 21034.9)
(1152.103 159.0992 22158.91)
(1435.788 -200.7504 23364.17)
(1796.832 -684.4229 24689.56)
(2257.523 -1504.486 26136.74)
(2826.882 -3035.634 27615.04)
(3432.611 -5958.794 28756.27)
(3659.919 -11343.25 55863.71)
(243.3681 -3241.989 19513.06)
(29.36517 113.9998 8470.73)
(95.4201 391.8252 9100.651)
(175.0303 801.2077 10222.17)
(275.1333 1364.98 12095.7)
(406.7636 1763.317 14848.52)
(547.8003 1091.723 17175.77)
(678.8096 684.0826 18504.29)
(836.8352 364.9481 19666.41)
(1028.917 107.0396 20745.86)
(1265.481 -151.0005 21787.61)
(1561.316 -495.1122 22788.83)
(1936.086 -1051.071 23680.42)
(2410.854 -2009.081 24282.35)
(2990.825 -3628.582 24220.06)
(3592.051 -6133.097 44599.23)
(482.3105 -1455.769 15362.26)
(275.6601 -2697.179 24162.33)
(27.7397 37.66859 8265.579)
(89.99261 128.7568 8889.278)
(164.8436 259.9268 9995.254)
(258.5614 431.5734 11768)