/*--------------------------------*- C++ -*----------------------------------*\
| =========                 |                                                 |
| \\      /  F ield         | OpenFOAM: The Open Source CFD Toolbox           |
|  \\    /   O peration     | Version:  2306                                  |
|   \\  /    A nd           | Website:  www.openfoam.com                      |
|    \\/     M anipulation  |                                                 |
\*---------------------------------------------------------------------------*/
FoamFile
{
    version     2.0;
    format      ascii;
    arch        "LSB;label=32;scalar=64";
    class       volScalarField;
    location    "1.5/phiEC";
    object      phi;
}
// * * * * * * * * * * * * * * * * * * * * * * * * * * * * * * * * * * * * * //

dimensions      [1 2 -3 0 0 -1 0];

internalField   nonuniform List<scalar> 
20000
(
0.7463307
0.7463299
0.7463266
0.7465234
0.7463282
0.7463258
0.7465205
0.7463209
0.7465108
0.7467282
0.7463258
0.7463242
0.7465149
0.7463201
0.7465081
0.7467226
0.7463151
0.7464932
0.7467063
0.7469567
0.746323
0.7463219
0.7465069
0.7463186
0.7465027
0.7467114
0.7463144
0.7464907
0.7467009
0.7469476
0.7463099
0.7464757
0.7466759
0.7469236
0.7472228
0.7463199
0.7463192
0.7464973
0.7463165
0.7464951
0.7466951
0.746313
0.7464857
0.7466903
0.746929
0.7463092
0.7464733
0.7466709
0.746915
0.7472119
0.7463054
0.7464599
0.7466457
0.7468786
0.747176
0.7474564
0.746317
0.7463164
0.7464869
0.746314
0.746486
0.7466749
0.746311
0.7464786
0.7466748
0.7469002
0.7463079
0.7464686
0.746661
0.7468974
0.7471884
0.7463048
0.7464577
0.7466411
0.7468706
0.7471656
0.7474496
0.7463015
0.7464462
0.7466188
0.7468343
0.7471134
0.7473966
0.7476196
0.7463146
0.7463136
0.746477
0.7463113
0.7464762
0.7466526
0.7463087
0.7464701
0.7466556
0.7468612
0.7463061
0.7464621
0.7466467
0.7468701
0.7471476
0.7463035
0.7464534
0.7466319
0.7468542
0.7471433
0.747436
0.7463009
0.7464441
0.7466144
0.7468269
0.7471038
0.7473901
0.7476154
0.746298
0.7464343
0.7465954
0.7467949
0.7470526
0.7473182
0.7475504
0.7477877
0.7463128
0.7463113
0.7464687
0.7463088
0.7464668
0.7466314
0.7463062
0.746461
0.7466345
0.7468146
0.7463039
0.7464542
0.7466288
0.7468331
0.7470793
0.7463018
0.7464472
0.7466186
0.7468288
0.7471047
0.7474167
0.7462997
0.7464401
0.7466058
0.7468116
0.7470831
0.7473772
0.7476074
0.7462975
0.7464323
0.7465913
0.7467879
0.7470436
0.7473122
0.7475464
0.7477856
0.746295
0.7464239
0.746575
0.7467607
0.7469987
0.7472427
0.7474608
0.7477084
0.7479588
0.7463119
0.7463096
0.7464626
0.7463066
0.7464588
0.7466138
0.7463038
0.7464523
0.7466144
0.7467722
0.7463016
0.7464457
0.7466091
0.7467889
0.7469602
0.7462998
0.7464399
0.7466019
0.7467945
0.7470401
0.7473968
0.7462981
0.7464343
0.7465934
0.7467881
0.7470471
0.7473589
0.7475974
0.7462964
0.7464285
0.7465832
0.7467737
0.7470244
0.7473002
0.7475388
0.7477816
0.7462945
0.746422
0.7465712
0.7467542
0.7469903
0.7472371
0.747457
0.7477063
0.7479583
0.7462923
0.7464147
0.7465572
0.746731
0.746952
0.7471762
0.7473751
0.7476071
0.7478688
0.7481313
0.7463119
0.7463087
0.7464595
0.746305
0.7464531
0.7466013
0.7463018
0.7464448
0.7465977
0.746739
0.7462994
0.7464376
0.7465904
0.7467488
0.7468778
0.7462976
0.7464319
0.7465837
0.7467533
0.7469273
0.7462962
0.7464274
0.7465779
0.7467561
0.7469871
0.74734
0.747589
0.7462949
0.7464231
0.7465715
0.7467517
0.746991
0.7472832
0.7475292
0.747777
0.7462934
0.7464184
0.7465636
0.7467408
0.7469723
0.747226
0.74745
0.7477026
0.7479574
0.7462917
0.7464129
0.7465536
0.7467249
0.7469442
0.747171
0.7473716
0.7476051
0.7478682
0.7481324
0.7462898
0.7464064
0.7465414
0.746705
0.7469116
0.7471188
0.7472997
0.7475108
0.7477553
0.7480299
0.7483037
0.7463128
0.7463087
0.7464595
0.7463042
0.7464501
0.7465949
0.7463003
0.7464395
0.7465858
0.7467164
0.7462975
0.7464307
0.7465749
0.7467173
0.7468221
0.7462955
0.7464244
0.7465663
0.746716
0.7468493
0.7462941
0.7464199
0.7465608
0.7467179
0.7468823
0.746293
0.7464166
0.746557
0.7467219
0.7469352
0.7472656
0.7475213
0.7477735
0.746292
0.7464133
0.7465525
0.7467202
0.7469412
0.7472102
0.7474411
0.7476981
0.7479562
0.7462908
0.7464094
0.7465464
0.7467123
0.7469273
0.7471606
0.747365
0.7476016
0.7478672
0.7481342
0.7462893
0.7464047
0.7465379
0.7466992
0.7469042
0.7471139
0.7472965
0.7475089
0.7477547
0.7480308
0.7483068
0.7462875
0.7463989
0.7465272
0.746682
0.7468762
0.747069
0.7472348
0.7474264
0.7476482
0.7479039
0.7481903
0.7484741
0.7463146
0.7463096
0.7464626
0.7463042
0.7464501
0.7465949
0.7462996
0.7464367
0.7465797
0.7467051
0.7462961
0.7464257
0.7465638
0.7466959
0.7467875
0.7462938
0.7464179
0.7465518
0.7466867
0.7467965
0.7462922
0.7464128
0.7465446
0.7466833
0.7468098
0.7462911
0.7464095
0.7465409
0.7466862
0.7468379
0.7462902
0.7464071
0.7465388
0.7466922
0.7468891
0.7471938
0.7474337
0.7476948
0.7479554
0.7462894
0.7464045
0.7465359
0.7466928
0.7468981
0.7471458
0.7473567
0.7475974
0.747866
0.7481361
0.7462884
0.7464014
0.7465311
0.7466872
0.7468883
0.7471041
0.7472904
0.7475056
0.7477538
0.7480323
0.748312
0.7462871
0.7463972
0.7465239
0.7466764
0.7468692
0.7470643
0.7472317
0.7474247
0.7476477
0.7479047
0.748193
0.7484801
0.7462855
0.746392
0.7465144
0.7466613
0.7468447
0.7470253
0.7471785
0.7473538
0.7475547
0.747786
0.7480517
0.7483482
0.7486398
0.746317
0.7463113
0.7464687
0.746305
0.7464531
0.7466013
0.7462996
0.7464367
0.7465797
0.7467051
0.7462954
0.7464232
0.7465581
0.7466851
0.7467708
0.7462925
0.7464133
0.7465416
0.7466668
0.7467637
0.7462905
0.7464068
0.7465311
0.746656
0.7467608
0.7462892
0.7464028
0.7465257
0.7466539
0.7467706
0.7462884
0.7464004
0.7465237
0.7466587
0.7467983
0.7462877
0.7463986
0.7465229
0.7466664
0.7468492
0.7471305
0.7473498
0.7475943
0.7478651
0.7481372
0.746287
0.7463967
0.7465211
0.7466688
0.7468607
0.7470902
0.7472826
0.7475018
0.7477526
0.7480339
0.7483176
0.7462862
0.7463941
0.7465174
0.7466651
0.7468541
0.7470551
0.747226
0.7474216
0.7476468
0.7479061
0.7481976
0.7484906
0.746285
0.7463905
0.7465112
0.746656
0.7468381
0.7470209
0.7471756
0.7473522
0.7475542
0.7477867
0.7480541
0.7483536
0.7486503
0.7462836
0.7463857
0.7465027
0.7466426
0.7468165
0.7469866
0.7471291
0.7472908
0.7474743
0.7476833
0.7479229
0.7481969
0.7485011
0.7487964
0.7463199
0.7463136
0.746477
0.7463066
0.7464588
0.7466138
0.7463003
0.7464395
0.7465858
0.7467164
0.7462954
0.7464232
0.7465581
0.7466851
0.7467708
0.7462918
0.7464109
0.7465363
0.7466568
0.7467479
0.7462893
0.7464025
0.7465215
0.7466376
0.7467302
0.7462876
0.7463971
0.746513
0.7466284
0.746725
0.7462866
0.746394
0.7465093
0.7466283
0.7467354
0.7462859
0.7463923
0.7465085
0.7466348
0.7467639
0.7462854
0.7463911
0.7465087
0.7466437
0.7468145
0.7470759
0.7472762
0.7474989
0.7477517
0.7480349
0.7483213
0.7462849
0.7463896
0.7465079
0.7466475
0.7468279
0.747042
0.7472187
0.747418
0.7476457
0.7479074
0.7482026
0.7485022
0.7462841
0.7463874
0.746505
0.7466452
0.7468237
0.7470122
0.7471702
0.7473493
0.7475534
0.7477879
0.7480583
0.7483628
0.7486693
0.7462831
0.7463842
0.7464997
0.7466375
0.7468102
0.7469824
0.7471264
0.7472893
0.7474738
0.747684
0.7479251
0.7482017
0.7485104
0.7488135
0.7462818
0.74638
0.746492
0.7466255
0.746791
0.7469518
0.7470853
0.7472356
0.7474046
0.7475951
0.7478111
0.7480574
0.7483372
0.7486449
0.7489374
0.746323
0.7463164
0.7464869
0.7463088
0.7464668
0.7466314
0.7463018
0.7464448
0.7465977
0.746739
0.7462961
0.7464257
0.7465638
0.7466959
0.7467875
0.7462918
0.7464109
0.7465363
0.7466568
0.7467479
0.7462886
0.7464002
0.7465166
0.7466283
0.7467156
0.7462865
0.746393
0.7465041
0.7466112
0.7466966
0.7462851
0.7463886
0.7464974
0.7466044
0.7466928
0.7462843
0.7463863
0.7464949
0.7466061
0.7467048
0.7462838
0.7463851
0.7464951
0.7466138
0.746734
0.7462834
0.7463843
0.7464961
0.7466237
0.7467841
0.7470285
0.7472127
0.7474153
0.7476449
0.7479083
0.7482058
0.7485103
0.7462829
0.7463832
0.7464959
0.7466284
0.7467988
0.7469998
0.7471633
0.7473459
0.7475523
0.7477892
0.7480627
0.7483732
0.7486917
0.7462823
0.7463814
0.7464937
0.7466271
0.7467965
0.7469741
0.7471213
0.7472866
0.747473
0.7476851
0.7479289
0.7482101
0.7485273
0.7488459
0.7462814
0.7463785
0.7464891
0.7466206
0.7467849
0.7469479
0.7470827
0.7472342
0.7474042
0.7475957
0.7478132
0.7480618
0.7483456
0.7486601
0.7489629
0.7462802
0.7463746
0.7464821
0.7466098
0.7467677
0.7469204
0.747046
0.7471866
0.7473435
0.7475187
0.7477152
0.7479367
0.7481873
0.748469
0.7487738
0.749191
0.7463258
0.7463192
0.7464973
0.7463113
0.7464762
0.7466526
0.7463038
0.7464523
0.7466144
0.7467722
0.7462975
0.7464307
0.7465749
0.7467173
0.7468221
0.7462925
0.7464133
0.7465416
0.7466668
0.7467637
0.7462886
0.7464002
0.7465166
0.7466283
0.7467156
0.7462859
0.7463909
0.7464994
0.7466025
0.746683
0.746284
0.7463848
0.7464889
0.7465882
0.7466663
0.7462828
0.7463811
0.7464836
0.7465835
0.7466649
0.7462821
0.7463793
0.7464822
0.7465866
0.7466783
0.7462818
0.7463785
0.7464831
0.7465952
0.7467078
0.7462815
0.746378
0.7464846
0.7466057
0.7467572
0.746987
0.7471576
0.7473433
0.7475516
0.7477899
0.7480656
0.7483803
0.7487086
0.7462811
0.7463773
0.746485
0.7466111
0.7467727
0.7469623
0.7471148
0.7472833
0.747472
0.7476863
0.747933
0.7482193
0.7485472
0.748888
0.7462806
0.7463757
0.7464833
0.7466107
0.7467718
0.7469399
0.7470778
0.7472316
0.7474034
0.7475968
0.7478167
0.7480694
0.7483608
0.7486888
0.7490143
0.7462798
0.7463732
0.7464793
0.7466052
0.7467619
0.7469166
0.7470435
0.7471853
0.7473431
0.7475193
0.7477171
0.7479408
0.748195
0.7484827
0.7487964
0.7492342
0.7462786
0.7463696
0.7464729
0.7465954
0.7467463
0.7468917
0.7470104
0.7471427
0.7472893
0.7474517
0.7476321
0.7478332
0.748058
0.7483093
0.748587
0.7490045
0.7495747
0.7463282
0.7463219
0.7465069
0.746314
0.746486
0.7466749
0.7463062
0.746461
0.7466345
0.7468146
0.7462994
0.7464376
0.7465904
0.7467488
0.7468778
0.7462938
0.7464179
0.7465518
0.7466867
0.7467965
0.7462893
0.7464025
0.7465215
0.7466376
0.7467302
0.7462859
0.7463909
0.7464994
0.7466025
0.746683
0.7462834
0.7463827
0.7464845
0.7465801
0.7466536
0.7462818
0.7463774
0.7464756
0.7465683
0.74664
0.7462808
0.7463744
0.7464714
0.7465653
0.7466406
0.7462802
0.746373
0.7464707
0.7465694
0.746655
0.7462799
0.7463725
0.7464722
0.7465785
0.7466846
0.7462797
0.7463723
0.7464742
0.7465894
0.746733
0.7469501
0.7471094
0.747281
0.7474713
0.747687
0.7479356
0.7482258
0.7485622
0.7489254
0.7462794
0.7463718
0.746475
0.7465954
0.7467491
0.7469287
0.7470717
0.7472286
0.7474025
0.7475979
0.7478205
0.7480779
0.7483787
0.7487263
0.7490908
0.746279
0.7463705
0.7464737
0.7465956
0.7467493
0.746909
0.7470389
0.7471828
0.7473424
0.7475203
0.7477204
0.7479479
0.7482089
0.7485086
0.748842
0.7493286
0.7462782
0.7463683
0.7464702
0.7465909
0.7467407
0.746888
0.747008
0.7471414
0.7472889
0.7474523
0.7476339
0.747837
0.7480652
0.7483218
0.7486073
0.7490425
0.7496437
0.7462772
0.7463649
0.7464644
0.746582
0.7467265
0.7468653
0.7469779
0.7471028
0.7472406
0.7473922
0.7475592
0.7477436
0.7479472
0.748172
0.7484185
0.7487982
0.7493534
0.7499477
0.7463299
0.7463242
0.7465149
0.7463165
0.7464951
0.7466951
0.7463087
0.7464701
0.7466556
0.7468612
0.7463016
0.7464457
0.7466091
0.7467889
0.7469602
0.7462955
0.7464244
0.7465663
0.746716
0.7468493
0.7462905
0.7464068
0.7465311
0.746656
0.7467608
0.7462865
0.746393
0.7465041
0.7466112
0.7466966
0.7462834
0.7463827
0.7464845
0.7465801
0.7466536
0.7462812
0.7463755
0.7464714
0.7465606
0.746628
0.7462798
0.7463709
0.7464638
0.7465508
0.7466171
0.7462789
0.7463683
0.7464605
0.746549
0.7466193
0.7462784
0.7463672
0.7464604
0.7465539
0.7466344
0.7462782
0.746367
0.7464623
0.7465634
0.7466638
0.7462781
0.746367
0.7464646
0.7465746
0.7467112
0.7469171
0.7470665
0.7472263
0.7474018
0.7475985
0.747823
0.7480839
0.7483923
0.7487594
0.7491811
0.7462779
0.7463667
0.7464657
0.7465809
0.7467275
0.7468982
0.747033
0.7471799
0.7473415
0.7475213
0.747724
0.7479558
0.7482254
0.7485423
0.7489098
0.7495044
0.7462775
0.7463657
0.7464649
0.7465817
0.7467286
0.7468807
0.7470036
0.747139
0.7472882
0.7474532
0.747637
0.7478437
0.7480781
0.7483456
0.7486483
0.7491258
0.7497995
0.7462768
0.7463637
0.7464618
0.7465776
0.7467212
0.7468618
0.7469757
0.7471016
0.7472402
0.7473927
0.747561
0.7477472
0.7479539
0.7481836
0.7484372
0.7488323
0.749414
0.7500396
0.7462759
0.7463606
0.7464564
0.7465695
0.7467083
0.746841
0.7469481
0.7470665
0.7471965
0.7473388
0.7474945
0.747665
0.7478513
0.7480543
0.7482741
0.7486143
0.7491175
0.7496926
0.7503063
0.7463307
0.7463258
0.7465205
0.7463186
0.7465027
0.7467114
0.746311
0.7464786
0.7466748
0.7469002
0.7463039
0.7464542
0.7466288
0.7468331
0.7470793
0.7462976
0.7464319
0.7465837
0.7467533
0.7469273
0.7462922
0.7464128
0.7465446
0.7466833
0.7468098
0.7462876
0.7463971
0.746513
0.7466284
0.746725
0.746284
0.7463848
0.7464889
0.7465882
0.7466663
0.7462812
0.7463755
0.7464714
0.7465606
0.746628
0.7462792
0.746369
0.7464598
0.7465435
0.7466058
0.7462779
0.7463649
0.7464532
0.7465353
0.7465971
0.7462772
0.7463627
0.7464506
0.7465345
0.7466004
0.7462768
0.7463619
0.746451
0.7465399
0.7466159
0.7462767
0.7463619
0.7464532
0.7465497
0.746645
0.7462766
0.7463622
0.7464557
0.7465609
0.7466912
0.7468871
0.7470281
0.7471777
0.7473409
0.7475219
0.7477263
0.7479613
0.7482378
0.7485722
0.74899
0.7499349
0.7462764
0.746362
0.7464572
0.7465676
0.7467078
0.7468704
0.746998
0.7471362
0.7472874
0.7474542
0.7476404
0.7478511
0.7480934
0.7483765
0.7487095
0.7492813
0.7501002
0.7462761
0.7463612
0.7464566
0.7465688
0.7467096
0.7468548
0.7469714
0.7470993
0.7472395
0.7473936
0.7475639
0.7477535
0.747966
0.7482057
0.7484748
0.7489071
0.749551
0.7502475
0.7462755
0.7463594
0.7464539
0.7465653
0.7467031
0.7468376
0.7469459
0.7470653
0.7471961
0.7473393
0.7474962
0.7476684
0.7478576
0.7480653
0.7482914
0.7486456
0.7491718
0.7497732
0.7504174
0.7462746
0.7463565
0.746449
0.7465579
0.7466913
0.7468184
0.7469206
0.7470331
0.7471562
0.7472904
0.7474364
0.7475951
0.7477672
0.7479526
0.7481504
0.7484572
0.7489104
0.7494281
0.750019
0.7506477
0.7463266
0.7465234
0.7463201
0.7465081
0.7467226
0.746313
0.7464857
0.7466903
0.746929
0.7463061
0.7464621
0.7466467
0.7468701
0.7471476
0.7462998
0.7464399
0.7466019
0.7467945
0.7470401
0.7473968
0.7462941
0.7464199
0.7465608
0.7467179
0.7468823
0.7462892
0.7464028
0.7465257
0.7466539
0.7467706
0.7462851
0.7463886
0.7464974
0.7466044
0.7466928
0.7462818
0.7463774
0.7464756
0.7465683
0.74664
0.7462792
0.746369
0.7464598
0.7465435
0.7466058
0.7462774
0.7463632
0.7464494
0.7465283
0.7465864
0.7462763
0.7463595
0.7464436
0.7465214
0.7465793
0.7462756
0.7463576
0.7464415
0.7465213
0.7465835
0.7462753
0.7463571
0.7464423
0.7465271
0.7465992
0.7462752
0.7463572
0.7464448
0.746537
0.7466278
0.7524583
0.7462752
0.7463576
0.7464475
0.7465484
0.7466729
0.7468598
0.7469933
0.7471342
0.7472868
0.7474548
0.7476426
0.7478563
0.748105
0.748404
0.7487818
0.7496638
0.7507602
0.7462751
0.7463576
0.7464492
0.7465552
0.7466895
0.7468449
0.746966
0.7470967
0.7472388
0.7473945
0.7475671
0.7477605
0.7479804
0.7482345
0.748531
0.749047
0.7498165
0.7506389
0.7462748
0.7463569
0.746449
0.7465568
0.7466919
0.7468309
0.7469418
0.7470631
0.7471955
0.7473401
0.747499
0.7476744
0.7478691
0.748086
0.7483264
0.7487142
0.7492948
0.7499557
0.7506667
0.7462742
0.7463553
0.7464465
0.7465539
0.7466863
0.7468152
0.7469185
0.747032
0.7471559
0.7472909
0.747438
0.7475984
0.7477732
0.7479629
0.7481667
0.7484863
0.7489601
0.7495002
0.7501161
0.7507736
0.7462734
0.7463527
0.746442
0.746547
0.7466754
0.7467974
0.7468951
0.7470023
0.7471192
0.7472462
0.7473838
0.7475324
0.7476924
0.7478633
0.7480434
0.7483229
0.7487343
0.7491985
0.7497271
0.7503298
0.7508166
0.7463209
0.7465108
0.7467282
0.7463144
0.7464907
0.7467009
0.7469476
0.7463079
0.7464686
0.746661
0.7468974
0.7471884
0.7463018
0.7464472
0.7466186
0.7468288
0.7471047
0.7474167
0.7462962
0.7464274
0.7465779
0.7467561
0.7469871
0.74734
0.747589
0.7462911
0.7464095
0.7465409
0.7466862
0.7468379
0.7462866
0.746394
0.7465093
0.7466283
0.7467354
0.7462828
0.7463811
0.7464836
0.7465835
0.7466649
0.7462798
0.7463709
0.7464638
0.7465508
0.7466171
0.7462774
0.7463632
0.7464494
0.7465283
0.7465864
0.7462758
0.7463578
0.74644
0.7465147
0.7465691
0.7462747
0.7463545
0.7464349
0.7465088
0.7465633
0.7462741
0.7463529
0.7464333
0.7465093
0.7465682
0.7462739
0.7463525
0.7464343
0.7465154
0.7465839
0.7539185
0.7462738
0.7463529
0.746437
0.7465254
0.746612
0.7519125
0.7526293
0.7462739
0.7463534
0.7464399
0.7465367
0.746656
0.7468347
0.7469615
0.7470947
0.7472382
0.7473951
0.7475692
0.7477654
0.7479913
0.7482601
0.7485974
0.7493921
0.7504017
0.7513925
0.7462738
0.7463535
0.7464418
0.7465437
0.7466726
0.7468214
0.7469366
0.7470606
0.7471947
0.747341
0.747502
0.747681
0.7478826
0.748113
0.7483786
0.7488426
0.7495335
0.7503004
0.7511202
0.7462736
0.746353
0.7464418
0.7465457
0.7466755
0.7468087
0.7469145
0.7470299
0.7471553
0.7472917
0.7474407
0.7476041
0.747784
0.7479824
0.7481995
0.7485501
0.7490728
0.7496639
0.7503344
0.7510537
0.7462731
0.7463515
0.7464397
0.7465431
0.7466706
0.7467943
0.7468931
0.7470012
0.7471189
0.7472467
0.7473853
0.7475355
0.7476981
0.7478731
0.7480588
0.7483502
0.7487805
0.7492645
0.749814
0.7504396
0.750948
0.7462723
0.7463491
0.7464355
0.7465368
0.7466606
0.7467779
0.7468714
0.7469738
0.7470851
0.7472056
0.7473357
0.7474756
0.7476253
0.7477839
0.7479495
0.7482067
0.748584
0.749004
0.7494759
0.7500122
0.7504838
0.7508325
0.7463151
0.7464932
0.7467063
0.7469567
0.7463092
0.7464733
0.7466709
0.746915
0.7472119
0.7463035
0.7464534
0.7466319
0.7468542
0.7471433
0.747436
0.7462981
0.7464343
0.7465934
0.7467881
0.7470471
0.7473589
0.7475974
0.746293
0.7464166
0.746557
0.7467219
0.7469352
0.7472656
0.7475213
0.7477735
0.7462884
0.7464004
0.7465237
0.7466587
0.7467983
0.7462843
0.7463863
0.7464949
0.7466061
0.7467048
0.7462808
0.7463744
0.7464714
0.7465653
0.7466406
0.7462779
0.7463649
0.7464532
0.7465353
0.7465971
0.7462758
0.7463578
0.74644
0.7465147
0.7465691
0.7462742
0.7463529
0.7464314
0.7465025
0.7465536
0.7462733
0.7463499
0.7464269
0.7464973
0.7465489
0.7462727
0.7463486
0.7464256
0.7464983
0.7465542
0.7549025
0.7462726
0.7463484
0.7464269
0.7465046
0.7465699
0.7532093
0.7539958
0.7462726
0.7463488
0.7464297
0.7465146
0.7465975
0.7514249
0.7520647
0.7528816
0.7462726
0.7463494
0.7464328
0.7465259
0.7466403
0.7468115
0.7469323
0.7470587
0.7471942
0.7473416
0.747504
0.7476856
0.7478929
0.748137
0.7484405
0.74916
0.750061
0.7509672
0.7519079
0.7462726
0.7463497
0.7464348
0.746533
0.7466569
0.7467996
0.7469096
0.7470275
0.7471545
0.7472925
0.7474436
0.7476104
0.7477969
0.7480079
0.7482485
0.7486696
0.7492919
0.7499736
0.7507329
0.7515487
0.7462724
0.7463493
0.746435
0.7465352
0.7466602
0.7467881
0.7468893
0.7469992
0.7471183
0.7472475
0.7473878
0.747541
0.7477085
0.7478916
0.7480897
0.74841
0.7488853
0.7494144
0.7500095
0.7506842
0.7512391
0.746272
0.746348
0.7464332
0.7465331
0.7466559
0.7467749
0.7468694
0.7469727
0.7470848
0.7472061
0.7473371
0.7474786
0.7476307
0.7477932
0.7479641
0.7482324
0.7486272
0.7490653
0.7495554
0.7501103
0.7505981
0.7509643
0.7462712
0.7463457
0.7464293
0.7465273
0.7466467
0.7467596
0.7468492
0.7469472
0.7470535
0.7471682
0.7472915
0.7474237
0.7475644
0.7477126
0.747866
0.7481046
0.7484537
0.748838
0.7492639
0.7497406
0.7501536
0.7504983
0.7508481
0.7463099
0.7464757
0.7466759
0.7469236
0.7472228
0.7463048
0.7464577
0.7466411
0.7468706
0.7471656
0.7474496
0.7462997
0.7464401
0.7466058
0.7468116
0.7470831
0.7473772
0.7476074
0.7462949
0.7464231
0.7465715
0.7467517
0.746991
0.7472832
0.7475292
0.747777
0.7462902
0.7464071
0.7465388
0.7466922
0.7468891
0.7471938
0.7474337
0.7476948
0.7479554
0.7462859
0.7463923
0.7465085
0.7466348
0.7467639
0.7462821
0.7463793
0.7464822
0.7465866
0.7466783
0.7462789
0.7463683
0.7464605
0.746549
0.7466193
0.7462763
0.7463595
0.7464436
0.7465214
0.7465793
0.7462742
0.7463529
0.7464314
0.7465025
0.7465536
0.7462728
0.7463484
0.7464236
0.7464913
0.7465396
0.7462719
0.7463457
0.7464195
0.7464868
0.7465357
0.7555343
0.7462715
0.7463445
0.7464186
0.7464882
0.7465414
0.7540808
0.7549601
0.7462713
0.7463444
0.74642
0.7464945
0.746557
0.7525945
0.7532772
0.7541387
0.7462714
0.746345
0.746423
0.7465046
0.746584
0.7510312
0.7515629
0.7522889
0.753172
0.7462715
0.7463457
0.7464262
0.7465158
0.7466258
0.7467901
0.7469054
0.7470256
0.747154
0.747293
0.7474455
0.7476148
0.7478066
0.7480306
0.7483066
0.748965
0.7497767
0.7505739
0.7514278
0.7523478
0.7462715
0.7463461
0.7464283
0.746523
0.7466422
0.7467793
0.7468845
0.7469969
0.7471176
0.7472483
0.7473906
0.747547
0.7477207
0.7479158
0.748136
0.7485221
0.749089
0.7496985
0.7503672
0.7511179
0.7517485
0.7462713
0.7463458
0.7464287
0.7465254
0.7466459
0.7467689
0.7468657
0.7469708
0.7470842
0.7472068
0.7473396
0.7474837
0.7476406
0.7478108
0.7479934
0.7482888
0.7487254
0.7492046
0.7497344
0.7503291
0.7508519
0.7512564
0.7462709
0.7463446
0.7464271
0.7465237
0.7466422
0.7467567
0.7468474
0.7469462
0.7470532
0.7471686
0.7472929
0.7474266
0.7475696
0.7477215
0.7478799
0.7481289
0.7484945
0.7488954
0.7493376
0.7498303
0.7502557
0.750613
0.7509804
0.7462702
0.7463425
0.7464235
0.7465183
0.7466336
0.7467425
0.7468285
0.7469224
0.7470241
0.7471335
0.7472508
0.747376
0.7475088
0.747648
0.747791
0.7480138
0.7483393
0.7486942
0.7490829
0.7495119
0.749872
0.7501669
0.7505126
0.7508636
0.7463054
0.7464599
0.7466457
0.7468786
0.747176
0.7474564
0.7463009
0.7464441
0.7466144
0.7468269
0.7471038
0.7473901
0.7476154
0.7462964
0.7464285
0.7465832
0.7467737
0.7470244
0.7473002
0.7475388
0.7477816
0.746292
0.7464133
0.7465525
0.7467202
0.7469412
0.7472102
0.7474411
0.7476981
0.7479562
0.7462877
0.7463986
0.7465229
0.7466664
0.7468492
0.7471305
0.7473498
0.7475943
0.7478651
0.7481372
0.7462838
0.7463851
0.7464951
0.7466138
0.746734
0.7462802
0.746373
0.7464707
0.7465694
0.746655
0.7462772
0.7463627
0.7464506
0.7465345
0.7466004
0.7462747
0.7463545
0.7464349
0.7465088
0.7465633
0.7462728
0.7463484
0.7464236
0.7464913
0.7465396
0.7462715
0.7463442
0.7464163
0.746481
0.7465268
0.7558461
0.7462707
0.7463417
0.7464126
0.7464771
0.7465237
0.7546395
0.7555869
0.7462703
0.7463407
0.746412
0.7464788
0.7465296
0.7533791
0.7541307
0.7550731
0.7462702
0.7463408
0.7464136
0.7464852
0.746545
0.7521064
0.7526558
0.7534024
0.7543343
0.7462703
0.7463414
0.7464167
0.7464952
0.7465715
0.7507085
0.7511584
0.7517661
0.7525463
0.7534797
0.7462704
0.7463422
0.74642
0.7465063
0.7466122
0.7467702
0.7468805
0.7469951
0.7471171
0.7472488
0.7473924
0.7475512
0.7477299
0.7479372
0.7481908
0.7487994
0.7495403
0.7502499
0.7509921
0.7518205
0.7525513
0.7462704
0.7463427
0.7464222
0.7465136
0.7466285
0.7467603
0.7468611
0.7469685
0.7470836
0.7472076
0.7473422
0.7474895
0.7476522
0.7478338
0.7480372
0.7483945
0.7489164
0.7494687
0.7500623
0.7507179
0.7512975
0.7517671
0.7462703
0.7463425
0.7464228
0.7465162
0.7466325
0.7467509
0.7468438
0.7469443
0.7470526
0.7471693
0.7472953
0.7474315
0.747579
0.7477383
0.7479078
0.7481824
0.7485871
0.7490259
0.7495038
0.7500306
0.7504826
0.7508676
0.7512734
0.7462699
0.7463415
0.7464214
0.7465148
0.7466293
0.7467396
0.7468267
0.7469215
0.7470238
0.7471339
0.7472521
0.7473788
0.7475138
0.7476564
0.7478042
0.7480369
0.7483779
0.7487483
0.7491519
0.7495951
0.7499653
0.7502693
0.7506276
0.7509963
0.7462693
0.7463395
0.746418
0.7465098
0.7466214
0.7467264
0.7468092
0.7468993
0.7469966
0.7471012
0.747213
0.747332
0.7474578
0.7475889
0.747723
0.7479321
0.7482374
0.7485678
0.7489261
0.7493167
0.7496351
0.7498844
0.75018
0.7505267
0.7508789
0.7463015
0.7464462
0.7466188
0.7468343
0.7471134
0.7473966
0.7476196
0.7462975
0.7464323
0.7465913
0.7467879
0.7470436
0.7473122
0.7475464
0.7477856
0.7462934
0.7464184
0.7465636
0.7467408
0.7469723
0.747226
0.74745
0.7477026
0.7479574
0.7462894
0.7464045
0.7465359
0.7466928
0.7468981
0.7471458
0.7473567
0.7475974
0.747866
0.7481361
0.7462854
0.7463911
0.7465087
0.7466437
0.7468145
0.7470759
0.7472762
0.7474989
0.7477517
0.7480349
0.7483213
0.7462818
0.7463785
0.7464831
0.7465952
0.7467078
0.7462784
0.7463672
0.7464604
0.7465539
0.7466344
0.7462756
0.7463576
0.7464415
0.7465213
0.7465835
0.7462733
0.7463499
0.7464269
0.7464973
0.7465489
0.7462715
0.7463442
0.7464163
0.746481
0.7465268
0.7558461
0.7462703
0.7463403
0.7464096
0.7464715
0.7465151
0.7549149
0.7558975
0.7462695
0.7463381
0.7464063
0.7464681
0.7465125
0.7538815
0.7546846
0.7556916
0.7462692
0.7463372
0.7464059
0.74647
0.7465186
0.752827
0.753424
0.7542283
0.755238
0.7462691
0.7463374
0.7464076
0.7464765
0.7465339
0.7517095
0.7521629
0.752769
0.7535734
0.7545726
0.7462692
0.7463381
0.7464108
0.7464865
0.7465598
0.7504367
0.7508272
0.7513459
0.7519994
0.7528183
0.753645
0.7462694
0.746339
0.7464141
0.7464975
0.7465995
0.7467515
0.7468573
0.7469669
0.7470831
0.7472081
0.747344
0.7474935
0.7476611
0.7478543
0.7480892
0.7486564
0.74934
0.7499817
0.7506358
0.7513488
0.7520019
0.7525702
0.7462694
0.7463395
0.7464165
0.7465047
0.7466157
0.7467427
0.7468394
0.7469422
0.747052
0.7471701
0.7472978
0.747437
0.7475902
0.7477602
0.7479495
0.7482826
0.7487673
0.7492736
0.7498085
0.7503867
0.7508817
0.7513142
0.7517852
0.7462693
0.7463394
0.7464172
0.7465076
0.7466199
0.746734
0.7468233
0.7469197
0.7470233
0.7471346
0.7472544
0.7473835
0.7475228
0.7476725
0.7478308
0.7480877
0.7484656
0.7488714
0.7493077
0.7497809
0.7501729
0.7504969
0.750883
0.75129
0.746269
0.7463385
0.746416
0.7465064
0.7466171
0.7467236
0.7468074
0.7468983
0.7469964
0.7471016
0.7472143
0.7473347
0.7474626
0.747597
0.7477356
0.7479542
0.7482741
0.748619
0.7489911
0.7493945
0.7497216
0.749978
0.7502827
0.7506421
0.7510119
0.7462684
0.7463366
0.7464129
0.7465018
0.7466098
0.7467113
0.746791
0.7468776
0.746971
0.7470711
0.7471779
0.7472912
0.7474106
0.7475347
0.7476608
0.7478581
0.7481457
0.7484551
0.7487881
0.7491474
0.7494328
0.7496467
0.7498966
0.750193
0.7505406
0.7508967
0.746298
0.7464343
0.7465954
0.7467949
0.7470526
0.7473182
0.7475504
0.7477877
0.7462945
0.746422
0.7465712
0.7467542
0.7469903
0.7472371
0.747457
0.7477063
0.7479583
0.7462908
0.7464094
0.7465464
0.7467123
0.7469273
0.7471606
0.747365
0.7476016
0.7478672
0.7481342
0.746287
0.7463967
0.7465211
0.7466688
0.7468607
0.7470902
0.7472826
0.7475018
0.7477526
0.7480339
0.7483176
0.7462834
0.7463843
0.7464961
0.7466237
0.7467841
0.7470285
0.7472127
0.7474153
0.7476449
0.7479083
0.7482058
0.7485103
0.7462799
0.7463725
0.7464722
0.7465785
0.7466846
0.7462768
0.7463619
0.746451
0.7465399
0.7466159
0.7462741
0.7463529
0.7464333
0.7465093
0.7465682
0.7462719
0.7463457
0.7464195
0.7464868
0.7465357
0.7555343
0.7462703
0.7463403
0.7464096
0.7464715
0.7465151
0.7549149
0.7558975
0.7462691
0.7463367
0.7464033
0.7464627
0.7465043
0.754129
0.7549588
0.756
0.7462684
0.7463346
0.7464003
0.7464597
0.7465022
0.7532881
0.753922
0.7547743
0.7558474
0.7462681
0.7463339
0.7464001
0.7464619
0.7465084
0.7523801
0.7528683
0.7535119
0.7543705
0.7554513
0.7462681
0.7463341
0.746402
0.7464684
0.7465235
0.7513764
0.7517623
0.7522672
0.7529235
0.753781
0.7547163
0.7462682
0.746335
0.7464052
0.7464783
0.7465488
0.7502027
0.7505483
0.7510022
0.7515612
0.752246
0.7529639
0.7536608
0.7462684
0.7463359
0.7464086
0.7464892
0.7465876
0.7467342
0.7468356
0.7469406
0.7470515
0.7471705
0.7472995
0.7474409
0.7475986
0.7477797
0.7479989
0.7485309
0.7491671
0.7497549
0.7503419
0.7509653
0.7515137
0.7520187
0.7525887
0.7462685
0.7463365
0.7464111
0.7464965
0.7466036
0.7467261
0.746819
0.7469176
0.7470226
0.7471353
0.7472568
0.7473888
0.7475335
0.7476935
0.7478706
0.7481831
0.7486364
0.749105
0.7495933
0.7501117
0.7505383
0.7508969
0.7513304
0.7518028
0.7462684
0.7463365
0.7464119
0.7464994
0.746608
0.7467182
0.7468041
0.7468966
0.7469959
0.7471023
0.7472165
0.7473392
0.7474712
0.7476124
0.747761
0.7480026
0.7483575
0.7487355
0.7491379
0.7495686
0.7499142
0.7501862
0.750511
0.750898
0.7513063
0.7462681
0.7463356
0.7464109
0.7464985
0.7466057
0.7467086
0.7467892
0.7468767
0.7469707
0.7470715
0.7471791
0.7472938
0.7474152
0.7475424
0.7476729
0.7478791
0.7481807
0.7485038
0.7488496
0.7492208
0.7495138
0.7497334
0.7499905
0.750296
0.7506563
0.7510301
0.7462676
0.7463339
0.746408
0.7464943
0.7465989
0.746697
0.7467738
0.7468572
0.7469469
0.7470429
0.7471451
0.7472533
0.7473669
0.7474846
0.7476037
0.7477904
0.7480625
0.7483537
0.7486651
0.7489984
0.7492575
0.7494438
0.7496581
0.7499087
0.7502058
0.7505569
0.7509134
0.746295
0.7464239
0.746575
0.7467607
0.7469987
0.7472427
0.7474608
0.7477084
0.7479588
0.7462917
0.7464129
0.7465536
0.7467249
0.7469442
0.747171
0.7473716
0.7476051
0.7478682
0.7481324
0.7462884
0.7464014
0.7465311
0.7466872
0.7468883
0.7471041
0.7472904
0.7475056
0.7477538
0.7480323
0.748312
0.7462849
0.7463896
0.7465079
0.7466475
0.7468279
0.747042
0.7472187
0.747418
0.7476457
0.7479074
0.7482026
0.7485022
0.7462815
0.746378
0.7464846
0.7466057
0.7467572
0.746987
0.7471576
0.7473433
0.7475516
0.7477899
0.7480656
0.7483803
0.7487086
0.7462782
0.746367
0.7464623
0.7465634
0.7466638
0.7462753
0.7463571
0.7464423
0.7465271
0.7465992
0.7462727
0.7463486
0.7464256
0.7464983
0.7465542
0.7549025
0.7462707
0.7463417
0.7464126
0.7464771
0.7465237
0.7546395
0.7555869
0.7462691
0.7463367
0.7464033
0.7464627
0.7465043
0.754129
0.7549588
0.756
0.746268
0.7463333
0.7463975
0.7464545
0.7464943
0.7535152
0.7541683
0.7550462
0.7561535
0.7462674
0.7463314
0.7463948
0.7464519
0.7464926
0.752809
0.7533253
0.7540025
0.7549075
0.7560532
0.7462671
0.7463308
0.7463948
0.7464542
0.746499
0.7520055
0.7524186
0.7529493
0.75364
0.7545541
0.7555873
0.7462671
0.7463311
0.7463968
0.7464608
0.7465138
0.7510897
0.751426
0.7518596
0.7524097
0.7531111
0.7539058
0.7547303
0.7462673
0.746332
0.7464
0.7464706
0.7465386
0.7499973
0.7503081
0.7507128
0.7512031
0.7517887
0.752378
0.7529778
0.7536767
0.7462675
0.746333
0.7464034
0.7464814
0.7465764
0.7467179
0.7468154
0.746916
0.7470222
0.7471357
0.7472584
0.7473925
0.7475416
0.7477121
0.7479177
0.7484192
0.7490154
0.7495592
0.7500936
0.7506496
0.7511177
0.751529
0.7520352
0.7526067
0.7462676
0.7463336
0.746406
0.7464886
0.7465923
0.7467105