/*--------------------------------*- C++ -*----------------------------------*\
| =========                 |                                                 |
| \\      /  F ield         | OpenFOAM: The Open Source CFD Toolbox           |
|  \\    /   O peration     | Version:  2306                                  |
|   \\  /    A nd           | Website:  www.openfoam.com                      |
|    \\/     M anipulation  |                                                 |
\*---------------------------------------------------------------------------*/
FoamFile
{
    version     2.0;
    format      ascii;
    arch        "LSB;label=32;scalar=64";
    class       volScalarField;
    location    "0.6";
    object      contErrCp;
}
// * * * * * * * * * * * * * * * * * * * * * * * * * * * * * * * * * * * * * //

dimensions      [1 -1 -3 -1 0 0 0];

internalField   nonuniform List<scalar> 
52000
(
0
0
0
0
0
0
0
0
0
0
0
0
0
0
0
0
0
0
0
0
0
0
0
0
0
0
0
0
0
0
0
0
0
0
0
0
0
0
0
0
0
0
0
0
0
0
0
0
0
0
0
0
0
0
0
0
0
0
0
0
0
0
0
0
0
0
0
0
0
0
0
0
0
0
0
0
0
0
0
0
0
0
0
0
0
0
0
0
0
0
0
0
0
0
0
0
0
0
0
0
0
0
0
0
0
0
0
0
0
0
0
0
0
0
0
0
0
0
0
0
0
0
0
0
0
0
0
0
0
0
0
0
0
0
0
0
0
0
0
0
0
0
0
0
0
0
0
0
0
0
0
0
0
0
0
0
0
0
0
0
0
0
0
0
0
0
0
0
0
0
0
0
0
0
0
0
0
0
0
0
0
0
0
0
0
0
0
0
0
0
0
0
0
0
0
0
0
0
0
0
0
0
0
0
0
0
0
0
0
0
0
0
0
0
0
0
0
0
0
0
0
0
0
0
0
0
0
0
0
0
0
0
0
0
0
0
0
0
0
0
6.426644e-05
0
0
0
0
0
0
0
0
0
0
0
0
0
0
0
0
0
0
0
0
0
0
0
0
0
0
0
0
0
0
0
0
0
0
0
0
0
0
0
0
0
0
0
0
0
0
0
0
0
0
0
0
0
0
0
0
0
0
0
0
0
0
0
0
0
-5.331734e-05
0
0
0
0
0
-0.0003274586
0.0001490102
0
0
0
0
0
0
0
0
0
0
0
0
0
0
0
0
0
0
0
0
0
0
0
0
0
0
0
0
0
0
0
0
0
0
0
0
0
0
0
0
0
0
0
0
0
0
0
0
0
0
0
0
0
0
0
0
0
0
0
0
0
0
0
0
0
0
0
0
0
0
-4.89696e-05
0
0
0
0
0
0.0003510111
0.0004341523
0
0
0
0
0
-2.107686e-05
0.0005685173
-2.47736e-05
0
0
0
0
0
0
0
0
0
0
0
0
0
0
0
0
0
0
0
0
0
0
0
0
0
0
0
0
0
0
0
0
0
0
0
0
0
0
0
0
0
0
0
0
0
0
0
0
0
0
0
0
0
0
0
0
0
0
0
0
0
0
0
0
0
0
0
0
0
0
0
0
0
0
0
4.370001e-06
0
0
0
0
0
-0.0005952955
-0.001451655
0
0
0
0
0
-0.000417851
-0.0004309339
-0.0002544994
0
0
0
0
0
-2.003801e-05
-5.980891e-05
0.0006788557
-0.0002536568
0
0
0
0
0
0
0
0
0
0
0
0
0
0
0
0
0
0
0
0
0
0
0
0
0
0
0
0
0
0
0
0
0
0
0
0
0
0
0
0
0
0
0
0
0
0
0
0
0
0
0
0
0
0
0
0
0
0
0
0
0
0
0
0
0
0
0
0
0
0
0
0
0
0
0
0
0
0
0
0
-0.000135011
0
0
0
0
0
0.0006816972
0.000456326
0
0
0
0
0
0.0008074023
-0.000245507
0.001921291
0
0
0
0
0
0.0001378096
0.0002059702
-0.0010819
-0.0004701354
0
0
0
0
0
-0.000189476
0.0002391401
0.0001326555
-0.0008034725
-0.0002964919
0
0
0
0
0
0
0
0
0
0
0
0
0
0
0
0
0
0
0
0
0
0
0
0
0
0
0
0
0
0
0
0
0
0
0
0
0
0
0
0
0
0
0
0
0
0
0
0
0
0
0
0
0
0
0
0
0
0
0
0
0
0
0
0
0
0
0
0
0
0
0
0
0
0
0
0
0
0
0
0
0
0
0
0
0
-0.0001691968
0
0
0
0
0
9.250934e-05
-0.000309426
0
0
0
0
0
-0.0003246996
-0.000469422
-0.001279528
0
0
0
0
0
0.0002668366
-0.0007938223
0.002559448
-0.0006745896
0
0
0
0
0
7.83071e-05
-0.001609642
0.0003822521
-0.0005713984
0.001210243
0
0
0
0
0
-0.0002617002
-0.000396711
1.23682e-06
3.510586e-05
0.0006643916
0.0001914737
0
0
0
0
0
0
0
0
0
0
0
0
0
0
0
0
0
0
0
0
0
0
0
0
0
0
0
0
0
0
0
0
0
0
0
0
0
0
0
0
0
0
0
0
0
0
0
0
0
0
0
0
0
0
0
0
0
0
0
0
0
0
0
0
0
0
0
0
0
-9.870005e-07
0
0
0
0
0
0
0
0
0
0
0
0
0
0
0
0
0
0
0
0
0.0001151714
0
0
0
0
0
-0.0001075683
-0.001002342
0
0
0
0
0
0.0004796708
-3.669725e-05
0.001053958
0
0
0
0
0
-8.675443e-05
0.0001902303
-0.0006835127
0.002648596
0
0
0
0
0
-8.666097e-05
-0.0003522626
-0.0007304778
0.0001379244
-0.0006245489
0
0
0
0
0
4.849971e-05
0.0005693584
0.002222489
-0.000634664
0.0003412729
0.0002905074
0
0
0
0
0
-0.0002842717
0.0002242663
0.000847514
-0.0008145992
0.0002157506
-0.0005060665
0.0006544468
0
0
0
0
0
0
0
0
0
0
0
0
0
0
0
0
0
0
0
0
0
0
0
0
0
0
0
0
0
0
0
0
0
0
0
0
0
0
0
0
0
0
0
0
0
0
0
0
0
0
0
0
0
0
0
0
0
1.103422e-06
0
0
0
0
0
0
0
0
0
0
0
0
0
0
0
-1.60271e-06
4.173202e-07
0
0
0
0
0
0
0
0
0
0
0
0
0
0
0
0
0
0
0
0
-0.0003240886
0
0
0
0
0
-0.001028034
0.00155969
0
0
0
0
0
0.0003149622
0.0004219106
3.121831e-05
0
0
0
0
0
0.000164644
-0.0008582967
7.874567e-05
-0.001300903
0
0
0
0
0
0.0002887078
0.001372719
-2.77007e-05
-0.000218862
-0.001424658
0
0
0
0
0
-0.0002763086
0.0007327391
-0.0001384787
0.001435314
-0.0001615446
-0.001190765
0
0
0
0
0
-0.0003862395
0.0007051401
-0.001475269
-0.0006485952
0.0008319869
0.0008214524
-0.001664377
0
0
0
0
0
-8.351373e-05
-0.0003809719
0.0001525442
-0.0001212641
6.92479e-05
5.597881e-05
0.0002080774
-0.0003398417
0
0
0
0
0
0
0
0
0
0
0
0
0
0
0
0
0
0
0
0
0
0
0
0
0
0
0
0
0
0
0
0
0
0
0
0
0
0
0
0
0
0
0
0
-1.1551e-06
0
0
0
0
0
0
0
0
0
0
0
0
0
0
0
1.416304e-06
4.159201e-06
0
0
0
0
0
0
0
0
0
0
0
0
0
0
0
6.450237e-07
3.063861e-06
-5.595781e-07
0
0
0
0
0
0
0
0
0
0
0
0
0
0
0
0
0
0
0
0
0.0001389221
0
0
0
0
0
0.0004998225
0.0003208451
0
0
0
0
0
-0.0004260103
0.0005260786
-0.0007771036
0
0
0
0
0
-0.0002135084
9.438326e-05
-0.001296682
0.001154804
0
0
0
0
0
0.0001328611
-0.0009417791
-0.000268824
-0.0002606965
0.0007956112
0
0
0
0
0
0.0009924593
-0.0007835234
-0.0009893421
-0.0006725202
-0.0003302065
0.0006318411
0
0
0
0
0
0.0001348894
-0.0007380605
-0.0002788436
0.0008812071
-0.0004125833
-0.000470103
0.0001640262
0
0
0
0
0
0.0006572254
0.002340994
-0.0009491956
0.0002831077
0.001024467
-0.0005387244
0.0004323663
0.0001741327
0
0
0
0
0
5.642533e-05
0.0008133493
-0.0002393359
0.0004418836
0.0006636195
-3.439614e-05
0.0005195606
-0.0001539749
0.0001380133
0
0
0
0
0
0
0
0
0
0
0
0
0
0
0
0
0
0
0
0
0
0
0
0
0
0
0
0
0
0
3.640783e-06
0
0
0
0
0
0
0
0
0
0
0
0
0
0
0
1.255927e-06
1.951122e-07
0
0
0
0
0
0
0
0
0
0
0
0
0
0
0
2.415643e-07
-1.803377e-07
2.138733e-06
0
0
0
0
0
0
0
0
0
0
0
0
0
0
0
-6.611148e-07
2.150016e-06
3.1428e-06
-2.507541e-06
0
0
0
0
0
0
0
0
0
0
0
0
0
0
0
0
0
0
0
0
0.0001110175
0
0
0
0
0
-0.0009085321
-0.0004007617
0
0
0
0
0
0.0002306202
-0.0004071116
-0.0004714462
0
0
0
0
0
-0.0004865796
0.0003900429
0.00253805
-0.00152601
0
0
0
0
0
-0.0008721163
-8.588147e-05
-0.000164034
0.0008160184
-0.001707177
0
0
0
0
0
-0.0005959654
0.0005925928
0.001393633
-0.0001484291
7.199851e-05
0.001862092
0
0
0
0
0
0.0004749479
0.0005264729
0.0003057339
0.000862515
0.0001988089
0.0003198314
0.001559415
0
0
0
0
0
-0.0006250147
-0.001909621
-2.443159e-05
0.002116769
-0.001185015
-1.9795e-05
-0.000641685
-0.0002384078
0
0
0
0
0
0.0002723978
-0.001106576
-0.0001704714
-0.001790004
0.00010389
-0.0005198393
-0.001131685
-0.001529812
-0.0004985658
0
0
0
0
0
-6.528625e-05
0.0002115231
-0.0009810379
0.0001924031
-0.0004538579
-0.001247804
-3.382282e-05
-0.000526199
-0.0001839429
0.0001379409
0
0
0
0
0
0
0
0
0
0
0
0
0
0
0
3.534934e-06
0
0
0
0
0
0
0
0
0
0
0
0
0
0
0
3.704352e-06
-2.85131e-06
0
0
0
0
0
0
0
0
0
0
0
0
0
0
0
3.047791e-06
-1.23313e-06
9.677118e-07
0
0
0
0
0
0
0
0
0
0
0
0
0
0
0
4.038374e-06
-5.25171e-07
2.640392e-06
-4.786483e-06
0
0
0
0
0
0
0
0
0
0
0
0
0
0
0
1.124941e-07
-6.050349e-07
3.649578e-06
-2.691508e-06
1.6442e-06
0
0
0
0
0
0
0
0
0
0
0
0
0
0
0
0
0
0
0
0
0
0
0
0
0
0.000313614
3.348099e-05
0
0
0
0
0
-0.00111419
0.0009572445
0.0004868303
0
0
0
0
0
0.0005739914
-0.001039668
6.224504e-05
0.001655314
0
0
0
0
0
-8.982384e-05
0.001423554
-0.0004945992
-0.002965399
0.001190289
0
0
0
0
0
6.917029e-05
0.001223115
-0.0001039573
-0.000198087
-0.0003735466
-0.001301106
0
0
0
0
0
-0.0003748859
0.0002363026
-0.0005250013
0.0002022693
0.0005694368
-3.942481e-05
-0.0007080409
0
0
0
0
0
0.0001122155
0.0002838721
0.0006541841
-0.001101368
-0.002117456
0.000595342
0.0002846574
-0.001986877
0
0
0
0
0
6.271807e-05
0.0009058617
0.000163506
0.001354373
-0.002796636
0.0008655122
3.85478e-05
0.002856479
0.001627273
0
0
0
0
0
-0.0008117154
0.000181768
0.0004922486
-0.00138617
0.0005630575
0.001581032
-5.203642e-05
0.0001665752
0.0009233314
-0.0001061659
0
0
0
0
0
-0.0001447764
9.37419e-06
-0.0002103568
0.0004420897
0.0005148444
-0.0007074148
0.0003512127
-0.0005538252
-4.132659e-06
-0.0004191007
-4.917805e-05
0
0
0
0
0
0
0
0
0
0
0
0
0
0
0
-4.760389e-07
-9.628032e-07
0
0
0
0
0
0
0
0
0
0
0
0
0
0
0
2.561439e-06
-2.453764e-06
-1.29436e-07
0
0
0
0
0
0
0
0
0
0
0
0
0
0
0
-1.730775e-06
-2.709257e-06
2.720418e-06
9.930854e-07
0
0
0
0
0
0
0
0
0
0
0
0
0
0
0
-3.549179e-07
1.871254e-06
-1.013333e-06
-5.218852e-06
5.198131e-07
0
0
0
0
0
0
0
0
0
0
0
0
0
0
0
7.610112e-07
6.766155e-07
1.508348e-07
8.361058e-07
2.481878e-07
-5.344775e-06
0
0
0
0
0
0
0
0
0
0
0
0
0
0
0
0
0
0
0
0
0
0
0
0
0
0
0
0
0
0
0.0002277945
-0.0005339246
-0.0002404304
0
0
0
0
0
-0.0006161281
0.001899764
-0.000342464
-0.0002882991
0
0
0
0
0
-0.0003112889
-0.00246206
-0.0003011746
0.002191313
-0.0009252913
0
0
0
0
0
-7.782997e-05
0.0007311692
0.0006028084
-0.0004298536
0.0008264332
-0.0002615852
0
0
0
0
0
-0.0005111156
-0.001003041
-0.0003745246
-0.001672763
0.0003078847
-0.0002429341
0.00046298
0
0
0
0
0
-0.0003233823
-0.000247782
-0.001875979
0.0004587614
-0.0001775733
-0.001130954
-0.001131771
0.001008288
0
0
0
0
0
-0.0001495017
-0.0001894464
3.81373e-05
-0.001771859
0.001381734
0.0005904905
-0.0004954162
-0.001569097
-0.001332558
0
0
0
0
0
0.0005270034
-0.0008955578
-0.0006675532
-0.0006310052
0.0007870422
-0.0002591371
0.0005913793
0.001674446
-0.001654514
-0.0006410399
0
0
0
0
0
0.0006325152
0.0004148777
0.0002997646
-0.001131863
0.0001749703
0.0003768792
-0.001131269
0.001140178
0.0008673627
0.001119555
-0.0001324249
0
0
0
0
0
-0.0001362494
0.0006796252
-0.0001902051
0.0003786686
-0.0001940744
7.726567e-05
0.0009031201
-0.0001912438
-5.456524e-05
-0.0002913134
3.067863e-05
5.025192e-07
0
0
0
0
0
0
0
0
0
0
0
0
0
0
0
-6.663801e-07
-4.773681e-07
-4.628779e-07
0
0
0
0
0
0
0
0
0
0
0
0
0
0
0
8.336571e-07
-1.156792e-06
5.631269e-07
5.089452e-06
0
0
0
0
0
0
0
0
0
0
0
0
0
0
0
-9.256713e-07
1.809188e-06
2.353805e-06
1.357052e-06
-7.443943e-07
0
0
0
0
0
0
0
0
0
0
0
0
0
0
0
-1.266069e-06
2.037535e-06
3.933265e-07
-1.638695e-06
1.244142e-06
-2.237143e-05
0
0
0
0
0
0
0
0
0
0
0
0
0
0
0
-1.529687e-06
-2.753057e-06
-2.200803e-06
-1.807283e-06
-2.216866e-07
-2.100549e-05
7.002349e-06
0
0
0
0
0
0
0
0
0
0
0
0
0
0
0
0
0
0
0
0
0
0
0
0
0
0
0
0
0
0
0
0
0
0
0
-0.0001068965
-0.0004135329
-0.0003893034
0.0005046589
0
0
0
0
0
-4.334712e-05
0.002504868
0.0003194992
-0.001444715
-0.0005497179
0
0
0
0
0
0.0003787066
0.0004341909
2.429342e-05
0.0009117554
-0.001524471
0.001543144
0
0
0
0
0
-0.0003910626
0.0002204979
-0.0009515332
4.601388e-05
0.001105546
-0.000190418
-0.000504646
0
0
0
0
0
0.0001623916
0.0004805707
0.001465987
-0.0006426656
0.001784471
-0.0002520612
0.001801969
0.0001403002
0
0
0
0
0
-0.000700872
0.0001326192
0.0002993717
0.002251402
-0.0004047205
-5.961598e-05
0.0001580536
-3.723226e-05
0.000377107
0
0
0
0
0
0.0004396995
-5.226377e-05
7.389826e-05
0.0006185728
-0.0005278925
-0.0005332025
-4.42472e-06
-6.649459e-05
0.001099788
0.00122391
0
0
0
0
0
-0.0003907298
0.0007094468
0.0001717347
-0.0003224691
0.001272701
0.0006884527
0.0009619465
1.558874e-05
-0.002127526
-0.001113521
-0.0001291136
0
0
0
0
0
0.0003153305
-0.001354113
0.001694112
0.000137779
0.001295749
-0.0005812131
-0.00304733
0.0001276563
-0.0008959073
0.0004563826
-0.0002544092
-3.690862e-07
0
0
0
0
0
0.0002248074
-7.781085e-06
-0.0006654685
-0.0004123341
-0.0001558906
1.403659e-05
0.0001070047
-0.0002229141
-0.0004557654
-0.000149088
6.465638e-05
3.163751e-06
-1.156131e-06
0
0
0
0
0
0
0
0
0
0
0
0
0
0
0
2.517601e-06
-1.039945e-06
1.84922e-07
-3.235009e-06
0
0
0
0
0
0
0
0
0
0
0
0
0
0
0
-8.271893e-09
-3.698385e-06
3.263927e-06
1.58098e-06
-6.465423e-06
0
0
0
0
0
0
0
0
0
0
0
0
0
0
0
8.62463e-08
-9.988664e-07
2.518039e-06
-1.638199e-06
-4.010888e-06
-2.135234e-05
0
0
0
0
0
0
0
0
0
0
0
0
0
0
0
4.228061e-07
1.431875e-06
1.541172e-06
6.846757e-07
9.316073e-07
-2.271874e-05
-1.740605e-05
0
0
0
0
0
0
0
0
0
0
0
0
0
0
0
1.207325e-07
1.533411e-06
1.622231e-06
2.232366e-06
2.429861e-06
1.799273e-06
1.81812e-05
-1.887438e-05
0
0
0
0
0
0
0
0
0
0
0
0
0
0
0
0
0
0
0
0
0
0
0
0
0
0
0
0
0
0
0
0
0
0
0
0
0
0
0
0
-4.924224e-05
-0.0005255606
9.151223e-05
0.0007329846
0.0002305219
0
0
0
0
0
-0.0007695959
8.884648e-05
-0.001567733
-0.001792097
0.000708106
6.403485e-05
0
0
0
0
0
0.00091499
0.0004058689
-0.0004384148
0.0007956827
-0.0003207629
0.001123683
0.0004044147
0
0
0
0
0
0.0004472914
7.571547e-05
0.0003626394
0.0009489167
1.483188e-05
-0.0008668927
-0.000351823
-0.001439979
0
0
0
0
0
-0.000367586
0.0001395621
0.0002716935
-0.001402729
-2.067319e-05
0.000692994
0.0001172328
0.0001810505
-0.0006057191
0
0
0
0
0
-0.0005918887
0.001070985
0.0006855091
-0.0003809068
-0.0008425162
2.133199e-05
-8.104799e-06
0.0001204481
-0.0004983065
0.000110003
0
0
0
0
0
-0.0002872018
-0.002347949
-0.001617146
0.000518784
-0.000280485
0.00115993
-9.254277e-05
-0.0009851277
0.0007684504
0.001154862
-0.0001546506
0
0
0
0
0
-2.925051e-06
0.0002338653
-0.001387227
-0.0003317198
-0.0005458174
0.0005970691
0.0002855496
-0.0002637125
-0.000645651
0.0002602598
-0.0001695752
1.180385e-06
0
0
0
0
0
0.0005380335
-8.512411e-05
0.001153547
-0.0008786135
-0.0007481583
0.0001538216
-2.096338e-05
0.001352962
0.0009867416
0.0004372461
0.0001279492
1.721758e-06
5.016821e-06
0
0
0
0
0
-0.0003017825
-0.0002268795
-0.0002978394
0.0005498641
0.0008950784
0.0003421503
0.000194088
0.0001964324
-0.0001210167
0.0002082973
-4.682678e-05
-2.165767e-06
-9.640399e-07
-2.423511e-06
0
0
0
0
0
0
0
0
0
0
0
0
0
0
0
2.375021e-06
-8.760576e-07
-1.952354e-06
-2.48041e-06
-6.758345e-07
0
0
0
0
0
0
0
0
0
0
0
0
0
0
0
4.654671e-07
5.528446e-07
-6.866395e-08
-3.115913e-06
-1.731128e-06
-1.181852e-05
0
0
0
0
0
0
0
0
0
0
0
0
0
0
0
-1.586683e-06
-3.122529e-06
5.516295e-06
9.153914e-07
-4.300979e-07
4.91893e-06
5.305813e-06
0
0
0
0
0
0
0
0
0
0
0
0
0
0
0
-1.793549e-07
6.808446e-07
-2.184924e-06
-2.229236e-06
4.122742e-07
-5.739972e-06
1.888933e-05
-1.80273e-05
0
0
0
0
0
0
0
0
0
0
0
0
0
0
0
-5.266046e-07
-1.667667e-06
-2.077557e-07
-2.175299e-06
-7.989739e-07
-6.500905e-07
1.648421e-05
-7.456135e-06
1.367779e-05
0
0
0
0
0
0
0
0
0
0
0
0
0
0
0
0
0
0
0
0
0
0
0
0
0
0
0
0
0
0
0
0
0
0
0
0
0
0
0
0
0
0
0
0
0
0.000216277
0.0001235375
0.0003155614
-2.71649e-05
-6.828516e-05
-0.0003507452
0
0
0
0
0
-0.0005663971
-0.0001154394
-0.0007877493
0.0004724254
0.0006705132
-0.001124496
0.0008169153
0
0
0
0
0
-0.0008034535
-0.0006433926
0.0002040333
0.0009711143
-0.0001882819
0.0005353751
-0.0007597926
0.001549127
0
0
0
0
0
0.0003766391
-0.0003390456
-0.000564499
-0.0003819962
-0.0007859747
-0.0007573988
0.002034103
0.001011985
0.0007107441
0
0
0
0
0
-0.0001384792
0.001028233
0.0007153352
-0.0009908018
0.00132843
-0.0006822254
0.0001379305
0.0006449641
0.0001609171
0.000648173
0
0
0
0
0
0.0002952039
0.001378262
0.0004148828
-0.0005934053
0.0004288006
-0.0003807746
0.0001747092
-0.0005737997
-0.0001248831
-0.000321439
-0.0001955812
0
0
0
0
0
0.0003697092
0.0009265973
0.0009585941
0.0007089284
-0.00070931
-0.0001987802
0.0008532399
-8.216453e-05
-0.0002438784
4.941782e-05
-0.0007590285
-1.58997e-07
0
0
0
0
0
7.283526e-05
0.0002913462
-0.0007631489
0.0008009959
0.0002818092
0.0005294451
-0.000690051
-0.0007748775
-0.0006177578
0.0004023193
-9.602231e-06
1.395414e-06
-4.137719e-07
0
0
0
0
0
8.832069e-05
-0.000540831
0.0003540711
-0.0001156093
-0.001201895
0.0002816873
0.0004048822
-0.0007262622
-0.0001719423
0.0005230787
-0.0004663481
-1.590118e-06
1.015062e-06
-2.107338e-06
0
0
0
0
0
0.0001556877
0.0006249373
0.0001163709
4.402407e-05
-0.0002273365
-0.0005167893
-0.000313259
-0.0006102806
-0.001066238
-0.0003035225
-9.123232e-05
1.664047e-06
-2.021101e-06
4.652996e-07
1.49219e-06
0
0
0
0
0
0
0
0
0
0
0
0
0
0
0
3.299579e-07
-8.3396e-07
-2.094141e-06
2.508753e-06
2.574072e-06
-5.299571e-06
0
0
0
0
0
0
0
0
0
0
0
0
0
0
0
9.421006e-07
-1.456637e-06
-6.681219e-07
-5.252005e-07
-2.537497e-06
1.063308e-05
-5.659494e-06
0
0
0
0
0
0
0
0
0
0
0
0
0
0
0
2.339424e-07
6.311175e-07
3.727928e-06
-2.539292e-06
-1.536464e-06
4.226177e-07
-1.670788e-06
6.674475e-06
0
0
0
0
0
0
0
0
0
0
0
0
0
0
0
-1.060763e-06
2.84798e-06
-1.954576e-06
-3.184886e-06
4.097631e-07
-1.602217e-05
6.371403e-06
-8.465849e-06
1.560457e-05
0
0
0
0
0
0
0
0
0
0
0
0
0
0
0
1.368915e-06
1.296608e-06
5.948517e-07
-1.896487e-07
5.866995e-07
1.388533e-05
-5.359396e-06
-2.803302e-05
-4.54138e-06
-9.084324e-06
0
0
0
0
0
0
0
0
0
0
0
0
0
0
0
0
0
0
0
0
0
0
0
0
0
0
0
0
0
0
0
0
0
0
0
0
0
0
0
0
0
0
0
0
0
0
0
0
0
0
0.0003004213
-1.379315e-05
0.0002493117
1.14239e-05
-2.881541e-05
-0.0003840739
-0.0004016818
0
0
0
0
0
0.0006175539
0.0005155312
-0.0002822261
0.0005121696
-0.000609087
0.0007071263
0.0009250834
-0.0007554413
0
0
0
0
0
0.0005077276
0.0004571762
-6.247803e-05
0.0009888876
-0.0008885572
-0.0002620748
-0.002288131
-0.0004919145
-0.001394397
0
0
0
0
0
-7.076712e-05
-0.0005834431
-0.0008395218
0.00190541
-0.0008867949
0.003010078
0.001690676
-0.00260471
-0.001158912
-0.000915967
0
0
0
0
0
-0.0003921161
-7.97624e-05
-0.002260142
-0.0004644786
-0.0001373797
-0.0008911586
-0.0009584079
0.0002348092
0.00064845
-0.0002886014
-3.103671e-05
0
0
0
0
0
-0.0001510875
-0.0004648519
-0.0003094639
0.001668854
0.001543141
-0.001168775
-0.001039267
5.740755e-05
0.001261584
0.000706329
0.000261728
-4.513053e-06
0
0
0
0
0
-0.0001244835
-0.0003782225
-0.001389815
-0.0003877208
-0.0001456177
-0.001546798
0.001131969
-0.000776593
-0.0001996537
0.0003439735
0.0001097267
-9.703078e-08
1.954058e-06
0
0
0
0
0
-7.934031e-05
-0.000805995
-8.891116e-05
-0.0002526612
0.001065476
-0.001111933
0.001056873
0.0005050525
0.0002854186
-1.248896e-05
0.000132699
1.442496e-07
-1.762408e-06
2.941689e-06
0
0
0
0
0
0.0002408629
-0.000728863
-0.0004490591
-0.0009205624
3.815722e-05
0.001772294
0.0004181067
0.001300292
0.002130978
0.001140261
-0.0007844747
3.618821e-07
1.872336e-06
2.438921e-06
1.844511e-06
0
0
0
0
0
-3.204271e-05
0.0002170325
-0.0004792738
-0.0003955227
0.0001698155
-0.0003189471
-9.625333e-05
-6.890075e-05
0.0002783366
0.000938265
0.0001710606
3.327177e-06
-2.304137e-09
-4.85687e-06
-1.963644e-06
4.019094e-05
0
0
0
0
0
0
0
0
0
0
0
0
0
0
0
4.230995e-07
-8.500996e-08
1.823512e-06
-8.001858e-07
8.563149e-07
-8.760324e-06
-5.654427e-06
0
0
0
0
0
0
0
0
0
0
0
0
0
0
0
1.702738e-07
-2.699829e-06
3.640628e-06
1.516807e-06
-6.343275e-07
-1.892845e-05
-2.109442e-05
-1.046794e-05
0
0
0
0
0
0
0
0
0
0
0
0
0
0
0
-1.629191e-06
4.921016e-08
1.521586e-06
5.798176e-07
2.29041e-06
1.937369e-06
5.610519e-06
-1.377278e-05
-1.569549e-05
0
0
0
0
0
0
0
0
0
0
0
0
0
0
0
-3.360971e-07
7.724746e-07
1.185246e-06
3.223893e-07
-5.940368e-07
-6.890992e-06
-3.952845e-06
-1.3469e-05
6.228068e-07
1.363608e-05
0
0
0
0
0
0
0
0
0
0
0
0
0
0
0
1.828584e-06
-8.083933e-07
-1.443032e-06
-1.743204e-06
-1.519391e-06
-9.350352e-06
-2.762294e-05
1.462606e-06
6.407155e-06
7.977407e-06
-75679.57
0
0
0
0
0
0
0
0
0
0
0
0
0
0
0
0
0
0
0
0
0
0
0
0
0
0
0
0
0
0
0
0
0
0
0
0
0
0
0
0
0
0
0
0
0
0
0
0
0
0
0
0
0
0
0
7.081575e-05
-0.00046116
-0.0001153626
-0.0001392682
0.0002963142
-0.0001846563
-0.0003108898
0.0005842569
0
0
0
0
0
-0.0003548762
-0.001638212
0.000931589
-0.000175034
0.0006376997
-0.0007815908
3.036449e-06
0.0001815295
-0.0005377855
0
0
0
0
0
-0.0002975194
-0.0002772909
0.001728695
-0.001615635
-0.0003275185
-0.001677768
-0.0005615202
0.001246629
0.0009077544
0.001423262
0
0
0
0
0
-0.0002886766
0.0007170548
0.0001968271
0.0003521444
0.0008501737
-0.0009537225
-0.0004414296
-0.00145093
0.0004279314
-0.0001420403
6.037713e-05
0
0
0
0
0
0.0001313274
0.001129888
0.001342897
0.0003300325
-0.0003065717
-0.0004280736
0.0005233791
0.000449158
-0.0007721728
-0.001552722
-0.0001574692
-3.934396e-06
0
0
0
0
0
7.503173e-05
-0.001212996
0.0009830552
-0.000545373
-0.001392109
-0.001028853
0.0009650589
0.0005774265
0.001789835
1.837262e-05
-0.0004322115
-1.410366e-06
2.975351e-06
0
0
0
0
0
0.0006015456
0.0003851173
0.000110726
0.0001772593
-0.0006361649
0.0001382581
0.0007572251
-0.001362634
0.0008768072
-0.001120708
-0.0002750558
6.62394e-07
1.400266e-06
-3.723012e-07
0
0
0
0
0
-0.000576955
0.0002129447
-0.0004993473
-0.0004134835
5.570055e-05
-0.001660106
0.0009021465
-0.0007844411
-0.001534326
-0.001267762
6.963783e-05
-1.865615e-06
-7.265895e-06
1.490333e-06
9.437038e-08
0
0
0
0
0
0.0006228879
-0.00153884
0.0005617255
0.002131158
0.000813039
0.0007953226
-0.0009264366
-0.0007169836
-0.0006474436
-0.001065592
0.0001500315
2.233068e-06
-7.608121e-07
1.633665e-06
3.447979e-06
1.48452e-05
0
0
0
0
0
-0.0001773879
-0.0002211152
-0.0001435173
0.0003427484
-0.0001196875
-0.0001312415
3.962562e-05
3.156579e-05
0.000657974
6.902049e-06
-0.000292297
-9.28119e-08
-1.672171e-06
1.010786e-07
-3.171052e-06
-9.730093e-06
-3.922185e-05
0
0
0
0
0
0
0
0
0
0
0
0
0
0
0
6.928001e-07
1.879984e-06
1.515241e-06
2.20617e-06
-2.067035e-06
-1.558182e-06
8.713565e-06
-1.617429e-05
0
0
0
0
0
0
0
0
0
0
0
0
0
0
0
-7.558269e-07
-3.550147e-06
2.01859e-06
-3.349394e-06
-9.694219e-07
1.858117e-05
5.231645e-06
2.746338e-06
2.245021e-05
0
0
0
0
0
0
0
0
0
0
0
0
0
0
0
1.974333e-07
4.668402e-06
-2.164739e-07
-1.443104e-06
-1.041819e-06
1.621747e-07
1.645859e-06
-1.172837e-05
-1.573734e-06
-3.104318e-06
0
0
0
0
0
0
0
0
0
0
0
0
0
0
0
1.963251e-06
2.195001e-06
2.982416e-06
-1.549516e-06
-5.196373e-07
-6.893793e-06
1.697225e-06
4.613006e-06
-2.934193e-06
-1.493948e-06
-76361
0
0
0
0
0
0
0
0
0
0
0
0
0
0
0
4.739098e-07
-2.22048e-06
4.422139e-06
2.195689e-06
7.077953e-07
-6.32406e-07
1.222093e-05
2.726507e-05
-2.483432e-06
7.853797e-06
-69537.03
-76212.25
0
0
0
0
0
0
0
0
0
0
0
0
0
0
0
0
0
0
0
0
0
0
0
0
0
0
0
0
0
0
0
0
0
0
0
0
0
0
0
0
0
0
0
0
0
0
0
0
0
0
0
0
0
0
0
0
0
0
0
0
-8.788612e-05
0.0003527461
0.0006048413
-2.039632e-05
-0.0003030806
0.0003916948
-0.0001167113
0.0001632075
0.0001994418
0
0
0
0
0
0.0004535256
0.0007743593
-0.0001938363
0.0002483001
-0.0001920687
0.000607679
0.0003417871
0.0008147156
0.0004077382
-0.0003159389
0
0
0
0
0
0.0003343966
0.001036704
-0.0002992143
-0.0004939968
-0.0002746703
0.00307154
-0.001082448
0.0002647245
0.0009777644
-7.440827e-05
-0.000539162
0
0
0
0
0
-0.0002860432
-0.001360087
7.418806e-05
0.0003630072
-0.0007018114
-0.0004473137
0.001100442
0.0002804284
0.001410877
0.0003317388
0.000572834
8.422609e-07
0
0
0
0
0
0.0004898617
-8.395718e-05
-0.0003350616
0.0003634737
-0.0003604237
0.0007323344
-0.0008056279
-2.015344e-05
-0.001408409
0.001071372
0.0004337881
-1.608225e-06
8.967842e-09
0
0
0
0
0
-0.0004190498
-0.001229666
8.332966e-05
0.0001712305
0.0002165104
0.001493913
0.0001481657
0.001335928
-0.0009249399
0.0008997412
0.0001062764
-1.990637e-06
8.844707e-07
-1.810428e-07
0
0
0
0
0
0.0006546799
-0.00109695
0.000964697
0.002150229
0.0004271109
0.000894309
-0.0006810432
-0.0008768229
0.0005518503
0.0008774945
0.0006455462
7.295282e-07
9.929847e-07
2.209935e-06
-1.916883e-06
0
0
0
0
0
-1.337958e-05
0.001995942
-0.0007915275
-0.001989342
0.001009636
-0.0003472757
-0.0002570872
0.001188238
-0.0004307241
-0.0005228734
0.0002127352
2.985462e-06
1.46278e-06
1.519002e-06
9.259097e-07
1.040238e-05
0
0
0
0
0
-0.0003876706
0.0001898234
0.0007220101
-0.0007083346
0.0005792522
-0.0002283794
0.0002832667
0.0002201407
-0.00099416
-0.0004474732
0.0002700565
3.038796e-07
-2.042199e-07
-2.391244e-06
-1.104338e-06
1.588587e-05
-9.345838e-06
0
0
0
0
0
-8.025965e-05
0.0002747554
0.0003701068
0.0005604069
0.0002141603
-0.0003791793
1.339197e-05
-0.0002125345
-0.000386337
1.706641e-05
3.904499e-05
-3.368867e-06
3.378581e-06
2.36508e-06
4.229216e-06
-2.065688e-05
1.707213e-05
-6.32322e-06
0
0
0
0
0
0
0
0
0
0
0
0
0
0
0
-2.536401e-06
3.836811e-06
-1.521752e-06
1.561268e-06
-2.303127e-06
-1.806965e-05
7.736549e-06
2.022047e-06
-2.16582e-05
0
0
0
0
0
0
0
0
0
0
0
0
0
0
0
7.449875e-07
1.349351e-06
3.967115e-07
-8.022774e-07
6.020379e-07
-1.264731e-05
-3.162971e-05
-1.292862e-05
-4.14279e-06
-1.881869e-06
0
0
0
0
0
0
0
0
0
0
0
0
0
0
0
-1.565943e-07
3.384464e-06
-4.514003e-06
2.972114e-06
1.64076e-06
-7.277463e-06
-4.035953e-06
-2.021015e-05
-7.036083e-07
6.263905e-06
-77743.43
0
0
0
0
0
0
0
0
0
0
0
0
0
0
0
-3.829026e-07
-1.923687e-07
-2.761209e-06
-3.839355e-06
-2.514549e-06
3.106427e-06
1.007716e-05
-5.744589e-07
-4.503128e-07
-5.020394e-07
-69973.57
-76903.86
0
0
0
0
0
0
0
0
0
0
0
0
0
0
0
-8.37619e-07
1.820621e-06
6.969541e-07
1.514124e-06
-1.957075e-06
-2.584986e-06
9.940491e-06
-2.100493e-05
-1.801703e-05
2.405725e-06
-64434.75
-70005.57
-77629.95
0
0
0
0
0
0
0
0
0
0
0
0
0
0
0
0
0
0
0
0
0
0
0
0
0
0
0
0
0
0
0
0
0
0
0
0
0
0
0
0
0
0
0
0
0
0
0
0
0
0
0
0
0
0
0
0
0
0
0
0
0
0
0
0
0
-1.447758e-05
-6.956448e-05
0.0002692139
-0.0006232072
-0.0001831756
0.0001826539
0.0001311422
-0.0001897582
0.0004350751
0.0002479631
0
0
0
0
0
-0.0002895513
-0.001296513
-0.0004453205
-0.001301786
0.0001873307
-0.0006306173
0.0003990466
-0.0007638455
-0.00250985
-0.001158595
-0.0001182299
0
0
0
0
0
-0.0002857024
0.001348514
-0.002100105
0.001610167
0.001680715
8.667746e-05
-0.001708685
-0.0003315553
-0.00137709
-0.0009527439
0.0001155938
-1.877317e-06
0
0
0
0
0
-0.0003316888
0.0006780571
0.0007753918
-0.002460969
-0.0002749416
0.001667916
0.0007146071
-0.0004850509
0.001191113
-0.0001133255
0.0004981534
3.522381e-06
-1.104977e-06
0
0
0
0
0
-0.0001198419
-0.0001622034
0.0003572841
9.127255e-05
-0.0006020529
8.398552e-05
-0.001363778
-0.0007910536
-0.0004684893
-0.0007439515
-0.0004990389
1.254581e-06
2.339297e-06
-1.477982e-06
0
0
0
0
0
-0.0003294263
0.0008920425
0.0001314875
0.0002671973
-0.0004443303
0.0005390306
0.0005852964
-0.0001091851
0.0002427028
-0.001132461
-0.0006305235
-1.621945e-06
1.486035e-06
-4.607155e-07
1.376029e-06
0
0
0
0
0
-6.771229e-05
-0.0009100028
0.001611372
0.0007018525
-0.001715902
2.280999e-05
0.0001023049
-0.00102057
0.001618456
0.0009149812
0.0002042517
-4.950299e-06
4.105809e-06
-6.564151e-06
2.394321e-08
-1.135388e-05
0
0
0
0
0
0.0008090464
0.0001532095
-0.0008162914
0.001014706
-0.0002408582
-0.001170549
-0.001131309
0.0008480191
-0.0008221437
0.0006829826
0.0002317927
1.129061e-06
-1.279461e-06
1.831468e-06
-3.593943e-06
-1.295621e-05
-3.872155e-05
0
0
0
0
0
0.0004811552
-0.0004642582
-0.001398576
-0.000479241
-0.0001463366
0.0001218488
0.0009385127
0.0005762586
0.001128313
0.0001717256
0.0001923512
2.60719e-06
9.657314e-07
-1.243141e-06
-5.39835e-07
3.915538e-06
-5.396409e-06
-7.184158e-06
0
0
0
0
0
0.0001271337
0.0001178698
-0.0004586372
-0.000360553
-0.0003932468
3.046828e-05
-0.0004203997
0.0003599257
0.0004594147
0.0005988127
-0.0001376272
-1.956748e-06
4.836765e-06
-2.680877e-07
2.55816e-06
1.117408e-05
-5.034831e-06
-1.201138e-05
1.346302e-06
0
0
0
0
0
0
0
0
0
0
0
0
0
0
0
-2.369628e-07
1.158898e-06
-1.153777e-09
2.467015e-06
2.154804e-07
2.026236e-05
-8.115576e-06
-1.646381e-05
-2.664592e-05
2.23376e-05
0
0
0
0
0
0
0
0
0
0
0
0
0
0
0
-4.913244e-08
7.83137e-07
-4.38373e-07
-2.071908e-06
2.965103e-07
1.281741e-05
2.474195e-05
1.797871e-05
1.612939e-05
3.588276e-06
-79816.56
0
0
0
0
0
0
0
0
0
0
0
0
0
0
0
1.490455e-06
8.521169e-08
6.490848e-07
-7.333247e-07
1.185529e-06
-2.648878e-06
1.16543e-05
1.904926e-05
1.673687e-05
7.734312e-06
-70835.94
-78306.65
0
0
0
0
0
0
0
0
0
0
0
0
0
0
0
7.569644e-07
-1.10098e-06
7.563249e-07
1.413069e-06
2.127344e-06
-5.660401e-06
-2.325904e-05
-1.860133e-05
-4.107572e-06
-3.190872e-06
-64767.62
-70448.93
-78346.34
0
0
0
0
0
0
0
0
0
0
0
0
0
0
0
-6.407806e-07
6.913631e-07
-1.032178e-06
-1.317249e-06
-2.861003e-07
-5.49697e-06
2.050401e-05
-1.182036e-05
7.52021e-06
7.898688e-06
-60376.56
-64854.86
-71240.06
-79972.86
0
0
0
0
0
0
0
0
0
0
0
0
0
0
0
0
0
0
0
0
0
0
0
0
0
0
0
0
0
0
0
0
0
0
0
0
0
0
0
0
0
0
0
0
0
0
0
0
0
0
0
0
0
0
0
0
0
0
0
0
0
0
0
0
0
0
0
0
0
0
0.000146248
4.701385e-05
-0.000452083
-9.497431e-05
-0.0003939494
-7.647241e-05
-6.458386e-05
-0.0002258394
0.0008240109
-9.14494e-05
-7.786499e-05
0
0
0
0
0
0.0007865888
0.0008299309
0.0003403288
0.0001848758
0.00105741
-0.0008438351
0.0008239149
-0.0003506663
0.0009751943
0.0008610514
0.000499473
-2.630349e-06
0
0
0
0
0
-0.000231339
0.0004839286
-0.0007254584
0.00141509
-0.001322583
-0.002727348
-0.0006677187
4.795683e-05
-7.668598e-05
1.317941e-05
0.0004641594
-5.961003e-07
-1.469706e-06
0
0
0
0
0
-5.310266e-05
0.00145116
0.0001726868
-0.0002940175
0.0005913301
0.001107753
-0.0008907738
0.0006765174
0.001008607
-0.0008162166
1.842188e-05
2.579298e-06
-1.370686e-06
1.476563e-06
0
0
0
0
0
0.0001232852
0.0002996604
0.0002145354
-0.0004220706
0.0005905387
0.0008535114
-0.0004940375
0.0002397861
-0.0007307153
0.0002768526
0.0004575734
3.605798e-07
-2.405875e-06
-3.372803e-06
-6.127686e-07
0
0
0
0
0
-7.530274e-06
-0.0001393607
-0.002359184
0.001007015
0.001133602
-1.333434e-05
-0.0001704985
-0.001159625
-3.947557e-06
-0.0004879368
0.0005629562
-1.308334e-07
-1.007298e-06
1.517625e-06
3.383273e-06
2.128976e-05
0
0
0
0
0
-0.0008191181
-0.0007287542
-3.13107e-05
-0.000937231
0.000108362
0.0003808385
0.0009887212
0.0004871801
-0.0002066345
-8.473491e-05
-0.000439483
1.321196e-06
1.45552e-06
-2.868444e-06
-8.491102e-08
-1.90087e-06
-9.702324e-06
0
0
0
0
0
-0.0004735471
0.001358713
-0.0004516064
0.0004256395
-0.0001187797
-0.0008757227
1.333552e-05
0.000239912
0.0001442553
0.001004395
-0.0001980915
-1.01596e-06
-1.397757e-06
3.533116e-06
-1.04773e-06
7.187568e-08
7.116506e-07
1.075688e-05
0
0
0
0
0
0.0002600946
-0.001111516
0.00161621
0.0003564197
-0.0009814015
-0.0005261209
-0.0001505087
-0.0006949291
-0.0002544125
-0.001697976
-8.027686e-05
-7.468818e-07
-2.418748e-06
1.809117e-07
-6.158365e-07
1.310692e-05
-2.395491e-05
-2.525168e-05
1.080828e-05
0
0
0
0
0
-0.0004189578
1.576113e-05
3.635458e-05
-0.0004867045
0.0002781844
-0.0004556292
-0.000464595
0.0007775892
-0.0003083521
-1.165683e-05
-7.2724e-05
4.35091e-06
-1.683819e-06
-1.93355e-06
1.751122e-06
1.461792e-05
-1.932771e-05
-4.53378e-06
-1.099384e-05
9.652257e-06
0
0
0
0
0
0
0
0
0
0
0
0
0
0
0
-8.163078e-07
1.116054e-06
-2.070971e-06
-3.113877e-07
2.044652e-07
-2.564267e-06
-3.141323e-05
-1.506398e-05
7.984525e-06
2.429037e-05
-82490.37
0
0
0
0
0
0
0
0
0
0
0
0
0
0
0
3.941496e-07
1.28569e-07
-7.99635e-07
1.085973e-07
-3.046895e-06
2.294425e-06
-1.151917e-05
-2.027606e-05
3.605711e-06
-7.389345e-06
-72059.73
-80409.13
0
0
0
0
0
0
0
0
0
0
0
0
0
0
0
-1.530497e-06
-7.963631e-07
-2.851493e-07
4.780478e-07
-7.378239e-07
1.506076e-05
-2.489935e-06
-6.097907e-06
-2.370817e-05
-4.088339e-06
-65417.65
-71324.93
-79799.44
0
0
0
0
0
0
0
0
0
0
0
0
0
0
0
2.28254e-08
2.099988e-06
7.736045e-08
-1.593984e-07