/*--------------------------------*- C++ -*----------------------------------*\
| =========                 |                                                 |
| \\      /  F ield         | OpenFOAM: The Open Source CFD Toolbox           |
|  \\    /   O peration     | Version:  2306                                  |
|   \\  /    A nd           | Website:  www.openfoam.com                      |
|    \\/     M anipulation  |                                                 |
\*---------------------------------------------------------------------------*/
FoamFile
{
    version     2.0;
    format      ascii;
    arch        "LSB;label=32;scalar=64";
    class       volScalarField;
    location    "0.6";
    object      k;
}
// * * * * * * * * * * * * * * * * * * * * * * * * * * * * * * * * * * * * * //

dimensions      [1 1 -3 -1 0 0 0];

internalField   nonuniform List<scalar> 
52000
(
20
20
20
20
20
20
20
20
20
20
20
20
20
20
20
20
20
20
20
20
20
20
20
20
20
20
20
20
20
20
20
20
20
20
20
20
20
20
20
20
20
20
20
20
20
20
20
20
20
20
20
20
20
20
20
20
20
20
20
20
20
20
20
20
20
20
20
20
20
20
20
20
20
20
20
20
20
20
20
20
20
20
20
20
20
20
20
20
20
20
20
20
20
20
20
20
20
20
20
20
20
20
20
20
20
20
20
20
20
20
20
20
20
20
20
20
20
20
20
20
20
20
20
20
20
20
20
20
20
20
20
20
20
20
20
20
20
20
20
20
20
20
20
20
20
20
20
20
20
20
20
20
20
20
20
20
20
20
20
20
20
20
20
20
20
20
20
20
20
20
20
20
20
20
20
20
20
20
20
20
20
20
20
20
20
20
20
20
20
20
20
20
20
20
20
20
20
20
20
20
20
20
20
20
20
20
20
20
20
20
20
20
20
20
20
20
20
20
20
20
20
20
20
20
20
20
20
20
20
20
20
20
20
20
20
20
20
20
20
20
0.08569175
20
20
20
20
20
20
20
20
20
20
20
20
20
20
20
20
20
20
20
20
20
20
20
20
20
20
20
20
20
20
20
20
20
20
20
20
20
20
20
20
20
20
20
20
20
20
20
20
20
20
20
20
20
20
20
20
20
20
20
20
20
20
20
20
20
0.08501713
20
20
20
20
20
0.0864847
0.0850052
20
20
20
20
20
20
20
20
20
20
20
20
20
20
20
20
20
20
20
20
20
20
20
20
20
20
20
20
20
20
20
20
20
20
20
20
20
20
20
20
20
20
20
20
20
20
20
20
20
20
20
20
20
20
20
20
20
20
20
20
20
20
20
20
20
20
20
20
20
20
0.08463834
20
20
20
20
20
0.08633548
0.08334722
20
20
20
20
20
0.08669897
0.08633425
0.08461652
20
20
20
20
20
20
20
20
20
20
20
20
20
20
20
20
20
20
20
20
20
20
20
20
20
20
20
20
20
20
20
20
20
20
20
20
20
20
20
20
20
20
20
20
20
20
20
20
20
20
20
20
20
20
20
20
20
20
20
20
20
20
20
20
20
20
20
20
20
20
20
20
20
20
20
0.08442123
20
20
20
20
20
0.08620587
0.08229856
20
20
20
20
20
0.08664488
0.08589416
0.08228177
20
20
20
20
20
0.0868734
0.08664943
0.0862048
0.08438817
20
20
20
20
20
20
20
20
20
20
20
20
20
20
20
20
20
20
20
20
20
20
20
20
20
20
20
20
20
20
20
20
20
20
20
20
20
20
20
20
20
20
20
20
20
20
20
20
20
20
20
20
20
20
20
20
20
20
20
20
20
20
20
20
20
20
20
20
20
20
20
20
20
20
20
20
20
20
20
20
0.08432003
20
20
20
20
20
0.0861103
0.08166453
20
20
20
20
20
0.08659624
0.08550685
0.08069289
20
20
20
20
20
0.08684952
0.08649246
0.08550365
0.08161949
20
20
20
20
20
0.08702845
0.08685601
0.08660641
0.08610987
0.08427236
20
20
20
20
20
20
20
20
20
20
20
20
20
20
20
20
20
20
20
20
20
20
20
20
20
20
20
20
20
20
20
20
20
20
20
20
20
20
20
20
20
20
20
20
20
20
20
20
20
20
20
20
20
20
20
20
20
20
20
20
20
20
20
20
20
20
20
20
20
20
20
20
20
20
20
20
20
20
20
20
20
20
20
20
20
0.08432003
20
20
20
20
20
0.08605962
0.08136244
20
20
20
20
20
0.08655901
0.08521887
0.07968674
20
20
20
20
20
0.08682859
0.08634923
0.08487552
0.07964769
20
20
20
20
20
0.08701529
0.0867906
0.08635464
0.08520882
0.08127316
20
20
20
20
20
0.0871701
0.08702203
0.08684247
0.08657645
0.08606037
0.08425305
20
20
20
20
20
20
20
20
20
20
20
20
20
20
20
20
20
20
20
20
20
20
20
20
20
20
20
20
20
20
20
20
20
20
20
20
20
20
20
20
20
20
20
20
20
20
20
20
20
20
20
20
20
20
20
20
20
20
20
20
20
20
20
20
20
20
20
20
20
0.3606985
20
20
20
20
20
20
20
20
20
20
20
20
20
20
20
20
20
20
20
20
0.08442123
20
20
20
20
20
0.08605962
0.08136244
20
20
20
20
20
0.08653875
0.08506547
0.07919502
20
20
20
20
20
0.08681276
0.08623862
0.08440214
0.0783588
20
20
20
20
20
0.08700421
0.08673187
0.08612121
0.0843903
0.07908592
20
20
20
20
20
0.08716106
0.08698874
0.08674018
0.08625061
0.08504476
0.08121042
20
20
20
20
20
0.08730111
0.08716746
0.08701851
0.08683599
0.08656569
0.08606327
0.08432954
20
20
20
20
20
20
20
20
20
20
20
20
20
20
20
20
20
20
20
20
20
20
20
20
20
20
20
20
20
20
20
20
20
20
20
20
20
20
20
20
20
20
20
20
20
20
20
20
20
20
20
20
20
20
20
20
20
0.3606895
20
20
20
20
20
20
20
20
20
20
20
20
20
20
20
0.3608169
0.3607645
20
20
20
20
20
20
20
20
20
20
20
20
20
20
20
20
20
20
20
20
0.08463834
20
20
20
20
20
0.0861103
0.08166453
20
20
20
20
20
0.08653875
0.08506547
0.07919502
20
20
20
20
20
0.08680418
0.08617815
0.08414805
0.07771725
20
20
20
20
20
0.08699605
0.08668693
0.08593872
0.08376659
0.07763096
20
20
20
20
20
0.0871537
0.08695979
0.0866466
0.08594459
0.08411464
0.07898057
20
20
20
20
20
0.08729381
0.08714615
0.08696858
0.08670647
0.08619906
0.085033
0.08142971
20
20
20
20
20
0.08742317
0.08729972
0.0871673
0.08701987
0.08683941
0.0865785
0.08612108
0.08451509
20
20
20
20
20
20
20
20
20
20
20
20
20
20
20
20
20
20
20
20
20
20
20
20
20
20
20
20
20
20
20
20
20
20
20
20
20
20
20
20
20
20
20
20
0.3606706
20
20
20
20
20
20
20
20
20
20
20
20
20
20
20
0.360811
0.3607541
20
20
20
20
20
20
20
20
20
20
20
20
20
20
20
0.3609278
0.3608771
0.3608319
20
20
20
20
20
20
20
20
20
20
20
20
20
20
20
20
20
20
20
20
0.08501713
20
20
20
20
20
0.08620587
0.08229856
20
20
20
20
20
0.08655901
0.08521887
0.07968674
20
20
20
20
20
0.08680418
0.08617815
0.08414805
0.07771725
20
20
20
20
20
0.0869917
0.08666244
0.08583829
0.08342945
0.0768991
20
20
20
20
20
0.08714842
0.08693824
0.08657399
0.08570299
0.083401
0.07749144
20
20
20
20
20
0.08728797
0.08712822
0.08692426
0.08658618
0.08585173
0.08408722
0.07933219
20
20
20
20
20
0.08741675
0.08728316
0.08713665
0.08695913
0.08669747
0.0862129
0.0851799
0.08195785
20
20
20
20
20
0.08753743
0.08742217
0.08730058
0.08717111
0.08702766
0.08685486
0.0866167
0.08623238
0.08484893
20
20
20
20
20
20
20
20
20
20
20
20
20
20
20
20
20
20
20
20
20
20
20
20
20
20
20
20
20
20
0.3606391
20
20
20
20
20
20
20
20
20
20
20
20
20
20
20
0.3607992
0.3607317
20
20
20
20
20
20
20
20
20
20
20
20
20
20
20
0.3609228
0.3608712
0.3608205
20
20
20
20
20
20
20
20
20
20
20
20
20
20
20
0.361028
0.3609804
0.3609381
0.3609009
20
20
20
20
20
20
20
20
20
20
20
20
20
20
20
20
20
20
20
20
0.08569175
20
20
20
20
20
0.08633548
0.08334722
20
20
20
20
20
0.08659624
0.08550685
0.08069289
20
20
20
20
20
0.08681276
0.08623862
0.08440214
0.0783588
20
20
20
20
20
0.0869917
0.08666244
0.08583829
0.08342945
0.0768991
20
20
20
20
20
0.08714564
0.0869267
0.0865341
0.08556923
0.08301356
0.07674051
20
20
20
20
20
0.08728383
0.08711525
0.08689078
0.08649171
0.08557564
0.08336017
0.07794421
20
20
20
20
20
0.08741163
0.08726951
0.08711033
0.08690429
0.08656403
0.08586466
0.08431791
0.08016556
20
20
20
20
20
0.08753155
0.08740782
0.08727737
0.08713538
0.08696423
0.08671907
0.08629643
0.08547671
0.0828679
20
20
20
20
20
0.08764476
0.08753654
0.08742328
0.08730494
0.0871799
0.08704306
0.08688363
0.08668035
0.08639491
0.08544229
20
20
20
20
20
20
20
20
20
20
20
20
20
20
20
0.3605767
20
20
20
20
20
20
20
20
20
20
20
20
20
20
20
0.3607816
0.3606912
20
20
20
20
20
20
20
20
20
20
20
20
20
20
20
0.3609129
0.3608595
0.3607954
20
20
20
20
20
20
20
20
20
20
20
20
20
20
20
0.3610234
0.3609758
0.3609322
0.3608888
20
20
20
20
20
20
20
20
20
20
20
20
20
20
20
0.3611201
0.3610738
0.3610338
0.361
0.3609716
20
20
20
20
20
20
20
20
20
20
20
20
20
20
20
20
20
20
20
20
20
20
20
20
20
0.0864847
0.0850052
20
20
20
20
20
0.08664488
0.08589416
0.08228177
20
20
20
20
20
0.08682859
0.08634923
0.08487552
0.07964769
20
20
20
20
20
0.08699605
0.08668693
0.08593872
0.08376659
0.07763096
20
20
20
20
20
0.08714564
0.0869267
0.0865341
0.08556923
0.08301356
0.07674051
20
20
20
20
20
0.08728167
0.08710845
0.08687269
0.08643944
0.08542218
0.08296499
0.07724801
20
20
20
20
20
0.08740803
0.08725985
0.08709105
0.08686228
0.08645818
0.08558673
0.08365695
0.07900462
20
20
20
20
20
0.08752687
0.08739609
0.0872579
0.0871042
0.08690603
0.08658977
0.08598939
0.08478679
0.08154559
20
20
20
20
20
0.08763929
0.08752343
0.08740336
0.08727863
0.08714463
0.08698688
0.08677409
0.08644585
0.08590223
0.08433278
20
20
20
20
20
0.08774587
0.0876439
0.08753763
0.0874276
0.08731361
0.08719451
0.08706712
0.08692696
0.08677135
0.0866165
0.3602864
20
20
20
20
20
20
20
20
20
20
20
20
20
20
20
0.3607607
0.3606087
20
20
20
20
20
20
20
20
20
20
20
20
20
20
20
0.3608989
0.3608427
0.3607498
20
20
20
20
20
20
20
20
20
20
20
20
20
20
20
0.3610145
0.360967
0.3609207
0.3608622
20
20
20
20
20
20
20
20
20
20
20
20
20
20
20
0.3611158
0.3610697
0.3610295
0.3609942
0.3609591
20
20
20
20
20
20
20
20
20
20
20
20
20
20
20
0.3612059
0.3611601
0.3611203
0.3610878
0.3610629
0.6348646
20
20
20
20
20
20
20
20
20
20
20
20
20
20
20
20
20
20
20
20
20
20
20
20
20
20
20
20
20
20
0.08669897
0.08633425
0.08461652
20
20
20
20
20
0.08684952
0.08649246
0.08550365
0.08161949
20
20
20
20
20
0.08700421
0.08673187
0.08612121
0.0843903
0.07908592
20
20
20
20
20
0.08714842
0.08693824
0.08657399
0.08570299
0.083401
0.07749144
20
20
20
20
20
0.08728167
0.08710845
0.08687269
0.08643944
0.08542218
0.08296499
0.07724801
20
20
20
20
20
0.08740616
0.08725485
0.08708085
0.0868394
0.08639926
0.0854319
0.08329832
0.07842941
20
20
20
20
20
0.08752357
0.08738787
0.08724398
0.08708106
0.08686083
0.0864862
0.08574343
0.08425996
0.08071361
20
20
20
20
20
0.08763492
0.08751275
0.08738684
0.08725627
0.0871133
0.08693404
0.08666694
0.08621562
0.08544614
0.08361855
20
20
20
20
20
0.08774074
0.08763168
0.08751949
0.08740528
0.08728863
0.0871663
0.08702918
0.08686282
0.08665279
0.08642732
0.3599791
20
20
20
20
20
0.08784132
0.08774501
0.08764492
0.08754174
0.08743584
0.08732727
0.08721583
0.08710144
0.08698924
0.08690693
0.360775
0.3603845
20
20
20
20
20
20
20
20
20
20
20
20
20
20
20
0.360886
0.3608242
0.3606629
20
20
20
20
20
20
20
20
20
20
20
20
20
20
20
0.3610019
0.3609558
0.3609041
0.3608146
20
20
20
20
20
20
20
20
20
20
20
20
20
20
20
0.3611075
0.361062
0.3610215
0.3609826
0.360932
20
20
20
20
20
20
20
20
20
20
20
20
20
20
20
0.3612019
0.3611563
0.3611166
0.3610837
0.361057
0.6348575
20
20
20
20
20
20
20
20
20
20
20
20
20
20
20
0.3612865
0.3612412
0.3612008
0.3611673
0.3611425
0.634914
0.6348674
20
20
20
20
20
20
20
20
20
20
20
20
20
20
20
20
20
20
20
20
20
20
20
20
20
20
20
20
20
20
20
20
20
20
20
0.0868734
0.08664943
0.0862048
0.08438817
20
20
20
20
20
0.08701529
0.0867906
0.08635464
0.08520882
0.08127316
20
20
20
20
20
0.0871537
0.08695979
0.0866466
0.08594459
0.08411464
0.07898057
20
20
20
20
20
0.08728383
0.08711525
0.08689078
0.08649171
0.08557564
0.08336017
0.07794421
20
20
20
20
20
0.08740616
0.08725485
0.08708085
0.0868394
0.08639926
0.0854319
0.08329832
0.07842941
20
20
20
20
20
0.08752186
0.08738364
0.08723674
0.08706872
0.08683599
0.08642823
0.0856062
0.08397497
0.08030771
20
20
20
20
20
0.08763183
0.08750529
0.08737517
0.08724012
0.0870897
0.08689219
0.08657958
0.08602904
0.08509668
0.08317325
20
20
20
20
20
0.08773662
0.08762172
0.0875045
0.08738656
0.08726706
0.08714032
0.08699073
0.08679283
0.08652014
0.08622549
0.3597383
20
20
20
20
20
0.08783648
0.08773351
0.08762799
0.08752145
0.08741497
0.08730881
0.08720214
0.08709298
0.08698573
0.08691218
0.3607351
0.3601376
20
20
20
20
20
0.08793159
0.08784048
0.08774596
0.08764879
0.0875495
0.0874486
0.0873467
0.08724549
0.08715097
0.08709009
0.3609472
0.3608209
0.3604855
20
20
20
20
20
20
20
20
20
20
20
20
20
20
20
0.3609914
0.36095
0.3608854
0.3607311
20
20
20
20
20
20
20
20
20
20
20
20
20
20
20
0.3610957
0.3610527
0.3610118
0.3609658
0.3608849
20
20
20
20
20
20
20
20
20
20
20
20
20
20
20
0.361194
0.3611492
0.3611098
0.3610761
0.3610453
0.6348421
20
20
20
20
20
20
20
20
20
20
20
20
20
20
20
0.3612826
0.3612376
0.3611974
0.3611639
0.3611385
0.6349106
0.6348603
20
20
20
20
20
20
20
20
20
20
20
20
20
20
20
0.3613623
0.3613177
0.361277
0.361242
0.3612149
0.6349567
0.6349165
0.6348703
20
20
20
20
20
20
20
20
20
20
20
20
20
20
20
20
20
20
20
20
20
20
20
20
20
20
20
20
20
20
20
20
20
20
20
20
20
20
20
20
0.08702845
0.08685601
0.08660641
0.08610987
0.08427236
20
20
20
20
20
0.08716106
0.08698874
0.08674018
0.08625061
0.08504476
0.08121042
20
20
20
20
20
0.08728797
0.08712822
0.08692426
0.08658618
0.08585173
0.08408722
0.07933219
20
20
20
20
20
0.08740803
0.08725985
0.08709105
0.08686228
0.08645818
0.08558673
0.08365695
0.07900462
20
20
20
20
20
0.08752186
0.08738364
0.08723674
0.08706872
0.08683599
0.08642823
0.0856062
0.08397497
0.08030771
20
20
20
20
20
0.08763024
0.08750147
0.08736915
0.08723166
0.08707698
0.08686893
0.08653023
0.08592444
0.08490761
0.08295671
20
20
20
20
20
0.0877337
0.08761476
0.08749396
0.08737322
0.08725126
0.08712015
0.08695877
0.08673251
0.08640715
0.08606383
0.3595766
20
20
20
20
20
0.08783258
0.08772413
0.08761401
0.08750451
0.08739722
0.0872922
0.08718716
0.08707652
0.08696062
0.08687536
0.36068
0.3599352
20
20
20
20
20
0.08792702
0.08782961
0.08773
0.08762982
0.08753056
0.08743366
0.08734067
0.08725435
0.0871818
0.08714836
0.360966
0.3607872
0.3602876
20
20
20
20
20
0.08801709
0.08793077
0.08784137
0.08774961
0.0876561
0.08756146
0.08746659
0.08737344
0.08728825
0.08723461
0.3610586
0.3609846
0.3608721
0.3605891
20
20
20
20
20
20
20
20
20
20
20
20
20
20
20
0.3610858
0.36105
0.3610075
0.3609458
0.3608083
20
20
20
20
20
20
20
20
20
20
20
20
20
20
20
0.3611827
0.3611406
0.3611024
0.361067
0.361028
0.6348158
20
20
20
20
20
20
20
20
20
20
20
20
20
20
20
0.361275
0.3612308
0.3611912
0.3611577
0.3611311
0.6349039
0.634845
20
20
20
20
20
20
20
20
20
20
20
20
20
20
20
0.3613586
0.3613143
0.3612738
0.3612389
0.3612116
0.6349545
0.6349132
0.6348632
20
20
20
20
20
20
20
20
20
20
20
20
20
20
20
0.3614339
0.3613903
0.3613495
0.3613134
0.3612837
0.6349959
0.634959
0.6349191
0.6348732
20
20
20
20
20
20
20
20
20
20
20
20
20
20
20
20
20
20
20
20
20
20
20
20
20
20
20
20
20
20
20
20
20
20
20
20
20
20
20
20
20
20
20
20
20
0.0871701
0.08702203
0.08684247
0.08657645
0.08606037
0.08425305
20
20
20
20
20
0.08729381
0.08714615
0.08696858
0.08670647
0.08619906
0.085033
0.08142971
20
20
20
20
20
0.08741163
0.08726951
0.08711033
0.08690429
0.08656403
0.08586466
0.08431791
0.08016556
20
20
20
20
20
0.08752357
0.08738787
0.08724398
0.08708106
0.08686083
0.0864862
0.08574343
0.08425996
0.08071361
20
20
20
20
20
0.08763024
0.08750147
0.08736915
0.08723166
0.08707698
0.08686893
0.08653023
0.08592444
0.08490761
0.08295671
20
20
20
20
20
0.0877322
0.0876112
0.08748854
0.08736631
0.08724291
0.0871091
0.08694055
0.0866976
0.08634262
0.08597499
0.3594956
20
20
20
20
20
0.08782983
0.08771757
0.08760419
0.08749252
0.08738443
0.08727962
0.08717424
0.08705932
0.08693184
0.08683387
0.3606322
0.3597965
20
20
20
20
20
0.08792333
0.08782074
0.08771681
0.08761401
0.08751454
0.08742044
0.08733331
0.08725518
0.08719074
0.08716269
0.3609649
0.3607422
0.3601203
20
20
20
20
20
0.08801276
0.08792049
0.08782626
0.08773169
0.08763833
0.0875479
0.08746272
0.08738644
0.08732715
0.08730403
0.3610917
0.3609987
0.3608417
0.3604316
20
20
20
20
20
0.08809815
0.08801631
0.08793162
0.08784482
0.08775652
0.08766736
0.08757826
0.08749123
0.08741192
0.0873615
0.3611482
0.3610909
0.3610253
0.3609264
0.3606945
20
20
20
20
20
20
20
20
20
20
20
20
20
20
20
0.3611729
0.3611383
0.3611016
0.3610613
0.3610062
0.6347746
20
20
20
20
20
20
20
20
20
20
20
20
20
20
20
0.3612642
0.3612225
0.3611845
0.3611509
0.3611216
0.6348938
0.6348188
20
20
20
20
20
20
20
20
20
20
20
20
20
20
20
0.3613513
0.3613078
0.3612679
0.3612333
0.3612057
0.6349502
0.6349064
0.6348479
20
20
20
20
20
20
20
20
20
20
20
20
20
20
20
0.3614304
0.3613869
0.3613464
0.3613104
0.3612807
0.634994
0.6349567
0.6349157
0.6348661
20
20
20
20
20
20
20
20
20
20
20
20
20
20
20
0.3615017
0.3614591
0.3614187
0.3613818
0.3613502
0.6350333
0.6349978
0.6349612
0.6349216
0.6348761
20
20
20
20
20
20
20
20
20
20
20
20
20
20
20
20
20
20
20
20
20
20
20
20
20
20
20
20
20
20
20
20
20
20
20
20
20
20
20
20
20
20
20
20
20
20
20
20
20
20
0.08730111
0.08716746
0.08701851
0.08683599
0.08656569
0.08606327
0.08432954
20
20
20
20
20
0.08741675
0.08728316
0.08713665
0.08695913
0.08669747
0.0862129
0.0851799
0.08195785
20
20
20
20
20
0.08752687
0.08739609
0.0872579
0.0871042
0.08690603
0.08658977
0.08598939
0.08478679
0.08154559
20
20
20
20
20
0.08763183
0.08750529
0.08737517
0.08724012
0.0870897
0.08689219
0.08657958
0.08602904
0.08509668
0.08317325
20
20
20
20
20
0.0877322
0.0876112
0.08748854
0.08736631
0.08724291
0.0871091
0.08694055
0.0866976
0.08634262
0.08597499
0.3594956
20
20
20
20
20
0.0878284
0.08771421
0.08759914
0.08748633
0.08737776
0.08727283
0.08716676
0.0870486
0.0869136
0.08680823
0.3606051
0.3597265
20
20
20
20
20
0.08792071
0.08781453
0.08770755
0.08760284
0.08750309
0.08741059
0.08732669
0.08725224
0.08718967
0.0871616
0.3609576
0.3607031
0.3600036
20
20
20
20
20
0.08800925
0.08791208
0.08781377
0.08771674
0.08762334
0.087536
0.08745766
0.08739201
0.08734568
0.0873325
0.3611063
0.3609985
0.3608044
0.360296
20
20
20
20
20
0.08809405
0.08800657
0.0879173
0.08782783
0.08773965
0.08765452
0.08757474
0.08750419
0.08745025
0.08742921
0.3611828
0.3611168
0.3610338
0.3608979
0.3605712
20
20
20
20
20
0.08817507
0.08809741
0.08801712
0.08793491
0.08785139
0.08776717
0.08768316
0.08760122
0.08752656
0.08747788
0.3612282
0.3611769
0.3611257
0.3610676
0.3609824
0.6347169
20
20
20
20
20
20
20
20
20
20
20
20
20
20
20
0.3612544
0.3612198
0.3611841
0.3611491
0.3611133
0.6348809
0.6347779
20
20
20
20
20
20
20
20
20
20
20
20
20
20
20
0.3613409
0.3612997
0.3612614
0.3612273
0.3611987
0.6349446
0.6348964
0.6348218
20
20
20
20
20
20
20
20
20
20
20
20
20
20
20
0.3614233
0.3613806
0.3613408
0.3613051
0.3612754
0.6349906
0.6349525
0.634909
0.6348509
20
20
20
20
20
20
20
20
20
20
20
20
20
20
20
0.3614983
0.3614559
0.3614157
0.361379
0.3613473
0.6350316
0.634996
0.634959
0.6349183
0.6348691
20
20
20
20
20
20
20
20
20
20
20
20
20
20
20
0.3615659
0.3615245
0.3614848
0.3614476
0.3614146
0.6350697
0.6350351
0.6349998
0.6349635
0.6349242
0.7261593
20
20
20
20
20
20
20
20
20
20
20
20
20
20
20
20
20
20
20
20
20
20
20
20
20
20
20
20
20
20
20
20
20
20
20
20
20
20
20
20
20
20
20
20
20
20
20
20
20
20
20
20
20
20
20
0.08742317
0.08729972
0.0871673
0.08701987
0.08683941
0.0865785
0.08612108
0.08451509
20
20
20
20
20
0.08753155
0.08740782
0.08727737
0.08713538
0.08696423
0.08671907
0.08629643
0.08547671
0.0828679
20
20
20
20
20
0.08763492
0.08751275
0.08738684
0.08725627
0.0871133
0.08693404
0.08666694
0.08621562
0.08544614
0.08361855
20
20
20
20
20
0.0877337
0.08761476
0.08749396
0.08737322
0.08725126
0.08712015
0.08695877
0.08673251
0.08640715
0.08606383
0.3595766
20
20
20
20
20
0.0878284
0.08771421
0.08759914
0.08748633
0.08737776
0.08727283
0.08716676
0.0870486
0.0869136
0.08680823
0.3606051
0.3597265
20
20
20
20
20
0.08791935
0.08781135
0.08770279
0.08759708
0.08749713
0.08740535
0.0873228
0.0872496
0.08718701
0.08715822
0.360952
0.3606809
0.3599442
20
20
20
20
20
0.08800676
0.08790619
0.08780499
0.08770618
0.08761263
0.08752722
0.08745303
0.08739327
0.08735305
0.08734369
0.3611118
0.3609933
0.3607724
0.3601999
20
20
20
20
20
0.08809072
0.08799858
0.08790545
0.08781364
0.08772542
0.08764328
0.08757023
0.08751045
0.0874701
0.08745986
0.3612009
0.3611295
0.3610332
0.3608664
0.3604641
20
20
20
20
20
0.08817118
0.08808818
0.08800354
0.08791877
0.08783532
0.08775483
0.08767953
0.08761298
0.08756198
0.08754027
0.3612606
0.361204
0.3611439
0.3610705
0.3609551
0.6346555
20
20
20
20
20
0.08824809
0.08817438
0.08809821
0.08802028
0.08794117
0.08786149
0.0877821
0.08770472
0.08763405
0.08758688
0.3613026
0.3612541
0.3612075
0.3611613
0.3611106
0.6348662
0.634721
20
20
20
20
20
20
20
20
20
20
20
20
20
20
20
0.3613311
0.3612964
0.3612607
0.3612261
0.3611943
0.6349389
0.6348834
0.6347812
20
20
20
20
20
20
20
20
20
20
20
20
20
20
20
0.3614132
0.3613727
0.3613344
0.3612994
0.3612693
0.6349865
0.6349468
0.6348989
0.6348248
20
20
20
20
20
20
20
20
20
20
20
20
20
20
20
0.3614915
0.3614498
0.3614102
0.3613739
0.3613423
0.6350286
0.6349926
0.6349547
0.6349116
0.6348538
20
20
20
20
20
20
20
20
20
20
20
20
20
20
20
0.3615626
0.3615214
0.3614819
0.3614449
0.3614119
0.6350682
0.6350334
0.634998
0.6349612
0.6349208
0.726154
20
20
20
20
20
20
20
20
20
20
20
20
20
20
20
0.3616269
0.3615868
0.3615478
0.3615109
0.361477
0.6351053
0.6350713
0.6350368
0.6350018
0.6349657
0.7261951
0.7261611
20
20
20
20
20
20
20
20
20
20
20
20
20
20
20
20
20
20
20
20
20
20
20
20
20
20
20
20
20
20
20
20
20
20
20
20
20
20
20
20
20
20
20
20
20
20
20
20
20
20
20
20
20
20
20
20
20
20
20
20
0.08753743
0.08742217
0.08730058
0.08717111
0.08702766
0.08685486
0.0866167
0.08623238
0.08484893
20
20
20
20
20
0.08763929
0.08752343
0.08740336
0.08727863
0.08714463
0.08698688
0.08677409
0.08644585
0.08590223
0.08433278
20
20
20
20
20
0.08773662
0.08762172
0.0875045
0.08738656
0.08726706
0.08714032
0.08699073
0.08679283
0.08652014
0.08622549
0.3597383
20
20
20
20
20
0.08782983
0.08771757
0.08760419
0.08749252
0.08738443
0.08727962
0.08717424
0.08705932
0.08693184
0.08683387
0.3606322
0.3597965
20
20
20
20
20
0.08791935
0.08781135
0.08770279
0.08759708
0.08749713
0.08740535
0.0873228
0.0872496
0.08718701
0.08715822
0.360952
0.3606809
0.3599442
20
20
20
20
20
0.08800547
0.08790317
0.08780048
0.08770074
0.08760708
0.08752257
0.0874503
0.08739312
0.0873553
0.08734736
0.3611134
0.3609892
0.3607542
0.3601506
20
20
20
20
20
0.08808835
0.08799299
0.08789711
0.08780361
0.08771526
0.08763501
0.08756614
0.08751263
0.0874793
0.08747398
0.3612098
0.3611347
0.3610291
0.3608402
0.3603874
20
20
20
20
20
0.08816801
0.0880806
0.08799229
0.08790529
0.08782176
0.08774404
0.08767506
0.08761869
0.08758069
0.08756935
0.3612784
0.3612195
0.3611539
0.3610686
0.3609282
0.6346022
20
20
20
20
20
0.0882444
0.08816563
0.08808533
0.08800496
0.08792587
0.08784963
0.08777829
0.08771512
0.08766618
0.08764352
0.3613319
0.3612793
0.361227
0.3611725
0.3611081
0.6348508
0.6346606
20
20
20
20
20
0.08831742
0.08824746
0.08817517
0.08810125
0.08802627
0.0879508
0.08787568
0.08780246
0.08773545
0.08768975
0.3613731
0.3613263
0.3612815
0.3612387
0.3611972
0.634935
0.6348686
0.6347251
20
20
20
20
20
20
20
20
20
20
20
20
20
20
20
0.3614034
0.3613689
0.361333
0.3612981
0.3612659
0.634983
0.6349411
0.6348859
0.6347846
20
20
20
20
20
20
20
20
20
20
20
20
20
20
20
0.3614817
0.361442
0.3614039
0.3613682
0.3613366
0.6350249
0.6349884
0.634949
0.6349015
0.6348279
20
20
20
20
20
20
20
20
20
20
20
20
20
20
20
0.361556
0.3615155
0.3614765
0.3614399
0.361407
0.6350653
0.6350303
0.6349946
0.634957
0.6349141
0.7261426
20
20
20
20
20
20
20
20
20
20
20
20
20
20
20
0.3616237
0.3615838
0.361545
0.3615082
0.3614744
0.6351038
0.6350697
0.6350351
0.6349999
0.6349635
0.7261926
0.7261559
20
20
20
20
20
20
20
20
20
20
20
20
20
20
20
0.3616848
0.3616461
0.3616081
0.3615716
0.3615374
0.6351399
0.6351067
0.6350729
0.6350386
0.6350038
0.726226
0.7261967
0.7261626
20
20
20
20
20
20
20
20
20
20
20
20
20
20
20
20
20
20
20
20
20
20
20
20
20
20
20
20
20
20
20
20
20
20
20
20
20
20
20
20
20
20
20
20
20
20
20
20
20
20
20
20
20
20
20
20
20
20
20
20
20
20
20
20
20
0.08764476
0.08753654
0.08742328
0.08730494
0.0871799
0.08704306
0.08688363
0.08668035
0.08639491
0.08544229
20
20
20
20
20
0.08774074
0.08763168
0.08751949
0.08740528
0.08728863
0.0871663
0.08702918
0.08686282
0.08665279
0.08642732
0.3599791
20
20
20
20
20
0.08783258
0.08772413
0.08761401
0.08750451
0.08739722
0.0872922
0.08718716
0.08707652
0.08696062
0.08687536
0.36068
0.3599352
20
20
20
20
20
0.08792071
0.08781453
0.08770755
0.08760284
0.08750309
0.08741059
0.08732669
0.08725224
0.08718967
0.0871616
0.3609576
0.3607031
0.3600036
20
20
20
20
20
0.08800547
0.08790317
0.08780048
0.08770074
0.08760708
0.08752257
0.0874503
0.08739312
0.0873553
0.08734736
0.3611134
0.3609892
0.3607542
0.3601506
20
20
20
20
20
0.08808711
0.08799012
0.08789283
0.08779844
0.08771
0.08763065
0.08756376
0.08751309
0.08748277
0.08747953
0.3612135
0.3611365
0.3610259
0.3608254
0.3603477
20
20
20
20
20
0.08816575
0.08807529
0.08798437
0.08789575
0.08781208
0.08773613
0.0876711
0.08762074
0.08758966
0.08758329
0.3612877
0.3612275
0.3611583
0.3610649
0.3609068
0.6345638
20
20
20
20
20
0.08824138
0.08815844
0.08807465
0.08799214
0.08791294
0.08783925
0.08777376
0.08772005
0.08768317
0.08767014
0.3613483
0.3612945
0.3612392
0.3611792
0.3611045
0.6348366
0.6346081
20
20
20
20
20
0.08831392
0.08823917
0.08816297
0.08808671
0.08801172
0.08793942
0.08787174
0.08781165
0.08776459
0.08774114
0.3613993
0.3613489
0.3612997
0.3612512
0.3612017
0.6349321
0.6348532
0.6346656
20
20
20
20
20
0.08838326
0.08831686
0.08824825
0.08817812
0.08810701
0.08803549
0.08796432
0.08789499
0.08783139
0.08778728
0.3614402
0.3613949
0.3613511
0.3613093
0.3612699
0.6349823
0.6349369
0.634871
0.6347292
20
20
20
20
20
20
20
20
20
20
20
20
20
20
20
0.3614719
0.3614378
0.361402
0.3613665
0.3613334
0.6350222
0.6349849
0.6349432
0.6348884
0.6347879
20
20
20
20
20
20
20
20
20
20
20
20
20
20
20
0.3615465
0.3615079
0.3614703
0.3614344
0.3614015
0.6350619
0.6350267
0.6349904
0.6349513
0.634904
0.7261232
20
20
20
20
20
20
20
20
20
20
20
20
20
20
20
0.3616173
0.3615781
0.3615399
0.3615034
0.3614697
0.635101
0.6350669
0.6350321
0.6349966
0.6349592
0.7261875
0.7261445
20
20
20
20
20
20
20
20
20
20
20
20
20
20
20
0.3616817
0.3616432
0.3616054
0.361569
0.3615349
0.6351384
0.6351052
0.6350713
0.6350369
0.6350019
0.7262243
0.7261942
0.7261573
20
20
20
20
20
20
20
20
20
20
20
20
20
20
20
0.3617399
0.3617026
0.3616658
0.3616299
0.3615958
0.6351735
0.6351412
0.6351081
0.6350745
0.6350403
0.7262543
0.7262274
0.726198
0.7261637
20
20
20
20
20
20
20
20
20
20
20
20
20
20
20
20
20
20
20
20
20
20
20
20
20
20
20
20
20
20
20
20
20
20
20
20
20
20
20
20
20
20
20
20
20
20
20
20
20
20
20
20
20
20
20
20
20
20
20
20
20
20
20
20
20
20
20
20
20
20
0.08774587
0.0876439
0.08753763
0.0874276
0.08731361
0.08719451
0.08706712
0.08692696
0.08677135
0.0866165
0.3602864
20
20
20
20
20
0.08783648
0.08773351
0.08762799
0.08752145
0.08741497
0.08730881
0.08720214
0.08709298
0.08698573
0.08691218
0.3607351
0.3601376
20
20
20
20
20
0.08792333
0.08782074
0.08771681
0.08761401
0.08751454
0.08742044
0.08733331
0.08725518
0.08719074
0.08716269
0.3609649
0.3607422
0.3601203
20
20
20
20
20
0.08800676
0.08790619
0.08780499
0.08770618
0.08761263
0.08752722
0.08745303
0.08739327
0.08735305
0.08734369
0.3611118
0.3609933
0.3607724
0.3601999
20
20
20
20
20
0.08808711
0.08799012
0.08789283
0.08779844
0.08771
0.08763065
0.08756376
0.08751309
0.08748277
0.08747953
0.3612135
0.3611365
0.3610259
0.3608254
0.3603477
20
20
20
20
20
0.08816457
0.08807256
0.0879803
0.08789084
0.08780706
0.08773195
0.0876688
0.08762121
0.08759318
0.08758899
0.3612917
0.3612309
0.3611599
0.3610623
0.3608949
0.6345439
20
20
20
20
20
0.08823923
0.08815339
0.08806713
0.08798307
0.08790371
0.08783164
0.08776982
0.08772173
0.08769134
0.08768306
0.3613571
0.3613028
0.361246
0.3611825
0.3611008
0.6348256
0.6345703
20
20
20
20
20
0.08831105
0.08823234
0.08815283
0.08807454
0.0879994
0.08792946
0.08786719
0.08781585
0.08777991
0.08776531
0.3614142
0.3613629
0.3613117
0.3612599
0.3612051
0.6349295
0.6348391
0.6346139
20
20
20
20
20
0.08837993
0.088309
0.08823669
0.08816433
0.08809319
0.08802461
0.08796037
0.08790319
0.08785797
0.08783413
0.3614638
0.3614151
0.3613674
0.3613211
0.361276
0.634983
0.6349338
0.6348557
0.6346706
20
20
20
20
20
0.08844576
0.08838277
0.08831766
0.08825112
0.08818367
0.08811586
0.08804842
0.08798271
0.08792235
0.08787991
0.3615044
0.3614604
0.3614176
0.3613762
0.361337
0.6350222
0.6349839
0.6349388
0.6348734
0.6347333
20
20
20
20
20
20
20
20
20
20
20
20
20
20
20
0.3615369
0.3615034
0.3614679
0.3614322
0.3613982
0.6350594
0.6350239
0.6349867
0.6349453
0.6348909
0.7260935
20
20
20
20
20
20
20
20
20
20
20
20
20
20
20
0.3616081
0.3615706
0.3615337
0.3614979
0.3614643
0.6350977
0.6350635
0.6350284
0.6349923
0.6349535
0.72618
0.7261252
20
20
20
20
20
20
20
20
20
20
20
20
20
20
20
0.3616755
0.3616376
0.3616004
0.3615643
0.3615303
0.6351358
0.6351024
0.6350685
0.6350339
0.6349985
0.7262211
0.7261892
0.726146
20
20
20
20
20
20
20
20
20
20
20
20
20
20
20
0.3617369
0.3616998
0.3616631
0.3616274
0.3615933
0.6351721
0.6351397
0.6351066
0.6350729
0.6350387
0.726253
0.7262257
0.7261955
0.7261584
20
20
20
20
20
20
20
20
20
20
20
20
20
20
20
0.3617923
0.3617565
0.3617208
0.3616858
0.3616521
0.6352061
0.6351747
0.6351425
0.6351096
0.6350761
0.7262816
0.7262556
0.7262285
0.7261988
0.7261643
20
20
20
20
20
20
20
20
20
20
20
20
20
20
20
20
20
20
20
20
20
20
20
20
20
20
20
20
20
20
20
20
20
20
20
20
20
20
20
20
20
20
20
20
20
20
20
20
20
20
20
20
20
20
20
20
20
20
20
20
20
20
20
20
20
20
20
20
20
0.3605767
20
20
20
20
20
0.08784132
0.08774501
0.08764492
0.08754174
0.08743584
0.08732727
0.08721583
0.08710144
0.08698924
0.08690693
0.360775
0.3603845
20
20
20
20
20
0.08792702
0.08782961
0.08773
0.08762982
0.08753056
0.08743366
0.08734067
0.08725435
0.0871818
0.08714836
0.360966
0.3607872
0.3602876
20
20
20
20
20
0.08800925
0.08791208
0.08781377
0.08771674
0.08762334
0.087536
0.08745766
0.08739201
0.08734568
0.0873325
0.3611063
0.3609985
0.3608044
0.360296
20
20
20
20
20
0.08808835
0.08799299
0.08789711
0.08780361
0.08771526
0.08763501
0.08756614
0.08751263
0.0874793
0.08747398
0.3612098
0.3611347
0.3610291
0.3608402
0.3603874
20
20
20
20
20
0.08816457
0.08807256
0.0879803
0.08789084
0.08780706
0.08773195
0.0876688
0.08762121
0.08759318
0.08758899
0.3612917
0.3612309
0.3611599
0.3610623
0.3608949
0.6345439
20
20
20
20
20
0.08823811
0.0881508
0.08806326
0.0879784
0.08789892
0.08782762
0.08776756
0.08772206
0.08769456
0.0876884
0.3613609
0.3613065
0.3612489
0.3611837
0.3610985
0.6348196
0.6345507
20
20
20
20
20
0.08830899
0.08822755
0.08814569
0.08806592
0.0879906
0.08792215
0.08786329
0.08781714
0.08778724
0.08777706
0.3614223
0.3613707
0.3613186
0.3612651
0.361207
0.6349273
0.6348283
0.6345767
20
20
20
20
20
0.0883772
0.08830253
0.08822708
0.08815278
0.08808148
0.08801508
0.08795586
0.08790678