/*--------------------------------*- C++ -*----------------------------------*\
| =========                 |                                                 |
| \\      /  F ield         | OpenFOAM: The Open Source CFD Toolbox           |
|  \\    /   O peration     | Version:  2306                                  |
|   \\  /    A nd           | Website:  www.openfoam.com                      |
|    \\/     M anipulation  |                                                 |
\*---------------------------------------------------------------------------*/
FoamFile
{
    version     2.0;
    format      ascii;
    arch        "LSB;label=32;scalar=64";
    class       volScalarField;
    location    "0.6";
    object      rhoCp;
}
// * * * * * * * * * * * * * * * * * * * * * * * * * * * * * * * * * * * * * //

dimensions      [1 -1 -2 -1 0 0 0];

internalField   nonuniform List<scalar> 
52000
(
5346000
5346000
5346000
5346000
5346000
5346000
5346000
5346000
5346000
5346000
5346000
5346000
5346000
5346000
5346000
5346000
5346000
5346000
5346000
5346000
5346000
5346000
5346000
5346000
5346000
5346000
5346000
5346000
5346000
5346000
5346000
5346000
5346000
5346000
5346000
5346000
5346000
5346000
5346000
5346000
5346000
5346000
5346000
5346000
5346000
5346000
5346000
5346000
5346000
5346000
5346000
5346000
5346000
5346000
5346000
5346000
5346000
5346000
5346000
5346000
5346000
5346000
5346000
5346000
5346000
5346000
5346000
5346000
5346000
5346000
5346000
5346000
5346000
5346000
5346000
5346000
5346000
5346000
5346000
5346000
5346000
5346000
5346000
5346000
5346000
5346000
5346000
5346000
5346000
5346000
5346000
5346000
5346000
5346000
5346000
5346000
5346000
5346000
5346000
5346000
5346000
5346000
5346000
5346000
5346000
5346000
5346000
5346000
5346000
5346000
5346000
5346000
5346000
5346000
5346000
5346000
5346000
5346000
5346000
5346000
5346000
5346000
5346000
5346000
5346000
5346000
5346000
5346000
5346000
5346000
5346000
5346000
5346000
5346000
5346000
5346000
5346000
5346000
5346000
5346000
5346000
5346000
5346000
5346000
5346000
5346000
5346000
5346000
5346000
5346000
5346000
5346000
5346000
5346000
5346000
5346000
5346000
5346000
5346000
5346000
5346000
5346000
5346000
5346000
5346000
5346000
5346000
5346000
5346000
5346000
5346000
5346000
5346000
5346000
5346000
5346000
5346000
5346000
5346000
5346000
5346000
5346000
5346000
5346000
5346000
5346000
5346000
5346000
5346000
5346000
5346000
5346000
5346000
5346000
5346000
5346000
5346000
5346000
5346000
5346000
5346000
5346000
5346000
5346000
5346000
5346000
5346000
5346000
5346000
5346000
5346000
5346000
5346000
5346000
5346000
5346000
5346000
5346000
5346000
5346000
5346000
5346000
5346000
5346000
5346000
5346000
5346000
5346000
5346000
5346000
5346000
5346000
5346000
5346000
5346000
5346000
5346000
5346000
5346000
5346000
342.3159
5346000
5346000
5346000
5346000
5346000
5346000
5346000
5346000
5346000
5346000
5346000
5346000
5346000
5346000
5346000
5346000
5346000
5346000
5346000
5346000
5346000
5346000
5346000
5346000
5346000
5346000
5346000
5346000
5346000
5346000
5346000
5346000
5346000
5346000
5346000
5346000
5346000
5346000
5346000
5346000
5346000
5346000
5346000
5346000
5346000
5346000
5346000
5346000
5346000
5346000
5346000
5346000
5346000
5346000
5346000
5346000
5346000
5346000
5346000
5346000
5346000
5346000
5346000
5346000
5346000
345.3956
5346000
5346000
5346000
5346000
5346000
338.7703
345.4521
5346000
5346000
5346000
5346000
5346000
5346000
5346000
5346000
5346000
5346000
5346000
5346000
5346000
5346000
5346000
5346000
5346000
5346000
5346000
5346000
5346000
5346000
5346000
5346000
5346000
5346000
5346000
5346000
5346000
5346000
5346000
5346000
5346000
5346000
5346000
5346000
5346000
5346000
5346000
5346000
5346000
5346000
5346000
5346000
5346000
5346000
5346000
5346000
5346000
5346000
5346000
5346000
5346000
5346000
5346000
5346000
5346000
5346000
5346000
5346000
5346000
5346000
5346000
5346000
5346000
5346000
5346000
5346000
5346000
5346000
347.1438
5346000
5346000
5346000
5346000
5346000
339.4353
353.2196
5346000
5346000
5346000
5346000
5346000
337.8466
339.4435
347.2499
5346000
5346000
5346000
5346000
5346000
5346000
5346000
5346000
5346000
5346000
5346000
5346000
5346000
5346000
5346000
5346000
5346000
5346000
5346000
5346000
5346000
5346000
5346000
5346000
5346000
5346000
5346000
5346000
5346000
5346000
5346000
5346000
5346000
5346000
5346000
5346000
5346000
5346000
5346000
5346000
5346000
5346000
5346000
5346000
5346000
5346000
5346000
5346000
5346000
5346000
5346000
5346000
5346000
5346000
5346000
5346000
5346000
5346000
5346000
5346000
5346000
5346000
5346000
5346000
5346000
5346000
5346000
5346000
5346000
5346000
5346000
5346000
5346000
5346000
5346000
348.1519
5346000
5346000
5346000
5346000
5346000
340.0142
358.2804
5346000
5346000
5346000
5346000
5346000
338.0851
341.4192
358.3657
5346000
5346000
5346000
5346000
5346000
337.1004
338.0685
340.0269
348.3164
5346000
5346000
5346000
5346000
5346000
5346000
5346000
5346000
5346000
5346000
5346000
5346000
5346000
5346000
5346000
5346000
5346000
5346000
5346000
5346000
5346000
5346000
5346000
5346000
5346000
5346000
5346000
5346000
5346000
5346000
5346000
5346000
5346000
5346000
5346000
5346000
5346000
5346000
5346000
5346000
5346000
5346000
5346000
5346000
5346000
5346000
5346000
5346000
5346000
5346000
5346000
5346000
5346000
5346000
5346000
5346000
5346000
5346000
5346000
5346000
5346000
5346000
5346000
5346000
5346000
5346000
5346000
5346000
5346000
5346000
5346000
5346000
5346000
5346000
5346000
5346000
5346000
5346000
5346000
5346000
348.6233
5346000
5346000
5346000
5346000
5346000
340.4418
361.3981
5346000
5346000
5346000
5346000
5346000
338.2991
343.1728
366.2688
5346000
5346000
5346000
5346000
5346000
337.2044
338.7647
343.1925
361.63
5346000
5346000
5346000
5346000
5346000
336.4462
337.1793
338.2646
340.4599
348.8641
5346000
5346000
5346000
5346000
5346000
5346000
5346000
5346000
5346000
5346000
5346000
5346000
5346000
5346000
5346000
5346000
5346000
5346000
5346000
5346000
5346000
5346000
5346000
5346000
5346000
5346000
5346000
5346000
5346000
5346000
5346000
5346000
5346000
5346000
5346000
5346000
5346000
5346000
5346000
5346000
5346000
5346000
5346000
5346000
5346000
5346000
5346000
5346000
5346000
5346000
5346000
5346000
5346000
5346000
5346000
5346000
5346000
5346000
5346000
5346000
5346000
5346000
5346000
5346000
5346000
5346000
5346000
5346000
5346000
5346000
5346000
5346000
5346000
5346000
5346000
5346000
5346000
5346000
5346000
5346000
5346000
5346000
5346000
5346000
5346000
348.6233
5346000
5346000
5346000
5346000
5346000
340.6689
362.8992
5346000
5346000
5346000
5346000
5346000
338.4627
344.486
371.4239
5346000
5346000
5346000
5346000
5346000
337.2948
339.4012
346.0684
371.6318
5346000
5346000
5346000
5346000
5346000
336.5027
337.4667
339.3841
344.5448
363.3611
5346000
5346000
5346000
5346000
5346000
335.8493
336.4765
337.2443
338.4066
340.6936
348.9646
5346000
5346000
5346000
5346000
5346000
5346000
5346000
5346000
5346000
5346000
5346000
5346000
5346000
5346000
5346000
5346000
5346000
5346000
5346000
5346000
5346000
5346000
5346000
5346000
5346000
5346000
5346000
5346000
5346000
5346000
5346000
5346000
5346000
5346000
5346000
5346000
5346000
5346000
5346000
5346000
5346000
5346000
5346000
5346000
5346000
5346000
5346000
5346000
5346000
5346000
5346000
5346000
5346000
5346000
5346000
5346000
5346000
5346000
5346000
5346000
5346000
5346000
5346000
5346000
5346000
5346000
5346000
5346000
5346000
338.1984
5346000
5346000
5346000
5346000
5346000
5346000
5346000
5346000
5346000
5346000
5346000
5346000
5346000
5346000
5346000
5346000
5346000
5346000
5346000
5346000
348.1519
5346000
5346000
5346000
5346000
5346000
340.6689
362.8992
5346000
5346000
5346000
5346000
5346000
338.5517
345.1889
373.9875
5346000
5346000
5346000
5346000
5346000
337.363
339.8938
348.2617
378.4218
5346000
5346000
5346000
5346000
5346000
336.5495
337.7242
340.4266
348.3243
374.5732
5346000
5346000
5346000
5346000
5346000
335.8876
336.6212
337.6945
339.8578
345.3078
363.6843
5346000
5346000
5346000
5346000
5346000
335.3007
335.8628
336.4968
337.2818
338.4678
340.6972
348.6219
5346000
5346000
5346000
5346000
5346000
5346000
5346000
5346000
5346000
5346000
5346000
5346000
5346000
5346000
5346000
5346000
5346000
5346000
5346000
5346000
5346000
5346000
5346000
5346000
5346000
5346000
5346000
5346000
5346000
5346000
5346000
5346000
5346000
5346000
5346000
5346000
5346000
5346000
5346000
5346000
5346000
5346000
5346000
5346000
5346000
5346000
5346000
5346000
5346000
5346000
5346000
5346000
5346000
5346000
5346000
5346000
5346000
338.2419
5346000
5346000
5346000
5346000
5346000
5346000
5346000
5346000
5346000
5346000
5346000
5346000
5346000
5346000
5346000
337.4651
337.784
5346000
5346000
5346000
5346000
5346000
5346000
5346000
5346000
5346000
5346000
5346000
5346000
5346000
5346000
5346000
5346000
5346000
5346000
5346000
5346000
347.1438
5346000
5346000
5346000
5346000
5346000
340.4418
361.3981
5346000
5346000
5346000
5346000
5346000
338.5517
345.1889
373.9875
5346000
5346000
5346000
5346000
5346000
337.3999
340.1635
349.4484
381.8797
5346000
5346000
5346000
5346000
5346000
336.5836
337.9212
341.2449
351.2497
382.3563
5346000
5346000
5346000
5346000
5346000
335.918
336.7463
338.1064
341.2288
349.6224
375.1365
5346000
5346000
5346000
5346000
5346000
335.3313
335.9545
336.7145
337.8524
340.1016
345.3775
362.6024
5346000
5346000
5346000
5346000
5346000
334.7905
335.3086
335.8681
336.4994
337.28
338.4293
340.4602
347.7786
5346000
5346000
5346000
5346000
5346000
5346000
5346000
5346000
5346000
5346000
5346000
5346000
5346000
5346000
5346000
5346000
5346000
5346000
5346000
5346000
5346000
5346000
5346000
5346000
5346000
5346000
5346000
5346000
5346000
5346000
5346000
5346000
5346000
5346000
5346000
5346000
5346000
5346000
5346000
5346000
5346000
5346000
5346000
5346000
338.3328
5346000
5346000
5346000
5346000
5346000
5346000
5346000
5346000
5346000
5346000
5346000
5346000
5346000
5346000
5346000
337.4901
337.8357
5346000
5346000
5346000
5346000
5346000
5346000
5346000
5346000
5346000
5346000
5346000
5346000
5346000
5346000
5346000
336.7799
337.0888
337.3644
5346000
5346000
5346000
5346000
5346000
5346000
5346000
5346000
5346000
5346000
5346000
5346000
5346000
5346000
5346000
5346000
5346000
5346000
5346000
5346000
345.3956
5346000
5346000
5346000
5346000
5346000
340.0142
358.2804
5346000
5346000
5346000
5346000
5346000
338.4627
344.486
371.4239
5346000
5346000
5346000
5346000
5346000
337.3999
340.1635
349.4484
381.8797
5346000
5346000
5346000
5346000
5346000
336.6017
338.0286
341.6966
352.8479
386.3749
5346000
5346000
5346000
5346000
5346000
335.9395
336.8392
338.4263
342.3174
352.9928
383.1253
5346000
5346000
5346000
5346000
5346000
335.3551
336.031
336.9069
338.3827
341.66
349.7655
373.3021
5346000
5346000
5346000
5346000
5346000
334.8173
335.3793
336.0005
336.7643
337.9053
340.0575
344.7248
360.0063
5346000
5346000
5346000
5346000
5346000
334.3149
334.7966
335.3092
335.8596
336.4778
337.2299
338.2834
339.9906
346.263
5346000
5346000
5346000
5346000
5346000
5346000
5346000
5346000
5346000
5346000
5346000
5346000
5346000
5346000
5346000
5346000
5346000
5346000
5346000
5346000
5346000
5346000
5346000
5346000
5346000
5346000
5346000
5346000
5346000
5346000
338.491
5346000
5346000
5346000
5346000
5346000
5346000
5346000
5346000
5346000
5346000
5346000
5346000
5346000
5346000
5346000
337.5394
337.9491
5346000
5346000
5346000
5346000
5346000
5346000
5346000
5346000
5346000
5346000
5346000
5346000
5346000
5346000
5346000
336.7999
337.1135
337.4227
5346000
5346000
5346000
5346000
5346000
5346000
5346000
5346000
5346000
5346000
5346000
5346000
5346000
5346000
5346000
336.1547
336.4516
336.7102
336.9358
5346000
5346000
5346000
5346000
5346000
5346000
5346000
5346000
5346000
5346000
5346000
5346000
5346000
5346000
5346000
5346000
5346000
5346000
5346000
5346000
342.3159
5346000
5346000
5346000
5346000
5346000
339.4353
353.2196
5346000
5346000
5346000
5346000
5346000
338.2991
343.1728
366.2688
5346000
5346000
5346000
5346000
5346000
337.363
339.8938
348.2617
378.4218
5346000
5346000
5346000
5346000
5346000
336.6017
338.0286
341.6966
352.8479
386.3749
5346000
5346000
5346000
5346000
5346000
335.9507
336.8889
338.6021
342.9225
354.8451
387.2634
5346000
5346000
5346000
5346000
5346000
335.3716
336.0859
337.0521
338.7998
342.9069
353.2008
380.6761
5346000
5346000
5346000
5346000
5346000
334.8379
335.4368
336.1132
337.0026
338.4937
341.6189
348.7059
369.0038
5346000
5346000
5346000
5346000
5346000
334.3393
334.8576
335.4087
336.0138
336.7542
337.8274
339.7068
343.3972
355.6003
5346000
5346000
5346000
5346000
5346000
333.8691
334.3204
334.796
335.2979
335.8331
336.4273
337.126
338.0306
339.3014
343.5888
5346000
5346000
5346000
5346000
5346000
5346000
5346000
5346000
5346000
5346000
5346000
5346000
5346000
5346000
5346000
338.8208
5346000
5346000
5346000
5346000
5346000
5346000
5346000
5346000
5346000
5346000
5346000
5346000
5346000
5346000
5346000
337.6127
338.1637
5346000
5346000
5346000
5346000
5346000
5346000
5346000
5346000
5346000
5346000
5346000
5346000
5346000
5346000
5346000
336.8382
337.1616
337.5526
5346000
5346000
5346000
5346000
5346000
5346000
5346000
5346000
5346000
5346000
5346000
5346000
5346000
5346000
5346000
336.1724
336.4691
336.7347
336.9983
5346000
5346000
5346000
5346000
5346000
5346000
5346000
5346000
5346000
5346000
5346000
5346000
5346000
5346000
5346000
335.5856
335.8698
336.1218
336.3266
336.5059
5346000
5346000
5346000
5346000
5346000
5346000
5346000
5346000
5346000
5346000
5346000
5346000
5346000
5346000
5346000
5346000
5346000
5346000
5346000
5346000
5346000
5346000
5346000
5346000
5346000
338.7703
345.4521
5346000
5346000
5346000
5346000
5346000
338.0851
341.4192
358.3657
5346000
5346000
5346000
5346000
5346000
337.2948
339.4012
346.0684
371.6318
5346000
5346000
5346000
5346000
5346000
336.5836
337.9212
341.2449
351.2497
382.3563
5346000
5346000
5346000
5346000
5346000
335.9507
336.8889
338.6021
342.9225
354.8451
387.2634
5346000
5346000
5346000
5346000
5346000
335.3801
336.1146
337.1305
339.031
343.6031
355.0914
384.4678
5346000
5346000
5346000
5346000
5346000
334.8521
335.4772
336.1954
337.1851
338.9613
342.8732
351.8094
375.0334
5346000
5346000
5346000
5346000
5346000
334.358
334.9067
335.4912
336.1474
337.007
338.3966
341.0791
346.5543
362.0631
5346000
5346000
5346000
5346000
5346000
333.8917
334.3759
334.8809
335.4105
335.985
336.6714
337.6065
339.0683
341.5037
348.6896
5346000
5346000
5346000
5346000
5346000
333.4505
333.8745
334.3197
334.7845
335.2715
335.7854
336.3435
336.9633
337.6637
338.3626
340.5844
5346000
5346000
5346000
5346000
5346000
5346000
5346000
5346000
5346000
5346000
5346000
5346000
5346000
5346000
5346000
337.6869
338.6241
5346000
5346000
5346000
5346000
5346000
5346000
5346000
5346000
5346000
5346000
5346000
5346000
5346000
5346000
5346000
336.8917
337.2302
337.8
5346000
5346000
5346000
5346000
5346000
5346000
5346000
5346000
5346000
5346000
5346000
5346000
5346000
5346000
5346000
336.2061
336.5007
336.7824
337.1379
5346000
5346000
5346000
5346000
5346000
5346000
5346000
5346000
5346000
5346000
5346000
5346000
5346000
5346000
5346000
335.602
335.8846
336.1374
336.3511
336.5704
5346000
5346000
5346000
5346000
5346000
5346000
5346000
5346000
5346000
5346000
5346000
5346000
5346000
5346000
5346000
335.056
335.3374
335.5837
335.7885
335.946
336.2536
5346000
5346000
5346000
5346000
5346000
5346000
5346000
5346000
5346000
5346000
5346000
5346000
5346000
5346000
5346000
5346000
5346000
5346000
5346000
5346000
5346000
5346000
5346000
5346000
5346000
5346000
5346000
5346000
5346000
5346000
337.8466
339.4435
347.2499
5346000
5346000
5346000
5346000
5346000
337.2044
338.7647
343.1925
361.63
5346000
5346000
5346000
5346000
5346000
336.5495
337.7242
340.4266
348.3243
374.5732
5346000
5346000
5346000
5346000
5346000
335.9395
336.8392
338.4263
342.3174
352.9928
383.1253
5346000
5346000
5346000
5346000
5346000
335.3801
336.1146
337.1305
339.031
343.6031
355.0914
384.4678
5346000
5346000
5346000
5346000
5346000
334.8593
335.498
336.2389
337.2845
339.222
343.5751
353.5123
378.0824
5346000
5346000
5346000
5346000
5346000
334.3709
334.9407
335.5498
336.2462
337.2032
338.8535
342.1846
348.9969
366.2292
5346000
5346000
5346000
5346000
5346000
333.9091
334.4204
334.9504
335.5052
336.1189
336.9001
338.0763
340.0907
343.5614
352.0364
5346000
5346000
5346000
5346000
5346000
333.4716
333.926
334.3967
334.8796
335.378
335.9061
336.5069
337.2419
338.1819
339.1893
342.5229
5346000
5346000
5346000
5346000
5346000
333.0563
333.4557
333.8739
334.3089
334.7596
335.2274
335.7129
336.2197
336.7232
337.1094
337.5193
339.9801
5346000
5346000
5346000
5346000
5346000
5346000
5346000
5346000
5346000
5346000
5346000
5346000
5346000
5346000
5346000
336.9186
337.2915
338.2914
5346000
5346000
5346000
5346000
5346000
5346000
5346000
5346000
5346000
5346000
5346000
5346000
5346000
5346000
5346000
336.2521
336.5365
336.8501
337.3974
5346000
5346000
5346000
5346000
5346000
5346000
5346000
5346000
5346000
5346000
5346000
5346000
5346000
5346000
5346000
335.6332
335.9105
336.1642
336.3991
336.7133
5346000
5346000
5346000
5346000
5346000
5346000
5346000
5346000
5346000
5346000
5346000
5346000
5346000
5346000
5346000
335.0715
335.3509
335.5961
335.8026
335.9705
336.3178
5346000
5346000
5346000
5346000
5346000
5346000
5346000
5346000
5346000
5346000
5346000
5346000
5346000
5346000
5346000
334.563
334.8383
335.088
335.2945
335.4591
335.7242
336.2218
5346000
5346000
5346000
5346000
5346000
5346000
5346000
5346000
5346000
5346000
5346000
5346000
5346000
5346000
5346000
5346000
5346000
5346000
5346000
5346000
5346000
5346000
5346000
5346000
5346000
5346000
5346000
5346000
5346000
5346000
5346000
5346000
5346000
5346000
5346000
337.1004
338.0685
340.0269
348.3164
5346000
5346000
5346000
5346000
5346000
336.5027
337.4667
339.3841
344.5448
363.3611
5346000
5346000
5346000
5346000
5346000
335.918
336.7463
338.1064
341.2288
349.6224
375.1365
5346000
5346000
5346000
5346000
5346000
335.3716
336.0859
337.0521
338.7998
342.9069
353.2008
380.6761
5346000
5346000
5346000
5346000
5346000
334.8593
335.498
336.2389
337.2845
339.222
343.5751
353.5123
378.0824
5346000
5346000
5346000
5346000
5346000
334.3775
334.9581
335.5802
336.2988
337.311
339.1096
342.804
350.3299
368.2906
5346000
5346000
5346000
5346000
5346000
333.9211
334.4511
334.9991
335.5732
336.2194
337.081
338.4598
340.9226
345.1517
354.1494
5346000
5346000
5346000
5346000
5346000
333.488
333.9673
334.4595
334.9582
335.4689
336.0161
336.6714
337.5453
338.7627
340.0772
344.066
5346000
5346000
5346000
5346000
5346000
333.0761
333.5041
333.9455
334.3949
334.848
335.3052
335.7696
336.2526
336.732
337.0723
337.7336
341.5207
5346000
5346000
5346000
5346000
5346000
332.6844
333.0614
333.4553
333.8638
334.2856
334.7189
335.1624
335.6087
336.0347
336.3218
336.4621
337.2496
339.3598
5346000
5346000
5346000
5346000
5346000
5346000
5346000
5346000
5346000
5346000
5346000
5346000
5346000
5346000
5346000
336.2674
336.5216
336.9158
337.8695
5346000
5346000
5346000
5346000
5346000
5346000
5346000
5346000
5346000
5346000
5346000
5346000
5346000
5346000
5346000
335.6758
335.9364
336.1905
336.4685
336.9701
5346000
5346000
5346000
5346000
5346000
5346000
5346000
5346000
5346000
5346000
5346000
5346000
5346000
5346000
5346000
335.101
335.3744
335.6162
335.8268
336.0192
336.4592
5346000
5346000
5346000
5346000
5346000
5346000
5346000
5346000
5346000
5346000
5346000
5346000
5346000
5346000
5346000
334.5777
334.851
335.0991
335.3052
335.4725
335.7486
336.2859
5346000
5346000
5346000
5346000
5346000
5346000
5346000
5346000
5346000
5346000
5346000
5346000
5346000
5346000
5346000
334.1
334.3705
334.6193
334.8356
335.0092
335.2666
335.6962
336.1906
5346000
5346000
5346000
5346000
5346000
5346000
5346000
5346000
5346000
5346000
5346000
5346000
5346000
5346000
5346000
5346000
5346000
5346000
5346000
5346000
5346000
5346000
5346000
5346000
5346000
5346000
5346000
5346000
5346000
5346000
5346000
5346000
5346000
5346000
5346000
5346000
5346000
5346000
5346000
5346000
336.4462
337.1793
338.2646
340.4599
348.8641
5346000
5346000
5346000
5346000
5346000
335.8876
336.6212
337.6945
339.8578
345.3078
363.6843
5346000
5346000
5346000
5346000
5346000
335.3551
336.031
336.9069
338.3827
341.66
349.7655
373.3021
5346000
5346000
5346000
5346000
5346000
334.8521
335.4772
336.1954
337.1851
338.9613
342.8732
351.8094
375.0334
5346000
5346000
5346000
5346000
5346000
334.3775
334.9581
335.5802
336.2988
337.311
339.1096
342.804
350.3299
368.2906
5346000
5346000
5346000
5346000
5346000
333.9272
334.4667
335.0241
335.6087
336.2734
337.1816
338.6768
341.3905
346.0172
355.1845
5346000
5346000
5346000
5346000
5346000
333.4992
333.9958
334.5032
335.0138
335.535
336.1011
336.8082
337.8072
339.2592
340.7925
345.111
5346000
5346000
5346000
5346000
5346000
333.0915
333.5429
334.0038
334.4657
334.922
335.374
335.8308
336.3193
336.8345
337.2218
338.0612
342.8046
5346000
5346000
5346000
5346000
5346000
332.7031
333.107
333.5227
333.944
334.3656
334.7812
335.1855
335.5658
335.8931
336.0527
336.3094
337.4223
340.5798
5346000
5346000
5346000
5346000
5346000
332.3331
332.6894
333.0611
333.4461
333.8422
334.2479
334.6595
335.07
335.4524
335.7079
335.7791
336.2461
336.9476
338.7172
5346000
5346000
5346000
5346000
5346000
5346000
5346000
5346000
5346000
5346000
5346000
5346000
5346000
5346000
5346000
335.6898
335.9052
336.17
336.5449
337.3998
5346000
5346000
5346000
5346000
5346000
5346000
5346000
5346000
5346000
5346000
5346000
5346000
5346000
5346000
5346000
335.1415
335.3975
335.6309
335.8506
336.0922
336.7089
5346000
5346000
5346000
5346000
5346000
5346000
5346000
5346000
5346000
5346000
5346000
5346000
5346000
5346000
5346000
334.6059
334.8733
335.1169
335.3219
335.4959
335.7975
336.427
5346000
5346000
5346000
5346000
5346000
5346000
5346000
5346000
5346000
5346000
5346000
5346000
5346000
5346000
5346000
334.1141
334.3826
334.6298
334.845
335.0189
335.2798
335.7205
336.2547
5346000
5346000
5346000
5346000
5346000
5346000
5346000
5346000
5346000
5346000
5346000
5346000
5346000
5346000
5346000
333.665
333.9285
334.1768
334.3975
334.587
334.8415
335.2421
335.6687
336.1588
5346000
5346000
5346000
5346000
5346000
5346000
5346000
5346000
5346000
5346000
5346000
5346000
5346000
5346000
5346000
5346000
5346000
5346000
5346000
5346000
5346000
5346000
5346000
5346000
5346000
5346000
5346000
5346000
5346000
5346000
5346000
5346000
5346000
5346000
5346000
5346000
5346000
5346000
5346000
5346000
5346000
5346000
5346000
5346000
5346000
335.8493
336.4765
337.2443
338.4066
340.6936
348.9646
5346000
5346000
5346000
5346000
5346000
335.3313
335.9545
336.7145
337.8524
340.1016
345.3775
362.6024
5346000
5346000
5346000
5346000
5346000
334.8379
335.4368
336.1132
337.0026
338.4937
341.6189
348.7059
369.0038
5346000
5346000
5346000
5346000
5346000
334.3709
334.9407
335.5498
336.2462
337.2032
338.8535
342.1846
348.9969
366.2292
5346000
5346000
5346000
5346000
5346000
333.9272
334.4667
335.0241
335.6087
336.2734
337.1816
338.6768
341.3905
346.0172
355.1845
5346000
5346000
5346000
5346000
5346000
333.5049
334.0103
334.5256
335.0425
335.5698
336.1477
336.8862
337.9591
339.5435
341.1871
345.6363
5346000
5346000
5346000
5346000
5346000
333.1021
333.5697
334.0444
334.5154
334.9749
335.4257
335.8835
336.3901
336.955
337.3958
338.3511
343.6918
5346000
5346000
5346000
5346000
5346000
332.7176
333.1435
333.5775
334.0099
334.432
334.8352
335.2134
335.5568
335.8463
335.9776
336.2964
337.6837
341.6292
5346000
5346000
5346000
5346000
5346000
332.3507
332.7324
333.1247
333.5216
333.9169
334.3042
334.6733
335.0094
335.2762
335.3917
335.5387
336.1205
337.098
339.6755
5346000
5346000
5346000
5346000
5346000
332.0007
332.3378
332.6892
333.0525
333.4259
333.8071
334.1931
334.5755
334.9315
335.1701
335.2362
335.5943
336.0097
336.62
338.0704
5346000
5346000
5346000
5346000
5346000
5346000
5346000
5346000
5346000
5346000
5346000
5346000
5346000
5346000
5346000
335.1568
335.3665
335.5909
335.8407
336.1815
337.1105
5346000
5346000
5346000
5346000
5346000
5346000
5346000
5346000
5346000
5346000
5346000
5346000
5346000
5346000
5346000
334.6449
334.8956
335.1287
335.3326
335.5221
335.8723
336.6758
5346000
5346000
5346000
5346000
5346000
5346000
5346000
5346000
5346000
5346000
5346000
5346000
5346000
5346000
5346000
334.1412
334.4041
334.6466
334.8593
335.0343
335.3033
335.7694
336.3954
5346000
5346000
5346000
5346000
5346000
5346000
5346000
5346000
5346000
5346000
5346000
5346000
5346000
5346000
5346000
333.6786
333.9402
334.1868
334.4063
334.5954
334.8509
335.2552
335.693
336.2227
5346000
5346000
5346000
5346000
5346000
5346000
5346000
5346000
5346000
5346000
5346000
5346000
5346000
5346000
5346000
333.2547
333.511
333.7558
333.9803
334.1792
334.4397
334.8198
335.2181
335.6407
336.1283
5346000
5346000
5346000
5346000
5346000
5346000
5346000
5346000
5346000
5346000
5346000
5346000
5346000
5346000
5346000
5346000
5346000
5346000
5346000
5346000
5346000
5346000
5346000
5346000
5346000
5346000
5346000
5346000
5346000
5346000
5346000
5346000
5346000
5346000
5346000
5346000
5346000
5346000
5346000
5346000
5346000
5346000
5346000
5346000
5346000
5346000
5346000
5346000
5346000
5346000
335.3007
335.8628
336.4968
337.2818
338.4678
340.6972
348.6219
5346000
5346000
5346000
5346000
5346000
334.8173
335.3793
336.0005
336.7643
337.9053
340.0575
344.7248
360.0063
5346000
5346000
5346000
5346000
5346000
334.358
334.9067
335.4912
336.1474
337.007
338.3966
341.0791
346.5543
362.0631
5346000
5346000
5346000
5346000
5346000
333.9211
334.4511
334.9991
335.5732
336.2194
337.081
338.4598
340.9226
345.1517
354.1494
5346000
5346000
5346000
5346000
5346000
333.5049
334.0103
334.5256
335.0425
335.5698
336.1477
336.8862
337.9591
339.5435
341.1871
345.6363
5346000
5346000
5346000
5346000
5346000
333.1075
333.5833
334.0652
334.5409
335.0024
335.4534
335.9141
336.4346
337.0319
337.5044
338.5166
344.1418
5346000
5346000
5346000
5346000
5346000
332.7276
333.1688
333.6157
334.056
334.479
334.8749
335.2386
335.5651
335.8449
335.9737
336.3301
337.9168
342.3677
5346000
5346000
5346000
5346000
5346000
332.3644
332.7669
333.1765
333.5836
333.9789
334.3524
334.6912
334.9799
335.188
335.2557
335.4289
336.1003
337.309
340.5164
5346000
5346000
5346000
5346000
5346000
332.0173
332.3784
332.7493
333.1239
333.4966
333.8602
334.2054
334.5153
334.7585
334.8628
334.989
335.3976
335.9185
336.7584
338.8089
5346000
5346000
5346000
5346000
5346000
331.686
332.0052
332.3376
332.681
333.0335
333.393
333.7561
334.1157
334.4498
334.6801
334.7519
335.0735
335.3949
335.7575
336.2869
337.7006
5346000
5346000
5346000
5346000
5346000
5346000
5346000
5346000
5346000
5346000
5346000
5346000
5346000
5346000
5346000
334.6622
334.8693
335.0883
335.3017
335.5303
335.9681
337.074
5346000
5346000
5346000
5346000
5346000
5346000
5346000
5346000
5346000
5346000
5346000
5346000
5346000
5346000
5346000
334.1789
334.4263
334.6582
334.8668
335.0467
335.332
335.8443
336.6432
5346000
5346000
5346000
5346000
5346000
5346000
5346000
5346000
5346000
5346000
5346000
5346000
5346000
5346000
5346000
333.7046
333.961
334.2031
334.4197
334.6082
334.8664
335.2787
335.7419
336.3631
5346000
5346000
5346000
5346000
5346000
5346000
5346000
5346000
5346000
5346000
5346000
5346000
5346000
5346000
5346000
333.2677
333.5223
333.7655
333.9887
334.187
334.4478
334.8292
335.2312
335.665
336.1921
5346000
5346000
5346000
5346000
5346000
5346000
5346000
5346000
5346000
5346000
5346000
5346000
5346000
5346000
5346000
332.8672
333.1153
333.3558
333.5803
333.787
334.0487
334.4204
334.7987
335.1936
335.614
336.0939
5346000
5346000
5346000
5346000
5346000
5346000
5346000
5346000
5346000
5346000
5346000
5346000
5346000
5346000
5346000
5346000
5346000
5346000
5346000
5346000
5346000
5346000
5346000
5346000
5346000
5346000
5346000
5346000
5346000
5346000
5346000
5346000
5346000
5346000
5346000
5346000
5346000
5346000
5346000
5346000
5346000
5346000
5346000
5346000
5346000
5346000
5346000
5346000
5346000
5346000
5346000
5346000
5346000
5346000
5346000
334.7905
335.3086
335.8681
336.4994
337.28
338.4293
340.4602
347.7786
5346000
5346000
5346000
5346000
5346000
334.3393
334.8576
335.4087
336.0138
336.7542
337.8274
339.7068
343.3972
355.6003
5346000
5346000
5346000
5346000
5346000
333.9091
334.4204
334.9504
335.5052
336.1189
336.9001
338.0763
340.0907
343.5614
352.0364
5346000
5346000
5346000
5346000
5346000
333.4992
333.9958
334.5032
335.0138
335.535
336.1011
336.8082
337.8072
339.2592
340.7925
345.111
5346000
5346000
5346000
5346000
5346000
333.1075
333.5833
334.0652
334.5409
335.0024
335.4534
335.9141
336.4346
337.0319
337.5044
338.5166
344.1418
5346000
5346000
5346000
5346000
5346000
332.7328
333.1816
333.6352
334.0796
334.5034
334.896
335.2535
335.5741
335.8533
335.9841
336.3589
338.0508
342.7456
5346000
5346000
5346000
5346000
5346000
332.3739
332.7908
333.2125
333.6271
334.0227
334.3875
334.7078
334.97
335.15
335.1985
335.3833
336.12
337.4961
341.117
5346000
5346000
5346000
5346000
5346000
332.0303
332.4111
332.7982
333.1826
333.5552
333.9056
334.2211
334.4831
334.6651
334.7181
334.8586
335.2985
335.8994
336.9315
339.4637
5346000
5346000
5346000
5346000
5346000
331.7018
332.0436
332.3945
332.7487
333.1007
333.4439
333.769
334.061
334.2902
334.3972
334.521
334.8716
335.245
335.702
336.4183
338.3372
5346000
5346000
5346000
5346000
5346000
331.388
331.6902
332.005
332.3299
332.6631
333.0026
333.3452
333.6842
334.0002
334.2221
334.3045
334.6063
334.8996
335.184
335.5063
336.0863
337.6553
5346000
5346000
5346000
5346000
5346000
5346000
5346000
5346000
5346000
5346000
5346000
5346000
5346000
5346000
5346000
334.1979
334.4054
334.6224
334.8336
335.033
335.3509
335.9406
337.0381
5346000
5346000
5346000
5346000
5346000
5346000
5346000
5346000
5346000
5346000
5346000
5346000
5346000
5346000
5346000
333.7411
333.9832
334.2153
334.4269
334.6166
334.881
335.3076
335.8169
336.6097
5346000
5346000
5346000
5346000
5346000
5346000
5346000
5346000
5346000
5346000
5346000
5346000
5346000
5346000
5346000
333.2928
333.5424