/*--------------------------------*- C++ -*----------------------------------*\
| =========                 |                                                 |
| \\      /  F ield         | OpenFOAM: The Open Source CFD Toolbox           |
|  \\    /   O peration     | Version:  2306                                  |
|   \\  /    A nd           | Website:  www.openfoam.com                      |
|    \\/     M anipulation  |                                                 |
\*---------------------------------------------------------------------------*/
FoamFile
{
    version     2.0;
    format      ascii;
    arch        "LSB;label=32;scalar=64";
    class       volScalarField;
    location    "0.6";
    object      T;
}
// * * * * * * * * * * * * * * * * * * * * * * * * * * * * * * * * * * * * * //

dimensions      [0 0 0 1 0 0 0];

internalField   nonuniform List<scalar> 
52000
(
1213.837
1213.835
1215.68
1213.772
1213.831
1215.679
1213.769
1218.117
1215.659
1213.643
1213.825
1215.677
1213.763
1218.116
1215.658
1213.638
1220.629
1218.117
1215.62
1213.455
1213.818
1215.675
1213.755
1218.115
1215.656
1213.629
1220.628
1218.116
1215.619
1213.446
1223.04
1220.636
1218.118
1215.566
1213.217
1213.811
1215.673
1213.746
1218.113
1215.654
1213.616
1220.627
1218.114
1215.616
1213.429
1223.039
1220.635
1218.117
1215.564
1213.2
1225.303
1223.049
1220.651
1218.124
1215.504
1213.019
1213.804
1215.67
1213.736
1218.111
1215.65
1213.601
1220.625
1218.112
1215.612
1213.407
1223.038
1220.633
1218.114
1215.56
1213.169
1225.302
1223.048
1220.649
1218.122
1215.5
1212.991
1227.413
1225.311
1223.067
1220.676
1218.138
1215.459
1212.891
1213.798
1215.667
1213.726
1218.109
1215.647
1213.584
1220.622
1218.109
1215.607
1213.381
1223.036
1220.63
1218.11
1215.554
1213.127
1225.301
1223.046
1220.646
1218.117
1215.493
1212.935
1227.412
1225.311
1223.066
1220.674
1218.135
1215.453
1212.854
1229.381
1227.421
1225.33
1223.098
1220.716
1218.159
1215.433
1212.774
1213.794
1215.665
1213.717
1218.107
1215.643
1213.566
1220.62
1218.106
1215.601
1213.353
1223.034
1220.627
1218.105
1215.546
1213.083
1225.299
1223.043
1220.642
1218.111
1215.484
1212.853
1227.411
1225.309
1223.063
1220.67
1218.129
1215.44
1212.781
1229.38
1227.42
1225.328
1223.096
1220.714
1218.156
1215.424
1212.73
1231.219
1229.388
1227.438
1225.36
1223.143
1220.759
1218.177
1215.413
1212.674
1213.791
1215.663
1213.711
1218.105
1215.64
1213.551
1220.618
1218.103
1215.595
1213.32
1223.031
1220.624
1218.1
1215.538
1213.052
1225.297
1223.04
1220.637
1218.103
1215.474
1212.749
1227.41
1225.307
1223.059
1220.663
1218.12
1215.423
1212.667
1229.379
1227.419
1225.326
1223.091
1220.708
1218.15
1215.408
1212.64
1231.219
1229.388
1227.437
1225.358
1223.141
1220.757
1218.174
1215.402
1212.624
1232.94
1231.226
1229.404
1227.466
1225.404
1223.191
1220.792
1218.2
1215.402
1212.598
1213.791
1215.662
1213.707
1218.103
1215.637
1213.539
1220.616
1218.1
1215.59
1213.288
1223.029
1220.621
1218.095
1215.528
1212.98
1225.295
1223.037
1220.631
1218.093
1215.467
1199.499
1227.408
1225.304
1223.054
1220.654
1218.106
1215.405
1212.509
1229.378
1227.417
1225.322
1223.085
1220.698
1218.141
1215.383
1212.499
1231.218
1229.386
1227.435
1225.354
1223.135
1220.753
1218.167
1215.381
1212.522
1232.94
1231.225
1229.403
1227.464
1225.402
1223.189
1220.79
1218.196
1215.39
1212.544
1234.555
1232.946
1231.24
1229.429
1227.507
1225.449
1223.226
1220.828
1218.229
1215.403
1212.547
1213.794
1215.662
1213.707
1218.103
1215.636
1213.532
1220.614
1218.098
1215.586
1213.263
1223.027
1220.618
1218.09
1215.517
1212.907
1225.293
1223.034
1220.626
1218.083
1215.447
1187.033
1227.406
1225.301
1223.048
1220.643
1218.086
1213.972
1186.804
1229.376
1227.414
1225.317
1223.076
1220.683
1218.132
1215.352
1212.299
1231.216
1229.384
1227.431
1225.348
1223.126
1220.746
1218.157
1215.349
1212.361
1232.939
1231.224
1229.4
1227.46
1225.396
1223.185
1220.786
1218.189
1215.365
1212.433
1234.554
1232.945
1231.239
1229.427
1227.504
1225.447
1223.224
1220.827
1218.224
1215.39
1212.491
1236.073
1234.56
1232.959
1231.262
1229.466
1227.548
1225.482
1223.264
1220.869
1218.263
1215.416
1212.523
1213.798
1215.663
1213.711
1218.103
1215.636
1213.532
1220.614
1218.097
1215.584
1213.25
1223.026
1220.616
1218.087
1215.509
1212.852
1225.291
1223.031
1220.621
1218.074
1215.424
1180.06
1227.404
1225.298
1223.043
1220.632
1218.067
1211.208
1156.401
1229.375
1227.412
1225.312
1223.065
1220.657
1217.61
1211.157
1179.631
1231.215
1229.382
1227.427
1225.339
1223.111
1220.739
1218.145
1215.305
1212.134
1232.938
1231.222
1229.397
1227.455
1225.388
1223.18
1220.781
1218.177
1215.326
1212.261
1234.554
1232.944
1231.237
1229.424
1227.5
1225.444
1223.221
1220.823
1218.216
1215.362
1212.378
1236.073
1234.56
1232.958
1231.261
1229.464
1227.546
1225.481
1223.263
1220.867
1218.259
1215.403
1212.467
1237.503
1236.078
1234.572
1232.979
1231.296
1229.503
1227.578
1225.518
1223.305
1220.913
1218.304
1215.443
1212.526
1213.804
1215.665
1213.717
1218.103
1215.637
1213.539
1220.614
1218.097
1215.584
1213.25
1223.025
1220.615
1218.085
1215.504
1212.823
1225.29
1223.029
1220.618
1218.068
1215.404
1176.072
1227.403
1225.296
1223.039
1220.624
1218.05
1208.815
1137.344
1229.373
1227.409
1225.307
1223.055
1220.637
1216.617
1203.001
1137.024
1231.213
1229.38
1227.422
1225.329
1223.085
1220.494
1216.669
1208.709
1175.406
1232.936
1231.22
1229.394
1227.447
1225.374
1223.174
1220.775
1218.161
1215.273
1212.019
1234.553
1232.943
1231.234
1229.419
1227.492
1225.439
1223.218
1220.818
1218.203
1215.32
1212.201
1236.072
1234.559
1232.956
1231.258
1229.46
1227.543
1225.479
1223.261
1220.864
1218.25
1215.375
1212.354
1237.503
1236.078
1234.571
1232.978
1231.294
1229.502
1227.577
1225.518
1223.304
1220.911
1218.3
1215.43
1212.471
1238.852
1237.508
1236.089
1234.591
1233.01
1231.33
1229.531
1227.611
1225.557
1223.349
1220.96
1218.351
1215.482
1212.555
1213.811
1215.667
1213.726
1218.105
1215.64
1213.551
1220.614
1218.098
1215.586
1213.263
1223.025
1220.615
1218.085
1215.504
1212.823
1225.289
1223.028
1220.616
1218.064
1215.393
1174.215
1227.402
1225.294
1223.035
1220.618
1218.037
1207.054
1125.888
1229.371
1227.407
1225.303
1223.047
1220.622
1215.731
1195.848
1108.404
1231.212
1229.377
1227.418
1225.32
1223.065
1220.063
1213.765
1195.734
1125.03
1232.935
1231.218
1229.389
1227.438
1225.349
1223.028
1220.151
1215.821
1206.873
1173.229
1234.551
1232.941
1231.231
1229.412
1227.479
1225.435
1223.214
1220.811
1218.184
1215.261
1211.955
1236.071
1234.557
1232.954
1231.253
1229.453
1227.539
1225.476
1223.258
1220.858
1218.236
1215.333
1212.18
1237.502
1236.077
1234.57
1232.975
1231.29
1229.499
1227.575
1225.516
1223.303
1220.908
1218.292
1215.404
1212.361
1238.851
1237.507
1236.088
1234.59
1233.008
1231.328
1229.53
1227.611
1225.556
1223.348
1220.959
1218.348
1215.471
1212.501
1240.124
1238.856
1237.518
1236.106
1234.619
1233.04
1231.354
1229.56
1227.646
1225.598
1223.395
1221.011
1218.403
1215.534
1212.608
1213.818
1215.67
1213.736
1218.107
1215.643
1213.566
1220.616
1218.1
1215.59
1213.288
1223.026
1220.616
1218.087
1215.509
1212.852
1225.289
1223.028
1220.616
1218.064
1215.393
1174.215
1227.401
1225.293
1223.034
1220.615
1218.031
1206.121
1120.446
1229.37
1227.405
1225.3
1223.041
1220.611
1215.056
1190.544
1090.436
1231.21
1229.375
1227.414
1225.313
1223.052
1219.693
1211.126
1184.167
1089.715
1232.933
1231.216
1229.385
1227.43
1225.332
1222.797
1218.95
1211.16
1190.219
1118.749
1234.55
1232.939
1231.227
1229.404
1227.457
1225.329
1222.89
1219.852
1215.18
1205.84
1172.793
1236.07
1234.556
1232.95
1231.247
1229.441
1227.535
1225.473
1223.254
1220.851
1218.216
1215.273
1211.94
1237.501
1236.076
1234.567
1232.971
1231.284
1229.495
1227.573
1225.514
1223.3
1220.903
1218.279
1215.365
1212.194
1238.851
1237.507
1236.087
1234.587
1233.005
1231.326
1229.528
1227.609
1225.555
1223.347
1220.957
1218.341
1215.448
1212.393
1240.124
1238.855
1237.517
1236.105
1234.617
1233.039
1231.354
1229.56
1227.646
1225.598
1223.395
1221.011
1218.402
1215.524
1212.553
1241.325
1240.128
1238.865
1237.534
1236.132
1234.647
1233.063
1231.381
1229.592
1227.683
1225.64
1223.443
1221.064
1218.46
1215.595
1213.503
1213.825
1215.673
1213.746
1218.109
1215.647
1213.584
1220.618
1218.103
1215.595
1213.32
1223.027
1220.618
1218.09
1215.517
1212.907
1225.29
1223.029
1220.618
1218.068
1215.404
1176.072
1227.401
1225.293
1223.034
1220.615
1218.031
1206.121
1120.446
1229.37
1227.404
1225.299
1223.039
1220.606
1214.689
1187.723
1081.698
1231.21
1229.374
1227.412
1225.308
1223.043
1219.415
1209.092
1175.484
1066.879
1232.932
1231.214
1229.382
1227.423
1225.32
1222.609
1217.881
1206.855
1175.185
1079.697
1234.549
1232.937
1231.223
1229.396
1227.441
1225.173
1222.287
1217.969
1209.149
1187.086
1117.548
1236.069
1234.554
1232.947
1231.24
1229.421
1227.448
1225.262
1222.78
1219.648
1214.855
1205.733
1174.07
1237.5
1236.074
1234.564
1232.966
1231.273
1229.492
1227.57
1225.511
1223.296
1220.896
1218.259
1215.309
1211.968
1238.85
1237.505
1236.085
1234.583
1232.999
1231.323
1229.526
1227.607
1225.554
1223.345
1220.953
1218.33
1215.415
1212.234
1240.123
1238.855
1237.516
1236.103
1234.614
1233.037
1231.352
1229.559
1227.645
1225.597
1223.395
1221.01
1218.398
1215.505
1212.446
1241.325
1240.128
1238.864
1237.533
1236.131
1234.646
1233.062
1231.381
1229.592
1227.683
1225.64
1223.444
1221.065
1218.46
1215.587
1213.429
1242.46
1241.329
1240.137
1238.88
1237.558
1236.158
1234.668
1233.088
1231.41
1229.625
1227.722
1225.684
1223.493
1221.119
1218.521
1216.415
1215.224
1213.831
1215.675
1213.755
1218.111
1215.65
1213.601
1220.62
1218.106
1215.601
1213.353
1223.029
1220.621
1218.095
1215.528
1212.98
1225.291
1223.031
1220.621
1218.074
1215.424
1180.06
1227.402
1225.294
1223.035
1220.618
1218.037
1207.054
1125.888
1229.37
1227.404
1225.299
1223.039
1220.606
1214.689
1187.723
1081.698
1231.209
1229.373
1227.41
1225.305
1223.038
1219.266
1207.981
1170.834
1055.584
1232.931
1231.213
1229.38
1227.419
1225.312
1222.473
1217.065
1203.495
1163.785
1054.031
1234.548
1232.935
1231.22
1229.39
1227.43
1225.054
1221.771
1216.256
1203.507
1170.031
1077.766
1236.068
1234.552
1232.944
1231.233
1229.407
1227.324
1224.881
1221.871
1217.263
1208.072
1186.718
1121.381
1237.499
1236.072
1234.561
1232.959
1231.255
1229.414
1227.405
1225.216
1222.726
1219.588
1214.921
1206.591
1177.289
1238.849
1237.504
1236.082
1234.578
1232.989
1231.319
1229.523
1227.606
1225.552
1223.342
1220.946
1218.314
1215.369
1212.029
1240.122
1238.853
1237.514
1236.099
1234.609
1233.034
1231.35
1229.557
1227.644
1225.596
1223.394
1221.008
1218.391
1215.479
1212.288
1241.325
1240.127
1238.863
1237.531
1236.128
1234.644
1233.061
1231.38
1229.591
1227.683
1225.641
1223.445
1221.066
1218.459
1215.571
1213.266
1242.46
1241.329
1240.136
1238.879
1237.556
1236.157
1234.667
1233.087
1231.41
1229.625
1227.722
1225.685
1223.494
1221.121
1218.522
1216.407
1215.115
1243.532
1242.464
1241.338
1240.151
1238.902
1237.582
1236.177
1234.69
1233.114
1231.44
1229.66
1227.761
1225.729
1223.543
1221.174
1219.239
1217.984
1216.957
1213.835
1215.677
1213.763
1218.113
1215.654
1213.616
1220.622
1218.109
1215.607
1213.381
1223.031
1220.624
1218.1
1215.538
1213.052
1225.293
1223.034
1220.626
1218.083
1215.447
1187.033
1227.403
1225.296
1223.039
1220.624
1218.05
1208.815
1137.344
1229.37
1227.405
1225.3
1223.041
1220.611
1215.056
1190.544
1090.436
1231.209
1229.373
1227.41
1225.305
1223.038
1219.266
1207.981
1170.834
1055.584
1232.931
1231.212
1229.378
1227.417
1225.308
1222.402
1216.62
1201.649
1157.643
1041.214
1234.547
1232.934
1231.218
1229.386
1227.423
1224.971
1221.389
1214.93
1199.062
1157.018
1051.525
1236.067
1234.551
1232.941
1231.228
1229.397
1227.232
1224.569
1221.073
1215.059
1201.672
1169.386
1083.904
1237.498
1236.071
1234.558
1232.953
1231.242
1229.306
1227.112
1224.665
1221.619
1216.975
1208.161
1189.222
1130.739
1238.848
1237.502
1236.079
1234.572
1232.973
1231.249
1229.38
1227.38
1225.212
1222.753
1219.708
1215.41
1208.381
1183.149
1240.121
1238.852
1237.511
1236.095
1234.6
1233.031
1231.348
1229.555
1227.642
1225.595
1223.392
1221.004
1218.38
1215.447
1212.095
1241.324
1240.126
1238.861
1237.527
1236.123
1234.641
1233.059
1231.378
1229.59
1227.682
1225.641
1223.446
1221.068
1218.459
1215.552
1212.945
1242.459
1241.328
1240.135
1238.877
1237.554
1236.155
1234.665
1233.086
1231.409
1229.625
1227.722
1225.687
1223.497
1221.125
1218.524
1216.394
1214.854
1243.532
1242.464
1241.337
1240.15
1238.901
1237.581
1236.176
1234.689
1233.113
1231.44
1229.66
1227.762
1225.731
1223.545
1221.177
1219.246
1217.977
1216.819
1244.544
1243.535
1242.472
1241.351
1240.172
1238.925
1237.599
1236.198
1234.714
1233.141
1231.471
1229.695
1227.801
1225.774
1223.592
1221.8
1220.613
1219.554
1218.707
1213.837
1215.679
1213.769
1218.115
1215.656
1213.629
1220.625
1218.112
1215.612
1213.407
1223.034
1220.627
1218.105
1215.546
1213.083
1225.295
1223.037
1220.631
1218.093
1215.467
1199.499
1227.404
1225.298
1223.043
1220.632
1218.067
1211.208
1156.401
1229.371
1227.407
1225.303
1223.047
1220.622
1215.731
1195.848
1108.404
1231.21
1229.374
1227.412
1225.308
1223.043
1219.415
1209.092
1175.484
1066.879
1232.931
1231.212
1229.378
1227.417
1225.308
1222.402
1216.62
1201.649
1157.643
1041.214
1234.547
1232.933
1231.217
1229.384
1227.42
1224.928
1221.185
1214.203
1196.605
1149.979
1038.39
1236.066
1234.549
1232.939
1231.224
1229.39
1227.169
1224.346
1220.473
1213.331
1196.597
1156.139
1059.391
1237.497
1236.069
1234.556
1232.948
1231.233
1229.227
1226.878
1224.201
1220.63
1214.531
1201.75
1173.422
1098.594
1238.847
1237.501
1236.076
1234.566
1232.961
1231.15
1229.127
1226.967
1224.57
1221.599
1217.211
1209.495
1194.439
1146.984
1240.12
1238.851
1237.509
1236.089
1234.585
1232.966
1231.217
1229.362
1227.39
1225.264
1222.88
1220.028
1216.318
1211.052
1193.664
1241.323
1240.125
1238.859
1237.523
1236.115
1234.638
1233.057
1231.377
1229.589
1227.681
1225.64
1223.446
1221.068
1218.458
1215.535
1212.039
1242.459
1241.327
1240.133
1238.874
1237.549
1236.153
1234.664
1233.085
1231.408
1229.625
1227.723
1225.688
1223.501
1221.132
1218.531
1216.39
1214.29
1243.531
1242.463
1241.336
1240.148
1238.899
1237.579
1236.175
1234.689
1233.113
1231.44
1229.661
1227.764
1225.734
1223.551
1221.185
1219.265
1217.967
1216.486
1244.543
1243.535
1242.471
1241.35
1240.17
1238.924
1237.599
1236.197
1234.713
1233.141
1231.472
1229.696
1227.803
1225.776
1223.596
1221.81
1220.63
1219.547
1218.549
1245.498
1244.547
1243.543
1242.484
1241.37
1240.193
1238.941
1237.618
1236.22
1234.739
1233.169
1231.504
1229.732
1227.841
1225.817
1224.139
1222.995
1221.985
1221.125
1220.477
1215.68
1213.772
1218.116
1215.658
1213.638
1220.627
1218.114
1215.616
1213.429
1223.036
1220.63
1218.11
1215.554
1213.127
1225.297
1223.04
1220.637
1218.103
1215.474
1212.749
1227.406
1225.301
1223.048
1220.643
1218.086
1213.972
1186.804
1229.373
1227.409
1225.307
1223.055
1220.637
1216.617
1203.001
1137.024
1231.21
1229.375
1227.414
1225.313
1223.052
1219.693
1211.126
1184.167
1089.715
1232.931
1231.213
1229.38
1227.419
1225.312
1222.473
1217.065
1203.495
1163.785
1054.031
1234.547
1232.933
1231.217
1229.384
1227.42
1224.928
1221.185
1214.203
1196.605
1149.979
1038.39
1236.066
1234.549
1232.938
1231.222
1229.387
1227.138
1224.23
1220.15
1212.377
1193.781
1148.965
1047.18
1237.496
1236.068
1234.554
1232.944
1231.228
1229.174
1226.716
1223.865
1219.876
1212.596
1196.646
1161.371
1077.979
1238.846
1237.499
1236.074
1234.562
1232.953
1231.078
1228.928
1226.629
1224.02
1220.551
1214.848
1203.851
1181.788
1123.13
1240.119
1238.849
1237.506
1236.084
1234.574
1232.875
1230.987
1229.009
1226.922
1224.633
1221.863
1218.024
1212.004
1201.989
1173.379
1241.322
1240.123
1238.857
1237.518
1236.101
1234.578
1232.935
1231.2
1229.374
1227.445
1225.384
1223.124
1220.571
1217.674
1214.728
1205.564
1242.458
1241.326
1240.131
1238.87
1237.542
1236.15
1234.662
1233.083
1231.407
1229.624
1227.723
1225.689
1223.504
1221.139
1218.543
1216.496
1212.811
1243.531
1242.462
1241.334
1240.145
1238.894
1237.577
1236.173
1234.687
1233.112
1231.44
1229.661
1227.765
1225.738
1223.559
1221.197
1219.323
1217.977
1215.773
1244.543
1243.534
1242.47
1241.348
1240.168
1238.922
1237.598
1236.196
1234.713
1233.141
1231.472
1229.698
1227.806
1225.782
1223.604
1221.836
1220.676
1219.537
1218.171
1245.497
1244.547
1243.542
1242.484
1241.369
1240.192
1238.941
1237.618
1236.219
1234.739
1233.17
1231.504
1229.733
1227.844
1225.821
1224.149
1223.017
1222.009
1221.117
1220.31
1246.397
1245.501
1244.554
1243.555
1242.503
1241.39
1240.208
1238.959
1237.639
1236.243
1234.765
1233.199
1231.536
1229.767
1227.88
1226.298
1225.183
1224.188
1223.352
1222.697
1221.425
1218.117
1215.659
1213.643
1220.628
1218.116
1215.619
1213.446
1223.038
1220.633
1218.114
1215.56
1213.169
1225.299
1223.043
1220.642
1218.111
1215.484
1212.853
1227.408
1225.304
1223.054
1220.654
1218.106
1215.405
1212.509
1229.375
1227.412
1225.312
1223.065
1220.657
1217.61
1211.157
1179.631
1231.212
1229.377
1227.418
1225.32
1223.065
1220.063
1213.765
1195.734
1125.03
1232.932
1231.214
1229.382
1227.423
1225.32
1222.609
1217.881
1206.855
1175.185
1079.697
1234.547
1232.934
1231.218
1229.386
1227.423
1224.971
1221.389
1214.93
1199.062
1157.018
1051.525
1236.066
1234.549
1232.938
1231.222
1229.387
1227.138
1224.23
1220.15
1212.377
1193.781
1148.965
1047.18
1237.496
1236.068
1234.553
1232.943
1231.225
1229.147
1226.633
1223.688
1219.466
1211.52
1193.807
1154.854
1067.825
1238.845
1237.499
1236.072
1234.559
1232.948
1231.03
1228.792
1226.392
1223.616
1219.741
1212.959
1199.34
1172.169
1108.235
1240.119
1238.848
1237.504
1236.08
1234.567
1232.808
1230.806
1228.725
1226.535
1224.084
1220.919
1216.077
1207.79
1193.642
1160.427
1241.321
1240.122
1238.854
1237.513
1236.091
1234.492
1232.721
1230.88
1228.979
1227.005
1224.887
1222.45
1219.419
1215.536
1211.354
1197.813
1242.457
1241.325
1240.129
1238.865
1237.529
1236.093
1234.548
1232.919
1231.212
1229.426
1227.555
1225.587
1223.513
1221.412
1219.782
1217.94
1207.809
1243.53
1242.461
1241.332
1240.141
1238.887
1237.574
1236.172
1234.686
1233.111
1231.439
1229.661
1227.767
1225.742
1223.568
1221.217
1219.597
1218.117
1214.134
1244.542
1243.534
1242.469
1241.345
1240.164
1238.92
1237.596
1236.195
1234.712
1233.141
1231.473
1229.7
1227.81
1225.79
1223.618
1221.906
1220.803
1219.544
1217.397
1245.497
1244.546
1243.541
1242.482
1241.367
1240.19
1238.939
1237.617
1236.219
1234.739
1233.17
1231.506
1229.736
1227.849
1225.829
1224.176
1223.076
1222.073
1221.103
1219.914
1246.397
1245.501
1244.553
1243.554
1242.502
1241.39
1240.208
1238.959
1237.639
1236.243
1234.765
1233.199
1231.538
1229.77
1227.884
1226.308
1225.206
1224.219
1223.381
1222.688
1221.257
1247.243
1246.4
1245.508
1244.566
1243.573
1242.522
1241.405
1240.225
1238.978
1237.66
1236.267
1234.792
1233.228
1231.569
1229.802
1228.306
1227.216
1226.224
1225.374
1224.714
1223.528
1221.527
1220.629
1218.117
1215.62
1213.455
1223.039
1220.635
1218.117
1215.564
1213.2
1225.301
1223.046
1220.646
1218.117
1215.493
1212.935
1227.41
1225.307
1223.059
1220.663
1218.12
1215.423
1212.667
1229.376
1227.414
1225.317
1223.076
1220.683
1218.132
1215.352
1212.299
1231.213
1229.38
1227.422
1225.329
1223.085
1220.494
1216.669
1208.709
1175.406
1232.933
1231.216
1229.385
1227.43
1225.332
1222.797
1218.95
1211.16
1190.219
1118.749
1234.548
1232.935
1231.22
1229.39
1227.43
1225.054
1221.771
1216.256
1203.507
1170.031
1077.766
1236.066
1234.549
1232.939
1231.224
1229.39
1227.169
1224.346
1220.473
1213.331
1196.597
1156.139
1059.391
1237.496
1236.068
1234.553
1232.943
1231.225
1229.147
1226.633
1223.688
1219.466
1211.52
1193.807
1154.854
1067.825
1238.845
1237.498
1236.071
1234.557
1232.945
1231.006
1228.723
1226.269
1223.401
1219.296
1211.903
1196.827
1166.98
1100.999
1240.118
1238.847
1237.502
1236.077
1234.562
1232.763
1230.684
1228.528
1226.259
1223.673
1220.174
1214.493
1204.381
1187.265
1152.388
1241.32
1240.121
1238.852
1237.509
1236.084
1234.429
1232.553
1230.623
1228.659
1226.635
1224.44
1221.778
1218.171
1213.151
1207.737
1191.656
1242.456
1241.323
1240.126
1238.861
1237.519
1236.013
1234.346
1232.62
1230.854
1229.061
1227.238
1225.363
1223.396
1221.409
1220.009
1217.231
1201.715
1243.529
1242.46
1241.33
1240.137
1238.875
1237.521
1236.064
1234.531
1232.928
1231.259
1229.525
1227.733
1225.902
1224.135
1222.899
1222.215
1218.858
1210.21
1244.541
1243.532
1242.467
1241.342
1240.158
1238.918
1237.594
1236.194
1234.711
1233.14
1231.473
1229.701
1227.814
1225.799
1223.638
1222.205
1221.236
1219.642
1215.811
1245.496
1244.545
1243.54
1242.479
1241.363
1240.188
1238.938
1237.616
1236.218
1234.738
1233.171
1231.507
1229.74
1227.856
1225.842
1224.245
1223.227
1222.234
1221.095
1219.143
1246.396
1245.5
1244.553
1243.553
1242.5
1241.388
1240.207
1238.958
1237.638
1236.243
1234.766
1233.201
1231.54
1229.774
1227.891
1226.334
1225.264
1224.301
1223.455
1222.669
1220.865
1247.242
1246.4
1245.507
1244.565
1243.572
1242.521
1241.404
1240.224
1238.978
1237.66
1236.267
1234.792
1233.23
1231.571
1229.805
1228.315
1227.238
1226.256
1225.413
1224.746
1223.519
1221.359
1248.037
1247.246
1246.406
1245.519
1244.582
1243.591
1242.536
1241.421
1240.243
1238.998
1237.683
1236.291
1234.819
1233.258
1231.6
1230.182
1229.119
1228.131
1227.259
1226.555
1225.431
1223.617
1221.63
1223.04
1220.636
1218.118
1215.566
1213.217
1225.302
1223.048
1220.649
1218.122
1215.5
1212.991
1227.411
1225.309
1223.063
1220.67
1218.129
1215.44
1212.781
1229.378
1227.417
1225.322
1223.085
1220.698
1218.141
1215.383
1212.499
1231.215
1229.382
1227.427
1225.339
1223.111
1220.739
1218.145
1215.305
1212.134
1232.935
1231.218
1229.389
1227.438
1225.349
1223.028
1220.151
1215.821
1206.873
1173.229
1234.549
1232.937
1231.223
1229.396
1227.441
1225.173
1222.287
1217.969
1209.149
1187.086
1117.548
1236.067
1234.551
1232.941
1231.228
1229.397
1227.232
1224.569
1221.073
1215.059
1201.672
1169.386
1083.904
1237.496
1236.068
1234.554
1232.944
1231.228
1229.174
1226.716
1223.865
1219.876
1212.596
1196.646
1161.371
1077.979
1238.845
1237.498
1236.071
1234.557
1232.945
1231.006
1228.723
1226.269
1223.401
1219.296
1211.903
1196.827
1166.98
1100.999
1240.118
1238.847
1237.502
1236.075
1234.559
1232.741
1230.622
1228.428
1226.116
1223.453
1219.76
1213.598
1202.472
1183.821
1148.487
1241.32
1240.12
1238.851
1237.506
1236.079
1234.388
1232.439
1230.446
1228.434
1226.369
1224.097
1221.221
1217.096
1211.116
1204.831
1187.509
1242.455
1241.322
1240.124
1238.857
1237.513
1235.954
1234.188
1232.381
1230.565
1228.761
1226.964
1225.126
1223.142
1221.016
1219.445
1215.964
1196.609
1243.528
1242.458
1241.328
1240.132
1238.867
1237.445
1235.874
1234.249
1232.594
1230.929
1229.273
1227.65
1226.106
1224.769
1224.107
1223.041
1218.37
1205.43
1244.541
1243.531
1242.464
1241.337
1240.146
1238.868
1237.493
1236.047
1234.539
1232.971
1231.349
1229.685
1228.005
1226.413
1225.324
1224.92
1222.929
1219.983
1212.73
1245.496
1244.544
1243.538
1242.476
1241.357
1240.186
1238.937
1237.615
1236.217
1234.738
1233.17
1231.509
1229.743
1227.865
1225.861
1224.529
1223.706
1222.672
1221.13
1217.717
1246.395
1245.499
1244.551
1243.55
1242.496
1241.386
1240.205
1238.957
1237.637
1236.242
1234.766
1233.202
1231.544
1229.781
1227.903
1226.398
1225.412
1224.493
1223.621
1222.641
1220.117
1247.242
1246.399
1245.506
1244.563
1243.57
1242.52
1241.403
1240.224
1238.977
1237.66
1236.267
1234.793
1233.232
1231.575
1229.812
1228.339
1227.293
1226.338
1225.507
1224.822
1223.497
1220.967
1248.037
1247.245
1246.406
1245.518
1244.582
1243.59
1242.535
1241.42
1240.243
1238.998
1237.683
1236.292
1234.82
1233.26
1231.603
1230.191
1229.14
1228.162
1227.298
1226.597
1225.463
1223.608
1221.462
1248.782
1248.04
1247.252
1246.417
1245.535
1244.6
1243.604
1242.551
1241.438
1240.261
1239.019
1237.705
1236.316
1234.846
1233.286
1231.942
1230.908
1229.93
1229.041
1228.288
1227.175
1225.508
1223.707
1221.732
1225.303
1223.049
1220.651
1218.124
1215.504
1213.019
1227.412
1225.311
1223.066
1220.674
1218.135
1215.453
1212.854
1229.379
1227.419
1225.326
1223.091
1220.708
1218.15
1215.408
1212.64
1231.216
1229.384
1227.431
1225.348
1223.126
1220.746
1218.157
1215.349
1212.361
1232.936
1231.22
1229.394
1227.447
1225.374
1223.174
1220.775
1218.161
1215.273
1212.019
1234.55
1232.939
1231.227
1229.404
1227.457
1225.329
1222.89
1219.852
1215.18
1205.84
1172.793
1236.068
1234.552
1232.944
1231.233
1229.407
1227.324
1224.881
1221.871
1217.263
1208.072
1186.718
1121.381
1237.497
1236.069
1234.556
1232.948
1231.233
1229.227
1226.878
1224.201
1220.63
1214.531
1201.75
1173.422
1098.594
1238.845
1237.499
1236.072
1234.559
1232.948
1231.03
1228.792
1226.392
1223.616
1219.741
1212.959
1199.34
1172.169
1108.235
1240.118
1238.847
1237.502
1236.075
1234.559
1232.741
1230.622
1228.428
1226.116
1223.453
1219.76
1213.598
1202.472
1183.821
1148.487
1241.32
1240.119
1238.85
1237.505
1236.077
1234.367
1232.382
1230.357
1228.319
1226.23
1223.909
1220.903
1216.474
1209.952
1203.232
1185.432
1242.455
1241.322
1240.123
1238.855
1237.509
1235.915
1234.081
1232.217
1230.365
1228.55
1226.761
1224.922
1222.866
1220.54
1218.759
1214.815
1193.083
1243.527
1242.457
1241.326
1240.129
1238.861
1237.389
1235.725
1234.025
1232.325
1230.66
1229.061
1227.553
1226.171
1225.006
1224.487
1223.197
1217.409
1201.274
1244.54
1243.53
1242.462
1241.333
1240.138
1238.796
1237.313
1235.781
1234.223
1232.662
1231.122
1229.641
1228.284
1227.195
1226.734
1226.111
1223.685
1219.601
1209.021
1245.495
1244.543
1243.536
1242.472
1241.346
1240.139
1238.84
1237.476
1236.054
1234.578
1233.054
1231.494
1229.928
1228.45
1227.428
1227.067
1225.519
1223.794
1221.23
1215.335
1246.395
1245.498
1244.549
1243.547
1242.49
1241.384
1240.204
1238.956
1237.636
1236.242
1234.766
1233.203
1231.547
1229.789
1227.92
1226.658
1225.871
1224.991
1223.996
1222.609
1218.8
1247.241
1246.398
1245.505
1244.561
1243.566
1242.518
1241.402
1240.223
1238.977
1237.66
1236.268
1234.795
1233.235
1231.581
1229.823
1228.399
1227.432
1226.528
1225.711
1224.973
1223.458
1220.223
1248.036
1247.245
1246.405
1245.517
1244.58
1243.589
1242.534
1241.42
1240.242
1238.998
1237.683
1236.293
1234.822
1233.264
1231.609
1230.213
1229.191
1228.24
1227.394
1226.695
1225.538
1223.587
1221.071
1248.781
1248.04
1247.252
1246.416
1245.534
1244.599
1243.603
1242.55
1241.437
1240.261
1239.019
1237.706
1236.317
1234.848
1233.289
1231.95
1230.927
1229.958
1229.078
1228.331
1227.218
1225.541
1223.698
1221.565
1249.477
1248.784
1248.046
1247.262
1246.433
1245.552
1244.612
1243.618
1242.567
1241.455
1240.281
1239.04
1237.729
1236.341
1234.872
1233.596
1232.595
1231.631
1230.735
1229.944
1228.828
1227.242
1225.585
1223.796
1221.835
1227.413
1225.311
1223.067
1220.676
1218.138
1215.459
1212.891
1229.38
1227.42
1225.328
1223.096
1220.714
1218.156
1215.424
1212.73
1231.218
1229.386
1227.435
1225.354
1223.135
1220.753
1218.167
1215.381
1212.522
1232.938
1231.222
1229.397
1227.455
1225.388
1223.18
1220.781
1218.177
1215.326
1212.261
1234.551
1232.941
1231.231
1229.412
1227.479
1225.435
1223.214
1220.811
1218.184
1215.261
1211.955
1236.069
1234.554
1232.947
1231.24
1229.421
1227.448
1225.262
1222.78
1219.648
1214.855
1205.733
1174.07
1237.498
1236.071
1234.558
1232.953
1231.242
1229.306
1227.112
1224.665
1221.619
1216.975
1208.161
1189.222
1130.739
1238.846
1237.499
1236.074
1234.562
1232.953
1231.078
1228.928
1226.629
1224.02
1220.551
1214.848
1203.851
1181.788
1123.13
1240.118
1238.847
1237.502
1236.077
1234.562
1232.763
1230.684
1228.528
1226.259
1223.673
1220.174
1214.493
1204.381
1187.265
1152.388
1241.32
1240.119
1238.85
1237.505
1236.077
1234.367
1232.382
1230.357
1228.319
1226.23
1223.909
1220.903
1216.474
1209.952
1203.232
1185.432
1242.455
1241.321
1240.122
1238.853
1237.507
1235.895
1234.027
1232.134
1230.262
1228.441
1226.652
1224.803
1222.691
1220.233
1218.325
1214.154
1191.299
1243.527
1242.457
1241.325
1240.127
1238.857
1237.352
1235.624
1233.87
1232.139
1230.472
1228.907
1227.464
1226.159
1225.043
1224.548
1223.115
1216.508
1198.34
1244.539
1243.529
1242.461
1241.33
1240.132
1238.743
1237.172
1235.569
1233.97
1232.411
1230.933
1229.585
1228.436
1227.608
1227.372
1226.673
1223.9
1218.867
1205.714
1245.494
1244.542
1243.534
1242.468
1241.339
1240.071
1238.67
1237.224
1235.755
1234.284
1232.838
1231.456
1230.205
1229.219
1228.801
1228.281
1226.565
1224.418
1220.904
1212.527
1246.394
1245.497
1244.547
1243.543
1242.48
1241.339
1240.113
1238.825
1237.482
1236.089
1234.654
1233.186
1231.715
1230.326
1229.345
1228.963
1227.585
1226.24
1224.74
1222.553
1216.741
1247.241
1246.397
1245.503
1244.558
1243.561
1242.516
1241.401
1240.222
1238.976
1237.659
1236.267
1234.796
1233.238
1231.588
1229.839
1228.634
1227.854
1227.011
1226.155
1225.261
1223.394
1218.918
1248.036
1247.244
1246.404
1245.514
1244.576
1243.587
1242.533
1241.419
1240.242
1238.998
1237.683
1236.294
1234.825
1233.269
1231.619
1230.268
1229.319
1228.418
1227.597
1226.889
1225.676
1223.546
1220.329
1248.781
1248.039
1247.251
1246.415
1245.532
1244.598
1243.602
1242.55
1241.437
1240.261
1239.019
1237.707
1236.32
1234.851
1233.295
1231.971
1230.975
1230.031
1229.169
1228.432
1227.315
1225.615
1223.676
1221.175
1249.477
1248.784
1248.046
1247.262
1246.432
1245.551
1244.612
1243.618
1242.566
1241.455
1240.281
1239.041
1237.73
1236.343
1234.874
1233.604
1232.613
1231.659
1230.77
1229.986
1228.872
1227.284
1225.618
1223.787
1221.668
1250.126
1249.48
1248.79
1248.056
1247.278
1246.449
1245.564
1244.626
1243.633
1242.583
1241.474
1240.301
1239.062
1237.752
1236.365
1235.155
1234.188
1233.245
1232.35
1231.534
1230.418
1228.886
1227.308
1225.662
1223.886
1221.932
1229.381
1227.421
1225.33
1223.098
1220.716
1218.159
1215.433
1212.774
1231.219
1229.388
1227.437
1225.358
1223.141
1220.757
1218.174
1215.402
1212.624
1232.939
1231.224
1229.4
1227.46
1225.396
1223.185
1220.786
1218.189
1215.365
1212.433
1234.553
1232.943
1231.234
1229.419
1227.492
1225.439
1223.218
1220.818
1218.203
1215.32
1212.201
1236.07
1234.556
1232.95
1231.247
1229.441
1227.535
1225.473
1223.254
1220.851
1218.216
1215.273
1211.94
1237.499
1236.072
1234.561
1232.959