/*--------------------------------*- C++ -*----------------------------------*\
| =========                 |                                                 |
| \\      /  F ield         | OpenFOAM: The Open Source CFD Toolbox           |
|  \\    /   O peration     | Version:  2306                                  |
|   \\  /    A nd           | Website:  www.openfoam.com                      |
|    \\/     M anipulation  |                                                 |
\*---------------------------------------------------------------------------*/
FoamFile
{
    version     2.0;
    format      ascii;
    arch        "LSB;label=32;scalar=64";
    class       volScalarField;
    location    "1.5/electrolyte";
    object      T;
}
// * * * * * * * * * * * * * * * * * * * * * * * * * * * * * * * * * * * * * //

dimensions      [0 0 0 1 0 0 0];

internalField   nonuniform List<scalar> 
4000
(
1277.411
1277.224
1279.682
1277.423
1276.793
1279.673
1277.237
1281.705
1279.689
1277.435
1275.992
1279.652
1276.806
1281.744
1279.68
1277.249
1283.546
1281.707
1279.695
1277.447
1274.64
1279.607
1276.007
1281.829
1279.657
1276.819
1283.596
1281.745
1279.686
1277.261
1285.288
1283.544
1281.709
1279.701
1277.459
1272.644
1279.521
1274.663
1281.979
1279.61
1276.023
1283.707
1281.829
1279.662
1276.833
1285.338
1283.593
1281.746
1279.692
1277.273
1286.961
1285.282
1283.541
1281.71
1279.707
1270.366
1279.359
1272.686
1282.215
1279.521
1274.687
1283.905
1281.977
1279.614
1276.04
1285.452
1283.703
1281.829
1279.667
1276.846
1287.01
1285.332
1283.59
1281.747
1279.697
1288.576
1286.953
1285.276
1283.539
1281.711
1268.277
1279.072
1270.433
1282.523
1279.354
1272.728
1284.221
1282.208
1279.52
1274.712
1285.655
1283.899
1281.974
1279.617
1276.056
1287.119
1285.445
1283.699
1281.829
1279.672
1288.621
1287.001
1285.326
1283.587
1281.747
1290.132
1288.565
1286.944
1285.27
1283.535
1266.723
1278.721
1268.368
1282.778
1279.065
1270.499
1284.649
1282.507
1279.348
1272.77
1285.981
1284.21
1282.2
1279.52
1274.737
1287.314
1285.646
1283.893
1281.971
1279.62
1288.724
1287.11
1285.438
1283.695
1281.828
1290.175
1288.611
1286.992
1285.32
1283.583
1291.631
1290.12
1288.555
1286.936
1285.264
1265.902
1278.412
1266.831
1282.938
1278.717
1268.457
1285.051
1282.756
1279.058
1270.565
1286.425
1284.63
1282.491
1279.342
1272.812
1287.627
1285.967
1284.199
1282.192
1279.519
1288.909
1287.303
1285.637
1283.886
1281.968
1290.272
1288.713
1287.1
1285.431
1283.69
1291.671
1290.163
1288.6
1286.983
1285.313
1293.07
1291.617
1290.108
1288.544
1286.927
1265.902
1278.234
1266.019
1283.019
1278.411
1266.938
1285.356
1282.913
1278.712
1268.545
1286.853
1285.025
1282.733
1279.051
1270.629
1288.056
1286.403
1284.61
1282.475
1279.336
1289.204
1287.613
1285.954
1284.188
1282.184
1290.445
1288.896
1287.292
1285.627
1283.879
1291.762
1290.259
1288.701
1287.09
1285.423
1293.108
1291.658
1290.151
1288.589
1286.974
1294.45
1293.056
1291.604
1290.096
1288.533
1266.723
1278.234
1266.019
1283.05
1278.235
1266.135
1285.553
1282.993
1278.41
1267.042
1287.19
1285.326
1282.888
1278.707
1268.632
1288.473
1286.825
1284.998
1282.711
1279.044
1289.609
1288.034
1286.382
1284.59
1282.458
1290.723
1289.188
1287.597
1285.94
1284.176
1291.926
1290.431
1288.883
1287.28
1285.618
1293.195
1291.749
1290.246
1288.69
1287.08
1294.487
1293.094
1291.644
1290.138
1288.577
1295.772
1294.436
1293.042
1291.591
1290.083
1268.277
1278.412
1266.831
1283.05
1278.235
1266.135
1285.648
1283.024
1278.236
1266.248
1287.414
1285.521
1282.967
1278.408
1267.145
1288.806
1287.159
1285.296
1282.862
1278.702
1290.004
1288.445
1286.798
1284.971
1282.689
1291.104
1289.586
1288.012
1286.361
1284.57
1292.188
1290.706
1289.172
1287.582
1285.925
1293.349
1291.911
1290.417
1288.869
1287.268
1294.569
1293.18
1291.734
1290.233
1288.678
1295.806
1294.472
1293.08
1291.63
1290.125
1297.034
1295.757
1294.421
1293.028
1291.577
1270.366
1278.721
1268.368
1283.019
1278.411
1266.938
1285.648
1283.024
1278.236
1266.248
1287.525
1285.615
1282.998
1278.236
1266.36
1289.03
1287.381
1285.488
1282.941
1278.406
1290.322
1288.775
1287.127
1285.265
1282.837
1291.477
1289.977
1288.418
1286.77
1284.945
1292.545
1291.081
1289.564
1287.99
1286.339
1293.597
1292.17
1290.689
1289.155
1287.566
1294.715
1293.334
1291.895
1290.402
1288.856
1295.884
1294.554
1293.165
1291.72
1290.22
1297.067
1295.791
1294.457
1293.065
1291.617
1298.239
1297.019
1295.741
1294.406
1293.013
1272.644
1279.072
1270.433
1282.938
1278.717
1268.457
1285.553
1282.993
1278.41
1267.042
1287.525
1285.615
1282.998
1278.236
1266.36
1289.141
1287.491
1285.582
1282.972
1278.236
1290.537
1288.997
1287.348
1285.456
1282.915
1291.777
1290.292
1288.744
1287.096
1285.235
1292.898
1291.45
1289.95
1288.39
1286.742
1293.935
1292.523
1291.059
1289.542
1287.967
1294.95
1293.579
1292.152
1290.672
1289.138
1296.024
1294.699
1293.318
1291.88
1290.387
1297.142
1295.869
1294.538
1293.15
1291.706
1298.271
1297.052
1295.776
1294.442
1293.05
1299.387
1298.223
1297.003
1295.726
1294.391
1274.64
1279.359
1272.686
1282.778
1279.065
1270.499
1285.356
1282.913
1278.712
1268.545
1287.414
1285.521
1282.967
1278.408
1267.145
1289.141
1287.491
1285.582
1282.972
1278.236
1290.644
1289.108
1287.457
1285.549
1282.946
1291.981
1290.505
1288.964
1287.314
1285.423
1293.182
1291.748
1290.262
1288.713
1287.064
1294.268
1292.872
1291.424
1289.923
1288.363
1295.27
1293.913
1292.501
1291.036
1289.519
1296.247
1294.932
1293.56
1292.134
1290.654
1297.275
1296.007
1294.683
1293.301
1291.864
1298.342
1297.126
1295.853
1294.522
1293.135
1299.417
1298.255
1297.036
1295.76
1294.426
1300.479
1299.371
1298.208
1296.988
1295.71
1275.992
1279.521
1274.663
1282.523
1279.354
1272.728
1285.051
1282.756
1279.058
1270.565
1287.19
1285.326
1282.888
1278.707
1268.632
1289.03
1287.381
1285.488
1282.941
1278.406
1290.644
1289.108
1287.457
1285.549
1282.946
1292.083
1290.612
1289.074
1287.423
1285.515
1293.375
1291.951
1290.474
1288.931
1287.281
1294.537
1293.154
1291.719
1290.232
1288.682
1295.587
1294.243
1292.846
1291.397
1289.896
1296.552
1295.249
1293.891
1292.479
1291.014
1297.488
1296.229
1294.913
1293.542
1292.116
1298.469
1297.258
1295.991
1294.666
1293.285
1299.486
1298.326
1297.11
1295.837
1294.507
1300.508
1299.401
1298.239
1297.02
1295.744
1301.516
1300.463
1299.355
1298.192
1296.972
1276.793
1279.607
1276.007
1282.215
1279.521
1274.687
1284.649
1282.507
1279.348
1272.77
1286.853
1285.025
1282.733
1279.051
1270.629
1288.806
1287.159
1285.296
1282.862
1278.702
1290.537
1288.997
1287.348
1285.456
1282.915
1292.083
1290.612
1289.074
1287.423
1285.515
1293.472
1292.052
1290.579
1289.041
1287.388
1294.721
1293.346
1291.92
1290.442
1288.899
1295.843
1294.51
1293.125
1291.69
1290.202
1296.853
1295.562
1294.217
1292.82
1291.371
1297.779
1296.53
1295.227
1293.868
1292.456
1298.673
1297.47
1296.21
1294.895
1293.523
1299.608
1298.453
1297.242
1295.974
1294.649
1300.574
1299.47
1298.31
1297.094
1295.821
1301.544
1300.492
1299.386
1298.223
1297.004
1302.5
1301.5
1300.447
1299.34
1298.176
1277.224
1279.652
1276.806
1281.979
1279.61
1276.023
1284.221
1282.208
1279.52
1274.712
1286.425
1284.63
1282.491
1279.342
1272.812
1288.473
1286.825
1284.998
1282.711
1279.044
1290.322
1288.775
1287.127
1285.265
1282.837
1291.981
1290.505
1288.964
1287.314
1285.423
1293.472
1292.052
1290.579
1289.041
1287.388
1294.813
1293.442
1292.021
1290.547
1289.007
1296.017
1294.692
1293.316
1291.89
1290.41
1297.097
1295.816
1294.483
1293.097
1291.661
1298.067
1296.829
1295.537
1294.192
1292.794
1298.952
1297.758
1296.509
1295.205
1293.846
1299.804
1298.655
1297.451
1296.192
1294.876
1300.692
1299.591
1298.436
1297.225
1295.957
1301.608
1300.558
1299.453
1298.294
1297.077
1302.527
1301.528
1300.476
1299.37
1298.207
1303.431
1302.484
1301.485
1300.432
1299.324
1277.411
1279.673
1277.237
1281.829
1279.657
1276.819
1283.905
1281.977
1279.614
1276.04
1285.981
1284.21
1282.2
1279.52
1274.737
1288.056
1286.403
1284.61
1282.475
1279.336
1290.004
1288.445
1286.798
1284.971
1282.689
1291.777
1290.292
1288.744
1287.096
1285.235
1293.375
1291.951
1290.474
1288.931
1287.281
1294.813
1293.442
1292.021
1290.547
1289.007
1296.105
1294.784
1293.412
1291.99
1290.515
1297.264
1295.99
1294.664
1293.287
1291.859
1298.301
1297.072
1295.79
1294.455
1293.069
1299.228
1298.043
1296.805
1295.513
1294.167
1300.071
1298.931
1297.737
1296.487
1295.183
1300.88
1299.786
1298.637
1297.433
1296.173
1301.721
1300.675
1299.575
1298.419
1297.207
1302.588
1301.592
1300.542
1299.437
1298.277
1303.457
1302.511
1301.513
1300.461
1299.354
1304.311
1303.416
1302.469
1301.469
1300.416
1279.682
1277.423
1281.744
1279.68
1277.249
1283.707
1281.829
1279.662
1276.833
1285.655
1283.899
1281.974
1279.617
1276.056
1287.627
1285.967
1284.199
1282.192
1279.519
1289.609
1288.034
1286.382
1284.59
1282.458
1291.477
1289.977
1288.418
1286.77
1284.945
1293.182
1291.748
1290.262
1288.713
1287.064
1294.721
1293.346
1291.92
1290.442
1288.899
1296.105
1294.784
1293.412
1291.99
1290.515
1297.348
1296.077
1294.755
1293.382
1291.959
1298.46
1297.238
1295.963
1294.636
1293.257
1299.452
1298.276
1297.046
1295.764
1294.428
1300.336
1299.205
1298.02
1296.781
1295.488
1301.137
1300.051
1298.911
1297.716
1296.466
1301.903
1300.862
1299.768
1298.619
1297.414
1302.698
1301.705
1300.659
1299.558
1298.402
1303.517
1302.573
1301.576
1300.526
1299.421
1304.337
1303.442
1302.496
1301.497
1300.445
1305.141
1304.296
1303.401
1302.453
1301.454
1281.705
1279.689
1277.435
1283.596
1281.745
1279.686
1277.261
1285.452
1283.703
1281.829
1279.667
1276.846
1287.314
1285.646
1283.893
1281.971
1279.62
1289.204
1287.613
1285.954
1284.188
1282.184
1291.104
1289.586
1288.012
1286.361
1284.57
1292.898
1291.45
1289.95
1288.39
1286.742
1294.537
1293.154
1291.719
1290.232
1288.682
1296.017
1294.692
1293.316
1291.89
1290.41
1297.348
1296.077
1294.755
1293.382
1291.959
1298.541
1297.321
1296.05
1294.726
1293.352
1299.605
1298.435
1297.211
1295.935
1294.607
1300.552
1299.428
1298.251
1297.021
1295.737
1301.392
1300.314
1299.182
1297.997
1296.757
1302.151
1301.117
1300.031
1298.89
1297.694
1302.874
1301.886
1300.845
1299.75
1298.6
1303.623
1302.682
1301.689
1300.642
1299.541
1304.394
1303.501
1302.557
1301.56
1300.509
1305.166
1304.322
1303.427
1302.48
1301.481
1305.923
1305.127
1304.281
1303.385
1302.438
1283.546
1281.707
1279.695
1277.447
1285.338
1283.593
1281.746
1279.692
1277.273
1287.119
1285.445
1283.699
1281.829
1279.672
1288.909
1287.303
1285.637
1283.886
1281.968
1290.723
1289.188
1287.597
1285.94
1284.176
1292.545
1291.081
1289.564
1287.99
1286.339
1294.268
1292.872
1291.424
1289.923
1288.363
1295.843
1294.51
1293.125
1291.69
1290.202
1297.264
1295.99
1294.664
1293.287
1291.859
1298.541
1297.321
1296.05
1294.726
1293.352
1299.683
1298.515
1297.295
1296.022
1294.697
1300.699
1299.581
1298.409
1297.185
1295.908
1301.6
1300.529
1299.404
1298.226
1296.995
1302.397
1301.371
1300.292
1299.16
1297.973
1303.113
1302.132
1301.098
1300.01
1298.869
1303.793
1302.857
1301.868
1300.827
1299.731
1304.497
1303.607
1302.666
1301.672
1300.625
1305.222
1304.379
1303.486
1302.541
1301.544
1305.947
1305.152
1304.307
1303.412
1302.465
1306.656
1305.908
1305.112
1304.266
1303.37
1285.288
1283.544
1281.709
1279.701
1277.459
1287.01
1285.332
1283.59
1281.747
1279.697
1288.724
1287.11
1285.438
1283.695
1281.828
1290.445
1288.896
1287.292
1285.627
1283.879
1292.188
1290.706
1289.172
1287.582
1285.925
1293.935
1292.523
1291.059
1289.542
1287.967
1295.587
1294.243
1292.846
1291.397
1289.896
1297.097
1295.816
1294.483
1293.097
1291.661
1298.46
1297.238
1295.963
1294.636
1293.257
1299.683
1298.515
1297.295
1296.022
1294.697
1300.774
1299.658
1298.489
1297.268
1295.994
1301.743
1300.676
1299.556
1298.384
1297.159
1302.598
1301.578
1300.505
1299.38
1298.202
1303.351
1302.376
1301.349
1300.27
1299.137
1304.025
1303.094
1302.112
1301.078
1299.99
1304.662
1303.776
1302.839
1301.85
1300.808
1305.322
1304.482
1303.591
1302.649
1301.655
1306.001
1305.207
1304.364
1303.47
1302.525
1306.68
1305.932
1305.137
1304.292
1303.396
1307.343
1306.642
1305.894
1305.097
1304.251
1286.961
1285.282
1283.541
1281.71
1279.707
1288.621
1287.001
1285.326
1283.587
1281.747
1290.272
1288.713
1287.1
1285.431
1283.69
1291.926
1290.431
1288.883
1287.28
1285.618
1293.597
1292.17
1290.689
1289.155
1287.566
1295.27
1293.913
1292.501
1291.036
1289.519
1296.853
1295.562
1294.217
1292.82
1291.371
1298.301
1297.072
1295.79
1294.455
1293.069
1299.605
1298.435
1297.211
1295.935
1294.607
1300.774
1299.658
1298.489
1297.268
1295.994
1301.814
1300.75
1299.633
1298.463
1297.241
1302.736
1301.72
1300.652
1299.532
1298.359
1303.546
1302.576
1301.555
1300.482
1299.356
1304.256
1303.331
1302.355
1301.328
1300.248
1304.887
1304.006
1303.075
1302.093
1301.058
1305.482
1304.646
1303.759
1302.822
1301.832
1306.099
1305.307
1304.466
1303.575
1302.633
1306.733
1305.987
1305.192
1304.349
1303.455
1307.366
1306.666
1305.918
1305.122
1304.277
1307.983
1307.329
1306.628
1305.879
1305.083
1288.576
1286.953
1285.276
1283.539
1281.711
1290.175
1288.611
1286.992
1285.32
1283.583
1291.762
1290.259
1288.701
1287.09
1285.423
1293.349
1291.911
1290.417
1288.869
1287.268
1294.95
1293.579
1292.152
1290.672
1289.138
1296.552
1295.249
1293.891
1292.479
1291.014
1298.067
1296.829
1295.537
1294.192
1292.794
1299.452
1298.276
1297.046
1295.764
1294.428
1300.699
1299.581
1298.409
1297.185
1295.908
1301.814
1300.75
1299.633
1298.463
1297.241
1302.805
1301.791
1300.726
1299.608
1298.438
1303.679
1302.713
1301.697
1300.628
1299.507
1304.444
1303.524
1302.554
1301.533
1300.459
1305.111
1304.236
1303.311
1302.335
1301.306
1305.701
1304.869
1303.988
1303.056
1302.073
1306.254
1305.466
1304.629
1303.742
1302.804
1306.828
1306.084
1305.292
1304.45
1303.559
1307.417
1306.718
1305.972
1305.177
1304.333
1308.006
1307.352
1306.651
1305.903
1305.107
1308.579
1307.97
1307.315
1306.614
1305.865
1290.132
1288.565
1286.944
1285.27
1283.535
1291.671
1290.163
1288.6
1286.983
1285.313
1293.195
1291.749
1290.246
1288.69
1287.08
1294.715
1293.334
1291.895
1290.402
1288.856
1296.247
1294.932
1293.56
1292.134
1290.654
1297.779
1296.53
1295.227
1293.868
1292.456
1299.228
1298.043
1296.805
1295.513
1294.167
1300.552
1299.428
1298.251
1297.021
1295.737
1301.743
1300.676
1299.556
1298.384
1297.159
1302.805
1301.791
1300.726
1299.608
1298.438
1303.746
1302.783
1301.768
1300.702
1299.583
1304.574
1303.657
1302.691
1301.674
1300.605
1305.294
1304.424
1303.503
1302.533
1301.51
1305.918
1305.092
1304.216
1303.29
1302.314
1306.467
1305.683
1304.851
1303.97
1303.037
1306.979
1306.239
1305.45
1304.613
1303.725
1307.51
1306.813
1306.069
1305.276
1304.435
1308.056
1307.403
1306.704
1305.957
1305.162
1308.601
1307.992
1307.338
1306.637
1305.889
1309.13
1308.566
1307.956
1307.301
1306.599
1291.631
1290.12
1288.555
1286.936
1285.264
1293.108
1291.658
1290.151
1288.589
1286.974
1294.569
1293.18
1291.734
1290.233
1288.678
1296.024
1294.699
1293.318
1291.88
1290.387
1297.488
1296.229
1294.913
1293.542
1292.116
1298.952
1297.758
1296.509
1295.205
1293.846
1300.336
1299.205
1298.02
1296.781
1295.488
1301.6
1300.529
1299.404
1298.226
1296.995
1302.736
1301.72
1300.652
1299.532
1298.359
1303.746
1302.783
1301.768
1300.702
1299.583
1304.639
1303.725
1302.76
1301.745
1300.678
1305.42
1304.553
1303.636
1302.669
1301.651
1306.097
1305.274
1304.403
1303.482
1302.511
1306.679
1305.9
1305.073
1304.197
1303.27
1307.186
1306.45
1305.666
1304.833
1303.951
1307.658
1306.964
1306.223
1305.434
1304.596
1308.147
1307.496
1306.798
1306.053
1305.261
1308.65
1308.042
1307.389
1306.689
1305.942
1309.151
1308.587
1307.978
1307.324
1306.623
1309.638
1309.117
1308.552
1307.943
1307.287
1293.07
1291.617
1290.108
1288.544
1286.927
1294.487
1293.094
1291.644
1290.138
1288.577
1295.884
1294.554
1293.165
1291.72
1290.22
1297.275
1296.007
1294.683
1293.301
1291.864
1298.673
1297.47
1296.21
1294.895
1293.523
1300.071
1298.931
1297.737
1296.487
1295.183
1301.392
1300.314
1299.182
1297.997
1296.757
1302.598
1301.578
1300.505
1299.38
1298.202
1303.679
1302.713
1301.697
1300.628
1299.507
1304.639
1303.725
1302.76
1301.745
1300.678
1305.483
1304.618
1303.703
1302.738
1301.722
1306.219
1305.4
1304.532
1303.614
1302.647
1306.852
1306.077
1305.254
1304.383
1303.461
1307.393
1306.661
1305.881
1305.054
1304.177
1307.86
1307.17
1306.433
1305.648
1304.815
1308.291
1307.643
1306.948
1306.207
1305.417
1308.738
1308.132
1307.481
1306.783
1306.038
1309.2
1308.637
1308.029
1307.375
1306.675
1309.659
1309.138
1308.574
1307.965
1307.31
1310.103
1309.625
1309.104
1308.539
1307.929
1294.45
1293.056
1291.604
1290.096
1288.533
1295.806
1294.472
1293.08
1291.63
1290.125
1297.142
1295.869
1294.538
1293.15
1291.706
1298.469
1297.258
1295.991
1294.666
1293.285
1299.804
1298.655
1297.451
1296.192
1294.876
1301.137
1300.051
1298.911
1297.716
1296.466
1302.397
1301.371
1300.292
1299.16
1297.973
1303.546
1302.576
1301.555
1300.482
1299.356
1304.574
1303.657
1302.691
1301.674
1300.605
1305.483
1304.618
1303.703
1302.738
1301.722
1306.281
1305.463
1304.597
1303.681
1302.715
1306.972
1306.199
1305.379
1304.511
1303.593
1307.562
1306.833
1306.058
1305.235
1304.362
1308.061
1307.375
1306.643
1305.863
1305.034
1308.488
1307.844
1307.153
1306.416
1305.631
1308.88
1308.276
1307.628
1306.933
1306.191
1309.286
1308.725
1308.118
1307.466
1306.768
1309.706
1309.187
1308.623
1308.015
1307.361
1310.124
1309.646
1309.125
1308.561
1307.951
1310.526
1310.091
1309.612
1309.091
1308.525
1295.772
1294.436
1293.042
1291.591
1290.083
1297.067
1295.791
1294.457
1293.065
1291.617
1298.342
1297.126
1295.853
1294.522
1293.135
1299.608
1298.453
1297.242
1295.974
1294.649
1300.88
1299.786
1298.637
1297.433
1296.173
1302.151
1301.117
1300.031
1298.89
1297.694
1303.351
1302.376
1301.349
1300.27
1299.137
1304.444
1303.524
1302.554
1301.533
1300.459
1305.42
1304.553
1303.636
1302.669
1301.651
1306.281
1305.463
1304.597
1303.681
1302.715
1307.032
1306.261
1305.443
1304.576
1303.66
1307.679
1306.953
1306.18
1305.359
1304.49
1308.227
1307.544
1306.815
1306.039
1305.215
1308.686
1308.044
1307.358
1306.624
1305.844
1309.073
1308.473
1307.827
1307.136
1306.398
1309.425
1308.865
1308.262
1307.612
1306.917
1309.791
1309.273
1308.711
1308.104
1307.452
1310.17
1309.693
1309.173
1308.609
1308.001
1310.546
1310.111
1309.633
1309.112
1308.547
1310.908
1310.514
1310.078
1309.6
1309.078
1297.034
1295.757
1294.421
1293.028
1291.577
1298.271
1297.052
1295.776
1294.442
1293.05
1299.486
1298.326
1297.11
1295.837
1294.507
1300.692
1299.591
1298.436
1297.225
1295.957
1301.903
1300.862
1299.768
1298.619
1297.414
1303.113
1302.132
1301.098
1300.01
1298.869
1304.256
1303.331
1302.355
1301.328
1300.248
1305.294
1304.424
1303.503
1302.533
1301.51
1306.219
1305.4
1304.532
1303.614
1302.647
1307.032
1306.261
1305.443
1304.576
1303.66
1307.737
1307.013
1306.241
1305.422
1304.555
1308.341
1307.66
1306.933
1306.16
1305.339
1308.847
1308.209
1307.526
1306.796
1306.02
1309.266
1308.669
1308.027
1307.34
1306.606
1309.614
1309.057
1308.457
1307.811
1307.119
1309.927
1309.411
1308.851
1308.247
1307.597
1310.253
1309.778
1309.259
1308.697
1308.09
1310.592
1310.158
1309.68
1309.16
1308.596
1310.928
1310.534
1310.099
1309.62
1309.099
1311.249
1310.896
1310.502
1310.066
1309.587
1298.239
1297.019
1295.741
1294.406
1293.013
1299.417
1298.255
1297.036
1295.76
1294.426
1300.574
1299.47
1298.31
1297.094
1295.821
1301.721
1300.675
1299.575
1298.419
1297.207
1302.874
1301.886
1300.845
1299.75
1298.6
1304.025
1303.094
1302.112
1301.078
1299.99
1305.111
1304.236
1303.311
1302.335
1301.306
1306.097
1305.274
1304.403
1303.482
1302.511
1306.972
1306.199
1305.379
1304.511
1303.593
1307.737
1307.013
1306.241
1305.422
1304.555
1308.398
1307.719
1306.994
1306.222
1305.402
1308.959
1308.323
1307.642
1306.915
1306.141
1309.424
1308.83
1308.191
1307.507
1306.777
1309.803
1309.249
1308.652
1308.01
1307.322
1310.112
1309.599
1309.042
1308.441
1307.795
1310.386
1309.913
1309.397
1308.836
1308.232
1310.674
1310.24
1309.765
1309.246
1308.683
1310.973
1310.58
1310.145
1309.667
1309.147
1311.268
1310.916
1310.522
1310.086
1309.607
1311.549
1311.237
1310.884
1310.489
1310.053
1299.387
1298.223
1297.003
1295.726
1294.391
1300.508
1299.401
1298.239
1297.02
1295.744
1301.608
1300.558
1299.453
1298.294
1297.077
1302.698
1301.705
1300.659
1299.558
1298.402
1303.793
1302.857
1301.868
1300.827
1299.731
1304.887
1304.006
1303.075
1302.093
1301.058
1305.918
1305.092
1304.216
1303.29
1302.314
1306.852
1306.077
1305.254
1304.383
1303.461
1307.679
1306.953
1306.18
1305.359
1304.49
1308.398
1307.719
1306.994
1306.222
1305.402
1309.015
1308.38
1307.7
1306.974
1306.202
1309.533
1308.941
1308.305
1307.623
1306.896
1309.958
1309.407
1308.813
1308.174
1307.489
1310.298
1309.787
1309.233
1308.635
1307.993
1310.568
1310.097
1309.584
1309.026
1308.425
1310.805
1310.373
1309.899
1309.382
1308.822
1311.053
1310.661
1310.227
1309.751
1309.232
1311.312
1310.961
1310.567
1310.132
1309.654
1311.569
1311.257
1310.904
1310.51
1310.073
1311.81
1311.538
1311.225
1310.872
1310.477
1300.479
1299.371
1298.208
1296.988
1295.71
1301.544
1300.492
1299.386
1298.223
1297.004
1302.588
1301.592
1300.542
1299.437
1298.277
1303.623
1302.682
1301.689
1300.642
1299.541
1304.662
1303.776
1302.839
1301.85
1300.808
1305.701
1304.869
1303.988
1303.056
1302.073
1306.679
1305.9
1305.073
1304.197
1303.27
1307.562
1306.833
1306.058
1305.235
1304.362
1308.341
1307.66
1306.933
1306.16
1305.339
1309.015
1308.38
1307.7
1306.974
1306.202
1309.589
1308.997
1308.362
1307.682
1306.955
1310.065
1309.516
1308.924
1308.287
1307.605
1310.45
1309.942
1309.391
1308.796
1308.156
1310.751
1310.282
1309.771
1309.217
1308.619
1310.983
1310.554
1310.083
1309.568
1309.011
1311.182
1310.791
1310.36
1309.885
1309.368
1311.392
1311.041
1310.648
1310.214
1309.738
1311.612
1311.301
1310.948
1310.555
1310.119
1311.829
1311.557
1311.245
1310.892
1310.497
1312.032
1311.799
1311.527
1311.214
1310.86
1301.516
1300.463
1299.355
1298.192
1296.972
1302.527
1301.528
1300.476
1299.37
1298.207
1303.517
1302.573
1301.576
1300.526
1299.421
1304.497
1303.607
1302.666
1301.672
1300.625
1305.482
1304.646
1303.759
1302.822
1301.832
1306.467
1305.683
1304.851
1303.97
1303.037
1307.393
1306.661
1305.881
1305.054
1304.177
1308.227
1307.544
1306.815
1306.039
1305.215
1308.959
1308.323
1307.642
1306.915
1306.141
1309.589
1308.997
1308.362
1307.682
1306.955
1310.12
1309.571
1308.98
1308.344
1307.663
1310.555
1310.049
1309.499
1308.906
1308.269
1310.901
1310.434
1309.926
1309.374
1308.778
1311.163
1310.736
1310.267
1309.755
1309.201
1311.358
1310.969
1310.54
1310.068
1309.553
1311.518
1311.169
1310.778
1310.346
1309.871
1311.69
1311.38
1311.028
1310.636
1310.201
1311.872
1311.601
1311.289
1310.936
1310.542
1312.051
1311.818
1311.546
1311.233
1310.88
1312.215
1312.021
1311.788
1311.515
1311.202
1302.5
1301.5
1300.447
1299.34
1298.176
1303.457
1302.511
1301.513
1300.461
1299.354
1304.394
1303.501
1302.557
1301.56
1300.509
1305.322
1304.482
1303.591
1302.649
1301.655
1306.254
1305.466
1304.629
1303.742
1302.804
1307.186
1306.45
1305.666
1304.833
1303.951
1308.061
1307.375
1306.643
1305.863
1305.034
1308.847
1308.209
1307.526
1306.796
1306.02
1309.533
1308.941
1308.305
1307.623
1306.896
1310.12
1309.571
1308.98
1308.344
1307.663
1310.609
1310.103
1309.554
1308.962
1308.326
1311.004
1310.539
1310.032
1309.482
1308.889
1311.31
1310.885
1310.418
1309.909
1309.357
1311.534
1311.148
1310.72
1310.251
1309.739
1311.691
1311.344
1310.955
1310.525
1310.053
1311.815
1311.506
1311.156
1310.765
1310.332
1311.949
1311.678
1311.367
1311.016
1310.623
1312.093
1311.861
1311.589
1311.277
1310.924
1312.234
1312.04
1311.807
1311.534
1311.221
1312.36
1312.204
1312.01
1311.777
1311.503
1303.431
1302.484
1301.485
1300.432
1299.324
1304.337
1303.442
1302.496
1301.497
1300.445
1305.222
1304.379
1303.486
1302.541
1301.544
1306.099
1305.307
1304.466
1303.575
1302.633
1306.979
1306.239
1305.45
1304.613
1303.725
1307.86
1307.17
1306.433
1305.648
1304.815
1308.686
1308.044
1307.358
1306.624
1305.844
1309.424
1308.83
1308.191
1307.507
1306.777
1310.065
1309.516
1308.924
1308.287
1307.605
1310.609
1310.103
1309.554
1308.962
1308.326
1311.057
1310.592
1310.086
1309.537
1308.945
1311.412
1310.988
1310.523
1310.016
1309.465
1311.679
1311.295
1310.869
1310.402
1309.893
1311.865
1311.52
1311.133
1310.705
1310.236
1311.986
1311.678
1311.33
1310.941
1310.511
1312.072
1311.803
1311.493
1311.143
1310.752
1312.169
1311.938
1311.666
1311.355
1311.003
1312.275
1312.082
1311.849
1311.577
1311.265
1312.378
1312.223
1312.029
1311.795
1311.522
1312.467
1312.349
1312.193
1311.999
1311.765
1304.311
1303.416
1302.469
1301.469
1300.416
1305.166
1304.322
1303.427
1302.48
1301.481
1306.001
1305.207
1304.364
1303.47
1302.525
1306.828
1306.084
1305.292
1304.45
1303.559
1307.658
1306.964
1306.223
1305.434
1304.596
1308.488
1307.844
1307.153
1306.416
1305.631
1309.266
1308.669
1308.027
1307.34
1306.606
1309.958
1309.407
1308.813
1308.174
1307.489
1310.555
1310.049
1309.499
1308.906
1308.269
1311.057
1310.592
1310.086
1309.537
1308.945
1311.464
1311.041
1310.576
1310.07
1309.52
1311.78
1311.397
1310.973
1310.507
1309.999
1312.009
1311.664
1311.28
1310.854
1310.387
1312.157
1311.851
1311.505
1311.118
1310.69
1312.241
1311.973
1311.665
1311.316
1310.927
1312.291
1312.06
1311.79
1311.48
1311.13
1312.35
1312.158
1311.926
1311.654
1311.343
1312.42
1312.265
1312.071
1311.838
1311.565
1312.485
1312.368
1312.212
1312.018
1311.784
1312.537
1312.456
1312.339
1312.183
1311.988
1305.141
1304.296
1303.401
1302.453
1301.454
1305.947
1305.152
1304.307
1303.412
1302.465
1306.733
1305.987
1305.192
1304.349
1303.455
1307.51
1306.813
1306.069
1305.276
1304.435
1308.291
1307.643
1306.948
1306.207
1305.417
1309.073
1308.473
1307.827
1307.136
1306.398
1309.803
1309.249
1308.652
1308.01
1307.322
1310.45
1309.942
1309.391
1308.796
1308.156
1311.004
1310.539
1310.032
1309.482
1308.889
1311.464
1311.041
1310.576
1310.07
1309.52
1311.831
1311.448
1311.025
1310.56
1310.053
1312.108
1311.765
1311.381
1310.957
1310.491
1312.299
1311.994
1311.65
1311.265
1310.839
1312.41
1312.143
1311.837
1311.491
1311.104
1312.457
1312.228
1311.96
1311.651
1311.303
1312.471
1312.279
1312.048
1311.778
1311.468
1312.494
1312.339
1312.146
1311.914
1311.642
1312.526
1312.409
1312.254
1312.06
1311.826
1312.555
1312.474
1312.357
1312.201
1312.006
1312.57
1312.527
1312.446
1312.328
1312.172
1305.923
1305.127
1304.281
1303.385
1302.438
1306.68
1305.932
1305.137
1304.292
1303.396
1307.417
1306.718
1305.972
1305.177
1304.333
1308.147
1307.496
1306.798
1306.053
1305.261
1308.88
1308.276
1307.628
1306.933
1306.191
1309.614
1309.057
1308.457
1307.811
1307.119
1310.298
1309.787
1309.233
1308.635
1307.993
1310.901
1310.434
1309.926
1309.374
1308.778
1311.412
1310.988
1310.523
1310.016
1309.465
1311.831
1311.448
1311.025
1310.56
1310.053
1312.158
1311.815
1311.433
1311.009
1310.544
1312.396
1312.093
1311.75
1311.366
1310.941
1312.55
1312.284
1311.98
1311.635
1311.25
1312.625
1312.397
1312.13
1311.823
1311.476
1312.635
1312.445
1312.215
1311.946
1311.638
1312.613
1312.459
1312.267
1312.036
1311.765
1312.6
1312.483
1312.328
1312.135
1311.902
1312.596
1312.515
1312.398
1312.243
1312.048
1312.588
1312.545
1312.464
1312.346
1312.19
1312.56
1312.516
1312.435
1312.317
1306.656
1305.908
1305.112
1304.266
1303.37
1307.366
1306.666
1305.918
1305.122
1304.277
1308.056
1307.403
1306.704
1305.957
1305.162
1308.738
1308.132
1307.481
1306.783
1306.038
1309.425
1308.865
1308.262
1307.612
1306.917
1310.112
1309.599
1309.042
1308.441
1307.795
1310.751
1310.282
1309.771
1309.217
1308.619
1311.31
1310.885
1310.418
1309.909
1309.357
1311.78
1311.397
1310.973
1310.507
1309.999
1312.158
1311.815
1311.433
1311.009
1310.544
1312.446
1312.143
1311.8
1311.417
1310.993
1312.647
1312.382
1312.078
1311.735
1311.351
1312.763
1312.536
1312.27
1311.965
1311.62
1312.801
1312.611
1312.383
1312.116
1311.809
1312.776
1312.623
1312.432
1312.202
1311.933
1312.718
1312.602
1312.448
1312.255
1312.024
1312.669
1312.589
1312.472
1312.317
1312.123
1312.628
1312.585
1312.505
1312.387
1312.231
1312.578
1312.534
1312.453
1312.335
1312.55
1312.506
1312.425
1307.343
1306.642
1305.894
1305.097
1304.251
1308.006
1307.352
1306.651
1305.903
1305.107
1308.65
1308.042
1307.389
1306.689
1305.942
1309.286
1308.725
1308.118
1307.466
1306.768
1309.927
1309.411
1308.851
1308.247
1307.597
1310.568
1310.097
1309.584
1309.026
1308.425
1311.163
1310.736
1310.267
1309.755
1309.201
1311.679
1311.295
1310.869
1310.402
1309.893
1312.108
1311.765
1311.381
1310.957
1310.491
1312.446
1312.143
1311.8
1311.417
1310.993
1312.696
1312.432
1312.128
1311.785
1311.402
1312.859
1312.632
1312.368
1312.064
1311.72
1312.938
1312.749
1312.522
1312.256
1311.951
1312.94
1312.788
1312.598
1312.37
1312.102
1312.879
1312.764
1312.611
1312.42
1312.189
1312.786
1312.707
1312.59
1312.436
1312.243
1312.701
1312.658
1312.578
1312.461
1312.306
1312.618
1312.575
1312.494
1312.376
1312.567
1312.524
1312.443
1312.539
1312.496
1307.983
1307.329
1306.628
1305.879
1305.083
1308.601
1307.992
1307.338
1306.637
1305.889
1309.2
1308.637
1308.029
1307.375
1306.675
1309.791
1309.273
1308.711
1308.104
1307.452
1310.386
1309.913
1309.397
1308.836
1308.232
1310.983
1310.554
1310.083
1309.568
1309.011
1311.534
1311.148
1310.72
1310.251
1309.739
1312.009
1311.664
1311.28
1310.854
1310.387
1312.396
1312.093
1311.75
1311.366
1310.941
1312.696
1312.432
1312.128
1311.785
1311.402
1312.907
1312.681
1312.417
1312.114
1311.77
1313.033
1312.845
1312.618
1312.353
1312.049
1313.076
1312.925
1312.736
1312.508
1312.242
1313.042
1312.928
1312.775
1312.585
1312.356
1312.947
1312.868
1312.752
1312.599
1312.407
1312.818
1312.775
1312.695
1312.579
1312.424
1312.691
1312.648
1312.567
1312.45
1312.608
1312.564
1312.483
1312.557
1312.513
1312.529
1308.579
1307.97
1307.315
1306.614
1305.865
1309.151
1308.587
1307.978
1307.324
1306.623
1309.706
1309.187
1308.623
1308.015
1307.361
1310.253
1309.778
1309.259
1308.697
1308.09
1310.805
1310.373
1309.899
1309.382
1308.822
1311.358
1310.969
1310.54
1310.068
1309.553
1311.865
1311.52
1311.133
1310.705
1310.236
1312.299
1311.994
1311.65
1311.265
1310.839
1312.647
1312.382