/*--------------------------------*- C++ -*----------------------------------*\
| =========                 |                                                 |
| \\      /  F ield         | OpenFOAM: The Open Source CFD Toolbox           |
|  \\    /   O peration     | Version:  2306                                  |
|   \\  /    A nd           | Website:  www.openfoam.com                      |
|    \\/     M anipulation  |                                                 |
\*---------------------------------------------------------------------------*/
FoamFile
{
    version     2.0;
    format      ascii;
    arch        "LSB;label=32;scalar=64";
    class       volVectorField;
    location    "0.9/phiEA";
    object      i;
}
// * * * * * * * * * * * * * * * * * * * * * * * * * * * * * * * * * * * * * //

dimensions      [0 -2 0 0 0 1 0];

internalField   nonuniform List<vector> 
20000
(
(-606.0658 2408.06 2016.142)
(-635.9727 7740.27 2052.555)
(-1217.456 2108.991 1839.437)
(-605.359 2406.604 5965.243)
(-701.1772 14634.14 2126.135)
(-1269.276 6789.157 1868.08)
(-635.2348 7735.871 6073.33)
(-1139.615 1889.858 1687.454)
(-1216.141 2107.846 5446.75)
(-603.9919 2403.737 9772.336)
(-812.4004 23827.48 2224.103)
(-1382.594 12869.86 1925.541)
(-700.3748 14627.28 6291.755)
(-1177.62 6088.894 1711.909)
(-1267.914 6785.713 5531.994)
(-633.8074 7727.21 9950.179)
(-977.5887 1728.937 1565.169)
(-1138.518 1888.88 5000.237)
(-1213.596 2105.582 8931.485)
(-601.9956 2399.49 13484.32)
(-981.9437 34000.3 2275.233)
(-1576.769 21019.81 1999.464)
(-811.5019 23821.51 6582.207)
(-1261.192 11559.22 1760.877)
(-1381.133 12864.61 5703.044)
(-698.8223 14613.79 10309.62)
(-1006.288 5573.384 1586.888)
(-1176.496 6085.957 5073.115)
(-1265.276 6778.905 9072.178)
(-631.7228 7714.379 13730.72)
(-836.006 1602.863 1463.524)
(-976.693 1728.068 4640.623)
(-1136.39 1886.943 8206.341)
(-1209.877 2102.218 12333.31)
(-599.3878 2393.881 15860.01)
(-1204.993 38643.13 2131.731)
(-1874.321 30074.37 2025.189)
(-980.9436 34003.99 6731.133)
(-1405.594 18910.21 1823.011)
(-1575.165 21015.83 5922.953)
(-809.7634 23809.9 10787)
(-1069.586 10590.12 1630.354)
(-1260.011 11554.77 5219.088)
(-1378.303 12854.23 9354.604)
(-696.5547 14593.81 14228.89)
(-859.0239 5168.919 1483.237)
(-1005.373 5570.776 4705.406)
(-1174.314 6080.14 8326.817)
(-1261.42 6768.788 12528.71)
(-628.9993 7697.427 16150.83)
(-724.3037 1498.758 1376.255)
(-835.2504 1602.075 4341.464)
(-974.9536 1726.345 7621.671)
(-1133.279 1884.061 11339.78)
(-1205.018 2097.766 14513.46)
(-818.2072 3274.776 20855.07)
(-1423.756 34808.11 2052.698)
(-2267.569 34225.01 1871.962)
(-1203.954 38652.03 6295.071)
(-1628.944 27092.3 1839.667)
(-1872.579 30079.47 5997.937)
(-979.011 34011.78 11026.7)
(-1179.428 17342.29 1685.084)
(-1404.337 18907.06 5404.235)
(-1572.057 21008.02 9717.517)
(-807.224 23792.83 14890.17)
(-909.8853 9827.822 1522.684)
(-1068.633 10586.2 4835.09)
(-1257.72 11545.97 8568.243)
(-1374.167 12838.8 12921.15)
(-693.5914 14567.41 16739.06)
(-743.606 4834.591 1394.387)
(-858.2539 5166.553 4400.301)
(-1003.597 5565.605 7728.879)
(-1171.122 6071.481 11507.31)
(-1256.382 6755.391 14744.44)
(-858.6477 10531.5 21263.87)
(-636.9515 1409.84 1299.724)
(-723.6485 1498.033 4084.427)
(-833.7813 1600.51 7134.823)
(-972.4069 1723.779 10538.11)
(-1129.21 1880.242 13350.72)
(-1645.495 2870.371 19086.12)
(-814.9418 3266.684 19349.05)
(-1602.284 26425.54 2030.705)
(-2653.905 30835.19 1780.23)
(-1422.666 34812.15 6053.941)
(-1926.404 30847.29 1693.108)
(-2265.814 34234.81 5535.507)
(-1201.955 38670.22 10288.46)
(-1350.082 24866.27 1697.121)
(-1627.632 27097.5 5452.802)
(-1869.208 30089.87 9838.377)
(-976.1903 34023.93 15217.27)
(-998.3781 16105.25 1572.109)
(-1178.424 17339.62 4998.347)
(-1401.896 18900.86 8874.409)
(-1567.514 20996.47 13425.5)
(-803.9047 23770.37 17520.12)
(-786.3151 9196.583 1430.674)
(-909.0866 9824.267 4518.07)
(-1066.782 10578.41 7943.596)
(-1254.367 11532.87 11843.23)
(-1368.761 12818.35 15208.63)
(-946.8796 19939.25 22091.48)
(-653.6229 4548.805 1316.557)
(-742.9393 4832.415 4138.571)
(-856.7565 5161.855 7232.266)
(-1000.995 5557.899 10687.31)
(-1166.948 6060.002 13548.93)
(-1715.675 9244.774 19414.06)
(-855.2284 10507.02 19781.75)
(-567.882 1332.044 1231.504)
(-636.3725 1409.167 3858.864)
(-722.3733 1496.593 6716.153)
(-831.6283 1598.177 9870.09)
(-969.0748 1720.377 12412.16)
(-1542.683 2572.981 17558.32)
(-1639.409 2863.818 17703.47)
(-811.6248 3257.468 19603.51)
(-1725.493 16249.88 2029.317)
(-2969.541 23408.17 1745.837)
(-1601.145 26426.48 5985.385)
(-2219.244 27788.38 1603.731)
(-2652.109 30840.24 5258.669)
(-1420.575 34820.49 9878.682)
(-1578.087 28322.02 1558.492)
(-1925.15 30856.72 5011.294)
(-2262.433 34254.58 9061.657)
(-1199.047 38697.95 14169.97)
(-1136.235 23105.7 1581.333)
(-1349.049 24871.34 5033.454)
(-1625.086 27108.02 8952.775)
(-1864.283 30105.71 13590.77)
(-972.505 34040.59 17903.44)
(-860.7641 15078.8 1475.982)
(-997.5417 16102.9 4665.612)
(-1176.473 17334.36 8213.908)
(-1398.322 18891.67 12269.41)
(-1561.574 20981.23 15805.62)
(-1097.645 32566.29 23184.91)
(-690.55 8656.241 1350.251)
(-785.6254 9193.319 4246.962)
(-907.5328 9817.209 7427.408)
(-1064.07 10566.8 10986.33)
(-1249.981 11515.49 13946.63)
(-1869.254 17549.28 20074.21)
(-943.142 19901.32 20658.84)
(-582.5825 4298.607 1247.235)
(-653.0343 4546.784 3909.148)
(-741.6414 4828.09 6805.88)
(-854.5619 5154.849 10005.79)
(-997.5908 5547.676 12588.8)
(-1594.285 8293.912 17841.07)
(-1709.347 9225.013 18056.47)
(-851.7466 10479.11 20092.43)
(-512.1526 1262.835 1169.985)
(-567.3631 1331.415 3657.67)
(-635.2445 1407.829 6348.447)
(-720.503 1494.444 9295.235)
(-828.8098 1595.082 11629.76)
(-1324.146 2354.351 16325.41)
(-1537.587 2567.307 16281.72)
(-1633.226 2856.25 17932.19)
(-808.2565 3247.127 19857.21)
(-1787.938 5464.069 2031.306)
(-3187.584 14393.35 1735.609)
(-1724.318 16249.86 5979.727)
(-2458.702 21088.75 1568.24)
(-2967.691 23409.96 5154.608)
(-1598.961 26428.51 9759.461)
(-1802.476 25512.22 1473.364)
(-2218.016 27793.38 4742.22)
(-2648.658 30850.43 8596.983)
(-1417.539 34833.31 13587.86)
(-1320.766 26323.35 1450.123)
(-1577.115 28330.97 4616.183)
(-1922.727 30875.71 8212.769)
(-2257.511 34284.46 12495.41)
(-1195.257 38735.39 16645.37)
(-976.9648 21642.39 1483.302)
(-1135.38 23110.58 4692.519)
(-1347.041 24881.56 8270.61)
(-1621.361 27123.96 12376.79)
(-1857.846 30127.07 15999.85)
(-1328.333 46709.38 23674.5)
(-755.0144 14198.75 1392.211)
(-860.0445 15076.69 4382.291)
(-995.9138 16098.27 7671.924)
(-1173.614 17326.54 11362.99)
(-1393.646 18879.52 14451.66)
(-2132.901 28751.76 20921.03)
(-1093.442 32536.04 21806.9)
(-615.1717 8182.668 1278.732)
(-689.9422 8653.215 4009.834)
(-784.2822 9186.834 6985.591)
(-905.2546 9806.681 10277.72)
(-1060.52 10551.38 12943.02)
(-1707.847 15766.99 18409.49)
(-1862.429 17519.18 18768.97)
(-939.3201 19858.24 21084.73)
(-525.3089 4075.908 1184.761)
(-582.0553 4296.718 3704.678)
(-651.8874 4542.766 6431.817)
(-739.7375 4821.637 9420.254)
(-851.6883 5145.55 11790.48)
(-1363.147 7593.141 16578.13)
(-1589.043 8276.812 16588.46)
(-1702.902 9202.154 18335.96)
(-848.2025 10447.77 20402.34)
(-466.2825 1200.48 1113.989)
(-511.6825 1262.244 3476.128)
(-566.3511 1330.164 6020.212)
(-633.5887 1405.832 8790.025)
(-718.053 1491.592 10956.18)
(-1132.532 2182.969 15297.84)
(-1319.975 2349.265 15135.32)
(-1532.411 2560.712 16487.73)
(-1626.946 2847.667 18160.27)
(-804.8371 3235.663 29308.38)
(-1787.938 -5464.069 2031.306)
(-3298.173 4839.615 1733.173)
(-1786.745 5463.989 5985.014)
(-2624.234 12963.56 1556.291)
(-3185.692 14393.85 5123.468)
(-1722.068 16249.9 9747.149)
(-1985.727 19358.26 1438.828)
(-2457.474 21090.65 4635.326)
(-2964.141 23413.58 8421.848)
(-1595.794 26431.74 13415.85)
(-1502.313 23711.99 1369.291)
(-1801.538 25517 4360.165)
(-2215.65 27803.42 7762.413)
(-2643.644 30865.83 11841.22)
(-1413.588 34850.66 15946.77)
(-1132.717 24661.23 1358.838)
(-1319.968 26331.83 4297.772)
(-1575.233 28348.95 7571.922)
(-1919.191 30904.34 11334.92)
(-2251.093 34324.56 14689.01)
(-1633.675 53178.81 21717.15)
(-855.7793 20386.17 1398.166)
(-976.2322 21647.08 4403.649)
(-1133.716 23120.42 7715.423)
(-1344.099 24897.02 11440.84)
(-1616.487 27145.4 14578.23)
(-2538.49 41349.08 21167.2)
(-1323.692 46742.95 22232.87)
(-672.1298 13426.5 1317.877)
(-754.382 14196.84 4135.223)
(-858.6426 15072.53 7210.025)
(-993.5261 16091.38 10618.69)
(-1169.87 17316.18 13389.7)
(-1904.446 25873.93 19130.25)
(-2125.368 28730.54 19678.37)
(-1089.131 32503.33 22375.94)
(-554.4954 7760.769 1214.356)
(-614.6281 8179.842 3798.83)
(-688.7574 8647.198 6598.836)
(-782.3111 9177.153 9670.804)
(-902.2707 9792.694 12112.76)
(-1449.236 14447.67 17086)
(-1702.307 15741.1 17207.01)
(-1855.446 17484.4 19152.73)
(-935.414 19809.98 21510.18)
(-478.1901 3875.178 1127.925)
(-524.8317 4074.133 3520.297)
(-581.0271 4292.96 6098.183)
(-650.2035 4536.768 8906.235)
(-737.2432 4813.067 11104.3)
(-1163.827 7043.012 15528.29)
(-1358.873 7577.818 15410.81)
(-1583.703 8256.901 16840.52)
(-1696.339 9176.191 18614.79)
(-844.5964 10412.99 30195.77)
(-427.7995 1143.759 1062.649)
(-465.8532 1199.923 3310.794)
(-510.7651 1261.068 5723.821)
(-564.8646 1328.296 8338.765)
(-631.4186 1403.18 10363.94)
(-981.1745 2041.398 14413.27)
(-1129.005 2178.322 14180.6)
(-1315.741 2343.331 15323.87)
(-1527.154 2553.196 16693.17)
(-1620.57 2838.069 26797.2)
(-384.1991 1551.746 20381.69)
(-1725.493 -16249.88 2029.317)
(-3298.173 -4839.615 1733.173)
(-1786.745 -5463.989 5985.014)
(-2708.234 4358.184 1552.802)
(-3296.259 4839.712 5115.969)
(-1784.462 5463.858 9754.645)
(-2112.244 11898.02 1426.716)
(-2622.999 12964.18 4599.302)
(-3182.063 14394.89 8369.079)
(-1718.805 16250.05 13395.65)
(-1650.441 17991.07 1336.154)
(-1984.798 19360.13 4256.315)
(-2455.109 21094.47 7583.46)
(-2958.987 23419.07 11594.3)
(-1591.675 26436.2 15738.62)
(-1285.937 22215.47 1282.03)
(-1501.548 23716.55 4054.809)
(-1799.726 25526.61 7143.937)
(-2212.204 27818.55 10702.26)
(-2637.116 30886.48 13908.17)
(-1932.87 47821.14 20618.8)
(-990.9839 23233.62 1279.839)
(-1132.036 24669.28 4029.32)
(-1318.419 26348.85 7054.84)
(-1572.484 28376.04 10457.93)
(-1914.577 30942.69 13332.8)
(-3077.844 47133.44 19176.59)
(-1629.047 53245.05 19818.16)
(-761.2645 19282.7 1322.807)
(-855.1373 20390.66 4152.601)
(-974.8052 21656.51 7244.588)
(-1131.275 23135.27 10678.55)
(-1340.248 24917.76 13481.75)
(-2209.767 37259.95 19289.26)
(-2530.362 41386.91 19888.2)
(-1318.954 46788.93 22784.23)
(-605.555 12737.83 1251.076)
(-671.5652 13424.74 3915.849)
(-753.1487 14193.04 6806.904)
(-856.5845 15066.33 9983.956)
(-990.3977 16082.24 12517.35)
(-1598.917 23732.56 17725.9)
(-1898.505 25856.72 17988.85)
(-2117.629 28706.99 20192.64)
(-1084.709 32468.06 22946.42)
(-504.6217 7380.207 1155.843)
(-554.0038 7758.116 3608.787)
(-613.5675 8174.221 6254.427)
(-687.0175 8638.211 9139.184)
(-779.728 9164.286 11401.34)
(-1233.035 13409.29 15991.41)
(-1444.755 14424.55 15966.25)
(-1696.636 15710.97 17553.73)
(-1848.305 17444.91 19536.13)
(-931.4239 19756.48 32002.17)
(-438.6714 3692.516 1075.834)
(-477.7544 3873.504 3352.46)
(-523.9001 4070.602 5797.108)
(-579.5165 4287.349 8447.487)
(-647.9963 4528.8 10501.66)
(-1007.427 6588.11 14626.03)
(-1160.221 7029.011 14432.7)
(-1354.524 7559.903 15641.8)
(-1578.266 8234.173 17092)
(-1689.66 9147.119 27543.63)
(-403.0415 5005.817 21136.25)
(-394.9812 1091.761 1015.292)
(-427.4047 1143.232 3159.126)
(-465.0145 1198.814 5453.705)
(-509.4165 1259.312 7931.042)
(-562.9151 1325.815 9834.708)
(-862.7696 1920.443 13635.54)
(-978.1093 2037.101 13359.25)
(-1125.427 2172.885 14355.33)
(-1311.445 2336.548 15511.91)
(-1521.817 2544.759 24625.33)
(-776.3061 1363.321 18625.62)
(-347.0826 1370.078 21981.09)
(-1602.284 -26425.54 2030.705)
(-3187.584 -14393.35 1735.609)
(-1724.318 -16249.86 5979.727)
(-2708.234 -4358.184 1552.802)
(-3296.259 -4839.712 5115.969)
(-1784.462 -5463.858 9754.645)
(-2176.389 3999.619 1422.984)
(-2706.993 4358.324 4588.772)
(-3292.588 4839.915 8356.216)
(-1781.152 5463.69 13404.78)
(-1752.617 11056.94 1324.318)
(-2111.316 11898.66 4219.904)
(-2620.62 12965.43 7523.091)
(-3176.796 14396.48 11519.55)
(-1714.563 16250.34 15712.5)
(-1410.892 16855.23 1250.358)
(-1649.688 17992.87 3955.249)
(-1983.006 19363.87 6970.417)
(-2451.668 21100.22 10450.96)
(-2952.281 23426.45 13613.4)
(-2176.86 36262.09 20271.25)
(-1123.997 20930.25 1206.745)
(-1285.287 22219.81 3798.532)
(-1500.067 23725.69 6648.949)
(-1797.084 25541.06 9857.263)
(-2207.714 27838.78 12578.73)
(-3607.093 42389.29 17993.04)
(-1928.132 47853.03 18442.71)
(-880.9635 21979.06 1210.087)
(-990.3889 23241.28 3796.811)
(-1130.714 24685.44 6618.422)
(-1316.154 26374.49 9749.679)
(-1568.892 28412.29 12307.45)
(-2618.969 42492.78 17410.75)
(-3069.988 47200.65 17513.83)
(-1624.458 53330.42 19764.96)
(-685.5343 18297.83 1255.212)
(-760.6927 19287.01 3930.239)
(-853.8857 20399.71 6835.056)
(-972.7107 21670.74 10031.62)
(-1128.079 23155.18 12588.34)
(-1832.42 34203.85 17840.58)
(-2203.59 37296.75 18121.13)
(-2522.043 41435.66 20390.75)
(-1314.118 46847.39 23341.11)
(-550.8987 12116.11 1190.437)
(-605.0452 12736.19 3718.592)
(-670.4633 13421.25 6448.697)
(-751.3367 14187.39 9429.638)
(-853.8864 15058.1 11773.09)
(-1353.682 22042.09 16572.57)
(-1594.163 23717.71 16664.62)
(-1892.391 25837.37 18454.22)
(-2109.682 28681.02 20708.25)
(-1080.178 32430.09 34339.14)
(-462.8165 7033.682 1102.258)
(-504.1733 7377.707 3435.959)
(-553.0439 7752.837 5944.007)
(-612.0088 8165.822 8665.481)
(-684.7361 8626.262 10777.92)
(-1065.561 12549.12 15053.65)
(-1229.27 13388.21 14941.03)
(-1440.172 14397.52 16284.5)
(-1690.834 15676.55 17900.14)
(-1841.006 17400.66 29060.27)
(-444.3238 9569.592 22690.94)
(-404.9777 3525.008 1027.801)
(-438.2709 3690.932 3198.557)
(-476.9031 3870.172 5522.859)
(-522.5304 4065.326 8033.261)
(-577.5352 4279.892 9963.589)
(-885.4501 6199.144 13833.64)
(-1004.298 6575.163 13592.63)
(-1156.554 7012.595 14646.97)
(-1350.099 7539.393 15872.26)
(-1572.733 8208.622 25282.83)
(-809.1551 4404.57 19270.2)
(-363.4118 4446.985 23023.47)
(-366.5811 1043.794 971.388)
(-394.6161 1091.26 3019.155)
(-426.6329 1142.182 5205.753)
(-463.7809 1197.157 7559.25)
(-507.647 1256.979 9356.333)
(-769.144 1814.593 12940.52)
(-860.0545 1916.437 12637.4)
(-975.0017 2032.062 13522.54)
(-1121.8 2166.657 14529.58)
(-1307.087 2328.917 22877.98)
(-732.4732 1223.255 17105.2)
(-707.0262 1206.786 20073.31)
(-307.8882 1134.791 22956.83)
(-1423.756 -34808.11 2052.698)
(-2969.541 -23408.17 1745.837)
(-1601.145 -26426.48 5985.385)
(-2624.234 -12963.56 1556.291)
(-3185.692 -14393.85 5123.468)
(-1722.068 -16249.9 9747.149)
(-2176.389 -3999.619 1422.984)
(-2706.993 -4358.324 4588.772)
(-3292.588 -4839.915 8356.216)
(-1781.152 -5463.69 13404.78)
(-1804.389 3716.728 1320.589)
(-2175.461 3999.769 4208.69)
(-2704.605 4358.605 7505.427)
(-3287.262 4840.227 11501.16)
(-1776.847 5463.492 15722.39)
(-1497.039 10358.55 1238.934)
(-1751.866 11057.56 3919.71)
(-2109.526 11899.93 6909.6)
(-2617.161 12967.3 10366.14)
(-3169.945 14398.62 13523.92)
(-2345.213 22286.67 20210.17)
(-1232.447 15880.05 1176.496)
(-1410.253 16856.95 3703.418)
(-1648.23 17996.48 6482.759)
(-1980.396 19369.5 9613.958)
(-2447.187 21107.91 12279.48)
(-4039.064 32138.67 17542.3)
(-2171.953 36271.71 17973.89)
(-998.7345 19800.83 1140.414)
(-1123.43 20934.38 3577.238)
(-1284.027 22228.5 6233.036)
(-1497.905 23739.43 9180.326)
(-1793.639 25560.37 11591.97)
(-3021.174 38208.94 16278.15)
(-3599.253 42423.97 16104.37)
(-1923.517 47894.91 18034.39)
(-793.0115 20858.92 1147.643)
(-880.4347 21986.35 3591.369)
(-989.2321 23256.64 6240.072)
(-1128.777 24709.74 9151.434)
(-1313.193 26408.78 11478.99)
(-2146.38 39019.37 16075.09)
(-2613.299 42556.14 15902.04)
(-3062.179 47284.79 17480.22)
(-1619.908 53435.05 19709.73)
(-623.4433 17408.13 1193.944)
(-685.0188 18301.97 3730.668)
(-759.5768 19295.68 6472.033)
(-852.0471 20413.34 9468.554)
(-969.9652 21689.81 11829.81)
(-1542.401 31785.33 16660.3)
(-1827.538 34238.97 16757.71)
(-2197.245 37343.43 18576.6)
(-2513.531 41495.4 20898.27)
(-1309.183 46918.4 34898.98)
(-505.1188 11549.61 1134.963)
(-550.4342 12114.59 3539.437)
(-604.0493 12732.95 6126.374)
(-668.8431 13416.03 8936.782)
(-748.96 14179.87 11122.85)
(-1167.095 20638.89 15588.74)
(-1349.711 22028.89 15578.02)
(-1589.274 23700.9 17092.32)
(-1886.104 25815.8 18920.83)
(-2101.526 28652.51 30991.08)
(-515.7213 16000.8 24751.41)
(-427.1881 6715.734 1052.878)
(-462.4046 7031.317 3277.603)
(-503.297 7372.728 5661.515)
(-551.6322 7744.945 8238.275)
(-609.9639 8154.649 10222.18)
(-935.7269 11812.61 14231.9)
(-1062.303 12529.66 14063.3)
(-1225.423 13363.48 15236.62)
(-1435.487 14366.53 16602.47)
(-1684.901 15637.82 26618.54)
(-881.3556 8442.794 20597.87)
(-399.4886 8684.705 25237.47)
(-375.8253 3370.446 983.2829)
(-404.6075 3523.505 3056.571)
(-437.4879 3687.777 5271.216)
(-475.6508 3865.192 7655.729)
(-520.733 4058.313 9477.531)
(-789.1474 5858.537 13126.13)
(-882.681 6187.071 12855.19)
(-1001.117 6559.948 13793.05)
(-1152.826 6993.759 14860.76)
(-1345.599 7516.281 23473.45)
(-756.8111 3955.322 17676.79)
(-735.6402 3922.925 20977.18)
(-321.1897 3703.262 24252.29)
(-341.6958 999.3185 930.5155)
(-366.242 1043.318 2889.328)
(-393.902 1090.264 4976.78)
(-425.497 1140.613 7217.779)
(-462.1614 1194.954 8919.935)
(-693.6101 1720.408 12312.25)
(-766.7047 1810.836 11992.53)
(-857.3028 1911.731 12790.94)
(-971.8517 2026.281 13685.4)
(-1118.121 2159.638 21426.04)
(-630.3367 1119.942 15884.01)
(-674.5096 1083.938 18418.33)
(-633.796 1001.776 20955.5)
(-267.0294 851.8937 23728.51)
(-1204.993 -38643.13 2131.731)
(-2653.905 -30835.19 1780.23)
(-1422.666 -34812.15 6053.941)
(-2458.702 -21088.75 1568.24)
(-2967.691 -23409.96 5154.608)
(-1598.961 -26428.51 9759.461)
(-2112.244 -11898.02 1426.716)
(-2622.999 -12964.18 4599.302)
(-3182.063 -14394.89 8369.079)
(-1718.805 -16250.05 13395.65)
(-1804.389 -3716.728 1320.589)
(-2175.461 -3999.769 4208.69)
(-2704.605 -4358.605 7505.427)
(-3287.262 -4840.227 11501.16)
(-1776.847 -5463.492 15722.39)
(-1540.674 3481.902 1235.294)
(-1803.638 3716.878 3908.523)
(-2173.668 4000.068 6890.883)
(-2701.132 4359.03 10341.31)
(-3280.334 4840.65 13501.81)
(-2430.541 7492.517 20214.71)
(-1307.197 9759.114 1165.521)
(-1496.404 10359.15 3669.135)
(-1750.414 11058.81 6423.482)
(-2106.918 11901.84 9528.725)
(-2612.657 12969.81 12178.48)
(-4337.362 19749.86 17402.53)
(-2340.17 22288.44 17864.41)
(-1094.748 15023.23 1111.511)
(-1231.892 15881.7 3486.424)
(-1409.017 16860.41 6074.355)
(-1646.103 18001.89 8947.475)
(-1976.992 19377.02 11302.54)
(-3349.611 28959.4 15828.26)
(-4031.071 32151.32 15560.63)
(-2167.207 36285.23 17421.81)
(-898.7704 18792.41 1081.13)
(-998.2321 19804.78 3382.111)
(-1122.331 20942.66 5873.521)
(-1282.185 22241.57 8611.03)
(-1495.082 23757.78 10801.06)
(-2454.821 35082.87 15004.85)
(-3015.769 38242.2 14570.9)
(-3591.606 42467.42 15757.76)
(-1919.025 47946.75 17624.32)
(-720.9851 19846.69 1091.132)
(-792.5357 20865.88 3407.331)
(-879.4056 22000.98 5905.469)
(-987.5371 23279.74 8632.397)
(-1126.244 24742.26 10778.85)
(-1796.626 36268.77 14995.74)
(-2141.964 39078.86 14681.9)
(-2607.641 42634.79 15872.43)
(-3054.418 47385.97 17444.71)
(-1615.398 53559.09 28571.41)
(-571.4768 16596.97 1137.961)
(-622.9743 17412.1 3549.674)
(-684.012 18310.28 6145.979)
(-757.9364 19308.74 8969.119)
(-849.6357 20431.6 11169.32)
(-1326.219 29774.41 15658.28)
(-1538.35 31818.74 15647.49)
(-1822.525 34283.16 17176.59)
(-2190.733 37400.03 19036.58)
(-2504.825 41566.2 31261.53)
(-628.1516 23898.37 25264.17)
(-466.1237 11029.51 1083.886)
(-504.6926 11548.18 3375.454)
(-549.5261 12111.56 5833.431)
(-602.5841 12728.11 8493.039)
(-666.7169 13409.1 10544.45)
(-1023.665 19435.52 14729.22)
(-1163.671 20626.92 14651.75)
(-1345.63 22013.84 15975.67)
(-1584.249 23682.03 17521.17)
(-1879.643 25791.91 28308.57)
(-1006.854 14162.53 22340.91)
(-463.606 15361.04 28419.35)
(-396.3718 6422.222 1007.136)
(-426.8076 6713.49 3131.602)
(-461.599 7026.606 5402.511)
(-502.0073 7365.284 7849.287)
(-549.7791 7734.446 9720.776)
(-833.5272 11166.98 13499.35)
(-932.8495 11794.48 13294.53)
(-1058.975 12506.76 14340.06)
(-1221.493 13335.06 15531.96)
(-1430.699 14331.56 24683.27)
(-810.6186 7592.606 18854.45)
(-799.0736 7682.763 22899.53)
(-350.806 7411.243 27129.54)
(-350.2845 3227.101 941.8482)
(-375.4815 3369.017 2924.914)
(-403.8831 3520.511 5038.914)
(-436.3352 3683.062 7309.129)
(-474.0066 3858.57 9034.349)
(-711.5156 5555.312 12486.96)
(-786.6616 5847.213 12196.96)
(-879.8675 6172.859 13043.76)
(-997.885 6542.462 13993.02)
(-1149.037 6972.5 21974.22)
(-648.7801 3623.116 16403.74)
(-695.8894 3526.511 19224.93)
(-657.2132 3274.085 22088.19)
(-276.8475 2777.904 25231.49)
(-319.6602 957.9069 892.3283)
(-341.3795 998.8652 2768.412)
(-365.5781 1042.371 4764.278)
(-392.8502 1088.775 6902.282)
(-424.005 1138.528 8518.965)
(-631.4488 1635.538 11739.04)
(-691.3957 1716.869 11409.73)
(-764.2333 1806.416 12137.55)
(-854.5146 1906.324 12944.08)
(-968.6596 2019.758 20179.05)
(-539.4874 1038.821 14871.04)
(-583.1642 992.9881 17091.97)
(-613.2193 900.6186 19215.52)
(-557.3735 753.7128 21656.05)
(-224.9896 533.5984 16573.25)
(-981.9437 -34000.3 2275.233)
(-2267.569 -34225.01 1871.962)
(-1203.954 -38652.03 6295.071)
(-2219.244 -27788.38 1603.731)
(-2652.109 -30840.24 5258.669)
(-1420.575 -34820.49 9878.682)
(-1985.727 -19358.26 1438.828)
(-2457.474 -21090.65 4635.326)
(-2964.141 -23413.58 8421.848)
(-1595.794 -26431.74 13415.85)
(-1752.617 -11056.94 1324.318)
(-2111.316 -11898.66 4219.904)
(-2620.62 -12965.43 7523.091)
(-3176.796 -14396.48 11519.55)
(-1714.563 -16250.34 15712.5)
(-1540.674 -3481.902 1235.294)
(-1803.638 -3716.878 3908.523)
(-2173.668 -4000.068 6890.883)
(-2701.132 -4359.03 10341.31)
(-3280.334 -4840.65 13501.81)
(-2430.541 -7492.517 20214.71)
(-1345.051 3280.379 1162.003)
(-1540.04 3482.048 3658.226)
(-1802.187 3717.176 6404.847)
(-2171.058 4000.517 9502.509)
(-2696.61 4359.599 12148.89)
(-4488.642 6639.239 17366.74)
(-2425.427 7492.607 17852)
(-1160.915 9232.51 1100.986)
(-1306.645 9759.694 3453.503)
(-1495.174 10360.36 6017.219)
(-1748.296 11060.68 8864.494)
(-2103.519 11904.38 11201.2)
(-3576.508 17790.89 15675.94)
(-4329.216 19753.7 15387.03)
(-2335.303 22291.55 17261.36)
(-984.9869 14258.25 1053.492)
(-1094.256 15024.81 3295.358)
(-1230.815 15885 5722.07)
(-1407.21 16865.59 8388.803)
(-1643.329 18009.11 10524.21)
(-2706.342 26585.33 14572.65)
(-3344.264 28972.08 14041.14)
(-4023.333 32167.36 15088.87)
(-2162.621 36302.63 16869.04)
(-816.9789 17881.08 1027.546)
(-898.3189 18796.17 3207.589)
(-997.2559 19812.67 5556.214)
(-1120.723 20955.1 8118.529)
(-1279.78 22259.01 10135.56)
(-2046.28 32609.31 13984.03)
(-2450.671 35114.32 13431.52)
(-3010.482 38283.37 14258.65)
(-3584.15 42519.62 15409.46)
(-1914.658 48008.53 24941.93)
(-660.743 18923.56 1039.564)
(-720.5527 19853.35 3240.673)
(-791.6087 20879.84 5605.479)
(-877.8964 22022.98 8173.046)
(-985.3185 23310.64 10171.11)
(-1540.863 33980.59 14083.44)
(-1792.984 36324.81 13695.89)
(-2137.555 39152.42 14654.34)
(-2601.996 42728.85 15841.06)
(-3046.705 47504.34 25310.27)
(-784.2295 27533.7 18948.24)
(-527.2349 15851.89 1086.465)
(-571.0469 16600.78 3384.207)
(-622.0575 17420.08 5850.073)
(-682.531 18322.81 8520.278)
(-755.7836 19326.23 10583.22)
(-1161.683 28047.64 14785.74)
(-1322.74 29806.24 14705.4)
(-1534.192 31860.61 16037.13)
(-1817.38 34336.48 17599.63)
(-2184.051 37466.62 28472.72)
(-1205.666 21213.29 22655.89)
(-571.8927 25421.15 29782.88)
(-432.4083 10549.14 1036.606)
(-465.7303 11028.17 3224.395)
(-503.8586 11545.34 5565.127)
(-548.1893 12107.05 8089.519)
(-600.6603 12721.67 10023.48)
(-911.2398 18379.33 13964.66)
(-1020.649 19424.52 13842.87)
(-1160.154 20613.21 15024.36)
(-1341.439 21996.87 16374.4)
(-1579.088 23661.01 26209.01)
(-904.9865 12757.7 20395.05)
(-912.435 13637 25656.04)
(-405.189 14182.64 31841.61)
(-369.3804 6149.904 964.5803)
(-396.0186 6420.089 2996.293)
(-426.0629 6709.021 5163.567)
(-460.4128 7019.561 7492.45)
(-500.3137 7355.377 9264.043)
(-751.2681 10591.69 12838.39)
(-830.9478 11149.98 12609.44)
(-929.9115 11773.11 13555.15)
(-1055.577 12480.4 14616.6)
(-1217.48 13302.93 23088.17)
(-689.6809 6961.04 17474.91)
(-743.5767 6916.757 20941.87)
(-709.5313 6571.251 24610.05)
(-298.7093 5648.978 28732.06)
(-327.6715 3093.601 903.144)
(-349.9639 3225.738 2802.32)
(-374.8083 3366.168 4823.383)
(-402.8161 3516.034 6989.003)
(-434.821 3676.79 8627.314)
(-647.6571 5281.958 11904.12)
(-709.2602 5544.64 11602.47)
(-784.1365 5833.861 12375.17)
(-877.0095 6156.503 13231.92)
(-994.6017 6522.7 20688.89)
(-554.308 3361.881 15350.84)
(-599.4139 3232.254 17828.13)
(-630.8492 2945.91 20229.84)
(-574.742 2461.105 22976.44)
(-230.9876 1701.842 17679.47)
(-299.9789 919.2054 856.5422)
(-319.3643 957.4743 2655.39)
(-340.76 997.9621 4566.247)
(-364.5998 1040.954 6609.333)
(-391.4682 1086.795 8148.353)
(-579.306 1558.326 11212.32)
(-629.4217 1632.191 10878.11)
(-689.1524 1712.699 11547.18)
(-761.7297 1801.332 12282.19)
(-851.69 1900.217 19084.46)
(-467.3506 971.7366 14002.22)
(-499.8037 921.4413 15994.39)
(-533.379 825.4765 17822.84)
(-549.2031 678.2087 19849.85)
(-478.6496 473.6191 15125.89)
(-1643.701 2635.499 52571.18)
(-812.4004 -23827.48 2224.103)
(-1874.321 -30074.37 2025.189)
(-980.9436 -34003.99 6731.133)
(-1926.404 -30847.29 1693.108)
(-2265.814 -34234.81 5535.507)
(-1201.955 -38670.22 10288.46)
(-1802.476 -25512.22 1473.364)
(-2218.016 -27793.38 4742.22)
(-2648.658 -30850.43 8596.983)
(-1417.539 -34833.31 13587.86)
(-1650.441 -17991.07 1336.154)
(-1984.798 -19360.13 4256.315)
(-2455.109 -21094.47 7583.46)
(-2958.987 -23419.07 11594.3)
(-1591.675 -26436.2 15738.62)
(-1497.039 -10358.55 1238.934)
(-1751.866 -11057.56 3919.71)
(-2109.526 -11899.93 6909.6)
(-2617.161 -12967.3 10366.14)
(-3169.945 -14398.62 13523.92)
(-2345.213 -22286.67 20210.17)
(-1345.051 -3280.379 1162.003)
(-1540.04 -3482.048 3658.226)
(-1802.187 -3717.176 6404.847)
(-2171.058 -4000.517 9502.509)
(-2696.61 -4359.599 12148.89)
(-4488.642 -6639.239 17366.74)
(-2425.427 -7492.607 17852)
(-1194.42 3103.357 1097.6)
(-1344.501 3280.52 3442.961)
(-1538.812 3482.339 5999.061)
(-1800.071 3717.623 8838.433)
(-2167.657 4001.117 11170.05)
(-3691.618 5979.721 15631.22)
(-4480.41 6640.038 15340.49)
(-2420.495 7493.014 17233.19)
(-1044.398 8762.39 1043.403)
(-1160.426 9233.067 3263.793)
(-1305.575 9760.853 5667.226)
(-1493.379 10362.16 8308.865)
(-1745.534 11063.17 10425.63)
(-2879.871 16329.79 14421.65)
(-3571.149 17795.05 13860.97)
(-4321.348 19758.67 14871.83)
(-2330.612 22295.99 16658.14)
(-895.2342 13566.95 1001.092)
(-984.5452 14259.76 3124.645)
(-1093.3 15027.96 5411.573)
(-1229.241 15889.95 7906.49)
(-1404.853 16872.49 9871.421)
(-2249.662 24708.9 13572.09)
(-2702.279 26597.52 12927.63)
(-3339.079 28987.8 13616.36)
(-4015.849 32186.76 14616.38)
(-2158.196 36323.87 23605.61)
(-748.6027 17049.91 978.6979)
(-816.5692 17884.68 3049.742)
(-897.4409 18803.71 5272.164)
(-995.8266 19824.53 7683.516)
(-1118.621 20971.7 9559.511)
(-1751.615 30552.5 13124.88)
(-2042.878 32639.04 12517.93)
(-2446.609 35153.04 13144.06)
(-3005.314 38332.44 13944.85)
(-3576.888 42580.55 21824.36)
(-935.0473 24380.6 15517.37)
(-609.4761 18075.44 992.1793)
(-660.3472 18929.94 3088.501)
(-719.7097 19866.69 5333.61)
(-790.2483 20900.84 7760.937)
(-875.9198 22052.4 9632.988)
(-1348.051 32014.81 13291.4)
(-1537.746 34033.58 12862.58)
(-1789.348 36393.95 13669.98)
(-2133.154 39240.16 14625.15)
(-2596.363 42838.46 22985.03)
(-1483.114 24464.74 16819.69)
(-741.759 30061.23 18626.35)
(-488.9962 15163.44 1038.837)
(-526.8384 15855.56 3231.927)
(-570.2058 16608.45 5579.374)
(-620.7079 17432.1 8112.705)
(-680.5863 18339.57 10056.26)
(-1033.35 26530.55 14011.4)
(-1158.627 28077.99 13885.3)
(-1319.17 29845.98 15070.65)
(-1529.926 31910.97 16430.65)
(-1812.102 34399 26319.76)
(-1056.042 19135.77 20627.91)
(-1105.208 22639.62 26748.04)
(-506.7578 27815.57 35759.93)
(-402.8873 10103.27 992.6464)
(-432.0433 10547.87 3084.499)
(-464.9599 11025.5 5317.818)
(-502.6302 11541.11 7719.744)
(-546.433 12101.03 9549.548)
(-820.9433 17437.29 13275.95)
(-908.5415 18369.14 13123.59)
(-1017.552 19411.89 14193.96)
(-1156.544 20597.69 15397.99)
(-1337.138 21977.89 24490.17)
(-761.7338 11708.29 18873.6)
(-829.6306 12299.7 23402.03)
(-806.1609 12623.12 28748.4)
(-339.8773 11908.89 35395.83)
(-345.4891 5896.193 924.8454)
(-369.0512 6147.872 2870.356)
(-395.3269 6415.838 4941.994)
(-424.9656 6702.334 7163.084)
(-458.8542 7010.182 8844.896)
(-683.6624 10072.7 12236.26)
(-748.9304 10575.68 11991.46)
(-828.3149 11129.91 12855.9)
(-926.9129 11748.47 13815.56)
(-1052.11 12450.56 21725.15)
(-587.2365 6463.07 16340.02)
(-635.7739 6345.351 19396.06)
(-670.4798 5921.766 22491.09)
(-613.5355 5018.68 26061.3)
(-243.9757 3345.508 20332.96)
(-307.4775 2968.811 866.8802)
(-327.3716 3092.3 2687.757)
(-349.3359 3223.023 4622.578)
(-373.8161 3361.908 6691.842)
(-401.4139 3510.078 8251.226)
(-594.1065 5033.176 11368.77)
(-645.5934 5271.865 11060.47)
(-706.9696 5532.042 11771.45)
(-781.5723 5818.479 12552.98)
(-874.1073 6137.999 19562.02)
(-479.7956 3145.625 14449.43)
(-512.8822 3000.414 16675.78)
(-546.8142 2701.479 18750.48)
(-562.3812 2216.283 21034.64)
(-489.3391 1511.982 16099.77)
(-1672.195 7942.963 56028.08)
(-282.2704 882.9203 822.9152)
(-299.7012 918.7919 2549.432)
(-318.7843 956.6123 4381.048)
(-339.8466 996.6119 6336.206)
(-363.3138 1039.07 7804.101)
(-534.8445 1487.534 10725.42)
(-577.4381 1555.152 10389.67)
(-627.3686 1628.244 11008.75)
(-686.8805 1707.898 11684.27)
(-759.1941 1795.584 18107.49)
(-410.8254 914.3718 13240.32)
(-432.9932 862.2026 15054.8)
(-458.0009 766.2673 16672.34)
(-481.4371 621.9313 18404.91)
(-483.1737 426.703 13861.97)
(-3555.22 2350.564 48053.67)
(-1522.253 1765.966 31023.47)
(-701.1772 -14634.14 2126.135)
(-1576.769 -21019.81 1999.464)
(-811.5019 -23821.51 6582.207)
(-1628.944 -27092.3 1839.667)
(-1872.579 -30079.47 5997.937)
(-979.011 -34011.78 11026.7)
(-1578.087 -28322.02 1558.492)
(-1925.15 -30856.72 5011.294)