/*--------------------------------*- C++ -*----------------------------------*\
| =========                 |                                                 |
| \\      /  F ield         | OpenFOAM: The Open Source CFD Toolbox           |
|  \\    /   O peration     | Version:  2306                                  |
|   \\  /    A nd           | Website:  www.openfoam.com                      |
|    \\/     M anipulation  |                                                 |
\*---------------------------------------------------------------------------*/
FoamFile
{
    version     2.0;
    format      ascii;
    arch        "LSB;label=32;scalar=64";
    class       volScalarField;
    location    "0.9/phiEA";
    object      J;
}
// * * * * * * * * * * * * * * * * * * * * * * * * * * * * * * * * * * * * * //

dimensions      [0 -3 0 0 0 1 0];

internalField   nonuniform List<scalar> 
20000
(
-9.611219e+08
-9.690663e+08
-8.775492e+08
-9.195582e+08
-9.850756e+08
-8.826111e+08
-9.269276e+08
-8.057637e+08
-8.41792e+08
-8.902002e+08
-1.009204e+09
-8.925403e+08
-9.417678e+08
-8.095931e+08
-8.465117e+08
-8.971867e+08
-7.478479e+08
-7.747205e+08
-8.163291e+08
-8.72137e+08
-1.040596e+09
-9.068275e+08
-9.641137e+08
-8.170125e+08
-8.557645e+08
-9.112524e+08
-7.509693e+08
-7.783066e+08
-8.208153e+08
-8.789111e+08
-6.995793e+08
-7.204238e+08
-7.52483e+08
-8.004481e+08
-8.643316e+08
-1.074403e+09
-9.241324e+08
-9.931556e+08
-8.274623e+08
-8.690703e+08
-9.324293e+08
-7.569722e+08
-7.852512e+08
-8.296081e+08
-8.92553e+08
-7.02225e+08
-7.233573e+08
-7.559006e+08
-8.047981e+08
-8.710411e+08
-6.580543e+08
-6.750413e+08
-7.006973e+08
-7.384841e+08
-7.933394e+08
0
-1.099769e+09
-9.409663e+08
-1.024391e+09
-8.396771e+08
-8.851748e+08
-9.59957e+08
-7.653171e+08
-7.950273e+08
-8.4225e+08
-9.131061e+08
-7.072882e+08
-7.289962e+08
-7.625171e+08
-8.133246e+08
-8.845631e+08
-6.603511e+08
-6.775353e+08
-7.034994e+08
-7.418006e+08
-7.976382e+08
0
-6.215884e+08
-6.358999e+08
-6.57336e+08
-6.882031e+08
-7.320849e+08
0
0
-1.115635e+09
-9.522537e+08
-1.047736e+09
-8.50902e+08
-9.008267e+08
-9.895756e+08
-7.748535e+08
-8.064471e+08
-8.575502e+08
-9.398615e+08
-7.142639e+08
-7.368311e+08
-7.718291e+08
-8.255869e+08
-9.049645e+08
-6.64731e+08
-6.823058e+08
-7.088842e+08
-7.482211e+08
-8.060669e+08
0
-6.236169e+08
-6.380706e+08
-6.597232e+08
-6.909251e+08
-7.353595e+08
0
0
-5.890499e+08
-6.014478e+08
-6.198753e+08
-6.460738e+08
-6.824222e+08
0
0
0
-1.124544e+09
-9.584629e+08
-1.062285e+09
-8.578162e+08
-9.112904e+08
-1.01165e+09
-7.83293e+08
-8.169322e+08
-8.72419e+08
-9.687106e+08
-7.2211e+08
-7.457787e+08
-7.827047e+08
-8.404371e+08
-9.315922e+08
-6.707257e+08
-6.888749e+08
-7.16364e+08
-7.572581e+08
-8.181966e+08
0
-6.274753e+08
-6.422082e+08
-6.64288e+08
-6.961554e+08
-7.417e+08
0
0
-5.908641e+08
-6.033694e+08
-6.219569e+08
-6.483952e+08
-6.851095e+08
0
0
0
-5.596858e+08
-5.706408e+08
-5.868506e+08
-6.096494e+08
-6.408234e+08
0
0
0
0
-1.12851e+09
-9.615598e+08
-1.070433e+09
-8.611284e+08
-9.170308e+08
-1.025376e+09
-7.881807e+08
-8.233733e+08
-8.823318e+08
-9.901771e+08
-7.288678e+08
-7.536891e+08
-7.926858e+08
-8.548805e+08
-9.604097e+08
-6.773881e+08
-6.962584e+08
-7.249032e+08
-7.678152e+08
-8.329052e+08
0
-6.327292e+08
-6.478683e+08
-6.70572e+08
-7.034206e+08
-7.506275e+08
0
0
-5.943084e+08
-6.070229e+08
-6.259234e+08
-6.528335e+08
-6.902736e+08
0
0
0
-5.613244e+08
-5.723631e+08
-5.886964e+08
-6.116757e+08
-6.431157e+08
0
0
0
0
-5.329434e+08
-5.427841e+08
-5.57276e+08
-5.775124e+08
-6.048584e+08
0
0
0
0
0
-1.12851e+09
-9.628232e+08
-1.074054e+09
-8.624898e+08
-9.198879e+08
-1.033052e+09
-7.902487e+08
-8.2645e+08
-8.877589e+08
-1.003515e+09
-7.326016e+08
-7.582574e+08
-7.987988e+08
-8.64486e+08
-9.81845e+08
-6.830078e+08
-7.0261e+08
-7.32447e+08
-7.775054e+08
-8.472333e+08
0
-6.385135e+08
-6.541539e+08
-6.776318e+08
-7.11715e+08
-7.610641e+08
0
0
-5.989791e+08
-6.119952e+08
-6.313476e+08
-6.589431e+08
-6.974483e+08
0
0
0
-5.644309e+08
-5.756314e+08
-5.922047e+08
-6.155363e+08
-6.474985e+08
0
0
0
0
-5.344351e+08
-5.443429e+08
-5.58933e+08
-5.79311e+08
-6.068598e+08
0
0
0
0
0
-5.08414e+08
-5.173678e+08
-5.304962e+08
-5.487092e+08
-5.731221e+08
0
0
0
0
0
0
-1.124544e+09
-9.628232e+08
-1.074054e+09
-8.629402e+08
-9.210519e+08
-1.036461e+09
-7.909097e+08
-8.277106e+08
-8.904576e+08
-1.010975e+09
-7.340139e+08
-7.601829e+08
-8.017105e+08
-8.697386e+08
-9.951742e+08
-6.85997e+08
-7.061085e+08
-7.367886e+08
-7.834209e+08
-8.56742e+08
0
-6.43312e+08
-6.594485e+08
-6.836989e+08
-7.190399e+08
-7.706487e+08
0
0
-6.040818e+08
-6.17465e+08
-6.373682e+08
-6.658061e+08
-7.056423e+08
0
0
0
-5.686294e+08
-5.800612e+08
-5.969778e+08
-6.208151e+08
-6.535322e+08
0
0
0
0
-5.372601e+08
-5.472965e+08
-5.620763e+08
-5.827289e+08
-6.106732e+08
0
0
0
0
0
-5.097809e+08
-5.187893e+08
-5.319979e+08
-5.503253e+08
-5.748993e+08
0
0
0
0
0
0
-4.857804e+08
-4.940141e+08
-5.060297e+08
-5.226068e+08
-5.446718e+08
0
0
0
0
0
0
0
-1.115635e+09
-9.615598e+08
-1.070433e+09
-8.629402e+08
-9.210519e+08
-1.036461e+09
-7.910451e+08
-8.281264e+08
-8.915567e+08
-1.01429e+09
-7.343336e+08
-7.607942e+08
-8.029007e+08
-8.723515e+08
-1.002642e+09
-6.870148e+08
-7.074247e+08
-7.386107e+08
-7.862314e+08
-8.619396e+08
0
-6.457845e+08
-6.622549e+08
-6.870278e+08
-7.232389e+08
-7.764799e+08
0
0
-6.08257e+08
-6.219954e+08
-6.424332e+08
-6.716998e+08
-7.128778e+08
0
0
0
-5.731868e+08
-5.848965e+08
-6.022252e+08
-6.266729e+08
-6.603113e+08
0
0
0
0
-5.410672e+08
-5.512862e+08
-5.663351e+08
-5.873784e+08
-6.158877e+08
0
0
0
0
0
-5.123674e+08
-5.214802e+08
-5.348427e+08
-5.533905e+08
-5.782766e+08
0
0
0
0
0
0
-4.870396e+08
-4.953188e+08
-5.074011e+08
-5.240727e+08
-5.462692e+08
0
0
0
0
0
0
0
-4.647917e+08
-4.7243e+08
-4.835205e+08
-4.987404e+08
-5.188822e+08
0
0
0
0
0
0
0
0
-1.099769e+09
-9.584629e+08
-1.062285e+09
-8.624898e+08
-9.198879e+08
-1.033052e+09
-7.910451e+08
-8.281264e+08
-8.915567e+08
-1.01429e+09
-7.343244e+08
-7.609173e+08
-8.032924e+08
-8.734168e+08
-1.005964e+09
-6.871457e+08
-7.077176e+08
-7.391851e+08
-7.873785e+08
-8.645294e+08
0
-6.465455e+08
-6.632034e+08
-6.882724e+08
-7.249933e+08
-7.792435e+08
0
0
-6.103499e+08
-6.243208e+08
-6.451065e+08
-6.749191e+08
-7.170076e+08
0
0
0
-5.768726e+08
-5.888461e+08
-6.065654e+08
-6.315962e+08
-6.661298e+08
0
0
0
0
-5.451771e+08
-5.55613e+08
-5.709808e+08
-5.924885e+08
-6.216745e+08
0
0
0
0
0
-5.158446e+08
-5.251045e+08
-5.386838e+08
-5.575428e+08
-5.828709e+08
0
0
0
0
0
0
-4.894213e+08
-4.977868e+08
-5.099962e+08
-5.268492e+08
-5.492991e+08
0
0
0
0
0
0
0
-4.659571e+08
-4.736339e+08
-4.847807e+08
-5.000801e+08
-5.203318e+08
0
0
0
0
0
0
0
0
-4.452481e+08
-4.523835e+08
-4.626917e+08
-4.767664e+08
-4.95295e+08
0
0
0
0
0
0
0
0
0
-1.074403e+09
-9.522537e+08
-1.047736e+09
-8.611284e+08
-9.170308e+08
-1.025376e+09
-7.909097e+08
-8.277106e+08
-8.904576e+08
-1.010975e+09
-7.343244e+08
-7.609173e+08
-8.032924e+08
-8.734168e+08
-1.005964e+09
-6.870624e+08
-7.077053e+08
-7.392988e+08
-7.877559e+08
-8.655877e+08
0
-6.46564e+08
-6.633194e+08
-6.885441e+08
-7.255425e+08
-7.803709e+08
0
0
-6.109328e+08
-6.250294e+08
-6.460022e+08
-6.761145e+08
-7.187244e+08
0
0
0
-5.78676e+08
-5.908175e+08
-6.087828e+08
-6.341819e+08
-6.69292e+08
0
0
0
0
-5.484681e+08
-5.59106e+08
-5.747696e+08
-5.967102e+08
-6.265343e+08
0
0
0
0
0
-5.195807e+08
-5.290135e+08
-5.428468e+08
-5.620708e+08
-5.879204e+08
0
0
0
0
0
0
-4.926163e+08
-5.011027e+08
-5.134903e+08
-5.305976e+08
-5.534036e+08
0
0
0
0
0
0
0
-4.681607e+08
-4.759099e+08
-4.871638e+08
-5.026152e+08
-5.230773e+08
0
0
0
0
0
0
0
0
-4.463309e+08
-4.534993e+08
-4.638559e+08
-4.779985e+08
-4.966203e+08
0
0
0
0
0
0
0
0
0
-4.269853e+08
-4.336897e+08
-4.433247e+08
-4.564179e+08
-4.735714e+08
0
0
0
0
0
0
0
0
0
0
-1.040596e+09
-9.409663e+08
-1.024391e+09
-8.578162e+08
-9.112904e+08
-1.01165e+09
-7.902487e+08
-8.2645e+08
-8.877589e+08
-1.003515e+09
-7.343336e+08
-7.607942e+08
-8.029007e+08
-8.723515e+08
-1.002642e+09
-6.870624e+08
-7.077053e+08
-7.392988e+08
-7.877559e+08
-8.655877e+08
0
-6.464405e+08
-6.632372e+08
-6.885287e+08
-7.256494e+08
-7.80742e+08
0
0
-6.108803e+08
-6.250396e+08
-6.461054e+08
-6.763702e+08
-7.192582e+08
0
0
0
-5.791305e+08
-5.913595e+08
-6.094508e+08
-6.350401e+08
-6.704572e+08
0
0
0
0
-5.500438e+08
-5.608072e+08
-5.766514e+08
-5.988555e+08
-6.290724e+08
0
0
0
0
0
-5.225467e+08
-5.321375e+08
-5.462019e+08
-5.657589e+08
-5.920879e+08
0
0
0
0
0
0
-4.960349e+08
-5.04662e+08
-5.172561e+08
-5.346585e+08
-5.578794e+08
0
0
0
0
0
0
0
-4.711114e+08
-4.789616e+08
-4.903645e+08
-5.060276e+08
-5.267839e+08
0
0
0
0
0
0
0
0
-4.483781e+08
-4.556084e+08
-4.660563e+08
-4.803282e+08
-4.991279e+08
0
0
0
0
0
0
0
0
0
-4.27995e+08
-4.347279e+08
-4.44405e+08
-4.57557e+08
-4.747907e+08
0
0
0
0
0
0
0
0
0
0
-4.098684e+08
-4.161967e+08
-4.252449e+08
-4.374839e+08
-4.534486e+08
0
0
0
0
0
0
0
0
0
0
0
-1.009204e+09
-9.241324e+08
-9.931556e+08
-8.50902e+08
-9.008267e+08
-9.895756e+08
-7.881807e+08
-8.233733e+08
-8.823318e+08
-9.901771e+08
-7.340139e+08
-7.601829e+08
-8.017105e+08
-8.697386e+08
-9.951742e+08
-6.871457e+08
-7.077176e+08
-7.391851e+08
-7.873785e+08
-8.645294e+08
0
-6.464405e+08
-6.632372e+08
-6.885287e+08
-7.256494e+08
-7.80742e+08
0
0
-6.107342e+08
-6.249193e+08
-6.460232e+08
-6.763516e+08
-7.193604e+08
0
0
0
-5.790318e+08
-5.913028e+08
-6.094532e+08
-6.351326e+08
-6.70701e+08
0
0
0
0
-5.504024e+08
-5.612289e+08
-5.771612e+08
-5.99494e+08
-6.299062e+08
0
0
0
0
0
-5.239393e+08
-5.336259e+08
-5.478272e+08
-5.675803e+08
-5.941932e+08
0
0
0
0
0
0
-4.987282e+08
-5.07482e+08
-5.202605e+08
-5.379268e+08
-5.615208e+08
0
0
0
0
0
0
0
-4.742569e+08
-4.822234e+08
-4.937976e+08
-5.097041e+08
-5.307993e+08
0
0
0
0
0
0
0
0
-4.511151e+08
-4.584307e+08
-4.690054e+08
-4.834567e+08
-5.025037e+08
0
0
0
0
0
0
0
0
0
-4.299041e+08
-4.366899e+08
-4.464461e+08
-4.597097e+08
-4.770961e+08
0
0
0
0
0
0
0
0
0
0
-4.10813e+08
-4.17166e+08
-4.26251e+08
-4.385416e+08
-4.545763e+08
0
0
0
0
0
0
0
0
0
0
0
-3.937824e+08
-3.997796e+08
-4.083089e+08
-4.197963e+08
-4.347189e+08
0
0
0
0
0
0
0
0
0
0
0
0
-9.850756e+08
-9.068275e+08
-9.641137e+08
-8.396771e+08
-8.851748e+08
-9.59957e+08
-7.83293e+08
-8.169322e+08
-8.72419e+08
-9.687106e+08
-7.326016e+08
-7.582574e+08
-7.987988e+08
-8.64486e+08
-9.81845e+08
-6.870148e+08
-7.074247e+08
-7.386107e+08
-7.862314e+08
-8.619396e+08
0
-6.46564e+08
-6.633194e+08
-6.885441e+08
-7.255425e+08
-7.803709e+08
0
0
-6.107342e+08
-6.249193e+08
-6.460232e+08
-6.763516e+08
-7.193604e+08
0
0
0
-5.788734e+08
-5.911609e+08
-6.093343e+08
-6.35049e+08
-6.70679e+08
0
0
0
0
-5.502731e+08
-5.611285e+08
-5.770996e+08
-5.994889e+08
-6.299893e+08
0
0
0
0
0
-5.242247e+08
-5.339577e+08
-5.482228e+08
-5.680661e+08
-5.948114e+08
0
0
0
0
0
0
-4.999703e+08
-5.087991e+08
-5.216838e+08
-5.395008e+08
-5.63308e+08
0
0
0
0
0
0
0
-4.767192e+08
-4.84788e+08
-4.965128e+08
-5.126329e+08
-5.340272e+08
0
0
0
0
0
0
0
0
-4.54024e+08
-4.614365e+08
-4.721553e+08
-4.868109e+08
-5.061401e+08
0
0
0
0
0
0
0
0
0
-4.324532e+08
-4.393116e+08
-4.491766e+08
-4.625943e+08
-4.801919e+08
0
0
0
0
0
0
0
0
0
0
-4.125993e+08
-4.189982e+08
-4.281519e+08
-4.405399e+08
-4.567072e+08
0
0
0
0
0
0
0
0
0
0
0
-3.946686e+08
-4.006875e+08
-4.092491e+08
-4.20782e+08
-4.357663e+08
0
0
0
0
0
0
0
0
0
0
0
0
-3.786305e+08
-3.843317e+08
-3.923988e+08
-4.032166e+08
-4.172169e+08
0
0
0
0
0
0
0
0
0
0
0
0
0
-9.690663e+08
-8.925403e+08
-9.417678e+08
-8.274623e+08
-8.690703e+08
-9.324293e+08
-7.748535e+08
-8.064471e+08
-8.575502e+08
-9.398615e+08
-7.288678e+08
-7.536891e+08
-7.926858e+08
-8.548805e+08
-9.604097e+08
-6.85997e+08
-7.061085e+08
-7.367886e+08
-7.834209e+08
-8.56742e+08
0
-6.465455e+08
-6.632034e+08
-6.882724e+08
-7.249933e+08
-7.792435e+08
0
0
-6.108803e+08
-6.250396e+08
-6.461054e+08
-6.763702e+08
-7.192582e+08
0
0
0
-5.788734e+08
-5.911609e+08
-6.093343e+08
-6.35049e+08
-6.70679e+08
0
0
0
0
-5.501084e+08
-5.609747e+08
-5.7696e+08
-5.993698e+08
-6.299033e+08
0
0
0
0
0
-5.240751e+08
-5.338283e+08
-5.481196e+08
-5.679993e+08
-5.94799e+08
0
0
0
0
0
0
-5.00199e+08
-5.090623e+08
-5.219941e+08
-5.398766e+08
-5.63777e+08
0
0
0
0
0
0
0
-4.778372e+08
-4.859643e+08
-4.977735e+08
-5.140119e+08
-5.355717e+08
0
0
0
0
0
0
0
0
-4.562884e+08
-4.637845e+08
-4.746272e+08
-4.894597e+08
-5.090336e+08
0
0
0
0
0
0
0
0
0
-4.351551e+08
-4.420952e+08
-4.520824e+08
-4.656741e+08
-4.835109e+08
0
0
0
0
0
0
0
0
0
0
-4.149818e+08
-4.214432e+08
-4.306909e+08
-4.432127e+08
-4.595628e+08
0
0
0
0
0
0
0
0
0
0
0
-3.963451e+08
-4.02404e+08
-4.110259e+08
-4.226442e+08
-4.377451e+08
0
0
0
0
0
0
0
0
0
0
0
0
-3.794639e+08
-3.851844e+08
-3.932803e+08
-4.041385e+08
-4.181933e+08
0
0
0
0
0
0
0
0
0
0
0
0
0
-3.643281e+08
-3.697633e+08
-3.774139e+08
-3.876315e+08
-4.008063e+08
0
0
0
0
0
0
0
0
0
0
0
0
0
0
-9.611219e+08
-8.826111e+08
-9.269276e+08
-8.170125e+08
-8.557645e+08
-9.112524e+08
-7.653171e+08
-7.950273e+08
-8.4225e+08
-9.131061e+08
-7.2211e+08
-7.457787e+08
-7.827047e+08
-8.404371e+08
-9.315922e+08
-6.830078e+08
-7.0261e+08
-7.32447e+08
-7.775054e+08
-8.472333e+08
0
-6.457845e+08
-6.622549e+08
-6.870278e+08
-7.232389e+08
-7.764799e+08
0
0
-6.109328e+08
-6.250294e+08
-6.460022e+08
-6.761145e+08
-7.187244e+08
0
0
0
-5.790318e+08
-5.913028e+08
-6.094532e+08
-6.351326e+08
-6.70701e+08
0
0
0
0
-5.501084e+08
-5.609747e+08
-5.7696e+08
-5.993698e+08
-6.299033e+08
0
0
0
0
0
-5.23908e+08
-5.336684e+08
-5.479685e+08
-5.678601e+08
-5.946781e+08
0
0
0
0
0
0
-5.000364e+08
-5.089136e+08
-5.218632e+08
-5.397696e+08
-5.637043e+08
0
0
0
0
0
0
0
-4.780218e+08
-4.861742e+08
-4.980186e+08
-5.143056e+08
-5.359332e+08
0
0
0
0
0
0
0
0
-4.573023e+08
-4.648444e+08
-4.757542e+08
-4.906818e+08
-5.103871e+08
0
0
0
0
0
0
0
0
0
-4.372482e+08
-4.442574e+08
-4.543479e+08
-4.680873e+08
-4.861286e+08
0
0
0
0
0
0
0
0
0
0
-4.175009e+08
-4.24032e+08
-4.333846e+08
-4.460557e+08
-4.626112e+08
0
0
0
0
0
0
0
0
0
0
0
-3.985787e+08
-4.046919e+08
-4.133961e+08
-4.251312e+08
-4.403917e+08
0
0
0
0
0
0
0
0
0
0
0
0
-3.810413e+08
-3.867973e+08
-3.949464e+08
-4.058802e+08
-4.200378e+08
0
0
0
0
0
0
0
0
0
0
0
0
0
-3.651137e+08
-3.705662e+08
-3.782425e+08
-3.884963e+08
-4.017197e+08
0
0
0
0
0
0
0
0
0
0
0
0
0
0
-3.508028e+08
-3.55996e+08
-3.632694e+08
-3.729438e+08
-3.853757e+08
0
0
0
0
0
0
0
0
0
0
0
0
0
0
0
-8.775492e+08
-9.195582e+08
-8.095931e+08
-8.465117e+08
-8.971867e+08
-7.569722e+08
-7.852512e+08
-8.296081e+08
-8.92553e+08
-7.142639e+08
-7.368311e+08
-7.718291e+08
-8.255869e+08
-9.049645e+08
-6.773881e+08
-6.962584e+08
-7.249032e+08
-7.678152e+08
-8.329052e+08
0
-6.43312e+08
-6.594485e+08
-6.836989e+08
-7.190399e+08
-7.706487e+08
0
0
-6.103499e+08
-6.243208e+08
-6.451065e+08
-6.749191e+08
-7.170076e+08
0
0
0
-5.791305e+08
-5.913595e+08
-6.094508e+08
-6.350401e+08
-6.704572e+08
0
0
0
0
-5.502731e+08
-5.611285e+08
-5.770996e+08
-5.994889e+08
-6.299893e+08
0
0
0
0
0
-5.23908e+08
-5.336684e+08
-5.479685e+08
-5.678601e+08
-5.946781e+08
0
0
0
0
0
0
-4.998696e+08
-5.087513e+08
-5.217061e+08
-5.396192e+08
-5.635637e+08
0
0
0
0
0
0
0
-4.778516e+08
-4.860132e+08
-4.978694e+08
-5.14172e+08
-5.358214e+08
0
0
0
0
0
0
0
0
-4.574524e+08
-4.65013e+08
-4.759487e+08
-4.909129e+08
-5.106685e+08
0
0
0
0
0
0
0
0
0
-4.381738e+08
-4.452197e+08
-4.553643e+08
-4.691803e+08
-4.873283e+08
0
0
0
0
0
0
0
0
0
0
-4.194442e+08
-4.260331e+08
-4.35473e+08
-4.48269e+08
-4.649968e+08
0
0
0
0
0
0
0
0
0
0
-4.009354e+08
-4.071086e+08
-4.159038e+08
-4.277685e+08
-4.432068e+08
0
0
0
0
0
0
0
0
0
0
0
0
-3.83141e+08
-3.889449e+08
-3.971665e+08
-4.082033e+08
-4.225013e+08
0
0
0
0
0
0
0
0
0
0
0
0
0
-3.666013e+08
-3.720854e+08
-3.798095e+08
-3.901306e+08
-4.034455e+08
0
0
0
0
0
0
0
0
0
0
0
0
0
0
-3.515448e+08
-3.567536e+08
-3.640503e+08
-3.737572e+08
-3.862327e+08
0
0
0
0
0
0
0
0
0
0
0
0
0
0
0
-3.37992e+08
-3.429625e+08
-3.498912e+08
-3.590719e+08
-3.708294e+08
0
0
0
0
0
0
0
0
0
0
0
0
0
0
0
0
-8.057637e+08
-8.41792e+08
-8.902002e+08
-7.509693e+08
-7.783066e+08
-8.208153e+08
-8.789111e+08
-7.072882e+08
-7.289962e+08
-7.625171e+08
-8.133246e+08
-8.845631e+08
-6.707257e+08
-6.888749e+08
-7.16364e+08
-7.572581e+08
-8.181966e+08
0
-6.385135e+08
-6.541539e+08
-6.776318e+08
-7.11715e+08
-7.610641e+08
0
0
-6.08257e+08
-6.219954e+08
-6.424332e+08
-6.716998e+08
-7.128778e+08
0
0
0
-5.78676e+08
-5.908175e+08
-6.087828e+08
-6.341819e+08
-6.69292e+08
0
0
0
0
-5.504024e+08
-5.612289e+08
-5.771612e+08
-5.99494e+08
-6.299062e+08
0
0
0
0
0
-5.240751e+08
-5.338283e+08
-5.481196e+08
-5.679993e+08
-5.94799e+08
0
0
0
0
0
0
-4.998696e+08
-5.087513e+08
-5.217061e+08
-5.396192e+08
-5.635637e+08
0
0
0
0
0
0
0
-4.776868e+08
-4.85851e+08
-4.977099e+08
-5.14016e+08
-5.356701e+08
0
0
0
0
0
0
0
0
-4.572783e+08
-4.648448e+08
-4.757877e+08
-4.907616e+08
-5.105309e+08
0
0
0
0
0
0
0
0
0
-4.382965e+08
-4.453559e+08
-4.555197e+08
-4.693628e+08
-4.875487e+08
0
0
0
0
0
0
0
0
0
0
-4.202942e+08
-4.269127e+08
-4.363966e+08
-4.492553e+08
-4.660701e+08
0
0
0
0
0
0
0
0
0
0
-4.027465e+08
-4.089689e+08
-4.178386e+08
-4.298101e+08
-4.453955e+08
0
0
0
0
0
0
0
0
0
0
-3.85352e+08
-3.912085e+08
-3.995097e+08
-4.106601e+08
-4.251135e+08
0
0
0
0
0
0
0
0
0
0
0
0
0
-3.685797e+08
-3.741065e+08
-3.818952e+08
-3.923078e+08
-4.057473e+08
0
0
0
0
0
0
0
0
0
0
0
0
0
0
-3.529507e+08
-3.581878e+08
-3.655275e+08
-3.752951e+08
-3.878525e+08
0
0
0
0
0
0
0
0
0
0
0
0
0
0
0
-3.38694e+08
-3.436788e+08
-3.506286e+08
-3.598387e+08
-3.716358e+08
0
0
0
0
0
0
0
0
0
0
0
0
0
0
0
0
-3.258358e+08
-3.306045e+08
-3.372156e+08
-3.459441e+08
-3.570874e+08
0
0
0
0
0
0
0
0
0
0
0
0
0
0
0
0
0
-7.478479e+08
-7.747205e+08
-8.163291e+08
-8.72137e+08
-7.02225e+08
-7.233573e+08
-7.559006e+08
-8.047981e+08
-8.710411e+08
-6.64731e+08
-6.823058e+08
-7.088842e+08
-7.482211e+08
-8.060669e+08
0
-6.327292e+08
-6.478683e+08
-6.70572e+08
-7.034206e+08
-7.506275e+08
0
0
-6.040818e+08
-6.17465e+08
-6.373682e+08
-6.658061e+08
-7.056423e+08
0
0
0
-5.768726e+08
-5.888461e+08
-6.065654e+08
-6.315962e+08
-6.661298e+08
0
0
0
0
-5.500438e+08
-5.608072e+08
-5.766514e+08
-5.988555e+08
-6.290724e+08
0
0
0
0
0
-5.242247e+08
-5.339577e+08
-5.482228e+08
-5.680661e+08
-5.948114e+08
0
0
0
0
0
0
-5.000364e+08
-5.089136e+08
-5.218632e+08
-5.397696e+08
-5.637043e+08
0
0
0
0
0
0
0
-4.776868e+08
-4.85851e+08
-4.977099e+08
-5.14016e+08
-5.356701e+08
0
0
0
0
0
0
0
0
-4.571168e+08
-4.646844e+08
-4.756283e+08
-4.906033e+08
-5.103742e+08
0
0
0
0
0
0
0
0
0
-4.381213e+08
-4.451841e+08
-4.553519e+08
-4.692003e+08
-4.873941e+08
0
0
0
0
0
0
0
0
0
0
-4.20395e+08
-4.270233e+08
-4.365213e+08
-4.494001e+08
-4.662432e+08
0
0
0
0
0
0
0
0
0
0
-4.035308e+08
-4.097775e+08
-4.186835e+08
-4.307069e+08
-4.463642e+08
0
0
0
0
0
0
0
0
0
0
-3.870456e+08
-3.929443e+08
-4.013099e+08
-4.125527e+08
-4.271331e+08
0
0
0
0
0
0
0
0
0
0
-3.706596e+08
-3.762325e+08
-3.840919e+08
-3.946049e+08
-4.081814e+08
0
0
0
0
0
0
0
0
0
0
0
0
0
0
-3.548193e+08
-3.600942e+08
-3.67492e+08
-3.773417e+08
-3.900104e+08
0
0
0
0
0
0
0
0
0
0
0
0
0
0
0
-3.400251e+08
-3.450356e+08
-3.520243e+08
-3.612893e+08
-3.731604e+08
0
0
0
0
0
0
0
0
0
0
0
0
0
0
0
0
-3.265008e+08
-3.312828e+08
-3.379133e+08
-3.466686e+08
-3.578478e+08
0
0
0
0
0
0
0
0
0
0
0
0
0
0
0
0
0
-3.142859e+08
-3.188662e+08
-3.251876e+08
-3.334991e+08
-3.440791e+08
0
0
0
0
0
0
0
0
0
0
0
0
0
0
0
0
0
0
-6.995793e+08
-7.204238e+08
-7.52483e+08
-8.004481e+08
-8.643316e+08
-6.603511e+08
-6.775353e+08
-7.034994e+08
-7.418006e+08
-7.976382e+08
0
-6.274753e+08
-6.422082e+08
-6.64288e+08
-6.961554e+08
-7.417e+08
0
0
-5.989791e+08
-6.119952e+08
-6.313476e+08
-6.589431e+08
-6.974483e+08
0
0
0
-5.731868e+08
-5.848965e+08
-6.022252e+08
-6.266729e+08
-6.603113e+08
0
0
0
0
-5.484681e+08
-5.59106e+08
-5.747696e+08
-5.967102e+08
-6.265343e+08
0
0
0
0
0
-5.239393e+08
-5.336259e+08
-5.478272e+08
-5.675803e+08
-5.941932e+08
0
0
0
0
0
0
-5.00199e+08
-5.090623e+08
-5.219941e+08
-5.398766e+08
-5.63777e+08
0
0
0
0
0
0
0
-4.778516e+08
-4.860132e+08
-4.978694e+08
-5.14172e+08
-5.358214e+08
0
0
0
0
0
0
0
0
-4.571168e+08
-4.646844e+08
-4.756283e+08
-4.906033e+08
-5.103742e+08
0
0
0
0
0
0
0
0
0
-4.379639e+08
-4.450268e+08
-4.551942e+08
-4.690421e+08
-4.872353e+08
0
0
0
0
0
0
0
0
0
0
-4.202206e+08
-4.268505e+08
-4.363502e+08
-4.492313e+08
-4.66078e+08
0
0
0
0
0
0
0
0
0
0
-4.036136e+08
-4.098677e+08
-4.18784e+08
-4.308223e+08
-4.465009e+08
0
0
0
0
0
0
0
0
0
0
-3.877729e+08
-3.936911e+08
-4.020873e+08
-4.133735e+08
-4.280142e+08
0
0
0
0
0
0
0
0
0
0
-3.722488e+08
-3.778576e+08
-3.857732e+08
-3.963669e+08
-4.100542e+08
0
0
0
0
0
0
0
0
0
0
-3.56781e+08
-3.620963e+08
-3.695569e+08
-3.794964e+08
-3.922869e+08
0
0
0
0
0
0
0
0
0
0
0
0
0
0
0
-3.417932e+08
-3.46838e+08
-3.538788e+08
-3.632181e+08
-3.751895e+08
0
0
0
0
0
0
0
0
0
0
0
0
0
0
0
0
-3.27763e+08
-3.325687e+08
-3.392347e+08
-3.480398e+08
-3.592863e+08
0
0
0
0
0
0
0
0
0
0
0
0
0
0
0
0
0
-3.149175e+08
-3.195093e+08
-3.258487e+08
-3.341849e+08
-3.447977e+08
0
0
0
0
0
0
0
0
0
0
0
0
0
0
0
0
0
0
-3.03301e+08
-3.077026e+08
-3.13754e+08
-3.216838e+08
-3.317443e+08
0
0
0
0
0
0
0
0
0
0
0
0
0
0
0
0
0
0
0
-6.580543e+08
-6.750413e+08
-7.006973e+08
-7.384841e+08
-7.933394e+08
0
-6.236169e+08
-6.380706e+08
-6.597232e+08
-6.909251e+08
-7.353595e+08
0
0
-5.943084e+08
-6.070229e+08
-6.259234e+08
-6.528335e+08
-6.902736e+08
0
0
0
-5.686294e+08
-5.800612e+08
-5.969778e+08
-6.208151e+08
-6.535322e+08
0
0
0
0
-5.451771e+08
-5.55613e+08
-5.709808e+08
-5.924885e+08
-6.216745e+08
0
0
0
0
0
-5.225467e+08
-5.321375e+08
-5.462019e+08
-5.657589e+08
-5.920879e+08
0
0
0
0
0
0
-4.999703e+08
-5.087991e+08
-5.216838e+08
-5.395008e+08
-5.63308e+08
0
0
0
0
0
0
0
-4.780218e+08
-4.861742e+08
-4.980186e+08
-5.143056e+08
-5.359332e+08
0
0
0
0
0
0
0
0
-4.572783e+08
-4.648448e+08
-4.757877e+08
-4.907616e+08
-5.105309e+08
0
0
0
0
0
0
0
0
0
-4.379639e+08
-4.450268e+08
-4.551942e+08
-4.690421e+08
-4.872353e+08
0
0
0
0
0
0
0
0
0
0
-4.200677e+08
-4.26697e+08
-4.361955e+08
-4.490749e+08
-4.659194e+08
0
0
0
0
0
0
0
0
0
0
-4.034411e+08
-4.096956e+08
-4.18612e+08
-4.306504e+08
-4.463296e+08
0
0
0
0
0
0
0
0
0
0
-3.878418e+08
-3.937645e+08
-4.021686e+08
-4.134658e+08
-4.281224e+08
0
0
0
0
0
0
0
0
0
0
-3.729265e+08
-3.785509e+08
-3.864917e+08
-3.971226e+08
-4.108609e+08
0
0
0
0
0
0
0
0
0
0
-3.582765e+08
-3.636228e+08
-3.711323e+08
-3.81143e+08
-3.940311e+08
0
0
0
0
0
0
0
0
0
0
-3.436469e+08
-3.487283e+08
-3.55825e+08
-3.652447e+08
-3.773255e+08
0
0
0
0
0
0
0
0
0
0
0
0
0
0
0
0
-3.294391e+08
-3.342758e+08
-3.409893e+08
-3.498616e+08
-3.61199e+08
0
0
0
0
0
0
0
0
0
0
0
0
0
0
0
0
0
-3.161173e+08
-3.207298e+08
-3.271019e+08
-3.354838e+08
-3.461579e+08
0
0
0
0
0
0
0
0
0
0
0
0
0
0
0
0
0
0
-3.039018e+08
-3.083139e+08
-3.143813e+08
-3.22334e+08
-3.324247e+08
0
0
0
0
0
0
0
0
0
0
0
0
0
0
0
0
0
0
0
-2.92848e+08
-2.970754e+08
-3.028723e+08
-3.104469e+08
-3.200307e+08
0
0
0
0
0
0
0
0
0
0
0
0
0
0
0
0
0
0
0
0
-6.215884e+08
-6.358999e+08
-6.57336e+08
-6.882031e+08
-7.320849e+08
0
0
-5.908641e+08
-6.033694e+08
-6.219569e+08
-6.483952e+08
-6.851095e+08
0
0
0
-5.644309e+08
-5.756314e+08
-5.922047e+08
-6.155363e+08
-6.474985e+08
0
0
0
0
-5.410672e+08
-5.512862e+08
-5.663351e+08
-5.873784e+08
-6.158877e+08
0
0
0
0
0
-5.195807e+08
-5.290135e+08
-5.428468e+08
-5.620708e+08
-5.879204e+08
0
0
0
0
0
0
-4.987282e+08
-5.07482e+08
-5.202605e+08
-5.379268e+08
-5.615208e+08
0
0
0
0
0
0
0
-4.778372e+08
-4.859643e+08
-4.977735e+08
-5.140119e+08
-5.355717e+08
0
0
0
0
0
0
0
0
-4.574524e+08
-4.65013e+08
-4.759487e+08
-4.909129e+08
-5.106685e+08
0
0
0
0
0
0
0
0
0
-4.381213e+08
-4.451841e+08
-4.553519e+08
-4.692003e+08
-4.873941e+08
0
0
0
0
0
0
0
0
0
0
-4.200677e+08
-4.26697e+08
-4.361955e+08
-4.490749e+08
-4.659194e+08
0
0
0
0
0
0
0
0
0
0
-4.03293e+08
-4.095464e+08
-4.18461e+08
-4.304969e+08
-4.46173e+08
0
0
0
0
0
0
0
0
0
0
-3.876728e+08
-3.935943e+08
-4.019974e+08
-4.132933e+08
-4.279484e+08
0
0
0
0
0
0
0
0
0
0
-3.729843e+08
-3.786113e+08
-3.865572e+08
-3.971965e+08
-4.109467e+08
0
0
0
0
0
0
0
0
0
0
-3.589102e+08
-3.642696e+08
-3.717999e+08
-3.818419e+08
-3.947741e+08
0
0
0
0
0
0
0
0
0
0
-3.450575e+08
-3.501663e+08
-3.57306e+08
-3.667884e+08
-3.78956e+08
0
0
0
0
0
0
0
0
0
0
-3.31195e+08
-3.360638e+08
-3.428282e+08
-3.517726e+08
-3.632085e+08
0
0
0
0
0
0
0
0
0
0
0
0
0
0
0
0
0
-3.177102e+08
-3.223496e+08
-3.28765e+08
-3.372083e+08
-3.479649e+08
0
0
0
0
0
0
0
0
0
0
0
0
0
0
0
0
0
0
-3.050444e+08
-3.094751e+08
-3.155715e+08
-3.235664e+08
-3.337133e+08
0
0
0
0
0
0
0
0
0
0
0
0
0
0
0
0
0
0
0
-2.934203e+08
-2.976574e+08
-3.03469e+08
-3.110641e+08
-3.206759e+08
0
0
0
0
0
0
0
0
0
0
0
0
0
0
0
0
0
0
0
0
-2.828879e+08
-2.869539e+08
-2.925063e+08
-2.997473e+08
-3.088879e+08
0
0
0
0
0
0
0
0
0
0
0
0
0
0
0
0
0
0
0
0
0
-5.890499e+08
-6.014478e+08
-6.198753e+08
-6.460738e+08
-6.824222e+08
0
0
0
-5.613244e+08
-5.723631e+08
-5.886964e+08
-6.116757e+08
-6.431157e+08
0
0
0
0
-5.372601e+08
-5.472965e+08
-5.620763e+08
-5.827289e+08
-6.106732e+08
0
0
0
0
0
-5.158446e+08
-5.251045e+08
-5.386838e+08
-5.575428e+08
-5.828709e+08
0
0
0
0
0
0
-4.960349e+08
-5.04662e+08
-5.172561e+08
-5.346585e+08
-5.578794e+08
0
0
0
0
0
0
0
-4.767192e+08
-4.84788e+08
-4.965128e+08
-5.126329e+08
-5.340272e+08
0
0
0
0
0
0
0
0
-4.573023e+08
-4.648444e+08
-4.757542e+08
-4.906818e+08
-5.103871e+08
0
0
0
0
0
0
0
0
0
-4.382965e+08
-4.453559e+08
-4.555197e+08
-4.693628e+08
-4.875487e+08
0
0
0
0
0
0
0
0
0
0
-4.202206e+08
-4.268505e+08
-4.363502e+08
-4.492313e+08
-4.66078e+08
0
0
0
0
0
0
0
0
0
0
-4.03293e+08
-4.095464e+08
-4.18461e+08
-4.304969e+08
-4.46173e+08
0
0
0
0
0
0
0
0
0
0
-3.875297e+08
-3.934497e+08
-4.018506e+08
-4.131435e+08
-4.277947e+08
0
0
0
0
0
0
0
0
0
0
-3.728195e+08
-3.784446e+08
-3.86388e+08
-3.97025e+08
-4.107724e+08
0
0
0
0
0
0
0
0
0
0
-3.589589e+08
-3.643198e+08
-3.718532e+08
-3.819008e+08
-3.948421e+08
0
0
0
0
0
0
0
0
0
0
-3.456521e+08
-3.507716e+08
-3.579292e+08
-3.674381e+08
-3.796432e+08
0
0
0
0
0
0
0
0
0
0
-3.325294e+08
-3.374214e+08
-3.442245e+08
-3.532247e+08
-3.647376e+08
0
0
0
0
0
0
0
0
0
0
-3.193774e+08
-3.240448e+08
-3.305057e+08
-3.390148e+08
-3.498603e+08
0
0
0
0
0
0
0
0
0
0
0
0
0
0
0
0
0
0
-3.065607e+08
-3.110158e+08
-3.171506e+08
-3.252017e+08
-3.354243e+08
0
0
0
0
0
0
0
0
0
0
0
0
0
0
0
0
0
0
0
-2.945099e+08
-2.98764e+08
-3.046021e+08
-3.122351e+08
-3.218989e+08
0
0
0
0
0
0
0
0
0
0
0
0
0
0
0
0
0
0
0
0
-2.834338e+08
-2.875087e+08
-2.930747e+08
-3.003346e+08
-3.095005e+08
0
0
0
0
0
0
0
0
0
0
0
0
0
0
0
0
0
0
0
0
0
-2.733894e+08
-2.773016e+08
-2.826271e+08
-2.895501e+08
-2.982755e+08
0
0
0
0
0
0
0
0
0
0
0
0
0
0
0
0
0
0
0
0
0
0
-5.596858e+08
-5.706408e+08
-5.868506e+08
-6.096494e+08
-6.408234e+08
0
0
0
0
-5.344351e+08
-5.443429e+08
-5.58933e+08
-5.79311e+08
-6.068598e+08
0
0
0
0
0
-5.123674e+08
-5.214802e+08
-5.348427e+08
-5.533905e+08
-5.782766e+08
0
0
0
0
0
0
-4.926163e+08
-5.011027e+08
-5.134903e+08
-5.305976e+08
-5.534036e+08
0
0
0
0
0
0
0
-4.742569e+08
-4.822234e+08
-4.937976e+08
-5.097041e+08
-5.307993e+08
0
0
0
0
0
0
0
0
-4.562884e+08
-4.637845e+08
-4.746272e+08
-4.894597e+08
-5.090336e+08
0
0
0
0
0
0
0
0
0
-4.381738e+08
-4.452197e+08
-4.553643e+08
-4.691803e+08
-4.873283e+08
0
0
0
0
0
0
0
0
0
0
-4.20395e+08
-4.270233e+08
-4.365213e+08
-4.494001e+08
-4.662432e+08
0
0
0
0
0
0
0
0
0
0
-4.034411e+08
-4.096956e+08
-4.18612e+08
-4.306504e+08
-4.463296e+08
0
0
0
0
0
0
0
0
0
0
-3.875297e+08
-3.934497e+08
-4.018506e+08
-4.131435e+08
-4.277947e+08
0
0
0
0
0
0
0
0
0
0
-3.726816e+08
-3.783048e+08
-3.862455e+08
-3.968792e+08
-4.106224e+08
0
0
0
0
0
0
0
0
0
0
-3.587985e+08
-3.641571e+08
-3.716874e+08
-3.817313e+08
-3.94669e+08
0
0
0
0
0
0
0
0
0
0
-3.456934e+08
-3.508134e+08
-3.57973e+08
-3.674854e+08
-3.796968e+08
0
0
0
0
0
0
0
0
0
0
-3.330898e+08
-3.3799e+08
-3.448084e+08
-3.538316e+08
-3.653767e+08
0
0
0
0
0
0
0
0
0
0
-3.206432e+08
-3.253303e+08
-3.318249e+08
-3.403846e+08
-3.51299e+08
0
0
0
0
0
0
0
0
0
0
-3.081469e+08
-3.126269e+08
-3.188021e+08
-3.269126e+08
-3.372166e+08
0
0
0
0
0
0
0
0
0
0
0
0
0
0
0
0
0
0
0
-2.959557e+08
-3.00232e+08
-3.061051e+08
-3.137885e+08
-3.235217e+08
0
0
0
0
0
0
0
0
0
0
0
0
0
0
0
0
0
0
0
0
-2.844743e+08
-2.88565e+08
-2.941553e+08
-3.0145e+08
-3.106628e+08
0
0
0
0
0
0
0
0
0
0
0
0
0
0
0
0
0
0
0
0
0
-2.739109e+08
-2.778313e+08
-2.831693e+08
-2.901098e+08
-2.988585e+08
0
0
0
0
0
0
0
0
0
0
0
0
0
0
0
0
0
0
0
0
0
0
-2.64323e+08
-2.680892e+08
-2.731999e+08
-2.798276e+08
-2.881592e+08
0
0
0
0
0
0
0
0
0
0
0
0
0
0
0
0
0
0
0
0
0
0
0
-5.329434e+08
-5.427841e+08
-5.57276e+08
-5.775124e+08
-6.048584e+08
0
0
0
0
0
-5.097809e+08
-5.187893e+08
-5.319979e+08
-5.503253e+08
-5.748993e+08
0
0
0
0
0
0
-4.894213e+08
-4.977868e+08
-5.099962e+08
-5.268492e+08
-5.492991e+08
0
0
0
0
0
0
0
-4.711114e+08
-4.789616e+08
-4.903645e+08
-5.060276e+08
-5.267839e+08
0
0
0
0
0
0
0
0
-4.54024e+08
-4.614365e+08
-4.721553e+08
-4.868109e+08
-5.061401e+08
0
0
0
0
0
0
0
0
0
-4.372482e+08
-4.442574e+08
-4.543479e+08
-4.680873e+08
-4.861286e+08
0
0
0
0
0
0
0
0
0
0
-4.202942e+08
-4.269127e+08
-4.363966e+08
-4.492553e+08
-4.660701e+08
0
0
0
0
0
0
0
0
0
0
-4.036136e+08
-4.098677e+08
-4.18784e+08
-4.308223e+08
-4.465009e+08
0
0
0
0
0
0
0
0
0
0
-3.876728e+08
-3.935943e+08
-4.019974e+08
-4.132933e+08
-4.279484e+08
0
0
0
0
0
0
0
0
0
0
-3.726816e+08
-3.783048e+08
-3.862455e+08
-3.968792e+08
-4.106224e+08
0
0
0
0
0
0
0
0
0
0
-3.586658e+08
-3.640223e+08
-3.715497e+08
-3.815899e+08
-3.945231e+08
0
0
0
0
0
0
0
0
0
0
-3.455379e+08
-3.506551e+08
-3.578113e+08
-3.673195e+08
-3.795259e+08
0
0
0
0
0
0
0
0
0
0
-3.331259e+08
-3.380251e+08
-3.448443e+08
-3.538699e+08
-3.654192e+08
0
0
0
0
0
0
0
0
0
0
-3.211735e+08
-3.258667e+08
-3.323737e+08
-3.409534e+08
-3.518962e+08
0
0
0
0
0
0
0
0
0
0
-3.093504e+08
-3.138475e+08
-3.200522e+08
-3.282075e+08
-3.385741e+08
0
0
0
0
0
0
0
0
0
0
-2.974673e+08
-3.017661e+08
-3.076757e+08
-3.154125e+08
-3.252195e+08
0
0
0
0
0
0
0
0
0
0
0
0
0
0
0
0
0
0
0
0
-2.858549e+08
-2.899658e+08
-2.955883e+08
-3.029291e+08
-3.122047e+08
0
0
0
0
0
0
0
0
0
0
0
0
0
0
0
0
0
0
0
0
0
-2.749061e+08
-2.788407e+08
-2.842013e+08
-2.911739e+08
-2.999658e+08
0
0
0
0
0
0
0
0
0
0
0
0
0
0
0
0
0
0
0
0
0
0
-2.648219e+08
-2.685955e+08
-2.737177e+08
-2.803617e+08
-2.887149e+08
0
0
0
0
0
0
0
0
0
0
0
0
0
0
0
0
0
0
0
0
0
0
0
-2.55672e+08
-2.592891e+08
-2.641969e+08
-2.705461e+08
-2.785117e+08
0
0
0
0
0