/*--------------------------------*- C++ -*----------------------------------*\
| =========                 |                                                 |
| \\      /  F ield         | OpenFOAM: The Open Source CFD Toolbox           |
|  \\    /   O peration     | Version:  2306                                  |
|   \\  /    A nd           | Website:  www.openfoam.com                      |
|    \\/     M anipulation  |                                                 |
\*---------------------------------------------------------------------------*/
FoamFile
{
    version     2.0;
    format      ascii;
    arch        "LSB;label=32;scalar=64";
    class       volScalarField;
    location    "0.9/phiEA";
    object      phi;
}
// * * * * * * * * * * * * * * * * * * * * * * * * * * * * * * * * * * * * * //

dimensions      [1 2 -3 0 0 -1 0];

internalField   nonuniform List<scalar> 
20000
(
-0.004910203
-0.005047806
-0.004563879
-0.004905594
-0.005352504
-0.004684393
-0.005043114
-0.004214513
-0.004559675
-0.004896568
-0.005884043
-0.004951831
-0.005347644
-0.004322505
-0.004680123
-0.005033924
-0.003912671
-0.004210656
-0.004551429
-0.004883257
-0.006714074
-0.005419814
-0.005878959
-0.00456245
-0.00494743
-0.005338123
-0.004011467
-0.004318592
-0.004671748
-0.005020371
-0.003655891
-0.003909093
-0.004203084
-0.00453926
-0.004865746
-0.007826917
-0.006152963
-0.006708873
-0.004983032
-0.005415244
-0.005868998
-0.00423115
-0.004558425
-0.004938795
-0.005324079
-0.003747483
-0.00400784
-0.004310909
-0.004659387
-0.00500254
-0.003434953
-0.003652546
-0.003902064
-0.004191899
-0.004523239
-0.004847006
-0.008922253
-0.007138349
-0.007822044
-0.005643033
-0.006148334
-0.006698688
-0.004616617
-0.004978865
-0.005406276
-0.005854303
-0.003951258
-0.004227423
-0.004550521
-0.004926048
-0.005305599
-0.003520596
-0.003744093
-0.004000712
-0.00429956
-0.004643111
-0.004983455
-0.003242003
-0.003431807
-0.003645968
-0.003891672
-0.004177165
-0.004506086
-0.004830988
-0.009815951
-0.008108678
-0.008917561
-0.006531163
-0.007134071
-0.007812528
-0.005222138
-0.005638828
-0.006139254
-0.006683669
-0.004309073
-0.004612765
-0.004970679
-0.005393032
-0.005834963
-0.003711215
-0.003947778
-0.004220098
-0.004538841
-0.004909261
-0.005285818
-0.003322566
-0.003517409
-0.003737426
-0.003990174
-0.004284607
-0.004625685
-0.0049671
-0.003070981
-0.003239033
-0.003425617
-0.003636238
-0.003877976
-0.004161383
-0.004491429
-0.004814758
-0.01043228
-0.00890036
-0.00981131
-0.007405735
-0.008104609
-0.008908415
-0.006037547
-0.006527293
-0.007125697
-0.007798528
-0.004871558
-0.005218259
-0.00563057
-0.006125846
-0.006663906
-0.004046115
-0.00430548
-0.004605192
-0.004958581
-0.005375589
-0.005814257
-0.003501935
-0.003707945
-0.003940931
-0.004209266
-0.00452345
-0.004891285
-0.00526878
-0.003147097
-0.003319556
-0.003511137
-0.003727562
-0.003976284
-0.004268591
-0.004610755
-0.004950485
-0.002917499
-0.003068166
-0.003233183
-0.003416456
-0.003623408
-0.003863302
-0.004147901
-0.004476581
-0.004798315
-0.01074452
-0.009446288
-0.01042765
-0.008119071
-0.00889637
-0.009802271
-0.006840539
-0.00740207
-0.008096658
-0.008894981
-0.005629399
-0.006033985
-0.006519709
-0.007113358
-0.00778014
-0.004572861
-0.004867944
-0.005210633
-0.005618365
-0.006108189
-0.006642747
-0.003817208
-0.004042742
-0.004298409
-0.004593991
-0.004942635
-0.005356905
-0.005796321
-0.003316615
-0.003498849
-0.003701508
-0.003930801
-0.004194987
-0.004506963
-0.004875804
-0.005251387
-0.002989661
-0.003144247
-0.00331363
-0.003501853
-0.003714555
-0.003961399
-0.004254872
-0.004595591
-0.004933612
-0.002778322
-0.002914825
-0.00306262
-0.003224522
-0.003404371
-0.003609655
-0.003850767
-0.004134247
-0.004461542
-0.004781662
-0.01074452
-0.009722837
-0.01073987
-0.008610807
-0.009442321
-0.01041862
-0.007495388
-0.008115486
-0.008888578
-0.009789003
-0.006375749
-0.006837171
-0.007394896
-0.008084959
-0.008877357
-0.005282823
-0.005626084
-0.006026996
-0.006508521
-0.007097136
-0.007760481
-0.004313292
-0.00456947
-0.004860832
-0.005199354
-0.00560228
-0.006089275
-0.006624449
-0.003614678
-0.003814026
-0.004036099
-0.004287944
-0.00457922
-0.004925548
-0.00534072
-0.005777912
-0.003150408
-0.003313693
-0.00349277
-0.003691978
-0.003917439
-0.004179682
-0.004492768
-0.004860004
-0.005233639
-0.002846921
-0.002986953
-0.00313863
-0.003304855
-0.003489605
-0.003700613
-0.003948653
-0.004240943
-0.004580195
-0.004916481
-0.002651052
-0.002775776
-0.002909554
-0.003054405
-0.003213092
-0.003391413
-0.003597911
-0.003838076
-0.004120421
-0.004446313
-0.004604595
-0.01043228
-0.009722837
-0.01073987
-0.008859846
-0.009718876
-0.01073084
-0.007946725
-0.00860725
-0.009434577
-0.01040537
-0.00698437
-0.007492099
-0.008108476
-0.00887712
-0.009771606
-0.005982074
-0.006372619
-0.006830573
-0.007384327
-0.008069593
-0.008858531
-0.004982132
-0.005279717
-0.005619576
-0.006016678
-0.006493801
-0.007079783
-0.007743944
-0.004083844
-0.004310097
-0.004562795
-0.004850308
-0.005184482
-0.005585043
-0.00607291
-0.006605692
-0.003433134
-0.003611666
-0.003807756
-0.004026262
-0.004274138
-0.004563386
-0.004910751
-0.005324108
-0.005759028
-0.002999761
-0.003147633
-0.003307932
-0.003483766
-0.003679403
-0.003903114
-0.00416651
-0.004478284
-0.004843883
-0.005215537
-0.00271641
-0.002844343
-0.002981615
-0.003130308
-0.003293273
-0.003476472
-0.003688675
-0.003935715
-0.004226804
-0.004564566
-0.004733907
-0.002533865
-0.002648623
-0.002770755
-0.002901742
-0.00304356
-0.003200833
-0.003380349
-0.003586021
-0.003825228
-0.004106425
-0.004284429
-0.004247146
-0.009815951
-0.009446288
-0.01042765
-0.008859846
-0.009718876
-0.01073084
-0.008175275
-0.008856297
-0.009711144
-0.01071758
-0.00740381
-0.007943464
-0.008600294
-0.009423191
-0.010388
-0.006552279
-0.006981316
-0.007485659
-0.008098153
-0.008862077
-0.009753029
-0.005640928
-0.005979144
-0.006366481
-0.006820842
-0.007370434
-0.008053169
-0.008842992
-0.004716547
-0.004979207
-0.005273613
-0.005609959
-0.006003092
-0.006478046
-0.007065175
-0.007727451
-0.003878284
-0.00408082
-0.004303801
-0.004552911
-0.004836424
-0.005168539
-0.005570131
-0.006056128
-0.006586475
-0.003268647
-0.003430274
-0.003605728
-0.003798467
-0.004013278
-0.004259333
-0.004549677
-0.004895567
-0.005307066
-0.005739668
-0.002862053
-0.002997119
-0.00314216
-0.003299397
-0.00347188
-0.003665918
-0.003890787
-0.004153072
-0.004463512
-0.004827443
-0.005021746
-0.002596252
-0.002713951
-0.002839258
-0.002973703
-0.003119321
-0.003280851
-0.003465228
-0.003676558
-0.003922584
-0.004212456
-0.004398039
-0.004361319
-0.002425349
-0.002531545
-0.002643831
-0.00276331
-0.002891426
-0.003031926
-0.003190366
-0.003369148
-0.003573986
-0.003812223
-0.003957673
-0.00395791
-0.003871892
-0.008922253
-0.00890036
-0.00981131
-0.008610807
-0.009442321
-0.01041862
-0.008175275
-0.008856297
-0.009711144
-0.01071758
-0.007616195
-0.008172022
-0.008849357
-0.009699776
-0.0107002
-0.00694523
-0.007400783
-0.00793708
-0.008590054
-0.009408247
-0.01036945
-0.006178146
-0.006549421
-0.006975329
-0.007476167
-0.008084588
-0.008846004
-0.00973782
-0.00533979
-0.00563817
-0.005973392
-0.006357422
-0.006808042
-0.007355576
-0.008039604
-0.008827793
-0.004478724
-0.004713781
-0.004973454
-0.00526459
-0.005597291
-0.005988546
-0.006464783
-0.007050594
-0.007711003
-0.00369211
-0.003875415
-0.004074861
-0.004294474
-0.004539866
-0.004821535
-0.005154748
-0.005554841
-0.006038926
-0.006566791
-0.003118335
-0.003265926
-0.003424634
-0.003596926
-0.003786203
-0.003999352
-0.004246517
-0.004535611
-0.004879994
-0.005289594
-0.005531373
-0.002735294
-0.002859534
-0.002991907
-0.003134046
-0.003288125
-0.00345913
-0.003654314
-0.003878213
-0.004139369
-0.004448451
-0.004651476
-0.004617728
-0.002484994
-0.002593902
-0.002709099
-0.002831719
-0.002963253
-0.003107534
-0.003270217
-0.003453817
-0.003664263
-0.003909261
-0.004059611
-0.004058476
-0.003966458
-0.00232439
-0.002423128
-0.002526964
-0.002636724
-0.002753476
-0.002880356
-0.003021993
-0.00317977
-0.003357811
-0.003561805
-0.003674035
-0.003657957
-0.003615318
-0.003481918
-0.007826917
-0.008108678
-0.008917561
-0.008119071
-0.00889637
-0.009802271
-0.007946725
-0.00860725
-0.009434577
-0.01040537
-0.007616195
-0.008172022
-0.008849357
-0.009699776
-0.0107002
-0.007144196
-0.007613176
-0.008165655
-0.008839141
-0.009684855
-0.01068164
-0.006548359
-0.006942398
-0.007394851
-0.007927671
-0.0085766
-0.00939228
-0.01035431
-0.005848023
-0.006175457
-0.006543814
-0.006966498
-0.007463685
-0.008070085
-0.00883284
-0.009723072
-0.005070222
-0.005337183
-0.005632751
-0.005964897
-0.006345497
-0.006794346
-0.007343304
-0.008026328
-0.008812935
-0.004263397
-0.004476101
-0.004708338
-0.004964944
-0.005252696
-0.005583721
-0.0059763
-0.006451543
-0.007036041
-0.007694601
-0.003522031
-0.003689381
-0.003869757
-0.004066027
-0.004282158
-0.004525872
-0.004808657
-0.005140609
-0.00553917
-0.006021298
-0.006355146
-0.002980008
-0.00311574
-0.003260557
-0.003416271
-0.003585301
-0.003773043
-0.003987297
-0.00423337
-0.004521189
-0.004864032
-0.005101605
-0.005085044
-0.002617946
-0.002732888
-0.002854561
-0.002984178
-0.003123329
-0.003276032
-0.00344816
-0.003642479
-0.003865392
-0.004125401
-0.004287283
-0.004284821
-0.004180497
-0.002381494
-0.002482747
-0.002589265
-0.002701902
-0.002821759
-0.00295204
-0.003097444
-0.003259426
-0.00344224
-0.00365179
-0.003767363
-0.003748286
-0.0036988
-0.003552909
-0.002230094
-0.002322263
-0.002418744
-0.002520169
-0.002627334
-0.002742922
-0.002870905
-0.003011938
-0.003169047
-0.003346339
-0.003432392
-0.003395819
-0.003343729
-0.003259394
-0.003080942
-0.006714074
-0.007138349
-0.007822044
-0.007405735
-0.008104609
-0.008908415
-0.007495388
-0.008115486
-0.008888578
-0.009789003
-0.00740381
-0.007943464
-0.008600294
-0.009423191
-0.010388
-0.007144196
-0.007613176
-0.008165655
-0.008839141
-0.009684855
-0.01068164
-0.00673581
-0.007141372
-0.007607261
-0.008156272
-0.00882572
-0.009668915
-0.01066651
-0.00619826
-0.006545695
-0.006936843
-0.007386101
-0.0079153
-0.008562218
-0.009379243
-0.01033968
-0.005552576
-0.005845482
-0.006170177
-0.006535536
-0.006954878
-0.007450333
-0.008058207
-0.008820069
-0.009708784
-0.004826207
-0.005067751
-0.00533206
-0.005624744
-0.005953709
-0.006332734
-0.006783034
-0.007331291
-0.008013341
-0.008798419
-0.004066733
-0.004260903
-0.004470936
-0.004700283
-0.004953722
-0.005239952
-0.005572298
-0.005964076
-0.006438329
-0.007021519
-0.007522904
-0.003365552
-0.00351943
-0.003683997
-0.003861367
-0.00405436
-0.004268944
-0.004513769
-0.004795456
-0.00512612
-0.005523114
-0.005831687
-0.005897815
-0.002851978
-0.00297753
-0.003110619
-0.003252593
-0.003405222
-0.003572825
-0.003761654
-0.003974932
-0.004219891
-0.004506409
-0.004692328
-0.004698706
-0.004584061
-0.002508796
-0.002615644
-0.002728136
-0.002847185
-0.002973966
-0.003111827
-0.003265627
-0.003436973
-0.003630414
-0.003852326
-0.003975961
-0.003951833
-0.003888159
-0.00371341
-0.002284831
-0.002379341
-0.002478309
-0.002582385
-0.002692392
-0.002811069
-0.002942442
-0.003087206
-0.003248478
-0.003430495
-0.003518961
-0.003478568
-0.00341878
-0.003322203
-0.003125408
-0.002141727
-0.002228054
-0.002318063
-0.002412239
-0.002511188
-0.002617252
-0.002733911
-0.00286134
-0.003001763
-0.003158197
-0.003224462
-0.003171987
-0.003104302
-0.00301744
-0.00289345
-0.002815877
-0.005884043
-0.006152963
-0.006708873
-0.006531163
-0.007134071
-0.007812528
-0.006840539
-0.00740207
-0.008096658
-0.008894981
-0.00698437
-0.007492099
-0.008108476
-0.00887712
-0.009771606
-0.00694523
-0.007400783
-0.00793708
-0.008590054
-0.009408247
-0.01036945
-0.00673581
-0.007141372
-0.007607261
-0.008156272
-0.00882572
-0.009668915
-0.01066651
-0.006375595
-0.006733154
-0.007135834
-0.007598537
-0.008143935
-0.008811373
-0.009655911
-0.01065189
-0.005884979
-0.006195744
-0.006540466
-0.006928644
-0.007374589
-0.007902068
-0.008550474
-0.009366635
-0.01032554
-0.005285173
-0.005550168
-0.005840491
-0.006162378
-0.006524639
-0.006942443
-0.007439397
-0.008046683
-0.008807692
-0.009694957
-0.004603377
-0.004823858
-0.005062891
-0.005324483
-0.005614195
-0.00594173
-0.006322191
-0.00677196
-0.007319539
-0.008000645
-0.008649621
-0.00388583
-0.004064357
-0.00425599
-0.004463289
-0.004689657
-0.004941695
-0.005229224
-0.005560895
-0.005951876
-0.006425141
-0.006869379
-0.007203473
-0.003220754
-0.003363069
-0.003514295
-0.00367601
-0.003850282
-0.004041837
-0.004257515
-0.004501363
-0.004781928
-0.005111277
-0.005350425
-0.005421238
-0.005362384
-0.002732917
-0.002849609
-0.002972638
-0.00310302
-0.003242067
-0.00339336
-0.003562027
-0.003749972
-0.003962256
-0.004206079
-0.00434745
-0.004324682
-0.004246404
-0.004023657
-0.002406871
-0.002506591
-0.002611097
-0.002721085
-0.002837436
-0.002963003
-0.003101932
-0.003255016
-0.003425568
-0.003618118
-0.003712549
-0.003665174
-0.003589221
-0.003464486
-0.003222762
-0.002194253
-0.002282767
-0.002375089
-0.002471722
-0.00257329
-0.002682183
-0.002801919
-0.002932702
-0.003076819
-0.003237373
-0.00330544
-0.003248774
-0.003173092
-0.003073958
-0.002932918
-0.002842232
-0.002058677
-0.00213977
-0.002224024
-0.002311826
-0.002403637
-0.002501544
-0.002608646
-0.002724792
-0.00285166
-0.002991468
-0.003042934
-0.002979316
-0.002899246
-0.002801724
-0.002682067
-0.002651507
-0.002668829
-0.005352504
-0.005419814
-0.005878959
-0.005643033
-0.006148334
-0.006698688
-0.006037547
-0.006527293
-0.007125697
-0.007798528
-0.006375749
-0.006837171
-0.007394896
-0.008084959
-0.008877357
-0.006552279
-0.006981316
-0.007485659
-0.008098153
-0.008862077
-0.009753029
-0.006548359
-0.006942398
-0.007394851
-0.007927671
-0.0085766
-0.00939228
-0.01035431
-0.006375595
-0.006733154
-0.007135834
-0.007598537
-0.008143935
-0.008811373
-0.009655911
-0.01065189
-0.006053284
-0.006373086
-0.00672794
-0.00712766
-0.007587059
-0.00813074
-0.008799668
-0.009643347
-0.01063778
-0.005601461
-0.005882595
-0.0061908
-0.006532742
-0.006917852
-0.007362271
-0.007891264
-0.008539116
-0.009354456
-0.01031191
-0.005041014
-0.005282885
-0.005545434
-0.005833113
-0.006152105
-0.006512973
-0.006932258
-0.007428787
-0.008035514
-0.008795709
-0.009554621
-0.004398434
-0.00460114
-0.004819236
-0.005055701
-0.005314497
-0.005602894
-0.005931834
-0.00631187
-0.006761127
-0.007308049
-0.007870415
-0.008402918
-0.003718461
-0.003883562
-0.004059673
-0.004248712
-0.004453197
-0.004678264
-0.00493157
-0.005218515
-0.005549514
-0.005939701
-0.006286976
-0.006585341
-0.006902026
-0.003086126
-0.003218379
-0.003358165
-0.003506677
-0.003665453
-0.003838381
-0.004031007
-0.004245802
-0.004488651
-0.004768071
-0.004951652
-0.004976808
-0.004940086
-0.004705817
-0.002621757
-0.002730648
-0.002844928
-0.002965375
-0.003092974
-0.003230765
-0.003383095
-0.003550952
-0.003737997
-0.003949269
-0.00405755
-0.004007347
-0.003912261
-0.003740426
-0.0034042
-0.002311374
-0.002404757
-0.002502235
-0.002604348
-0.002711764
-0.002826968
-0.002953572
-0.003091842
-0.0032442
-0.003413947
-0.003486597
-0.003422022
-0.003329426
-0.00320213
-0.003019449
-0.002895307
-0.00210913
-0.002192272
-0.002278688
-0.002368776
-0.002463013
-0.002563525
-0.002673444
-0.002792635
-0.002922823
-0.003066284
-0.003119131
-0.003051166
-0.002963102
-0.002853552
-0.002717626
-0.002675013
-0.002686488
-0.00198043
-0.002056797
-0.0021359
-0.002218041
-0.00230358
-0.002394401
-0.002493312
-0.002599936
-0.002715563
-0.002841866
-0.002882107
-0.002811159
-0.002722635
-0.002616243
-0.002490805
-0.002460355
-0.002516603
-0.002505643
-0.005047806
-0.004951831
-0.005347644
-0.004983032
-0.005415244
-0.005868998
-0.005222138
-0.005638828
-0.006139254
-0.006683669
-0.005629399
-0.006033985
-0.006519709
-0.007113358
-0.00778014
-0.005982074
-0.006372619
-0.006830573
-0.007384327
-0.008069593
-0.008858531
-0.006178146
-0.006549421
-0.006975329
-0.007476167
-0.008084588
-0.008846004
-0.00973782
-0.00619826
-0.006545695
-0.006936843
-0.007386101
-0.0079153
-0.008562218
-0.009379243
-0.01033968
-0.006053284
-0.006373086
-0.00672794
-0.00712766
-0.007587059
-0.00813074
-0.008799668
-0.009643347
-0.01063778
-0.005761606
-0.006050907
-0.006368158
-0.00672024
-0.0071169
-0.007574777
-0.008119976
-0.008788359
-0.009631224
-0.0106242
-0.005342604
-0.005599195
-0.005877907
-0.006183495
-0.006522569
-0.006906298
-0.007352213
-0.007880815
-0.008528145
-0.009342707
-0.01017408
-0.004816472
-0.005038834
-0.005278384
-0.005538433
-0.005823391
-0.006141103
-0.006503418
-0.006922376
-0.007418502
-0.008024699
-0.00867403
-0.00933441
-0.004208846
-0.004396299
-0.004596736
-0.004812395
-0.005046219
-0.005303797
-0.00559356
-0.005922148
-0.006301774
-0.006750535
-0.007190179
-0.007653787
-0.008200285
-0.003562872
-0.003716293
-0.00387909
-0.004052733
-0.004239105
-0.004442374
-0.004668673
-0.004921463
-0.005207827
-0.005538157
-0.005812144
-0.006028967
-0.006316508
-0.006640136
-0.002960453
-0.003083852
-0.003213689
-0.003350886
-0.003496605
-0.003654118
-0.00382809
-0.004019908
-0.004233799
-0.00447563
-0.004619068
-0.004606492
-0.004539067
-0.004349661
-0.003849475
-0.002517622
-0.002619582
-0.002726164
-0.002837978
-0.002955772
-0.003082186
-0.003220984
-0.003372567
-0.0035396
-0.003725729
-0.003809614
-0.003739928
-0.00362605
-0.00345116
-0.003181131
-0.002974346
-0.002221637
-0.002309345
-0.002400579
-0.002495767
-0.002595423
-0.002701753
-0.002817963
-0.002943956
-0.003081557
-0.003233179
-0.003289647
-0.003213337
-0.003108294
-0.002971169
-0.002795652
-0.00272238
-0.002719938
-0.002028933
-0.002107226
-0.002188355
-0.00227263
-0.002360426
-0.00245366
-0.002555167
-0.002664578
-0.002783217
-0.002912802
-0.002954119
-0.002878784
-0.002782401
-0.002664369
-0.002523435
-0.002481571
-0.00253238
-0.002516495
-0.001906544
-0.001978621
-0.002053078
-0.002130153
-0.002210126
-0.002294722
-0.002386516
-0.002484981
-0.002591123
-0.002706226
-0.002737836
-0.002662252
-0.002568535
-0.002456355
-0.002325498
-0.002285288
-0.00233665
-0.0023662
-0.002332999
-0.004910203
-0.004684393
-0.005043114
-0.00456245
-0.00494743
-0.005338123
-0.004616617
-0.004978865
-0.005406276
-0.005854303
-0.004871558
-0.005218259
-0.00563057
-0.006125846
-0.006663906
-0.005282823
-0.005626084
-0.006026996
-0.006508521
-0.007097136
-0.007760481
-0.005640928
-0.005979144
-0.006366481
-0.006820842
-0.007370434
-0.008053169
-0.008842992
-0.005848023
-0.006175457
-0.006543814
-0.006966498
-0.007463685
-0.008070085
-0.00883284
-0.009723072
-0.005884979
-0.006195744
-0.006540466
-0.006928644
-0.007374589
-0.007902068
-0.008550474
-0.009366635
-0.01032554
-0.005761606
-0.006050907
-0.006368158
-0.00672024
-0.0071169
-0.007574777
-0.008119976
-0.008788359
-0.009631224
-0.0106242
-0.005495307
-0.005759347
-0.006046233
-0.006360876
-0.006710099
-0.007105383
-0.007564758
-0.008109576
-0.008777447
-0.009619541
-0.01048694
-0.005104558
-0.005340446
-0.005594738
-0.005870975
-0.006173869
-0.006511675
-0.006896864
-0.007342485
-0.007870721
-0.00851756
-0.00922386
-0.009962103
-0.004608771
-0.004814393
-0.005034546
-0.005271725
-0.005529205
-0.005812976
-0.006132093
-0.006494147
-0.006912797
-0.007408544
-0.007914875
-0.008482673
-0.009164171
-0.004032622
-0.004206806
-0.004392095
-0.004590214
-0.004803371
-0.005036057
-0.005294958
-0.005584422
-0.005912671
-0.006291902
-0.006641871
-0.006994014
-0.007475344
-0.008052312
-0.003417653
-0.003560797
-0.003712017
-0.003872461
-0.004043569
-0.0042288
-0.004433263
-0.0046591
-0.004911377
-0.005197161
-0.005419173
-0.00557397
-0.005784735
-0.006082404
-0.006462682
-0.002842742
-0.002958274
-0.00307936
-0.003206724
-0.00334126
-0.003485787
-0.003644316
-0.003817542
-0.004008535
-0.004221506
-0.004335626
-0.004296999
-0.004202302
-0.004002206
-0.003579461
-0.003067668
-0.002419783
-0.002515535
-0.002615282
-0.002719505
-0.002828785
-0.002945457
-0.003072849
-0.003210954
-0.003361776
-0.003527971
-0.003593813
-0.003511075
-0.003383979
-0.003199941
-0.002941676
-0.002792995
-0.002763483
-0.002137102
-0.002219688
-0.002305334
-0.002394374
-0.002487212
-0.002585836
-0.002693141
-0.002808781
-0.002934154
-0.003071077
-0.003115306
-0.003031464
-0.002918344
-0.002773637
-0.002595075
-0.002524346
-0.002562275
-0.002536052
-0.00195321
-0.002027103
-0.002103463
-0.002182538
-0.002264618
-0.002351458
-0.002445655
-0.002546687
-0.002655585
-0.002773666
-0.00280612
-0.002726175
-0.002624797
-0.00250141
-0.002355811
-0.002304775
-0.002350897
-0.002375903
-0.002339204
-0.001836641
-0.001904804
-0.001975045
-0.002047553
-0.00212255
-0.002201623
-0.002287161
-0.002378536
-0.00247655
-0.002582206
-0.002607056
-0.002528735
-0.002432145
-0.002316879
-0.002182834
-0.002133338
-0.002170715
-0.002198558
-0.002206376
-0.002155415
-0.004563879
-0.004905594
-0.004322505
-0.004680123
-0.005033924
-0.00423115
-0.004558425
-0.004938795
-0.005324079
-0.004309073
-0.004612765
-0.004970679
-0.005393032
-0.005834963
-0.004572861
-0.004867944
-0.005210633
-0.005618365
-0.006108189
-0.006642747
-0.004982132
-0.005279717
-0.005619576
-0.006016678
-0.006493801
-0.007079783
-0.007743944
-0.00533979
-0.00563817
-0.005973392
-0.006357422
-0.006808042
-0.007355576
-0.008039604
-0.008827793
-0.005552576
-0.005845482
-0.006170177
-0.006535536
-0.006954878
-0.007450333
-0.008058207
-0.008820069
-0.009708784
-0.005601461
-0.005882595
-0.0061908
-0.006532742
-0.006917852
-0.007362271
-0.007891264
-0.008539116
-0.009354456
-0.01031191
-0.005495307
-0.005759347
-0.006046233
-0.006360876
-0.006710099
-0.007105383
-0.007564758
-0.008109576
-0.008777447
-0.009619541
-0.01048694
-0.005250424
-0.005493156
-0.005754904
-0.006039324
-0.00635128
-0.00669924
-0.007095986
-0.007555078
-0.00809954
-0.00876693
-0.009501495
-0.01027714
-0.004884377
-0.0051025
-0.005336199
-0.005588145
-0.005861838
-0.006163557
-0.00650278
-0.00688774
-0.007333087
-0.007860982
-0.008410483
-0.009040815
-0.009801628
-0.004415724
-0.004606785
-0.004810299
-0.005028198
-0.005262942
-0.005519315
-0.005804446
-0.006123349
-0.006485161
-0.006903522
-0.007307421
-0.007742098
-0.008334457
-0.009047487
-0.003868159
-0.00403067
-0.004202786
-0.004385866
-0.004581608
-0.004793697
-0.005027662
-0.005286306
-0.005575482
-0.005903406
-0.006190624
-0.006461004
-0.006832361
-0.007344727
-0.007972192
-0.003281651
-0.003415665
-0.003556702
-0.003705675
-0.003863705
-0.004033737
-0.004220124
-0.004424169
-0.004649546
-0.004901311
-0.005085419
-0.005197026
-0.005348541
-0.005572036
-0.005923491
-0.002732162
-0.002840651
-0.002953966
-0.003072687
-0.003197511
-0.003330919
-0.003476433
-0.003634269
-0.003806735
-0.003996887
-0.004089329
-0.004033088
-0.003919984
-0.003706827
-0.003302256
-0.002876486
-0.002802068
-0.002327626
-0.002417778
-0.002511407
-0.002608893
-0.002710694
-0.002818909
-0.002936531
-0.003063275
-0.003200673
-0.003350722
-0.00340293
-0.00331189
-0.003176604
-0.002986322
-0.002729273
-0.002588169
-0.002601214
-0.002559203
-0.002057289
-0.002135228
-0.002215834
-0.002299375
-0.002386164
-0.002478021
-0.00257759
-0.002684361
-0.002799423
-0.002924167
-0.002958998
-0.002870529
-0.002752808
-0.00260374
-0.002422389
-0.002344079
-0.002377902
-0.002393392
-0.002349996
-0.001881572
-0.001951449
-0.002023483
-0.002097871
-0.002174841
-0.00225601
-0.002343783
-0.002437534
-0.002538085
-0.002646464
-0.00267198
-0.002589359
-0.002485336
-0.002359301
-0.002211222
-0.002151453
-0.002183804
-0.00220732
-0.002211919
-0.002158599
-0.001770392
-0.001834966
-0.001901361
-0.00196973
-0.002040243
-0.00211438
-0.002194365
-0.002279509
-0.002370462
-0.002468021
-0.002487498
-0.002407753
-0.002309915
-0.002193505
-0.002058411
-0.002002074
-0.002026326
-0.002042837
-0.002051585
-0.00204129
-0.00197579
-0.004214513
-0.004559675
-0.004896568
-0.004011467
-0.004318592
-0.004671748
-0.005020371
-0.003951258
-0.004227423
-0.004550521
-0.004926048
-0.005305599
-0.004046115
-0.00430548
-0.004605192
-0.004958581
-0.005375589
-0.005814257
-0.004313292
-0.00456947
-0.004860832
-0.005199354
-0.00560228
-0.006089275
-0.006624449
-0.004716547
-0.004979207
-0.005273613
-0.005609959
-0.006003092
-0.006478046
-0.007065175
-0.007727451
-0.005070222
-0.005337183
-0.005632751
-0.005964897
-0.006345497
-0.006794346
-0.007343304
-0.008026328
-0.008812935
-0.005285173
-0.005550168
-0.005840491
-0.006162378
-0.006524639
-0.006942443
-0.007439397
-0.008046683
-0.008807692
-0.009694957
-0.005342604
-0.005599195
-0.005877907
-0.006183495
-0.006522569
-0.006906298
-0.007352213
-0.007880815
-0.008528145
-0.009342707
-0.01017408
-0.005250424
-0.005493156
-0.005754904
-0.006039324
-0.00635128
-0.00669924
-0.007095986
-0.007555078
-0.00809954
-0.00876693
-0.009501495
-0.01027714
-0.005023924
-0.005248372
-0.005488923
-0.005748333
-0.006030217
-0.006341002
-0.006690381
-0.007086908
-0.007545736
-0.008089867
-0.008660666
-0.009320835
-0.01011928
-0.004679738
-0.00488241
-0.005098447
-0.005329915
-0.005579451
-0.005852048
-0.006155137
-0.006494177
-0.006878926
-0.007324021
-0.007762465
-0.00824553
-0.008902068
-0.009693761
-0.004235572
-0.004413823
-0.004602871
-0.004804238
-0.005019823
-0.005253529
-0.005511215
-0.005796169
-0.006114875
-0.006476459
-0.006809336
-0.00714831
-0.007608231
-0.008232716
-0.008987931
-0.003714147
-0.003866288
-0.004026821
-0.004196829
-0.004377645
-0.004572379
-0.004785705
-0.005019445
-0.00527784
-0.005566741
-0.005808345
-0.00602204
-0.006311944
-0.006713992
-0.00727388
-0.003153902
-0.003279744
-0.00341174
-0.003550628
-0.003697297
-0.003854309
-0.004025459
-0.004211464
-0.004415092
-0.004640011
-0.004795855
-0.004876806
-0.004986791
-0.005152248
-0.005427651
-0.002628016
-0.002730154
-0.002836517
-0.002947567
-0.00306386
-0.003187613
-0.003321978
-0.003466845
-0.003623976
-0.003795667
-0.003871649
-0.003803755
-0.003679021
-0.003457974
-0.003061113
-0.002663711
-0.002635743
-0.002576717
-0.002240627
-0.002325698
-0.002413812
-0.002505273
-0.00260044
-0.002701227
-0.002810363
-0.002927377
-0.003053462
-0.003190142
-0.003231868
-0.003135751
-0.002996099
-0.002803026
-0.002547183
-0.002402753
-0.002413098
-0.002414104
-0.002362011
-0.001981788
-0.002055486
-0.002131521
-0.002210106
-0.002291489
-0.002377343
-0.002470115
-0.002569182
-0.002675412
-0.002789888
-0.002817362
-0.002726292
-0.002606385
-0.002455677
-0.002273589
-0.002187998
-0.002208621
-0.002223118
-0.002221563
-0.002164003
-0.001813681
-0.001879877
-0.001947965
-0.002018104
-0.002090471
-0.00216657
-0.002248642
-0.002335996
-0.002429296
-0.002529362
-0.002549364
-0.002465401
-0.002360368
-0.002233617
-0.002085147
-0.002019047
-0.002038496
-0.002050887
-0.002056587
-0.002044117
-0.001976917
-0.001707503
-0.001768778
-0.00183165
-0.001896245
-0.001962696
-0.002032388
-0.002107407
-0.002187021
-0.002271767
-0.002362293
-0.002377436
-0.002297187
-0.002199209
-0.002083004
-0.001948427
-0.00188761
-0.001901505
-0.001906949
-0.001906711
-0.001899512
-0.001873655
-0.00179606
-0.003912671
-0.004210656
-0.004551429
-0.004883257
-0.003747483
-0.00400784
-0.004310909
-0.004659387
-0.00500254
-0.003711215
-0.003947778
-0.004220098
-0.004538841
-0.004909261
-0.005285818
-0.003817208
-0.004042742
-0.004298409
-0.004593991
-0.004942635
-0.005356905
-0.005796321
-0.004083844
-0.004310097
-0.004562795
-0.004850308
-0.005184482
-0.005585043
-0.00607291
-0.006605692
-0.004478724
-0.004713781
-0.004973454
-0.00526459
-0.005597291
-0.005988546
-0.006464783
-0.007050594
-0.007711003
-0.004826207
-0.005067751
-0.00533206
-0.005624744
-0.005953709
-0.006332734
-0.006783034
-0.007331291
-0.008013341
-0.008798419
-0.005041014
-0.005282885
-0.005545434
-0.005833113
-0.006152105
-0.006512973
-0.006932258
-0.007428787
-0.008035514
-0.008795709
-0.009554621
-0.005104558
-0.005340446
-0.005594738
-0.005870975
-0.006173869
-0.006511675
-0.006896864
-0.007342485
-0.007870721
-0.00851756
-0.00922386
-0.009962103
-0.005023924
-0.005248372
-0.005488923
-0.005748333
-0.006030217
-0.006341002
-0.006690381
-0.007086908
-0.007545736
-0.008089867
-0.008660666
-0.009320835
-0.01011928
-0.004813416
-0.005021963
-0.005244332
-0.005482659
-0.005739667
-0.006020458
-0.006332617
-0.006681822
-0.007078147
-0.007536733
-0.007992134
-0.008498012
-0.009184766
-0.01001374
-0.004488776
-0.004677856
-0.004878535
-0.005092446
-0.005321625
-0.005570132
-0.005844053
-0.006146994
-0.006485866
-0.006870422
-0.007232301
-0.007610684
-0.008120473
-0.008808719
-0.009639517
-0.004066877
-0.004233751
-0.004410076
-0.004597074
-0.004796238
-0.005010844
-0.005245818
-0.005503355
-0.005788146
-0.006106669
-0.006388093
-0.006661129
-0.007025018
-0.007516316
-0.008180735
-0.003569491
-0.003712353
-0.003862599
-0.004021116
-0.004188964
-0.004368826
-0.004564756
-0.004777882
-0.005011405
-0.005269563
-0.005477064
-0.005650103
-0.005883098
-0.00620279
-0.006649773
-0.003033598
-0.00315207
-0.003275977
-0.003405915
-0.003542601
-0.003688304
-0.003846398
-0.004017197
-0.004202821
-0.004406034
-0.004540122
-0.004598985
-0.004679393
-0.004803749
-0.005019021
-0.002529711
-0.002626086
-0.002726182
-0.002830373
-0.002939099
-0.003054373
-0.003179054
-0.003312813
-0.003457023
-0.003613434
-0.003676664
-0.003601103
-0.0034696
-0.00324523
-0.002856046
-0.002472249
-0.002444327
-0.002429778
-0.002370349
-0.002158336
-0.002238772
-0.002321885
-0.002407917
-0.002497155
-0.002591356
-0.002693035
-0.002801599
-0.002917995
-0.003043409
-0.003076913
-0.002977946
-0.002836521
-0.002643441
-0.002390542
-0.002242573
-0.002240977
-0.002241834
-0.002232301
-0.002169792
-0.001910241
-0.001980053
-0.002051919
-0.002126012
-0.002202526
-0.002283016
-0.002369756
-0.002462054
-0.002560613
-0.002666294
-0.00268792
-0.002595636
-0.002475209
-0.002324764
-0.002143895
-0.002053293
-0.002061574
-0.002065404
-0.00206529
-0.002048916
-0.001978777
-0.001749235
-0.001812048
-0.001876521
-0.001942787
-0.002010984
-0.002082519
-0.002159493
-0.002241168
-0.002328097
-0.002420942
-0.002436499
-0.002352127
-0.002247192
-0.002121057
-0.001973712
-0.001903602
-0.001912909
-0.001914434
-0.001911304
-0.001902052
-0.001874616
-0.001795525
-0.001647726
-0.001705946
-0.001765583