/*--------------------------------*- C++ -*----------------------------------*\
| =========                 |                                                 |
| \\      /  F ield         | OpenFOAM: The Open Source CFD Toolbox           |
|  \\    /   O peration     | Version:  2306                                  |
|   \\  /    A nd           | Website:  www.openfoam.com                      |
|    \\/     M anipulation  |                                                 |
\*---------------------------------------------------------------------------*/
FoamFile
{
    version     2.0;
    format      ascii;
    arch        "LSB;label=32;scalar=64";
    class       volScalarField;
    location    "0.9/air";
    object      diffSp.O2;
}
// * * * * * * * * * * * * * * * * * * * * * * * * * * * * * * * * * * * * * //

dimensions      [0 2 -1 0 0 0 0];

internalField   nonuniform List<scalar> 
16000
(
0.0002012787
0.0001978413
0.0002053342
0.0001977854
0.0001959913
0.0002043712
0.0001896135
0.0002063429
0.0002043578
0.0001958866
0.0001949613
0.0002035444
0.0001846824
0.0002059061
0.0002015298
0.0001846059
0.0002071799
0.0002059185
0.000203514
0.0001947972
0.0001944871
0.0002029395
0.0001817901
0.0002055149
0.0001990766
0.0001773281
0.0002069549
0.0002046333
0.000199037
0.0001815869
0.0002079212
0.0002069782
0.0002055345
0.000202883
0.0001942443
0.0001944871
0.0002026206
0.0001804369
0.0002052163
0.0001972728
0.0001728811
0.0002067569
0.0002034647
0.0001950986
0.0001727104
0.0002077909
0.0002063322
0.0002034665
0.0001971589
0.0001800307
0.0002085987
0.0002078171
0.0002067981
0.0002052396
0.0002025281
0.0001941363
0.0001197976
0.0001949613
0.0002026206
0.0001804369
0.0002050542
0.0001963194
0.000170754
0.0002066065
0.0002025647
0.0001921775
0.0001671354
0.0002076802
0.0002057491
0.0002015586
0.0001920728
0.0001702781
0.0002085141
0.0002074557
0.0002057692
0.0002025563
0.0001960936
0.0001797375
0.0002092211
0.0002085399
0.0002077275
0.0002066651
0.0002050803
0.0002024873
0.0001944667
0.0001197854
0.0001202263
0.0001200849
0.0001959913
0.0002029395
0.0001817901
0.0002050542
0.0001963194
0.000170754
0.0002065248
0.000202074
0.0001906256
0.0001644273
0.0002075979
0.0002053001
0.0002000747
0.0001882713
0.0001640603
0.0002084449
0.0002071374
0.0002048239
0.0002000542
0.0001903422
0.000169814
0.0002091587
0.000208314
0.000207164
0.0002053414
0.000202049
0.0001959577
0.000180695
0.0002097985
0.0002091829
0.0002084918
0.0002076672
0.0002066038
0.0002050885
0.0002027737
0.0001953073
0.000119759
0.0001202236
0.0001200675
0.0001206538
0.0001204922
0.0001203742
0.0001978413
0.0002035444
0.0001846824
0.0002052163
0.0001972728
0.0001728811
0.0002065248
0.000202074
0.0001906256
0.0001644273
0.0002075538
0.0002050545
0.0001992612
0.0001862424
0.0001610137
0.0002083948
0.0002068969
0.0002040864
0.000198092
0.000186023
0.000163465
0.0002091095
0.0002081208
0.0002066575
0.0002041085
0.0001992028
0.0001901094
0.0001713099
0.000209748
0.0002090219
0.0002081482
0.0002069563
0.000205125
0.0002020422
0.0001967868
0.0001830662
0.0002103361
0.0002097702
0.0002091536
0.0002084642
0.0002076492
0.0002066319
0.0002052749
0.0002033778
0.0001968819
0.0001197078
0.000120219
0.0001200269
0.0001206535
0.0001204896
0.0001203526
0.0001210596
0.0001208902
0.0001207584
0.000120667
0.0002012787
0.0002043712
0.0001896135
0.0002055149
0.0001990766
0.0001773281
0.0002066065
0.0002025647
0.0001921775
0.0001671354
0.0002075538
0.0002050545
0.0001992612
0.0001862424
0.0001610137
0.0002083684
0.0002067667
0.0002036799
0.0001970111
0.0001837113
0.0001603473
0.0002090749
0.0002079783
0.000206269
0.0002031363
0.0001969586
0.0001857102
0.0001653499
0.0002097091
0.0002088883
0.000207848
0.0002063077
0.0002037345
0.0001991713
0.0001914299
0.0001749526
0.0002102923
0.0002096425
0.0002089145
0.0002080413
0.0002068722
0.0002051743
0.0002025644
0.0001985371
0.0001872982
0.0002108387
0.0002103125
0.0002097496
0.0002091403
0.0002084647
0.0002076834
0.0002067572
0.0002056326
0.0002042802
0.0001998265
0.0001195717
0.0001202138
0.0001199402
0.0001206538
0.0001204853
0.0001203011
0.0001210601
0.0001208914
0.0001207558
0.0001206425
0.0001214367
0.0001212679
0.0001211263
0.0001210257
0.0001209615
0.0002053342
0.0001977854
0.0002059061
0.0002015298
0.0001846059
0.0002067569
0.0002034647
0.0001950986
0.0001727104
0.0002075979
0.0002053001
0.0002000747
0.0001882713
0.0001640603
0.0002083684
0.0002067667
0.0002036799
0.0001970111
0.0001837113
0.0001603473
0.0002090569
0.0002079023
0.000206057
0.0002025971
0.0001957184
0.0001833535
0.0001624347
0.0002096822
0.0002087922
0.000207623
0.000205804
0.0002026297
0.0001969011
0.0001874045
0.0001698895
0.000210259
0.0002095388
0.0002087117
0.0002076659
0.000206155
0.0002037943
0.000200002
0.0001942092
0.0001812124
0.0002107993
0.0002102032
0.0002095631
0.0002088531
0.0002080154
0.0002069407
0.0002055085
0.0002035763
0.0002010903
0.0001944355
0.0002113098
0.0002108178
0.000210296
0.0002097425
0.000209148
0.0002084993
0.0002077756
0.0002069809
0.0002061568
0.000205513
0.0001186254
0.0001202246
0.0001197205
0.0001206584
0.0001204819
0.0001201926
0.0001210621
0.0001208957
0.0001207512
0.0001205844
0.0001214374
0.0001212702
0.0001211286
0.000121023
0.0001209355
0.0001217898
0.0001216202
0.0001214756
0.0001213627
0.0001212918
5.113193e-05
0.0002063429
0.0002043578
0.0001958866
0.0002069549
0.0002046333
0.000199037
0.0001815869
0.0002076802
0.0002057491
0.0002015586
0.0001920728
0.0001702781
0.0002083948
0.0002068969
0.0002040864
0.000198092
0.000186023
0.000163465
0.0002090569
0.0002079023
0.000206057
0.0002025971
0.0001957184
0.0001833535
0.0001624347
0.0002096685
0.0002087419
0.0002075019
0.0002055271
0.000202014
0.0001956448
0.0001852494
0.0001674357
0.0002102364
0.0002094658
0.0002085636
0.0002073809
0.0002055926
0.0002026919
0.0001979723
0.0001909629
0.0001775012
0.0002107696
0.0002101155
0.0002094085
0.0002086058
0.0002076113
0.0002062475
0.0002043143
0.0002016089
0.0001982013
0.0001911049
0.0002112735
0.0002107198
0.0002101378
0.0002095224
0.0002088515
0.0002080874
0.0002071753
0.0002061135
0.0002049928
0.0002042828
0.000117495
0.0002117524
0.0002112904
0.0002108034
0.0002102914
0.0002097525
0.0002091808
0.0002085728
0.0002079315
0.000207316
0.0002069207
0.0001204338
0.0001189869
0.0001206962
0.0001204969
0.000119949
0.0001210695
0.0001209108
0.0001207471
0.0001204666
0.0001214399
0.0001212773
0.0001211357
0.0001210178
0.0001208746
0.0001217905
0.0001216229
0.0001214795
0.0001213658
0.0001212889
5.112072e-05
0.0001221191
0.0001219521
0.0001218032
0.0001216833
0.0001215971
5.126689e-05
5.113968e-05
0.0002071799
0.0002059185
0.000203514
0.0001947972
0.0002077909
0.0002063322
0.0002034665
0.0001971589
0.0001800307
0.0002084449
0.0002071374
0.0002048239
0.0002000542
0.0001903422
0.000169814
0.0002090749
0.0002079783
0.000206269
0.0002031363
0.0001969586
0.0001857102
0.0001653499
0.0002096685
0.0002087419
0.0002075019
0.0002055271
0.000202014
0.0001956448
0.0001852494
0.0001674357
0.0002102248
0.000209428
0.0002084854
0.0002072263
0.0002052815
0.0002020757
0.0001968483
0.0001892272
0.0001757229
0.0002107494
0.0002100546
0.0002092981
0.0002084231
0.0002073012
0.0002056989
0.0002033539
0.0002000416
0.0001960238
0.0001890759
0.0002112463
0.0002106419
0.0002100086
0.0002093376
0.0002085931
0.0002077113
0.0002066023
0.0002052524
0.0002038007
0.0002030182
0.0001166043
0.0002117187
0.0002112004
0.0002106623
0.0002101067
0.0002095303
0.0002089209
0.000208268
0.0002075773
0.000206962
0.0002067404
0.0001202789
0.0001180962
0.0002121688
0.0002117342
0.0002112772
0.0002107998
0.0002103018
0.0002097828
0.0002092428
0.0002086922
0.0002081719
0.0002078567
0.0001210942
0.0001205959
0.00011937
0.0001211137
0.0001209723
0.0001207549
0.0001202299
0.000121448
0.0001212976
0.0001211558
0.0001210112
0.0001207568
0.0001217931
0.0001216306
0.0001214902
0.0001213743
0.000121283
5.109471e-05
0.0001221198
0.0001219548
0.0001218075
0.0001216882
0.0001216005
5.126565e-05
5.112848e-05
0.0001224276
0.0001222635
0.0001221139
0.000121986
0.0001218888
5.139076e-05
5.127382e-05
5.114735e-05
0.0002079212
0.0002069782
0.0002055345
0.000202883
0.0001942443
0.0002085141
0.0002074557
0.0002057692
0.0002025563
0.0001960936
0.0001797375
0.0002091095
0.0002081208
0.0002066575
0.0002041085
0.0001992028
0.0001901094
0.0001713099
0.0002096822
0.0002087922
0.000207623
0.000205804
0.0002026297
0.0001969011
0.0001874045
0.0001698895
0.0002102248
0.000209428
0.0002084854
0.0002072263
0.0002052815
0.0002020757
0.0001968483
0.0001892272
0.0001757229
0.0002107393
0.0002100234
0.0002092406
0.0002083258
0.0002071318
0.0002053939
0.0002028152
0.0001991717
0.0001948574
0.0001881015
0.0002112279
0.0002105881
0.0002099177
0.0002092043
0.0002084
0.0002074188
0.0002061417
0.0002045456
0.0002028238
0.0002020209
0.0001160086
0.0002116933
0.0002111291
0.000210548
0.0002099542
0.0002093418
0.0002086903
0.0002079785
0.0002072059
0.0002065187
0.000206347
0.0001200321
0.0001173541
0.0002121373
0.0002116505
0.0002111478
0.0002106358
0.0002101176
0.000209595
0.0002090701
0.0002085649
0.0002081495
0.000208054
0.0001211827
0.0001204855
0.0001186695
0.0002125613
0.0002121517
0.0002117218
0.000211274
0.0002108096
0.0002103296
0.0002098371
0.0002093414
0.0002088807
0.0002085936
0.0001215466
0.0001212235
0.0001207916
0.0001197724
0.0001214918
0.0001213706
0.0001212171
0.0001210089
0.0001205424
0.0001218009
0.0001216519
0.0001215172
0.0001213948
0.0001212732
5.104541e-05
0.0001221222
0.0001219624
0.000121819
0.000121701
0.0001216093
5.126292e-05
5.11025e-05
0.0001224282
0.000122266
0.0001221182
0.0001219914
0.0001218943
5.139228e-05
5.127258e-05
5.113616e-05
0.0001227167
0.0001225568
0.0001224073
0.0001222755
0.0001221666
5.150965e-05
5.139686e-05
5.128067e-05
5.115512e-05
0.0002085987
0.0002078171
0.0002067981
0.0002052396
0.0002025281
0.0001941363
0.0002091587
0.000208314
0.000207164
0.0002053414
0.000202049
0.0001959577
0.000180695
0.0002097091
0.0002088883
0.000207848
0.0002063077
0.0002037345
0.0001991713
0.0001914299
0.0001749526
0.0002102364
0.0002094658
0.0002085636
0.0002073809
0.0002055926
0.0002026919
0.0001979723
0.0001909629
0.0001775012
0.0002107393
0.0002100234
0.0002092406
0.0002083258
0.0002071318
0.0002053939
0.0002028152
0.0001991717
0.0001948574
0.0001881015
0.0002112186
0.0002105607
0.0002098709
0.0002091344
0.0002082964
0.0002072578
0.0002058834
0.0002041456
0.0002022755
0.0002014769
0.0001157117
0.0002116763
0.00021108
0.0002104682
0.0002098459
0.0002092044
0.0002085154
0.0002077467
0.0002068916
0.0002061215
0.0002059695
0.0001198137
0.0001168447
0.0002121136
0.0002115841
0.0002110434
0.0002105017
0.0002099643
0.0002094329
0.0002089079
0.0002084123
0.0002080251
0.0002080159
0.0001211588
0.0001202966
0.0001180626
0.0002125317
0.0002120732
0.0002116014
0.0002111238
0.000210647
0.0002101771
0.0002097242
0.0002093093
0.0002089933
0.0002089228
0.0001217143
0.0001213098
0.0001207057
0.0001192264
0.0002129315
0.0002125451
0.0002121399
0.0002117187
0.0002112831
0.0002108351
0.0002103782
0.0002099225
0.0002094993
0.0002092306
0.0001219104
0.0001216555
0.0001213781
0.0001210097
0.0001201855
0.0001218421
0.0001217248
0.0001215927
0.0001214461
0.0001212606
5.095978e-05
0.0001221295
0.0001219829
0.0001218473
0.0001217297
0.0001216274
5.125801e-05
5.105339e-05
0.0001224304
0.0001222733
0.0001221296
0.0001220052
0.0001219077
5.139593e-05
5.126985e-05
5.111023e-05
0.0001227173
0.0001225592
0.0001224114
0.0001222809
0.0001221726
5.151207e-05
5.139839e-05
5.127943e-05
5.114394e-05
0.0001229885
0.0001228331
0.0001226855
0.000122551
0.0001224349
5.162351e-05
5.151502e-05
5.140288e-05
5.128759e-05
5.116271e-05
0.0002092211
0.0002085399
0.0002077275
0.0002066651
0.0002050803
0.0002024873
0.0001944667
0.000209748
0.0002090219
0.0002081482
0.0002069563
0.000205125
0.0002020422
0.0001967868
0.0001830662
0.000210259
0.0002095388
0.0002087117
0.0002076659
0.000206155
0.0002037943
0.000200002
0.0001942092
0.0001812124
0.0002107494
0.0002100546
0.0002092981
0.0002084231
0.0002073012
0.0002056989
0.0002033539
0.0002000416
0.0001960238
0.0001890759
0.0002112186
0.0002105607
0.0002098709
0.0002091344
0.0002082964
0.0002072578
0.0002058834
0.0002041456
0.0002022755
0.0002014769
0.0001157117
0.0002116676
0.0002110551
0.0002104274
0.0002097898
0.0002091319
0.0002084205
0.000207617
0.0002067112
0.000205889
0.0002057464
0.0001196893
0.0001165878
0.0002120976
0.0002115386
0.0002109708
0.0002104074
0.0002098546
0.0002093129
0.0002087793
0.0002082747
0.0002078835
0.0002079153
0.0001211057
0.0001201247
0.0001176363
0.0002125094
0.000212011
0.0002115043
0.0002110016
0.0002105132
0.0002100483
0.0002096198
0.0002092508
0.0002090047
0.0002090247
0.0001217746
0.0001213051
0.0001205609
0.0001187408
0.0002129036
0.0002124712
0.000212027
0.000211579
0.0002111344
0.0002107017
0.0002102923
0.0002099286
0.0002096581
0.0002095947
0.0001220985
0.0001218051
0.0001214507
0.0001209383
0.0001197695
0.0002132809
0.0002129161
0.0002125339
0.0002121369
0.0002117271
0.0002113066
0.0002108793
0.0002104544
0.0002100604
0.000209802
0.000122231
0.0001220048
0.000121785
0.0001215485
0.0001212387
5.082606e-05
0.0001221674
0.0001220519
0.0001219238
0.0001217961
0.0001216649
5.125047e-05
5.096849e-05
0.0001224372
0.0001222924
0.000122157
0.0001220357
0.0001219346
5.140289e-05
5.126487e-05
5.106132e-05
0.0001227193
0.0001225659
0.0001224222
0.0001222946
0.0001221873
5.151777e-05
5.140203e-05
5.127669e-05
5.111808e-05
0.000122989
0.0001228353
0.0001226893
0.0001225562
0.000122441
5.162618e-05
5.151744e-05
5.140441e-05
5.128636e-05
5.115155e-05
0.0001232442
0.0001230939
0.0001229489
0.000122814
0.0001226925
5.173422e-05
5.162825e-05
5.15203e-05
5.140896e-05
5.129434e-05
3.340975e-05
0.0002097985
0.0002091829
0.0002084918
0.0002076672
0.0002066038
0.0002050885
0.0002027737
0.0001953073
0.0002102923
0.0002096425
0.0002089145
0.0002080413
0.0002068722
0.0002051743
0.0002025644
0.0001985371
0.0001872982
0.0002107696
0.0002101155
0.0002094085
0.0002086058
0.0002076113
0.0002062475
0.0002043143
0.0002016089
0.0001982013
0.0001911049
0.0002112279
0.0002105881
0.0002099177
0.0002092043
0.0002084
0.0002074188
0.0002061417
0.0002045456
0.0002028238
0.0002020209
0.0001160086
0.0002116676
0.0002110551
0.0002104274
0.0002097898
0.0002091319
0.0002084205
0.000207617
0.0002067112
0.000205889
0.0002057464
0.0001196893
0.0001165878
0.0002120895
0.0002115155
0.0002109338
0.0002103589
0.0002097974
0.0002092488
0.0002087078
0.0002081935
0.0002077938
0.0002078434
0.0001210686
0.0001200256
0.0001174188
0.0002124944
0.0002119684
0.0002114371
0.0002109161
0.0002104184
0.0002099548
0.0002095381
0.0002091904
0.0002089747
0.0002090397
0.0001217895
0.0001212713
0.0001204271
0.0001183928
0.0002128826
0.0002124128
0.0002119361
0.0002114655
0.0002110127
0.0002105904
0.0002102142
0.0002099095
0.000209722
0.000209748
0.0001221883
0.0001218687
0.000121456
0.000120827
0.0001193928
0.0002132546
0.0002128465
0.0002124276
0.0002120058
0.0002115887
0.0002111848
0.0002108063
0.0002104735
0.0002102285
0.00021016
0.0001224173
0.00012217
0.0001219086
0.0001216034
0.0001211769
5.067285e-05
0.0002136108
0.0002132664
0.0002129055
0.000212531
0.0002121446
0.0002117488
0.0002113472
0.0002109485
0.0002105779
0.000210329
0.0001225231
0.0001223143
0.0001221165
0.0001219268
0.000121725
5.123717e-05
5.083688e-05
0.0001224718
0.0001223563
0.00012223
0.0001221044
0.0001219874
5.141571e-05
5.125712e-05
5.097717e-05
0.0001227254
0.0001225837
0.000122448
0.0001223244
0.0001222164
5.152855e-05
5.140889e-05
5.127165e-05
5.106939e-05
0.0001229909
0.0001228416
0.0001226995
0.0001225692
0.0001224556
5.163245e-05
5.152313e-05
5.140804e-05
5.128361e-05
5.112576e-05
0.0001232447
0.000123096
0.0001229526
0.0001228189
0.0001226984
5.173689e-05
5.163092e-05
5.152273e-05
5.14105e-05
5.129311e-05
3.340251e-05
0.0001234854
0.0001233404
0.0001231989
0.0001230647
0.0001229405
5.184107e-05
5.173842e-05
5.163291e-05
5.152564e-05
5.141488e-05
3.349488e-05
3.341617e-05
0.0002103361
0.0002097702
0.0002091536
0.0002084642
0.0002076492
0.0002066319
0.0002052749
0.0002033778
0.0001968819
0.0002107993
0.0002102032
0.0002095631
0.0002088531
0.0002080154
0.0002069407
0.0002055085
0.0002035763
0.0002010903
0.0001944355
0.0002112463
0.0002106419
0.0002100086
0.0002093376
0.0002085931
0.0002077113
0.0002066023
0.0002052524
0.0002038007
0.0002030182
0.0001166043
0.0002116763
0.00021108
0.0002104682
0.0002098459
0.0002092044
0.0002085154
0.0002077467
0.0002068916
0.0002061215
0.0002059695
0.0001198137
0.0001168447
0.0002120895
0.0002115155
0.0002109338
0.0002103589
0.0002097974
0.0002092488
0.0002087078
0.0002081935
0.0002077938
0.0002078434
0.0001210686
0.0001200256
0.0001174188
0.0002124868
0.0002119468
0.0002114028
0.0002108722
0.0002103695
0.0002099055
0.0002094931
0.0002091529
0.000208948
0.0002090331
0.0001217899
0.0001212455
0.0001203492
0.0001182133
0.0002128685
0.0002123727
0.0002118732
0.0002113863
0.000210927
0.0002105106
0.000210154
0.0002098824
0.0002097376
0.0002098094
0.0001222293
0.0001218904
0.0001214359
0.0001207244
0.000119118
0.0002132348
0.0002127914
0.0002123421
0.0002118994
0.0002114756
0.0002110838
0.0002107407
0.0002104696
0.0002103096
0.0002103254
0.0001225145
0.0001222567
0.000121969
0.0001216125
0.000121092
5.053326e-05
0.000213586
0.0002132007
0.0002128053
0.0002124075
0.0002120146
0.0002116352
0.0002112808
0.0002109705
0.0002107404
0.0002106661
0.0001226988
0.000122477
0.0001222529
0.0001220231
0.0001217619
5.121219e-05
5.068638e-05
0.0002139224
0.0002135971
0.0002132564
0.0002129027
0.000212538
0.0002121647
0.0002117863
0.0002114107
0.0002110609
0.0002108204
0.0001227958
0.0001225974
0.0001224124
0.0001222385
0.0001220726
5.143375e-05
5.124343e-05
5.084761e-05
0.0001227571
0.0001226424
0.000122516
0.0001223907
0.0001222727
5.154788e-05
5.142137e-05
5.126368e-05
5.098601e-05
0.0001229965
0.000122858
0.0001227235
0.0001225974
0.0001224845
5.164428e-05
5.153382e-05
5.141481e-05
5.12785e-05
5.107731e-05
0.0001232464
0.0001231019
0.0001229621
0.0001228312
0.0001227124
5.174318e-05
5.163719e-05
5.152841e-05
5.141411e-05
5.129035e-05
3.338578e-05
0.0001234858
0.0001233424
0.0001232023
0.0001230693
0.000122946
5.184365e-05
5.17411e-05
5.163559e-05
5.152808e-05
5.141642e-05
3.349408e-05
3.340897e-05
0.0001237129
0.0001235736
0.0001234361
0.0001233038
0.0001231784
5.194441e-05
5.184482e-05
5.174255e-05
5.163762e-05
5.153083e-05
3.35728e-05
3.350064e-05
3.342033e-05
0.0002108387
0.0002103125
0.0002097496
0.0002091403
0.0002084647
0.0002076834
0.0002067572
0.0002056326
0.0002042802
0.0001998265
0.0002112735
0.0002107198
0.0002101378
0.0002095224
0.0002088515
0.0002080874
0.0002071753
0.0002061135
0.0002049928
0.0002042828
0.000117495
0.0002116933
0.0002111291
0.000210548
0.0002099542
0.0002093418
0.0002086903
0.0002079785
0.0002072059
0.0002065187
0.000206347
0.0001200321
0.0001173541
0.0002120976
0.0002115386
0.0002109708
0.0002104074
0.0002098546
0.0002093129
0.0002087793
0.0002082747
0.0002078835
0.0002079153
0.0001211057
0.0001201247
0.0001176363
0.0002124868
0.0002119468
0.0002114028
0.0002108722
0.0002103695
0.0002099055
0.0002094931
0.0002091529
0.000208948
0.0002090331
0.0001217899
0.0001212455
0.0001203492
0.0001182133
0.0002128613
0.0002123524
0.0002118411
0.0002113457
0.0002108829
0.000210469
0.0002101211
0.000209864
0.0002097373
0.0002098298
0.0001222448
0.0001218953
0.0001214187
0.0001206645
0.0001189746
0.0002132215
0.0002127537
0.0002122829
0.0002118253
0.0002113964
0.000211012
0.0002106908
0.000210456
0.0002103422
0.0002104021
0.0001225642
0.0001222992
0.0001219936
0.0001216015
0.0001210155
5.043057e-05
0.0002135673
0.0002131488
0.0002127247
0.0002123074
0.0002119086
0.0002115414
0.0002112217
0.0002109716
0.0002108234
0.0002108281
0.0001227941
0.0001225688
0.0001223315
0.000122076
0.0001217709
5.118063e-05
5.054915e-05
0.0002138989
0.0002135352
0.0002131618
0.0002127863
0.0002124156
0.0002120578
0.0002117241
0.0002114316
0.0002112129
0.0002111326
0.0001229586
0.0001227507
0.0001225469
0.0001223457
0.0001221428
5.144567e-05
5.121862e-05
5.069976e-05
0.0002142164
0.0002139095
0.0002135877
0.0002132536
0.0002129093
0.0002125568
0.0002121997
0.0002118452
0.0002115142
0.0002112823
0.0001230525
0.0001228627
0.0001226847
0.0001225193
0.0001223632
5.157602e-05
5.143861e-05
5.124963e-05
5.085846e-05
0.0001230255
0.0001229119
0.0001227863
0.0001226598
0.0001225397
5.166532e-05
5.155279e-05
5.142694e-05
5.127033e-05
5.09947e-05
0.0001232515
0.0001231171
0.0001229844
0.0001228577
0.0001227401
5.1755e-05
5.164894e-05
5.153901e-05
5.142078e-05
5.128518e-05
3.335441e-05
0.0001234874
0.0001233478
0.0001232112
0.0001230809
0.0001229594
5.184972e-05
5.174739e-05
5.164185e-05
5.153375e-05
5.142001e-05
3.349229e-05
3.339233e-05
0.0001237133
0.0001235754
0.0001234393
0.0001233081
0.0001231837
5.194687e-05
5.184742e-05
5.174524e-05
5.164031e-05
5.153327e-05
3.35738e-05
3.349986e-05
3.341315e-05
0.0001239279
0.0001237943
0.0001236614
0.0001235317
0.0001234068
5.204398e-05
5.194779e-05
5.184851e-05
5.174674e-05
5.164219e-05
3.364781e-05
3.357795e-05
3.350433e-05
3.342357e-05
0.0002113098
0.0002108178
0.000210296
0.0002097425
0.000209148
0.0002084993
0.0002077756
0.0002069809
0.0002061568
0.000205513
0.0001186254
0.0002117187
0.0002112004
0.0002106623
0.0002101067
0.0002095303
0.0002089209
0.000208268
0.0002075773
0.000206962
0.0002067404
0.0001202789
0.0001180962
0.0002121136
0.0002115841
0.0002110434
0.0002105017
0.0002099643
0.0002094329
0.0002089079
0.0002084123
0.0002080251
0.0002080159
0.0001211588
0.0001202966
0.0001180626
0.0002124944
0.0002119684
0.0002114371
0.0002109161
0.0002104184
0.0002099548
0.0002095381
0.0002091904
0.0002089747
0.0002090397
0.0001217895
0.0001212713
0.0001204271
0.0001183928
0.0002128613
0.0002123524
0.0002118411
0.0002113457
0.0002108829
0.000210469
0.0002101211
0.000209864
0.0002097373
0.0002098298
0.0001222448
0.0001218953
0.0001214187
0.0001206645
0.0001189746
0.0002132148
0.0002127345
0.0002122527
0.0002117874
0.0002113556
0.0002109746
0.0002106638
0.0002104457
0.0002103524
0.0002104322
0.0001225852
0.0001223163
0.0001220013
0.0001215908
0.000120971
5.03767e-05
0.0002135547
0.0002131131
0.0002126689
0.0002122376
0.0002118344
0.0002114749
0.0002111771
0.0002109632
0.0002108607
0.0002109072
0.000122845
0.0001226179
0.0001223728
0.0001221006
0.000121766
5.115282e-05
5.044809e-05
0.0002138813
0.0002134862
0.0002130858
0.0002126918
0.0002123157
0.0002119697
0.0002116691
0.0002114336
0.0002112923
0.0002112853
0.0001230487
0.0001228401
0.0001226293
0.0001224132
0.000122186
5.144903e-05
5.118758e-05
5.056486e-05
0.0002141943
0.0002138511
0.0002134985
0.0002131438
0.0002127937
0.0002124559
0.0002121406
0.0002118639
0.0002116546
0.0002115702
0.0001232027
0.0001230049
0.0001228118
0.0001226258
0.0001224431
5.160068e-05
5.145011e-05
5.122497e-05
5.07132e-05
0.0002144939
0.0002142044
0.0002139006
0.0002135851
0.0002132598
0.0002129269
0.0002125895
0.0002122546
0.0002119411
0.0002117179
0.0001232959
0.0001231134
0.0001229412
0.0001227798
0.0001226283
5.169614e-05
5.158006e-05
5.144339e-05
5.125592e-05
5.086912e-05
0.0001232782
0.0001231667
0.0001230423
0.0001229156
0.0001227926
5.177592e-05
5.166964e-05
5.155762e-05
5.143257e-05
5.127681e-05
3.330113e-05
0.0001234921
0.0001233619
0.000123232
0.0001231056
0.0001229855
5.18611e-05
5.175914e-05
5.165351e-05
5.154425e-05
5.142658e-05
3.348889e-05
3.336117e-05
0.0001237148
0.0001235806
0.0001234477
0.000123319
0.0001231963
5.195264e-05
5.185348e-05
5.175152e-05
5.164656e-05
5.153892e-05
3.357614e-05
3.349809e-05
3.339657e-05
0.0001239282
0.0001237961
0.0001236644
0.0001235359
0.0001234117
5.204631e-05
5.195026e-05
5.185111e-05
5.174943e-05
5.164487e-05
3.364939e-05
3.357897e-05
3.350355e-05
3.34164e-05
0.0001241311
0.0001240034
0.0001238754
0.0001237491
0.0001236256
5.213987e-05
5.204703e-05
5.19511e-05
5.185225e-05
5.175078e-05
3.371989e-05
3.365243e-05
3.358117e-05
3.350715e-05
3.342536e-05
0.0001195717
0.0002117524
0.0002112904
0.0002108034
0.0002102914
0.0002097525
0.0002091808
0.0002085728
0.0002079315
0.000207316
0.0002069207
0.0001204338
0.0001189869
0.0002121373
0.0002116505
0.0002111478
0.0002106358
0.0002101176
0.000209595
0.0002090701
0.0002085649
0.0002081495
0.000208054
0.0001211827
0.0001204855
0.0001186695
0.0002125094
0.000212011
0.0002115043
0.0002110016
0.0002105132
0.0002100483
0.0002096198
0.0002092508
0.0002090047
0.0002090247
0.0001217746
0.0001213051
0.0001205609
0.0001187408
0.0002128685
0.0002123727
0.0002118732
0.0002113863
0.000210927
0.0002105106
0.000210154
0.0002098824
0.0002097376
0.0002098094
0.0001222293
0.0001218904
0.0001214359
0.0001207244
0.000119118
0.0002132148
0.0002127345
0.0002122527
0.0002117874
0.0002113556
0.0002109746
0.0002106638
0.0002104457
0.0002103524
0.0002104322
0.0001225852
0.0001223163
0.0001220013
0.0001215908
0.000120971
5.03767e-05
0.0002135484
0.0002130951
0.0002126405
0.000212202
0.0002117962
0.0002114404
0.0002111531
0.0002109562
0.0002108742
0.0002109399
0.0001228673
0.0001226391
0.0001223901
0.0001221096
0.00012176
5.113676e-05
5.039505e-05
0.0002138694
0.0002134526
0.0002130331
0.0002126261
0.0002122458
0.0002119073
0.0002116277
0.000211427
0.0002113292
0.0002113615
0.0001230978
0.0001228896
0.0001226755
0.0001224509
0.0001222087
5.14479e-05
5.116031e-05
5.046542e-05
0.0002141777
0.0002138048
0.0002134268
0.0002130547
0.0002126995
0.0002123728
0.0002120887
0.0002118655
0.0002117285
0.0002117123
0.0001232867
0.0001230892
0.0001228918
0.0001226963
0.000122498
5.161686e-05
5.145341e-05
5.119443e-05
5.05806e-05
0.0002144731
0.0002141493
0.0002138165
0.0002134815
0.0002131508
0.0002128316
0.0002125334
0.0002122711
0.0002120708
0.0002119838
0.0001234345
0.0001232446
0.0001230595
0.000122881
0.0001227088
5.17248e-05
5.160413e-05
5.145448e-05
5.123142e-05
5.072641e-05
0.0002147555
0.0002144826
0.0002141961
0.0002138983
0.000213591
0.0002132764
0.0002129576
0.000212641
0.000212344
0.0002121299
0.0001235271
0.0001233516
0.0001231846
0.0001230266
0.0001228765
5.180658e-05
5.169962e-05
5.158403e-05
5.144826e-05
5.126204e-05
3.322058e-05
0.0001235168
0.0001234079
0.0001232856
0.0001231594
0.0001230349
5.188118e-05
5.177976e-05
5.167387e-05
5.156249e-05
5.143802e-05
3.348333e-05
3.33084e-05
0.0001237191
0.0001235937
0.0001234671
0.0001233422
0.0001232209
5.196346e-05
5.186481e-05
5.17632e-05
5.165813e-05
5.154931e-05
3.358036e-05
3.349469e-05
3.336558e-05
0.0001239296
0.0001238009
0.0001236723
0.0001235461
0.0001234236
5.205178e-05
5.195603e-05
5.185717e-05
5.17557e-05
5.165111e-05
3.365306e-05
3.35813e-05
3.350177e-05
3.339987e-05
0.0001241314
0.0001240051
0.0001238782
0.000123753
0.0001236303
5.214208e-05
5.204938e-05
5.195357e-05
5.185485e-05
5.175347e-05
3.372164e-05
3.365403e-05
3.358219e-05
3.350637e-05
3.34182e-05
0.0001243232
0.0001242015
0.0001240786
0.0001239563
0.0001238351
5.223202e-05
5.214265e-05
5.205003e-05
5.195446e-05
5.185585e-05
3.379023e-05
3.372408e-05
3.365525e-05
3.35836e-05
3.350865e-05
0.0001197078
0.0001202246
0.0001197205
0.0002121688
0.0002117342
0.0002112772
0.0002107998
0.0002103018
0.0002097828
0.0002092428
0.0002086922
0.0002081719
0.0002078567
0.0001210942
0.0001205959
0.00011937
0.0002125317
0.0002120732
0.0002116014
0.0002111238
0.000210647
0.0002101771
0.0002097242
0.0002093093
0.0002089933
0.0002089228
0.0001217143
0.0001213098
0.0001207057
0.0001192264
0.0002128826
0.0002124128
0.0002119361
0.0002114655
0.0002110127
0.0002105904
0.0002102142
0.0002099095
0.000209722
0.000209748
0.0001221883
0.0001218687
0.000121456
0.000120827
0.0001193928
0.0002132215
0.0002127537
0.0002122829
0.0002118253
0.0002113964
0.000211012
0.0002106908
0.000210456
0.0002103422
0.0002104021
0.0001225642
0.0001222992
0.0001219936
0.0001216015
0.0001210155
5.043057e-05
0.0002135484
0.0002130951
0.0002126405
0.000212202
0.0002117962
0.0002114404
0.0002111531
0.0002109562
0.0002108742
0.0002109399
0.0001228673
0.0001226391
0.0001223901
0.0001221096
0.00012176
5.113676e-05
5.039505e-05
0.0002138634
0.0002134355
0.0002130063
0.0002125925
0.0002122099
0.000211875
0.0002116056
0.0002114212
0.0002113433
0.0002113937
0.0001231196
0.0001229116
0.000122696
0.0001224674
0.0001222179
5.144616e-05
5.114457e-05
5.041319e-05
0.0002141665
0.0002137731
0.0002133771
0.0002129927
0.0002126335
0.0002123139
0.0002120497
0.0002118593
0.0002117634
0.0002117841
0.000123333
0.0001231367
0.000122938
0.0001227378
0.0001225309
5.162595e-05
5.145237e-05
5.116769e-05
5.048275e-05
0.0002144574
0.0002141057
0.0002137489
0.0002133975
0.0002130619
0.0002127531
0.0002124841
0.0002122719
0.0002121392
0.0002121157
0.0001235125
0.0001233232
0.000123135
0.0001229496
0.0001227664
5.17455e-05
5.162006e-05
5.145772e-05
5.120137e-05
5.059605e-05
0.0002147358
0.0002144308
0.0002141169
0.0002138006
0.0002134882
0.0002131865
0.0002129045
0.0002126557
0.0002124643
0.0002123764
0.0001236553
0.0001234729
0.000123294
0.0001231214
0.0001229539
5.183582e-05
5.172768e-05
5.160752e-05
5.145893e-05
5.123768e-05
3.312921e-05
0.0002150018
0.000214745
0.0002144749
0.0002141939
0.0002139039
0.0002136067
0.0002133054
0.000213006
0.0002127247
0.0002125199
0.000123747
0.0001235784
0.0001234166
0.0001232619
0.0001231134
5.191055e-05
5.180966e-05
5.170304e-05
5.158807e-05
5.145296e-05
3.347351e-05
3.3229e-05
0.0001237421
0.0001236365
0.000123517
0.0001233923
0.0001232671
5.198248e-05
5.188462e-05
5.178351e-05
5.167815e-05
5.156719e-05
3.358759e-05
3.348907e-05
3.331326e-05
0.0001239337
0.0001238133
0.0001236906
0.0001235679
0.0001234468
5.206202e-05
5.19668e-05
5.186843e-05
5.17673e-05
5.166259e-05
3.365977e-05
3.358549e-05
3.349834e-05
3.336902e-05
0.0001241327
0.0001240097
0.0001238857
0.0001237628
0.0001236416
5.214727e-05
5.205485e-05
5.195935e-05
5.186091e-05
5.175973e-05
3.372569e-05
3.36577e-05
3.358451e-05
3.350457e-05
3.34017e-05
0.0001243235
0.0001242031
0.0001240813
0.00012396
0.0001238396
5.223412e-05
5.214487e-05
5.205238e-05
5.195694e-05
5.185845e-05
3.379199e-05
3.372583e-05
3.365684e-05
3.35846e-05
3.350785e-05
0.0001245049
0.0001243892
0.0001242716
0.0001241537
0.0001240355