/*--------------------------------*- C++ -*----------------------------------*\
| =========                 |                                                 |
| \\      /  F ield         | OpenFOAM: The Open Source CFD Toolbox           |
|  \\    /   O peration     | Version:  2306                                  |
|   \\  /    A nd           | Website:  www.openfoam.com                      |
|    \\/     M anipulation  |                                                 |
\*---------------------------------------------------------------------------*/
FoamFile
{
    version     2.0;
    format      ascii;
    arch        "LSB;label=32;scalar=64";
    class       volScalarField;
    location    "0.9/air";
    object      N2;
}
// * * * * * * * * * * * * * * * * * * * * * * * * * * * * * * * * * * * * * //

dimensions      [0 0 0 0 0 0 0];

internalField   nonuniform List<scalar> 
16000
(
0.7699425
0.7699221
0.7710811
0.7699578
0.7698968
0.7710111
0.769928
0.7726204
0.7711757
0.7700161
0.7698766
0.7709214
0.7698935
0.7725068
0.7710785
0.7699717
0.7745431
0.7727647
0.7714266
0.7701549
0.7698658
0.7708463
0.7698674
0.7723502
0.7709623
0.7699216
0.7744275
0.7726173
0.7712869
0.7700913
0.7764981
0.7746957
0.7731231
0.771906
0.7704305
0.7698658
0.7708048
0.769854
0.7722107
0.7708694
0.7698859
0.7742687
0.772422
0.7711242
0.7700197
0.7763841
0.7745462
0.7729366
0.771717
0.7703423
0.7784054
0.7766488
0.775074
0.7737576
0.7726899
0.7709269
0.809586
0.7698766
0.7708048
0.769854
0.7721304
0.7708193
0.7698683
0.7741271
0.7722521
0.7709971
0.769969
0.7762277
0.7743494
0.7726906
0.7714881
0.7702394
0.778296
0.7765018
0.774885
0.7735328
0.7724506
0.7708084
0.7802387
0.7785511
0.7770216
0.7757411
0.7747255
0.7738569
0.7717661
0.8081982
0.8110777
0.8098057
0.7698968
0.7708463
0.7698674
0.7721304
0.7708193
0.7698683
0.7740453
0.7721556
0.77093
0.7699434
0.7760885
0.7741781
0.7724782
0.7713076
0.7701622
0.778146
0.7763088
0.7746396
0.7732403
0.7721532
0.7706606
0.7801343
0.7784102
0.7768375
0.7755174
0.7744648
0.7735665
0.7716063
0.7819909
0.7803776
0.7789108
0.7776758
0.7767461
0.7760777
0.7754859
0.773124
0.8053948
0.809833
0.8084231
0.8113369
0.8112789
0.8102444
0.7699221
0.7709214
0.7698935
0.7722107
0.7708694
0.7698859
0.7740453
0.7721556
0.77093
0.7699434
0.7760082
0.7740805
0.772358
0.7712132
0.7701218
0.7780123
0.7761411
0.7744283
0.7729868
0.7719094
0.770542
0.7799912
0.7782252
0.776599
0.7752264
0.7741248
0.7731989
0.7713937
0.7818916
0.7802432
0.7787349
0.7774607
0.7764954
0.7757835
0.7751374
0.772886
0.7836652
0.7821232
0.7807206
0.7795409
0.7786548
0.778124
0.7778572
0.7776591
0.775274
0.801073
0.8073244
0.8056376
0.810179
0.8100381
0.8088708
0.8113402
0.8115227
0.8116807
0.8109008
0.7699425
0.7710111
0.769928
0.7723502
0.7709623
0.7699216
0.7741271
0.7722521
0.7709971
0.769969
0.7760082
0.7740805
0.772358
0.7712132
0.7701218
0.7779352
0.7760456
0.7743085
0.7728418
0.7717761
0.7704775
0.7798638
0.7780645
0.776394
0.7749756
0.7738322
0.7728912
0.7712147
0.7817554
0.7800669
0.7785073
0.7771815
0.7761661
0.7753965
0.7746897
0.772564
0.7835705
0.7819954
0.7805531
0.7793366
0.7784173
0.7778513
0.7775251
0.7772219
0.7748298
0.7852672
0.7837913
0.78245
0.7813209
0.7804812
0.779986
0.7798971
0.7801043
0.7804772
0.7787188
0.7948279
0.8034744
0.8013836
0.8078461
0.8075437
0.8061152
0.8102568
0.8103681
0.8104466
0.8095381
0.8113322
0.8115137
0.8118937
0.8122821
0.8117732
0.7710811
0.7699578
0.7725068
0.7710785
0.7699717
0.7742687
0.772422
0.7711242
0.7700197
0.7760885
0.7741781
0.7724782
0.7713076
0.7701622
0.7779352
0.7760456
0.7743085
0.7728418
0.7717761
0.7704775
0.7797904
0.777973
0.7762779
0.7748334
0.7736667
0.7727203
0.7711148
0.7816343
0.7799139
0.7783116
0.7769414
0.7758808
0.7750622
0.7743118
0.772293
0.7834408
0.7818277
0.7803366
0.7790715
0.7781062
0.7774891
0.777085
0.7766633
0.7742944
0.7851767
0.7836694
0.7822907
0.7811267
0.7802569
0.7797314
0.7795983
0.7797047
0.7798436
0.7776468
0.786803
0.7853876
0.7841027
0.7830219
0.7822158
0.7817554
0.7816849
0.7820854
0.7828789
0.7841269
0.7846581
0.7979563
0.7954686
0.804268
0.8037492
0.801962
0.8080746
0.8080479
0.8079755
0.8068161
0.8103112
0.8104333
0.8107449
0.8110559
0.8104217
0.8114388
0.8114955
0.8118601
0.812449
0.8130818
0.8130337
0.7726204
0.7711757
0.7700161
0.7744275
0.7726173
0.7712869
0.7700913
0.7762277
0.7743494
0.7726906
0.7714881
0.7702394
0.7780123
0.7761411
0.7744283
0.7729868
0.7719094
0.770542
0.7797904
0.777973
0.7762779
0.7748334
0.7736667
0.7727203
0.7711148
0.7815644
0.7798268
0.7782008
0.7768055
0.7757187
0.7748731
0.7741007
0.7721424
0.7833253
0.7816822
0.7801506
0.7788436
0.7778372
0.7771732
0.7767044
0.7761964
0.7738756
0.7850528
0.7835096
0.7820848
0.7808752
0.7799635
0.7793941
0.7791975
0.7791821
0.7790945
0.7766901
0.7867164
0.7852712
0.7839508
0.7828372
0.782003
0.7815164
0.7814083
0.7817288
0.7823051
0.782943
0.7815242
0.7882785
0.7869182
0.785685
0.7846477
0.7838744
0.7834273
0.7833759
0.7837662
0.7847326
0.7863345
0.789111
0.7876216
0.7991451
0.7985073
0.7964235
0.8047289
0.8045205
0.804263
0.8027635
0.8082548
0.8082626
0.8084453
0.8086104
0.8077298
0.8104724
0.8104772
0.8107848
0.8113069
0.8118634
0.8116937
0.8116369
0.8115933
0.8118216
0.8123786
0.8131877
0.8142378
0.8132936
0.7745431
0.7727647
0.7714266
0.7701549
0.7763841
0.7745462
0.7729366
0.771717
0.7703423
0.778146
0.7763088
0.7746396
0.7732403
0.7721532
0.7706606
0.7798638
0.7780645
0.776394
0.7749756
0.7738322
0.7728912
0.7712147
0.7815644
0.7798268
0.7782008
0.7768055
0.7757187
0.7748731
0.7741007
0.7721424
0.7832588
0.7815994
0.7800454
0.7787147
0.7776846
0.7769931
0.7764891
0.7759375
0.7736525
0.7849426
0.783371
0.781908
0.7806591
0.7797099
0.7791007
0.7788474
0.7787371
0.7784991
0.776043
0.7865978
0.7851186
0.7837545
0.7825981
0.7817252
0.7812
0.7810385
0.7812579
0.7816187
0.7818368
0.7798732
0.7881955
0.7868068
0.7855399
0.7844715
0.783672
0.7832008
0.7831169
0.7834359
0.7842127
0.7852471
0.7861851
0.7839308
0.789699
0.7883891
0.7872029
0.7862057
0.7854602
0.7850283
0.7849667
0.7853543
0.78627
0.7879802
0.7909457
0.7916139
0.7899277
0.7999415
0.799652
0.7993344
0.7975346
0.8051028
0.8049638
0.8049923
0.8049782
0.8037545
0.8085263
0.8084316
0.808633
0.8090296
0.8094396
0.8090276
0.810718
0.8106295
0.810808
0.8113094
0.8120519
0.8130267
0.811956
0.8119239
0.8117838
0.811902
0.8123097
0.8130685
0.8142556
0.8144762
0.8135557
0.7764981
0.7746957
0.7731231
0.771906
0.7704305
0.778296
0.7765018
0.774885
0.7735328
0.7724506
0.7708084
0.7799912
0.7782252
0.776599
0.7752264
0.7741248
0.7731989
0.7713937
0.7816343
0.7799139
0.7783116
0.7769414
0.7758808
0.7750622
0.7743118
0.772293
0.7832588
0.7815994
0.7800454
0.7787147
0.7776846
0.7769931
0.7764891
0.7759375
0.7736525
0.784879
0.7832921
0.781808
0.780537
0.779566
0.7789337
0.7786479
0.778488
0.778178
0.7757216
0.7864923
0.7849862
0.7835861
0.7823928
0.7814853
0.7809248
0.7807162
0.7808535
0.7810668
0.7810514
0.7789235
0.7880817
0.7866607
0.7853524
0.7842435
0.7834079
0.7829014
0.7827707
0.7830013
0.7835885
0.7842297
0.7845214
0.781922
0.7896192
0.7882821
0.7870639
0.7860372
0.785267
0.7848128
0.7847211
0.7850446
0.785785
0.7869747
0.7882336
0.7882198
0.7860646
0.7910689
0.7898052
0.7886621
0.7877013
0.7869822
0.7865604
0.7864946
0.7868453
0.7877278
0.789332
0.7922838
0.793257
0.7935741
0.7918162
0.8005937
0.8004132
0.8004117
0.8003045
0.7987261
0.8055436
0.8053234
0.8054029
0.805649
0.8058667
0.8051008
0.8088678
0.8086934
0.8087798
0.8091777
0.8097931
0.8106195
0.809295
0.8110475
0.8108674
0.8109426
0.8113016
0.8120047
0.8131254
0.8132666
0.8122204
0.8122761
0.8120641
0.8120773
0.8123642
0.8129593
0.814066
0.8144758
0.8147167
0.8138201
0.7784054
0.7766488
0.775074
0.7737576
0.7726899
0.7709269
0.7801343
0.7784102
0.7768375
0.7755174
0.7744648
0.7735665
0.7716063
0.7817554
0.7800669
0.7785073
0.7771815
0.7761661
0.7753965
0.7746897
0.772564
0.7833253
0.7816822
0.7801506
0.7788436
0.7778372
0.7771732
0.7767044
0.7761964
0.7738756
0.784879
0.7832921
0.781808
0.780537
0.779566
0.7789337
0.7786479
0.778488
0.778178
0.7757216
0.7864315
0.7849108
0.7834908
0.7822767
0.7813494
0.7807682
0.780533
0.7806259
0.7807675
0.7806497
0.7784808
0.7879805
0.786534
0.7851915
0.7840479
0.78318
0.7826415
0.7824691
0.7826293
0.7830848
0.7835042
0.7835084
0.7807944
0.7895098
0.788142
0.7868844
0.7858193
0.785015
0.7845281
0.7843935
0.784637
0.7852048
0.7860355
0.7866914
0.7862656
0.7838225
0.790992
0.7897024
0.7885287
0.7875399
0.7867973
0.7863544
0.7862607
0.7865512
0.7872709
0.7883876
0.7897545
0.7901059
0.7900331
0.787935
0.7923921
0.7911712
0.7900677
0.7891404
0.788445
0.7880342
0.7879592
0.7882843
0.7890993
0.7906252
0.7933828
0.794439
0.7950624
0.7951919
0.7934117
0.8012775
0.8010368
0.8011199
0.8013014
0.8013537
0.8001635
0.8060322
0.8057521
0.8057359
0.806014
0.8064646
0.807079
0.8053778
0.8092828
0.8090266
0.8090228
0.809292
0.8098894
0.8108796
0.8108627
0.8095645
0.8114377
0.81119
0.811165
0.8114098
0.811956
0.8130068
0.8133468
0.8135085
0.812487
0.812682
0.8124102
0.8123441
0.8125168
0.8129792
0.8138984
0.8142717
0.8146979
0.8149591
0.8140866
0.7802387
0.7785511
0.7770216
0.7757411
0.7747255
0.7738569
0.7717661
0.7818916
0.7802432
0.7787349
0.7774607
0.7764954
0.7757835
0.7751374
0.772886
0.7834408
0.7818277
0.7803366
0.7790715
0.7781062
0.7774891
0.777085
0.7766633
0.7742944
0.7849426
0.783371
0.781908
0.7806591
0.7797099
0.7791007
0.7788474
0.7787371
0.7784991
0.776043
0.7864315
0.7849108
0.7834908
0.7822767
0.7813494
0.7807682
0.780533
0.7806259
0.7807675
0.7806497
0.7784808
0.7879222
0.7864619
0.7851005
0.7839373
0.7830508
0.7824937
0.7822976
0.7824204
0.7828107
0.7831321
0.7830197
0.7802782
0.7894125
0.7880204
0.7867303
0.7856324
0.7847977
0.7842809
0.7841086
0.7842882
0.7847382
0.7853662
0.7857508
0.7851146
0.7825592
0.7908867
0.7895677
0.7883564
0.7873311
0.7865562
0.7860825
0.7859487
0.7861648
0.7867244
0.7875082
0.7883197
0.7882901
0.7878873
0.7855597
0.7923179
0.7910722
0.7899394
0.7889854
0.7882676
0.7878367
0.7877352
0.7880037
0.7886648
0.7897324
0.7910016
0.7914966
0.7917704
0.7916308
0.7895604
0.7936723
0.7924908
0.791424
0.7905275
0.7898542
0.7894528
0.7893722
0.7896675
0.790432
0.7918521
0.7944559
0.7954104
0.7961203
0.7965476
0.7965714
0.7949911
0.801977
0.8016961
0.8017006
0.801947
0.802262
0.8026299
0.8004578
0.8065785
0.8062302
0.8061419
0.8063099
0.8067731
0.8075772
0.8073284
0.8056564
0.8097495
0.8094343
0.8093395
0.8095072
0.8099612
0.8109023
0.8111035
0.8111078
0.8098361
0.8118781
0.811574
0.8114739
0.8116091
0.8120291
0.8128991
0.8132135
0.81357
0.8137524
0.8127558
0.8131281
0.8128106
0.8126781
0.8127634
0.8131015
0.8138684
0.8140921
0.8144792
0.8149219
0.8152036
0.8144118
0.7819909
0.7803776
0.7789108
0.7776758
0.7767461
0.7760777
0.7754859
0.773124
0.7835705
0.7819954
0.7805531
0.7793366
0.7784173
0.7778513
0.7775251
0.7772219
0.7748298
0.7850528
0.7835096
0.7820848
0.7808752
0.7799635
0.7793941
0.7791975
0.7791821
0.7790945
0.7766901
0.7864923
0.7849862
0.7835861
0.7823928
0.7814853
0.7809248
0.7807162
0.7808535
0.7810668
0.7810514
0.7789235
0.7879222
0.7864619
0.7851005
0.7839373
0.7830508
0.7824937
0.7822976
0.7824204
0.7828107
0.7831321
0.7830197
0.7802782
0.7893564
0.7879512
0.7866432
0.7855267
0.7846746
0.7841405
0.7839467
0.7840923
0.784485
0.7850226
0.7852963
0.7845709
0.7819845
0.790793
0.7894508
0.7882086
0.787152
0.7863484
0.7858466
0.7856775
0.7858346
0.7862851
0.7868831
0.7874459
0.7872191
0.7866285
0.7842063
0.7922163
0.7909424
0.7897737
0.7887849
0.7880364
0.7875762
0.7874369
0.7876352
0.7881457
0.7889012
0.7896528
0.7898034
0.789773
0.7893725
0.7871271
0.7936006
0.7923952
0.7913003
0.7903784
0.7896837
0.7892632
0.7891574
0.7893987
0.7900172
0.7910027
0.7922024
0.7926391
0.7930438
0.7932325
0.7930268
0.7911784
0.7949121
0.7937675
0.7927346
0.7918669
0.791214
0.790822
0.7907355
0.7910075
0.7917193
0.7930559
0.7954925
0.7963727
0.7969908
0.7975016
0.7978094
0.7979511
0.7953118
0.8027111
0.8023744
0.8023231
0.8024771
0.8028397
0.8034287
0.8028913
0.8007525
0.8071626
0.8067672
0.8066003
0.8066844
0.807023
0.8078085
0.8078061
0.8075794
0.8059366
0.8102594
0.8098943
0.8097326
0.8097998
0.8101403
0.8109138
0.8111111
0.8113292
0.8113548
0.8101097
0.8123556
0.8120088
0.8118455
0.8118975
0.8121979
0.8129218
0.8130936
0.8134218
0.8137951
0.8139983
0.8130837
0.8136062
0.8132517
0.8130676
0.8130792
0.8133214
0.8139471
0.8140518
0.8142874
0.8146884
0.8151478
0.8155019
0.8147447
0.7836652
0.7821232
0.7807206
0.7795409
0.7786548
0.778124
0.7778572
0.7776591
0.775274
0.7851767
0.7836694
0.7822907
0.7811267
0.7802569
0.7797314
0.7795983
0.7797047
0.7798436
0.7776468
0.7865978
0.7851186
0.7837545
0.7825981
0.7817252
0.7812
0.7810385
0.7812579
0.7816187
0.7818368
0.7798732
0.7879805
0.786534
0.7851915
0.7840479
0.78318
0.7826415
0.7824691
0.7826293
0.7830848
0.7835042
0.7835084
0.7807944
0.7893564
0.7879512
0.7866432
0.7855267
0.7846746
0.7841405
0.7839467
0.7840923
0.784485
0.7850226
0.7852963
0.7845709
0.7819845
0.790739
0.7893843
0.7881251
0.7870508
0.7862306
0.7857126
0.7855234
0.7856494
0.7860467
0.786563
0.7870238
0.7867125
0.7860396
0.7835909
0.792126
0.7908299
0.7896315
0.7886129
0.787837
0.7873503
0.7871776
0.7873204
0.7877289
0.7883108
0.788833
0.7888057
0.7885996
0.7880397
0.7857283
0.7935025
0.79227
0.7911407
0.7901854
0.7894614
0.789013
0.7888711
0.7890457
0.7895216
0.7902123
0.7909262
0.7910457
0.7911786
0.791127
0.7907147
0.7887472
0.7948428
0.7936752
0.7926153
0.7917231
0.7910498
0.7906395
0.7905288
0.7907493
0.7913217
0.792245
0.7933492
0.7937496
0.7940924
0.7944013
0.7945051
0.794424
0.7915069
0.7961148
0.7950043
0.7940031
0.7931618
0.7925282
0.7921451
0.7920544
0.7923042
0.7929728
0.7942277
0.7965269
0.7973136
0.7978662
0.7982882
0.7986733
0.7990659
0.7982314
0.7956303
0.8034633
0.8030898
0.8029696
0.8030565
0.8033149
0.8039231
0.8036676
0.8031532
0.8010476
0.807779
0.807343
0.8071199
0.8071156
0.8073584
0.8079956
0.8080216
0.8080365
0.8078319
0.8062186
0.8108002
0.8103983
0.8101797
0.8101716
0.8104014
0.8110414
0.8111101
0.8113215
0.8115566
0.8116037
0.8104433
0.8128626
0.8124812
0.8122692
0.8122507
0.8124592
0.8130466
0.8131059
0.8132897
0.8136319
0.814022
0.8142982
0.8134194
0.8141086
0.8137252
0.8134986
0.8134523
0.8136131
0.8141281
0.8141214
0.8142367
0.8144844
0.8148994
0.8154233
0.815807
0.8149981
0.7852672
0.7837913
0.78245
0.7813209
0.7804812
0.779986
0.7798971
0.7801043
0.7804772
0.7787188
0.7867164
0.7852712
0.7839508
0.7828372
0.782003
0.7815164
0.7814083
0.7817288
0.7823051
0.782943
0.7815242
0.7880817
0.7866607
0.7853524
0.7842435
0.7834079
0.7829014
0.7827707
0.7830013
0.7835885
0.7842297
0.7845214
0.781922
0.7894125
0.7880204
0.7867303
0.7856324
0.7847977
0.7842809
0.7841086
0.7842882
0.7847382
0.7853662
0.7857508
0.7851146
0.7825592
0.790739
0.7893843
0.7881251
0.7870508
0.7862306
0.7857126
0.7855234
0.7856494
0.7860467
0.786563
0.7870238
0.7867125
0.7860396
0.7835909
0.7920739
0.7907658
0.7895512
0.7885158
0.7877242
0.787222
0.7870304
0.7871438
0.7875029
0.7880084
0.7884377
0.7883342
0.78805
0.7874183
0.7850916
0.7934152
0.7921615
0.7910038
0.79002
0.7892699
0.7887961
0.7886225
0.7887444
0.7891238
0.7896513
0.7901508
0.7901081
0.7900836
0.7898826
0.7893415
0.7873455
0.7947478
0.7935543
0.7924612
0.7915371
0.7908357
0.7903988
0.7902536
0.7904104
0.7908469
0.7914904
0.7921353
0.7922414
0.7923359
0.792433
0.792346
0.7921025
0.7890767
0.7960477
0.794915
0.7938878
0.793023
0.7923698
0.7919691
0.7918552
0.7920556
0.7925909
0.7934512
0.7944817
0.7948188
0.7951223
0.7953663
0.795581
0.7957721
0.7947078
0.7918333
0.7972822
0.7962041
0.7952321
0.7944159
0.7938
0.7934255
0.7933312
0.7935623
0.7941906
0.7953768
0.7975474
0.7982629
0.798732
0.7990916
0.7993876
0.7998379
0.7993211
0.79851
0.7959468
0.8042321
0.8038252
0.8036568
0.8036658
0.8038478
0.8043313
0.8041451
0.803907
0.8034155
0.8013431
0.8084168
0.8079519
0.8076802
0.807611
0.8077556
0.8082777
0.8081957
0.808236
0.8082682
0.808086
0.8065617
0.8113653
0.8109336
0.8106718
0.8105994
0.8107452
0.8112577
0.8112271
0.8113079
0.8115335
0.8117858
0.8119072
0.8107849
0.8133916
0.8129834
0.8127314
0.8126578
0.8127881
0.8132688
0.8132216
0.8132915
0.8134874
0.8138438
0.8142988
0.8146052
0.813675
0.81463
0.8142233
0.8139629
0.8138683
0.8139643
0.814385
0.8142945
0.8142973
0.8144232
0.814683
0.8151567
0.8157051
0.8160392
0.8151702
0.786803
0.7853876
0.7841027
0.7830219
0.7822158
0.7817554
0.7816849
0.7820854
0.7828789
0.7841269
0.7846581
0.7881955
0.7868068
0.7855399
0.7844715
0.783672
0.7832008
0.7831169
0.7834359
0.7842127
0.7852471
0.7861851
0.7839308
0.7895098
0.788142
0.7868844
0.7858193
0.785015
0.7845281
0.7843935
0.784637
0.7852048
0.7860355
0.7866914
0.7862656
0.7838225
0.790793
0.7894508
0.7882086
0.787152
0.7863484
0.7858466
0.7856775
0.7858346
0.7862851
0.7868831
0.7874459
0.7872191
0.7866285
0.7842063
0.7920739
0.7907658
0.7895512
0.7885158
0.7877242
0.787222
0.7870304
0.7871438
0.7875029
0.7880084
0.7884377
0.7883342
0.78805
0.7874183
0.7850916
0.7933649
0.7920997
0.7909264
0.7899265
0.7891615
0.788673
0.7884813
0.7885755
0.788908
0.7893641
0.7897768
0.7896654
0.7895711
0.7893016
0.7887015
0.7867073
0.7946634
0.7934494
0.7923291
0.7913776
0.7906513
0.7901901
0.7900146
0.7901211
0.7904659
0.7909547
0.7913979
0.791354
0.7913057
0.7912703
0.7910616
0.7907201
0.7876748
0.7959557
0.7947979
0.7937389
0.7928435
0.7921633
0.7917371
0.7915901
0.7917294
0.7921349
0.7927284
0.7933229
0.793384
0.7934593
0.7935119
0.7935608
0.7935998
0.7923848
0.7894045
0.7972171
0.7961176
0.7951205
0.7942816
0.793647
0.7932556
0.793139
0.7933226
0.793823
0.7946315
0.7955899
0.7958823
0.7961221
0.7963251
0.7964723
0.796753
0.7960294
0.7949898
0.7921575
0.7984174
0.7973688
0.7964248
0.7956315
0.7950325
0.7946661
0.7945691
0.7947834
0.7953768
0.7964997
0.7985595
0.7992076
0.7996148
0.7998955
0.8001296
0.8004789
0.8000744
0.7995747
0.798787
0.7962613
0.8050087
0.8045788
0.8043672
0.8043202
0.8044169
0.8048076
0.8045395
0.8043673
0.8041468
0.8036783
0.8017011
0.8090709
0.8085828
0.808275
0.8081496
0.808221
0.8086286
0.8084668
0.8083971
0.8084517
0.8085014
0.8083953
0.806913
0.8119478
0.8114936
0.8111964
0.8110742
0.8111481
0.8115617
0.8114341
0.8114143
0.8115073
0.8117472
0.8120652
0.8122177
0.811045
0.8139376
0.8135081
0.8132243
0.8131048
0.8131731
0.8135626
0.8134357
0.813398
0.8134787
0.8136868
0.8141022
0.8145819
0.8148387
0.8138486
0.815166
0.8147408
0.8144525
0.8143188
0.8143604
0.8147046
0.8145441
0.8144622
0.8144746
0.8146112
0.8149253
0.8154199
0.8159194
0.8161968
0.8152583
0.7948279
0.7882785
0.7869182
0.785685
0.7846477
0.7838744
0.7834273
0.7833759
0.7837662
0.7847326
0.7863345
0.789111
0.7876216
0.7896192
0.7882821
0.7870639
0.7860372
0.785267
0.7848128
0.7847211
0.7850446
0.785785
0.7869747
0.7882336
0.7882198
0.7860646
0.7908867
0.7895677
0.7883564
0.7873311
0.7865562
0.7860825
0.7859487
0.7861648
0.7867244
0.7875082
0.7883197
0.7882901
0.7878873
0.7855597
0.792126
0.7908299
0.7896315
0.7886129
0.787837
0.7873503
0.7871776
0.7873204
0.7877289
0.7883108
0.788833
0.7888057
0.7885996
0.7880397
0.7857283
0.7933649
0.7920997
0.7909264
0.7899265
0.7891615
0.788673
0.7884813
0.7885755
0.788908
0.7893641
0.7897768
0.7896654
0.7895711
0.7893016
0.7887015
0.7867073
0.7946147
0.7933897
0.7922545
0.7912876
0.7905469
0.7900717
0.789879
0.7899589
0.7902594
0.7906805
0.7910424
0.7909351
0.7908238
0.7907277
0.7904622
0.7900755
0.7870365
0.795874
0.7946965
0.7936113
0.7926896
0.7919855
0.791536
0.7913599
0.7914511
0.791769
0.7922154
0.7926188
0.79254
0.7924839
0.7924171
0.7923596
0.7923039
0.7910008
0.7880029
0.7971279
0.7960042
0.7949765
0.7941081
0.7934475
0.7930316
0.7928832
0.7930082
0.7933842
0.7939375
0.7944804
0.7945128
0.7945401
0.794569
0.7945682
0.7947187
0.7938548
0.7926657
0.7897307
0.7983542
0.7972849
0.7963166
0.7955015
0.7948845
0.7945018
0.7943834
0.7945519
0.7950224
0.7957827
0.7966816
0.7969292
0.7971243
0.7972639
0.7973688
0.7975695
0.796991
0.796285
0.7952701
0.7924795
0.7995211
0.7985014
0.7975827
0.7968116
0.7962282
0.7958698
0.7957704
0.7959699
0.7965317
0.7975989
0.7995577
0.8001509
0.8005001
0.8007234
0.8008806
0.8011594
0.8007006
0.8003095
0.7998268
0.7990623
0.7966393
0.8057902
0.8053417
0.8050982
0.8050012
0.8050358
0.8053278
0.8050042
0.804748
0.80459
0.804387
0.8039969
0.8020678
0.8097356
0.8092306
0.8088932
0.8087249
0.8087328
0.8090531
0.8088082
0.8086571
0.8085997
0.8086687
0.8087853
0.8087118
0.8071807
0.8125435
0.8120716
0.8117465
0.811583
0.8116002
0.811929
0.81173
0.811612
0.8116029
0.8117083
0.8120077
0.8123511
0.8124541
0.8112219
0.8144965
0.8140501
0.8137404
0.8135837
0.8135999
0.8139157
0.8137223
0.813604
0.8135759
0.8136673
0.81393
0.8143664
0.8147972
0.8149972
0.8139375
0.8157135
0.8152732
0.8149621
0.8147958
0.8147925
0.8150718
0.8148572
0.8147046
0.8146314
0.8146534
0.8148407
0.815173
0.8156199
0.8160648
0.8162773
0.801073
0.7979563
0.7954686
0.789699
0.7883891
0.7872029
0.7862057
0.7854602
0.7850283
0.7849667
0.7853543
0.78627
0.7879802
0.7909457
0.7916139
0.7899277
0.790992
0.7897024
0.7885287
0.7875399
0.7867973
0.7863544
0.7862607
0.7865512
0.7872709
0.7883876
0.7897545
0.7901059
0.7900331
0.787935
0.7922163
0.7909424
0.7897737
0.7887849
0.7880364
0.7875762
0.7874369
0.7876352
0.7881457
0.7889012
0.7896528
0.7898034
0.789773
0.7893725
0.7871271
0.7934152
0.7921615
0.7910038
0.79002
0.7892699
0.7887961
0.7886225
0.7887444
0.7891238
0.7896513
0.7901508
0.7901081
0.7900836
0.7898826
0.7893415
0.7873455
0.7946147
0.7933897
0.7922545
0.7912876
0.7905469
0.7900717
0.789879
0.7899589
0.7902594
0.7906805
0.7910424
0.7909351
0.7908238
0.7907277
0.7904622
0.7900755
0.7870365
0.7958268
0.7946388
0.7935392
0.7926026
0.7918848
0.7914218
0.7912294
0.7912952
0.7915707
0.7919528
0.7922794
0.7921416
0.7920277
0.7919065
0.7917991
0.7916988
0.7903555
0.7873646
0.7970487
0.795906
0.794853
0.7939593
0.7932757
0.7928375
0.7926612
0.79274
0.7930321
0.7934449
0.7938063
0.793707
0.7936122
0.7935322
0.7934364
0.7935053
0.7925568
0.7912804
0.7883297
0.7982676
0.797175
0.7961771
0.7953335
0.7946916
0.7942853
0.7941362
0.7942484
0.7945993
0.7951152
0.7956168
0.795618
0.7956142
0.7955931
0.7955652
0.7956511
0.7949542
0.7941085
0.7929452
0.7900553
0.7994597
0.7984199
0.7974779
0.7966857
0.7960848
0.7957108
0.7955907
0.7957461
0.7961895
0.7969081
0.7977523
0.7979652
0.7981165
0.798212
0.7982541
0.7984034
0.7977922
0.7972274
0.7965389
0.7955485
0.7928665
0.8005968
0.7996027
0.7987091
0.7979579
0.7973897
0.7970385
0.7969376
0.7971236
0.7976571
0.7986737
0.8005424
0.8010866
0.8013897
0.8015597
0.8016618
0.8018575
0.8013685
0.8009208
0.800543
0.8000773
0.7993934
0.7970265
0.8065722
0.8061105
0.8058404
0.8057057
0.8056851
0.8059036
0.8055144
0.8052011
0.8049569
0.8048131
0.8046781
0.804323
0.8023472
0.8104072
0.8098895
0.8095293
0.8093253
0.8092839
0.8095283
0.8092243
0.808989
0.8088486
0.8088035
0.8089329
0.8090757
0.8089528
0.8073627
0.8131485
0.8126629
0.8123154
0.8121186
0.8120883
0.8123488
0.8120899
0.8118996
0.8117912
0.811793
0.8119533
0.8122742
0.8125685
0.8126145
0.8113124
0.8150654
0.8146053
0.8142744
0.814087
0.8140604
0.8143136
0.8140689
0.8138833
0.8137737
0.8137553
0.8138975
0.8141786
0.8145672
0.8149433
0.8150782
0.8162699
0.8158173
0.8154872
0.8152936
0.8152526
0.8154774
0.8152185
0.8150111
0.8148665
0.814802
0.8148716
0.8150751
0.8153612
0.8157555
0.816139
0.8053948
0.8034744
0.8013836
0.7991451
0.7985073
0.7964235
0.7910689
0.7898052
0.7886621
0.7877013
0.7869822
0.7865604
0.7864946
0.7868453
0.7877278
0.789332
0.7922838
0.793257
0.7935741
0.7918162
0.7923179
0.7910722
0.7899394
0.7889854
0.7882676
0.7878367
0.7877352
0.7880037
0.7886648
0.7897324
0.7910016
0.7914966
0.7917704
0.7916308
0.7895604
0.7935025
0.79227
0.7911407
0.7901854
0.7894614
0.789013
0.7888711
0.7890457
0.7895216
0.7902123
0.7909262
0.7910457
0.7911786
0.791127
0.7907147
0.7887472
0.7946634
0.7934494
0.7923291
0.7913776
0.7906513
0.7901901
0.7900146
0.7901211
0.7904659
0.7909547
0.7913979
0.791354
0.7913057
0.7912703
0.7910616
0.7907201
0.7876748
0.7958268
0.7946388
0.7935392
0.7926026
0.7918848
0.7914218
0.7912294
0.7912952
0.7915707
0.7919528
0.7922794
0.7921416
0.7920277
0.7919065
0.7917991
0.7916988
0.7903555
0.7873646
0.797003
0.7958501
0.7947832
0.7938753
0.7931785
0.7927273
0.7925352
0.7925897
0.7928413
0.7931928
0.7934813
0.7933266
0.7931783
0.7930486
0.7929086
0.792939
0.7919507
0.7906345
0.7876918
0.7981907
0.7970797
0.7960575
0.7951896
0.7945255
0.7940977
0.7939217
0.7939895
0.7942599
0.7946413
0.7949697
0.7948465
0.7947284
0.7946066
0.7944932
0.7945073
0.7937386
0.7928087
0.791559
0.7886554
0.7993755
0.7983132
0.7973426
0.7965229
0.795898
0.7955012
0.7953516
0.7954526
0.795781
0.7962648
0.7967283
0.796707
0.7966708
0.7966172
0.7965381
0.796586
0.7958713
0.7951884
0.7943609
0.7932233
0.7904461
0.8005371
0.7995235
0.7986073
0.7978357
0.7972507
0.7968844
0.7967635
0.7969069
0.7973262
0.798007
0.7988037
0.7989854
0.7991031
0.7991561
0.7991552
0.7992352
0.7986135
0.7980135
0.7974622
0.7967911
0.7958832
0.793263
0.801644
0.8006762
0.7998045
0.7990733
0.7985186
0.798175
0.7980724
0.7982465
0.7987541
0.799725
0.8015119
0.802014
0.8022764
0.8024051
0.8024565
0.8025921
0.8020559
0.8015763
0.8011396
0.8007751
0.8003785
0.7997324
0.7973215
0.8073525
0.8068809
0.8065903
0.8064238
0.8063609
0.8065144
0.8060813
0.8057013
0.8053983
0.8051661
0.8050834
0.804976
0.8045712
0.8025373
0.8110828
0.8105558
0.8101774
0.8099451
0.8098622
0.8100462
0.809692
0.8093966
0.8091708
0.8090413
0.8090517
0.809203
0.8092966
0.8091164
0.807456
0.8137602
0.813264
0.8128983
0.8126741
0.812605
0.8128075
0.8125031
0.8122521
0.8120705
0.8119718
0.8120247
0.8122038
0.8124767
0.812716
0.8126966
0.8156416
0.8151707
0.8148222
0.8146091
0.8145466
0.8147474
0.8144607
0.8142233
0.8140456
0.8139448
0.8139741
0.8141328
0.8143674
0.8147033
0.8150179
0.816833
0.8163704
0.8160245
0.8158078
0.8157348
0.8159131
0.8156187
0.8153664
0.8151664
0.8150297
0.8150101
0.8150945
0.8152532
0.8154887
0.8158246
0.8081982
0.8073244
0.8056376
0.804268
0.8037492
0.801962
0.7999415
0.799652
0.7993344
0.7975346
0.7923921
0.7911712
0.7900677
0.7891404
0.788445
0.7880342
0.7879592
0.7882843
0.7890993
0.7906252
0.7933828
0.794439
0.7950624
0.7951919
0.7934117
0.7936006
0.7923952
0.7913003
0.7903784
0.7896837
0.7892632
0.7891574
0.7893987
0.7900172
0.7910027
0.7922024
0.7926391
0.7930438
0.7932325
0.7930268
0.7911784
0.7947478
0.7935543
0.7924612
0.7915371
0.7908357
0.7903988
0.7902536
0.7904104
0.7908469
0.7914904
0.7921353
0.7922414
0.7923359
0.792433
0.792346
0.7921025
0.7890767
0.795874
0.7946965
0.7936113
0.7926896
0.7919855
0.791536
0.7913599
0.7914511
0.791769
0.7922154
0.7926188
0.79254
0.7924839
0.7924171
0.7923596
0.7923039
0.7910008
0.7880029
0.797003
0.7958501
0.7947832
0.7938753
0.7931785
0.7927273
0.7925352
0.7925897
0.7928413
0.7931928
0.7934813
0.7933266
0.7931783
0.7930486
0.7929086
0.792939
0.7919507
0.7906345
0.7876918
0.7981463
0.7970255
0.7959899
0.7951082
0.7944314
0.7939912
0.7938
0.7938444
0.794076
0.7943987
0.7946577
0.7944822
0.794314
0.7941466
0.7939933
0.7939737
0.7931711
0.7922017
0.7909126
0.7880179
0.7993008
0.7982208
0.7972265
0.7963833
0.7957371
0.7953196
0.7951441
0.7952023
0.7954534
0.795808
0.7961059
0.7959665
0.7958227
0.7956755
0.795518
0.7955023
0.7947253
0.7939709
0.7930596
0.7918365
0.789048
0.8004553
0.7994199
0.7984759
0.7976777
0.7970695
0.7966813
0.7965318
0.7966228
0.7969313
0.7973861
0.7978172
0.7977755
0.7977159
0.7976294
0.7975171
0.7975057
0.7967935
0.7960903
0.7954213
0.7946119
0.7935582
0.7908465
0.8015858
0.8005992
0.7997055
0.7989546
0.7983836
0.7980254
0.7979035
0.7980365
0.7984338
0.7990808
0.7998346
0.7999905
0.8000784
0.8000993
0.8000574
0.8000893
0.7994344
0.7988221
0.7982332
0.7976954
0.7970943
0.7962259
0.7935652
0.8026673
0.8017212
0.8008725
0.8001584
0.7996177
0.7992804
0.7991771
0.7993401
0.7998244
0.8007533
0.8024657
0.8029307
0.8031591
0.8032516
0.8032643
0.8033453
0.802781
0.802253
0.8017828
0.8013571
0.8010542
0.8006867
0.7999904
0.7975221
0.808129
0.8076505
0.8073434
0.8071516
0.807053
0.8071554
0.8066842
0.8062593
0.8058884
0.8055959
0.8054197
0.8053599
0.8052026
0.8047398
0.8026346
0.8117604
0.8112264
0.8108337
0.8105782
0.8104617
0.8105943
0.8102031
0.8098567
0.8095699
0.8093538
0.8092758
0.8093054
0.8094085
0.8094465
0.8092001
0.8143766
0.813872
0.8134915
0.8132447
0.813143
0.8132972
0.8129557
0.8126586
0.8124155
0.8122427
0.812192
0.8122616
0.8123941
0.812614
0.8127913
0.8162234
0.8157437
0.8153806
0.8151458
0.8150529
0.815209
0.814889
0.8146091
0.8143789
0.8142093
0.8141536
0.8141977
0.8143115
0.8144954
0.8147728
0.817401
0.8169305
0.8165713
0.8163349
0.8162344
0.8163726
0.8160493
0.8157611
0.8155156
0.8153229
0.8152289
0.8152228
0.8152637
0.8153738
0.8155538
0.809586
0.809833
0.8084231
0.8078461
0.8075437
0.8061152
0.8047289
0.8045205
0.804263
0.8027635
0.8005937
0.8004132
0.8004117
0.8003045
0.7987261
0.7936723
0.7924908
0.791424
0.7905275
0.7898542
0.7894528
0.7893722
0.7896675
0.790432
0.7918521
0.7944559
0.7954104
0.7961203
0.7965476
0.7965714
0.7949911
0.7948428
0.7936752
0.7926153
0.7917231
0.7910498
0.7906395
0.7905288
0.7907493
0.7913217
0.792245
0.7933492
0.7937496
0.7940924
0.7944013
0.7945051
0.794424
0.7915069
0.7959557
0.7947979
0.7937389
0.7928435
0.7921633
0.7917371
0.7915901
0.7917294
0.7921349
0.7927284
0.7933229
0.793384
0.7934593
0.7935119
0.7935608
0.7935998
0.7923848
0.7894045
0.7970487
0.795906
0.794853
0.7939593
0.7932757
0.7928375
0.7926612
0.79274
0.7930321
0.7934449
0.7938063
0.793707
0.7936122
0.7935322
0.7934364
0.7935053
0.7925568
0.7912804
0.7883297
0.7981463
0.7970255
0.7959899
0.7951082
0.7944314
0.7939912
0.7938
0.7938444
0.794076
0.7943987
0.7946577
0.7944822
0.794314
0.7941466
0.7939933
0.7939737
0.7931711
0.7922017
0.7909126
0.7880179
0.7992577
0.7981681
0.797161
0.7963046
0.795646
0.7952165
0.7950264
0.7950621
0.7952758
0.7955743
0.7958058
0.7956169
0.7954259
0.7952362
0.7950423
0.7949967
0.7941906
0.7934025
0.7924519
0.7911897
0.7884113
0.8003826
0.79933
0.7983633
0.7975424
0.7969136
0.7965053
0.7963309
0.7963806
0.7966145