/*--------------------------------*- C++ -*----------------------------------*\
| =========                 |                                                 |
| \\      /  F ield         | OpenFOAM: The Open Source CFD Toolbox           |
|  \\    /   O peration     | Version:  2306                                  |
|   \\  /    A nd           | Website:  www.openfoam.com                      |
|    \\/     M anipulation  |                                                 |
\*---------------------------------------------------------------------------*/
FoamFile
{
    version     2.0;
    format      ascii;
    arch        "LSB;label=32;scalar=64";
    class       volScalarField;
    location    "0.9/air";
    object      nernst;
}
// * * * * * * * * * * * * * * * * * * * * * * * * * * * * * * * * * * * * * //

dimensions      [1 2 -3 0 0 -1 0];

internalField   nonuniform List<scalar> 
16000
(
-0.6655236
-0.6583531
-0.6739733
-0.6582397
-0.6544753
-0.6719752
-0.6410145
-0.6762313
-0.6719659
-0.654267
-0.6523106
-0.6702538
-0.6304938
-0.6753186
-0.6660911
-0.6303372
-0.678145
-0.6753709
-0.6702473
-0.6519909
-0.6513125
-0.6689918
-0.6242769
-0.6744953
-0.6609682
-0.6146253
-0.6776691
-0.6727008
-0.6609215
-0.6238585
-0.6798734
-0.6777461
-0.6746162
-0.6689928
-0.6508515
-0.6513125
-0.6683257
-0.621356
-0.6738645
-0.6571863
-0.6049132
-0.6772439
-0.6702619
-0.6526525
-0.6045501
-0.6795929
-0.6763981
-0.6703185
-0.6570412
-0.6205185
-0.6814623
-0.6796758
-0.677416
-0.6740749
-0.6683434
-0.6506695
-0.6786062
-0.6523106
-0.6683257
-0.621356
-0.6735215
-0.6551827
-0.6002367
-0.6769186
-0.6683785
-0.6464812
-0.5922445
-0.6793477
-0.6751737
-0.6663333
-0.6463133
-0.5992164
-0.6812762
-0.6789158
-0.6752731
-0.668494
-0.6548876
-0.6199231
-0.6829327
-0.6813575
-0.6795323
-0.6772145
-0.6738502
-0.6683874
-0.6514473
-0.6783894
-0.6803492
-0.6796879
-0.6544753
-0.6689918
-0.6242769
-0.6735215
-0.6551827
-0.6002367
-0.6767414
-0.6673502
-0.6431892
-0.5862152
-0.6791631
-0.674228
-0.663223
-0.6382295
-0.585411
-0.6811172
-0.678239
-0.6732933
-0.6632584
-0.6427208
-0.5982237
-0.682793
-0.6808773
-0.6783517
-0.674458
-0.66754
-0.6547236
-0.6220668
-0.6843017
-0.6828698
-0.6812987
-0.6794803
-0.677198
-0.674014
-0.6691593
-0.6533537
-0.6779477
-0.6801833
-0.6794524
-0.6819489
-0.6813495
-0.6808045
-0.6583531
-0.6702538
-0.6304938
-0.6738645
-0.6571863
-0.6049132
-0.6767414
-0.6673502
-0.6431892
-0.5862152
-0.6790635
-0.67371
-0.6615142
-0.633892
-0.5785797
-0.6809995
-0.677725
-0.6717445
-0.6591347
-0.6334974
-0.584106
-0.6826759
-0.6804595
-0.6772816
-0.6718763
-0.6615754
-0.6423395
-0.6015849
-0.6841867
-0.6825242
-0.6805725
-0.6779923
-0.6741171
-0.6676677
-0.6566317
-0.627302
-0.6855813
-0.6842584
-0.6828482
-0.6813121
-0.6795516
-0.6774075
-0.6745941
-0.6706497
-0.6568841
-0.6772403
-0.6798539
-0.67896
-0.6818018
-0.681184
-0.6805539
-0.6834222
-0.6828383
-0.6823764
-0.6819589
-0.6655236
-0.6719752
-0.6410145
-0.6744953
-0.6609682
-0.6146253
-0.6769186
-0.6683785
-0.6464812
-0.5922445
-0.6790635
-0.67371
-0.6615142
-0.633892
-0.5785797
-0.6809367
-0.6774462
-0.6708898
-0.656857
-0.62853
-0.5771032
-0.6825905
-0.6801484
-0.6764578
-0.6698347
-0.6568493
-0.6329331
-0.58837
-0.6840914
-0.6822298
-0.6799293
-0.6766239
-0.6712033
-0.6616451
-0.6452956
-0.6096825
-0.6854807
-0.6839819
-0.6823382
-0.6804194
-0.6779245
-0.6743675
-0.6689414
-0.6605208
-0.6365638
-0.6867818
-0.6855474
-0.6842532
-0.6828885
-0.6814183
-0.6797702
-0.6778624
-0.6755817
-0.6728305
-0.6634133
-0.6760049
-0.6793649
-0.6781288
-0.6815115
-0.6808568
-0.6800244
-0.683287
-0.6826967
-0.6822111
-0.6816982
-0.6847932
-0.6842061
-0.6837503
-0.6834304
-0.6831524
-0.6739733
-0.6582397
-0.6753186
-0.6660911
-0.6303372
-0.6772439
-0.6702619
-0.6526525
-0.6045501
-0.6791631
-0.674228
-0.663223
-0.6382295
-0.585411
-0.6809367
-0.6774462
-0.6708898
-0.656857
-0.62853
-0.5771032
-0.6825454
-0.679982
-0.6760077
-0.6687005
-0.6542295
-0.6278614
-0.5818448
-0.6840226
-0.6820152
-0.6794444
-0.6755578
-0.6688808
-0.6568588
-0.6367007
-0.5985365
-0.6853977
-0.68375
-0.6818969
-0.679617
-0.6764104
-0.6714712
-0.6635603
-0.6513751
-0.6234469
-0.6866906
-0.6853092
-0.6838523
-0.6822764
-0.6804688
-0.6782114
-0.6752509
-0.6712804
-0.6661345
-0.651992
-0.687911
-0.6867527
-0.6855492
-0.6843035
-0.6830054
-0.6816326
-0.6801504
-0.6785684
-0.676975
-0.6757908
-0.6714037
-0.6787425
-0.6766244
-0.6810891
-0.6803799
-0.6791237
-0.6830207
-0.6824221
-0.681885
-0.6811469
-0.6846666
-0.684078
-0.6836132
-0.6832649
-0.6828866
-0.6860858
-0.6854847
-0.6850104
-0.6846846
-0.6845109
-0.6838953
-0.6762313
-0.6719659
-0.654267
-0.6776691
-0.6727008
-0.6609215
-0.6238585
-0.6793477
-0.6751737
-0.6663333
-0.6463133
-0.5992164
-0.6809995
-0.677725
-0.6717445
-0.6591347
-0.6334974
-0.584106
-0.6825454
-0.679982
-0.6760077
-0.6687005
-0.6542295
-0.6278614
-0.5818448
-0.6839864
-0.681902
-0.6791829
-0.674971
-0.6675846
-0.6542015
-0.6320724
-0.5930916
-0.685338
-0.6835835
-0.6815718
-0.6790048
-0.6752194
-0.66915
-0.659278
-0.6444644
-0.6153646
-0.6866154
-0.6851112
-0.6835115
-0.6817396
-0.679604
-0.6767436
-0.6727359
-0.6671361
-0.6600207
-0.644852
-0.6878267
-0.6865385
-0.6852073
-0.6838307
-0.6823719
-0.6807582
-0.6788823
-0.6767381
-0.6745038
-0.6731107
-0.6669022
-0.6889756
-0.6878848
-0.6867575
-0.6856023
-0.6844213
-0.6832102
-0.6819671
-0.6807065
-0.6795591
-0.6789447
-0.6784975
-0.6730508
-0.6806083
-0.6798038
-0.6775735
-0.682636
-0.6820433
-0.6814135
-0.6802217
-0.6844172
-0.6838312
-0.6833503
-0.6829385
-0.6823273
-0.685966
-0.6853655
-0.6848881
-0.6845507
-0.684345
-0.6836295
-0.6873039
-0.6866983
-0.6861953
-0.6858347
-0.6856403
-0.68518
-0.6839916
-0.678145
-0.6753709
-0.6702473
-0.6519909
-0.6795929
-0.6763981
-0.6703185
-0.6570412
-0.6205185
-0.6811172
-0.678239
-0.6732933
-0.6632584
-0.6427208
-0.5982237
-0.6825905
-0.6801484
-0.6764578
-0.6698347
-0.6568493
-0.6329331
-0.58837
-0.6839864
-0.681902
-0.6791829
-0.674971
-0.6675846
-0.6542015
-0.6320724
-0.5930916
-0.6853068
-0.6834966
-0.6813991
-0.6786721
-0.6745598
-0.6678505
-0.6568997
-0.6407522
-0.6114689
-0.6865614
-0.6849704
-0.6832647
-0.6813397
-0.6789368
-0.6755783
-0.6707066
-0.663822
-0.6553898
-0.6404759
-0.6877571
-0.6863611
-0.6849197
-0.683424
-0.6818091
-0.6799482
-0.6776589
-0.6749057
-0.6719576
-0.6703642
-0.6634419
-0.6888969
-0.6876874
-0.6864515
-0.685203
-0.6839419
-0.6826501
-0.6813106
-0.6799393
-0.6787697
-0.6784483
-0.6775949
-0.669369
-0.6899812
-0.6889514
-0.6878908
-0.6868103
-0.6857168
-0.6846156
-0.6835133
-0.6824385
-0.6814876
-0.6810466
-0.6811169
-0.6793694
-0.6747142
-0.6822158
-0.6816779
-0.6808466
-0.6787307
-0.6840573
-0.6834982
-0.6829971
-0.6824657
-0.6814087
-0.68573
-0.6851362
-0.6846562
-0.6842944
-0.6840167
-0.6830723
-0.6871897
-0.6865858
-0.6860821
-0.6857165
-0.6855078
-0.685014
-0.6837258
-0.6884555
-0.6878496
-0.6873289
-0.6869242
-0.6866777
-0.6862343
-0.6852671
-0.6840882
-0.6798734
-0.6777461
-0.6746162
-0.6689928
-0.6508515
-0.6812762
-0.6789158
-0.6752731
-0.668494
-0.6548876
-0.6199231
-0.6826759
-0.6804595
-0.6772816
-0.6718763
-0.6615754
-0.6423395
-0.6015849
-0.6840226
-0.6820152
-0.6794444
-0.6755578
-0.6688808
-0.6568588
-0.6367007
-0.5985365
-0.6853068
-0.6834966
-0.6813991
-0.6786721
-0.6745598
-0.6678505
-0.6568997
-0.6407522
-0.6114689
-0.6865333
-0.6848973
-0.6831353
-0.6811258
-0.6785717
-0.6749296
-0.6695669
-0.6619788
-0.6529021
-0.6383677
-0.6877071
-0.6862356
-0.6847139
-0.6831269
-0.681385
-0.6793148
-0.6766722
-0.673398
-0.6698691
-0.6682046
-0.6611417
-0.6888317
-0.6875242
-0.6861954
-0.6848638
-0.6835245
-0.6821421
-0.6806754
-0.6791246
-0.6777841
-0.6775206
-0.6765038
-0.6664202
-0.6899072
-0.6887673
-0.6876094
-0.6864546
-0.6853166
-0.684205
-0.6831303
-0.6821411
-0.6813859
-0.6813371
-0.6811237
-0.6785748
-0.6717089
-0.6909325
-0.6899586
-0.688958
-0.6879423
-0.6869205
-0.685901
-0.684896
-0.6839322
-0.6830999
-0.6827106
-0.6829058
-0.6818497
-0.6803107
-0.6763995
-0.6836671
-0.6832105
-0.682664
-0.6818895
-0.6800202
-0.6853888
-0.6848287
-0.6843548
-0.6839501
-0.6835371
-0.6821682
-0.6869646
-0.6863693
-0.6858684
-0.6854936
-0.6852533
-0.6846843
-0.6831691
-0.6883462
-0.6877423
-0.6872223
-0.6868155
-0.6865617
-0.6861019
-0.685101
-0.6838226
-0.6895447
-0.6889447
-0.6884124
-0.6879768
-0.6876703
-0.6872056
-0.6863121
-0.6853543
-0.6841854
-0.6814623
-0.6796758
-0.677416
-0.6740749
-0.6683434
-0.6506695
-0.682793
-0.6808773
-0.6783517
-0.674458
-0.66754
-0.6547236
-0.6220668
-0.6840914
-0.6822298
-0.6799293
-0.6766239
-0.6712033
-0.6616451
-0.6452956
-0.6096825
-0.685338
-0.6835835
-0.6815718
-0.6790048
-0.6752194
-0.66915
-0.659278
-0.6444644
-0.6153646
-0.6865333
-0.6848973
-0.6831353
-0.6811258
-0.6785717
-0.6749296
-0.6695669
-0.6619788
-0.6529021
-0.6383677
-0.6876811
-0.6861707
-0.6846069
-0.6829701
-0.6811565
-0.6789654
-0.6761184
-0.6725441
-0.6686968
-0.6670283
-0.6599974
-0.6887848
-0.6874089
-0.6860134
-0.6846193
-0.6832164
-0.6817528
-0.6801639
-0.6784344
-0.6769068
-0.6766587
-0.6755912
-0.6644218
-0.6898457
-0.688615
-0.6873745
-0.6861543
-0.684973
-0.6838395
-0.6827593
-0.6817804
-0.6810631
-0.6811506
-0.6808586
-0.677663
-0.6692325
-0.6908627
-0.6897858
-0.6886956
-0.6876156
-0.6865656
-0.6855642
-0.684637
-0.6838323
-0.6832786
-0.6832783
-0.6832195
-0.6817971
-0.6795857
-0.6739567
-0.6918334
-0.6909114
-0.6899656
-0.6890078
-0.6880478
-0.6870953
-0.6861632
-0.685279
-0.6845187
-0.6841579
-0.6843509
-0.6835485
-0.6826244
-0.6812927
-0.6780991
-0.6850163
-0.6845708
-0.6841069
-0.6836061
-0.6829399
-0.6808425
-0.6866384
-0.6860784
-0.6855934
-0.6852047
-0.6849047
-0.6841997
-0.6822669
-0.6881305
-0.6875357
-0.687021
-0.6866113
-0.686342
-0.6858463
-0.6847712
-0.6832663
-0.6894397
-0.6888418
-0.6883108
-0.6878746
-0.687564
-0.6870899
-0.6861797
-0.6851882
-0.6839199
-0.6905766
-0.689986
-0.6894502
-0.6889917
-0.6886407
-0.688142
-0.6872754
-0.68639
-0.685442
-0.6842829
-0.6829327
-0.6813575
-0.6795323
-0.6772145
-0.6738502
-0.6683874
-0.6514473
-0.6841867
-0.6825242
-0.6805725
-0.6779923
-0.6741171
-0.6676677
-0.6566317
-0.627302
-0.6853977
-0.68375
-0.6818969
-0.679617
-0.6764104
-0.6714712
-0.6635603
-0.6513751
-0.6234469
-0.6865614
-0.6849704
-0.6832647
-0.6813397
-0.6789368
-0.6755783
-0.6707066
-0.663822
-0.6553898
-0.6404759
-0.6876811
-0.6861707
-0.6846069
-0.6829701
-0.6811565
-0.6789654
-0.6761184
-0.6725441
-0.6686968
-0.6670283
-0.6599974
-0.6887604
-0.6873495
-0.6859191
-0.6844915
-0.6830527
-0.6815409
-0.6798774
-0.6780386
-0.6763956
-0.6761557
-0.6750814
-0.6634193
-0.6898016
-0.6885076
-0.6872079
-0.6859394
-0.6847229
-0.6835646
-0.6824623
-0.6814574
-0.6807182
-0.6808665
-0.6805572
-0.6769046
-0.6675263
-0.6908046
-0.6896426
-0.6884767
-0.6873407
-0.6862631
-0.6852683
-0.6843865
-0.6836673
-0.6832389
-0.683386
-0.683272
-0.681571
-0.6788113
-0.6719105
-0.6917675
-0.6907485
-0.6897192
-0.6887033
-0.6877223
-0.6867986
-0.6859608
-0.6852589
-0.6847943
-0.6848019
-0.6847538
-0.6837476
-0.6825025
-0.6806156
-0.6761334
-0.6926875
-0.6918138
-0.6909186
-0.6900138
-0.689109
-0.6882141
-0.6873425
-0.6865193
-0.6858137
-0.6854648
-0.6856314
-0.6849274
-0.6842181
-0.6834178
-0.6822946
-0.6791026
-0.6862773
-0.685832
-0.6853777
-0.6849482
-0.6845255
-0.6835887
-0.6809485
-0.6878171
-0.6872567
-0.686762
-0.6863504
-0.6860507
-0.685491
-0.6842862
-0.6823662
-0.6892322
-0.6886435
-0.6881188
-0.6876829
-0.6873638
-0.6868693
-0.6859239
-0.6848583
-0.6833643
-0.6904754
-0.689887
-0.6893529
-0.6888944
-0.688541
-0.688036
-0.6871596
-0.6862576
-0.6852758
-0.6840177
-0.691555
-0.6909772
-0.690443
-0.6899715
-0.6895863
-0.6890648
-0.688205
-0.6873453
-0.6864684
-0.6855298
-0.6843849
-0.6843017
-0.6828698
-0.6812987
-0.6794803
-0.677198
-0.674014
-0.6691593
-0.6533537
-0.6854807
-0.6839819
-0.6823382
-0.6804194
-0.6779245
-0.6743675
-0.6689414
-0.6605208
-0.6365638
-0.6866154
-0.6851112
-0.6835115
-0.6817396
-0.679604
-0.6767436
-0.6727359
-0.6671361
-0.6600207
-0.644852
-0.6877071
-0.6862356
-0.6847139
-0.6831269
-0.681385
-0.6793148
-0.6766722
-0.673398
-0.6698691
-0.6682046
-0.6611417
-0.6887604
-0.6873495
-0.6859191
-0.6844915
-0.6830527
-0.6815409
-0.6798774
-0.6780386
-0.6763956
-0.6761557
-0.6750814
-0.6634193
-0.6897785
-0.6884521
-0.6871218
-0.6858277
-0.6845914
-0.6834169
-0.6822969
-0.6812678
-0.6805046
-0.6806792
-0.6803697
-0.676481
-0.6666634
-0.6907627
-0.6895416
-0.6883217
-0.6871446
-0.6860447
-0.6850491
-0.6841875
-0.6835052
-0.6831265
-0.6833445
-0.6832246
-0.6813248
-0.6781791
-0.6704827
-0.6917124
-0.6906135
-0.6895135
-0.6884472
-0.6874457
-0.68654
-0.6857657
-0.6851768
-0.6848653
-0.6850198
-0.6849221
-0.6837823
-0.6822908
-0.6799493
-0.6744791
-0.6926251
-0.69166
-0.6906864
-0.6897277
-0.6888053
-0.6879421
-0.6871675
-0.686527
-0.6861103
-0.6860999
-0.6860403
-0.6852007
-0.6843046
-0.6832267
-0.6816519
-0.6773575
-0.6934976
-0.6926693
-0.6918213
-0.6909654
-0.6901109
-0.6892677
-0.6884486
-0.6876772
-0.687015
-0.6866766
-0.6868058
-0.6861557
-0.6855211
-0.6848958
-0.6842148
-0.6829192
-0.6792285
-0.6874649
-0.6870138
-0.686558
-0.6861292
-0.6857585
-0.6850872
-0.683674
-0.6810552
-0.68893
-0.6883742
-0.6878703
-0.6874384
-0.687102
-0.6865717
-0.6855679
-0.6843728
-0.6824664
-0.6902754
-0.6896959
-0.6891683
-0.6887118
-0.6883536
-0.6878353
-0.686939
-0.6860017
-0.6849458
-0.6834627
-0.6914573
-0.6908818
-0.6903493
-0.6898783
-0.6894915
-0.6889655
-0.688099
-0.6872295
-0.6863359
-0.6853636
-0.6841199
-0.6924838
-0.691921
-0.691393
-0.6909152
-0.6905075
-0.6899702
-0.6891221
-0.6882681
-0.6874156
-0.6865468
-0.6856218
-0.6844783
-0.6855813
-0.6842584
-0.6828482
-0.6813121
-0.6795516
-0.6774075
-0.6745941
-0.6706497
-0.6568841
-0.6866906
-0.6853092
-0.6838523
-0.6822764
-0.6804688
-0.6782114
-0.6752509
-0.6712804
-0.6661345
-0.651992
-0.6877571
-0.6863611
-0.6849197
-0.683424
-0.6818091
-0.6799482
-0.6776589
-0.6749057
-0.6719576
-0.6703642
-0.6634419
-0.6887848
-0.6874089
-0.6860134
-0.6846193
-0.6832164
-0.6817528
-0.6801639
-0.6784344
-0.6769068
-0.6766587
-0.6755912
-0.6644218
-0.6897785
-0.6884521
-0.6871218
-0.6858277
-0.6845914
-0.6834169
-0.6822969
-0.6812678
-0.6805046
-0.6806792
-0.6803697
-0.676481
-0.6666634
-0.6907408
-0.6894895
-0.6882416
-0.687043
-0.6859306
-0.6849326
-0.6840773
-0.6834069
-0.6830441
-0.6832939
-0.6831773
-0.6811726
-0.677828
-0.6697555
-0.6916726
-0.6905181
-0.6893679
-0.6882649
-0.6872469
-0.68635
-0.685612
-0.6850845
-0.6848487
-0.6850771
-0.6849753
-0.6837453
-0.6820818
-0.6794218
-0.6733149
-0.6925728
-0.6915323
-0.6904924
-0.6894871
-0.6885476
-0.6877059
-0.6869995
-0.6864776
-0.6862186
-0.6863465
-0.6862427
-0.6853296
-0.6843063
-0.6830145
-0.681074
-0.6758929
-0.6934385
-0.6925239
-0.6916021
-0.6906956
-0.6898253
-0.6890135
-0.688288
-0.6876917
-0.6873014
-0.6872722
-0.6871875
-0.6864352
-0.6856725
-0.684878
-0.6839568
-0.6822892
-0.6775065
-0.6942664
-0.6934808
-0.6926772
-0.6918668
-0.6910589
-0.6902629
-0.6894911
-0.6887652
-0.6881415
-0.6878122
-0.6879085
-0.6872877
-0.6866905
-0.6861171
-0.6855703
-0.6847177
-0.6830027
-0.6793544
-0.6885854
-0.6881323
-0.687669
-0.6872319
-0.6868485
-0.6862538
-0.6851618
-0.6837594
-0.6811626
-0.6899832
-0.6894349
-0.688928
-0.6884778
-0.6881095
-0.6875679
-0.6866406
-0.6856449
-0.6844598
-0.682567
-0.691264
-0.6906971
-0.6901712
-0.6897029
-0.6893132
-0.6887779
-0.6878982
-0.6870087
-0.6860798
-0.6850335
-0.6835657
-0.6923893
-0.6918288
-0.6913026
-0.6908254
-0.6904167
-0.6898759
-0.6890228
-0.6881621
-0.6872997
-0.6864143
-0.6854557
-0.6842135
-0.6933661
-0.6928202
-0.6923017
-0.6918236
-0.6914016
-0.6908575
-0.6900226
-0.6891795
-0.6883315
-0.6874859
-0.6866292
-0.685706
-0.6845496
-0.6867818
-0.6855474
-0.6842532
-0.6828885
-0.6814183
-0.6797702
-0.6778624
-0.6755817
-0.6728305
-0.6634133
-0.6878267
-0.6865385
-0.6852073
-0.6838307
-0.6823719
-0.6807582
-0.6788823
-0.6767381
-0.6745038
-0.6731107
-0.6669022
-0.6888317
-0.6875242
-0.6861954
-0.6848638
-0.6835245
-0.6821421
-0.6806754
-0.6791246
-0.6777841
-0.6775206
-0.6765038
-0.6664202
-0.6898016
-0.6885076
-0.6872079
-0.6859394
-0.6847229
-0.6835646
-0.6824623
-0.6814574
-0.6807182
-0.6808665
-0.6805572
-0.6769046
-0.6675263
-0.6907408
-0.6894895
-0.6882416
-0.687043
-0.6859306
-0.6849326
-0.6840773
-0.6834069
-0.6830441
-0.6832939
-0.6831773
-0.6811726
-0.677828
-0.6697555
-0.6916518
-0.6904689
-0.6892927
-0.6881704
-0.6871433
-0.6862496
-0.6855275
-0.6850263
-0.6848219
-0.6850838
-0.6849855
-0.6837087
-0.6819558
-0.6791323
-0.6727184
-0.692535
-0.6914421
-0.690355
-0.6893157
-0.6883626
-0.6875331
-0.6868679
-0.6864145
-0.6862389
-0.686438
-0.6863321
-0.6853746
-0.6842683
-0.6828301
-0.6806362
-0.6748598
-0.6933888
-0.6924031
-0.6914187
-0.6904685
-0.6895828
-0.6887929
-0.6881345
-0.687654
-0.6874157
-0.687515
-0.6873893
-0.6865912
-0.6857521
-0.6848394
-0.6837365
-0.6817505
-0.6760617
-0.6942104
-0.6933434
-0.69247
-0.691612
-0.6907893
-0.6900231
-0.6893399
-0.6887783
-0.6884076
-0.6883597
-0.6882534
-0.6875463
-0.6868514
-0.6861581
-0.6854562
-0.6844248
-0.6823739
-0.6776551
-0.6949959
-0.694251
-0.6934892
-0.6927215
-0.691957
-0.6912049
-0.6904765
-0.6897922
-0.6892031
-0.6888845
-0.6889525
-0.6883549
-0.687775
-0.687224
-0.6867064
-0.6860005
-0.6847867
-0.6830861
-0.6794804
-0.6896459
-0.6891932
-0.6887265
-0.6882767
-0.6878751
-0.6872906
-0.6863202
-0.6852363
-0.6838451
-0.6812705
-0.6909811
-0.6904436
-0.6899376
-0.6894768
-0.6890807
-0.6885291
-0.6876302
-0.6867096
-0.6857221
-0.684547
-0.6826724
-0.6922022
-0.69165
-0.6911304
-0.6906562
-0.6902458
-0.6896977
-0.6888351
-0.6879612
-0.6870787
-0.6861579
-0.6851253
-0.68366
-0.6932745
-0.6927309
-0.6922142
-0.6917369
-0.6913142
-0.6907671
-0.6899283
-0.6890802
-0.6882255
-0.68737
-0.6864967
-0.6855398
-0.684285
-0.6942049
-0.6936771
-0.6931708
-0.6926967
-0.6922677
-0.6917226
-0.6909057
-0.6900751
-0.6892371
-0.688395
-0.6875601
-0.6867045
-0.6857697
-0.6846003
-0.687911
-0.6867527
-0.6855492
-0.6843035
-0.6830054
-0.6816326
-0.6801504
-0.6785684
-0.676975
-0.6757908
-0.6714037
-0.6888969
-0.6876874
-0.6864515
-0.685203
-0.6839419
-0.6826501
-0.6813106
-0.6799393
-0.6787697
-0.6784483
-0.6775949
-0.669369
-0.6898457
-0.688615
-0.6873745
-0.6861543
-0.684973
-0.6838395
-0.6827593
-0.6817804
-0.6810631
-0.6811506
-0.6808586
-0.677663
-0.6692325
-0.6907627
-0.6895416
-0.6883217
-0.6871446
-0.6860447
-0.6850491
-0.6841875
-0.6835052
-0.6831265
-0.6833445
-0.6832246
-0.6813248
-0.6781791
-0.6704827
-0.6916518
-0.6904689
-0.6892927
-0.6881704
-0.6871433
-0.6862496
-0.6855275
-0.6850263
-0.6848219
-0.6850838
-0.6849855
-0.6837087
-0.6819558
-0.6791323
-0.6727184
-0.6925152
-0.6913955
-0.6902841
-0.6892271
-0.6882664
-0.6874421
-0.686796
-0.6863735
-0.6862345
-0.6864663
-0.6863645
-0.6853849
-0.6842367
-0.6827236
-0.6804003
-0.6743291
-0.6933528
-0.6923177
-0.6912888
-0.6903068
-0.6894089
-0.6886319
-0.6880149
-0.6876027
-0.6874471
-0.6876139
-0.6874866
-0.6866651
-0.6857809
-0.6847928
-0.6835688
-0.681354
-0.6750423
-0.6941631
-0.693229
-0.6922966
-0.6913973
-0.6905602
-0.6898151
-0.6891956
-0.6887437
-0.688516
-0.6885865
-0.6884417
-0.6877007
-0.686954
-0.6861845
-0.6853749
-0.6841971
-0.681839
-0.6762298
-0.6949428
-0.6941211
-0.6932934
-0.6924807
-0.6917022
-0.690978
-0.6903326
-0.6898016
-0.6894469
-0.6893851
-0.6892601
-0.6885847
-0.687923
-0.6872788
-0.686647
-0.685838
-0.68449
-0.6824584
-0.6778033
-0.6956883
-0.6949819
-0.6942598
-0.6935325
-0.6928089
-0.6920976
-0.6914097
-0.6907638
-0.6902074
-0.6899003
-0.6899468
-0.6893689
-0.688803
-0.6882586
-0.6877489
-0.687086
-0.6860606
-0.6848556
-0.6831697
-0.6796063
-0.6906506
-0.6902024
-0.6897352
-0.6892778
-0.6888561
-0.6882734
-0.6873505
-0.6863865
-0.6853109
-0.6839308
-0.6813827
-0.6919278
-0.6914034
-0.6909028
-0.6904366
-0.6900219
-0.6894612
-0.6885858
-0.6876925
-0.6867788
-0.6857994
-0.6846383
-0.6827689
-0.6930932
-0.6925576
-0.6920473
-0.6915731
-0.6911494
-0.6905964
-0.68975
-0.6888924
-0.6880244
-0.6871488
-0.68624
-0.6852093
-0.6837321
-0.6941161
-0.6935905
-0.6930861
-0.6926128
-0.6921833
-0.6916357
-0.6908154
-0.6899808
-0.6891378
-0.6882889
-0.6874442
-0.6865719
-0.6856034
-0.6843358
-0.6950027
-0.6944939
-0.6940019
-0.6935353
-0.6931048
-0.692564
-0.6917673
-0.6909541
-0.6901279
-0.6892948
-0.6884623
-0.6876279
-0.686761
-0.6858144
-0.6846289
-0.6760049
-0.6889756
-0.6878848
-0.6867575
-0.6856023
-0.6844213
-0.6832102
-0.6819671
-0.6807065
-0.6795591
-0.6789447
-0.6784975
-0.6730508
-0.6899072
-0.6887673
-0.6876094
-0.6864546
-0.6853166
-0.684205
-0.6831303
-0.6821411
-0.6813859
-0.6813371
-0.6811237
-0.6785748
-0.6717089
-0.6908046
-0.6896426
-0.6884767
-0.6873407
-0.6862631
-0.6852683
-0.6843865
-0.6836673
-0.6832389
-0.683386
-0.683272
-0.681571
-0.6788113
-0.6719105
-0.6916726
-0.6905181
-0.6893679
-0.6882649
-0.6872469
-0.68635
-0.685612
-0.6850845
-0.6848487
-0.6850771
-0.6849753
-0.6837453
-0.6820818
-0.6794218
-0.6733149
-0.6925152
-0.6913955
-0.6902841
-0.6892271
-0.6882664
-0.6874421
-0.686796
-0.6863735
-0.6862345
-0.6864663
-0.6863645
-0.6853849
-0.6842367
-0.6827236
-0.6804003
-0.6743291
-0.693334
-0.6922735
-0.6912217
-0.6902231
-0.6893185
-0.6885472
-0.6879497
-0.6875691
-0.6874505
-0.6876485
-0.6875253
-0.6866931
-0.6857874
-0.6847621
-0.6834772
-0.6811432
-0.6745185
-0.6941289
-0.693148
-0.6921736
-0.6912443
-0.6903959
-0.6896633
-0.6890836
-0.6886971
-0.6885483
-0.6886817
-0.6885358
-0.6877803
-0.6870065
-0.6861926
-0.685316
-0.6840351
-0.6814466
-0.6752239
-0.6948979
-0.6940128
-0.6931292
-0.6922776
-0.6914855
-0.6907809
-0.6901954
-0.6897673
-0.6895457
-0.6895929
-0.6894311
-0.6887273
-0.6880252
-0.6873263
-0.6866206
-0.6857332
-0.6842612
-0.6819273
-0.6763972
-0.6956379
-0.6948591
-0.6940748
-0.693305
-0.692568
-0.6918828
-0.6912724
-0.6907696
-0.6904303
-0.6903583
-0.6902202
-0.6895693
-0.688931
-0.6883087
-0.6877082
-0.6869767
-0.6858929
-0.684555
-0.682543
-0.6779509
-0.696345
-0.6956757
-0.6949913
-0.6943024
-0.6936173
-0.6929446
-0.6922945
-0.6916848
-0.6911592
-0.690865
-0.6908955
-0.6903374
-0.6897839
-0.6892455
-0.6887326
-0.6880902
-0.6871399
-0.6861206
-0.6849244
-0.683253
-0.6797351
-0.6916041
-0.6911632
-0.6906998
-0.6902385
-0.6898033
-0.689218
-0.688328
-0.6874103
-0.6864529
-0.6853853
-0.6840208
-0.6814857
-0.6928268
-0.6923174
-0.6918254
-0.6913592
-0.6909326
-0.6903693
-0.6895132
-0.6886424
-0.6877549
-0.6868479
-0.6858806
-0.6847217
-0.6828429
-0.69394
-0.6934223
-0.692924
-0.692454
-0.692024
-0.6914712
-0.6906446
-0.6898025
-0.6889499
-0.6880876
-0.6872227
-0.686315
-0.6852726
-0.6837834
-0.6949164
-0.6944099
-0.6939196
-0.693454
-0.6930231
-0.6924801
-0.6916804
-0.6908638
-0.6900336
-0.6891955
-0.6883562
-0.6875119
-0.6866282
-0.6856479
-0.6843644
-0.6957617
-0.6952727
-0.6947964
-0.6943401
-0.6939125
-0.6933798
-0.6926057
-0.6918122
-0.6910027
-0.6901807
-0.6893563
-0.6885237
-0.687678
-0.6867998
-0.6858387
-0.6772403
-0.6787425
-0.6766244
-0.6899812
-0.6889514
-0.6878908
-0.6868103
-0.6857168
-0.6846156
-0.6835133
-0.6824385
-0.6814876
-0.6810466
-0.6811169
-0.6793694
-0.6747142
-0.6908627
-0.6897858
-0.6886956
-0.6876156
-0.6865656
-0.6855642
-0.684637
-0.6838323
-0.6832786
-0.6832783
-0.6832195
-0.6817971
-0.6795857
-0.6739567
-0.6917124
-0.6906135
-0.6895135
-0.6884472
-0.6874457
-0.68654
-0.6857657
-0.6851768
-0.6848653
-0.6850198
-0.6849221
-0.6837823
-0.6822908
-0.6799493
-0.6744791
-0.692535
-0.6914421
-0.690355
-0.6893157
-0.6883626
-0.6875331
-0.6868679
-0.6864145
-0.6862389
-0.686438
-0.6863321
-0.6853746
-0.6842683
-0.6828301
-0.6806362
-0.6748598
-0.693334
-0.6922735
-0.6912217
-0.6902231
-0.6893185
-0.6885472
-0.6879497
-0.6875691
-0.6874505
-0.6876485
-0.6875253
-0.6866931
-0.6857874
-0.6847621
-0.6834772
-0.6811432
-0.6745185
-0.6941109
-0.6931062
-0.69211
-0.6911651
-0.6903104
-0.6895835
-0.6890227
-0.6886666
-0.6885535
-0.6887164
-0.6885745
-0.6878132
-0.6870273
-0.6861927
-0.6852839
-0.6839496
-0.6812383
-0.674707
-0.6948653
-0.693936
-0.6930127
-0.6921328
-0.6913299
-0.6906371
-0.6900891
-0.6897225
-0.6895751
-0.6896808
-0.6895179
-0.6888034
-0.6880824
-0.6873542
-0.686606
-0.6856663
-0.6840996
-0.6815389
-0.6754048
-0.6955952
-0.6947566
-0.6939195
-0.6931128
-0.6923628
-0.691696
-0.6911417
-0.6907348
-0.6905193
-0.6905476
-0.6903741
-0.689697
-0.6890243
-0.6883582
-0.6877023
-0.6869226
-0.6857854
-0.6843251
-0.6820155
-0.6765638
-0.6962972
-0.6955597
-0.6948166
-0.6940875
-0.6933897
-0.6927414
-0.6921639
-0.6916878
-0.6913638
-0.6912856
-0.6911388
-0.690511
-0.6898911
-0.6892845
-0.6886951
-0.6880025
-0.6870253
-0.6859477
-0.6846201
-0.6826273
-0.6780997
-0.6969677
-0.6963337
-0.6956857
-0.6950332
-0.6943848
-0.6937486
-0.6931344
-0.6925587
-0.6920625
-0.6917821
-0.6918018
-0.6912636
-0.6907241
-0.690192
-0.6896778
-0.6890436
-0.6881393
-0.6871937
-0.6861806
-0.6849931
-0.6833409
-0.6798531
-0.6925097
-0.6920789
-0.6916222
-0.6911621
-0.6907183
-0.6901346
-0.6892682
-0.6883825
-0.6874701
-0.686519
-0.6854639
-0.6841029
-0.6815656
-0.6936811
-0.6931883
-0.6927075
-0.6922455
-0.6918135
-0.6912519
-0.6904173
-0.6895651
-0.6886992
-0.6878173
-0.6869208
-0.6859546
-0.6847844
-0.6828959
-0.6947453
-0.6942464
-0.6937622
-0.6932998
-0.6928687
-0.6923212
-0.6915159
-0.690693
-0.6898551
-0.6890074
-0.6881546
-0.6872901
-0.6863709
-0.6853168
-0.6838123
-0.6956778
-0.695191
-0.6947165
-0.6942612
-0.6938334
-0.6932987
-0.6925219
-0.6917253
-0.6909124
-0.6900864
-0.6892569
-0.6884175
-0.6875619
-0.6866668
-0.685672
-0.6964839
-0.6960151
-0.6955558
-0.6951119
-0.6946906
-0.6941692
-0.6934189
-0.6926475
-0.6918572
-0.6910514
-0.6902373
-0.6894124
-0.6885685
-0.6877117
-0.6868197
-0.6779477
-0.6793649
-0.6781288
-0.6806083
-0.6798038
-0.6775735
-0.6909325
-0.6899586
-0.688958
-0.6879423
-0.6869205
-0.685901
-0.684896
-0.6839322
-0.6830999
-0.6827106
-0.6829058
-0.6818497
-0.6803107
-0.6763995
-0.6917675
-0.6907485
-0.6897192
-0.6887033
-0.6877223
-0.6867986
-0.6859608
-0.6852589
-0.6847943
-0.6848019
-0.6847538
-0.6837476
-0.6825025
-0.6806156
-0.6761334
-0.6925728
-0.6915323
-0.6904924
-0.6894871
-0.6885476
-0.6877059
-0.6869995
-0.6864776
-0.6862186
-0.6863465
-0.6862427
-0.6853296
-0.6843063
-0.6830145
-0.681074
-0.6758929
-0.6933528
-0.6923177
-0.6912888
-0.6903068
-0.6894089
-0.6886319
-0.6880149
-0.6876027
-0.6874471
-0.6876139
-0.6874866
-0.6866651
-0.6857809
-0.6847928
-0.6835688
-0.681354
-0.6750423
-0.6941109
-0.6931062
-0.69211
-0.6911651
-0.6903104
-0.6895835
-0.6890227
-0.6886666
-0.6885535
-0.6887164
-0.6885745
-0.6878132
-0.6870273
-0.6861927
-0.6852839
-0.6839496
-0.6812383
-0.674707
-0.6948481
-0.6938963
-0.6929526
-0.6920578
-0.6912489
-0.6905616
-0.6900314
-0.6896935
-0.6895798
-0.6897131
-0.6895541
-0.6888358
-0.6881071
-0.6873662
-0.6865985
-0.6856324
-0.6840146
-0.6813332
-0.6748947
-0.6955641
-0.6946839
-0.6938092
-0.6929757
-0.6922154
-0.6915596
-0.6910403
-0.6906911
-0.6905448
-0.6906275
-0.6904528
-0.6897665
-0.6890788
-0.6883907
-0.687705
-0.6868952
-0.6857174
-0.6841639
-0.6816312
-0.6755847
-0.6962566
-0.6954627
-0.6946698
-0.6939057
-0.6931955
-0.6925643
-0.6920394
-0.6916527
-0.691444
-0.6914582
-0.6912772
-0.6906242
-0.6899731
-0.6893289
-0.6886942
-0.6879688
-0.6869679
-0.6858375
-0.6843891
-0.6821035
-0.6767302
-0.6969224
-0.6962243
-0.6955208
-0.6948304
-0.69417
-0.6935566
-0.6930106
-0.6925599
-0.6922516
-0.6921704
-0.6920193
-0.6914138
-0.6908123
-0.6902185
-0.6896376
-0.6889632
-0.6880465
-0.6870737
-0.6860025
-0.684685
-0.682716
-0.6782358
-0.6975574
-0.6969578
-0.6963444
-0.695727
-0.6951135
-0.6945121
-0.6939318
-0.6933886
-0.6929205
-0.6926548
-0.692668
-0.6921504
-0.691626
-0.691103
-0.6905895
-0.6899639
-0.6890889
-0.6881883
-0.6872474
-0.6862403
-0.6850663
-0.683421
-0.679947
-0.6933705
-0.6929518
-0.6925049
-0.6920494
-0.691603
-0.6910236
-0.690181
-0.6893182
-0.6884369
-0.6875297
-0.6865892
-0.6855354
-0.684164
-0.6816241
-0.6944933
-0.6940182
-0.6935508
-0.6930964
-0.692664
-0.6921088
-0.6912964
-0.6904652
-0.6896171
-0.688756
-0.6878834
-0.6869872
-0.6860094
-0.6848277
-0.6829262
-0.6955113
-0.6950319
-0.6945633
-0.6941113
-0.6936835
-0.6931448
-0.6923629
-0.6915608
-0.6907415
-0.6899077
-0.6890686
-0.6882157
-0.6873396
-0.686409
-0.6853403
-0.6964022
-0.6959356
-0.6954781
-0.6950352
-0.6946139
-0.6940906
-0.6933378
-0.6925637
-0.6917703
-0.690961
-0.6901429
-0.6893129
-0.6884622
-0.6875953
-0.6866865
-0.6971711
-0.6967228
-0.6962813
-0.6958515
-0.6954393
-0.6949314
-0.6942059
-0.693458
-0.6926895
-0.6919023
-0.6911038
-0.6902889
-0.6894527
-0.6885978
-0.6877277
-0.6783894
-0.6798539
-0.67896
-0.6810891
-0.6803799
-0.6791237
-0.6822158
-0.6816779
-0.6808466
-0.6787307
-0.6918334
-0.6909114
-0.6899656
-0.6890078
-0.6880478
-0.6870953
-0.6861632
-0.685279
-0.6845187
-0.6841579
-0.6843509
-0.6835485
-0.6826244
-0.6812927
-0.6780991
-0.6926251
-0.69166
-0.6906864
-0.6897277
-0.6888053
-0.6879421
-0.6871675
-0.686527
-0.6861103
-0.6860999
-0.6860403
-0.6852007
-0.6843046
-0.6832267
-0.6816519
-0.6773575
-0.6933888
-0.6924031
-0.6914187
-0.6904685
-0.6895828
-0.6887929
-0.6881345
-0.687654
-0.6874157
-0.687515
-0.6873893
-0.6865912
-0.6857521
-0.6848394
-0.6837365
-0.6817505
-0.6760617
-0.6941289
-0.693148
-0.6921736
-0.6912443
-0.6903959
-0.6896633
-0.6890836
-0.6886971
-0.6885483
-0.6886817
-0.6885358
-0.6877803
-0.6870065
-0.6861926
-0.685316
-0.6840351
-0.6814466
-0.6752239
-0.6948481
-0.6938963
-0.6929526
-0.6920578
-0.6912489
-0.6905616
-0.6900314
-0.6896935
-0.6895798
-0.6897131
-0.6895541
-0.6888358
-0.6881071
-0.6873662
-0.6865985
-0.6856324
-0.6840146
-0.6813332
-0.6748947
-0.6955478
-0.6946462
-0.6937522
-0.6929046
-0.6921387
-0.6914879
-0.6909853
-0.690663
-0.6905484
-0.6906568
-0.6904858
-0.6897966
-0.6891031
-0.6884061
-0.6877073
-0.6868831
-0.6856832
-0.6840794
-0.6814279
-0.6750813
-0.696227
-0.6953938
-0.6945654
-0.6937759
-0.6930559
-0.6924349
-0.6919428
-0.69161
-0.6914657
-0.6915307
-0.6913482
-0.6906865
-0.6900221
-0.68936
-0.6887021
-0.6879578
-0.686939
-0.6857684
-0.6842282
-0.6817231
-0.6757634
-0.6968838
-0.6961326
-0.6953821
-0.6946586
-0.6939864
-0.693389
-0.6928921