/*--------------------------------*- C++ -*----------------------------------*\
| =========                 |                                                 |
| \\      /  F ield         | OpenFOAM: The Open Source CFD Toolbox           |
|  \\    /   O peration     | Version:  2306                                  |
|   \\  /    A nd           | Website:  www.openfoam.com                      |
|    \\/     M anipulation  |                                                 |
\*---------------------------------------------------------------------------*/
FoamFile
{
    version     2.0;
    format      ascii;
    arch        "LSB;label=32;scalar=64";
    class       volScalarField;
    location    "0.9/air";
    object      O2;
}
// * * * * * * * * * * * * * * * * * * * * * * * * * * * * * * * * * * * * * //

dimensions      [0 0 0 0 0 0 0];

internalField   nonuniform List<scalar> 
16000
(
0.2298084
0.229813
0.2290638
0.2297785
0.2298199
0.2291373
0.2297853
0.2273689
0.2289638
0.2297088
0.2298264
0.2292314
0.2297949
0.2274775
0.2290648
0.2297214
0.2254528
0.2272283
0.2286996
0.2295794
0.2298303
0.2293104
0.2298037
0.2276256
0.2291864
0.2297379
0.225568
0.2273705
0.2288426
0.2296049
0.2235004
0.2253007
0.2268761
0.2281967
0.2293433
0.2298303
0.2293543
0.229809
0.2277566
0.2292845
0.2297521
0.2257261
0.2275558
0.2290114
0.2296335
0.2236143
0.2254499
0.2270598
0.2283901
0.2293984
0.2215936
0.2233497
0.2249234
0.2262461
0.2273773
0.2289032
0.1904047
0.2298264
0.2293543
0.229809
0.2278317
0.2293376
0.2297603
0.2258668
0.2277154
0.2291446
0.2296579
0.2237706
0.2256459
0.227296
0.2286238
0.2294603
0.221703
0.2234967
0.2251121
0.2264705
0.2276195
0.2290057
0.2197604
0.2214479
0.2229771
0.2242572
0.2252795
0.2261736
0.2281113
0.1917915
0.1889184
0.1901851
0.2298199
0.2293104
0.2298037
0.2278317
0.2293376
0.2297603
0.225948
0.2278056
0.2292158
0.2296719
0.2239098
0.2258161
0.227497
0.228809
0.2295065
0.221853
0.2236897
0.2253568
0.2267596
0.2279219
0.2291329
0.2198647
0.2215889
0.2231612
0.2244808
0.2255406
0.2264597
0.2282634
0.2180081
0.2196215
0.2210882
0.222323
0.2232528
0.2239263
0.2245231
0.2267889
0.1945926
0.190163
0.1915667
0.1886607
0.1887172
0.1897466
0.229813
0.2292314
0.2297949
0.2277566
0.2292845
0.2297521
0.225948
0.2278056
0.2292158
0.2296719
0.22399
0.2259131
0.2276099
0.2289079
0.2295303
0.2219867
0.2238572
0.2255671
0.2270059
0.2281711
0.2292298
0.2200079
0.2217738
0.2233996
0.2247715
0.2258799
0.2268251
0.2284665
0.2181074
0.2197558
0.2212641
0.2225381
0.2235037
0.2242205
0.2248675
0.2270232
0.2163337
0.2178757
0.2192785
0.2204581
0.2213442
0.2218754
0.222145
0.222339
0.2246636
0.1989104
0.1926713
0.19435
0.1898187
0.1899579
0.1911193
0.1886577
0.1884749
0.1883154
0.1890907
0.2298084
0.2291373
0.2297853
0.2276256
0.2291864
0.2297379
0.2258668
0.2277154
0.2291446
0.2296579
0.22399
0.2259131
0.2276099
0.2289079
0.2295303
0.2220638
0.2239527
0.2256862
0.2271441
0.2283079
0.2292789
0.2201352
0.2219345
0.2236046
0.2250217
0.2261707
0.2271368
0.2286377
0.2182435
0.2199321
0.2214918
0.2228173
0.2238329
0.2246071
0.2253117
0.2273402
0.2164284
0.2180036
0.2194459
0.2206625
0.2215817
0.2221481
0.2224768
0.2227735
0.2251056
0.2147316
0.2162076
0.2175489
0.2186782
0.2195179
0.2200131
0.2201022
0.2198963
0.2195162
0.2212345
0.2051487
0.1965209
0.1986002
0.1921517
0.1924521
0.1938729
0.1897412
0.1896296
0.1895494
0.1904524
0.1886658
0.1884842
0.1881039
0.1877141
0.1882188
0.2290638
0.2297785
0.2274775
0.2290648
0.2297214
0.2257261
0.2275558
0.2290114
0.2296335
0.2239098
0.2258161
0.227497
0.228809
0.2295065
0.2220638
0.2239527
0.2256862
0.2271441
0.2283079
0.2292789
0.2202087
0.222026
0.2237205
0.2251633
0.2263344
0.2273124
0.2287324
0.2183647
0.2200851
0.2216874
0.2230574
0.2241179
0.2249409
0.2256887
0.2276079
0.2165581
0.2181712
0.2196625
0.2209275
0.2218928
0.2225104
0.2229164
0.2233294
0.2256381
0.2148221
0.2163295
0.2177082
0.2188723
0.2197421
0.2202677
0.2204012
0.2202956
0.2201484
0.2223045
0.2131957
0.2146112
0.2158962
0.216977
0.2177832
0.2182436
0.2183141
0.2179138
0.2171207
0.2158653
0.2153048
0.2020381
0.204509
0.1957299
0.1962461
0.1980226
0.1919235
0.1919499
0.1920203
0.1931726
0.1896869
0.1895647
0.1892528
0.1889402
0.1895695
0.1885594
0.1885026
0.1881378
0.1875486
0.1869145
0.1869589
0.2273689
0.2289638
0.2297088
0.225568
0.2273705
0.2288426
0.2296049
0.2237706
0.2256459
0.227296
0.2286238
0.2294603
0.2219867
0.2238572
0.2255671
0.2270059
0.2281711
0.2292298
0.2202087
0.222026
0.2237205
0.2251633
0.2263344
0.2273124
0.2287324
0.2184346
0.2201722
0.2217982
0.2231932
0.2242798
0.2251297
0.2259
0.2277566
0.2166736
0.2183168
0.2198484
0.2211554
0.2221617
0.2228262
0.2232967
0.2237949
0.2260546
0.214946
0.2164893
0.2179142
0.2191239
0.2200356
0.2206049
0.2208019
0.2208177
0.2208958
0.223259
0.2132823
0.2147276
0.2160481
0.2171617
0.217996
0.2184826
0.2185908
0.2182705
0.2176942
0.2170483
0.2184346
0.2117201
0.2130805
0.2143138
0.2153512
0.2161246
0.2165717
0.2166231
0.2162328
0.2152666
0.2136645
0.210882
0.2123462
0.2008531
0.2014873
0.2035556
0.1952693
0.1954775
0.1957324
0.197222
0.1917434
0.1917355
0.1915525
0.1913856
0.1922596
0.1895258
0.1895209
0.1892131
0.1886907
0.1881329
0.1882983
0.1883614
0.1884048
0.1881765
0.1876192
0.1868099
0.1857586
0.1866991
0.2254528
0.2272283
0.2286996
0.2295794
0.2236143
0.2254499
0.2270598
0.2283901
0.2293984
0.221853
0.2236897
0.2253568
0.2267596
0.2279219
0.2291329
0.2201352
0.2219345
0.2236046
0.2250217
0.2261707
0.2271368
0.2286377
0.2184346
0.2201722
0.2217982
0.2231932
0.2242798
0.2251297
0.2259
0.2277566
0.2167401
0.2183996
0.2199537
0.2212844
0.2223143
0.2230061
0.2235118
0.2240533
0.2262764
0.2150562
0.2166279
0.218091
0.2193399
0.2202892
0.2208984
0.221152
0.2212624
0.22149
0.2239043
0.2134009
0.2148802
0.2162443
0.2174008
0.2182739
0.2187991
0.2189606
0.2187414
0.2183802
0.2181534
0.2200831
0.2118031
0.2131919
0.2144589
0.2155273
0.2163269
0.2167982
0.2168821
0.2165631
0.2157864
0.2147516
0.2138069
0.2160326
0.2102996
0.2116096
0.2127958
0.2137931
0.2145387
0.2149706
0.2150323
0.2146447
0.213729
0.2120187
0.2090529
0.2083796
0.210044
0.200057
0.2003462
0.2006603
0.2024462
0.1948955
0.1950344
0.1950056
0.1950173
0.1962321
0.191472
0.1915666
0.1913651
0.1909681
0.1905564
0.1909629
0.1892803
0.1893687
0.1891901
0.1886885
0.1879457
0.1869696
0.1880361
0.1880744
0.1882145
0.1880961
0.1876883
0.1869293
0.185742
0.1855202
0.1864371
0.2235004
0.2253007
0.2268761
0.2281967
0.2293433
0.221703
0.2234967
0.2251121
0.2264705
0.2276195
0.2290057
0.2200079
0.2217738
0.2233996
0.2247715
0.2258799
0.2268251
0.2284665
0.2183647
0.2200851
0.2216874
0.2230574
0.2241179
0.2249409
0.2256887
0.2276079
0.2167401
0.2183996
0.2199537
0.2212844
0.2223143
0.2230061
0.2235118
0.2240533
0.2262764
0.2151198
0.2167068
0.218191
0.2194621
0.220433
0.2210654
0.2213514
0.2215112
0.2218106
0.2242247
0.2135064
0.2150126
0.2164128
0.2176061
0.2185137
0.2190743
0.2192829
0.2191458
0.2189318
0.2189379
0.2210311
0.2119169
0.213338
0.2146464
0.2157553
0.2165911
0.2170976
0.2172283
0.2169977
0.2164107
0.2157688
0.2154697
0.2180388
0.2103794
0.2117165
0.2129348
0.2139615
0.2147318
0.2151861
0.2152778
0.2149543
0.214214
0.2130243
0.2117649
0.2117728
0.2139029
0.2089296
0.2101934
0.2113365
0.2122974
0.2130166
0.2134384
0.2135042
0.2131536
0.2122711
0.2106669
0.207715
0.2067415
0.2064197
0.2081588
0.1994048
0.1995852
0.1995864
0.1996905
0.2012565
0.1944548
0.1946748
0.1945953
0.1943489
0.194129
0.1948873
0.1911306
0.1913048
0.1912183
0.1908204
0.1902047
0.1893767
0.1906957
0.1889508
0.1891309
0.1890556
0.1886964
0.1879932
0.1868722
0.1867298
0.1877718
0.1877224
0.1879342
0.1879209
0.1876339
0.1870387
0.1859318
0.1855217
0.1852798
0.1861728
0.2215936
0.2233497
0.2249234
0.2262461
0.2273773
0.2289032
0.2198647
0.2215889
0.2231612
0.2244808
0.2255406
0.2264597
0.2282634
0.2182435
0.2199321
0.2214918
0.2228173
0.2238329
0.2246071
0.2253117
0.2273402
0.2166736
0.2183168
0.2198484
0.2211554
0.2221617
0.2228262
0.2232967
0.2237949
0.2260546
0.2151198
0.2167068
0.218191
0.2194621
0.220433
0.2210654
0.2213514
0.2215112
0.2218106
0.2242247
0.2135672
0.215088
0.2165081
0.2177222
0.2186496
0.2192309
0.2194661
0.2193734
0.2192309
0.2193393
0.221473
0.2120181
0.2134647
0.2148073
0.215951
0.216819
0.2173575
0.2175299
0.2173698
0.2169143
0.2164941
0.2164821
0.2191649
0.2104888
0.2118567
0.2131144
0.2141794
0.2149838
0.2154708
0.2156054
0.2153619
0.2147942
0.2139635
0.213307
0.2137262
0.2161425
0.2090065
0.2102962
0.2114699
0.2124588
0.2132014
0.2136444
0.2137382
0.2134477
0.212728
0.2116113
0.2102444
0.2098926
0.20996
0.2120362
0.2076064
0.2088273
0.2099309
0.2108582
0.2115537
0.2119646
0.2120396
0.2117145
0.2108995
0.2093736
0.2066159
0.2055597
0.204936
0.2048023
0.2065661
0.1987209
0.1989616
0.1988785
0.1986967
0.1986416
0.1998212
0.1939662
0.1942462
0.1942624
0.1939841
0.1935333
0.192917
0.1946106
0.1907156
0.1909717
0.1909754
0.1907062
0.1901086
0.1891181
0.1891335
0.1904263
0.1885608
0.1888083
0.1888333
0.1885884
0.188042
0.186991
0.1866508
0.1864879
0.1875053
0.1873165
0.1875883
0.1876542
0.1874815
0.1870189
0.1860995
0.185726
0.1852996
0.1850373
0.1859064
0.2197604
0.2214479
0.2229771
0.2242572
0.2252795
0.2261736
0.2281113
0.2181074
0.2197558
0.2212641
0.2225381
0.2235037
0.2242205
0.2248675
0.2270232
0.2165581
0.2181712
0.2196625
0.2209275
0.2218928
0.2225104
0.2229164
0.2233294
0.2256381
0.2150562
0.2166279
0.218091
0.2193399
0.2202892
0.2208984
0.221152
0.2212624
0.22149
0.2239043
0.2135672
0.215088
0.2165081
0.2177222
0.2186496
0.2192309
0.2194661
0.2193734
0.2192309
0.2193393
0.221473
0.2120765
0.2135369
0.2148983
0.2160615
0.2169481
0.2175053
0.2177014
0.2175787
0.2171884
0.2168661
0.2169704
0.2196803
0.2105861
0.2119782
0.2132684
0.2143664
0.2152011
0.215718
0.2158904
0.2157108
0.2152608
0.2146328
0.2142475
0.2148766
0.2174043
0.2091118
0.2104309
0.2116422
0.2126676
0.2134426
0.2139163
0.2140501
0.2138341
0.2132745
0.2124907
0.2116792
0.2117083
0.2121051
0.2144091
0.2076806
0.2089264
0.2100592
0.2110132
0.2117311
0.212162
0.2122636
0.2119951
0.211334
0.2102665
0.2089972
0.2085022
0.2082281
0.2083628
0.210414
0.2063262
0.2075077
0.2085746
0.209471
0.2101444
0.2105459
0.2106265
0.2103313
0.2095667
0.2081467
0.2055428
0.2045882
0.2038783
0.2034507
0.2034233
0.2049896
0.1980215
0.1983024
0.1982979
0.1980513
0.1977361
0.1973657
0.1995273
0.19342
0.1937682
0.1938564
0.1936883
0.193225
0.1924206
0.1926676
0.1943322
0.1902489
0.1905641
0.1906588
0.190491
0.1900369
0.1890956
0.1888942
0.1888884
0.1901549
0.1881204
0.1884245
0.1885245
0.1883892
0.187969
0.1870989
0.1867844
0.1864276
0.186244
0.1872366
0.1868705
0.1871879
0.1873203
0.1872349
0.1868967
0.1861297
0.1859058
0.1855186
0.1850756
0.1847929
0.1855813
0.2180081
0.2196215
0.2210882
0.222323
0.2232528
0.2239263
0.2245231
0.2267889
0.2164284
0.2180036
0.2194459
0.2206625
0.2215817
0.2221481
0.2224768
0.2227735
0.2251056
0.214946
0.2164893
0.2179142
0.2191239
0.2200356
0.2206049
0.2208019
0.2208177
0.2208958
0.223259
0.2135064
0.2150126
0.2164128
0.2176061
0.2185137
0.2190743
0.2192829
0.2191458
0.2189318
0.2189379
0.2210311
0.2120765
0.2135369
0.2148983
0.2160615
0.2169481
0.2175053
0.2177014
0.2175787
0.2171884
0.2168661
0.2169704
0.2196803
0.2106422
0.2120474
0.2133555
0.2144721
0.2153242
0.2158584
0.2160522
0.2159067
0.215514
0.2149764
0.2147019
0.21542
0.2179783
0.2092055
0.2105478
0.21179
0.2128467
0.2136504
0.2141523
0.2143214
0.2141643
0.2137138
0.2131158
0.212553
0.2127792
0.2133635
0.2157611
0.2077822
0.2090561
0.2102249
0.2112137
0.2119623
0.2124225
0.2125619
0.2123636
0.2118532
0.2110976
0.210346
0.2101955
0.2102254
0.2106205
0.2128451
0.2063979
0.2076033
0.2086982
0.2096202
0.2103149
0.2107355
0.2108414
0.2106001
0.2099816
0.2089961
0.2077963
0.2073596
0.2069549
0.2067659
0.2069673
0.2087994
0.2050863
0.2062309
0.2072639
0.2081317
0.2087846
0.2091766
0.2092632
0.2089912
0.2082795
0.2069429
0.2045062
0.2036259
0.2030077
0.202497
0.2021888
0.202044
0.2046695
0.1972874
0.1976241
0.1976754
0.1975213
0.1971586
0.1965693
0.1971044
0.1992329
0.1928359
0.1932313
0.193398
0.1933139
0.1929752
0.1921895
0.1921917
0.1924167
0.1940522
0.1897391
0.1901041
0.1902658
0.1901985
0.1898579
0.1890843
0.1888869
0.1886685
0.1886415
0.1898814
0.187643
0.1879897
0.1881529
0.1881008
0.1878004
0.1870763
0.1869044
0.186576
0.1862025
0.1859981
0.1869088
0.1863925
0.1867469
0.1869309
0.1869192
0.186677
0.1860511
0.1859463
0.1857105
0.1853094
0.1848497
0.1844946
0.1852485
0.2163337
0.2178757
0.2192785
0.2204581
0.2213442
0.2218754
0.222145
0.222339
0.2246636
0.2148221
0.2163295
0.2177082
0.2188723
0.2197421
0.2202677
0.2204012
0.2202956
0.2201484
0.2223045
0.2134009
0.2148802
0.2162443
0.2174008
0.2182739
0.2187991
0.2189606
0.2187414
0.2183802
0.2181534
0.2200831
0.2120181
0.2134647
0.2148073
0.215951
0.216819
0.2173575
0.2175299
0.2173698
0.2169143
0.2164941
0.2164821
0.2191649
0.2106422
0.2120474
0.2133555
0.2144721
0.2153242
0.2158584
0.2160522
0.2159067
0.215514
0.2149764
0.2147019
0.21542
0.2179783
0.2092595
0.2106143
0.2118736
0.2129479
0.2137682
0.2142863
0.2144755
0.2143496
0.2139523
0.2134359
0.2129751
0.2132857
0.2139521
0.2163758
0.2078725
0.2091687
0.210367
0.2113857
0.2121617
0.2126485
0.2128212
0.2126785
0.21227
0.2116881
0.2111658
0.2111931
0.2113987
0.2119528
0.2142427
0.206496
0.2077285
0.2088578
0.2098132
0.2105372
0.2109857
0.2111276
0.210953
0.2104772
0.2097865
0.2090726
0.2089531
0.2088202
0.2088713
0.2092789
0.2112288
0.2051556
0.2063232
0.2073832
0.2082755
0.2089488
0.2093591
0.2094699
0.2092494
0.2086771
0.2077537
0.2066496
0.2062491
0.2059063
0.2055974
0.2054933
0.2055706
0.2084715
0.2038836
0.2049942
0.2059954
0.2068367
0.2074704
0.2078535
0.2079443
0.2076945
0.2070259
0.205771
0.2034718
0.202685
0.2021324
0.2017104
0.2013252
0.2009323
0.2017638
0.2043513
0.1965352
0.1969088
0.1970289
0.1969419
0.1966835
0.1960751
0.1963304
0.1968425
0.1989381
0.1922196
0.1926555
0.1928785
0.1928828
0.1926399
0.1920026
0.1919765
0.1919614
0.1921642
0.1937704
0.1891984
0.1896003
0.1898188
0.1898268
0.1895969
0.1889568
0.188888
0.1886765
0.1884411
0.1883926
0.1895479
0.1871361
0.1875174
0.1877293
0.1877477
0.1875391
0.1869517
0.1868922
0.1867083
0.1863659
0.1859756
0.1856982
0.1865732
0.1858902
0.1862735
0.1865
0.1865462
0.1863853
0.1858702
0.1858767
0.1857614
0.1855135
0.1850984
0.1845742
0.1841894
0.1849951
0.2147316
0.2162076
0.2175489
0.2186782
0.2195179
0.2200131
0.2201022
0.2198963
0.2195162
0.2212345
0.2132823
0.2147276
0.2160481
0.2171617
0.217996
0.2184826
0.2185908
0.2182705
0.2176942
0.2170483
0.2184346
0.2119169
0.213338
0.2146464
0.2157553
0.2165911
0.2170976
0.2172283
0.2169977
0.2164107
0.2157688
0.2154697
0.2180388
0.2105861
0.2119782
0.2132684
0.2143664
0.2152011
0.215718
0.2158904
0.2157108
0.2152608
0.2146328
0.2142475
0.2148766
0.2174043
0.2092595
0.2106143
0.2118736
0.2129479
0.2137682
0.2142863
0.2144755
0.2143496
0.2139523
0.2134359
0.2129751
0.2132857
0.2139521
0.2163758
0.2079246
0.2092327
0.2104474
0.2114829
0.2122745
0.2127768
0.2129684
0.2128551
0.212496
0.2119904
0.2115612
0.2116647
0.2119483
0.2125741
0.2148788
0.2065833
0.207837
0.2089947
0.2099786
0.2107287
0.2112026
0.2113763
0.2112544
0.2108751
0.2103475
0.209848
0.2098907
0.2099152
0.2101157
0.2106517
0.2126294
0.2052506
0.2064442
0.2075373
0.2084614
0.2091629
0.2095998
0.2097451
0.2095883
0.2091519
0.2085083
0.2078635
0.2077574
0.2076629
0.2075657
0.2076523
0.2078918
0.2109
0.2039507
0.2050835
0.2061107
0.2069755
0.2076288
0.2080295
0.2081434
0.2079431
0.2074078
0.2065475
0.2055171
0.2051799
0.2048764
0.2046323
0.2044177
0.2042262
0.2052869
0.2081457
0.2027162
0.2037943
0.2047663
0.2055826
0.2061985
0.206573
0.2066674
0.2064363
0.205808
0.2046219
0.2024512
0.2017357
0.2012666
0.200907
0.2006109
0.2001605
0.2006771
0.2014852
0.2040352
0.1957665
0.1961734
0.1963417
0.1963326
0.1961506
0.195667
0.1958532
0.196091
0.1965802
0.1986429
0.1915818
0.1920467
0.1923183
0.1923875
0.1922427
0.1917206
0.1918024
0.1917621
0.1917296
0.1919101
0.1934275
0.1886334
0.189065
0.1893267
0.189399
0.1892531
0.1887406
0.1887711
0.1886901
0.1884644
0.1882119
0.1880891
0.1892064
0.1866072
0.1870152
0.1872672
0.1873407
0.1872103
0.1867295
0.1867767
0.1867066
0.1865105
0.1861541
0.1856987
0.1853912
0.1863176
0.1853689
0.1857754
0.1860358
0.1861303
0.1860342
0.1856134
0.1857038
0.1857009
0.1855749
0.1853149
0.184841
0.1842923
0.1839573
0.184823
0.2131957
0.2146112
0.2158962
0.216977
0.2177832
0.2182436
0.2183141
0.2179138
0.2171207
0.2158653
0.2153048
0.2118031
0.2131919
0.2144589
0.2155273
0.2163269
0.2167982
0.2168821
0.2165631
0.2157864
0.2147516
0.2138069
0.2160326
0.2104888
0.2118567
0.2131144
0.2141794
0.2149838
0.2154708
0.2156054
0.2153619
0.2147942
0.2139635
0.213307
0.2137262
0.2161425
0.2092055
0.2105478
0.21179
0.2128467
0.2136504
0.2141523
0.2143214
0.2141643
0.2137138
0.2131158
0.212553
0.2127792
0.2133635
0.2157611
0.2079246
0.2092327
0.2104474
0.2114829
0.2122745
0.2127768
0.2129684
0.2128551
0.212496
0.2119904
0.2115612
0.2116647
0.2119483
0.2125741
0.2148788
0.2066336
0.2078988
0.2090721
0.2100721
0.2108372
0.2113257
0.2115174
0.2114233
0.2110908
0.2106347
0.210222
0.2103334
0.2104278
0.2106966
0.2112915
0.2132671
0.205335
0.206549
0.2076694
0.2086209
0.2093473
0.2098085
0.2099841
0.2098776
0.2095329
0.2090441
0.2086009
0.2086448
0.2086931
0.2087285
0.2089367
0.2092739
0.2123008
0.2040427
0.2052005
0.2062595
0.207155
0.2078352
0.2082615
0.2084085
0.2082692
0.2078638
0.2072703
0.2066759
0.2066147
0.2065395
0.2064868
0.2064379
0.2063985
0.2076096
0.2105727
0.2027813
0.2038809
0.2048779
0.2057168
0.2063516
0.206743
0.2068596
0.206676
0.2061756
0.2053672
0.2044088
0.2041164
0.2038765
0.2036735
0.2035263
0.2032456
0.2039689
0.205005
0.207822
0.201581
0.2026296
0.2035737
0.204367
0.2049659
0.2053324
0.2054294
0.2052152
0.2046218
0.203499
0.2014392
0.200791
0.2003838
0.2001031
0.1998689
0.1995195
0.199924
0.2004235
0.2012083
0.2037211
0.1949899
0.1954198
0.1956314
0.1956783
0.1955815
0.1951908
0.1954588
0.1956309
0.1958512
0.1963175
0.1982851
0.1909277
0.1914158
0.1917235
0.1918489
0.1917774
0.1913697
0.1915314
0.1916011
0.1915464
0.1914964
0.1916008
0.1930762
0.1880509
0.188505
0.1888022
0.1889243
0.1888504
0.1884366
0.1885641
0.1885839
0.1884907
0.1882507
0.1879324
0.1877786
0.1889464
0.1860612
0.1864906
0.1867744
0.1868938
0.1868254
0.1864358
0.1865626
0.1866002
0.1865194
0.1863112
0.1858956
0.1854156
0.1851577
0.186144
0.1848329
0.1852581
0.1855462
0.1856799
0.1856382
0.1852939
0.1854543
0.1855361
0.1855236
0.1853868
0.1850726
0.1845779
0.1840781
0.1837997
0.1847349
0.2051487
0.2117201
0.2130805
0.2143138
0.2153512
0.2161246
0.2165717
0.2166231
0.2162328
0.2152666
0.2136645
0.210882
0.2123462
0.2103794
0.2117165
0.2129348
0.2139615
0.2147318
0.2151861
0.2152778
0.2149543
0.214214
0.2130243
0.2117649
0.2117728
0.2139029
0.2091118
0.2104309
0.2116422
0.2126676
0.2134426
0.2139163
0.2140501
0.2138341
0.2132745
0.2124907
0.2116792
0.2117083
0.2121051
0.2144091
0.2078725
0.2091687
0.210367
0.2113857
0.2121617
0.2126485
0.2128212
0.2126785
0.21227
0.2116881
0.2111658
0.2111931
0.2113987
0.2119528
0.2142427
0.2066336
0.2078988
0.2090721
0.2100721
0.2108372
0.2113257
0.2115174
0.2114233
0.2110908
0.2106347
0.210222
0.2103334
0.2104278
0.2106966
0.2112915
0.2132671
0.2053837
0.2066087
0.207744
0.208711
0.2094517
0.209927
0.2101197
0.2100398
0.2097394
0.2093183
0.2089564
0.2090637
0.209175
0.2092711
0.209536
0.2099182
0.2129387
0.2041245
0.2053019
0.2063872
0.2073089
0.2080131
0.2084626
0.2086387
0.2085475
0.2082297
0.2077834
0.2073799
0.2074588
0.2075148
0.2075816
0.2076392
0.2076944
0.2089933
0.2119734
0.2028705
0.2039942
0.2050219
0.2058904
0.206551
0.2069669
0.2071154
0.2069904
0.2066145
0.2060611
0.2055183
0.205486
0.2054587
0.2054297
0.2054305
0.2052799
0.2061435
0.2073288
0.210247
0.2016442
0.2027135
0.2036818
0.2044969
0.205114
0.2054967
0.2056152
0.2054467
0.2049762
0.2042159
0.2033171
0.2030695
0.2028743
0.2027348
0.2026298
0.2024291
0.2030076
0.2037133
0.2047248
0.2075004
0.2004773
0.201497
0.2024157
0.2031868
0.2037703
0.2041287
0.2042281
0.2040287
0.2034669
0.2023998
0.200441
0.1998477
0.1994985
0.1992752
0.1991179
0.1988391
0.1992979
0.1996889
0.2001714
0.2009331
0.2033434
0.1942085
0.194657
0.1949004
0.1949973
0.1949627
0.1946706
0.1949942
0.1952503
0.1954082
0.195611
0.1959989
0.1979186
0.1902631
0.190768
0.1911054
0.1912736
0.1912656
0.1909453
0.1911901
0.1913411
0.1913985
0.1913294
0.1912125
0.1912843
0.1928087
0.1874553
0.1879271
0.1882521
0.1884156
0.1883983
0.1880695
0.1882683
0.1883863
0.1883953
0.1882898
0.1879902
0.1876465
0.1875422
0.1887696
0.1855024
0.1859487
0.1862584
0.1864149
0.1863986
0.1860828
0.1862761
0.1863943
0.1864223
0.1863307
0.186068
0.1856314
0.1852003
0.1849992
0.1860551
0.1842855
0.1847258
0.1850367
0.1852029
0.1852061
0.1849268
0.1851413
0.1852937
0.1853669
0.1853448
0.1851574
0.1848249
0.1843779
0.1839327
0.1837191
0.1989104
0.2020381
0.204509
0.2102996
0.2116096
0.2127958
0.2137931
0.2145387
0.2149706
0.2150323
0.2146447
0.213729
0.2120187
0.2090529
0.2083796
0.210044
0.2090065
0.2102962
0.2114699
0.2124588
0.2132014
0.2136444
0.2137382
0.2134477
0.212728
0.2116113
0.2102444
0.2098926
0.20996
0.2120362
0.2077822
0.2090561
0.2102249
0.2112137
0.2119623
0.2124225
0.2125619
0.2123636
0.2118532
0.2110976
0.210346
0.2101955
0.2102254
0.2106205
0.2128451
0.2065833
0.207837
0.2089947
0.2099786
0.2107287
0.2112026
0.2113763
0.2112544
0.2108751
0.2103475
0.209848
0.2098907
0.2099152
0.2101157
0.2106517
0.2126294
0.2053837
0.2066087
0.207744
0.208711
0.2094517
0.209927
0.2101197
0.2100398
0.2097394
0.2093183
0.2089564
0.2090637
0.209175
0.2092711
0.209536
0.2099182
0.2129387
0.2041716
0.2053596
0.2064593
0.2073959
0.2081138
0.2085768
0.2087693
0.2087035
0.208428
0.2080459
0.2077193
0.2078572
0.207971
0.2080923
0.2081996
0.2082995
0.2096385
0.2126111
0.2029498
0.2040924
0.2051454
0.2060391
0.2067228
0.2071611
0.2073374
0.2072586
0.2069666
0.2065537
0.2061924
0.2062917
0.2063865
0.2064665
0.2065623
0.2064933
0.2074415
0.2087138
0.211647
0.2017308
0.2028234
0.2038213
0.2046649
0.2053069
0.2057132
0.2058623
0.2057502
0.2053993
0.2048835
0.2043819
0.2043807
0.2043845
0.2044056
0.2044334
0.2043475
0.2050445
0.2058898
0.2070493
0.2099229
0.2005388
0.2015785
0.2025205
0.2033128
0.2039137
0.2042877
0.2044079
0.2042525
0.2038091
0.2030906
0.2022464
0.2020334
0.2018821
0.2017866
0.2017445
0.2015951
0.2022063
0.2027712
0.2034594
0.2044465
0.2071137
0.1994016
0.2003957
0.2012893
0.2020405
0.2026088
0.2029599
0.2030609
0.202875
0.2023415
0.2013249
0.1994562
0.1989121
0.198609
0.1984389
0.1983367
0.198141
0.1986299
0.1990776
0.1994554
0.1999209
0.200602
0.2029566
0.1934265
0.1938882
0.1941582
0.1942929
0.1943134
0.1940949
0.194484
0.1947973
0.1950414
0.1951852
0.1953199
0.1956729
0.1976393
0.1895916
0.1901092
0.1904694
0.1906733
0.1907147
0.1904702
0.1907741
0.1910093
0.1911496
0.1911946
0.1910652
0.1909221
0.1910434
0.1926267
0.1868504
0.1873359
0.1876833
0.18788
0.1879103
0.1876497
0.1879085
0.1880987
0.1882071
0.1882052
0.1880447
0.1877237
0.1874291
0.1873818
0.1886791
0.1849336
0.1853936
0.1857244
0.1859118
0.1859383
0.185685
0.1859296
0.1861151
0.1862246
0.1862429
0.1861006
0.1858194
0.1854306
0.1850542
0.1849182
0.1837292
0.1841817
0.1845117
0.1847052
0.1847461
0.1845212
0.1847801
0.1849873
0.1851319
0.1851963
0.1851266
0.1849229
0.1846367
0.1842423
0.1838585
0.1945926
0.1965209
0.1986002
0.2008531
0.2014873
0.2035556
0.2089296
0.2101934
0.2113365
0.2122974
0.2130166
0.2134384
0.2135042
0.2131536
0.2122711
0.2106669
0.207715
0.2067415
0.2064197
0.2081588
0.2076806
0.2089264
0.2100592
0.2110132
0.2117311
0.212162
0.2122636
0.2119951
0.211334
0.2102665
0.2089972
0.2085022
0.2082281
0.2083628
0.210414
0.206496
0.2077285
0.2088578
0.2098132
0.2105372
0.2109857
0.2111276
0.210953
0.2104772
0.2097865
0.2090726
0.2089531
0.2088202
0.2088713
0.2092789
0.2112288
0.205335
0.206549
0.2076694
0.2086209
0.2093473
0.2098085
0.2099841
0.2098776
0.2095329
0.2090441
0.2086009
0.2086448
0.2086931
0.2087285
0.2089367
0.2092739
0.2123008
0.2041716
0.2053596
0.2064593
0.2073959
0.2081138
0.2085768
0.2087693
0.2087035
0.208428
0.2080459
0.2077193
0.2078572
0.207971
0.2080923
0.2081996
0.2082995
0.2096385
0.2126111
0.2029955
0.2041483
0.2052152
0.2061231
0.20682
0.2072712
0.2074634
0.2074089
0.2071574
0.2068059
0.2065174
0.2066721
0.2068205
0.2069501
0.2070901
0.2070597
0.2080476
0.2093596
0.2122845
0.2018077
0.2029187
0.2039409
0.2048089
0.205473
0.2059008
0.2060769
0.2060091
0.2057387
0.2053574
0.205029
0.2051522
0.2052703
0.2053921
0.2055055
0.2054913
0.2062601
0.2071896
0.2084353
0.2113218
0.2006229
0.2016852
0.2026559
0.2034756
0.2041005
0.2044973
0.204647
0.204546
0.2042176
0.2037339
0.2032704
0.2032916
0.2033279
0.2033815
0.2034606
0.2034127
0.2041273
0.2048103
0.2056374
0.2067713
0.2095325
0.1994613
0.2004749
0.2013911
0.2021627
0.2027478
0.2031141
0.2032351
0.2030917
0.2026724
0.2019916
0.2011949
0.2010132
0.2008955
0.2008425
0.2008434
0.2007634
0.2013851
0.2019851
0.2025363
0.2032072
0.2041118
0.2067176
0.1983545
0.1993222
0.2001939
0.2009252
0.2014799
0.2018235
0.2019261
0.201752
0.2012445
0.2002736
0.1984868
0.1979846
0.1977222
0.1975936
0.197542
0.1974064
0.1979426
0.1984221
0.1988588
0.1992233
0.1996196
0.2002631
0.2026618
0.1926462
0.1931178
0.1934083
0.1935749
0.1936377
0.1934842
0.1939172
0.1942972
0.1946
0.1948322
0.1949148
0.195022
0.1954247
0.1974494
0.188916
0.189443
0.1898213
0.1900536
0.1901364
0.1899523
0.1903065
0.1906018
0.1908275
0.190957
0.1909465
0.190795
0.1907012
0.1908797
0.1925335
0.1862387
0.1867349
0.1871005
0.1873246
0.1873937
0.1871911
0.1874954
0.1877464
0.1879278
0.1880264
0.1879734
0.1877943
0.1875212
0.1872816
0.1872997
0.1843575
0.1848283
0.1851767
0.1853898
0.1854522
0.1852513
0.1855379
0.1857752
0.1859528
0.1860535
0.1860241
0.1858653
0.1856305
0.1852944
0.1849797
0.1831662
0.1836287
0.1839745
0.1841912
0.1842641
0.1840857
0.18438
0.1846322
0.1848321
0.1849687
0.1849881
0.1849037
0.1847448
0.1845091
0.1841731
0.1917915
0.1926713
0.19435
0.1957299
0.1962461
0.1980226
0.200057
0.2003462
0.2006603
0.2024462
0.2076064
0.2088273
0.2099309
0.2108582
0.2115537
0.2119646
0.2120396
0.2117145
0.2108995
0.2093736
0.2066159
0.2055597
0.204936
0.2048023
0.2065661
0.2063979
0.2076033
0.2086982
0.2096202
0.2103149
0.2107355
0.2108414
0.2106001
0.2099816
0.2089961
0.2077963
0.2073596
0.2069549
0.2067659
0.2069673
0.2087994
0.2052506
0.2064442
0.2075373
0.2084614
0.2091629
0.2095998
0.2097451
0.2095883
0.2091519
0.2085083
0.2078635
0.2077574
0.2076629
0.2075657
0.2076523
0.2078918
0.2109
0.2041245
0.2053019
0.2063872
0.2073089
0.2080131
0.2084626
0.2086387
0.2085475
0.2082297
0.2077834
0.2073799
0.2074588
0.2075148
0.2075816
0.2076392
0.2076944
0.2089933
0.2119734
0.2029955
0.2041483
0.2052152
0.2061231
0.20682
0.2072712
0.2074634
0.2074089
0.2071574
0.2068059
0.2065174
0.2066721
0.2068205
0.2069501
0.2070901
0.2070597
0.2080476
0.2093596
0.2122845
0.2018521
0.2029729
0.2040085
0.2048902
0.205567
0.2060073
0.2061985
0.2061542
0.2059226
0.2055999
0.205341
0.2055165
0.2056847
0.2058521
0.2060054
0.206025
0.2068276
0.2077966
0.2090816
0.2119589
0.2006977
0.2017776
0.2027719
0.2036151
0.2042614
0.2046789
0.2048545
0.2047962
0.2045453
0.2041906
0.2038928
0.2040321
0.204176
0.2043232
0.2044807
0.2044963
0.2052733
0.2060278
0.2069387
0.2081579
0.2109297
0.1995431
0.2005786
0.2015225
0.2023207
0.2029289
0.2033172
0.2034667
0.2033757
0.2030673
0.2026125
0.2021814
0.2022231
0.2022828
0.2023693
0.2024816
0.2024929
0.2032051
0.2039083
0.2045773
0.2053864
0.2064364
0.2091326
0.1984126
0.1993992
0.2002929
0.2010438
0.2016148
0.2019731
0.202095
0.2019621
0.2015648
0.2009179
0.200164
0.2000081
0.1999203
0.1998993
0.1999413
0.1999093
0.2005642
0.2011764
0.2017653
0.2023031
0.202904
0.2037691
0.2064157
0.1973312
0.1982772
0.1991259
0.19984
0.2003808
0.2007181
0.2008214
0.2006585
0.2001742
0.1992453
0.197533
0.197068
0.1968396
0.196747
0.1967343
0.1966533
0.1972175
0.1977455
0.1982156
0.1986414
0.1989441
0.1993114
0.2000051
0.2024613
0.1918697
0.1923483
0.1926553
0.192847
0.1929456
0.1928432
0.1933143
0.1937391
0.19411
0.1944025
0.1945786
0.1946383
0.1947954
0.1952561
0.1973521
0.1882385
0.1887724
0.1891651
0.1894206
0.189537
0.1894043
0.1897955
0.1901418
0.1904285
0.1906445
0.1907224
0.1906928
0.1905896
0.1905513
0.190796
0.1856225
0.1861269
0.1865073
0.1867541
0.1868557
0.1867015
0.1870429
0.1873399
0.1875829
0.1877556
0.1878062
0.1877365
0.1876039
0.1873838
0.1872063
0.1837758
0.1842554
0.1846184
0.1848531
0.1849459
0.1847898
0.1851096
0.1853895
0.1856196
0.1857891
0.1858447
0.1858005
0.1856866
0.1855025
0.185225
0.1825982
0.1830686
0.1834278
0.1836641
0.1837646
0.1836263
0.1839495
0.1842376
0.184483
0.1846756
0.1847695
0.1847755
0.1847344
0.1846242
0.1844441
0.1904047
0.190163
0.1915667
0.1921517
0.1924521
0.1938729
0.1952693
0.1954775
0.1957324
0.197222
0.1994048
0.1995852
0.1995864
0.1996905
0.2012565
0.2063262
0.2075077
0.2085746
0.209471
0.2101444
0.2105459
0.2106265
0.2103313
0.2095667
0.2081467
0.2055428
0.2045882
0.2038783
0.2034507
0.2034233
0.2049896
0.2051556
0.2063232
0.2073832
0.2082755
0.2089488
0.2093591
0.2094699
0.2092494
0.2086771
0.2077537
0.2066496
0.2062491
0.2059063
0.2055974
0.2054933
0.2055706
0.2084715
0.2040427
0.2052005
0.2062595
0.207155
0.2078352
0.2082615
0.2084085
0.2082692
0.2078638
0.2072703
0.2066759
0.2066147
0.2065395
0.2064868
0.2064379
0.2063985
0.2076096
0.2105727
0.2029498
0.2040924
0.2051454
0.2060391
0.2067228
0.2071611
0.2073374
0.2072586
0.2069666
0.2065537
0.2061924
0.2062917
0.2063865
0.2064665
0.2065623
0.2064933
0.2074415
0.2087138
0.211647
0.2018521
0.2029729
0.2040085
0.2048902
0.205567
0.2060073
0.2061985
0.2061542
0.2059226
0.2055999
0.205341
0.2055165
0.2056847
0.2058521
0.2060054
0.206025
0.2068276
0.2077966
0.2090816
0.2119589
0.2007408
0.2018303
0.2028374
0.2036939
0.2043524
0.204782
0.2049722
0.2049365
0.2047228
0.2044244
0.2041928
0.2043817
0.2045727
0.2047625
0.2049564
0.205002
0.2058081
0.2065962
0.2075464
0.2088045
0.2115659
0.1996159