/*--------------------------------*- C++ -*----------------------------------*\
| =========                 |                                                 |
| \\      /  F ield         | OpenFOAM: The Open Source CFD Toolbox           |
|  \\    /   O peration     | Version:  2306                                  |
|   \\  /    A nd           | Website:  www.openfoam.com                      |
|    \\/     M anipulation  |                                                 |
\*---------------------------------------------------------------------------*/
FoamFile
{
    version     2.0;
    format      ascii;
    arch        "LSB;label=32;scalar=64";
    class       volVectorField;
    location    "0.9/air";
    object      U;
}
// * * * * * * * * * * * * * * * * * * * * * * * * * * * * * * * * * * * * * //

dimensions      [0 1 -1 0 0 0 0];

internalField   nonuniform List<vector> 
16000
(
(0.4805997 0.06611447 -0.06625573)
(0.8322206 0.1237392 -0.1021203)
(0.5038338 0.006223001 -0.006028132)
(0.8324485 0.1016712 -0.1253161)
(0.9782997 0.1061957 -0.1024957)
(0.9826075 0.01553283 -0.01141154)
(1.613152 0.2063909 -0.2105341)
(0.3506432 -0.002173125 0.002197229)
(0.9828426 0.0116271 -0.01486517)
(0.9790295 0.1018259 -0.1103607)
(1.035033 0.06668396 -0.1002183)
(1.238789 0.01570028 -0.01206232)
(1.99045 0.1920822 -0.2300663)
(0.7264599 -0.00302472 0.003708129)
(2.149725 0.03144854 -0.03084614)
(1.991707 0.2240056 -0.2022863)
(0.4176162 0.001297524 -0.001294227)
(0.7267379 -0.003679793 0.003111587)
(1.239919 0.01219819 -0.01483217)
(1.036547 0.09933349 -0.07434449)
(1.055149 0.02238567 -0.0986198)
(1.383474 0.01045257 -0.01172338)
(2.132598 0.1284752 -0.2345141)
(0.9502858 -0.00290642 0.00398215)
(2.831199 0.03786579 -0.03916569)
(2.474226 0.2216943 -0.2366213)
(0.8492382 0.002147562 -0.00231009)
(1.672551 -0.005250689 0.005328646)
(2.833416 0.03908253 -0.03762649)
(2.136121 0.2266964 -0.1467948)
(0.3809085 -0.0006548602 0.0006635535)
(0.8495008 0.002282201 -0.002244612)
(0.951644 -0.003971561 0.003009158)
(1.38663 0.01174486 -0.009712504)
(1.057966 0.09739258 -0.03427432)
(1.055149 -0.02238567 -0.0986198)
(1.446912 0.003755074 -0.01165634)
(2.18618 0.04429524 -0.2327749)
(1.078614 -0.001988747 0.004215913)
(3.238108 0.0269608 -0.03771832)
(2.690895 0.1512656 -0.243701)
(1.099389 0.002091227 -0.002511888)
(2.283539 -0.005105106 0.00606319)
(3.845505 0.04543254 -0.046464)
(2.694022 0.2253205 -0.1769771)
(0.7834294 -0.001130489 0.001140264)
(1.925302 0.003678672 -0.004018353)
(2.286173 -0.006136086 0.005131588)
(3.245991 0.03687981 -0.0274878)
(2.193556 0.2231287 -0.0715351)
(0.4012552 0.0004035892 -0.0003951566)
(0.7836821 -0.001158533 0.001066882)
(1.100712 0.002453924 -0.002422478)
(1.082338 -0.004245605 0.001986037)
(1.453807 0.01152186 -0.003579917)
(1.060438 0.09682626 0.005355338)
(0.0005742002 -0.001136292 -0.0005390697)
(1.035033 -0.06668396 -0.1002183)
(1.446912 -0.003755074 -0.01165634)
(2.18618 -0.04429524 -0.2327749)
(1.138667 -0.0006721436 0.004301237)
(3.417068 0.009941939 -0.03703107)
(2.770774 0.05309373 -0.2432029)
(1.242538 0.001356461 -0.002504551)
(2.650452 -0.003393019 0.006497727)
(4.42513 0.03564248 -0.04934472)
(2.94951 0.1557951 -0.1863597)
(1.0214 -0.001113037 0.001225166)
(2.603193 0.003671515 -0.004466048)
(3.186245 -0.00589416 0.005628502)
(4.432933 0.04667437 -0.0384645)
(2.77949 0.2218661 -0.09000016)
(0.820603 0.0006427674 -0.0007246606)
(1.795379 -0.002116036 0.001840459)
(2.605835 0.003907852 -0.004560071)
(2.659496 -0.006855857 0.003171534)
(3.435702 0.03519053 -0.01202952)
(2.200776 0.2208889 0.007660085)
(0.3903199 -0.0001740863 0.0001842415)
(0.8208605 0.0007014754 -0.0007216584)
(1.022677 -0.001271538 0.0008568898)
(1.246235 0.002414306 -0.002046119)
(1.146545 -0.004404129 0.0003616385)
(1.460102 0.01128809 0.002877995)
(1.045271 0.09759132 0.04358673)
(0.0005895713 -0.003288046 -0.0005576744)
(0.0006071926 -0.0009916859 -0.0004945064)
(0.0005792055 -0.001138751 -0.001047844)
(0.9782997 -0.1061957 -0.1024957)
(1.383474 -0.01045257 -0.01172338)
(2.132598 -0.1284752 -0.2345141)
(1.138667 0.0006721436 0.004301237)
(3.417068 -0.009941939 -0.03703107)
(2.770774 -0.05309373 -0.2432029)
(1.308424 0.0004583127 -0.002483501)
(2.822549 -0.001124838 0.00677492)
(4.686108 0.01330263 -0.049428)
(3.043401 0.05513994 -0.187753)
(1.159633 -0.000736133 0.001234402)
(3.004189 0.002440419 -0.004405474)
(3.738203 -0.003619263 0.005706421)
(5.120635 0.03736892 -0.04249659)
(3.049776 0.1538836 -0.09753401)
(1.066191 0.0006157038 -0.0008090375)
(2.444068 -0.002216704 0.002091674)
(3.597428 0.003900782 -0.00520889)
(3.747 -0.006457909 0.003001306)
(4.709809 0.04503036 -0.01837536)
(2.789959 0.2190956 0.005805465)
(0.8008949 -0.0003075181 0.0002933842)
(1.87045 0.001044451 -0.001369236)
(2.446627 -0.002568917 0.001464636)
(3.013358 0.003626315 -0.004076917)
(2.843239 -0.007582114 0.0003494228)
(3.453951 0.03405837 0.005821238)
(2.161359 0.2202679 0.08313068)
(0.3962489 0.000140132 -0.0001309233)
(0.80115 -0.0003106634 0.0002485796)
(1.067487 0.0007542856 -0.0009179212)
(1.163203 -0.001310568 0.0001780756)
(1.316326 0.002339452 -0.001658026)
(1.152942 -0.004541797 -0.001627411)
(1.406765 0.01103378 0.008058961)
(0.9985694 0.09934867 0.07704784)
(0.00061659 -0.005935765 -0.0005996769)
(0.0006276885 -0.00287135 -0.0005093465)
(0.0005946163 -0.003300714 -0.001092258)
(0.0003985077 -0.0009408172 -0.000457836)
(0.0006109459 -0.0009943851 -0.0009608045)
(0.0005767788 -0.001132092 -0.002862726)
(0.8322206 -0.1237392 -0.1021203)
(1.238789 -0.01570028 -0.01206232)
(1.99045 -0.1920822 -0.2300663)
(1.078614 0.001988747 0.004215913)
(3.238108 -0.0269608 -0.03771832)
(2.690895 -0.1512656 -0.243701)
(1.308424 -0.0004583127 -0.002483501)
(2.822549 0.001124838 0.006774921)
(4.686108 -0.01330263 -0.049428)
(3.043401 -0.05513994 -0.187753)
(1.223829 -0.0002540743 0.001238876)
(3.191092 0.0008389684 -0.00428657)
(3.999431 -0.001160953 0.005844641)
(5.432387 0.01410459 -0.04335983)
(3.148878 0.05459208 -0.09974765)
(1.207929 0.0003907546 -0.0008235113)
(2.833014 -0.00154349 0.00220332)
(4.1979 0.002602512 -0.005204178)
(4.422369 -0.003900144 0.00274362)
(5.450812 0.03629144 -0.0215949)
(3.062313 0.1517445 0.00286113)
(1.042723 -0.0002981445 0.0002955613)
(2.537901 0.001017059 -0.001605018)
(3.400189 -0.002806551 0.001661348)
(4.20691 0.003535445 -0.004814552)
(4.025418 -0.00726371 -6.527163e-06)
(4.73738 0.04344646 0.005983043)
(2.72997 0.217854 0.09654309)
(0.811681 0.0002207109 -0.0002601745)
(1.831288 -0.0006145498 0.0003403676)
(2.540491 0.001053494 -0.001893018)
(2.841898 -0.002878234 0.0001398149)
(3.212146 0.003200624 -0.003430564)
(2.861309 -0.008245032 -0.002867906)
(3.304134 0.03362903 0.02076868)
(2.046836 0.2146548 0.1420407)
(0.3929133 -3.419341e-05 4.340413e-05)
(0.8119373 0.0002416689 -0.0002834936)
(1.044006 -0.0003418701 4.761036e-05)
(1.211545 0.0007378514 -0.001033036)
(1.231468 -0.001363806 -0.0007352721)
(1.322963 0.002230293 -0.001504909)
(1.102237 -0.004712643 -0.004067327)
(1.278077 0.01105275 0.01157284)
(0.8730951 0.1006255 0.0869816)
(0.0006664381 -0.007779121 -0.0009267953)
(0.000663996 -0.005159432 -0.0005433365)
(0.000621665 -0.005853602 -0.001180542)
(0.0004109362 -0.002724197 -0.0004712525)
(0.0006314634 -0.002884221 -0.0009966976)
(0.000592012 -0.003270843 -0.00292822)
(0.0005751971 -0.0008729776 -0.00042866)
(0.0004005185 -0.0009437709 -0.000889755)
(0.0006074787 -0.0009893598 -0.002627143)
(0.0005694462 -0.001107257 -0.0009790887)
(0.4805997 -0.06611447 -0.06625573)
(0.9826075 -0.01553283 -0.01141154)
(1.613152 -0.2063909 -0.2105341)
(0.9502858 0.00290642 0.00398215)
(2.831199 -0.03786579 -0.03916569)
(2.474226 -0.2216943 -0.2366213)
(1.242538 -0.001356461 -0.002504551)
(2.650452 0.003393019 0.006497727)
(4.42513 -0.03564248 -0.04934472)
(2.94951 -0.1557951 -0.1863597)
(1.223829 0.0002540743 0.001238876)
(3.191092 -0.0008389684 -0.004286569)
(3.999431 0.001160953 0.005844641)
(5.432387 -0.01410459 -0.04335983)
(3.148878 -0.05459208 -0.09974765)
(1.273529 0.0001310431 -0.0008264696)
(3.015813 -0.000545186 0.002258328)
(4.48088 0.0008981238 -0.005075179)
(4.74389 -0.001240531 0.002695457)
(5.787253 0.01377421 -0.0227689)
(3.162383 0.05380717 0.0008141807)
(1.182874 -0.0001964752 0.000286022)
(2.935801 0.0006542481 -0.001659442)
(3.985128 -0.002018876 0.001772812)
(4.940539 0.002312781 -0.004903944)
(4.763993 -0.004479708 -0.00030719)
(5.483863 0.03493981 0.004913461)
(2.993067 0.1502461 0.09783359)
(1.055673 0.0002170252 -0.000306512)
(2.489635 -0.000644274 0.0003102248)
(3.51931 0.0009945635 -0.002320156)
(3.993873 -0.003243062 6.955438e-05)
(4.507477 0.002978226 -0.004129508)
(4.052615 -0.008088316 -0.003099913)
(4.520871 0.04222007 0.02664972)
(2.547886 0.2124182 0.1660159)
(0.8056407 -6.694529e-05 4.755373e-05)
(1.852958 0.0003289162 -0.0006082082)
(2.4922 -0.0007926879 -0.0001140816)
(2.944788 0.0008997925 -0.002269407)
(3.036251 -0.003201616 -0.001677583)
(3.230985 0.00270884 -0.002983325)
(2.715502 -0.008927329 -0.006576079)
(2.941707 0.03418657 0.03003407)
(1.7158 0.1989116 0.1535386)
(0.3945576 5.9953e-05 -5.135326e-05)
(0.8058959 -6.399195e-05 1.104446e-05)
(1.05696 0.0002592734 -0.0004737331)
(1.186455 -0.0003617708 -0.00035481)
(1.281255 0.0006934293 -0.001238978)
(1.237827 -0.001465264 -0.001897372)
(1.267005 0.002027063 -0.001752965)
(0.987245 -0.004799282 -0.006639935)
(1.049006 0.01056513 0.008083887)
(0.5713519 0.07076623 0.006685105)
(0.0007194701 -0.01553989 -0.001226879)
(0.0007309127 -0.006764954 -0.0008156411)
(0.0006700849 -0.00761267 -0.001783939)
(0.0004329951 -0.004888811 -0.0005022149)
(0.0006677534 -0.005093934 -0.001068423)
(0.0006187124 -0.005722699 -0.003054951)
(0.0005874152 -0.002527402 -0.0004408257)
(0.0004129798 -0.002737426 -0.0009225123)
(0.0006277495 -0.002859939 -0.00267793)
(0.0005842741 -0.003220616 -0.00101528)
(0.0005300726 -0.0008279486 -0.000404477)
(0.0005798033 -0.0008758981 -0.0008329727)
(0.0003978313 -0.0009392717 -0.002432868)
(0.0005930145 -0.000969376 -0.000897753)
(0.0005667794 -0.001108165 -0.009780847)
(0.5038338 -0.006223001 -0.006028132)
(0.8324485 -0.1016712 -0.1253161)
(0.7264599 0.00302472 0.003708128)
(2.149725 -0.03144854 -0.03084614)
(1.991707 -0.2240056 -0.2022863)
(1.099389 -0.002091227 -0.002511888)
(2.283539 0.005105106 0.00606319)
(3.845505 -0.04543254 -0.046464)
(2.694022 -0.2253205 -0.1769771)
(1.159633 0.0007361331 0.001234402)
(3.004189 -0.002440419 -0.004405474)
(3.738203 0.003619263 0.005706421)
(5.120635 -0.03736892 -0.04249659)
(3.049776 -0.1538836 -0.09753401)
(1.273529 -0.0001310431 -0.0008264697)
(3.015813 0.0005451859 0.002258328)
(4.48088 -0.0008981239 -0.005075179)
(4.74389 0.00124053 0.002695457)
(5.787253 -0.01377421 -0.0227689)
(3.162383 -0.05380717 0.0008141807)
(1.247899 -6.792388e-05 0.0002820319)
(3.122262 0.0002200516 -0.001659748)
(4.262985 -0.0007247285 0.001841822)
(5.288916 0.0007909079 -0.004824891)
(5.116556 -0.001446586 -0.0004376123)
(5.822687 0.01325202 0.004036022)
(3.09066 0.05314481 0.09601261)
(1.196799 0.0001396744 -0.0003216003)
(2.883576 -0.000452563 0.0002814222)
(4.116568 0.0006166078 -0.002450802)
(4.710981 -0.002389386 9.071168e-05)
(5.3095 0.001867136 -0.004268903)
(4.797159 -0.005113858 -0.003186134)
(5.225327 0.03363121 0.02762288)
(2.782022 0.1448771 0.1689707)
(1.048454 -6.09315e-05 2.879589e-05)
(2.516604 0.0003228271 -0.0007749251)
(3.458996 -0.0008796971 -0.0002934674)
(4.125409 0.0007710481 -0.002869428)
(4.2889 -0.00368161 -0.002107963)
(4.535864 0.002386025 -0.003472903)
(3.83093 -0.008894447 -0.006515298)
(4.010508 0.03901988 0.0366192)
(2.116041 0.1886201 0.174023)
(0.8085989 9.208691e-05 -0.0001179196)
(1.840883 -0.0001733224 -8.350042e-05)
(2.519172 0.0002894041 -0.001088725)
(2.892475 -0.0009604868 -0.0009666868)
(3.142887 0.0006381463 -0.002732061)
(3.054362 -0.003645316 -0.00381407)
(3.072038 0.002045992 -0.002906812)
(2.384929 -0.009776648 -0.0101403)
(2.331802 0.02529494 0.02238659)
(1.031045 0.1324199 0.03328757)
(0.3934939 4.825963e-06 3.511655e-06)
(0.808854 0.0001014815 -0.0001479734)
(1.049733 -7.223553e-05 -0.0001741468)
(1.200386 0.000245783 -0.0006973293)
(1.255548 -0.0004028852 -0.0009038399)
(1.287728 0.0005979953 -0.001647003)
(1.183062 -0.001671731 -0.003385399)
(1.138433 0.001761563 -0.002484534)
(0.7830218 -0.004788118 -0.0105006)
(0.6198255 0.001989949 -0.02070464)
(0.002920378 -0.01130129 -0.01009702)
(0.0008011115 -0.01331479 -0.001091989)
(0.0007200791 -0.01217269 -0.002340222)
(0.0004722516 -0.006408554 -0.000756776)
(0.0007325055 -0.006626249 -0.001571044)
(0.0006653615 -0.007400391 -0.003627582)
(0.0006084278 -0.004533563 -0.0004689306)
(0.0004350578 -0.004829024 -0.0009880538)
(0.0006635512 -0.004984978 -0.002775396)
(0.000610164 -0.005564776 -0.001090717)
(0.0005399436 -0.002397053 -0.0004157866)
(0.0005920788 -0.002540266 -0.000862801)
(0.0004101631 -0.002715357 -0.002477725)
(0.0006126876 -0.00282238 -0.0009266207)
(0.0005815527 -0.003189927 -0.009888581)
(0.0005976046 -0.0007829489 -0.0003837556)
(0.0005345301 -0.0008308827 -0.0007860738)
(0.0005775104 -0.0008719361 -0.002277809)
(0.0003861976 -0.0009216069 -0.0008316167)
(0.000595065 -0.0009697873 -0.008984498)
(6.068585e-05 -0.0001206022 -0.003738526)
(0.3506432 0.002173125 0.002197229)
(0.9828426 -0.0116271 -0.01486517)
(0.9790295 -0.1018259 -0.1103607)
(0.8492382 -0.002147562 -0.00231009)
(1.672551 0.005250689 0.005328646)
(2.833416 -0.03908253 -0.03762649)
(2.136121 -0.2266964 -0.1467948)
(1.0214 0.001113037 0.001225166)
(2.603193 -0.003671515 -0.004466048)
(3.186245 0.00589416 0.005628502)
(4.432933 -0.04667437 -0.0384645)
(2.77949 -0.2218661 -0.09000016)
(1.207929 -0.0003907544 -0.0008235114)
(2.833014 0.00154349 0.002203319)
(4.1979 -0.002602512 -0.005204178)
(4.422369 0.003900144 0.00274362)
(5.450812 -0.03629144 -0.0215949)
(3.062313 -0.1517445 0.00286113)
(1.247899 6.792382e-05 0.000282032)
(3.122262 -0.0002200516 -0.001659748)
(4.262985 0.0007247285 0.001841822)
(5.288916 -0.000790908 -0.004824891)
(5.116556 0.001446586 -0.0004376124)
(5.822687 -0.01325202 0.004036022)
(3.09066 -0.05314481 0.09601261)
(1.262205 4.702129e-05 -0.000326947)
(3.068589 -0.000161005 0.0002704379)
(4.399557 0.0002024106 -0.002470737)
(5.054184 -0.0008680143 0.0001376278)
(5.691824 0.0006243019 -0.004241741)
(5.152556 -0.001681859 -0.00326773)
(5.544288 0.01267194 0.02716087)
(2.870253 0.05091603 0.1668847)
(1.189069 -3.97153e-05 1.629771e-05)
(2.913011 0.0002064194 -0.0008457525)
(4.050974 -0.0006457166 -0.0003943846)
(4.856698 0.0004242368 -0.003080896)
(5.074354 -0.002751776 -0.002206349)
(5.344197 0.001418151 -0.003540496)
(4.52441 -0.005692364 -0.00628192)
(4.617461 0.0305797 0.03845745)
(2.296871 0.1254214 0.1754737)
(1.051975 9.388691e-05 -0.0001502606)
(2.501652 -0.0001827625 -0.0001804427)
(3.493047 0.0002594142 -0.001436825)
(4.05973 -0.001114791 -0.001363286)
(4.425659 0.0004227164 -0.003449409)
(4.316283 -0.004206351 -0.004514372)
(4.294849 0.001732454 -0.002939519)
(3.332525 -0.009756745 -0.009809691)
(3.107268 0.02969556 0.02955273)
(1.229764 0.1168095 0.0425473)
(0.8066614 -9.812814e-07 -1.983443e-05)
(1.846743 0.0001119183 -0.0003637011)
(2.504205 -0.0002701067 -0.0005260872)
(2.92192 0.0001684788 -0.001632221)
(3.08902 -0.001198046 -0.002069369)
(3.1613 0.0002226635 -0.00337845)
(2.898236 -0.004327352 -0.006127663)
(2.710807 0.001055819 -0.003199067)
(1.823673 -0.01022939 -0.01330088)
(1.26262 0.01198571 -0.01108419)
(0.004523986 0.0006708644 -0.006988391)
(0.3939143 3.341691e-05 -2.605226e-05)
(0.8069159 4.501491e-06 -5.123922e-05)
(1.053253 0.0001076899 -0.0003250124)
(1.192636 -8.692597e-05 -0.0004758138)
(1.269864 0.0002078752 -0.001020741)
(1.261936 -0.0004940344 -0.001655698)
(1.231795 0.000396124 -0.002375557)
(1.058475 -0.001934224 -0.005136313)
(0.9109127 0.001630612 -0.005205635)
(0.4404918 -0.007802933 -0.02429528)
(0.003225375 -0.009967012 -0.008553321)
(0.0008511259 -0.009344507 -0.01382676)
(0.0005153774 -0.01257089 -0.00101933)
(0.0007989357 -0.01049083 -0.002045337)
(0.000713844 -0.0109096 -0.004175699)
(0.0006454078 -0.005939004 -0.0007038838)
(0.0004732536 -0.006279846 -0.001457814)
(0.0007259115 -0.006446611 -0.003241419)
(0.0006544062 -0.007154145 -0.00148582)
(0.0005566544 -0.004297578 -0.0004420026)
(0.0006131411 -0.004479192 -0.0009223684)
(0.0004319753 -0.004727814 -0.002563638)
(0.0006473203 -0.004860479 -0.0009872977)
(0.0006073896 -0.005470973 -0.01008889)
(0.0006067189 -0.002266649 -0.0003943065)
(0.000544453 -0.002409708 -0.0008139148)
(0.0005896783 -0.002520371 -0.002317974)
(0.0003982201 -0.002683109 -0.0008578477)
(0.0006147128 -0.002792627 -0.009059729)
(6.215391e-05 -0.0003458331 -0.003773339)
(0.000592876 -0.000747013 -0.0003655805)
(0.0006031329 -0.0007858299 -0.000745794)
(0.0005326193 -0.000827264 -0.002149606)
(0.0005679415 -0.0008560406 -0.0007785364)
(0.0003889581 -0.0009212329 -0.008321296)
(6.213191e-05 -0.0001060399 -0.003434197)
(5.491358e-05 -0.0001086325 -0.004429526)
(0.4176162 -0.001297524 -0.001294227)
(0.7267379 0.003679793 0.003111587)
(1.239919 -0.01219819 -0.01483217)
(1.036547 -0.09933349 -0.07434449)
(0.7834294 0.001130489 0.001140264)
(1.925302 -0.003678672 -0.004018353)
(2.286173 0.006136086 0.005131588)
(3.245991 -0.03687981 -0.0274878)
(2.193556 -0.2231287 -0.0715351)
(1.066191 -0.0006157038 -0.0008090376)
(2.444068 0.002216704 0.002091674)
(3.597428 -0.003900781 -0.00520889)
(3.747 0.006457909 0.003001306)
(4.709809 -0.04503036 -0.01837536)
(2.789959 -0.2190956 0.005805465)
(1.182874 0.0001964751 0.000286022)
(2.935801 -0.0006542481 -0.001659442)
(3.985128 0.002018876 0.001772812)
(4.940539 -0.002312781 -0.004903944)
(4.763993 0.004479708 -0.0003071901)
(5.483863 -0.03493981 0.004913461)
(2.993067 -0.1502461 0.09783359)
(1.262205 -4.702129e-05 -0.000326947)
(3.068589 0.0001610047 0.0002704378)
(4.399557 -0.0002024106 -0.002470737)
(5.054184 0.0008680142 0.0001376277)
(5.691824 -0.000624302 -0.004241741)
(5.152556 0.001681859 -0.00326773)
(5.544288 -0.01267194 0.02716087)
(2.870253 -0.05091603 0.1668847)
(1.254286 -1.390695e-05 1.121257e-05)
(3.099009 6.883896e-05 -0.0008689342)
(4.332028 -0.000234681 -0.0004311089)
(5.205906 0.0001277885 -0.003127302)
(5.451701 -0.001006402 -0.002191548)
(5.72961 0.0004599515 -0.003512255)
(4.854534 -0.001893446 -0.006256377)
(4.890198 0.01139232 0.03824945)
(2.364723 0.04346895 0.1733052)
(1.192832 6.122137e-05 -0.000163789)
(2.896772 -0.0001319163 -0.0002373359)
(4.088377 0.0001475847 -0.001597036)
(4.785157 -0.0008451683 -0.001549693)
(5.226148 0.0001409974 -0.00369862)
(5.107933 -0.003144594 -0.004648702)
(5.047619 0.0009961135 -0.002764497)
(3.91475 -0.006206392 -0.009359761)
(3.541931 0.02287523 0.03143916)
(1.315487 0.07433927 0.04309298)
(1.049651 2.423168e-06 -4.227173e-05)
(2.508864 0.0001093911 -0.0004975537)
(3.474246 -0.000312031 -0.0007833314)
(4.097143 8.997186e-05 -0.002160219)
(4.357911 -0.001428809 -0.002673582)
(4.453478 -6.693436e-05 -0.004065535)
(4.078632 -0.004872139 -0.006778037)
(3.752678 0.0009414098 -0.002411709)
(2.501916 -0.009704741 -0.01158572)
(1.62371 0.01428526 -0.003686565)
(0.005211808 0.0005433579 -0.004927336)
(0.8073536 4.999262e-05 -7.085801e-05)
(1.842843 -5.082605e-05 -0.0001868195)
(2.511411 5.820729e-05 -0.0008017127)
(2.905631 -0.0003950567 -0.001193018)
(3.119452 -4.72408e-05 -0.002298274)
(3.107209 -0.001593079 -0.003384877)
(3.002137 -0.0004588492 -0.004233306)
(2.546702 -0.005261089 -0.008248102)
(2.089963 -0.0001570212 -0.004777836)
(0.9475537 -0.008087929 -0.01835585)
(0.005476824 -2.172126e-05 -0.005958349)
(0.000866303 -0.00179942 -0.009957002)
(0.3934161 1.875144e-05 -1.069582e-05)
(0.8076072 5.501884e-05 -0.0001038826)
(1.050924 2.07598e-06 -0.0002204038)
(1.196391 9.50667e-05 -0.0005653322)
(1.261902 -0.0001231558 -0.0008920524)
(1.276275 0.0001210988 -0.001528303)
(1.206425 -0.0006873854 -0.002706172)
(1.104184 0.0001325906 -0.003431526)
(0.8413369 -0.001944791 -0.008028158)
(0.5202606 -0.002975882 -0.02093859)
(0.002200999 -0.009451089 -0.008031055)
(0.0009670012 -0.008111086 -0.01167674)
(0.0008133913 -0.008539914 -0.009694595)
(0.0006865957 -0.01164332 -0.0009431985)
(0.0005138541 -0.009916953 -0.001902139)
(0.0007903403 -0.00942325 -0.003687243)
(0.0007002932 -0.009737425 -0.00185441)
(0.0005860597 -0.005629307 -0.000663576)
(0.0006492001 -0.005821567 -0.001355796)
(0.0004689158 -0.00611214 -0.002993109)
(0.0007063603 -0.006251088 -0.001314579)
(0.0006509053 -0.007014014 -0.01047398)
(0.0006217493 -0.004062574 -0.0004187975)
(0.0005612099 -0.004247003 -0.0008695555)
(0.0006105177 -0.004386381 -0.002394606)
(0.000419441 -0.004615909 -0.0009130636)
(0.0006493397 -0.004774539 -0.009193527)
(6.484624e-05 -0.0005934251 -0.003843734)
(0.0006008868 -0.002162608 -0.0003755278)
(0.0006123032 -0.002278946 -0.0007718357)
(0.0005424594 -0.002391276 -0.002186562)
(0.0005798851 -0.002492128 -0.0008023338)
(0.0004009485 -0.002653258 -0.008381916)
(6.409032e-05 -0.0003042831 -0.003457324)
(5.621857e-05 -0.0003143823 -0.004471434)
(0.0006201553 -0.0007131357 -0.0003493926)
(0.0005985613 -0.0007498541 -0.0007105123)
(0.0006014492 -0.0007825238 -0.00203951)
(0.0005245831 -0.0008126432 -0.0007348101)
(0.000567523 -0.0008555734 -0.007792753)
(4.000818e-05 -0.0001009985 -0.003180688)
(5.535572e-05 -9.570002e-05 -0.004068882)
(5.38555e-05 -0.0001084052 -0.004369338)
(0.3809085 0.0006548601 0.0006635534)
(0.8495008 -0.002282201 -0.002244612)
(0.951644 0.003971561 0.003009158)
(1.38663 -0.01174486 -0.009712504)
(1.057966 -0.09739258 -0.03427432)
(0.820603 -0.0006427673 -0.0007246607)
(1.795379 0.002116036 0.001840459)
(2.605835 -0.003907852 -0.004560071)
(2.659496 0.006855857 0.003171534)
(3.435702 -0.03519053 -0.01202952)
(2.200776 -0.2208889 0.007660085)
(1.042723 0.0002981444 0.0002955613)
(2.537901 -0.001017059 -0.001605018)
(3.400189 0.002806551 0.001661348)
(4.20691 -0.003535445 -0.004814552)
(4.025418 0.00726371 -6.527056e-06)
(4.73738 -0.04344646 0.005983043)
(2.72997 -0.217854 0.09654309)
(1.196799 -0.0001396744 -0.0003216002)
(2.883576 0.0004525631 0.0002814221)
(4.116568 -0.0006166077 -0.002450802)
(4.710981 0.002389386 9.071173e-05)
(5.3095 -0.001867136 -0.004268903)
(4.797159 0.005113858 -0.003186134)
(5.225327 -0.03363121 0.02762288)
(2.782022 -0.1448771 0.1689707)
(1.254286 1.390688e-05 1.121256e-05)
(3.099009 -6.883898e-05 -0.0008689342)
(4.332028 0.0002346812 -0.000431109)
(5.205906 -0.0001277884 -0.003127302)
(5.451701 0.001006402 -0.002191548)
(5.72961 -0.0004599516 -0.003512255)
(4.854534 0.001893446 -0.006256377)
(4.890198 -0.01139232 0.03824945)
(2.364723 -0.04346895 0.1733052)
(1.258139 2.059996e-05 -0.0001689755)
(3.082284 -4.79278e-05 -0.0002603273)
(4.370791 4.521271e-05 -0.001653443)
(5.132225 -0.0003118404 -0.001611493)
(5.609941 2.071556e-05 -0.00375172)
(5.488312 -0.001149396 -0.004625315)
(5.405316 0.0003170538 -0.002657831)
(4.190328 -0.002069251 -0.009265528)
(3.735994 0.008437226 0.03135216)
(1.347177 0.02521234 0.04275491)
(1.190338 1.254429e-06 -5.417146e-05)
(2.904579 6.715536e-05 -0.0005640126)
(4.067835 -0.0002391758 -0.0009225661)
(4.826379 4.322621e-06 -0.002398969)
(5.152337 -0.001100434 -0.002908199)
(5.26025 -0.0002241282 -0.004236788)
(4.814537 -0.003566128 -0.006747914)
(4.385351 0.0005903697 -0.001835292)
(2.910609 -0.006034903 -0.01081574)
(1.819249 0.0107568 -0.002281097)
(0.005507822 0.0003306454 -0.004318625)
(1.050414 5.273431e-05 -9.704073e-05)
(2.504011 -5.752371e-05 -0.0002925073)
(3.48322 3.363402e-05 -0.0011001)
(4.076554 -0.0004849742 -0.001636528)
(4.396679 -0.0001923068 -0.002952596)
(4.385424 -0.001894058 -0.004067854)
(4.211601 -0.0007507896 -0.004604148)
(3.548811 -0.005581689 -0.008290474)
(2.840623 0.0001853783 -0.002343407)
(1.253779 -0.006635085 -0.0115099)
(0.006739487 3.958131e-05 -0.004198015)
(0.0008748694 -0.0009193111 -0.007328175)
(0.8064859 2.883729e-05 -4.335339e-05)
(1.844048 4.221553e-05 -0.0002772229)
(2.506549 -0.0001235493 -0.0005973783)
(2.913416 -5.051009e-05 -0.001358215)
(3.10262 -0.000599905 -0.002030496)
(3.137702 -0.000423277 -0.003133619)
(2.949095 -0.002254429 -0.004873387)
(2.642878 -0.001461515 -0.005155939)
(1.950856 -0.005904168 -0.009983121)
(1.099331 -0.001386168 -0.01443007)
(0.003992136 -0.0001220053 -0.005581577)
(0.0009878497 -0.001736288 -0.008454258)
(0.000824437 -0.00241286 -0.008072923)
(0.3934194 2.199594e-05 -1.468179e-05)
(0.8067391 2.946358e-05 -7.643995e-05)
(1.051681 5.729341e-05 -0.0002697008)
(1.193885 -1.108818e-05 -0.0004784504)
(1.265738 6.059232e-05 -0.0009032625)
(1.268275 -0.0002063355 -0.001488388)
(1.220437 -6.472695e-05 -0.00232591)
(1.080122 -0.0009376509 -0.004032476)
(0.8804343 4.548932e-05 -0.005945586)
(0.4758608 -0.005220326 -0.02074667)
(0.002646068 -0.008729618 -0.007434711)
(0.0006101044 -0.007672518 -0.01095477)
(0.0009214389 -0.007431578 -0.008299026)
(0.0007824345 -0.007776153 -0.005451037)
(0.0006188489 -0.01102157 -0.0008905256)
(0.0006876913 -0.009186857 -0.001762833)
(0.000508285 -0.008914236 -0.00340191)
(0.0007673404 -0.008452948 -0.001620543)
(0.000696306 -0.009217569 -0.01092259)
(0.0006481052 -0.005320049 -0.0006276463)
(0.000589888 -0.005519159 -0.001278293)
(0.0006454641 -0.005667856 -0.00278793)
(0.000454719 -0.005935237 -0.001217973)
(0.0007075149 -0.00612249 -0.009458705)
(6.940818e-05 -0.0007599507 -0.003953535)
(0.0006138381 -0.00387499 -0.0003986654)
(0.0006273812 -0.004015399 -0.0008238596)
(0.0005590458 -0.004159894 -0.002257033)
(0.0006003009 -0.004285473 -0.0008524263)
(0.0004221091 -0.004531982 -0.008487186)
(6.768661e-05 -0.0005205703 -0.003503207)
(5.861883e-05 -0.0005394352 -0.00455501)
(0.0006275861 -0.002064482 -0.0003588007)
(0.0006066254 -0.002174603 -0.0007351243)
(0.0006105483 -0.00226184 -0.002073732)
(0.000534256 -0.002365748 -0.000756975)
(0.000579385 -0.002463812 -0.007844188)
(4.121159e-05 -0.0002899311 -0.003198599)
(5.709233e-05 -0.0002773229 -0.004096887)
(5.512677e-05 -0.0003104733 -0.004410227)
(0.0006249162 -0.000683684 -0.0003348012)
(0.0006263352 -0.0007159165 -0.000679056)
(0.0005970805 -0.000746784 -0.00194304)
(0.00059444 -0.0007689669 -0.0006971782)
(0.0005237825 -0.0008120069 -0.007354982)
(6.035573e-05 -9.393267e-05 -0.00297869)
(3.535023e-05 -9.130282e-05 -0.003768464)
(5.384849e-05 -9.570348e-05 -0.004013673)
(5.311981e-05 -0.000105536 -0.003940739)
(0.4012552 -0.0004035892 -0.0003951566)
(0.7836821 0.001158533 0.001066882)
(1.100712 -0.002453924 -0.002422478)
(1.082338 0.004245605 0.001986037)
(1.453807 -0.01152186 -0.003579917)
(1.060438 -0.09682626 0.005355338)
(0.8008949 0.0003075181 0.0002933842)
(1.87045 -0.001044451 -0.001369236)
(2.446627 0.002568917 0.001464636)
(3.013358 -0.003626315 -0.004076917)
(2.843239 0.007582114 0.0003494229)
(3.453951 -0.03405837 0.005821238)
(2.161359 -0.2202679 0.08313068)
(1.055673 -0.0002170252 -0.000306512)
(2.489635 0.000644274 0.0003102247)
(3.51931 -0.0009945634 -0.002320156)
(3.993873 0.003243062 6.955429e-05)
(4.507477 -0.002978226 -0.004129508)
(4.052615 0.008088316 -0.003099913)
(4.520871 -0.04222007 0.02664972)
(2.547886 -0.2124182 0.1660159)
(1.189069 3.971527e-05 1.629775e-05)
(2.913011 -0.0002064194 -0.0008457525)
(4.050974 0.0006457165 -0.0003943845)
(4.856698 -0.0004242367 -0.003080896)
(5.074354 0.002751775 -0.002206348)
(5.344197 -0.001418151 -0.003540496)
(4.52441 0.005692364 -0.00628192)
(4.617461 -0.0305797 0.03845745)
(2.296871 -0.1254214 0.1754737)
(1.258139 -2.059999e-05 -0.0001689754)
(3.082284 4.792778e-05 -0.0002603273)
(4.370791 -4.521268e-05 -0.001653443)
(5.132225 0.0003118403 -0.001611493)
(5.609941 -2.07155e-05 -0.003751719)
(5.488312 0.001149395 -0.004625315)
(5.405316 -0.0003170539 -0.002657831)
(4.190328 0.00206925 -0.009265528)
(3.735994 -0.008437226 0.03135216)
(1.347177 -0.02521234 0.04275491)
(1.255581 5.934449e-08 -5.890331e-05)
(3.090317 2.151784e-05 -0.0005890915)
(4.349584 -8.906029e-05 -0.0009776395)
(5.175014 -9.990694e-06 -0.002480608)
(5.533918 -0.00040854 -0.002970496)
(5.64713 -0.0001116752 -0.004241337)
(5.166892 -0.001289437 -0.006633077)
(4.683858 0.0001976405 -0.001595624)
(3.102431 -0.002005082 -0.01063854)
(1.905431 0.00388051 -0.001981696)
(0.005616699 0.0001086375 -0.004053716)
(1.191105 3.463649e-05 -0.0001091416)
(2.899294 -4.636244e-05 -0.0003505096)
(4.07759 1.776443e-06 -0.001250621)
(4.803828 -0.000384687 -0.001852053)
(5.195112 -0.0002229173 -0.003212336)
(5.1861 -0.001447387 -0.004239733)
(4.961952 -0.0006708199 -0.004513429)
(4.165192 -0.00389483 -0.007866257)
(3.286644 0.0003189959 -0.001298634)
(1.43411 -0.003797972 -0.009936366)
(0.007423592 3.804001e-05 -0.003655822)
(0.0008760385 -0.0002792199 -0.006440472)
(1.04941 3.334818e-05 -6.656738e-05)
(2.505329 3.917843e-05 -0.0003926322)
(3.47708 -0.0001558458 -0.0008547057)
(4.086289 -0.0001166931 -0.001826003)
(4.375353 -0.0007525675 -0.002623955)
(4.424287 -0.0006349882 -0.003773376)
(4.144937 -0.002564186 -0.005350546)
(3.671172 -0.001586577 -0.00478242)
(2.669343 -0.005699629 -0.008327067)
(1.44353 -0.0001217406 -0.007870337)
(0.005072864 -4.952795e-05 -0.003914148)
(0.001001354 -0.0009081175 -0.00621858)
(0.0008321128 -0.001285164 -0.006945042)
(0.8064293 2.976826e-05 -4.84925e-05)
(1.842404 8.506957e-06 -0.0002285892)
(2.507854 -1.378995e-05 -0.0006810951)
(2.908099 -0.000233147 -0.00117707)
(3.110604 -0.0002442941 -0.002042908)
(3.120771 -0.0009599847 -0.003043533)
(2.97875 -0.001063094 -0.004151642)
(2.593097 -0.003199754 -0.006310218)
(2.030672 -0.002445323 -0.006560695)
(1.016675 -0.005075167 -0.01520623)
(0.004693645 -7.856242e-05 -0.005156354)
(0.0006323877 -0.001668797 -0.007915528)
(0.0009360549 -0.002248648 -0.006927797)
(0.0007971007 -0.002907417 -0.004391549)
(0.3932405 1.936184e-05 -1.237564e-05)
(0.806682 3.45846e-05 -7.730154e-05)
(1.050675 2.955777e-05 -0.0002347432)
(1.194635 4.547927e-05 -0.0005040705)
(1.263154 -4.451305e-05 -0.0008381124)
(1.272105 -1.916283e-05 -0.001411149)
(1.212567 -0.0003843257 -0.002360612)
(1.093292 -0.0003072297 -0.00341243)
(0.8595981 -0.0009861925 -0.006550293)