/*--------------------------------*- C++ -*----------------------------------*\
| =========                 |                                                 |
| \\      /  F ield         | OpenFOAM: The Open Source CFD Toolbox           |
|  \\    /   O peration     | Version:  2306                                  |
|   \\  /    A nd           | Website:  www.openfoam.com                      |
|    \\/     M anipulation  |                                                 |
\*---------------------------------------------------------------------------*/
FoamFile
{
    version     2.0;
    format      ascii;
    arch        "LSB;label=32;scalar=64";
    class       volScalarField;
    location    "0.9/air";
    object      X.N2;
}
// * * * * * * * * * * * * * * * * * * * * * * * * * * * * * * * * * * * * * //

dimensions      [0 0 0 0 0 0 0];

internalField   nonuniform List<scalar> 
16000
(
0.7926546
0.7926357
0.793711
0.7926688
0.7926123
0.793646
0.7926412
0.7951386
0.7937987
0.7927229
0.7925935
0.7935628
0.7926092
0.7950332
0.7937086
0.7926818
0.7969209
0.7952723
0.7940314
0.7928517
0.7925835
0.7934932
0.792585
0.794888
0.7936008
0.7926353
0.7968138
0.7951357
0.7939019
0.7927927
0.7987323
0.7970623
0.7956046
0.794476
0.7931074
0.7925835
0.7934547
0.7925725
0.7947587
0.7935146
0.7926021
0.7966665
0.7949545
0.793751
0.7927263
0.7986267
0.7969237
0.7954317
0.7943008
0.7930256
0.8004986
0.7988719
0.7974128
0.7961928
0.795203
0.793568
0.8292523
0.7925935
0.7934547
0.7925725
0.7946842
0.7934681
0.7925858
0.7965353
0.794797
0.7936331
0.7926793
0.7984818
0.7967413
0.7952036
0.7940885
0.7929301
0.8003973
0.7987357
0.7972377
0.7959844
0.7949811
0.793458
0.8021955
0.8006334
0.7992171
0.7980309
0.7970899
0.7962849
0.7943464
0.8279774
0.8306222
0.8294542
0.7926123
0.7934932
0.792585
0.7946842
0.7934681
0.7925858
0.7964595
0.7947075
0.7935708
0.7926555
0.7983528
0.7965826
0.7950067
0.7939211
0.7928585
0.8002584
0.7985569
0.7970103
0.7957133
0.7947053
0.7933209
0.8020989
0.800503
0.7990466
0.7978238
0.7968483
0.7960157
0.7941982
0.8038167
0.802324
0.8009665
0.799823
0.798962
0.7983428
0.7977945
0.7956054
0.8254007
0.8294792
0.8281841
0.8308602
0.830807
0.8298571
0.7926357
0.7935628
0.7926092
0.7947587
0.7935146
0.7926021
0.7964595
0.7947075
0.7935708
0.7926555
0.7982785
0.7964922
0.7948952
0.7938335
0.792821
0.8001346
0.7984016
0.7968145
0.7954783
0.7944792
0.7932109
0.8019665
0.8003317
0.7988257
0.7975541
0.7965332
0.7956749
0.7940009
0.8037248
0.8021997
0.8008036
0.7996239
0.7987297
0.7980702
0.7974716
0.7953848
0.8053651
0.8039391
0.8026414
0.8015497
0.8007294
0.800238
0.799991
0.7998075
0.7975981
0.8214247
0.8271745
0.825624
0.8297969
0.8296676
0.8285954
0.8308632
0.8310308
0.8311759
0.8304598
0.7926546
0.793646
0.7926412
0.794888
0.7936008
0.7926353
0.7965353
0.794797
0.7936331
0.7926793
0.7982785
0.7964922
0.7948952
0.7938335
0.792821
0.8000632
0.7983131
0.7967035
0.7953438
0.7943556
0.793151
0.8018486
0.8001829
0.7986358
0.7973217
0.796262
0.7953897
0.7938349
0.8035989
0.8020366
0.8005929
0.7993653
0.7984247
0.7977117
0.7970568
0.7950863
0.8052775
0.8038208
0.8024865
0.8013606
0.8005095
0.7999855
0.7996835
0.7994027
0.7971866
0.806846
0.8054817
0.8042414
0.8031968
0.8024199
0.8019616
0.8018794
0.8020712
0.8024163
0.8007888
0.8156714
0.8236344
0.8217106
0.8276539
0.827376
0.826063
0.8298684
0.8299706
0.8300428
0.8292084
0.8308559
0.8310225
0.8313713
0.8317279
0.8312607
0.793711
0.7926688
0.7950332
0.7937086
0.7926818
0.7966665
0.7949545
0.793751
0.7927263
0.7983528
0.7965826
0.7950067
0.7939211
0.7928585
0.8000632
0.7983131
0.7967035
0.7953438
0.7943556
0.793151
0.8017806
0.8000982
0.7985283
0.7971899
0.7961086
0.7952312
0.7937423
0.8034868
0.801895
0.8004117
0.7991429
0.7981604
0.797402
0.7967065
0.7948349
0.8051576
0.8036657
0.8022861
0.8011152
0.8002216
0.7996501
0.7992759
0.7988853
0.7966904
0.8067624
0.805369
0.804094
0.8030172
0.8022124
0.801726
0.8016028
0.8017013
0.8018298
0.7997961
0.8082652
0.8069572
0.8057696
0.8047702
0.8040247
0.8035989
0.8035337
0.8039041
0.804638
0.805792
0.806283
0.8185546
0.8162621
0.8243645
0.8238873
0.8222429
0.8278638
0.8278393
0.8277728
0.8267073
0.8299183
0.8300305
0.8303166
0.8306022
0.8300198
0.8309537
0.8310058
0.8313405
0.8318811
0.8324618
0.8324176
0.7951386
0.7937987
0.7927229
0.7968138
0.7951357
0.7939019
0.7927927
0.7984818
0.7967413
0.7952036
0.7940885
0.7929301
0.8001346
0.7984016
0.7968145
0.7954783
0.7944792
0.7932109
0.8017806
0.8000982
0.7985283
0.7971899
0.7961086
0.7952312
0.7937423
0.8034221
0.8018144
0.8003092
0.799017
0.7980102
0.7972267
0.7965109
0.7946953
0.8050508
0.8035311
0.802114
0.8009043
0.7999725
0.7993575
0.7989233
0.7984527
0.7963022
0.8066479
0.8052212
0.8039035
0.8027845
0.8019408
0.8014139
0.8012319
0.8012176
0.8011365
0.7989101
0.8081852
0.8068497
0.8056291
0.8045995
0.8038279
0.8033777
0.8032777
0.8035743
0.8041073
0.8046973
0.8033849
0.8096281
0.8083716
0.8072321
0.8062734
0.8055585
0.8051451
0.8050976
0.8054584
0.8063519
0.8078322
0.8103968
0.8090214
0.8196496
0.8190622
0.8171423
0.8247883
0.8245967
0.8243598
0.8229804
0.8280294
0.8280366
0.8282044
0.8283561
0.827547
0.8300664
0.8300708
0.8303533
0.8308327
0.8313435
0.8311877
0.8311356
0.8310956
0.8313051
0.8318165
0.832559
0.8335225
0.8326562
0.7969209
0.7952723
0.7940314
0.7928517
0.7986267
0.7969237
0.7954317
0.7943008
0.7930256
0.8002584
0.7985569
0.7970103
0.7957133
0.7947053
0.7933209
0.8018486
0.8001829
0.7986358
0.7973217
0.796262
0.7953897
0.7938349
0.8034221
0.8018144
0.8003092
0.799017
0.7980102
0.7972267
0.7965109
0.7946953
0.8049893
0.8034545
0.8020166
0.8007849
0.7998312
0.7991908
0.7987239
0.7982129
0.7960954
0.806546
0.805093
0.80374
0.8025846
0.8017061
0.8011422
0.8009078
0.8008056
0.8005853
0.7983106
0.8080756
0.8067086
0.8054477
0.8043783
0.8035709
0.803085
0.8029356
0.8031386
0.8034724
0.8036742
0.8018573
0.8095514
0.8082686
0.807098
0.8061105
0.8053714
0.8049356
0.8048581
0.8051531
0.8058713
0.8068275
0.8076943
0.8056107
0.8109397
0.8097302
0.8086346
0.8077132
0.8070243
0.8066252
0.8065682
0.8069265
0.8077727
0.8093526
0.8120904
0.812707
0.8111508
0.8203829
0.8201164
0.8198239
0.8181661
0.8251321
0.8250044
0.8250306
0.8250176
0.8238921
0.8282789
0.8281919
0.8283769
0.8287413
0.8291179
0.8287394
0.830292
0.8302107
0.8303746
0.8308349
0.8315166
0.8324113
0.8314285
0.8313991
0.8312705
0.831379
0.8317532
0.8324496
0.8335388
0.8337412
0.8328967
0.7987323
0.7970623
0.7956046
0.794476
0.7931074
0.8003973
0.7987357
0.7972377
0.7959844
0.7949811
0.793458
0.8019665
0.8003317
0.7988257
0.7975541
0.7965332
0.7956749
0.7940009
0.8034868
0.801895
0.8004117
0.7991429
0.7981604
0.797402
0.7967065
0.7948349
0.8049893
0.8034545
0.8020166
0.8007849
0.7998312
0.7991908
0.7987239
0.7982129
0.7960954
0.8064872
0.8050201
0.8036475
0.8024716
0.801573
0.8009877
0.8007231
0.8005751
0.800288
0.7980129
0.8079781
0.8065863
0.8052919
0.8041884
0.803349
0.8028304
0.8026374
0.8027644
0.8029618
0.8029476
0.8009782
0.8094463
0.8081337
0.8069247
0.8058998
0.8051272
0.8046588
0.804538
0.8047512
0.8052941
0.805887
0.8061567
0.803753
0.810866
0.8096314
0.8085062
0.8075576
0.8068459
0.806426
0.8063413
0.8066403
0.8073245
0.8084238
0.8095866
0.8095738
0.8075829
0.8122041
0.8110377
0.8099823
0.809095
0.8084307
0.808041
0.8079802
0.8083042
0.8091194
0.8106008
0.8133251
0.8142228
0.8145153
0.8128937
0.8209834
0.8208172
0.8208159
0.8207172
0.8192637
0.8255375
0.8253351
0.8254081
0.8256344
0.8258346
0.8251303
0.8285926
0.8284324
0.8285118
0.8288773
0.8294425
0.8302015
0.8289851
0.8305945
0.8304291
0.8304982
0.8308278
0.8314733
0.8325019
0.8326314
0.8316712
0.8317223
0.8315278
0.8315399
0.8318032
0.8323494
0.8333649
0.8337409
0.8339618
0.8331393
0.8004986
0.7988719
0.7974128
0.7961928
0.795203
0.793568
0.8020989
0.800503
0.7990466
0.7978238
0.7968483
0.7960157
0.7941982
0.8035989
0.8020366
0.8005929
0.7993653
0.7984247
0.7977117
0.7970568
0.7950863
0.8050508
0.8035311
0.802114
0.8009043
0.7999725
0.7993575
0.7989233
0.7984527
0.7963022
0.8064872
0.8050201
0.8036475
0.8024716
0.801573
0.8009877
0.8007231
0.8005751
0.800288
0.7980129
0.8079219
0.8065166
0.8052038
0.8040811
0.8032232
0.8026855
0.8024678
0.8025538
0.8026849
0.8025758
0.8005684
0.8093529
0.8080166
0.806776
0.8057189
0.8049164
0.8044184
0.804259
0.8044071
0.8048284
0.8052162
0.8052201
0.8027097
0.810765
0.809502
0.8083403
0.8073563
0.8066129
0.8061628
0.8060384
0.8062635
0.8067883
0.807556
0.8081621
0.8077687
0.8055105
0.8121332
0.8109428
0.8098591
0.8089459
0.8082599
0.8078507
0.8077641
0.8080326
0.8086974
0.8097288
0.8109909
0.8113153
0.8112481
0.8093108
0.813425
0.8122985
0.81128
0.810424
0.8097818
0.8094024
0.8093331
0.8096334
0.810386
0.8117946
0.8143389
0.8153129
0.8158876
0.8160071
0.8143655
0.8216129
0.8213914
0.8214678
0.8216349
0.821683
0.8205873
0.8259867
0.8257292
0.8257143
0.82597
0.8263842
0.8269489
0.825385
0.8289739
0.8287385
0.828735
0.8289823
0.829531
0.8304403
0.8304248
0.8292326
0.8309527
0.8307253
0.8307024
0.8309271
0.8314285
0.832393
0.832705
0.8328534
0.831916
0.8320949
0.8318454
0.8317848
0.8319432
0.8323676
0.8332111
0.8335536
0.8339446
0.8341842
0.8333838
0.8021955
0.8006334
0.7992171
0.7980309
0.7970899
0.7962849
0.7943464
0.8037248
0.8021997
0.8008036
0.7996239
0.7987297
0.7980702
0.7974716
0.7953848
0.8051576
0.8036657
0.8022861
0.8011152
0.8002216
0.7996501
0.7992759
0.7988853
0.7966904
0.806546
0.805093
0.80374
0.8025846
0.8017061
0.8011422
0.8009078
0.8008056
0.8005853
0.7983106
0.8079219
0.8065166
0.8052038
0.8040811
0.8032232
0.8026855
0.8024678
0.8025538
0.8026849
0.8025758
0.8005684
0.809299
0.80795
0.8066919
0.8056167
0.804797
0.8042818
0.8041004
0.8042139
0.8045749
0.8048721
0.8047682
0.8022321
0.8106752
0.8093897
0.808198
0.8071835
0.8064121
0.8059343
0.805775
0.8059411
0.8063571
0.8069375
0.807293
0.8067049
0.8043423
0.812036
0.8108184
0.8097
0.808753
0.8080371
0.8075994
0.8074758
0.8076755
0.8081925
0.8089166
0.8096661
0.8096388
0.8092667
0.8071163
0.8133566
0.8122071
0.8111616
0.8102808
0.809618
0.8092201
0.8091263
0.8093743
0.8099848
0.8109705
0.812142
0.8125988
0.8128514
0.8127226
0.8108117
0.8146058
0.813516
0.8125318
0.8117045
0.8110829
0.8107124
0.810638
0.8109106
0.8116163
0.8129268
0.8153285
0.8162084
0.8168628
0.8172566
0.8172785
0.8158219
0.8222567
0.8219982
0.8220023
0.8222291
0.822519
0.8228575
0.8208583
0.8264889
0.8261687
0.8260875
0.826242
0.8266678
0.8274068
0.8271781
0.8256412
0.8294025
0.829113
0.829026
0.82918
0.829597
0.8304612
0.8306459
0.8306499
0.8294821
0.8313571
0.8310778
0.830986
0.8311101
0.8314957
0.8322942
0.8325827
0.8329098
0.8330771
0.8321627
0.8325043
0.832213
0.8320913
0.8321696
0.8324799
0.8331836
0.8333888
0.833744
0.8341501
0.8344084
0.8336821
0.8038167
0.802324
0.8009665
0.799823
0.798962
0.7983428
0.7977945
0.7956054
0.8052775
0.8038208
0.8024865
0.8013606
0.8005095
0.7999855
0.7996835
0.7994027
0.7971866
0.8066479
0.8052212
0.8039035
0.8027845
0.8019408
0.8014139
0.8012319
0.8012176
0.8011365
0.7989101
0.8079781
0.8065863
0.8052919
0.8041884
0.803349
0.8028304
0.8026374
0.8027644
0.8029618
0.8029476
0.8009782
0.809299
0.80795
0.8066919
0.8056167
0.804797
0.8042818
0.8041004
0.8042139
0.8045749
0.8048721
0.8047682
0.8022321
0.8106234
0.8093258
0.8081175
0.8070858
0.8062983
0.8058045
0.8056254
0.8057599
0.806123
0.8066199
0.8068729
0.8062024
0.8038107
0.8119495
0.8107105
0.8095635
0.8085876
0.8078451
0.8073814
0.8072252
0.8073704
0.8077867
0.8083392
0.808859
0.8086495
0.8081039
0.8058653
0.8132629
0.8120874
0.8110086
0.8100957
0.8094044
0.8089794
0.8088507
0.8090339
0.8095054
0.8102031
0.810897
0.811036
0.811008
0.8106382
0.8085646
0.8145397
0.8134279
0.8124177
0.8115668
0.8109256
0.8105373
0.8104396
0.8106624
0.8112334
0.812143
0.81325
0.8136529
0.8140262
0.8142002
0.8140105
0.8123052
0.8157491
0.8146937
0.813741
0.8129404
0.812338
0.8119763
0.8118964
0.8121475
0.8128043
0.8140373
0.8162841
0.8170954
0.8176651
0.8181356
0.8184193
0.8185498
0.8161175
0.8229322
0.8226224
0.8225751
0.8227169
0.8230505
0.8235924
0.823098
0.8211296
0.8270258
0.8266623
0.826509
0.8265863
0.8268975
0.8276194
0.8276172
0.8274088
0.8258989
0.8298709
0.8295356
0.829387
0.8294488
0.8297614
0.8304717
0.8306529
0.8308531
0.8308766
0.8297334
0.8317954
0.831477
0.8313271
0.8313748
0.8316506
0.832315
0.8324726
0.8327739
0.8331163
0.8333028
0.8324636
0.832943
0.8326177
0.8324488
0.8324595
0.8326817
0.8332558
0.8333518
0.833568
0.8339359
0.8343572
0.834682
0.8339875
0.8053651
0.8039391
0.8026414
0.8015497
0.8007294
0.800238
0.799991
0.7998075
0.7975981
0.8067624
0.805369
0.804094
0.8030172
0.8022124
0.801726
0.8016028
0.8017013
0.8018298
0.7997961
0.8080756
0.8067086
0.8054477
0.8043783
0.8035709
0.803085
0.8029356
0.8031386
0.8034724
0.8036742
0.8018573
0.8093529
0.8080166
0.806776
0.8057189
0.8049164
0.8044184
0.804259
0.8044071
0.8048284
0.8052162
0.8052201
0.8027097
0.8106234
0.8093258
0.8081175
0.8070858
0.8062983
0.8058045
0.8056254
0.8057599
0.806123
0.8066199
0.8068729
0.8062024
0.8038107
0.8118997
0.8106491
0.8094863
0.8084941
0.8077363
0.8072576
0.8070828
0.8071992
0.8075663
0.8080434
0.8084692
0.8081816
0.8075598
0.8052964
0.8131795
0.8119835
0.8108774
0.8099369
0.8092203
0.8087707
0.8086112
0.8087431
0.8091204
0.8096579
0.8101401
0.8101149
0.8099245
0.8094076
0.8072721
0.8144492
0.8133124
0.8122704
0.8113887
0.8107204
0.8103063
0.8101753
0.8103365
0.8107759
0.8114135
0.8120724
0.8121827
0.8123053
0.8122578
0.8118772
0.8100609
0.8156852
0.8146086
0.8136309
0.8128077
0.8121865
0.8118078
0.8117057
0.8119091
0.8124374
0.8132894
0.8143078
0.8146772
0.8149933
0.8152781
0.8153738
0.8152991
0.8126083
0.8168578
0.8158341
0.8149109
0.8141351
0.8135506
0.8131971
0.8131134
0.8133439
0.8139607
0.8151181
0.8172375
0.8179625
0.8184716
0.8188603
0.8192151
0.8195766
0.818808
0.8164112
0.8236243
0.8232806
0.82317
0.82325
0.8234877
0.8240473
0.8238122
0.8233389
0.8214012
0.8275922
0.8271915
0.8269865
0.8269825
0.8272057
0.8277913
0.8278152
0.8278288
0.8276409
0.826158
0.8303675
0.8299983
0.8297976
0.8297902
0.8300012
0.8305889
0.830652
0.830846
0.8310619
0.8311051
0.8300397
0.8322606
0.8319106
0.831716
0.8316991
0.8318904
0.8324295
0.8324839
0.8326526
0.8329666
0.8333245
0.833578
0.8327716
0.833404
0.8330522
0.8328443
0.8328018
0.8329493
0.8334219
0.8334157
0.8335215
0.8337487
0.8341294
0.8346099
0.8349618
0.8342199
0.806846
0.8054817
0.8042414
0.8031968
0.8024199
0.8019616
0.8018794
0.8020712
0.8024163
0.8007888
0.8081852
0.8068497
0.8056291
0.8045995
0.8038279
0.8033777
0.8032777
0.8035743
0.8041073
0.8046973
0.8033849
0.8094463
0.8081337
0.8069247
0.8058998
0.8051272
0.8046588
0.804538
0.8047512
0.8052941
0.805887
0.8061567
0.803753
0.8106752
0.8093897
0.808198
0.8071835
0.8064121
0.8059343
0.805775
0.8059411
0.8063571
0.8069375
0.807293
0.8067049
0.8043423
0.8118997
0.8106491
0.8094863
0.8084941
0.8077363
0.8072576
0.8070828
0.8071992
0.8075663
0.8080434
0.8084692
0.8081816
0.8075598
0.8052964
0.8131315
0.8119244
0.8108032
0.8098472
0.8091161
0.8086522
0.8084752
0.8085799
0.8089117
0.8093786
0.809775
0.8096795
0.809417
0.8088336
0.8066837
0.8143687
0.8132122
0.812144
0.811236
0.8105435
0.810106
0.8099457
0.8100583
0.8104086
0.8108956
0.8113567
0.8113173
0.8112947
0.8111092
0.8106097
0.8087663
0.8155976
0.814497
0.8134888
0.8126362
0.8119889
0.8115856
0.8114516
0.8115964
0.8119992
0.8125931
0.8131881
0.813286
0.8133732
0.8134628
0.8133825
0.8131578
0.8103651
0.8167959
0.8157517
0.8148046
0.814007
0.8134044
0.8130348
0.8129297
0.8131145
0.8136084
0.8144019
0.8153522
0.815663
0.8159429
0.8161678
0.8163657
0.8165418
0.8155608
0.8129094
0.8179336
0.81694
0.8160441
0.8152916
0.8147236
0.8143783
0.8142913
0.8145044
0.8150839
0.8161775
0.8181779
0.8188371
0.8192691
0.8196003
0.8198729
0.8202876
0.8198117
0.8190646
0.8167029
0.8243314
0.8239571
0.8238023
0.8238106
0.8239779
0.8244227
0.8242514
0.8240324
0.8235803
0.8216732
0.8281783
0.8277511
0.8275014
0.8274378
0.8275707
0.8280505
0.8279752
0.8280121
0.8280418
0.8278743
0.8264734
0.8308862
0.8304899
0.8302495
0.8301831
0.8303169
0.8307874
0.8307594
0.8308336
0.8310407
0.8312723
0.8313837
0.8303534
0.8327461
0.8323715
0.8321402
0.8320727
0.8321923
0.8326334
0.8325901
0.8326543
0.832834
0.833161
0.8335785
0.8338595
0.8330061
0.8338823
0.8335092
0.8332703
0.8331835
0.8332716
0.8336575
0.8335745
0.8335771
0.8336926
0.8339309
0.8343654
0.8348684
0.8351747
0.8343778
0.8082652
0.8069572
0.8057696
0.8047702
0.8040247
0.8035989
0.8035337
0.8039041
0.804638
0.805792
0.806283
0.8095514
0.8082686
0.807098
0.8061105
0.8053714
0.8049356
0.8048581
0.8051531
0.8058713
0.8068275
0.8076943
0.8056107
0.810765
0.809502
0.8083403
0.8073563
0.8066129
0.8061628
0.8060384
0.8062635
0.8067883
0.807556
0.8081621
0.8077687
0.8055105
0.8119495
0.8107105
0.8095635
0.8085876
0.8078451
0.8073814
0.8072252
0.8073704
0.8077867
0.8083392
0.808859
0.8086495
0.8081039
0.8058653
0.8131315
0.8119244
0.8108032
0.8098472
0.8091161
0.8086522
0.8084752
0.8085799
0.8089117
0.8093786
0.809775
0.8096795
0.809417
0.8088336
0.8066837
0.8143223
0.8131553
0.8120726
0.8111497
0.8104434
0.8099923
0.8098154
0.8099023
0.8102094
0.8106305
0.8110115
0.8109086
0.8108216
0.8105728
0.8100187
0.8081767
0.8155198
0.8144003
0.8133669
0.812489
0.8118187
0.811393
0.811231
0.8113293
0.8116476
0.8120987
0.8125077
0.8124672
0.8124226
0.81239
0.8121974
0.8118822
0.8090705
0.8167111
0.8156438
0.8146673
0.8138414
0.813214
0.8128207
0.8126851
0.8128136
0.8131877
0.8137353
0.8142836
0.81434
0.8144094
0.814458
0.8145031
0.814539
0.8134183
0.8106678
0.8178736
0.8168603
0.8159412
0.8151678
0.8145825
0.8142216
0.814114
0.8142834
0.8147449
0.8154903
0.8163739
0.8166435
0.8168645
0.8170515
0.8171872
0.8174459
0.816779
0.8158208
0.8132085
0.8189793
0.8180133
0.8171434
0.8164123
0.8158601
0.8155223
0.8154329
0.8156304
0.8161775
0.8172125
0.8191102
0.8197071
0.8200821
0.8203406
0.8205562
0.8208778
0.8205054
0.8200452
0.8193197
0.8169928
0.8250456
0.8246503
0.8244557
0.8244125
0.8245014
0.8248607
0.8246141
0.8244558
0.824253
0.823822
0.8220028
0.8287792
0.8283308
0.828048
0.8279328
0.8279984
0.8283729
0.8282242
0.8281602
0.8282103
0.828256
0.8281585
0.8267964
0.8314211
0.8310041
0.8307312
0.830619
0.8306868
0.8310666
0.8309495
0.8309312
0.8310167
0.8312369
0.8315288
0.8316688
0.8305922
0.8332471
0.832853
0.8325926
0.8324829
0.8325456
0.832903
0.8327866
0.832752
0.832826
0.8330169
0.8333981
0.8338382
0.8340737
0.8331655
0.834374
0.8339839
0.8337195
0.8335968
0.8336349
0.8339507
0.8338035
0.8337284
0.8337397
0.8338651
0.8341532
0.8346068
0.8350649
0.8353192
0.8344586
0.8156714
0.8096281
0.8083716
0.8072321
0.8062734
0.8055585
0.8051451
0.8050976
0.8054584
0.8063519
0.8078322
0.8103968
0.8090214
0.810866
0.8096314
0.8085062
0.8075576
0.8068459
0.806426
0.8063413
0.8066403
0.8073245
0.8084238
0.8095866
0.8095738
0.8075829
0.812036
0.8108184
0.8097
0.808753
0.8080371
0.8075994
0.8074758
0.8076755
0.8081925
0.8089166
0.8096661
0.8096388
0.8092667
0.8071163
0.8131795
0.8119835
0.8108774
0.8099369
0.8092203
0.8087707
0.8086112
0.8087431
0.8091204
0.8096579
0.8101401
0.8101149
0.8099245
0.8094076
0.8072721
0.8143223
0.8131553
0.8120726
0.8111497
0.8104434
0.8099923
0.8098154
0.8099023
0.8102094
0.8106305
0.8110115
0.8109086
0.8108216
0.8105728
0.8100187
0.8081767
0.8154749
0.8143453
0.813298
0.8124059
0.8117223
0.8112837
0.8111058
0.8111796
0.8114569
0.8118457
0.8121797
0.8120806
0.8119779
0.8118892
0.8116442
0.8112872
0.8084808
0.8166358
0.8155503
0.8145496
0.8136994
0.8130499
0.8126351
0.8124727
0.8125568
0.8128501
0.813262
0.8136342
0.8135614
0.8135097
0.8134481
0.813395
0.8133437
0.8121412
0.8093735
0.8177914
0.8167558
0.8158085
0.8150078
0.8143986
0.8140149
0.8138781
0.8139934
0.8143401
0.8148505
0.8153511
0.8153809
0.8154061
0.8154327
0.815432
0.8155708
0.8147742
0.8136774
0.810969
0.8189211
0.817936
0.8170438
0.8162925
0.8157237
0.8153708
0.8152616
0.815417
0.8158508
0.8165517
0.8173801
0.8176082
0.8177881
0.8179166
0.8180133
0.8181982
0.8176652
0.8170146
0.8160791
0.8135056
0.8199958
0.8190567
0.8182104
0.8174999
0.8169622
0.8166319
0.8165403
0.8167242
0.817242
0.8182253
0.8200295
0.8205758
0.8208972
0.8211028
0.8212476
0.8215042
0.8210818
0.8207218
0.8202773
0.8195733
0.8173411
0.8257642
0.8253518
0.8251279
0.8250388
0.8250706
0.8253391
0.8250415
0.8248059
0.8246606
0.8244739
0.8241151
0.8223403
0.8293897
0.8289259
0.828616
0.8284614
0.8284686
0.8287629
0.8285379
0.8283991
0.8283463
0.8284097
0.8285168
0.8284493
0.8270424
0.8319678
0.8315346
0.8312363
0.8310861
0.8311019
0.8314037
0.8312211
0.8311127
0.8311044
0.8312011
0.831476
0.8317912
0.8318857
0.8307546
0.8337598
0.8333503
0.8330661
0.8329224
0.8329373
0.833227
0.8330495
0.832941
0.8329152
0.8329991
0.8332401
0.8336404
0.8340357
0.8342191
0.833247
0.8348761
0.8344722
0.8341869
0.8340344
0.8340314
0.8342875
0.8340907
0.8339508
0.8338836
0.8339038
0.8340755
0.8343804
0.8347902
0.8351982
0.8353931
0.8214247
0.8185546
0.8162621
0.8109397
0.8097302
0.8086346
0.8077132
0.8070243
0.8066252
0.8065682
0.8069265
0.8077727
0.8093526
0.8120904
0.812707
0.8111508
0.8121332
0.8109428
0.8098591
0.8089459
0.8082599
0.8078507
0.8077641
0.8080326
0.8086974
0.8097288
0.8109909
0.8113153
0.8112481
0.8093108
0.8132629
0.8120874
0.8110086
0.8100957
0.8094044
0.8089794
0.8088507
0.8090339
0.8095054
0.8102031
0.810897
0.811036
0.811008
0.8106382
0.8085646
0.8143687
0.8132122
0.812144
0.811236
0.8105435
0.810106
0.8099457
0.8100583
0.8104086
0.8108956
0.8113567
0.8113173
0.8112947
0.8111092
0.8106097
0.8087663
0.8154749
0.8143453
0.813298
0.8124059
0.8117223
0.8112837
0.8111058
0.8111796
0.8114569
0.8118457
0.8121797
0.8120806
0.8119779
0.8118892
0.8116442
0.8112872
0.8084808
0.8165923
0.8154971
0.8144831
0.8136192
0.812957
0.8125298
0.8123522
0.8124129
0.8126671
0.8130197
0.8133211
0.8131939
0.8130889
0.812977
0.8128779
0.8127854
0.8115456
0.808784
0.8177183
0.8166653
0.8156946
0.8148706
0.8142401
0.8138359
0.8136732
0.813746
0.8140154
0.8143962
0.8147294
0.8146378
0.8145504
0.8144767
0.8143883
0.8144519
0.813577
0.8123993
0.8096754
0.8188414
0.8178347
0.8169152
0.8161376
0.8155458
0.8151712
0.8150337
0.8151371
0.8154607
0.8159363
0.8163987
0.8163998
0.8163963
0.8163769
0.8163512
0.8164303
0.8157879
0.8150081
0.8139353
0.8112686
0.8199393
0.8189817
0.8181138
0.8173838
0.8168301
0.8164853
0.8163747
0.8165179
0.8169266
0.8175888
0.8183666
0.8185628
0.8187022
0.8187902
0.8188289
0.8189665
0.8184034
0.817883
0.8172486
0.8163357
0.8138627
0.8209863
0.820071
0.819248
0.8185561
0.8180326
0.817709
0.817616
0.8177874
0.8182789
0.8192154
0.8209362
0.8214371
0.8217161
0.8218726
0.8219666
0.8221467
0.8216967
0.8212845
0.8209368
0.820508
0.8198783
0.8176979
0.8264831
0.8260587
0.8258104
0.8256865
0.8256676
0.8258685
0.8255106
0.8252226
0.824998
0.8248657
0.8247416
0.824415
0.8225974
0.8300065
0.8295311
0.8292003
0.8290129
0.8289748
0.8291994
0.8289201
0.828704
0.828575
0.8285336
0.8286524
0.8287836
0.8286707
0.8272097
0.832523
0.8320774
0.8317585
0.8315778
0.83155
0.8317891
0.8315514
0.8313768
0.8312773
0.8312789
0.831426
0.8317206
0.8319907
0.832033
0.8308377
0.8342816
0.8338597
0.8335561
0.8333841
0.8333598
0.833592
0.8333675
0.8331972
0.8330967
0.8330798
0.8332103
0.8334681
0.8338247
0.8341697
0.8342934
0.8353862
0.8349712
0.8346685
0.834491
0.8344534
0.8346596
0.8344221
0.8342319
0.8340992
0.8340401
0.8341039
0.8342906
0.834553
0.8349146
0.8352662
0.8254007
0.8236344
0.8217106
0.8196496
0.8190622
0.8171423
0.8122041
0.8110377
0.8099823
0.809095
0.8084307
0.808041
0.8079802
0.8083042
0.8091194
0.8106008
0.8133251
0.8142228
0.8145153
0.8128937
0.8133566
0.8122071
0.8111616
0.8102808
0.809618
0.8092201
0.8091263
0.8093743
0.8099848
0.8109705
0.812142
0.8125988
0.8128514
0.8127226
0.8108117
0.8144492
0.8133124
0.8122704
0.8113887
0.8107204
0.8103063
0.8101753
0.8103365
0.8107759
0.8114135
0.8120724
0.8121827
0.8123053
0.8122578
0.8118772
0.8100609
0.8155198
0.8144003
0.8133669
0.812489
0.8118187
0.811393
0.811231
0.8113293
0.8116476
0.8120987
0.8125077
0.8124672
0.8124226
0.81239
0.8121974
0.8118822
0.8090705
0.8165923
0.8154971
0.8144831
0.8136192
0.812957
0.8125298
0.8123522
0.8124129
0.8126671
0.8130197
0.8133211
0.8131939
0.8130889
0.812977
0.8128779
0.8127854
0.8115456
0.808784
0.8176762
0.8166138
0.8156303
0.8147931
0.8141504
0.8137343
0.8135571
0.8136073
0.8138394
0.8141637
0.8144297
0.814287
0.8141502
0.8140307
0.8139015
0.8139295
0.8130178
0.8118032
0.8090862
0.8187705
0.8177469
0.8168049
0.8160049
0.8153926
0.8149981
0.8148359
0.8148984
0.8151478
0.8154994
0.8158022
0.8156886
0.8155797
0.8154675
0.8153629
0.8153759
0.814667
0.8138094
0.8126564
0.8099761
0.8198618
0.8188834
0.8179891
0.8172338
0.8166579
0.8162921
0.8161542
0.8162474
0.8165501
0.816996
0.8174231
0.8174035
0.8173701
0.8173208
0.8172478
0.817292
0.8166333
0.8160038
0.8152409
0.8141918
0.8116293
0.8209313
0.8199981
0.8191542
0.8184435
0.8179045
0.817567
0.8174555
0.8175877
0.8179741
0.8186013
0.8193352
0.8195025
0.8196109
0.8196597
0.8196589
0.8197326
0.81916
0.8186073
0.8180994
0.817481
0.8166443
0.8142284
0.8219502
0.8210594
0.8202568
0.8195834
0.8190726
0.818756
0.8186615
0.8188219
0.8192895
0.8201836
0.8218286
0.8222908
0.8225322
0.8226506
0.822698
0.8228227
0.8223293
0.821888
0.821486
0.8211505
0.8207853
0.8201904
0.8179697
0.8272003
0.8267669
0.8264998
0.8263467
0.8262889
0.8264299
0.8260318
0.8256824
0.8254039
0.8251904
0.8251143
0.8250156
0.8246433
0.8227723
0.8306269
0.830143
0.8297955
0.8295822
0.829506
0.829675
0.8293497
0.8290784
0.828871
0.828752
0.8287615
0.8289006
0.8289865
0.828821
0.8272954
0.8330844
0.832629
0.8322934
0.8320877
0.8320242
0.8322101
0.8319307
0.8317003
0.8315337
0.8314431
0.8314916
0.831656
0.8319065
0.8321261
0.8321083
0.8348101
0.8343783
0.8340586
0.8338631
0.8338058
0.83399
0.833727
0.8335092
0.8333462
0.8332537
0.8332806
0.8334261
0.8336414
0.8339496
0.8342381
0.8359025
0.8354784
0.8351613
0.8349625
0.8348956
0.8350591
0.8347891
0.8345577
0.8343743
0.834249
0.834231
0.8343083
0.8344539
0.8346699
0.834978
0.8279774
0.8271745
0.825624
0.8243645
0.8238873
0.8222429
0.8203829
0.8201164
0.8198239
0.8181661
0.813425
0.8122985
0.81128
0.810424
0.8097818
0.8094024
0.8093331
0.8096334
0.810386
0.8117946
0.8143389
0.8153129
0.8158876
0.8160071
0.8143655
0.8145397
0.8134279
0.8124177
0.8115668
0.8109256
0.8105373
0.8104396
0.8106624
0.8112334
0.812143
0.81325
0.8136529
0.8140262
0.8142002
0.8140105
0.8123052
0.8155976
0.814497
0.8134888
0.8126362
0.8119889
0.8115856
0.8114516
0.8115964
0.8119992
0.8125931
0.8131881
0.813286
0.8133732
0.8134628
0.8133825
0.8131578
0.8103651
0.8166358
0.8155503
0.8145496
0.8136994
0.8130499
0.8126351
0.8124727
0.8125568
0.8128501
0.813262
0.8136342
0.8135614
0.8135097
0.8134481
0.813395
0.8133437
0.8121412
0.8093735
0.8176762
0.8166138
0.8156303
0.8147931
0.8141504
0.8137343
0.8135571
0.8136073
0.8138394
0.8141637
0.8144297
0.814287
0.8141502
0.8140307
0.8139015
0.8139295
0.8130178
0.8118032
0.8090862
0.8187296
0.817697
0.8167426
0.8159299
0.8153059
0.8149
0.8147237
0.8147646
0.8149782
0.8152758
0.8155145
0.8153527
0.8151977
0.8150433
0.8149019
0.8148838
0.8141436
0.8132494
0.8120598
0.8093874
0.8197929
0.8187982
0.8178822
0.8171052
0.8165096
0.8161247
0.8159629
0.8160167
0.8162481
0.816575
0.8168495
0.8167211
0.8165885
0.8164528
0.8163076
0.8162932
0.8155769
0.8148812
0.8140408
0.8129124
0.8103386
0.820856
0.8199026
0.8190332
0.818298
0.8177376
0.8173798
0.8172421
0.8173259
0.8176102
0.8180293
0.8184265
0.8183881
0.8183331
0.8182534
0.8181499
0.8181394
0.8174832
0.8168352
0.8162186
0.8154723
0.8145007
0.8119988
0.8218967
0.8209885
0.8201657
0.8194741
0.8189483
0.8186183
0.8185059
0.8186285
0.8189945
0.8195903
0.8202846
0.8204281
0.820509
0.8205283
0.8204896
0.820519
0.819916
0.8193521
0.8188097
0.8183142
0.8177604
0.8169602
0.8145071
0.8228919
0.8220213
0.8212401
0.8205827
0.8200848
0.8197742
0.8196791
0.8198292
0.8202751
0.8211304
0.8227064
0.8231342
0.8233444
0.8234295
0.8234412
0.8235157
0.8229966
0.8225107
0.822078
0.8216861
0.8214074
0.8210691
0.8204279
0.8181546
0.8279139
0.8274741
0.8271919
0.8270157
0.826925
0.8270192
0.826586
0.8261955
0.8258545
0.8255856
0.8254236
0.8253686
0.8252239
0.8247983
0.8228618
0.831249
0.8307588
0.8303982
0.8301635
0.8300566
0.8301784
0.8298191
0.8295009
0.8292376
0.8290391
0.8289674
0.8289946
0.8290893
0.8291242
0.8288979
0.8336498
0.8331869
0.8328378
0.8326113
0.832518
0.8326595
0.8323461
0.8320734
0.8318503
0.8316917
0.8316452
0.8317091
0.8318307
0.8320325
0.8321952
0.8353436
0.8349038
0.8345708
0.8343554
0.8342702
0.8344134
0.8341199
0.8338631
0.833652
0.8334964
0.8334452
0.8334857
0.8335901
0.8337588
0.8340133
0.8364233
0.835992
0.8356626
0.8354459
0.8353537
0.8354804
0.835184
0.8349197
0.8346946
0.8345179
0.8344316
0.834426
0.8344636
0.8345646
0.8347296
0.8292523
0.8294792
0.8281841
0.8276539
0.827376
0.826063
0.8247883
0.8245967
0.8243598
0.8229804
0.8209834
0.8208172
0.8208159
0.8207172
0.8192637
0.8146058
0.813516
0.8125318
0.8117045
0.8110829
0.8107124
0.810638
0.8109106
0.8116163
0.8129268
0.8153285
0.8162084
0.8168628
0.8172566
0.8172785
0.8158219
0.8156852
0.8146086
0.8136309
0.8128077
0.8121865
0.8118078
0.8117057
0.8119091
0.8124374
0.8132894
0.8143078
0.8146772
0.8149933
0.8152781
0.8153738
0.8152991
0.8126083
0.8167111
0.8156438
0.8146673
0.8138414
0.813214
0.8128207
0.8126851
0.8128136
0.8131877
0.8137353
0.8142836
0.81434
0.8144094
0.814458
0.8145031
0.814539
0.8134183
0.8106678
0.8177183
0.8166653
0.8156946
0.8148706
0.8142401
0.8138359
0.8136732
0.813746
0.8140154
0.8143962
0.8147294
0.8146378
0.8145504
0.8144767
0.8143883
0.8144519
0.813577
0.8123993
0.8096754
0.8187296
0.817697
0.8167426
0.8159299
0.8153059
0.8149
0.8147237
0.8147646
0.8149782
0.8152758
0.8155145
0.8153527
0.8151977
0.8150433
0.8149019
0.8148838
0.8141436
0.8132494
0.8120598
0.8093874
0.8197532
0.8187497
0.8178218
0.8170326
0.8164257
0.8160297
0.8158544
0.8158874
0.8160844
0.8163595
0.816573
0.8163988
0.8162228
0.8160479
0.8158691
0.8158271
0.8150838
0.814357
0.8134802
0.8123156
0.8097507
0.820789
0.8198198
0.8189295
0.8181733
0.8175939
0.8172177
0.8170569
0.8171027
0.8173183