/*--------------------------------*- C++ -*----------------------------------*\
| =========                 |                                                 |
| \\      /  F ield         | OpenFOAM: The Open Source CFD Toolbox           |
|  \\    /   O peration     | Version:  2306                                  |
|   \\  /    A nd           | Website:  www.openfoam.com                      |
|    \\/     M anipulation  |                                                 |
\*---------------------------------------------------------------------------*/
FoamFile
{
    version     2.0;
    format      ascii;
    arch        "LSB;label=32;scalar=64";
    class       volScalarField;
    location    "0.9/air";
    object      X.O2;
}
// * * * * * * * * * * * * * * * * * * * * * * * * * * * * * * * * * * * * * //

dimensions      [0 0 0 0 0 0 0];

internalField   nonuniform List<scalar> 
16000
(
0.2073454
0.2073643
0.206289
0.2073312
0.2073877
0.206354
0.2073588
0.2048614
0.2062013
0.2072771
0.2074065
0.2064372
0.2073908
0.2049668
0.2062914
0.2073182
0.2030791
0.2047277
0.2059686
0.2071483
0.2074165
0.2065068
0.207415
0.205112
0.2063992
0.2073647
0.2031862
0.2048643
0.2060981
0.2072073
0.2012677
0.2029377
0.2043954
0.205524
0.2068926
0.2074165
0.2065453
0.2074275
0.2052413
0.2064854
0.2073979
0.2033335
0.2050455
0.206249
0.2072737
0.2013733
0.2030763
0.2045683
0.2056992
0.2069744
0.1995014
0.2011281
0.2025872
0.2038072
0.204797
0.206432
0.1707477
0.2074065
0.2065453
0.2074275
0.2053158
0.2065319
0.2074142
0.2034647
0.205203
0.2063669
0.2073207
0.2015182
0.2032587
0.2047964
0.2059115
0.2070699
0.1996027
0.2012643
0.2027623
0.2040156
0.2050189
0.206542
0.1978045
0.1993666
0.2007829
0.2019691
0.2029101
0.2037151
0.2056536
0.1720226
0.1693778
0.1705458
0.2073877
0.2065068
0.207415
0.2053158
0.2065319
0.2074142
0.2035405
0.2052925
0.2064292
0.2073445
0.2016472
0.2034174
0.2049933
0.2060789
0.2071415
0.1997416
0.2014431
0.2029897
0.2042867
0.2052947
0.2066791
0.1979011
0.199497
0.2009534
0.2021762
0.2031517
0.2039843
0.2058018
0.1961833
0.197676
0.1990335
0.200177
0.201038
0.2016572
0.2022055
0.2043946
0.1745993
0.1705208
0.1718159
0.1691398
0.169193
0.1701429
0.2073643
0.2064372
0.2073908
0.2052413
0.2064854
0.2073979
0.2035405
0.2052925
0.2064292
0.2073445
0.2017215
0.2035078
0.2051048
0.2061665
0.207179
0.1998654
0.2015984
0.2031855
0.2045217
0.2055208
0.2067891
0.1980335
0.1996683
0.2011743
0.2024459
0.2034668
0.2043251
0.2059991
0.1962752
0.1978003
0.1991964
0.2003761
0.2012703
0.2019298
0.2025284
0.2046152
0.1946349
0.1960609
0.1973586
0.1984503
0.1992706
0.199762
0.200009
0.2001925
0.2024019
0.1785753
0.1728255
0.174376
0.1702031
0.1703324
0.1714046
0.1691368
0.1689692
0.1688241
0.1695402
0.2073454
0.206354
0.2073588
0.205112
0.2063992
0.2073647
0.2034647
0.205203
0.2063669
0.2073207
0.2017215
0.2035078
0.2051048
0.2061665
0.207179
0.1999368
0.2016869
0.2032965
0.2046562
0.2056444
0.206849
0.1981514
0.1998171
0.2013642
0.2026783
0.203738
0.2046103
0.2061651
0.1964011
0.1979634
0.1994071
0.2006347
0.2015753
0.2022883
0.2029432
0.2049137
0.1947225
0.1961792
0.1975135
0.1986394
0.1994905
0.2000145
0.2003165
0.2005973
0.2028134
0.193154
0.1945183
0.1957586
0.1968032
0.1975801
0.1980384
0.1981206
0.1979288
0.1975837
0.1992112
0.1843286
0.1763656
0.1782894
0.1723461
0.172624
0.173937
0.1701316
0.1700294
0.1699572
0.1707916
0.1691441
0.1689775
0.1686287
0.1682721
0.1687393
0.206289
0.2073312
0.2049668
0.2062914
0.2073182
0.2033335
0.2050455
0.206249
0.2072737
0.2016472
0.2034174
0.2049933
0.2060789
0.2071415
0.1999368
0.2016869
0.2032965
0.2046562
0.2056444
0.206849
0.1982194
0.1999018
0.2014717
0.2028101
0.2038914
0.2047688
0.2062577
0.1965132
0.198105
0.1995883
0.2008571
0.2018396
0.202598
0.2032935
0.2051651
0.1948424
0.1963343
0.1977139
0.1988848
0.1997784
0.2003499
0.2007241
0.2011147
0.2033096
0.1932376
0.194631
0.195906
0.1969828
0.1977876
0.198274
0.1983972
0.1982987
0.1981702
0.2002039
0.1917348
0.1930428
0.1942304
0.1952298
0.1959753
0.1964011
0.1964663
0.1960959
0.195362
0.194208
0.193717
0.1814454
0.1837379
0.1756355
0.1761127
0.1777571
0.1721362
0.1721607
0.1722272
0.1732927
0.1700817
0.1699695
0.1696834
0.1693978
0.1699802
0.1690463
0.1689942
0.1686595
0.1681189
0.1675382
0.1675824
0.2048614
0.2062013
0.2072771
0.2031862
0.2048643
0.2060981
0.2072073
0.2015182
0.2032587
0.2047964
0.2059115
0.2070699
0.1998654
0.2015984
0.2031855
0.2045217
0.2055208
0.2067891
0.1982194
0.1999018
0.2014717
0.2028101
0.2038914
0.2047688
0.2062577
0.1965779
0.1981856
0.1996908
0.200983
0.2019898
0.2027733
0.2034891
0.2053047
0.1949492
0.1964689
0.197886
0.1990957
0.2000275
0.2006425
0.2010767
0.2015473
0.2036978
0.1933521
0.1947788
0.1960965
0.1972155
0.1980592
0.1985861
0.1987681
0.1987824
0.1988635
0.2010899
0.1918148
0.1931503
0.1943709
0.1954005
0.1961721
0.1966223
0.1967223
0.1964257
0.1958927
0.1953027
0.1966151
0.1903719
0.1916284
0.1927679
0.1937266
0.1944415
0.1948549
0.1949024
0.1945416
0.1936481
0.1921678
0.1896032
0.1909786
0.1803504
0.1809378
0.1828577
0.1752117
0.1754033
0.1756402
0.1770196
0.1719706
0.1719634
0.1717956
0.1716439
0.172453
0.1699336
0.1699292
0.1696467
0.1691673
0.1686565
0.1688123
0.1688644
0.1689044
0.1686949
0.1681835
0.167441
0.1664775
0.1673438
0.2030791
0.2047277
0.2059686
0.2071483
0.2013733
0.2030763
0.2045683
0.2056992
0.2069744
0.1997416
0.2014431
0.2029897
0.2042867
0.2052947
0.2066791
0.1981514
0.1998171
0.2013642
0.2026783
0.203738
0.2046103
0.2061651
0.1965779
0.1981856
0.1996908
0.200983
0.2019898
0.2027733
0.2034891
0.2053047
0.1950107
0.1965455
0.1979834
0.1992151
0.2001688
0.2008092
0.2012761
0.2017871
0.2039046
0.193454
0.194907
0.19626
0.1974154
0.1982939
0.1988578
0.1990922
0.1991944
0.1994147
0.2016894
0.1919244
0.1932914
0.1945523
0.1956217
0.1964291
0.196915
0.1970644
0.1968614
0.1965276
0.1963258
0.1981427
0.1904486
0.1917314
0.192902
0.1938895
0.1946286
0.1950644
0.1951419
0.1948469
0.1941287
0.1931725
0.1923057
0.1943893
0.1890603
0.1902698
0.1913654
0.1922868
0.1929757
0.1933748
0.1934318
0.1930735
0.1922273
0.1906474
0.1879096
0.187293
0.1888492
0.1796171
0.1798836
0.1801761
0.1818339
0.1748679
0.1749956
0.1749694
0.1749824
0.1761079
0.1717211
0.1718081
0.1716231
0.1712587
0.1708821
0.1712606
0.169708
0.1697893
0.1696254
0.1691651
0.1684834
0.1675887
0.1685715
0.1686009
0.1687295
0.168621
0.1682468
0.1675504
0.1664612
0.1662588
0.1671033
0.2012677
0.2029377
0.2043954
0.205524
0.2068926
0.1996027
0.2012643
0.2027623
0.2040156
0.2050189
0.206542
0.1980335
0.1996683
0.2011743
0.2024459
0.2034668
0.2043251
0.2059991
0.1965132
0.198105
0.1995883
0.2008571
0.2018396
0.202598
0.2032935
0.2051651
0.1950107
0.1965455
0.1979834
0.1992151
0.2001688
0.2008092
0.2012761
0.2017871
0.2039046
0.1935128
0.1949799
0.1963525
0.1975284
0.198427
0.1990123
0.1992769
0.1994249
0.199712
0.2019871
0.1920219
0.1934137
0.1947081
0.1958116
0.196651
0.1971696
0.1973626
0.1972356
0.1970382
0.1970524
0.1990218
0.1905537
0.1918663
0.1930753
0.1941002
0.1948728
0.1953412
0.195462
0.1952488
0.1947059
0.194113
0.1938433
0.196247
0.189134
0.1903686
0.1914938
0.1924424
0.1931541
0.193574
0.1936587
0.1933597
0.1926755
0.1915762
0.1904134
0.1904262
0.1924171
0.1877959
0.1889623
0.1900177
0.190905
0.1915693
0.191959
0.1920198
0.1916958
0.1908806
0.1893992
0.1866749
0.1857772
0.1854847
0.1871063
0.1790166
0.1791828
0.1791841
0.1792828
0.1807363
0.1744625
0.1746649
0.1745919
0.1743656
0.1741654
0.1748697
0.1714074
0.1715676
0.1714882
0.1711227
0.1705575
0.1697985
0.1710149
0.1694055
0.1695709
0.1695018
0.1691722
0.1685267
0.1674981
0.1673686
0.1683288
0.1682777
0.1684722
0.1684601
0.1681968
0.1676506
0.1666351
0.1662591
0.1660382
0.1668607
0.1995014
0.2011281
0.2025872
0.2038072
0.204797
0.206432
0.1979011
0.199497
0.2009534
0.2021762
0.2031517
0.2039843
0.2058018
0.1964011
0.1979634
0.1994071
0.2006347
0.2015753
0.2022883
0.2029432
0.2049137
0.1949492
0.1964689
0.197886
0.1990957
0.2000275
0.2006425
0.2010767
0.2015473
0.2036978
0.1935128
0.1949799
0.1963525
0.1975284
0.198427
0.1990123
0.1992769
0.1994249
0.199712
0.2019871
0.1920781
0.1934834
0.1947962
0.1959189
0.1967768
0.1973145
0.1975322
0.1974462
0.1973151
0.1974242
0.1994316
0.1906471
0.1919834
0.193224
0.1942811
0.1950836
0.1955816
0.195741
0.1955929
0.1951716
0.1947838
0.1947799
0.1972903
0.189235
0.190498
0.1916597
0.1926437
0.1933871
0.1938372
0.1939616
0.1937365
0.1932117
0.192444
0.1918379
0.1922313
0.1944895
0.1878668
0.1890572
0.1901409
0.1910541
0.1917401
0.1921493
0.1922359
0.1919674
0.1913026
0.1902712
0.1890091
0.1886847
0.1887519
0.1906892
0.186575
0.1877015
0.18872
0.189576
0.1902182
0.1905976
0.1906669
0.1903666
0.189614
0.1882054
0.1856611
0.1846871
0.1841124
0.1839929
0.1856345
0.1783871
0.1786086
0.1785322
0.1783651
0.178317
0.1794127
0.1740133
0.1742708
0.1742857
0.17403
0.1736158
0.1730511
0.174615
0.1710261
0.1712615
0.171265
0.1710177
0.170469
0.1695597
0.1695752
0.1707674
0.1690473
0.1692747
0.1692976
0.1690729
0.1685715
0.167607
0.167295
0.1671466
0.168084
0.1679051
0.1681546
0.1682152
0.1680568
0.1676324
0.1667889
0.1664464
0.1660554
0.1658158
0.1666162
0.1978045
0.1993666
0.2007829
0.2019691
0.2029101
0.2037151
0.2056536
0.1962752
0.1978003
0.1991964
0.2003761
0.2012703
0.2019298
0.2025284
0.2046152
0.1948424
0.1963343
0.1977139
0.1988848
0.1997784
0.2003499
0.2007241
0.2011147
0.2033096
0.193454
0.194907
0.19626
0.1974154
0.1982939
0.1988578
0.1990922
0.1991944
0.1994147
0.2016894
0.1920781
0.1934834
0.1947962
0.1959189
0.1967768
0.1973145
0.1975322
0.1974462
0.1973151
0.1974242
0.1994316
0.190701
0.19205
0.1933081
0.1943833
0.195203
0.1957182
0.1958996
0.1957861
0.1954251
0.1951279
0.1952318
0.1977679
0.1893248
0.1906103
0.191802
0.1928165
0.1935879
0.1940657
0.194225
0.1940589
0.1936429
0.1930625
0.192707
0.1932951
0.1956577
0.187964
0.1891816
0.1903
0.191247
0.1919629
0.1924006
0.1925242
0.1923245
0.1918075
0.1910834
0.1903339
0.1903612
0.1907333
0.1928837
0.1866434
0.1877929
0.1888384
0.1897192
0.190382
0.1907799
0.1908737
0.1906257
0.1900152
0.1890295
0.187858
0.1874012
0.1871486
0.1872774
0.1891883
0.1853942
0.186484
0.1874682
0.1882955
0.1889171
0.1892876
0.189362
0.1890894
0.1883837
0.1870732
0.1846715
0.1837916
0.1831372
0.1827434
0.1827215
0.1841781
0.1777433
0.1780018
0.1779977
0.1777709
0.177481
0.1771425
0.1791417
0.1735111
0.1738313
0.1739125
0.173758
0.1733322
0.1725932
0.1728219
0.1743588
0.1705975
0.170887
0.170974
0.17082
0.170403
0.1695388
0.1693541
0.1693501
0.1705179
0.1686429
0.1689222
0.169014
0.1688899
0.1685043
0.1677058
0.1674173
0.1670902
0.1669229
0.1678373
0.1674957
0.167787
0.1679087
0.1678304
0.1675201
0.1668164
0.1666112
0.166256
0.1658499
0.1655916
0.1663179
0.1961833
0.197676
0.1990335
0.200177
0.201038
0.2016572
0.2022055
0.2043946
0.1947225
0.1961792
0.1975135
0.1986394
0.1994905
0.2000145
0.2003165
0.2005973
0.2028134
0.1933521
0.1947788
0.1960965
0.1972155
0.1980592
0.1985861
0.1987681
0.1987824
0.1988635
0.2010899
0.1920219
0.1934137
0.1947081
0.1958116
0.196651
0.1971696
0.1973626
0.1972356
0.1970382
0.1970524
0.1990218
0.190701
0.19205
0.1933081
0.1943833
0.195203
0.1957182
0.1958996
0.1957861
0.1954251
0.1951279
0.1952318
0.1977679
0.1893766
0.1906742
0.1918825
0.1929142
0.1937017
0.1941955
0.1943746
0.1942401
0.193877
0.1933801
0.1931271
0.1937976
0.1961893
0.1880505
0.1892895
0.1904365
0.1914124
0.1921549
0.1926186
0.1927748
0.1926296
0.1922133
0.1916608
0.191141
0.1913505
0.1918961
0.1941347
0.1867371
0.1879126
0.1889914
0.1899043
0.1905956
0.1910206
0.1911493
0.1909661
0.1904946
0.1897969
0.189103
0.188964
0.188992
0.1893618
0.1914354
0.1854603
0.1865721
0.1875823
0.1884332
0.1890744
0.1894627
0.1895604
0.1893376
0.1887666
0.187857
0.18675
0.1863471
0.1859738
0.1857998
0.1859895
0.1876948
0.1842509
0.1853063
0.186259
0.1870596
0.187662
0.1880237
0.1881036
0.1878525
0.1871957
0.1859627
0.1837159
0.1829046
0.1823349
0.1818644
0.1815807
0.1814502
0.1838825
0.1770678
0.1773776
0.1774249
0.1772831
0.1769495
0.1764076
0.176902
0.1788704
0.1729742
0.1733377
0.173491
0.1734137
0.1731025
0.1723806
0.1723828
0.1725912
0.1741011
0.1701291
0.1704644
0.170613
0.1705512
0.1702386
0.1695283
0.1693471
0.1691469
0.1691234
0.1702666
0.1682046
0.168523
0.1686729
0.1686252
0.1683494
0.167685
0.1675274
0.1672261
0.1668837
0.1666972
0.1675364
0.167057
0.1673823
0.1675512
0.1675405
0.1673183
0.1667442
0.1666482
0.166432
0.1660641
0.1656428
0.165318
0.1660125
0.1946349
0.1960609
0.1973586
0.1984503
0.1992706
0.199762
0.200009
0.2001925
0.2024019
0.1932376
0.194631
0.195906
0.1969828
0.1977876
0.198274
0.1983972
0.1982987
0.1981702
0.2002039
0.1919244
0.1932914
0.1945523
0.1956217
0.1964291
0.196915
0.1970644
0.1968614
0.1965276
0.1963258
0.1981427
0.1906471
0.1919834
0.193224
0.1942811
0.1950836
0.1955816
0.195741
0.1955929
0.1951716
0.1947838
0.1947799
0.1972903
0.1893766
0.1906742
0.1918825
0.1929142
0.1937017
0.1941955
0.1943746
0.1942401
0.193877
0.1933801
0.1931271
0.1937976
0.1961893
0.1881003
0.1893509
0.1905137
0.1915059
0.1922637
0.1927424
0.1929172
0.1928008
0.1924337
0.1919566
0.1915308
0.1918184
0.1924402
0.1947036
0.1868205
0.1880165
0.1891226
0.1900631
0.1907797
0.1912293
0.1913888
0.1912569
0.1908796
0.1903421
0.1898599
0.1898851
0.1900755
0.1905924
0.1927279
0.1855508
0.1866876
0.1877296
0.1886113
0.1892796
0.1896937
0.1898247
0.1896635
0.1892241
0.1885865
0.1879276
0.1878173
0.1876947
0.1877422
0.1881228
0.1899391
0.1843148
0.1853914
0.1863691
0.1871923
0.1878135
0.1881922
0.1882943
0.1880909
0.1875626
0.1867106
0.1856922
0.1853228
0.1850067
0.1847219
0.1846262
0.1847009
0.1873917
0.1831422
0.1841659
0.1850891
0.1858649
0.1864494
0.1868029
0.1868866
0.1866561
0.1860393
0.1848819
0.1827625
0.1820375
0.1815284
0.1811397
0.1807849
0.1804234
0.181192
0.1835888
0.1763757
0.1767194
0.17683
0.17675
0.1765123
0.1759527
0.1761878
0.1766611
0.1785988
0.1724078
0.1728085
0.1730135
0.1730175
0.1727943
0.1722087
0.1721848
0.1721712
0.1723591
0.173842
0.1696325
0.1700017
0.1702024
0.1702098
0.1699988
0.1694111
0.169348
0.169154
0.1689381
0.1688949
0.1699603
0.1677394
0.1680894
0.168284
0.1683009
0.1681096
0.1675705
0.1675161
0.1673474
0.1670334
0.1666755
0.166422
0.1672284
0.166596
0.1669478
0.1671557
0.1671982
0.1670507
0.1665781
0.1665843
0.1664785
0.1662513
0.1658706
0.1653901
0.1650382
0.1657801
0.193154
0.1945183
0.1957586
0.1968032
0.1975801
0.1980384
0.1981206
0.1979288
0.1975837
0.1992112
0.1918148
0.1931503
0.1943709
0.1954005
0.1961721
0.1966223
0.1967223
0.1964257
0.1958927
0.1953027
0.1966151
0.1905537
0.1918663
0.1930753
0.1941002
0.1948728
0.1953412
0.195462
0.1952488
0.1947059
0.194113
0.1938433
0.196247
0.1893248
0.1906103
0.191802
0.1928165
0.1935879
0.1940657
0.194225
0.1940589
0.1936429
0.1930625
0.192707
0.1932951
0.1956577
0.1881003
0.1893509
0.1905137
0.1915059
0.1922637
0.1927424
0.1929172
0.1928008
0.1924337
0.1919566
0.1915308
0.1918184
0.1924402
0.1947036
0.1868685
0.1880756
0.1891968
0.1901528
0.1908839
0.1913478
0.1915248
0.1914201
0.1910883
0.1906214
0.190225
0.1903205
0.190583
0.1911664
0.1933163
0.1856313
0.1867878
0.187856
0.188764
0.1894565
0.189894
0.1900543
0.1899417
0.1895914
0.1891044
0.1886433
0.1886827
0.1887053
0.1888908
0.1893903
0.1912337
0.1844024
0.185503
0.1865112
0.1873638
0.1880111
0.1884144
0.1885484
0.1884036
0.1880008
0.1874069
0.1868119
0.186714
0.1866268
0.1865372
0.1866175
0.1868422
0.1896349
0.1832041
0.1842483
0.1851954
0.185993
0.1865956
0.1869652
0.1870703
0.1868855
0.1863916
0.1855981
0.1846478
0.184337
0.1840571
0.1838322
0.1836343
0.1834582
0.1844392
0.1870906
0.1820664
0.18306
0.1839559
0.1847084
0.1852764
0.1856217
0.1857087
0.1854956
0.1849161
0.1838225
0.1818221
0.1811629
0.1807309
0.1803997
0.1801271
0.1797124
0.1801883
0.1809354
0.1832971
0.1756686
0.1760429
0.1761977
0.1761894
0.1760221
0.1755773
0.1757486
0.1759676
0.1764197
0.1783268
0.1718217
0.1722489
0.1724986
0.1725622
0.1724293
0.1719495
0.1720248
0.1719879
0.1719582
0.1721257
0.1735266
0.1691138
0.1695101
0.1697505
0.1698169
0.1696831
0.1692126
0.1692406
0.1691664
0.1689593
0.1687277
0.1686163
0.1696466
0.1672539
0.1676285
0.1678598
0.1679273
0.1678077
0.1673666
0.1674099
0.1673457
0.167166
0.166839
0.1664215
0.1661405
0.1669939
0.1661177
0.1664908
0.1667297
0.1668165
0.1667284
0.1663425
0.1664255
0.1664229
0.1663074
0.1660691
0.1656346
0.1651316
0.1648253
0.1656222
0.1917348
0.1930428
0.1942304
0.1952298
0.1959753
0.1964011
0.1964663
0.1960959
0.195362
0.194208
0.193717
0.1904486
0.1917314
0.192902
0.1938895
0.1946286
0.1950644
0.1951419
0.1948469
0.1941287
0.1931725
0.1923057
0.1943893
0.189235
0.190498
0.1916597
0.1926437
0.1933871
0.1938372
0.1939616
0.1937365
0.1932117
0.192444
0.1918379
0.1922313
0.1944895
0.1880505
0.1892895
0.1904365
0.1914124
0.1921549
0.1926186
0.1927748
0.1926296
0.1922133
0.1916608
0.191141
0.1913505
0.1918961
0.1941347
0.1868685
0.1880756
0.1891968
0.1901528
0.1908839
0.1913478
0.1915248
0.1914201
0.1910883
0.1906214
0.190225
0.1903205
0.190583
0.1911664
0.1933163
0.1856777
0.1868447
0.1879274
0.1888503
0.1895566
0.1900077
0.1901846
0.1900977
0.1897906
0.1893695
0.1889885
0.1890914
0.1891784
0.1894272
0.1899813
0.1918233
0.1844802
0.1855997
0.1866331
0.187511
0.1881813
0.188607
0.188769
0.1886707
0.1883524
0.1879013
0.1874923
0.1875328
0.1875774
0.18761
0.1878026
0.1881178
0.1909295
0.1832889
0.1843562
0.1853327
0.1861586
0.186786
0.1871793
0.1873149
0.1871864
0.1868123
0.1862647
0.1857164
0.18566
0.1855906
0.185542
0.1854969
0.185461
0.1865817
0.1893322
0.1821264
0.1831397
0.1840588
0.1848322
0.1854175
0.1857784
0.185886
0.1857166
0.1852551
0.1845097
0.1836261
0.1833565
0.1831355
0.1829485
0.1828128
0.1825541
0.183221
0.1841792
0.1867915
0.1810207
0.1819867
0.1828566
0.1835877
0.1841399
0.1844777
0.1845671
0.1843696
0.1838225
0.1827875
0.1808898
0.1802929
0.1799179
0.1796594
0.1794438
0.1791222
0.1794946
0.1799548
0.1806803
0.1830072
0.1749544
0.1753497
0.1755443
0.1755875
0.1754986
0.1751393
0.1753859
0.1755442
0.175747
0.176178
0.1779972
0.1712208
0.1716692
0.171952
0.1720672
0.1720016
0.1716271
0.1717758
0.1718398
0.1717897
0.171744
0.1718415
0.1732036
0.1685789
0.1689959
0.1692688
0.169381
0.1693132
0.1689334
0.1690505
0.1690688
0.1689833
0.1687631
0.1684712
0.1683312
0.1694078
0.1667529
0.167147
0.1674074
0.1675171
0.1674544
0.167097
0.1672134
0.167248
0.167174
0.1669831
0.1666019
0.1661618
0.1659263
0.1668345
0.165626
0.1660161
0.1662805
0.1664032
0.1663651
0.1660493
0.1661965
0.1662716
0.1662603
0.1661349
0.1658468
0.1653932
0.1649351
0.1646808
0.1655414
0.1843286
0.1903719
0.1916284
0.1927679
0.1937266
0.1944415
0.1948549
0.1949024
0.1945416
0.1936481
0.1921678
0.1896032
0.1909786
0.189134
0.1903686
0.1914938
0.1924424
0.1931541
0.193574
0.1936587
0.1933597
0.1926755
0.1915762
0.1904134
0.1904262
0.1924171
0.187964
0.1891816
0.1903
0.191247
0.1919629
0.1924006
0.1925242
0.1923245
0.1918075
0.1910834
0.1903339
0.1903612
0.1907333
0.1928837
0.1868205
0.1880165
0.1891226
0.1900631
0.1907797
0.1912293
0.1913888
0.1912569
0.1908796
0.1903421
0.1898599
0.1898851
0.1900755
0.1905924
0.1927279
0.1856777
0.1868447
0.1879274
0.1888503
0.1895566
0.1900077
0.1901846
0.1900977
0.1897906
0.1893695
0.1889885
0.1890914
0.1891784
0.1894272
0.1899813
0.1918233
0.1845251
0.1856547
0.186702
0.1875941
0.1882777
0.1887163
0.1888942
0.1888204
0.1885431
0.1881543
0.1878203
0.1879194
0.1880221
0.1881108
0.1883558
0.1887128
0.1915192
0.1833642
0.1844497
0.1854504
0.1863006
0.1869501
0.1873649
0.1875273
0.1874432
0.1871499
0.186738
0.1863658
0.1864386
0.1864903
0.1865519
0.186605
0.1866563
0.1878588
0.1906265
0.1822086
0.1832442
0.1841915
0.1849922
0.1856014
0.1859851
0.1861219
0.1860066
0.1856599
0.1851495
0.1846489
0.1846191
0.1845939
0.1845673
0.184568
0.1844292
0.1852258
0.1863226
0.189031
0.1810789
0.182064
0.1829562
0.1837075
0.1842763
0.1846292
0.1847384
0.184583
0.1841492
0.1834483
0.1826199
0.1823918
0.1822119
0.1820834
0.1819867
0.1818018
0.1823348
0.1829854
0.1839209
0.1864944
0.1800042
0.1809433
0.1817896
0.1825001
0.1830378
0.1833681
0.1834597
0.1832758
0.182758
0.1817747
0.1799705
0.1794242
0.1791028
0.1788972
0.1787524
0.1784958
0.1789182
0.1792782
0.1797227
0.1804267
0.1826589
0.1742358
0.1746482
0.1748721
0.1749612
0.1749294
0.1746609
0.1749585
0.1751941
0.1753394
0.1755261
0.1758849
0.1776597
0.1706103
0.1710741
0.171384
0.1715386
0.1715314
0.1712371
0.1714621
0.1716009
0.1716537
0.1715903
0.1714832
0.1715507
0.1729576
0.1680322
0.1684654
0.1687637
0.1689139
0.1688981
0.1685963
0.1687789
0.1688873
0.1688956
0.1687989
0.168524
0.1682088
0.1681143
0.1692454
0.1662402
0.1666497
0.1669339
0.1670776
0.1670627
0.166773
0.1669505
0.167059
0.1670848
0.1670009
0.1667599
0.1663596
0.1659643
0.1657809
0.166753
0.1651239
0.1655278
0.1658131
0.1659656
0.1659686
0.1657125
0.1659093
0.1660492
0.1661164
0.1660962
0.1659245
0.1656196
0.1652098
0.1648018
0.1646069
0.1785753
0.1814454
0.1837379
0.1890603
0.1902698
0.1913654
0.1922868
0.1929757
0.1933748
0.1934318
0.1930735
0.1922273
0.1906474
0.1879096
0.187293
0.1888492
0.1878668
0.1890572
0.1901409
0.1910541
0.1917401
0.1921493
0.1922359
0.1919674
0.1913026
0.1902712
0.1890091
0.1886847
0.1887519
0.1906892
0.1867371
0.1879126
0.1889914
0.1899043
0.1905956
0.1910206
0.1911493
0.1909661
0.1904946
0.1897969
0.189103
0.188964
0.188992
0.1893618
0.1914354
0.1856313
0.1867878
0.187856
0.188764
0.1894565
0.189894
0.1900543
0.1899417
0.1895914
0.1891044
0.1886433
0.1886827
0.1887053
0.1888908
0.1893903
0.1912337
0.1845251
0.1856547
0.186702
0.1875941
0.1882777
0.1887163
0.1888942
0.1888204
0.1885431
0.1881543
0.1878203
0.1879194
0.1880221
0.1881108
0.1883558
0.1887128
0.1915192
0.1834077
0.1845029
0.1855169
0.1863808
0.187043
0.1874702
0.1876478
0.1875871
0.1873329
0.1869803
0.1866789
0.1868061
0.1869111
0.187023
0.1871221
0.1872146
0.1884544
0.191216
0.1822817
0.1833347
0.1843054
0.1851294
0.1857599
0.1861641
0.1863268
0.186254
0.1859846
0.1856038
0.1852706
0.1853622
0.1854496
0.1855233
0.1856117
0.1855481
0.186423
0.1876007
0.1903246
0.1811586
0.1821653
0.1830848
0.1838624
0.1844542
0.1848288
0.1849663
0.1848629
0.1845393
0.1840637
0.1836013
0.1836002
0.1836037
0.1836231
0.1836488
0.1835697
0.1842121
0.1849919
0.1860647
0.1887314
0.1800607
0.1810183
0.1818862
0.1826162
0.1831699
0.1835147
0.1836253
0.1834821
0.1830734
0.1824112
0.1816334
0.1814372
0.1812978
0.1812098
0.1811711
0.1810335
0.1815966
0.182117
0.1827514
0.1836643
0.1861373
0.1790137
0.179929
0.180752
0.1814439
0.1819674
0.182291
0.182384
0.1822126
0.1817211
0.1807846
0.1790638
0.1785629
0.1782839
0.1781274
0.1780334
0.1778533
0.1783033
0.1787155
0.1790632
0.179492
0.1801217
0.1823021
0.1735169
0.1739413
0.1741896
0.1743135
0.1743324
0.1741315
0.1744894
0.1747774
0.175002
0.1751343
0.1752584
0.175585
0.1774026
0.1699935
0.1704689
0.1707997
0.1709871
0.1710252
0.1708006
0.1710799
0.171296
0.171425
0.1714664
0.1713476
0.1712164
0.1713293
0.1727903
0.167477
0.1679226
0.1682415
0.1684222
0.16845
0.1682109
0.1684486
0.1686232
0.1687227
0.1687211
0.168574
0.1682794
0.1680093
0.167967
0.1691623
0.1657184
0.1661403
0.1664439
0.1666159
0.1666402
0.166408
0.1666325
0.1668028
0.1669033
0.1669202
0.1667897
0.1665319
0.1661753
0.1658303
0.1657066
0.1646138
0.1650288
0.1653315
0.165509
0.1655466
0.1653404
0.1655779
0.1657681
0.1659008
0.1659599
0.1658961
0.1657094
0.165447
0.1650854
0.1647338
0.1745993
0.1763656
0.1782894
0.1803504
0.1809378
0.1828577
0.1877959
0.1889623
0.1900177
0.190905
0.1915693
0.191959
0.1920198
0.1916958
0.1908806
0.1893992
0.1866749
0.1857772
0.1854847
0.1871063
0.1866434
0.1877929
0.1888384
0.1897192
0.190382
0.1907799
0.1908737
0.1906257
0.1900152
0.1890295
0.187858
0.1874012
0.1871486
0.1872774
0.1891883
0.1855508
0.1866876
0.1877296
0.1886113
0.1892796
0.1896937
0.1898247
0.1896635
0.1892241
0.1885865
0.1879276
0.1878173
0.1876947
0.1877422
0.1881228
0.1899391
0.1844802
0.1855997
0.1866331
0.187511
0.1881813
0.188607
0.188769
0.1886707
0.1883524
0.1879013
0.1874923
0.1875328
0.1875774
0.18761
0.1878026
0.1881178
0.1909295
0.1834077
0.1845029
0.1855169
0.1863808
0.187043
0.1874702
0.1876478
0.1875871
0.1873329
0.1869803
0.1866789
0.1868061
0.1869111
0.187023
0.1871221
0.1872146
0.1884544
0.191216
0.1823238
0.1833862
0.1843697
0.1852069
0.1858496
0.1862657
0.1864429
0.1863927
0.1861606
0.1858363
0.1855703
0.185713
0.1858498
0.1859693
0.1860985
0.1860705
0.1869822
0.1881968
0.1909138
0.1812295
0.1822531
0.1831951
0.1839951
0.1846074
0.1850019
0.1851641
0.1851016
0.1848522
0.1845006
0.1841978
0.1843114
0.1844203
0.1845325
0.1846371
0.1846241
0.185333
0.1861906
0.1873436
0.1900239
0.1801382
0.1811166
0.1820109
0.1827662
0.1833421
0.1837079
0.1838458
0.1837526
0.1834499
0.183004
0.1825769
0.1825965
0.1826299
0.1826792
0.1827522
0.182708
0.1833667
0.1839962
0.1847591
0.1858082
0.1883707
0.1790687
0.1800019
0.1808458
0.1815565
0.1820955
0.182433
0.1825445
0.1824123
0.1820259
0.1813987
0.1806648
0.1804975
0.1803891
0.1803403
0.1803411
0.1802674
0.18084
0.1813927
0.1819006
0.182519
0.1833557
0.1857716
0.1780498
0.1789406
0.1797432
0.1804166
0.1809274
0.181244
0.1813385
0.1811781
0.1807105
0.1798164
0.1781714
0.1777092
0.1774678
0.1773494
0.177302
0.1771773
0.1776707
0.178112
0.178514
0.1788495
0.1792147
0.1798096
0.1820303
0.1727997
0.1732331
0.1735002
0.1736533
0.1737111
0.1735701
0.1739682
0.1743176
0.1745961
0.1748096
0.1748857
0.1749844
0.1753567
0.1772277
0.1693731
0.169857
0.1702045
0.1704178
0.170494
0.170325
0.1706503
0.1709216
0.171129
0.171248
0.1712385
0.1710994
0.1710135
0.171179
0.1727046
0.1669156
0.167371
0.1677066
0.1679123
0.1679758
0.1677899
0.1680693
0.1682997
0.1684663
0.1685569
0.1685084
0.168344
0.1680935
0.1678739
0.1678917
0.1651899
0.1656217
0.1659414
0.1661369
0.1661942
0.16601
0.166273
0.1664908
0.1666538
0.1667463
0.1667194
0.1665739
0.1663586
0.1660504
0.1657619
0.1640975
0.1645216
0.1648387
0.1650375
0.1651044
0.1649409
0.1652109
0.1654423
0.1656257
0.165751
0.165769
0.1656917
0.1655461
0.1653301
0.165022
0.1720226
0.1728255
0.174376
0.1756355
0.1761127
0.1777571
0.1796171
0.1798836
0.1801761
0.1818339
0.186575
0.1877015
0.18872
0.189576
0.1902182
0.1905976
0.1906669
0.1903666
0.189614
0.1882054
0.1856611
0.1846871
0.1841124
0.1839929
0.1856345
0.1854603
0.1865721
0.1875823
0.1884332
0.1890744
0.1894627
0.1895604
0.1893376
0.1887666
0.187857
0.18675
0.1863471
0.1859738
0.1857998
0.1859895
0.1876948
0.1844024
0.185503
0.1865112
0.1873638
0.1880111
0.1884144
0.1885484
0.1884036
0.1880008
0.1874069
0.1868119
0.186714
0.1866268
0.1865372
0.1866175
0.1868422
0.1896349
0.1833642
0.1844497
0.1854504
0.1863006
0.1869501
0.1873649
0.1875273
0.1874432
0.1871499
0.186738
0.1863658
0.1864386
0.1864903
0.1865519
0.186605
0.1866563
0.1878588
0.1906265
0.1823238
0.1833862
0.1843697
0.1852069
0.1858496
0.1862657
0.1864429
0.1863927
0.1861606
0.1858363
0.1855703
0.185713
0.1858498
0.1859693
0.1860985
0.1860705
0.1869822
0.1881968
0.1909138
0.1812704
0.182303
0.1832574
0.1840701
0.1846941
0.1851
0.1852763
0.1852354
0.1850218
0.1847242
0.1844855
0.1846473
0.1848023
0.1849567
0.1850981
0.1851162
0.1858564
0.1867506
0.1879402
0.1906126
0.1802071
0.1812018
0.1821178
0.1828948
0.1834904
0.1838753
0.1840371
0.1839833
0.1837519
0.183425
0.1831505
0.1832789
0.1834115
0.1835472
0.1836924
0.1837068
0.1844231
0.1851188
0.1859592
0.1870876
0.1896614
0.179144
0.1800974
0.1809668
0.181702
0.1822624
0.1826202
0.1827579
0.1826741
0.1823898
0.1819707
0.1815735
0.1816119
0.1816669
0.1817466
0.1818501
0.1818606
0.1825168
0.1831648
0.1837814
0.1845277
0.1854993
0.1880012
0.1781033
0.1790115
0.1798343
0.1805259
0.1810517
0.1813817
0.1814941
0.1813715
0.1810055
0.1804097
0.1797154
0.1795719
0.179491
0.1794717
0.1795104
0.179481
0.180084
0.1806479
0.1811903
0.1816858
0.1822396
0.1830398
0.1854929
0.1771081
0.1779787
0.1787599
0.1794173
0.1799152
0.1802258
0.1803209
0.1801708
0.1797249
0.1788696
0.1772936
0.1768658
0.1766556
0.1765705
0.1765588
0.1764843
0.1770034
0.1774893
0.177922
0.1783139
0.1785926
0.1789309
0.1795721
0.1818454
0.1720861
0.1725259
0.1728081
0.1729843
0.173075
0.1729808
0.173414
0.1738045
0.1741455
0.1744144
0.1745764
0.1746314
0.1747761
0.1752017
0.1771382
0.168751
0.1692412
0.1696018
0.1698365
0.1699434
0.1698216
0.1701809
0.1704991
0.1707624
0.1709609
0.1710326
0.1710054
0.1709107
0.1708758
0.1711021
0.1663502
0.1668131
0.1671622
0.1673887
0.167482
0.1673405
0.1676539
0.1679266
0.1681497
0.1683083
0.1683548
0.1682909
0.1681693
0.1679675
0.1678048
0.1646564
0.1650962
0.1654292
0.1656446
0.1657298
0.1655866
0.1658801
0.1661369
0.166348
0.1665036
0.1665548
0.1665143
0.1664099
0.1662412
0.1659867
0.1635767
0.164008
0.1643374
0.1645541
0.1646463
0.1645196
0.164816
0.1650803
0.1653054
0.1654821
0.1655684
0.165574
0.1655364
0.1654354
0.1652704
0.1707477
0.1705208
0.1718159
0.1723461
0.172624
0.173937
0.1752117
0.1754033
0.1756402
0.1770196
0.1790166
0.1791828
0.1791841
0.1792828
0.1807363
0.1853942
0.186484
0.1874682
0.1882955
0.1889171
0.1892876
0.189362
0.1890894
0.1883837
0.1870732
0.1846715
0.1837916
0.1831372
0.1827434
0.1827215
0.1841781
0.1843148
0.1853914
0.1863691
0.1871923
0.1878135
0.1881922
0.1882943
0.1880909
0.1875626
0.1867106
0.1856922
0.1853228
0.1850067
0.1847219
0.1846262
0.1847009
0.1873917
0.1832889
0.1843562
0.1853327
0.1861586
0.186786
0.1871793
0.1873149
0.1871864
0.1868123
0.1862647
0.1857164
0.18566
0.1855906
0.185542
0.1854969
0.185461
0.1865817
0.1893322
0.1822817
0.1833347
0.1843054
0.1851294
0.1857599
0.1861641
0.1863268
0.186254
0.1859846
0.1856038
0.1852706
0.1853622
0.1854496
0.1855233
0.1856117
0.1855481
0.186423
0.1876007
0.1903246
0.1812704
0.182303
0.1832574
0.1840701
0.1846941
0.1851
0.1852763
0.1852354
0.1850218
0.1847242
0.1844855
0.1846473
0.1848023
0.1849567
0.1850981
0.1851162
0.1858564
0.1867506
0.1879402
0.1906126
0.1802468
0.1812503
0.1821782
0.1829674
0.1835743
0.1839703
0.1841456
0.1841126
0.1839156
0.1836405
0.183427
0.1836012
0.1837772
0.1839521
0.1841309
0.1841729
0.1849162
0.185643
0.1865198
0.1876844
0.1902493
0.179211
0.1801802
0.1810705
0.1818267
0.1824061
0.1827823
0.1829431
0.1828973
0.1826817