/*--------------------------------*- C++ -*----------------------------------*\
| =========                 |                                                 |
| \\      /  F ield         | OpenFOAM: The Open Source CFD Toolbox           |
|  \\    /   O peration     | Version:  2306                                  |
|   \\  /    A nd           | Website:  www.openfoam.com                      |
|    \\/     M anipulation  |                                                 |
\*---------------------------------------------------------------------------*/
FoamFile
{
    version     2.0;
    format      ascii;
    arch        "LSB;label=32;scalar=64";
    class       volScalarField;
    location    "1.2/air";
    object      diffSp.O2;
}
// * * * * * * * * * * * * * * * * * * * * * * * * * * * * * * * * * * * * * //

dimensions      [0 2 -1 0 0 0 0];

internalField   nonuniform List<scalar> 
16000
(
0.0002348042
0.0002303547
0.0002400362
0.0002302759
0.000227899
0.000238971
0.000219608
0.0002413634
0.0002389536
0.0002277517
0.0002265055
0.0002380511
0.0002130601
0.0002409543
0.0002358229
0.0002129521
0.0002424306
0.0002409735
0.0002380142
0.0002262763
0.0002258587
0.0002373754
0.0002091715
0.0002405889
0.0002330921
0.000203276
0.0002422455
0.0002397769
0.0002330492
0.0002088846
0.0002433654
0.0002422782
0.0002406218
0.0002373102
0.0002255194
0.0002258587
0.0002370179
0.0002073374
0.0002403102
0.0002310761
0.0001973033
0.0002420852
0.0002386894
0.0002286577
0.0001970663
0.0002432654
0.0002417584
0.0002387007
0.0002309535
0.0002067695
0.0002442139
0.0002433007
0.0002421443
0.0002403549
0.0002369148
0.0002253688
0.0001392679
0.0002265055
0.0002370179
0.0002073374
0.0002401588
0.0002300071
0.0001944267
0.0002419645
0.0002378517
0.0002253848
0.0001895814
0.0002431832
0.0002412932
0.0002369279
0.0002252718
0.0001937712
0.0002441486
0.0002430361
0.0002413254
0.0002378679
0.0002297655
0.0002063669
0.0002449917
0.0002441824
0.0002432475
0.0002420508
0.0002402171
0.0002368737
0.0002258154
0.0001392514
0.0001398554
0.000139633
0.000227899
0.0002373754
0.0002091715
0.0002401588
0.0002300071
0.0001944267
0.0002418993
0.0002373946
0.0002236405
0.0001859239
0.0002431234
0.0002409372
0.0002355473
0.0002210016
0.000185423
0.0002440977
0.0002428073
0.000240578
0.0002355459
0.0002233365
0.0001931386
0.0002449414
0.0002440196
0.0002428448
0.0002410085
0.0002374169
0.0002296241
0.0002076589
0.0002457118
0.0002449724
0.0002441594
0.0002432184
0.0002420182
0.0002402395
0.0002372019
0.0002269434
0.0001392154
0.0001398522
0.0001396095
0.0001404265
0.0001401898
0.0001400008
0.0002303547
0.0002380511
0.0002130601
0.0002403102
0.0002310761
0.0001973033
0.0002418993
0.0002373946
0.0002236405
0.0001859239
0.0002430917
0.0002407431
0.0002347893
0.0002187143
0.0001813109
0.0002440621
0.000242637
0.0002399979
0.0002337212
0.0002184788
0.000184616
0.0002449037
0.0002438844
0.0002424883
0.0002400428
0.0002347821
0.0002230914
0.0001951555
0.0002456691
0.000244852
0.000243921
0.0002427227
0.0002408695
0.0002374426
0.0002305707
0.0002108326
0.0002463809
0.0002456972
0.0002449603
0.0002441534
0.0002432235
0.0002420618
0.0002404342
0.0002378881
0.0002290151
0.000139146
0.0001398466
0.0001395545
0.0001404263
0.0001401868
0.0001399716
0.0001409508
0.0001407204
0.0001405245
0.0001403734
0.0002348042
0.000238971
0.000219608
0.0002405889
0.0002330921
0.000203276
0.0002419645
0.0002378517
0.0002253848
0.0001895814
0.0002430917
0.0002407431
0.0002347893
0.0002187143
0.0001813109
0.0002440436
0.0002425456
0.000239679
0.0002327141
0.0002158683
0.0001804103
0.0002448781
0.0002437871
0.0002422184
0.0002392843
0.0002326987
0.0002181464
0.0001871579
0.0002456377
0.0002447552
0.0002437179
0.0002422764
0.0002397932
0.000234798
0.0002246003
0.0002000258
0.0002463427
0.0002455967
0.000244789
0.0002438717
0.0002426994
0.0002409543
0.0002379758
0.000232551
0.0002164111
0.0002470053
0.0002463681
0.0002456889
0.0002449621
0.0002441706
0.000243271
0.0002421903
0.0002407988
0.0002389129
0.0002327849
0.0001389609
0.0001398408
0.000139437
0.0001404274
0.000140182
0.0001399021
0.0001409516
0.0001407223
0.0001405215
0.0001403404
0.0001414295
0.0001412074
0.0001410139
0.0001408607
0.0001407481
0.0002400362
0.0002302759
0.0002409543
0.0002358229
0.0002129521
0.0002420852
0.0002386894
0.0002286577
0.0001970663
0.0002431234
0.0002409372
0.0002355473
0.0002210016
0.000185423
0.0002440436
0.0002425456
0.000239679
0.0002327141
0.0002158683
0.0001804103
0.000244865
0.000243736
0.0002420722
0.0002388645
0.0002315449
0.0002154861
0.0001832274
0.0002456166
0.0002446874
0.0002435691
0.0002419336
0.0002389399
0.0002326989
0.0002200858
0.0001932287
0.0002463148
0.0002455173
0.0002446477
0.0002436275
0.0002422202
0.0002399053
0.0002356375
0.000227747
0.0002082904
0.0002469703
0.0002462785
0.000245548
0.000244766
0.0002438882
0.0002427977
0.0002412833
0.000238986
0.0002354295
0.0002256489
0.0002475893
0.0002469933
0.0002463611
0.0002456927
0.0002449819
0.0002442162
0.0002433677
0.0002424103
0.000241341
0.000240326
0.0001376738
0.000139858
0.0001391391
0.0001404345
0.0001401796
0.0001397555
0.0001409545
0.0001407291
0.0001405168
0.0001402621
0.0001414305
0.0001412106
0.0001410175
0.0001408576
0.0001407131
0.0001418721
0.0001416539
0.0001414632
0.0001413078
0.0001411951
5.969127e-05
0.0002413634
0.0002389536
0.0002277517
0.0002422455
0.0002397769
0.0002330492
0.0002088846
0.0002431832
0.0002412932
0.0002369279
0.0002252718
0.0001937712
0.0002440621
0.000242637
0.0002399979
0.0002337212
0.0002184788
0.000184616
0.000244865
0.000243736
0.0002420722
0.0002388645
0.0002315449
0.0002154861
0.0001832274
0.000245606
0.0002446525
0.0002434902
0.0002417463
0.0002384649
0.0002315339
0.0002176585
0.0001899192
0.0002462961
0.0002454626
0.0002445473
0.000243446
0.0002418474
0.0002390665
0.0002337749
0.0002241195
0.0002032946
0.0002469447
0.0002462083
0.000245434
0.0002446019
0.0002436394
0.0002423563
0.0002404058
0.0002372253
0.0002322402
0.0002211597
0.0002475568
0.0002469112
0.0002462362
0.0002455341
0.000244794
0.0002439842
0.0002430328
0.0002418554
0.0002404078
0.0002390223
0.0001361398
0.0002481367
0.0002475778
0.0002469867
0.000246365
0.000245712
0.0002450238
0.0002442957
0.0002435236
0.0002427486
0.0002421719
0.0001401507
0.0001381425
0.0001404867
0.0001402047
0.0001394257
0.0001409647
0.000140751
0.000140514
0.0001401032
0.0001414337
0.0001412203
0.0001410282
0.0001408523
0.0001406313
0.000141873
0.0001416574
0.0001414685
0.0001413125
0.0001411919
5.967609e-05
0.0001422822
0.0001420694
0.0001418776
0.0001417191
0.0001415989
5.987436e-05
5.970133e-05
0.0002424306
0.0002409735
0.0002380142
0.0002262763
0.0002432654
0.0002417584
0.0002387007
0.0002309535
0.0002067695
0.0002440977
0.0002428073
0.000240578
0.0002355459
0.0002233365
0.0001931386
0.0002448781
0.0002437871
0.0002422184
0.0002392843
0.0002326987
0.0002181464
0.0001871579
0.000245606
0.0002446525
0.0002434902
0.0002417463
0.0002384649
0.0002315339
0.0002176585
0.0001899192
0.0002462868
0.0002454348
0.0002444952
0.0002433488
0.0002416421
0.0002385973
0.0002327393
0.0002221709
0.0002008888
0.0002469277
0.0002461604
0.0002453545
0.0002444839
0.0002434516
0.0002420071
0.0002396939
0.0002358071
0.0002298146
0.000218398
0.0002475331
0.0002468469
0.0002461361
0.0002454044
0.0002446347
0.000243774
0.0002427028
0.0002412713
0.0002393908
0.0002376325
0.0001349253
0.0002481064
0.0002475014
0.0002468722
0.0002462253
0.0002455637
0.0002448829
0.0002441722
0.0002434163
0.0002426683
0.0002422
0.0001399979
0.0001369342
0.0002486507
0.0002481256
0.0002475714
0.0002469902
0.0002463828
0.00024575
0.0002450926
0.0002444198
0.0002437707
0.0002433351
0.0001410218
0.0001403525
0.0001386406
0.0001410228
0.0001408365
0.0001405309
0.0001397837
0.0001414441
0.0001412477
0.0001410572
0.0001408467
0.0001404728
0.0001418761
0.0001416674
0.0001414831
0.0001413252
0.0001411855
5.964093e-05
0.000142283
0.0001420727
0.0001418831
0.0001417258
0.0001416041
5.987296e-05
5.968616e-05
0.0001426646
0.0001424567
0.0001422659
0.0001421011
0.0001419718
6.003876e-05
5.988325e-05
5.971127e-05
0.0002433654
0.0002422782
0.0002406218
0.0002373102
0.0002255194
0.0002441486
0.0002430361
0.0002413254
0.0002378679
0.0002297655
0.0002063669
0.0002449037
0.0002438844
0.0002424883
0.0002400428
0.0002347821
0.0002230914
0.0001951555
0.0002456166
0.0002446874
0.0002435691
0.0002419336
0.0002389399
0.0002326989
0.0002200858
0.0001932287
0.0002462868
0.0002454348
0.0002444952
0.0002433488
0.0002416421
0.0002385973
0.0002327393
0.0002221709
0.0002008888
0.0002469192
0.0002461362
0.0002453138
0.0002444221
0.0002433501
0.0002418129
0.0002392927
0.0002350147
0.0002285077
0.000217065
0.0002475173
0.0002468032
0.0002460669
0.000245313
0.0002445185
0.0002436113
0.0002424315
0.0002407754
0.000238532
0.000236519
0.00013411
0.0002480843
0.0002474417
0.0002467807
0.0002461121
0.0002454412
0.0002447599
0.0002440458
0.0002432608
0.0002424453
0.0002419322
0.000139726
0.0001359239
0.0002486224
0.0002480542
0.0002474647
0.0002468621
0.0002462531
0.0002456447
0.0002450433
0.0002444671
0.0002439705
0.0002437576
0.0001411859
0.0001402463
0.0001376912
0.000249134
0.0002486401
0.0002481194
0.0002475743
0.0002470064
0.0002464173
0.0002458111
0.0002451983
0.0002446199
0.0002442358
0.0001415844
0.0001411808
0.0001405953
0.000139165
0.0001414998
0.0001413442
0.0001411437
0.0001408504
0.0001401845
0.0001418858
0.0001416946
0.0001415195
0.0001413553
0.0001411759
5.95744e-05
0.0001422859
0.0001420822
0.000141898
0.0001417431
0.0001416171
5.986999e-05
5.965105e-05
0.0001426653
0.0001424598
0.0001422713
0.0001421081
0.0001419793
6.004105e-05
5.988185e-05
5.969612e-05
0.0001430218
0.00014282
0.0001426306
0.0001424624
0.0001423216
6.019128e-05
6.004649e-05
5.989202e-05
5.972135e-05
0.0002442139
0.0002433007
0.0002421443
0.0002403549
0.0002369148
0.0002253688
0.0002449414
0.0002440196
0.0002428448
0.0002410085
0.0002374169
0.0002296241
0.0002076589
0.0002456377
0.0002447552
0.0002437179
0.0002422764
0.0002397932
0.000234798
0.0002246003
0.0002000258
0.0002462961
0.0002454626
0.0002445473
0.000243446
0.0002418474
0.0002390665
0.0002337749
0.0002241195
0.0002032946
0.0002469192
0.0002461362
0.0002453138
0.0002444221
0.0002433501
0.0002418129
0.0002392927
0.0002350147
0.0002285077
0.000217065
0.0002475094
0.0002467811
0.0002460317
0.0002452659
0.0002444571
0.0002435219
0.0002422775
0.00024049
0.0002380431
0.0002359069
0.0001337026
0.0002480695
0.0002474011
0.0002467177
0.0002460333
0.0002453541
0.0002446676
0.0002439392
0.0002431092
0.0002422064
0.00024163
0.0001394798
0.0001352285
0.0002486016
0.0002479983
0.0002473796
0.0002467589
0.0002461474
0.0002455555
0.0002449897
0.0002444639
0.0002440222
0.0002438681
0.0001412071
0.0001400396
0.000136867
0.0002491074
0.000248573
0.0002480194
0.0002474548
0.0002468875
0.0002463267
0.0002457866
0.0002452907
0.0002448984
0.0002447545
0.0001418309
0.0001413312
0.0001405125
0.0001384267
0.0002495888
0.0002491238
0.000248634
0.0002481218
0.0002475889
0.0002470377
0.0002464724
0.0002459046
0.0002453705
0.0002450133
0.0001420282
0.0001417181
0.0001413695
0.0001408655
0.0001397038
0.0001419369
0.0001417879
0.0001416201
0.0001414291
0.0001411657
5.945891e-05
0.0001422946
0.0001421077
0.0001419345
0.0001417819
0.0001416443
5.986483e-05
5.958479e-05
0.0001426679
0.0001424686
0.0001422855
0.0001421259
0.0001419975
6.004657e-05
5.987886e-05
5.966108e-05
0.0001430224
0.0001428229
0.0001426356
0.0001424691
0.0001423294
6.019458e-05
6.004879e-05
5.989062e-05
5.970622e-05
0.0001433566
0.0001431612
0.0001429748
0.0001428043
0.0001426558
6.033519e-05
6.019802e-05
6.005411e-05
5.990088e-05
5.973118e-05
0.0002449917
0.0002441824
0.0002432475
0.0002420508
0.0002402171
0.0002368737
0.0002258154
0.0002456691
0.000244852
0.000243921
0.0002427227
0.0002408695
0.0002374426
0.0002305707
0.0002108326
0.0002463148
0.0002455173
0.0002446477
0.0002436275
0.0002422202
0.0002399053
0.0002356375
0.000227747
0.0002082904
0.0002469277
0.0002461604
0.0002453545
0.0002444839
0.0002434516
0.0002420071
0.0002396939
0.0002358071
0.0002298146
0.000218398
0.0002475094
0.0002467811
0.0002460317
0.0002452659
0.0002444571
0.0002435219
0.0002422775
0.00024049
0.0002380431
0.0002359069
0.0001337026
0.0002480622
0.0002473806
0.0002466857
0.000245993
0.0002453088
0.0002446178
0.0002438779
0.0002430167
0.0002420575
0.0002414427
0.0001393382
0.0001348772
0.0002485878
0.0002479603
0.0002473211
0.0002466873
0.0002460732
0.0002454904
0.0002449427
0.0002444369
0.0002440057
0.000243864
0.0001411803
0.0001398465
0.0001362866
0.000249088
0.0002485206
0.0002479397
0.0002473587
0.0002467911
0.0002462513
0.0002457579
0.0002453358
0.0002450376
0.0002449802
0.0001419431
0.0001413667
0.0001403546
0.000137769
0.0002495639
0.0002490609
0.0002485401
0.0002480097
0.0002474777
0.0002469545
0.0002464545
0.0002460039
0.000245655
0.0002455289
0.000142284
0.0001419343
0.0001414937
0.0001407948
0.0001391435
0.0002500172
0.0002495792
0.000249118
0.000248636
0.0002481351
0.0002476176
0.0002470879
0.0002465567
0.0002460574
0.0002457153
0.0001424178
0.000142144
0.0001418756
0.0001415767
0.0001411486
5.927843e-05
0.0001423409
0.0001421938
0.0001420328
0.0001418714
0.0001417
5.985751e-05
5.947033e-05
0.0001426758
0.000142492
0.0001423198
0.0001421653
0.0001420343
6.005717e-05
5.987361e-05
5.95951e-05
0.0001430247
0.000142831
0.0001426488
0.0001424862
0.0001423484
6.020238e-05
6.005429e-05
5.988761e-05
5.967127e-05
0.0001433572
0.0001431638
0.0001429795
0.0001428107
0.0001426634
6.033866e-05
6.020133e-05
6.005641e-05
5.989949e-05
5.971608e-05
0.0001436709
0.0001434824
0.0001433
0.0001431295
0.0001429753
6.047369e-05
6.034111e-05
6.020466e-05
6.006181e-05
5.990951e-05
3.898617e-05
0.0002457118
0.0002449724
0.0002441594
0.0002432184
0.0002420182
0.0002402395
0.0002372019
0.0002269434
0.0002463427
0.0002455967
0.000244789
0.0002438717
0.0002426994
0.0002409543
0.0002379758
0.000232551
0.0002164111
0.0002469447
0.0002462083
0.000245434
0.0002446019
0.0002436394
0.0002423563
0.0002404058
0.0002372253
0.0002322402
0.0002211597
0.0002475173
0.0002468032
0.0002460669
0.000245313
0.0002445185
0.0002436113
0.0002424315
0.0002407754
0.000238532
0.000236519
0.00013411
0.0002480622
0.0002473806
0.0002466857
0.000245993
0.0002453088
0.0002446178
0.0002438779
0.0002430167
0.0002420575
0.0002414427
0.0001393382
0.0001348772
0.0002485809
0.0002479412
0.0002472914
0.0002466508
0.000246035
0.0002454559
0.0002449152
0.0002444149
0.0002439816
0.0002438408
0.0001411553
0.0001397341
0.0001359901
0.000249075
0.000248485
0.0002478849
0.0002472922
0.0002467238
0.0002461972
0.0002457319
0.0002453502
0.0002450962
0.000245075
0.0001419906
0.0001413567
0.0001402047
0.0001372969
0.0002495456
0.0002490116
0.0002484652
0.0002479195
0.0002473877
0.0002468858
0.0002464334
0.0002460603
0.0002458127
0.0002457782
0.0001424184
0.0001420434
0.0001415335
0.0001406734
0.0001386357
0.0002499938
0.00024952
0.0002490297
0.0002485305
0.0002480304
0.0002475391
0.000247071
0.0002466502
0.000246325
0.000246196
0.00014266
0.0001423665
0.0001420533
0.0001416715
0.0001410848
5.907169e-05
0.0002504207
0.0002500081
0.0002495736
0.0002491197
0.0002486482
0.0002481615
0.0002476637
0.0002471648
0.0002466946
0.0002463655
0.0001427744
0.0001425199
0.0001422798
0.0001420474
0.0001417904
5.984445e-05
5.929278e-05
0.0001427175
0.0001425703
0.0001424112
0.0001422541
0.0001421063
6.007681e-05
5.986599e-05
5.948169e-05
0.0001430318
0.0001428523
0.0001426805
0.0001425236
0.0001423862
6.021721e-05
6.006477e-05
5.988227e-05
5.96056e-05
0.0001433592
0.0001431713
0.0001429918
0.0001428267
0.0001426818
6.034683e-05
6.020912e-05
6.006189e-05
5.989647e-05
5.968123e-05
0.0001436714
0.0001434848
0.0001433043
0.0001431355
0.0001429824
6.047705e-05
6.034458e-05
6.020796e-05
6.006412e-05
5.990812e-05
3.897638e-05
0.0001439665
0.0001437851
0.0001436076
0.0001434386
0.0001432816
6.06068e-05
6.047892e-05
6.034692e-05
6.021137e-05
6.006929e-05
3.910136e-05
3.899482e-05
0.0002463809
0.0002456972
0.0002449603
0.0002441534
0.0002432235
0.0002420618
0.0002404342
0.0002378881
0.0002290151
0.0002469703
0.0002462785
0.000245548
0.000244766
0.0002438882
0.0002427977
0.0002412833
0.000238986
0.0002354295
0.0002256489
0.0002475331
0.0002468469
0.0002461361
0.0002454044
0.0002446347
0.000243774
0.0002427028
0.0002412713
0.0002393908
0.0002376325
0.0001349253
0.0002480695
0.0002474011
0.0002467177
0.0002460333
0.0002453541
0.0002446676
0.0002439392
0.0002431092
0.0002422064
0.00024163
0.0001394798
0.0001352285
0.0002485809
0.0002479412
0.0002472914
0.0002466508
0.000246035
0.0002454559
0.0002449152
0.0002444149
0.0002439816
0.0002438408
0.0001411553
0.0001397341
0.0001359901
0.0002490685
0.000248467
0.0002478572
0.0002472583
0.0002466893
0.0002461688
0.0002457165
0.0002453522
0.0002451154
0.0002451082
0.0001420071
0.000141342
0.0001401166
0.0001370532
0.0002495334
0.0002489781
0.0002484137
0.0002478571
0.0002473251
0.0002468368
0.0002464143
0.0002460864
0.0002458914
0.0002459001
0.0001424876
0.0001420941
0.0001415342
0.0001405586
0.0001382649
0.0002499766
0.0002494737
0.0002489593
0.0002484456
0.0002479457
0.0002474744
0.0002470517
0.0002467052
0.0002464781
0.000246437
0.0001427935
0.0001424926
0.0001421524
0.0001417086
0.0001409916
5.888324e-05
0.0002503987
0.0002499525
0.0002494906
0.0002490204
0.0002485494
0.0002480869
0.0002476461
0.0002472495
0.0002469397
0.0002468051
0.0001429969
0.0001427302
0.0001424629
0.000142186
0.0001418563
5.981782e-05
5.908981e-05
0.0002508009
0.0002504122
0.0002500028
0.0002495751
0.000249131
0.0002486726
0.0002482041
0.0002477343
0.0002472907
0.0002469732
0.0001431085
0.0001428654
0.0001426391
0.0001424274
0.0001422231
6.01052e-05
5.985237e-05
5.930701e-05
0.0001430697
0.0001429235
0.0001427641
0.0001426069
0.0001424595
6.024396e-05
6.008395e-05
5.987435e-05
5.949327e-05
0.0001433657
0.0001431908
0.0001430208
0.0001428614
0.0001427181
6.03623e-05
6.022384e-05
6.007225e-05
5.989103e-05
5.961589e-05
0.0001436733
0.0001434917
0.0001433156
0.0001431504
0.0001429997
6.048498e-05
6.035275e-05
6.021574e-05
6.006958e-05
5.990508e-05
3.895379e-05
0.0001439669
0.0001437874
0.0001436116
0.0001434442
0.0001432883
6.060998e-05
6.048229e-05
6.035039e-05
6.021468e-05
6.007159e-05
3.910046e-05
3.898508e-05
0.0001442448
0.0001440709
0.0001438989
0.0001437328
0.0001435748
6.073509e-05
6.061145e-05
6.048404e-05
6.03528e-05
6.021786e-05
3.920452e-05
3.910906e-05
3.900042e-05
0.0002470053
0.0002463681
0.0002456889
0.0002449621
0.0002441706
0.000243271
0.0002421903
0.0002407988
0.0002389129
0.0002327849
0.0002475568
0.0002469112
0.0002462362
0.0002455341
0.000244794
0.0002439842
0.0002430328
0.0002418554
0.0002404078
0.0002390223
0.0001361398
0.0002480843
0.0002474417
0.0002467807
0.0002461121
0.0002454412
0.0002447599
0.0002440458
0.0002432608
0.0002424453
0.0002419322
0.000139726
0.0001359239
0.0002485878
0.0002479603
0.0002473211
0.0002466873
0.0002460732
0.0002454904
0.0002449427
0.0002444369
0.0002440057
0.000243864
0.0001411803
0.0001398465
0.0001362866
0.0002490685
0.000248467
0.0002478572
0.0002472583
0.0002466893
0.0002461688
0.0002457165
0.0002453522
0.0002451154
0.0002451082
0.0001420071
0.000141342
0.0001401166
0.0001370532
0.0002495274
0.0002489612
0.0002483876
0.0002478253
0.000247293
0.0002468113
0.0002464029
0.0002460955
0.0002459232
0.0002459503
0.0001425168
0.0001421133
0.0001415268
0.0001404909
0.0001380714
0.0002499651
0.0002494422
0.0002489109
0.0002483869
0.0002478867
0.0002474285
0.0002470346
0.0002467322
0.0002465581
0.00024656
0.0001428658
0.0001425602
0.0001422022
0.0001417152
0.0001409058
5.87445e-05
0.0002503826
0.0002499089
0.0002494243
0.0002489405
0.0002484695
0.0002480255
0.000247627
0.0002472996
0.0002470814
0.0002470288
0.000143122
0.0001428542
0.0001425752
0.0001422706
0.0001418869
5.978274e-05
5.890465e-05
0.0002507802
0.0002503599
0.0002499247
0.0002494817
0.0002490378
0.0002486017
0.0002481858
0.0002478104
0.000247514
0.0002473737
0.0001433113
0.0001430586
0.0001428126
0.0001425715
0.0001423249
6.012742e-05
5.982584e-05
5.910772e-05
0.000251159
0.000250793
0.0002504072
0.0002500042
0.0002495856
0.0002491537
0.0002487121
0.0002482694
0.0002478501
0.0002475448
0.0001434236
0.0001431903
0.0001429713
0.0001427685
0.0001425778
6.028331e-05
6.011122e-05
5.986018e-05
5.93214e-05
0.0001434001
0.0001432556
0.0001430972
0.0001429382
0.0001427878
6.038998e-05
6.025011e-05
6.009095e-05
5.988283e-05
5.950464e-05
0.0001436791
0.0001435097
0.0001433424
0.0001431825
0.0001430338
6.049995e-05
6.036812e-05
6.023034e-05
6.00798e-05
5.989955e-05
3.891154e-05
0.0001439686
0.0001437938
0.0001436222
0.0001434581
0.0001433045
6.061747e-05
6.049021e-05
6.035855e-05
6.022244e-05
6.007703e-05
3.909848e-05
3.896263e-05
0.0001442452
0.000144073
0.0001439026
0.0001437379
0.0001435811
6.073808e-05
6.061464e-05
6.048742e-05
6.035628e-05
6.022117e-05
3.920603e-05
3.910818e-05
3.899071e-05
0.0001445071
0.0001443408
0.0001441748
0.0001440125
0.0001438555
6.08584e-05
6.073926e-05
6.0616e-05
6.048924e-05
6.035848e-05
3.930052e-05
3.921136e-05
3.911396e-05
3.900483e-05
0.0002475893
0.0002469933
0.0002463611
0.0002456927
0.0002449819
0.0002442162
0.0002433677
0.0002424103
0.000241341
0.000240326
0.0001376738
0.0002481064
0.0002475014
0.0002468722
0.0002462253
0.0002455637
0.0002448829
0.0002441722
0.0002434163
0.0002426683
0.0002422
0.0001399979
0.0001369342
0.0002486016
0.0002479983
0.0002473796
0.0002467589
0.0002461474
0.0002455555
0.0002449897
0.0002444639
0.0002440222
0.0002438681
0.0001412071
0.0001400396
0.000136867
0.000249075
0.000248485
0.0002478849
0.0002472922
0.0002467238
0.0002461972
0.0002457319
0.0002453502
0.0002450962
0.000245075
0.0001419906
0.0001413567
0.0001402047
0.0001372969
0.0002495274
0.0002489612
0.0002483876
0.0002478253
0.000247293
0.0002468113
0.0002464029
0.0002460955
0.0002459232
0.0002459503
0.0001425168
0.0001421133
0.0001415268
0.0001404909
0.0001380714
0.0002499594
0.0002494263
0.0002488863
0.000248357
0.0002478566
0.0002474047
0.0002470245
0.0002467426
0.0002465919
0.0002466127
0.0001428977
0.0001425896
0.0001422223
0.0001417128
0.0001408555
5.86717e-05
0.0002503718
0.0002498793
0.0002493788
0.0002488852
0.0002484138
0.000247982
0.0002476103
0.0002473246
0.0002471564
0.0002471449
0.0001431911
0.0001429236
0.0001426384
0.0001423164
0.0001418961
5.975135e-05
5.876821e-05
0.0002507651
0.000250319
0.0002498625
0.0002494065
0.0002489624
0.0002485434
0.0002481666
0.0002478552
0.0002476434
0.0002475787
0.0001434265
0.0001431746
0.0001429228
0.0001426669
0.000142393
6.013872e-05
5.979131e-05
5.892582e-05
0.0002511396
0.0002507439
0.0002503339
0.0002499163
0.0002494978
0.0002490865
0.0002486937
0.000248338
0.0002480539
0.0002479105
0.0001436087
0.0001433667
0.0001431313
0.000142906
0.0001426856
6.031954e-05
6.013278e-05
5.983374e-05
5.912573e-05
0.0002514961
0.0002511517
0.0002507884
0.0002504086
0.0002500141
0.0002496069
0.0002491905
0.0002487729
0.0002483764
0.0002480834
0.0001437224
0.0001434978
0.0001432853
0.0001430863
0.0001429
6.043078e-05
6.028831e-05
6.011714e-05
5.986812e-05
5.933552e-05
0.0001437107
0.0001435691
0.0001434123
0.0001432531
0.0001430988
6.052659e-05
6.039537e-05
6.025614e-05
6.009803e-05
5.989106e-05
3.883987e-05
0.000143974
0.0001438104
0.000143647
0.0001434878
0.0001433363
6.063159e-05
6.05051e-05
6.037382e-05
6.023691e-05
6.008711e-05
3.909484e-05
3.892066e-05
0.0001442467
0.000144079
0.0001439125
0.0001437509
0.0001435962
6.074512e-05
6.062213e-05
6.049534e-05
6.036443e-05
6.022891e-05
3.920955e-05
3.910623e-05
3.896834e-05
0.0001445075
0.0001443428
0.0001441783
0.0001440174
0.0001438614
6.086121e-05
6.074225e-05
6.06192e-05
6.049262e-05
6.036196e-05
3.930267e-05
3.921288e-05
3.911308e-05
3.899514e-05
0.0001447545
0.0001445958
0.0001444363
0.0001442786
0.0001441239
6.097688e-05
6.086216e-05
6.074333e-05
6.062062e-05
6.049424e-05
3.939144e-05
3.930664e-05
3.92156e-05
3.911775e-05
3.900735e-05
0.0001389609
0.0002481367
0.0002475778
0.0002469867
0.000246365
0.000245712
0.0002450238
0.0002442957
0.0002435236
0.0002427486
0.0002421719
0.0001401507
0.0001381425
0.0002486224
0.0002480542
0.0002474647
0.0002468621
0.0002462531
0.0002456447
0.0002450433
0.0002444671
0.0002439705
0.0002437576
0.0001411859
0.0001402463
0.0001376912
0.000249088
0.0002485206
0.0002479397
0.0002473587
0.0002467911
0.0002462513
0.0002457579
0.0002453358
0.0002450376
0.0002449802
0.0001419431
0.0001413667
0.0001403546
0.000137769
0.0002495334
0.0002489781
0.0002484137
0.0002478571
0.0002473251
0.0002468368
0.0002464143
0.0002460864
0.0002458914
0.0002459001
0.0001424876
0.0001420941
0.0001415342
0.0001405586
0.0001382649
0.0002499594
0.0002494263
0.0002488863
0.000248357
0.0002478566
0.0002474047
0.0002470245
0.0002467426
0.0002465919
0.0002466127
0.0001428977
0.0001425896
0.0001422223
0.0001417128
0.0001408555
5.86717e-05
0.0002503664
0.0002498644
0.0002493557
0.000248857
0.0002483854
0.0002479594
0.0002476006
0.0002473343
0.0002471885
0.0002471952
0.0001432221
0.0001429548
0.0001426664
0.0001423358
0.0001418969
5.973308e-05
5.869657e-05
0.000250755
0.0002502912
0.0002498196
0.0002493544
0.0002489099
0.0002485021
0.0002481501
0.0002478773
0.0002477122
0.000247686
0.0001434909
0.0001432407
0.0001429868
0.0001427231
0.0001424327
6.014286e-05
5.976052e-05
5.879165e-05
0.0002511253
0.0002507055
0.0002502754
0.0002498456
0.0002494268
0.0002490312
0.0002486745
0.000248378
0.0002481721
0.0002480984
0.0001437145
0.0001434736
0.0001432344
0.0001429997
0.0001427627
6.034511e-05
6.014387e-05
5.979975e-05
5.894702e-05
0.0002514779
0.0002511056
0.0002507196
0.0002503261
0.0002499315
0.0002495434
0.0002491724
0.0002488353
0.0002485636
0.000248419
0.0001438919
0.0001436589
0.0001434318
0.0001432138
0.0001430042
6.046983e-05
6.032371e-05
6.013803e-05
5.984177e-05
5.914339e-05
0.0002518132
0.0002514894
0.0002511475
0.0002507897
0.0002504179
0.000250034
0.0002496414
0.0002492473
0.0002488724
0.000248592
0.0001440058
0.00014379
0.0001435837
0.0001433884
0.0001432028
6.05658e-05
6.04351e-05
6.02932e-05
6.012316e-05
5.987583e-05
3.873154e-05
0.0001440031
0.0001438651
0.0001437113
0.0001435529
0.0001433966
6.065664e-05
6.053136e-05
6.040064e-05
6.026223e-05
6.010486e-05
3.908915e-05
3.884972e-05
0.0001442517
0.0001440945
0.0001439356
0.0001437786
0.0001436259
6.075836e-05
6.063618e-05
6.051013e-05
6.037958e-05
6.024324e-05
3.921603e-05
3.91026e-05
3.892661e-05
0.0001445089
0.0001443484
0.0001441876
0.0001440296
0.0001438757
6.086783e-05
6.07493e-05
6.062669e-05
6.050053e-05
6.037009e-05
3.930769e-05
3.921641e-05
3.911112e-05
3.897285e-05
0.0001447548
0.0001445977
0.0001444396
0.0001442833
0.0001441295
6.097953e-05
6.086498e-05
6.074634e-05
6.062383e-05
6.049762e-05
3.939371e-05
3.93088e-05
3.921712e-05
3.911687e-05
3.899767e-05
0.0001449879
0.0001448369
0.0001446841
0.0001445317
0.0001443803
6.109049e-05
6.098029e-05
6.086583e-05
6.074747e-05
6.062506e-05
3.947929e-05
3.939696e-05
3.931032e-05
3.921883e-05
3.911981e-05
0.000139146
0.000139858
0.0001391391
0.0002486507
0.0002481256
0.0002475714
0.0002469902
0.0002463828
0.00024575
0.0002450926
0.0002444198
0.0002437707
0.0002433351
0.0001410218
0.0001403525
0.0001386406
0.0002491074
0.000248573
0.0002480194
0.0002474548
0.0002468875
0.0002463267
0.0002457866
0.0002452907
0.0002448984
0.0002447545
0.0001418309
0.0001413312
0.0001405125
0.0001384267
0.0002495456
0.0002490116
0.0002484652
0.0002479195
0.0002473877
0.0002468858
0.0002464334
0.0002460603
0.0002458127
0.0002457782
0.0001424184
0.0001420434
0.0001415335
0.0001406734
0.0001386357
0.0002499651
0.0002494422
0.0002489109
0.0002483869
0.0002478867
0.0002474285
0.0002470346
0.0002467322
0.0002465581
0.00024656
0.0001428658
0.0001425602
0.0001422022
0.0001417152
0.0001409058
5.87445e-05
0.0002503664
0.0002498644
0.0002493557
0.000248857
0.0002483854
0.0002479594
0.0002476006
0.0002473343
0.0002471885
0.0002471952
0.0001432221
0.0001429548
0.0001426664
0.0001423358
0.0001418969
5.973308e-05
5.869657e-05
0.0002507499
0.0002502771
0.0002497979
0.0002493279
0.000248883
0.0002484806
0.0002481407
0.0002478859
0.0002477417
0.0002477328
0.0001435199
0.0001432708
0.0001430161
0.0001427489
0.0001424505
6.014372e-05
5.974262e-05
5.872115e-05
0.0002511158
0.0002506793
0.0002502352
0.0002497967
0.0002493773
0.0002489921
0.0002486584
0.0002483977
0.0002482349
0.0002481971
0.0001437739
0.0001435351
0.0001432954
0.0001430565
0.0001428107
6.03607e-05
6.014801e-05
5.976954e-05
5.88151e-05
0.0002514645
0.0002510696
0.0002506647
0.0002502597
0.0002498647
0.0002494913
0.0002491537
0.0002488715
0.000248672
0.0002485918
0.0001439893
0.0001437572
0.0001435271
0.0001433019
0.0001430804
6.049897e-05
6.034886e-05
6.01489e-05
5.98083e-05
5.896784e-05
0.0002517961
0.0002514463
0.000251083
0.0002507124
0.0002503405
0.0002499744
0.0002496239
0.0002493047
0.0002490454
0.0002489017
0.0001441619
0.0001439379
0.0001437179
0.0001435058
0.0001433005
6.060393e-05
6.047333e-05
6.032778e-05
6.01434e-05
5.984955e-05
3.860871e-05
0.0002521111
0.0002518071
0.0002514856
0.0002511489
0.0002507986
0.0002504368
0.0002500665
0.0002496946
0.0002493402
0.0002490725
0.0001442749
0.0001440679
0.0001438682
0.0001436768
0.0001434927
6.069339e-05
6.056961e-05
6.043931e-05
6.029818e-05
6.012895e-05
3.907895e-05
3.874299e-05
0.0001442787
0.0001441451
0.000143995
0.0001438388
0.000143682
6.078178e-05
6.06609e-05
6.053602e-05
6.040597e-05
6.026809e-05
3.922729e-05
3.909681e-05
3.885631e-05
0.0001445135
0.0001443628
0.0001442092
0.0001440555
0.0001439035
6.088025e-05
6.076248e-05
6.064066e-05
6.051522e-05
6.038512e-05
3.931693e-05
3.922284e-05
3.910744e-05
3.893133e-05
0.0001447562
0.000144603
0.0001444484
0.0001442948
0.0001441429
6.098577e-05
6.08716e-05
6.075338e-05
6.063131e-05
6.050552e-05
3.939898e-05
3.931383e-05
3.922063e-05
3.911489e-05
3.897542e-05
0.0001449882
0.0001448387
0.0001446873
0.0001445361
0.0001443856
6.1093e-05
6.098295e-05
6.086866e-05
6.075048e-05
6.062826e-05
3.948149e-05
3.939924e-05
3.931249e-05
3.922033e-05
3.911891e-05
0.0001452081
0.0001450649
0.0001449189
0.0001447723
0.000144625