/*--------------------------------*- C++ -*----------------------------------*\
| =========                 |                                                 |
| \\      /  F ield         | OpenFOAM: The Open Source CFD Toolbox           |
|  \\    /   O peration     | Version:  2306                                  |
|   \\  /    A nd           | Website:  www.openfoam.com                      |
|    \\/     M anipulation  |                                                 |
\*---------------------------------------------------------------------------*/
FoamFile
{
    version     2.0;
    format      ascii;
    arch        "LSB;label=32;scalar=64";
    class       volScalarField;
    location    "1.2/air";
    object      N2;
}
// * * * * * * * * * * * * * * * * * * * * * * * * * * * * * * * * * * * * * //

dimensions      [0 0 0 0 0 0 0];

internalField   nonuniform List<scalar> 
16000
(
0.7703563
0.7703497
0.7717381
0.7703972
0.7703408
0.7716402
0.7703864
0.7743135
0.7718667
0.7704948
0.7703323
0.7715116
0.770374
0.7741981
0.7717364
0.7704724
0.7769779
0.7744648
0.7721977
0.7706826
0.7703272
0.7714019
0.7703626
0.7740402
0.7715729
0.7704483
0.7768629
0.7743149
0.7720256
0.7706372
0.7795717
0.7771309
0.7748409
0.7727999
0.7710252
0.7703272
0.7713403
0.7703559
0.7739
0.771438
0.7704303
0.7767051
0.7741186
0.7718106
0.7705877
0.7794615
0.7769825
0.7746504
0.7725871
0.7709429
0.7820468
0.7797184
0.7775095
0.7755064
0.773732
0.7716287
0.8101984
0.7703323
0.7713403
0.7703559
0.7738193
0.7713636
0.7704199
0.7765646
0.7739485
0.7716331
0.7705514
0.7793104
0.7767875
0.774404
0.7723163
0.770849
0.7819427
0.7795764
0.7773231
0.7752794
0.7734851
0.7715101
0.7843967
0.782186
0.7800806
0.7781745
0.7765133
0.7750373
0.7726091
0.8088354
0.8118232
0.810414
0.7703408
0.7714019
0.7703626
0.7738193
0.7713636
0.7704199
0.7764835
0.773852
0.7715363
0.7705325
0.779176
0.7766181
0.7741929
0.7720896
0.7707768
0.7818
0.7793901
0.7770817
0.7749847
0.7731625
0.7713559
0.7842982
0.7820519
0.7799033
0.7779561
0.7762564
0.7747519
0.7724482
0.7866294
0.7845281
0.7825296
0.7807152
0.779171
0.7779005
0.7767782
0.7741231
0.8060824
0.8106041
0.8090559
0.8123948
0.8120201
0.8108444
0.7703497
0.7715116
0.770374
0.7739
0.771438
0.7704303
0.7764835
0.773852
0.7715363
0.7705325
0.7790984
0.7765216
0.7740737
0.7719641
0.7707384
0.781673
0.7792284
0.776874
0.774732
0.7728873
0.7712251
0.7841633
0.7818761
0.7796738
0.7776725
0.7759199
0.7743802
0.7722268
0.7865361
0.7844013
0.7823623
0.7805088
0.7789289
0.777618
0.7764451
0.7738836
0.7887562
0.786754
0.7848527
0.7831311
0.7816629
0.7805283
0.7796975
0.7790201
0.7764105
0.8018392
0.8081475
0.8063203
0.8112656
0.8108047
0.809495
0.8127929
0.8125758
0.8124131
0.8114883
0.7703563
0.7716402
0.7703864
0.7740402
0.7715729
0.7704483
0.7765646
0.7739485
0.7716331
0.7705514
0.7790984
0.7765216
0.7740737
0.7719641
0.7707384
0.7815998
0.7791364
0.7767564
0.7745895
0.7727329
0.7711518
0.7840432
0.7817235
0.7794768
0.7774285
0.7756298
0.7740624
0.7720329
0.7864084
0.7842351
0.7821461
0.7802414
0.7786118
0.7772442
0.7760095
0.7735546
0.7886676
0.7866339
0.7846945
0.7829367
0.7814357
0.7802679
0.7793843
0.7786069
0.7759627
0.7907879
0.7888746
0.7870617
0.7854209
0.7840283
0.7829487
0.7822639
0.7819327
0.7818497
0.7799181
0.79571
0.8043779
0.8021433
0.8089909
0.8083618
0.8067882
0.8117402
0.8114498
0.8112042
0.8101494
0.8132431
0.8129613
0.8129373
0.8130013
0.8123442
0.7717381
0.7703972
0.7741981
0.7717364
0.7704724
0.7767051
0.7741186
0.7718106
0.7705877
0.779176
0.7766181
0.7741929
0.7720896
0.7707768
0.7815998
0.7791364
0.7767564
0.7745895
0.7727329
0.7711518
0.783974
0.7816367
0.7793654
0.7772903
0.7754657
0.7738835
0.7719224
0.7862947
0.7840909
0.7819604
0.7800116
0.7783375
0.77692
0.7756367
0.7732716
0.7885461
0.7864765
0.7844902
0.7826851
0.7811389
0.7799227
0.7789668
0.778074
0.7754212
0.7907033
0.7887604
0.7869118
0.7852372
0.7838148
0.7827057
0.7819799
0.7815567
0.7812473
0.7788456
0.792734
0.7909007
0.7891669
0.7876004
0.7862686
0.7852444
0.7845867
0.7843941
0.7846585
0.7854447
0.7857312
0.7989762
0.7963371
0.8055025
0.8046464
0.8027095
0.80962
0.8091874
0.8087838
0.807475
0.8122547
0.8119115
0.8118169
0.8118
0.8110158
0.8138218
0.8134011
0.8132976
0.8134784
0.8137836
0.8135778
0.7743135
0.7718667
0.7704948
0.7768629
0.7743149
0.7720256
0.7706372
0.7793104
0.7767875
0.774404
0.7723163
0.770849
0.781673
0.7792284
0.776874
0.774732
0.7728873
0.7712251
0.783974
0.7816367
0.7793654
0.7772903
0.7754657
0.7738835
0.7719224
0.7862291
0.7840089
0.7818554
0.7798817
0.7781818
0.7767361
0.7754267
0.7731125
0.788438
0.7863399
0.7843149
0.7824691
0.7808828
0.7796222
0.7786043
0.7776245
0.7749936
0.7905875
0.7886107
0.7867182
0.7849995
0.7835361
0.7823846
0.7816
0.7810636
0.7805336
0.7778857
0.7926532
0.7907918
0.7890243
0.7874262
0.7860666
0.7850163
0.7843223
0.7840542
0.7841126
0.784302
0.7826429
0.7946023
0.7928418
0.7911794
0.7896789
0.7884043
0.7874175
0.7867919
0.786591
0.786961
0.7880256
0.7903183
0.7886348
0.8005086
0.7995151
0.7972715
0.8063698
0.8057483
0.8051484
0.8034941
0.8102641
0.8098025
0.8095744
0.8094043
0.8083703
0.8128892
0.8124153
0.8122528
0.8123644
0.8125895
0.8122601
0.8144925
0.8139709
0.8137167
0.8138012
0.8141982
0.8149114
0.813832
0.7769779
0.7744648
0.7721977
0.7706826
0.7794615
0.7769825
0.7746504
0.7725871
0.7709429
0.7818
0.7793901
0.7770817
0.7749847
0.7731625
0.7713559
0.7840432
0.7817235
0.7794768
0.7774285
0.7756298
0.7740624
0.7720329
0.7862291
0.7840089
0.7818554
0.7798817
0.7781818
0.7767361
0.7754267
0.7731125
0.7883758
0.7862622
0.7842158
0.782347
0.7807376
0.7794512
0.7783988
0.7773737
0.7747643
0.7904846
0.7884809
0.7865521
0.7847955
0.7832957
0.7821058
0.7812689
0.7806426
0.7799638
0.7772318
0.7925425
0.7906491
0.7888402
0.7872008
0.7858032
0.784715
0.7839699
0.7836068
0.7834599
0.7832376
0.7810071
0.7945248
0.7927377
0.7910434
0.789513
0.7882126
0.7872015
0.7865436
0.7862741
0.7864618
0.786977
0.7874664
0.7850017
0.7963995
0.7947056
0.7931082
0.7916676
0.7904431
0.7894944
0.78888
0.7886835
0.7890016
0.7901043
0.7925155
0.792769
0.7908932
0.8017191
0.8010024
0.8003235
0.7983586
0.8072129
0.8065977
0.8062076
0.805847
0.8044642
0.8110111
0.8104351
0.810162
0.8101434
0.8102146
0.8096388
0.8136084
0.8130408
0.8127355
0.812762
0.8130901
0.8137242
0.8125165
0.8152398
0.8146339
0.8142688
0.8141892
0.814471
0.8152361
0.8151439
0.8140884
0.7795717
0.7771309
0.7748409
0.7727999
0.7710252
0.7819427
0.7795764
0.7773231
0.7752794
0.7734851
0.7715101
0.7841633
0.7818761
0.7796738
0.7776725
0.7759199
0.7743802
0.7722268
0.7862947
0.7840909
0.7819604
0.7800116
0.7783375
0.77692
0.7756367
0.7732716
0.7883758
0.7862622
0.7842158
0.782347
0.7807376
0.7794512
0.7783988
0.7773737
0.7747643
0.7904252
0.7884071
0.7864583
0.7846803
0.7831595
0.7819473
0.7810805
0.7804067
0.7796555
0.7769055
0.792444
0.7905254
0.7886824
0.7870076
0.7855762
0.7844536
0.7836634
0.7832236
0.7829352
0.782482
0.7800611
0.7944188
0.7926012
0.7908678
0.7892986
0.7879627
0.7869165
0.7862127
0.7858581
0.7858642
0.7859987
0.7858517
0.7830167
0.7963251
0.7946058
0.7929781
0.7915093
0.7902605
0.7892891
0.7886445
0.7883854
0.7885343
0.7891331
0.7898806
0.7894556
0.7870918
0.7981315
0.7964986
0.7949607
0.7935748
0.7923966
0.7914799
0.7908827
0.7906689
0.790957
0.791951
0.7942795
0.7947695
0.7946868
0.7927414
0.8028482
0.8021771
0.8017423
0.8012712
0.799524
0.8081327
0.8074264
0.8070238
0.8068468
0.8067148
0.8057787
0.8118281
0.8111724
0.810772
0.8106906
0.8108868
0.8113648
0.8099
0.8143988
0.8137522
0.8133429
0.8132131
0.8134371
0.8141333
0.813958
0.8127751
0.8160368
0.8153743
0.8149164
0.8147147
0.8148178
0.8154371
0.81545
0.8153784
0.814347
0.7820468
0.7797184
0.7775095
0.7755064
0.773732
0.7716287
0.7842982
0.7820519
0.7799033
0.7779561
0.7762564
0.7747519
0.7724482
0.7864084
0.7842351
0.7821461
0.7802414
0.7786118
0.7772442
0.7760095
0.7735546
0.788438
0.7863399
0.7843149
0.7824691
0.7808828
0.7796222
0.7786043
0.7776245
0.7749936
0.7904252
0.7884071
0.7864583
0.7846803
0.7831595
0.7819473
0.7810805
0.7804067
0.7796555
0.7769055
0.7923873
0.790455
0.7885931
0.7868984
0.7854477
0.7843051
0.7834894
0.7830082
0.7826505
0.7820953
0.7796184
0.7943244
0.7924829
0.7907173
0.7891147
0.7877474
0.7866695
0.7859252
0.7855028
0.7853835
0.7853026
0.7848707
0.7818979
0.7962233
0.794475
0.7928101
0.7913047
0.7900224
0.7890184
0.7883311
0.7879941
0.7879763
0.7882283
0.7883876
0.7875537
0.7848792
0.79806
0.7964028
0.794836
0.7934233
0.7922221
0.791284
0.7906586
0.7903858
0.7905164
0.7910396
0.7918274
0.7917042
0.7912274
0.7889226
0.7998033
0.7982268
0.7967436
0.7954079
0.7942719
0.793386
0.7928011
0.7925816
0.7928207
0.7937378
0.7958669
0.7963738
0.7965289
0.7962681
0.7943019
0.8040155
0.803277
0.8028631
0.8026083
0.8022955
0.8009259
0.8090996
0.8083339
0.8078254
0.8076167
0.8076406
0.8078954
0.8060489
0.8127053
0.8119809
0.8114901
0.8112675
0.8113812
0.8119419
0.8116017
0.8101634
0.8152343
0.8145355
0.8140385
0.8137936
0.8138463
0.8144074
0.8143482
0.8141938
0.8130359
0.8168705
0.8161651
0.8156431
0.8153392
0.8153082
0.8157244
0.8156362
0.8156658
0.8156148
0.8146078
0.7843967
0.782186
0.7800806
0.7781745
0.7765133
0.7750373
0.7726091
0.7865361
0.7844013
0.7823623
0.7805088
0.7789289
0.777618
0.7764451
0.7738836
0.7885461
0.7864765
0.7844902
0.7826851
0.7811389
0.7799227
0.7789668
0.778074
0.7754212
0.7904846
0.7884809
0.7865521
0.7847955
0.7832957
0.7821058
0.7812689
0.7806426
0.7799638
0.7772318
0.7923873
0.790455
0.7885931
0.7868984
0.7854477
0.7843051
0.7834894
0.7830082
0.7826505
0.7820953
0.7796184
0.7942701
0.7924156
0.7906322
0.7890109
0.7876255
0.7865293
0.7857619
0.7853036
0.7851224
0.7849459
0.7843977
0.7813843
0.7961327
0.7943617
0.7926661
0.7911292
0.7898174
0.7887838
0.788059
0.7876599
0.7875284
0.7875849
0.7874794
0.7864357
0.7836288
0.797962
0.7962773
0.7946751
0.7932275
0.7919947
0.7910258
0.7903604
0.7900145
0.7899903
0.7901917
0.7904397
0.7899425
0.7891357
0.7865802
0.7997344
0.7981346
0.7966238
0.7952626
0.7941048
0.7931987
0.7925869
0.7923119
0.7924021
0.7928775
0.7935646
0.7935192
0.7933249
0.7927875
0.7905123
0.8014193
0.7998951
0.7984624
0.7971729
0.796076
0.7952183
0.7946475
0.7944192
0.7946264
0.7954549
0.7974302
0.7978304
0.7980069
0.7979754
0.797615
0.7958415
0.8051969
0.8044195
0.8039192
0.8036657
0.803543
0.8035375
0.8012128
0.8101098
0.8092901
0.8087099
0.8083807
0.8083531
0.8087205
0.8081382
0.8063209
0.8136183
0.8128506
0.812282
0.8119575
0.8119149
0.8123617
0.8121593
0.8118404
0.8104287
0.8161029
0.8153647
0.8148079
0.8144658
0.8143912
0.8147566
0.8146073
0.814565
0.8144316
0.8132987
0.8177279
0.8169934
0.8164216
0.8160454
0.8159019
0.8161639
0.8159112
0.8158369
0.8158833
0.8158532
0.814926
0.7866294
0.7845281
0.7825296
0.7807152
0.779171
0.7779005
0.7767782
0.7741231
0.7886676
0.7866339
0.7846945
0.7829367
0.7814357
0.7802679
0.7793843
0.7786069
0.7759627
0.7905875
0.7886107
0.7867182
0.7849995
0.7835361
0.7823846
0.7816
0.7810636
0.7805336
0.7778857
0.792444
0.7905254
0.7886824
0.7870076
0.7855762
0.7844536
0.7836634
0.7832236
0.7829352
0.782482
0.7800611
0.7942701
0.7924156
0.7906322
0.7890109
0.7876255
0.7865293
0.7857619
0.7853036
0.7851224
0.7849459
0.7843977
0.7813843
0.7960805
0.7942972
0.7925848
0.7910302
0.7897014
0.7886506
0.7879046
0.7874725
0.7872856
0.7872552
0.7870412
0.7859082
0.7830585
0.7978749
0.7961684
0.7945371
0.7930596
0.791799
0.7908021
0.7901015
0.7896978
0.789568
0.7895898
0.7895963
0.7889056
0.7879108
0.7852422
0.79964
0.7980139
0.7964692
0.7950748
0.793887
0.7929518
0.7923022
0.7919583
0.7919027
0.7920771
0.7922622
0.7918792
0.7913845
0.7905841
0.7881133
0.8013528
0.7998063
0.7983472
0.7970333
0.7959156
0.7950387
0.7944425
0.7941612
0.7942276
0.7946383
0.7952572
0.7951497
0.7950212
0.7947478
0.7941495
0.7920891
0.8029832
0.8015078
0.8001221
0.7988754
0.7978146
0.7969834
0.7964256
0.7961933
0.7963682
0.7971309
0.7989543
0.7992812
0.7993604
0.7993479
0.7992034
0.7989571
0.7961539
0.8063977
0.8055794
0.8050245
0.8046705
0.8045316
0.8046747
0.8037917
0.8015001
0.8111418
0.8102909
0.8096462
0.8092332
0.8090703
0.8093549
0.8089425
0.8083825
0.8065944
0.8145571
0.813757
0.8131369
0.8127248
0.8125681
0.812834
0.8125636
0.8123783
0.8120811
0.8106961
0.816992
0.8162277
0.8156247
0.8152145
0.8150323
0.8152502
0.8149442
0.814809
0.8147836
0.8146713
0.8136195
0.8186009
0.8178457
0.8172387
0.8168056
0.8165809
0.8167134
0.8163403
0.8160996
0.8160394
0.8161027
0.8161441
0.8152515
0.7887562
0.786754
0.7848527
0.7831311
0.7816629
0.7805283
0.7796975
0.7790201
0.7764105
0.7907033
0.7887604
0.7869118
0.7852372
0.7838148
0.7827057
0.7819799
0.7815567
0.7812473
0.7788456
0.7925425
0.7906491
0.7888402
0.7872008
0.7858032
0.784715
0.7839699
0.7836068
0.7834599
0.7832376
0.7810071
0.7943244
0.7924829
0.7907173
0.7891147
0.7877474
0.7866695
0.7859252
0.7855028
0.7853835
0.7853026
0.7848707
0.7818979
0.7960805
0.7942972
0.7925848
0.7910302
0.7897014
0.7886506
0.7879046
0.7874725
0.7872856
0.7872552
0.7870412
0.7859082
0.7830585
0.7978247
0.7961065
0.7944591
0.7929648
0.7916882
0.7906752
0.7899547
0.7895204
0.7893391
0.7892817
0.7891895
0.7884159
0.7873385
0.7846327
0.7995561
0.7979092
0.7963367
0.7949138
0.7936995
0.7927379
0.7920551
0.7916566
0.7915021
0.7915089
0.7914713
0.7909146
0.7902467
0.7892858
0.7867313
0.8012617
0.7996899
0.7981984
0.7968529
0.7957066
0.794802
0.7941699
0.7938232
0.7937516
0.7938785
0.7940274
0.7936098
0.7932133
0.792701
0.7918923
0.789692
0.802919
0.8014221
0.800011
0.798741
0.7976603
0.7968109
0.7962288
0.7959461
0.7959868
0.7963532
0.796893
0.7967509
0.7965562
0.7963386
0.7959855
0.7955077
0.7924091
0.8044987
0.8030688
0.8017268
0.80052
0.7994927
0.7986863
0.7981414
0.7979058
0.7980563
0.7987569
0.8004592
0.8007082
0.8007231
0.8006159
0.8004849
0.8004219
0.7992296
0.7964644
0.8075997
0.8067612
0.8061523
0.8057321
0.8054808
0.8055795
0.8049064
0.8040464
0.8017879
0.8121882
0.8113145
0.8106295
0.8101419
0.8098833
0.8100085
0.8095608
0.8091659
0.8086283
0.8068697
0.8155101
0.8146897
0.8140301
0.8135581
0.8133036
0.8134351
0.8130233
0.8127671
0.8125991
0.8123236
0.8110222
0.8178941
0.8171116
0.8164764
0.8160126
0.8157535
0.8158467
0.8154272
0.8151333
0.8150123
0.8150039
0.8149638
0.8139476
0.8194833
0.818714
0.8180809
0.8176061
0.8173167
0.8173531
0.8168806
0.8165182
0.8162896
0.8162436
0.8163704
0.8164415
0.8154989
0.7907879
0.7888746
0.7870617
0.7854209
0.7840283
0.7829487
0.7822639
0.7819327
0.7818497
0.7799181
0.7926532
0.7907918
0.7890243
0.7874262
0.7860666
0.7850163
0.7843223
0.7840542
0.7841126
0.784302
0.7826429
0.7944188
0.7926012
0.7908678
0.7892986
0.7879627
0.7869165
0.7862127
0.7858581
0.7858642
0.7859987
0.7858517
0.7830167
0.7961327
0.7943617
0.7926661
0.7911292
0.7898174
0.7887838
0.788059
0.7876599
0.7875284
0.7875849
0.7874794
0.7864357
0.7836288
0.7978247
0.7961065
0.7944591
0.7929648
0.7916882
0.7906752
0.7899547
0.7895204
0.7893391
0.7892817
0.7891895
0.7884159
0.7873385
0.7846327
0.7995077
0.7978497
0.7962618
0.794823
0.7935934
0.7926166
0.791915
0.7914876
0.7912851
0.7912181
0.7910901
0.7904592
0.7897144
0.7886811
0.7861012
0.8011807
0.7995891
0.7980709
0.7966983
0.7955267
0.7945971
0.7939334
0.793535
0.7933699
0.7933393
0.7932806
0.7927045
0.7921535
0.7914931
0.7905538
0.7883073
0.802831
0.8013099
0.7998677
0.7985674
0.7974595
0.7965836
0.7959673
0.7956223
0.7955318
0.7956294
0.795726
0.7952968
0.7948581
0.7944301
0.7938857
0.7932406
0.7900129
0.8044366
0.802986
0.8016196
0.8003904
0.7993442
0.7985203
0.7979522
0.7976684
0.7976909
0.7980139
0.7984971
0.798308
0.7980759
0.7977889
0.7974829
0.7972137
0.7957834
0.792727
0.8059688
0.8045815
0.8032803
0.8021107
0.8011148
0.8003317
0.7997991
0.7995618
0.7996906
0.8003407
0.8019326
0.802127
0.802074
0.8019058
0.8016796
0.8016112
0.8006692
0.7995004
0.7967728
0.8087999
0.8079463
0.8073057
0.8068223
0.8064954
0.806461
0.805794
0.8051384
0.8043016
0.8020761
0.813239
0.8123533
0.8116374
0.8111008
0.8107576
0.8107675
0.8102014
0.8097681
0.8093908
0.8088756
0.8072047
0.8164707
0.8156372
0.814951
0.8144319
0.8141086
0.8141251
0.8136136
0.8132141
0.8129722
0.8128215
0.8126193
0.8113558
0.8188032
0.818009
0.81735
0.8168475
0.816527
0.8165283
0.8160145
0.8156057
0.815324
0.8152172
0.8152728
0.8152628
0.814197
0.8203707
0.8195922
0.81894
0.8184332
0.8180951
0.8180536
0.8175122
0.8170493
0.8166975
0.8164812
0.8164928
0.816644
0.8166675
0.8156667
0.792734
0.7909007
0.7891669
0.7876004
0.7862686
0.7852444
0.7845867
0.7843941
0.7846585
0.7854447
0.7857312
0.7945248
0.7927377
0.7910434
0.789513
0.7882126
0.7872015
0.7865436
0.7862741
0.7864618
0.786977
0.7874664
0.7850017
0.7962233
0.794475
0.7928101
0.7913047
0.7900224
0.7890184
0.7883311
0.7879941
0.7879763
0.7882283
0.7883876
0.7875537
0.7848792
0.7978749
0.7961684
0.7945371
0.7930596
0.791799
0.7908021
0.7901015
0.7896978
0.789568
0.7895898
0.7895963
0.7889056
0.7879108
0.7852422
0.7995077
0.7978497
0.7962618
0.794823
0.7935934
0.7926166
0.791915
0.7914876
0.7912851
0.7912181
0.7910901
0.7904592
0.7897144
0.7886811
0.7861012
0.8011341
0.7995317
0.7979989
0.796611
0.7954249
0.7944808
0.7937993
0.7933735
0.7931631
0.7930634
0.7929206
0.7922773
0.7916578
0.7909298
0.7899305
0.7876759
0.8027528
0.8012126
0.7997448
0.7984186
0.7972865
0.7963867
0.7957404
0.7953462
0.795167
0.7951157
0.7950173
0.7944418
0.7938628
0.7933039
0.7926383
0.7918925
0.7886281
0.8043515
0.8028775
0.8014813
0.800223
0.7991508
0.7983016
0.7977008
0.7973575
0.7972549
0.7973223
0.7973858
0.7969283
0.7964722
0.7959957
0.7955236
0.7951006
0.7935147
0.7903323
0.8059086
0.8045014
0.8031767
0.8019856
0.8009716
0.8001716
0.7996169
0.7993334
0.7993398
0.7996292
0.8000593
0.7998426
0.799563
0.7992368
0.7988588
0.7986162
0.7974629
0.7960573
0.7930428
0.8073964
0.8060489
0.8047861
0.8036512
0.8026848
0.8019234
0.8014029
0.8011646
0.8012752
0.8018802
0.8033784
0.8035238
0.8034256
0.803194
0.8029075
0.8027322
0.8018398
0.800915
0.7997696
0.7970793
0.8099907
0.8091313
0.8084655
0.8079425
0.8075449
0.8074186
0.8066617
0.8060088
0.8053709
0.8045572
0.8024254
0.8142893
0.8133973
0.812662
0.8120868
0.8116862
0.8115951
0.8109494
0.8103955
0.8099767
0.8096169
0.8091767
0.8075476
0.8174337
0.8165927
0.8158876
0.8153353
0.8149571
0.81489
0.8142943
0.8137936
0.8134064
0.8131789
0.8130928
0.8129217
0.8116095
0.8197153
0.8189138
0.818238
0.8177058
0.8173396
0.8172664
0.816688
0.8161837
0.8157857
0.8155163
0.8154674
0.8155476
0.81549
0.8143662
0.8212596
0.8204756
0.8198096
0.8192784
0.818902
0.8188002
0.8182055
0.8176727
0.8172193
0.8168784
0.8167151
0.8167473
0.8168517
0.8168205
0.8157524
0.79571
0.7946023
0.7928418
0.7911794
0.7896789
0.7884043
0.7874175
0.7867919
0.786591
0.786961
0.7880256
0.7903183
0.7886348
0.7963251
0.7946058
0.7929781
0.7915093
0.7902605
0.7892891
0.7886445
0.7883854
0.7885343
0.7891331
0.7898806
0.7894556
0.7870918
0.797962
0.7962773
0.7946751
0.7932275
0.7919947
0.7910258
0.7903604
0.7900145
0.7899903
0.7901917
0.7904397
0.7899425
0.7891357
0.7865802
0.7995561
0.7979092
0.7963367
0.7949138
0.7936995
0.7927379
0.7920551
0.7916566
0.7915021
0.7915089
0.7914713
0.7909146
0.7902467
0.7892858
0.7867313
0.8011341
0.7995317
0.7979989
0.796611
0.7954249
0.7944808
0.7937993
0.7933735
0.7931631
0.7930634
0.7929206
0.7922773
0.7916578
0.7909298
0.7899305
0.7876759
0.8027077
0.8011572
0.7996754
0.7983346
0.7971887
0.7962751
0.7956117
0.7951916
0.7949694
0.7948528
0.7946757
0.7940383
0.7933975
0.7927788
0.7920568
0.7912647
0.7879966
0.8042758
0.8027835
0.8013627
0.8000796
0.7989843
0.7981122
0.7974827
0.7970925
0.7969054
0.7968315
0.7967108
0.7961169
0.7955322
0.7949377
0.7943597
0.7938417
0.792165
0.7889477
0.8058262
0.8043964
0.8030431
0.801824
0.800785
0.7999609
0.7993748
0.7990344
0.7989212
0.7989668
0.7989979
0.7985289
0.7980414
0.7975433
0.7970174
0.796643
0.7953475
0.7937874
0.7906501
0.807338
0.8059713
0.8046858
0.8035303
0.8025464
0.801769
0.8012272
0.8009446
0.8009378
0.8011974
0.8015855
0.8013428
0.8010356
0.8006622
0.800244
0.7999172
0.7988462
0.7977105
0.7963295
0.7933566
0.8087838
0.807474
0.8062471
0.8051449
0.8042059
0.8034652
0.8029562
0.8027179
0.8028125
0.803378
0.8047925
0.8049003
0.8047624
0.8044902
0.8041423
0.8038983
0.8029459
0.8020669
0.8011592
0.8000372
0.7974479
0.8111691
0.8103082
0.8096277
0.8090727
0.8086293
0.808419
0.8076076
0.8068626
0.806224
0.8056037
0.804867
0.8027829
0.8153348
0.8144412
0.8136931
0.8130918
0.8126451
0.8124825
0.8117674
0.8111323
0.8105908
0.8101865
0.8098923
0.8094847
0.8078084
0.8183956
0.8175511
0.8168332
0.816256
0.8158376
0.8157026
0.8150509
0.8144648
0.8139749
0.8136001
0.813431
0.8133701
0.8131514
0.8117817
0.8206272
0.8198219
0.8191341
0.8185797
0.8181776
0.8180469
0.8174187
0.816849
0.8163544
0.8159672
0.8157509
0.8157229
0.8157562
0.8156439
0.8144526
0.8221476
0.8213608
0.8206852
0.8201352
0.8197288
0.819578
0.8189455
0.8183587
0.8178345
0.8173908
0.8170991
0.8169539
0.8169405
0.8169923
0.8168986
0.8018392
0.7989762
0.7963371
0.7963995
0.7947056
0.7931082
0.7916676
0.7904431
0.7894944
0.78888
0.7886835
0.7890016
0.7901043
0.7925155
0.792769
0.7908932
0.79806
0.7964028
0.794836
0.7934233
0.7922221
0.791284
0.7906586
0.7903858
0.7905164
0.7910396
0.7918274
0.7917042
0.7912274
0.7889226
0.79964
0.7980139
0.7964692
0.7950748
0.793887
0.7929518
0.7923022
0.7919583
0.7919027
0.7920771
0.7922622
0.7918792
0.7913845
0.7905841
0.7881133
0.8011807
0.7995891
0.7980709
0.7966983
0.7955267
0.7945971
0.7939334
0.793535
0.7933699
0.7933393
0.7932806
0.7927045
0.7921535
0.7914931
0.7905538
0.7883073
0.8027077
0.8011572
0.7996754
0.7983346
0.7971887
0.7962751
0.7956117
0.7951916
0.7949694
0.7948528
0.7946757
0.7940383
0.7933975
0.7927788
0.7920568
0.7912647
0.7879966
0.8042322
0.80273
0.8012957
0.7999986
0.7988901
0.7980048
0.7973591
0.7969441
0.7967161
0.7965803
0.7963855
0.795734
0.7950927
0.7944445
0.7938171
0.7932545
0.7915363
0.7883163
0.8057529
0.8043055
0.8029285
0.8016856
0.8006244
0.7997785
0.7991649
0.7987796
0.7985857
0.7984966
0.7983531
0.7977562
0.7971493
0.7965439
0.7959236
0.7954673
0.7940865
0.7924364
0.7892662
0.8072581
0.8058697
0.8045565
0.8033741
0.8023662
0.8015657
0.8009938
0.8006566
0.8005352
0.8005617
0.8005692
0.8000882
0.7995869
0.7990553
0.7985048
0.798062
0.7968705
0.7955931
0.7940588
0.7909664
0.8087272
0.8073988
0.80615
0.8050279
0.8040721
0.803316
0.8027866
0.8025056
0.8024874
0.8027217
0.8030728
0.802813
0.8024807
0.8020804
0.8016156
0.8012397
0.8001319
0.7990746
0.7979564
0.7966
0.7937339
0.8101338
0.8088592
0.8076661
0.8065945
0.8056815
0.8049602
0.8044623
0.8042244
0.8043053
0.8048355
0.8061755
0.8062515
0.8060848
0.8057777
0.8053915
0.80508
0.8040994
0.8031582
0.8022926
0.8014019
0.8003591
0.7978251
0.8123326
0.811474
0.8107838
0.8102082
0.8097276
0.80946
0.8085978
0.8077969
0.8070639
0.8064396
0.805886
0.805184
0.8030548
0.816373
0.8154809
0.8147252
0.8141049
0.8136256
0.8134046
0.8126462
0.8119406
0.8113164
0.8107873
0.810442
0.8101738
0.8097187
0.8079854
0.8193536
0.8185087
0.8177825
0.817187
0.8167374
0.8165506
0.8158561
0.8152131
0.8146367
0.8141577
0.8138364
0.8136886
0.8135806
0.8133071
0.8118696
0.8215365
0.82073
0.8200342
0.8194629
0.8190329
0.8188557
0.8181926
0.8175724
0.8170113
0.8165264
0.8161886
0.8159906
0.8159168
0.8158974
0.8157224
0.8230327
0.8222454
0.8215631
0.820999
0.8205686
0.8203782
0.8197173
0.819092
0.8185131
0.8179977
0.8176001
0.8173245
0.817135
0.8170712
0.817064
0.8060824
0.8043779
0.8021433
0.8005086
0.7995151
0.7972715
0.7981315
0.7964986
0.7949607
0.7935748
0.7923966
0.7914799
0.7908827
0.7906689
0.790957
0.791951
0.7942795
0.7947695
0.7946868
0.7927414
0.7997344
0.7981346
0.7966238
0.7952626
0.7941048
0.7931987
0.7925869
0.7923119
0.7924021
0.7928775
0.7935646
0.7935192
0.7933249
0.7927875
0.7905123
0.8012617
0.7996899
0.7981984
0.7968529
0.7957066
0.794802
0.7941699
0.7938232
0.7937516
0.7938785
0.7940274
0.7936098
0.7932133
0.792701
0.7918923
0.789692
0.8027528
0.8012126
0.7997448
0.7984186
0.7972865
0.7963867
0.7957404
0.7953462
0.795167
0.7951157
0.7950173
0.7944418
0.7938628
0.7933039
0.7926383
0.7918925
0.7886281
0.8042322
0.80273
0.8012957
0.7999986
0.7988901
0.7980048
0.7973591
0.7969441
0.7967161
0.7965803
0.7963855
0.795734
0.7950927
0.7944445
0.7938171
0.7932545
0.7915363
0.7883163
0.8057107
0.8042538
0.8028638
0.8016074
0.8005336
0.799675
0.7990459
0.7986368
0.7984039
0.798256
0.7980422
0.7973915
0.7967322
0.796078
0.7954138
0.7949189
0.7934983
0.7918071
0.7886351
0.8071871
0.8057817
0.8044457
0.8032403
0.8022112
0.8013896
0.8007914
0.8004111
0.8002125
0.8001104
0.7999518
0.7993501
0.7987375
0.798107
0.7974715
0.7969567
0.7956926
0.7943303
0.7927068
0.7895836
0.8086497
0.8073003
0.8060247
0.8048767
0.8038979
0.8031195
0.8025612
0.8022277
0.8020996
0.8021104
0.8020977
0.8016119
0.8010973
0.8005506
0.7999653
0.7994873
0.7982743
0.7970968
0.7958375
0.7943288
0.7913474
0.8100788
0.8087862
0.8075719
0.8064812
0.805552
0.8048159
0.8042983
0.8040193
0.8039917
0.8042035
0.8045229
0.8042494
0.8039011
0.8034771
0.8029864
0.8025577
0.8014418
0.8003452
0.7993015
0.7982007
0.7969252
0.79412
0.811448
0.810207
0.8090456
0.808003
0.8071143
0.8064114
0.8059241
0.805687
0.8057557
0.8062546
0.8075274
0.8075769
0.8073867
0.8070556
0.806637
0.8062823
0.8052703
0.8042992
0.8033691
0.8025169
0.8016939
0.8006883
0.798112
0.8134799
0.8126258
0.8119306
0.8113401
0.8108343
0.8105195
0.80963
0.808777
0.8079865
0.8072656
0.8067009
0.8061745
0.8054248
0.8032394
0.8174018
0.8165138
0.8157542
0.8151207
0.8146165
0.8143518
0.8135607
0.8128109
0.812115
0.8115016
0.8110265
0.810703
0.8103876
0.8098774
0.8080758
0.8203059
0.8194628
0.8187316
0.8181228
0.8176494
0.8174209
0.8166974
0.8160108
0.8153766
0.8148099
0.8143806
0.8140778
0.813884
0.8137232
0.8133865
0.8224415
0.8216358
0.8209349
0.820351
0.8198989
0.8196842
0.8189954
0.8183396
0.8177273
0.817175
0.8167363
0.8164147
0.8161723
0.816048
0.8159694
0.8239136
0.8231273
0.8224408
0.8218659
0.8214166
0.8211934
0.820512
0.8198578
0.8192398
0.8186689
0.8181969
0.8178138
0.8174954
0.8172575
0.8171377
0.8088354
0.8081475
0.8063203
0.8055025
0.8046464
0.8027095
0.8017191
0.8010024
0.8003235
0.7983586
0.7998033
0.7982268
0.7967436
0.7954079
0.7942719
0.793386
0.7928011
0.7925816
0.7928207
0.7937378
0.7958669
0.7963738
0.7965289
0.7962681
0.7943019
0.8013528
0.7998063
0.7983472
0.7970333
0.7959156
0.7950387
0.7944425
0.7941612
0.7942276
0.7946383
0.7952572
0.7951497
0.7950212
0.7947478
0.7941495
0.7920891
0.802831
0.8013099
0.7998677
0.7985674
0.7974595
0.7965836
0.7959673
0.7956223
0.7955318
0.7956294
0.795726
0.7952968
0.7948581
0.7944301
0.7938857
0.7932406
0.7900129
0.8042758
0.8027835
0.8013627
0.8000796
0.7989843
0.7981122
0.7974827
0.7970925
0.7969054
0.7968315
0.7967108
0.7961169
0.7955322
0.7949377
0.7943597
0.7938417
0.792165
0.7889477
0.8057107
0.8042538
0.8028638
0.8016074
0.8005336
0.799675
0.7990459
0.7986368
0.7984039
0.798256
0.7980422
0.7973915
0.7967322
0.796078
0.7954138
0.7949189
0.7934983
0.7918071
0.7886351
0.8071462
0.8057316
0.8043831
0.8031648
0.8021235
0.8012898
0.8006767
0.8002737
0.8000377
0.7998795
0.7996541
0.7990018
0.7983402
0.7976648
0.7969898
0.7964412
0.7951432
0.7937412
0.7920769
0.788953
0.8085807
0.8072149
0.8059174
0.8047473
0.803748
0.8029495
0.8023658
0.801991
0.8017888
0.8016765
0.8015052
0.8009053
0.8002859
0.7996475
0.7989846
0.798443
0.7971669
0.795917
0.7945732
0.7929761
0.7899664
0.8100034
0.8086906
0.8074505
0.8063347
0.8053834
0.8046258
0.8040804
0.8037509
0.8036176
0.8036148
0.8035857
0.8030972
0.8025768
0.8020162
0.8014152
0.8008947
0.7996869
0.7984855
0.7973218
0.7960805
0.794654
0.7917373
0.8113945
0.810136
0.8089542
0.807893
0.8069888
0.8062716
0.8057654
0.8054887
0.8054528
0.8056451
0.8059366
0.805653
0.8052924
0.8048538
0.8043409
0.8038813
0.8027488
0.8016424
0.800557
0.7995268
0.7984943
0.7972578
0.7944138
0.8127291
0.8115192
0.810388
0.8093725
0.808507
0.8078214
0.8073443
0.8071083
0.8071663
0.8076367
0.8088488
0.8088757
0.8086671
0.8083171
0.8078771
0.8074862
0.8064631
0.8054594
0.8044978
0.8035786
0.8027866
0.8019922
0.8009385
0.7983068
0.8146099
0.8137624
0.813065
0.8124647
0.81194
0.8115913
0.8106816
0.8098002
0.8089565
0.8081764
0.80751
0.8069679
0.8063936
0.8055882
0.8033338
0.8184199
0.8175376
0.816777
0.8161345
0.8156119
0.8153124
0.8145011
0.8137178
0.8129767
0.8122904
0.8117271
0.8112709
0.8109011
0.8105324
0.8099583
0.8212511
0.8204114
0.8196779
0.8190596
0.8185677
0.8183057
0.8175616
0.8168454
0.8161668
0.8155413
0.8150211
0.8146082
0.8142609
0.8140163
0.8137959
0.823341
0.8225376
0.8218338
0.8212406
0.8207712
0.8205256
0.8198184
0.8191363
0.8184878
0.8178835
0.8173747
0.8169506
0.8165861
0.8162953
0.8161148
0.8247892
0.8240052
0.8233163
0.8227334
0.8222689
0.8220187
0.8213222
0.8206469
0.8199995
0.8193888
0.8188589
0.8184001
0.8179757
0.8176109
0.8173199
0.8101984
0.8106041
0.8090559
0.8089909
0.8083618
0.8067882
0.8063698
0.8057483
0.8051484
0.8034941
0.8028482
0.8021771
0.8017423
0.8012712
0.799524
0.8014193
0.7998951
0.7984624
0.7971729
0.796076
0.7952183
0.7946475
0.7944192
0.7946264
0.7954549
0.7974302
0.7978304
0.7980069
0.7979754
0.797615
0.7958415
0.802919
0.8014221
0.800011
0.798741
0.7976603
0.7968109
0.7962288
0.7959461
0.7959868
0.7963532
0.796893
0.7967509
0.7965562
0.7963386
0.7959855
0.7955077
0.7924091
0.8043515
0.8028775
0.8014813
0.800223
0.7991508
0.7983016
0.7977008
0.7973575
0.7972549
0.7973223
0.7973858
0.7969283
0.7964722
0.7959957
0.7955236
0.7951006
0.7935147
0.7903323
0.8057529
0.8043055
0.8029285
0.8016856
0.8006244
0.7997785
0.7991649
0.7987796
0.7985857
0.7984966
0.7983531
0.7977562
0.7971493
0.7965439
0.7959236
0.7954673
0.7940865
0.7924364
0.7892662
0.8071462
0.8057316
0.8043831
0.8031648
0.8021235
0.8012898
0.8006767
0.8002737
0.8000377
0.7998795
0.7996541
0.7990018
0.7983402
0.7976648
0.7969898
0.7964412
0.7951432
0.7937412
0.7920769
0.788953
0.808541
0.8071664
0.8058568
0.8046742
0.8036632
0.802853
0.802255
0.8018584
0.8016204
0.8014544
0.8012196
0.8005717
0.7999065
0.7992264
0.7985275
0.7979559
0.7966504
0.7953667
0.7939833
0.7923459
0.7893366
0.8099365
0.8086077
0.8073464
0.8062093
0.8052382