/*--------------------------------*- C++ -*----------------------------------*\
| =========                 |                                                 |
| \\      /  F ield         | OpenFOAM: The Open Source CFD Toolbox           |
|  \\    /   O peration     | Version:  2306                                  |
|   \\  /    A nd           | Website:  www.openfoam.com                      |
|    \\/     M anipulation  |                                                 |
\*---------------------------------------------------------------------------*/
FoamFile
{
    version     2.0;
    format      ascii;
    arch        "LSB;label=32;scalar=64";
    class       volScalarField;
    location    "1.2/air";
    object      nernst;
}
// * * * * * * * * * * * * * * * * * * * * * * * * * * * * * * * * * * * * * //

dimensions      [1 2 -3 0 0 -1 0];

internalField   nonuniform List<scalar> 
16000
(
-0.7332668
-0.724469
-0.7437164
-0.7243202
-0.7195856
-0.7416216
-0.7029821
-0.74659
-0.7416122
-0.7193157
-0.7168052
-0.7398053
-0.6897019
-0.7457773
-0.7354535
-0.6894968
-0.7489704
-0.7458466
-0.7398077
-0.7163995
-0.7155122
-0.7384681
-0.6817463
-0.7450442
-0.730053
-0.6696036
-0.7485956
-0.7434896
-0.7300168
-0.6811983
-0.7510941
-0.7486918
-0.7452041
-0.7384928
-0.7149325
-0.7155122
-0.7377596
-0.6779758
-0.744482
-0.7260506
-0.6571574
-0.7482641
-0.7413367
-0.7212892
-0.6566849
-0.7508858
-0.7476599
-0.7414222
-0.7259305
-0.6768893
-0.7530343
-0.7509859
-0.7484761
-0.7447611
-0.7378206
-0.7147051
-0.7484295
-0.7168052
-0.7377596
-0.6779758
-0.7441759
-0.7239232
-0.6511157
-0.7480118
-0.7396734
-0.7147454
-0.6408917
-0.7507073
-0.7467284
-0.7379144
-0.7145914
-0.6497968
-0.7528943
-0.750453
-0.7468556
-0.7398632
-0.7236716
-0.6761267
-0.7548258
-0.7529901
-0.7509265
-0.7483739
-0.7446113
-0.7378898
-0.7157129
-0.7481869
-0.7507016
-0.749738
-0.7195856
-0.7384681
-0.6817463
-0.7441759
-0.7239232
-0.6511157
-0.7478747
-0.7387641
-0.7112442
-0.6330947
-0.7505744
-0.7460127
-0.7351738
-0.7060012
-0.6320584
-0.7527777
-0.7499846
-0.7453663
-0.7352647
-0.7108061
-0.6485233
-0.7547158
-0.7526566
-0.75012
-0.7463125
-0.739093
-0.7235336
-0.6788934
-0.7564918
-0.7548048
-0.7529877
-0.7509473
-0.7484309
-0.7448209
-0.7387388
-0.7181407
-0.747691
-0.7505233
-0.7494712
-0.7527807
-0.751899
-0.7510853
-0.724469
-0.7398053
-0.6897019
-0.744482
-0.7260506
-0.6571574
-0.7478747
-0.7387641
-0.7112442
-0.6330947
-0.7505031
-0.7456218
-0.7336662
-0.701376
-0.6232178
-0.7526926
-0.7496329
-0.7442068
-0.7316374
-0.7009965
-0.6303848
-0.7546256
-0.7523718
-0.7493971
-0.7443904
-0.7338693
-0.7104483
-0.6528673
-0.7563971
-0.7545548
-0.752503
-0.7499561
-0.7461583
-0.739305
-0.7256075
-0.6855657
-0.7580482
-0.7564791
-0.7548219
-0.7530507
-0.7510736
-0.7486811
-0.7454182
-0.740353
-0.7225336
-0.7468902
-0.7501697
-0.74891
-0.7526246
-0.7517215
-0.7507993
-0.7546595
-0.7538334
-0.7531248
-0.7524756
-0.7332668
-0.7416216
-0.7029821
-0.7450442
-0.730053
-0.6696036
-0.7480118
-0.7396734
-0.7147454
-0.6408917
-0.7505031
-0.7456218
-0.7336662
-0.701376
-0.6232178
-0.7526476
-0.7494435
-0.7435687
-0.7296311
-0.6956932
-0.6213252
-0.7545607
-0.7521635
-0.7488466
-0.7428763
-0.7297218
-0.7004511
-0.6359088
-0.7563198
-0.7543456
-0.752081
-0.749053
-0.7440148
-0.7340563
-0.7136568
-0.6632075
-0.7579626
-0.7562687
-0.7544689
-0.7524782
-0.750024
-0.7464864
-0.7405629
-0.7297843
-0.6971663
-0.7595073
-0.7580384
-0.7565021
-0.7548965
-0.7531958
-0.7513249
-0.7491445
-0.7464033
-0.7427057
-0.7304263
-0.745451
-0.7496471
-0.7479482
-0.7523173
-0.7513718
-0.7501901
-0.7545164
-0.7536847
-0.7529478
-0.7521765
-0.7563888
-0.7555788
-0.75491
-0.7543797
-0.7539102
-0.7437164
-0.7243202
-0.7457773
-0.7354535
-0.6894968
-0.7482641
-0.7413367
-0.7212892
-0.6566849
-0.7505744
-0.7460127
-0.7351738
-0.7060012
-0.6320584
-0.7526476
-0.7494435
-0.7435687
-0.7296311
-0.6956932
-0.6213252
-0.7545266
-0.7520533
-0.7485479
-0.7420372
-0.727419
-0.6950394
-0.6274802
-0.7562645
-0.7541958
-0.7517683
-0.7483559
-0.7423104
-0.7298728
-0.7045427
-0.6489213
-0.7578928
-0.7560944
-0.7541685
-0.7519715
-0.7490531
-0.7443924
-0.7359151
-0.7201811
-0.6805216
-0.7594284
-0.7578499
-0.7562092
-0.7544921
-0.7526193
-0.7503721
-0.7473383
-0.7428076
-0.7357842
-0.7161047
-0.7608791
-0.7594986
-0.7580623
-0.7565779
-0.7550418
-0.7534364
-0.7517167
-0.7498373
-0.7477993
-0.745917
-0.7397315
-0.7489982
-0.746154
-0.7518741
-0.7508667
-0.7491372
-0.7542351
-0.7533982
-0.7526002
-0.7515392
-0.7562547
-0.7554446
-0.7547672
-0.7542027
-0.7536046
-0.7580056
-0.7571937
-0.7565196
-0.75601
-0.7556629
-0.7547906
-0.74659
-0.7416122
-0.7193157
-0.7485956
-0.7434896
-0.7300168
-0.6811983
-0.7507073
-0.7467284
-0.7379144
-0.7145914
-0.6497968
-0.7526926
-0.7496329
-0.7442068
-0.7316374
-0.7009965
-0.6303848
-0.7545266
-0.7520533
-0.7485479
-0.7420372
-0.727419
-0.6950394
-0.6274802
-0.7562356
-0.7541177
-0.7516017
-0.7479745
-0.7413606
-0.727545
-0.6996148
-0.6418999
-0.7578429
-0.755971
-0.7539513
-0.7515912
-0.748294
-0.7427131
-0.7321979
-0.7128785
-0.6701602
-0.7593638
-0.7576944
-0.7559632
-0.7541431
-0.7521001
-0.7494715
-0.7455759
-0.7392911
-0.7293975
-0.7069839
-0.7608056
-0.7593251
-0.7578014
-0.7562475
-0.7546509
-0.7529562
-0.751031
-0.7487116
-0.7459061
-0.7432206
-0.7339692
-0.7621718
-0.7608709
-0.7595219
-0.7581356
-0.7567177
-0.7552685
-0.7537858
-0.7522716
-0.7508184
-0.7498444
-0.7489423
-0.7417174
-0.7513952
-0.7502788
-0.747277
-0.753832
-0.7530117
-0.7521026
-0.7504539
-0.7559911
-0.755188
-0.7544962
-0.7538548
-0.752957
-0.7578785
-0.7570686
-0.7563927
-0.7558713
-0.7554855
-0.754485
-0.7595227
-0.7587142
-0.7580186
-0.7574811
-0.757132
-0.7564465
-0.7549035
-0.7489704
-0.7458466
-0.7398077
-0.7163995
-0.7508858
-0.7476599
-0.7414222
-0.7259305
-0.6768893
-0.7527777
-0.7499846
-0.7453663
-0.7352647
-0.7108061
-0.6485233
-0.7545607
-0.7521635
-0.7488466
-0.7428763
-0.7297218
-0.7004511
-0.6359088
-0.7562356
-0.7541177
-0.7516017
-0.7479745
-0.7413606
-0.727545
-0.6996148
-0.6418999
-0.7578168
-0.7559071
-0.7538375
-0.7513868
-0.7478754
-0.7417725
-0.7301266
-0.708938
-0.6651369
-0.7593175
-0.7575848
-0.7557877
-0.753888
-0.7517044
-0.7487557
-0.7441419
-0.7364496
-0.7245178
-0.7013353
-0.7607451
-0.7591819
-0.7575834
-0.7559667
-0.7543077
-0.7525092
-0.7503436
-0.747515
-0.7438336
-0.7403612
-0.7294978
-0.7621029
-0.7607091
-0.759282
-0.7578428
-0.756405
-0.7549671
-0.753514
-0.7520226
-0.750599
-0.7497673
-0.7480485
-0.7370346
-0.7633922
-0.7621639
-0.7608933
-0.759592
-0.7582685
-0.756931
-0.7555884
-0.7542672
-0.7530584
-0.7523615
-0.7522544
-0.7499444
-0.7437393
-0.7534143
-0.7526801
-0.7515238
-0.748666
-0.755613
-0.7548495
-0.7541427
-0.7533555
-0.7518803
-0.7576285
-0.7568294
-0.7561547
-0.7556089
-0.7551352
-0.7538402
-0.7594014
-0.7585957
-0.7579009
-0.7573594
-0.7569953
-0.7562687
-0.7545979
-0.7609524
-0.7601506
-0.7594418
-0.7588627
-0.7584618
-0.75782
-0.7565474
-0.7550167
-0.7510941
-0.7486918
-0.7452041
-0.7384928
-0.7149325
-0.7528943
-0.750453
-0.7468556
-0.7398632
-0.7236716
-0.6761267
-0.7546256
-0.7523718
-0.7493971
-0.7443904
-0.7338693
-0.7104483
-0.6528673
-0.7562645
-0.7541958
-0.7517683
-0.7483559
-0.7423104
-0.7298728
-0.7045427
-0.6489213
-0.7578168
-0.7559071
-0.7538375
-0.7513868
-0.7478754
-0.7417725
-0.7301266
-0.708938
-0.6651369
-0.7592933
-0.7575283
-0.7556966
-0.7537533
-0.7514897
-0.7483571
-0.7433329
-0.7348596
-0.7218816
-0.6985994
-0.7607016
-0.7590811
-0.7574288
-0.7557646
-0.7540531
-0.7521596
-0.7497762
-0.746498
-0.742085
-0.7380792
-0.7265095
-0.7620459
-0.7605754
-0.7590817
-0.7575956
-0.7561351
-0.7546918
-0.7532262
-0.7516672
-0.750089
-0.7491215
-0.7468982
-0.7332466
-0.7633274
-0.7620122
-0.7606694
-0.7593228
-0.7579931
-0.7567
-0.7554625
-0.7543214
-0.7533883
-0.7530614
-0.7524871
-0.7491549
-0.739943
-0.7645462
-0.7633848
-0.7621856
-0.7609601
-0.7597182
-0.7584695
-0.7572283
-0.7560235
-0.754948
-0.7543432
-0.7544242
-0.7530858
-0.7510333
-0.7457993
-0.7552209
-0.7545948
-0.7538497
-0.7527607
-0.7502239
-0.757269
-0.7565148
-0.7558553
-0.7552667
-0.7546266
-0.7527824
-0.7591626
-0.758369
-0.7576806
-0.7571326
-0.7567352
-0.7559166
-0.7539536
-0.7608362
-0.7600374
-0.7593304
-0.7587503
-0.7583428
-0.7576833
-0.7563696
-0.7547113
-0.7623017
-0.7615126
-0.7607966
-0.7601875
-0.7597244
-0.7590679
-0.7579092
-0.7566485
-0.7551306
-0.7530343
-0.7509859
-0.7484761
-0.7447611
-0.7378206
-0.7147051
-0.7547158
-0.7526566
-0.75012
-0.7463125
-0.739093
-0.7235336
-0.6788934
-0.7563198
-0.7543456
-0.752081
-0.749053
-0.7440148
-0.7340563
-0.7136568
-0.6632075
-0.7578429
-0.755971
-0.7539513
-0.7515912
-0.748294
-0.7427131
-0.7321979
-0.7128785
-0.6701602
-0.7592933
-0.7575283
-0.7556966
-0.7537533
-0.7514897
-0.7483571
-0.7433329
-0.7348596
-0.7218816
-0.6985994
-0.7606789
-0.7590292
-0.757349
-0.7556592
-0.7539175
-0.7519669
-0.749454
-0.7459132
-0.7410903
-0.736827
-0.7250185
-0.7620049
-0.7604813
-0.7589399
-0.757419
-0.7559383
-0.7544809
-0.7529824
-0.7513272
-0.7495624
-0.7484441
-0.7459169
-0.7306652
-0.7632736
-0.7618867
-0.7604824
-0.7590958
-0.7577571
-0.7564919
-0.7553182
-0.7542655
-0.7534182
-0.7531617
-0.7523711
-0.7481972
-0.7367829
-0.7644851
-0.7632421
-0.7619753
-0.7607086
-0.7594647
-0.7582682
-0.7571516
-0.7561668
-0.7554335
-0.755236
-0.7549631
-0.7532162
-0.750304
-0.742739
-0.7656386
-0.7645393
-0.7634057
-0.7622494
-0.7610802
-0.7599083
-0.7587483
-0.7576302
-0.7566369
-0.7560745
-0.7561642
-0.7551503
-0.7539678
-0.752173
-0.7478848
-0.75689
-0.756281
-0.7556476
-0.7549568
-0.7540012
-0.7512077
-0.7588181
-0.758069
-0.7574052
-0.7568486
-0.7563872
-0.7554012
-0.7528983
-0.7606071
-0.7598203
-0.7591217
-0.7585417
-0.75812
-0.7574218
-0.7560172
-0.7540676
-0.76219
-0.761404
-0.7606902
-0.7600813
-0.759615
-0.7589492
-0.7577726
-0.7564706
-0.7548253
-0.7635777
-0.7628049
-0.7620902
-0.76146
-0.7609498
-0.7602622
-0.7591473
-0.7579986
-0.75675
-0.7552448
-0.7548258
-0.7529901
-0.7509265
-0.7483739
-0.7446113
-0.7378898
-0.7157129
-0.7563971
-0.7545548
-0.752503
-0.7499561
-0.7461583
-0.739305
-0.7256075
-0.6855657
-0.7578928
-0.7560944
-0.7541685
-0.7519715
-0.7490531
-0.7443924
-0.7359151
-0.7201811
-0.6805216
-0.7593175
-0.7575848
-0.7557877
-0.753888
-0.7517044
-0.7487557
-0.7441419
-0.7364496
-0.7245178
-0.7013353
-0.7606789
-0.7590292
-0.757349
-0.7556592
-0.7539175
-0.7519669
-0.749454
-0.7459132
-0.7410903
-0.736827
-0.7250185
-0.7619835
-0.7604328
-0.7588669
-0.7573274
-0.7558347
-0.7543664
-0.7528426
-0.7511219
-0.749239
-0.7480335
-0.7453641
-0.7293663
-0.7632348
-0.7617981
-0.7603501
-0.7589342
-0.7575866
-0.7563353
-0.7551923
-0.7541705
-0.7533293
-0.7530723
-0.7521627
-0.7473846
-0.734593
-0.7644342
-0.7631238
-0.7617995
-0.7604964
-0.759248
-0.7580883
-0.7570575
-0.7562067
-0.7556369
-0.7555664
-0.7551743
-0.7531168
-0.7494911
-0.7401485
-0.765581
-0.764405
-0.7632078
-0.7620128
-0.7608424
-0.7597222
-0.7586856
-0.7577882
-0.7571359
-0.7569658
-0.7567514
-0.7555322
-0.7539869
-0.7514806
-0.7454489
-0.7666739
-0.7656325
-0.7645597
-0.763467
-0.762364
-0.7612607
-0.7601715
-0.7591239
-0.7581946
-0.7576527
-0.7577104
-0.7568139
-0.755909
-0.754872
-0.753338
-0.7491039
-0.7584471
-0.7578379
-0.7572201
-0.756628
-0.7560302
-0.7547564
-0.7513331
-0.7602754
-0.7595309
-0.7588593
-0.7582829
-0.7578329
-0.7570651
-0.7555012
-0.753015
-0.7619695
-0.7611951
-0.7604901
-0.7598841
-0.7594111
-0.7587254
-0.7575109
-0.7561181
-0.7541825
-0.76347
-0.7627002
-0.7619879
-0.7613586
-0.7608467
-0.7601532
-0.7590286
-0.757862
-0.7565722
-0.7549398
-0.7647859
-0.7640327
-0.7633248
-0.7626845
-0.7621392
-0.7614307
-0.7603335
-0.7592268
-0.7580884
-0.7568517
-0.7553634
-0.7564918
-0.7548048
-0.7529877
-0.7509473
-0.7484309
-0.7448209
-0.7387388
-0.7181407
-0.7579626
-0.7562687
-0.7544689
-0.7524782
-0.750024
-0.7464864
-0.7405629
-0.7297843
-0.6971663
-0.7593638
-0.7576944
-0.7559632
-0.7541431
-0.7521001
-0.7494715
-0.7455759
-0.7392911
-0.7293975
-0.7069839
-0.7607016
-0.7590811
-0.7574288
-0.7557646
-0.7540531
-0.7521596
-0.7497762
-0.746498
-0.742085
-0.7380792
-0.7265095
-0.7619835
-0.7604328
-0.7588669
-0.7573274
-0.7558347
-0.7543664
-0.7528426
-0.7511219
-0.749239
-0.7480335
-0.7453641
-0.7293663
-0.7632145
-0.7617524
-0.7602819
-0.7588505
-0.7574975
-0.7562512
-0.7551192
-0.7541039
-0.7532517
-0.7529853
-0.7520204
-0.7469268
-0.7334821
-0.7643974
-0.7630402
-0.761675
-0.7603453
-0.7590919
-0.7579542
-0.7569737
-0.7561941
-0.7556968
-0.7556736
-0.7552312
-0.7529508
-0.7488152
-0.73833
-0.7655328
-0.7642933
-0.763042
-0.761813
-0.7606392
-0.7595565
-0.7586077
-0.7578519
-0.7573777
-0.7573468
-0.7570487
-0.7557015
-0.7538783
-0.7507792
-0.7433763
-0.7666195
-0.7655058
-0.7643732
-0.7632439
-0.7621396
-0.7610846
-0.7601116
-0.7592717
-0.7586625
-0.7584802
-0.758264
-0.7572365
-0.7561379
-0.7547833
-0.7526687
-0.7469573
-0.7676557
-0.7666685
-0.7656525
-0.7646188
-0.7635767
-0.762536
-0.7615102
-0.7605251
-0.7596493
-0.7591248
-0.7591396
-0.7583
-0.7574851
-0.7566776
-0.7557803
-0.754057
-0.7492551
-0.7599111
-0.7592966
-0.7586763
-0.7580894
-0.7575666
-0.7566759
-0.7548547
-0.7514593
-0.7616492
-0.7609143
-0.760236
-0.7596385
-0.7591512
-0.7584303
-0.7571532
-0.7556014
-0.7531326
-0.7632573
-0.7624986
-0.761795
-0.7611695
-0.7606544
-0.7599487
-0.7588047
-0.7576
-0.7562194
-0.7542978
-0.7646819
-0.7639317
-0.7632262
-0.7625869
-0.7620407
-0.761328
-0.7602244
-0.7591081
-0.7579517
-0.7566738
-0.7550587
-0.7659312
-0.7651999
-0.7645038
-0.7638608
-0.7632939
-0.7625725
-0.7614951
-0.7604048
-0.7593067
-0.7581783
-0.7569576
-0.755472
-0.7580482
-0.7564791
-0.7548219
-0.7530507
-0.7510736
-0.7486811
-0.7454182
-0.740353
-0.7225336
-0.7594284
-0.7578499
-0.7562092
-0.7544921
-0.7526193
-0.7503721
-0.7473383
-0.7428076
-0.7357842
-0.7161047
-0.7607451
-0.7591819
-0.7575834
-0.7559667
-0.7543077
-0.7525092
-0.7503436
-0.747515
-0.7438336
-0.7403612
-0.7294978
-0.7620049
-0.7604813
-0.7589399
-0.757419
-0.7559383
-0.7544809
-0.7529824
-0.7513272
-0.7495624
-0.7484441
-0.7459169
-0.7306652
-0.7632145
-0.7617524
-0.7602819
-0.7588505
-0.7574975
-0.7562512
-0.7551192
-0.7541039
-0.7532517
-0.7529853
-0.7520204
-0.7469268
-0.7334821
-0.7643781
-0.7629971
-0.7616109
-0.7602672
-0.7590106
-0.7578828
-0.7569249
-0.7561752
-0.7557049
-0.7556989
-0.7552362
-0.7528376
-0.7484367
-0.7374009
-0.7654979
-0.7642143
-0.7629246
-0.7616707
-0.760493
-0.7594335
-0.7585383
-0.7578633
-0.7574789
-0.7575101
-0.7571862
-0.755754
-0.7537361
-0.7502157
-0.7419081
-0.7665738
-0.7654003
-0.7642167
-0.7630553
-0.7619476
-0.760928
-0.7600384
-0.7593341
-0.7588976
-0.7588489
-0.7585656
-0.7574752
-0.7562499
-0.7546506
-0.7520571
-0.7451353
-0.7676043
-0.7665491
-0.7654766
-0.7644083
-0.7633645
-0.7623683
-0.76145
-0.7606568
-0.7600749
-0.759876
-0.7596366
-0.7586964
-0.7577529
-0.7567656
-0.7555898
-0.7533945
-0.7471391
-0.7685872
-0.767651
-0.7666882
-0.7657096
-0.7647241
-0.7637412
-0.7627736
-0.761845
-0.761018
-0.7605096
-0.760488
-0.7596801
-0.7589036
-0.7581598
-0.7574423
-0.7563477
-0.7541523
-0.7494063
-0.761291
-0.7606763
-0.7600486
-0.759451
-0.7589175
-0.7581317
-0.7567608
-0.7549531
-0.7515864
-0.7629474
-0.7622256
-0.7615475
-0.760932
-0.7604092
-0.759682
-0.7585087
-0.7572414
-0.755702
-0.7532508
-0.7644762
-0.7637366
-0.7630396
-0.7624045
-0.7618567
-0.7611355
-0.7600198
-0.758884
-0.7576895
-0.7563208
-0.7544177
-0.7658306
-0.7651022
-0.7644085
-0.7637667
-0.7631992
-0.7624745
-0.7613924
-0.7602958
-0.759188
-0.7580415
-0.7567796
-0.7551676
-0.7670181
-0.7663103
-0.7656295
-0.7649905
-0.7644115
-0.7636871
-0.7626312
-0.7615596
-0.7604765
-0.7593867
-0.7582722
-0.7570544
-0.7555552
-0.7595073
-0.7580384
-0.7565021
-0.7548965
-0.7531958
-0.7513249
-0.7491445
-0.7464033
-0.7427057
-0.7304263
-0.7608056
-0.7593251
-0.7578014
-0.7562475
-0.7546509
-0.7529562
-0.751031
-0.7487116
-0.7459061
-0.7432206
-0.7339692
-0.7620459
-0.7605754
-0.7590817
-0.7575956
-0.7561351
-0.7546918
-0.7532262
-0.7516672
-0.750089
-0.7491215
-0.7468982
-0.7332466
-0.7632348
-0.7617981
-0.7603501
-0.7589342
-0.7575866
-0.7563353
-0.7551923
-0.7541705
-0.7533293
-0.7530723
-0.7521627
-0.7473846
-0.734593
-0.7643781
-0.7629971
-0.7616109
-0.7602672
-0.7590106
-0.7578828
-0.7569249
-0.7561752
-0.7557049
-0.7556989
-0.7552362
-0.7528376
-0.7484367
-0.7374009
-0.7654795
-0.7641736
-0.762864
-0.7615971
-0.7604168
-0.7593682
-0.758498
-0.7578593
-0.7575127
-0.75757
-0.7572385
-0.7557624
-0.7536429
-0.749904
-0.7411534
-0.7665406
-0.7653257
-0.7641058
-0.7629208
-0.7618093
-0.7608118
-0.759974
-0.7593489
-0.759003
-0.7590173
-0.7587186
-0.7575929
-0.7562864
-0.7545192
-0.7515888
-0.7438413
-0.7675609
-0.7664494
-0.7653289
-0.76423
-0.7631826
-0.762219
-0.7613781
-0.7607112
-0.7602898
-0.7602145
-0.7599158
-0.7589371
-0.7579226
-0.7568133
-0.7554259
-0.752822
-0.7453434
-0.7685385
-0.7675385
-0.7665225
-0.765511
-0.7645235
-0.7635814
-0.7627129
-0.7619608
-0.7614026
-0.7611878
-0.7609273
-0.7600315
-0.7591553
-0.7582875
-0.7574012
-0.7561052
-0.7534903
-0.7473202
-0.769471
-0.7685833
-0.7676707
-0.7667437
-0.7658111
-0.764882
-0.7639682
-0.7630918
-0.7623098
-0.7618192
-0.7617683
-0.7609875
-0.760229
-0.7595067
-0.7588271
-0.757925
-0.756425
-0.7542474
-0.7495576
-0.7625953
-0.7619843
-0.7613548
-0.7607436
-0.7601878
-0.7594193
-0.7582069
-0.7568456
-0.7550517
-0.751714
-0.7641759
-0.7634707
-0.7627979
-0.7621733
-0.7616209
-0.7608847
-0.7597524
-0.7585871
-0.7573297
-0.7558027
-0.7533737
-0.7656315
-0.7649131
-0.7642276
-0.7635902
-0.763022
-0.7622905
-0.7611998
-0.760091
-0.7589636
-0.757779
-0.7564265
-0.7545274
-0.7669206
-0.7662156
-0.7655372
-0.7648994
-0.7643201
-0.7635929
-0.7625332
-0.761457
-0.7603674
-0.7592678
-0.7581354
-0.7568763
-0.7552511
-0.7680504
-0.7673672
-0.7667045
-0.7660742
-0.7654913
-0.7647707
-0.7637409
-0.76269
-0.7616244
-0.7605482
-0.7594706
-0.758358
-0.7571278
-0.7556152
-0.7608791
-0.7594986
-0.7580623
-0.7565779
-0.7550418
-0.7534364
-0.7517167
-0.7498373
-0.7477993
-0.745917
-0.7397315
-0.7621029
-0.7607091
-0.759282
-0.7578428
-0.756405
-0.7549671
-0.753514
-0.7520226
-0.750599
-0.7497673
-0.7480485
-0.7370346
-0.7632736
-0.7618867
-0.7604824
-0.7590958
-0.7577571
-0.7564919
-0.7553182
-0.7542655
-0.7534182
-0.7531617
-0.7523711
-0.7481972
-0.7367829
-0.7643974
-0.7630402
-0.761675
-0.7603453
-0.7590919
-0.7579542
-0.7569737
-0.7561941
-0.7556968
-0.7556736
-0.7552312
-0.7529508
-0.7488152
-0.73833
-0.7654795
-0.7641736
-0.762864
-0.7615971
-0.7604168
-0.7593682
-0.758498
-0.7578593
-0.7575127
-0.75757
-0.7572385
-0.7557624
-0.7536429
-0.749904
-0.7411534
-0.7665231
-0.7652871
-0.7640485
-0.7628512
-0.7617374
-0.7607502
-0.7599369
-0.7593479
-0.7590416
-0.7590835
-0.7587824
-0.7576396
-0.7562925
-0.7544391
-0.751335
-0.7431743
-0.7675293
-0.7663788
-0.765224
-0.7641028
-0.7630516
-0.7621083
-0.7613157
-0.7607231
-0.7603872
-0.760372
-0.7600619
-0.7590662
-0.7580124
-0.7568267
-0.7552977
-0.7523972
-0.7440677
-0.7684973
-0.7674443
-0.766383
-0.7653426
-0.7643512
-0.763439
-0.7626418
-0.7620061
-0.7615955
-0.7614933
-0.7611782
-0.7602522
-0.7593275
-0.7583849
-0.7573834
-0.7559224
-0.7529216
-0.7455505
-0.769425
-0.7684772
-0.7675145
-0.7665565
-0.7656216
-0.7647301
-0.7639078
-0.7631939
-0.762658
-0.7624329
-0.7621554
-0.7612928
-0.7604486
-0.759629
-0.7588278
-0.7578196
-0.7561768
-0.7535859
-0.7475009
-0.7703098
-0.7694681
-0.768603
-0.7677247
-0.7668418
-0.765963
-0.7650995
-0.7642717
-0.7635321
-0.7630604
-0.7629887
-0.7622329
-0.7614907
-0.7607746
-0.7601006
-0.7592525
-0.7579921
-0.7565021
-0.7543427
-0.7497088
-0.76383
-0.7632275
-0.7626005
-0.7619823
-0.7614042
-0.760638
-0.7594868
-0.7582818
-0.7569304
-0.7551504
-0.7518459
-0.76534
-0.764654
-0.7639914
-0.7633644
-0.7627933
-0.7620501
-0.7609484
-0.7598227
-0.7586656
-0.757418
-0.7559076
-0.7534863
-0.7667275
-0.7660322
-0.7653617
-0.7647283
-0.7641487
-0.7634159
-0.7623492
-0.7612642
-0.7601624
-0.7590432
-0.7578725
-0.7565229
-0.7546117
-0.7679557
-0.7672754
-0.766615
-0.765986
-0.765403
-0.7646799
-0.7636468
-0.762592
-0.7615217
-0.7604391
-0.7593517
-0.758221
-0.7569496
-0.7553112
-0.7690313
-0.7683737
-0.767731
-0.7671133
-0.7665326
-0.7658216
-0.7648204
-0.7637949
-0.762749
-0.7616893
-0.7606239
-0.7595472
-0.7584222
-0.7571798
-0.7556502
-0.745451
-0.7621718
-0.7608709
-0.7595219
-0.7581356
-0.7567177
-0.7552685
-0.7537858
-0.7522716
-0.7508184
-0.7498444
-0.7489423
-0.7417174
-0.7633274
-0.7620122
-0.7606694
-0.7593228
-0.7579931
-0.7567
-0.7554625
-0.7543214
-0.7533883
-0.7530614
-0.7524871
-0.7491549
-0.739943
-0.7644342
-0.7631238
-0.7617995
-0.7604964
-0.759248
-0.7580883
-0.7570575
-0.7562067
-0.7556369
-0.7555664
-0.7551743
-0.7531168
-0.7494911
-0.7401485
-0.7654979
-0.7642143
-0.7629246
-0.7616707
-0.760493
-0.7594335
-0.7585383
-0.7578633
-0.7574789
-0.7575101
-0.7571862
-0.755754
-0.7537361
-0.7502157
-0.7419081
-0.7665231
-0.7652871
-0.7640485
-0.7628512
-0.7617374
-0.7607502
-0.7599369
-0.7593479
-0.7590416
-0.7590835
-0.7587824
-0.7576396
-0.7562925
-0.7544391
-0.751335
-0.7431743
-0.7675126
-0.7663423
-0.7651698
-0.764037
-0.7629834
-0.7620497
-0.7612799
-0.7607215
-0.7604235
-0.7604351
-0.7601243
-0.7591217
-0.7580496
-0.7568266
-0.7552262
-0.7521704
-0.74341
-0.7684672
-0.7673775
-0.7662838
-0.7652222
-0.764227
-0.7633334
-0.7625807
-0.7620137
-0.7616824
-0.761636
-0.7613112
-0.7603744
-0.7594266
-0.7584422
-0.7573703
-0.7557928
-0.7525012
-0.744293
-0.7693859
-0.7683883
-0.7673828
-0.7663973
-0.7654585
-0.7645944
-0.7638379
-0.7632312
-0.7628307
-0.7627081
-0.7623789
-0.761489
-0.7606054
-0.7597314
-0.7588541
-0.757767
-0.7559917
-0.753021
-0.7457569
-0.7702663
-0.7693682
-0.7684559
-0.7675483
-0.766663
-0.765819
-0.7650403
-0.7643627
-0.7638492
-0.7636184
-0.7633306
-0.7624966
-0.7616768
-0.7608776
-0.7601064
-0.7591905
-0.7578797
-0.7562483
-0.7536816
-0.7476809
-0.7711056
-0.7703078
-0.7694878
-0.7686557
-0.7678198
-0.7669883
-0.766172
-0.7653898
-0.7646904
-0.7642387
-0.764153
-0.7634232
-0.7626976
-0.7619888
-0.7613101
-0.7604827
-0.7593124
-0.7580589
-0.7565793
-0.7544378
-0.7498623
-0.7650003
-0.76441
-0.7637906
-0.763171
-0.762579
-0.7618117
-0.7606992
-0.759554
-0.7583568
-0.7570151
-0.7552533
-0.7519669
-0.7664443
-0.7657795
-0.7651306
-0.7645075
-0.7639262
-0.7631836
-0.7621083
-0.7610121
-0.7598932
-0.758744
-0.7575103
-0.7560033
-0.7535732
-0.7677683
-0.7670972
-0.7664444
-0.7658198
-0.7652369
-0.7645089
-0.7634698
-0.7624079
-0.7613289
-0.7602338
-0.7591267
-0.7579577
-0.7565958
-0.7546725
-0.7689394
-0.7682845
-0.7676441
-0.7670277
-0.7664471
-0.7657339
-0.7647296
-0.7637008
-0.762651
-0.7615865
-0.7605147
-0.7594282
-0.7582851
-0.7570014
-0.7553463
-0.769964
-0.7693323
-0.7687112
-0.768109
-0.7675354
-0.7668382
-0.7658678
-0.7648702
-0.7638491
-0.7628081
-0.7617581
-0.7606929
-0.7596037
-0.7584667
-0.7572087
-0.7468902
-0.7489982
-0.746154
-0.7633922
-0.7621639
-0.7608933
-0.759592
-0.7582685
-0.756931
-0.7555884
-0.7542672
-0.7530584
-0.7523615
-0.7522544
-0.7499444
-0.7437393
-0.7644851
-0.7632421
-0.7619753
-0.7607086
-0.7594647
-0.7582682
-0.7571516
-0.7561668
-0.7554335
-0.755236
-0.7549631
-0.7532162
-0.750304
-0.742739
-0.7655328
-0.7642933
-0.763042
-0.761813
-0.7606392
-0.7595565
-0.7586077
-0.7578519
-0.7573777
-0.7573468
-0.7570487
-0.7557015
-0.7538783
-0.7507792
-0.7433763
-0.7665406
-0.7653257
-0.7641058
-0.7629208
-0.7618093
-0.7608118
-0.759974
-0.7593489
-0.759003
-0.7590173
-0.7587186
-0.7575929
-0.7562864
-0.7545192
-0.7515888
-0.7438413
-0.7675126
-0.7663423
-0.7651698
-0.764037
-0.7629834
-0.7620497
-0.7612799
-0.7607215
-0.7604235
-0.7604351
-0.7601243
-0.7591217
-0.7580496
-0.7568266
-0.7552262
-0.7521704
-0.74341
-0.7684514
-0.7673429
-0.7662326
-0.7651599
-0.7641622
-0.7632774
-0.7625458
-0.7620105
-0.7617145
-0.7616933
-0.7613686
-0.7604281
-0.7594708
-0.7584675
-0.7573619
-0.7557241
-0.7522771
-0.7436444
-0.7693573
-0.7683251
-0.7672891
-0.7662836
-0.7653408
-0.7644937
-0.7637783
-0.7632349
-0.7629075
-0.7628362
-0.762498
-0.7615992
-0.7606986
-0.7597972
-0.7588776
-0.7577386
-0.7558617
-0.7526049
-0.7445173
-0.7702291
-0.7692842
-0.7683317
-0.7673981
-0.7665088
-0.7656901
-0.7649722
-0.7643936
-0.7640045
-0.763867
-0.7635297
-0.7626691
-0.7618143
-0.7609701
-0.7601414
-0.7591799
-0.7578231
-0.7560608
-0.7531203
-0.7459621
-0.7710645
-0.7702138
-0.7693495
-0.7684898
-0.7676514
-0.7668523
-0.7661148
-0.765472
-0.7649811
-0.7647491
-0.7644563
-0.763651
-0.7628533
-0.7620704
-0.7613087
-0.7604314
-0.7592436
-0.7579396
-0.7563199
-0.7537771
-0.7478609
-0.7718604
-0.7711046
-0.7703277
-0.7695395
-0.768748
-0.7679613
-0.7671895
-0.7664505
-0.7657893
-0.7653584
-0.7652646
-0.7645615
-0.763855
-0.7631556
-0.762476
-0.7616576
-0.7605372
-0.7593721
-0.7581257
-0.7566561
-0.7545375
-0.750003
-0.7661109
-0.7655356
-0.7649277
-0.7643126
-0.7637137
-0.7629507
-0.7618677
-0.7607603
-0.7596213
-0.7584315
-0.7571039
-0.7553472
-0.7520616
-0.7674928
-0.7668506
-0.7662184
-0.7656039
-0.76502
-0.7642835
-0.7632371
-0.7621664
-0.7610759
-0.7599635
-0.7588263
-0.7575944
-0.7560753
-0.7536364
-0.7687571
-0.7681112
-0.7674781
-0.7668661
-0.7662858
-0.7655683
-0.7645587
-0.7635237
-0.7624668
-0.7613934
-0.7603091
-0.7592028
-0.7580213
-0.7566472
-0.7547081
-0.7698745
-0.7692455
-0.7686267
-0.7680258
-0.7674524
-0.7667532
-0.7657801
-0.7647795
-0.7637549
-0.7627101
-0.7616553
-0.7605836
-0.7594846
-0.7583293
-0.7570301
-0.7708509
-0.7702455
-0.7696471
-0.7690625
-0.7684998
-0.7678196
-0.7668813
-0.7659141
-0.7649203
-0.7639033
-0.7628711
-0.7618208
-0.760743
-0.7596418
-0.7584899
-0.747691
-0.7496471
-0.7479482
-0.7513952
-0.7502788
-0.747277
-0.7645462
-0.7633848
-0.7621856
-0.7609601
-0.7597182
-0.7584695
-0.7572283
-0.7560235
-0.754948
-0.7543432
-0.7544242
-0.7530858
-0.7510333
-0.7457993
-0.765581
-0.764405
-0.7632078
-0.7620128
-0.7608424
-0.7597222
-0.7586856
-0.7577882
-0.7571359
-0.7569658
-0.7567514
-0.7555322
-0.7539869
-0.7514806
-0.7454489
-0.7665738
-0.7654003
-0.7642167
-0.7630553
-0.7619476
-0.760928
-0.7600384
-0.7593341
-0.7588976
-0.7588489
-0.7585656
-0.7574752
-0.7562499
-0.7546506
-0.7520571
-0.7451353
-0.7675293
-0.7663788
-0.765224
-0.7641028
-0.7630516
-0.7621083
-0.7613157
-0.7607231
-0.7603872
-0.760372
-0.7600619
-0.7590662
-0.7580124
-0.7568267
-0.7552977
-0.7523972
-0.7440677
-0.7684514
-0.7673429
-0.7662326
-0.7651599
-0.7641622
-0.7632774
-0.7625458
-0.7620105
-0.7617145
-0.7616933
-0.7613686
-0.7604281
-0.7594708
-0.7584675
-0.7573619
-0.7557241
-0.7522771
-0.7436444
-0.7693422
-0.7682924
-0.7672407
-0.7662246
-0.7652794
-0.7644403
-0.7637443
-0.7632303
-0.7629354
-0.7628877
-0.7625497
-0.7616482
-0.7607413
-0.7598285
-0.7588899
-0.757725
-0.7557931
-0.7523835
-0.7438779
-0.7702019
-0.7692245
-0.7682432
-0.7672906
-0.7663974
-0.7655943
-0.7649144
-0.7643942
-0.7640724
-0.7639822
-0.7636363
-0.7627671
-0.7618977
-0.7610322
-0.7601736
-0.7591849
-0.7577928
-0.7559304
-0.7527085
-0.7447404
-0.7710292
-0.7701346
-0.7692324
-0.7683482
-0.7675058
-0.7667301
-0.7660492
-0.7654981
-0.7651219
-0.764975
-0.7646345
-0.7638028
-0.7629721
-0.7621495
-0.7613399
-0.7604317
-0.7592289
-0.757879
-0.75613
-0.7532194
-0.7461656
-0.7718214
-0.7710162
-0.7701978
-0.7693836
-0.7685898
-0.7678333
-0.7671352
-0.7665259
-0.7660579
-0.7658281
-0.7655352
-0.7647588
-0.7639845
-0.7632175
-0.7624647
-0.7616054
-0.7604798
-0.7592967
-0.7579996
-0.7563912
-0.7538769
-0.7480256
-0.7725757
-0.7718603
-0.7711247
-0.7703784
-0.7696293
-0.7688851
-0.7681555
-0.7674574
-0.7668328
-0.7664233
-0.766326
-0.7656504
-0.764965
-0.764279
-0.7636024
-0.7627951
-0.7617078
-0.7605916
-0.7594318
-0.7581922
-0.7567377
-0.7546284
-0.7501162
-0.7671657
-0.7666076
-0.7660144
-0.7654083
-0.7648095
-0.764055
-0.7630023
-0.7619235
-0.7608213
-0.7596883
-0.7585103
-0.7571847
-0.7554171
-0.7521321
-0.768489
-0.7678705
-0.7672571
-0.7666549
-0.7660742
-0.7653492
-0.764333
-0.7632905
-0.7622246
-0.7611396
-0.7600378
-0.7589012
-0.7576565
-0.7561254
-0.753674
-0.7696972
-0.7690768
-0.7684651
-0.7678685
-0.7672957
-0.7665926
-0.7656146
-0.7646085
-0.7635778
-0.7625257
-0.7614619
-0.7603777
-0.7592587
-0.7580649
-0.7566752
-0.7707638
-0.770161
-0.7695649
-0.7689817
-0.7684192
-0.7677372
-0.7667964
-0.7658264
-0.7648295
-0.7638091
-0.7627731
-0.7617179
-0.7606336
-0.7595224
-0.7583523
-0.7716944
-0.7711154
-0.7705405
-0.7699753
-0.7694264
-0.7687656
-0.7678601
-0.7669245
-0.7659606
-0.7649703
-0.7639614
-0.7629286
-0.7618656
-0.7607758
-0.7596601
-0.7481869
-0.7501697
-0.74891
-0.7518741
-0.7508667
-0.7491372
-0.7534143
-0.7526801
-0.7515238
-0.748666
-0.7656386
-0.7645393
-0.7634057
-0.7622494
-0.7610802
-0.7599083
-0.7587483
-0.7576302
-0.7566369
-0.7560745
-0.7561642
-0.7551503
-0.7539678
-0.752173
-0.7478848
-0.7666195
-0.7655058
-0.7643732
-0.7632439
-0.7621396
-0.7610846
-0.7601116
-0.7592717
-0.7586625
-0.7584802
-0.758264
-0.7572365
-0.7561379
-0.7547833
-0.7526687
-0.7469573
-0.7675609
-0.7664494
-0.7653289
-0.76423
-0.7631826
-0.762219
-0.7613781
-0.7607112
-0.7602898
-0.7602145
-0.7599158
-0.7589371
-0.7579226
-0.7568133
-0.7554259
-0.752822
-0.7453434
-0.7684672
-0.7673775
-0.7662838
-0.7652222
-0.764227
-0.7633334
-0.7625807
-0.7620137
-0.7616824
-0.761636
-0.7613112
-0.7603744
-0.7594266
-0.7584422
-0.7573703
-0.7557928
-0.7525012
-0.744293
-0.7693422
-0.7682924
-0.7672407
-0.7662246
-0.7652794
-0.7644403
-0.7637443
-0.7632303
-0.7629354
-0.7628877
-0.7625497
-0.7616482
-0.7607413
-0.7598285
-0.7588899
-0.757725
-0.7557931
-0.7523835
-0.7438779
-0.7701875
-0.7691935
-0.7681974
-0.7672349
-0.7663393
-0.7655434
-0.7648815
-0.7643884
-0.7640968
-0.7640283
-0.7636825
-0.7628109
-0.7619364
-0.7610625
-0.7601913
-0.7591898
-0.7577785
-0.755862
-0.7524898
-0.74411
-0.7710032
-0.7700781
-0.7691489
-0.7682467
-0.7674005
-0.7666392
-0.7659935
-0.7654966
-0.7651825
-0.7650791
-0.7647301
-0.7638895
-0.7630454
-0.7622045
-0.761371
-0.760446
-0.7592317
-0.7578469
-0.7559992
-0.7528117
-0.7449604
-0.7717879
-0.7709416
-0.7700875
-0.7692503
-0.7684526
-0.767718
-0.7670726
-0.7665485