/*--------------------------------*- C++ -*----------------------------------*\
| =========                 |                                                 |
| \\      /  F ield         | OpenFOAM: The Open Source CFD Toolbox           |
|  \\    /   O peration     | Version:  2306                                  |
|   \\  /    A nd           | Website:  www.openfoam.com                      |
|    \\/     M anipulation  |                                                 |
\*---------------------------------------------------------------------------*/
FoamFile
{
    version     2.0;
    format      ascii;
    arch        "LSB;label=32;scalar=64";
    class       volScalarField;
    location    "1.2/air";
    object      T;
}
// * * * * * * * * * * * * * * * * * * * * * * * * * * * * * * * * * * * * * //

dimensions      [0 0 0 1 0 0 0];

internalField   nonuniform List<scalar> 
16000
(
1188.772
1175.845
1203.795
1175.615
1168.664
1200.74
1144.175
1207.581
1200.69
1168.233
1164.574
1198.097
1124.552
1206.411
1191.675
1124.227
1210.6
1206.466
1197.99
1163.902
1162.672
1196.152
1112.776
1205.365
1183.769
1094.744
1210.072
1203.039
1183.645
1111.905
1213.246
1210.165
1205.46
1195.963
1161.676
1162.672
1195.122
1107.19
1204.567
1177.908
1076.244
1209.614
1199.918
1170.847
1075.506
1212.961
1208.681
1199.95
1177.55
1105.458
1215.637
1213.062
1209.783
1204.695
1194.823
1161.234
1203.515
1164.574
1195.122
1107.19
1204.133
1174.791
1067.248
1209.27
1197.509
1161.24
1051.968
1212.727
1207.351
1194.849
1160.907
1065.192
1215.451
1212.308
1207.443
1197.556
1174.084
1104.228
1217.826
1215.547
1212.91
1209.516
1204.3
1194.704
1162.548
1203.44
1206.488
1205.377
1168.664
1196.152
1112.776
1204.133
1174.791
1067.248
1209.083
1196.193
1156.096
1040.321
1212.557
1206.333
1190.866
1148.28
1038.719
1215.306
1211.656
1205.305
1190.862
1155.196
1063.204
1217.683
1215.084
1211.762
1206.537
1196.258
1173.671
1108.174
1219.846
1217.771
1215.481
1212.827
1209.423
1204.365
1195.65
1165.864
1203.273
1206.48
1205.267
1209.397
1208.191
1207.252
1175.845
1198.097
1124.552
1204.567
1177.908
1076.244
1209.083
1196.193
1156.096
1040.321
1212.466
1205.778
1188.674
1141.473
1025.491
1215.205
1211.17
1203.643
1185.581
1140.77
1036.134
1217.576
1214.699
1210.746
1203.772
1188.653
1154.471
1069.536
1219.725
1217.429
1214.803
1211.414
1206.139
1196.332
1176.433
1117.821
1221.721
1219.805
1217.737
1215.465
1212.842
1209.547
1204.922
1197.625
1171.935
1202.947
1206.466
1205.002
1209.404
1208.184
1207.112
1212.047
1210.892
1209.894
1209.143
1188.772
1200.74
1144.175
1205.365
1183.769
1094.744
1209.27
1197.509
1161.24
1051.968
1212.466
1205.778
1188.674
1141.473
1025.491
1215.152
1210.909
1202.729
1182.659
1132.961
1022.578
1217.503
1214.422
1209.975
1201.597
1182.614
1139.778
1044.263
1219.636
1217.154
1214.225
1210.141
1203.057
1188.699
1158.927
1084.709
1221.612
1219.52
1217.25
1214.663
1211.348
1206.382
1197.866
1182.196
1134.63
1223.466
1221.684
1219.781
1217.742
1215.514
1212.977
1209.914
1205.966
1200.571
1182.922
1202.032
1206.463
1204.431
1209.424
1208.174
1206.774
1212.058
1210.909
1209.887
1208.984
1214.469
1213.35
1212.384
1211.598
1211.055
1203.795
1175.615
1206.411
1191.675
1124.227
1209.614
1199.918
1170.847
1075.506
1212.557
1206.333
1190.866
1148.28
1038.719
1215.152
1210.909
1202.729
1182.659
1132.961
1022.578
1217.466
1214.277
1209.558
1200.392
1179.26
1131.813
1031.674
1219.576
1216.961
1213.802
1209.162
1200.608
1182.615
1145.557
1063.489
1221.533
1219.294
1216.848
1213.968
1209.981
1203.378
1191.126
1168.178
1110.099
1223.366
1221.431
1219.381
1217.184
1214.71
1211.628
1207.323
1200.77
1190.536
1162.06
1225.095
1223.432
1221.664
1219.792
1217.798
1215.643
1213.253
1210.542
1207.517
1204.624
1195.528
1206.579
1202.939
1209.484
1208.188
1206.054
1212.086
1210.958
1209.878
1208.601
1214.48
1213.373
1212.409
1211.591
1210.886
1216.697
1215.606
1214.648
1213.871
1213.303
1212.078
1207.581
1200.69
1168.233
1210.072
1203.039
1183.645
1111.905
1212.727
1207.351
1194.849
1160.907
1065.192
1215.205
1211.17
1203.643
1185.581
1140.77
1036.134
1217.466
1214.277
1209.558
1200.392
1179.26
1131.813
1031.674
1219.546
1216.862
1213.577
1208.627
1199.244
1179.228
1138.32
1053.041
1221.48
1219.139
1216.563
1213.451
1208.916
1200.972
1185.737
1157.508
1094.804
1223.294
1221.232
1219.058
1216.718
1214.002
1210.369
1204.812
1195.706
1181.293
1148.791
1225.003
1223.199
1221.31
1219.342
1217.264
1214.983
1212.299
1208.958
1204.847
1200.885
1187.638
1226.618
1225.062
1223.413
1221.676
1219.847
1217.917
1215.869
1213.697
1211.507
1209.891
1208.15
1197.902
1209.776
1208.343
1204.4
1212.161
1211.093
1209.889
1207.818
1214.509
1213.436
1212.477
1211.578
1210.486
1216.708
1215.63
1214.682
1213.902
1213.294
1211.908
1218.76
1217.696
1216.74
1215.941
1215.353
1214.204
1212.188
1210.6
1206.466
1197.99
1163.902
1212.961
1208.681
1199.95
1177.55
1105.458
1215.306
1211.656
1205.305
1190.862
1155.196
1063.204
1217.503
1214.422
1209.975
1201.597
1182.614
1139.778
1044.263
1219.546
1216.862
1213.577
1208.627
1199.244
1179.228
1138.32
1053.041
1221.454
1219.06
1216.415
1213.174
1208.33
1199.624
1182.732
1151.746
1087.381
1223.246
1221.096
1218.832
1216.383
1213.467
1209.372
1202.772
1191.616
1174.226
1140.571
1224.936
1223.017
1221.027
1218.974
1216.811
1214.385
1211.358
1207.289
1201.931
1196.89
1181.367
1226.533
1224.846
1223.089
1221.28
1219.426
1217.517
1215.518
1213.391
1211.278
1209.971
1207.371
1191.707
1228.046
1226.587
1225.044
1223.423
1221.726
1219.955
1218.112
1216.222
1214.4
1213.179
1212.573
1209.152
1200.441
1212.481
1211.553
1210.001
1206.218
1214.583
1213.597
1212.648
1211.574
1209.706
1216.736
1215.694
1214.769
1213.98
1213.277
1211.511
1218.771
1217.719
1216.774
1215.982
1215.386
1214.195
1212.018
1220.679
1219.643
1218.691
1217.868
1217.227
1216.133
1214.301
1212.298
1213.246
1210.165
1205.46
1195.963
1161.676
1215.451
1212.308
1207.443
1197.556
1174.084
1104.228
1217.576
1214.699
1210.746
1203.772
1188.653
1154.471
1069.536
1219.576
1216.961
1213.802
1209.162
1200.608
1182.615
1145.557
1063.489
1221.454
1219.06
1216.415
1213.174
1208.33
1199.624
1182.732
1151.746
1087.381
1223.222
1221.027
1218.717
1216.207
1213.178
1208.818
1201.621
1189.326
1170.406
1136.587
1224.891
1222.893
1220.831
1218.715
1216.481
1213.922
1210.584
1205.87
1199.466
1193.682
1177.145
1226.47
1224.677
1222.83
1220.959
1219.079
1217.167
1215.158
1212.948
1210.642
1209.207
1205.985
1186.51
1227.967
1226.385
1224.742
1223.06
1221.359
1219.656
1217.972
1216.357
1214.969
1214.382
1213.408
1208.619
1195.587
1229.387
1228.016
1226.569
1225.052
1223.469
1221.824
1220.128
1218.413
1216.791
1215.724
1215.403
1213.357
1210.377
1203.105
1214.889
1214.111
1213.113
1211.618
1208.266
1216.805
1215.853
1214.976
1214.156
1213.251
1210.755
1218.796
1217.779
1216.863
1216.083
1215.467
1214.175
1211.622
1220.688
1219.665
1218.724
1217.909
1217.272
1216.167
1214.292
1212.129
1222.468
1221.464
1220.523
1219.681
1218.988
1217.903
1216.217
1214.398
1212.409
1215.637
1213.062
1209.783
1204.695
1194.823
1161.234
1217.683
1215.084
1211.762
1206.537
1196.258
1173.671
1108.174
1219.636
1217.154
1214.225
1210.141
1203.057
1188.699
1158.927
1084.709
1221.48
1219.139
1216.563
1213.451
1208.916
1200.972
1185.737
1157.508
1094.804
1223.222
1221.027
1218.717
1216.207
1213.178
1208.818
1201.621
1189.326
1170.406
1136.587
1224.869
1222.831
1220.731
1218.581
1216.306
1213.667
1210.144
1205.053
1198.06
1191.915
1175.032
1226.429
1224.562
1222.651
1220.736
1218.831
1216.905
1214.855
1212.516
1209.96
1208.343
1204.728
1182.922
1227.908
1226.227
1224.502
1222.768
1221.059
1219.403
1217.82
1216.348
1215.116
1214.697
1213.516
1207.571
1191.36
1229.312
1227.827
1226.287
1224.714
1223.132
1221.567
1220.058
1218.675
1217.583
1217.199
1216.654
1214.129
1209.967
1199.342
1230.645
1229.358
1227.999
1226.576
1225.094
1223.557
1221.98
1220.393
1218.901
1217.909
1217.635
1216.058
1214.306
1211.737
1205.858
1217.086
1216.349
1215.509
1214.555
1213.226
1209.425
1218.86
1217.929
1217.068
1216.301
1215.627
1214.138
1210.869
1220.712
1219.721
1218.808
1218.012
1217.377
1216.245
1214.272
1211.733
1222.477
1221.484
1220.554
1219.721
1219.035
1217.948
1216.251
1214.389
1212.24
1224.142
1223.172
1222.246
1221.397
1220.664
1219.577
1217.975
1216.3
1214.495
1212.52
1217.826
1215.547
1212.91
1209.516
1204.3
1194.704
1162.548
1219.725
1217.429
1214.803
1211.414
1206.139
1196.332
1176.433
1117.821
1221.533
1219.294
1216.848
1213.968
1209.981
1203.378
1191.126
1168.178
1110.099
1223.246
1221.096
1218.832
1216.383
1213.467
1209.372
1202.772
1191.616
1174.226
1140.571
1224.869
1222.831
1220.731
1218.581
1216.306
1213.667
1210.144
1205.053
1198.06
1191.915
1175.032
1226.408
1224.504
1222.561
1220.621
1218.703
1216.764
1214.681
1212.253
1209.535
1207.808
1204.005
1181.106
1227.869
1226.12
1224.336
1222.565
1220.849
1219.218
1217.687
1216.271
1215.069
1214.686
1213.38
1206.588
1188.374
1229.257
1227.679
1226.062
1224.443
1222.859
1221.353
1219.977
1218.803
1217.978
1217.84
1217.223
1214.314
1209.17
1195.98
1230.575
1229.18
1227.734
1226.26
1224.779
1223.322
1221.929
1220.675
1219.709
1219.373
1218.932
1217.162
1214.947
1211.39
1203.011
1231.828
1230.618
1229.341
1228.005
1226.614
1225.175
1223.699
1222.219
1220.826
1219.88
1219.585
1218.201
1216.848
1215.343
1213.177
1207.343
1219.115
1218.386
1217.588
1216.777
1215.934
1214.078
1209.55
1220.77
1219.858
1219.002
1218.232
1217.584
1216.392
1214.234
1210.984
1222.499
1221.536
1220.632
1219.819
1219.143
1218.052
1216.329
1214.368
1211.845
1224.15
1223.19
1222.275
1221.434
1220.708
1219.624
1218.021
1216.335
1214.486
1212.351
1225.71
1224.776
1223.872
1223.024
1222.264
1221.179
1219.64
1218.048
1216.384
1214.592
1212.624
1219.846
1217.771
1215.481
1212.827
1209.423
1204.365
1195.65
1165.864
1221.612
1219.52
1217.25
1214.663
1211.348
1206.382
1197.866
1182.196
1134.63
1223.294
1221.232
1219.058
1216.718
1214.002
1210.369
1204.812
1195.706
1181.293
1148.791
1224.891
1222.893
1220.831
1218.715
1216.481
1213.922
1210.584
1205.87
1199.466
1193.682
1177.145
1226.408
1224.504
1222.561
1220.621
1218.703
1216.764
1214.681
1212.253
1209.535
1207.808
1204.005
1181.106
1227.85
1226.066
1224.252
1222.462
1220.74
1219.12
1217.609
1216.208
1215.001
1214.619
1213.252
1206.015
1186.847
1229.22
1227.579
1225.907
1224.254
1222.669
1221.2
1219.903
1218.844
1218.145
1218.11
1217.464
1214.265
1208.409
1193.559
1230.524
1229.041
1227.523
1226.005
1224.525
1223.127
1221.87
1220.835
1220.156
1220.081
1219.613
1217.721
1215.155
1210.781
1200.424
1231.762
1230.451
1229.092
1227.707
1226.318
1224.953
1223.652
1222.484
1221.585
1221.243
1220.812
1219.335
1217.759
1215.837
1212.867
1204.919
1232.941
1231.803
1230.602
1229.346
1228.04
1226.688
1225.305
1223.917
1222.609
1221.7
1221.369
1220.081
1218.88
1217.706
1216.429
1213.964
1207.503
1221.002
1220.275
1219.485
1218.703
1217.972
1216.646
1214.17
1209.677
1222.552
1221.662
1220.811
1220.027
1219.354
1218.247
1216.474
1214.329
1211.099
1224.17
1223.238
1222.348
1221.527
1220.813
1219.731
1218.125
1216.413
1214.465
1211.957
1225.717
1224.793
1223.899
1223.059
1222.306
1221.225
1219.687
1218.093
1216.418
1214.583
1212.456
1227.182
1226.285
1225.407
1224.568
1223.795
1222.719
1221.235
1219.703
1218.12
1216.468
1214.683
1212.705
1221.721
1219.805
1217.737
1215.465
1212.842
1209.547
1204.922
1197.625
1171.935
1223.366
1221.431
1219.381
1217.184
1214.71
1211.628
1207.323
1200.77
1190.536
1162.06
1224.936
1223.017
1221.027
1218.974
1216.811
1214.385
1211.358
1207.289
1201.931
1196.89
1181.367
1226.429
1224.562
1222.651
1220.736
1218.831
1216.905
1214.855
1212.516
1209.96
1208.343
1204.728
1182.922
1227.85
1226.066
1224.252
1222.462
1220.74
1219.12
1217.609
1216.208
1215.001
1214.619
1213.252
1206.015
1186.847
1229.202
1227.528
1225.829
1224.158
1222.571
1221.12
1219.86
1218.85
1218.199
1218.204
1217.548
1214.191
1207.961
1192.308
1230.489
1228.947
1227.378
1225.828
1224.347
1222.989
1221.815
1220.909
1220.38
1220.426
1219.963
1217.979
1215.162
1210.2
1198.528
1231.714
1230.321
1228.894
1227.468
1226.079
1224.77
1223.597
1222.639
1222.019
1221.926
1221.487
1219.978
1218.268
1216.033
1212.402
1202.703
1232.879
1231.646
1230.368
1229.066
1227.761
1226.478
1225.255
1224.157
1223.303
1222.945
1222.494
1221.152
1219.817
1218.42
1216.776
1213.664
1205.123
1233.987
1232.917
1231.788
1230.607
1229.378
1228.108
1226.809
1225.505
1224.273
1223.398
1223.035
1221.809
1220.677
1219.615
1218.598
1217.016
1214.049
1207.663
1222.763
1222.041
1221.253
1220.47
1219.746
1218.582
1216.723
1214.261
1209.805
1224.22
1223.354
1222.513
1221.72
1221.015
1219.932
1218.318
1216.556
1214.425
1211.215
1225.736
1224.838
1223.967
1223.145
1222.405
1221.329
1219.795
1218.197
1216.496
1214.562
1212.063
1227.189
1226.302
1225.433
1224.601
1223.834
1222.762
1221.28
1219.75
1218.166
1216.502
1214.674
1212.537
1228.565
1227.707
1226.858
1226.034
1225.258
1224.199
1222.768
1221.29
1219.766
1218.193
1216.546
1214.753
1212.77
1223.466
1221.684
1219.781
1217.742
1215.514
1212.977
1209.914
1205.966
1200.571
1182.922
1225.003
1223.199
1221.31
1219.342
1217.264
1214.983
1212.299
1208.958
1204.847
1200.885
1187.638
1226.47
1224.677
1222.83
1220.959
1219.079
1217.167
1215.158
1212.948
1210.642
1209.207
1205.985
1186.51
1227.869
1226.12
1224.336
1222.565
1220.849
1219.218
1217.687
1216.271
1215.069
1214.686
1213.38
1206.588
1188.374
1229.202
1227.528
1225.829
1224.158
1222.571
1221.12
1219.86
1218.85
1218.199
1218.204
1217.548
1214.191
1207.961
1192.308
1230.472
1228.899
1227.304
1225.739
1224.257
1222.916
1221.783
1220.935
1220.47
1220.569
1220.112
1218.077
1215.125
1209.856
1197.538
1231.682
1230.232
1228.757
1227.302
1225.912
1224.64
1223.549
1222.716
1222.246
1222.275
1221.853
1220.322
1218.522
1216.07
1211.969
1201.066
1232.833
1231.524
1230.182
1228.841
1227.535
1226.304
1225.201
1224.299
1223.704
1223.578
1223.127
1221.784
1220.392
1218.856
1216.94
1213.262
1202.946
1233.929
1232.77
1231.568
1230.343
1229.115
1227.908
1226.757
1225.72
1224.905
1224.531
1224.06
1222.793
1221.563
1220.356
1219.125
1217.289
1213.75
1205.327
1234.97
1233.964
1232.903
1231.792
1230.636
1229.442
1228.22
1226.993
1225.832
1224.992
1224.605
1223.43
1222.338
1221.32
1220.378
1219.077
1217.079
1214.134
1207.824
1224.412
1223.7
1222.917
1222.128
1221.388
1220.277
1218.648
1216.799
1214.353
1209.934
1225.782
1224.945
1224.119
1223.324
1222.595
1221.523
1219.994
1218.389
1216.638
1214.52
1211.325
1227.207
1226.344
1225.496
1224.681
1223.927
1222.861
1221.384
1219.858
1218.269
1216.579
1214.653
1212.146
1228.572
1227.723
1226.882
1226.066
1225.295
1224.24
1222.811
1221.336
1219.813
1218.238
1216.581
1214.744
1212.602
1229.867
1229.048
1228.23
1227.427
1226.656
1225.62
1224.243
1222.817
1221.345
1219.829
1218.261
1216.606
1214.808
1212.819
1225.095
1223.432
1221.664
1219.792
1217.798
1215.643
1213.253
1210.542
1207.517
1204.624
1195.528
1226.533
1224.846
1223.089
1221.28
1219.426
1217.517
1215.518
1213.391
1211.278
1209.971
1207.371
1191.707
1227.908
1226.227
1224.502
1222.768
1221.059
1219.403
1217.82
1216.348
1215.116
1214.697
1213.516
1207.571
1191.36
1229.22
1227.579
1225.907
1224.254
1222.669
1221.2
1219.903
1218.844
1218.145
1218.11
1217.464
1214.265
1208.409
1193.559
1230.472
1228.899
1227.304
1225.739
1224.257
1222.916
1221.783
1220.935
1220.47
1220.569
1220.112
1218.077
1215.125
1209.856
1197.538
1231.666
1230.187
1228.688
1227.218
1225.827
1224.573
1223.52
1222.745
1222.341
1222.424
1222.014
1220.472
1218.625
1216.059
1211.715
1200.206
1232.803
1231.44
1230.053
1228.685
1227.378
1226.181
1225.154
1224.369
1223.917
1223.907
1223.476
1222.137
1220.713
1219.091
1216.99
1212.897
1201.337
1233.886
1232.655
1231.393
1230.131
1228.903
1227.744
1226.703
1225.846
1225.271
1225.111
1224.642
1223.384
1222.126
1220.846
1219.479
1217.43
1213.354
1203.189
1234.915
1233.826
1232.697
1231.545
1230.389
1229.253
1228.168
1227.187
1226.408
1226.026
1225.539
1224.327
1223.154
1222.025
1220.935
1219.513
1217.344
1213.837
1205.531
1235.893
1234.949
1233.951
1232.907
1231.82
1230.696
1229.546
1228.391
1227.295
1226.491
1226.09
1224.962
1223.903
1222.908
1221.986
1220.786
1219.129
1217.142
1214.219
1207.985
1225.959
1225.263
1224.49
1223.7
1222.942
1221.854
1220.334
1218.713
1216.875
1214.446
1210.056
1227.249
1226.443
1225.637
1224.848
1224.104
1223.043
1221.577
1220.056
1218.459
1216.72
1214.61
1211.411
1228.589
1227.762
1226.941
1226.141
1225.382
1224.332
1222.91
1221.44
1219.921
1218.341
1216.657
1214.722
1212.212
1229.873
1229.063
1228.253
1227.457
1226.691
1225.658
1224.283
1222.86
1221.391
1219.876
1218.306
1216.64
1214.799
1212.651
1231.092
1230.313
1229.528
1228.749
1227.991
1226.982
1225.659
1224.286
1222.866
1221.401
1219.888
1218.311
1216.652
1214.848
1212.85
1202.032
1226.618
1225.062
1223.413
1221.676
1219.847
1217.917
1215.869
1213.697
1211.507
1209.891
1208.15
1197.902
1227.967
1226.385
1224.742
1223.06
1221.359
1219.656
1217.972
1216.357
1214.969
1214.382
1213.408
1208.619
1195.587
1229.257
1227.679
1226.062
1224.443
1222.859
1221.353
1219.977
1218.803
1217.978
1217.84
1217.223
1214.314
1209.17
1195.98
1230.489
1228.947
1227.378
1225.828
1224.347
1222.989
1221.815
1220.909
1220.38
1220.426
1219.963
1217.979
1215.162
1210.2
1198.528
1231.666
1230.187
1228.688
1227.218
1225.827
1224.573
1223.52
1222.745
1222.341
1222.424
1222.014
1220.472
1218.625
1216.059
1211.715
1200.206
1232.788
1231.398
1229.988
1228.606
1227.298
1226.118
1225.127
1224.397
1224.008
1224.05
1223.633
1222.295
1220.856
1219.191
1216.996
1212.684
1200.491
1233.857
1232.576
1231.272
1229.985
1228.755
1227.627
1226.656
1225.909
1225.465
1225.415
1224.967
1223.719
1222.452
1221.133
1219.683
1217.482
1212.996
1201.607
1234.875
1233.718
1232.532
1231.345
1230.189
1229.097
1228.114
1227.3
1226.742
1226.557
1226.074
1224.871
1223.681
1222.506
1221.332
1219.82
1217.483
1213.447
1203.431
1235.842
1234.82
1233.758
1232.675
1231.587
1230.517
1229.495
1228.567
1227.824
1227.439
1226.946
1225.781
1224.65
1223.562
1222.523
1221.254
1219.555
1217.4
1213.923
1205.734
1236.76
1235.874
1234.937
1233.955
1232.933
1231.876
1230.793
1229.706
1228.672
1227.904
1227.497
1226.414
1225.388
1224.413
1223.497
1222.342
1220.83
1219.18
1217.206
1214.305
1208.137
1227.413
1226.736
1225.979
1225.194
1224.427
1223.355
1221.904
1220.39
1218.778
1216.951
1214.532
1210.153
1228.629
1227.855
1227.073
1226.296
1225.548
1224.504
1223.091
1221.631
1220.117
1218.53
1216.796
1214.678
1211.48
1229.889
1229.1
1228.309
1227.527
1226.773
1225.745
1224.376
1222.959
1221.495
1219.983
1218.409
1216.716
1214.777
1212.261
1231.098
1230.327
1229.55
1228.777
1228.024
1227.018
1225.697
1224.327
1222.909
1221.446
1219.935
1218.356
1216.686
1214.839
1212.682
1232.246
1231.506
1230.756
1230.005
1229.264
1228.286
1227.017
1225.698
1224.329
1222.915
1221.452
1219.931
1218.349
1216.683
1214.872
1202.947
1206.579
1202.939
1228.046
1226.587
1225.044
1223.423
1221.726
1219.955
1218.112
1216.222
1214.4
1213.179
1212.573
1209.152
1200.441
1229.312
1227.827
1226.287
1224.714
1223.132
1221.567
1220.058
1218.675
1217.583
1217.199
1216.654
1214.129
1209.967
1199.342
1230.524
1229.041
1227.523
1226.005
1224.525
1223.127
1221.87
1220.835
1220.156
1220.081
1219.613
1217.721
1215.155
1210.781
1200.424
1231.682
1230.232
1228.757
1227.302
1225.912
1224.64
1223.549
1222.716
1222.246
1222.275
1221.853
1220.322
1218.522
1216.07
1211.969
1201.066
1232.788
1231.398
1229.988
1228.606
1227.298
1226.118
1225.127
1224.397
1224.008
1224.05
1223.633
1222.295
1220.856
1219.191
1216.996
1212.684
1200.491
1233.843
1232.537
1231.211
1229.91
1228.679
1227.567
1226.63
1225.933
1225.549
1225.547
1225.114
1223.871
1222.601
1221.265
1219.775
1217.493
1212.787
1200.774
1234.849
1233.645
1232.419
1231.208
1230.049
1228.986
1228.068
1227.356
1226.919
1226.836
1226.374
1225.183
1223.991
1222.796
1221.578
1220.006
1217.535
1213.096
1201.875
1235.805
1234.719
1233.604
1232.488
1231.399
1230.37
1229.442
1228.67
1228.13
1227.927
1227.437
1226.281
1225.137
1224.013
1222.916
1221.602
1219.857
1217.536
1213.539
1203.671
1236.712
1235.753
1234.756
1233.738
1232.715
1231.708
1230.744
1229.868
1229.16
1228.778
1228.284
1227.166
1226.073
1225.015
1224.001
1222.798
1221.289
1219.597
1217.456
1214.01
1205.924
1237.573
1236.743
1235.864
1234.941
1233.98
1232.986
1231.967
1230.943
1229.968
1229.237
1228.831
1227.794
1226.802
1225.848
1224.94
1223.813
1222.381
1220.875
1219.232
1217.27
1214.386
1208.26
1228.781
1228.127
1227.39
1226.617
1225.848
1224.795
1223.399
1221.953
1220.447
1218.843
1217.022
1214.597
1210.232
1229.927
1229.187
1228.432
1227.673
1226.929
1225.906
1224.546
1223.139
1221.685
1220.179
1218.596
1216.853
1214.731
1211.533
1231.113
1230.362
1229.603
1228.844
1228.101
1227.1
1225.784
1224.419
1223.007
1221.55
1220.042
1218.459
1216.761
1214.816
1212.293
1232.252
1231.52
1230.777
1230.032
1229.296
1228.32
1227.053
1225.736
1224.37
1222.958
1221.498
1219.978
1218.394
1216.717
1214.862
1233.333
1232.632
1231.918
1231.196
1230.477
1229.533
1228.318
1227.052
1225.736
1224.373
1222.96
1221.489
1219.962
1218.374
1216.701
1203.273
1206.463
1204.431
1209.776
1208.343
1204.4
1229.387
1228.016
1226.569
1225.052
1223.469
1221.824
1220.128
1218.413
1216.791
1215.724
1215.403
1213.357
1210.377
1203.105
1230.575
1229.18
1227.734
1226.26
1224.779
1223.322
1221.929
1220.675
1219.709
1219.373
1218.932
1217.162
1214.947
1211.39
1203.011
1231.714
1230.321
1228.894
1227.468
1226.079
1224.77
1223.597
1222.639
1222.019
1221.926
1221.487
1219.978
1218.268
1216.033
1212.402
1202.703
1232.803
1231.44
1230.053
1228.685
1227.378
1226.181
1225.154
1224.369
1223.917
1223.907
1223.476
1222.137
1220.713
1219.091
1216.99
1212.897
1201.337
1233.843
1232.537
1231.211
1229.91
1228.679
1227.567
1226.63
1225.933
1225.549
1225.547
1225.114
1223.871
1222.601
1221.265
1219.775
1217.493
1212.787
1200.774
1234.835
1233.608
1232.361
1231.137
1229.978
1228.929
1228.042
1227.377
1226.996
1226.958
1226.51
1225.325
1224.134
1222.932
1221.695
1220.091
1217.547
1212.891
1201.056
1235.78
1234.65
1233.497
1232.358
1231.268
1230.266
1229.398
1228.719
1228.293
1228.184
1227.714
1226.569
1225.425
1224.29
1223.165
1221.825
1220.041
1217.588
1213.195
1202.142
1236.677
1235.659
1234.612
1233.563
1232.539
1231.57
1230.694
1229.962
1229.442
1229.229
1228.739
1227.627
1226.522
1225.434
1224.373
1223.145
1221.632
1219.894
1217.589
1213.632
1203.896
1237.527
1236.63
1235.694
1234.738
1233.777
1232.829
1231.921
1231.094
1230.422
1230.047
1229.56
1228.487
1227.432
1226.403
1225.408
1224.244
1222.828
1221.323
1219.639
1217.512
1214.091
1206.082
1238.333
1237.557
1236.733
1235.868
1234.965
1234.03
1233.072
1232.108
1231.189
1230.494
1230.095
1229.104
1228.148
1227.22
1226.323
1225.222
1223.847
1222.419
1220.919
1219.284
1217.329
1214.446
1208.365
1230.069
1229.441
1228.727
1227.972
1227.209
1226.179
1224.834
1223.443
1222.003
1220.503
1218.903
1217.074
1214.647
1210.295
1231.149
1230.444
1229.719
1228.982
1228.248
1227.252
1225.945
1224.589
1223.187
1221.739
1220.236
1218.644
1216.896
1214.769
1211.568
1232.266
1231.553
1230.827
1230.095
1229.369
1228.398
1227.136
1225.823
1224.463
1223.056
1221.601
1220.085
1218.496
1216.792
1214.838
1233.338
1232.645
1231.937
1231.222
1230.507
1229.566
1228.352
1227.088
1225.775
1224.413
1223.003
1221.535
1220.009
1218.419
1216.734
1234.356
1233.695
1233.017
1232.326
1231.632
1230.724
1229.562
1228.35
1227.087
1225.775
1224.413
1222.992
1221.515
1219.981
1218.385
1203.44
1206.466
1205.002
1209.484
1208.188
1206.054
1212.481
1211.553
1210.001
1206.218
1230.645
1229.358
1227.999
1226.576
1225.094
1223.557
1221.98
1220.393
1218.901
1217.909
1217.635
1216.058
1214.306
1211.737
1205.858
1231.762
1230.451
1229.092
1227.707
1226.318
1224.953
1223.652
1222.484
1221.585
1221.243
1220.812
1219.335
1217.759
1215.837
1212.867
1204.919
1232.833
1231.524
1230.182
1228.841
1227.535
1226.304
1225.201
1224.299
1223.704
1223.578
1223.127
1221.784
1220.392
1218.856
1216.94
1213.262
1202.946
1233.857
1232.576
1231.272
1229.985
1228.755
1227.627
1226.656
1225.909
1225.465
1225.415
1224.967
1223.719
1222.452
1221.133
1219.683
1217.482
1212.996
1201.607
1234.835
1233.608
1232.361
1231.137
1229.978
1228.929
1228.042
1227.377
1226.996
1226.958
1226.51
1225.325
1224.134
1222.932
1221.695
1220.091
1217.547
1212.891
1201.056
1235.767
1234.615
1233.444
1232.292
1231.201
1230.212
1229.373
1228.738
1228.363
1228.297
1227.84
1226.701
1225.559
1224.42
1223.284
1221.932
1220.126
1217.601
1212.995
1201.337
1236.653
1235.594
1234.512
1233.441
1232.416
1231.472
1230.652
1230.007
1229.593
1229.467
1228.996
1227.894
1226.789
1225.693
1224.612
1223.371
1221.852
1220.076
1217.641
1213.294
1202.391
1237.495
1236.541
1235.559
1234.574
1233.612
1232.7
1231.874
1231.181
1230.684
1230.467
1229.982
1228.914
1227.847
1226.792
1225.757
1224.575
1223.17
1221.661
1219.932
1217.643
1213.719
1204.085
1238.291
1237.451
1236.575
1235.678
1234.775
1233.885
1233.031
1232.251
1231.614
1231.251
1230.774
1229.746
1228.731
1227.733
1226.759
1225.626
1224.27
1222.858
1221.358
1219.682
1217.564
1214.151
1206.221
1239.043
1238.319
1237.549
1236.738
1235.891
1235.013
1234.112
1233.205
1232.339
1231.682
1231.294
1230.348
1229.43
1228.53
1227.651
1226.578
1225.253
1223.881
1222.458
1220.963
1219.333
1217.371
1214.489
1208.452
1231.283
1230.682
1229.995
1229.261
1228.511
1227.509
1226.214
1224.874
1223.487
1222.052
1220.555
1218.946
1217.112
1214.68
1210.339
1232.3
1231.631
1230.937
1230.225
1229.508
1228.542
1227.287
1225.983
1224.632
1223.235
1221.789
1220.277
1218.679
1216.924
1214.79
1233.352
1232.677
1231.985
1231.282
1230.577
1229.64
1228.43
1227.171
1225.862
1224.506
1223.101
1221.638
1220.115
1218.52
1216.808
1234.362
1233.707
1233.035
1232.351
1231.661
1230.755
1229.595
1228.384
1227.123
1225.814
1224.454
1223.035
1221.56
1220.028
1218.43
1235.319
1234.697
1234.055
1233.398
1232.731
1231.86
1230.751
1229.591
1228.381
1227.122
1225.811
1224.441
1223.013
1221.529
1219.988
1203.515
1206.48
1205.267
1209.424
1208.174
1206.774
1212.161
1211.093
1209.889
1207.818
1214.889
1214.111
1213.113
1211.618
1208.266
1231.828
1230.618
1229.341
1228.005
1226.614
1225.175
1223.699
1222.219
1220.826
1219.88
1219.585
1218.201
1216.848
1215.343
1213.177
1207.343
1232.879
1231.646
1230.368
1229.066
1227.761
1226.478
1225.255
1224.157
1223.303
1222.945
1222.494
1221.152
1219.817
1218.42
1216.776
1213.664
1205.123
1233.886
1232.655
1231.393
1230.131
1228.903
1227.744
1226.703
1225.846
1225.271
1225.111
1224.642
1223.384
1222.126
1220.846
1219.479
1217.43
1213.354
1203.189
1234.849
1233.645
1232.419
1231.208
1230.049
1228.986
1228.068
1227.356
1226.919
1226.836
1226.374
1225.183
1223.991
1222.796
1221.578
1220.006
1217.535
1213.096
1201.875
1235.767
1234.615
1233.444
1232.292
1231.201
1230.212
1229.373
1228.738
1228.363
1228.297
1227.84
1226.701
1225.559
1224.42
1223.284
1221.932
1220.126
1217.601
1212.995
1201.337
1236.642
1235.562
1234.462
1233.38
1232.353
1231.421
1230.628
1230.024
1229.657
1229.572
1229.113
1228.016
1226.914
1225.815
1224.727
1223.481
1221.958
1220.16
1217.654
1213.098
1201.598
1237.473
1236.481
1235.466
1234.461
1233.497
1232.608
1231.835
1231.223
1230.824
1230.688
1230.222
1229.162
1228.096
1227.033
1225.981
1224.792
1223.393
1221.879
1220.111
1217.694
1213.387
1202.603
1238.26
1237.369
1236.449
1235.526
1234.622
1233.765
1232.987
1232.333
1231.86
1231.643
1231.168
1230.144
1229.117
1228.094
1227.085
1225.938
1224.597
1223.195
1221.691
1219.969
1217.693
1213.784
1204.254
1239.003
1238.221
1237.402
1236.561
1235.715
1234.878
1234.075
1233.341
1232.74
1232.391
1231.929
1230.947
1229.972
1229.007
1228.058
1226.956
1225.65
1224.297
1222.888
1221.393
1219.722
1217.599
1214.195
1206.34
1239.704
1239.031
1238.312
1237.554
1236.76
1235.937
1235.091
1234.238
1233.423
1232.803
1232.43
1231.529
1230.65
1229.781
1228.924
1227.882
1226.605
1225.283
1223.915
1222.496
1221.004
1219.365
1217.398
1214.517
1208.519
1232.426
1231.855
1231.196
1230.488
1229.756
1228.784
1227.541
1226.25
1224.913
1223.53
1222.098
1220.592
1218.976
1217.135
1214.697
1233.384
1232.752
1232.09
1231.405
1230.709
1229.776
1228.574
1227.321
1226.021
1224.674
1223.279
1221.824
1220.306
1218.701
1216.938
1234.375
1233.738
1233.081
1232.409
1231.728
1230.826
1229.669
1228.462
1227.206
1225.901
1224.546
1223.133
1221.663
1220.133
1218.53
1235.324
1234.709
1234.073
1233.421
1232.759
1231.89
1230.782
1229.624
1228.416
1227.158
1225.85
1224.482
1223.056
1221.574
1220.034
1236.225
1235.642
1235.036
1234.412
1233.775
1232.943
1231.885
1230.777
1229.62
1228.413
1227.155
1225.836
1224.458
1223.024
1221.532
1206.488
1205.377
1209.404
1208.184
1207.112
1212.086
1210.958
1209.878
1208.601
1214.583
1213.597
1212.648
1211.574
1209.706
1217.086
1216.349
1215.509
1214.555
1213.226
1209.425
1232.941
1231.803
1230.602
1229.346
1228.04
1226.688
1225.305
1223.917
1222.609
1221.7
1221.369
1220.081
1218.88
1217.706
1216.429
1213.964
1207.503
1233.929
1232.77
1231.568
1230.343
1229.115
1227.908
1226.757
1225.72
1224.905
1224.531
1224.06
1222.793
1221.563
1220.356
1219.125
1217.289
1213.75
1205.327
1234.875
1233.718
1232.532
1231.345
1230.189
1229.097
1228.114
1227.3
1226.742
1226.557
1226.074
1224.871
1223.681
1222.506
1221.332
1219.82
1217.483
1213.447
1203.431
1235.78
1234.65
1233.497
1232.358
1231.268
1230.266
1229.398
1228.719
1228.293
1228.184
1227.714
1226.569
1225.425
1224.29
1223.165
1221.825
1220.041
1217.588
1213.195
1202.142
1236.642
1235.562
1234.462
1233.38
1232.353
1231.421
1230.628
1230.024
1229.657
1229.572
1229.113
1228.016
1226.914
1225.815
1224.727
1223.481
1221.958
1220.16
1217.654
1213.098
1201.598
1237.462
1236.451
1235.419
1234.403
1233.438
1232.561
1231.813
1231.239
1230.884
1230.786
1230.331
1229.276
1228.212
1227.147
1226.091
1224.899
1223.502
1221.984
1220.195
1217.708
1213.194
1201.821
1238.24
1237.313
1236.363
1235.42
1234.514
1233.679
1232.951
1232.373
1231.991
1231.851
1231.393
1230.376
1229.349
1228.319
1227.296
1226.144
1224.812
1223.416
1221.906
1220.146
1217.744
1213.457
1202.794
1238.975
1238.144
1237.284
1236.419