/*--------------------------------*- C++ -*----------------------------------*\
| =========                 |                                                 |
| \\      /  F ield         | OpenFOAM: The Open Source CFD Toolbox           |
|  \\    /   O peration     | Version:  2306                                  |
|   \\  /    A nd           | Website:  www.openfoam.com                      |
|    \\/     M anipulation  |                                                 |
\*---------------------------------------------------------------------------*/
FoamFile
{
    version     2.0;
    format      ascii;
    arch        "LSB;label=32;scalar=64";
    class       volVectorField;
    location    "1.2/air";
    object      U;
}
// * * * * * * * * * * * * * * * * * * * * * * * * * * * * * * * * * * * * * //

dimensions      [0 1 -1 0 0 0 0];

internalField   nonuniform List<vector> 
16000
(
(0.3898111 0.05803216 -0.05813676)
(0.6923671 0.1097791 -0.0897158)
(0.4177197 0.00432456 -0.004184048)
(0.692585 0.0893296 -0.111113)
(0.8280869 0.09405306 -0.08985382)
(0.8200841 0.01057021 -0.007741207)
(1.381887 0.1846762 -0.1882966)
(0.3119935 -0.001464005 0.001478839)
(0.8202944 0.007880762 -0.01014899)
(0.8288549 0.08922232 -0.09771356)
(0.891081 0.0587652 -0.08755793)
(1.038483 0.01097787 -0.007969792)
(1.738596 0.1730141 -0.2071163)
(0.6435967 -0.002035856 0.002491877)
(1.805623 0.02044039 -0.02020276)
(1.739959 0.2016612 -0.1820641)
(0.3577323 0.000922766 -0.0009159601)
(0.6438355 -0.002491227 0.002029281)
(1.039464 0.008068304 -0.01049533)
(0.8928356 0.08669672 -0.06560015)
(0.916296 0.01983208 -0.08623206)
(1.156579 0.007510294 -0.007497426)
(1.914513 0.1145333 -0.2082891)
(0.8393782 -0.001904561 0.002763795)
(2.389329 0.02448346 -0.025157)
(2.212198 0.2014775 -0.2148755)
(0.7294936 0.001536774 -0.001641219)
(1.477857 -0.003722281 0.003579657)
(2.391243 0.02486786 -0.0247426)
(1.918769 0.2012536 -0.1306707)
(0.3321497 -0.0004707179 0.0004811852)
(0.7297188 0.001611906 -0.00163921)
(0.8405446 -0.002786917 0.001780958)
(1.159279 0.007510851 -0.007249324)
(0.9197315 0.08503984 -0.03053577)
(0.916296 -0.01983208 -0.08623206)
(1.208866 0.002631117 -0.007171145)
(1.986882 0.03961234 -0.206202)
(0.9533932 -0.001160094 0.002845115)
(2.718529 0.01844075 -0.02639564)
(2.452433 0.1381305 -0.2210519)
(0.9460606 0.001480011 -0.001790672)
(2.014221 -0.003608971 0.004529856)
(3.262961 0.02778061 -0.02899903)
(2.456284 0.2044024 -0.161333)
(0.6825351 -0.000838803 0.0008162436)
(1.658261 0.002577991 -0.002962584)
(2.016491 -0.004862541 0.003152069)
(2.725251 0.02543762 -0.01969399)
(1.996268 0.1974293 -0.06375699)
(0.3466214 0.0003169116 -0.0003064996)
(0.6827521 -0.0008382896 0.0007626696)
(0.9472014 0.001726094 -0.001847951)
(0.9566042 -0.002905549 0.0008009452)
(1.214723 0.007041578 -0.002964019)
(0.9226135 0.08450472 0.004426665)
(0.0003686077 -0.001277969 -0.0006153288)
(0.891081 -0.0587652 -0.08755793)
(1.208866 -0.002631117 -0.007171145)
(1.986882 -0.03961234 -0.206202)
(1.006325 -0.0003821689 0.002896787)
(2.866436 0.006758786 -0.02636557)
(2.551895 0.04865259 -0.2200815)
(1.070513 0.0009436115 -0.001790857)
(2.335825 -0.002269563 0.005227694)
(3.766278 0.02184328 -0.03152884)
(2.73274 0.142125 -0.1699191)
(0.8894179 -0.0008365556 0.0008686532)
(2.246024 0.00255692 -0.003300656)
(2.806736 -0.005148539 0.004341871)
(3.773156 0.02911012 -0.02449355)
(2.56297 0.2005436 -0.08210409)
(0.7094488 0.0005243513 -0.000574265)
(1.562819 -0.00160285 0.001271749)
(2.248308 0.002661281 -0.003576873)
(2.34365 -0.005831471 0.001312572)
(2.882259 0.02457499 -0.009534404)
(2.005014 0.1952804 0.006952158)
(0.3382539 -0.000131323 0.0001423872)
(0.7096695 0.0005496345 -0.0006080764)
(0.890518 -0.0009243707 0.0005297702)
(1.073706 0.001689721 -0.001716153)
(1.013128 -0.003029042 -0.0003995405)
(1.219988 0.006804075 0.001210772)
(0.9024196 0.08506581 0.03785089)
(0.0003831635 -0.003699274 -0.0006359713)
(0.000385903 -0.001136814 -0.0005627633)
(0.0003709576 -0.001280732 -0.001195608)
(0.8280869 -0.09405306 -0.08985383)
(1.156579 -0.007510294 -0.007497426)
(1.914513 -0.1145333 -0.2082891)
(1.006325 0.0003821689 0.002896787)
(2.866436 -0.006758786 -0.02636557)
(2.551895 -0.04865259 -0.2200815)
(1.127949 0.0003172796 -0.001780014)
(2.48674 -0.0007526476 0.005637649)
(3.995309 0.008136707 -0.03222602)
(2.84729 0.05051163 -0.1707427)
(1.009524 -0.0005609023 0.0008702043)
(2.595036 0.001681572 -0.00326364)
(3.291292 -0.003360812 0.00531468)
(4.388553 0.02326827 -0.0274757)
(2.855394 0.1397574 -0.08904007)
(0.9222441 0.0005128193 -0.0006507521)
(2.126483 -0.001710911 0.001410073)
(3.109221 0.002604393 -0.004117127)
(3.298941 -0.006548875 0.001973107)
(4.016217 0.02854326 -0.01255711)
(2.575424 0.1977222 0.005658383)
(0.6939667 -0.000236045 0.0002175958)
(1.618322 0.000850141 -0.001206974)
(2.128689 -0.001982692 0.0008067444)
(2.602973 0.002377933 -0.003557941)
(2.504662 -0.006678974 -0.0009589009)
(2.897538 0.02356245 0.002004859)
(1.947444 0.1950597 0.07390098)
(0.3426257 0.0001225324 -0.0001123469)
(0.6941853 -0.0002377238 0.0001675597)
(0.9233594 0.0005905333 -0.0008429578)
(1.012603 -0.0009606041 -0.0001051349)
(1.134782 0.00161904 -0.001657029)
(1.018678 -0.003176053 -0.001923243)
(1.176074 0.006742065 0.004416216)
(0.8485006 0.0868616 0.06752161)
(0.0004095299 -0.006671634 -0.0006828014)
(0.0004076951 -0.003291586 -0.0005795329)
(0.0003855328 -0.003713579 -0.001244968)
(0.0002753566 -0.001064357 -0.0005189532)
(0.0003864988 -0.001139958 -0.001093198)
(0.0003683478 -0.00127333 -0.003268046)
(0.6923671 -0.1097791 -0.0897158)
(1.038483 -0.01097787 -0.007969792)
(1.738596 -0.1730141 -0.2071163)
(0.9533932 0.001160094 0.002845115)
(2.718529 -0.01844075 -0.02639564)
(2.452433 -0.1381305 -0.2210519)
(1.127949 -0.0003172796 -0.001780014)
(2.48674 0.0007526474 0.005637649)
(3.995309 -0.008136707 -0.03222602)
(2.84729 -0.05051163 -0.1707427)
(1.065298 -0.0001951113 0.0008710439)
(2.758144 0.0005734516 -0.003174558)
(3.520986 -0.001134417 0.005905852)
(4.670895 0.008717488 -0.02856266)
(2.976281 0.04979655 -0.09079726)
(1.045196 0.0003316826 -0.0006689038)
(2.464292 -0.001211019 0.001464256)
(3.632554 0.001693109 -0.004107158)
(3.89321 -0.00444082 0.002659938)
(4.687583 0.02300215 -0.01472889)
(2.869546 0.1374797 0.003165124)
(0.903446 -0.0002294006 0.0002113926)
(2.196863 0.0008509658 -0.001466309)
(2.956989 -0.002216852 0.0008376489)
(3.640362 0.002192224 -0.004247748)
(3.543617 -0.007762843 -0.0009576848)
(4.040186 0.0273632 0.001841972)
(2.497003 0.1966697 0.08815432)
(0.702024 0.00020281 -0.0002301896)
(1.586571 -0.0004894597 0.0001767517)
(2.199095 0.0008540004 -0.001820668)
(2.471957 -0.002267445 -0.000472676)
(2.776376 0.001954241 -0.003518515)
(2.520372 -0.007392019 -0.00361265)
(2.773719 0.02241049 0.01151612)
(1.796498 0.1925726 0.1274322)
(0.3398326 -2.756844e-05 3.748761e-05)
(0.7022435 0.0002095119 -0.00027298)
(0.9045486 -0.0002642727 -5.709065e-05)
(1.048314 0.0005736482 -0.001040029)
(1.071887 -0.001016542 -0.0009763547)
(1.14052 0.001496396 -0.00186448)
(0.9738639 -0.003413552 -0.003982512)
(1.071184 0.006819098 0.005875653)
(0.7304341 0.0879128 0.07494007)
(0.0004579762 -0.008750549 -0.001047218)
(0.0004474067 -0.005912809 -0.0006180394)
(0.0004119026 -0.006580389 -0.001343475)
(0.0002905794 -0.003081608 -0.000533985)
(0.0004083026 -0.003306442 -0.001133871)
(0.0003827405 -0.003680014 -0.003340633)
(0.0004169466 -0.0009871098 -0.0004840218)
(0.000275422 -0.001067713 -0.001008274)
(0.00038263 -0.001134201 -0.002989933)
(0.0003599387 -0.001245508 -0.001117174)
(0.3898111 -0.05803216 -0.05813676)
(0.8200841 -0.01057021 -0.007741207)
(1.381887 -0.1846762 -0.1882966)
(0.8393782 0.001904561 0.002763795)
(2.389329 -0.02448346 -0.025157)
(2.212198 -0.2014775 -0.2148755)
(1.070513 -0.0009436115 -0.001790857)
(2.335825 0.002269563 0.005227694)
(3.766278 -0.02184328 -0.03152884)
(2.73274 -0.142125 -0.1699191)
(1.065298 0.0001951113 0.0008710439)
(2.758144 -0.0005734515 -0.003174558)
(3.520986 0.001134417 0.005905852)
(4.670895 -0.008717487 -0.02856266)
(2.976281 -0.04979655 -0.09079726)
(1.102143 0.0001123406 -0.0006742155)
(2.623065 -0.0004316148 0.001492095)
(3.879857 0.0005735535 -0.003992041)
(4.1769 -0.001530309 0.003119544)
(4.996895 0.008645379 -0.01575605)
(2.990769 0.04893502 0.001574763)
(1.024848 -0.0001520453 0.0001994859)
(2.542105 0.0005604515 -0.00155722)
(3.464908 -0.001625023 0.0008585172)
(4.280531 0.001345936 -0.004323463)
(4.194516 -0.005418357 -0.0006881016)
(4.717568 0.02212834 0.00113849)
(2.778599 0.1360809 0.08976821)
(0.9132055 0.0002034494 -0.0002757669)
(2.156794 -0.0005179637 0.0001036601)
(3.047771 0.0008346822 -0.002312739)
(3.472454 -0.002622857 -0.0007248932)
(3.902916 0.001614648 -0.004272712)
(3.567352 -0.008676399 -0.004136548)
(3.8486 0.02577296 0.01404361)
(2.291699 0.1914382 0.1501883)
(0.696834 -5.827204e-05 3.633421e-05)
(1.603012 0.0002992957 -0.0006105035)
(2.159 -0.0006511958 -0.0003438797)
(2.549857 0.000709638 -0.002355773)
(2.640688 -0.002598106 -0.002217463)
(2.792678 0.001409374 -0.003723398)
(2.392335 -0.008088223 -0.006781672)
(2.481261 0.01993678 0.01598129)
(1.481711 0.176657 0.1349169)
(0.3411355 5.656252e-05 -4.790344e-05)
(0.6970527 -5.500198e-05 -5.203328e-06)
(0.9143102 0.0002231291 -0.0004896431)
(1.027928 -0.00028537 -0.0004752016)
(1.10881 0.0005257698 -0.001339885)
(1.077384 -0.001130087 -0.002118504)
(1.091654 0.00125337 -0.002504998)
(0.8713998 -0.003698027 -0.006585328)
(0.8746179 0.006764425 0.00168725)
(0.4669986 0.06056767 -0.0004257369)
(0.0005100061 -0.01741108 -0.001393727)
(0.0005200044 -0.007752516 -0.0009289914)
(0.0004589661 -0.008563458 -0.002015992)
(0.0003184099 -0.005529267 -0.0005687008)
(0.000447992 -0.00583806 -0.001215201)
(0.0004087447 -0.006433933 -0.003481305)
(0.0004308548 -0.002857649 -0.0004976557)
(0.0002906853 -0.003096635 -0.001045042)
(0.0004041672 -0.003278683 -0.003046923)
(0.0003738953 -0.003624232 -0.001157351)
(0.0004049712 -0.0009310056 -0.0004550714)
(0.0004192783 -0.0009904362 -0.0009403909)
(0.0002723353 -0.001062643 -0.002757627)
(0.0003657471 -0.001111677 -0.001021484)
(0.0003601811 -0.001246497 -0.01116804)
(0.4177197 -0.00432456 -0.004184048)
(0.692585 -0.0893296 -0.111113)
(0.6435967 0.002035856 0.002491876)
(1.805623 -0.02044039 -0.02020276)
(1.739959 -0.2016612 -0.1820641)
(0.9460606 -0.001480011 -0.001790672)
(2.014221 0.003608971 0.004529856)
(3.262961 -0.02778061 -0.02899903)
(2.456284 -0.2044024 -0.161333)
(1.009524 0.0005609023 0.0008702044)
(2.595036 -0.001681572 -0.00326364)
(3.291292 0.003360812 0.00531468)
(4.388553 -0.02326827 -0.0274757)
(2.855394 -0.1397574 -0.08904007)
(1.102143 -0.0001123405 -0.0006742155)
(2.623065 0.0004316146 0.001492095)
(3.879857 -0.0005735535 -0.003992041)
(4.1769 0.001530309 0.003119544)
(4.996895 -0.008645379 -0.01575605)
(2.990769 -0.04893502 0.001574763)
(1.081177 -5.280704e-05 0.0001944054)
(2.703998 0.0001909131 -0.00158015)
(3.706216 -0.0005891847 0.000884205)
(4.585409 0.0004406066 -0.004240421)
(4.50633 -0.001898096 -0.0004557309)
(5.030025 0.008336266 0.0004173108)
(2.89379 0.04825783 0.08854832)
(1.035399 0.0001333692 -0.000292151)
(2.497999 -0.0003670504 5.041764e-05)
(3.566094 0.0005338335 -0.002511157)
(4.095111 -0.001971778 -0.0008038256)
(4.603278 0.0008729063 -0.004414963)
(4.223637 -0.006150048 -0.004174208)
(4.482934 0.0209085 0.01479158)
(2.539838 0.1309787 0.1532057)
(0.9068862 -5.579278e-05 1.65975e-05)
(2.177473 0.0003024437 -0.0007981008)
(2.99632 -0.0007324013 -0.00059733)
(3.573724 0.0006303874 -0.003052449)
(3.728553 -0.003068948 -0.002813854)
(3.927508 0.0009620114 -0.004369549)
(3.372145 -0.009311464 -0.00750528)
(3.40027 0.02287819 0.0199259)
(1.876757 0.1668585 0.1528077)
(0.6991126 9.42121e-05 -0.0001136856)
(1.592317 -0.0001638923 -0.000123259)
(2.17968 0.000257624 -0.001155229)
(2.505657 -0.0008183322 -0.001242511)
(2.721799 0.0004390147 -0.002987598)
(2.656339 -0.00309219 -0.004287371)
(2.653732 0.0006143017 -0.004281383)
(2.10238 -0.008874081 -0.01018971)
(1.953378 0.01409459 0.01032546)
(0.8660772 0.1165948 0.02532403)
(0.3398756 1.219698e-05 -2.781126e-06)
(0.6993303 9.423712e-05 -0.0001602417)
(0.907985 -6.516508e-05 -0.0002077301)
(1.038483 0.0002077262 -0.0007545323)
(1.087761 -0.0003306107 -0.001048846)
(1.114401 0.0004188418 -0.0018624)
(1.029776 -0.001365745 -0.003625001)
(0.9797394 0.0009395109 -0.0036127)
(0.6928857 -0.003610443 -0.01071079)
(0.5137614 -0.001035866 -0.02552007)
(0.002333165 -0.01276481 -0.01128533)
(0.0005969376 -0.01524599 -0.00124617)
(0.0005081536 -0.01365937 -0.002646249)
(0.0003677432 -0.007245774 -0.0008561107)
(0.0005183171 -0.007593826 -0.001789098)
(0.0004540629 -0.008324497 -0.004118845)
(0.0004556488 -0.005125004 -0.0005291956)
(0.0003185595 -0.005461743 -0.001118564)
(0.0004433192 -0.005713422 -0.003156288)
(0.0003990212 -0.006258149 -0.0012415)
(0.0004164475 -0.002695232 -0.0004677024)
(0.0004332462 -0.002872258 -0.0009738797)
(0.0002874445 -0.003071723 -0.002807602)
(0.0003866268 -0.003236602 -0.001054158)
(0.0003741193 -0.003588956 -0.01128651)
(0.0004642033 -0.0008781992 -0.0004302862)
(0.0004076009 -0.0009343204 -0.0008842432)
(0.0004166804 -0.0009859703 -0.00257207)
(0.0002585778 -0.001042852 -0.0009423422)
(0.0003717796 -0.001111767 -0.01022547)
(3.744553e-05 -0.0001357359 -0.004269026)
(0.3119935 0.001464005 0.001478839)
(0.8202944 -0.007880762 -0.01014899)
(0.8288549 -0.08922232 -0.09771356)
(0.7294936 -0.001536774 -0.001641219)
(1.477857 0.003722281 0.003579657)
(2.391243 -0.02486786 -0.0247426)
(1.918769 -0.2012536 -0.1306707)
(0.8894179 0.0008365557 0.0008686532)
(2.246024 -0.00255692 -0.003300656)
(2.806736 0.005148539 0.004341871)
(3.773156 -0.02911012 -0.02449355)
(2.56297 -0.2005436 -0.08210409)
(1.045196 -0.0003316826 -0.0006689038)
(2.464292 0.001211019 0.001464256)
(3.632554 -0.001693109 -0.004107158)
(3.89321 0.00444082 0.002659938)
(4.687583 -0.02300215 -0.01472889)
(2.869546 -0.1374797 0.003165124)
(1.081177 5.280709e-05 0.0001944054)
(2.703998 -0.000190913 -0.00158015)
(3.706216 0.0005891848 0.0008842049)
(4.585409 -0.0004406066 -0.004240421)
(4.50633 0.001898096 -0.0004557309)
(5.030025 -0.008336266 0.0004173108)
(2.89379 -0.04825783 0.08854832)
(1.092045 4.532723e-05 -0.000298155)
(2.658258 -0.0001312405 2.767691e-05)
(3.811836 0.0001783947 -0.002570621)
(4.393187 -0.0007237172 -0.0008029715)
(4.938154 0.0002613395 -0.00437374)
(4.538086 -0.002175482 -0.004118552)
(4.775457 0.007906049 0.01432636)
(2.638237 0.04610764 0.1518903)
(1.028546 -3.842616e-05 3.971283e-06)
(2.520718 0.0001984454 -0.0008857913)
(3.509015 -0.0005431351 -0.0007421022)
(4.208474 0.0003601345 -0.003342496)
(4.410559 -0.002339067 -0.002995016)
(4.633382 0.0003788239 -0.004456562)
(3.982736 -0.006599917 -0.007589053)
(3.93803 0.01862665 0.02154767)
(2.059386 0.1122273 0.1554533)
(0.9095198 9.808621e-05 -0.0001468706)
(2.163933 -0.0001800221 -0.0002345551)
(3.022736 0.0002401009 -0.00155015)
(3.516553 -0.0009649969 -0.001732242)
(3.834368 0.000275372 -0.003809878)
(3.752212 -0.003651897 -0.005104392)
(3.716523 0.0001873906 -0.00450259)
(2.934254 -0.009679861 -0.01049265)
(2.604452 0.01881682 0.01729344)
(1.052735 0.1038713 0.03575067)
(0.69687 2.304919e-05 -3.336844e-05)
(1.596628 0.0001131926 -0.0003981683)
(2.166127 -0.0002671028 -0.0006101856)
(2.528382 0.0001323604 -0.001785163)
(2.675847 -0.001072635 -0.002393041)
(2.737704 -2.45246e-05 -0.003815181)
(2.520654 -0.003884503 -0.006553251)
(2.338962 -0.0005566201 -0.005098076)
(1.60972 -0.00915733 -0.01329112)
(1.052208 0.005732507 -0.01584354)
(0.00372455 0.0005627085 -0.007833732)
(0.3400905 2.847831e-05 -1.99531e-05)
(0.6970884 1.646279e-05 -8.079469e-05)
(0.9106118 9.857886e-05 -0.0003614881)
(1.031613 -8.26409e-05 -0.0005374618)
(1.098636 0.0001656565 -0.001129153)
(1.093271 -0.0004321836 -0.001846246)
(1.065805 0.000190995 -0.002744916)
(0.9215094 -0.001667335 -0.00543776)
(0.7825792 0.0008207101 -0.00675606)
(0.3911522 -0.00752428 -0.02701029)
(0.002658958 -0.01142922 -0.009778927)
(0.000632741 -0.01050861 -0.01545736)
(0.0004215664 -0.01421095 -0.001151289)
(0.0005915436 -0.01201557 -0.002331329)
(0.0005016255 -0.01224814 -0.004736147)
(0.0004992392 -0.006712556 -0.0007943276)
(0.0003666094 -0.00710056 -0.001648845)
(0.0005110915 -0.007388158 -0.003686358)
(0.0004418798 -0.008049301 -0.001682156)
(0.00043666 -0.004831607 -0.000497009)
(0.0004581093 -0.005063673 -0.001040763)
(0.0003150008 -0.005347361 -0.002903214)
(0.0004244884 -0.005572395 -0.001122888)
(0.0003992378 -0.006151707 -0.01150602)
(0.0004745543 -0.002542265 -0.0004420525)
(0.0004191333 -0.002709511 -0.0009153809)
(0.0004305257 -0.002849815 -0.002616847)
(0.0002733353 -0.003035873 -0.0009717423)
(0.0003926523 -0.003201612 -0.01030765)
(3.884993e-05 -0.0003893243 -0.00430711)
(0.0004696762 -0.0008347827 -0.0004085877)
(0.0004678478 -0.0008814463 -0.0008361029)
(0.0004054204 -0.0009302666 -0.002418485)
(0.0004054044 -0.0009681829 -0.0008789344)
(0.0002640178 -0.001042259 -0.009432473)
(3.671569e-05 -0.0001216639 -0.003908788)
(3.341155e-05 -0.0001222799 -0.005058072)
(0.3577323 -0.000922766 -0.0009159602)
(0.6438355 0.002491227 0.002029281)
(1.039464 -0.008068304 -0.01049533)
(0.8928356 -0.08669672 -0.06560015)
(0.6825351 0.000838803 0.0008162436)
(1.658261 -0.002577991 -0.002962584)
(2.016491 0.004862541 0.003152069)
(2.725251 -0.02543762 -0.01969399)
(1.996268 -0.1974293 -0.06375699)
(0.9222441 -0.0005128193 -0.0006507521)
(2.126483 0.001710911 0.001410073)
(3.109221 -0.002604393 -0.004117127)
(3.298941 0.006548875 0.001973107)
(4.016217 -0.02854326 -0.01255711)
(2.575424 -0.1977222 0.005658383)
(1.024848 0.0001520453 0.000199486)
(2.542105 -0.0005604515 -0.00155722)
(3.464908 0.001625023 0.0008585172)
(4.280531 -0.001345936 -0.004323463)
(4.194516 0.005418357 -0.0006881015)
(4.717568 -0.02212834 0.00113849)
(2.778599 -0.1360809 0.08976821)
(1.092045 -4.532722e-05 -0.000298155)
(2.658258 0.0001312405 2.767678e-05)
(3.811836 -0.0001783945 -0.002570621)
(4.393187 0.0007237173 -0.0008029715)
(4.938154 -0.0002613395 -0.00437374)
(4.538086 0.002175482 -0.004118552)
(4.775457 -0.007906049 0.01432636)
(2.638237 -0.04610764 0.1518903)
(1.084978 -1.38726e-05 -1.121223e-06)
(2.681807 6.714019e-05 -0.0009176873)
(3.752451 -0.000198402 -0.0007999195)
(4.511767 0.0001113161 -0.003431327)
(4.738319 -0.0008637403 -0.003013483)
(4.970973 8.053256e-05 -0.004405226)
(4.274411 -0.002342275 -0.007569491)
(4.186918 0.007071234 0.02116318)
(2.121925 0.0392898 0.1551563)
(1.031281 6.54376e-05 -0.0001609318)
(2.505785 -0.000134043 -0.0002993996)
(3.538245 0.0001423305 -0.001742955)
(4.144806 -0.0007393162 -0.001970908)
(4.529245 7.395806e-05 -0.004121038)
(4.439576 -0.002774591 -0.005277171)
(4.373408 -0.0001183946 -0.004320982)
(3.446046 -0.006750662 -0.01028186)
(2.987838 0.01441657 0.01818573)
(1.1372 0.06720144 0.03694963)
(0.9069001 2.998399e-05 -5.8542e-05)
(2.169009 0.0001135024 -0.0005477649)
(3.00529 -0.0003184878 -0.0008992577)
(3.545789 6.704668e-05 -0.002380805)
(3.774735 -0.001298614 -0.003091916)
(3.858401 -0.0002702015 -0.004587181)
(3.545702 -0.00443711 -0.007230945)
(3.243454 -0.0007332567 -0.004412166)
(2.20515 -0.009128998 -0.01145043)
(1.356211 0.007814118 -0.007649325)
(0.004370921 0.0004759019 -0.005532805)
(0.6971469 4.040823e-05 -6.067565e-05)
(1.592317 -6.658662e-06 -0.0002576292)
(2.171191 5.652262e-05 -0.0008899688)
(2.513402 -0.0004032659 -0.001340781)
(2.699405 -0.000100883 -0.002546586)
(2.691534 -0.001512047 -0.003770942)
(2.599398 -0.0008076971 -0.004876886)
(2.215292 -0.004991889 -0.008646834)
(1.800202 -0.001813586 -0.00693527)
(0.8381963 -0.007461422 -0.01999657)
(0.004544745 -6.58566e-05 -0.006810607)
(0.0006469876 -0.002077078 -0.01116681)
(0.3396998 1.902688e-05 -1.09038e-05)
(0.6973646 4.398662e-05 -9.733086e-05)
(0.9079938 1.400579e-05 -0.0002719665)
(1.034327 8.398454e-05 -0.000633085)
(1.09153 -0.0001233301 -0.0009961985)
(1.104163 6.907386e-05 -0.001707098)
(1.045155 -0.0006484022 -0.002976908)
(0.9550576 -0.0001068617 -0.003996837)
(0.7327624 -0.001700573 -0.008621504)
(0.4458636 -0.004061625 -0.0239149)
(0.001962181 -0.01067572 -0.009075496)
(0.0007684791 -0.009293046 -0.01334671)
(0.0005977001 -0.009606965 -0.01089354)
(0.0005471334 -0.01315548 -0.001064442)
(0.0004178531 -0.01121059 -0.002148906)
(0.0005819998 -0.01079405 -0.004193386)
(0.0004866692 -0.01093997 -0.0020975)
(0.0004721574 -0.006327587 -0.0007458569)
(0.0005006354 -0.006580004 -0.001529816)
(0.0003615122 -0.0069112 -0.003386639)
(0.0004886763 -0.007166156 -0.001496297)
(0.0004414661 -0.007890015 -0.01193)
(0.0004924174 -0.004556113 -0.0004693943)
(0.0004394112 -0.004774819 -0.0009776062)
(0.0004551349 -0.004958858 -0.00270226)
(0.0003002208 -0.00522178 -0.001033632)
(0.0004305115 -0.00547255 -0.01045302)
(4.144422e-05 -0.0006676314 -0.004384076)
(0.0004787916 -0.002416579 -0.0004196528)
(0.0004782569 -0.002556101 -0.0008651805)
(0.0004168568 -0.002688826 -0.002459579)
(0.0004189998 -0.002818402 -0.0009056231)
(0.0002787211 -0.003001542 -0.009498403)
(3.883674e-05 -0.0003491504 -0.003933776)
(3.465785e-05 -0.0003540227 -0.005103948)
(0.0004964094 -0.0007946681 -0.0003892971)
(0.0004736308 -0.0008379698 -0.0007939898)
(0.0004659363 -0.0008777496 -0.002286817)
(0.0003959346 -0.0009139535 -0.0008265635)
(0.000407777 -0.0009674887 -0.00879954)
(2.558167e-05 -0.0001143358 -0.003605653)
(3.168801e-05 -0.0001098553 -0.00463116)
(3.232657e-05 -0.0001220672 -0.004989549)
(0.3321497 0.0004707179 0.0004811852)
(0.7297188 -0.001611906 -0.00163921)
(0.8405446 0.002786917 0.001780958)
(1.159279 -0.007510851 -0.007249324)
(0.9197315 -0.08503984 -0.03053577)
(0.7094488 -0.0005243513 -0.0005742651)
(1.562819 0.00160285 0.001271749)
(2.248308 -0.002661281 -0.003576873)
(2.34365 0.005831471 0.001312572)
(2.882259 -0.02457499 -0.009534404)
(2.005014 -0.1952804 0.006952158)
(0.903446 0.0002294006 0.0002113925)
(2.196863 -0.0008509657 -0.001466309)
(2.956989 0.002216852 0.0008376489)
(3.640362 -0.002192224 -0.004247748)
(3.543617 0.007762843 -0.0009576846)
(4.040186 -0.0273632 0.001841972)
(2.497003 -0.1966697 0.08815432)
(1.035399 -0.0001333692 -0.000292151)
(2.497999 0.0003670505 5.041774e-05)
(3.566094 -0.0005338335 -0.002511157)
(4.095111 0.001971778 -0.0008038256)
(4.603278 -0.0008729062 -0.004414963)
(4.223637 0.006150048 -0.004174208)
(4.482934 -0.0209085 0.01479158)
(2.539838 -0.1309787 0.1532057)
(1.084978 1.387275e-05 -1.121232e-06)
(2.681807 -6.714011e-05 -0.0009176873)
(3.752451 0.000198402 -0.0007999195)
(4.511767 -0.000111316 -0.003431327)
(4.738319 0.0008637403 -0.003013483)
(4.970973 -8.053256e-05 -0.004405226)
(4.274411 0.002342275 -0.007569491)
(4.186918 -0.007071234 0.02116318)
(2.121925 -0.0392898 0.1551563)
(1.087734 2.232513e-05 -0.0001663911)
(2.666305 -4.943399e-05 -0.0003258883)
(3.782841 4.484812e-05 -0.001815367)
(4.445415 -0.0002740476 -0.002056448)
(4.862602 3.549873e-06 -0.004202337)
(4.769961 -0.001022033 -0.005260239)
(4.686465 -8.674983e-05 -0.004165743)
(3.689047 -0.002393563 -0.01013931)
(3.172 0.005214796 0.01693363)
(1.167967 0.02302655 0.03683204)
(1.028549 2.211987e-05 -7.194319e-05)
(2.511079 7.183171e-05 -0.0006236888)
(3.518852 -0.000249044 -0.00105562)
(4.177265 -2.80773e-06 -0.00265941)
(4.462733 -0.001008832 -0.003369885)
(4.558714 -0.000332556 -0.004778087)
(4.18461 -0.00328003 -0.007170231)
(3.794862 -0.0005841217 -0.003748653)
(2.564225 -0.006168282 -0.01063421)
(1.526485 0.005873367 -0.00611038)
(0.004662469 0.0002998106 -0.004846083)
(0.907127 4.056905e-05 -8.550753e-05)
(2.163864 -3.64607e-06 -0.0003892054)
(3.011248 3.379184e-05 -0.001220431)
(3.526351 -0.0005066938 -0.001834395)
(3.805133 -0.0002361279 -0.003276315)
(3.798464 -0.001815713 -0.00452763)
(3.648192 -0.001067504 -0.005280128)
(3.085577 -0.005313975 -0.008583431)
(2.450969 -0.00145436 -0.004330919)
(1.108185 -0.006033561 -0.01216311)
(0.005607975 8.113474e-06 -0.004794399)
(0.0006553391 -0.001065519 -0.008238463)
(0.6963931 2.853357e-05 -4.414471e-05)
(1.592558 1.996234e-05 -0.0002742663)
(2.166044 -7.379493e-05 -0.0007251844)
(2.518657 -5.891596e-05 -0.001512288)
(2.683802 -0.0006290257 -0.002262076)
(2.71514 -0.0005187316 -0.003492084)
(2.554495 -0.002258492 -0.005343757)
(2.287554 -0.001961339 -0.006018794)
(1.697624 -0.005834187 -0.01051416)
(0.9446912 -0.002649632 -0.01673072)
(0.00354212 -0.0001279066 -0.006303699)
(0.0007904451 -0.001998553 -0.009662902)
(0.0006088565 -0.002758647 -0.009096515)
(0.3395441 2.280214e-05 -1.506435e-05)
(0.6966096 2.795513e-05 -8.389246e-05)
(0.9082165 4.252876e-05 -0.0002746069)
(1.031599 -2.545246e-07 -0.0005519469)
(1.094254 4.589417e-05 -0.001009771)
(1.097022 -0.0002156278 -0.001655498)
(1.055773 -0.0001377753 -0.002608307)
(0.9357267 -0.0009287141 -0.00441969)
(0.7611316 -0.000199804 -0.006854765)
(0.4147459 -0.005527654 -0.02318591)
(0.002262243 -0.009865137 -0.008395518)
(0.0005347607 -0.008670987 -0.01237908)
(0.0007229444 -0.008515531 -0.009464896)
(0.0005659179 -0.008752642 -0.00611072)
(0.0005111958 -0.01238735 -0.001000323)
(0.0005459792 -0.01038074 -0.001988711)
(0.000411235 -0.01007733 -0.003845455)
(0.000555728 -0.009685692 -0.001845411)
(0.0004858369 -0.01035641 -0.01242564)
(0.0005237087 -0.005965582 -0.0007034168)
(0.0004740548 -0.006203911 -0.001436615)
(0.0004963658 -0.00640641 -0.003145033)
(0.0003447639 -0.00671246 -0.00137758)
(0.0004937886 -0.007017095 -0.01074547)
(4.583551e-05 -0.0008553562 -0.004504331)
(0.0004942902 -0.00432976 -0.0004454142)
(0.0004961844 -0.004503271 -0.000923282)
(0.000436937 -0.004676943 -0.002537924)
(0.00044314 -0.004845592 -0.0009618251)
(0.0003054839 -0.005125983 -0.009612213)
(4.276552e-05 -0.0005971641 -0.003983316)
(3.695985e-05 -0.000607061 -0.005195332)
(0.0005047671 -0.002300414 -0.0003997415)
(0.0004828017 -0.002430018 -0.0008213954)
(0.000476264 -0.002536948 -0.002324834)
(0.0004071833 -0.002660507 -0.0008513289)
(0.000421279 -0.002785941 -0.0088555)
(2.71023e-05 -0.0003281902 -0.003624899)
(3.357226e-05 -0.0003183535 -0.004661452)
(3.353665e-05 -0.0003496982 -0.005034299)
(0.0005050486 -0.0007595405 -0.0003719473)
(0.0005008778 -0.0007977773 -0.0007565226)
(0.0004719474 -0.0008345493 -0.002171607)
(0.0004576892 -0.0008626521 -0.0007816015)
(0.0003973874 -0.0009131314 -0.008274994)
(4.218436e-05 -0.0001062753 -0.003363723)
(2.182518e-05 -0.0001033883 -0.004271915)
(3.007219e-05 -0.000109884 -0.00456849)
(3.154217e-05 -0.000118836 -0.004499764)
(0.3466214 -0.0003169116 -0.0003064996)
(0.6827521 0.0008382896 0.0007626695)
(0.9472014 -0.001726094 -0.001847951)
(0.9566042 0.002905549 0.0008009452)
(1.214723 -0.007041578 -0.002964019)
(0.9226135 -0.08450472 0.004426665)
(0.6939667 0.000236045 0.0002175958)
(1.618322 -0.0008501409 -0.001206974)
(2.128689 0.001982692 0.0008067443)
(2.602973 -0.002377933 -0.003557941)
(2.504662 0.006678974 -0.0009589008)
(2.897538 -0.02356245 0.002004859)
(1.947444 -0.1950597 0.07390098)
(0.9132055 -0.0002034494 -0.0002757668)
(2.156794 0.0005179637 0.00010366)
(3.047771 -0.0008346822 -0.002312739)
(3.472454 0.002622857 -0.0007248931)
(3.902916 -0.001614648 -0.004272711)
(3.567352 0.008676399 -0.004136548)
(3.8486 -0.02577296 0.01404361)
(2.291699 -0.1914382 0.1501883)
(1.028546 3.842624e-05 3.971289e-06)
(2.520718 -0.0001984453 -0.0008857913)
(3.509015 0.000543135 -0.0007421022)
(4.208474 -0.0003601345 -0.003342496)
(4.410559 0.002339067 -0.002995016)
(4.633382 -0.000378824 -0.004456562)
(3.982736 0.006599917 -0.007589053)
(3.93803 -0.01862665 0.02154767)
(2.059386 -0.1122273 0.1554533)
(1.087734 -2.232503e-05 -0.0001663911)
(2.666305 4.943387e-05 -0.0003258882)
(3.782841 -4.484806e-05 -0.001815367)
(4.445415 0.0002740477 -0.002056448)
(4.862602 -3.549645e-06 -0.004202337)
(4.769961 0.001022033 -0.005260239)
(4.686465 8.674995e-05 -0.004165743)
(3.689047 0.002393563 -0.01013931)
(3.172 -0.005214796 0.01693363)
(1.167967 -0.02302655 0.03683204)
(1.084973 7.726627e-06 -7.726228e-05)
(2.671638 2.348038e-05 -0.0006530889)
(3.762641 -9.353808e-05 -0.001117928)
(4.479219 -1.088224e-05 -0.002758783)
(4.793233 -0.0003757854 -0.003448316)
(4.894742 -0.0001437942 -0.004782486)
(4.490612 -0.001191555 -0.007025364)
(4.055754 -0.0002214455 -0.00342074)
(2.733328 -0.002187302 -0.01040036)
(1.605128 0.002078699 -0.005621864)
(0.004767912 9.985352e-05 -0.004546413)
(1.028708 2.485542e-05 -9.68986e-05)
(2.505643 -4.510527e-06 -0.0004611959)
(3.525019 3.172839e-06 -0.001388115)
(4.155577 -0.0004070006 -0.002074077)
(4.496532 -0.0002457792 -0.003569154)
(4.491855 -0.001394183 -0.004714703)
(4.299434 -0.0008608752 -0.005147913)
(3.620703 -0.00371613 -0.008050049)
(2.839177 -0.0007799218 -0.003116105)
(1.266909 -0.003590562 -0.01035427)
(0.006203717 1.6273e-05 -0.004173072)
(0.0006563967 -0.0003304359 -0.007239843)
(0.9061715 3.032766e-05 -6.708753e-05)
(2.163886 1.075723e-05 -0.0003955366)
(3.005053 -9.386571e-05 -0.001031039)
(3.532483 -0.0001257137 -0.002026604)
(3.784819 -0.0008010877 -0.002918424)
(3.828939 -0.0007277027 -0.00419581)
(3.590053 -0.002576963 -0.00584401)
(3.179011 -0.002052995 -0.005586374)
(2.321764 -0.00559413 -0.008542836)
(1.242684 -0.0012139 -0.009329866)
(0.004495421 -4.782186e-05 -0.00441673)
(0.0008047443 -0.001046611 -0.007103431)
(0.0006164346 -0.001474352 -0.007838986)
(0.6960463 3.615891e-05 -5.03714e-05)
(1.590933 2.543485e-06 -0.0002482629)
(2.166059 -4.750514e-05 -0.0007092056)
(2.513211 -0.0001877944 -0.001356193)
(2.689052 -0.0002691909 -0.002271002)
(2.699443 -0.001028274 -0.00337912)
(2.577386 -0.001236623 -0.004642234)
(2.246098 -0.003332595 -0.006876336)
(1.756785 -0.003071033 -0.00765413)
(0.8853312 -0.005192092 -0.01686429)
(0.004026398 -9.482126e-05 -0.005821217)
(0.0005592824 -0.001883358 -0.008940053)
(0.0007411638 -0.002584417 -0.007895528)
(0.0005803114 -0.003308473 -0.004936991)
(0.3392503 1.920985e-05 -1.174312e-05)
(0.6962625 3.461062e-05 -9.00045e-05)
(0.9072544 2.566491e-05 -0.0002566882)
(1.031747 2.743716e-05 -0.0005350327)
(1.091484 -3.716996e-05 -0.0009372177)