/*--------------------------------*- C++ -*----------------------------------*\
| =========                 |                                                 |
| \\      /  F ield         | OpenFOAM: The Open Source CFD Toolbox           |
|  \\    /   O peration     | Version:  2306                                  |
|   \\  /    A nd           | Website:  www.openfoam.com                      |
|    \\/     M anipulation  |                                                 |
\*---------------------------------------------------------------------------*/
FoamFile
{
    version     2.0;
    format      ascii;
    arch        "LSB;label=32;scalar=64";
    class       volScalarField;
    location    "1.2/air";
    object      X.N2;
}
// * * * * * * * * * * * * * * * * * * * * * * * * * * * * * * * * * * * * * //

dimensions      [0 0 0 0 0 0 0];

internalField   nonuniform List<scalar> 
16000
(
0.7930386
0.7930325
0.7943203
0.7930765
0.7930243
0.7942295
0.7930666
0.7967081
0.7944396
0.7931671
0.7930163
0.7941103
0.793055
0.7966012
0.7943188
0.7931463
0.7991766
0.7968483
0.7947466
0.7933413
0.7930116
0.7940085
0.7930445
0.7964548
0.7941672
0.793124
0.7990701
0.7967094
0.794587
0.7932992
0.8015782
0.7993184
0.7971968
0.795305
0.7936592
0.7930116
0.7939514
0.7930382
0.7963248
0.794042
0.7931072
0.798924
0.7965274
0.7943876
0.7932533
0.8014762
0.7991809
0.7970203
0.7951076
0.7935828
0.8038684
0.801714
0.799669
0.7978135
0.7961691
0.7942189
0.8298148
0.7930163
0.7939514
0.7930382
0.79625
0.793973
0.7930976
0.7987938
0.7963698
0.794223
0.7932196
0.8013364
0.7990003
0.796792
0.7948566
0.7934957
0.8037721
0.8015826
0.7994964
0.7976032
0.7959402
0.7941089
0.8060413
0.8039971
0.8020492
0.8002848
0.7987463
0.7973789
0.7951281
0.8285628
0.8313067
0.8300128
0.7930243
0.7940085
0.7930445
0.79625
0.793973
0.7930976
0.7987187
0.7962803
0.7941332
0.7932021
0.8012119
0.7988434
0.7965963
0.7946463
0.7934287
0.8036401
0.8014102
0.7992728
0.7973301
0.7956412
0.7939659
0.8059503
0.8038731
0.8018851
0.8000826
0.7985083
0.7971144
0.7949789
0.8081048
0.8061629
0.8043149
0.8026365
0.8012073
0.8000311
0.7989917
0.7965316
0.8260328
0.8301874
0.8287654
0.8318313
0.8314874
0.830408
0.7930325
0.7941103
0.793055
0.7963248
0.794042
0.7931072
0.7987187
0.7962803
0.7941332
0.7932021
0.8011402
0.798754
0.7964858
0.7945299
0.7933931
0.8035226
0.8012605
0.7990804
0.797096
0.795386
0.7938445
0.8058256
0.8037105
0.8016728
0.79982
0.7981966
0.7967699
0.7947736
0.8080186
0.8060456
0.8041602
0.8024455
0.8009833
0.7997695
0.7986832
0.7963096
0.8100692
0.8082199
0.8064629
0.8048712
0.8035132
0.8024635
0.8016947
0.8010676
0.7986511
0.8221299
0.8279308
0.8262515
0.8307947
0.8303716
0.8291687
0.8321967
0.8319974
0.8318481
0.8309992
0.7930386
0.7942295
0.7930666
0.7964548
0.7941672
0.793124
0.7987938
0.7963698
0.794223
0.7932196
0.8011402
0.798754
0.7964858
0.7945299
0.7933931
0.8034549
0.8011753
0.7989715
0.7969639
0.7952429
0.7937766
0.8057146
0.8035694
0.8014904
0.799594
0.7979279
0.7964754
0.7945937
0.8079005
0.805892
0.8039602
0.802198
0.8006897
0.7994233
0.7982796
0.7960046
0.8099873
0.8081089
0.8063167
0.8046915
0.8033031
0.8022225
0.8014048
0.8006851
0.7982363
0.8119448
0.8101785
0.8085042
0.8069881
0.8057008
0.8047025
0.8040692
0.8037628
0.8036861
0.8018988
0.8164846
0.8244655
0.8224097
0.8287057
0.8281277
0.8266817
0.8312304
0.8309639
0.8307383
0.8297698
0.8326098
0.8323512
0.8323292
0.8323879
0.8317849
0.7943203
0.7930765
0.7966012
0.7943188
0.7931463
0.798924
0.7965274
0.7943876
0.7932533
0.8012119
0.7988434
0.7965963
0.7946463
0.7934287
0.8034549
0.8011753
0.7989715
0.7969639
0.7952429
0.7937766
0.8056506
0.803489
0.8013873
0.799466
0.7977758
0.7963095
0.7944912
0.8077955
0.8057587
0.8037885
0.8019854
0.8004357
0.799123
0.7979342
0.7957423
0.8098752
0.8079635
0.8061278
0.8044588
0.8030285
0.8019031
0.8010183
0.8001917
0.7977346
0.8118667
0.810073
0.8083657
0.8068182
0.8055034
0.8044778
0.8038065
0.8034151
0.8031288
0.8009061
0.8137404
0.8120489
0.8104484
0.8090018
0.8077714
0.806825
0.806217
0.8060389
0.8062834
0.80701
0.8072748
0.819494
0.8170626
0.8254997
0.8247125
0.8229307
0.8292836
0.8288862
0.8285155
0.8273129
0.8317027
0.8313877
0.8313008
0.8312853
0.8305654
0.8331408
0.8327548
0.8326599
0.8328257
0.8331058
0.8329169
0.7967081
0.7944396
0.7931671
0.7990701
0.7967094
0.794587
0.7932992
0.8013364
0.7990003
0.796792
0.7948566
0.7934957
0.8035226
0.8012605
0.7990804
0.797096
0.795386
0.7938445
0.8056506
0.803489
0.8013873
0.799466
0.7977758
0.7963095
0.7944912
0.8077349
0.8056829
0.8036914
0.8018652
0.8002915
0.7989527
0.7977396
0.7955948
0.8097754
0.8078373
0.8059658
0.804259
0.8027915
0.801625
0.8006827
0.7997755
0.7973383
0.8117599
0.8099348
0.8081868
0.8065985
0.8052457
0.8041808
0.8034551
0.8029588
0.8024684
0.8000173
0.8136659
0.8119484
0.8103168
0.8088408
0.8075848
0.8066141
0.8059726
0.8057248
0.8057787
0.8059539
0.8044197
0.8154634
0.8138399
0.8123061
0.8109211
0.8097443
0.8088328
0.8082549
0.8080693
0.8084111
0.8093945
0.8115114
0.8099571
0.8209051
0.8199903
0.8179237
0.826297
0.8257257
0.8251741
0.8236526
0.8298751
0.8294512
0.8292417
0.8290854
0.8281356
0.8322851
0.8318502
0.831701
0.8318034
0.83201
0.8317077
0.8337562
0.8332776
0.8330444
0.8331219
0.8334861
0.8341405
0.8331502
0.7991766
0.7968483
0.7947466
0.7933413
0.8014762
0.7991809
0.7970203
0.7951076
0.7935828
0.8036401
0.8014102
0.7992728
0.7973301
0.7956412
0.7939659
0.8057146
0.8035694
0.8014904
0.799594
0.7979279
0.7964754
0.7945937
0.8077349
0.8056829
0.8036914
0.8018652
0.8002915
0.7989527
0.7977396
0.7955948
0.8097179
0.8077655
0.8058741
0.804146
0.8026572
0.8014667
0.8004925
0.7995433
0.7971259
0.8116648
0.809815
0.8080334
0.8064101
0.8050234
0.8039229
0.8031488
0.8025693
0.8019411
0.7994118
0.8135637
0.8118167
0.8101468
0.8086327
0.8073414
0.8063356
0.8056468
0.8053111
0.8051753
0.8049697
0.8029065
0.815392
0.8137438
0.8121806
0.810768
0.8095672
0.8086332
0.8080255
0.8077765
0.8079499
0.8084259
0.808878
0.8066006
0.8171201
0.8155587
0.8140856
0.8127566
0.8116265
0.8107508
0.8101835
0.8100021
0.8102958
0.8113138
0.8135389
0.8137727
0.8120419
0.8220193
0.8213597
0.8207347
0.8189251
0.827072
0.8265066
0.826148
0.8258164
0.8245449
0.8305611
0.8300322
0.8297813
0.8297643
0.8298297
0.8293008
0.8329451
0.8324242
0.832144
0.8321684
0.8324695
0.8330513
0.8319431
0.8344416
0.8338859
0.8335509
0.8334779
0.8337365
0.8344382
0.8343537
0.8333855
0.8015782
0.7993184
0.7971968
0.795305
0.7936592
0.8037721
0.8015826
0.7994964
0.7976032
0.7959402
0.7941089
0.8058256
0.8037105
0.8016728
0.79982
0.7981966
0.7967699
0.7947736
0.8077955
0.8057587
0.8037885
0.8019854
0.8004357
0.799123
0.7979342
0.7957423
0.8097179
0.8077655
0.8058741
0.804146
0.8026572
0.8014667
0.8004925
0.7995433
0.7971259
0.81161
0.8097468
0.8079466
0.8063036
0.8048975
0.8037764
0.8029745
0.802351
0.8016558
0.7991096
0.8134729
0.8117025
0.810001
0.8084541
0.8071316
0.806094
0.8053634
0.8049567
0.8046901
0.8042709
0.8020311
0.8152942
0.813618
0.8120185
0.81057
0.8093364
0.80837
0.8077198
0.8073921
0.8073978
0.807522
0.8073862
0.8047654
0.8170516
0.8154666
0.8139656
0.8126105
0.8114579
0.8105612
0.8099661
0.8097268
0.8098643
0.8104172
0.8111073
0.810715
0.8085319
0.818716
0.8172115
0.8157939
0.814516
0.8134292
0.8125833
0.8120322
0.811835
0.8121009
0.813018
0.8151658
0.8156176
0.8155413
0.8137472
0.8230583
0.8224408
0.8220407
0.8216071
0.8199985
0.8279173
0.8272682
0.8268982
0.8267355
0.8266141
0.8257536
0.8313111
0.8307092
0.8303415
0.8302668
0.8304469
0.8308858
0.8295408
0.8336702
0.8330769
0.8327014
0.8325823
0.8327878
0.8334266
0.8332658
0.8321804
0.8351725
0.834565
0.834145
0.83396
0.8340545
0.8346225
0.8346344
0.8345687
0.8336227
0.8038684
0.801714
0.799669
0.7978135
0.7961691
0.7942189
0.8059503
0.8038731
0.8018851
0.8000826
0.7985083
0.7971144
0.7949789
0.8079005
0.805892
0.8039602
0.802198
0.8006897
0.7994233
0.7982796
0.7960046
0.8097754
0.8078373
0.8059658
0.804259
0.8027915
0.801625
0.8006827
0.7997755
0.7973383
0.81161
0.8097468
0.8079466
0.8063036
0.8048975
0.8037764
0.8029745
0.802351
0.8016558
0.7991096
0.8134206
0.8116375
0.8099186
0.8083533
0.8070128
0.8059567
0.8052025
0.8047576
0.8044268
0.8039133
0.8016214
0.8152072
0.8135088
0.8118796
0.8104003
0.8091376
0.8081418
0.8074541
0.8070637
0.8069535
0.8068787
0.8064795
0.8037307
0.8169577
0.8153461
0.8138107
0.8124217
0.8112382
0.8103113
0.8096766
0.8093654
0.8093489
0.8095816
0.8097288
0.8089586
0.8064874
0.8186501
0.8171232
0.8156789
0.8143762
0.8132682
0.8124026
0.8118254
0.8115736
0.8116942
0.812177
0.812904
0.8127904
0.8123504
0.8102229
0.8202557
0.8188038
0.8174372
0.8162061
0.8151588
0.8143418
0.8138023
0.8135999
0.8138204
0.8146663
0.8166292
0.8170965
0.8172394
0.816999
0.8151865
0.8241322
0.8234529
0.823072
0.8228376
0.8225498
0.8212893
0.8288055
0.8281021
0.8276349
0.8274431
0.8274651
0.8276992
0.8260021
0.8321163
0.8314514
0.8310009
0.8307965
0.8309009
0.8314156
0.8311033
0.8297826
0.8344366
0.8337956
0.8333397
0.833115
0.8331633
0.8336781
0.8336238
0.8334822
0.8324197
0.835937
0.8352902
0.8348115
0.8345328
0.8345043
0.834886
0.8348051
0.8348323
0.8347855
0.8338619
0.8060413
0.8039971
0.8020492
0.8002848
0.7987463
0.7973789
0.7951281
0.8080186
0.8060456
0.8041602
0.8024455
0.8009833
0.7997695
0.7986832
0.7963096
0.8098752
0.8079635
0.8061278
0.8044588
0.8030285
0.8019031
0.8010183
0.8001917
0.7977346
0.8116648
0.809815
0.8080334
0.8064101
0.8050234
0.8039229
0.8031488
0.8025693
0.8019411
0.7994118
0.8134206
0.8116375
0.8099186
0.8083533
0.8070128
0.8059567
0.8052025
0.8047576
0.8044268
0.8039133
0.8016214
0.8151571
0.8134467
0.811801
0.8103044
0.809025
0.8080123
0.8073032
0.8068796
0.8067121
0.806549
0.8060423
0.8032556
0.8168743
0.8152416
0.8136778
0.8122598
0.811049
0.8100947
0.8094253
0.8090567
0.8089353
0.8089875
0.80889
0.8079258
0.8053314
0.8185599
0.8170075
0.8155305
0.8141956
0.8130584
0.8121643
0.8115502
0.8112309
0.8112086
0.8113944
0.8116234
0.8111645
0.8104196
0.8080593
0.8201922
0.8187189
0.8173268
0.8160722
0.8150047
0.814169
0.8136048
0.813351
0.8134343
0.8138728
0.8145066
0.8144647
0.8142854
0.8137898
0.8116904
0.8217434
0.8203402
0.8190208
0.8178329
0.816822
0.8160314
0.8155051
0.8152946
0.8154857
0.8162495
0.8180699
0.8184386
0.8186012
0.8185722
0.8182401
0.8166058
0.8252187
0.8245038
0.8240437
0.8238104
0.8236976
0.8236925
0.8215534
0.8297335
0.8289805
0.8284476
0.8281451
0.8281198
0.8284573
0.8279223
0.8262521
0.8329541
0.8322496
0.8317278
0.8314299
0.8313908
0.8318009
0.8316151
0.8313225
0.8300263
0.8352332
0.8345562
0.8340455
0.8337317
0.8336632
0.8339984
0.8338615
0.8338227
0.8337003
0.8326609
0.8367229
0.8360496
0.8355254
0.8351805
0.8350488
0.8352891
0.8350574
0.8349893
0.8350318
0.8350042
0.8341538
0.8081048
0.8061629
0.8043149
0.8026365
0.8012073
0.8000311
0.7989917
0.7965316
0.8099873
0.8081089
0.8063167
0.8046915
0.8033031
0.8022225
0.8014048
0.8006851
0.7982363
0.8117599
0.8099348
0.8081868
0.8065985
0.8052457
0.8041808
0.8034551
0.8029588
0.8024684
0.8000173
0.8134729
0.8117025
0.810001
0.8084541
0.8071316
0.806094
0.8053634
0.8049567
0.8046901
0.8042709
0.8020311
0.8151571
0.8134467
0.811801
0.8103044
0.809025
0.8080123
0.8073032
0.8068796
0.8067121
0.806549
0.8060423
0.8032556
0.8168262
0.8151821
0.8136028
0.8121684
0.8109419
0.8099717
0.8092828
0.8088836
0.808711
0.8086829
0.8084852
0.8074384
0.8048041
0.8184796
0.8169072
0.8154033
0.8140408
0.8128778
0.8119579
0.8113112
0.8109386
0.8108188
0.8108388
0.8108449
0.8102071
0.8092885
0.8068229
0.8201053
0.8186076
0.8171844
0.8158991
0.8148039
0.8139413
0.8133421
0.8130248
0.8129735
0.8131344
0.8133052
0.8129519
0.8124954
0.8117567
0.8094755
0.8216822
0.8202585
0.8189147
0.8177042
0.8166741
0.8158658
0.8153161
0.8150567
0.8151179
0.8154967
0.8160672
0.8159682
0.8158497
0.8155976
0.8150459
0.8131455
0.8231826
0.8218249
0.8205492
0.8194012
0.818424
0.8176582
0.8171442
0.8169301
0.8170912
0.8177941
0.8194739
0.8197749
0.8198479
0.8198364
0.8197033
0.8194764
0.8168938
0.8263227
0.8255704
0.8250601
0.8247346
0.8246069
0.8247385
0.8239264
0.8218178
0.8306811
0.8298998
0.8293076
0.8289283
0.8287787
0.82904
0.8286613
0.8281467
0.8265036
0.8338155
0.8330814
0.8325124
0.8321342
0.8319904
0.8322344
0.8319862
0.8318162
0.8315433
0.8302719
0.8360483
0.8353476
0.8347946
0.8344184
0.8342513
0.8344512
0.8341705
0.8340465
0.8340231
0.8339202
0.8329552
0.837523
0.8368309
0.8362745
0.8358775
0.8356714
0.8357929
0.8354508
0.8352302
0.835175
0.835233
0.835271
0.8344523
0.8100692
0.8082199
0.8064629
0.8048712
0.8035132
0.8024635
0.8016947
0.8010676
0.7986511
0.8118667
0.810073
0.8083657
0.8068182
0.8055034
0.8044778
0.8038065
0.8034151
0.8031288
0.8009061
0.8135637
0.8118167
0.8101468
0.8086327
0.8073414
0.8063356
0.8056468
0.8053111
0.8051753
0.8049697
0.8029065
0.8152072
0.8135088
0.8118796
0.8104003
0.8091376
0.8081418
0.8074541
0.8070637
0.8069535
0.8068787
0.8064795
0.8037307
0.8168262
0.8151821
0.8136028
0.8121684
0.8109419
0.8099717
0.8092828
0.8088836
0.808711
0.8086829
0.8084852
0.8074384
0.8048041
0.8184334
0.8168501
0.8153314
0.8139534
0.8127755
0.8118408
0.8111757
0.8107748
0.8106074
0.8105544
0.8104693
0.8097549
0.8087598
0.8062596
0.8200281
0.8185112
0.8170623
0.8157507
0.814631
0.8137441
0.8131141
0.8127465
0.8126039
0.8126101
0.8125754
0.8120617
0.8114452
0.8105582
0.8081989
0.8215983
0.8201513
0.8187777
0.8175379
0.8164815
0.8156476
0.8150647
0.814745
0.814679
0.814796
0.8149334
0.8145482
0.8141826
0.81371
0.8129639
0.8109332
0.8231235
0.821746
0.8204469
0.8192774
0.8182819
0.8174992
0.8169629
0.8167023
0.8167398
0.8170775
0.8175749
0.8174439
0.8172646
0.817064
0.8167386
0.8162982
0.8134407
0.8245767
0.8232613
0.8220264
0.8209156
0.8199697
0.819227
0.8187251
0.8185081
0.8186467
0.8192921
0.8208596
0.8210888
0.8211025
0.8210039
0.8208832
0.8208252
0.8197274
0.8171799
0.8274275
0.8266568
0.8260971
0.8257108
0.8254797
0.8255705
0.8249516
0.8241606
0.8220827
0.8316417
0.8308396
0.8302107
0.8297629
0.8295254
0.8296404
0.8292292
0.8288665
0.8283726
0.8267565
0.8346895
0.8339371
0.833332
0.8328989
0.8326653
0.832786
0.8324081
0.832173
0.8320188
0.8317659
0.8305713
0.8368752
0.836158
0.8355756
0.8351504
0.8349127
0.8349982
0.8346135
0.834344
0.8342329
0.8342253
0.8341885
0.8332562
0.8383316
0.8376267
0.8370465
0.8366113
0.836346
0.8363794
0.8359462
0.8356139
0.8354044
0.8353622
0.8354785
0.8355437
0.8346792
0.8119448
0.8101785
0.8085042
0.8069881
0.8057008
0.8047025
0.8040692
0.8037628
0.8036861
0.8018988
0.8136659
0.8119484
0.8103168
0.8088408
0.8075848
0.8066141
0.8059726
0.8057248
0.8057787
0.8059539
0.8044197
0.8152942
0.813618
0.8120185
0.81057
0.8093364
0.80837
0.8077198
0.8073921
0.8073978
0.807522
0.8073862
0.8047654
0.8168743
0.8152416
0.8136778
0.8122598
0.811049
0.8100947
0.8094253
0.8090567
0.8089353
0.8089875
0.80889
0.8079258
0.8053314
0.8184334
0.8168501
0.8153314
0.8139534
0.8127755
0.8118408
0.8111757
0.8107748
0.8106074
0.8105544
0.8104693
0.8097549
0.8087598
0.8062596
0.8199835
0.8184564
0.8169932
0.8156669
0.8145331
0.8136321
0.8129848
0.8125905
0.8124036
0.8123418
0.8122237
0.8116414
0.8109539
0.8099998
0.8076168
0.8215238
0.8200585
0.8186602
0.8173955
0.8163157
0.8154586
0.8148466
0.8144792
0.814327
0.8142988
0.8142446
0.8137132
0.8132049
0.8125955
0.8117287
0.8096547
0.8230425
0.8216427
0.820315
0.8191175
0.8180969
0.8172898
0.8167218
0.8164038
0.8163204
0.8164103
0.8164994
0.8161037
0.8156993
0.8153046
0.8148027
0.8142077
0.8112295
0.8245195
0.8231851
0.8219277
0.8207963
0.819833
0.8190741
0.8185508
0.8182894
0.8183101
0.8186077
0.8190528
0.8188786
0.8186647
0.8184004
0.8181185
0.8178704
0.8165523
0.8137339
0.8259284
0.8246528
0.8234559
0.8223797
0.8214632
0.8207422
0.8202518
0.8200333
0.8201519
0.8207505
0.8222159
0.8223948
0.8223459
0.8221912
0.821983
0.82192
0.8210529
0.8199768
0.8174642
0.8285303
0.827746
0.8271572
0.826713
0.8264125
0.8263809
0.8257677
0.8251649
0.8243953
0.8223479
0.8326061
0.8317932
0.831136
0.8306434
0.8303283
0.8303374
0.8298175
0.8294196
0.829073
0.8285998
0.8270645
0.8355704
0.8348061
0.8341767
0.8337006
0.833404
0.8334191
0.8329498
0.8325832
0.8323613
0.832223
0.8320373
0.8308776
0.8377084
0.8369806
0.8363766
0.8359159
0.835622
0.8356232
0.8351521
0.8347772
0.8345189
0.8344209
0.8344719
0.8344627
0.8334851
0.8391445
0.8384313
0.8378338
0.8373693
0.8370595
0.8370215
0.8365252
0.8361008
0.8357784
0.8355801
0.8355907
0.8357293
0.8357508
0.8348331
0.8137404
0.8120489
0.8104484
0.8090018
0.8077714
0.806825
0.806217
0.8060389
0.8062834
0.80701
0.8072748
0.815392
0.8137438
0.8121806
0.810768
0.8095672
0.8086332
0.8080255
0.8077765
0.8079499
0.8084259
0.808878
0.8066006
0.8169577
0.8153461
0.8138107
0.8124217
0.8112382
0.8103113
0.8096766
0.8093654
0.8093489
0.8095816
0.8097288
0.8089586
0.8064874
0.8184796
0.8169072
0.8154033
0.8140408
0.8128778
0.8119579
0.8113112
0.8109386
0.8108188
0.8108388
0.8108449
0.8102071
0.8092885
0.8068229
0.8199835
0.8184564
0.8169932
0.8156669
0.8145331
0.8136321
0.8129848
0.8125905
0.8124036
0.8123418
0.8122237
0.8116414
0.8109539
0.8099998
0.8076168
0.8214809
0.8200056
0.8185938
0.817315
0.8162219
0.8153514
0.814723
0.8143303
0.8141362
0.8140443
0.8139126
0.8133191
0.8127476
0.8120757
0.8111534
0.8090715
0.8229706
0.8215531
0.8202019
0.8189804
0.8179375
0.8171084
0.8165126
0.8161493
0.8159841
0.8159367
0.815846
0.8153154
0.8147815
0.8142661
0.8136522
0.8129641
0.8099509
0.8244412
0.8230853
0.8218004
0.8206422
0.8196548
0.8188727
0.8183192
0.8180029
0.8179084
0.8179705
0.818029
0.8176074
0.8171872
0.816748
0.8163128
0.8159229
0.8144605
0.8115243
0.8258731
0.8245791
0.8233606
0.8222646
0.8213313
0.8205949
0.8200841
0.819823
0.8198289
0.8200954
0.8204914
0.8202919
0.8200344
0.819734
0.8193859
0.8191625
0.8181
0.8168048
0.8140253
0.8272406
0.8260021
0.8248409
0.8237971
0.822908
0.8222074
0.8217283
0.821509
0.8216108
0.8221676
0.8235462
0.8236799
0.8235895
0.8233765
0.8231129
0.8229517
0.8221304
0.8212792
0.8202247
0.8177466
0.829624
0.8288347
0.828223
0.8277425
0.8273772
0.8272611
0.8265654
0.8259652
0.8253787
0.8246304
0.8226693
0.8335697
0.8327513
0.8320766
0.8315486
0.8311808
0.8310973
0.8305044
0.8299958
0.8296111
0.8292808
0.8288764
0.8273796
0.8364533
0.8356823
0.8350357
0.8345292
0.8341823
0.8341208
0.8335743
0.8331149
0.8327597
0.832551
0.8324719
0.8323149
0.8311105
0.8385442
0.8378097
0.8371904
0.8367027
0.836367
0.8362999
0.8357696
0.8353073
0.8349423
0.8346952
0.8346503
0.8347239
0.8346711
0.8336403
0.8399586
0.8392406
0.8386305
0.8381439
0.837799
0.8377056
0.8371607
0.8366723
0.8362568
0.8359442
0.8357945
0.835824
0.8359197
0.8358912
0.8349117
0.8164846
0.8154634
0.8138399
0.8123061
0.8109211
0.8097443
0.8088328
0.8082549
0.8080693
0.8084111
0.8093945
0.8115114
0.8099571
0.8170516
0.8154666
0.8139656
0.8126105
0.8114579
0.8105612
0.8099661
0.8097268
0.8098643
0.8104172
0.8111073
0.810715
0.8085319
0.8185599
0.8170075
0.8155305
0.8141956
0.8130584
0.8121643
0.8115502
0.8112309
0.8112086
0.8113944
0.8116234
0.8111645
0.8104196
0.8080593
0.8200281
0.8185112
0.8170623
0.8157507
0.814631
0.8137441
0.8131141
0.8127465
0.8126039
0.8126101
0.8125754
0.8120617
0.8114452
0.8105582
0.8081989
0.8214809
0.8200056
0.8185938
0.817315
0.8162219
0.8153514
0.814723
0.8143303
0.8141362
0.8140443
0.8139126
0.8133191
0.8127476
0.8120757
0.8111534
0.8090715
0.8229291
0.8215022
0.8201379
0.818903
0.8178474
0.8170055
0.8163941
0.8160068
0.8158019
0.8156944
0.8155311
0.8149434
0.8143524
0.8137817
0.8131157
0.8123848
0.8093677
0.8243716
0.8229988
0.8216913
0.8205101
0.8195015
0.8186982
0.8181183
0.8177588
0.8175864
0.8175182
0.817407
0.8168597
0.8163208
0.8157727
0.8152398
0.814762
0.8132155
0.810246
0.8257973
0.8244826
0.8232376
0.8221159
0.8211596
0.8204008
0.8198612
0.8195476
0.8194434
0.8194854
0.819514
0.819082
0.818633
0.8181741
0.8176896
0.8173446
0.8161505
0.814712
0.8118176
0.827187
0.8259308
0.8247487
0.8236859
0.8227807
0.8220653
0.8215666
0.8213065
0.8213002
0.8215392
0.8218964
0.821673
0.8213903
0.8210465
0.8206615
0.8203605
0.8193743
0.8183281
0.8170557
0.8143147
0.8285155
0.827312
0.8261842
0.8251709
0.8243074
0.823626
0.8231577
0.8229384
0.8230255
0.8235458
0.8248468
0.824946
0.8248192
0.8245688
0.8242489
0.8240244
0.8231482
0.8223394
0.821504
0.820471
0.8180862
0.8307062
0.8299157
0.8292906
0.8287809
0.8283735
0.8281803
0.8274347
0.8267501
0.8261631
0.8255927
0.8249154
0.8229982
0.8345288
0.8337091
0.8330227
0.832471
0.8320611
0.8319118
0.8312554
0.8306724
0.8301751
0.8298038
0.8295337
0.8291593
0.8276192
0.8373349
0.8365609
0.8359028
0.8353735
0.8349899
0.8348661
0.8342684
0.8337308
0.8332813
0.8329375
0.8327823
0.8327264
0.8325257
0.8312685
0.8393794
0.8386418
0.8380116
0.8375036
0.8371351
0.8370153
0.8364396
0.8359172
0.8354637
0.8351087
0.8349104
0.8348847
0.8349152
0.8348122
0.8337196
0.8407717
0.8400513
0.8394325
0.8389288
0.8385565
0.8384184
0.8378388
0.8373011
0.8368207
0.836414
0.8361466
0.8360134
0.8360011
0.8360486
0.8359627
0.8221299
0.819494
0.8170626
0.8171201
0.8155587
0.8140856
0.8127566
0.8116265
0.8107508
0.8101835
0.8100021
0.8102958
0.8113138
0.8135389
0.8137727
0.8120419
0.8186501
0.8171232
0.8156789
0.8143762
0.8132682
0.8124026
0.8118254
0.8115736
0.8116942
0.812177
0.812904
0.8127904
0.8123504
0.8102229
0.8201053
0.8186076
0.8171844
0.8158991
0.8148039
0.8139413
0.8133421
0.8130248
0.8129735
0.8131344
0.8133052
0.8129519
0.8124954
0.8117567
0.8094755
0.8215238
0.8200585
0.8186602
0.8173955
0.8163157
0.8154586
0.8148466
0.8144792
0.814327
0.8142988
0.8142446
0.8137132
0.8132049
0.8125955
0.8117287
0.8096547
0.8229291
0.8215022
0.8201379
0.818903
0.8178474
0.8170055
0.8163941
0.8160068
0.8158019
0.8156944
0.8155311
0.8149434
0.8143524
0.8137817
0.8131157
0.8123848
0.8093677
0.8243315
0.8229496
0.8216297
0.8204355
0.8194147
0.8185993
0.8180044
0.817622
0.8174119
0.8172867
0.8171072
0.8165068
0.8159156
0.815318
0.8147394
0.8142205
0.8126354
0.809663
0.82573
0.8243989
0.8231323
0.8219885
0.8210117
0.8202329
0.8196678
0.8193129
0.8191343
0.8190523
0.8189201
0.8183702
0.8178111
0.8172532
0.8166815
0.8162609
0.8149878
0.8134659
0.8105401
0.8271136
0.8258373
0.8246298
0.8235422
0.8226149
0.8218781
0.8213517
0.8210413
0.8209296
0.8209539
0.8209609
0.820518
0.8200565
0.8195669
0.8190598
0.818652
0.8175542
0.8163769
0.8149623
0.8121095
0.8284635
0.8272428
0.826095
0.8250633
0.8241843
0.8234887
0.8230017
0.8227431
0.8227264
0.8229419
0.823265
0.823026
0.8227202
0.8223519
0.8219241
0.8215781
0.8205583
0.8195847
0.8185547
0.8173049
0.8146627
0.8297554
0.8285847
0.8274885
0.8265036
0.8256643
0.8250011
0.8245432
0.8243243
0.8243987
0.8248864
0.8261185
0.8261883
0.8260351
0.8257528
0.8253976
0.8251112
0.8242094
0.8233435
0.8225471
0.8217274
0.8207674
0.8184337
0.8317743
0.830986
0.8303524
0.8298238
0.8293824
0.8291366
0.8283446
0.8276087
0.8269351
0.8263612
0.8258523
0.8252068
0.8232484
0.8354808
0.8346628
0.8339697
0.8334006
0.8329609
0.832758
0.832062
0.8314144
0.8308414
0.8303555
0.8300385
0.8297922
0.8293743
0.8277819
0.8382128
0.8374386
0.8367729
0.8362271
0.835815
0.8356437
0.8350069
0.8344172
0.8338884
0.833449
0.8331543
0.8330186
0.8329196
0.8326686
0.8313492
0.8402122
0.8394736
0.8388362
0.8383129
0.8379189
0.8377565
0.8371489
0.8365804
0.8360661
0.8356215
0.8353117
0.8351301
0.8350625
0.8350447
0.8348842
0.841582
0.8408613
0.8402365
0.8397199
0.8393258
0.8391513
0.838546
0.837973
0.8374426
0.8369703
0.8366058
0.8363532
0.8361795
0.8361209
0.8361143
0.8260328
0.8244655
0.8224097
0.8209051
0.8199903
0.8179237
0.818716
0.8172115
0.8157939
0.814516
0.8134292
0.8125833
0.8120322
0.811835
0.8121009
0.813018
0.8151658
0.8156176
0.8155413
0.8137472
0.8201922
0.8187189
0.8173268
0.8160722
0.8150047
0.814169
0.8136048
0.813351
0.8134343
0.8138728
0.8145066
0.8144647
0.8142854
0.8137898
0.8116904
0.8215983
0.8201513
0.8187777
0.8175379
0.8164815
0.8156476
0.8150647
0.814745
0.814679
0.814796
0.8149334
0.8145482
0.8141826
0.81371
0.8129639
0.8109332
0.8229706
0.8215531
0.8202019
0.8189804
0.8179375
0.8171084
0.8165126
0.8161493
0.8159841
0.8159367
0.815846
0.8153154
0.8147815
0.8142661
0.8136522
0.8129641
0.8099509
0.8243315
0.8229496
0.8216297
0.8204355
0.8194147
0.8185993
0.8180044
0.817622
0.8174119
0.8172867
0.8171072
0.8165068
0.8159156
0.815318
0.8147394
0.8142205
0.8126354
0.809663
0.8256911
0.8243514
0.8230727
0.8219166
0.8209281
0.8201376
0.8195583
0.8191815
0.8189669
0.8188307
0.8186338
0.8180342
0.8174268
0.8168238
0.8162116
0.8157554
0.8144454
0.8128853
0.8099574
0.8270483
0.8257564
0.8245279
0.8234191
0.8224722
0.8217161
0.8211654
0.8208154
0.8206325
0.8205385
0.8203924
0.8198384
0.8192741
0.8186934
0.8181079
0.8176336
0.8164686
0.8152127
0.8137153
0.8108331
0.8283922
0.8271523
0.8259798
0.8249243
0.8240241
0.823308
0.8227943
0.8224874
0.8223695
0.8223795
0.8223678
0.8219207
0.821447
0.8209437
0.8204049
0.8199647
0.8188475
0.8177627
0.8166021
0.8152113
0.8124611
0.8297049
0.8285176
0.827402
0.8263994
0.8255452
0.8248683
0.8243923
0.8241357
0.8241103
0.8243051
0.8245989
0.8243474
0.824027
0.8236369
0.8231855
0.822791
0.8217641
0.8207546
0.8197936
0.8187797
0.8176046
0.8150188
0.8309622
0.8298227
0.8287559
0.827798
0.8269814
0.8263353
0.8258874
0.8256694
0.8257325
0.8261911
0.827361
0.8274065
0.8272318
0.8269274
0.8265427
0.8262167
0.8252862
0.8243932
0.8235376
0.8227535
0.8219961
0.8210705
0.818698
0.8328271
0.8320434
0.8314052
0.8308631
0.8303987
0.8301097
0.8292927
0.8285092
0.8277829
0.8271204
0.8266014
0.8261175
0.8254283
0.8234183
0.836424
0.8356099
0.8349134
0.8343324
0.8338699
0.8336271
0.8329013
0.8322132
0.8315745
0.8310114
0.8305752
0.8302782
0.8299886
0.82952
0.827865
0.8390852
0.8383128
0.8376428
0.8370849
0.836651
0.8364415
0.8357783
0.8351487
0.8345671
0.8340473
0.8336535
0.8333757
0.8331979
0.8330504
0.8327415
0.8410408
0.8403031
0.8396612
0.8391265
0.8387123
0.8385156
0.8378846
0.8372836
0.8367224
0.8362161
0.8358139
0.835519
0.8352968
0.8351828
0.8351107
0.8423882
0.8416686
0.8410402
0.8405138
0.8401024
0.839898
0.8392739
0.8386747
0.8381084
0.8375853
0.8371528
0.8368017
0.8365098
0.8362918
0.8361819
0.8285628
0.8279308
0.8262515
0.8254997
0.8247125
0.8229307
0.8220193
0.8213597
0.8207347
0.8189251
0.8202557
0.8188038
0.8174372
0.8162061
0.8151588
0.8143418
0.8138023
0.8135999
0.8138204
0.8146663
0.8166292
0.8170965
0.8172394
0.816999
0.8151865
0.8216822
0.8202585
0.8189147
0.8177042
0.8166741
0.8158658
0.8153161
0.8150567
0.8151179
0.8154967
0.8160672
0.8159682
0.8158497
0.8155976
0.8150459
0.8131455
0.8230425
0.8216427
0.820315
0.8191175
0.8180969
0.8172898
0.8167218
0.8164038
0.8163204
0.8164103
0.8164994
0.8161037
0.8156993
0.8153046
0.8148027
0.8142077
0.8112295
0.8243716
0.8229988
0.8216913
0.8205101
0.8195015
0.8186982
0.8181183
0.8177588
0.8175864
0.8175182
0.817407
0.8168597
0.8163208
0.8157727
0.8152398
0.814762
0.8132155
0.810246
0.8256911
0.8243514
0.8230727
0.8219166
0.8209281
0.8201376
0.8195583
0.8191815
0.8189669
0.8188307
0.8186338
0.8180342
0.8174268
0.8168238
0.8162116
0.8157554
0.8144454
0.8128853
0.8099574
0.8270107
0.8257103
0.8244703
0.8233496
0.8223915
0.8216242
0.8210598
0.8206888
0.8204715
0.8203259
0.8201183
0.8195176
0.8189082
0.818286
0.8176641
0.8171586
0.8159621
0.8146694
0.8131343
0.8102509
0.8283289
0.8270739
0.8258812
0.8248052
0.8238862
0.8231515
0.8226145
0.8222696
0.8220835
0.8219801
0.8218225
0.8212702
0.8207001
0.8201122
0.8195018
0.8190029
0.8178273
0.8166755
0.8154366
0.8139638
0.8111865
0.8296357
0.8284298
0.8272904
0.8262648
0.8253902
0.8246935
0.8241919
0.8238888
0.8237662
0.8237636
0.8237368
0.8232874
0.8228087
0.8222927
0.8217396
0.8212605
0.8201486
0.819042
0.8179701
0.8168262
0.8155111
0.8128209
0.8309131
0.8297575
0.828672
0.827697
0.826866
0.8262068
0.8257414
0.825487
0.825454
0.8256308
0.8258988
0.8256381
0.8253065
0.8249032
0.8244315
0.8240088
0.8229669
0.8219488
0.8209496
0.8200011
0.8190502
0.8179111
0.8152897
0.8321381
0.8310275
0.8299889
0.8290562
0.8282611
0.8276312
0.8271928
0.8269759
0.8270292
0.8274615
0.8285752
0.8285998
0.8284082
0.8280867
0.8276824
0.8273232
0.8263829
0.82546
0.8245758
0.8237304
0.8230017
0.8222707
0.8213008
0.8188774
0.8338638
0.8330863
0.8324464
0.8318955
0.8314139
0.8310937
0.8302585
0.8294491
0.8286741
0.8279574
0.827345
0.8268469
0.826319
0.8255785
0.8235051
0.8373572
0.8365485
0.8358512
0.8352621
0.8347829
0.8345082
0.833764
0.8330454
0.8323654
0.8317355
0.8312184
0.8307996
0.8304601
0.8301215
0.8295943
0.8399508
0.8391818
0.8385098
0.8379433
0.8374926
0.8372525
0.8365705
0.835914
0.8352917
0.8347182
0.8342411
0.8338623
0.8335437
0.8333193
0.833117
0.8418642
0.8411288
0.8404844
0.8399412
0.8395113
0.8392864
0.8386386
0.8380137
0.8374194
0.8368655
0.8363992
0.8360104
0.8356762
0.8354096
0.835244
0.8431895
0.8424721
0.8418416
0.841308
0.8408828
0.8406538
0.840016
0.8393975
0.8388045
0.838245
0.8377595
0.8373391
0.8369501
0.8366157
0.8363489
0.8298148
0.8301874
0.8287654
0.8287057
0.8281277
0.8266817
0.826297
0.8257257
0.8251741
0.8236526
0.8230583
0.8224408
0.8220407
0.8216071
0.8199985
0.8217434
0.8203402
0.8190208
0.8178329
0.816822
0.8160314
0.8155051
0.8152946
0.8154857
0.8162495
0.8180699
0.8184386
0.8186012
0.8185722
0.8182401
0.8166058
0.8231235
0.821746
0.8204469
0.8192774
0.8182819
0.8174992
0.8169629
0.8167023
0.8167398
0.8170775
0.8175749
0.8174439
0.8172646
0.817064
0.8167386
0.8162982
0.8134407
0.8244412
0.8230853
0.8218004
0.8206422
0.8196548
0.8188727
0.8183192
0.8180029
0.8179084
0.8179705
0.818029
0.8176074
0.8171872
0.816748
0.8163128
0.8159229
0.8144605
0.8115243
0.82573
0.8243989
0.8231323
0.8219885
0.8210117
0.8202329
0.8196678
0.8193129
0.8191343
0.8190523
0.8189201
0.8183702
0.8178111
0.8172532
0.8166815
0.8162609
0.8149878
0.8134659
0.8105401
0.8270107
0.8257103
0.8244703
0.8233496
0.8223915
0.8216242
0.8210598
0.8206888
0.8204715
0.8203259
0.8201183
0.8195176
0.8189082
0.818286
0.8176641
0.8171586
0.8159621
0.8146694
0.8131343
0.8102509
0.8282924
0.8270292
0.8258254
0.824738
0.8238082
0.8230628
0.8225126
0.8221476
0.8219285
0.8217757
0.8215596
0.8209632
0.8203507
0.8197244
0.8190807
0.8185542
0.8173513
0.8161682
0.8148927
0.8133824
0.8106051
0.8295743
0.8283537
0.8271947