/*--------------------------------*- C++ -*----------------------------------*\
| =========                 |                                                 |
| \\      /  F ield         | OpenFOAM: The Open Source CFD Toolbox           |
|  \\    /   O peration     | Version:  2306                                  |
|   \\  /    A nd           | Website:  www.openfoam.com                      |
|    \\/     M anipulation  |                                                 |
\*---------------------------------------------------------------------------*/
FoamFile
{
    version     2.0;
    format      ascii;
    arch        "LSB;label=32;scalar=64";
    class       volScalarField;
    location    "1.2/air";
    object      X.O2;
}
// * * * * * * * * * * * * * * * * * * * * * * * * * * * * * * * * * * * * * //

dimensions      [0 0 0 0 0 0 0];

internalField   nonuniform List<scalar> 
16000
(
0.2069614
0.2069675
0.2056797
0.2069235
0.2069757
0.2057705
0.2069334
0.2032919
0.2055604
0.2068329
0.2069837
0.2058897
0.206945
0.2033988
0.2056812
0.2068537
0.2008234
0.2031517
0.2052534
0.2066587
0.2069884
0.2059915
0.2069555
0.2035452
0.2058328
0.206876
0.2009299
0.2032906
0.205413
0.2067008
0.1984218
0.2006816
0.2028032
0.204695
0.2063408
0.2069884
0.2060486
0.2069618
0.2036752
0.205958
0.2068928
0.201076
0.2034726
0.2056124
0.2067467
0.1985238
0.2008191
0.2029797
0.2048924
0.2064172
0.1961316
0.198286
0.200331
0.2021865
0.2038309
0.2057811
0.1701852
0.2069837
0.2060486
0.2069618
0.20375
0.206027
0.2069024
0.2012062
0.2036302
0.205777
0.2067804
0.1986636
0.2009997
0.203208
0.2051434
0.2065043
0.1962279
0.1984174
0.2005036
0.2023968
0.2040598
0.2058911
0.1939587
0.1960029
0.1979508
0.1997152
0.2012537
0.2026211
0.2048719
0.1714372
0.1686933
0.1699872
0.2069757
0.2059915
0.2069555
0.20375
0.206027
0.2069024
0.2012813
0.2037197
0.2058668
0.2067979
0.1987881
0.2011566
0.2034037
0.2053537
0.2065713
0.1963599
0.1985898
0.2007272
0.2026699
0.2043588
0.2060341
0.1940497
0.1961269
0.1981149
0.1999174
0.2014917
0.2028856
0.2050211
0.1918952
0.1938371
0.1956851
0.1973635
0.1987927
0.1999689
0.2010083
0.2034684
0.1739672
0.1698126
0.1712346
0.1681687
0.1685126
0.169592
0.2069675
0.2058897
0.206945
0.2036752
0.205958
0.2068928
0.2012813
0.2037197
0.2058668
0.2067979
0.1988598
0.201246
0.2035142
0.2054701
0.2066069
0.1964774
0.1987395
0.2009196
0.202904
0.204614
0.2061555
0.1941744
0.1962895
0.1983272
0.20018
0.2018034
0.2032301
0.2052264
0.1919814
0.1939544
0.1958398
0.1975545
0.1990167
0.2002305
0.2013168
0.2036904
0.1899308
0.1917801
0.1935371
0.1951288
0.1964868
0.1975365
0.1983053
0.1989324
0.2013489
0.1778701
0.1720692
0.1737485
0.1692053
0.1696284
0.1708313
0.1678033
0.1680026
0.1681519
0.1690008
0.2069614
0.2057705
0.2069334
0.2035452
0.2058328
0.206876
0.2012062
0.2036302
0.205777
0.2067804
0.1988598
0.201246
0.2035142
0.2054701
0.2066069
0.1965451
0.1988247
0.2010285
0.2030361
0.2047571
0.2062234
0.1942854
0.1964306
0.1985096
0.200406
0.2020721
0.2035246
0.2054063
0.1920995
0.194108
0.1960398
0.197802
0.1993103
0.2005767
0.2017204
0.2039954
0.1900127
0.1918911
0.1936833
0.1953085
0.1966969
0.1977775
0.1985952
0.1993149
0.2017637
0.1880552
0.1898215
0.1914958
0.1930119
0.1942992
0.1952975
0.1959308
0.1962372
0.1963139
0.1981012
0.1835154
0.1755345
0.1775903
0.1712943
0.1718723
0.1733183
0.1687696
0.1690361
0.1692617
0.1702302
0.1673902
0.1676488
0.1676708
0.1676121
0.1682151
0.2056797
0.2069235
0.2033988
0.2056812
0.2068537
0.201076
0.2034726
0.2056124
0.2067467
0.1987881
0.2011566
0.2034037
0.2053537
0.2065713
0.1965451
0.1988247
0.2010285
0.2030361
0.2047571
0.2062234
0.1943494
0.196511
0.1986127
0.200534
0.2022242
0.2036905
0.2055088
0.1922045
0.1942413
0.1962115
0.1980146
0.1995643
0.200877
0.2020658
0.2042577
0.1901248
0.1920365
0.1938722
0.1955412
0.1969715
0.1980969
0.1989817
0.1998083
0.2022654
0.1881333
0.189927
0.1916343
0.1931818
0.1944966
0.1955222
0.1961935
0.1965849
0.1968712
0.1990939
0.1862596
0.1879511
0.1895516
0.1909982
0.1922286
0.193175
0.193783
0.1939611
0.1937166
0.19299
0.1927252
0.180506
0.1829374
0.1745003
0.1752875
0.1770693
0.1707164
0.1711138
0.1714845
0.1726871
0.1682973
0.1686123
0.1686992
0.1687147
0.1694346
0.1668592
0.1672452
0.1673401
0.1671743
0.1668942
0.1670831
0.2032919
0.2055604
0.2068329
0.2009299
0.2032906
0.205413
0.2067008
0.1986636
0.2009997
0.203208
0.2051434
0.2065043
0.1964774
0.1987395
0.2009196
0.202904
0.204614
0.2061555
0.1943494
0.196511
0.1986127
0.200534
0.2022242
0.2036905
0.2055088
0.1922651
0.1943171
0.1963086
0.1981348
0.1997085
0.2010473
0.2022604
0.2044052
0.1902246
0.1921627
0.1940342
0.195741
0.1972085
0.198375
0.1993173
0.2002245
0.2026617
0.1882401
0.1900652
0.1918132
0.1934015
0.1947543
0.1958192
0.1965449
0.1970412
0.1975316
0.1999827
0.1863341
0.1880516
0.1896832
0.1911592
0.1924152
0.1933859
0.1940274
0.1942752
0.1942213
0.1940461
0.1955803
0.1845366
0.1861601
0.1876939
0.1890789
0.1902557
0.1911672
0.1917451
0.1919307
0.1915889
0.1906055
0.1884886
0.1900429
0.1790949
0.1800097
0.1820763
0.173703
0.1742743
0.1748259
0.1763474
0.1701249
0.1705488
0.1707583
0.1709146
0.1718644
0.1677149
0.1681498
0.168299
0.1681966
0.16799
0.1682923
0.1662438
0.1667224
0.1669556
0.1668781
0.1665139
0.1658595
0.1668498
0.2008234
0.2031517
0.2052534
0.2066587
0.1985238
0.2008191
0.2029797
0.2048924
0.2064172
0.1963599
0.1985898
0.2007272
0.2026699
0.2043588
0.2060341
0.1942854
0.1964306
0.1985096
0.200406
0.2020721
0.2035246
0.2054063
0.1922651
0.1943171
0.1963086
0.1981348
0.1997085
0.2010473
0.2022604
0.2044052
0.1902821
0.1922345
0.1941259
0.195854
0.1973428
0.1985333
0.1995075
0.2004567
0.2028741
0.1883352
0.190185
0.1919666
0.1935899
0.1949766
0.1960771
0.1968512
0.1974307
0.1980589
0.2005882
0.1864363
0.1881833
0.1898532
0.1913673
0.1926586
0.1936644
0.1943532
0.1946889
0.1948247
0.1950303
0.1970935
0.184608
0.1862562
0.1878194
0.189232
0.1904328
0.1913668
0.1919745
0.1922235
0.1920501
0.1915741
0.191122
0.1933994
0.1828799
0.1844413
0.1859144
0.1872434
0.1883735
0.1892492
0.1898165
0.1899979
0.1897042
0.1886862
0.1864611
0.1862273
0.1879581
0.1779807
0.1786403
0.1792653
0.1810749
0.172928
0.1734934
0.173852
0.1741836
0.1754551
0.1694389
0.1699678
0.1702187
0.1702357
0.1701703
0.1706992
0.1670549
0.1675758
0.167856
0.1678316
0.1675305
0.1669487
0.1680569
0.1655584
0.1661141
0.1664491
0.1665221
0.1662635
0.1655618
0.1656463
0.1666145
0.1984218
0.2006816
0.2028032
0.204695
0.2063408
0.1962279
0.1984174
0.2005036
0.2023968
0.2040598
0.2058911
0.1941744
0.1962895
0.1983272
0.20018
0.2018034
0.2032301
0.2052264
0.1922045
0.1942413
0.1962115
0.1980146
0.1995643
0.200877
0.2020658
0.2042577
0.1902821
0.1922345
0.1941259
0.195854
0.1973428
0.1985333
0.1995075
0.2004567
0.2028741
0.18839
0.1902532
0.1920534
0.1936964
0.1951025
0.1962236
0.1970255
0.197649
0.1983442
0.2008904
0.1865271
0.1882975
0.189999
0.1915459
0.1928684
0.193906
0.1946366
0.1950433
0.1953099
0.1957291
0.1979689
0.1847058
0.186382
0.1879815
0.18943
0.1906636
0.19163
0.1922802
0.1926079
0.1926022
0.192478
0.1926138
0.1952346
0.1829484
0.1845334
0.1860344
0.1873895
0.1885421
0.1894388
0.1900339
0.1902732
0.1901357
0.1895828
0.1888927
0.189285
0.1914681
0.181284
0.1827885
0.1842061
0.185484
0.1865708
0.1874167
0.1879678
0.188165
0.1878991
0.186982
0.1848342
0.1843824
0.1844587
0.1862528
0.1769417
0.1775592
0.1779593
0.1783929
0.1800015
0.1720827
0.1727318
0.1731018
0.1732645
0.1733859
0.1742464
0.1686889
0.1692908
0.1696585
0.1697332
0.1695531
0.1691142
0.1704592
0.1663298
0.1669231
0.1672986
0.1674177
0.1672122
0.1665734
0.1667342
0.1678196
0.1648275
0.165435
0.165855
0.16604
0.1659455
0.1653775
0.1653656
0.1654313
0.1663773
0.1961316
0.198286
0.200331
0.2021865
0.2038309
0.2057811
0.1940497
0.1961269
0.1981149
0.1999174
0.2014917
0.2028856
0.2050211
0.1920995
0.194108
0.1960398
0.197802
0.1993103
0.2005767
0.2017204
0.2039954
0.1902246
0.1921627
0.1940342
0.195741
0.1972085
0.198375
0.1993173
0.2002245
0.2026617
0.18839
0.1902532
0.1920534
0.1936964
0.1951025
0.1962236
0.1970255
0.197649
0.1983442
0.2008904
0.1865794
0.1883625
0.1900814
0.1916467
0.1929872
0.1940433
0.1947975
0.1952424
0.1955732
0.1960867
0.1983786
0.1847928
0.1864912
0.1881204
0.1895997
0.1908624
0.1918582
0.1925459
0.1929363
0.1930465
0.1931213
0.1935205
0.1962693
0.1830423
0.1846539
0.1861893
0.1875783
0.1887618
0.1896887
0.1903234
0.1906346
0.1906511
0.1904184
0.1902712
0.1910414
0.1935126
0.1813499
0.1828768
0.1843211
0.1856238
0.1867318
0.1875974
0.1881746
0.1884264
0.1883058
0.187823
0.187096
0.1872096
0.1876496
0.1897771
0.1797443
0.1811962
0.1825628
0.1837939
0.1848412
0.1856582
0.1861977
0.1864001
0.1861796
0.1853337
0.1833708
0.1829035
0.1827606
0.183001
0.1848135
0.1758678
0.1765471
0.176928
0.1771624
0.1774502
0.1787107
0.1711945
0.1718979
0.1723651
0.1725569
0.1725349
0.1723008
0.1739979
0.1678837
0.1685486
0.1689991
0.1692035
0.1690991
0.1685844
0.1688967
0.1702174
0.1655634
0.1662044
0.1666603
0.166885
0.1668367
0.1663219
0.1663762
0.1665178
0.1675803
0.164063
0.1647098
0.1651885
0.1654672
0.1654957
0.165114
0.1651949
0.1651677
0.1652145
0.1661381
0.1939587
0.1960029
0.1979508
0.1997152
0.2012537
0.2026211
0.2048719
0.1919814
0.1939544
0.1958398
0.1975545
0.1990167
0.2002305
0.2013168
0.2036904
0.1901248
0.1920365
0.1938722
0.1955412
0.1969715
0.1980969
0.1989817
0.1998083
0.2022654
0.1883352
0.190185
0.1919666
0.1935899
0.1949766
0.1960771
0.1968512
0.1974307
0.1980589
0.2005882
0.1865794
0.1883625
0.1900814
0.1916467
0.1929872
0.1940433
0.1947975
0.1952424
0.1955732
0.1960867
0.1983786
0.1848429
0.1865533
0.188199
0.1896956
0.190975
0.1919877
0.1926968
0.1931204
0.1932879
0.193451
0.1939577
0.1967444
0.1831257
0.1847584
0.1863222
0.1877402
0.188951
0.1899053
0.1905747
0.1909433
0.1910647
0.1910125
0.19111
0.1920742
0.1946686
0.1814401
0.1829925
0.1844695
0.1858044
0.1869416
0.1878357
0.1884498
0.1887691
0.1887914
0.1886056
0.1883766
0.1888355
0.1895804
0.1919407
0.1798078
0.1812811
0.1826732
0.1839278
0.1849953
0.185831
0.1863952
0.186649
0.1865657
0.1861272
0.1854934
0.1855353
0.1857146
0.1862102
0.1883096
0.1782566
0.1796598
0.1809792
0.1821671
0.183178
0.1839686
0.1844949
0.1847054
0.1845143
0.1837505
0.1819301
0.1815614
0.1813988
0.1814278
0.1817599
0.1833942
0.1747813
0.1754962
0.1759563
0.1761896
0.1763024
0.1763075
0.1784466
0.1702665
0.1710195
0.1715524
0.1718549
0.1718802
0.1715427
0.1720777
0.1737479
0.1670459
0.1677504
0.1682722
0.1685701
0.1686092
0.1681991
0.1683849
0.1686775
0.1699737
0.1647668
0.1654438
0.1659545
0.1662683
0.1663368
0.1660016
0.1661385
0.1661773
0.1662997
0.1673391
0.1632771
0.1639504
0.1644746
0.1648195
0.1649512
0.1647109
0.1649426
0.1650107
0.1649682
0.1649958
0.1658462
0.1918952
0.1938371
0.1956851
0.1973635
0.1987927
0.1999689
0.2010083
0.2034684
0.1900127
0.1918911
0.1936833
0.1953085
0.1966969
0.1977775
0.1985952
0.1993149
0.2017637
0.1882401
0.1900652
0.1918132
0.1934015
0.1947543
0.1958192
0.1965449
0.1970412
0.1975316
0.1999827
0.1865271
0.1882975
0.189999
0.1915459
0.1928684
0.193906
0.1946366
0.1950433
0.1953099
0.1957291
0.1979689
0.1848429
0.1865533
0.188199
0.1896956
0.190975
0.1919877
0.1926968
0.1931204
0.1932879
0.193451
0.1939577
0.1967444
0.1831738
0.1848179
0.1863972
0.1878316
0.1890581
0.1900283
0.1907172
0.1911164
0.191289
0.1913171
0.1915148
0.1925616
0.1951959
0.1815204
0.1830928
0.1845967
0.1859592
0.1871222
0.1880421
0.1886888
0.1890614
0.1891812
0.1891612
0.1891551
0.1897929
0.1907115
0.1931771
0.1798947
0.1813924
0.1828156
0.1841009
0.1851961
0.1860587
0.1866579
0.1869752
0.1870265
0.1868656
0.1866948
0.1870481
0.1875046
0.1882433
0.1905245
0.1783178
0.1797415
0.1810853
0.1822958
0.1833259
0.1841342
0.1846839
0.1849433
0.1848821
0.1845033
0.1839328
0.1840318
0.1841503
0.1844024
0.1849541
0.1868545
0.1768174
0.1781751
0.1794508
0.1805988
0.181576
0.1823418
0.1828558
0.1830699
0.1829088
0.1822059
0.1805261
0.1802251
0.1801521
0.1801636
0.1802967
0.1805236
0.1831062
0.1736773
0.1744296
0.1749399
0.1752654
0.1753931
0.1752615
0.1760736
0.1781822
0.1693189
0.1701002
0.1706924
0.1710717
0.1712213
0.17096
0.1713387
0.1718533
0.1734964
0.1661845
0.1669186
0.1674876
0.1678658
0.1680096
0.1677656
0.1680138
0.1681838
0.1684567
0.1697281
0.1639517
0.1646524
0.1652054
0.1655816
0.1657487
0.1655488
0.1658295
0.1659535
0.1659769
0.1660798
0.1670448
0.162477
0.1631691
0.1637255
0.1641225
0.1643286
0.1642071
0.1645492
0.1647698
0.164825
0.164767
0.164729
0.1655477
0.1899308
0.1917801
0.1935371
0.1951288
0.1964868
0.1975365
0.1983053
0.1989324
0.2013489
0.1881333
0.189927
0.1916343
0.1931818
0.1944966
0.1955222
0.1961935
0.1965849
0.1968712
0.1990939
0.1864363
0.1881833
0.1898532
0.1913673
0.1926586
0.1936644
0.1943532
0.1946889
0.1948247
0.1950303
0.1970935
0.1847928
0.1864912
0.1881204
0.1895997
0.1908624
0.1918582
0.1925459
0.1929363
0.1930465
0.1931213
0.1935205
0.1962693
0.1831738
0.1848179
0.1863972
0.1878316
0.1890581
0.1900283
0.1907172
0.1911164
0.191289
0.1913171
0.1915148
0.1925616
0.1951959
0.1815666
0.1831499
0.1846686
0.1860466
0.1872245
0.1881592
0.1888243
0.1892252
0.1893926
0.1894456
0.1895307
0.1902451
0.1912402
0.1937404
0.1799719
0.1814888
0.1829377
0.1842493
0.185369
0.1862559
0.1868859
0.1872535
0.1873961
0.1873899
0.1874246
0.1879383
0.1885548
0.1894418
0.1918011
0.1784017
0.1798487
0.1812223
0.1824621
0.1835185
0.1843524
0.1849353
0.185255
0.185321
0.185204
0.1850666
0.1854518
0.1858174
0.18629
0.1870361
0.1890668
0.1768765
0.178254
0.1795531
0.1807226
0.1817181
0.1825008
0.1830371
0.1832977
0.1832602
0.1829225
0.1824251
0.1825561
0.1827354
0.182936
0.1832614
0.1837018
0.1865593
0.1754233
0.1767387
0.1779736
0.1790844
0.1800303
0.180773
0.1812749
0.1814919
0.1813533
0.1807079
0.1791404
0.1789112
0.1788975
0.1789961
0.1791168
0.1791748
0.1802726
0.1828201
0.1725725
0.1733432
0.1739029
0.1742892
0.1745203
0.1744295
0.1750484
0.1758394
0.1779173
0.1683583
0.1691604
0.1697893
0.1702371
0.1704746
0.1703596
0.1707708
0.1711335
0.1716274
0.1732435
0.1653105
0.1660629
0.166668
0.1671011
0.1673347
0.167214
0.1675919
0.167827
0.1679812
0.1682341
0.1694287
0.1631248
0.163842
0.1644244
0.1648496
0.1650873
0.1650018
0.1653865
0.165656
0.1657671
0.1657747
0.1658115
0.1667438
0.1616684
0.1623733
0.1629535
0.1633887
0.163654
0.1636206
0.1640538
0.1643861
0.1645956
0.1646378
0.1645215
0.1644563
0.1653208
0.1880552
0.1898215
0.1914958
0.1930119
0.1942992
0.1952975
0.1959308
0.1962372
0.1963139
0.1981012
0.1863341
0.1880516
0.1896832
0.1911592
0.1924152
0.1933859
0.1940274
0.1942752
0.1942213
0.1940461
0.1955803
0.1847058
0.186382
0.1879815
0.18943
0.1906636
0.19163
0.1922802
0.1926079
0.1926022
0.192478
0.1926138
0.1952346
0.1831257
0.1847584
0.1863222
0.1877402
0.188951
0.1899053
0.1905747
0.1909433
0.1910647
0.1910125
0.19111
0.1920742
0.1946686
0.1815666
0.1831499
0.1846686
0.1860466
0.1872245
0.1881592
0.1888243
0.1892252
0.1893926
0.1894456
0.1895307
0.1902451
0.1912402
0.1937404
0.1800165
0.1815436
0.1830068
0.1843331
0.1854669
0.1863679
0.1870152
0.1874095
0.1875964
0.1876582
0.1877763
0.1883586
0.1890461
0.1900002
0.1923832
0.1784762
0.1799415
0.1813398
0.1826045
0.1836843
0.1845414
0.1851534
0.1855208
0.185673
0.1857012
0.1857554
0.1862868
0.1867951
0.1874045
0.1882713
0.1903453
0.1769575
0.1783573
0.179685
0.1808825
0.1819031
0.1827102
0.1832782
0.1835962
0.1836796
0.1835897
0.1835006
0.1838963
0.1843007
0.1846954
0.1851973
0.1857923
0.1887705
0.1754805
0.1768149
0.1780723
0.1792037
0.180167
0.1809259
0.1814492
0.1817106
0.1816899
0.1813923
0.1809472
0.1811214
0.1813353
0.1815996
0.1818815
0.1821296
0.1834477
0.1862661
0.1740716
0.1753472
0.1765441
0.1776203
0.1785368
0.1792578
0.1797482
0.1799667
0.1798481
0.1792495
0.1777841
0.1776052
0.1776541
0.1778088
0.178017
0.17808
0.1789471
0.1800232
0.1825358
0.1714697
0.172254
0.1728428
0.173287
0.1735875
0.1736191
0.1742323
0.1748351
0.1756047
0.1776521
0.1673939
0.1682068
0.168864
0.1693566
0.1696717
0.1696626
0.1701825
0.1705804
0.170927
0.1714002
0.1729355
0.1644296
0.1651939
0.1658233
0.1662994
0.166596
0.1665809
0.1670502
0.1674168
0.1676387
0.167777
0.1679627
0.1691224
0.1622916
0.1630194
0.1636234
0.1640841
0.164378
0.1643768
0.1648479
0.1652228
0.1654811
0.1655791
0.1655281
0.1655373
0.1665149
0.1608555
0.1615687
0.1621662
0.1626307
0.1629405
0.1629785
0.1634748
0.1638992
0.1642216
0.1644199
0.1644093
0.1642707
0.1642492
0.1651669
0.1862596
0.1879511
0.1895516
0.1909982
0.1922286
0.193175
0.193783
0.1939611
0.1937166
0.19299
0.1927252
0.184608
0.1862562
0.1878194
0.189232
0.1904328
0.1913668
0.1919745
0.1922235
0.1920501
0.1915741
0.191122
0.1933994
0.1830423
0.1846539
0.1861893
0.1875783
0.1887618
0.1896887
0.1903234
0.1906346
0.1906511
0.1904184
0.1902712
0.1910414
0.1935126
0.1815204
0.1830928
0.1845967
0.1859592
0.1871222
0.1880421
0.1886888
0.1890614
0.1891812
0.1891612
0.1891551
0.1897929
0.1907115
0.1931771
0.1800165
0.1815436
0.1830068
0.1843331
0.1854669
0.1863679
0.1870152
0.1874095
0.1875964
0.1876582
0.1877763
0.1883586
0.1890461
0.1900002
0.1923832
0.1785191
0.1799944
0.1814062
0.182685
0.1837781
0.1846486
0.185277
0.1856697
0.1858638
0.1859557
0.1860874
0.1866809
0.1872524
0.1879243
0.1888466
0.1909285
0.1770294
0.1784469
0.1797981
0.1810196
0.1820625
0.1828916
0.1834874
0.1838507
0.1840159
0.1840633
0.184154
0.1846846
0.1852185
0.1857339
0.1863478
0.1870359
0.1900491
0.1755588
0.1769147
0.1781996
0.1793578
0.1803452
0.1811273
0.1816808
0.1819971
0.1820916
0.1820295
0.181971
0.1823926
0.1828128
0.183252
0.1836872
0.1840771
0.1855395
0.1884757
0.1741269
0.1754209
0.1766394
0.1777354
0.1786687
0.1794051
0.1799159
0.180177
0.1801711
0.1799046
0.1795086
0.1797081
0.1799656
0.180266
0.1806141
0.1808375
0.1819
0.1831952
0.1859747
0.1727594
0.1739979
0.1751591
0.1762029
0.177092
0.1777926
0.1782717
0.178491
0.1783892
0.1778324
0.1764538
0.1763201
0.1764105
0.1766235
0.1768871
0.1770483
0.1778696
0.1787208
0.1797753
0.1822534
0.170376
0.1711653
0.171777
0.1722575
0.1726228
0.1727389
0.1734346
0.1740348
0.1746213
0.1753696
0.1773307
0.1664303
0.1672487
0.1679234
0.1684514
0.1688192
0.1689027
0.1694956
0.1700042
0.1703889
0.1707192
0.1711236
0.1726204
0.1635467
0.1643177
0.1649643
0.1654708
0.1658177
0.1658792
0.1664257
0.1668851
0.1672403
0.167449
0.1675281
0.1676851
0.1688895
0.1614558
0.1621903
0.1628096
0.1632973
0.163633
0.1637001
0.1642304
0.1646927
0.1650577
0.1653048
0.1653497
0.1652761
0.1653289
0.1663597
0.1600414
0.1607594
0.1613695
0.1618561
0.162201
0.1622944
0.1628393
0.1633277
0.1637432
0.1640558
0.1642055
0.164176
0.1640803
0.1641088
0.1650883
0.1835154
0.1845366
0.1861601
0.1876939
0.1890789
0.1902557
0.1911672
0.1917451
0.1919307
0.1915889
0.1906055
0.1884886
0.1900429
0.1829484
0.1845334
0.1860344
0.1873895
0.1885421
0.1894388
0.1900339
0.1902732
0.1901357
0.1895828
0.1888927
0.189285
0.1914681
0.1814401
0.1829925
0.1844695
0.1858044
0.1869416
0.1878357
0.1884498
0.1887691
0.1887914
0.1886056
0.1883766
0.1888355
0.1895804
0.1919407
0.1799719
0.1814888
0.1829377
0.1842493
0.185369
0.1862559
0.1868859
0.1872535
0.1873961
0.1873899
0.1874246
0.1879383
0.1885548
0.1894418
0.1918011
0.1785191
0.1799944
0.1814062
0.182685
0.1837781
0.1846486
0.185277
0.1856697
0.1858638
0.1859557
0.1860874
0.1866809
0.1872524
0.1879243
0.1888466
0.1909285
0.1770709
0.1784978
0.1798621
0.181097
0.1821526
0.1829945
0.1836059
0.1839932
0.1841981
0.1843056
0.1844689
0.1850566
0.1856476
0.1862183
0.1868843
0.1876152
0.1906323
0.1756284
0.1770012
0.1783087
0.1794899
0.1804985
0.1813018
0.1818817
0.1822412
0.1824136
0.1824818
0.182593
0.1831403
0.1836792
0.1842273
0.1847602
0.185238
0.1867845
0.189754
0.1742027
0.1755174
0.1767624
0.1778841
0.1788404
0.1795992
0.1801388
0.1804524
0.1805566
0.1805146
0.180486
0.180918
0.181367
0.1818259
0.1823104
0.1826554
0.1838495
0.185288
0.1881824
0.172813
0.1740692
0.1752513
0.1763141
0.1772193
0.1779347
0.1784334
0.1786935
0.1786998
0.1784608
0.1781036
0.178327
0.1786097
0.1789535
0.1793385
0.1796395
0.1806257
0.1816719
0.1829443
0.1856853
0.1714845
0.172688
0.1738158
0.1748291
0.1756926
0.176374
0.1768423
0.1770616
0.1769745
0.1764542
0.1751532
0.175054
0.1751808
0.1754312
0.1757511
0.1759756
0.1768518
0.1776606
0.178496
0.179529
0.1819138
0.1692938
0.1700843
0.1707094
0.1712191
0.1716265
0.1718197
0.1725653
0.1732499
0.1738369
0.1744073
0.1750846
0.1770018
0.1654712
0.1662909
0.1669773
0.167529
0.1679389
0.1680882
0.1687446
0.1693276
0.1698249
0.1701962
0.1704663
0.1708407
0.1723808
0.1626651
0.1634391
0.1640972
0.1646265
0.1650101
0.1651339
0.1657316
0.1662692
0.1667187
0.1670625
0.1672177
0.1672736
0.1674743
0.1687315
0.1606206
0.1613582
0.1619884
0.1624964
0.1628649
0.1629847
0.1635604
0.1640828
0.1645363
0.1648913
0.1650896
0.1651153
0.1650848
0.1651878
0.1662804
0.1592283
0.1599487
0.1605675
0.1610712
0.1614435
0.1615816
0.1621612
0.1626989
0.1631793
0.163586
0.1638534
0.1639866
0.1639989
0.1639514
0.1640373
0.1778701
0.180506
0.1829374
0.1828799
0.1844413
0.1859144
0.1872434
0.1883735
0.1892492
0.1898165
0.1899979
0.1897042
0.1886862
0.1864611
0.1862273
0.1879581
0.1813499
0.1828768
0.1843211
0.1856238
0.1867318
0.1875974
0.1881746
0.1884264
0.1883058
0.187823
0.187096
0.1872096
0.1876496
0.1897771
0.1798947
0.1813924
0.1828156
0.1841009
0.1851961
0.1860587
0.1866579
0.1869752
0.1870265
0.1868656
0.1866948
0.1870481
0.1875046
0.1882433
0.1905245
0.1784762
0.1799415
0.1813398
0.1826045
0.1836843
0.1845414
0.1851534
0.1855208
0.185673
0.1857012
0.1857554
0.1862868
0.1867951
0.1874045
0.1882713
0.1903453
0.1770709
0.1784978
0.1798621
0.181097
0.1821526
0.1829945
0.1836059
0.1839932
0.1841981
0.1843056
0.1844689
0.1850566
0.1856476
0.1862183
0.1868843
0.1876152
0.1906323
0.1756685
0.1770504
0.1783703
0.1795645
0.1805853
0.1814007
0.1819956
0.182378
0.1825881
0.1827133
0.1828928
0.1834932
0.1840844
0.184682
0.1852606
0.1857795
0.1873646
0.190337
0.17427
0.1756011
0.1768677
0.1780115
0.1789883
0.1797671
0.1803322
0.1806871
0.1808657
0.1809477
0.1810799
0.1816298
0.1821889
0.1827468
0.1833185
0.1837391
0.1850122
0.1865341
0.1894599
0.1728864
0.1741627
0.1753702
0.1764578
0.1773851
0.1781219
0.1786483
0.1789587
0.1790704
0.1790461
0.1790391
0.179482
0.1799435
0.1804331
0.1809402
0.181348
0.1824458
0.1836231
0.1850377
0.1878905
0.1715365
0.1727572
0.173905
0.1749367
0.1758157
0.1765113
0.1769983
0.1772569
0.1772736
0.1770581
0.176735
0.176974
0.1772798
0.1776481
0.1780759
0.1784219
0.1794417
0.1804153
0.1814453
0.1826951
0.1853373
0.1702446
0.1714153
0.1725115
0.1734964
0.1743357
0.1749989
0.1754568
0.1756757
0.1756013
0.1751136
0.1738815
0.1738117
0.1739649
0.1742472
0.1746024
0.1748888
0.1757906
0.1766565
0.1774529
0.1782726
0.1792326
0.1815663
0.1682257
0.169014
0.1696476
0.1701762
0.1706176
0.1708634
0.1716554
0.1723913
0.1730649
0.1736388
0.1741477
0.1747932
0.1767516
0.1645192
0.1653372
0.1660303
0.1665994
0.1670391
0.167242
0.167938
0.1685856
0.1691586
0.1696445
0.1699615
0.1702078
0.1706257
0.1722181
0.1617872
0.1625614
0.1632271
0.1637729
0.164185
0.1643563
0.1649931
0.1655828
0.1661116
0.166551
0.1668457
0.1669814
0.1670804
0.1673314
0.1686508
0.1597878
0.1605264
0.1611638
0.1616871
0.1620811
0.1622435
0.1628511
0.1634196
0.1639339
0.1643785
0.1646883
0.1648699
0.1649375
0.1649553
0.1651158
0.158418
0.1591387
0.1597635
0.1602801
0.1606742
0.1608487
0.161454
0.162027
0.1625574
0.1630297
0.1633942
0.1636468
0.1638205
0.1638791
0.1638857
0.1739672
0.1755345
0.1775903
0.1790949
0.1800097
0.1820763
0.181284
0.1827885
0.1842061
0.185484
0.1865708
0.1874167
0.1879678
0.188165
0.1878991
0.186982
0.1848342
0.1843824
0.1844587
0.1862528
0.1798078
0.1812811
0.1826732
0.1839278
0.1849953
0.185831
0.1863952
0.186649
0.1865657
0.1861272
0.1854934
0.1855353
0.1857146
0.1862102
0.1883096
0.1784017
0.1798487
0.1812223
0.1824621
0.1835185
0.1843524
0.1849353
0.185255
0.185321
0.185204
0.1850666
0.1854518
0.1858174
0.18629
0.1870361
0.1890668
0.1770294
0.1784469
0.1797981
0.1810196
0.1820625
0.1828916
0.1834874
0.1838507
0.1840159
0.1840633
0.184154
0.1846846
0.1852185
0.1857339
0.1863478
0.1870359
0.1900491
0.1756685
0.1770504
0.1783703
0.1795645
0.1805853
0.1814007
0.1819956
0.182378
0.1825881
0.1827133
0.1828928
0.1834932
0.1840844
0.184682
0.1852606
0.1857795
0.1873646
0.190337
0.1743089
0.1756486
0.1769273
0.1780834
0.1790719
0.1798624
0.1804417
0.1808185
0.1810331
0.1811693
0.1813662
0.1819658
0.1825732
0.1831762
0.1837884
0.1842446
0.1855546
0.1871147
0.1900426
0.1729517
0.1742436
0.1754721
0.1765809
0.1775278
0.1782839
0.1788346
0.1791846
0.1793675
0.1794615
0.1796076
0.1801616
0.1807259
0.1813066
0.1818921
0.1823664
0.1835314
0.1847873
0.1862847
0.1891669
0.1716078
0.1728477
0.1740202
0.1750757
0.1759759
0.176692
0.1772057
0.1775126
0.1776305
0.1776205
0.1776322
0.1780793
0.178553
0.1790563
0.1795951
0.1800353
0.1811525
0.1822373
0.1833979
0.1847887
0.1875389
0.1702951
0.1714824
0.172598
0.1736006
0.1744548
0.1751317
0.1756077
0.1758643
0.1758897
0.1756949
0.1754011
0.1756526
0.175973
0.1763631
0.1768145
0.177209
0.1782359
0.1792454
0.1802064
0.1812203
0.1823954
0.1849812
0.1690378
0.1701773
0.1712441
0.172202
0.1730186
0.1736647
0.1741126
0.1743306
0.1742675
0.1738089
0.172639
0.1725935
0.1727682
0.1730726
0.1734573
0.1737833
0.1747138
0.1756068
0.1764624
0.1772465
0.1780039
0.1789295
0.181302
0.1671729
0.1679566
0.1685948
0.1691369
0.1696013
0.1698903
0.1707073
0.1714908
0.1722171
0.1728796
0.1733986
0.1738825
0.1745717
0.1765817
0.163576
0.1643901
0.1650866
0.1656676
0.1661301
0.1663729
0.1670987
0.1677868
0.1684255
0.1689886
0.1694248
0.1697218
0.1700114
0.17048
0.172135
0.1609148
0.1616872
0.1623572
0.1629151
0.163349
0.1635585
0.1642217
0.1648513
0.1654329
0.1659527
0.1663465
0.1666243
0.1668021
0.1669496
0.1672585
0.1589592
0.1596969
0.1603388
0.1608735
0.1612877
0.1614844
0.1621154
0.1627164
0.1632776
0.1637839
0.1641861
0.164481
0.1647032
0.1648172
0.1648893
0.1576118
0.1583314
0.1589598
0.1594862
0.1598976
0.160102
0.1607261
0.1613253
0.1618916
0.1624147
0.1628472
0.1631983
0.1634902
0.1637082
0.1638181
0.1714372
0.1720692
0.1737485
0.1745003
0.1752875
0.1770693
0.1779807
0.1786403
0.1792653
0.1810749
0.1797443
0.1811962
0.1825628
0.1837939
0.1848412
0.1856582
0.1861977
0.1864001
0.1861796
0.1853337
0.1833708
0.1829035
0.1827606
0.183001
0.1848135
0.1783178
0.1797415
0.1810853
0.1822958
0.1833259
0.1841342
0.1846839
0.1849433
0.1848821
0.1845033
0.1839328
0.1840318
0.1841503
0.1844024
0.1849541
0.1868545
0.1769575
0.1783573
0.179685
0.1808825
0.1819031
0.1827102
0.1832782
0.1835962
0.1836796
0.1835897
0.1835006
0.1838963
0.1843007
0.1846954
0.1851973
0.1857923
0.1887705
0.1756284
0.1770012
0.1783087
0.1794899
0.1804985
0.1813018
0.1818817
0.1822412
0.1824136
0.1824818
0.182593
0.1831403
0.1836792
0.1842273
0.1847602
0.185238
0.1867845
0.189754
0.1743089
0.1756486
0.1769273
0.1780834
0.1790719
0.1798624
0.1804417
0.1808185
0.1810331
0.1811693
0.1813662
0.1819658
0.1825732
0.1831762
0.1837884
0.1842446
0.1855546
0.1871147
0.1900426
0.1729893
0.1742897
0.1755297
0.1766504
0.1776085
0.1783758
0.1789402
0.1793112
0.1795285
0.1796741
0.1798817
0.1804824
0.1810918
0.181714
0.1823359
0.1828414
0.1840379
0.1853306
0.1868657
0.1897491
0.1716711
0.1729261
0.1741188
0.1751948
0.1761138
0.1768485
0.1773855
0.1777304
0.1779165
0.1780199
0.1781775
0.1787298
0.1792999
0.1798878
0.1804982
0.1809971
0.1821727
0.1833245
0.1845634
0.1860362
0.1888135
0.1703643
0.1715702
0.1727096
0.1737352
0.1746098
0.1753065
0.1758081
0.1761112
0.1762338
0.1762364
0.1762632
0.1767126
0.1771913
0.1777073
0.1782604
0.1787395
0.1798514
0.180958
0.1820299
0.1831738
0.1844889
0.1871791
0.1690869
0.1702425
0.171328
0.172303
0.173134
0.1737932
0.1742586
0.174513
0.174546
0.1743692
0.1741012
0.1743619
0.1746935
0.1750968
0.1755685
0.1759912
0.1770331
0.1780512
0.1790504
0.1799989
0.1809498
0.1820889
0.1847103
0.1678619
0.1689725
0.1700111
0.1709438
0.1717389
0.1723688
0.1728072
0.1730241
0.1729708
0.1725385
0.1714248
0.1714002
0.1715918
0.1719133
0.1723176
0.1726768
0.1736171
0.17454
0.1754242
0.1762696
0.1769983
0.1777293
0.1786992
0.1811226
0.1661362
0.1669137
0.1675536
0.1681045
0.1685861
0.1689063
0.1697415
0.1705509
0.1713259
0.1720426
0.172655
0.1731531
0.173681
0.1744215
0.1764949
0.1626428
0.1634515
0.1641488
0.1647379
0.1652171
0.1654918
0.166236
0.1669546
0.1676346
0.1682645
0.1687816
0.1692004
0.1695399
0.1698785
0.1704057
0.1600492
0.1608182
0.1614902
0.1620567
0.1625074
0.1627475
0.1634295
0.164086
0.1647083
0.1652818
0.1657589
0.1661377
0.1664563
0.1666807
0.166883
0.1581358
0.1588712
0.1595156
0.1600588
0.1604887
0.1607136
0.1613614
0.1619863
0.1625806
0.1631345
0.1636008
0.1639896
0.1643238
0.1645904
0.164756
0.1568105
0.1575279
0.1581584
0.158692
0.1591172
0.1593462
0.159984
0.1606025
0.1611955
0.161755
0.1622405
0.1626609
0.1630499
0.1633843
0.1636511
0.1701852
0.1698126
0.1712346
0.1712943
0.1718723
0.1733183
0.173703
0.1742743
0.1748259
0.1763474
0.1769417
0.1775592
0.1779593
0.1783929
0.1800015
0.1782566
0.1796598
0.1809792
0.1821671
0.183178
0.1839686
0.1844949
0.1847054
0.1845143
0.1837505
0.1819301
0.1815614
0.1813988
0.1814278
0.1817599
0.1833942
0.1768765
0.178254
0.1795531
0.1807226
0.1817181
0.1825008
0.1830371
0.1832977
0.1832602
0.1829225
0.1824251
0.1825561
0.1827354
0.182936
0.1832614
0.1837018
0.1865593
0.1755588
0.1769147
0.1781996
0.1793578
0.1803452
0.1811273
0.1816808
0.1819971
0.1820916
0.1820295
0.181971
0.1823926
0.1828128
0.183252
0.1836872
0.1840771
0.1855395
0.1884757
0.17427
0.1756011
0.1768677
0.1780115
0.1789883
0.1797671
0.1803322
0.1806871
0.1808657
0.1809477
0.1810799
0.1816298
0.1821889
0.1827468
0.1833185
0.1837391
0.1850122
0.1865341
0.1894599
0.1729893
0.1742897
0.1755297
0.1766504
0.1776085
0.1783758
0.1789402
0.1793112
0.1795285
0.1796741
0.1798817
0.1804824
0.1810918
0.181714
0.1823359
0.1828414
0.1840379
0.1853306
0.1868657
0.1897491
0.1717076
0.1729708
0.1741746
0.175262
0.1761918
0.1769372
0.1774874
0.1778524
0.1780715
0.1782243
0.1784404
0.1790368
0.1796493
0.1802756
0.1809193
0.1814458
0.1826487
0.1838318
0.1851073
0.1866176
0.1893949
0.1704257
0.1716463
0.1728053