/*--------------------------------*- C++ -*----------------------------------*\
| =========                 |                                                 |
| \\      /  F ield         | OpenFOAM: The Open Source CFD Toolbox           |
|  \\    /   O peration     | Version:  2306                                  |
|   \\  /    A nd           | Website:  www.openfoam.com                      |
|    \\/     M anipulation  |                                                 |
\*---------------------------------------------------------------------------*/
FoamFile
{
    version     2.0;
    format      ascii;
    arch        "LSB;label=32;scalar=64";
    class       volScalarField;
    location    "0.9/fuel";
    object      diffSp.H2;
}
// * * * * * * * * * * * * * * * * * * * * * * * * * * * * * * * * * * * * * //

dimensions      [0 2 -1 0 0 0 0];

internalField   nonuniform List<scalar> 
16000
(
0.0001103887
0.000110375
0.0001106912
0.0001104042
0.0001103405
0.0001106953
0.0001103907
0.0001109552
0.0001107036
0.0001104367
0.0001102759
0.0001107023
0.0001103568
0.0001109636
0.0001107079
0.0001104237
0.0001111877
0.0001109652
0.0001107303
0.0001104747
0.0001101559
0.000110713
0.0001102933
0.0001109804
0.000110715
0.0001103909
0.0001111967
0.0001109736
0.0001107347
0.0001104623
0.0001114005
0.0001111957
0.000110987
0.0001107615
0.0001105513
0.0001099894
0.0001107185
0.000110175
0.0001110091
0.0001107259
0.0001103292
0.0001112152
0.0001109905
0.0001107423
0.0001104307
0.0001114091
0.0001112048
0.0001109956
0.0001107662
0.0001105401
0.0001116002
0.0001114071
0.000111214
0.0001110127
0.0001108249
0.0001658542
0.0001097713
0.0001107278
0.0001100109
0.0001110454
0.0001107315
0.0001102136
0.000111247
0.0001110191
0.0001107538
0.000110371
0.0001114271
0.0001112233
0.0001110127
0.0001107743
0.0001105109
0.0001116083
0.0001114157
0.0001112231
0.0001110214
0.0001108302
0.0001658377
0.0001117896
0.0001116056
0.0001114225
0.0001112356
0.0001110653
0.0001662596
0.0001658671
0.0001095712
0.0001107043
0.0001097957
0.0001110977
0.0001107408
0.0001100531
0.00011129
0.0001110552
0.00011076
0.0001102584
0.0001114581
0.000111255
0.0001110415
0.0001107866
0.0001104551
0.0001116252
0.0001114337
0.0001112417
0.0001110388
0.0001108395
0.000165795
0.0001117971
0.0001116137
0.0001114312
0.0001112448
0.0001110744
0.0001662678
0.000165851
0.0001119701
0.000111794
0.0001116189
0.000111441
0.0001112801
0.0001666164
0.0001662701
0.0001658847
0.0001094196
0.0001106742
0.0001095981
0.0001111274
0.0001107175
0.0001098414
0.0001113514
0.000111107
0.0001107699
0.0001101018
0.000111501
0.0001112977
0.0001110778
0.0001107936
0.0001103478
0.0001116543
0.0001114646
0.0001112736
0.000111068
0.0001108535
0.000165713
0.0001118128
0.0001116305
0.0001114493
0.0001112636
0.0001110925
0.000166282
0.0001658088
0.0001119771
0.0001118015
0.000111627
0.0001114497
0.0001112896
0.00016663
0.0001662783
0.0001658689
0.0001121424
0.0001119738
0.0001118056
0.0001116348
0.0001114793
0.0001669355
0.0001666249
0.0001662844
0.0001659005
0.0001093394
0.000110645
0.0001094483
0.000111147
0.0001106877
0.0001096468
0.0001113954
0.0001111363
0.0001107471
0.0001098937
0.0001115618
0.0001113585
0.0001111294
0.0001108042
0.0001101975
0.000111695
0.0001115071
0.0001113162
0.0001111045
0.0001108626
0.0001655547
0.00011184
0.0001116596
0.0001114802
0.0001112956
0.0001111228
0.0001663033
0.000165728
0.0001119917
0.0001118172
0.0001116439
0.0001114679
0.0001113089
0.0001666573
0.0001662925
0.0001658275
0.000112149
0.0001119808
0.0001118131
0.000111643
0.0001114883
0.0001669497
0.0001666385
0.0001662927
0.000165885
0.0001123072
0.0001121456
0.0001119839
0.0001118195
0.0001116683
0.000167232
0.0001669425
0.0001666366
0.0001662972
0.0001659186
0.0001093394
0.000110628
0.0001093691
0.000111156
0.0001106589
0.000109499
0.000111429
0.0001111557
0.000110718
0.0001097022
0.0001116081
0.0001114019
0.0001111585
0.0001107821
0.0001099949
0.0001117525
0.0001115673
0.0001113766
0.0001111562
0.0001108753
0.0001653328
0.0001118781
0.0001117
0.0001115226
0.0001113383
0.0001111603
0.0001663172
0.0001655715
0.000112017
0.0001118443
0.000111673
0.0001114989
0.0001113416
0.0001667026
0.0001663138
0.0001657481
0.0001121627
0.0001119954
0.0001118288
0.00011166
0.0001115068
0.0001669786
0.0001666656
0.000166307
0.0001658444
0.0001123133
0.0001121521
0.0001119909
0.000111827
0.0001116767
0.0001672455
0.0001669566
0.0001666502
0.0001663055
0.0001659035
0.0001124646
0.0001123098
0.0001121544
0.0001119961
0.0001118491
0.0001675136
0.0001672377
0.0001669521
0.0001666469
0.0001663119
0.0004041236
0.0001094196
0.000110628
0.0001093691
0.0001111596
0.0001106422
0.0001094208
0.0001114493
0.0001111646
0.0001106897
0.0001095565
0.0001116447
0.0001114351
0.0001111779
0.0001107536
0.0001098075
0.0001117977
0.0001116132
0.0001114197
0.0001111852
0.0001108548
0.0001650328
0.0001119319
0.000111757
0.0001115825
0.0001113985
0.0001112129
0.0001663362
0.0001653521
0.0001120528
0.0001118822
0.0001117132
0.0001115412
0.0001113848
0.0001667585
0.0001663274
0.0001655938
0.0001121864
0.0001120206
0.0001118559
0.0001116891
0.0001115383
0.0001670275
0.0001667106
0.0001663284
0.0001657663
0.0001123262
0.0001121657
0.0001120055
0.0001118428
0.0001116939
0.0001672732
0.0001669854
0.0001666772
0.0001663199
0.0001658637
0.0001124703
0.0001123159
0.0001121609
0.0001120031
0.0001118568
0.0001675261
0.0001672511
0.0001669662
0.0001666605
0.0001663203
0.0004040901
0.0001126149
0.0001124667
0.0001123176
0.0001121653
0.0001120225
0.0001677832
0.0001675183
0.0001672458
0.0001669607
0.0001666589
0.0004050524
0.0004042504
0.0001095712
0.000110645
0.0001094483
0.0001111596
0.0001106422
0.0001094208
0.0001114592
0.0001111682
0.0001106733
0.0001094794
0.0001116679
0.0001114553
0.0001111869
0.0001107259
0.0001096645
0.0001118337
0.0001116494
0.0001114527
0.0001112046
0.0001108275
0.0001647552
0.0001119749
0.0001118017
0.0001116279
0.0001114412
0.0001112424
0.0001663056
0.0001650551
0.0001121031
0.0001119355
0.0001117699
0.0001116008
0.0001114455
0.0001668367
0.000166346
0.000165377
0.00011222
0.0001120561
0.0001118936
0.0001117292
0.000111581
0.000167092
0.0001667659
0.0001663419
0.000165614
0.0001123485
0.0001121894
0.0001120307
0.0001118699
0.0001117234
0.0001673203
0.0001670339
0.000166722
0.0001663413
0.0001657872
0.0001124825
0.0001123287
0.0001121746
0.0001120178
0.0001118728
0.0001675519
0.0001672787
0.0001669949
0.0001666875
0.0001663347
0.0004040014
0.0001126204
0.0001124725
0.0001123237
0.0001121718
0.0001120296
0.0001677947
0.0001675307
0.0001672591
0.0001669747
0.0001666725
0.000405073
0.0004042241
0.0001127585
0.0001126167
0.0001124737
0.0001123273
0.000112189
0.0001680421
0.0001677871
0.0001675251
0.0001672529
0.0001669705
0.0004058749
0.0004051452
0.0004044297
0.0001097713
0.0001106742
0.0001095981
0.000111156
0.0001106589
0.000109499
0.0001114592
0.0001111682
0.0001106733
0.0001094794
0.0001116793
0.0001114651
0.0001111906
0.0001107097
0.0001095887
0.0001118569
0.0001116723
0.0001114728
0.0001112136
0.0001108005
0.0001645432
0.0001120093
0.0001118373
0.0001116638
0.0001114741
0.0001112621
0.0001662652
0.0001647804
0.0001121438
0.0001119781
0.0001118142
0.0001116459
0.0001114883
0.0001668804
0.0001663152
0.0001650832
0.0001122672
0.000112106
0.0001119466
0.0001117856
0.0001116408
0.0001671821
0.0001668431
0.0001663602
0.0001653998
0.0001123801
0.0001122227
0.0001120661
0.0001119075
0.0001117637
0.0001673838
0.0001670977
0.0001667768
0.0001663548
0.0001656371
0.0001125035
0.0001123509
0.0001121982
0.000112043
0.0001119001
0.0001675959
0.0001673254
0.0001670432
0.000166732
0.0001663564
0.0004038295
0.0001126319
0.0001124846
0.0001123366
0.0001121856
0.0001120445
0.0001678186
0.0001675564
0.0001672866
0.0001670032
0.0001666994
0.0004051085
0.0004041518
0.0001127636
0.0001126222
0.0001124795
0.0001123335
0.0001121956
0.0001680528
0.0001677985
0.0001675374
0.0001672661
0.0001669845
0.0004059073
0.0004051655
0.0004044137
0.0001128954
0.00011276
0.000112623
0.0001124825
0.0001123488
0.0001682908
0.0001680453
0.0001677928
0.000167531
0.0001672611
0.0004066161
0.0004059456
0.000405276
0.0004045931
0.0001099894
0.0001107043
0.0001097957
0.000111147
0.0001106877
0.0001096468
0.0001114493
0.0001111646
0.0001106897
0.0001095565
0.0001116793
0.0001114651
0.0001111906
0.0001107097
0.0001095887
0.0001118684
0.0001116837
0.0001114825
0.0001112173
0.0001107849
0.0001644307
0.0001120316
0.0001118603
0.0001116867
0.0001114941
0.0001112714
0.0001662253
0.0001645707
0.0001121763
0.0001120122
0.0001118496
0.0001116816
0.0001115212
0.0001669096
0.0001662751
0.0001648116
0.0001123057
0.0001121463
0.0001119888
0.0001118295
0.0001116859
0.0001672456
0.000166886
0.0001663294
0.0001651089
0.0001124246
0.0001122696
0.0001121157
0.0001119603
0.0001118202
0.0001674727
0.0001671868
0.0001668531
0.0001663726
0.0001654257
0.0001125335
0.0001123824
0.0001122315
0.0001120783
0.0001119379
0.000167656
0.0001673883
0.0001671063
0.0001667863
0.0001663698
0.0004034854
0.0001126518
0.0001125056
0.0001123588
0.0001122091
0.0001120699
0.0001678595
0.0001676001
0.000167333
0.0001670512
0.0001667437
0.0004051607
0.0004040097
0.0001127746
0.0001126336
0.0001124916
0.0001123463
0.0001122095
0.000168075
0.0001678223
0.000167563
0.0001672934
0.000167013
0.000405971
0.0004052004
0.0004043652
0.0001129003
0.0001127651
0.0001126285
0.0001124882
0.000112355
0.0001683007
0.0001680559
0.0001678042
0.0001675433
0.0001672743
0.0004066492
0.0004059758
0.000405297
0.0004045892
0.0001130259
0.0001128966
0.0001127656
0.0001126309
0.000112502
0.0001685296
0.0001682934
0.0001680501
0.0001677977
0.0001675379
0.0004073093
0.0004066696
0.0004060457
0.0004053894
0.0004047615
0.0001101559
0.0001107278
0.0001100109
0.0001111274
0.0001107175
0.0001098414
0.000111429
0.0001111557
0.000110718
0.0001097022
0.0001116679
0.0001114553
0.0001111869
0.0001107259
0.0001096645
0.0001118684
0.0001116837
0.0001114825
0.0001112173
0.0001107849
0.0001644307
0.0001120427
0.0001118718
0.000111698
0.0001115037
0.0001112752
0.0001662022
0.0001644594
0.0001121976
0.0001120343
0.0001118724
0.0001117043
0.0001115412
0.0001669235
0.0001662357
0.0001646041
0.0001123366
0.0001121786
0.0001120227
0.0001118647
0.0001117215
0.0001672944
0.0001669148
0.0001662896
0.0001648402
0.0001124611
0.0001123077
0.0001121556
0.0001120021
0.0001118641
0.0001675395
0.0001672494
0.0001668953
0.0001663417
0.0001651376
0.0001125756
0.0001124265
0.000112278
0.0001121277
0.0001119907
0.00016774
0.0001674762
0.0001671945
0.0001668617
0.0001663875
0.0004029926
0.0001126804
0.0001125354
0.0001123901
0.0001122423
0.0001121053
0.0001679157
0.0001676596
0.0001673953
0.0001671137
0.0001667975
0.0004051905
0.0004037013
0.0001127936
0.0001126535
0.0001125126
0.0001123685
0.0001122332
0.0001681129
0.0001678629
0.0001676064
0.0001673396
0.0001670607
0.0004060752
0.0004052519
0.0004042664
0.0001129108
0.000112776
0.0001126399
0.0001125004
0.000112368
0.0001683214
0.000168078
0.0001678279
0.0001675687
0.0001673015
0.0004067163
0.0004060346
0.0004053336
0.0004045689
0.0001130306
0.0001129016
0.0001127708
0.0001126363
0.0001125078
0.0001685389
0.0001683033
0.0001680607
0.0001678091
0.0001675502
0.0004073406
0.0004067002
0.000406074
0.0004054114
0.000404771
0.0001131502
0.0001130269
0.0001129018
0.0001127728
0.0001126487
0.0001687586
0.0001685317
0.0001682975
0.0001680543
0.0001678036
0.0004079716
0.0004073487
0.0004067475
0.0004061298
0.000405504
0.0001102759
0.0001107185
0.000110175
0.0001110977
0.0001107408
0.0001100531
0.0001113954
0.0001111363
0.0001107471
0.0001098937
0.0001116447
0.0001114351
0.0001111779
0.0001107536
0.0001098075
0.0001118569
0.0001116723
0.0001114728
0.0001112136
0.0001108005
0.0001645432
0.0001120427
0.0001118718
0.000111698
0.0001115037
0.0001112752
0.0001662022
0.0001644594
0.0001122082
0.0001120453
0.0001118838
0.0001117155
0.0001115509
0.0001669292
0.0001662128
0.0001644941
0.0001123568
0.0001121997
0.0001120446
0.0001118874
0.0001117441
0.0001673242
0.0001669285
0.0001662506
0.000164635
0.0001124905
0.0001123384
0.0001121878
0.0001120357
0.0001118991
0.0001675924
0.0001672976
0.0001669237
0.0001663022
0.0001648718
0.0001126104
0.0001124628
0.0001123159
0.0001121673
0.0001120324
0.0001678051
0.0001675422
0.0001672562
0.0001669031
0.0001663565
0.0004023213
0.0001127203
0.0001125772
0.000112434
0.0001122886
0.0001121547
0.0001679943
0.0001677428
0.0001674824
0.000167201
0.0001668723
0.0004052264
0.0004032271
0.0001128208
0.0001126819
0.0001125423
0.0001123998
0.0001122664
0.0001681656
0.0001679186
0.0001676654
0.0001674013
0.0001671226
0.0004061983
0.000405276
0.0004040077
0.0001129289
0.0001127949
0.0001126598
0.0001125213
0.0001123903
0.0001683569
0.0001681157
0.0001678681
0.0001676118
0.0001673474
0.0004068277
0.0004061305
0.0004053895
0.0004045243
0.0001130406
0.000112912
0.0001127817
0.0001126478
0.00011252
0.0001685583
0.0001683239
0.0001680827
0.0001678326
0.0001675754
0.0004074045
0.0004067614
0.0004061285
0.0004054506
0.000404783
0.0001131547
0.0001130316
0.0001129067
0.0001127779
0.0001126542
0.0001687673
0.000168541
0.0001683073
0.0001680648
0.0001678149
0.0004080005
0.0004073774
0.0004067754
0.0004061559
0.0004055273
0.0001132685
0.0001131511
0.0001130316
0.0001129083
0.0001127891
0.0001689781
0.0001687604
0.0001685352
0.000168301
0.0001680592
0.0004086087
0.000407999
0.0004074088
0.000406811
0.0004062136
0.0001103405
0.000110713
0.0001102933
0.0001110454
0.0001107315
0.0001102136
0.0001113514
0.000111107
0.0001107699
0.0001101018
0.0001116081
0.0001114019
0.0001111585
0.0001107821
0.0001099949
0.0001118337
0.0001116494
0.0001114527
0.0001112046
0.0001108275
0.0001647552
0.0001120316
0.0001118603
0.0001116867
0.0001114941
0.0001112714
0.0001662253
0.0001645707
0.0001122082
0.0001120453
0.0001118838
0.0001117155
0.0001115509
0.0001669292
0.0001662128
0.0001644941
0.0001123669
0.0001122103
0.0001120556
0.0001118987
0.0001117553
0.0001673386
0.0001669342
0.000166228
0.0001645261
0.0001125098
0.0001123585
0.0001122087
0.0001120576
0.0001119217
0.0001676261
0.0001673271
0.0001669373
0.0001662636
0.0001646687
0.0001126385
0.000112492
0.0001123464
0.0001121992
0.0001120659
0.0001678572
0.0001675945
0.0001673039
0.0001669311
0.0001663173
0.0004017046
0.0001127536
0.0001126117
0.00011247
0.0001123262
0.0001121942
0.0001680563
0.0001678071
0.0001675475
0.0001672618
0.0001669129
0.0004051486
0.0004025747
0.0001128589
0.0001127216
0.0001125838
0.0001124435
0.0001123128
0.0001682392
0.0001679965
0.0001677478
0.0001674875
0.0001672091
0.000406368
0.0004053016
0.000403543
0.000112955
0.000112822
0.000112688
0.0001125509
0.0001124216
0.0001684064
0.0001681679
0.0001679234
0.0001676702
0.0001674085
0.0004069699
0.0004062388
0.0004054146
0.0004043369
0.000113058
0.00011293
0.0001128006
0.0001126676
0.000112541
0.0001685916
0.0001683591
0.0001681201
0.0001678726
0.0001676183
0.0004075115
0.000406863
0.0004062181
0.000405514
0.000404806
0.0001131643
0.0001130416
0.0001129171
0.0001127889
0.0001126658
0.0001687856
0.0001685603
0.0001683278
0.0001680866
0.0001678383
0.0004080599
0.0004074355
0.0004068307
0.0004062058
0.0004055702
0.0001132728
0.0001131556
0.0001130363
0.0001129132
0.0001127943
0.0001689863
0.000168769
0.0001685444
0.0001683108
0.0001680697
0.0004086354
0.0004080256
0.0004074348
0.0004068359
0.0004062375
0.0001133808
0.0001132691
0.0001131553
0.0001130376
0.0001129234
0.0001691882
0.0001689795
0.0001687634
0.0001685382
0.0001683052
0.0004092231
0.0004086261
0.0004080445
0.0004074561
0.0004068738
0.000110375
0.0001107023
0.0001103568
0.0001110091
0.0001107259
0.0001103292
0.00011129
0.0001110552
0.00011076
0.0001102584
0.0001115618
0.0001113585
0.0001111294
0.0001108042
0.0001101975
0.0001117977
0.0001116132
0.0001114197
0.0001111852
0.0001108548
0.0001650328
0.0001120093
0.0001118373
0.0001116638
0.0001114741
0.0001112621
0.0001662652
0.0001647804
0.0001121976
0.0001120343
0.0001118724
0.0001117043
0.0001115412
0.0001669235
0.0001662357
0.0001646041
0.0001123669
0.0001122103
0.0001120556
0.0001118987
0.0001117553
0.0001673386
0.0001669342
0.000166228
0.0001645261
0.0001125195
0.0001123685
0.0001122192
0.0001120685
0.000111933
0.0001676427
0.0001673414
0.0001669429
0.0001662413
0.000164561
0.0001126569
0.0001125112
0.0001123664
0.0001122201
0.0001120877
0.0001678908
0.0001676278
0.000167333
0.0001669445
0.0001662791
0.000401234
0.0001127805
0.0001126396
0.0001124991
0.0001123566
0.000112226
0.0001681062
0.0001678587
0.0001675993
0.0001673089
0.0001669405
0.0004050559
0.0004019888
0.0001128908
0.0001127547
0.0001126182
0.0001124793
0.0001123503
0.000168298
0.0001680578
0.0001678114
0.0001675518
0.000167269
0.0004064576
0.0004052102
0.000402883
0.0001129914
0.0001128599
0.0001127276
0.0001125923
0.0001124653
0.0001684755
0.0001682408
0.0001680006
0.0001677519
0.000167494
0.000407168
0.0004063938
0.00040544
0.0004038379
0.000113083
0.0001129559
0.0001128275
0.0001126958
0.0001125707
0.0001686382
0.0001684082
0.0001681719
0.0001679274
0.0001676762
0.0004076522
0.000406989
0.0004063149
0.0004055471
0.0004047383
0.000113181
0.0001130589
0.0001129351
0.0001128077
0.0001126857
0.000168817
0.0001685933
0.0001683628
0.0001681238
0.000167878
0.0004081599
0.0004075328
0.0004069231
0.0004062896
0.0004056455
0.000113282
0.0001131651
0.0001130462
0.0001129236
0.0001128053
0.0001690036
0.0001687872
0.0001685636
0.0001683312
0.0001680914
0.0004086904
0.0004080795
0.0004074867
0.0004068847
0.000406283
0.000113385
0.0001132735
0.0001131598
0.0001130422
0.0001129283
0.000169196
0.0001689877
0.000168772
0.0001685473
0.000168315
0.0004092478
0.0004086505
0.0004080684
0.000407479
0.0004068956
0.0001134874
0.0001133813
0.000113273
0.0001131608
0.0001130515
0.0001693891
0.0001691893
0.0001689821
0.0001687658
0.0001685418
0.0004098153
0.0004092321
0.0004086594
0.0004080786
0.0004075027
0.0001103887
0.0001106953
0.0001103907
0.0001109804
0.000110715
0.0001103909
0.000111247
0.0001110191
0.0001107538
0.000110371
0.000111501
0.0001112977
0.0001110778
0.0001107936
0.0001103478
0.0001117525
0.0001115673
0.0001113766
0.0001111562
0.0001108753
0.0001653328
0.0001119749
0.0001118017
0.0001116279
0.0001114412
0.0001112424
0.0001663056
0.0001650551
0.0001121763
0.0001120122
0.0001118496
0.0001116816
0.0001115212
0.0001669096
0.0001662751
0.0001648116
0.0001123568
0.0001121997
0.0001120446
0.0001118874
0.0001117441
0.0001673242
0.0001669285
0.0001662506
0.000164635
0.0001125195
0.0001123685
0.0001122192
0.0001120685
0.000111933
0.0001676427
0.0001673414
0.0001669429
0.0001662413
0.000164561
0.0001126662
0.0001125208
0.0001123764
0.0001122305
0.0001120986
0.0001679076
0.0001676444
0.0001673472
0.0001669502
0.000166257
0.0004009844
0.0001127982
0.000112658
0.0001125182
0.0001123764
0.0001122468
0.0001681386
0.000167892
0.0001676323
0.0001673378
0.0001669538
0.0004049673
0.0004015464
0.0001129166
0.0001127814
0.0001126459
0.0001125081
0.0001123805
0.0001683453
0.0001681072
0.0001678624
0.000167603
0.0001673156
0.00040652
0.0004051149
0.0004023106
0.0001130221
0.0001128916
0.0001127604
0.0001126265
0.000112501
0.0001685312
0.000168299
0.0001680613
0.0001678148
0.0001675575
0.0004073035
0.0004064637
0.0004053284
0.0004031458
0.0001131179
0.0001129922
0.0001128653
0.0001127352
0.0001126121
0.0001687034
0.0001684767
0.0001682443
0.000168004
0.0001677572
0.0004078489
0.0004071729
0.0004064683
0.0004055627
0.0004042027
0.0001132051
0.0001130838
0.0001129609
0.0001128346
0.0001127139
0.0001688612
0.0001686396
0.0001684115
0.0001681752
0.0001679323
0.0004082934
0.0004076581
0.0004070348
0.0004063764
0.0004057014
0.000113298
0.0001131817
0.0001130635
0.0001129416
0.0001128242
0.0001690333
0.0001688184
0.0001685965
0.0001683659
0.0001681284
0.0004087832
0.0004081702
0.0004075743
0.0004069674
0.0004063622
0.0001133938
0.0001132826
0.0001131693
0.0001130522
0.0001129388
0.0001692124
0.0001690049
0.0001687901
0.0001685664
0.0001683352
0.0004092988
0.0004087004
0.0004081163
0.0004075241
0.0004069376
0.0001134914
0.0001133855
0.0001132773
0.0001131653
0.0001130562
0.0001693965
0.0001691971
0.0001689902
0.0001687744
0.0001685509
0.0004098383
0.0004092546
0.0004086813
0.0004080995
0.0004075223
0.0001135883
0.0001134878
0.0001133849
0.000113278
0.0001131737
0.0001695809
0.00016939
0.0001691915
0.0001689842
0.0001687689
0.0004103856
0.0004098173
0.0004092552
0.0004086825
0.0004081119
0.0001106912
0.0001104042
0.0001109636
0.0001107079
0.0001104237
0.0001112152
0.0001109905
0.0001107423
0.0001104307
0.0001114581
0.000111255
0.0001110415
0.0001107866
0.0001104551
0.000111695
0.0001115071
0.0001113162
0.0001111045
0.0001108626
0.0001655547
0.0001119319
0.000111757
0.0001115825
0.0001113985
0.0001112129
0.0001663362
0.0001653521
0.0001121438
0.0001119781
0.0001118142
0.0001116459
0.0001114883
0.0001668804
0.0001663152
0.0001650832
0.0001123366
0.0001121786
0.0001120227
0.0001118647
0.0001117215
0.0001672944
0.0001669148
0.0001662896
0.0001648402
0.0001125098
0.0001123585
0.0001122087
0.0001120576
0.0001119217
0.0001676261
0.0001673271
0.0001669373
0.0001662636
0.0001646687
0.0001126662
0.0001125208
0.0001123764
0.0001122305
0.0001120986
0.0001679076
0.0001676444
0.0001673472
0.0001669502
0.000166257
0.0004009844
0.0001128071
0.0001126672
0.0001125277
0.0001123864
0.0001122572
0.0001681548
0.0001679086
0.0001676487
0.0001673518
0.0001669593
0.0004049166
0.0004013131
0.0001129337
0.000112799
0.0001126642
0.0001125271
0.0001124003
0.0001683762
0.0001681393
0.0001678955
0.0001676357
0.0001673441
0.0004065504
0.000405029
0.0004018869
0.000113047
0.0001129173
0.000112787
0.0001126541
0.0001125297
0.0001685762
0.0001683459
0.0001681102
0.0001678653
0.0001676081
0.0004074102
0.0004065146
0.0004052253
0.0004025736
0.0001131476
0.0001130227
0.0001128968
0.0001127679
0.0001126462
0.0001687565
0.000168532
0.0001683019
0.000168064
0.0001678194
0.0004079938
0.0004072892
0.0004065167
0.0004054262
0.0004034331
0.0001132387
0.0001131185
0.000112997
0.0001128722
0.0001127533
0.000168923
0.0001687044
0.0001684796
0.000168247
0.0001680084
0.0004084807
0.0004078427
0.0004072178
0.0004065279
0.0004057427
0.00113149
0.0001133213
0.0001132057
0.0001130883
0.0001129673
0.0001128512
0.0001690754
0.0001688623
0.0001686425
0.0001684142
0.0001681793
0.0004089087
0.0004082898
0.0004076853
0.0004070643
0.0004064428
0.0001134093
0.0001132986
0.0001131859
0.0001130694
0.0001129568
0.0001692407
0.0001690344
0.0001688211
0.0001685991
0.0001683698
0.0004093852
0.0004087847
0.0004081977
0.0004076011
0.0004070108
0.0001135
0.0001133943
0.0001132865
0.0001131748
0.0001130662
0.0001694121
0.0001692134
0.0001690073
0.0001687924
0.0001685699
0.0004098859
0.0004093009
0.0004087255
0.0004081407
0.0004075601
0.0001135922
0.0001134918
0.000113389
0.0001132823
0.0001131782
0.0001695879
0.0001693973
0.0001691992
0.0001689923
0.0001687775
0.000410407
0.0004098382
0.0004092754
0.0004087015
0.0004081295
0.0001136838
0.0001135886
0.000113491
0.0001133895
0.0001132901
0.0001697638
0.0001695816
0.0001693918
0.0001691933
0.0001689868
0.0004109339
0.0004103817
0.0004098319
0.0004092691
0.0004087048
0.0001109552
0.0001107036
0.0001104367
0.0001111967
0.0001109736
0.0001107347
0.0001104623
0.0001114271
0.0001112233
0.0001110127
0.0001107743
0.0001105109
0.0001116543
0.0001114646
0.0001112736
0.000111068
0.0001108535
0.000165713
0.0001118781
0.0001117
0.0001115226
0.0001113383
0.0001111603
0.0001663172
0.0001655715
0.0001121031
0.0001119355
0.0001117699
0.0001116008
0.0001114455
0.0001668367
0.000166346
0.000165377
0.0001123057
0.0001121463
0.0001119888
0.0001118295
0.0001116859
0.0001672456
0.000166886
0.0001663294
0.0001651089
0.0001124905
0.0001123384
0.0001121878
0.0001120357
0.0001118991
0.0001675924
0.0001672976
0.0001669237
0.0001663022
0.0001648718
0.0001126569
0.0001125112
0.0001123664
0.0001122201
0.0001120877
0.0001678908
0.0001676278
0.000167333
0.0001669445
0.0001662791
0.000401234
0.0001128071
0.0001126672
0.0001125277
0.0001123864
0.0001122572
0.0001681548
0.0001679086
0.0001676487
0.0001673518
0.0001669593
0.0004049166
0.0004013131
0.0001129422
0.0001128078
0.0001126734
0.0001125366
0.0001124102
0.0001683917
0.0001681554
0.000167912
0.0001676519
0.0001673581
0.0004065636
0.0004049811
0.0004016653
0.0001130634
0.0001129343
0.0001128046
0.0001126722
0.0001125486
0.0001686057
0.0001683766
0.0001681421
0.000167898
0.0001676405
0.0004074761
0.0004065396
0.000405139
0.0004021611
0.0001131716
0.0001130475
0.0001129224
0.0001127944
0.0001126737
0.0001687994
0.0001685766
0.0001683484
0.0001681125
0.0001678694
0.0004081104
0.0004073829
0.0004065544
0.000405313
0.0004028357
0.0001132674
0.000113148
0.0001130274
0.0001129036
0.0001127859
0.0001689737
0.000168757
0.0001685344
0.0001683041
0.0001680678
0.0004086233
0.0004079705
0.0004073148
0.0004065552
0.0004055592
0.001128024
0.0001133537
0.0001132391
0.0001131229
0.0001130033
0.0001128887
0.0001691342
0.0001689237
0.0001687068
0.0001684818
0.0001682507
0.0004090852
0.0004084673
0.0004078704
0.0004072496
0.0004066335
0.00113645
0.001132559
0.0001134318
0.0001133217
0.0001132098
0.0001130942
0.0001129826
0.0001692808
0.0001690762
0.0001688647
0.0001686447
0.0001684177
0.0004095032
0.0004088977
0.0004083039
0.0004076965
0.0004070922
0.0001135149
0.0001134097
0.0001133024
0.0001131913
0.0001130835
0.0001694391
0.0001692415
0.0001690367
0.0001688232
0.0001686023
0.0004099667
0.0004093794
0.0004088009
0.0004082115
0.0004076261
0.0001136005
0.0001135003
0.0001133979
0.0001132915
0.0001131878
0.0001696029
0.0001694129
0.0001692155
0.0001690093
0.0001687953
0.0004104516
0.0004098813
0.0004093163
0.0004087393
0.0004081636
0.0001136875
0.0001135925
0.000113495
0.0001133937
0.0001132944
0.0001697706
0.0001695886
0.0001693992
0.0001692009
0.0001689949
0.0004109541
0.0004104012
0.0004098506
0.0004092865
0.0004087207
0.0001137738
0.000113684
0.0001135916
0.0001134953
0.0001134008
0.0001699381
0.0001697644
0.0001695832
0.0001693933
0.0001691955
0.0004114605
0.0004109252
0.0004103892
0.0004098381
0.0004092822
0.0001111877
0.0001109652
0.0001107303
0.0001104747
0.0001114091
0.0001112048
0.0001109956
0.0001107662
0.0001105401
0.0001116252
0.0001114337
0.0001112417
0.0001110388
0.0001108395
0.000165795
0.00011184
0.0001116596
0.0001114802
0.0001112956
0.0001111228
0.0001663033
0.000165728
0.0001120528
0.0001118822
0.0001117132
0.0001115412
0.0001113848
0.0001667585
0.0001663274
0.0001655938
0.0001122672
0.000112106
0.0001119466
0.0001117856
0.0001116408
0.0001671821
0.0001668431
0.0001663602
0.0001653998
0.0001124611
0.0001123077
0.0001121556
0.0001120021
0.0001118641
0.0001675395
0.0001672494
0.0001668953
0.0001663417
0.0001651376
0.0001126385
0.000112492
0.0001123464
0.0001121992
0.0001120659
0.0001678572
0.0001675945
0.0001673039
0.0001669311
0.0001663173
0.0004017046
0.0001127982
0.000112658
0.0001125182
0.0001123764
0.0001122468
0.0001681386
0.000167892
0.0001676323
0.0001673378
0.0001669538
0.0004049673
0.0004015464
0.0001129422
0.0001128078
0.0001126734
0.0001125366
0.0001124102
0.0001683917
0.0001681554
0.000167912
0.0001676519
0.0001673581
0.0004065636
0.0004049811
0.0004016653
0.0001130717
0.0001129428
0.0001128134
0.0001126814
0.0001125581
0.0001686205
0.000168392
0.0001681581
0.0001679144
0.0001676566
0.0004075085
0.0004065507
0.0004050922
0.0004019478
0.0001131875
0.0001130639
0.0001129393
0.0001128118
0.0001126918
0.0001688276
0.0001686059
0.0001683789
0.0001681441
0.0001679018
0.0004081854
0.0004074414
0.0004065729
0.0004052246
0.0004024253
0.0001132906
0.0001131719
0.0001130521
0.000112929
0.0001128122
0.0001690147
0.0001687996
0.0001685787
0.0001683502
0.0001681158
0.0004087391
0.0004080749
0.0004073949
0.0004065799
0.0004054215
0.00112563
0.0001133815
0.0001132677
0.0001131523
0.0001130336
0.0001129201
0.0001691828
0.000168974
0.000168759
0.0001685361
0.0001683072
0.0004092224
0.0004085953
0.0004079817
0.000407329
0.0004066245
0.001135591
0.001129473
0.0001134631
0.000113354
0.0001132431
0.0001131287
0.0001130186
0.0001693369
0.0001691346
0.0001689257
0.0001687086
0.0001684849
0.0004096696
0.0004090666
0.0004084834
0.0004078869
0.0004073198
0.001139543
0.001136841
0.001133175
0.0001135367
0.0001134321
0.0001133255
0.0001132151
0.0001131082
0.0001694775
0.0001692814
0.0001690782
0.0001688665
0.0001686476
0.000410078
0.0004094863
0.0004089016
0.0004083025
0.000407703
0.0001136149
0.0001135152
0.0001134132
0.0001133074
0.0001132044
0.0001696287
0.0001694397
0.0001692434
0.0001690385
0.000168826
0.0004105276
0.0004099548
0.0004093864
0.0004088045
0.0004082231
0.0001136956
0.0001136008
0.0001135036
0.0001134025
0.0001133036
0.0001697849
0.0001696035
0.0001694146
0.0001692171
0.0001690118
0.0004109961
0.0004104416
0.0004098886
0.0004093213
0.0004087516
0.0001137775
0.0001136877
0.0001135955
0.0001134993
0.0001134049
0.0001699446
0.0001697711
0.0001695902
0.0001694006
0.0001692032
0.0004114795
0.0004109435
0.0004104066
0.0004098542
0.0004092967
0.0001138586
0.000113774
0.0001136867
0.0001135956
0.0001135058
0.0001701038
0.0001699385
0.0001697657
0.0001695844
0.0001693953
0.0004119654
0.0004114478
0.0004109269
0.0004103891
0.0004098436
0.0001114005
0.0001111957
0.000110987
0.0001107615
0.0001105513
0.0001116083
0.0001114157
0.0001112231
0.0001110214
0.0001108302
0.0001658377
0.0001118128
0.0001116305
0.0001114493
0.0001112636
0.0001110925
0.000166282
0.0001658088
0.000112017
0.0001118443
0.000111673
0.0001114989
0.0001113416
0.0001667026
0.0001663138
0.0001657481
0.00011222
0.0001120561
0.0001118936
0.0001117292
0.000111581
0.000167092
0.0001667659
0.0001663419
0.000165614
0.0001124246
0.0001122696
0.0001121157
0.0001119603
0.0001118202
0.0001674727
0.0001671868
0.0001668531
0.0001663726
0.0001654257
0.0001126104
0.0001124628
0.0001123159
0.0001121673
0.0001120324
0.0001678051
0.0001675422
0.0001672562
0.0001669031
0.0001663565
0.0004023213
0.0001127805
0.0001126396
0.0001124991
0.0001123566
0.000112226
0.0001681062
0.0001678587
0.0001675993
0.0001673089
0.0001669405
0.0004050559
0.0004019888
0.0001129337
0.000112799
0.0001126642
0.0001125271
0.0001124003
0.0001683762
0.0001681393
0.0001678955
0.0001676357