/*--------------------------------*- C++ -*----------------------------------*\
| =========                 |                                                 |
| \\      /  F ield         | OpenFOAM: The Open Source CFD Toolbox           |
|  \\    /   O peration     | Version:  2306                                  |
|   \\  /    A nd           | Website:  www.openfoam.com                      |
|    \\/     M anipulation  |                                                 |
\*---------------------------------------------------------------------------*/
FoamFile
{
    version     2.0;
    format      ascii;
    arch        "LSB;label=32;scalar=64";
    class       volScalarField;
    location    "0.9/fuel";
    object      eta.fuel;
}
// * * * * * * * * * * * * * * * * * * * * * * * * * * * * * * * * * * * * * //

dimensions      [1 2 -3 0 0 -1 0];

internalField   nonuniform List<scalar> 
16000
(
0.1245459
0.1251158
0.1189656
0.1208711
0.1262441
0.1193599
0.1214123
0.114184
0.1155871
0.1182283
0.1279037
0.1201229
0.1224835
0.1144995
0.1159626
0.1187506
0.1103371
0.1110634
0.1131404
0.1165857
0.1299741
0.1212039
0.1240584
0.1151034
0.1166888
0.1197843
0.1106054
0.1113645
0.113503
0.1170984
0.1071259
0.107427
0.1087925
0.1115984
0.1159244
0.1320948
0.1224745
0.1260221
0.115943
0.1177171
0.1213048
0.1111148
0.1119403
0.114204
0.1181135
0.1073616
0.1076833
0.1090834
0.1119536
0.1164364
0.1043428
0.1043928
0.1053022
0.1073475
0.1109442
0
0.13351
0.1236735
0.1280329
0.1168988
0.1189245
0.1232024
0.1118136
0.1127402
0.1151965
0.1196086
0.1078066
0.1081697
0.1096395
0.1126406
0.1174513
0.1045542
0.1046182
0.10555
0.1076324
0.1112976
0
0.1018713
0.101763
0.1023925
0.103942
0.106714
0
0
0.1342792
0.1244006
0.1293666
0.1177567
0.1200625
0.1251486
0.1125906
0.1136498
0.1163617
0.1214789
0.1084106
0.1088363
0.1104118
0.1136135
0.1189493
0.1049518
0.1050436
0.10602
0.1081768
0.1119812
0
0.102064
0.1019655
0.1026106
0.1041846
0.1069968
0
0
0.09963297
0.09942696
0.09987157
0.1011065
0.1033333
0
0
0
0.1346459
0.1247494
0.1300859
0.1182383
0.1207484
0.1264348
0.1132604
0.1144645
0.1174595
0.1234037
0.1090694
0.1095762
0.1112891
0.1147562
0.1208302
0.1054867
0.1056203
0.1066638
0.1089329
0.1129503
0
0.1024251
0.1023459
0.1030218
0.1046446
0.1075374
0
0
0.09981061
0.09961169
0.1000676
0.1013201
0.103574
0
0
0
0.09757639
0.0973099
0.09763222
0.09865177
0.1005232
0
0
0
0
0.1347885
0.12489
0.1304253
0.118438
0.1210748
0.1271259
0.1136109
0.1149187
0.1181178
0.124675
0.1096178
0.1102123
0.112074
0.1158338
0.1227764
0.1060609
0.1062481
0.1073775
0.1097917
0.1140902
0
0.1029075
0.1028572
0.1035791
0.1052746
0.1082885
0
0
0.1001426
0.09995754
0.1004357
0.1017226
0.1040303
0
0
0
0.09774168
0.09748039
0.0978112
0.09884378
0.1007349
0
0
0
0
0.09566461
0.09536315
0.09560228
0.09647204
0.09809305
0
0
0
0
0
0.1347885
0.1249357
0.1305561
0.1184971
0.1212048
0.1274506
0.1137329
0.115105
0.1184295
0.1253588
0.1098859
0.1105423
0.1125087
0.1164777
0.1240647
0.1065241
0.1067687
0.1079896
0.1105594
0.1151669
0
0.1034181
0.1034047
0.1041847
0.1059725
0.1091418
0
0
0.1005835
0.100419
0.1009299
0.1022678
0.1046552
0
0
0
0.09805004
0.09779874
0.09814607
0.09920411
0.101134
0
0
0
0
0.09581956
0.09552195
0.09576758
0.09664741
0.0982834
0
0
0
0
0
0.09387112
0.09355164
0.09373472
0.09449635
0.0959368
0
0
0
0
0
0
0.1346459
0.1249357
0.1305561
0.1185069
0.1212464
0.1275753
0.1137503
0.1151586
0.1185528
0.1256808
0.1099604
0.110655
0.1126853
0.116782
0.1247615
0.1067359
0.1070205
0.1083044
0.1109821
0.1158092
0
0.1038188
0.1038444
0.1046853
0.1065699
0.1099047
0
0
0.1010446
0.1009062
0.1014581
0.1028597
0.1053474
0
0
0
0.09845735
0.09822088
0.09859246
0.09968777
0.1016745
0
0
0
0
0.0961082
0.09581791
0.09607604
0.09697537
0.09864055
0
0
0
0
0
0.09401727
0.09370065
0.09388881
0.09465838
0.09611064
0
0
0
0
0
0
0.0921755
0.09185028
0.09199575
0.09267851
0.09398333
0
0
0
0
0
0
0
0.1342792
0.12489
0.1304253
0.1185069
0.1212464
0.1275753
0.113742
0.1151667
0.118592
0.1258049
0.1099529
0.1106691
0.112735
0.1169023
0.1250927
0.1067788
0.1070881
0.1084101
0.1111527
0.1161131
0
0.1039901
0.1040426
0.1049248
0.1068748
0.1103228
0
0
0.1013974
0.1012865
0.1018807
0.1033477
0.1059393
0
0
0
0.098879
0.09866117
0.09906274
0.100204
0.1022609
0
0
0
0
0.09648777
0.09620831
0.09648465
0.09741228
0.09911985
0
0
0
0
0
0.09428923
0.09397797
0.09417579
0.0949606
0.09643568
0
0
0
0
0
0
0.09231404
0.09199097
0.09214045
0.09282961
0.09414395
0
0
0
0
0
0
0
0.090562
0.09023978
0.09036125
0.09098537
0.09218644
0
0
0
0
0
0
0
0
0.13351
0.1247494
0.1300859
0.1184971
0.1212048
0.1274506
0.113742
0.1151667
0.118592
0.1258049
0.109934
0.11066
0.1127419
0.1169406
0.1252215
0.1067553
0.1070785
0.1084216
0.1111999
0.1162342
0
0.1040111
0.1040802
0.1049869
0.1069755
0.1104907
0
0
0.1015386
0.1014464
0.1020687
0.1035788
0.1062391
0
0
0
0.09919439
0.09899604
0.09942808
0.1006155
0.1027435
0
0
0
0
0.09687713
0.09661123
0.09690982
0.09787188
0.09963102
0
0
0
0
0
0.0946455
0.09434213
0.09455393
0.09536066
0.0968686
0
0
0
0
0
0
0.09257172
0.09225253
0.09240956
0.0931109
0.09444349
0
0
0
0
0
0
0
0.09069392
0.09037328
0.09049796
0.09112733
0.09233625
0
0
0
0
0
0
0
0
0.08901866
0.08870527
0.08881265
0.08939333
0.09051306
0
0
0
0
0
0
0
0
0
0.1320948
0.1244006
0.1293666
0.118438
0.1210748
0.1271259
0.1137503
0.1151586
0.1185528
0.1256808
0.109934
0.11066
0.1127419
0.1169406
0.1252215
0.1067297
0.1070593
0.1084119
0.1112061
0.1162731
0
0.1039769
0.1040553
0.1049756
0.1069851
0.110537
0
0
0.1015438
0.1014631
0.1021019
0.1036369
0.1063369
0
0
0
0.09931264
0.09912734
0.09957915
0.1007962
0.1029698
0
0
0
0
0.09716252
0.09691066
0.0972315
0.0982275
0.1000376
0
0
0
0
0
0.09500806
0.09471451
0.09494323
0.09577625
0.0973236
0
0
0
0
0
0
0.09290813
0.09259466
0.09276253
0.09348128
0.09483989
0
0
0
0
0
0
0
0.0909392
0.09062134
0.09075196
0.09139122
0.09261506
0
0
0
0
0
0
0
0
0.08914473
0.08883251
0.08894248
0.08952751
0.09065382
0
0
0
0
0
0
0
0
0
0.08753597
0.08723552
0.08733572
0.08788423
0.08893965
0
0
0
0
0
0
0
0
0
0
0.1299741
0.1236735
0.1280329
0.1182383
0.1207484
0.1264348
0.1137329
0.115105
0.1184295
0.1253588
0.1099529
0.1106691
0.112735
0.1169023
0.1250927
0.1067297
0.1070593
0.1084119
0.1112061
0.1162731
0
0.103947
0.1040297
0.104956
0.1069748
0.110543
0
0
0.1015023
0.1014281
0.1020759
0.1036241
0.1063453
0
0
0
0.09930644
0.09912911
0.09959237
0.1008261
0.1030252
0
0
0
0
0.09726289
0.09702028
0.09735517
0.0983723
0.100214
0
0
0
0
0
0.09526901
0.09498553
0.09523087
0.09608926
0.09767459
0
0
0
0
0
0
0.09324812
0.0929417
0.09312254
0.0938619
0.09525127
0
0
0
0
0
0
0
0.09125853
0.09094471
0.09108381
0.09173709
0.09298207
0
0
0
0
0
0
0
0
0.08937915
0.08906886
0.08918354
0.0897767
0.09091542
0
0
0
0
0
0
0
0
0
0.08765684
0.08735723
0.08745954
0.0880117
0.08907271
0
0
0
0
0
0
0
0
0
0
0.0861059
0.08582159
0.08591969
0.08644416
0.08744813
0
0
0
0
0
0
0
0
0
0
0.1279037
0.1224745
0.1260221
0.1177567
0.1200625
0.1251486
0.1136109
0.1149187
0.1181178
0.124675
0.1099604
0.110655
0.1126853
0.116782
0.1247615
0.1067553
0.1070785
0.1084216
0.1111999
0.1162342
0
0.103947
0.1040297
0.104956
0.1069748
0.110543
0
0
0.1014695
0.1013983
0.1020501
0.1036041
0.1063346
0
0
0
0.09925978
0.09908699
0.09955643
0.1007989
0.1030113
0
0
0
0
0.09724811
0.09701113
0.097354
0.09838269
0.1002415
0
0
0
0
0
0.09535527
0.09507825
0.09533378
0.09620744
0.09781556
0
0
0
0
0
0
0.09348892
0.09318963
0.09338292
0.09414176
0.09556006
0
0
0
0
0
0
0
0.09157934
0.09127044
0.09141954
0.09208919
0.09335884
0
0
0
0
0
0
0
0
0.08968361
0.08937611
0.08949743
0.09010201
0.09125818
0
0
0
0
0
0
0
0
0
0.08788165
0.08758333
0.08768939
0.08824831
0.08931978
0
0
0
0
0
0
0
0
0
0
0.08622207
0.08593838
0.08603821
0.08656579
0.08757456
0
0
0
0
0
0
0
0
0
0
0.08472202
0.08445596
0.08455605
0.08506264
0.08602467
0
0
0
0
0
0
0
0
0
0
0.1262441
0.1212039
0.1240584
0.1168988
0.1189245
0.1232024
0.1132604
0.1144645
0.1174595
0.1234037
0.1098859
0.1105423
0.1125087
0.1164777
0.1240647
0.1067788
0.1070881
0.1084101
0.1111527
0.1161131
0
0.1039769
0.1040553
0.1049756
0.1069851
0.110537
0
0
0.1014695
0.1013983
0.1020501
0.1036041
0.1063346
0
0
0
0.09922513
0.09905444
0.09952662
0.1007729
0.1029909
0
0
0
0
0.09719791
0.09696416
0.09731127
0.09834587
0.1002132
0
0
0
0
0
0.09533409
0.09506098
0.09532214
0.09620387
0.09782382
0
0
0
0
0
0
0.09356392
0.09326904
0.09346969
0.0942398
0.09567481
0
0
0
0
0
0
0
0.09180335
0.09149934
0.0916578
0.09234254
0.09363484
0
0
0
0
0
0
0
0
0.0899879
0.08968374
0.08981275
0.09043049
0.09160674
0
0
0
0
0
0
0
0
0
0.08817299
0.08787654
0.08798784
0.08855615
0.08964222
0
0
0
0
0
0
0
0
0
0
0.08643823
0.08615541
0.08625826
0.0867915
0.08780919
0
0
0
0
0
0
0
0
0
0
0.084834
0.08456829
0.08466986
0.08517912
0.08614532
0
0
0
0
0
0
0
0
0
0
0.08337939
0.08313261
0.08323761
0.08373139
0.08465886
0
0
0
0
0
0
0
0
0
0
0.1251158
0.1201229
0.1224835
0.115943
0.1177171
0.1213048
0.1125906
0.1136498
0.1163617
0.1214789
0.1096178
0.1102123
0.112074
0.1158338
0.1227764
0.1067359
0.1070205
0.1083044
0.1109821
0.1158092
0
0.1040111
0.1040802
0.1049869
0.1069755
0.1104907
0
0
0.1015023
0.1014281
0.1020759
0.1036241
0.1063453
0
0
0
0.09922513
0.09905444
0.09952662
0.1007729
0.1029909
0
0
0
0
0.09716207
0.09692981
0.0972788
0.09831591
0.1001868
0
0
0
0
0
0.0952815
0.09501064
0.09527475
0.09616046
0.0977861
0
0
0
0
0
0
0.09353796
0.09324572
0.09345029
0.09422611
0.09566937
0
0
0
0
0
0
0
0.09186935
0.09156816
0.09173188
0.09242495
0.09372981
0
0
0
0
0
0
0
0
0.09019776
0.08989681
0.0900328
0.09066235
0.09185657
0
0
0
0
0
0
0
0
0
0.08846283
0.08816859
0.08828584
0.08886479
0.08996744
0
0
0
0
0
0
0
0
0
0
0.08671792
0.08643624
0.08654327
0.08708433
0.08811436
0
0
0
0
0
0
0
0
0
0
0.08504253
0.08477716
0.08488122
0.08539529
0.08636919
0
0
0
0
0
0
0
0
0
0
0.08348759
0.08324098
0.08334715
0.08384329
0.08477442
0
0
0
0
0
0
0
0
0
0
0.08207369
0.08184695
0.08195865
0.08244343
0.08334247
0
0
0
0
0
0
0
0
0
0
0.1245459
0.1193599
0.1214123
0.1151034
0.1166888
0.1197843
0.1118136
0.1127402
0.1151965
0.1196086
0.1090694
0.1095762
0.1112891
0.1147562
0.1208302
0.1065241
0.1067687
0.1079896
0.1105594
0.1151669
0
0.1039901
0.1040426
0.1049248
0.1068748
0.1103228
0
0
0.1015438
0.1014631
0.1021019
0.1036369
0.1063369
0
0
0
0.09925978
0.09908699
0.09955643
0.1007989
0.1030113
0
0
0
0
0.09716207
0.09692981
0.0972788
0.09831591
0.1001868
0
0
0
0
0
0.09524495
0.09497514
0.09524054
0.0961279
0.09775585
0
0
0
0
0
0
0.09348383
0.09319311
0.09339966
0.09417818
0.09562518
0
0
0
0
0
0
0
0.0918399
0.09154036
0.09170672
0.09240377
0.09371447
0
0
0
0
0
0
0
0
0.09025644
0.0899572
0.0900968
0.09073251
0.09193621
0
0
0
0
0
0
0
0
0
0.08866054
0.08836834
0.08849079
0.08907898
0.09019606
0
0
0
0
0
0
0
0
0
0
0.08699517
0.08671467
0.08682638
0.08737615
0.08841999
0
0
0
0
0
0
0
0
0
0
0.08531197
0.08504701
0.08515438
0.08567507
0.08665953
0
0
0
0
0
0
0
0
0
0
0.08368925
0.08344265
0.08355069
0.08405101
0.08498886
0
0
0
0
0
0
0
0
0
0
0.08217839
0.08195175
0.08206438
0.08255116
0.08345351
0
0
0
0
0
0
0
0
0
0
0.08080074
0.08059498
0.08071482
0.08119318
0.08206859
0
0
0
0
0
0
0
0
0
0
0.1189656
0.1208711
0.1144995
0.1159626
0.1187506
0.1111148
0.1119403
0.114204
0.1181135
0.1084106
0.1088363
0.1104118
0.1136135
0.1189493
0.1060609
0.1062481
0.1073775
0.1097917
0.1140902
0
0.1038188
0.1038444
0.1046853
0.1065699
0.1099047
0
0
0.1015386
0.1014464
0.1020687
0.1035788
0.1062391
0
0
0
0.09930644
0.09912911
0.09959237
0.1008261
0.1030252
0
0
0
0
0.09719791
0.09696416
0.09731127
0.09834587
0.1002132
0
0
0
0
0
0.09524495
0.09497514
0.09524054
0.0961279
0.09775585
0
0
0
0
0
0
0.09344694
0.09315693
0.09336434
0.09414394
0.09559239
0
0
0
0
0
0
0
0.09178488
0.09148629
0.09165393
0.09235272
0.09366587
0
0
0
0
0
0
0
0
0.0902244
0.08992613
0.09006738
0.09070578
0.09191356
0
0
0
0
0
0
0
0
0
0.08871323
0.08842189
0.08854677
0.08913943
0.0902637
0
0
0
0
0
0
0
0
0
0
0.08718262
0.08690301
0.08701862
0.08757569
0.08863119
0
0
0
0
0
0
0
0
0
0
0
0.08557825
0.08531359
0.08542448
0.08595243
0.08694855
0
0
0
0
0
0
0
0
0
0
0.08394952
0.08370284
0.08381335
0.08431928
0.08526631
0
0
0
0
0
0
0
0
0
0
0.08237376
0.08214694
0.08226104
0.0827513
0.08365961
0
0
0
0
0
0
0
0
0
0
0.08090229
0.08069647
0.08081713
0.08129722
0.08217552
0
0
0
0
0
0
0
0
0
0
0.07955744
0.0793728
0.07950234
0.07997647
0.08083171
0
0
0
0
0
0
0
0
0
0
0.114184
0.1155871
0.1182283
0.1106054
0.1113645
0.113503
0.1170984
0.1078066
0.1081697
0.1096395
0.1126406
0.1174513
0.1054867
0.1056203
0.1066638
0.1089329
0.1129503
0
0.1034181
0.1034047
0.1041847
0.1059725
0.1091418
0
0
0.1013974
0.1012865
0.1018807
0.1033477
0.1059393
0
0
0
0.09931264
0.09912734
0.09957915
0.1007962
0.1029698
0
0
0
0
0.09724811
0.09701113
0.097354
0.09838269
0.1002415
0
0
0
0
0
0.0952815
0.09501064
0.09527475
0.09616046
0.0977861
0
0
0
0
0
0
0.09344694
0.09315693
0.09336434
0.09414394
0.09559239
0
0
0
0
0
0
0
0.09174792
0.09144978
0.09161795
0.09231741
0.09363144
0
0
0
0
0
0
0
0
0.09016894
0.08987124
0.09001322
0.09065266
0.09186194
0
0
0
0
0
0
0
0
0
0.08867937
0.08838842
0.08851428
0.08910863
0.09023567
0
0
0
0
0
0
0
0
0
0
0.08723057
0.08695097
0.08706813
0.08762844
0.08868935
0
0
0
0
0
0
0
0
0
0
0
0.08575696
0.0854923
0.08560583
0.08613966
0.08714534
0
0
0
0
0
0
0
0
0
0
0
0
0.08420607
0.0839591
0.08407213
0.08458402
0.08554107
0
0
0
0
0
0
0
0
0
0
0.08262566
0.08239849
0.08251447
0.08300936
0.0839257
0
0
0
0
0
0
0
0
0
0
0.08109199
0.08088572
0.08100759
0.08149067
0.08237413
0
0
0
0
0
0
0
0
0
0
0.07965607
0.0794713
0.07960147
0.08007718
0.08093499
0
0
0
0
0
0
0
0
0
0
0.07834101
0.07817752
0.07831749
0.07878963
0.07962769
0
0
0
0
0
0
0
0
0
0
0.1103371
0.1110634
0.1131404
0.1165857
0.1073616
0.1076833
0.1090834
0.1119536
0.1164364
0.1049518
0.1050436
0.10602
0.1081768
0.1119812
0
0.1029075
0.1028572
0.1035791
0.1052746
0.1082885
0
0
0.1010446
0.1009062
0.1014581
0.1028597
0.1053474
0
0
0
0.09919439
0.09899604
0.09942808
0.1006155
0.1027435
0
0
0
0
0.09726289
0.09702028
0.09735517
0.0983723
0.100214
0
0
0
0
0
0.09533409
0.09506098
0.09532214
0.09620387
0.09782382
0
0
0
0
0
0
0.09348383
0.09319311
0.09339966
0.09417818
0.09562518
0
0
0
0
0
0
0
0.09174792
0.09144978
0.09161795
0.09231741
0.09363144
0
0
0
0
0
0
0
0
0.09013209
0.08983467
0.08997693
0.09061672
0.09182647
0
0
0
0
0
0
0
0
0
0.08862389
0.08833313
0.08845935
0.08905419
0.09018205
0
0
0
0
0
0
0
0
0
0
0.08719558
0.08691584
0.08703339
0.08759471
0.08865738
0
0
0
0
0
0
0
0
0
0
0
0.08580112
0.08553587
0.08565009
0.08618621
0.08719598
0
0
0
0
0
0
0
0
0
0
0
0
0.08437717
0.08412963
0.08424434
0.08476073
0.08572575
0
0
0
0
0
0
0
0
0
0
0
0
0
0.08287347
0.08264561
0.08276341
0.08326312
0.084188
0
0
0
0
0
0
0
0
0
0
0.08133646
0.08112938
0.08125276
0.08173977
0.08263013
0
0
0
0
0
0
0
0
0
0
0.07984058
0.07965521
0.07978624
0.08026461
0.08112699
0
0
0
0
0
0
0
0
0
0
0.07843699
0.07827326
0.07841376
0.07888726
0.07972767
0
0
0
0
0
0
0
0
0
0
0.07715005
0.07700659
0.07715757
0.07762907
0.0784529
0
0
0
0
0
0
0
0
0
0
0.1071259
0.107427
0.1087925
0.1115984
0.1159244
0.1045542
0.1046182
0.10555
0.1076324
0.1112976
0
0.1024251
0.1023459
0.1030218
0.1046446
0.1075374
0
0
0.1005835
0.100419
0.1009299
0.1022678
0.1046552
0
0
0
0.098879
0.09866117
0.09906274
0.100204
0.1022609
0
0
0
0
0.09716252
0.09691066
0.0972315
0.0982275
0.1000376
0
0
0
0
0
0.09535527
0.09507825
0.09533378
0.09620744
0.09781556
0
0
0
0
0
0
0.09353796
0.09324572
0.09345029
0.09422611
0.09566937
0
0
0
0
0
0
0
0.09178488
0.09148629
0.09165393
0.09235272
0.09366587
0
0
0
0
0
0
0
0
0.09013209
0.08983467
0.08997693
0.09061672
0.09182647
0
0
0
0
0
0
0
0
0
0.08858732
0.08829667
0.08842301
0.08901796
0.09014598
0
0
0
0
0
0
0
0
0
0
0.0871404
0.08686055
0.08697811
0.08753957
0.08860251
0
0
0
0
0
0
0
0
0
0
0
0.0857655
0.08549973
0.08561381
0.08615036
0.08716119
0
0
0
0
0
0
0
0
0
0
0
0
0.08441819
0.08416973
0.08428447
0.08480224
0.08577036
0
0
0
0
0
0
0
0
0
0
0
0
0
0.08303799
0.08280904
0.08292785
0.08343099
0.08436234
0
0
0
0
0
0
0
0
0
0
0
0
0
0
0.08157658
0.0813683
0.08149299
0.081984
0.08288161
0
0
0
0
0
0
0
0
0
0
0.08007826
0.07989187
0.08002389
0.0805057
0.08137416
0
0
0
0
0
0
0
0
0
0
0.0786168
0.07845227
0.07859343
0.07906915
0.07991374
0
0
0
0
0
0
0
0
0
0
0.07724359
0.07709982
0.07725119
0.07772391
0.07854985
0
0
0
0
0
0
0
0
0
0
0.07598258
0.07585878
0.07602016
0.07649217
0.07730381
0
0
0
0
0
0
0
0
0
0
0.1043428
0.1043928
0.1053022
0.1073475
0.1109442
0
0.102064
0.1019655
0.1026106
0.1041846
0.1069968
0
0
0.1001426
0.09995754
0.1004357
0.1017226
0.1040303
0
0
0
0.09845735
0.09822088
0.09859246
0.09968777
0.1016745
0
0
0
0
0.09687713
0.09661123
0.09690982
0.09787188
0.09963102
0
0
0
0
0
0.09526901
0.09498553
0.09523087
0.09608926
0.09767459
0
0
0
0
0
0
0.09356392
0.09326904
0.09346969
0.0942398
0.09567481
0
0
0
0
0
0
0
0.0918399
0.09154036
0.09170672
0.09240377
0.09371447
0
0
0
0
0
0
0
0
0.09016895
0.08987124
0.09001322
0.09065266
0.09186194
0
0
0
0
0
0
0
0
0
0.08858732
0.08829667
0.08842301
0.08901796
0.09014598
0
0
0
0
0
0
0
0
0
0
0.08710426
0.08682438
0.08694188
0.0875033
0.08856617
0
0
0
0
0
0
0
0
0
0
0
0.08571087
0.08544477
0.08555856
0.08609491
0.08710568
0
0
0
0
0
0
0
0
0
0
0
0
0.08438226
0.08413306
0.08424729
0.08476496
0.08573355
0
0
0
0
0
0
0
0
0
0
0
0
0
0.08307661
0.08284626
0.08296474
0.08346858
0.08440206
0
0
0
0
0
0
0
0
0
0
0
0
0
0
0.08173543
0.0815256
0.0816507
0.08214438
0.08304728
0
0
0
0
0
0
0
0
0
0
0
0
0
0
0
0.08031147
0.08012358
0.0802563
0.08074149
0.08161624
0
0
0
0
0
0
0
0
0
0
0.07884839
0.07868254
0.07882438
0.07930294
0.080153
0
0
0
0
0
0
0
0
0
0
0.07741912
0.0772744
0.07742617
0.07790085
0.07873045
0
0
0
0
0
0
0
0
0
0
0.07607387
0.0759497
0.07611138
0.07658443
0.077398
0
0
0
0
0
0
0
0
0
0
0.07483836
0.07473229
0.07490418
0.07537663
0.07617783
0
0
0
0
0
0
0
0
0
0
0.1018713
0.101763
0.1023925
0.103942
0.106714
0
0
0.09981061
0.09961169
0.1000676
0.1013201
0.103574
0
0
0
0.09805004
0.09779874
0.09814607
0.09920411
0.101134
0
0
0
0
0.09648777
0.09620831
0.09648465
0.09741228
0.09911985
0
0
0
0
0
0.09500806
0.09471451
0.09494323
0.09577625
0.0973236
0
0
0
0
0
0
0.09348892
0.09318963
0.09338292
0.09414176
0.09556006
0
0
0
0
0
0
0
0.09186935
0.09156816
0.09173188
0.09242495
0.09372981
0
0
0
0
0
0
0
0
0.0902244
0.08992612
0.09006738
0.09070578
0.09191356
0
0
0
0
0
0
0
0
0
0.08862388
0.08833313
0.08845935
0.08905419
0.09018205
0
0
0
0
0
0
0
0
0
0
0.08710426
0.08682438
0.08694189
0.0875033
0.08856617
0
0
0
0
0
0
0
0
0
0
0
0.08567525
0.08540902
0.08552263
0.08605877
0.08706932
0
0
0
0
0
0
0
0
0
0
0
0
0.0843283
0.08407866
0.08419239
0.08470958
0.08567776
0
0
0
0
0
0
0
0
0
0
0
0
0
0.08304078
0.08280937
0.08292714
0.08343049
0.0843639
0
0
0
0
0
0
0
0
0
0
0
0
0
0
0.08177214
0.08156065
0.08168493
0.0821789
0.0830832
0
0
0
0
0
0
0
0
0
0
0
0
0
0
0
0.08046542
0.08027561
0.08040821
0.08089539
0.08177456
0
0
0
0
0
0
0
0
0
0
0
0
0
0
0
0
0.0790755
0.07890778
0.07904993
0.07953116
0.08038677
0
0
0
0
0
0
0
0
0
0
0.07764519
0.07749895
0.07765103
0.07812815
0.07896251
0
0
0
0
0
0
0
0
0
0
0.07624548
0.07612025
0.07628213
0.07675683
0.07757372
0
0
0
0
0
0
0
0
0
0
0.07492754
0.07482107
0.07499317
0.07546655
0.07626948
0
0
0
0
0
0
0
0
0
0
0.07371514
0.07362699
0.07380791
0.07428142
0.07507269
0
0
0
0
0
0
0
0
0
0
0.09963297
0.09942696
0.09987157
0.1011065
0.1033333
0
0
0
0.09774168
0.09748039
0.0978112
0.09884378
0.1007349
0
0
0
0
0.0961082
0.09581791
0.09607604
0.09697537
0.09864055
0
0
0
0
0
0.0946455
0.09434213
0.09455393
0.09536066
0.0968686
0
0
0
0
0
0
0.09324812
0.0929417
0.09312254
0.0938619
0.09525127
0
0
0
0
0
0
0
0.09180334
0.09149933
0.0916578
0.09234254
0.09363484
0
0
0
0
0
0
0
0
0.09025644
0.0899572
0.0900968
0.09073251
0.09193621
0
0
0
0
0
0
0
0
0
0.08867936
0.08838842
0.08851428
0.08910863
0.09023567
0
0
0
0
0
0
0
0
0
0
0.0871404
0.08686055
0.08697811
0.08753957
0.08860251
0
0
0
0
0
0
0
0
0
0
0
0.08567525
0.08540902
0.08552262
0.08605877
0.08706932
0
0
0
0
0
0
0
0
0
0
0
0
0.08429326
0.08404342
0.08415688
0.08467373
0.08564155
0
0
0
0
0
0
0
0
0
0
0
0
0
0.08298773
0.08275566
0.08287281
0.08337548
0.08430821
0
0
0
0
0
0
0
0
0
0
0
0
0
0
0.08173664
0.08152394
0.08164718
0.08214046
0.0830443
0
0
0
0
0
0
0
0
0
0
0
0
0
0
0
0.08050072
0.08030897
0.08044045
0.08092741
0.08180753
0
0
0
0
0
0
0
0
0
0
0
0
0
0
0
0
0.07922529
0.07905527
0.07919689
0.07967948
0.08053873
0
0
0
0
0
0
0
0
0
0
0
0
0
0
0
0
0
0.07786685
0.07771848
0.07787042
0.07834973
0.07918882
0
0
0
0
0
0
0
0
0
0
0.07646653
0.07633962
0.07650153
0.07697821
0.07779937
0
0
0
0
0
0
0
0
0
0
0.07509552
0.07498793
0.07516008
0.07563484
0.0764407
0
0
0
0
0
0
0
0
0
0
0.07380238
0.07371379
0.07389487
0.07436918
0.07516202
0
0
0
0
0
0
0
0
0
0
0.07261173
0.07254081
0.07273136
0.07320491
0.07398739
0
0
0
0
0
0
0
0
0
0
0.09757639
0.0973099
0.09763222
0.09865177
0.1005232
0
0
0
0
0.09581956
0.09552195
0.09576758
0.09664741
0.0982834
0
0
0
0
0
0.09428923
0.09397797
0.09417579
0.0949606
0.09643568
0
0
0
0
0
0
0.09290813
0.09259466
0.09276253
0.09348128
0.09483989
0
0
0
0
0
0
0
0.09157933
0.09127044
0.09141954
0.09208919
0.09335884
0
0
0
0
0
0
0
0
0.09019776
0.08989681
0.0900328
0.09066235
0.09185657
0
0
0
0
0
0
0
0
0
0.08871322
0.08842189
0.08854677
0.08913943
0.0902637
0
0
0
0
0
0
0
0
0
0
0.08719558
0.08691583
0.08703339
0.08759471
0.08865738
0
0
0
0
0
0
0
0
0
0
0
0.08571086
0.08544477
0.08555856
0.08609491
0.08710567
0
0
0
0
0
0
0
0
0
0
0
0
0.08429326
0.08404342
0.08415688
0.08467373
0.08564155
0
0
0
0
0
0
0
0
0
0
0
0
0
0.08295335
0.08272098
0.08283781
0.08334006
0.0842723
0
0
0
0
0
0
0
0
0
0
0
0
0
0
0.08168456
0.08147114
0.08159355
0.08208605
0.08298902
0
0
0
0
0
0
0
0
0
0
0
0
0
0
0
0.08046583
0.08027265
0.08040295
0.08088888
0.08176833
0
0
0
0
0
0
0
0
0
0
0
0
0
0
0
0
0.07925965
0.0790874
0.0792276
0.07970965
0.0805693
0
0
0
0
0
0
0
0
0
0
0
0
0
0
0
0
0
0.07801308
0.07786214
0.07801311
0.07849329
0.07933531
0
0
0
0
0
0
0
0
0
0
0
0
0
0
0
0
0
0
0.07668331
0.07655406
0.0767155
0.07719384
0.07801915
0
0
0
0
0
0
0
0
0
0
0.07531194
0.07520258
0.07537453
0.07585093
0.07666052
0
0
0
0
0
0
0
0
0
0
0.073967
0.07387722
0.07405824
0.07453373
0.0753292
0
0
0
0
0
0
0
0
0
0
0.07269717
0.07262577
0.07281641
0.07329069
0.07407459
0
0
0
0
0
0
0
0
0
0
0.07152768
0.07147264
0.07167254
0.07214717
0.07292034
0
0
0
0
0
0
0
0
0
0
0.09566461
0.09536315
0.09560228
0.09647204
0.09809305
0
0
0
0
0
0.09401727
0.09370065
0.09388881
0.09465838
0.09611064
0
0
0
0
0
0
0.09257172
0.09225253
0.09240956
0.0931109
0.09444349
0
0
0
0
0
0
0
0.09125852
0.09094471
0.09108381
0.09173709
0.09298207
0
0
0
0
0
0
0
0
0.0899879
0.08968373
0.08981275
0.09043049
0.09160674
0
0
0
0
0
0
0
0
0
0.08866052
0.08836835
0.08849078
0.08907897
0.09019606
0
0
0
0
0
0
0
0
0
0
0.08723057
0.08695096
0.08706813
0.08762843
0.08868935
0
0
0
0
0
0
0
0
0
0
0
0.0857655
0.08549973
0.0856138
0.08615036
0.08716119
0
0
0
0
0
0
0
0
0
0
0
0
0.0843283
0.08407866
0.0841924
0.08470957
0.08567776
0
0
0
0
0
0
0
0
0
0
0
0
0
0.08295336
0.08272098
0.08283781
0.08334006
0.0842723
0
0
0
0
0
0
0
0
0
0
0
0
0
0
0.08165087
0.08143711
0.0815591
0.08205114
0.08295355
0
0
0
0
0
0
0
0
0
0
0
0
0
0
0
0.08041487
0.08022082
0.08035024
0.08083518
0.08171368
0
0
0
0
0
0
0
0
0
0
0
0
0
0
0
0
0.07922561
0.07905175
0.07919054
0.07967142
0.08053006
0
0
0
0
0
0
0
0
0
0
0
0
0
0
0
0
0
0.07804685
0.0778935
0.07804274
0.07852205
0.07936411
0
0
0
0
0
0
0
0
0
0
0
0
0
0
0
0
0
0
0.07682648
0.07669446
0.0768546
0.07733332
0.07816098
0
0
0
0
0
0
0
0
0
0
0
0
0
0
0
0
0
0
0
0.07552429
0.07541248
0.07558369
0.07606133
0.07687444
0
0
0
0
0
0
0
0
0
0
0.07417921
0.07408753
0.0742682
0.07474504
0.0755438
0
0
0
0
0
0
0
0
0
0
0.07285871
0.07278604
0.07297651
0.07345182
0.07423808
0
0
0
0
0
0
0
0
0
0
0.07161142
0.07155589
0.07175582
0.07223109
0.07300558
0
0
0
0
0
0
0
0
0
0
0.07046271
0.07042216
0.07063042
0.07110625
0.07187161
0
0
0
0
0
0
0
0
0
0
0.09387112
0.09355164
0.09373472
0.09449635
0.0959368
0
0
0
0
0
0
0.09231404
0.09199097
0.09214045
0.09282961
0.09414395
0
0
0
0
0
0
0
0.09093919
0.09062134
0.09075196
0.09139122
0.09261506
0
0
0
0
0
0
0
0
0.08968361
0.0893761
0.08949743
0.09010201
0.09125818
0
0
0
0
0
0
0
0
0
0.08846281
0.08816859
0.08828583
0.08886479
0.08996744
0
0
0
0
0
0
0
0
0
0
0.08718262
0.08690299
0.08701862
0.08757568
0.08863119
0
0
0
0
0
0
0
0
0
0
0
0.08580111
0.08553587
0.08565007
0.08618621
0.08719598
0
0
0
0
0
0
0
0
0
0
0
0
0.08438226
0.08413306
0.0842473
0.08476495
0.08573355
0
0
0
0
0
0
0
0
0
0
0
0
0
0.08298773
0.08275566
0.08287281
0.08337549
0.08430821
0
0
0
0
0
0
0
0
0
0
0
0
0
0
0.08165087
0.08143711
0.0815591
0.08205114
0.08295355
0
0
0
0
0
0
0
0
0
0
0
0
0
0
0
0.08038193
0.08018746
0.08031643
0.08080082
0.08167872
0
0
0
0
0
0
0
0
0
0
0
0
0
0
0
0
0.0791759
0.07900103
0.0791388
0.07961865
0.08047614
0
0
0
0
0
0
0
0
0
0
0
0
0
0
0
0
0
0.07801383
0.07785875
0.07800639
0.07848431
0.07932523
0
0
0
0
0
0
0
0
0
0
0
0
0
0
0
0
0
0
0.07685995
0.07672538
0.07688359
0.07736111
0.07818845
0
0
0
0
0
0
0
0
0
0
0
0
0
0
0
0
0
0
0
0.0756648
0.07555009
0.07571974
0.07619738
0.07701229
0
0
0
0
0
0
0
0
0
0
0
0
0
0
0
0
0
0
0
0
0.07438756
0.0742933
0.07447305
0.07495079
0.07575257
0
0
0
0
0
0
0
0
0
0
0.07306706
0.07299239
0.07318234
0.07365877
0.07444797
0
0
0
0
0
0
0
0
0
0
0.07177007
0.07171326
0.0719129
0.07238903
0.07316569
0
0
0
0
0
0
0
0
0
0
0.07054488
0.0705038
0.07071206
0.07118845
0.07195502
0
0
0
0
0
0
0
0
0
0
0.06941612
0.06938917
0.06960477
0.07008121
0.07083931
0
0
0
0
0
0
0
0
0
0
0.0921755
0.09185028
0.09199575
0.09267851
0.09398333
0
0
0
0
0
0
0
0.09069391
0.09037328
0.09049796
0.09112733
0.09233625
0
0
0
0
0
0
0
0
0.08937915
0.08906886
0.08918354
0.0897767
0.09091542
0
0
0
0
0
0
0
0
0
0.08817297
0.08787654
0.08798783
0.08855615
0.08964222
0
0
0
0
0
0
0
0
0
0
0.08699516
0.08671466
0.08682638
0.08737614
0.08841999
0
0
0
0
0
0
0
0
0
0
0.08575695
0.0854923
0.08560582
0.08613967
0.08714533
0
0
0
0
0
0
0
0
0
0
0
0
0.08441819
0.08416972
0.08428447
0.08480222
0.08577036
0
0
0
0
0
0
0
0
0
0
0
0
0
0.08304079
0.08280937
0.08292713
0.08343049
0.08436389
0
0
0
0
0
0
0
0
0
0
0
0
0
0
0.08168457
0.08147114
0.08159355
0.08208605
0.08298903
0
0
0
0
0
0
0
0
0
0
0
0
0
0
0
0.08038193
0.08018746
0.08031643
0.08080082
0.08167872
0
0
0
0
0
0
0
0
0
0
0
0
0
0
0
0
0.07914374
0.07896841
0.07910566
0.07958494
0.08044175
0
0
0
0
0
0
0
0
0
0
0
0
0
0
0
0
0
0.07796542
0.07780927
0.07795578
0.07843253
0.07927225
0
0
0
0
0
0
0
0
0
0
0
0
0
0
0
0
0
0
0.07682809
0.07669169
0.07684819
0.07732412
0.0781501
0
0
0
0
0
0
0
0
0
0
0
0
0
0
0
0
0
0
0
0.07569819
0.07558085
0.07574841
0.07622462
0.07703886
0
0
0
0
0
0
0
0
0
0
0
0
0
0
0
0
0
0
0
0
0.07452579
0.07442851
0.07460653
0.07508395
0.07588707
0
0
0
0
0
0
0
0
0
0
0
0
0
0
0
0
0
0
0
0
0.07327184
0.07319444
0.07338329
0.07386037
0.07465216
0
0
0
0
0
0
0
0
0
0
0.07197482
0.071916
0.07211495
0.07259199
0.07337129
0
0
0
0
0
0
0
0
0
0
0.0707009
0.07065845
0.07086638
0.07134347
0.07211199
0
0
0
0
0
0
0
0
0
0
0.06949683
0.06946933
0.06968486
0.07016181
0.07092102
0
0
0
0
0
0
0
0
0
0
0.06838977
0.06837306
0.06859544
0.06907183
0.06982249
0
0
0
0
0
0
0
0
0
0
0.09056199
0.09023978
0.09036125
0.09098537
0.09218644
0
0
0
0
0
0
0
0
0.08914473
0.0888325
0.08894248
0.08952751
0.09065382
0
0
0
0
0
0
0
0
0
0.08788163
0.08758333
0.08768939
0.08824831
0.08931978
0
0
0
0
0
0
0
0
0
0
0.0867179
0.08643622
0.08654327
0.08708432
0.08811436
0
0
0
0
0
0
0
0
0
0
0.08557824
0.08531357
0.08542446
0.08595243
0.08694854
0
0
0
0
0
0
0
0
0
0
0.08437717
0.08412963
0.08424433
0.08476071
0.08572575
0
0
0
0
0
0
0
0
0
0
0
0
0
0.08307661
0.08284627
0.08296473
0.08346858
0.08440204
0
0
0
0
0
0
0
0
0
0
0
0
0
0
0.08173665
0.08152395
0.08164718
0.08214046
0.0830443
0
0
0
0
0
0
0
0
0
0
0
0
0
0
0
0.08041488
0.08022082
0.08035024
0.08083518
0.08171368
0
0
0
0
0
0
0
0
0
0
0
0
0
0
0
0
0.07914374
0.07896841
0.07910566
0.07958494
0.08044175
0
0
0
0
0
0
0
0
0
0
0
0
0
0
0
0
0
0.07793407
0.07777742
0.07792336
0.07839948
0.07923851
0
0
0
0
0
0
0
0
0
0
0
0
0
0
0
0
0
0
0.07678104
0.07664349
0.0767988
0.07727346
0.07809813
0
0
0
0
0
0
0
0
0
0
0
0
0
0
0
0
0
0
0
0.07566759
0.07554835
0.0757141
0.07618862
0.07700129
0
0
0
0
0
0
0
0
0
0
0
0
0
0
0
0
0
0
0
0
0.07455933
0.07445931
0.07463515
0.07511095
0.07591316
0
0
0
0
0
0
0
0
0
0
0
0
0
0
0
0
0
0
0
0
0.07340818
0.07332761
0.07351454
0.07399109
0.07478385
0
0
0
0
0
0
0
0
0
0
0
0
0
0
0
0
0
0
0
0
0.07217632
0.07211476
0.0723124
0.07278983
0.07357141
0
0
0
0
0
0
0
0
0
0
0.07090241
0.07085782
0.071065
0.07154277
0.07231365
0
0
0
0
0
0
0
0
0
0
0.06965039
0.0696215
0.06983658
0.07031415
0.07107511
0
0
0
0
0
0
0
0
0
0
0.06846913
0.06845183
0.06867411
0.06915093
0.06990263
0
0
0
0
0
0
0
0
0
0
0.06738257
0.06737573
0.06760189
0.06807803
0.06882098
0
0
0
0
0
0
0
0
0
0
0.08901866
0.08870527
0.08881265
0.08939333
0.09051306
0
0
0
0
0
0
0
0
0
0.08765682
0.08735723
0.08745953
0.0880117
0.08907271
0
0
0
0
0
0
0
0
0
0
0.0864382
0.08615539
0.08625826
0.08679149
0.08780919
0
0
0
0
0
0
0
0
0
0
0.08531196
0.08504698
0.08515436
0.08567507
0.08665952
0
0
0
0
0
0
0
0
0
0
0.08420607
0.08395909
0.08407211
0.084584
0.08554107
0
0
0
0
0
0
0
0
0
0
0.08303801
0.08280904
0.08292784
0.08343098
0.08436232
0
0
0
0
0
0
0
0
0
0
0
0
0
0
0.08177215
0.08156066
0.08168493
0.0821789
0.0830832
0
0
0
0
0
0
0
0
0
0
0
0
0
0
0
0.08046583
0.08027266
0.08040295
0.08088888
0.08176833
0
0
0
0
0
0
0
0
0
0
0
0
0
0
0
0
0.0791759
0.07900104
0.0791388
0.07961865
0.08047615
0
0
0
0
0
0
0
0
0
0
0
0
0
0
0
0
0
0.07793407
0.07777742
0.07792336
0.07839948
0.07923851
0
0
0
0
0
0
0
0
0
0
0
0
0
0
0
0
0
0
0.07675052
0.07661245
0.07676715
0.07724114
0.07806505
0
0
0
0
0
0
0
0
0
0
0
0
0
0
0
0
0
0
0
0.07562191
0.07550151
0.075666
0.07613919
0.07695045
0
0
0
0
0
0
0
0
0
0
0
0
0
0
0
0
0
0
0
0
0.07453007
0.07442809
0.07460205
0.07507606
0.0758766
0
0
0
0
0
0
0
0
0
0
0
0
0
0
0
0
0
0
0
0
0.07344208
0.07335867
0.0735433
0.07401812
0.07480976
0
0
0
0
0
0
0
0
0
0
0
0
0
0
0
0
0
0
0
0
0.07231098
0.07224623
0.07244178
0.07291844
0.07370072
0
0
0
0
0
0
0
0
0
0
0
0
0
0
0
0
0
0
0
0
0.07110101
0.07105353
0.07125933
0.07173724
0.07251007
0
0
0
0
0
0
0
0
0
0
0.06984889
0.06981783
0.070032
0.07051013
0.07127316
0
0
0
0
0
0
0
0
0
0
0.06862044
0.06860169
0.06882346
0.06930075
0.07005407
0
0
0
0
0