/*--------------------------------*- C++ -*----------------------------------*\
| =========                 |                                                 |
| \\      /  F ield         | OpenFOAM: The Open Source CFD Toolbox           |
|  \\    /   O peration     | Version:  2306                                  |
|   \\  /    A nd           | Website:  www.openfoam.com                      |
|    \\/     M anipulation  |                                                 |
\*---------------------------------------------------------------------------*/
FoamFile
{
    version     2.0;
    format      ascii;
    arch        "LSB;label=32;scalar=64";
    class       volScalarField;
    location    "0.9/fuel";
    object      H2;
}
// * * * * * * * * * * * * * * * * * * * * * * * * * * * * * * * * * * * * * //

dimensions      [0 0 0 0 0 0 0];

internalField   nonuniform List<scalar> 
16000
(
0.5938772
0.5986739
0.5239655
0.5941476
0.6084235
0.5269966
0.5989502
0.4601811
0.5241666
0.5946778
0.6232284
0.5331156
0.6087123
0.4623812
0.5272006
0.5994918
0.409187
0.460331
0.5245611
0.5954608
0.6425482
0.5423097
0.623538
0.4668125
0.533326
0.6092785
0.4108903
0.462533
0.5276012
0.6002918
0.3682399
0.4093028
0.4606254
0.5251443
0.5964936
0.6635318
0.5541499
0.6428895
0.4734476
0.5425304
0.6241448
0.414314
0.4669681
0.533739
0.6101145
0.3696046
0.4110073
0.462831
0.5281931
0.6013469
0.3347324
0.3683321
0.4095304
0.4610609
0.5259136
0.5975193
0.6795978
0.5668527
0.6639144
0.4819524
0.5543859
0.6435584
0.4194254
0.4736094
0.5429636
0.6250408
0.3723435
0.4144336
0.4672737
0.5343493
0.6112172
0.3358526
0.3696977
0.4112373
0.4632719
0.528974
0.6023947
0.3068084
0.3348077
0.3685135
0.4098672
0.4616356
0.5266776
0.5983697
0.6899419
0.5765729
0.6800061
0.4910283
0.5671082
0.6646645
0.4259515
0.4821234
0.5548491
0.6445462
0.3764229
0.4195491
0.4739272
0.5436037
0.6262226
0.3380976
0.3724384
0.4146686
0.4677256
0.5351544
0.6123123
0.3077452
0.3359285
0.3698808
0.4115777
0.4638536
0.5297494
0.6032636
0.2831717
0.3068711
0.3349558
0.3687821
0.4103118
0.4622063
0.5273108
0.5992156
0.6958644
0.5828836
0.6903643
0.4979435
0.576839
0.6808062
0.4328853
0.4912112
0.5676097
0.6657726
0.3816152
0.4260815
0.4824595
0.5555338
0.6458494
0.3414353
0.3765207
0.4197923
0.4743971
0.5444481
0.6273964
0.3096208
0.3381748
0.3726251
0.4150164
0.468322
0.535954
0.6132209
0.2839672
0.3078083
0.3360778
0.3701519
0.412027
0.4644312
0.5303922
0.604128
0.262898
0.2832247
0.3069944
0.3351752
0.3691367
0.4107534
0.4626791
0.5279403
0.600057
0.6985356
0.5865416
0.6962944
0.5024255
0.5831549
0.6911918
0.4381495
0.4981322
0.5773614
0.6819882
0.3871127
0.4330233
0.4915706
0.5683513
0.6672354
0.3456729
0.3817175
0.426337
0.4829565
0.5564371
0.6471441
0.312405
0.3415146
0.3767132
0.4201521
0.4750173
0.5452867
0.6283722
0.2855587
0.309685
0.3383269
0.3729014
0.4154755
0.4689143
0.5366169
0.6141252
0.2635822
0.2840206
0.3079326
0.3362991
0.3705099
0.4124732
0.4649098
0.5310312
0.6049877
0.245312
0.2629433
0.283329
0.3071772
0.335465
0.3694889
0.4111191
0.463149
0.5285662
0.6008936
0.6985356
0.5882088
0.698969
0.5050241
0.5868154
0.6971367
0.4415549
0.5026167
0.5836872
0.6924139
0.3912747
0.4382911
0.4985031
0.5781336
0.6835484
0.3501473
0.3872209
0.4332947
0.4921023
0.56933
0.6686896
0.3159329
0.3457557
0.3819188
0.4267151
0.4836124
0.5573343
0.6482262
0.2879181
0.3124708
0.3416709
0.3769981
0.4206271
0.4756332
0.5459831
0.6293452
0.2649501
0.2856128
0.3098112
0.338552
0.3732663
0.4159314
0.4694051
0.5372764
0.6150252
0.245907
0.2636279
0.2841257
0.3081168
0.3365913
0.3708654
0.4128428
0.4653855
0.5316666
0.6058428
0.229909
0.2453513
0.2630328
0.2834837
0.3074186
0.3357529
0.3697806
0.4114824
0.4636159
0.5291883
0.6049409
0.6958644
0.5882088
0.698969
0.5062094
0.5884837
0.6998178
0.4435279
0.5052164
0.5873526
0.6983803
0.3939628
0.4416978
0.5029923
0.5844739
0.6940267
0.353527
0.3913853
0.4385696
0.4990517
0.5791529
0.6850994
0.3196496
0.3502345
0.3874337
0.4336964
0.4928044
0.5703026
0.6699163
0.2909028
0.3160013
0.3459186
0.3822168
0.4272142
0.4842639
0.5580827
0.649311
0.266976
0.2879735
0.3126004
0.3419024
0.3773743
0.4210989
0.4761444
0.546677
0.6303154
0.2470956
0.2649964
0.2857195
0.3099984
0.3388493
0.3736287
0.4163092
0.4698932
0.5379323
0.6159208
0.2304312
0.2459465
0.263718
0.2842815
0.3083601
0.3368817
0.3711598
0.41321
0.4658583
0.5322982
0.6099792
0.2163044
0.2299434
0.2454289
0.2631655
0.2836881
0.3076585
0.3359912
0.3700703
0.4118434
0.46408
0.5321966
0.6077237
0.6899419
0.5865416
0.6962944
0.5062094
0.5884837
0.6998178
0.4444278
0.5064021
0.589023
0.7010711
0.3955192
0.4436714
0.5055941
0.5881466
0.7000213
0.3557069
0.3940741
0.4419789
0.5035479
0.5855123
0.6956301
0.3224518
0.3536159
0.3916029
0.438982
0.4997761
0.5801658
0.6864083
0.2940415
0.3197214
0.3504061
0.3877488
0.434227
0.4935019
0.5711204
0.6711579
0.2695352
0.2909603
0.316136
0.3461599
0.3826103
0.42771
0.484807
0.5588316
0.6503986
0.2488545
0.2670233
0.2880828
0.3127924
0.3422082
0.3777479
0.4214903
0.4766535
0.5473681
0.6312828
0.231474
0.2471357
0.2650877
0.2858776
0.3102456
0.3391447
0.3739289
0.4166848
0.4703785
0.5385846
0.6202556
0.2167664
0.2304658
0.2460246
0.2638515
0.2844873
0.3086019
0.337122
0.3714523
0.4135749
0.4663281
0.5353526
0.6128363
0.2041994
0.2163348
0.2300114
0.2455439
0.2633408
0.2838912
0.3078571
0.3362279
0.3703581
0.4122021
0.466323
0.5342583
0.6098323
0.6795978
0.5828836
0.6903643
0.5050241
0.5868154
0.6971367
0.4444278
0.5064021
0.589023
0.7010711
0.3962289
0.4445715
0.5067806
0.58982
0.7027247
0.3569682
0.3956308
0.4439535
0.5061527
0.5891943
0.7016527
0.3242571
0.3557962
0.3942932
0.442395
0.5042813
0.586544
0.6969803
0.2964043
0.3225249
0.3537909
0.3919252
0.4395265
0.5004958
0.5810176
0.6877331
0.2722224
0.2941018
0.319863
0.3506604
0.3881652
0.4347542
0.4940881
0.5719454
0.6724143
0.2510739
0.2695843
0.2910736
0.3163356
0.3464786
0.3830013
0.4281232
0.4853503
0.559581
0.6514888
0.2330157
0.2488955
0.2671167
0.2882447
0.313046
0.3425119
0.3780579
0.4218801
0.4771604
0.5480566
0.6359739
0.2176886
0.231509
0.2472148
0.2652231
0.2860865
0.3104912
0.3393894
0.3742273
0.4170581
0.470861
0.5417405
0.6233007
0.2046111
0.216797
0.2305342
0.2461403
0.264028
0.2846919
0.308802
0.3373608
0.3717429
0.4139375
0.4685993
0.5374534
0.6150119
0.1933586
0.2042264
0.2163947
0.2301121
0.2456961
0.2635151
0.2840594
0.3080543
0.336463
0.370644
0.4139352
0.4678567
0.5358175
0.6112491
0.6635318
0.5765729
0.6800061
0.5024255
0.5831549
0.6911918
0.4435279
0.5052164
0.5873526
0.6983803
0.3962289
0.4445715
0.5067806
0.58982
0.7027247
0.3575432
0.3963406
0.4448539
0.5073405
0.5908718
0.7043686
0.3253012
0.3570576
0.3958503
0.4443709
0.50689
0.5902353
0.7030244
0.297925
0.3243305
0.3559721
0.3946177
0.4429444
0.50501
0.5874103
0.6983444
0.2742425
0.2964655
0.3226689
0.3540503
0.3923509
0.4400675
0.5011007
0.5818771
0.689074
0.2534012
0.2722737
0.2942206
0.3200728
0.3509964
0.3885789
0.4351971
0.494679
0.5727777
0.673686
0.2349592
0.2511163
0.2696809
0.2912416
0.3165993
0.3467953
0.383327
0.4285364
0.4858936
0.5603308
0.656805
0.2190513
0.2330515
0.2489762
0.2672552
0.2884586
0.313298
0.3427638
0.3783665
0.4222681
0.4776651
0.5513923
0.6394545
0.2054326
0.2177195
0.2315782
0.2473321
0.2654021
0.2862941
0.3106946
0.3396325
0.3745239
0.4174291
0.4731942
0.5439403
0.6256635
0.1937278
0.2046383
0.2168573
0.2306355
0.2462934
0.2642035
0.2848612
0.3090008
0.3375979
0.3720315
0.4156895
0.4701575
0.5390483
0.6164805
0.1835936
0.1933827
0.2042797
0.2164837
0.2302454
0.2458473
0.2636593
0.2842263
0.3082502
0.3366965
0.3720252
0.4151184
0.4690152
0.5368635
0.6119609
0.6425482
0.5668527
0.6639144
0.4979435
0.576839
0.6808062
0.4415549
0.5026167
0.5836872
0.6924139
0.3955192
0.4436714
0.5055941
0.5881466
0.7000213
0.3575432
0.3963406
0.4448539
0.5073405
0.5908718
0.7043686
0.325777
0.3576327
0.3965603
0.4452719
0.5080794
0.5919168
0.7057499
0.2988041
0.3253746
0.3572337
0.3961754
0.4449222
0.5076226
0.5911081
0.704408
0.2755418
0.2979864
0.324475
0.3562327
0.3950462
0.4434902
0.5056214
0.5882827
0.6997223
0.2551489
0.2742946
0.2965862
0.3228824
0.3543929
0.3927739
0.4405221
0.5017107
0.5827443
0.6904313
0.2369947
0.2534454
0.2723748
0.2943967
0.32035
0.3513304
0.3889264
0.4356435
0.4952748
0.5736173
0.6799468
0.2207674
0.2349961
0.2511998
0.2698243
0.2914636
0.3168614
0.3470592
0.3836527
0.4289496
0.486437
0.5639806
0.6613515
0.2066456
0.2190827
0.233122
0.249096
0.2674382
0.2886713
0.313507
0.3430146
0.3786737
0.4226543
0.4801099
0.5538243
0.6423313
0.1944641
0.20546
0.2177805
0.2316807
0.2474871
0.2655799
0.286466
0.3108968
0.3398741
0.3748186
0.4192231
0.4748159
0.545636
0.6272882
0.1839266
0.193752
0.2046919
0.2169467
0.2307695
0.2464456
0.2643487
0.2850294
0.3091982
0.3378334
0.3734261
0.4168896
0.471339
0.5401222
0.6172208
0.1747523
0.1836153
0.1934304
0.2043589
0.2166014
0.2303779
0.2459724
0.2638026
0.2843921
0.3084446
0.3378245
0.3729669
0.4160114
0.4697918
0.5373886
0.6232284
0.5541499
0.6428895
0.4910283
0.5671082
0.6646645
0.4381495
0.4981322
0.5773614
0.6819882
0.3939628
0.4416978
0.5029923
0.5844739
0.6940267
0.3569682
0.3956308
0.4439535
0.5061527
0.5891943
0.7016527
0.325777
0.3576327
0.3965603
0.4452719
0.5080794
0.5919168
0.7057499
0.2992046
0.3258504
0.3578088
0.3968856
0.4458238
0.5088135
0.5927924
0.7071421
0.2762924
0.2988654
0.3255191
0.3574946
0.3966048
0.4454698
0.5082364
0.5919861
0.7058036
0.2562721
0.2755939
0.2981074
0.3246893
0.3565771
0.395472
0.4439481
0.5062369
0.5891615
0.7011142
0.2385219
0.2551937
0.2743972
0.2967651
0.3231646
0.3547335
0.3931293
0.4409804
0.5023258
0.5836193
0.6971135
0.2225632
0.2370332
0.2535326
0.2725249
0.2946296
0.3206256
0.3516109
0.3892766
0.4360934
0.4958756
0.5777384
0.6866493
0.2081722
0.2207999
0.2350689
0.2513236
0.2700139
0.2916842
0.3170797
0.3473229
0.3839783
0.4293627
0.4890807
0.5669866
0.6657766
0.1955509
0.2066736
0.2191449
0.2332267
0.2492544
0.2676201
0.2888476
0.3137151
0.3432641
0.3789793
0.4245245
0.4818851
0.5558009
0.6444473
0.1845903
0.1944887
0.2055142
0.217871
0.2318164
0.2476413
0.2657272
0.2866368
0.3110976
0.3401142
0.3762433
0.4204677
0.4760639
0.5467951
0.6281192
0.175054
0.1839484
0.1938
0.2047714
0.2170651
0.2309028
0.2465715
0.2644929
0.2851964
0.3093942
0.3389714
0.3743802
0.4177987
0.4721337
0.5406627
0.1667098
0.1747719
0.1836583
0.1935013
0.2044636
0.2167184
0.2304875
0.2460967
0.2639448
0.2845567
0.309384
0.3385928
0.3736773
0.4166096
0.4701815
0.6084235
0.5423097
0.623538
0.4819524
0.5543859
0.6435584
0.4328853
0.4912112
0.5676097
0.6657726
0.3912747
0.4382911
0.4985031
0.5781336
0.6835484
0.3557069
0.3940741
0.4419789
0.5035479
0.5855123
0.6956301
0.3253012
0.3570576
0.3958503
0.4443709
0.50689
0.5902353
0.7030244
0.2992046
0.3258504
0.3578088
0.3968856
0.4458238
0.5088135
0.5927924
0.7071421
0.2766344
0.299266
0.325995
0.3580697
0.3973152
0.446372
0.5094283
0.5936727
0.7085453
0.2569208
0.2763445
0.2989864
0.3257334
0.3578393
0.3970314
0.4459285
0.5088535
0.5928692
0.7072112
0.2395028
0.2563169
0.2756967
0.2982868
0.3249724
0.3569192
0.3958291
0.4444089
0.5068565
0.5900467
0.707953
0.2239093
0.2385609
0.2552821
0.2745495
0.2970017
0.323445
0.3550196
0.3934876
0.4414425
0.5029462
0.587914
0.7041635
0.2097683
0.222597
0.2371093
0.2536621
0.2727234
0.2948611
0.3208571
0.3518935
0.3896296
0.436547
0.4988226
0.5819011
0.6950972
0.1969178
0.208201
0.220864
0.235177
0.2514874
0.2702023
0.291868
0.317298
0.3475866
0.3843039
0.4313721
0.4912453
0.5698144
0.6697322
0.1855696
0.1955759
0.2067288
0.2192372
0.2333651
0.2494119
0.2677709
0.2890231
0.3139221
0.3435125
0.3804594
0.4258801
0.483324
0.557232
0.645598
0.1756554
0.1846124
0.1945371
0.2055947
0.2179908
0.2319513
0.2477689
0.2658735
0.2868065
0.3112971
0.3412745
0.3772305
0.4214247
0.4769157
0.5473855
0.1669845
0.1750737
0.1839916
0.1938712
0.2048767
0.2171828
0.2310131
0.2466965
0.264636
0.2853622
0.3103412
0.3397491
0.3751026
0.4184099
0.4725335
0.1593633
0.1667277
0.1748108
0.1837221
0.1935951
0.2045677
0.2168153
0.2305963
0.24622
0.2640859
0.2853516
0.3100234
0.3391721
0.374153
0.4169097
0.5986739
0.5331156
0.6087123
0.4734476
0.5425304
0.6241448
0.4259515
0.4821234
0.5548491
0.6445462
0.3871127
0.4330233
0.4915706
0.5683513
0.6672354
0.353527
0.3913853
0.4385696
0.4990517
0.5791529
0.6850994
0.3242571
0.3557962
0.3942932
0.442395
0.5042813
0.586544
0.6969803
0.2988041
0.3253746
0.3572337
0.3961754
0.4449222
0.5076226
0.5911081
0.704408
0.2766344
0.299266
0.325995
0.3580697
0.3973152
0.446372
0.5094283
0.5936727
0.7085453
0.2572163
0.2766865
0.2993868
0.3262092
0.3584144
0.397742
0.4468311
0.510046
0.5945575
0.7099597
0.2400691
0.2569655
0.2764472
0.2991657
0.3260166
0.3581817
0.3973886
0.4463896
0.509474
0.5937575
0.7141167
0.2247734
0.2395418
0.2564054
0.2758492
0.2985239
0.3252538
0.3572062
0.3961884
0.4448727
0.5074802
0.5943834
0.7148331
0.2109639
0.2239435
0.2386379
0.2554133
0.2747508
0.2972369
0.3236806
0.3553079
0.3938487
0.4419084
0.5059892
0.5922027
0.7127113
0.1983457
0.2097983
0.2226638
0.2372221
0.2538333
0.2729207
0.2950555
0.3210903
0.3521784
0.3899854
0.4387716
0.5017787
0.5869202
0.7060571
0.1868005
0.1969435
0.2082579
0.2209592
0.23532
0.2516502
0.2703592
0.2920517
0.3175161
0.3478502
0.385887
0.4330144
0.4932725
0.5722656
0.6724702
0.1765423
0.1855921
0.1956252
0.2068107
0.2193593
0.2335028
0.2495424
0.267921
0.2891977
0.314128
0.3447147
0.3815309
0.4269778
0.4843632
0.5580008
0.1675319
0.1756753
0.184656
0.1946091
0.2057011
0.2181098
0.232063
0.2478956
0.2660189
0.286975
0.3122614
0.3420778
0.3779891
0.4220775
0.4773492
0.1596144
0.1670025
0.1751128
0.1840557
0.1939655
0.2049814
0.2172801
0.2311226
0.2468207
0.2647782
0.2861632
0.310988
0.3403376
0.375588
0.4187172
0.1526269
0.1593796
0.166763
0.1748686
0.1838066
0.1936884
0.2046539
0.2169114
0.2307044
0.2463425
0.2647677
0.2858924
0.3105053
0.3395599
0.3743915
0.5938772
0.5269966
0.5989502
0.4668125
0.533326
0.6092785
0.4194254
0.4736094
0.5429636
0.6250408
0.3816152
0.4260815
0.4824595
0.5555338
0.6458494
0.3501473
0.3872209
0.4332947
0.4921023
0.56933
0.6686896
0.3224518
0.3536159
0.3916029
0.438982
0.4997761
0.5801658
0.6864083
0.297925
0.3243305
0.3559721
0.3946177
0.4429444
0.50501
0.5874103
0.6983444
0.2762924
0.2988654
0.3255191
0.3574946
0.3966048
0.4454698
0.5082364
0.5919861
0.7058036
0.2572163
0.2766865
0.2993868
0.3262092
0.3584144
0.397742
0.4468311
0.510046
0.5945575
0.7099597
0.2403271
0.257261
0.2767891
0.2995661
0.3264924
0.3587569
0.3980993
0.4472921
0.5106666
0.595447
0.7168934
0.2252722
0.2401081
0.2570539
0.2765996
0.2994027
0.326298
0.3584685
0.3977477
0.4468531
0.5100978
0.5981041
0.7208325
0.2117309
0.2248076
0.2396188
0.2565367
0.2760509
0.2987596
0.3254898
0.3574949
0.39655
0.4453395
0.5105348
0.5985308
0.7228069
0.1994146
0.2109941
0.2240111
0.2387521
0.2555868
0.274951
0.2974344
0.323918
0.3555985
0.3942128
0.4441931
0.5090113
0.5971909
0.7229286
0.1880855
0.1983724
0.2098575
0.2227631
0.2373714
0.2540036
0.2730864
0.2952514
0.3213253
0.3524655
0.39173
0.4410004
0.5053239
0.5932012
0.7210265
0.1776564
0.1868236
0.1969943
0.2083424
0.2210851
0.2354622
0.2517859
0.2705161
0.2922353
0.3177341
0.3491319
0.3871797
0.4345509
0.4950227
0.5739189
0.1683388
0.1765626
0.1856364
0.1956985
0.2069192
0.2194806
0.2336169
0.2496723
0.2680704
0.2893714
0.3151251
0.3455843
0.382398
0.42777
0.4849206
0.1601147
0.16755
0.1757148
0.1847208
0.1947043
0.205807
0.2182083
0.2321739
0.2480216
0.2661632
0.2877897
0.3129285
0.3426948
0.3785063
0.4224096
0.1528573
0.1596308
0.167038
0.1751708
0.1841405
0.1940592
0.205068
0.2173768
0.2312313
0.246944
0.2654648
0.2867099
0.3114772
0.340733
0.375832
0.1464283
0.1526418
0.1594119
0.1668156
0.174945
0.1838906
0.1937655
0.2047394
0.2170068
0.2308116
0.2469338
0.2652313
0.2862999
0.3108278
0.3397543
0.5239655
0.5941476
0.4623812
0.5272006
0.5994918
0.414314
0.4669681
0.533739
0.6101145
0.3764229
0.4195491
0.4739272
0.5436037
0.6262226
0.3456729
0.3817175
0.426337
0.4829565
0.5564371
0.6471441
0.3196496
0.3502345
0.3874337
0.4336964
0.4928044
0.5703026
0.6699163
0.2964043
0.3225249
0.3537909
0.3919252
0.4395265
0.5004958
0.5810176
0.6877331
0.2755418
0.2979864
0.324475
0.3562327
0.3950462
0.4434902
0.5056214
0.5882827
0.6997223
0.2569208
0.2763445
0.2989864
0.3257334
0.3578393
0.3970314
0.4459285
0.5088535
0.5928692
0.7072112
0.2403271
0.257261
0.2767891
0.2995661
0.3264924
0.3587569
0.3980993
0.4472921
0.5106666
0.595447
0.7168934
0.2254993
0.240366
0.2573493
0.2769414
0.299803
0.3267737
0.3590436
0.3984581
0.4477553
0.5112902
0.5997965
0.7235308
0.2121736
0.2253063
0.2401849
0.257185
0.2768011
0.2996383
0.3265337
0.3587567
0.3981085
0.4473189
0.5131485
0.602134
0.7284002
0.2001001
0.2117612
0.2248752
0.239733
0.2567103
0.2762513
0.2989573
0.3257271
0.3577853
0.3969139
0.4476248
0.5134435
0.6031468
0.7318851
0.1890468
0.1994416
0.211054
0.2241115
0.2389032
0.2557593
0.2751191
0.2976334
0.3241572
0.3558914
0.3959979
0.4464603
0.5125119
0.602951
0.7349571
0.1788188
0.1881095
0.1984253
0.2099455
0.2228944
0.2375199
0.2541466
0.2732534
0.2954488
0.3215621
0.353873
0.3934773
0.4436704
0.5097364
0.6015323
0.7462298
0.1693519
0.1776772
0.1868692
0.1970697
0.2084541
0.2212103
0.2355806
0.2519214
0.2706728
0.2924188
0.3187942
0.3501778
0.3883887
0.4358763
0.4961994
0.1608518
0.1683572
0.1766027
0.1857023
0.1957955
0.207027
0.2195812
0.2337304
0.2498015
0.268219
0.2902123
0.3158457
0.3462879
0.3830237
0.4281949
0.1533161
0.1601312
0.1675858
0.1757734
0.1848065
0.1947991
0.2058946
0.2183062
0.2322841
0.2481466
0.2668609
0.2883529
0.3134406
0.3431154
0.3787694
0.1466404
0.1528723
0.1596632
0.1670907
0.1752476
0.184225
0.1941368
0.205154
0.2174728
0.2313392
0.2475393
0.2659332
0.2871233
0.3118058
0.3409317
0.1407064
0.146442
0.1526714
0.1594599
0.1668851
0.1750211
0.1839601
0.1938421
0.2048243
0.2171016
0.2313295
0.2473357
0.2655805
0.2865725
0.3109895
0.4601811
0.5241666
0.5946778
0.4108903
0.462533
0.5276012
0.6002918
0.3723435
0.4144336
0.4672737
0.5343493
0.6112172
0.3414353
0.3765207
0.4197923
0.4743971
0.5444481
0.6273964
0.3159329
0.3457557
0.3819188
0.4267151
0.4836124
0.5573343
0.6482262
0.2940415
0.3197214
0.3504061
0.3877488
0.434227
0.4935019
0.5711204
0.6711579
0.2742425
0.2964655
0.3226689
0.3540503
0.3923509
0.4400675
0.5011007
0.5818771
0.689074
0.2562721
0.2755939
0.2981074
0.3246893
0.3565771
0.395472
0.4439481
0.5062369
0.5891615
0.7011142
0.2400691
0.2569655
0.2764472
0.2991657
0.3260166
0.3581817
0.3973886
0.4463896
0.509474
0.5937575
0.7141167
0.2254993
0.240366
0.2573493
0.2769414
0.299803
0.3267737
0.3590436
0.3984581
0.4477553
0.5112902
0.5997965
0.7235308
0.2123751
0.2255334
0.2404427
0.2574803
0.2771427
0.3000385
0.3270092
0.3593314
0.3988184
0.4482205
0.514338
0.6037716
0.730916
0.2004956
0.2122038
0.2253738
0.240299
0.2573584
0.2770013
0.2998356
0.3267704
0.3590463
0.3984711
0.4495965
0.5159669
0.6064977
0.7368131
0.1896631
0.2001271
0.211821
0.2249756
0.2398842
0.256883
0.2764194
0.2991561
0.325966
0.3580776
0.3986951
0.4497994
0.516671
0.60822
0.742031
0.179688
0.189071
0.199495
0.2111429
0.2242443
0.2390535
0.2559042
0.2752885
0.297834
0.3243984
0.3573277
0.397769
0.4490846
0.516538
0.60953
0.7507848
0.1704084
0.1788405
0.1881569
0.1985038
0.2100619
0.223025
0.2376445
0.2542906
0.2734216
0.2956477
0.3227233
0.3552827
0.3955699
0.4469882
0.5155562
0.6152477
0.7601983
0.161777
0.1693708
0.1777184
0.186937
0.1971695
0.2085652
0.2213146
0.2356989
0.2520568
0.2708295
0.293311
0.319659
0.3511559
0.3894313
0.436767
0.1539921
0.1608686
0.1683936
0.1766622
0.1857895
0.1958919
0.2071164
0.2196813
0.2338434
0.2499301
0.268938
0.2908197
0.3164287
0.3467954
0.3833592
0.1470627
0.1533313
0.1601639
0.1676391
0.1758509
0.1848918
0.1948775
0.2059816
0.2184035
0.2323935
0.248751
0.267343
0.2887852
0.3137897
0.3433292
0.1409023
0.1466542
0.1529019
0.1597114
0.1671606
0.175324
0.1842948
0.1942138
0.2052394
0.2175681
0.2318604
0.2479452
0.2662873
0.2874009
0.311971
0.1354092
0.1407191
0.1464692
0.1527153
0.1595234
0.1669543
0.175084
0.1840291
0.1939182
0.2049086
0.217559
0.2316814
0.2476384
0.2658141
0.2867091
0.409187
0.460331
0.5245611
0.5954608
0.3696046
0.4110073
0.462831
0.5281931
0.6013469
0.3380976
0.3724384
0.4146686
0.4677256
0.5351544
0.6123123
0.312405
0.3415146
0.3767132
0.4201521
0.4750173
0.5452867
0.6283722
0.2909028
0.3160013
0.3459186
0.3822168
0.4272142
0.4842639
0.5580827
0.649311
0.2722224
0.2941018
0.319863
0.3506604
0.3881652
0.4347542
0.4940881
0.5719454
0.6724143
0.2551489
0.2742946
0.2965862
0.3228824
0.3543929
0.3927739
0.4405221
0.5017107
0.5827443
0.6904313
0.2395028
0.2563169
0.2756967
0.2982868
0.3249724
0.3569192
0.3958291
0.4444089
0.5068565
0.5900467
0.707953
0.2252722
0.2401081
0.2570539
0.2765996
0.2994027
0.326298
0.3584685
0.3977477
0.4468531
0.5100978
0.5981041
0.7208325
0.2123751
0.2255334
0.2404427
0.2574803
0.2771427
0.3000385
0.3270092
0.3593314
0.3988184
0.4482205
0.514338
0.6037716
0.730916
0.2006757
0.2124053
0.2256008
0.2405567
0.2576536
0.2773428
0.3002355
0.3272456
0.3596205
0.3991803
0.4504937
0.5171144
0.608023
0.7390452
0.1900186
0.2005225
0.2122635
0.2254739
0.2404499
0.2575308
0.277169
0.3000337
0.3270083
0.3593372
0.4002438
0.4516994
0.5190116
0.6111777
0.7460402
0.180245
0.1896873
0.2001804
0.2119099
0.2251083
0.2400344
0.2570277
0.2765884
0.2993561
0.3262062
0.3595081
0.4003897
0.4522115
0.5202076
0.6137096
0.7548213
0.171198
0.1797098
0.1891189
0.1995743
0.2112606
0.2243764
0.2391797
0.2560502
0.2754593
0.2980362
0.3255806
0.3587528
0.3998189
0.4520994
0.5211183
0.6179488
0.7621786
0.1627412
0.170428
0.1788833
0.1882274
0.1986077
0.2101777
0.2231347
0.2377701
0.2544358
0.2735911
0.2966227
0.3238861
0.3569708
0.3981681
0.4513537
0.5250824
0.6232274
0.7708239
0.1548402
0.1617942
0.1694082
0.1777797
0.1870267
0.1972688
0.2086578
0.2214188
0.2358171
0.2521922
0.2715911
0.2940385
0.3204676
0.3519992
0.3901319
0.1476848
0.1540075
0.1609018
0.1684477
0.1767411
0.1858763
0.1959718
0.2072053
0.2197809
0.2339558
0.2505523
0.2694573
0.291311
0.3168491
0.3470675
0.1412923
0.1470766
0.1533612
0.1602125
0.1677096
0.1759281
0.1849624
0.1949554
0.206068
0.2185
0.2329223
0.2491685
0.2677129
0.2890798
0.3139672
0.1355906
0.140915
0.1466815
0.1529461
0.1597751
0.1672301
0.1753873
0.1843641
0.1942902
0.2053242
0.2180283
0.2322156
0.248252
0.2665251
0.2875404
0.1304917
0.1354209
0.1407442
0.1465096
0.1527736
0.1595866
0.1670115
0.1751465
0.1840976
0.1939936
0.2053156
0.2178696
0.2319463
0.2478409
0.2659311
0.3682399
0.4093028
0.4606254
0.5251443
0.5964936
0.3358526
0.3696977
0.4112373
0.4632719
0.528974
0.6023947
0.3096208
0.3381748
0.3726251
0.4150164
0.468322
0.535954
0.6132209
0.2879181
0.3124708
0.3416709
0.3769981
0.4206271
0.4756332
0.5459831
0.6293452
0.2695352
0.2909603
0.316136
0.3461599
0.3826103
0.42771
0.484807
0.5588316
0.6503986
0.2534012
0.2722737
0.2942206
0.3200728
0.3509964
0.3885789
0.4351971
0.494679
0.5727777
0.673686
0.2385219
0.2551937
0.2743972
0.2967651
0.3231646
0.3547335
0.3931293
0.4409804
0.5023258
0.5836193
0.6971135
0.2247734
0.2395418
0.2564054
0.2758492
0.2985239
0.3252538
0.3572062
0.3961884
0.4448727
0.5074802
0.5943834
0.7148331
0.2121736
0.2253063
0.2401849
0.257185
0.2768011
0.2996383
0.3265337
0.3587567
0.3981085
0.4473189
0.5131485
0.602134
0.7284002
0.2006757
0.2124053
0.2256008
0.2405567
0.2576536
0.2773428
0.3002355
0.3272456
0.3596205
0.3991803
0.4504937
0.5171144
0.608023
0.7390452
0.1901804
0.2007026
0.2124649
0.2257008
0.2407074
0.2578258
0.2775103
0.3004333
0.3274829
0.3599107
0.4009485
0.4525633
0.5200779
0.6125363
0.7478998
0.1805663
0.1900427
0.2005757
0.2123521
0.2256064
0.2405999
0.2576752
0.2773374
0.3002328
0.3272473
0.3607594
0.4018802
0.4539708
0.5222696
0.6161409
0.7575567
0.1717038
0.1802668
0.1897351
0.2002596
0.2120274
0.2252404
0.2401604
0.2571733
0.2767585
0.2995573
0.3273821
0.3608691
0.4022696
0.4548528
0.5240238
0.6204172
0.7644876
0.1634616
0.1712178
0.179753
0.1891901
0.1996793
0.2113776
0.2244873
0.2393068
0.2561973
0.2756313
0.2990273
0.3267537
0.3604022
0.4021724
0.4555234
0.5269578
0.6245113
0.771816
0.1557237
0.1627591
0.1704669
0.1789469
0.1883208
0.1987111
0.210275
0.2232452
0.2378966
0.254582
0.274422
0.2975992
0.3252786
0.3590655
0.4015817
0.458477
0.5305925
0.6296741
0.7791772
0.1484649
0.1548559
0.1618283
0.1694638
0.1778608
0.187116
0.1973515
0.2087503
0.2215229
0.2359353
0.2528502
0.272212
0.2947187
0.3211647
0.3525659
0.1418665
0.1476989
0.1540379
0.1609512
0.1685194
0.1768195
0.1859482
0.1960514
0.2072938
0.21988
0.2344995
0.2510014
0.2698771
0.2916652
0.3170745
0.1359517
0.1413051
0.1471042
0.1534057
0.1602768
0.1677797
0.175992
0.1850325
0.1950327
0.2061539
0.2189666
0.2332874
0.2494888
0.267965
0.2892295
0.1306601
0.1356023
0.1409402
0.1467221
0.1530045
0.1598386
0.1672875
0.17545
0.184433
0.1943661
0.2057334
0.2183418
0.2324841
0.248458
0.2666445
0.1259153
0.1305025
0.1354441
0.1407815
0.1465632
0.1528315
0.1596388
0.1670683
0.1752085
0.1841655
0.194358
0.2055919
0.2181035
0.2321235
0.2479423
0.3347324
0.3683321
0.4095304
0.4610609
0.5259136
0.5975193
0.3077452
0.3359285
0.3698808
0.4115777
0.4638536
0.5297494
0.6032636
0.2855587
0.309685
0.3383269
0.3729014
0.4154755
0.4689143
0.5366169
0.6141252
0.266976
0.2879735
0.3126004
0.3419024
0.3773743
0.4210989
0.4761444
0.546677
0.6303154
0.2510739
0.2695843
0.2910736
0.3163356
0.3464786
0.3830013
0.4281232
0.4853503
0.559581
0.6514888
0.2369947
0.2534454
0.2723748
0.2943967
0.32035
0.3513304
0.3889264
0.4356435
0.4952748
0.5736173
0.6799468
0.2239093
0.2385609
0.2552821
0.2745495
0.2970017
0.323445
0.3550196
0.3934876
0.4414425
0.5029462
0.587914
0.7041635
0.2117309
0.2248076
0.2396188
0.2565367
0.2760509
0.2987596
0.3254898
0.3574949
0.39655
0.4453395
0.5105348
0.5985308
0.7228069
0.2004956
0.2122038
0.2253738
0.240299
0.2573584
0.2770013
0.2998356
0.3267704
0.3590463
0.3984711
0.4495965
0.5159669
0.6064977
0.7368131
0.1901804
0.2007026
0.2124649
0.2257008
0.2407074
0.2578258
0.2775103
0.3004333
0.3274829
0.3599107
0.4009485
0.4525633
0.5200779
0.6125363
0.7478998
0.1807125
0.1902045
0.2007557
0.2125534
0.2258332
0.2408573
0.2579699
0.2776783
0.300632
0.3277213
0.3613286
0.4025579
0.4547722
0.5232179
0.6172875
0.7589166
0.1719955
0.180588
0.1900904
0.2006547
0.2124694
0.2257382
0.2407255
0.2578201
0.2775066
0.3004328
0.3284154
0.3620722
0.4036479
0.4564001
0.5257176
0.6221354
0.7662812
0.163923
0.1717236
0.18031
0.1898062
0.2003645
0.2121444
0.225351
0.2402871
0.2573197
0.2769295
0.3005419
0.3285008
0.3623789
0.4043272
0.4576999
0.5286753
0.6260351
0.7731504
0.1563835
0.1634797
0.1712569
0.1798173
0.1892843
0.1997837
0.2114759
0.2245991
0.239435
0.2563455
0.2764747
0.3000107
0.3281115
0.362295
0.4048426
0.4598802
0.5314959
0.6304274
0.7797528
0.1492773
0.1557401
0.1627945
0.1705246
0.1790312
0.1884136
0.1987979
0.2103729
0.2233565
0.2380241
0.2552988
0.2752541
0.2987685
0.3270057
0.3618147
0.4071396
0.4625764
0.5350386
0.6350175
0.7857793
0.1425863
0.1484794
0.1548871
0.161879
0.1695374
0.1779415
0.1871903
0.1974342
0.2088427
0.221627
0.2365096
0.2533865
0.2727925
0.295305
0.3216331
0.1364832
0.1418795
0.1477268
0.1540831
0.1610165
0.1685906
0.1768846
0.1860197
0.1961305
0.2073818
0.2203594
0.234892
0.2513645
0.2701799
0.2918552
0.1309954
0.1359635
0.1413305
0.1471451
0.1534647
0.1603409
0.1678378
0.1760554
0.1851021
0.1951095
0.2065686
0.2192886
0.2335674
0.249707
0.2680931
0.1260721
0.130671
0.1356256
0.1409777
0.1467758
0.1530627
0.1598911
0.1673446
0.1755123
0.1845013
0.1947325
0.2060122
0.2185788
0.2326643
0.2485615
0.1216467
0.1259254
0.1305241
0.1354786
0.1408309
0.1466165
0.1528794
0.1596907
0.1671247
0.17527
0.1844937
0.1946053
0.2057998
0.2182599
0.2322123
0.3068084
0.3348077
0.3685135
0.4098672
0.4616356
0.5266776
0.5983697
0.2839672
0.3078083
0.3360778
0.3701519
0.412027
0.4644312
0.5303922
0.604128
0.2649501
0.2856128
0.3098112
0.338552
0.3732663
0.4159314
0.4694051
0.5372764
0.6150252
0.2488545
0.2670233
0.2880828
0.3127924
0.3422082
0.3777479
0.4214903
0.4766535
0.5473681
0.6312828
0.2349592
0.2511163
0.2696809
0.2912416
0.3165993
0.3467953
0.383327
0.4285364
0.4858936
0.5603308
0.656805
0.2225632
0.2370332
0.2535326
0.2725249
0.2946296
0.3206256
0.3516109
0.3892766
0.4360934
0.4958756
0.5777384
0.6866493
0.2109639
0.2239435
0.2386379
0.2554133
0.2747508
0.2972369
0.3236806
0.3553079
0.3938487
0.4419084
0.5059892
0.5922027
0.7127113
0.2001001
0.2117612
0.2248752
0.239733
0.2567103
0.2762513
0.2989573
0.3257271
0.3577853
0.3969139
0.4476248
0.5134435
0.6031468
0.7318851
0.1900186
0.2005225
0.2122635
0.2254739
0.2404499
0.2575308
0.277169
0.3000337
0.3270083
0.3593372
0.4002438
0.4516994
0.5190116
0.6111777
0.7460402
0.1807125
0.1902045
0.2007557
0.2125534
0.2258332
0.2408573
0.2579699
0.2776783
0.300632
0.3277213
0.3613286
0.4025579
0.4547722
0.5232179
0.6172875
0.7589166
0.1721282
0.1807342
0.1902522
0.2008346
0.2126706
0.2259648
0.2409826
0.2581146
0.2778471
0.3008314
0.3288854
0.3626191
0.4042759
0.457112
0.5265177
0.6230042
0.7672322
0.164189
0.1720152
0.180631
0.1901613
0.2007593
0.2125861
0.2258485
0.2408516
0.2579658
0.2776765
0.3014103
0.3294936
0.3634905
0.4055383
0.4589696
0.5298744
0.6272416
0.7742863
0.156806
0.163941
0.1717627
0.1803741
0.1899003
0.2004688
0.2122424
0.2254624
0.2404146
0.257467
0.2777666
0.3014787
0.329742
0.3640313
0.406544
0.4611658
0.5325688
0.6314307
0.7805715
0.1498837
0.1564
0.1635153
0.1713152
0.1799023
0.1893781
0.1998714
0.2115749
0.2247117
0.2395641
0.2570722
0.2773116
0.301149
0.3296692
0.364441
0.4082355
0.4632564
0.5355831
0.6355531
0.7861649
0.1433357
0.1492923
0.1557724
0.1628472
0.1706011
0.1791151
0.1884916
0.1988854
0.2104716
0.2234686
0.238649
0.2560167
0.2762506
0.3002184
0.3292706
0.3662832
0.4103268
0.4658758
0.5387193
0.6394159
0.7909244
0.1371494
0.1425997
0.148508
0.1549336
0.1619461
0.1696107
0.1780086
0.1872646
0.1975167
0.208935
0.2221328
0.2369777
0.253888
0.2732929
0.2956991
0.1314888
0.1364953
0.1419052
0.1477684
0.154143
0.1610816
0.1686497
0.1769493
0.1860909
0.1962092
0.2078076
0.2207052
0.2352092