/*--------------------------------*- C++ -*----------------------------------*\
| =========                 |                                                 |
| \\      /  F ield         | OpenFOAM: The Open Source CFD Toolbox           |
|  \\    /   O peration     | Version:  2306                                  |
|   \\  /    A nd           | Website:  www.openfoam.com                      |
|    \\/     M anipulation  |                                                 |
\*---------------------------------------------------------------------------*/
FoamFile
{
    version     2.0;
    format      ascii;
    arch        "LSB;label=32;scalar=64";
    class       volScalarField;
    location    "0.9/fuel";
    object      H2O;
}
// * * * * * * * * * * * * * * * * * * * * * * * * * * * * * * * * * * * * * //

dimensions      [0 0 0 0 0 0 0];

internalField   nonuniform List<scalar> 
16000
(
0.4061465
0.4013496
0.4760576
0.4058761
0.3915997
0.4730265
0.4010734
0.5398406
0.4758566
0.405346
0.3767942
0.4669072
0.3913109
0.5376404
0.4728224
0.4005317
0.590833
0.5396907
0.475462
0.4045629
0.3574735
0.4577129
0.3764845
0.533209
0.4666968
0.3907447
0.5891297
0.5374887
0.4724219
0.3997317
0.6317785
0.5907172
0.5393963
0.4748788
0.4035301
0.3364889
0.4458722
0.3571322
0.5265738
0.4574921
0.3758777
0.585706
0.5330535
0.4662838
0.3899086
0.6304137
0.5890127
0.5371906
0.4718299
0.3986766
0.6652844
0.6316863
0.5904896
0.5389608
0.4741094
0.4025044
0.320422
0.4331689
0.3361063
0.5180688
0.4456362
0.3564633
0.5805945
0.526412
0.4570589
0.3749817
0.6276748
0.5855864
0.5327478
0.4656735
0.3888059
0.6641643
0.6303207
0.5887827
0.5367498
0.471049
0.3976287
0.693207
0.6652092
0.6315049
0.5901528
0.5383861
0.4733454
0.4016539
0.3100773
0.4234483
0.3200137
0.5089927
0.4329134
0.3353562
0.5740683
0.5178977
0.4451729
0.3554754
0.6235954
0.5804708
0.5260942
0.4564188
0.3737998
0.6619192
0.62758
0.5853513
0.5322959
0.4648683
0.3877108
0.6922702
0.6640884
0.6301376
0.5884423
0.536168
0.4702735
0.3967597
0.7168423
0.6931443
0.665061
0.6312363
0.5897082
0.5378154
0.4727122
0.4008079
0.3041543
0.4171372
0.3096548
0.5020772
0.4231821
0.3192135
0.5671344
0.5088098
0.4324118
0.334248
0.6184031
0.5739383
0.5175616
0.4444883
0.3541722
0.6585816
0.6234976
0.5802276
0.5256242
0.4555743
0.372626
0.6903946
0.661842
0.6273933
0.5850035
0.5316995
0.4640688
0.3868021
0.7160468
0.6922071
0.663939
0.6298665
0.587993
0.5355904
0.4696307
0.3958954
0.7371149
0.7167894
0.693021
0.6648416
0.6308817
0.5892666
0.5373426
0.4720827
0.3999666
0.3014829
0.413479
0.3037243
0.497595
0.416866
0.3088273
0.5618701
0.5018885
0.4226597
0.3180315
0.6129055
0.5669964
0.5084503
0.4316703
0.3327852
0.6543439
0.6183008
0.5736828
0.5170646
0.443585
0.3528775
0.6876104
0.6585022
0.6233051
0.5798677
0.525004
0.4547357
0.3716502
0.7144554
0.6903305
0.66169
0.6271169
0.5845444
0.5311072
0.4634058
0.3858977
0.7364306
0.7159935
0.6920828
0.6637177
0.6295085
0.5875468
0.5351118
0.4689917
0.3950356
0.7546998
0.7370695
0.7166851
0.6928382
0.6645518
0.6305295
0.5889009
0.5368727
0.4714568
0.3991298
0.3014829
0.4118118
0.3010495
0.4949963
0.4132052
0.302882
0.5584646
0.4974038
0.4163337
0.3076052
0.6087435
0.5617285
0.5015176
0.4218875
0.3164713
0.6498695
0.6127974
0.566725
0.5079186
0.4306915
0.331331
0.6840825
0.6542612
0.6180995
0.5733047
0.5164087
0.4426877
0.3517953
0.712096
0.6875446
0.6583459
0.6230202
0.5793927
0.5243882
0.4540392
0.3706771
0.7350628
0.7144013
0.6902042
0.6614648
0.6267521
0.5840885
0.5306164
0.4627463
0.3849977
0.7541048
0.736385
0.7158884
0.6918986
0.6634255
0.629153
0.5871772
0.5346361
0.4683563
0.3941805
0.7701017
0.7546605
0.7369801
0.7165304
0.6925968
0.6642639
0.6302378
0.5885376
0.5364057
0.4708347
0.3950824
0.3041543
0.4118118
0.3010495
0.493811
0.4115369
0.3002006
0.5564915
0.4948041
0.412668
0.3016383
0.6060554
0.5583217
0.4970282
0.4155469
0.3059923
0.6464898
0.6086329
0.5614499
0.5009689
0.4208681
0.3149202
0.6803658
0.6497824
0.6125846
0.5663232
0.5072165
0.4297189
0.3301041
0.7091113
0.6840142
0.6540983
0.6178015
0.5728056
0.5157572
0.4419393
0.3507105
0.7330369
0.7120406
0.6874151
0.6581144
0.6226441
0.578921
0.5238769
0.4533454
0.3697069
0.7529161
0.7350165
0.7142946
0.690017
0.6611675
0.6263896
0.5837107
0.5301283
0.4620904
0.3841021
0.7695795
0.7540652
0.7362949
0.7157326
0.6916553
0.6631352
0.6288586
0.5868099
0.5341633
0.4677246
0.3900439
0.7837054
0.7700673
0.7545829
0.7368474
0.716326
0.6923569
0.6640256
0.6299481
0.5881766
0.5359416
0.4678263
0.3922995
0.3100773
0.413479
0.3037243
0.493811
0.4115369
0.3002006
0.5555916
0.4936183
0.4109975
0.2989473
0.6044989
0.556348
0.4944264
0.411874
0.2999972
0.64431
0.605944
0.5580405
0.4964726
0.4145084
0.3043889
0.6775637
0.646401
0.6084153
0.5610376
0.5002446
0.4198553
0.3136113
0.7059727
0.680294
0.6496108
0.6122694
0.5657927
0.506519
0.428901
0.3288626
0.7304777
0.7090539
0.6838795
0.653857
0.6174079
0.5723098
0.5152141
0.4411904
0.3496229
0.7511573
0.7329896
0.7119314
0.6872231
0.6578087
0.6222704
0.5785295
0.5233679
0.4526542
0.3687395
0.7685368
0.7528761
0.7349252
0.7141365
0.6897698
0.6608721
0.6260894
0.5833352
0.529643
0.461438
0.3797671
0.7832433
0.7695449
0.7539872
0.7361614
0.7155268
0.6914136
0.6628948
0.6285661
0.5864451
0.5336934
0.4646701
0.3871866
0.7958095
0.783675
0.7699994
0.7544678
0.736672
0.7161228
0.6921583
0.6637889
0.6296603
0.5878179
0.5336986
0.4657645
0.3901908
0.320422
0.4171372
0.3096548
0.4949963
0.4132052
0.302882
0.5555916
0.4936183
0.4109975
0.2989473
0.6037892
0.5554479
0.4932398
0.4102005
0.2972936
0.6430486
0.6043873
0.556066
0.4938677
0.4108262
0.2983658
0.6757584
0.6442206
0.6057249
0.5576245
0.4957392
0.4134767
0.3030386
0.7036099
0.6774906
0.6462259
0.608093
0.5604931
0.4995249
0.4190034
0.3122864
0.7277906
0.7059124
0.6801525
0.6493564
0.6118531
0.5652655
0.5059328
0.428076
0.3276061
0.7489379
0.7304287
0.7089405
0.6836799
0.6535382
0.617017
0.5718965
0.5146708
0.4404409
0.3485326
0.7669951
0.7511163
0.7328962
0.7117695
0.6869694
0.657505
0.6219604
0.5781398
0.5228609
0.4519658
0.3640482
0.7823212
0.7685017
0.752797
0.7347898
0.7139276
0.6895242
0.6606274
0.625791
0.5829619
0.5291605
0.4582821
0.3767219
0.7953978
0.7832128
0.7694766
0.7538714
0.7359849
0.7153222
0.6912134
0.6626561
0.6282755
0.5860825
0.5314222
0.4625693
0.385011
0.8066495
0.7957825
0.7836151
0.7698986
0.7543157
0.7364978
0.7159547
0.6919611
0.6635538
0.6293744
0.5860847
0.5321648
0.4642053
0.388774
0.3364889
0.4234483
0.3200137
0.497595
0.416866
0.3088273
0.5564915
0.4948041
0.412668
0.3016383
0.6037892
0.5554479
0.4932398
0.4102005
0.2972936
0.6424736
0.6036775
0.5551655
0.4926799
0.4091486
0.2956497
0.6747143
0.6429592
0.6041678
0.5556485
0.4931304
0.4097852
0.296994
0.7020892
0.675685
0.6440447
0.6054005
0.5570751
0.4950105
0.4126105
0.3016745
0.7257705
0.7035487
0.6773466
0.6459666
0.6076673
0.5599521
0.4989199
0.4181439
0.3109454
0.7466107
0.7277394
0.7057936
0.6799427
0.6490204
0.6114394
0.5648226
0.5053418
0.4272437
0.3263343
0.7650517
0.7488956
0.730332
0.7087726
0.6834161
0.6532215
0.6166913
0.5714834
0.5141275
0.4396911
0.3432162
0.7809586
0.7669593
0.7510356
0.7327578
0.7115555
0.6867174
0.657253
0.6216518
0.5777518
0.5223562
0.4486299
0.3605675
0.7945763
0.7822903
0.7684326
0.7526797
0.7346108
0.71372
0.6893208
0.6603843
0.6254945
0.5825908
0.5268272
0.4560822
0.374359
0.8062803
0.7953706
0.7831525
0.7693752
0.7537183
0.7358094
0.7151529
0.6910147
0.6624189
0.6279869
0.5843304
0.5298639
0.4609744
0.3835424
0.8164137
0.8066254
0.7957292
0.7835261
0.7697653
0.7541645
0.7363535
0.7157878
0.6917653
0.6633203
0.6279932
0.5849016
0.5310063
0.4631592
0.3880621
0.3574735
0.4331689
0.3361063
0.5020772
0.4231821
0.3192135
0.5584646
0.4974038
0.4163337
0.3076052
0.6044989
0.556348
0.4944264
0.411874
0.2999972
0.6424736
0.6036775
0.5551655
0.4926799
0.4091486
0.2956497
0.6742385
0.6423841
0.6034578
0.5547475
0.4919409
0.4081036
0.2942684
0.7012102
0.6746409
0.6427831
0.6038427
0.5550973
0.4923978
0.4089124
0.2956104
0.7244713
0.7020278
0.6755404
0.6437841
0.604972
0.5565292
0.4943991
0.4117379
0.3002965
0.7448631
0.7257185
0.7034281
0.6771331
0.6456239
0.6072443
0.5594974
0.4983099
0.4172766
0.3095881
0.7630161
0.7465665
0.7276382
0.7056175
0.6796654
0.6486864
0.6110918
0.5643762
0.504746
0.4264041
0.3200733
0.7792425
0.7650148
0.7488121
0.7301886
0.7085506
0.6831541
0.6529577
0.6163656
0.5710702
0.5135841
0.4360411
0.3386696
0.7933633
0.7809271
0.7668888
0.7509158
0.7325747
0.7113429
0.6865084
0.6570023
0.6213447
0.5773656
0.5199114
0.4461979
0.3576905
0.805544
0.7945489
0.7822293
0.76833
0.7525247
0.734433
0.7135481
0.6891187
0.6601427
0.6251998
0.5807968
0.5252054
0.4543864
0.3727342
0.8160808
0.8062561
0.795317
0.7830631
0.7692412
0.7535662
0.7356642
0.7149847
0.6908173
0.6621834
0.6265922
0.5831304
0.5286825
0.4599004
0.382802
0.8252544
0.816392
0.8065777
0.79565
0.7834084
0.7696329
0.7540393
0.7362103
0.715622
0.6915708
0.6621924
0.6270515
0.5840086
0.5302297
0.4626341
0.3767942
0.4458722
0.3571322
0.5089927
0.4329134
0.3353562
0.5618701
0.5018885
0.4226597
0.3180315
0.6060554
0.5583217
0.4970282
0.4155469
0.3059923
0.6430486
0.6043873
0.556066
0.4938677
0.4108262
0.2983658
0.6742385
0.6423841
0.6034578
0.5547475
0.4919409
0.4081036
0.2942684
0.7008096
0.6741651
0.642208
0.6031326
0.5541956
0.4912068
0.407228
0.2928761
0.7237206
0.7011488
0.6744963
0.6425222
0.6034134
0.5545496
0.491784
0.4080344
0.2942148
0.7437399
0.7244192
0.7019068
0.6753262
0.6434397
0.6045462
0.5560714
0.4937836
0.4108591
0.2989046
0.761489
0.7448183
0.7256158
0.7032491
0.6768509
0.6452833
0.6068889
0.5590391
0.4976948
0.4164016
0.3029057
0.7774468
0.7629776
0.7464793
0.7274881
0.7053846
0.6793899
0.648406
0.6107416
0.5639262
0.5041452
0.4222829
0.3133705
0.7918368
0.77921
0.7649419
0.7486882
0.7299991
0.7083299
0.6829357
0.6526939
0.61604
0.5706571
0.5109403
0.4330351
0.3342443
0.8044572
0.7933354
0.7808649
0.7667841
0.7507574
0.7323928
0.7111665
0.6863004
0.6567527
0.621039
0.5754953
0.5181361
0.4442212
0.3555744
0.815417
0.8055195
0.7944947
0.7821388
0.7681943
0.7523705
0.7342857
0.7133773
0.6889178
0.6599027
0.6237751
0.5795521
0.5239575
0.4532273
0.3719032
0.8249527
0.816059
0.8062081
0.7952375
0.7829447
0.7691079
0.7534403
0.73552
0.7148177
0.6906212
0.6610455
0.6256381
0.5822212
0.5278877
0.4593599
0.8332962
0.8252347
0.816349
0.8065068
0.7955453
0.7832913
0.7695232
0.7539151
0.7360681
0.7154574
0.6906314
0.6614241
0.6263411
0.5834103
0.52984
0.3915997
0.4577129
0.3764845
0.5180688
0.4456362
0.3564633
0.5671344
0.5088098
0.4324118
0.334248
0.6087435
0.5617285
0.5015176
0.4218875
0.3164713
0.64431
0.605944
0.5580405
0.4964726
0.4145084
0.3043889
0.6747143
0.6429592
0.6041678
0.5556485
0.4931304
0.4097852
0.296994
0.7008096
0.6741651
0.642208
0.6031326
0.5541956
0.4912068
0.407228
0.2928761
0.7233786
0.7007483
0.6740205
0.6419471
0.6027029
0.5536473
0.490592
0.4063477
0.2914728
0.7430912
0.7236686
0.7010279
0.674282
0.6421775
0.6029868
0.5540909
0.4911668
0.4071512
0.2928071
0.7605081
0.7436951
0.7243164
0.7017274
0.6750431
0.6430976
0.6041891
0.5556105
0.493164
0.4099739
0.2920655
0.7761007
0.76145
0.7447299
0.7254636
0.7030125
0.6765705
0.6449973
0.6065306
0.558577
0.4970744
0.4121068
0.2958554
0.7902408
0.7774129
0.7629016
0.7463498
0.7272896
0.7051531
0.6791584
0.6481233
0.6103886
0.5634726
0.5011982
0.4181201
0.3049224
0.8030905
0.791808
0.7791459
0.7648338
0.7485245
0.7298107
0.7081461
0.6827175
0.6524302
0.6157144
0.5686477
0.5087757
0.4302072
0.3302885
0.8144378
0.8044323
0.7932802
0.7807727
0.7666457
0.7506
0.732242
0.7109911
0.6860934
0.6565044
0.6195589
0.5741397
0.5166972
0.44279
0.3544237
0.8243513
0.815395
0.805471
0.7944143
0.7820191
0.7680595
0.7522429
0.7341394
0.7132077
0.6887183
0.6587424
0.6227879
0.5785952
0.5231056
0.4526369
0.8330215
0.8249329
0.8160158
0.8061369
0.7951322
0.782827
0.7689977
0.7533152
0.7353769
0.7146519
0.6896742
0.6602678
0.6249158
0.58161
0.5274879
0.8406421
0.8332783
0.8251959
0.8162852
0.806413
0.7954412
0.7831945
0.7694144
0.7537918
0.735927
0.7146625
0.689992
0.6608448
0.6258654
0.5831103
0.4013496
0.4669072
0.3913109
0.5265738
0.4574921
0.3758777
0.5740683
0.5178977
0.4451729
0.3554754
0.6129055
0.5669964
0.5084503
0.4316703
0.3327852
0.6464898
0.6086329
0.5614499
0.5009689
0.4208681
0.3149202
0.6757584
0.6442206
0.6057249
0.5576245
0.4957392
0.4134767
0.3030386
0.7012102
0.6746409
0.6427831
0.6038427
0.5550973
0.4923978
0.4089124
0.2956104
0.7233786
0.7007483
0.6740205
0.6419471
0.6027029
0.5536473
0.490592
0.4063477
0.2914728
0.7427957
0.7233266
0.7006274
0.6738063
0.6416024
0.6022761
0.5531883
0.4899743
0.4054629
0.2900585
0.7599418
0.7430464
0.7235658
0.7008485
0.6739989
0.6418351
0.6026295
0.5536298
0.4905463
0.4062629
0.2859013
0.7752366
0.7604692
0.7436066
0.7241638
0.7014903
0.6747617
0.6428107
0.6038297
0.5551467
0.4925402
0.405637
0.2851852
0.7890453
0.7760665
0.7613731
0.7445987
0.7252622
0.7027774
0.6763349
0.6447089
0.6061695
0.5581112
0.4940314
0.4078179
0.2873073
0.8016626
0.7902108
0.7773461
0.7627888
0.7461786
0.7270923
0.7049587
0.6789252
0.6478385
0.6100329
0.561248
0.4982419
0.4131008
0.293962
0.813207
0.8030648
0.7917511
0.7790507
0.7646909
0.7483616
0.7296538
0.7079625
0.6824994
0.6521667
0.6141313
0.5670053
0.5067484
0.4277559
0.3275504
0.8234644
0.8144154
0.8043829
0.7931982
0.7806506
0.766508
0.7504694
0.7320919
0.7108165
0.6858874
0.6553021
0.6184875
0.573042
0.5156579
0.4420212
0.8324742
0.8243313
0.8153514
0.805399
0.7943078
0.7819
0.7679478
0.7521162
0.7339941
0.7130391
0.6877541
0.6579391
0.6220293
0.5779423
0.5226721
0.840391
0.8330035
0.8248939
0.8159517
0.8060426
0.7950275
0.7827297
0.7688882
0.7531911
0.7352347
0.7138509
0.6890274
0.6596792
0.6244304
0.5813027
0.847378
0.8406258
0.833243
0.8251381
0.8162008
0.8063198
0.795355
0.7830984
0.7693064
0.7536693
0.7352452
0.7141217
0.6895101
0.660457
0.6256269
0.4061465
0.4730265
0.4010734
0.533209
0.4666968
0.3907447
0.5805945
0.526412
0.4570589
0.3749817
0.6184031
0.5739383
0.5175616
0.4444883
0.3541722
0.6498695
0.6127974
0.566725
0.5079186
0.4306915
0.331331
0.6775637
0.646401
0.6084153
0.5610376
0.5002446
0.4198553
0.3136113
0.7020892
0.675685
0.6440447
0.6054005
0.5570751
0.4950105
0.4126105
0.3016745
0.7237206
0.7011488
0.6744963
0.6425222
0.6034134
0.5545496
0.491784
0.4080344
0.2942148
0.7427957
0.7233266
0.7006274
0.6738063
0.6416024
0.6022761
0.5531883
0.4899743
0.4054629
0.2900585
0.7596839
0.742751
0.7232239
0.7004481
0.6735231
0.6412599
0.6019189
0.5527272
0.4893537
0.4045733
0.2831245
0.7747378
0.7599029
0.7429581
0.7234135
0.7006115
0.6737175
0.6415483
0.6022704
0.5531663
0.4899225
0.4019162
0.2791853
0.7882782
0.7752024
0.7603922
0.7434753
0.7239622
0.7012546
0.6745257
0.642522
0.6034681
0.5546799
0.4894855
0.4014896
0.277211
0.8005937
0.789015
0.7759989
0.7612588
0.7444252
0.725062
0.7025799
0.6760975
0.6444183
0.6058054
0.5558264
0.4910092
0.4028296
0.2770895
0.8119221
0.8016358
0.7901516
0.7772469
0.7626395
0.7460083
0.7269266
0.7047628
0.6786902
0.6475514
0.6082883
0.5590192
0.4946967
0.4068195
0.278992
0.8223504
0.8131839
0.803014
0.7916667
0.7789248
0.7645487
0.748226
0.7294969
0.7077789
0.6822813
0.650885
0.6128386
0.5654688
0.5049982
0.4261026
0.8316673
0.8234442
0.814371
0.8043097
0.7930898
0.7805293
0.7663939
0.7503395
0.7319426
0.7106427
0.6848904
0.6544325
0.6176203
0.5722497
0.5151005
0.8398908
0.832456
0.8242919
0.8152866
0.8053038
0.794202
0.7818015
0.7678369
0.7519902
0.7338497
0.7122245
0.687087
0.6573221
0.621512
0.5776103
0.8471476
0.8403746
0.8329681
0.8248358
0.8158668
0.8059489
0.7949409
0.782633
0.7687795
0.7530678
0.7345481
0.7133043
0.6885382
0.6592838
0.6241864
0.853576
0.847363
0.8405935
0.8331904
0.8250616
0.8161168
0.8062426
0.7952695
0.783003
0.7691991
0.7530779
0.7347816
0.7137143
0.6891876
0.6602625
0.4760576
0.4058761
0.5376404
0.4728224
0.4005317
0.585706
0.5330535
0.4662838
0.3899086
0.6235954
0.5804708
0.5260942
0.4564188
0.3737998
0.6543439
0.6183008
0.5736828
0.5170646
0.443585
0.3528775
0.6803658
0.6497824
0.6125846
0.5663232
0.5072165
0.4297189
0.3301041
0.7036099
0.6774906
0.6462259
0.608093
0.5604931
0.4995249
0.4190034
0.3122864
0.7244713
0.7020278
0.6755404
0.6437841
0.604972
0.5565292
0.4943991
0.4117379
0.3002965
0.7430912
0.7236686
0.7010279
0.674282
0.6421775
0.6029868
0.5540909
0.4911668
0.4071512
0.2928071
0.7596839
0.742751
0.7232239
0.7004481
0.6735231
0.6412599
0.6019189
0.5527272
0.4893537
0.4045733
0.2831245
0.7745107
0.759645
0.7426627
0.7230717
0.7002112
0.6732418
0.6409732
0.60156
0.5522641
0.4887301
0.4002237
0.2764868
0.7878356
0.7747037
0.759826
0.7428269
0.723212
0.7003759
0.6734818
0.6412601
0.6019096
0.5527005
0.4868718
0.3978862
0.2716173
0.7999082
0.7882479
0.7751348
0.7602779
0.7433017
0.7237618
0.701057
0.6742884
0.6422315
0.6031043
0.5523946
0.4865768
0.3968734
0.2681325
0.8109607
0.8005667
0.7889551
0.7758985
0.7611077
0.7442527
0.7248939
0.7023808
0.6758583
0.6441254
0.6040203
0.5535592
0.4875085
0.3970693
0.2650605
0.821188
0.8118981
0.801583
0.7900636
0.7771156
0.7624911
0.7458653
0.7267597
0.7045655
0.6784534
0.6461438
0.606541
0.5563491
0.4902842
0.3984881
0.2537872
0.8306542
0.8223295
0.8131383
0.8029385
0.7915549
0.7787996
0.7644303
0.7480905
0.7293402
0.7075954
0.6812212
0.6498391
0.6116295
0.5641434
0.5038214
0.8391537
0.8316489
0.8234041
0.8143051
0.8042127
0.792982
0.7804286
0.7662804
0.7502103
0.731794
0.7098019
0.6841697
0.653729
0.6169946
0.5718249
0.8466887
0.8398743
0.8324202
0.8242333
0.8152009
0.8052091
0.7941144
0.7817036
0.7677267
0.7518652
0.7331521
0.7116613
0.6865748
0.6569015
0.621249
0.8533639
0.8471326
0.8403422
0.8329153
0.824759
0.8157824
0.8058713
0.7948549
0.782537
0.7686716
0.7524725
0.7340797
0.7128908
0.6882096
0.6590851
0.8592974
0.8535623
0.8473335
0.8405455
0.8331209
0.8249856
0.8160473
0.806166
0.7951846
0.7829082
0.7686812
0.7526761
0.7344324
0.7134416
0.6890259
0.5398406
0.4758566
0.405346
0.5891297
0.5374887
0.4724219
0.3997317
0.6276748
0.5855864
0.5327478
0.4656735
0.3888059
0.6585816
0.6234976
0.5802276
0.5256242
0.4555743
0.372626
0.6840825
0.6542612
0.6180995
0.5733047
0.5164087
0.4426877
0.3517953
0.7059727
0.680294
0.6496108
0.6122694
0.5657927
0.506519
0.428901
0.3288626
0.7257705
0.7035487
0.6773466
0.6459666
0.6076673
0.5599521
0.4989199
0.4181439
0.3109454
0.7437399
0.7244192
0.7019068
0.6753262
0.6434397
0.6045462
0.5560714
0.4937836
0.4108591
0.2989046
0.7599418
0.7430464
0.7235658
0.7008485
0.6739989
0.6418351
0.6026295
0.5536298
0.4905463
0.4062629
0.2859013
0.7745107
0.759645
0.7426627
0.7230717
0.7002112
0.6732418
0.6409732
0.60156
0.5522641
0.4887301
0.4002237
0.2764868
0.787634
0.7744766
0.7595682
0.7425317
0.7228704
0.6999758
0.6730063
0.6406854
0.6011997
0.5517989
0.4856822
0.3962485
0.2691013
0.7995127
0.7878054
0.7746362
0.759712
0.7426535
0.7230118
0.7001787
0.673245
0.6409706
0.601547
0.5504229
0.4840533
0.3935223
0.2632041
0.8103444
0.7998812
0.7881881
0.7750345
0.7601268
0.743129
0.7235937
0.7008582
0.6740495
0.6419392
0.6013231
0.55022
0.4833493
0.3918
0.2579861
0.8203189
0.8109365
0.8005133
0.7888662
0.7757657
0.7609575
0.7441078
0.7247245
0.7021802
0.6756171
0.6426891
0.6022492
0.5509348
0.4834822
0.39049
0.2492318
0.8295978
0.8211664
0.8118506
0.8015045
0.7899472
0.7769849
0.7623664
0.7457213
0.7265915
0.7043666
0.6772922
0.6447342
0.6044483
0.5530313
0.4844642
0.3847721
0.2398176
0.8382285
0.8306353
0.8222883
0.8130705
0.8028387
0.7914438
0.7786953
0.764312
0.7479551
0.7291835
0.7067032
0.6803565
0.648861
0.610587
0.5632527
0.8460128
0.8391369
0.8316125
0.8233445
0.8142179
0.8041163
0.7928926
0.7803285
0.7661674
0.7500817
0.7310749
0.7091945
0.6835868
0.6532215
0.6166591
0.8529416
0.8466736
0.8398416
0.832367
0.8241558
0.8151156
0.8051307
0.7940274
0.7816064
0.7676173
0.7512608
0.73267
0.711229
0.6862257
0.6566876
0.8591015
0.8533501
0.8471029
0.8402941
0.8328455
0.8246826
0.8157126
0.8057944
0.7947695
0.7824417
0.7681504
0.7520666
0.7337256
0.7126132
0.6880445
0.8645942
0.8592847
0.8535351
0.8472895
0.840482
0.8330517
0.8249227
0.8159783
0.80609
0.7951003
0.7824508
0.7683294
0.7523734
0.7341988
0.713305
0.590833
0.5396907
0.475462
0.4045629
0.6304137
0.5890127
0.5371906
0.4718299
0.3986766
0.6619192
0.62758
0.5853513
0.5322959
0.4648683
0.3877108
0.6876104
0.6585022
0.6233051
0.5798677
0.525004
0.4547357
0.3716502
0.7091113
0.6840142
0.6540983
0.6178015
0.5728056
0.5157572
0.4419393
0.3507105
0.7277906
0.7059124
0.6801525
0.6493564
0.6118531
0.5652655
0.5059328
0.428076
0.3276061
0.7448631
0.7257185
0.7034281
0.6771331
0.6456239
0.6072443
0.5594974
0.4983099
0.4172766
0.3095881
0.7605081
0.7436951
0.7243164
0.7017274
0.6750431
0.6430976
0.6041891
0.5556105
0.493164
0.4099739
0.2920655
0.7747378
0.7599029
0.7429581
0.7234135
0.7006115
0.6737175
0.6415483
0.6022704
0.5531663
0.4899225
0.4019162
0.2791853
0.787634
0.7744766
0.7595682
0.7425317
0.7228704
0.6999758
0.6730063
0.6406854
0.6011997
0.5517989
0.4856822
0.3962485
0.2691013
0.7993327
0.7876038
0.7744092
0.7594543
0.7423584
0.7226702
0.6997787
0.6727699
0.6403963
0.6008378
0.5495256
0.4829057
0.3919969
0.2609718
0.809989
0.7994858
0.7877457
0.7745361
0.7595611
0.7424812
0.7228441
0.6999805
0.6730072
0.6406796
0.5997743
0.54832
0.4810085
0.3888422
0.2539766
0.8197618
0.8103203
0.7998279
0.7880993
0.7749017
0.7599765
0.7429843
0.7234247
0.7006582
0.6738093
0.6405087
0.5996284
0.5478078
0.4798125
0.3863102
0.245195
0.8288082
0.820297
0.8108886
0.800434
0.7887485
0.7756336
0.7608313
0.7439618
0.7245538
0.7019781
0.6744349
0.6412641
0.6001992
0.54792
0.4789019
0.3820708
0.2378371
0.8372643
0.8295782
0.8211235
0.8117801
0.8014006
0.7898314
0.7768753
0.7622408
0.7455762
0.726422
0.7033915
0.6761294
0.6430461
0.6018501
0.5486658
0.4749376
0.3767918
0.2291911
0.8451648
0.8382113
0.8305979
0.8222271
0.8129808
0.8027394
0.7913513
0.7785911
0.7641938
0.7478197
0.7284219
0.7059757
0.6795479
0.6480177
0.6098864
0.8523196
0.8459974
0.8391037
0.8315584
0.8232656
0.8141312
0.8040363
0.7928037
0.7802289
0.7660551
0.7494596
0.7305557
0.7087032
0.6831664
0.6529493
0.8587116
0.8529277
0.8466437
0.839793
0.8322965
0.8240786
0.815045
0.8050528
0.7939409
0.7815098
0.7670885
0.7508434
0.7323
0.7109344
0.6860483
0.8644128
0.8590888
0.8533228
0.8470588
0.8402303
0.832776
0.8246194
0.8156432
0.8057179
0.7946848
0.7819816
0.7677951
0.7517598
0.7334878
0.7124738
0.8695112
0.8645825
0.8592596
0.8534947
0.8472313
0.8404189
0.8329945
0.8248602
0.8159098
0.8060145
0.7946934
0.7821402
0.7680644
0.7521709
0.7340818
0.6317785
0.5907172
0.5393963
0.4748788
0.4035301
0.6641643
0.6303207
0.5887827
0.5367498
0.471049
0.3976287
0.6903946
0.661842
0.6273933
0.5850035
0.5316995
0.4640688
0.3868021
0.712096
0.6875446
0.6583459
0.6230202
0.5793927
0.5243882
0.4540392
0.3706771
0.7304777
0.7090539
0.6838795
0.653857
0.6174079
0.5723098
0.5152141
0.4411904
0.3496229
0.7466107
0.7277394
0.7057936
0.6799427
0.6490204
0.6114394
0.5648226
0.5053418
0.4272437
0.3263343
0.761489
0.7448183
0.7256158
0.7032491
0.6768509
0.6452833
0.6068889
0.5590391
0.4976948
0.4164016
0.3029057
0.7752366
0.7604692
0.7436066
0.7241638
0.7014903
0.6747617
0.6428107
0.6038297
0.5551467
0.4925402
0.405637
0.2851852
0.7878356
0.7747037
0.759826
0.7428269
0.723212
0.7003759
0.6734818
0.6412601
0.6019096
0.5527005
0.4868718
0.3978862
0.2716173
0.7993327
0.7876038
0.7744092
0.7594543
0.7423584
0.7226702
0.6997787
0.6727699
0.6403963
0.6008378
0.5495256
0.4829057
0.3919969
0.2609718
0.8098272
0.7993058
0.7875442
0.7743092
0.7593036
0.7421862
0.7225028
0.6995809
0.6725326
0.6401061
0.5990696
0.547456
0.4799422
0.3874834
0.2521168
0.8194406
0.8099649
0.7994326
0.787657
0.7744036
0.7594111
0.7423368
0.7226757
0.6997814
0.6727682
0.6392574
0.5981379
0.5460485
0.4777505
0.3838787
0.2424593
0.8283024
0.81974
0.8102724
0.7997487
0.7879817
0.7747697
0.7598505
0.7428387
0.7232546
0.700457
0.6726334
0.6391477
0.5977486
0.5451665
0.4759962
0.3796022
0.2355279
0.836544
0.8287884
0.8202538
0.8108175
0.8003291
0.7886315
0.7755227
0.7607041
0.7438147
0.7243818
0.700987
0.6732618
0.6396147
0.5978457
0.544496
0.4730621
0.3755078
0.2281989
0.8442813
0.8372464
0.8295393
0.8210599
0.8116868
0.8012972
0.7897341
0.7767648
0.7621143
0.74543
0.7255911
0.7024151
0.674737
0.6409513
0.5984365
0.5415423
0.4694272
0.3703447
0.220837
0.8515395
0.845149
0.8381772
0.8305423
0.822146
0.8128915
0.8026567
0.7912588
0.778487
0.7640756
0.7471617
0.727801
0.7052955
0.6788509
0.647451
0.8581374
0.8523055
0.845967
0.8390543
0.8314867
0.8231872
0.8140592
0.8039568
0.7927152
0.7801299
0.7655113
0.7490104
0.7301358
0.7083489
0.682941
0.8640517
0.8586987
0.8529002
0.8465991
0.8397286
0.8322263
0.8240148
0.8149749
0.8049754
0.7938551
0.7810433
0.7667235
0.7505231
0.732048
0.7107846
0.8693428
0.864401
0.8590636
0.8532823
0.8470003
0.8401668
0.8327185
0.8245567
0.8155744
0.805642
0.7942755
0.781668
0.7675267
0.7515538
0.7333684
0.8740871
0.8695004
0.8645593
0.8592223
0.8534411
0.8471734
0.8403666
0.8329377
0.8247982
0.8158418
0.8056501
0.7944171
0.7819063
0.7678873
0.7520695
0.6652844
0.6316863
0.5904896
0.5389608
0.4741094
0.4025044
0.6922702
0.6640884
0.6301376
0.5884423
0.536168
0.4702735
0.3967597
0.7144554
0.6903305
0.66169
0.6271169
0.5845444
0.5311072
0.4634058
0.3858977
0.7330369
0.7120406
0.6874151
0.6581144
0.6226441
0.578921
0.5238769
0.4533454
0.3697069
0.7489379
0.7304287
0.7089405
0.6836799
0.6535382
0.617017
0.5718965
0.5146708
0.4404409
0.3485326
0.7630161
0.7465665
0.7276382
0.7056175
0.6796654
0.6486864
0.6110918
0.5643762
0.504746
0.4264041
0.3200733
0.7761007
0.76145
0.7447299
0.7254636
0.7030125
0.6765705
0.6449973
0.6065306
0.558577
0.4970744
0.4121068
0.2958554
0.7882782
0.7752024
0.7603922
0.7434753
0.7239622
0.7012546
0.6745257
0.642522
0.6034681
0.5546799
0.4894855
0.4014896
0.277211
0.7995127
0.7878054
0.7746362
0.759712
0.7426535
0.7230118
0.7001787
0.673245
0.6409706
0.601547
0.5504229
0.4840533
0.3935223
0.2632041
0.8098272
0.7993058
0.7875442
0.7743092
0.7593036
0.7421862
0.7225028
0.6995809
0.6725326
0.6401061
0.5990696
0.547456
0.4799422
0.3874834
0.2521168
0.8192944
0.8098031
0.7992527
0.7874557
0.7741769
0.7591537
0.7420421
0.7223347
0.6993823
0.6722942
0.6386882
0.5974602
0.5452471
0.4768021
0.382732
0.2410993
0.8280107
0.8194189
0.8099172
0.7993536
0.7875397
0.7742718
0.7592855
0.7421919
0.7225065
0.6995814
0.6716001
0.6379446
0.5963702
0.5436191
0.4743023
0.3778839
0.2337341
0.8360826
0.8282826
0.8196969
0.8102014
0.7996439
0.7878648
0.774659
0.7597238
0.7426923
0.7230835
0.6994724
0.6715147
0.6376379
0.5956909
0.5423194
0.4713445
0.373984
0.2268644
0.8436215
0.8365259
0.8287492
0.8201896
0.8107232
0.8002246
0.7885332
0.7754109
0.760576
0.7436664
0.7235384
0.7000036
0.6719041
0.6377218
0.5951755
0.540139
0.4685238
0.3695913
0.2202613
0.8507272
0.8442649
0.837211
0.8294816
0.8209756
0.8115939
0.8012103
0.7896362
0.7766535
0.7619868
0.7447131
0.7247589
0.7012458
0.6730098
0.6382022
0.5928785
0.5374427
0.4649809
0.3650009
0.2142343
0.8574176
0.8515251
0.8451178
0.8381265
0.8304687
0.8220653
0.8128172
0.8025741
0.7911664
0.778383
0.7635012
0.7466254
0.7272206
0.7047092
0.6783824
0.8635202
0.8581244
0.8522775
0.8459218
0.8389889
0.8314154
0.8231222
0.8139877
0.8038777
0.7926272
0.7796505
0.7651189
0.7486474
0.7298331
0.708159
0.8690076
0.8640398
0.8586734
0.8528592
0.8465402
0.8396646
0.8321683
0.8239513
0.8149053
0.8048986
0.7934404
0.7807212
0.7664434
0.7503049
0.7319199
0.8739304
0.8693319
0.8643777
0.8590262
0.8532285
0.8469421
0.8401143
0.8326614
0.8244944
0.8155061
0.8052757
0.7939967
0.7814311
0.7673465
0.7514503
0.8783554
0.874077
0.8694788
0.8645247
0.8591729
0.8533878
0.8471254
0.8403147
0.8328813
0.8247367
0.8155137
0.8054028
0.7942091
0.7817499
0.7677985
0.693207
0.6652092
0.6315049
0.5901528
0.5383861
0.4733454
0.4016539
0.7160468
0.6922071
0.663939
0.6298665
0.587993
0.5355904
0.4696307
0.3958954
0.7350628
0.7144013
0.6902042
0.6614648
0.6267521
0.5840885
0.5306164
0.4627463
0.3849977
0.7511573
0.7329896
0.7119314
0.6872231
0.6578087
0.6222704
0.5785295
0.5233679
0.4526542
0.3687395
0.7650517
0.7488956
0.730332
0.7087726
0.6834161
0.6532215
0.6166913
0.5714834
0.5141275
0.4396911
0.3432162
0.7774468
0.7629776
0.7464793
0.7274881
0.7053846
0.6793899
0.648406
0.6107416
0.5639262
0.5041452
0.4222829
0.3133705
0.7890453
0.7760665
0.7613731
0.7445987
0.7252622
0.7027774
0.6763349
0.6447089
0.6061695
0.5581112
0.4940314
0.4078179
0.2873073
0.7999082
0.7882479
0.7751348
0.7602779
0.7433017
0.7237618
0.701057
0.6742884
0.6422315
0.6031043
0.5523946
0.4865768
0.3968734
0.2681325
0.809989
0.7994858
0.7877457
0.7745361
0.7595611
0.7424812
0.7228441
0.6999805
0.6730072
0.6406796
0.5997743
0.54832
0.4810085
0.3888422
0.2539766
0.8192944
0.8098031
0.7992527
0.7874557
0.7741769
0.7591537
0.7420421
0.7223347
0.6993823
0.6722942
0.6386882
0.5974602
0.5452471
0.4768021
0.382732
0.2410993
0.827878
0.8192727
0.8097554
0.7991738
0.7873386
0.7740453
0.7590283
0.7418974
0.722166
0.6991829
0.6711301
0.6373977
0.5957422
0.5429072
0.4735022
0.3770151
0.2327831
0.8358166
0.827991
0.8193759
0.8098463
0.799249
0.7874231
0.7741615
0.7591594
0.7420462
0.7223365
0.6986039
0.6705219
0.6365263
0.5944798
0.5410496
0.4701453
0.3727774
0.2257284
0.8431991
0.8360646
0.8282435
0.8196328
0.8101073
0.7995396
0.7877668
0.7745477
0.7595964
0.742545
0.7222465
0.6985356
0.6702736
0.6359856
0.5934741
0.5388534
0.4674508
0.3685879
0.2194426
0.8501208
0.843605
0.8364903
0.828691
0.8201045
0.8106295
0.8001369
0.7884342
0.7752983
0.7604469
0.7429397
0.7227015
0.6988653
0.6703464
0.6355759
0.5917825
0.5367626
0.4644364
0.3644652
0.2138486
0.8566682
0.8507122
0.8442326
0.8371584
0.8294051
0.8208917
0.8115159
0.8011229
0.7895375
0.7765414
0.7613619
0.7439953
0.7237625
0.6997959
0.670745
0.6337336
0.5896912
0.5341432
0.4613
0.3606022
0.2090887
0.862854
0.8574042
0.8514964
0.8450714
0.8380594
0.8303954
0.8219981
0.8127429
0.8024915
0.791074
0.7778772
0.7630332
0.746124
0.7267202
0.7043151
0.8685142
0.8635081
0.8580986
0.852236
0.8458619
0.8389239
0.8313564
0.8230575
0.8139165
0.803799
0.7922014
0.7793047