/*--------------------------------*- C++ -*----------------------------------*\
| =========                 |                                                 |
| \\      /  F ield         | OpenFOAM: The Open Source CFD Toolbox           |
|  \\    /   O peration     | Version:  2306                                  |
|   \\  /    A nd           | Website:  www.openfoam.com                      |
|    \\/     M anipulation  |                                                 |
\*---------------------------------------------------------------------------*/
FoamFile
{
    version     2.0;
    format      ascii;
    arch        "LSB;label=32;scalar=64";
    class       volScalarField;
    location    "0.9/fuel";
    object      iDmdtfuel.H2O;
}
// * * * * * * * * * * * * * * * * * * * * * * * * * * * * * * * * * * * * * //

dimensions      [1 -3 -1 0 0 0 0];

internalField   nonuniform List<scalar> 
16000
(
91.04438
91.78474
83.04093
87.29716
93.27788
83.50771
87.98567
76.14032
79.82997
84.64625
95.53249
84.42332
89.3733
76.4918
80.26627
85.30012
70.56373
73.36471
77.54
83.0135
98.47471
85.74187
91.46673
77.17261
81.12164
86.61763
70.84987
73.69467
77.95545
83.64811
65.91154
68.12165
71.37362
76.11021
82.30107
101.6532
87.34192
94.19584
78.132
82.35271
88.60504
71.40008
74.3335
78.76972
84.92715
66.154
68.39124
71.68864
76.51346
82.92967
61.90836
63.73478
66.36269
70.11889
75.4647
0
104.0545
88.90092
97.14046
79.25526
83.84562
91.1964
72.16555
75.2333
79.94144
86.8578
66.61803
68.90938
72.29838
77.30387
84.19748
62.11887
63.9639
66.62067
70.42492
75.86325
0
58.39305
59.95008
62.16218
65.24754
69.54101
0
0
105.5701
89.95062
99.35666
80.28883
85.29896
93.99337
73.04216
76.28616
81.3623
89.37866
67.25807
69.62988
73.15701
78.44154
86.11379
62.52046
64.4022
67.11636
71.01723
76.64471
0
58.57898
60.14954
62.38189
65.49843
69.84326
0
0
55.25773
56.61881
58.53194
61.16096
64.72818
0
0
0
106.4302
90.53106
100.7508
80.92764
86.27479
96.0927
73.81983
77.25415
82.74537
92.10504
67.98003
70.45449
74.1615
79.82195
88.62222
63.07095
65.00647
67.80547
71.85138
77.77018
0
58.93285
60.52986
62.80207
65.98044
70.42832
0
0
55.42401
56.79539
58.72357
61.37487
64.97595
0
0
0
52.42966
53.64124
55.33146
57.62625
60.69149
0
0
0
0
106.8161
90.82283
101.5399
81.2347
86.81305
97.41046
74.27284
77.85089
83.67155
94.14802
68.6044
71.18532
75.08463
81.16666
91.34463
63.68499
65.68762
68.5939
72.82748
79.13746
0
59.41567
61.05095
63.38118
66.65051
71.25254
0
0
55.73995
57.13132
59.08884
61.78388
65.45201
0
0
0
52.57983
53.79949
55.50139
57.81301
60.90279
0
0
0
0
49.85582
50.95011
52.46645
54.5073
57.19971
0
0
0
0
0
106.8161
90.94266
101.8935
81.36179
87.08314
98.15545
74.46622
78.13699
84.18144
95.42942
68.95281
71.60991
75.65207
82.06493
93.38364
64.20601
66.27603
69.29217
73.7246
80.47128
0
59.94957
61.63178
64.03371
67.41718
72.21764
0
0
56.1694
57.58943
59.58917
62.34756
66.11392
0
0
0
52.86483
54.10006
55.82458
58.16895
61.30683
0
0
0
0
49.9925
51.09331
52.61898
54.67308
57.38426
0
0
0
0
0
47.49694
48.49637
49.87335
51.7129
54.11804
0
0
0
0
0
0
106.4302
90.94266
101.8935
81.40419
87.19395
98.48909
74.52945
78.2551
84.4371
96.15391
69.08736
71.79055
75.92338
82.55887
94.6633
64.48722
66.60342
69.6965
74.27426
81.36031
0
60.39591
62.12398
64.59684
68.09593
73.10503
0
0
56.641
58.09562
60.14657
62.98263
66.87152
0
0
0
53.25108
54.50841
56.26516
58.65643
61.86372
0
0
0
0
50.2517
51.36498
52.90859
54.98832
57.73599
0
0
0
0
0
47.62214
48.62694
50.01157
51.86185
54.28193
0
0
0
0
0
0
45.32238
46.24365
47.50582
49.18162
51.3563
0
0
0
0
0
0
0
105.5701
90.82283
101.5399
81.40419
87.19395
98.48909
74.54316
78.2944
84.54198
96.47848
69.12027
71.84927
76.03514
82.80661
95.38785
64.58664
66.72925
69.86783
74.53639
81.84888
0
60.63042
62.38879
64.90903
68.48745
73.64684
0
0
57.03053
58.51818
60.61837
63.53032
67.54212
0
0
0
53.67281
54.95646
56.75173
59.19942
62.49123
0
0
0
0
50.6021
51.73296
53.30193
55.41802
58.21774
0
0
0
0
0
47.85946
48.87446
50.27372
52.14461
54.59355
0
0
0
0
0
0
45.43769
46.36346
47.63202
49.31671
51.5036
0
0
0
0
0
0
0
43.30797
44.16359
45.32951
46.86866
48.85385
0
0
0
0
0
0
0
0
104.0545
90.53106
100.7508
81.36179
87.08314
98.15545
74.54316
78.2944
84.54198
96.47848
69.12124
71.86184
76.07226
82.90835
95.71287
64.60301
66.75963
69.92317
74.64421
82.09427
0
60.70694
62.48182
65.02833
68.6526
73.90454
0
0
57.23061
58.73943
60.8712
63.83262
67.92724
0
0
0
54.01774
55.32598
57.15738
59.65859
63.03211
0
0
0
0
50.98285
52.13442
53.73326
55.89244
58.75437
0
0
0
0
0
48.17961
49.20889
50.62868
52.52858
55.01835
0
0
0
0
0
0
45.6562
46.59046
47.87118
49.57287
51.78323
0
0
0
0
0
0
0
43.41466
44.27411
45.44545
46.9921
48.98749
0
0
0
0
0
0
0
0
41.43443
42.23377
43.3176
44.74087
46.5665
0
0
0
0
0
0
0
0
0
101.6532
89.95062
99.35666
81.2347
86.81305
97.41046
74.52945
78.2551
84.4371
96.15391
69.12124
71.86184
76.07226
82.90835
95.71287
64.59759
66.76024
69.93484
74.68
82.19525
0
60.71347
62.49667
65.05668
68.7056
74.01042
0
0
57.29118
58.81104
60.95935
63.94741
68.08886
0
0
0
54.19152
55.51507
57.36887
59.9035
63.32916
0
0
0
0
51.29169
52.46222
54.08849
56.28754
59.2078
0
0
0
0
0
48.52608
49.57198
51.01569
52.94952
55.48735
0
0
0
0
0
0
45.95047
46.89654
48.19421
49.91969
52.16297
0
0
0
0
0
0
0
43.61683
44.48345
45.66506
47.226
49.24093
0
0
0
0
0
0
0
0
41.53353
42.33617
43.42466
44.85436
46.68868
0
0
0
0
0
0
0
0
0
39.68594
40.43631
41.44889
42.77235
44.4616
0
0
0
0
0
0
0
0
0
0
98.47471
88.90092
97.14046
80.92764
86.27479
96.0927
74.46622
78.13699
84.18144
95.42942
69.12027
71.84927
76.03514
82.80661
95.38785
64.59759
66.76024
69.93484
74.68
82.19525
0
60.70461
62.49124
65.05695
68.71662
74.04557
0
0
57.29148
58.81662
60.9729
63.97423
68.14036
0
0
0
54.24056
55.57174
57.43667
59.98817
63.44113
0
0
0
0
51.4447
52.62672
54.26944
56.49249
59.44835
0
0
0
0
0
48.80517
49.866
51.33124
53.29577
55.87757
0
0
0
0
0
0
46.26782
47.22749
48.5447
50.2977
52.57924
0
0
0
0
0
0
0
43.88868
44.76521
45.96106
47.54188
49.58405
0
0
0
0
0
0
0
0
41.72134
42.53013
43.62742
45.06931
46.92017
0
0
0
0
0
0
0
0
0
39.77831
40.53155
41.54819
42.87723
44.57397
0
0
0
0
0
0
0
0
0
0
38.04914
38.75653
39.70648
40.94265
42.51363
0
0
0
0
0
0
0
0
0
0
95.53249
87.34192
94.19584
80.28883
85.29896
93.99337
74.27284
77.85089
83.67155
94.14802
69.08736
71.79055
75.92338
82.55887
94.6633
64.60301
66.75963
69.92317
74.64421
82.09427
0
60.70461
62.49124
65.05695
68.71662
74.04557
0
0
57.2807
58.80793
60.96738
63.97415
68.15091
0
0
0
54.23679
55.57143
57.44139
60.00065
63.46679
0
0
0
0
51.48508
52.67258
54.32305
56.55753
59.53073
0
0
0
0
0
48.94144
50.01105
51.48884
53.47124
56.07886
0
0
0
0
0
0
46.52196
47.49361
48.82807
50.60552
52.92131
0
0
0
0
0
0
0
44.181
45.06882
46.28092
47.88449
49.95801
0
0
0
0
0
0
0
0
41.97358
42.79082
43.90023
45.35899
47.2328
0
0
0
0
0
0
0
0
0
39.95341
40.71199
41.73626
43.07584
44.78678
0
0
0
0
0
0
0
0
0
0
38.13547
38.84542
39.79895
41.04001
42.61751
0
0
0
0
0
0
0
0
0
0
36.51283
37.18202
38.07651
39.23547
40.70247
0
0
0
0
0
0
0
0
0
0
93.27788
85.74187
91.46673
79.25526
83.84562
91.1964
73.81983
77.25415
82.74537
92.10504
68.95281
71.60991
75.65207
82.06493
93.38364
64.58664
66.72925
69.86783
74.53639
81.84888
0
60.71347
62.49667
65.05668
68.7056
74.01042
0
0
57.2807
58.80793
60.96738
63.97415
68.15091
0
0
0
54.22498
55.56091
57.43274
59.99496
63.46636
0
0
0
0
51.47861
52.66844
54.32215
56.56146
59.54229
0
0
0
0
0
48.9752
50.04879
51.53218
53.52258
56.14199
0
0
0
0
0
0
46.6445
47.62299
48.9672
50.75844
53.09366
0
0
0
0
0
0
0
44.41395
45.31152
46.53772
48.16115
50.2622
0
0
0
0
0
0
0
0
42.24413
43.07089
44.19401
45.67191
47.57187
0
0
0
0
0
0
0
0
0
40.1883
40.9542
41.98894
43.34302
45.07359
0
0
0
0
0
0
0
0
0
0
38.29918
39.01386
39.97408
41.22435
42.81421
0
0
0
0
0
0
0
0
0
0
36.59376
37.26519
38.16288
39.32617
40.79892
0
0
0
0
0
0
0
0
0
0
35.06765
35.70236
36.54721
37.63741
39.01205
0
0
0
0
0
0
0
0
0
0
91.78474
84.42332
89.3733
78.132
82.35271
88.60504
73.04216
76.28616
81.3623
89.37866
68.6044
71.18532
75.08463
81.16666
91.34463
64.48722
66.60342
69.6965
74.27426
81.36031
0
60.70694
62.48182
65.02833
68.6526
73.90454
0
0
57.29148
58.81662
60.9729
63.97423
68.14036
0
0
0
54.22498
55.56091
57.43274
59.99496
63.46636
0
0
0
0
51.46627
52.65691
54.31173
56.55273
59.53634
0
0
0
0
0
48.96694
50.04208
51.52762
53.5211
56.1452
0
0
0
0
0
0
46.6731
47.65451
49.00282
50.79988
53.14341
0
0
0
0
0
0
0
44.52507
45.42801
46.66193
48.29623
50.41244
0
0
0
0
0
0
0
0
42.45884
43.29367
44.42846
45.9228
47.84536
0
0
0
0
0
0
0
0
0
40.43968
41.21377
42.26024
43.63063
45.38338
0
0
0
0
0
0
0
0
0
0
38.51864
39.23971
40.2091
41.47199
43.07884
0
0
0
0
0
0
0
0
0
0
36.74733
37.42288
38.32653
39.49795
40.98156
0
0
0
0
0
0
0
0
0
0
35.14372
35.78042
36.6281
37.72219
39.10194
0
0
0
0
0
0
0
0
0
0
33.70545
34.30887
35.10872
36.13713
37.42922
0
0
0
0
0
0
0
0
0
0
91.04438
83.50771
87.98567
77.17261
81.12164
86.61763
72.16555
75.2333
79.94144
86.8578
67.98003
70.45449
74.1615
79.82195
88.62222
64.20601
66.27603
69.29217
73.7246
80.47128
0
60.63042
62.38879
64.90903
68.48745
73.64684
0
0
57.29118
58.81104
60.95935
63.94741
68.08886
0
0
0
54.23679
55.57143
57.44139
60.00065
63.46679
0
0
0
0
51.46627
52.65691
54.31173
56.55273
59.53634
0
0
0
0
0
48.95442
50.03005
51.51624
53.51066
56.13626
0
0
0
0
0
0
46.66369
47.64611
48.99582
50.79488
53.14133
0
0
0
0
0
0
0
44.54964
45.4547
46.69166
48.33025
50.45253
0
0
0
0
0
0
0
0
42.56031
43.39945
44.54043
46.04348
47.97811
0
0
0
0
0
0
0
0
0
40.63846
41.41939
42.47569
43.85986
45.6315
0
0
0
0
0
0
0
0
0
0
38.75309
39.4812
40.46079
41.73778
43.36368
0
0
0
0
0
0
0
0
0
0
36.95304
37.63414
38.54588
39.72843
41.22691
0
0
0
0
0
0
0
0
0
0
35.28814
35.9285
36.78144
37.8828
39.27219
0
0
0
0
0
0
0
0
0
0
33.77707
34.38231
35.1847
36.21657
37.51327
0
0
0
0
0
0
0
0
0
0
32.41885
32.99391
33.75281
34.7251
35.9428
0
0
0
0
0
0
0
0
0
0
83.04093
87.29716
76.4918
80.26627
85.30012
71.40008
74.3335
78.76972
84.92715
67.25807
69.62988
73.15701
78.44154
86.11379
63.68499
65.68762
68.5939
72.82748
79.13746
0
60.39591
62.12398
64.59684
68.09593
73.10503
0
0
57.23061
58.73943
60.8712
63.83262
67.92724
0
0
0
54.24056
55.57174
57.43667
59.98817
63.44113
0
0
0
0
51.47861
52.66844
54.32215
56.56146
59.54229
0
0
0
0
0
48.95442
50.03005
51.51624
53.51066
56.13626
0
0
0
0
0
0
46.65121
47.6339
48.98395
50.78351
53.13074
0
0
0
0
0
0
0
44.53953
45.44522
46.68305
48.3229
50.44703
0
0
0
0
0
0
0
0
42.58162
43.42236
44.56557
46.07183
48.01096
0
0
0
0
0
0
0
0
0
40.73166
41.5161
42.57746
43.96872
45.75013
0
0
0
0
0
0
0
0
0
0
38.93798
39.6718
40.65984
41.94857
43.59045
0
0
0
0
0
0
0
0
0
0
0
37.17247
37.85964
38.78027
39.97518
41.49022
0
0
0
0
0
0
0
0
0
0
35.48149
36.12677
36.98681
38.09806
39.50061
0
0
0
0
0
0
0
0
0
0
33.91317
34.52172
35.32883
36.36715
37.67249
0
0
0
0
0
0
0
0
0
0
32.48645
33.06314
33.82436
34.79976
36.02158
0
0
0
0
0
0
0
0
0
0
31.20165
31.75064
32.47228
33.39338
34.54343
0
0
0
0
0
0
0
0
0
0
76.14032
79.82997
84.64625
70.84987
73.69467
77.95545
83.64811
66.61803
68.90938
72.29838
77.30387
84.19748
63.07095
65.00647
67.80547
71.85138
77.77018
0
59.94957
61.63178
64.03371
67.41718
72.21764
0
0
57.03053
58.51818
60.61837
63.53032
67.54212
0
0
0
54.19152
55.51507
57.36887
59.9035
63.32916
0
0
0
0
51.48508
52.67258
54.32305
56.55753
59.53073
0
0
0
0
0
48.96694
50.04208
51.52762
53.5211
56.1452
0
0
0
0
0
0
46.65121
47.6339
48.98395
50.78351
53.13074
0
0
0
0
0
0
0
44.52725
45.43304
46.67101
48.31106
50.43554
0
0
0
0
0
0
0
0
42.57111
43.41222
44.55593
46.06295
48.0032
0
0
0
0
0
0
0
0
0
40.75036
41.53596
42.59901
43.99266
45.77747
0
0
0
0
0
0
0
0
0
0
39.02411
39.76074
40.75298
42.04759
43.6975
0
0
0
0
0
0
0
0
0
0
0
37.34512
38.03714
38.96497
40.17006
41.69884
0
0
0
0
0
0
0
0
0
0
0
0
35.68744
36.33806
37.20587
38.32798
39.74514
0
0
0
0
0
0
0
0
0
0
34.09528
34.70827
35.52172
36.5688
37.88589
0
0
0
0
0
0
0
0
0
0
32.61501
33.19466
33.96016
34.94138
36.1709
0
0
0
0
0
0
0
0
0
0
31.26556
31.81604
32.53977
33.46373
34.61749
0
0
0
0
0
0
0
0
0
0
30.0483
30.57324
31.26058
32.13502
33.22331
0
0
0
0
0
0
0
0
0
0
70.56373
73.36471
77.54
83.0135
66.154
68.39124
71.68864
76.51346
82.92967
62.52046
64.4022
67.11636
71.01723
76.64471
0
59.41567
61.05095
63.38118
66.65051
71.25254
0
0
56.641
58.09562
60.14657
62.98263
66.87152
0
0
0
54.01774
55.32598
57.15738
59.65859
63.03211
0
0
0
0
51.4447
52.62672
54.26944
56.49249
59.44835
0
0
0
0
0
48.9752
50.04879
51.53218
53.52258
56.14199
0
0
0
0
0
0
46.66369
47.64611
48.99582
50.79488
53.14133
0
0
0
0
0
0
0
44.52725
45.43304
46.67101
48.31106
50.43554
0
0
0
0
0
0
0
0
42.55911
43.40022
44.54392
46.05095
47.99127
0
0
0
0
0
0
0
0
0
40.7397
41.52545
42.58877
43.9828
45.76824
0
0
0
0
0
0
0
0
0
0
39.04074
39.77815
40.77164
42.06809
43.72056
0
0
0
0
0
0
0
0
0
0
0
37.42514
38.11944
39.0507
40.26073
41.79624
0
0
0
0
0
0
0
0
0
0
0
0
35.84917
36.50401
37.37804
38.50893
39.93807
0
0
0
0
0
0
0
0
0
0
0
0
0
34.28906
34.90681
35.72717
36.78383
38.11382
0
0
0
0
0
0
0
0
0
0
32.78696
33.37054
34.14181
35.13088
36.37087
0
0
0
0
0
0
0
0
0
0
31.38722
31.94039
32.66797
33.59723
34.75796
0
0
0
0
0
0
0
0
0
0
30.10884
30.63512
31.32438
32.20141
33.29309
0
0
0
0
0
0
0
0
0
0
28.95433
29.45653
30.11221
30.94368
31.97556
0
0
0
0
0
0
0
0
0
0
65.91154
68.12165
71.37362
76.11021
82.30107
62.11887
63.9639
66.62067
70.42492
75.86325
0
58.93285
60.52986
62.80207
65.98044
70.42832
0
0
56.1694
57.58943
59.58917
62.34756
66.11392
0
0
0
53.67281
54.95646
56.75173
59.19942
62.49123
0
0
0
0
51.29169
52.46222
54.08849
56.28754
59.2078
0
0
0
0
0
48.94144
50.01105
51.48884
53.47124
56.07886
0
0
0
0
0
0
46.6731
47.65451
49.00282
50.79988
53.14341
0
0
0
0
0
0
0
44.53953
45.44522
46.68305
48.3229
50.44703
0
0
0
0
0
0
0
0
42.55911
43.40022
44.54392
46.05095
47.99127
0
0
0
0
0
0
0
0
0
40.72805
41.51371
42.57693
43.97084
45.75616
0
0
0
0
0
0
0
0
0
0
39.03011
39.76751
40.76105
42.05765
43.7104
0
0
0
0
0
0
0
0
0
0
0
37.44008
38.13491
39.06705
40.27847
41.81596
0
0
0
0
0
0
0
0
0
0
0
0
35.9238
36.58055
37.45744
38.59244
40.02731
0
0
0
0
0
0
0
0
0
0
0
0
0
34.44102
35.06244
35.88827
36.9526
38.29302
0
0
0
0
0
0
0
0
0
0
0
0
0
0
32.96977
33.55753
34.33501
35.33266
36.5841
0
0
0
0
0
0
0
0
0
0
31.5499
32.10663
32.83936
33.77578
34.94594
0
0
0
0
0
0
0
0
0
0
30.22421
30.7529
31.44569
32.3275
33.42555
0
0
0
0
0
0
0
0
0
0
29.01178
29.5152
30.17263
31.00647
32.04145
0
0
0
0
0
0
0
0
0
0
27.91538
28.39635
29.02226
29.81406
30.794
0
0
0
0
0
0
0
0
0
0
61.90836
63.73478
66.36269
70.11889
75.4647
0
58.57898
60.14954
62.38189
65.49843
69.84326
0
0
55.73995
57.13132
59.08884
61.78388
65.45201
0
0
0
53.25108
54.50841
56.26516
58.65643
61.86372
0
0
0
0
50.98285
52.13442
53.73326
55.89244
58.75437
0
0
0
0
0
48.80517
49.866
51.33124
53.29577
55.87757
0
0
0
0
0
0
46.6445
47.62299
48.9672
50.75844
53.09366
0
0
0
0
0
0
0
44.54964
45.4547
46.69166
48.33025
50.45253
0
0
0
0
0
0
0
0
42.57111
43.41222
44.55593
46.06295
48.0032
0
0
0
0
0
0
0
0
0
40.72805
41.51371
42.57693
43.97084
45.75616
0
0
0
0
0
0
0
0
0
0
39.01886
39.75611
40.74947
42.04587
43.69837
0
0
0
0
0
0
0
0
0
0
0
37.42962
38.12431
39.05634
40.26772
41.80526
0
0
0
0
0
0
0
0
0
0
0
0
35.93732
36.59446
37.47196
38.60797
40.04434
0
0
0
0
0
0
0
0
0
0
0
0
0
34.51094
35.1339
35.96219
37.03
38.37524
0
0
0
0
0
0
0
0
0
0
0
0
0
0
33.11298
33.70392
34.48622
35.49068
36.75129
0
0
0
0
0
0
0
0
0
0
0
0
0
0
0
31.72273
32.28321
33.02147
33.96563
35.14607
0
0
0
0
0
0
0
0
0
0
30.37844
30.91033
31.60781
32.49606
33.60271
0
0
0
0
0
0
0
0
0
0
29.12137
29.62699
30.28761
31.12584
32.16658
0
0
0
0
0
0
0
0
0
0
27.96998
28.45207
29.07958
29.87354
30.85632
0
0
0
0
0
0
0
0
0
0
26.92814
27.3886
27.98676
28.74138
29.67336
0
0
0
0
0
0
0
0
0
0
58.39305
59.95008
62.16218
65.24754
69.54101
0
0
55.42401
56.79539
58.72357
61.37487
64.97595
0
0
0
52.86483
54.10006
55.82458
58.16895
61.30683
0
0
0
0
50.6021
51.73296
53.30193
55.41802
58.21774
0
0
0
0
0
48.52608
49.57198
51.01569
52.94952
55.48735
0
0
0
0
0
0
46.52196
47.49361
48.82807
50.60552
52.92131
0
0
0
0
0
0
0
44.52507
45.42801
46.66193
48.29623
50.41244
0
0
0
0
0
0
0
0
42.58162
43.42236
44.56557
46.07183
48.01096
0
0
0
0
0
0
0
0
0
40.7397
41.52545
42.58877
43.9828
45.76824
0
0
0
0
0
0
0
0
0
0
39.01886
39.75611
40.74947
42.04587
43.69837
0
0
0
0
0
0
0
0
0
0
0
37.4188
38.1133
39.04509
40.25619
41.79343
0
0
0
0
0
0
0
0
0
0
0
0
35.92707
36.58402
37.46131
38.59712
40.03336
0
0
0
0
0
0
0
0
0
0
0
0
0
34.52334
35.14648
35.97524
37.04377
38.39013
0
0
0
0
0
0
0
0
0
0
0
0
0
0
33.17871
33.77094
34.55529
35.56278
36.82752
0
0
0
0
0
0
0
0
0
0
0
0
0
0
0
31.85803
32.42131
33.16382
34.11403
35.30267
0
0
0
0
0
0
0
0
0
0
0
0
0
0
0
0
30.54221
31.07743
31.77991
32.6751
33.79107
0
0
0
0
0
0
0
0
0
0
29.26787
29.77638
30.44123
31.28535
32.33386
0
0
0
0
0
0
0
0
0
0
28.07426
28.55835
29.18877
29.98673
30.97481
0
0
0
0
0
0
0
0
0
0
26.98011
27.44161
28.04123
28.79784
29.73242
0
0
0
0
0
0
0
0
0
0
25.9888
26.43024
27.00184
27.72184
28.60898
0
0
0
0
0
0
0
0
0
0
55.25773
56.61881
58.53194
61.16096
64.72818
0
0
0
52.57983
53.79949
55.50139
57.81301
60.90279
0
0
0
0
50.2517
51.36498
52.90859
54.98832
57.73599
0
0
0
0
0
48.17961
49.20889
50.62868
52.52858
55.01835
0
0
0
0
0
0
46.26782
47.22749
48.5447
50.2977
52.57924
0
0
0
0
0
0
0
44.41394
45.31152
46.53772
48.16115
50.2622
0
0
0
0
0
0
0
0
42.56031
43.39945
44.54043
46.04348
47.97811
0
0
0
0
0
0
0
0
0
40.75036
41.53596
42.59901
43.99266
45.77747
0
0
0
0
0
0
0
0
0
0
39.03011
39.7675
40.76105
42.05765
43.7104
0
0
0
0
0
0
0
0
0
0
0
37.4188
38.1133
39.04509
40.25619
41.79343
0
0
0
0
0
0
0
0
0
0
0
0
35.91668
36.57342
37.45044
38.58593
40.0218
0
0
0
0
0
0
0
0
0
0
0
0
0
34.51341
35.13626
35.96477
37.03301
38.37908
0
0
0
0
0
0
0
0
0
0
0
0
0
0
33.19016
33.78248
34.56709
35.57515
36.84072
0
0
0
0
0
0
0
0
0
0
0
0
0
0
0
31.92005
32.48438
33.22866
34.18145
35.37371
0
0
0
0
0
0
0
0
0
0
0
0
0
0
0
0
30.67039
31.20803
31.9143
32.81488
33.93817
0
0
0
0
0
0
0
0
0
0
0
0
0
0
0
0
0
29.42338
29.93486
30.60421
31.45464
32.51155
0
0
0
0
0
0
0
0
0
0
28.21365
28.70037
29.33465
30.13796
31.13315
0
0
0
0
0
0
0
0
0
0
27.07948
27.54282
28.14512
28.90539
29.8448
0
0
0
0
0
0
0
0
0
0
26.03833
26.48072
27.05368
27.77551
28.66504
0
0
0
0
0
0
0
0
0
0
25.09421
25.51763
26.06459
26.75168
27.5971
0
0
0
0
0
0
0
0
0
0
52.42966
53.64124
55.33146
57.62625
60.69149
0
0
0
0
49.9925
51.09331
52.61898
54.67308
57.38426
0
0
0
0
0
47.85946
48.87446
50.27372
52.14461
54.59355
0
0
0
0
0
0
45.95047
46.89654
48.19421
49.91969
52.16297
0
0
0
0
0
0
0
44.181
45.06882
46.28092
47.88449
49.95801
0
0
0
0
0
0
0
0
42.45884
43.29367
44.42846
45.9228
47.84536
0
0
0
0
0
0
0
0
0
40.73165
41.5161
42.57746
43.96872
45.75013
0
0
0
0
0
0
0
0
0
0
39.04074
39.77815
40.77164
42.06809
43.72056
0
0
0
0
0
0
0
0
0
0
0
37.42962
38.12431
39.05634
40.26772
41.80526
0
0
0
0
0
0
0
0
0
0
0
0
35.91668
36.57342
37.45044
38.58593
40.0218
0
0
0
0
0
0
0
0
0
0
0
0
0
34.50347
35.12607
35.95429
37.02219
38.36785
0
0
0
0
0
0
0
0
0
0
0
0
0
0
33.18057
33.77259
34.55685
35.56457
36.82977
0
0
0
0
0
0
0
0
0
0
0
0
0
0
0
31.93075
32.49505
33.23949
34.19263
35.38556
0
0
0
0
0
0
0
0
0
0
0
0
0
0
0
0
30.72913
31.26761
31.97537
32.8782
34.00462
0
0
0
0
0
0
0
0
0
0
0
0
0
0
0
0
0
29.54509
30.0587
30.7314
31.58667
32.65015
0
0
0
0
0
0
0
0
0
0
0
0
0
0
0
0
0
0
28.36158
28.85098
29.48933
30.29834
31.30119
0
0
0
0
0
0
0
0
0
0
27.2123
27.67805
28.28389
29.04905
29.99495
0
0
0
0
0
0
0
0
0
0
26.13314
26.57723
27.15267
27.87787
28.77184
0
0
0
0
0
0
0
0
0
0
25.14149
25.56578
26.11399
26.80278
27.65041
0
0
0
0
0
0
0
0
0
0
24.24184
24.64785
25.17156
25.82809
26.63403
0
0
0
0
0
0
0
0
0
0
49.85582
50.95011
52.46645
54.5073
57.19971
0
0
0
0
0
47.62214
48.62694
50.01157
51.86185
54.28193
0
0
0
0
0
0
45.6562
46.59046
47.87118
49.57287
51.78323
0
0
0
0
0
0
0
43.88867
44.76521
45.96106
47.54188
49.58405
0
0
0
0
0
0
0
0
42.24413
43.07089
44.194
45.67191
47.57187
0
0
0
0
0
0
0
0
0
40.63845
41.41939
42.47568
43.85986
45.6315
0
0
0
0
0
0
0
0
0
0
39.02411
39.76073
40.75298
42.04758
43.6975
0
0
0
0
0
0
0
0
0
0
0
37.44008
38.13491
39.06705
40.27847
41.81596
0
0
0
0
0
0
0
0
0
0
0
0
35.92707
36.58402
37.46131
38.59712
40.03336
0
0
0
0
0
0
0
0
0
0
0
0
0
34.50347
35.12607
35.95429
37.02219
38.36785
0
0
0
0
0
0
0
0
0
0
0
0
0
0
33.17106
33.76283
34.54678
35.55415
36.81892
0
0
0
0
0
0
0
0
0
0
0
0
0
0
0
31.92155
32.48549
33.22956
34.18229
35.37482
0
0
0
0
0
0
0
0
0
0
0
0
0
0
0
0
30.73923
31.27758
31.98538
32.88846
34.01533
0
0
0
0
0
0
0
0
0
0
0
0
0
0
0
0
0
29.60089
30.11519
30.78913
31.64635
32.71258
0
0
0
0
0
0
0
0
0
0
0
0
0
0
0
0
0
0
28.47739
28.96867
29.61002
30.42336
31.43214
0
0
0
0
0
0
0
0
0
0
0
0
0
0
0
0
0
0
0
27.35324
27.82145
28.43098
29.20134
30.15419
0
0
0
0
0
0
0
0
0
0
26.25991
26.7062
27.28489
28.01459
28.91451
0
0
0
0
0
0
0
0
0
0
25.2321
25.65794
26.20844
26.90035
27.75208
0
0
0
0
0
0
0
0
0
0
24.28701
24.69383
25.2187
25.87681
26.68479
0
0
0
0
0
0
0
0
0
0
23.42941
23.81851
24.31995
24.94774
25.71701
0
0
0
0
0
0
0
0
0
0
47.49694
48.49637
49.87335
51.7129
54.11804
0
0
0
0
0
0
45.43769
46.36346
47.63202
49.31671
51.5036
0
0
0
0
0
0
0
43.61682
44.48345
45.66506
47.226
49.24093
0
0
0
0
0
0
0
0
41.97358
42.79081
43.90023
45.35899
47.2328
0
0
0
0
0
0
0
0
0
40.43967
41.21377
42.26023
43.63063
45.38338
0
0
0
0
0
0
0
0
0
0
38.93797
39.67179
40.65984
41.94857
43.59045
0
0
0
0
0
0
0
0
0
0
0
37.42514
38.11944
39.05069
40.26073
41.79624
0
0
0
0
0
0
0
0
0
0
0
0
35.93732
36.59446
37.47196
38.60796
40.04434
0
0
0
0
0
0
0
0
0
0
0
0
0
34.51341
35.13626
35.96476
37.03301
38.37908
0
0
0
0
0
0
0
0
0
0
0
0
0
0
33.17106
33.76283
34.54678
35.55415
36.81892
0
0
0
0
0
0
0
0
0
0
0
0
0
0
0
31.91248
32.47615
33.21992
34.17227
35.36436
0
0
0
0
0
0
0
0
0
0
0
0
0
0
0
0
30.73046
31.2684
31.97579
32.87846
34.00484
0
0
0
0
0
0
0
0
0
0
0
0
0
0
0
0
0
29.6105
30.12461
30.79849
31.65584
32.72241
0
0
0
0
0
0
0
0
0
0
0
0
0
0
0
0
0
0
28.53055
29.02239
29.6648
30.47981
31.491
0
0
0
0
0
0
0
0
0
0
0
0
0
0
0
0
0
0
0
27.46363
27.93353
28.54576
29.32002
30.27822
0
0
0
0
0
0
0
0
0
0
0
0
0
0
0
0
0
0
0
0
26.3944
26.84292
27.42502
28.15947
29.06575
0
0
0
0
0
0
0
0
0
0
25.35325
25.78111
26.33461
27.03067
27.88788
0
0
0
0
0
0
0
0
0
0
24.37369
24.78197
25.30894
25.96994
26.78172
0
0
0
0
0
0
0
0
0
0
23.47262
23.86247
24.36499
24.99424
25.76541
0
0
0
0
0
0
0
0
0
0
22.65474
23.02748
23.50749
24.1079
24.84273
0
0
0
0
0
0
0
0
0
0
45.32238
46.24365
47.50582
49.18162
51.3563
0
0
0
0
0
0
0
43.41466
44.27411
45.44545
46.9921
48.98749
0
0
0
0
0
0
0
0
41.72134
42.53013
43.62742
45.06931
46.92017
0
0
0
0
0
0
0
0
0
40.18829
40.95421
41.98894
43.34302
45.07359
0
0
0
0
0
0
0
0
0
0
38.75308
39.48119
40.46079
41.73777
43.36368
0
0
0
0
0
0
0
0
0
0
37.34511
38.03714
38.96496
40.17006
41.69884
0
0
0
0
0
0
0
0
0
0
0
0
35.9238
36.58055
37.45744
38.59243
40.02731
0
0
0
0
0
0
0
0
0
0
0
0
0
34.52334
35.14648
35.97524
37.04378
38.39012
0
0
0
0
0
0
0
0
0
0
0
0
0
0
33.18058
33.77259
34.55685
35.56457
36.82978
0
0
0
0
0
0
0
0
0
0
0
0
0
0
0
31.91248
32.47615
33.21992
34.17227
35.36436
0
0
0
0
0
0
0
0
0
0
0
0
0
0
0
0
30.72183
31.25949
31.96655
32.86885
33.99479
0
0
0
0
0
0
0
0
0
0
0
0
0
0
0
0
0
29.60217
30.11586
30.7893
31.64617
32.71226
0
0
0
0
0
0
0
0
0
0
0
0
0
0
0
0
0
0
28.53977
29.03138
29.67366
30.48869
31.50009
0
0
0
0
0
0
0
0
0
0
0
0
0
0
0
0
0
0
0
27.5144
27.98475
28.59789
29.37361
30.33391
0
0
0
0
0
0
0
0
0
0
0
0
0
0
0
0
0
0
0
0
26.49982
26.94985
27.5344
28.2724
29.18352
0
0
0
0
0
0
0
0
0
0
0
0
0
0
0
0
0
0
0
0
25.48181
25.91169
26.4683
27.16874
28.03178
0
0
0
0
0
0
0
0
0
0
24.48962
24.89977
25.4295
26.09434
26.91119
0
0
0
0
0
0
0
0
0
0
23.55568
23.94685
24.45133
25.08326
25.85794
0
0
0
0
0
0
0
0
0
0
22.69613
23.06957
23.55057
24.15234
24.88894
0
0
0
0
0
0
0
0
0
0
21.91685
22.27272
22.73215
23.30637
24.00854
0
0
0
0
0
0
0
0
0
0
43.30797
44.16359
45.32951
46.86866
48.85385
0
0
0
0
0
0
0
0
41.53353
42.33616
43.42466
44.85436
46.68868
0
0
0
0
0
0
0
0
0
39.9534
40.71199
41.73626
43.07584
44.78678
0
0
0
0
0
0
0
0
0
0
38.51863
39.2397
40.2091
41.47198
43.07884
0
0
0
0
0
0
0
0
0
0
37.17246
37.85963
38.78026
39.97518
41.49022
0
0
0
0
0
0
0
0
0
0
35.84917
36.504
37.37803
38.50892
39.93807
0
0
0
0
0
0
0
0
0
0
0
0
0
34.51094
35.1339
35.96219
37.03
38.37523
0
0
0
0
0
0
0
0
0
0
0
0
0
0
33.19017
33.78249
34.56709
35.57515
36.84073
0
0
0
0
0
0
0
0
0
0
0
0
0
0
0
31.92155
32.48549
33.22957
34.18229
35.37481
0
0
0
0
0
0
0
0
0
0
0
0
0
0
0
0
30.72183
31.25949
31.96655
32.86885
33.99479
0
0
0
0
0
0
0
0
0
0
0
0
0
0
0
0
0
29.59397
30.10737
30.78048
31.63697
32.70263
0
0
0
0
0
0
0
0
0
0
0
0
0
0
0
0
0
0
28.53188
29.02306
29.66489
30.47942
31.4903
0
0
0
0
0
0
0
0
0
0
0
0
0
0
0
0
0
0
0
27.5233
27.99339
28.60636
29.38203
30.34243
0
0
0
0
0
0
0
0
0
0
0
0
0
0
0
0
0
0
0
0
26.54842
26.99881
27.58415
28.32343
29.23642
0
0
0
0
0
0
0
0
0
0
0
0
0
0
0
0
0
0
0
0
25.58267
26.01388
26.57271
27.27641
28.14387
0
0
0
0
0
0
0
0
0
0
0
0
0
0
0
0
0
0
0
0
24.61265
25.02468
25.55725
26.22612
27.04836
0
0
0
0
0
0
0
0
0
0
23.66677
24.05965
24.56671
25.20217
25.98155
0
0
0
0
0
0
0
0
0
0
22.7758
23.15046
23.63327
24.23754
24.97741
0
0
0
0
0
0
0
0
0
0
21.95655
22.31306
22.77342
23.3489
24.05272
0
0
0
0
0
0
0
0
0
0
21.214
21.55335
21.99199
22.54121
23.21227
0
0
0
0
0
0
0
0
0
0
41.43443
42.23377
43.3176
44.74087
46.5665
0
0
0
0
0
0
0
0
0
39.7783
40.53155
41.54819
42.87723
44.57397
0
0
0
0
0
0
0
0
0
0
38.29917
39.01385
39.97408
41.22435
42.81421
0
0
0
0
0
0
0
0
0
0
36.95303
37.63413
38.54587
39.72843
41.2269
0
0
0
0
0
0
0
0
0
0
35.68745
36.33806
37.20587
38.32797
39.74514
0
0
0
0
0
0
0
0
0
0
34.44103
35.06244
35.88827
36.9526
38.29301
0
0
0
0
0
0
0
0
0
0
0
0
0
0
33.17872
33.77095
34.55529
35.56278
36.82752
0
0
0
0
0
0
0
0
0
0
0
0
0
0
0
31.93075
32.49505
33.23949
34.19263
35.38556
0
0
0
0
0
0
0
0
0
0
0
0
0
0
0
0
30.73046
31.26841
31.97579
32.87846
34.00484
0
0
0
0
0
0
0
0
0
0
0
0
0
0
0
0
0
29.59397
30.10737
30.78048
31.63697
32.70263
0
0
0
0
0
0
0
0
0
0
0
0
0
0
0
0
0
0
28.52409
29.01499
29.65649
30.47064
31.48108
0
0
0
0
0
0
0
0
0
0
0
0
0
0
0
0
0
0
0
27.51585
27.98551
28.59802
29.37319
30.33304
0
0
0
0
0
0
0
0
0
0
0
0
0
0
0
0
0
0
0
0
26.55705
27.00716
27.5923
28.33148
29.24449
0
0
0
0
0
0
0
0
0
0
0
0
0
0
0
0
0
0
0
0
25.62929
26.06079
26.6203
27.32514
28.19426
0
0
0
0
0
0
0
0
0
0
0
0
0
0
0
0
0
0
0
0
24.70927
25.12252
25.65711
26.32894
27.15525
0
0
0
0
0
0
0
0
0
0
0
0
0
0
0
0
0
0
0
0
23.7847
24.17926
24.68897
25.32814
26.1125
0
0
0
0
0
0
0
0
0
0
22.88238
23.25863
23.7438
24.35138
25.09558
0
0
0
0
0
0
0
0
0
0
22.03307
22.3907
22.85274
23.43053
24.1374
0
0
0
0
0
0
0
0
0
0
21.25211
21.59206
22.03156
22.58196
23.25455
0
0
0
0
0
0
0
0
0
0
20.54659
20.86771
21.2862
21.81052
22.45199
0
0
0
0
0
0
0
0
0
0
39.68593
40.43631
41.44888
42.77235
44.4616
0
0
0
0
0
0
0
0
0
0
38.13545
38.84541
39.79895
41.04
42.61751
0
0
0
0
0
0
0
0
0
0
36.74732
37.42286
38.32652
39.49795
40.98155
0
0
0
0
0
0
0
0
0
0
35.48149
36.12676
36.9868
38.09804
39.50061
0
0
0
0
0
0
0
0
0
0
34.28906
34.90681
35.72716
36.78382
38.11381
0
0
0
0
0
0
0
0
0
0
33.11299
33.70393
34.48622
35.49067
36.75129
0
0
0
0
0
0
0
0
0
0
0
0
0
0
0
31.92006
32.48439
33.22866
34.18145
35.3737
0
0
0
0
0
0
0
0
0
0
0
0
0
0
0
0
30.73923
31.27758
31.98538
32.88847
34.01533
0
0
0
0
0
0
0
0
0
0
0
0
0
0
0
0
0
29.60217
30.11586
30.7893
31.64617
32.71226
0
0
0
0
0
0
0
0
0
0
0
0
0
0
0
0
0
0
28.52409
29.01499
29.65649
30.47064
31.48108
0
0
0
0
0
0
0
0
0
0
0
0
0
0
0
0
0
0
0
27.50845
27.97784
28.59002
29.36482
30.32423
0
0
0
0
0
0
0
0
0
0
0
0
0
0
0
0
0
0
0
0
26.55004
26.99972
27.5844
28.32307
29.23554
0
0
0
0
0
0
0
0
0
0
0
0
0
0
0
0
0
0
0
0
25.63773
26.06891
26.6282
27.3329
28.20199
0
0
0
0
0
0
0
0
0
0
0
0
0
0
0
0
0
0
0
0
24.75408
25.16757
25.70273
26.37558
27.20338
0
0
0
0
0
0
0
0
0
0
0
0
0
0
0
0
0
0
0
0
23.87743
24.27306
24.78463
25.42651
26.2146
0
0
0
0
0
0
0
0
0
0
0
0
0
0
0
0
0
0
0
0
22.99556
23.37336
23.86094
24.47198
25.22078
0
0
0
0
0
0
0
0
0
0
22.13547
22.49453
22.95878
23.53962
24.25055
0
0
0
0
0
0
0
0
0
0
21.32567
21.66667
22.10773
22.66028
23.33569
0
0
0
0
0
0
0
0
0
0
20.58323
20.90489
21.32419
21.8496
22.4925
0
0
0
0
0
0
0
0
0
0
19.91403
20.21627
20.61321
21.11354
21.72585
0
0
0
0
0
0
0
0
0
0
38.04912
38.75652
39.70648
40.94265
42.51363
0
0
0
0
0
0
0
0
0
0
36.59375
37.26517
38.16287
39.32617
40.79892
0
0
0
0
0
0
0
0
0
0
35.28815
35.9285
36.78142
37.88279
39.27219
0
0
0
0
0
0
0
0
0
0
34.09529
34.70827
35.52171
36.56879
37.88588
0
0
0
0
0
0
0
0
0
0
32.96978
33.55754
34.33501
35.33265
36.58409
0
0
0
0
0
0
0
0
0
0
31.85804
32.42132
33.16383
34.11404
35.30266
0
0
0
0
0
0
0
0
0
0
0
0
0
0
0
0
30.72914
31.26761
31.97537
32.8782
34.00462
0
0
0
0
0
0
0
0
0
0
0
0
0
0
0
0
0
29.61051
30.12461
30.7985
31.65584
32.72241
0
0
0
0
0
0
0
0
0
0
0
0
0
0
0
0
0
0
28.53189
29.02306
29.66489
30.47943
31.4903
0
0
0
0
0
0
0
0
0
0
0
0
0
0
0
0
0
0
0
27.50845
27.97784
28.59002
29.36482
30.32423
0
0
0
0
0
0
0
0
0
0
0
0
0
0
0
0
0
0
0
0
26.54302
26.99243
27.5768
28.3151
29.22715
0
0
0
0
0
0
0
0
0
0
0
0
0
0
0
0
0
0
0
0
25.63115
26.0619
26.62073
27.32493
28.19348
0
0
0
0
0
0
0
0
0
0
0
0
0
0
0
0
0
0
0
0
24.76234
25.17552
25.71043
26.38311
27.21084
0
0
0
0
0
0
0
0
0
0
0
0
0
0
0
0
0
0
0
0
23.92059
24.31639
24.82848
25.47125
26.26068
0
0
0
0
0
0
0
0
0
0
0
0
0
0
0
0
0
0
0
0
23.08466
23.46344
23.9527
24.56626
25.31848
0
0
0
0
0
0
0
0
0
0
0
0
0
0
0
0
0
0
0
0
22.24425
22.60471
23.0712
23.65522
24.37043
0
0
0
0
0
0
0
0
0
0
21.42414
21.76649
22.20957
22.76497
23.44414
0
0
0
0
0
0
0
0
0
0
20.65405
20.97666
21.39742
21.92483
22.57037
0
0
0
0
0
0
0
0
0
0
19.94926
20.25204
20.64971
21.15107
21.76471
0
0
0
0
0
0
0
0
0
0
19.32093
19.59851
19.9735
20.44875
21.03309
0
0
0
0
0
0
0
0
0
0
36.51282
37.182
38.0765
39.23547
40.70246
0
0
0
0
0
0
0
0
0
0
35.14373
35.78041
36.62808
37.72218
39.10194
0
0
0
0
0
0
0
0
0
0
33.91319
34.52173
35.32882
36.36714
37.67248
0
0
0
0
0
0
0
0
0
0
32.78698
33.37055
34.14181
35.13088
36.37086
0
0
0
0
0
0
0
0
0
0
31.72274
32.28322
33.02148
33.96563
35.14607
0
0
0
0
0
0
0
0
0
0
30.6704
31.20804
31.9143
32.81489
33.93818
0
0
0
0
0
0
0
0
0
0
0
0
0
0
0
0
0
29.60089
30.11519
30.78913
31.64635
32.71258
0
0
0
0
0
0
0
0
0
0
0
0
0
0
0
0
0
0
28.53977
29.03138
29.67367
30.4887
31.5001
0
0
0
0
0
0
0
0
0
0
0
0
0
0
0
0
0
0
0
27.51585
27.98552
28.59802