/*--------------------------------*- C++ -*----------------------------------*\
| =========                 |                                                 |
| \\      /  F ield         | OpenFOAM: The Open Source CFD Toolbox           |
|  \\    /   O peration     | Version:  2306                                  |
|   \\  /    A nd           | Website:  www.openfoam.com                      |
|    \\/     M anipulation  |                                                 |
\*---------------------------------------------------------------------------*/
FoamFile
{
    version     2.0;
    format      ascii;
    arch        "LSB;label=32;scalar=64";
    class       volScalarField;
    location    "0.9/fuel";
    object      iDmdtfuel.H2;
}
// * * * * * * * * * * * * * * * * * * * * * * * * * * * * * * * * * * * * * //

dimensions      [1 -3 -1 0 0 0 0];

internalField   nonuniform List<scalar> 
16000
(
-10.18801
-10.27085
-9.292409
-9.768688
-10.43794
-9.344642
-9.845733
-8.52022
-8.933097
-9.472047
-10.69023
-9.447101
-10.00101
-8.559551
-8.98192
-9.545216
-7.89619
-8.209625
-8.676846
-9.289339
-11.01947
-9.594648
-10.23527
-8.635734
-9.077637
-9.692647
-7.92821
-8.246548
-8.723335
-9.360353
-7.375603
-7.622918
-7.986819
-8.51685
-9.209618
-11.37515
-9.773696
-10.54066
-8.743092
-9.215396
-9.915042
-7.98978
-8.318034
-8.814454
-9.503479
-7.402735
-7.653085
-8.02207
-8.561975
-9.279958
-6.927641
-7.132021
-7.426088
-7.846413
-8.444616
-0
-11.64386
-9.948151
-10.87017
-8.868786
-9.382455
-10.20502
-8.075437
-8.418723
-8.945571
-9.719523
-7.454661
-7.711066
-8.090301
-8.650423
-9.421828
-6.951198
-7.15766
-7.454957
-7.880658
-8.489215
-0
-6.534272
-6.708507
-6.956044
-7.301301
-7.781747
-0
-0
-11.81346
-10.06561
-11.11816
-8.984444
-9.545086
-10.518
-8.17353
-8.53654
-9.104568
-10.00161
-7.526283
-7.791691
-8.186383
-8.77773
-9.636267
-6.996136
-7.206706
-7.510425
-7.946938
-8.576661
-0
-6.555078
-6.730826
-6.980631
-7.329376
-7.815569
-0
-0
-6.183425
-6.335732
-6.549815
-6.844007
-7.243183
-0
-0
-0
-11.9097
-10.13057
-11.27417
-9.055928
-9.654283
-10.75292
-8.260553
-8.644859
-9.259335
-10.3067
-7.607071
-7.883966
-8.298787
-8.9322
-9.916963
-7.057737
-7.274325
-7.587537
-8.04028
-8.702604
-0
-6.594677
-6.773385
-7.027648
-7.383313
-7.881038
-0
-0
-6.202032
-6.355492
-6.571259
-6.867943
-7.27091
-0
-0
-0
-5.86696
-6.002538
-6.191676
-6.448467
-6.791472
-0
-0
-0
-0
-11.95289
-10.16321
-11.36247
-9.090288
-9.714514
-10.90038
-8.311245
-8.711636
-9.362976
-10.53531
-7.676939
-7.965748
-8.402087
-9.082675
-10.22161
-7.126449
-7.350547
-7.675764
-8.149508
-8.855604
-0
-6.648705
-6.831696
-7.092452
-7.458295
-7.97327
-0
-0
-6.237386
-6.393083
-6.612133
-6.913712
-7.324181
-0
-0
-0
-5.883764
-6.020247
-6.210692
-6.469365
-6.815117
-0
-0
-0
-0
-5.578944
-5.701397
-5.871077
-6.099451
-6.400737
-0
-0
-0
-0
-0
-11.95289
-10.17662
-11.40205
-9.10451
-9.744738
-10.98375
-8.332886
-8.74365
-9.420034
-10.6787
-7.715927
-8.01326
-8.465584
-9.183193
-10.44977
-7.184752
-7.41639
-7.753901
-8.249897
-9.004861
-0
-6.70845
-6.896692
-7.165471
-7.544087
-8.081265
-0
-0
-6.285443
-6.444346
-6.66812
-6.976789
-7.398251
-0
-0
-0
-5.915656
-6.05388
-6.246857
-6.509195
-6.86033
-0
-0
-0
-0
-5.594238
-5.717421
-5.888146
-6.118003
-6.421388
-0
-0
-0
-0
-0
-5.314981
-5.426819
-5.580906
-5.786754
-6.055893
-0
-0
-0
-0
-0
-0
-11.9097
-10.17662
-11.40205
-9.109255
-9.757138
-11.02108
-8.339961
-8.756867
-9.448643
-10.75977
-7.730983
-8.033474
-8.495944
-9.238465
-10.59297
-7.21622
-7.453026
-7.799147
-8.311405
-9.104345
-0
-6.758396
-6.951769
-7.228487
-7.62004
-8.180566
-0
-0
-6.338215
-6.50099
-6.730495
-7.047854
-7.483027
-0
-0
-0
-5.958878
-6.099575
-6.296159
-6.563746
-6.922646
-0
-0
-0
-0
-5.623243
-5.747821
-5.920553
-6.153279
-6.460747
-0
-0
-0
-0
-0
-5.328991
-5.44143
-5.596373
-5.803422
-6.074232
-0
-0
-0
-0
-0
-0
-5.071645
-5.174737
-5.315975
-5.503499
-5.74685
-0
-0
-0
-0
-0
-0
-0
-11.81346
-10.16321
-11.36247
-9.109255
-9.757138
-11.02108
-8.341495
-8.761265
-9.460379
-10.79609
-7.734665
-8.040045
-8.50845
-9.266188
-10.67405
-7.227345
-7.467107
-7.818318
-8.340738
-9.159016
-0
-6.784638
-6.981403
-7.263421
-7.663852
-8.241196
-0
-0
-6.381805
-6.548275
-6.783289
-7.109141
-7.558068
-0
-0
-0
-6.006071
-6.149713
-6.350607
-6.624507
-6.992866
-0
-0
-0
-0
-5.662453
-5.788999
-5.964568
-6.201362
-6.514655
-0
-0
-0
-0
-0
-5.355548
-5.469127
-5.625707
-5.835063
-6.109103
-0
-0
-0
-0
-0
-0
-5.084548
-5.188143
-5.330097
-5.518616
-5.763333
-0
-0
-0
-0
-0
-0
-0
-4.846229
-4.941975
-5.072443
-5.244675
-5.466821
-0
-0
-0
-0
-0
-0
-0
-0
-11.64386
-10.13057
-11.27417
-9.10451
-9.744738
-10.98375
-8.341495
-8.761265
-9.460379
-10.79609
-7.734774
-8.041451
-8.512604
-9.277573
-10.71042
-7.229176
-7.470506
-7.824511
-8.352803
-9.186477
-0
-6.793201
-6.991813
-7.276771
-7.682332
-8.270032
-0
-0
-6.404194
-6.573033
-6.811581
-7.142969
-7.601163
-0
-0
-0
-6.044669
-6.191063
-6.396
-6.675889
-7.053391
-0
-0
-0
-0
-5.70506
-5.833922
-6.012835
-6.254451
-6.574705
-0
-0
-0
-0
-0
-5.391373
-5.506551
-5.665428
-5.878029
-6.156638
-0
-0
-0
-0
-0
-0
-5.109
-5.213545
-5.356859
-5.547281
-5.794624
-0
-0
-0
-0
-0
-0
-0
-4.858168
-4.954341
-5.085416
-5.258489
-5.481777
-0
-0
-0
-0
-0
-0
-0
-0
-4.636577
-4.726024
-4.847306
-5.006572
-5.210864
-0
-0
-0
-0
-0
-0
-0
-0
-0
-11.37515
-10.06561
-11.11816
-9.090288
-9.714514
-10.90038
-8.339961
-8.756867
-9.448643
-10.75977
-7.734774
-8.041451
-8.512604
-9.277573
-10.71042
-7.22857
-7.470575
-7.825817
-8.356807
-9.197776
-0
-6.793932
-6.993474
-7.279944
-7.688263
-8.28188
-0
-0
-6.410972
-6.581047
-6.821446
-7.155814
-7.619249
-0
-0
-0
-6.064115
-6.212222
-6.419665
-6.703295
-7.086632
-0
-0
-0
-0
-5.73962
-5.870604
-6.052585
-6.298663
-6.625445
-0
-0
-0
-0
-0
-5.430144
-5.547182
-5.708735
-5.925133
-6.20912
-0
-0
-0
-0
-0
-0
-5.141928
-5.247796
-5.393006
-5.58609
-5.837117
-0
-0
-0
-0
-0
-0
-0
-4.88079
-4.977767
-5.109991
-5.284662
-5.510136
-0
-0
-0
-0
-0
-0
-0
-0
-4.647667
-4.737483
-4.859287
-5.019272
-5.224535
-0
-0
-0
-0
-0
-0
-0
-0
-0
-4.440919
-4.524885
-4.638195
-4.786292
-4.975322
-0
-0
-0
-0
-0
-0
-0
-0
-0
-0
-11.01947
-9.948151
-10.87017
-9.055928
-9.654282
-10.75292
-8.332886
-8.74365
-9.420034
-10.6787
-7.734665
-8.040045
-8.50845
-9.266188
-10.67405
-7.22857
-7.470575
-7.825817
-8.356807
-9.197776
-0
-6.792941
-6.992867
-7.279973
-7.689497
-8.285814
-0
-0
-6.411005
-6.581671
-6.822962
-7.158815
-7.625012
-0
-0
-0
-6.069602
-6.218564
-6.427253
-6.71277
-7.099161
-0
-0
-0
-0
-5.756742
-5.889012
-6.072834
-6.321598
-6.652363
-0
-0
-0
-0
-0
-5.461374
-5.580083
-5.744045
-5.96388
-6.252786
-0
-0
-0
-0
-0
-0
-5.177441
-5.28483
-5.432227
-5.62839
-5.883699
-0
-0
-0
-0
-0
-0
-0
-4.911211
-5.009297
-5.143114
-5.32001
-5.548532
-0
-0
-0
-0
-0
-0
-0
-0
-4.668683
-4.759187
-4.881976
-5.043326
-5.250439
-0
-0
-0
-0
-0
-0
-0
-0
-0
-4.451255
-4.535543
-4.649307
-4.798029
-4.987896
-0
-0
-0
-0
-0
-0
-0
-0
-0
-0
-4.257758
-4.336916
-4.443217
-4.581546
-4.757342
-0
-0
-0
-0
-0
-0
-0
-0
-0
-0
-10.69023
-9.773696
-10.54066
-8.984444
-9.545086
-10.518
-8.311245
-8.711636
-9.362976
-10.53531
-7.730983
-8.033474
-8.495944
-9.238465
-10.59297
-7.229176
-7.470506
-7.824511
-8.352803
-9.186477
-0
-6.792941
-6.992867
-7.279973
-7.689497
-8.285814
-0
-0
-6.409799
-6.580699
-6.822345
-7.158807
-7.626193
-0
-0
-0
-6.069181
-6.21853
-6.427781
-6.714166
-7.102032
-0
-0
-0
-0
-5.76126
-5.894143
-6.078834
-6.328875
-6.661581
-0
-0
-0
-0
-0
-5.476623
-5.596315
-5.761681
-5.983515
-6.275311
-0
-0
-0
-0
-0
-0
-5.205879
-5.314609
-5.463937
-5.662836
-5.921977
-0
-0
-0
-0
-0
-0
-0
-4.943923
-5.043271
-5.178907
-5.358349
-5.590379
-0
-0
-0
-0
-0
-0
-0
-0
-4.696909
-4.788359
-4.912504
-5.075741
-5.285423
-0
-0
-0
-0
-0
-0
-0
-0
-0
-4.470848
-4.555735
-4.670353
-4.820253
-5.01171
-0
-0
-0
-0
-0
-0
-0
-0
-0
-0
-4.267418
-4.346862
-4.453564
-4.59244
-4.768966
-0
-0
-0
-0
-0
-0
-0
-0
-0
-0
-4.085842
-4.160726
-4.260821
-4.39051
-4.554669
-0
-0
-0
-0
-0
-0
-0
-0
-0
-0
-10.43794
-9.594648
-10.23527
-8.868786
-9.382455
-10.20502
-8.260553
-8.644859
-9.259335
-10.3067
-7.715927
-8.01326
-8.465584
-9.183193
-10.44977
-7.227345
-7.467107
-7.818318
-8.340738
-9.159016
-0
-6.793932
-6.993474
-7.279944
-7.688263
-8.28188
-0
-0
-6.409799
-6.580699
-6.822345
-7.158807
-7.626193
-0
-0
-0
-6.067859
-6.217352
-6.426812
-6.713529
-7.101984
-0
-0
-0
-0
-5.760536
-5.89368
-6.078733
-6.329315
-6.662875
-0
-0
-0
-0
-0
-5.480401
-5.600537
-5.76653
-5.98926
-6.282376
-0
-0
-0
-0
-0
-0
-5.219591
-5.329086
-5.479505
-5.679948
-5.941263
-0
-0
-0
-0
-0
-0
-0
-4.96999
-5.070429
-5.207643
-5.389307
-5.624419
-0
-0
-0
-0
-0
-0
-0
-0
-4.727184
-4.8197
-4.945378
-5.110757
-5.323366
-0
-0
-0
-0
-0
-0
-0
-0
-0
-4.497134
-4.582839
-4.698628
-4.850151
-5.043805
-0
-0
-0
-0
-0
-0
-0
-0
-0
-0
-4.285738
-4.365711
-4.473162
-4.613069
-4.790977
-0
-0
-0
-0
-0
-0
-0
-0
-0
-0
-4.094898
-4.170032
-4.270486
-4.400659
-4.565462
-0
-0
-0
-0
-0
-0
-0
-0
-0
-0
-3.924125
-3.99515
-4.089689
-4.211685
-4.365509
-0
-0
-0
-0
-0
-0
-0
-0
-0
-0
-10.27085
-9.447101
-10.00101
-8.743092
-9.215396
-9.915042
-8.17353
-8.53654
-9.104568
-10.00161
-7.676939
-7.965748
-8.402087
-9.082675
-10.22161
-7.21622
-7.453026
-7.799147
-8.311405
-9.104345
-0
-6.793201
-6.991813
-7.276771
-7.682332
-8.270032
-0
-0
-6.411005
-6.581671
-6.822962
-7.158815
-7.625012
-0
-0
-0
-6.067859
-6.217352
-6.426812
-6.713529
-7.101984
-0
-0
-0
-0
-5.759156
-5.89239
-6.077567
-6.328338
-6.662209
-0
-0
-0
-0
-0
-5.479477
-5.599787
-5.76602
-5.989094
-6.282734
-0
-0
-0
-0
-0
-0
-5.222793
-5.332613
-5.483492
-5.684586
-5.94683
-0
-0
-0
-0
-0
-0
-0
-4.982425
-5.083465
-5.221542
-5.404423
-5.64123
-0
-0
-0
-0
-0
-0
-0
-0
-4.75121
-4.844629
-4.971614
-5.138832
-5.35397
-0
-0
-0
-0
-0
-0
-0
-0
-0
-4.525263
-4.611885
-4.728986
-4.882335
-5.078471
-0
-0
-0
-0
-0
-0
-0
-0
-0
-0
-4.310296
-4.390985
-4.49946
-4.64078
-4.820589
-0
-0
-0
-0
-0
-0
-0
-0
-0
-0
-4.112083
-4.187678
-4.288798
-4.419882
-4.5859
-0
-0
-0
-0
-0
-0
-0
-0
-0
-0
-3.932637
-4.003885
-4.098741
-4.221172
-4.375568
-0
-0
-0
-0
-0
-0
-0
-0
-0
-0
-3.771692
-3.839215
-3.92872
-4.0438
-4.188388
-0
-0
-0
-0
-0
-0
-0
-0
-0
-0
-10.18801
-9.344642
-9.845733
-8.635734
-9.077637
-9.692647
-8.075437
-8.418723
-8.945571
-9.719523
-7.607071
-7.883966
-8.298787
-8.9322
-9.916964
-7.184752
-7.41639
-7.753901
-8.249897
-9.004861
-0
-6.784638
-6.981403
-7.263421
-7.663852
-8.241196
-0
-0
-6.410972
-6.581047
-6.821446
-7.155814
-7.619249
-0
-0
-0
-6.069181
-6.21853
-6.427781
-6.714166
-7.102032
-0
-0
-0
-0
-5.759156
-5.89239
-6.077567
-6.328338
-6.662209
-0
-0
-0
-0
-0
-5.478076
-5.59844
-5.764747
-5.987926
-6.281735
-0
-0
-0
-0
-0
-0
-5.221739
-5.331674
-5.482709
-5.684026
-5.946597
-0
-0
-0
-0
-0
-0
-0
-4.985174
-5.086452
-5.224869
-5.408229
-5.645716
-0
-0
-0
-0
-0
-0
-0
-0
-4.762564
-4.856466
-4.984143
-5.152337
-5.368824
-0
-0
-0
-0
-0
-0
-0
-0
-0
-4.547507
-4.634893
-4.753095
-4.907986
-5.106235
-0
-0
-0
-0
-0
-0
-0
-0
-0
-0
-4.336531
-4.418007
-4.527625
-4.670522
-4.852463
-0
-0
-0
-0
-0
-0
-0
-0
-0
-0
-4.135102
-4.211319
-4.313344
-4.445673
-4.613355
-0
-0
-0
-0
-0
-0
-0
-0
-0
-0
-3.948798
-4.020455
-4.1159
-4.239144
-4.394619
-0
-0
-0
-0
-0
-0
-0
-0
-0
-0
-3.779707
-3.847433
-3.937223
-4.05269
-4.197793
-0
-0
-0
-0
-0
-0
-0
-0
-0
-0
-3.62772
-3.69207
-3.776992
-3.885792
-4.022055
-0
-0
-0
-0
-0
-0
-0
-0
-0
-0
-9.292409
-9.768688
-8.559551
-8.98192
-9.545216
-7.98978
-8.318034
-8.814454
-9.503479
-7.526283
-7.791691
-8.186383
-8.77773
-9.636267
-7.126449
-7.350547
-7.675764
-8.149508
-8.855604
-0
-6.758396
-6.951769
-7.228487
-7.62004
-8.180566
-0
-0
-6.404194
-6.573033
-6.811581
-7.142969
-7.601163
-0
-0
-0
-6.069602
-6.218564
-6.427253
-6.71277
-7.099161
-0
-0
-0
-0
-5.760536
-5.89368
-6.078733
-6.329315
-6.662875
-0
-0
-0
-0
-0
-5.478076
-5.59844
-5.764747
-5.987926
-6.281735
-0
-0
-0
-0
-0
-0
-5.220343
-5.330307
-5.48138
-5.682753
-5.945412
-0
-0
-0
-0
-0
-0
-0
-4.984043
-5.08539
-5.223906
-5.407407
-5.645101
-0
-0
-0
-0
-0
-0
-0
-0
-4.76495
-4.859029
-4.986956
-5.155509
-5.372501
-0
-0
-0
-0
-0
-0
-0
-0
-0
-4.557936
-4.645716
-4.764484
-4.920168
-5.119511
-0
-0
-0
-0
-0
-0
-0
-0
-0
-0
-4.35722
-4.439336
-4.549899
-4.69411
-4.877839
-0
-0
-0
-0
-0
-0
-0
-0
-0
-0
-0
-4.159657
-4.236553
-4.339572
-4.473284
-4.64282
-0
-0
-0
-0
-0
-0
-0
-0
-0
-0
-3.970433
-4.042641
-4.138881
-4.263231
-4.420179
-0
-0
-0
-0
-0
-0
-0
-0
-0
-0
-3.794937
-3.863034
-3.95335
-4.069541
-4.21561
-0
-0
-0
-0
-0
-0
-0
-0
-0
-0
-3.635284
-3.699817
-3.784999
-3.894148
-4.030871
-0
-0
-0
-0
-0
-0
-0
-0
-0
-0
-3.491513
-3.552946
-3.633698
-3.736772
-3.865464
-0
-0
-0
-0
-0
-0
-0
-0
-0
-0
-8.52022
-8.933097
-9.472047
-7.92821
-8.246548
-8.723335
-9.360353
-7.454661
-7.711066
-8.090301
-8.650423
-9.421828
-7.057737
-7.274325
-7.587537
-8.04028
-8.702604
-0
-6.70845
-6.896692
-7.165471
-7.544087
-8.081265
-0
-0
-6.381805
-6.548275
-6.783289
-7.109141
-7.558068
-0
-0
-0
-6.064115
-6.212222
-6.419665
-6.703295
-7.086632
-0
-0
-0
-0
-5.76126
-5.894143
-6.078834
-6.328875
-6.661581
-0
-0
-0
-0
-0
-5.479477
-5.599787
-5.76602
-5.989094
-6.282734
-0
-0
-0
-0
-0
-0
-5.220343
-5.330307
-5.48138
-5.682753
-5.945412
-0
-0
-0
-0
-0
-0
-0
-4.982668
-5.084027
-5.222558
-5.406083
-5.643815
-0
-0
-0
-0
-0
-0
-0
-0
-4.763773
-4.857895
-4.985878
-5.154515
-5.371633
-0
-0
-0
-0
-0
-0
-0
-0
-0
-4.560029
-4.647938
-4.766896
-4.922847
-5.12257
-0
-0
-0
-0
-0
-0
-0
-0
-0
-0
-4.366859
-4.449288
-4.560321
-4.70519
-4.889818
-0
-0
-0
-0
-0
-0
-0
-0
-0
-0
-0
-4.178976
-4.256415
-4.36024
-4.495092
-4.666165
-0
-0
-0
-0
-0
-0
-0
-0
-0
-0
-0
-0
-3.99348
-4.066285
-4.163395
-4.28896
-4.447543
-0
-0
-0
-0
-0
-0
-0
-0
-0
-0
-3.815314
-3.883909
-3.974936
-4.092106
-4.239489
-0
-0
-0
-0
-0
-0
-0
-0
-0
-0
-3.64967
-3.714533
-3.800195
-3.909994
-4.04758
-0
-0
-0
-0
-0
-0
-0
-0
-0
-0
-3.498664
-3.560264
-3.641251
-3.744643
-3.873751
-0
-0
-0
-0
-0
-0
-0
-0
-0
-0
-3.362451
-3.421192
-3.498108
-3.595958
-3.717739
-0
-0
-0
-0
-0
-0
-0
-0
-0
-0
-7.89619
-8.209625
-8.676846
-9.289339
-7.402735
-7.653085
-8.02207
-8.561975
-9.279958
-6.996136
-7.206706
-7.510425
-7.946938
-8.576661
-0
-6.648705
-6.831696
-7.092452
-7.458295
-7.97327
-0
-0
-6.338215
-6.50099
-6.730495
-7.047854
-7.483027
-0
-0
-0
-6.044669
-6.191063
-6.396
-6.675889
-7.053391
-0
-0
-0
-0
-5.756742
-5.889012
-6.072834
-6.321598
-6.652363
-0
-0
-0
-0
-0
-5.480401
-5.600537
-5.76653
-5.98926
-6.282376
-0
-0
-0
-0
-0
-0
-5.221739
-5.331674
-5.482709
-5.684026
-5.946597
-0
-0
-0
-0
-0
-0
-0
-4.982668
-5.084027
-5.222558
-5.406083
-5.643815
-0
-0
-0
-0
-0
-0
-0
-0
-4.76243
-4.856552
-4.984534
-5.153173
-5.370298
-0
-0
-0
-0
-0
-0
-0
-0
-0
-4.558835
-4.646762
-4.765749
-4.921744
-5.121536
-0
-0
-0
-0
-0
-0
-0
-0
-0
-0
-4.368719
-4.451237
-4.56241
-4.707484
-4.892398
-0
-0
-0
-0
-0
-0
-0
-0
-0
-0
-0
-4.187931
-4.265624
-4.369833
-4.505238
-4.677065
-0
-0
-0
-0
-0
-0
-0
-0
-0
-0
-0
-0
-4.011578
-4.084855
-4.18266
-4.309209
-4.469132
-0
-0
-0
-0
-0
-0
-0
-0
-0
-0
-0
-0
-0
-3.836998
-3.906126
-3.997926
-4.116168
-4.264995
-0
-0
-0
-0
-0
-0
-0
-0
-0
-0
-3.668912
-3.734215
-3.820521
-3.9312
-4.069957
-0
-0
-0
-0
-0
-0
-0
-0
-0
-0
-3.512278
-3.574179
-3.655596
-3.759582
-3.889469
-0
-0
-0
-0
-0
-0
-0
-0
-0
-0
-3.369226
-3.428118
-3.505247
-3.603387
-3.725549
-0
-0
-0
-0
-0
-0
-0
-0
-0
-0
-3.240034
-3.296231
-3.369603
-3.462646
-3.578115
-0
-0
-0
-0
-0
-0
-0
-0
-0
-0
-7.375603
-7.622918
-7.986819
-8.51685
-9.209618
-6.951198
-7.15766
-7.454957
-7.880658
-8.489215
-0
-6.594677
-6.773385
-7.027648
-7.383313
-7.881038
-0
-0
-6.285443
-6.444346
-6.66812
-6.976789
-7.398251
-0
-0
-0
-6.006071
-6.149713
-6.350607
-6.624507
-6.992866
-0
-0
-0
-0
-5.73962
-5.870604
-6.052585
-6.298663
-6.625445
-0
-0
-0
-0
-0
-5.476623
-5.596315
-5.761681
-5.983515
-6.275311
-0
-0
-0
-0
-0
-0
-5.222793
-5.332613
-5.483492
-5.684586
-5.94683
-0
-0
-0
-0
-0
-0
-0
-4.984043
-5.08539
-5.223906
-5.407407
-5.645101
-0
-0
-0
-0
-0
-0
-0
-0
-4.76243
-4.856552
-4.984534
-5.153173
-5.370298
-0
-0
-0
-0
-0
-0
-0
-0
-0
-4.557532
-4.645448
-4.764425
-4.920405
-5.120185
-0
-0
-0
-0
-0
-0
-0
-0
-0
-0
-4.36753
-4.450046
-4.561225
-4.706317
-4.891261
-0
-0
-0
-0
-0
-0
-0
-0
-0
-0
-0
-4.189603
-4.267355
-4.371664
-4.507223
-4.679271
-0
-0
-0
-0
-0
-0
-0
-0
-0
-0
-0
-0
-4.019929
-4.093421
-4.191545
-4.318554
-4.479118
-0
-0
-0
-0
-0
-0
-0
-0
-0
-0
-0
-0
-0
-3.854004
-3.923541
-4.015953
-4.135053
-4.285048
-0
-0
-0
-0
-0
-0
-0
-0
-0
-0
-0
-0
-0
-0
-3.689369
-3.75514
-3.842141
-3.953779
-4.093817
-0
-0
-0
-0
-0
-0
-0
-0
-0
-0
-3.530482
-3.592782
-3.674776
-3.779562
-3.910504
-0
-0
-0
-0
-0
-0
-0
-0
-0
-0
-3.382136
-3.441298
-3.518821
-3.617497
-3.740371
-0
-0
-0
-0
-0
-0
-0
-0
-0
-0
-3.246463
-3.302797
-3.376364
-3.469672
-3.585487
-0
-0
-0
-0
-0
-0
-0
-0
-0
-0
-3.123774
-3.177595
-3.247636
-3.336239
-3.445896
-0
-0
-0
-0
-0
-0
-0
-0
-0
-0
-6.927641
-7.132021
-7.426088
-7.846413
-8.444616
-0
-6.555078
-6.730826
-6.980631
-7.329376
-7.815569
-0
-0
-6.237386
-6.393083
-6.612133
-6.913712
-7.324181
-0
-0
-0
-5.958878
-6.099575
-6.296159
-6.563746
-6.922646
-0
-0
-0
-0
-5.70506
-5.833922
-6.012835
-6.254451
-6.574705
-0
-0
-0
-0
-0
-5.461374
-5.580083
-5.744045
-5.96388
-6.252786
-0
-0
-0
-0
-0
-0
-5.219591
-5.329086
-5.479505
-5.679948
-5.941263
-0
-0
-0
-0
-0
-0
-0
-4.985174
-5.086452
-5.224869
-5.408229
-5.645716
-0
-0
-0
-0
-0
-0
-0
-0
-4.763773
-4.857895
-4.985878
-5.154515
-5.371633
-0
-0
-0
-0
-0
-0
-0
-0
-0
-4.557532
-4.645448
-4.764425
-4.920405
-5.120185
-0
-0
-0
-0
-0
-0
-0
-0
-0
-0
-4.366271
-4.44877
-4.559929
-4.704999
-4.889916
-0
-0
-0
-0
-0
-0
-0
-0
-0
-0
-0
-4.188432
-4.266169
-4.370465
-4.50602
-4.678074
-0
-0
-0
-0
-0
-0
-0
-0
-0
-0
-0
-0
-4.021442
-4.094977
-4.193171
-4.320291
-4.481024
-0
-0
-0
-0
-0
-0
-0
-0
-0
-0
-0
-0
-0
-3.861827
-3.931538
-4.024225
-4.143714
-4.294248
-0
-0
-0
-0
-0
-0
-0
-0
-0
-0
-0
-0
-0
-0
-3.705394
-3.771521
-3.859062
-3.971462
-4.112526
-0
-0
-0
-0
-0
-0
-0
-0
-0
-0
-0
-0
-0
-0
-0
-3.549822
-3.612542
-3.695154
-3.800807
-3.9329
-0
-0
-0
-0
-0
-0
-0
-0
-0
-0
-3.399395
-3.458914
-3.536963
-3.636359
-3.760195
-0
-0
-0
-0
-0
-0
-0
-0
-0
-0
-3.258727
-3.315306
-3.38923
-3.48303
-3.59949
-0
-0
-0
-0
-0
-0
-0
-0
-0
-0
-3.129885
-3.183831
-3.25405
-3.342895
-3.45287
-0
-0
-0
-0
-0
-0
-0
-0
-0
-0
-3.013301
-3.064827
-3.131762
-3.216205
-3.320495
-0
-0
-0
-0
-0
-0
-0
-0
-0
-0
-6.534272
-6.708507
-6.956044
-7.301301
-7.781747
-0
-0
-6.202032
-6.355492
-6.571259
-6.867943
-7.27091
-0
-0
-0
-5.915656
-6.05388
-6.246857
-6.509195
-6.86033
-0
-0
-0
-0
-5.662453
-5.788999
-5.964568
-6.201362
-6.514655
-0
-0
-0
-0
-0
-5.430144
-5.547182
-5.708735
-5.925133
-6.20912
-0
-0
-0
-0
-0
-0
-5.205879
-5.314609
-5.463937
-5.662836
-5.921977
-0
-0
-0
-0
-0
-0
-0
-4.982424
-5.083465
-5.221542
-5.404423
-5.64123
-0
-0
-0
-0
-0
-0
-0
-0
-4.76495
-4.859029
-4.986956
-5.155509
-5.372501
-0
-0
-0
-0
-0
-0
-0
-0
-0
-4.558835
-4.646762
-4.765749
-4.921744
-5.121536
-0
-0
-0
-0
-0
-0
-0
-0
-0
-0
-4.366271
-4.44877
-4.559929
-4.704999
-4.889916
-0
-0
-0
-0
-0
-0
-0
-0
-0
-0
-0
-4.187222
-4.264937
-4.369206
-4.504731
-4.67675
-0
-0
-0
-0
-0
-0
-0
-0
-0
-0
-0
-0
-4.020295
-4.093809
-4.191979
-4.319078
-4.479795
-0
-0
-0
-0
-0
-0
-0
-0
-0
-0
-0
-0
-0
-3.863215
-3.932945
-4.025685
-4.145256
-4.295915
-0
-0
-0
-0
-0
-0
-0
-0
-0
-0
-0
-0
-0
-0
-3.712749
-3.779021
-3.866791
-3.97953
-4.121056
-0
-0
-0
-0
-0
-0
-0
-0
-0
-0
-0
-0
-0
-0
-0
-3.564963
-3.627995
-3.711083
-3.817413
-3.950423
-0
-0
-0
-0
-0
-0
-0
-0
-0
-0
-0
-0
-0
-0
-0
-0
-3.417721
-3.477613
-3.556221
-3.656394
-3.781273
-0
-0
-0
-0
-0
-0
-0
-0
-0
-0
-3.275121
-3.332023
-3.406421
-3.50088
-3.618209
-0
-0
-0
-0
-0
-0
-0
-0
-0
-0
-3.141553
-3.195724
-3.266269
-3.355562
-3.466129
-0
-0
-0
-0
-0
-0
-0
-0
-0
-0
-3.019117
-3.070758
-3.137858
-3.222523
-3.327103
-0
-0
-0
-0
-0
-0
-0
-0
-0
-0
-2.908186
-2.957584
-3.021548
-3.102117
-3.201389
-0
-0
-0
-0
-0
-0
-0
-0
-0
-0
-6.183425
-6.335732
-6.549815
-6.844007
-7.243183
-0
-0
-0
-5.883764
-6.020247
-6.210692
-6.469365
-6.815117
-0
-0
-0
-0
-5.623243
-5.747821
-5.920553
-6.153279
-6.460747
-0
-0
-0
-0
-0
-5.391373
-5.506551
-5.665428
-5.878029
-6.156638
-0
-0
-0
-0
-0
-0
-5.177441
-5.28483
-5.432227
-5.62839
-5.883699
-0
-0
-0
-0
-0
-0
-0
-4.969989
-5.070429
-5.207643
-5.389307
-5.624419
-0
-0
-0
-0
-0
-0
-0
-0
-4.762564
-4.856466
-4.984143
-5.152337
-5.368824
-0
-0
-0
-0
-0
-0
-0
-0
-0
-4.560028
-4.647938
-4.766896
-4.922847
-5.12257
-0
-0
-0
-0
-0
-0
-0
-0
-0
-0
-4.36753
-4.450045
-4.561225
-4.706317
-4.891261
-0
-0
-0
-0
-0
-0
-0
-0
-0
-0
-0
-4.187222
-4.264937
-4.369206
-4.504731
-4.67675
-0
-0
-0
-0
-0
-0
-0
-0
-0
-0
-0
-0
-4.019132
-4.092622
-4.190762
-4.317825
-4.478501
-0
-0
-0
-0
-0
-0
-0
-0
-0
-0
-0
-0
-0
-3.862104
-3.931802
-4.024513
-4.144051
-4.294679
-0
-0
-0
-0
-0
-0
-0
-0
-0
-0
-0
-0
-0
-0
-3.714031
-3.780312
-3.868111
-3.980914
-4.122534
-0
-0
-0
-0
-0
-0
-0
-0
-0
-0
-0
-0
-0
-0
-0
-3.571903
-3.635053
-3.718338
-3.824957
-3.958373
-0
-0
-0
-0
-0
-0
-0
-0
-0
-0
-0
-0
-0
-0
-0
-0
-3.432065
-3.492227
-3.571259
-3.672036
-3.797734
-0
-0
-0
-0
-0
-0
-0
-0
-0
-0
-0
-0
-0
-0
-0
-0
-0
-3.292521
-3.349758
-3.424659
-3.519823
-3.638093
-0
-0
-0
-0
-0
-0
-0
-0
-0
-0
-3.157152
-3.211616
-3.282593
-3.372485
-3.483848
-0
-0
-0
-0
-0
-0
-0
-0
-0
-0
-3.030235
-3.082084
-3.149482
-3.234558
-3.339679
-0
-0
-0
-0
-0
-0
-0
-0
-0
-0
-2.913729
-2.963233
-3.027349
-3.108123
-3.207663
-0
-0
-0
-0
-0
-0
-0
-0
-0
-0
-2.808081
-2.855462
-2.916668
-2.993554
-3.088159
-0
-0
-0
-0
-0
-0
-0
-0
-0
-0
-5.86696
-6.002538
-6.191676
-6.448467
-6.791472
-0
-0
-0
-0
-5.594238
-5.717421
-5.888146
-6.118003
-6.421388
-0
-0
-0
-0
-0
-5.355548
-5.469127
-5.625707
-5.835063
-6.109103
-0
-0
-0
-0
-0
-0
-5.141928
-5.247796
-5.393006
-5.58609
-5.837117
-0
-0
-0
-0
-0
-0
-0
-4.943922
-5.043271
-5.178907
-5.358349
-5.590379
-0
-0
-0
-0
-0
-0
-0
-0
-4.75121
-4.844629
-4.971614
-5.138832
-5.35397
-0
-0
-0
-0
-0
-0
-0
-0
-0
-4.557935
-4.645716
-4.764483
-4.920168
-5.119511
-0
-0
-0
-0
-0
-0
-0
-0
-0
-0
-4.368719
-4.451236
-4.56241
-4.707484
-4.892398
-0
-0
-0
-0
-0
-0
-0
-0
-0
-0
-0
-4.188432
-4.266169
-4.370465
-4.50602
-4.678074
-0
-0
-0
-0
-0
-0
-0
-0
-0
-0
-0
-0
-4.019132
-4.092622
-4.190762
-4.317825
-4.478501
-0
-0
-0
-0
-0
-0
-0
-0
-0
-0
-0
-0
-0
-3.860991
-3.930662
-4.023341
-4.14284
-4.293422
-0
-0
-0
-0
-0
-0
-0
-0
-0
-0
-0
-0
-0
-0
-3.712958
-3.779205
-3.866965
-3.979731
-4.121309
-0
-0
-0
-0
-0
-0
-0
-0
-0
-0
-0
-0
-0
-0
-0
-3.5731
-3.636246
-3.71955
-3.826209
-3.959699
-0
-0
-0
-0
-0
-0
-0
-0
-0
-0
-0
-0
-0
-0
-0
-0
-3.438638
-3.498894
-3.578093
-3.679122
-3.80517
-0
-0
-0
-0
-0
-0
-0
-0
-0
-0
-0
-0
-0
-0
-0
-0
-0
-3.306141
-3.363615
-3.438891
-3.534597
-3.653602
-0
-0
-0
-0
-0
-0
-0
-0
-0
-0
-0
-0
-0
-0
-0
-0
-0
-0
-3.173704
-3.22847
-3.299902
-3.390432
-3.502652
-0
-0
-0
-0
-0
-0
-0
-0
-0
-0
-3.045099
-3.097217
-3.165011
-3.250634
-3.356481
-0
-0
-0
-0
-0
-0
-0
-0
-0
-0
-2.924339
-2.974033
-3.038425
-3.119577
-3.219614
-0
-0
-0
-0
-0
-0
-0
-0
-0
-0
-2.813371
-2.86085
-2.922196
-2.999272
-3.094124
-0
-0
-0
-0
-0
-0
-0
-0
-0
-0
-2.712699
-2.758133
-2.816736
-2.890204
-2.980389
-0
-0
-0
-0
-0
-0
-0
-0
-0
-0
-5.578944
-5.701397
-5.871077
-6.099451
-6.400737
-0
-0
-0
-0
-0
-5.328991
-5.44143
-5.596373
-5.803422
-6.074232
-0
-0
-0
-0
-0
-0
-5.109
-5.213545
-5.356859
-5.547281
-5.794624
-0
-0
-0
-0
-0
-0
-0
-4.91121
-5.009297
-5.143114
-5.32001
-5.548532
-0
-0
-0
-0
-0
-0
-0
-0
-4.727184
-4.819699
-4.945378
-5.110757
-5.323366
-0
-0
-0
-0
-0
-0
-0
-0
-0
-4.547506
-4.634893
-4.753095
-4.907986
-5.106235
-0
-0
-0
-0
-0
-0
-0
-0
-0
-0
-4.366858
-4.449288
-4.560321
-4.70519
-4.889818
-0
-0
-0
-0
-0
-0
-0
-0
-0
-0
-0
-4.189603
-4.267355
-4.371663
-4.507223
-4.679271
-0
-0
-0
-0
-0
-0
-0
-0
-0
-0
-0
-0
-4.020295
-4.093809
-4.191979
-4.319078
-4.479795
-0
-0
-0
-0
-0
-0
-0
-0
-0
-0
-0
-0
-0
-3.860991
-3.930662
-4.023341
-4.14284
-4.293422
-0
-0
-0
-0
-0
-0
-0
-0
-0
-0
-0
-0
-0
-0
-3.711893
-3.778113
-3.865838
-3.978564
-4.120094
-0
-0
-0
-0
-0
-0
-0
-0
-0
-0
-0
-0
-0
-0
-0
-3.572071
-3.635176
-3.71844
-3.825052
-3.958497
-0
-0
-0
-0
-0
-0
-0
-0
-0
-0
-0
-0
-0
-0
-0
-0
-3.439768
-3.500009
-3.579213
-3.68027
-3.806368
-0
-0
-0
-0
-0
-0
-0
-0
-0
-0
-0
-0
-0
-0
-0
-0
-0
-3.312386
-3.369936
-3.445351
-3.541275
-3.660588
-0
-0
-0
-0
-0
-0
-0
-0
-0
-0
-0
-0
-0
-0
-0
-0
-0
-0
-3.186664
-3.24164
-3.313407
-3.404422
-3.517305
-0
-0
-0
-0
-0
-0
-0
-0
-0
-0
-0
-0
-0
-0
-0
-0
-0
-0
-0
-3.06087
-3.113263
-3.181471
-3.267675
-3.374301
-0
-0
-0
-0
-0
-0
-0
-0
-0
-0
-2.938524
-2.988465
-3.053222
-3.134876
-3.235579
-0
-0
-0
-0
-0
-0
-0
-0
-0
-0
-2.823511
-2.871163
-2.932765
-3.010191
-3.105501
-0
-0
-0
-0
-0
-0
-0
-0
-0
-0
-2.717754
-2.763278
-2.822012
-2.895655
-2.986069
-0
-0
-0
-0
-0
-0
-0
-0
-0
-0
-2.621787
-2.665328
-2.72144
-2.79169
-2.877773
-0
-0
-0
-0
-0
-0
-0
-0
-0
-0
-5.314981
-5.426819
-5.580906
-5.786754
-6.055893
-0
-0
-0
-0
-0
-0
-5.084548
-5.188143
-5.330097
-5.518616
-5.763333
-0
-0
-0
-0
-0
-0
-0
-4.88079
-4.977766
-5.109991
-5.284662
-5.510136
-0
-0
-0
-0
-0
-0
-0
-0
-4.696909
-4.788358
-4.912504
-5.075741
-5.285423
-0
-0
-0
-0
-0
-0
-0
-0
-0
-4.525262
-4.611885
-4.728986
-4.882335
-5.078471
-0
-0
-0
-0
-0
-0
-0
-0
-0
-0
-4.357219
-4.439335
-4.549899
-4.69411
-4.877839
-0
-0
-0
-0
-0
-0
-0
-0
-0
-0
-0
-4.187931
-4.265624
-4.369833
-4.505238
-4.677064
-0
-0
-0
-0
-0
-0
-0
-0
-0
-0
-0
-0
-4.021442
-4.094976
-4.193171
-4.320291
-4.481024
-0
-0
-0
-0
-0
-0
-0
-0
-0
-0
-0
-0
-0
-3.862104
-3.931802
-4.024513
-4.144051
-4.294678
-0
-0
-0
-0
-0
-0
-0
-0
-0
-0
-0
-0
-0
-0
-3.711894
-3.778113
-3.865838
-3.978564
-4.120094
-0
-0
-0
-0
-0
-0
-0
-0
-0
-0
-0
-0
-0
-0
-0
-3.571056
-3.634131
-3.71736
-3.82393
-3.957327
-0
-0
-0
-0
-0
-0
-0
-0
-0
-0
-0
-0
-0
-0
-0
-0
-3.438786
-3.498983
-3.57814
-3.67915
-3.805194
-0
-0
-0
-0
-0
-0
-0
-0
-0
-0
-0
-0
-0
-0
-0
-0
-0
-3.313461
-3.370991
-3.446399
-3.542337
-3.661688
-0
-0
-0
-0
-0
-0
-0
-0
-0
-0
-0
-0
-0
-0
-0
-0
-0
-0
-3.192613
-3.247651
-3.319537
-3.410738
-3.523892
-0
-0
-0
-0
-0
-0
-0
-0
-0
-0
-0
-0
-0
-0
-0
-0
-0
-0
-0
-3.073223
-3.125805
-3.194315
-3.280956
-3.38818
-0
-0
-0
-0
-0
-0
-0
-0
-0
-0
-0
-0
-0
-0
-0
-0
-0
-0
-0
-0
-2.953575
-3.003765
-3.068902
-3.151088
-3.252502
-0
-0
-0
-0
-0
-0
-0
-0
-0
-0
-2.837068
-2.884946
-2.946883
-3.024774
-3.120697
-0
-0
-0
-0
-0
-0
-0
-0
-0
-0
-2.727454
-2.773141
-2.83211
-2.906077
-2.996916
-0
-0
-0
-0
-0
-0
-0
-0
-0
-0
-2.626623
-2.670248
-2.726481
-2.796894
-2.883189
-0
-0
-0
-0
-0
-0
-0
-0
-0
-0
-2.5351
-2.576811
-2.630524
-2.697711
-2.779941
-0
-0
-0
-0
-0
-0
-0
-0
-0
-0
-5.071645
-5.174737
-5.315975
-5.503499
-5.74685
-0
-0
-0
-0
-0
-0
-0
-4.858168
-4.954341
-5.085416
-5.258489
-5.481777
-0
-0
-0
-0
-0
-0
-0
-0
-4.668683
-4.759187
-4.881976
-5.043326
-5.250439
-0
-0
-0
-0
-0
-0
-0
-0
-0
-4.497132
-4.582839
-4.698627
-4.850151
-5.043805
-0
-0
-0
-0
-0
-0
-0
-0
-0
-0
-4.33653
-4.418006
-4.527625
-4.670521
-4.852463
-0
-0
-0
-0
-0
-0
-0
-0
-0
-0
-4.178976
-4.256415
-4.360239
-4.495092
-4.666164
-0
-0
-0
-0
-0
-0
-0
-0
-0
-0
-0
-0
-4.019929
-4.09342
-4.191545
-4.318553
-4.479118
-0
-0
-0
-0
-0
-0
-0
-0
-0
-0
-0
-0
-0
-3.863215
-3.932946
-4.025685
-4.145256
-4.295914
-0
-0
-0
-0
-0
-0
-0
-0
-0
-0
-0
-0
-0
-0
-3.712958
-3.779205
-3.866965
-3.979731
-4.121309
-0
-0
-0
-0
-0
-0
-0
-0
-0
-0
-0
-0
-0
-0
-0
-3.571056
-3.634131
-3.71736
-3.82393
-3.957327
-0
-0
-0
-0
-0
-0
-0
-0
-0
-0
-0
-0
-0
-0
-0
-0
-3.43782
-3.497985
-3.577107
-3.678075
-3.804069
-0
-0
-0
-0
-0
-0
-0
-0
-0
-0
-0
-0
-0
-0
-0
-0
-0
-3.312529
-3.370012
-3.44537
-3.541256
-3.660552
-0
-0
-0
-0
-0
-0
-0
-0
-0
-0
-0
-0
-0
-0
-0
-0
-0
-0
-3.193645
-3.248656
-3.320529
-3.411732
-3.524909
-0
-0
-0
-0
-0
-0
-0
-0
-0
-0
-0
-0
-0
-0
-0
-0
-0
-0
-0
-3.078904
-3.131537
-3.200148
-3.286953
-3.394412
-0
-0
-0
-0
-0
-0
-0
-0
-0
-0
-0
-0
-0
-0
-0
-0
-0
-0
-0
-0
-2.965371
-3.01573
-3.081142
-3.163725
-3.265682
-0
-0
-0
-0
-0
-0
-0
-0
-0
-0
-0
-0
-0
-0
-0
-0
-0
-0
-0
-0
-2.851454
-2.899558
-2.961843
-3.040224
-3.1368
-0
-0
-0
-0
-0
-0
-0
-0
-0
-0
-2.740427
-2.786323
-2.845601
-2.919997
-3.011404
-0
-0
-0
-0
-0
-0
-0
-0
-0
-0
-2.635917
-2.67969
-2.736142
-2.806855
-2.893544
-0
-0
-0
-0
-0
-0
-0
-0
-0
-0
-2.539732
-2.581521
-2.635346
-2.702685
-2.785112
-0
-0
-0
-0
-0
-0
-0
-0
-0
-0
-2.452529
-2.492352
-2.543763
-2.608019
-2.686593
-0
-0
-0
-0
-0
-0
-0
-0
-0
-0
-4.846229
-4.941975
-5.072443
-5.244675
-5.466821
-0
-0
-0
-0
-0
-0
-0
-0
-4.647667
-4.737482
-4.859287
-5.019272
-5.224535
-0
-0
-0
-0
-0
-0
-0
-0
-0
-4.470847
-4.555735
-4.670352
-4.820253
-5.01171
-0
-0
-0
-0
-0
-0
-0
-0
-0
-0
-4.310294
-4.390983
-4.49946
-4.640779
-4.820589
-0
-0
-0
-0
-0
-0
-0
-0
-0
-0
-4.159656
-4.236552
-4.339571
-4.473284
-4.64282
-0
-0
-0
-0
-0
-0
-0
-0
-0
-0
-4.011578
-4.084855
-4.18266
-4.309208
-4.469132
-0
-0
-0
-0
-0
-0
-0
-0
-0
-0
-0
-0
-0
-3.861828
-3.931538
-4.024225
-4.143714
-4.294248
-0
-0
-0
-0
-0
-0
-0
-0
-0
-0
-0
-0
-0
-0
-3.714031
-3.780313
-3.868111
-3.980914
-4.122534
-0
-0
-0
-0
-0
-0
-0
-0
-0
-0
-0
-0
-0
-0
-0
-3.572071
-3.635177
-3.71844
-3.825052
-3.958497
-0
-0
-0
-0
-0
-0
-0
-0
-0
-0
-0
-0
-0
-0
-0
-0
-3.43782
-3.497985
-3.577107
-3.678075
-3.804069
-0
-0
-0
-0
-0
-0
-0
-0
-0
-0
-0
-0
-0
-0
-0
-0
-0
-3.311611
-3.369062
-3.444383
-3.540226
-3.659475
-0
-0
-0
-0
-0
-0
-0
-0
-0
-0
-0
-0
-0
-0
-0
-0
-0
-0
-3.192762
-3.247726
-3.319547
-3.410695
-3.523813
-0
-0
-0
-0
-0
-0
-0
-0
-0
-0
-0
-0
-0
-0
-0
-0
-0
-0
-0
-3.0799
-3.132504
-3.201096
-3.287895
-3.395365
-0
-0
-0
-0
-0
-0
-0
-0
-0
-0
-0
-0
-0
-0
-0
-0
-0
-0
-0
-0
-2.970809
-3.021209
-3.086709
-3.169436
-3.271601
-0
-0
-0
-0
-0
-0
-0
-0
-0
-0
-0
-0
-0
-0
-0
-0
-0
-0
-0
-0
-2.86274
-2.910993
-2.973528
-3.052272
-3.149343
-0
-0
-0
-0
-0
-0
-0
-0
-0
-0
-0
-0
-0
-0
-0
-0
-0
-0
-0
-0
-2.754194
-2.8003
-2.859896
-2.934743
-3.026754
-0
-0
-0
-0
-0
-0
-0
-0
-0
-0
-2.648349
-2.692312
-2.749052
-2.820162
-2.907376
-0
-0
-0
-0
-0
-0
-0
-0
-0
-0
-2.548647
-2.590573
-2.6446
-2.712219
-2.79501
-0
-0
-0
-0
-0
-0
-0
-0
-0
-0
-2.456972
-2.496866
-2.548381
-2.612778
-2.691537
-0
-0
-0
-0
-0
-0
-0
-0
-0
-0
-2.37388
-2.411853
-2.460938