/*--------------------------------*- C++ -*----------------------------------*\
| =========                 |                                                 |
| \\      /  F ield         | OpenFOAM: The Open Source CFD Toolbox           |
|  \\    /   O peration     | Version:  2306                                  |
|   \\  /    A nd           | Website:  www.openfoam.com                      |
|    \\/     M anipulation  |                                                 |
\*---------------------------------------------------------------------------*/
FoamFile
{
    version     2.0;
    format      ascii;
    arch        "LSB;label=32;scalar=64";
    class       volScalarField;
    location    "0.9/fuel";
    object      j;
}
// * * * * * * * * * * * * * * * * * * * * * * * * * * * * * * * * * * * * * //

dimensions      [0 -3 0 0 0 1 0];

internalField   nonuniform List<scalar> 
16000
(
9.75223e+08
9.831533e+08
8.894939e+08
9.350846e+08
9.991471e+08
8.944939e+08
9.424596e+08
8.15578e+08
8.550996e+08
9.066894e+08
1.023297e+09
9.043014e+08
9.573231e+08
8.193428e+08
8.597731e+08
9.136933e+08
7.558442e+08
7.85847e+08
8.305706e+08
8.892001e+08
1.054813e+09
9.184251e+08
9.79747e+08
8.266353e+08
8.689354e+08
9.278058e+08
7.589092e+08
7.893814e+08
8.350207e+08
8.959977e+08
7.060122e+08
7.296859e+08
7.645194e+08
8.152554e+08
8.815689e+08
1.08886e+09
9.35564e+08
1.00898e+09
8.369119e+08
8.821221e+08
9.49094e+08
7.648029e+08
7.962242e+08
8.437428e+08
9.096981e+08
7.086094e+08
7.325735e+08
7.678938e+08
8.195749e+08
8.883021e+08
6.631321e+08
6.826959e+08
7.108448e+08
7.510793e+08
8.08341e+08
0
1.114581e+09
9.522633e+08
1.040521e+09
8.489436e+08
8.981134e+08
9.768513e+08
7.730021e+08
8.058624e+08
8.562937e+08
9.303784e+08
7.135798e+08
7.381236e+08
7.744249e+08
8.280413e+08
9.018823e+08
6.653871e+08
6.851501e+08
7.136082e+08
7.543574e+08
8.126101e+08
0
6.254778e+08
6.42156e+08
6.658509e+08
6.988998e+08
7.448894e+08
0
0
1.130815e+09
9.635071e+08
1.06426e+09
8.600148e+08
9.136808e+08
1.006811e+09
7.823919e+08
8.171401e+08
8.715133e+08
9.573806e+08
7.204357e+08
7.458413e+08
7.836222e+08
8.402275e+08
9.224089e+08
6.696886e+08
6.89845e+08
7.189177e+08
7.607019e+08
8.209807e+08
0
6.274694e+08
6.442925e+08
6.682044e+08
7.015872e+08
7.481269e+08
0
0
5.918938e+08
6.06473e+08
6.269656e+08
6.551264e+08
6.933366e+08
0
0
0
1.140028e+09
9.697245e+08
1.079193e+09
8.668573e+08
9.241334e+08
1.029298e+09
7.90722e+08
8.275087e+08
8.86328e+08
9.865842e+08
7.281689e+08
7.546741e+08
7.943818e+08
8.550138e+08
9.492779e+08
6.755853e+08
6.963176e+08
7.262991e+08
7.696369e+08
8.330363e+08
0
6.312599e+08
6.483663e+08
6.727051e+08
7.067503e+08
7.543938e+08
0
0
5.936749e+08
6.083645e+08
6.290182e+08
6.574177e+08
6.959907e+08
0
0
0
5.616009e+08
5.745788e+08
5.926836e+08
6.172643e+08
6.500976e+08
0
0
0
0
1.144162e+09
9.728498e+08
1.087646e+09
8.701464e+08
9.29899e+08
1.043413e+09
7.955744e+08
8.339008e+08
8.962488e+08
1.008468e+09
7.348569e+08
7.625024e+08
8.042699e+08
8.694177e+08
9.784391e+08
6.821626e+08
7.036137e+08
7.347444e+08
7.800924e+08
8.476818e+08
0
6.364316e+08
6.53948e+08
6.789083e+08
7.139277e+08
7.632224e+08
0
0
5.970591e+08
6.119628e+08
6.329309e+08
6.617988e+08
7.0109e+08
0
0
0
5.632094e+08
5.762739e+08
5.945038e+08
6.192647e+08
6.52361e+08
0
0
0
0
5.340312e+08
5.457528e+08
5.61995e+08
5.838556e+08
6.126954e+08
0
0
0
0
0
1.144162e+09
9.741334e+08
1.091434e+09
8.715078e+08
9.327921e+08
1.051393e+09
7.976458e+08
8.369653e+08
9.017105e+08
1.022193e+09
7.385889e+08
7.670504e+08
8.10348e+08
8.790395e+08
1.00028e+09
6.877434e+08
7.099165e+08
7.422239e+08
7.897019e+08
8.619691e+08
0
6.421506e+08
6.601696e+08
6.858978e+08
7.2214e+08
7.735601e+08
0
0
6.016592e+08
6.168698e+08
6.382901e+08
6.678367e+08
7.081801e+08
0
0
0
5.662623e+08
5.794934e+08
5.979656e+08
6.230774e+08
6.566889e+08
0
0
0
0
5.354953e+08
5.472866e+08
5.636288e+08
5.856314e+08
6.146722e+08
0
0
0
0
0
5.08764e+08
5.194694e+08
5.34219e+08
5.539234e+08
5.79686e+08
0
0
0
0
0
0
1.140028e+09
9.741334e+08
1.091434e+09
8.71962e+08
9.339791e+08
1.054967e+09
7.983231e+08
8.382304e+08
9.04449e+08
1.029954e+09
7.400301e+08
7.689853e+08
8.132542e+08
8.843303e+08
1.013987e+09
6.907557e+08
7.134233e+08
7.465549e+08
7.955897e+08
8.714919e+08
0
6.469315e+08
6.654417e+08
6.919298e+08
7.294104e+08
7.830654e+08
0
0
6.067107e+08
6.222919e+08
6.442607e+08
6.746392e+08
7.162951e+08
0
0
0
5.703996e+08
5.838675e+08
6.02685e+08
6.282991e+08
6.62654e+08
0
0
0
0
5.382717e+08
5.501966e+08
5.66731e+08
5.890081e+08
6.184398e+08
0
0
0
0
0
5.101051e+08
5.208681e+08
5.356996e+08
5.555188e+08
5.814415e+08
0
0
0
0
0
0
4.854712e+08
4.953395e+08
5.088592e+08
5.268095e+08
5.501037e+08
0
0
0
0
0
0
0
1.130815e+09
9.728498e+08
1.087646e+09
8.71962e+08
9.339791e+08
1.054967e+09
7.984699e+08
8.386514e+08
9.055725e+08
1.03343e+09
7.403826e+08
7.696143e+08
8.144513e+08
8.86984e+08
1.021748e+09
6.918206e+08
7.147712e+08
7.483901e+08
7.983975e+08
8.767253e+08
0
6.494434e+08
6.682783e+08
6.952738e+08
7.336042e+08
7.888691e+08
0
0
6.108832e+08
6.268182e+08
6.493144e+08
6.805058e+08
7.234782e+08
0
0
0
5.74917e+08
5.886668e+08
6.078968e+08
6.341153e+08
6.693756e+08
0
0
0
0
5.42025e+08
5.541382e+08
5.709442e+08
5.936108e+08
6.236e+08
0
0
0
0
0
5.126472e+08
5.235193e+08
5.385075e+08
5.585476e+08
5.847795e+08
0
0
0
0
0
0
4.867064e+08
4.966228e+08
5.10211e+08
5.282565e+08
5.516815e+08
0
0
0
0
0
0
0
4.638939e+08
4.730589e+08
4.855476e+08
5.020342e+08
5.232986e+08
0
0
0
0
0
0
0
0
1.114581e+09
9.697245e+08
1.079193e+09
8.715078e+08
9.327921e+08
1.051393e+09
7.984699e+08
8.386514e+08
9.055725e+08
1.03343e+09
7.40393e+08
7.697489e+08
8.14849e+08
8.880738e+08
1.02523e+09
6.919959e+08
7.150965e+08
7.489828e+08
7.995523e+08
8.793538e+08
0
6.502631e+08
6.692748e+08
6.965518e+08
7.353731e+08
7.916293e+08
0
0
6.130264e+08
6.291881e+08
6.520226e+08
6.837439e+08
7.276034e+08
0
0
0
5.786117e+08
5.926249e+08
6.12242e+08
6.390337e+08
6.751692e+08
0
0
0
0
5.461034e+08
5.584384e+08
5.755644e+08
5.986925e+08
6.293481e+08
0
0
0
0
0
5.160765e+08
5.271016e+08
5.423097e+08
5.626605e+08
5.893297e+08
0
0
0
0
0
0
4.89047e+08
4.990543e+08
5.127727e+08
5.310004e+08
5.546767e+08
0
0
0
0
0
0
0
4.650367e+08
4.742426e+08
4.867895e+08
5.033564e+08
5.247301e+08
0
0
0
0
0
0
0
0
4.438254e+08
4.523875e+08
4.63997e+08
4.792423e+08
4.987977e+08
0
0
0
0
0
0
0
0
0
1.08886e+09
9.635071e+08
1.06426e+09
8.701464e+08
9.29899e+08
1.043413e+09
7.983231e+08
8.382304e+08
9.04449e+08
1.029954e+09
7.40393e+08
7.697489e+08
8.14849e+08
8.880738e+08
1.02523e+09
6.919378e+08
7.151031e+08
7.491079e+08
7.999357e+08
8.804354e+08
0
6.503331e+08
6.694338e+08
6.968555e+08
7.359409e+08
7.927635e+08
0
0
6.136752e+08
6.299552e+08
6.529668e+08
6.849735e+08
7.293346e+08
0
0
0
5.804731e+08
5.946503e+08
6.145073e+08
6.416571e+08
6.783511e+08
0
0
0
0
5.494116e+08
5.619497e+08
5.793695e+08
6.029246e+08
6.342051e+08
0
0
0
0
0
5.197877e+08
5.309909e+08
5.464552e+08
5.671694e+08
5.943534e+08
0
0
0
0
0
0
4.92199e+08
5.023329e+08
5.162328e+08
5.347153e+08
5.587442e+08
0
0
0
0
0
0
0
4.672021e+08
4.76485e+08
4.891418e+08
5.058619e+08
5.274448e+08
0
0
0
0
0
0
0
0
4.448869e+08
4.534844e+08
4.651438e+08
4.80458e+08
5.001063e+08
0
0
0
0
0
0
0
0
0
4.250965e+08
4.33134e+08
4.439802e+08
4.581565e+08
4.76251e+08
0
0
0
0
0
0
0
0
0
0
1.054813e+09
9.522633e+08
1.040521e+09
8.668573e+08
9.241334e+08
1.029298e+09
7.976458e+08
8.369653e+08
9.017105e+08
1.022193e+09
7.403826e+08
7.696143e+08
8.144513e+08
8.86984e+08
1.021748e+09
6.919378e+08
7.151031e+08
7.491079e+08
7.999357e+08
8.804354e+08
0
6.502382e+08
6.693757e+08
6.968583e+08
7.360589e+08
7.9314e+08
0
0
6.136784e+08
6.30015e+08
6.53112e+08
6.852607e+08
7.298863e+08
0
0
0
5.809984e+08
5.952574e+08
6.152336e+08
6.42564e+08
6.795504e+08
0
0
0
0
5.510505e+08
5.637118e+08
5.813078e+08
6.0512e+08
6.367817e+08
0
0
0
0
0
5.227772e+08
5.341402e+08
5.498352e+08
5.708783e+08
5.985332e+08
0
0
0
0
0
0
4.955983e+08
5.058779e+08
5.199871e+08
5.387644e+08
5.632032e+08
0
0
0
0
0
0
0
4.701141e+08
4.795031e+08
4.923125e+08
5.092454e+08
5.311201e+08
0
0
0
0
0
0
0
0
4.468987e+08
4.55562e+08
4.673156e+08
4.827605e+08
5.025859e+08
0
0
0
0
0
0
0
0
0
4.260859e+08
4.341542e+08
4.45044e+08
4.5928e+08
4.774546e+08
0
0
0
0
0
0
0
0
0
0
4.075638e+08
4.151411e+08
4.253165e+08
4.385577e+08
4.553853e+08
0
0
0
0
0
0
0
0
0
0
1.023297e+09
9.35564e+08
1.00898e+09
8.600148e+08
9.136808e+08
1.006811e+09
7.955744e+08
8.339008e+08
8.962488e+08
1.008468e+09
7.400301e+08
7.689853e+08
8.132542e+08
8.843303e+08
1.013987e+09
6.919959e+08
7.150965e+08
7.489828e+08
7.995523e+08
8.793538e+08
0
6.502382e+08
6.693757e+08
6.968583e+08
7.360589e+08
7.9314e+08
0
0
6.135629e+08
6.299219e+08
6.530528e+08
6.852599e+08
7.299993e+08
0
0
0
5.809581e+08
5.952541e+08
6.152841e+08
6.426977e+08
6.798252e+08
0
0
0
0
5.514831e+08
5.642029e+08
5.81882e+08
6.058166e+08
6.376641e+08
0
0
0
0
0
5.242369e+08
5.35694e+08
5.515233e+08
5.727579e+08
6.006894e+08
0
0
0
0
0
0
4.983205e+08
5.087284e+08
5.230225e+08
5.420616e+08
5.668673e+08
0
0
0
0
0
0
0
4.732453e+08
4.827552e+08
4.957387e+08
5.129153e+08
5.351258e+08
0
0
0
0
0
0
0
0
4.496005e+08
4.583544e+08
4.702379e+08
4.858634e+08
5.059347e+08
0
0
0
0
0
0
0
0
0
4.279614e+08
4.36087e+08
4.470585e+08
4.614074e+08
4.797342e+08
0
0
0
0
0
0
0
0
0
0
4.084885e+08
4.160931e+08
4.263069e+08
4.396005e+08
4.56498e+08
0
0
0
0
0
0
0
0
0
0
3.911076e+08
3.982756e+08
4.07857e+08
4.202712e+08
4.35985e+08
0
0
0
0
0
0
0
0
0
0
9.991471e+08
9.184251e+08
9.79747e+08
8.489436e+08
8.981134e+08
9.768513e+08
7.90722e+08
8.275087e+08
8.86328e+08
9.865842e+08
7.385889e+08
7.670504e+08
8.10348e+08
8.790395e+08
1.00028e+09
6.918206e+08
7.147712e+08
7.483901e+08
7.983975e+08
8.767253e+08
0
6.503331e+08
6.694338e+08
6.968555e+08
7.359409e+08
7.927635e+08
0
0
6.135629e+08
6.299219e+08
6.530528e+08
6.852599e+08
7.299993e+08
0
0
0
5.808315e+08
5.951414e+08
6.151914e+08
6.426367e+08
6.798207e+08
0
0
0
0
5.514137e+08
5.641586e+08
5.818724e+08
6.058588e+08
6.37788e+08
0
0
0
0
0
5.245985e+08
5.360982e+08
5.519875e+08
5.733078e+08
6.013656e+08
0
0
0
0
0
0
4.996331e+08
5.101142e+08
5.245127e+08
5.436996e+08
5.687134e+08
0
0
0
0
0
0
0
4.757405e+08
4.853549e+08
4.984893e+08
5.158787e+08
5.383842e+08
0
0
0
0
0
0
0
0
4.524985e+08
4.613544e+08
4.733846e+08
4.892152e+08
5.095667e+08
0
0
0
0
0
0
0
0
0
4.304775e+08
4.386815e+08
4.497651e+08
4.642693e+08
4.828063e+08
0
0
0
0
0
0
0
0
0
0
4.102422e+08
4.178974e+08
4.281829e+08
4.415751e+08
4.58605e+08
0
0
0
0
0
0
0
0
0
0
3.919745e+08
3.991665e+08
4.087822e+08
4.212428e+08
4.370181e+08
0
0
0
0
0
0
0
0
0
0
3.756276e+08
3.824263e+08
3.914759e+08
4.031536e+08
4.178781e+08
0
0
0
0
0
0
0
0
0
0
9.831533e+08
9.043014e+08
9.573231e+08
8.369119e+08
8.821221e+08
9.49094e+08
7.823919e+08
8.171401e+08
8.715133e+08
9.573806e+08
7.348569e+08
7.625024e+08
8.042699e+08
8.694177e+08
9.784391e+08
6.907557e+08
7.134233e+08
7.465549e+08
7.955897e+08
8.714919e+08
0
6.502631e+08
6.692748e+08
6.965518e+08
7.353731e+08
7.916293e+08
0
0
6.136784e+08
6.30015e+08
6.53112e+08
6.852607e+08
7.298863e+08
0
0
0
5.808315e+08
5.951414e+08
6.151914e+08
6.426367e+08
6.798207e+08
0
0
0
0
5.512816e+08
5.640351e+08
5.817608e+08
6.057652e+08
6.377242e+08
0
0
0
0
0
5.2451e+08
5.360264e+08
5.519387e+08
5.732919e+08
6.013999e+08
0
0
0
0
0
0
4.999395e+08
5.104518e+08
5.248943e+08
5.441435e+08
5.692462e+08
0
0
0
0
0
0
0
4.769309e+08
4.866027e+08
4.998198e+08
5.173256e+08
5.399934e+08
0
0
0
0
0
0
0
0
4.547983e+08
4.637407e+08
4.75896e+08
4.919026e+08
5.124962e+08
0
0
0
0
0
0
0
0
0
4.331702e+08
4.414618e+08
4.526711e+08
4.6735e+08
4.861247e+08
0
0
0
0
0
0
0
0
0
0
4.125929e+08
4.203167e+08
4.307002e+08
4.442277e+08
4.614395e+08
0
0
0
0
0
0
0
0
0
0
3.936195e+08
4.008556e+08
4.105351e+08
4.230828e+08
4.389744e+08
0
0
0
0
0
0
0
0
0
0
3.764424e+08
3.832624e+08
3.923423e+08
4.040617e+08
4.188409e+08
0
0
0
0
0
0
0
0
0
0
3.610363e+08
3.674998e+08
3.760675e+08
3.870833e+08
4.009236e+08
0
0
0
0
0
0
0
0
0
0
9.75223e+08
8.944939e+08
9.424596e+08
8.266353e+08
8.689354e+08
9.278058e+08
7.730021e+08
8.058624e+08
8.562937e+08
9.303784e+08
7.281689e+08
7.546741e+08
7.943818e+08
8.550138e+08
9.492779e+08
6.877434e+08
7.099165e+08
7.422239e+08
7.897019e+08
8.619691e+08
0
6.494434e+08
6.682783e+08
6.952738e+08
7.336042e+08
7.888691e+08
0
0
6.136752e+08
6.299552e+08
6.529668e+08
6.849735e+08
7.293346e+08
0
0
0
5.809581e+08
5.952541e+08
6.152841e+08
6.426977e+08
6.798252e+08
0
0
0
0
5.512816e+08
5.640351e+08
5.817608e+08
6.057652e+08
6.377242e+08
0
0
0
0
0
5.243759e+08
5.358975e+08
5.518168e+08
5.731801e+08
6.013043e+08
0
0
0
0
0
0
4.998387e+08
5.103619e+08
5.248193e+08
5.4409e+08
5.69224e+08
0
0
0
0
0
0
0
4.77194e+08
4.868886e+08
5.001383e+08
5.1769e+08
5.404228e+08
0
0
0
0
0
0
0
0
4.558852e+08
4.648738e+08
4.770953e+08
4.931953e+08
5.139181e+08
0
0
0
0
0
0
0
0
0
4.352994e+08
4.436642e+08
4.549788e+08
4.698054e+08
4.887823e+08
0
0
0
0
0
0
0
0
0
0
4.151042e+08
4.229033e+08
4.333962e+08
4.470747e+08
4.644906e+08
0
0
0
0
0
0
0
0
0
0
3.958229e+08
4.031186e+08
4.128847e+08
4.255515e+08
4.416025e+08
0
0
0
0
0
0
0
0
0
0
3.779894e+08
3.848486e+08
3.939848e+08
4.057821e+08
4.206645e+08
0
0
0
0
0
0
0
0
0
0
3.618035e+08
3.682865e+08
3.768814e+08
3.879342e+08
4.018238e+08
0
0
0
0
0
0
0
0
0
0
3.472549e+08
3.534147e+08
3.615437e+08
3.719583e+08
3.850018e+08
0
0
0
0
0
0
0
0
0
0
8.894939e+08
9.350846e+08
8.193428e+08
8.597731e+08
9.136933e+08
7.648029e+08
7.962242e+08
8.437428e+08
9.096981e+08
7.204357e+08
7.458413e+08
7.836222e+08
8.402275e+08
9.224089e+08
6.821626e+08
7.036137e+08
7.347444e+08
7.800924e+08
8.476818e+08
0
6.469315e+08
6.654417e+08
6.919298e+08
7.294104e+08
7.830654e+08
0
0
6.130264e+08
6.291881e+08
6.520226e+08
6.837439e+08
7.276034e+08
0
0
0
5.809984e+08
5.952574e+08
6.152336e+08
6.42564e+08
6.795504e+08
0
0
0
0
5.514137e+08
5.641586e+08
5.818724e+08
6.058588e+08
6.37788e+08
0
0
0
0
0
5.243759e+08
5.358975e+08
5.518168e+08
5.731801e+08
6.013043e+08
0
0
0
0
0
0
4.99705e+08
5.102311e+08
5.246922e+08
5.439682e+08
5.691105e+08
0
0
0
0
0
0
0
4.770857e+08
4.86787e+08
5.000461e+08
5.176113e+08
5.40364e+08
0
0
0
0
0
0
0
0
4.561136e+08
4.651191e+08
4.773646e+08
4.93499e+08
5.1427e+08
0
0
0
0
0
0
0
0
0
4.362976e+08
4.447002e+08
4.56069e+08
4.709714e+08
4.900531e+08
0
0
0
0
0
0
0
0
0
0
4.170846e+08
4.24945e+08
4.355283e+08
4.493326e+08
4.669197e+08
0
0
0
0
0
0
0
0
0
0
0
3.981733e+08
4.05534e+08
4.153953e+08
4.281946e+08
4.44423e+08
0
0
0
0
0
0
0
0
0
0
3.800604e+08
3.869723e+08
3.961846e+08
4.080878e+08
4.231112e+08
0
0
0
0
0
0
0
0
0
0
3.632614e+08
3.697799e+08
3.784251e+08
3.895472e+08
4.035293e+08
0
0
0
0
0
0
0
0
0
0
3.47979e+08
3.541562e+08
3.623101e+08
3.727581e+08
3.858456e+08
0
0
0
0
0
0
0
0
0
0
3.342168e+08
3.400974e+08
3.478272e+08
3.576936e+08
3.700124e+08
0
0
0
0
0
0
0
0
0
0
8.15578e+08
8.550996e+08
9.066894e+08
7.589092e+08
7.893814e+08
8.350207e+08
8.959977e+08
7.135798e+08
7.381236e+08
7.744249e+08
8.280413e+08
9.018823e+08
6.755853e+08
6.963176e+08
7.262991e+08
7.696369e+08
8.330363e+08
0
6.421506e+08
6.601696e+08
6.858978e+08
7.2214e+08
7.735601e+08
0
0
6.108832e+08
6.268182e+08
6.493144e+08
6.805058e+08
7.234782e+08
0
0
0
5.804731e+08
5.946503e+08
6.145073e+08
6.416571e+08
6.783511e+08
0
0
0
0
5.514831e+08
5.642029e+08
5.81882e+08
6.058166e+08
6.376641e+08
0
0
0
0
0
5.2451e+08
5.360264e+08
5.519387e+08
5.732919e+08
6.013999e+08
0
0
0
0
0
0
4.99705e+08
5.102311e+08
5.246922e+08
5.439682e+08
5.691105e+08
0
0
0
0
0
0
0
4.769542e+08
4.866565e+08
4.999171e+08
5.174845e+08
5.402409e+08
0
0
0
0
0
0
0
0
4.56001e+08
4.650105e+08
4.772614e+08
4.934038e+08
5.141869e+08
0
0
0
0
0
0
0
0
0
4.36498e+08
4.449129e+08
4.562999e+08
4.712279e+08
4.903459e+08
0
0
0
0
0
0
0
0
0
0
4.180072e+08
4.258976e+08
4.36526e+08
4.503932e+08
4.680663e+08
0
0
0
0
0
0
0
0
0
0
0
4.000227e+08
4.074353e+08
4.173737e+08
4.302821e+08
4.466576e+08
0
0
0
0
0
0
0
0
0
0
0
0
3.822665e+08
3.892356e+08
3.985312e+08
4.105506e+08
4.257306e+08
0
0
0
0
0
0
0
0
0
0
3.65212e+08
3.717781e+08
3.804913e+08
3.917072e+08
4.058151e+08
0
0
0
0
0
0
0
0
0
0
3.493561e+08
3.55565e+08
3.637647e+08
3.74275e+08
3.87445e+08
0
0
0
0
0
0
0
0
0
0
3.349014e+08
3.407979e+08
3.485501e+08
3.584471e+08
3.708057e+08
0
0
0
0
0
0
0
0
0
0
3.218627e+08
3.274856e+08
3.348481e+08
3.442146e+08
3.558718e+08
0
0
0
0
0
0
0
0
0
0
7.558442e+08
7.85847e+08
8.305706e+08
8.892001e+08
7.086094e+08
7.325735e+08
7.678938e+08
8.195749e+08
8.883021e+08
6.696886e+08
6.89845e+08
7.189177e+08
7.607019e+08
8.209807e+08
0
6.364316e+08
6.53948e+08
6.789083e+08
7.139277e+08
7.632224e+08
0
0
6.067107e+08
6.222919e+08
6.442607e+08
6.746392e+08
7.162951e+08
0
0
0
5.786117e+08
5.926249e+08
6.12242e+08
6.390337e+08
6.751692e+08
0
0
0
0
5.510505e+08
5.637118e+08
5.813078e+08
6.0512e+08
6.367817e+08
0
0
0
0
0
5.245985e+08
5.360982e+08
5.519875e+08
5.733078e+08
6.013656e+08
0
0
0
0
0
0
4.998387e+08
5.103619e+08
5.248193e+08
5.4409e+08
5.69224e+08
0
0
0
0
0
0
0
4.769542e+08
4.866565e+08
4.999171e+08
5.174845e+08
5.402409e+08
0
0
0
0
0
0
0
0
4.558724e+08
4.64882e+08
4.771327e+08
4.932753e+08
5.140591e+08
0
0
0
0
0
0
0
0
0
4.363838e+08
4.448003e+08
4.561901e+08
4.711223e+08
4.90247e+08
0
0
0
0
0
0
0
0
0
0
4.181853e+08
4.260842e+08
4.36726e+08
4.506128e+08
4.683133e+08
0
0
0
0
0
0
0
0
0
0
0
4.008798e+08
4.083168e+08
4.18292e+08
4.312533e+08
4.47701e+08
0
0
0
0
0
0
0
0
0
0
0
0
3.839988e+08
3.910131e+08
4.003753e+08
4.124889e+08
4.277972e+08
0
0
0
0
0
0
0
0
0
0
0
0
0
3.672876e+08
3.739047e+08
3.82692e+08
3.940104e+08
4.082566e+08
0
0
0
0
0
0
0
0
0
0
3.51198e+08
3.574489e+08
3.657104e+08
3.763049e+08
3.89587e+08
0
0
0
0
0
0
0
0
0
0
3.362045e+08
3.421298e+08
3.499233e+08
3.598771e+08
3.723103e+08
0
0
0
0
0
0
0
0
0
0
3.225112e+08
3.281485e+08
3.355315e+08
3.449257e+08
3.566194e+08
0
0
0
0
0
0
0
0
0
0
3.101447e+08
3.15524e+08
3.225473e+08
3.314536e+08
3.425066e+08
0
0
0
0
0
0
0
0
0
0
7.060122e+08
7.296859e+08
7.645194e+08
8.152554e+08
8.815689e+08
6.653871e+08
6.851501e+08
7.136082e+08
7.543574e+08
8.126101e+08
0
6.312599e+08
6.483663e+08
6.727051e+08
7.067503e+08
7.543938e+08
0
0
6.016592e+08
6.168698e+08
6.382901e+08
6.678367e+08
7.081801e+08
0
0
0
5.74917e+08
5.886668e+08
6.078968e+08
6.341153e+08
6.693756e+08
0
0
0
0
5.494116e+08
5.619497e+08
5.793695e+08
6.029246e+08
6.342051e+08
0
0
0
0
0
5.242369e+08
5.35694e+08
5.515233e+08
5.727579e+08
6.006894e+08
0
0
0
0
0
0
4.999395e+08
5.104518e+08
5.248943e+08
5.441435e+08
5.692462e+08
0
0
0
0
0
0
0
4.770857e+08
4.86787e+08
5.000461e+08
5.176113e+08
5.40364e+08
0
0
0
0
0
0
0
0
4.558724e+08
4.64882e+08
4.771327e+08
4.932753e+08
5.140591e+08
0
0
0
0
0
0
0
0
0
4.36259e+08
4.446746e+08
4.560633e+08
4.709942e+08
4.901177e+08
0
0
0
0
0
0
0
0
0
0
4.180715e+08
4.259701e+08
4.366125e+08
4.505011e+08
4.682044e+08
0
0
0
0
0
0
0
0
0
0
0
4.010399e+08
4.084825e+08
4.184672e+08
4.314433e+08
4.479122e+08
0
0
0
0
0
0
0
0
0
0
0
0
3.847982e+08
3.918331e+08
4.012258e+08
4.133834e+08
4.28753e+08
0
0
0
0
0
0
0
0
0
0
0
0
0
3.689154e+08
3.755717e+08
3.844176e+08
3.958182e+08
4.101761e+08
0
0
0
0
0
0
0
0
0
0
0
0
0
0
3.531561e+08
3.594519e+08
3.677799e+08
3.784662e+08
3.91871e+08
0
0
0
0
0
0
0
0
0
0
3.379471e+08
3.439105e+08
3.517592e+08
3.617897e+08
3.743238e+08
0
0
0
0
0
0
0
0
0
0
3.23747e+08
3.294101e+08
3.368309e+08
3.462764e+08
3.580382e+08
0
0
0
0
0
0
0
0
0
0
3.107601e+08
3.161525e+08
3.231945e+08
3.321262e+08
3.432123e+08
0
0
0
0
0
0
0
0
0
0
2.990159e+08
3.041678e+08
3.108723e+08
3.193536e+08
3.298503e+08
0
0
0
0
0
0
0
0
0
0
6.631321e+08
6.826959e+08
7.108448e+08
7.510793e+08
8.08341e+08
0
6.274694e+08
6.442925e+08
6.682044e+08
7.015872e+08
7.481269e+08
0
0
5.970591e+08
6.119628e+08
6.329309e+08
6.617988e+08
7.0109e+08
0
0
0
5.703996e+08
5.838675e+08
6.02685e+08
6.282991e+08
6.62654e+08
0
0
0
0
5.461034e+08
5.584384e+08
5.755644e+08
5.986925e+08
6.293481e+08
0
0
0
0
0
5.227772e+08
5.341402e+08
5.498352e+08
5.708783e+08
5.985332e+08
0
0
0
0
0
0
4.996331e+08
5.101142e+08
5.245127e+08
5.436996e+08
5.687134e+08
0
0
0
0
0
0
0
4.77194e+08
4.868886e+08
5.001383e+08
5.1769e+08
5.404228e+08
0
0
0
0
0
0
0
0
4.56001e+08
4.650105e+08
4.772614e+08
4.934038e+08
5.141869e+08
0
0
0
0
0
0
0
0
0
4.36259e+08
4.446746e+08
4.560633e+08
4.709942e+08
4.901177e+08
0
0
0
0
0
0
0
0
0
0
4.17951e+08
4.25848e+08
4.364885e+08
4.503749e+08
4.680757e+08
0
0
0
0
0
0
0
0
0
0
0
4.009278e+08
4.08369e+08
4.183525e+08
4.313282e+08
4.477976e+08
0
0
0
0
0
0
0
0
0
0
0
0
3.849431e+08
3.91982e+08
4.013814e+08
4.135497e+08
4.289355e+08
0
0
0
0
0
0
0
0
0
0
0
0
0
3.696643e+08
3.763372e+08
3.852094e+08
3.966473e+08
4.110568e+08
0
0
0
0
0
0
0
0
0
0
0
0
0
0
3.546901e+08
3.610199e+08
3.693996e+08
3.801588e+08
3.936619e+08
0
0
0
0
0
0
0
0
0
0
0
0
0
0
0
3.397984e+08
3.45802e+08
3.537099e+08
3.638233e+08
3.764676e+08
0
0
0
0
0
0
0
0
0
0
3.25399e+08
3.310963e+08
3.385674e+08
3.480819e+08
3.599358e+08
0
0
0
0
0
0
0
0
0
0
3.119339e+08
3.173499e+08
3.244261e+08
3.334048e+08
3.445527e+08
0
0
0
0
0
0
0
0
0
0
2.996008e+08
3.047647e+08
3.114863e+08
3.199908e+08
3.305179e+08
0
0
0
0
0
0
0
0
0
0
2.884411e+08
2.933734e+08
2.997805e+08
3.078637e+08
3.178466e+08
0
0
0
0
0
0
0
0
0
0
6.254778e+08
6.42156e+08
6.658509e+08
6.988998e+08
7.448894e+08
0
0
5.936749e+08
6.083645e+08
6.290182e+08
6.574177e+08
6.959907e+08
0
0
0
5.662623e+08
5.794934e+08
5.979656e+08
6.230774e+08
6.566889e+08
0
0
0
0
5.42025e+08
5.541382e+08
5.709442e+08
5.936108e+08
6.236e+08
0
0
0
0
0
5.197877e+08
5.309909e+08
5.464552e+08
5.671694e+08
5.943534e+08
0
0
0
0
0
0
4.983205e+08
5.087284e+08
5.230225e+08
5.420616e+08
5.668673e+08
0
0
0
0
0
0
0
4.769308e+08
4.866027e+08
4.998198e+08
5.173256e+08
5.399934e+08
0
0
0
0
0
0
0
0
4.561136e+08
4.651191e+08
4.773646e+08
4.93499e+08
5.1427e+08
0
0
0
0
0
0
0
0
0
4.363837e+08
4.448003e+08
4.561901e+08
4.711223e+08
4.90247e+08
0
0
0
0
0
0
0
0
0
0
4.17951e+08
4.25848e+08
4.364885e+08
4.503749e+08
4.680757e+08
0
0
0
0
0
0
0
0
0
0
0
4.008119e+08
4.08251e+08
4.18232e+08
4.312047e+08
4.476709e+08
0
0
0
0
0
0
0
0
0
0
0
0
3.848333e+08
3.918702e+08
4.012673e+08
4.134336e+08
4.288178e+08
0
0
0
0
0
0
0
0
0
0
0
0
0
3.697972e+08
3.764719e+08
3.853492e+08
3.967948e+08
4.112163e+08
0
0
0
0
0
0
0
0
0
0
0
0
0
0
3.553942e+08
3.617379e+08
3.701394e+08
3.809311e+08
3.944784e+08
0
0
0
0
0
0
0
0
0
0
0
0
0
0
0
3.412477e+08
3.472812e+08
3.552347e+08
3.654129e+08
3.781449e+08
0
0
0
0
0
0
0
0
0
0
0
0
0
0
0
0
3.271533e+08
3.328863e+08
3.404109e+08
3.499997e+08
3.619534e+08
0
0
0
0
0
0
0
0
0
0
3.135032e+08
3.1895e+08
3.260717e+08
3.351135e+08
3.463446e+08
0
0
0
0
0
0
0
0
0
0
3.007178e+08
3.059031e+08
3.126559e+08
3.212033e+08
3.31787e+08
0
0
0
0
0
0
0
0
0
0
2.889978e+08
2.939411e+08
3.00364e+08
3.084684e+08
3.184791e+08
0
0
0
0
0
0
0
0
0
0
2.783793e+08
2.831078e+08
2.892305e+08
2.969428e+08
3.064455e+08
0
0
0
0
0
0
0
0
0
0
5.918938e+08
6.06473e+08
6.269656e+08
6.551264e+08
6.933366e+08
0
0
0
5.632094e+08
5.762739e+08
5.945038e+08
6.192647e+08
6.52361e+08
0
0
0
0
5.382717e+08
5.501966e+08
5.66731e+08
5.890081e+08
6.184398e+08
0
0
0
0
0
5.160765e+08
5.271016e+08
5.423097e+08
5.626605e+08
5.893297e+08
0
0
0
0
0
0
4.955983e+08
5.058779e+08
5.199871e+08
5.387644e+08
5.632032e+08
0
0
0
0
0
0
0
4.757405e+08
4.853549e+08
4.984893e+08
5.158787e+08
5.383842e+08
0
0
0
0
0
0
0
0
4.558852e+08
4.648738e+08
4.770953e+08
4.931953e+08
5.139181e+08
0
0
0
0
0
0
0
0
0
4.364979e+08
4.449129e+08
4.562998e+08
4.712279e+08
4.903459e+08
0
0
0
0
0
0
0
0
0
0
4.180715e+08
4.259701e+08
4.366125e+08
4.505011e+08
4.682044e+08
0
0
0
0
0
0
0
0
0
0
0
4.008119e+08
4.08251e+08
4.18232e+08
4.312047e+08
4.476709e+08
0
0
0
0
0
0
0
0
0
0
0
0
3.84722e+08
3.917566e+08
4.011508e+08
4.133136e+08
4.286939e+08
0
0
0
0
0
0
0
0
0
0
0
0
0
3.696908e+08
3.763625e+08
3.85237e+08
3.966795e+08
4.11098e+08
0
0
0
0
0
0
0
0
0
0
0
0
0
0
3.555168e+08
3.618615e+08
3.702658e+08
3.810636e+08
3.946199e+08
0
0
0
0
0
0
0
0
0
0
0
0
0
0
0
3.41912e+08
3.479569e+08
3.559292e+08
3.66135e+08
3.789059e+08
0
0
0
0
0
0
0
0
0
0
0
0
0
0
0
0
3.285263e+08
3.342852e+08
3.418504e+08
3.51497e+08
3.635292e+08
0
0
0
0
0
0
0
0
0
0
0
0
0
0
0
0
0
3.151689e+08
3.206477e+08
3.278174e+08
3.369267e+08
3.482478e+08
0
0
0
0
0
0
0
0
0
0
3.022109e+08
3.074243e+08
3.142185e+08
3.228231e+08
3.334831e+08
0
0
0
0
0
0
0
0
0
0
2.900621e+08
2.950252e+08
3.014768e+08
3.096204e+08
3.196829e+08
0
0
0
0
0
0
0
0
0
0
2.789099e+08
2.836485e+08
2.897858e+08
2.975178e+08
3.07046e+08
0
0
0
0
0
0
0
0
0
0
2.68797e+08
2.733324e+08
2.791912e+08
2.865509e+08
2.956067e+08
0
0
0
0
0
0
0
0
0
0
5.616009e+08
5.745788e+08
5.926836e+08
6.172643e+08
6.500976e+08
0
0
0
0
5.354953e+08
5.472866e+08
5.636288e+08
5.856314e+08
6.146722e+08
0
0
0
0
0
5.126472e+08
5.235193e+08
5.385075e+08
5.585476e+08
5.847795e+08
0
0
0
0
0
0
4.92199e+08
5.023329e+08
5.162328e+08
5.347153e+08
5.587442e+08
0
0
0
0
0
0
0
4.732453e+08
4.827552e+08
4.957387e+08
5.129153e+08
5.351258e+08
0
0
0
0
0
0
0
0
4.547983e+08
4.637406e+08
4.75896e+08
4.919026e+08
5.124962e+08
0
0
0
0
0
0
0
0
0
4.362976e+08
4.447002e+08
4.560689e+08
4.709714e+08
4.900531e+08
0
0
0
0
0
0
0
0
0
0
4.181853e+08
4.260841e+08
4.36726e+08
4.506128e+08
4.683133e+08
0
0
0
0
0
0
0
0
0
0
0
4.009278e+08
4.08369e+08
4.183525e+08
4.313282e+08
4.477976e+08
0
0
0
0
0
0
0
0
0
0
0
0
3.84722e+08
3.917566e+08
4.011508e+08
4.133136e+08
4.286939e+08
0
0
0
0
0
0
0
0
0
0
0
0
0
3.695843e+08
3.762533e+08
3.851248e+08
3.965636e+08
4.109777e+08
0
0
0
0
0
0
0
0
0
0
0
0
0
0
3.554141e+08
3.617555e+08
3.701561e+08
3.809503e+08
3.945026e+08
0
0
0
0
0
0
0
0
0
0
0
0
0
0
0
3.420266e+08
3.480711e+08
3.560452e+08
3.662548e+08
3.790328e+08
0
0
0
0
0
0
0
0
0
0
0
0
0
0
0
0
3.291555e+08
3.349234e+08
3.425045e+08
3.521752e+08
3.642409e+08
0
0
0
0
0
0
0
0
0
0
0
0
0
0
0
0
0
3.164725e+08
3.219741e+08
3.291797e+08
3.38341e+08
3.497324e+08
0
0
0
0
0
0
0
0
0
0
0
0
0
0
0
0
0
0
3.037954e+08
3.090377e+08
3.158753e+08
3.245411e+08
3.352831e+08
0
0
0
0
0
0
0
0
0
0
2.914849e+08
2.964738e+08
3.029632e+08
3.111593e+08
3.212913e+08
0
0
0
0
0
0
0
0
0
0
2.799255e+08
2.846823e+08
2.908461e+08
2.986142e+08
3.0819e+08
0
0
0
0
0
0
0
0
0
0
2.693033e+08
2.738481e+08
2.797203e+08
2.870983e+08
2.961777e+08
0
0
0
0
0
0
0
0
0
0
2.596668e+08
2.640157e+08
2.696254e+08
2.766579e+08
2.852907e+08
0
0
0
0
0
0
0
0
0
0
5.340312e+08
5.457528e+08
5.61995e+08
5.838556e+08
6.126954e+08
0
0
0
0
0
5.101051e+08
5.208681e+08
5.356996e+08
5.555188e+08
5.814415e+08
0
0
0
0
0
0
4.89047e+08
4.990543e+08
5.127727e+08
5.310004e+08
5.546767e+08
0
0
0
0
0
0
0
4.70114e+08
4.795031e+08
4.923125e+08
5.092454e+08
5.311201e+08
0
0
0
0
0
0
0
0
4.524986e+08
4.613543e+08
4.733846e+08
4.892152e+08
5.095667e+08
0
0
0
0
0
0
0
0
0
4.352993e+08
4.436642e+08
4.549788e+08
4.698054e+08
4.887823e+08
0
0
0
0
0
0
0
0
0
0
4.180072e+08
4.258976e+08
4.36526e+08
4.503932e+08
4.680663e+08
0
0
0
0
0
0
0
0
0
0
0
4.010399e+08
4.084825e+08
4.184671e+08
4.314433e+08
4.479122e+08
0
0
0
0
0
0
0
0
0
0
0
0
3.848333e+08
3.918702e+08
4.012673e+08
4.134335e+08
4.288178e+08
0
0
0
0
0
0
0
0
0
0
0
0
0
3.695843e+08
3.762533e+08
3.851248e+08
3.965636e+08
4.109777e+08
0
0
0
0
0
0
0
0
0
0
0
0
0
0
3.553123e+08
3.616509e+08
3.700482e+08
3.808387e+08
3.943863e+08
0
0
0
0
0
0
0
0
0
0
0
0
0
0
0
3.419281e+08
3.479687e+08
3.559389e+08
3.661441e+08
3.789178e+08
0
0
0
0
0
0
0
0
0
0
0
0
0
0
0
0
3.292637e+08
3.350301e+08
3.426117e+08
3.522852e+08
3.643556e+08
0
0
0
0
0
0
0
0
0
0
0
0
0
0
0
0
0
3.170703e+08
3.225792e+08
3.297981e+08
3.389802e+08
3.504012e+08
0
0
0
0
0
0
0
0
0
0
0
0
0
0
0
0
0
0
3.050359e+08
3.102983e+08
3.171681e+08
3.258802e+08
3.366858e+08
0
0
0
0
0
0
0
0
0
0
0
0
0
0
0
0
0
0
0
2.929946e+08
2.980097e+08
3.045388e+08
3.127905e+08
3.22997e+08
0
0
0
0
0
0
0
0
0
0
2.812833e+08
2.860637e+08
2.922624e+08
3.000787e+08
3.097182e+08
0
0
0
0
0
0
0
0
0
0
2.702739e+08
2.748353e+08
2.80732e+08
2.881434e+08
2.972667e+08
0
0
0
0
0
0
0
0
0
0
2.601506e+08
2.645083e+08
2.701304e+08
2.771798e+08
2.858344e+08
0
0
0
0
0
0
0
0
0
0
2.509644e+08
2.551323e+08
2.605034e+08
2.67228e+08
2.75468e+08
0
0
0
0
0
0
0
0
0
0
5.08764e+08
5.194694e+08
5.34219e+08
5.539234e+08
5.79686e+08
0
0
0
0
0
0
4.867064e+08
4.966228e+08
5.10211e+08
5.282565e+08
5.516815e+08
0
0
0
0
0
0
0
4.672021e+08
4.76485e+08
4.891418e+08
5.058619e+08
5.274448e+08
0
0
0
0
0
0
0
0
4.496005e+08
4.583543e+08
4.702379e+08
4.858634e+08
5.059347e+08
0
0
0
0
0
0
0
0
0
4.3317e+08
4.414618e+08
4.52671e+08
4.6735e+08
4.861247e+08
0
0
0
0
0
0
0
0
0
0
4.170846e+08
4.249449e+08
4.355284e+08
4.493326e+08
4.669197e+08
0
0
0
0
0
0
0
0
0
0
0
4.008798e+08
4.083168e+08
4.182919e+08
4.312533e+08
4.477009e+08
0
0
0
0
0
0
0
0
0
0
0
0
3.849431e+08
3.91982e+08
4.013814e+08
4.135496e+08
4.289355e+08
0
0
0
0
0
0
0
0
0
0
0
0
0
3.696908e+08
3.763625e+08
3.85237e+08
3.966795e+08
4.11098e+08
0
0
0
0
0
0
0
0
0
0
0
0
0
0
3.553123e+08
3.61651e+08
3.700482e+08
3.808387e+08
3.943863e+08
0
0
0
0
0
0
0
0
0
0
0
0
0
0
0
3.418309e+08
3.478686e+08
3.558355e+08
3.660366e+08
3.788058e+08
0
0
0
0
0
0
0
0
0
0
0
0
0
0
0
0
3.291697e+08
3.349319e+08
3.425091e+08
3.52178e+08
3.642432e+08
0
0
0
0
0
0
0
0
0
0
0
0
0
0
0
0
0
3.171733e+08
3.226801e+08
3.298984e+08
3.390819e+08
3.505065e+08
0
0
0
0
0
0
0
0
0
0
0
0
0
0
0
0
0
0
3.056053e+08
3.108737e+08
3.177549e+08
3.264848e+08
3.373162e+08
0
0
0
0
0
0
0
0
0
0
0
0
0
0
0
0
0
0
0
2.94177e+08
2.992103e+08
3.057682e+08
3.140618e+08
3.243255e+08
0
0
0
0
0
0
0
0
0
0
0
0
0
0
0
0
0
0
0
0
2.82724e+08
2.875283e+08
2.937634e+08
3.016305e+08
3.113381e+08
0
0
0
0
0
0
0
0
0
0
2.715717e+08
2.761546e+08
2.820834e+08
2.895394e+08
2.987214e+08
0
0
0
0
0
0
0
0
0
0
2.610791e+08
2.654524e+08
2.71097e+08
2.781773e+08
2.868727e+08
0
0
0
0
0
0
0
0
0
0
2.514273e+08
2.556032e+08
2.609859e+08
2.677261e+08
2.759865e+08
0
0
0
0
0
0
0
0
0
0
2.426665e+08
2.466591e+08
2.518007e+08
2.58232e+08
2.661033e+08
0
0
0
0
0
0
0
0
0
0
4.854712e+08
4.953395e+08
5.088592e+08
5.268095e+08
5.501037e+08
0
0
0
0
0
0
0
4.650366e+08
4.742426e+08
4.867895e+08
5.033564e+08
5.247301e+08
0
0
0
0
0
0
0
0
4.468987e+08
4.55562e+08
4.673156e+08
4.827605e+08
5.025859e+08
0
0
0
0
0
0
0
0
0
4.304774e+08
4.386815e+08
4.49765e+08
4.642693e+08
4.828063e+08
0
0
0
0
0
0
0
0
0
0
4.151041e+08
4.229032e+08
4.333962e+08
4.470746e+08
4.644905e+08
0
0
0
0
0
0
0
0
0
0
4.000226e+08