/*--------------------------------*- C++ -*----------------------------------*\
| =========                 |                                                 |
| \\      /  F ield         | OpenFOAM: The Open Source CFD Toolbox           |
|  \\    /   O peration     | Version:  2306                                  |
|   \\  /    A nd           | Website:  www.openfoam.com                      |
|    \\/     M anipulation  |                                                 |
\*---------------------------------------------------------------------------*/
FoamFile
{
    version     2.0;
    format      ascii;
    arch        "LSB;label=32;scalar=64";
    class       volScalarField;
    location    "0.9/fuel";
    object      nernst;
}
// * * * * * * * * * * * * * * * * * * * * * * * * * * * * * * * * * * * * * //

dimensions      [1 2 -3 0 0 -1 0];

internalField   nonuniform List<scalar> 
16000
(
-1.797616
-1.798609
-1.783256
-1.797684
-1.800617
-1.783908
-1.798679
-1.770291
-1.783304
-1.797813
-1.803638
-1.785223
-1.80069
-1.770785
-1.783956
-1.798811
-1.759809
-1.770326
-1.783396
-1.798
-1.807525
-1.787197
-1.803719
-1.771782
-1.785273
-1.80083
-1.76021
-1.77082
-1.78405
-1.799003
-1.751173
-1.759835
-1.770394
-1.783531
-1.798247
-1.811637
-1.789731
-1.807619
-1.773281
-1.787248
-1.803871
-1.761018
-1.771817
-1.785369
-1.801033
-1.751511
-1.760236
-1.770889
-1.784187
-1.799256
-1.743868
-1.751193
-1.759888
-1.770495
-1.783709
-1.798495
-1.814559
-1.792429
-1.81175
-1.775212
-1.789784
-1.807793
-1.762234
-1.773316
-1.787348
-1.804093
-1.752192
-1.761044
-1.771887
-1.78551
-1.801299
-1.74416
-1.751531
-1.760289
-1.770991
-1.784367
-1.79951
-1.737549
-1.743884
-1.751236
-1.759967
-1.770629
-1.783888
-1.798703
-1.816217
-1.794437
-1.81469
-1.777287
-1.792484
-1.811955
-1.763802
-1.775247
-1.78989
-1.808045
-1.753214
-1.76226
-1.773387
-1.787495
-1.804384
-1.744748
-1.752212
-1.761098
-1.771991
-1.785695
-1.801567
-1.737806
-1.744176
-1.751574
-1.760369
-1.771125
-1.784549
-1.799724
-1.731984
-1.737561
-1.743919
-1.751301
-1.760073
-1.770763
-1.784039
-1.798912
-1.817028
-1.795681
-1.816363
-1.778875
-1.794495
-1.81492
-1.765493
-1.777321
-1.792597
-1.812249
-1.754533
-1.763827
-1.77532
-1.790046
-1.808374
-1.74563
-1.753234
-1.762314
-1.773493
-1.787689
-1.804676
-1.738323
-1.744763
-1.752255
-1.761179
-1.772128
-1.785882
-1.801794
-1.732213
-1.737818
-1.744211
-1.751639
-1.760475
-1.771261
-1.784702
-1.799938
-1.727012
-1.731994
-1.737591
-1.743973
-1.751387
-1.760179
-1.770877
-1.78419
-1.799119
-1.817345
-1.79636
-1.817184
-1.779903
-1.79574
-1.816613
-1.766803
-1.778908
-1.794612
-1.815248
-1.755957
-1.765516
-1.777395
-1.792764
-1.812632
-1.746767
-1.754552
-1.763882
-1.77543
-1.790252
-1.808705
-1.739099
-1.745645
-1.753277
-1.762396
-1.773635
-1.787885
-1.804923
-1.732675
-1.738335
-1.744798
-1.75232
-1.761287
-1.772266
-1.78604
-1.802019
-1.72722
-1.732223
-1.737848
-1.744265
-1.751726
-1.760583
-1.771376
-1.784855
-1.800151
-1.722519
-1.72702
-1.732019
-1.737637
-1.744047
-1.751475
-1.760269
-1.77099
-1.784339
-1.799326
-1.817345
-1.796655
-1.817506
-1.780495
-1.796422
-1.817447
-1.767669
-1.779935
-1.795861
-1.816965
-1.757067
-1.766825
-1.778982
-1.794786
-1.815673
-1.747996
-1.755974
-1.765571
-1.777509
-1.792987
-1.813017
-1.740099
-1.746781
-1.754595
-1.763965
-1.775576
-1.79046
-1.808987
-1.733368
-1.73911
-1.74568
-1.753343
-1.762506
-1.773777
-1.788049
-1.805171
-1.727638
-1.732685
-1.738365
-1.744853
-1.752408
-1.761396
-1.772383
-1.786197
-1.802245
-1.722708
-1.727228
-1.732248
-1.737894
-1.744339
-1.751814
-1.760673
-1.77149
-1.785006
-1.800363
-1.718417
-1.722525
-1.727042
-1.732059
-1.7377
-1.744121
-1.751549
-1.760359
-1.771102
-1.784488
-1.800327
-1.817028
-1.796655
-1.817506
-1.780763
-1.796718
-1.817775
-1.768178
-1.780527
-1.796545
-1.817814
-1.757807
-1.767688
-1.780009
-1.79604
-1.817418
-1.748956
-1.757082
-1.766878
-1.779097
-1.795018
-1.816099
-1.741179
-1.748008
-1.756017
-1.765656
-1.777663
-1.79321
-1.813348
-1.734261
-1.74011
-1.746816
-1.754662
-1.764078
-1.775724
-1.790636
-1.809271
-1.728264
-1.733377
-1.73914
-1.745735
-1.753432
-1.762617
-1.773897
-1.788214
-1.805418
-1.72309
-1.727645
-1.73271
-1.738411
-1.744927
-1.752498
-1.761487
-1.772499
-1.786353
-1.802469
-1.718592
-1.722714
-1.727249
-1.732289
-1.737957
-1.744413
-1.751889
-1.760763
-1.771603
-1.785157
-1.801391
-1.714643
-1.718422
-1.722544
-1.727077
-1.732114
-1.737764
-1.744183
-1.751623
-1.760448
-1.771214
-1.785209
-1.801127
-1.816217
-1.79636
-1.817184
-1.780763
-1.796718
-1.817775
-1.768412
-1.780795
-1.796842
-1.81815
-1.758246
-1.768197
-1.780601
-1.796727
-1.818285
-1.749599
-1.75782
-1.767741
-1.780125
-1.796278
-1.817873
-1.742025
-1.748967
-1.757123
-1.766963
-1.779253
-1.795251
-1.816466
-1.735225
-1.741188
-1.748043
-1.756084
-1.765772
-1.777817
-1.7934
-1.813683
-1.729071
-1.734269
-1.740139
-1.746872
-1.754753
-1.764192
-1.775849
-1.790812
-1.809555
-1.723662
-1.728271
-1.733403
-1.739187
-1.74581
-1.753523
-1.76271
-1.774016
-1.788378
-1.805665
-1.718943
-1.723096
-1.727667
-1.732751
-1.738475
-1.745003
-1.752572
-1.761578
-1.772614
-1.786509
-1.803559
-1.714805
-1.718597
-1.722733
-1.727285
-1.732344
-1.738022
-1.744476
-1.751963
-1.760852
-1.771716
-1.785888
-1.80222
-1.711146
-1.714647
-1.718439
-1.722575
-1.727126
-1.732171
-1.737818
-1.744246
-1.751696
-1.760536
-1.771754
-1.78578
-1.801784
-1.814559
-1.795681
-1.816363
-1.780495
-1.796422
-1.817447
-1.768412
-1.780795
-1.796842
-1.81815
-1.75845
-1.768431
-1.78087
-1.797026
-1.81863
-1.749983
-1.758259
-1.768248
-1.780717
-1.796969
-1.818758
-1.742592
-1.749608
-1.757859
-1.767824
-1.780281
-1.796516
-1.818265
-1.735981
-1.742032
-1.748999
-1.75719
-1.767079
-1.77941
-1.795449
-1.816838
-1.729943
-1.735232
-1.741217
-1.748099
-1.756177
-1.765889
-1.777947
-1.793592
-1.814022
-1.724398
-1.729077
-1.734294
-1.740186
-1.746948
-1.754845
-1.764287
-1.775973
-1.790988
-1.809842
-1.719469
-1.723667
-1.728293
-1.733443
-1.739251
-1.745886
-1.753599
-1.762803
-1.774135
-1.788541
-1.806868
-1.71513
-1.718948
-1.723115
-1.727702
-1.732806
-1.73854
-1.745066
-1.752647
-1.761669
-1.772729
-1.787262
-1.804458
-1.711297
-1.714809
-1.718614
-1.722765
-1.727334
-1.7324
-1.738076
-1.744538
-1.752036
-1.760941
-1.772261
-1.786468
-1.802907
-1.707885
-1.711149
-1.714662
-1.718467
-1.722619
-1.727176
-1.732218
-1.737872
-1.744307
-1.751768
-1.760964
-1.77218
-1.786243
-1.802293
-1.811637
-1.794437
-1.81469
-1.779903
-1.79574
-1.816613
-1.768178
-1.780527
-1.796545
-1.817814
-1.75845
-1.768431
-1.78087
-1.797026
-1.81863
-1.750162
-1.758462
-1.768482
-1.780986
-1.79727
-1.819111
-1.742932
-1.749991
-1.758297
-1.768332
-1.780874
-1.797211
-1.819165
-1.73649
-1.742599
-1.74964
-1.757925
-1.76794
-1.780439
-1.796719
-1.818661
-1.730626
-1.735987
-1.742059
-1.749054
-1.757282
-1.767196
-1.779542
-1.795648
-1.817214
-1.725194
-1.729948
-1.735257
-1.741264
-1.748176
-1.756271
-1.765988
-1.778079
-1.793785
-1.814366
-1.720148
-1.724403
-1.729099
-1.734335
-1.740251
-1.747025
-1.754922
-1.764383
-1.776097
-1.791165
-1.811242
-1.715618
-1.719474
-1.723686
-1.728328
-1.733499
-1.739317
-1.74595
-1.753674
-1.762895
-1.774253
-1.789334
-1.807917
-1.7116
-1.715134
-1.718964
-1.723146
-1.727752
-1.732863
-1.738594
-1.745128
-1.752721
-1.761759
-1.773284
-1.787864
-1.805221
-1.708027
-1.7113
-1.714824
-1.718642
-1.722809
-1.727384
-1.732448
-1.738129
-1.7446
-1.752109
-1.761371
-1.77269
-1.78694
-1.803443
-1.70483
-1.707888
-1.711162
-1.714688
-1.718507
-1.722664
-1.727218
-1.732264
-1.737925
-1.744368
-1.75212
-1.761298
-1.772523
-1.786596
-1.802647
-1.807525
-1.792429
-1.81175
-1.778875
-1.794495
-1.81492
-1.767669
-1.779935
-1.795861
-1.816965
-1.758246
-1.768197
-1.780601
-1.796727
-1.818285
-1.750162
-1.758462
-1.768482
-1.780986
-1.79727
-1.819111
-1.743091
-1.75017
-1.7585
-1.768565
-1.781142
-1.797514
-1.819527
-1.736795
-1.742938
-1.750022
-1.758362
-1.768446
-1.781032
-1.797417
-1.819576
-1.731087
-1.736494
-1.742625
-1.749693
-1.758016
-1.768056
-1.780571
-1.796923
-1.819061
-1.725819
-1.73063
-1.73601
-1.742106
-1.74913
-1.757375
-1.767295
-1.779675
-1.79585
-1.817595
-1.72088
-1.725198
-1.729969
-1.735297
-1.74133
-1.748254
-1.75635
-1.766087
-1.778211
-1.79398
-1.816063
-1.716247
-1.720152
-1.724422
-1.729134
-1.734391
-1.740317
-1.74709
-1.754999
-1.764478
-1.776222
-1.792025
-1.812613
-1.712055
-1.715622
-1.71949
-1.723718
-1.728378
-1.733556
-1.739371
-1.746013
-1.753749
-1.762987
-1.774826
-1.789987
-1.808859
-1.708311
-1.711603
-1.715149
-1.718993
-1.72319
-1.727802
-1.73291
-1.738648
-1.74519
-1.752794
-1.762194
-1.773722
-1.78836
-1.805831
-1.704963
-1.708029
-1.711313
-1.714849
-1.718681
-1.722854
-1.727426
-1.732494
-1.738182
-1.744662
-1.752462
-1.761706
-1.773035
-1.7873
-1.803821
-1.701952
-1.704832
-1.7079
-1.711186
-1.714724
-1.718548
-1.722701
-1.727259
-1.732311
-1.737977
-1.744665
-1.752391
-1.761565
-1.772782
-1.786837
-1.803638
-1.789731
-1.807619
-1.777287
-1.792484
-1.811955
-1.766803
-1.778908
-1.794612
-1.815248
-1.757807
-1.767688
-1.780009
-1.79604
-1.817418
-1.749983
-1.758259
-1.768248
-1.780717
-1.796969
-1.818758
-1.743091
-1.75017
-1.7585
-1.768565
-1.781142
-1.797514
-1.819527
-1.736937
-1.743096
-1.7502
-1.758565
-1.76868
-1.781301
-1.797721
-1.819945
-1.731364
-1.736799
-1.742963
-1.750075
-1.758452
-1.768562
-1.781164
-1.797623
-1.819991
-1.726241
-1.73109
-1.736516
-1.74267
-1.749768
-1.758108
-1.768154
-1.780704
-1.797128
-1.819465
-1.721456
-1.725822
-1.73065
-1.736049
-1.742171
-1.749208
-1.757453
-1.767394
-1.779809
-1.796053
-1.819475
-1.716927
-1.720884
-1.725216
-1.730004
-1.735355
-1.741397
-1.74832
-1.75643
-1.766188
-1.778345
-1.79494
-1.818021
-1.712641
-1.71625
-1.720168
-1.724453
-1.729184
-1.734449
-1.740372
-1.747154
-1.755076
-1.764574
-1.776827
-1.792801
-1.814007
-1.708737
-1.712058
-1.715637
-1.719519
-1.723762
-1.728429
-1.733604
-1.739425
-1.746076
-1.753824
-1.763432
-1.775286
-1.790548
-1.809654
-1.70523
-1.708313
-1.711616
-1.715175
-1.719033
-1.723235
-1.727844
-1.732957
-1.738701
-1.745252
-1.75315
-1.762532
-1.774076
-1.788742
-1.80627
-1.702078
-1.704964
-1.708041
-1.711336
-1.714885
-1.718722
-1.722891
-1.727467
-1.732541
-1.738235
-1.744959
-1.752732
-1.761974
-1.773296
-1.787545
-1.699232
-1.701954
-1.704842
-1.707921
-1.711219
-1.714761
-1.718581
-1.722738
-1.7273
-1.732357
-1.738232
-1.744889
-1.752605
-1.761765
-1.772956
-1.800617
-1.787197
-1.803719
-1.775212
-1.789784
-1.807793
-1.765493
-1.777321
-1.792597
-1.812249
-1.757067
-1.766825
-1.778982
-1.794786
-1.815673
-1.749599
-1.75782
-1.767741
-1.780125
-1.796278
-1.817873
-1.742932
-1.749991
-1.758297
-1.768332
-1.780874
-1.797211
-1.819165
-1.736937
-1.743096
-1.7502
-1.758565
-1.76868
-1.781301
-1.797721
-1.819945
-1.731494
-1.736941
-1.743121
-1.750252
-1.758655
-1.768796
-1.781433
-1.79793
-1.820366
-1.726495
-1.731367
-1.73682
-1.743008
-1.750149
-1.758544
-1.768659
-1.781297
-1.797831
-1.820409
-1.721845
-1.726243
-1.731109
-1.736555
-1.742734
-1.749845
-1.758185
-1.768252
-1.780838
-1.797335
-1.821453
-1.717461
-1.721459
-1.725839
-1.730685
-1.736106
-1.742237
-1.749273
-1.757532
-1.767494
-1.779944
-1.797053
-1.821603
-1.713275
-1.716929
-1.720899
-1.725248
-1.730055
-1.735413
-1.741453
-1.748386
-1.75651
-1.766288
-1.779001
-1.795955
-1.82045
-1.709286
-1.712643
-1.716264
-1.720196
-1.724498
-1.729235
-1.734497
-1.740427
-1.747218
-1.755153
-1.765038
-1.777354
-1.79355
-1.815352
-1.705631
-1.708739
-1.712071
-1.715662
-1.719559
-1.723807
-1.72847
-1.733651
-1.739479
-1.746139
-1.754186
-1.763782
-1.775672
-1.790997
-1.81025
-1.702331
-1.705232
-1.708325
-1.71164
-1.715211
-1.719073
-1.723273
-1.727885
-1.733004
-1.738754
-1.745551
-1.753422
-1.762803
-1.774343
-1.789002
-1.699351
-1.702079
-1.704975
-1.708062
-1.71137
-1.714923
-1.718756
-1.722928
-1.727508
-1.732587
-1.73849
-1.745182
-1.752946
-1.762173
-1.773469
-1.696651
-1.699233
-1.701964
-1.704862
-1.707952
-1.711253
-1.714791
-1.718614
-1.722775
-1.727341
-1.732579
-1.73842
-1.745064
-1.752764
-1.761897
-1.798609
-1.785223
-1.80069
-1.773281
-1.787248
-1.803871
-1.763802
-1.775247
-1.78989
-1.808045
-1.755957
-1.765516
-1.777395
-1.792764
-1.812632
-1.748956
-1.757082
-1.766878
-1.779097
-1.795018
-1.816099
-1.742592
-1.749608
-1.757859
-1.767824
-1.780281
-1.796516
-1.818265
-1.736795
-1.742938
-1.750022
-1.758362
-1.768446
-1.781032
-1.797417
-1.819576
-1.731494
-1.736941
-1.743121
-1.750252
-1.758655
-1.768796
-1.781433
-1.79793
-1.820366
-1.726613
-1.731496
-1.736962
-1.743165
-1.750326
-1.758746
-1.768892
-1.781566
-1.798139
-1.820791
-1.72208
-1.726496
-1.731385
-1.736858
-1.743071
-1.750225
-1.75862
-1.768756
-1.78143
-1.79804
-1.822463
-1.717823
-1.721847
-1.726259
-1.731143
-1.73661
-1.742799
-1.749908
-1.758262
-1.76835
-1.780973
-1.79835
-1.823616
-1.713774
-1.717462
-1.721474
-1.72587
-1.730735
-1.736164
-1.742292
-1.749338
-1.757611
-1.767594
-1.780609
-1.798091
-1.82413
-1.709881
-1.713277
-1.716943
-1.720928
-1.725293
-1.730107
-1.735462
-1.741509
-1.748452
-1.756591
-1.766783
-1.779673
-1.797169
-1.823567
-1.706148
-1.709288
-1.712656
-1.71629
-1.720236
-1.724544
-1.729278
-1.734545
-1.740482
-1.747282
-1.755527
-1.765432
-1.777852
-1.794234
-1.81649
-1.702709
-1.705633
-1.708751
-1.712094
-1.715699
-1.7196
-1.723845
-1.728512
-1.733698
-1.739533
-1.746441
-1.754464
-1.764071
-1.775971
-1.791307
-1.699591
-1.702332
-1.705243
-1.708346
-1.711673
-1.715248
-1.719107
-1.72331
-1.727926
-1.73305
-1.739011
-1.745774
-1.753636
-1.763003
-1.774518
-1.696764
-1.699352
-1.702089
-1.704995
-1.708093
-1.711404
-1.714953
-1.718789
-1.722965
-1.727549
-1.732809
-1.738678
-1.745357
-1.753103
-1.762303
-1.694194
-1.696652
-1.699242
-1.701982
-1.70489
-1.707983
-1.711281
-1.714822
-1.718648
-1.722811
-1.727537
-1.732739
-1.738566
-1.745192
-1.752866
-1.797616
-1.783908
-1.798679
-1.771782
-1.785273
-1.80083
-1.762234
-1.773316
-1.787348
-1.804093
-1.754533
-1.763827
-1.77532
-1.790046
-1.808374
-1.747996
-1.755974
-1.765571
-1.777509
-1.792987
-1.813017
-1.742025
-1.748967
-1.757123
-1.766963
-1.779253
-1.795251
-1.816466
-1.73649
-1.742599
-1.74964
-1.757925
-1.76794
-1.780439
-1.796719
-1.818661
-1.731364
-1.736799
-1.742963
-1.750075
-1.758452
-1.768562
-1.781164
-1.797623
-1.819991
-1.726613
-1.731496
-1.736962
-1.743165
-1.750326
-1.758746
-1.768892
-1.781566
-1.798139
-1.820791
-1.72219
-1.726615
-1.731514
-1.737
-1.743228
-1.750401
-1.758821
-1.768988
-1.781699
-1.798349
-1.822877
-1.718041
-1.722081
-1.726512
-1.731418
-1.736913
-1.743135
-1.750287
-1.758696
-1.768853
-1.781565
-1.799065
-1.824642
-1.714112
-1.717823
-1.721861
-1.726289
-1.731192
-1.736667
-1.742852
-1.749971
-1.75834
-1.768449
-1.781634
-1.799361
-1.826061
-1.710349
-1.713775
-1.717476
-1.721501
-1.725915
-1.730786
-1.736211
-1.742347
-1.749403
-1.757692
-1.768089
-1.781277
-1.79929
-1.82712
-1.706708
-1.709882
-1.713289
-1.716969
-1.720969
-1.725339
-1.73015
-1.735511
-1.741566
-1.74852
-1.756986
-1.767282
-1.780474
-1.798671
-1.827811
-1.703198
-1.706149
-1.7093
-1.71268
-1.716327
-1.720278
-1.724581
-1.72932
-1.734593
-1.740537
-1.747594
-1.755838
-1.765799
-1.778291
-1.794766
-1.69995
-1.70271
-1.705643
-1.708772
-1.712127
-1.715736
-1.719633
-1.723882
-1.728554
-1.733744
-1.739792
-1.746669
-1.754691
-1.76429
-1.776165
-1.696992
-1.699592
-1.702342
-1.705262
-1.708377
-1.711707
-1.715279
-1.71914
-1.723347
-1.727967
-1.733273
-1.739197
-1.745949
-1.753793
-1.763131
-1.694302
-1.696765
-1.699361
-1.702108
-1.705023
-1.708125
-1.711432
-1.714984
-1.718822
-1.723001
-1.727745
-1.732969
-1.738823
-1.745483
-1.753203
-1.691848
-1.694195
-1.69666
-1.699259
-1.702008
-1.70492
-1.708009
-1.711309
-1.714852
-1.71868
-1.722987
-1.727675
-1.732861
-1.73867
-1.745272
-1.783256
-1.797684
-1.770785
-1.783956
-1.798811
-1.761018
-1.771817
-1.785369
-1.801033
-1.753214
-1.76226
-1.773387
-1.787495
-1.804384
-1.746767
-1.754552
-1.763882
-1.77543
-1.790252
-1.808705
-1.741179
-1.748008
-1.756017
-1.765656
-1.777663
-1.79321
-1.813348
-1.735981
-1.742032
-1.748999
-1.75719
-1.767079
-1.77941
-1.795449
-1.816838
-1.731087
-1.736494
-1.742625
-1.749693
-1.758016
-1.768056
-1.780571
-1.796923
-1.819061
-1.726495
-1.731367
-1.73682
-1.743008
-1.750149
-1.758544
-1.768659
-1.781297
-1.797831
-1.820409
-1.72219
-1.726615
-1.731514
-1.737
-1.743228
-1.750401
-1.758821
-1.768988
-1.781699
-1.798349
-1.822877
-1.718143
-1.722191
-1.72663
-1.731547
-1.737054
-1.743292
-1.750463
-1.758897
-1.769085
-1.781834
-1.799379
-1.825067
-1.714316
-1.718041
-1.722095
-1.726542
-1.731466
-1.736969
-1.743188
-1.750349
-1.758772
-1.768952
-1.782223
-1.800057
-1.82703
-1.710666
-1.714112
-1.717836
-1.721888
-1.726333
-1.731242
-1.736713
-1.742906
-1.750035
-1.758418
-1.768935
-1.782266
-1.800478
-1.828807
-1.707149
-1.710349
-1.713787
-1.717501
-1.721541
-1.72596
-1.730828
-1.736259
-1.742403
-1.74947
-1.758084
-1.768576
-1.782051
-1.800667
-1.830642
-1.703727
-1.706708
-1.709893
-1.713313
-1.717006
-1.72101
-1.725378
-1.730193
-1.73556
-1.741623
-1.748848
-1.75738
-1.767876
-1.781463
-1.80064
-1.835327
-1.700412
-1.703198
-1.70616
-1.709321
-1.712713
-1.716364
-1.720312
-1.724619
-1.729362
-1.73464
-1.740802
-1.747847
-1.756125
-1.766116
-1.778611
-1.697333
-1.69995
-1.70272
-1.705663
-1.708803
-1.712162
-1.715767
-1.719667
-1.723919
-1.728595
-1.73397
-1.739981
-1.746852
-1.754859
-1.764425
-1.694518
-1.696992
-1.699601
-1.70236
-1.705291
-1.708409
-1.711735
-1.715309
-1.719174
-1.723383
-1.728164
-1.733431
-1.739341
-1.746073
-1.753889
-1.691951
-1.694302
-1.696773
-1.699378
-1.702134
-1.705053
-1.70815
-1.711459
-1.715014
-1.718855
-1.723177
-1.727882
-1.73309
-1.738925
-1.74556
-1.689602
-1.691848
-1.694202
-1.696676
-1.699284
-1.702036
-1.704944
-1.708035
-1.711336
-1.714882
-1.718838
-1.723106
-1.727778
-1.732946
-1.738732
-1.770291
-1.783304
-1.797813
-1.76021
-1.77082
-1.78405
-1.799003
-1.752192
-1.761044
-1.771887
-1.78551
-1.801299
-1.74563
-1.753234
-1.762314
-1.773493
-1.787689
-1.804676
-1.740099
-1.746781
-1.754595
-1.763965
-1.775576
-1.79046
-1.808987
-1.735225
-1.741188
-1.748043
-1.756084
-1.765772
-1.777817
-1.7934
-1.813683
-1.730626
-1.735987
-1.742059
-1.749054
-1.757282
-1.767196
-1.779542
-1.795648
-1.817214
-1.726241
-1.73109
-1.736516
-1.74267
-1.749768
-1.758108
-1.768154
-1.780704
-1.797128
-1.819465
-1.72208
-1.726496
-1.731385
-1.736858
-1.743071
-1.750225
-1.75862
-1.768756
-1.78143
-1.79804
-1.822463
-1.718143
-1.722191
-1.72663
-1.731547
-1.737054
-1.743292
-1.750463
-1.758897
-1.769085
-1.781834
-1.799379
-1.825067
-1.714412
-1.718143
-1.722204
-1.72666
-1.731595
-1.73711
-1.743344
-1.750525
-1.758973
-1.769183
-1.78249
-1.800363
-1.827433
-1.710858
-1.714316
-1.718054
-1.722121
-1.726585
-1.731516
-1.737014
-1.743241
-1.750412
-1.758849
-1.769431
-1.782831
-1.801123
-1.829641
-1.707448
-1.710666
-1.714124
-1.717861
-1.721928
-1.726378
-1.731283
-1.73676
-1.742961
-1.7501
-1.758801
-1.769388
-1.782971
-1.801701
-1.831867
-1.704144
-1.707149
-1.71036
-1.71381
-1.717538
-1.721583
-1.725998
-1.73087
-1.736308
-1.742459
-1.749794
-1.758464
-1.769143
-1.782939
-1.802232
-1.835535
-1.700914
-1.703727
-1.706719
-1.709915
-1.713347
-1.717044
-1.721045
-1.725416
-1.730236
-1.73561
-1.741903
-1.74917
-1.75785
-1.768611
-1.782753
-1.80394
-1.839723
-1.697773
-1.700413
-1.703208
-1.706179
-1.709352
-1.712748
-1.716395
-1.720345
-1.724657
-1.729404
-1.734871
-1.741014
-1.748079
-1.756368
-1.766334
-1.694844
-1.697333
-1.699959
-1.702738
-1.705691
-1.708835
-1.71219
-1.715797
-1.7197
-1.723955
-1.728793
-1.73413
-1.740132
-1.746984
-1.754957
-1.692158
-1.694519
-1.697001
-1.699617
-1.702386
-1.70532
-1.708434
-1.711763
-1.715339
-1.719206
-1.723559
-1.7283
-1.733552
-1.739441
-1.746146
-1.6897
-1.691951
-1.69431
-1.696789
-1.699403
-1.702161
-1.705076
-1.708176
-1.711487
-1.715043
-1.719013
-1.723295
-1.727984
-1.733173
-1.738984
-1.687446
-1.689602
-1.691856
-1.694217
-1.696699
-1.69931
-1.702058
-1.704967
-1.70806
-1.711363
-1.715025
-1.718942
-1.723194
-1.727848
-1.732994
-1.759809
-1.770326
-1.783396
-1.798
-1.751511
-1.760236
-1.770889
-1.784187
-1.799256
-1.744748
-1.752212
-1.761098
-1.771991
-1.785695
-1.801567
-1.739099
-1.745645
-1.753277
-1.762396
-1.773635
-1.787885
-1.804923
-1.734261
-1.74011
-1.746816
-1.754662
-1.764078
-1.775724
-1.790636
-1.809271
-1.729943
-1.735232
-1.741217
-1.748099
-1.756177
-1.765889
-1.777947
-1.793592
-1.814022
-1.725819
-1.73063
-1.73601
-1.742106
-1.74913
-1.757375
-1.767295
-1.779675
-1.79585
-1.817595
-1.721845
-1.726243
-1.731109
-1.736555
-1.742734
-1.749845
-1.758185
-1.768252
-1.780838
-1.797335
-1.821453
-1.718041
-1.722081
-1.726512
-1.731418
-1.736913
-1.743135
-1.750287
-1.758696
-1.768853
-1.781565
-1.799065
-1.824642
-1.714412
-1.718143
-1.722204
-1.72666
-1.731595
-1.73711
-1.743344
-1.750525
-1.758973
-1.769183
-1.78249
-1.800363
-1.827433
-1.710948
-1.714412
-1.718156
-1.722231
-1.726703
-1.731644
-1.737155
-1.743397
-1.750588
-1.759049
-1.769659
-1.783088
-1.801408
-1.829991
-1.70763
-1.710858
-1.714327
-1.718078
-1.72216
-1.726629
-1.731556
-1.73706
-1.743294
-1.750476
-1.759225
-1.769861
-1.783491
-1.80226
-1.832485
-1.704428
-1.707448
-1.710677
-1.714146
-1.717896
-1.721968
-1.726414
-1.731324
-1.736807
-1.743015
-1.750415
-1.759152
-1.769897
-1.783745
-1.803019
-1.835942
-1.70131
-1.704144
-1.707159
-1.710381
-1.713843
-1.717575
-1.721617
-1.726036
-1.730913
-1.736357
-1.742735
-1.750104
-1.75891
-1.769796
-1.783948
-1.804301
-1.839328
-1.69825
-1.700914
-1.703736
-1.706738
-1.709946
-1.713382
-1.717075
-1.72108
-1.725455
-1.73028
-1.735853
-1.742174
-1.749557
-1.758433
-1.769572
-1.784872
-1.805888
-1.843116
-1.695263
-1.697773
-1.700422
-1.703226
-1.706208
-1.709384
-1.712776
-1.716426
-1.720379
-1.724694
-1.729607
-1.73505
-1.741206
-1.748273
-1.756528
-1.692468
-1.694844
-1.697341
-1.699976
-1.702765
-1.705721
-1.70886
-1.712218
-1.715827
-1.719733
-1.724132
-1.72893
-1.734255
-1.740238
-1.747057
-1.689898
-1.692158
-1.694526
-1.697016
-1.699642
-1.702414
-1.705344
-1.70846
-1.71179
-1.715369
-1.719365
-1.723676
-1.728401
-1.733632
-1.739496
-1.687541
-1.6897
-1.691958
-1.694325
-1.696812
-1.699429
-1.702183
-1.7051
-1.708201
-1.711514
-1.715187
-1.719116
-1.723382
-1.728052
-1.733218
-1.685373
-1.687446
-1.689609
-1.691869
-1.694239
-1.696724
-1.699331
-1.70208
-1.704991
-1.708085
-1.711494
-1.715116
-1.719018
-1.723251
-1.727884
-1.751173
-1.759835
-1.770394
-1.783531
-1.798247
-1.74416
-1.751531
-1.760289
-1.770991
-1.784367
-1.79951
-1.738323
-1.744763
-1.752255
-1.761179
-1.772128
-1.785882
-1.801794
-1.733368
-1.73911
-1.74568
-1.753343
-1.762506
-1.773777
-1.788049
-1.805171
-1.729071
-1.734269
-1.740139
-1.746872
-1.754753
-1.764192
-1.775849
-1.790812
-1.809555
-1.725194
-1.729948
-1.735257
-1.741264
-1.748176
-1.756271
-1.765988
-1.778079
-1.793785
-1.814366
-1.721456
-1.725822
-1.73065
-1.736049
-1.742171
-1.749208
-1.757453
-1.767394
-1.779809
-1.796053
-1.819475
-1.717823
-1.721847
-1.726259
-1.731143
-1.73661
-1.742799
-1.749908
-1.758262
-1.76835
-1.780973
-1.79835
-1.823616
-1.714316
-1.718041
-1.722095
-1.726542
-1.731466
-1.736969
-1.743188
-1.750349
-1.758772
-1.768952
-1.782223
-1.800057
-1.82703
-1.710948
-1.714412
-1.718156
-1.722231
-1.726703
-1.731644
-1.737155
-1.743397
-1.750588
-1.759049
-1.769659
-1.783088
-1.801408
-1.829991
-1.707715
-1.710948
-1.714423
-1.718179
-1.722269
-1.726746
-1.731684
-1.737201
-1.74345
-1.750651
-1.759422
-1.770079
-1.783728
-1.80251
-1.832751
-1.7046
-1.707629
-1.710868
-1.714349
-1.718113
-1.7222
-1.726665
-1.731597
-1.737107
-1.743348
-1.750784
-1.759555
-1.770332
-1.7842
-1.803462
-1.836242
-1.70158
-1.704427
-1.707457
-1.710697
-1.714179
-1.717933
-1.722001
-1.726451
-1.731366
-1.736855
-1.743283
-1.750699
-1.759548
-1.770459
-1.784581
-1.804694
-1.839308
-1.698628
-1.70131
-1.704153
-1.707178
-1.710412
-1.713878
-1.717606
-1.721651
-1.726074
-1.730956
-1.736596
-1.742995
-1.75047
-1.759425
-1.770539
-1.785248
-1.805969
-1.842568
-1.695718
-1.69825
-1.700923
-1.703755
-1.706768
-1.709978
-1.71341
-1.717107
-1.721115
-1.725494
-1.730494
-1.736085
-1.742501
-1.750039
-1.759197
-1.771129
-1.786101
-1.807449
-1.845851
-1.692869
-1.695263
-1.697781
-1.700439
-1.703253
-1.706238
-1.70941
-1.712804
-1.716456
-1.720413
-1.724875
-1.72976
-1.735211
-1.741363
-1.748393
-1.690196
-1.692468
-1.694851
-1.697357
-1.700001
-1.702792
-1.705745
-1.708886
-1.712245
-1.715857
-1.719892
-1.72425
-1.729035
-1.73434
-1.740291
-1.687731
-1.689898
-1.692165
-1.694541
-1.69704
-1.699668
-1.702436
-1.705367
-1.708485
-1.711818
-1.715512
-1.719466
-1.723761
-1.728466
-1.733673
-1.685464
-1.687541
-1.689707
-1.691972
-1.694347
-1.696837
-1.699449
-1.702205
-1.705124
-1.708226
-1.711645
-1.715277
-1.71919
-1.723437
-1.728086
-1.683375
-1.685373
-1.687453
-1.689622
-1.69189
-1.694262
-1.696743
-1.699351
-1.702102
-1.705014
-1.708205
-1.711575
-1.715181
-1.719065
-1.723278
-1.743868
-1.751193
-1.759888
-1.770495
-1.783709
-1.798495
-1.737806
-1.744176
-1.751574
-1.760369
-1.771125
-1.784549
-1.799724
-1.732675
-1.738335
-1.744798
-1.75232
-1.761287
-1.772266
-1.78604
-1.802019
-1.728264
-1.733377
-1.73914
-1.745735
-1.753432
-1.762617
-1.773897
-1.788214
-1.805418
-1.724398
-1.729077
-1.734294
-1.740186
-1.746948
-1.754845
-1.764287
-1.775973
-1.790988
-1.809842
-1.72088
-1.725198
-1.729969
-1.735297
-1.74133
-1.748254
-1.75635
-1.766087
-1.778211
-1.79398
-1.816063
-1.717461
-1.721459
-1.725839
-1.730685
-1.736106
-1.742237
-1.749273
-1.757532
-1.767494
-1.779944
-1.797053
-1.821603
-1.714112
-1.717823
-1.721861
-1.726289
-1.731192
-1.736667
-1.742852
-1.749971
-1.75834
-1.768449
-1.781634
-1.799361
-1.826061
-1.710858
-1.714316
-1.718054
-1.722121
-1.726585
-1.731516
-1.737014
-1.743241
-1.750412
-1.758849
-1.769431
-1.782831
-1.801123
-1.829641
-1.707715
-1.710948
-1.714423
-1.718179
-1.722269
-1.726746
-1.731684
-1.737201
-1.74345
-1.750651
-1.759422
-1.770079
-1.783728
-1.80251
-1.832751
-1.704681
-1.707714
-1.710958
-1.714444
-1.718215
-1.722309
-1.726782
-1.731724
-1.737246
-1.743503
-1.750956
-1.759742
-1.770533
-1.78441
-1.803666
-1.836392
-1.701744
-1.704599
-1.707638
-1.710888
-1.714382
-1.718149
-1.722233
-1.726701
-1.731637
-1.737153
-1.743609
-1.75105
-1.759919
-1.770841
-1.784952
-1.804977
-1.839383
-1.698884
-1.701579
-1.704436
-1.707476
-1.710727
-1.714213
-1.717964
-1.722034
-1.726488
-1.731408
-1.737086
-1.74352
-1.751022
-1.759987
-1.771068
-1.785609
-1.806164
-1.842345
-1.696078
-1.698627
-1.701318
-1.704171
-1.707207
-1.710444
-1.713906
-1.717637
-1.721685
-1.726112
-1.731167
-1.736819
-1.743304
-1.750894
-1.760013
-1.771478
-1.786267
-1.807454
-1.845291
-1.693304
-1.695718
-1.698258
-1.70094
-1.703782
-1.706798
-1.710005
-1.713439
-1.717139
-1.72115
-1.725685
-1.730697
-1.736367
-1.74291
-1.750672
-1.760424
-1.772022
-1.787088
-1.808747
-1.848076
-1.690579
-1.692869
-1.69527
-1.697797
-1.700464
-1.703281
-1.706262
-1.709436
-1.712832
-1.716487
-1.720575
-1.725008
-1.729897
-1.735341
-1.741455
-1.688016
-1.690195
-1.692475
-1.694866
-1.697381
-1.700027
-1.702814
-1.705768
-1.708911
-1.712273
-1.716001
-1.719995
-1.724339
-1.729104
-1.734379
-1.685646
-1.68773
-1.689905
-1.692179
-1.694563
-1.697064
-1.699689
-1.702458
-1.705391
-1.70851
-1.711948
-1.715601
-1.719539
-1.723814
-1.728496
-1.683462
-1.685463
-1.687547
-1.68972
-1.691993
-1.694369
-1.696856
-1.69947
-1.702227
-1.705147
-1.708347
-1.711725
-1.715341
-1.719236
-1.723462
-1.681445
-1.683375
-1.685379
-1.687465
-1.689642
-1.691912
-1.69428
-1.696762
-1.699371
-1.702123
-1.705125
-1.708277
-1.711631
-1.71522
-1.719084
-1.737549
-1.743884
-1.751236
-1.759967
-1.770629
-1.783888
-1.798703
-1.732213
-1.737818
-1.744211
-1.751639
-1.760475
-1.771261
-1.784702
-1.799938
-1.727638
-1.732685
-1.738365
-1.744853
-1.752408
-1.761396
-1.772383
-1.786197
-1.802245
-1.723662
-1.728271
-1.733403
-1.739187
-1.74581
-1.753523
-1.76271
-1.774016
-1.788378
-1.805665
-1.720148
-1.724403
-1.729099
-1.734335
-1.740251
-1.747025
-1.754922
-1.764383
-1.776097
-1.791165
-1.811242
-1.716927
-1.720884
-1.725216
-1.730004
-1.735355
-1.741397
-1.74832
-1.75643
-1.766188
-1.778345
-1.79494
-1.818021
-1.713774
-1.717462
-1.721474
-1.72587
-1.730735
-1.736164
-1.742292
-1.749338
-1.757611
-1.767594
-1.780609
-1.798091
-1.82413
-1.710666
-1.714112
-1.717836
-1.721888
-1.726333
-1.731242
-1.736713
-1.742906
-1.750035
-1.758418
-1.768935
-1.782266
-1.800478
-1.828807
-1.70763
-1.710858
-1.714327
-1.718078
-1.72216
-1.726629
-1.731556
-1.73706
-1.743294
-1.750476
-1.759225
-1.769861
-1.783491
-1.80226
-1.832485
-1.704681
-1.707714
-1.710958
-1.714444
-1.718215
-1.722309
-1.726782
-1.731724
-1.737246
-1.743503
-1.750956
-1.759742
-1.770533
-1.78441
-1.803666
-1.836392
-1.70182
-1.70468
-1.707723
-1.710978
-1.714477
-1.718251
-1.722341
-1.726818
-1.731765
-1.737293
-1.743762
-1.751214
-1.760092
-1.77102
-1.785128
-1.805121
-1.839439
-1.69904
-1.701743
-1.704607
-1.707657
-1.710918
-1.714415
-1.718179
-1.722265
-1.726738
-1.731679
-1.737379
-1.743831
-1.751346
-1.760315
-1.771384
-1.785866
-1.806339
-1.842277
-1.696324
-1.698884
-1.701587
-1.704453
-1.707505
-1.710759
-1.71424
-1.717994
-1.722068
-1.726526
-1.731611
-1.73729
-1.743792
-1.751383
-1.760465
-1.771798
-1.786482
-1.807555
-1.844992
-1.693649
-1.696078
-1.698635
-1.701335
-1.704198
-1.707237
-1.71047
-1.713935
-1.717669
-1.72172
-1.7263
-1.731362
-1.737085
-1.743664
-1.751379
-1.760743
-1.772199
-1.787181
-1.808739
-1.847551
-1.690996
-1.693304
-1.695725
-1.698274
-1.700965
-1.70381
-1.706822
-1.710032
-1.713469
-1.717171
-1.721322
-1.725863
-1.730943
-1.73672
-1.743449
-1.751681
-1.761123
-1.772741
-1.787906
-1.809825
-1.849864
-1.688384
-1.690579
-1.692876
-1.695285
-1.697821
-1.700489
-1.703303
-1.706285
-1.709461
-1.71286
-1.716634
-1.720692
-1.725125
-1.730005
-1.735411
-1.68592
-1.688015
-1.690202
-1.692489
-1.694888
-1.697405
-1.700047
-1.702836
-1.705792
-1.708937
-1.712404
-1.716091
-1.72007
-1.724395
-1.72913