/*--------------------------------*- C++ -*----------------------------------*\
| =========                 |                                                 |
| \\      /  F ield         | OpenFOAM: The Open Source CFD Toolbox           |
|  \\    /   O peration     | Version:  2306                                  |
|   \\  /    A nd           | Website:  www.openfoam.com                      |
|    \\/     M anipulation  |                                                 |
\*---------------------------------------------------------------------------*/
FoamFile
{
    version     2.0;
    format      ascii;
    arch        "LSB;label=32;scalar=64";
    class       volScalarField;
    location    "0.9/fuel";
    object      p_rgh;
}
// * * * * * * * * * * * * * * * * * * * * * * * * * * * * * * * * * * * * * //

dimensions      [1 -1 -2 0 0 0 0];

internalField   nonuniform List<scalar> 
16000
(
100654.4
100646.2
100542.9
100633.1
100631.4
100534.7
100624.5
100454.4
100525.3
100586.3
100605.5
100519.4
100609.1
100447
100516.9
100577.1
100388
100439.8
100486.6
100532.1
100581.1
100493.5
100582.2
100433.3
100501.3
100560.3
100381.5
100432.2
100477.8
100522.1
100337.9
100375.6
100407.6
100441.7
100419
100532.5
100467
100556.5
100410.2
100474.8
100531.3
100369.4
100418.3
100461.4
100503.7
100332.2
100369
100399.9
100432.4
100407.4
100298.8
100327.2
100348.3
100370.3
100348.1
100397.4
100523.7
100420.4
100506.5
100386.3
100447.6
100502.7
100349.3
100394.9
100433.7
100472.2
100321.5
100356.8
100385.4
100415.1
100385.6
100293.7
100321.4
100341.5
100362.2
100337.8
100385.4
100267.4
100289.4
100303.6
100316.6
100292.5
100330.2
100390.5
100516.6
100407.4
100496.5
100345.7
100400.2
100449.5
100328.1
100370.5
100405
100440.4
100303.8
100336.4
100361.2
100386
100349
100284.1
100310.6
100328.9
100347.1
100318.6
100363
100262.8
100284.2
100297.7
100309.6
100283.7
100319.7
100378.5
100241.5
100259
100268.6
100276.2
100250.4
100277.5
100324.5
100378.9
100515.7
100397.8
100488.7
100333.4
100386.7
100437.2
100293.1
100329.5
100356
100383.4
100285
100314.9
100335.7
100355.6
100310.4
100268.3
100292.6
100307.9
100322
100286.6
100325.4
100254.2
100274.5
100286.5
100296.5
100267.3
100300.1
100355.9
100237.3
100254.4
100263.3
100270
100242.9
100268.7
100314
100366.7
100219.9
100234
100240.6
100244.5
100218.8
100237.7
100272.8
100314.8
100369.2
100515.2
100394.8
100487.5
100324.3
100376.8
100428
100282
100316.8
100341.4
100368.4
100254.4
100279.5
100293.7
100304.7
100245.6
100251.5
100273.6
100285.7
100295.4
100252.6
100285.5
100240
100258.6
100268.1
100274.8
100240.3
100267.6
100317.9
100229.5
100245.7
100253.4
100258.6
100228.9
100252
100294.2
100343.7
100216.1
100229.8
100235.8
100239.1
100212.3
100230.2
100263.9
100304.2
100356.8
100201.5
100213.1
100217.5
100219.2
100194.1
100207.8
100233.7
100264.8
100306.8
100357.1
100515.2
100393.5
100486.9
100321.2
100373.7
100425.9
100273.9
100307.6
100330.8
100357.5
100244.4
100268.2
100280.3
100288.8
100225.1
100224.5
100242.8
100249.6
100252.1
100197.7
100219.2
100224.9
100241.6
100248.6
100251.8
100211.3
100232.8
100277.6
100216.7
100231.4
100237.1
100239.6
100205.8
100224.6
100261.5
100305.2
100209
100222
100227
100228.9
100200.1
100215.9
100247.2
100284.3
100333.6
100198
100209.3
100213.2
100214.3
100188.4
100201.3
100226.1
100255.8
100296.1
100344.6
100185.6
100195.3
100198.2
100198.3
100174.3
100184.4
100204.4
100226.9
100258.2
100296.8
100326.5
100515.7
100393.5
100486.9
100319.8
100372.2
100424.9
100271
100304.3
100327.3
100354.5
100237.2
100260
100270.7
100277.5
100210.6
100215.5
100232.6
100237.8
100238
100179.1
100197.6
100200.7
100214.4
100217.2
100214.9
100165.4
100177.2
100210.8
100203
100216.1
100219.8
100219.5
100181.1
100195.2
100226.6
100264.2
100197.2
100209
100212.3
100212.2
100180.1
100192.6
100219.6
100251.3
100294.6
100191.4
100202.1
100205.2
100205.2
100177.6
100188.9
100211.8
100239
100276
100321
100182.4
100191.8
100194.3
100193.9
100169.2
100178.7
100197.8
100219.3
100249.1
100286
100313.6
100171.8
100180
100181.7
100180.8
100158
100165.7
100181.4
100198.5
100221.2
100249.8
100271.5
100333.7
100516.6
100394.8
100487.5
100319.8
100372.2
100424.9
100269.7
100302.9
100325.7
100353.1
100234.6
100257
100267.3
100273.6
100205.7
100209
100225.4
100229.3
100227.9
100166.2
100182.5
100192.6
100205.3
100206.7
100202.5
100149.7
100158.2
100188.9
100181.2
100191.8
100192
100187.4
100142.3
100148.9
100170.6
100196.5
100184.8
100195.2
100196.8
100194.3
100158.7
100167.6
100190.1
100216
100253
100180.7
100190.3
100192
100190.2
100160.1
100168.7
100188.4
100211.2
100242.8
100281.4
100176.4
100185.2
100187
100185.7
100159.6
100167.8
100185.4
100204.9
100232.1
100265.7
100289
100168.8
100176.7
100178.2
100176.8
100153.4
100160.6
100175.6
100191.8
100213.5
100240.8
100260.5
100320.8
100159.6
100166.6
100167.5
100165.9
100144.4
100150.3
100163
100176.2
100193.6
100214.2
100228.8
100277.4
100321.9
100523.7
100397.8
100488.7
100321.2
100373.7
100425.9
100269.7
100302.9
100325.7
100353.1
100233.4
100255.6
100265.7
100271.8
100203.4
100206.6
100222.7
100226.2
100224.3
100161.4
100177.2
100186.7
100198.8
100199.2
100193.7
100138.7
100144.9
100173.5
100173.8
100183.6
100182.7
100176.5
100128.8
100132.8
100151.5
100174
100165
100173.3
100172.1
100166.1
100125.2
100128.4
100143.6
100159.5
100184.5
100169.3
100177.7
100177.9
100174.3
100141.2
100147
100163.3
100181.5
100207.1
100239
100166.5
100174.4
100175
100172.2
100144
100150.1
100165.1
100181.3
100204.2
100232.1
100248.1
100163.2
100170.7
100171.5
100169.3
100144.8
100150.9
100164.7
100179.4
100199.1
100223.6
100239.6
100296.4
100156.8
100163.6
100164.2
100162.2
100140.2
100145.7
100157.8
100170.4
100186.9
100206.4
100219.6
100266.4
100308.8
100148.7
100154.8
100155.1
100153
100132.7
100137.4
100147.9
100158.4
100171.9
100187.4
100196.3
100233.7
100267.7
100319.5
100532.5
100407.4
100496.5
100324.3
100376.8
100428
100271
100304.3
100327.3
100354.5
100233.4
100255.6
100265.7
100271.8
100203.4
100205.5
100221.4
100224.8
100222.6
100159.3
100174.8
100184.5
100196.3
100196.4
100190.5
100134.5
100140
100168.1
100168.6
100177.7
100176
100168.9
100119.4
100121.6
100138.1
100158.4
100158.2
100165.8
100163.7
100156.5
100113.5
100114.7
100127.4
100140.1
100161.6
100151.2
100157.9
100155.7
100149.2
100111.9
100113.3
100124
100134.6
100150.2
100169.4
100156
100162.9
100162.1
100157.8
100127.2
100131
100143.3
100156
100174.2
100196
100203.9
100154.1
100160.7
100160.5
100157.1
100130.8
100135.2
100146.9
100159
100175.4
100195.5
100205.3
100255.1
100151.6
100158
100158.1
100155.4
100132.4
100137
100148.1
100159.4
100174.4
100191.9
100202.1
100245.6
100283.9
100146.2
100152
100152.1
100149.7
100128.9
100133.2
100143.2
100153.2
100166
100180.7
100188.5
100224.5
100256.6
100306.2
100139.1
100144.3
100144.2
100141.8
100122.7
100126.4
100135.2
100143.7
100154.6
100166.5
100172
100200.5
100225.7
100265.7
100316.8
100581.1
100420.4
100506.5
100333.4
100386.7
100437.2
100273.9
100307.6
100330.8
100357.5
100234.6
100257
100267.3
100273.6
100205.7
100205.5
100221.4
100224.8
100222.6
100159.3
100174.8
100183.5
100195.2
100195.2
100189
100132.6
100137.7
100165.6
100166.5
100175.5
100173.5
100166
100115.8
100117.3
100133.1
100152.7
100153.4
100160.5
100157.7
100149.7
100105.4
100105.2
100116.1
100126.6
100145.6
100145
100151
100148.1
100140.5
100101.6
100101.5
100110.2
100118.2
100130.6
100145.9
100139.4
100144.8
100142
100135.2
100101.2
100101.5
100109.5
100116.4
100127
100138.5
100132.3
100144.3
100150.1
100148.7
100144
100115.7
100118.2
100127.8
100137.1
100149.9
100165.2
100168.3
100210.8
100143.2
100148.8
100148
100144.2
100119.7
100122.9
100132.3
100141.5
100153.9
100168
100173.5
100211
100240.9
100141.4
100146.8
100146.4
100143.4
100121.8
100125.3
100134.5
100143.5
100155
100168.1
100173.6
100207
100235.4
100281
100136.7
100141.7
100141.4
100138.7
100119.2
100122.6
100131
100139.1
100149.4
100160.6
100165.2
100192.7
100216.3
100254.4
100303.4
100130.3
100135
100134.5
100131.9
100113.9
100116.8
100124.4
100131.4
100140.3
100149.8
100152.9
100175.6
100193.7
100224
100263.5
100605.5
100467
100556.5
100345.7
100400.2
100449.5
100282
100316.8
100341.4
100368.4
100237.2
100260
100270.7
100277.5
100210.6
100206.6
100222.7
100226.2
100224.3
100161.4
100177.2
100183.5
100195.2
100195.2
100189
100132.6
100137.7
100165.6
100165.6
100174.5
100172.4
100164.7
100114.2
100115.4
100130.9
100150.2
100151.6
100158.5
100155.4
100147.1
100102.3
100101.6
100111.9
100121.5
100139.8
100140.6
100146.2
100142.7
100134.4
100094.5
100093.3
100100.7
100106.9
100117
100129.7
100133.7
100138.5
100135.1
100127.4
100092.1
100091.1
100097.6
100102.6
100110.6
100118.7
100107.3
100129.1
100133.5
100130.4
100123.6
100092.4
100092.1
100098.2
100103.1
100110.1
100117.6
100109.8
100134.4
100134.1
100139
100137.2
100132.3
100106.1
100107.7
100115.4
100122.3
100131.9
100142.3
100142.6
100173.7
100194.8
100133.5
100138.3
100137.1
100133.2
100110.3
100112.5
100120.3
100127.6
100137.1
100147.5
100149.4
100178.1
100199.5
100236.6
100132.2
100136.9
100136.1
100132.9
100112.7
100115.4
100123.1
100130.3
100139.6
100149.6
100152.4
100177.8
100198.6
100233.1
100278
100128.1
100132.5
100131.9
100129
100110.7
100113.3
100120.5
100127.2
100135.6
100144.6
100147
100168.8
100185.7
100214.6
100252.1
100122.4
100126.5
100125.8
100123.1
100106.1
100108.5
100115
100120.9
100128.3
100136
100137.7
100156.1
100169.7
100192.2
100222.2
100631.4
100493.5
100582.2
100386.3
100447.6
100502.7
100293.1
100329.5
100356
100383.4
100244.4
100268.2
100280.3
100288.8
100225.1
100209
100225.4
100229.3
100227.9
100166.2
100182.5
100184.5
100196.3
100196.4
100190.5
100134.5
100140
100168.1
100165.6
100174.5
100172.4
100164.7
100114.2
100115.4
100130.9
100150.2
100150.7
100157.5
100154.4
100145.9
100100.9
100099.9
100109.9
100119.3
100137.2
100138.9
100144.3
100140.6
100132.1
100091.7
100090.1
100097
100102.6
100111.8
100123.7
100129.6
100134.1
100130.2
100121.9
100085.8
100083.9
100089.4
100093
100099.2
100104.9
100090.1
100123.8
100127.7
100124
100116.5
100084.3
100082.9
100087.8
100091.1
100096.2
100101
100089.2
100111.1
100120
100123.7
100120.4
100113.7
100085.1
100084.3
100089.1
100092.6
100097.7
100102.2
100094.4
100111.3
100104.3
100125.1
100129.2
100127.1
100122.2
100097.8
100098.8
100105.1
100110.5
100117.8
100125.4
100123.3
100147
100161
100189.3
100124.8
100129
100127.5
100123.5
100102.1
100103.7
100110.3
100116.1
100123.6
100131.5
100131.5
100153.4
100168.7
100196.1
100231.8
100123.9
100128
100127
100123.7
100104.6
100106.8
100113.3
100119.3
100126.8
100134.7
100135.7
100156
100170.7
100196.7
100230.6
100120.3
100124.2
100123.4
100120.4
100103.1
100105.3
100111.5
100117.1
100124.1
100131.3
100132.4
100150.2
100162.8
100184.2
100212.7
100115.2
100118.8
100118
100115.2
100099.1
100101.1
100106.8
100111.9
100118.1
100124.5
100125.2
100140.5
100150.9
100168.5
100190.7
100646.2
100519.4
100609.1
100410.2
100474.8
100531.3
100328.1
100370.5
100405
100440.4
100254.4
100279.5
100293.7
100304.7
100245.6
100215.5
100232.6
100237.8
100238
100179.1
100197.6
100186.7
100198.8
100199.2
100193.7
100138.7
100144.9
100173.5
100166.5
100175.5
100173.5
100166
100115.8
100117.3
100133.1
100152.7
100150.7
100157.5
100154.4
100145.9
100100.9
100099.9
100109.9
100119.3
100137.2
100138.1
100143.5
100139.7
100131
100090.5
100088.7
100095.4
100100.7
100109.5
100121
100128
100132.4
100128.3
100119.8
100083.3
100081.1
100086.2
100089.3
100094.9
100099.7
100083.5
100120
100123.6
100119.6
100111.5
100078.6
100076.5
100080.6
100082.9
100086.6
100089.6
100075
100095.1
100115.1
100118.3
100114.5
100107.2
100077.7
100076
100079.9
100082.1
100085.7
100088.2
100077.3
100092
100084.1
100111.9
100115
100111.7
100105.1
100078.7
100077.7
100081.6
100084.2
100087.9
100090.9
100082.8
100095.5
100087.6
100083.6
100116.9
100120.5
100118.3
100113.3
100090.7
100091.2
100096.5
100100.8
100106.5
100112.1
100109
100127
100136.6
100156.6
100182.9
100117
100120.6
100119
100114.9
100094.9
100096.1
100101.7
100106.4
100112.5
100118.7
100117.5
100134.9
100145.4
100165.9
100192.2
100116.3
100120
100118.8
100115.4
100097.6
100099.2
100104.9
100109.9
100116.1
100122.5
100122.5
100138.9
100149.9
100169.1
100194.7
100113.2
100116.7
100115.7
100112.7
100096.4
100098.1
100103.6
100108.4
100114.3
100120.2
100120.4
100135.3
100144.9
100161.6
100182.6
100108.6
100111.8
100110.9
100108.1
100092.9
100094.5
100099.6
100103.9
100109.3
100114.6
100114.6
100127.7
100135.9
100149.8
100167.1
100654.4
100534.7
100624.5
100433.3
100501.3
100560.3
100349.3
100394.9
100433.7
100472.2
100285
100314.9
100335.7
100355.6
100310.4
100224.5
100242.8
100249.6
100252.1
100197.7
100219.2
100192.6
100205.3
100206.7
100202.5
100149.7
100158.2
100188.9
100168.6
100177.7
100176
100168.9
100119.4
100121.6
100138.1
100158.4
100151.6
100158.5
100155.4
100147.1
100102.3
100101.6
100111.9
100121.5
100139.8
100138.1
100143.5
100139.7
100131
100090.5
100088.7
100095.4
100100.7
100109.5
100121
100127.3
100131.6
100127.4
100118.9
100082.2
100079.9
100084.8
100087.7
100092.9
100097.4
100080.6
100118.6
100122.1
100117.8
100109.6
100076.4
100074
100077.8
100079.7
100082.9
100085.2
100069.5
100089.2
100111.6
100114.6
100110.4
100102.7
100072.5
100070.3
100073.5
100074.9
100077.4
100078.5
100065.6
100078.7
100070.5
100107.3
100110.1
100106.2
100099.2
100072
100070.2
100073.4
100074.9
100077.4
100078.8
100068.5
100079.5
100071.2
100067.6
100104.7
100107.3
100103.9
100097.7
100073.2
100072
100075.3
100077.2
100080
100081.9
100074.3
100083.7
100076.3
100071.3
100031
100109.6
100112.7
100110.4
100105.5
100084.4
100084.6
100089.1
100092.6
100097.2
100101.4
100097.8
100112.2
100118.3
100133
100151.5
100109.9
100113.1
100111.3
100107.3
100088.5
100089.4
100094.2
100098.2
100103.2
100108.1
100106.3
100120.4
100128.1
100143.1
100162.7
100109.5
100112.7
100111.4
100108.1
100091.2
100092.5
100097.5
100101.7
100107
100112.2
100111.5
100125.3
100133.5
100148.5
100167.4
100106.7
100109.8
100108.7
100105.7
100090.3
100091.8
100096.6
100100.7
100105.8
100110.7
100110.4
100123
100130.6
100143.8
100160.2
100102.5
100105.4
100104.4
100101.6
100087.2
100088.6
100093.1
100096.9
100101.5
100106
100105.6
100116.9
100123.6
100135
100148.7
100542.9
100633.1
100447
100516.9
100577.1
100369.4
100418.3
100461.4
100503.7
100303.8
100336.4
100361.2
100386
100349
100251.5
100273.6
100285.7
100295.4
100252.6
100285.5
100200.7
100214.4
100217.2
100214.9
100165.4
100177.2
100210.8
100173.8
100183.6
100182.7
100176.5
100128.8
100132.8
100151.5
100174
100153.4
100160.5
100157.7
100149.7
100105.4
100105.2
100116.1
100126.6
100145.6
100138.9
100144.3
100140.6
100132.1
100091.7
100090.1
100097
100102.6
100111.8
100123.7
100127.3
100131.6
100127.4
100118.9
100082.2
100079.9
100084.8
100087.7
100092.9
100097.4
100080.6
100117.9
100121.3
100117
100108.7
100075.4
100072.9
100076.5
100078.2
100081.2
100083.2
100067.1
100086.7
100110.2
100113.1
100108.8
100100.9
100070.5
100068.1
100071
100072.1
100074.2
100074.8
100061
100073.8
100065.8
100104.1
100106.6
100102.4
100095
100067.3
100065.1
100067.6
100068.5
100070.1
100070.5
100058.6
100068.6
100060
100057
100100.4
100102.7
100098.9
100092.2
100067
100065.2
100067.8
100068.9
100070.7
100071.4
100062
100070.3
100062.7
100058.3
100030.1
100098.2
100100.4
100097.1
100091.1
100068.4
100067.1
100069.9
100071.3
100073.5
100074.8
100067.5
100075.1
100067.7
100063
100029.9
100029.9
100103
100105.7
100103.3
100098.6
100078.8
100078.9
100082.7
100085.6
100089.3
100092.7
100088.8
100100.6
100104.7
100115.3
100128.9
100103.4
100106.2
100104.4
100100.5
100082.9
100083.5
100087.7
100091
100095.3
100099.2
100097
100108.9
100114.5
100126.1
100140.4
100103.2
100106.1
100104.7
100101.4
100085.5
100086.6
100091
100094.6
100099.1
100103.4
100102.3
100114
100120.5
100132.3
100147
100100.7
100103.5
100102.3
100099.4
100084.9
100086
100090.3
100093.9
100098.3
100102.5
100101.8
100112.7
100118.8
100129.6
100142.6
100096.8
100099.5
100098.4
100095.6
100082.1
100083.2
100087.3
100090.6
100094.7
100098.6
100097.9
100107.7
100113.2
100122.7
100133.9
100454.4
100525.3
100586.3
100381.5
100432.2
100477.8
100522.1
100321.5
100356.8
100385.4
100415.1
100385.6
100268.3
100292.6
100307.9
100322
100286.6
100325.4
100224.9
100241.6
100248.6
100251.8
100211.3
100232.8
100277.6
100181.2
100191.8
100192
100187.4
100142.3
100148.9
100170.6
100196.5
100158.2
100165.8
100163.7
100156.5
100113.5
100114.7
100127.4
100140.1
100161.6
100140.6
100146.2
100142.7
100134.4
100094.5
100093.3
100100.7
100106.9
100117
100129.7
100128
100132.4
100128.3
100119.8
100083.3
100081.1
100086.2
100089.3
100094.9
100099.7
100083.5
100117.9
100121.3
100117
100108.7
100075.4
100072.9
100076.5
100078.2
100081.2
100083.2
100067.1
100086.7
100109.6
100112.4
100108.1
100100.1
100069.6
100067.1
100069.9
100070.8
100072.7
100073.2
100059
100071.6
100063.7
100102.8
100105.2
100101
100093.4
100065.5
100063
100065.4
100066
100067.3
100067.3
100054.8
100064.5
100056.2
100053.7
100097.4
100099.5
100095.4
100088.3
100062.8
100060.5
100062.7
100063.1
100064.3
100064.1
100053.5
100061.1
100053.5
100049.7
100029.8
100094.2
100096.1
100092.4
100086
100062.7
100060.9
100063.1
100063.8
100065.2
100065.5
100056.7
100063.5
100056.3
100052.3
100029.2
100029.8
100092.3
100094.2
100090.9
100085.1
100064
100062.7
100065.1
100066.3
100068
100068.8
100062
100068.2
100061.3
100056.6
100029.3
100029
100029.8
100096.9
100099.3
100096.9
100092.3
100073.9
100073.7
100077.1
100079.5
100082.6
100085.3
100081.4
100091.3
100094.1
100102.1
100111.8
100097.5
100100
100098.1
100094.3
100077.7
100078.2
100081.9
100084.7
100088.4
100091.6
100089.2
100099.3
100103.6
100112.7
100123.8
100097.4
100100
100098.5
100095.3
100080.4
100081.2
100085.1
100088.3
100092.2
100095.8
100094.4
100104.6
100109.7
100119.4
100131
100095.1
100097.7
100096.5
100093.6
100079.9
100080.8
100084.7
100087.8
100091.7
100095.3
100094.3
100103.8
100108.9
100117.9
100128.5
100091.6
100094
100092.9
100090.2
100077.4
100078.3
100082
100085
100088.6
100091.9
100091
100099.8
100104.3
100112.4
100121.8
100388
100439.8
100486.6
100532.1
100332.2
100369
100399.9
100432.4
100407.4
100284.1
100310.6
100328.9
100347.1
100318.6
100363
100240
100258.6
100268.1
100274.8
100240.3
100267.6
100317.9
100203
100216.1
100219.8
100219.5
100181.1
100195.2
100226.6
100264.2
100165
100173.3
100172.1
100166.1
100125.2
100128.4
100143.6
100159.5
100184.5
100145
100151
100148.1
100140.5
100101.6
100101.5
100110.2
100118.2
100130.6
100145.9
100129.6
100134.1
100130.2
100121.9
100085.8
100083.9
100089.4
100093
100099.2
100104.9
100090.1
100118.6
100122.1
100117.8
100109.6
100076.4
100074
100077.8
100079.7
100082.9
100085.2
100069.5
100089.2
100109.6
100112.4
100108.1
100100.1
100069.6
100067.1
100069.9
100070.8
100072.7
100073.2
100059
100071.6
100063.7
100102.3
100104.6
100100.3
100092.7
100064.7
100062.1
100064.4
100064.9
100066
100065.9
100053.1
100062.6
100054.4
100052.3
100096.2
100098.2
100094
100086.8
100061.1
100058.7
100060.7
100060.9
100061.8
100061.3
100050.2
100057.6
100050.3
100047
100029.8
100091.3
100093.1
100089.1
100082.4
100058.7
100056.6
100058.4
100058.6
100059.4
100059
100049.4
100055.6
100048.6
100045.2
100029
100029.7
100088.5
100090.2
100086.6
100080.4
100058.8
100057
100058.9
100059.4
100060.5
100060.5
100052.5
100058.1
100051.6
100047.6
100028.8
100028.9
100029.8
100086.8
100088.5
100085.3
100079.8
100060.1
100058.9
100060.9
100061.8
100063.2
100063.8
100057.4
100062.6
100056.2
100051.8
100028.5
100028.6
100029
100029.8
100091.3
100093.4
100091.1
100086.7
100069.4
100069.1
100072.1
100074.1
100076.8
100078.9
100075.1
100083.6
100085.5
100091.8
100099.2
100092
100094.3
100092.4
100088.7
100073.1
100073.4
100076.7
100079.2
100082.3
100085
100082.5
100091.3
100094.6
100102
100110.7
100092
100094.4
100092.9
100089.8
100075.6
100076.3
100079.8
100082.6
100086
100089.2
100087.6
100096.5
100100.7
100108.8
100118.3
100090
100092.3
100091.1
100088.3
100075.3
100076.1
100079.6
100082.4
100085.8
100088.9
100087.8
100096.2
100100.4
100108.1
100116.9
100086.7
100088.9
100087.8
100085.2
100073
100073.9
100077.2
100079.8
100083.1
100086
100085
100092.8
100096.7
100103.6
100111.6
100337.9
100375.6
100407.6
100441.7
100419
100293.7
100321.4
100341.5
100362.2
100337.8
100385.4
100254.2
100274.5
100286.5
100296.5
100267.3
100300.1
100355.9
100216.7
100231.4
100237.1
100239.6
100205.8
100224.6
100261.5
100305.2
100184.8
100195.2
100196.8
100194.3
100158.7
100167.6
100190.1
100216
100253
100151.2
100157.9
100155.7
100149.2
100111.9
100113.3
100124
100134.6
100150.2
100169.4
100133.7
100138.5
100135.1
100127.4
100092.1
100091.1
100097.6
100102.6
100110.6
100118.7
100107.3
100120
100123.6
100119.6
100111.5
100078.6
100076.5
100080.6
100082.9
100086.6
100089.6
100075
100095.1
100110.2
100113.1
100108.8
100100.9
100070.5
100068.1
100071
100072.1
100074.2
100074.8
100061
100073.8
100065.8
100102.3
100104.6
100100.3
100092.7
100064.7
100062.1
100064.4
100064.9
100066
100065.9
100053.1
100062.6
100054.4
100052.3
100095.7
100097.6
100093.4
100086.1
100060.4
100057.9
100059.8
100059.9
100060.7
100060.1
100048.8
100056.1
100048.9
100045.9
100029.8
100090.2
100091.9
100087.9
100081
100057.2
100054.9
100056.5
100056.6
100057.2
100056.5
100046.5
100052.7
100045.9
100043
100029
100029.7
100085.8
100087.3
100083.5
100077.1
100055.1
100053.1
100054.6
100054.7
100055.3
100054.7
100046
100051.2
100045
100041.7
100028.6
100028.9
100029.7
100083.3
100084.8
100081.3
100075.4
100055.3
100053.6
100055.2
100055.6
100056.4
100056.2
100048.9
100053.7
100047.7
100044.2
100028
100028.6
100029
100029.8
100081.9
100083.4
100080.3
100075
100056.6
100055.3
100057.2
100057.9
100059.1
100059.4
100053.5
100058
100052.1
100047.9
100027.8
100027.9
100028.6
100029
100029.7
100086.2
100088.1
100085.8
100081.5
100065.3
100065
100067.6
100069.4
100071.6
100073.4
100069.7
100077.1
100078.4
100083.5
100089.2
100086.9
100089
100087.1
100083.5
100068.8
100069
100072
100074.2
100076.9
100079.2
100076.7
100084.4
100087
100093.2
100100.3
100087
100089.2
100087.7
100084.7
100071.3
100071.9
100075
100077.5
100080.6
100083.3
100081.6
100089.5
100093
100099.8
100107.7
100085.2
100087.3
100086.1
100083.4
100071
100071.7
100074.9
100077.4
100080.5
100083.2
100082
100089.5
100093.1
100099.7
100107.2
100082.1
100084.2
100083
100080.5
100069
100069.7
100072.7
100075.2
100078.1
100080.7
100079.6
100086.6
100089.9
100096
100102.8
100298.8
100327.2
100348.3
100370.3
100348.1
100397.4
100262.8
100284.2
100297.7
100309.6
100283.7
100319.7
100378.5
100229.5
100245.7
100253.4
100258.6
100228.9
100252
100294.2
100343.7
100197.2
100209
100212.3
100212.2
100180.1
100192.6
100219.6
100251.3
100294.6
100169.3
100177.7
100177.9
100174.3
100141.2
100147
100163.3
100181.5
100207.1
100239
100139.4
100144.8
100142
100135.2
100101.2
100101.5
100109.5
100116.4
100127
100138.5
100132.3
100123.8
100127.7
100124
100116.5
100084.3
100082.9
100087.8
100091.1
100096.2
100101
100089.2
100111.1
100111.6
100114.6
100110.4
100102.7
100072.5
100070.3
100073.5
100074.9
100077.4
100078.5
100065.6
100078.7
100070.5
100102.8
100105.2
100101
100093.4
100065.5
100063
100065.4
100066
100067.3
100067.3
100054.8
100064.5
100056.2
100053.7
100095.7
100097.6
100093.4
100086.1
100060.4
100057.9
100059.8
100059.9
100060.7
100060.1
100048.8
100056.1
100048.9
100045.9
100029.8
100089.7
100091.4
100087.3
100080.4
100056.5
100054.2
100055.7
100055.7
100056.2
100055.4
100045.2
100051.3
100044.7
100042.1
100029
100029.7
100084.8
100086.2
100082.3
100075.8
100053.7
100051.5
100052.9
100052.9
100053.3
100052.5
100043.5
100048.6
100042.7
100039.8
100028.6
100028.9
100029.7
100080.8
100082.1
100078.4
100072.3
100051.9
100049.9
100051.3
100051.3
100051.7
100051.1
100043.1
100047.6
100041.9
100039.1
100027.9
100028.5
100028.9
100029.7
100078.5
100079.8
100076.4
100070.9
100052.1
100050.4
100051.9
100052.2
100052.8
100052.6
100045.9
100050
100044.6
100041.3
100027.4
100027.8
100028.6
100029
100029.7
100077.3
100078.6
100075.6
100070.6
100053.4
100052.1
100053.8
100054.4
100055.4
100055.6
100050.1
100054
100048.5
100044.8
100027.1
100027.3
100027.9
100028.6
100028.9
100029.7
100081.4
100083.2
100080.9
100076.8
100061.5
100061.2
100063.6
100065.1
100067.1
100068.5
100065
100071.5
100072.4
100076.6
100081.2
100082.2
100084.1
100082.2
100078.8
100064.9
100065
100067.7
100069.7
100072.1
100074.1
100071.6
100078.5
100080.6
100085.8
100091.6
100082.4
100084.4
100082.9
100079.9
100067.3
100067.8
100070.7
100072.9
100075.6
100078
100076.2
100083.3
100086.3
100092.2
100098.9
100080.7
100082.7
100081.4
100078.8
100067.1
100067.7
100070.6
100072.9
100075.6
100078.1
100076.8
100083.6
100086.6
100092.4
100098.9
100077.9
100079.8
100078.6
100076.2
100065.2
100065.9
100068.7
100070.9
100073.5
100075.8
100074.7
100081.1
100084
100089.3
100095.3
100267.4
100289.4
100303.6
100316.6
100292.5
100330.2
100390.5
100237.3
100254.4
100263.3
100270
100242.9
100268.7
100314
100366.7
100209
100222
100227
100228.9
100200.1
100215.9
100247.2
100284.3
100333.6
100180.7
100190.3
100192
100190.2
100160.1
100168.7
100188.4
100211.2
100242.8
100281.4
100156
100162.9
100162.1
100157.8
100127.2
100131
100143.3
100156
100174.2
100196
100203.9
100129.1
100133.5
100130.4
100123.6
100092.4
100092.1
100098.2
100103.1
100110.1
100117.6
100109.8
100134.4
100115.1
100118.3
100114.5
100107.2
100077.7
100076
100079.9
100082.1
100085.7
100088.2
100077.3
100092
100084.1
100104.1
100106.6
100102.4
100095
100067.3
100065.1
100067.6
100068.5
100070.1
100070.5
100058.6
100068.6
100060
100057
100096.2
100098.2
100094
100086.8
100061.1
100058.7
100060.7
100060.9
100061.8
100061.3
100050.2
100057.6
100050.3
100047
100029.8
100089.7
100091.4
100087.3
100080.4
100056.5
100054.2
100055.7
100055.7
100056.2
100055.4
100045.2
100051.3
100044.7
100042.1
100029
100029.7
100084.3
100085.7
100081.8
100075.2
100053.1
100050.8
100052.2
100052.1
100052.4
100051.5
100042.3
100047.5
100041.6
100039
100028.6
100028.9
100029.7
100079.8
100081.1
100077.3
100071.1
100050.6
100048.5
100049.7
100049.6
100049.8
100049
100040.9
100045.3
100039.9
100037.5
100027.9
100028.5
100028.9
100029.7
100076.2
100077.3
100073.8
100068
100048.9
100047.1
100048.3
100048.2
100048.5
100047.9
100040.6
100044.5
100039.5
100036.8
100027.3
100027.8
100028.6
100028.9
100029.7
100074.1
100075.3
100072
100066.8
100049.1
100047.6
100048.9
100049.1
100049.6
100049.3
100043.1
100046.8
100041.8
100038.9
100026.7
100027.3
100027.9
100028.6
100028.9
100029.7
100073
100074.2
100071.3
100066.6
100050.4
100049.2
100050.7
100051.2
100052
100052.2
100047.1
100050.5
100045.5
100042
100026.4
100026.6
100027.3
100027.9
100028.6
100028.9
100029.7
100077
100078.6
100076.4
100072.5
100058.1
100057.7
100059.9
100061.2
100063
100064.2
100060.8
100066.6
100067.3
100070.8
100074.6
100077.8
100079.5
100077.7
100074.4
100061.3
100061.4
100063.8
100065.5
100067.7
100069.5
100067
100073.2
100074.9
100079.4
100084.4
100078
100079.9
100078.4
100075.6
100063.6
100064
100066.7
100068.7
100071.1
100073.2
100071.5
100077.9
100080.4
100085.5
100091.3
100076.5
100078.3
100077.1
100074.5
100063.5
100064
100066.7
100068.7
100071.2
100073.4
100072.1
100078.3
100080.9
100086
100091.7
100073.8
100075.6
100074.5
100072.1
100061.7
100062.3
100064.9
100066.9
100069.3
100071.4
100070.2
100076.1
100078.6
100083.4
100088.7
100241.5
100259
100268.6
100276.2
100250.4
100277.5
100324.5
100378.9
100216.1
100229.8
100235.8
100239.1
100212.3
100230.2
100263.9
100304.2
100356.8
100191.4
100202.1
100205.2
100205.2
100177.6
100188.9
100211.8
100239
100276
100321
100166.5
100174.4
100175
100172.2
100144
100150.1
100165.1
100181.3
100204.2
100232.1
100248.1
100144.3
100150.1
100148.7
100144
100115.7
100118.2
100127.8
100137.1
100149.9
100165.2
100168.3
100210.8
100120
100123.7
100120.4
100113.7
100085.1
100084.3
100089.1
100092.6
100097.7
100102.2
100094.4
100111.3
100104.3
100107.3
100110.1
100106.2
100099.2
100072
100070.2
100073.4
100074.9
100077.4
100078.8
100068.5
100079.5
100071.2
100067.6
100097.4
100099.5
100095.4
100088.3
100062.8
100060.5
100062.7
100063.1
100064.3
100064.1
100053.5
100061.1
100053.5
100049.7
100029.8
100090.2
100091.9
100087.9
100081
100057.2
100054.9
100056.5
100056.6
100057.2
100056.5
100046.5
100052.7
100045.9
100043
100029
100029.7
100084.3
100085.7
100081.8
100075.2
100053.1
100050.8
100052.2
100052.1
100052.4
100051.5
100042.3
100047.5
100041.6
100039
100028.6
100028.9
100029.7
100079.4
100080.6
100076.8
100070.6
100050
100047.9
100049
100048.9
100049
100048.1
100039.8
100044.3
100039
100036.8
100027.9
100028.5
100028.9
100029.7
100075.3
100076.3
100072.7
100066.9
100047.7
100045.7
100046.8
100046.7
100046.8
100046
100038.6
100042.5
100037.7
100035.4
100027.3
100027.8
100028.6
100028.9
100029.7
100071.9
100072.9
100069.5
100064.1
100046.2
100044.4
100045.5
100045.4
100045.7
100045
100038.4
100041.9
100037.3
100035
100026.6
100027.3
100027.9
100028.6
100028.9
100029.7
100070
100071
100067.9
100062.9
100046.4
100045
100046.2
100046.3
100046.7
100046.4
100040.7
100044
100039.5
100036.8
100026.1
100026.6
100027.3
100027.9
100028.6
100028.9
100029.7
100069.1
100070.1
100067.4
100062.8
100047.6
100046.5
100047.9
100048.3
100049
100049.1
100044.3
100047.5
100042.8
100039.6
100025.6
100026
100026.6
100027.3
100027.9
100028.6
100028.9
100029.7
100072.9
100074.3
100072.2
100068.5
100054.9
100054.5
100056.5
100057.7
100059.2
100060.3
100057
100062.3
100062.8
100065.8
100068.9
100073.7
100075.3
100073.5
100070.3
100057.9
100058
100060.2
100061.8
100063.7
100065.3
100062.9
100068.5
100069.9
100073.9
100078.1
100074
100075.6
100074.2
100071.5
100060.2
100060.5
100062.9
100064.8
100067
100068.9
100067.1
100073
100075.1
100079.7
100084.8
100072.5
100074.2
100073
100070.6
100060
100060.5
100063
100064.9
100067.2
100069.2
100067.8
100073.5
100075.8
100080.3
100085.3
100070
100071.7
100070.6
100068.3
100058.4
100058.9
100061.4
100063.2
100065.4
100067.4
100066.2
100071.6
100073.8
100078.1
100082.8
100219.9
100234
100240.6
100244.5
100218.8
100237.7
100272.8
100314.8
100369.2
100198
100209.3
100213.2
100214.3
100188.4
100201.3