/*--------------------------------*- C++ -*----------------------------------*\
| =========                 |                                                 |
| \\      /  F ield         | OpenFOAM: The Open Source CFD Toolbox           |
|  \\    /   O peration     | Version:  2306                                  |
|   \\  /    A nd           | Website:  www.openfoam.com                      |
|    \\/     M anipulation  |                                                 |
\*---------------------------------------------------------------------------*/
FoamFile
{
    version     2.0;
    format      ascii;
    arch        "LSB;label=32;scalar=64";
    class       volScalarField;
    location    "0.9/fuel";
    object      T;
}
// * * * * * * * * * * * * * * * * * * * * * * * * * * * * * * * * * * * * * //

dimensions      [0 0 0 1 0 0 0];

internalField   nonuniform List<scalar> 
16000
(
1252.308
1252.132
1254.421
1252.323
1251.729
1254.41
1252.149
1256.317
1254.431
1252.344
1250.983
1254.383
1251.746
1256.35
1254.42
1252.17
1258.053
1256.321
1254.445
1252.371
1249.737
1254.328
1251.004
1256.423
1254.392
1251.77
1258.097
1256.354
1254.434
1252.197
1259.706
1258.053
1256.33
1254.465
1252.403
1247.922
1254.22
1249.766
1256.548
1254.334
1251.031
1258.195
1256.425
1254.405
1251.799
1259.752
1258.097
1256.362
1254.453
1252.23
1261.304
1259.703
1258.058
1256.344
1254.489
1252.44
1245.869
1254.029
1247.965
1256.738
1254.224
1249.802
1258.367
1256.548
1254.346
1251.065
1259.853
1258.193
1256.433
1254.424
1251.833
1261.347
1259.748
1258.101
1256.376
1254.477
1252.269
1262.852
1261.297
1259.704
1258.067
1256.362
1254.519
1252.478
1243.993
1253.737
1245.932
1256.977
1254.028
1248.014
1258.635
1256.734
1254.233
1249.843
1260.031
1258.363
1256.553
1254.363
1251.104
1261.445
1259.848
1258.196
1256.445
1254.447
1251.874
1262.894
1261.34
1259.748
1258.109
1256.393
1254.506
1252.308
1264.353
1262.844
1261.295
1259.709
1258.08
1256.385
1254.549
1252.517
1242.598
1253.403
1244.076
1257.175
1253.734
1246.001
1258.989
1256.965
1254.032
1248.069
1260.312
1258.626
1256.734
1254.247
1249.891
1261.618
1260.024
1258.363
1256.563
1254.385
1251.15
1262.986
1261.437
1259.847
1258.204
1256.461
1254.476
1251.916
1264.392
1262.885
1261.338
1259.753
1258.122
1256.416
1254.536
1252.347
1265.804
1264.342
1262.839
1261.297
1259.718
1258.098
1256.409
1254.579
1252.556
1241.86
1253.117
1242.695
1257.301
1253.402
1244.163
1259.325
1257.157
1253.736
1246.074
1260.686
1258.972
1256.957
1254.041
1248.13
1261.89
1260.3
1258.622
1256.739
1254.266
1249.945
1263.15
1261.608
1260.021
1258.368
1256.577
1254.413
1251.196
1264.479
1262.976
1261.434
1259.85
1258.215
1256.483
1254.505
1251.958
1265.841
1264.381
1262.879
1261.339
1259.761
1258.14
1256.439
1254.566
1252.387
1267.204
1265.792
1264.335
1262.838
1261.303
1259.732
1258.117
1256.433
1254.609
1252.595
1241.86
1252.954
1241.965
1257.365
1253.119
1242.796
1259.585
1257.28
1253.406
1244.254
1261.052
1259.302
1257.144
1253.744
1246.152
1262.256
1260.668
1258.96
1256.955
1254.055
1248.196
1263.41
1261.877
1260.292
1258.622
1256.749
1254.291
1250.001
1264.635
1263.139
1261.602
1260.022
1258.377
1256.596
1254.441
1251.244
1265.924
1264.468
1262.97
1261.434
1259.858
1258.232
1256.505
1254.535
1252.001
1267.239
1265.828
1264.374
1262.878
1261.345
1259.775
1258.158
1256.463
1254.596
1252.428
1268.552
1267.191
1265.783
1264.332
1262.841
1261.313
1259.746
1258.135
1256.457
1254.639
1252.784
1242.598
1252.954
1241.965
1257.39
1252.957
1242.073
1259.755
1257.343
1253.126
1242.901
1261.344
1259.559
1257.265
1253.416
1244.35
1262.617
1261.027
1259.284
1257.136
1253.757
1246.236
1263.759
1262.236
1260.653
1258.953
1256.957
1254.075
1248.264
1264.88
1263.395
1261.867
1260.289
1258.626
1256.763
1254.316
1250.057
1266.071
1264.622
1263.131
1261.601
1260.027
1258.391
1256.616
1254.469
1251.292
1267.318
1265.911
1264.46
1262.968
1261.438
1259.87
1258.248
1256.527
1254.564
1252.044
1268.585
1267.226
1265.82
1264.371
1262.881
1261.354
1259.788
1258.175
1256.486
1254.626
1252.623
1269.847
1268.538
1267.181
1265.779
1264.333
1262.848
1261.323
1259.76
1258.153
1256.48
1254.787
1253.145
1243.993
1253.117
1242.695
1257.39
1252.957
1242.073
1259.837
1257.368
1252.966
1242.186
1261.54
1259.726
1257.327
1253.138
1243.011
1262.908
1261.316
1259.537
1257.254
1253.43
1244.451
1264.104
1262.592
1261.007
1259.271
1257.133
1253.775
1246.32
1265.211
1263.738
1262.221
1260.643
1258.95
1256.964
1254.096
1248.331
1266.304
1264.864
1263.383
1261.862
1260.29
1258.635
1256.778
1254.341
1250.115
1267.458
1266.057
1264.612
1263.127
1261.603
1260.037
1258.405
1256.636
1254.498
1251.341
1268.661
1267.304
1265.901
1264.456
1262.97
1261.447
1259.882
1258.265
1256.549
1254.594
1252.254
1269.88
1268.571
1267.216
1265.815
1264.371
1262.888
1261.364
1259.802
1258.193
1256.509
1254.773
1253.002
1271.09
1269.833
1268.527
1267.175
1265.778
1264.338
1262.855
1261.333
1259.774
1258.172
1256.597
1255.056
1253.525
1245.869
1253.403
1244.076
1257.365
1253.119
1242.796
1259.837
1257.368
1252.966
1242.186
1261.638
1259.808
1257.351
1252.98
1242.303
1263.106
1261.51
1259.702
1257.315
1253.154
1243.125
1264.384
1262.88
1261.292
1259.52
1257.248
1253.45
1244.552
1265.54
1264.079
1262.571
1260.992
1259.262
1257.135
1253.794
1246.404
1266.618
1265.19
1263.722
1262.21
1260.638
1258.952
1256.972
1254.117
1248.399
1267.68
1266.287
1264.852
1263.376
1261.86
1260.296
1258.644
1256.793
1254.367
1250.173
1268.794
1267.443
1266.046
1264.606
1263.127
1261.61
1260.047
1258.419
1256.655
1254.526
1251.579
1269.952
1268.646
1267.293
1265.896
1264.455
1262.976
1261.456
1259.895
1258.281
1256.571
1254.738
1252.675
1271.121
1269.865
1268.56
1267.209
1265.813
1264.375
1262.894
1261.374
1259.815
1258.211
1256.623
1255.041
1253.406
1272.281
1271.075
1269.822
1268.52
1267.172
1265.78
1264.343
1262.863
1261.344
1259.787
1258.263
1256.804
1255.326
1253.92
1247.922
1253.737
1245.932
1257.301
1253.402
1244.163
1259.755
1257.343
1253.126
1242.901
1261.638
1259.808
1257.351
1252.98
1242.303
1263.205
1261.607
1259.783
1257.339
1252.998
1242.425
1264.575
1263.076
1261.485
1259.683
1257.308
1253.177
1243.24
1265.807
1264.356
1262.856
1261.273
1259.507
1257.247
1253.47
1244.653
1266.93
1265.515
1264.058
1262.555
1260.981
1259.258
1257.137
1253.813
1246.487
1267.979
1266.597
1265.173
1263.709
1262.202
1260.637
1258.954
1256.979
1254.137
1248.468
1269.006
1267.662
1266.273
1264.843
1263.373
1261.863
1260.301
1258.654
1256.807
1254.393
1250.453
1270.08
1268.778
1267.431
1266.039
1264.604
1263.131
1261.616
1260.057
1258.433
1256.674
1254.665
1252.073
1271.191
1269.936
1268.634
1267.286
1265.894
1264.459
1262.982
1261.464
1259.907
1258.298
1256.679
1255.005
1253.136
1272.311
1271.106
1269.853
1268.553
1267.207
1265.816
1264.38
1262.901
1261.384
1259.828
1258.3
1256.825
1255.312
1253.831
1273.42
1272.266
1271.064
1269.814
1268.516
1267.173
1265.783
1264.347
1262.87
1261.354
1259.858
1258.423
1257.007
1255.599
1254.327
1249.737
1254.029
1247.965
1257.175
1253.734
1246.001
1259.585
1257.28
1253.406
1244.254
1261.54
1259.726
1257.327
1253.138
1243.011
1263.205
1261.607
1259.783
1257.339
1252.998
1242.425
1264.671
1263.174
1261.581
1259.763
1257.332
1253.022
1242.546
1265.99
1264.546
1263.05
1261.464
1259.669
1257.306
1253.199
1243.353
1267.185
1265.779
1264.333
1262.836
1261.259
1259.5
1257.246
1253.49
1244.752
1268.277
1266.906
1265.494
1264.041
1262.543
1260.974
1259.254
1257.139
1253.832
1246.57
1269.292
1267.958
1266.58
1265.16
1263.701
1262.199
1260.636
1258.956
1256.987
1254.158
1248.792
1270.283
1268.988
1267.648
1266.264
1264.838
1263.373
1261.865
1260.306
1258.662
1256.822
1254.519
1251.036
1271.314
1270.063
1268.766
1267.422
1266.035
1264.606
1263.135
1261.623
1260.066
1258.446
1256.77
1254.928
1252.633
1272.377
1271.175
1269.924
1268.626
1267.283
1265.895
1264.462
1262.987
1261.473
1259.919
1258.379
1256.868
1255.278
1253.631
1273.448
1272.295
1271.094
1269.845
1268.549
1267.207
1265.818
1264.384
1262.908
1261.393
1259.896
1258.453
1257.023
1255.587
1254.271
1274.507
1273.404
1272.254
1271.055
1269.809
1268.516
1267.174
1265.786
1264.352
1262.877
1261.406
1259.978
1258.577
1257.208
1255.873
1250.983
1254.22
1249.766
1256.977
1254.028
1248.014
1259.325
1257.157
1253.736
1246.074
1261.344
1259.559
1257.265
1253.416
1244.35
1263.106
1261.51
1259.702
1257.315
1253.154
1243.125
1264.671
1263.174
1261.581
1259.763
1257.332
1253.022
1242.546
1266.081
1264.641
1263.148
1261.559
1259.748
1257.33
1253.046
1242.666
1267.359
1265.961
1264.521
1263.029
1261.447
1259.66
1257.304
1253.221
1243.465
1268.52
1267.158
1265.756
1264.313
1262.821
1261.248
1259.492
1257.245
1253.509
1244.851
1269.577
1268.252
1266.885
1265.477
1264.029
1262.535
1260.968
1259.25
1257.141
1253.851
1246.96
1270.557
1269.271
1267.94
1266.566
1265.151
1263.697
1262.196
1260.635
1258.958
1256.994
1254.261
1249.392
1271.509
1270.264
1268.973
1267.637
1266.257
1264.837
1263.374
1261.868
1260.312
1258.671
1256.894
1254.766
1251.709
1272.496
1271.297
1270.05
1268.757
1267.418
1266.035
1264.608
1263.138
1261.629
1260.076
1258.515
1256.936
1255.204
1253.254
1273.513
1272.362
1271.162
1269.915
1268.622
1267.283
1265.897
1264.466
1262.993
1261.482
1259.979
1258.518
1257.054
1255.558
1254.15
1274.535
1273.433
1272.283
1271.085
1269.84
1268.548
1267.208
1265.82
1264.388
1262.915
1261.443
1260.01
1258.6
1257.218
1255.864
1275.544
1274.492
1273.392
1272.245
1271.05
1269.807
1268.516
1267.175
1265.788
1264.357
1262.914
1261.494
1260.094
1258.728
1257.408
1251.729
1254.328
1251.004
1256.738
1254.224
1249.802
1258.989
1256.965
1254.032
1248.069
1261.052
1259.302
1257.144
1253.744
1246.152
1262.908
1261.316
1259.537
1257.254
1253.43
1244.451
1264.575
1263.076
1261.485
1259.683
1257.308
1253.177
1243.24
1266.081
1264.641
1263.148
1261.559
1259.748
1257.33
1253.046
1242.666
1267.447
1266.052
1264.615
1263.125
1261.541
1259.738
1257.327
1253.069
1242.785
1268.686
1267.331
1265.936
1264.5
1263.012
1261.435
1259.65
1257.302
1253.243
1243.575
1269.81
1268.494
1267.135
1265.737
1264.298
1262.81
1261.238
1259.484
1257.244
1253.529
1245.311
1270.831
1269.553
1268.232
1266.868
1265.464
1264.02
1262.527
1260.961
1259.246
1257.143
1253.943
1247.618
1271.773
1270.536
1269.253
1267.926
1266.556
1265.146
1263.692
1262.193
1260.634
1258.96
1257.032
1254.458
1250.006
1272.684
1271.49
1270.249
1268.962
1267.63
1266.255
1264.835
1263.374
1261.87
1260.317
1258.715
1257.022
1255.038
1252.502
1273.628
1272.479
1271.283
1270.04
1268.751
1267.416
1266.035
1264.609
1263.142
1261.635
1260.123
1258.626
1257.1
1255.497
1253.932
1274.597
1273.497
1272.349
1271.153
1269.91
1268.62
1267.283
1265.898
1264.469
1262.999
1261.525
1260.079
1258.649
1257.236
1255.843
1275.571
1274.519
1273.42
1272.274
1271.079
1269.838
1268.548
1267.208
1265.823
1264.392
1262.949
1261.525
1260.118
1258.743
1257.411
1276.53
1275.528
1274.479
1273.382
1272.238
1271.047
1269.806
1268.515
1267.176
1265.791
1264.381
1262.974
1261.577
1260.205
1258.876
1252.132
1254.383
1251.746
1256.548
1254.334
1251.031
1258.635
1256.734
1254.233
1249.843
1260.686
1258.972
1256.957
1254.041
1248.13
1262.617
1261.027
1259.284
1257.136
1253.757
1246.236
1264.384
1262.88
1261.292
1259.52
1257.248
1253.45
1244.552
1265.99
1264.546
1263.05
1261.464
1259.669
1257.306
1253.199
1243.353
1267.447
1266.052
1264.615
1263.125
1261.541
1259.738
1257.327
1253.069
1242.785
1268.77
1267.418
1266.027
1264.593
1263.108
1261.528
1259.727
1257.325
1253.093
1242.902
1269.97
1268.659
1267.307
1265.915
1264.483
1262.999
1261.423
1259.64
1257.3
1253.265
1244.093
1271.054
1269.784
1268.471
1267.116
1265.722
1264.286
1262.799
1261.228
1259.477
1257.244
1253.625
1246.054
1272.036
1270.807
1269.533
1268.215
1266.856
1265.455
1264.012
1262.519
1260.955
1259.243
1257.155
1254.114
1248.231
1272.939
1271.752
1270.519
1269.239
1267.916
1266.55
1265.14
1263.688
1262.19
1260.633
1258.97
1257.104
1254.664
1250.622
1273.81
1272.666
1271.475
1270.238
1268.954
1267.626
1266.252
1264.834
1263.374
1261.872
1260.342
1258.785
1257.151
1255.344
1253.471
1274.708
1273.611
1272.466
1271.273
1270.034
1268.748
1267.415
1266.035
1264.611
1263.146
1261.666
1260.197
1258.73
1257.263
1255.804
1275.631
1274.581
1273.484
1272.339
1271.147
1269.908
1268.619
1267.282
1265.899
1264.472
1263.027
1261.593
1260.171
1258.775
1257.418
1276.557
1275.555
1274.506
1273.411
1272.267
1271.077
1269.836
1268.547
1267.209
1265.825
1264.414
1263.004
1261.601
1260.221
1258.883
1277.468
1276.515
1275.516
1274.469
1273.376
1272.235
1271.045
1269.804
1268.515
1267.177
1265.804
1264.418
1263.03
1261.656
1260.314
1252.308
1254.41
1252.149
1256.423
1254.392
1251.77
1258.367
1256.548
1254.346
1251.065
1260.312
1258.626
1256.734
1254.247
1249.891
1262.256
1260.668
1258.96
1256.955
1254.055
1248.196
1264.104
1262.592
1261.007
1259.271
1257.133
1253.775
1246.32
1265.807
1264.356
1262.856
1261.273
1259.507
1257.247
1253.47
1244.653
1267.359
1265.961
1264.521
1263.029
1261.447
1259.66
1257.304
1253.221
1243.465
1268.77
1267.418
1266.027
1264.593
1263.108
1261.528
1259.727
1257.325
1253.093
1242.902
1270.05
1268.743
1267.394
1266.005
1264.576
1263.094
1261.515
1259.717
1257.323
1253.116
1243.45
1271.208
1269.943
1268.636
1267.287
1265.899
1264.47
1262.986
1261.41
1259.631
1257.299
1253.371
1244.91
1272.252
1271.03
1269.763
1268.453
1267.101
1265.71
1264.275
1262.788
1261.218
1259.469
1257.242
1253.796
1246.715
1273.194
1272.014
1270.788
1269.517
1268.202
1266.846
1265.446
1264.003
1262.512
1260.948
1259.224
1257.184
1254.286
1248.792
1274.056
1272.919
1271.735
1270.504
1269.229
1267.909
1266.544
1265.135
1263.683
1262.187
1260.627
1258.988
1257.176
1254.874
1251.223
1274.885
1273.791
1272.651
1271.463
1270.229
1268.949
1267.622
1266.249
1264.832
1263.374
1261.883
1260.376
1258.848
1257.284
1255.701
1275.739
1274.692
1273.597
1272.455
1271.266
1270.03
1268.745
1267.413
1266.034
1264.612
1263.163
1261.71
1260.26
1258.827
1257.426
1276.616
1275.615
1274.568
1273.474
1272.332
1271.143
1269.905
1268.617
1267.282
1265.901
1264.488
1263.069
1261.653
1260.256
1258.897
1277.493
1276.541
1275.542
1274.496
1273.404
1272.264
1271.074
1269.834
1268.546
1267.209
1265.836
1264.446
1263.053
1261.672
1260.322
1278.357
1277.453
1276.502
1275.506
1274.462
1273.372
1272.232
1271.042
1269.802
1268.514
1267.181
1265.822
1264.452
1263.083
1261.733
1254.421
1252.323
1256.35
1254.42
1252.17
1258.195
1256.425
1254.405
1251.799
1260.031
1258.363
1256.553
1254.363
1251.104
1261.89
1260.3
1258.622
1256.739
1254.266
1249.945
1263.759
1262.236
1260.653
1258.953
1256.957
1254.075
1248.264
1265.54
1264.079
1262.571
1260.992
1259.262
1257.135
1253.794
1246.404
1267.185
1265.779
1264.333
1262.836
1261.259
1259.5
1257.246
1253.49
1244.752
1268.686
1267.331
1265.936
1264.5
1263.012
1261.435
1259.65
1257.302
1253.243
1243.575
1270.05
1268.743
1267.394
1266.005
1264.576
1263.094
1261.515
1259.717
1257.323
1253.116
1243.45
1271.285
1270.023
1268.719
1267.373
1265.988
1264.562
1263.08
1261.502
1259.707
1257.321
1253.229
1244.31
1272.4
1271.182
1269.921
1268.616
1267.271
1265.886
1264.456
1262.973
1261.398
1259.621
1257.291
1253.551
1245.625
1273.402
1272.228
1271.008
1269.745
1268.438
1267.09
1265.698
1264.263
1262.777
1261.208
1259.433
1257.246
1253.961
1247.294
1274.303
1273.171
1271.994
1270.771
1269.504
1268.193
1266.836
1265.437
1263.994
1262.504
1260.917
1259.199
1257.216
1254.455
1249.288
1275.124
1274.036
1272.901
1271.72
1270.493
1269.221
1267.902
1266.537
1265.129
1263.679
1262.172
1260.616
1259.005
1257.246
1255.079
1252.344
1275.911
1274.867
1273.776
1272.638
1271.454
1270.224
1268.945
1267.618
1266.246
1264.83
1263.373
1261.891
1260.399
1258.904
1257.426
1276.72
1275.722
1274.678
1273.586
1272.447
1271.261
1270.026
1268.742
1267.411
1266.034
1264.618
1263.183
1261.743
1260.315
1258.92
1277.551
1276.6
1275.602
1274.558
1273.466
1272.328
1271.14
1269.902
1268.616
1267.282
1265.907
1264.509
1263.104
1261.707
1260.338
1278.382
1277.478
1276.528
1275.532
1274.489
1273.4
1272.26
1271.071
1269.832
1268.545
1267.212
1265.849
1264.473
1263.098
1261.74
1279.198
1278.342
1277.44
1276.492
1275.499
1274.458
1273.368
1272.229
1271.039
1269.801
1268.511
1267.184
1265.837
1264.481
1263.132
1256.317
1254.431
1252.344
1258.097
1256.354
1254.434
1252.197
1259.853
1258.193
1256.433
1254.424
1251.833
1261.618
1260.024
1258.363
1256.563
1254.385
1251.15
1263.41
1261.877
1260.292
1258.622
1256.749
1254.291
1250.001
1265.211
1263.738
1262.221
1260.643
1258.95
1256.964
1254.096
1248.331
1266.93
1265.515
1264.058
1262.555
1260.981
1259.258
1257.137
1253.813
1246.487
1268.52
1267.158
1265.756
1264.313
1262.821
1261.248
1259.492
1257.245
1253.509
1244.851
1269.97
1268.659
1267.307
1265.915
1264.483
1262.999
1261.423
1259.64
1257.3
1253.265
1244.093
1271.285
1270.023
1268.719
1267.373
1265.988
1264.562
1263.08
1261.502
1259.707
1257.321
1253.229
1244.31
1272.475
1271.259
1270
1268.699
1267.356
1265.975
1264.548
1263.066
1261.489
1259.696
1257.312
1253.418
1245.057
1273.545
1272.375
1271.16
1269.901
1268.6
1267.258
1265.873
1264.443
1262.96
1261.387
1259.575
1257.284
1253.722
1246.241
1274.504
1273.379
1272.207
1270.99
1269.73
1268.426
1267.078
1265.687
1264.252
1262.766
1261.159
1259.379
1257.256
1254.119
1247.789
1275.363
1274.281
1273.152
1271.978
1270.758
1269.494
1268.183
1266.827
1265.428
1263.986
1262.465
1260.868
1259.18
1257.251
1254.614
1250.149
1276.143
1275.104
1274.019
1272.887
1271.709
1270.486
1269.214
1267.895
1266.531
1265.123
1263.655
1262.142
1260.604
1259.018
1257.309
1255.472
1253.019
1276.887
1275.893
1274.851
1273.764
1272.629
1271.448
1270.218
1268.939
1267.614
1266.243
1264.821
1263.361
1261.887
1260.412
1258.953
1277.653
1276.704
1275.708
1274.666
1273.578
1272.442
1271.257
1270.022
1268.739
1267.409
1266.031
1264.618
1263.192
1261.767
1260.364
1278.438
1277.535
1276.586
1275.591
1274.55
1273.462
1272.324
1271.136
1269.9
1268.614
1267.279
1265.909
1264.522
1263.132
1261.757
1279.223
1278.367
1277.465
1276.518
1275.525
1274.485
1273.396
1272.257
1271.068
1269.83
1268.54
1267.21
1265.858
1264.496
1263.14
1279.993
1279.184
1278.329
1277.43
1276.485
1275.494
1274.454
1273.364
1272.225
1271.037
1269.791
1268.5
1267.182
1265.848
1264.508
1258.053
1256.321
1254.445
1252.371
1259.752
1258.097
1256.362
1254.453
1252.23
1261.445
1259.848
1258.196
1256.445
1254.447
1251.874
1263.15
1261.608
1260.021
1258.368
1256.577
1254.413
1251.196
1264.88
1263.395
1261.867
1260.289
1258.626
1256.763
1254.316
1250.057
1266.618
1265.19
1263.722
1262.21
1260.638
1258.952
1256.972
1254.117
1248.399
1268.277
1266.906
1265.494
1264.041
1262.543
1260.974
1259.254
1257.139
1253.832
1246.57
1269.81
1268.494
1267.135
1265.737
1264.298
1262.81
1261.238
1259.484
1257.244
1253.529
1245.311
1271.208
1269.943
1268.636
1267.287
1265.899
1264.47
1262.986
1261.41
1259.631
1257.299
1253.371
1244.91
1272.475
1271.259
1270
1268.699
1267.356
1265.975
1264.548
1263.066
1261.489
1259.696
1257.312
1253.418
1245.057
1273.618
1272.45
1271.237
1269.981
1268.682
1267.343
1265.961
1264.534
1263.052
1261.476
1259.647
1257.301
1253.594
1245.697
1274.643
1273.521
1272.354
1271.142
1269.886
1268.588
1267.245
1265.86
1264.43
1262.947
1261.327
1259.505
1257.283
1253.882
1246.761
1275.559
1274.482
1273.358
1272.19
1270.976
1269.719
1268.415
1267.066
1265.675
1264.241
1262.711
1261.083
1259.335
1257.27
1254.268
1248.632
1276.375
1275.342
1274.262
1273.136
1271.965
1270.748
1269.484
1268.173
1266.817
1265.419
1263.943
1262.403
1260.825
1259.164
1257.284
1254.929
1251.067
1277.114
1276.123
1275.087
1274.005
1272.876
1271.701
1270.478
1269.206
1267.888
1266.524
1265.094
1263.613
1262.111
1260.588
1259.026
1257.421
1255.719
1253.409
1277.816
1276.87
1275.877
1274.839
1273.754
1272.623
1271.442
1270.212
1268.934
1267.609
1266.225
1264.791
1263.336
1261.87
1260.41
1278.538
1277.637
1276.69
1275.697
1274.658
1273.572
1272.437
1271.252
1270.018
1268.736
1267.398
1266.014
1264.607
1263.191
1261.784
1279.278
1278.422
1277.522
1276.576
1275.584
1274.545
1273.457
1272.32
1271.133
1269.897
1268.605
1267.267
1265.904
1264.529
1263.156
1280.017
1279.208
1278.354
1277.455
1276.51
1275.52
1274.48
1273.391
1272.253
1271.065
1269.819
1268.525
1267.202
1265.862
1264.516
1280.741
1279.978
1279.171
1278.319
1277.422
1276.48
1275.489
1274.449
1273.36
1272.222
1271.022
1269.77
1268.486
1267.178
1265.856
1259.706
1258.053
1256.33
1254.465
1252.403
1261.347
1259.748
1258.101
1256.376
1254.477
1252.269
1262.986
1261.437
1259.847
1258.204
1256.461
1254.476
1251.916
1264.635
1263.139
1261.602
1260.022
1258.377
1256.596
1254.441
1251.244
1266.304
1264.864
1263.383
1261.862
1260.29
1258.635
1256.778
1254.341
1250.115
1267.979
1266.597
1265.173
1263.709
1262.202
1260.637
1258.954
1256.979
1254.137
1248.468
1269.577
1268.252
1266.885
1265.477
1264.029
1262.535
1260.968
1259.25
1257.141
1253.851
1246.96
1271.054
1269.784
1268.471
1267.116
1265.722
1264.286
1262.799
1261.228
1259.477
1257.244
1253.625
1246.054
1272.4
1271.182
1269.921
1268.616
1267.271
1265.886
1264.456
1262.973
1261.398
1259.621
1257.291
1253.551
1245.625
1273.618
1272.45
1271.237
1269.981
1268.682
1267.343
1265.961
1264.534
1263.052
1261.476
1259.647
1257.301
1253.594
1245.697
1274.714
1273.593
1272.428
1271.218
1269.965
1268.669
1267.329
1265.947
1264.52
1263.039
1261.413
1259.569
1257.296
1253.758
1246.236
1275.694
1274.62
1273.5
1272.336
1271.127
1269.874
1268.575
1267.232
1265.847
1264.417
1262.884
1261.235
1259.446
1257.287
1254.031
1247.639
1276.566
1275.537
1274.462
1273.341
1272.176
1270.965
1269.707
1268.403
1267.055
1265.664
1264.184
1262.625
1261.016
1259.298
1257.286
1254.565
1249.659
1277.34
1276.355
1275.323
1274.246
1273.124
1271.955
1270.738
1269.474
1268.163
1266.808
1265.373
1263.872
1262.347
1260.786
1259.15
1257.351
1255.267
1251.725
1278.037
1277.094
1276.107
1275.073
1273.994
1272.868
1271.693
1270.47
1269.198
1267.88
1266.49
1265.041
1263.568
1262.077
1260.569
1259.023
1257.488
1255.866
1253.7
1278.697
1277.798
1276.854
1275.865
1274.829
1273.747
1272.616
1271.435
1270.206
1268.929
1267.586
1266.183
1264.75
1263.296
1261.835
1279.375
1278.522
1277.623
1276.679
1275.689
1274.652
1273.567
1272.432
1271.247
1270.014
1268.719
1267.368
1265.987
1264.587
1263.183
1280.07
1279.262
1278.409
1277.511
1276.568
1275.578
1274.54
1273.452
1272.316
1271.129
1269.882
1268.58
1267.247
1265.893
1264.531
1280.765
1280.002
1279.195
1278.344
1277.447
1276.505
1275.515
1274.476
1273.387
1272.249
1271.049
1269.794
1268.505
1267.191
1265.863
1281.444
1280.727
1279.966
1279.161
1278.312
1277.417
1276.475
1275.484
1274.445
1273.356
1272.203
1270.992
1269.745
1268.468
1267.171
1261.304
1259.703
1258.058
1256.344
1254.489
1252.44
1262.894
1261.34
1259.748
1258.109
1256.393
1254.506
1252.308
1264.479
1262.976
1261.434
1259.85
1258.215
1256.483
1254.505
1251.958
1266.071
1264.622
1263.131
1261.601
1260.027
1258.391
1256.616
1254.469
1251.292
1267.68
1266.287
1264.852
1263.376
1261.86
1260.296
1258.644
1256.793
1254.367
1250.173
1269.292
1267.958
1266.58
1265.16
1263.701
1262.199
1260.636
1258.956
1256.987
1254.158
1248.792
1270.831
1269.553
1268.232
1266.868
1265.464
1264.02
1262.527
1260.961
1259.246
1257.143
1253.943
1247.618
1272.252
1271.03
1269.763
1268.453
1267.101
1265.71
1264.275
1262.788
1261.218
1259.469
1257.242
1253.796
1246.715
1273.545
1272.375
1271.16
1269.901
1268.6
1267.258
1265.873
1264.443
1262.96
1261.387
1259.575
1257.284
1253.722
1246.241
1274.714
1273.593
1272.428
1271.218
1269.965
1268.669
1267.329
1265.947
1264.52
1263.039
1261.413
1259.569
1257.296
1253.758
1246.236
1275.762
1274.69
1273.572
1272.409
1271.203
1269.952
1268.656
1267.316
1265.933
1264.507
1262.971
1261.312
1259.503
1257.296
1253.909
1247.143
1276.698
1275.671
1274.599
1273.483
1272.321
1271.115
1269.861
1268.562
1267.219
1265.834
1264.352
1262.782
1261.154
1259.396
1257.294
1254.329
1248.741
1277.526
1276.544
1275.517
1274.445
1273.328
1272.165
1270.953
1269.695
1268.392
1267.043
1265.606
1264.093
1262.549
1260.959
1259.267
1257.325
1254.937
1250.474
1278.258
1277.32
1276.337
1275.308
1274.234
1273.114
1271.945
1270.728
1269.464
1268.154
1266.76
1265.296
1263.808
1262.296
1260.751
1259.119
1257.422
1255.511
1252.24
1278.912
1278.018
1277.078
1276.093
1275.062
1273.985
1272.859
1271.685
1270.462
1269.191
1267.843
1266.429
1264.986
1263.522
1262.042
1260.51
1259.018
1257.53
1255.98
1253.953
1279.531
1278.679
1277.783
1276.842
1275.855
1274.822
1273.74
1272.609
1271.429
1270.2
1268.9
1267.532
1266.127
1264.693
1263.237
1280.166
1279.359
1278.508
1277.612
1276.67
1275.683
1274.646
1273.561
1272.426
1271.243
1269.992
1268.678
1267.327
1265.95
1264.558
1280.817
1280.055
1279.249
1278.399
1277.503
1276.562
1275.573
1274.535
1273.448
1272.311
1271.11
1269.847
1268.548
1267.222
1265.878
1281.467
1280.75
1279.989
1279.185
1278.336
1277.442
1276.5
1275.51
1274.471
1273.383
1272.229
1271.015
1269.764
1268.481
1267.178
1282.102
1281.43
1280.715
1279.956
1279.153
1278.306
1277.412
1276.47
1275.479
1274.44
1273.335
1272.166
1270.958
1269.717
1268.449
1262.852
1261.297
1259.704
1258.067
1256.362
1254.519
1252.478
1264.392
1262.885
1261.338
1259.753
1258.122
1256.416
1254.536
1252.347
1265.924
1264.468
1262.97
1261.434
1259.858
1258.232
1256.505
1254.535
1252.001
1267.458
1266.057
1264.612
1263.127
1261.603
1260.037
1258.405
1256.636
1254.498
1251.341
1269.006
1267.662
1266.273
1264.843
1263.373
1261.863
1260.301
1258.654
1256.807
1254.393
1250.453
1270.557
1269.271
1267.94
1266.566
1265.151
1263.697
1262.196
1260.635
1258.958
1256.994
1254.261
1249.392
1272.036
1270.807
1269.533
1268.215
1266.856
1265.455
1264.012
1262.519
1260.955
1259.243
1257.155
1254.114
1248.231
1273.402
1272.228
1271.008
1269.745
1268.438
1267.09
1265.698
1264.263
1262.777
1261.208
1259.433
1257.246
1253.961
1247.294
1274.643
1273.521
1272.354
1271.142
1269.886
1268.588
1267.245
1265.86
1264.43
1262.947
1261.327
1259.505
1257.283
1253.882
1246.761
1275.762
1274.69
1273.572
1272.409
1271.203
1269.952
1268.656
1267.316
1265.933
1264.507
1262.971
1261.312
1259.503
1257.296
1253.909
1247.143
1276.764
1275.739
1274.669
1273.554
1272.394
1271.19
1269.939
1268.643
1267.303
1265.92
1264.438
1262.863
1261.225
1259.447
1257.299
1254.212
1248.285
1277.654
1276.675
1275.651
1274.582
1273.468
1272.309
1271.102
1269.849
1268.55
1267.207
1265.769
1264.248
1262.693
1261.084
1259.355
1257.317
1254.719
1249.648
1278.439
1277.505
1276.526
1275.501
1274.432
1273.317
1272.153
1270.942
1269.684
1268.38
1266.985
1265.512
1264.012
1262.483
1260.91
1259.207
1257.383
1255.233
1251.144
1279.129
1278.238
1277.302
1276.322
1275.296
1274.224
1273.104
1271.935
1270.718
1269.454
1268.104
1266.679
1265.227
1263.75
1262.25
1260.674
1259.083
1257.474
1255.702
1252.681
1279.742
1278.894
1278.002
1277.064
1276.082
1275.054
1273.977
1272.851
1271.676
1270.453
1269.15
1267.775
1266.366
1264.93
1263.475
1261.948
1260.468
1259.016
1257.564
1256.08
1254.192
1280.318
1279.514
1278.665
1277.771
1276.832
1275.848
1274.815
1273.733
1272.602
1271.422
1270.168
1268.838
1267.466
1266.056
1264.613
1280.911
1280.15
1279.346
1278.497
1277.603
1276.664
1275.676
1274.64
1273.555
1272.421
1271.216
1269.941
1268.626
1267.277
1265.905
1281.519
1280.802
1280.042
1279.239
1278.391
1277.498
1276.557
1275.567
1274.53
1273.443
1272.288
1271.066
1269.805
1268.511
1267.192
1282.125
1281.453
1280.738
1279.979
1279.177
1278.33
1277.436
1276.495
1275.505
1274.466
1273.36
1272.188
1270.976
1269.73
1268.455
1282.716
1282.088
1281.418
1280.705
1279.948
1279.148
1278.301
1277.407
1276.465
1275.475
1274.416
1273.291
1272.125
1270.922
1269.687
1264.353
1262.844
1261.295
1259.709
1258.08
1256.385
1254.549
1252.517
1265.841
1264.381
1262.879
1261.339
1259.761
1258.14
1256.439
1254.566
1252.387
1267.318
1265.911
1264.46
1262.968
1261.438
1259.87
1258.248
1256.527
1254.564
1252.044
1268.794
1267.443
1266.046
1264.606
1263.127
1261.61
1260.047
1258.419
1256.655
1254.526
1251.579
1270.283
1268.988
1267.648
1266.264
1264.838
1263.373
1261.865
1260.306
1258.662
1256.822
1254.519
1251.036
1271.773
1270.536
1269.253
1267.926
1266.556
1265.146
1263.692
1262.193
1260.634
1258.96
1257.032
1254.458
1250.006
1273.194
1272.014
1270.788
1269.517
1268.202
1266.846
1265.446
1264.003
1262.512
1260.948
1259.224
1257.184
1254.286
1248.792
1274.504
1273.379
1272.207
1270.99
1269.73
1268.426
1267.078
1265.687
1264.252
1262.766
1261.159
1259.379
1257.256
1254.119
1247.789
1275.694
1274.62
1273.5
1272.336
1271.127
1269.874
1268.575
1267.232
1265.847
1264.417
1262.884
1261.235
1259.446
1257.287
1254.031
1247.639
1276.764
1275.739
1274.669
1273.554
1272.394
1271.19
1269.939
1268.643
1267.303
1265.92
1264.438
1262.863
1261.225
1259.447
1257.299
1254.212
1248.285
1277.719
1276.741
1275.719
1274.652
1273.539
1272.382
1271.177
1269.926
1268.63
1267.29
1265.851
1264.327
1262.768
1261.149
1259.401
1257.315
1254.61
1249.238
1278.564
1277.633
1276.656
1275.635
1274.568
1273.457
1272.297
1271.09
1269.836
1268.537
1267.142
1265.663
1264.156
1262.616
1261.025
1259.274
1257.362
1255.045
1250.416
1279.306
1278.419
1277.487
1276.51
1275.488
1274.421
1273.305
1272.142
1270.931
1269.673
1268.321
1266.889
1265.428
1263.94
1262.425
1260.806
1259.141
1257.434
1255.477
1251.729
1279.953
1279.109
1278.22
1277.287
1276.309
1275.286
1274.214
1273.094
1271.925
1270.709
1269.403
1268.02
1266.605
1265.163
1263.697
1262.147
1260.587
1259.058
1257.518
1255.864
1253.093
1280.525
1279.724
1278.878
1277.988
1277.054
1276.073
1275.045
1273.968
1272.842
1271.668
1270.411
1269.077
1267.706
1266.303
1264.875
1263.357
1261.885
1260.446
1259.018
1257.597
1256.174
1254.433
1281.06
1280.302
1279.499
1278.653
1277.761
1276.825
1275.84
1274.807
1273.726
1272.595
1271.387
1270.098
1268.762
1267.382
1265.961
1281.611
1280.896
1280.137
1279.334
1278.488
1277.596
1276.657
1275.67
1274.634
1273.549
1272.391
1271.158
1269.881
1268.565
1267.218
1282.175
1281.504
1280.79
1280.032
1279.23
1278.385
1277.492
1276.551
1275.562
1274.524
1273.416
1272.238
1271.017
1269.758
1268.469
1282.738
1282.11
1281.44
1280.728
1279.971
1279.171
1278.325
1277.431
1276.489
1275.5
1274.44
1273.313