/*--------------------------------*- C++ -*----------------------------------*\
| =========                 |                                                 |
| \\      /  F ield         | OpenFOAM: The Open Source CFD Toolbox           |
|  \\    /   O peration     | Version:  2306                                  |
|   \\  /    A nd           | Website:  www.openfoam.com                      |
|    \\/     M anipulation  |                                                 |
\*---------------------------------------------------------------------------*/
FoamFile
{
    version     2.0;
    format      ascii;
    arch        "LSB;label=32;scalar=64";
    class       volVectorField;
    location    "0.9/fuel";
    object      U;
}
// * * * * * * * * * * * * * * * * * * * * * * * * * * * * * * * * * * * * * //

dimensions      [0 1 -1 0 0 0 0];

internalField   nonuniform List<vector> 
16000
(
(0.000105825 7.9395e-05 -0.005125362)
(0.0001058729 0.0002181281 -0.00520173)
(0.0001894808 7.941762e-05 -0.004228853)
(0.0001036506 8.440098e-05 -0.0163172)
(0.0001063475 0.0003857946 -0.005357473)
(0.0001886818 0.0002227145 -0.004273087)
(0.0001035731 0.0002300659 -0.01655836)
(0.0001466668 7.0775e-05 -0.003502637)
(0.0001853442 8.298381e-05 -0.01348048)
(9.599023e-05 9.150638e-05 -0.02427315)
(0.0001064332 0.0004772779 -0.005597903)
(0.0001876743 0.0003901758 -0.004361475)
(0.0001037899 0.0004063237 -0.01704997)
(0.0001449741 0.0001995535 -0.003532584)
(0.0001843517 0.0002307764 -0.01362045)
(9.564072e-05 0.0002499685 -0.02462966)
(0.0001100917 6.201995e-05 -0.002967871)
(0.0001434449 7.352769e-05 -0.0111785)
(0.0001713676 8.727231e-05 -0.02007241)
(8.682514e-05 9.727126e-05 -0.0400059)
(0.0001085119 0.0006931616 -0.00591606)
(0.0001849675 0.0004968899 -0.004493768)
(0.000103454 0.0005053505 -0.01780886)
(0.0001419577 0.0003477184 -0.003591885)
(0.0001829504 0.0004038373 -0.01390002)
(9.528816e-05 0.0004402556 -0.02535634)
(0.0001085264 0.0001753049 -0.00298985)
(0.0001416427 0.0002056012 -0.01127342)
(0.000169981 0.0002422559 -0.02027962)
(8.615546e-05 0.0002732068 -0.04059135)
(8.427602e-05 5.476691e-05 -0.002563334)
(0.0001077032 6.424401e-05 -0.009481176)
(0.000132558 7.651695e-05 -0.01665898)
(0.0001550992 9.01929e-05 -0.03310251)
(7.192175e-05 0.0001210161 -0.03258356)
(0.0001067078 0.000546086 -0.006279295)
(0.0001845938 0.0006925739 -0.004660488)
(0.000104968 0.0007286849 -0.01881289)
(0.0001364623 0.0004450467 -0.00367952)
(0.000179608 0.0005150049 -0.01431859)
(9.404057e-05 0.0005530706 -0.02647799)
(0.0001056647 0.0003045358 -0.003033115)
(0.0001384096 0.0003579198 -0.01146129)
(0.0001677627 0.0004229488 -0.02069353)
(8.513322e-05 0.0004798789 -0.04178434)
(8.298443e-05 0.0001550389 -0.002580237)
(0.0001060666 0.0001800921 -0.009550927)
(0.0001305653 0.0002133687 -0.01679965)
(0.0001532538 0.0002556955 -0.03344301)
(7.052958e-05 0.0003379169 -0.03305928)
(6.662744e-05 4.882362e-05 -0.002247054)
(8.244179e-05 5.662065e-05 -0.008195875)
(9.958188e-05 6.648996e-05 -0.01413966)
(0.0001198751 7.827594e-05 -0.02748989)
(0.0001275974 0.0001063087 -0.02696537)
(0.0006143099 0.001105753 -0.06502977)
(0.0001107453 0.0001519106 -0.006545634)
(0.000176943 0.0005644381 -0.00484292)
(0.0001024395 0.0005775954 -0.01996101)
(0.0001313929 0.0006103563 -0.003787564)
(0.0001784051 0.0007151062 -0.01484618)
(9.42825e-05 0.0007867715 -0.0279617)
(0.0001006671 0.0003905591 -0.003096529)
(0.0001325728 0.0004584153 -0.01173906)
(0.0001631295 0.0005408942 -0.02131325)
(8.281356e-05 0.000608773 -0.04362686)
(8.060216e-05 0.0002687401 -0.002613361)
(0.0001030651 0.0003125916 -0.009688173)
(0.0001269464 0.0003707251 -0.01707814)
(0.0001500844 0.0004453315 -0.03412283)
(6.801358e-05 0.0005909737 -0.03402983)
(6.556322e-05 0.0001383574 -0.002260476)
(8.110009e-05 0.0001589651 -0.008249575)
(9.783298e-05 0.0001857896 -0.01424313)
(0.0001176603 0.0002224808 -0.02772121)
(0.0001246582 0.0002981454 -0.02724189)
(0.0006006569 0.003136007 -0.06598206)
(5.400631e-05 4.38961e-05 -0.001993208)
(6.517727e-05 5.040373e-05 -0.007190118)
(7.620331e-05 5.838413e-05 -0.01223043)
(9.011477e-05 6.764203e-05 -0.02334569)
(9.837676e-05 9.038159e-05 -0.02239762)
(0.001091168 0.0009638018 -0.05381386)
(0.0006305583 0.001140538 -0.0458604)
(0.000113236 7.641042e-05 -0.006715615)
(0.0001803058 0.0002140927 -0.004965859)
(0.0001059744 0.0001707761 -0.0207993)
(0.0001204094 0.0005003936 -0.003903998)
(0.0001696974 0.000583614 -0.01542515)
(9.024083e-05 0.0006308661 -0.02965845)
(9.570613e-05 0.0005309585 -0.003173572)
(0.0001270856 0.0006269338 -0.01208163)
(0.0001601604 0.0007453896 -0.02209446)
(8.156132e-05 0.0008545582 -0.04606575)
(7.650454e-05 0.0003449953 -0.002661623)
(9.784878e-05 0.0004010441 -0.009889438)
(0.0001205214 0.0004754847 -0.01748992)
(0.0001439487 0.0005712076 -0.03514139)
(6.326428e-05 0.0007616909 -0.03552866)
(6.359064e-05 0.0002394097 -0.002286686)
(7.862024e-05 0.0002753379 -0.008354765)
(9.460637e-05 0.000321924 -0.01444676)
(0.0001135913 0.0003857552 -0.02817884)
(0.0001192528 0.0005170443 -0.02779488)
(0.0005754367 0.005480972 -0.06792119)
(5.311883e-05 0.0001244866 -0.002004129)
(6.407601e-05 0.0001416599 -0.0072328)
(7.47877e-05 0.0001633443 -0.01231016)
(8.82347e-05 0.000192484 -0.02351595)
(9.556466e-05 0.0002537936 -0.02258541)
(0.001063119 0.002740715 -0.05436765)
(0.0006157942 0.003320306 -0.04653614)
(4.474886e-05 3.975836e-05 -0.001785053)
(5.283204e-05 4.526626e-05 -0.006382278)
(6.023906e-05 5.183124e-05 -0.01073549)
(6.892723e-05 5.917033e-05 -0.02020385)
(7.409622e-05 7.723913e-05 -0.01902484)
(0.0008407696 0.0008168364 -0.04469917)
(0.001124864 0.0009926742 -0.03793598)
(0.0006157327 0.001179438 -0.05090996)
(0.0001152951 1.279119e-05 -0.006811578)
(0.0001821576 0.0001194412 -0.005040538)
(0.0001081323 8.758329e-05 -0.02133349)
(0.0001186629 0.0002025652 -0.003978159)
(0.0001723613 0.0002246016 -0.01581341)
(9.259167e-05 0.0002071444 -0.03089549)
(8.631622e-05 0.0004361559 -0.003255929)
(0.0001155714 0.000514256 -0.01245214)
(0.0001493877 0.0006100285 -0.02295211)
(7.574283e-05 0.0006929988 -0.04886298)
(7.233543e-05 0.0004661762 -0.002719606)
(9.262711e-05 0.0005439522 -0.01013407)
(0.00011427 0.000646592 -0.01799787)
(0.0001389242 0.0007808471 -0.03642602)
(5.872067e-05 0.001046967 -0.03751452)
(6.02284e-05 0.0003075029 -0.002324699)
(7.437054e-05 0.0003535427 -0.008508111)
(8.905137e-05 0.0004133503 -0.01474542)
(0.0001064798 0.0004955164 -0.02885603)
(0.0001095235 0.000666742 -0.02862309)
(0.0005285582 0.007082028 -0.07092435)
(5.146856e-05 0.0002151016 -0.002025395)
(6.203165e-05 0.0002449548 -0.007316112)
(7.216067e-05 0.0002824769 -0.01246634)
(8.474497e-05 0.0003328966 -0.02385075)
(9.030599e-05 0.0004383765 -0.02295766)
(0.001010799 0.00474969 -0.05547188)
(0.0005884033 0.00580263 -0.04791201)
(4.399886e-05 0.0001128159 -0.001794111)
(5.191617e-05 0.0001273185 -0.006417037)
(5.908604e-05 0.0001451359 -0.0107989)
(6.742518e-05 0.0001684969 -0.02033511)
(7.183429e-05 0.0002169874 -0.01916304)
(0.0008147038 0.002324396 -0.04507544)
(0.001094862 0.002893174 -0.03832916)
(0.000600296 0.003377939 -0.0516625)
(3.771462e-05 3.62349e-05 -0.001611389)
(4.378031e-05 4.096261e-05 -0.005719377)
(4.882752e-05 4.6449e-05 -0.009534037)
(5.447698e-05 5.23797e-05 -0.01774283)
(5.659518e-05 6.704983e-05 -0.01646769)
(0.0006335751 0.0006967792 -0.03797087)
(0.0008665639 0.000840784 -0.03150078)
(0.00109436 0.001021157 -0.04210581)
(0.0006008614 0.001186847 -0.05168931)
(0.0001162326 4.077947e-06 -0.006854375)
(0.0001842821 4.128857e-05 -0.005081143)
(0.0001100078 1.822659e-05 -0.02163486)
(0.0001171975 0.0001150379 -0.00402141)
(0.0001737545 0.0001254777 -0.01604906)
(9.397341e-05 0.0001094423 -0.03168302)
(8.40411e-05 0.0001816089 -0.003306211)
(0.0001135187 0.0002098022 -0.01268682)
(0.0001504711 0.0002415391 -0.02352672)
(7.670656e-05 0.0002495201 -0.05089344)
(6.482177e-05 0.0003832335 -0.002781316)
(8.290356e-05 0.0004469109 -0.01039665)
(0.0001019033 0.0005309501 -0.01854754)
(0.0001257487 0.0006409506 -0.03784163)
(4.875107e-05 0.0008646591 -0.0397879)
(5.676118e-05 0.0004135972 -0.002369953)
(7.002296e-05 0.0004767732 -0.008692436)
(8.339941e-05 0.0005579892 -0.01510852)
(9.93371e-05 0.000669663 -0.02969178)
(9.975031e-05 0.0008986627 -0.02966856)
(0.0004819092 0.009699858 -0.07490281)
(4.867413e-05 0.0002763541 -0.002056122)
(5.855777e-05 0.000314662 -0.007437011)
(6.769158e-05 0.0003628794 -0.01269408)
(7.8794e-05 0.0004278177 -0.02434219)
(8.13318e-05 0.0005647248 -0.02350819)
(0.0009174079 0.00613046 -0.0571319)
(0.0005377221 0.007503546 -0.05007154)
(4.260106e-05 0.0001947027 -0.001811708)
(5.021107e-05 0.0002198542 -0.00648469)
(5.693911e-05 0.0002506004 -0.01092268)
(6.462589e-05 0.0002908832 -0.02059204)
(6.759201e-05 0.0003739575 -0.0194354)
(0.0007655702 0.004012411 -0.04581862)
(0.001038757 0.005013403 -0.0391133)
(0.0005715037 0.005902451 -0.0531944)
(3.70729e-05 0.0001028624 -0.001619022)
(4.300791e-05 0.0001152812 -0.005748233)
(4.787383e-05 0.0001301462 -0.009585709)
(5.326333e-05 0.000149231 -0.01784729)
(5.482798e-05 0.0001884079 -0.01657422)
(0.0006127781 0.001983258 -0.03824793)
(0.0008389378 0.002450838 -0.03176806)
(0.001063318 0.00292923 -0.04254384)
(0.0005847391 0.003438346 -0.05245988)
(3.226599e-05 3.320312e-05 -0.001464394)
(3.69032e-05 3.730496e-05 -0.005165959)
(4.046854e-05 4.196068e-05 -0.008547639)
(4.415308e-05 4.683588e-05 -0.01576424)
(4.470201e-05 5.901218e-05 -0.01446449)
(0.0004837575 0.0006040741 -0.0328704)
(0.0006531319 0.0007168333 -0.02675251)
(0.0008427803 0.0008631079 -0.03495894)
(0.001069627 0.001024059 -0.04273836)
(0.0006299775 0.001327254 -0.04369932)
(0.0001162326 -4.077946e-06 -0.006854375)
(0.0001852494 1.294558e-05 -0.005098836)
(0.0001108627 5.744366e-06 -0.02176919)
(0.0001171218 4.314465e-05 -0.004043981)
(0.0001756304 4.409154e-05 -0.01617724)
(9.540381e-05 2.948836e-05 -0.03212705)
(8.22929e-05 0.0001037944 -0.00333465)
(0.000111856 0.0001191135 -0.01282358)
(0.0001508396 0.0001352986 -0.02387539)
(7.718013e-05 0.0001348959 -0.05218447)
(6.276839e-05 0.0001622279 -0.002817658)
(8.04505e-05 0.0001870486 -0.01055596)
(9.923979e-05 0.0002200359 -0.01889547)
(0.0001249951 0.0002613582 -0.03878441)
(4.676566e-05 0.0003547116 -0.04144337)
(5.069072e-05 0.0003401054 -0.00241801)
(6.227955e-05 0.0003919435 -0.008889501)
(7.320408e-05 0.0004586107 -0.01549846)
(8.59753e-05 0.0005505435 -0.03060014)
(8.062675e-05 0.0007415728 -0.03081639)
(0.0003852766 0.008034323 -0.07953456)
(4.576728e-05 0.0003703338 -0.002092421)
(5.496101e-05 0.000422481 -0.007581018)
(6.306942e-05 0.0004873531 -0.01296788)
(7.263914e-05 0.0005744932 -0.02493991)
(7.187615e-05 0.0007546623 -0.02418823)
(0.0008215237 0.008240946 -0.05922578)
(0.0004867114 0.01027146 -0.05291126)
(4.024634e-05 0.0002501768 -0.001837057)
(4.733149e-05 0.0002824738 -0.006582503)
(5.331339e-05 0.0003219966 -0.01110235)
(5.989993e-05 0.0003738727 -0.02096697)
(6.047166e-05 0.0004814083 -0.0198349)
(0.0006820302 0.005171487 -0.04692266)
(0.0009388366 0.006472824 -0.04031555)
(0.0005185363 0.007642464 -0.05560914)
(3.58749e-05 0.0001773433 -0.001633821)
(4.156699e-05 0.0001988389 -0.00580426)
(4.609411e-05 0.0002244332 -0.009686289)
(5.099623e-05 0.0002572574 -0.01805102)
(5.150957e-05 0.0003241909 -0.01678326)
(0.0005735121 0.003415963 -0.03879166)
(0.000786807 0.004230325 -0.03229621)
(0.001005075 0.005074914 -0.04341718)
(0.0005545172 0.006007596 -0.05402473)
(3.171118e-05 9.428826e-05 -0.001470912)
(3.62434e-05 0.0001050349 -0.005190294)
(3.966761e-05 0.0001176266 -0.008590557)
(4.315506e-05 0.0001334816 -0.01584941)
(4.329421e-05 0.0001658473 -0.01454926)
(0.0004675668 0.001719611 -0.03308409)
(0.0006311475 0.002089795 -0.0269494)
(0.0008146144 0.002476671 -0.03525682)
(0.00103758 0.002969051 -0.04318777)
(0.0006116558 0.003809368 -0.04434518)
(2.794273e-05 3.056741e-05 -0.001338458)
(3.15776e-05 3.416256e-05 -0.004697241)
(3.412005e-05 3.81599e-05 -0.007723757)
(3.660142e-05 4.223393e-05 -0.01413921)
(3.621807e-05 5.252573e-05 -0.0128538)
(0.0003820372 0.0005311309 -0.0288751)
(0.000498633 0.0006212113 -0.02315432)
(0.0006354083 0.000735098 -0.02968681)
(0.0008234834 0.0008643527 -0.03547642)
(0.001118243 0.001138667 -0.03612229)
(0.005224663 0.01234791 -0.1146534)
(0.0001152951 -1.27912e-05 -0.006811578)
(0.0001852494 -1.294558e-05 -0.005098836)
(0.0001108627 -5.744364e-06 -0.02176919)
(0.0001170911 1.354944e-05 -0.004053508)
(0.0001764863 1.379854e-05 -0.01623311)
(9.605885e-05 9.190988e-06 -0.03232489)
(8.184038e-05 4.014117e-05 -0.003348999)
(0.0001116787 4.4972e-05 -0.01289503)
(0.0001521317 4.902893e-05 -0.02406508)
(7.809048e-05 4.259125e-05 -0.05291207)
(6.12249e-05 9.299659e-05 -0.002837691)
(7.85892e-05 0.0001068206 -0.01064599)
(9.719254e-05 0.0001248528 -0.01909825)
(0.0001241735 0.0001467899 -0.03935589)
(4.53031e-05 0.0001972581 -0.04249526)
(4.892513e-05 0.0001455784 -0.002445397)
(6.010953e-05 0.0001665296 -0.009004739)
(7.042814e-05 0.0001939732 -0.01573492)
(8.259966e-05 0.0002320467 -0.03117099)
(7.582273e-05 0.0003178879 -0.03158524)
(0.0003621013 0.003360998 -0.08282616)
(4.078029e-05 0.0003045418 -0.002130937)
(4.872281e-05 0.0003473695 -0.007734692)
(5.502829e-05 0.0004006317 -0.01326075)
(6.189204e-05 0.0004723699 -0.02558499)
(5.564531e-05 0.0006217436 -0.02492371)
(0.0006400182 0.006806979 -0.06158313)
(0.0003827552 0.008514332 -0.05653212)
(3.778191e-05 0.0003342416 -0.0018668)
(4.432667e-05 0.0003779364 -0.006698118)
(4.952877e-05 0.0004307529 -0.01131641)
(5.495637e-05 0.000499812 -0.02141794)
(5.290279e-05 0.0006402315 -0.02032123)
(0.0005933666 0.006895504 -0.04828495)
(0.0008356098 0.008698446 -0.04181878)
(0.0004643935 0.01045301 -0.05878099)
(3.386528e-05 0.0002278794 -0.001655085)
(3.914533e-05 0.0002554918 -0.005885015)
(4.310467e-05 0.0002883896 -0.009831735)
(4.719253e-05 0.0003306448 -0.01834698)
(4.598047e-05 0.0004171123 -0.01708804)
(0.0005077818 0.004398853 -0.03959331)
(0.0006982562 0.005453349 -0.03310014)
(0.0009017103 0.006555593 -0.04476446)
(0.000499202 0.007787509 -0.05652416)
(3.067412e-05 0.0001624178 -0.001483527)
(3.501069e-05 0.0001809878 -0.005237447)
(3.81706e-05 0.0002026274 -0.008673898)
(4.128784e-05 0.0002298394 -0.01601503)
(4.064876e-05 0.0002850234 -0.01471504)
(0.0004369763 0.002957288 -0.03350144)
(0.0005896074 0.003599203 -0.02733606)
(0.0007614003 0.00427421 -0.03584523)
(0.0009772609 0.005143359 -0.04408097)
(0.0005768944 0.00665572 -0.04566889)
(2.745855e-05 8.682739e-05 -0.001344085)
(3.100792e-05 9.622215e-05 -0.004718034)
(3.343818e-05 0.0001070116 -0.007759969)
(3.576702e-05 0.0001203962 -0.01420999)
(3.50724e-05 0.0001476323 -0.01292291)
(0.0003691692 0.001512079 -0.02904526)
(0.0004815374 0.001811173 -0.02330626)
(0.0006130893 0.0021096 -0.02990632)
(0.0007947682 0.002506142 -0.03578252)
(0.001082223 0.003270492 -0.03649712)
(0.005052166 0.03561915 -0.1165484)
(2.446483e-05 2.82573e-05 -0.001229431)
(2.735228e-05 3.143419e-05 -0.004295437)
(2.920711e-05 3.490405e-05 -0.007025657)
(3.086918e-05 3.835127e-05 -0.01278141)
(3.003799e-05 4.71886e-05 -0.01153077)
(0.0003095031 0.0004723761 -0.02566271)
(0.0003937656 0.0005460286 -0.02033662)
(0.0004850065 0.0006365898 -0.02569236)
(0.0006210532 0.0007355309 -0.03012133)
(0.0008605396 0.0009588598 -0.02997832)
(0.009260091 0.01048672 -0.09472594)
(0.005377876 0.0122804 -0.01173347)
(0.000113236 -7.641043e-05 -0.006715615)
(0.0001842821 -4.128857e-05 -0.005081143)
(0.0001100078 -1.82266e-05 -0.02163486)
(0.0001170911 -1.354944e-05 -0.004053508)
(0.0001764863 -1.379854e-05 -0.01623311)
(9.605885e-05 -9.190987e-06 -0.03232489)
(8.163299e-05 1.260865e-05 -0.003354886)
(0.0001116026 1.410081e-05 -0.0129252)
(0.000152726 1.529138e-05 -0.02414777)
(7.851209e-05 1.320038e-05 -0.05323621)
(6.074871e-05 3.656431e-05 -0.002847499)
(7.808109e-05 4.146521e-05 -0.01069147)
(9.679925e-05 4.777233e-05 -0.01920424)
(0.0001247882 5.480279e-05 -0.03966683)
(4.513854e-05 7.330791e-05 -0.04308796)
(4.761423e-05 8.359237e-05 -0.002460144)
(5.84925e-05 9.536923e-05 -0.009068192)
(6.836962e-05 0.0001106005 -0.01586858)
(8.010407e-05 0.0001315912 -0.03150331)
(7.236365e-05 0.0001792997 -0.03205107)
(0.000345487 0.001875923 -0.08491499)
(3.927099e-05 0.0001314002 -0.002152222)
(4.687519e-05 0.0001490981 -0.00782159)
(5.266109e-05 0.0001715158 -0.01343195)
(5.873876e-05 0.0002021196 -0.02597296)
(5.05444e-05 0.0002700598 -0.02538952)
(0.000589761 0.002944143 -0.06310045)
(0.0003565674 0.003577832 -0.05876406)
(3.361886e-05 0.0002748412 -0.001898365)
(3.921206e-05 0.0003107335 -0.006821433)
(4.308841e-05 0.0003540769 -0.01154494)
(4.656651e-05 0.0004108669 -0.02190289)
(4.039244e-05 0.0005267952 -0.02084296)
(0.0004432334 0.005683507 -0.04980539)
(0.0006418864 0.007186085 -0.04376109)
(0.0003563804 0.008675507 -0.06295506)
(3.175254e-05 0.0003036838 -0.001679886)
(3.660445e-05 0.0003408526 -0.005979826)
(3.996519e-05 0.0003845847 -0.0100037)
(4.318776e-05 0.0004405077 -0.01869972)
(4.008136e-05 0.0005528587 -0.01745496)
(0.0004375958 0.005838554 -0.04056795)
(0.0006040751 0.007269949 -0.03408247)
(0.0007938794 0.008805734 -0.04644723)
(0.0004419011 0.01064718 -0.05978951)
(2.894063e-05 0.0002086981 -0.001501611)
(3.294719e-05 0.0002325548 -0.005305238)
(3.566673e-05 0.0002603629 -0.008794045)
(3.816947e-05 0.0002953741 -0.01625474)
(3.626131e-05 0.0003665467 -0.01495562)
(0.000386123 0.003805654 -0.03411344)
(0.0005201161 0.004635387 -0.02792239)
(0.0006711491 0.005511622 -0.03674768)
(0.0008705197 0.00664716 -0.0454852)
(0.0005136778 0.008641599 -0.04777038)
(2.655262e-05 0.0001494512 -0.001354961)
(2.994237e-05 0.0001656618 -0.004758254)
(3.21622e-05 0.0001841741 -0.007830146)
(3.420417e-05 0.0002071058 -0.01434728)
(3.291851e-05 0.0002534692 -0.01305769)
(0.0003448457 0.0025973 -0.02937628)
(0.0004492162 0.003114558 -0.02360324)
(0.0005708848 0.003632781 -0.03033722)
(0.0007404435 0.004324707 -0.03638491)
(0.001013832 0.005665111 -0.03725171)
(0.004703018 0.06219341 -0.1202149)
(2.403889e-05 8.028347e-05 -0.001234337)
(2.685569e-05 8.85634e-05 -0.004313402)
(2.861999e-05 9.791024e-05 -0.007056613)
(3.01614e-05 0.0001093481 -0.01284116)
(2.908794e-05 0.0001326406 -0.0115882)
(0.0002990493 0.001344869 -0.02580152)
(0.0003801884 0.001592048 -0.02045766)
(0.0004676831 0.001826999 -0.02586181)
(0.0005983827 0.00213272 -0.03034719)
(0.0008287822 0.002754229 -0.03023271)
(0.008925881 0.0302422 -0.09587161)
(0.005207119 0.03580399 -0.01222968)
(2.161835e-05 2.621667e-05 -0.001134188)
(2.395372e-05 2.904546e-05 -0.003947392)
(2.531018e-05 3.208409e-05 -0.006426966)
(2.643746e-05 3.503524e-05 -0.0116305)
(2.535452e-05 4.271814e-05 -0.01042517)
(0.0002567215 0.0004241031 -0.02302398)
(0.0003189966 0.0004855051 -0.0180716)
(0.0003829727 0.0005592465 -0.02256477)
(0.0004739652 0.0006365755 -0.02606515)
(0.0006493117 0.000814951 -0.02544922)
(0.007119562 0.008793943 -0.07858204)
(0.009559727 0.0104577 -0.009647628)
(0.005193959 0.01261979 -0.03378101)
(0.0001107453 -0.0001519106 -0.006545634)
(0.0001821576 -0.0001194412 -0.005040538)
(0.0001081323 -8.75833e-05 -0.02133349)
(0.0001171218 -4.314465e-05 -0.004043981)
(0.0001756304 -4.409154e-05 -0.01617724)
(9.540381e-05 -2.948836e-05 -0.03212705)
(8.163299e-05 -1.260865e-05 -0.003354886)
(0.0001116026 -1.410081e-05 -0.0129252)
(0.000152726 -1.529138e-05 -0.02414777)
(7.851209e-05 -1.320038e-05 -0.05323621)
(6.05295e-05 1.148215e-05 -0.002851417)
(7.784927e-05 1.300589e-05 -0.01071014)
(9.662691e-05 1.493221e-05 -0.01924902)
(0.0001250793 1.703744e-05 -0.0398024)
(4.507851e-05 2.260865e-05 -0.04335199)
(4.717908e-05 3.321451e-05 -0.002467158)
(5.798132e-05 3.758294e-05 -0.009099304)
(6.775365e-05 4.326172e-05 -0.01593615)
(7.945918e-05 5.105871e-05 -0.03167704)
(7.153368e-05 7.016554e-05 -0.03230456)
(0.0003420449 0.0007108583 -0.08609222)
(3.815982e-05 7.552572e-05 -0.002163431)
(4.551281e-05 8.552113e-05 -0.007868314)
(5.092631e-05 9.802638e-05 -0.01352624)
(5.644962e-05 0.0001150507 -0.02619194)
(4.694481e-05 0.0001529723 -0.02566062)
(0.0005540894 0.001661676 -0.06401704)
(0.0003379128 0.001998966 -0.06017366)
(3.23232e-05 0.0001193052 -0.001915305)
(3.764227e-05 0.0001343531 -0.006889005)
(4.111048e-05 0.0001528388 -0.01167413)
(4.396848e-05 0.0001773945 -0.02218378)
(3.625569e-05 0.0002301874 -0.02115975)
(0.0003945185 0.002483219 -0.0507198)
(0.0005868768 0.003112451 -0.04475383)
(0.0003273789 0.003671264 -0.06539855)
(2.822741e-05 0.0002496796 -0.00170623)
(3.234124e-05 0.0002802082 -0.006081003)
(3.470645e-05 0.0003160647 -0.01018717)
(3.651031e-05 0.0003619912 -0.01907848)
(3.049451e-05 0.0004544256 -0.01784681)
(0.0003226796 0.004805026 -0.04165265)
(0.0004451124 0.005992161 -0.03538245)
(0.0005942128 0.007276568 -0.0487231)
(0.0003296171 0.008845434 -0.06443642)
(2.711194e-05 0.0002775257 -0.00152259)
(3.077328e-05 0.0003095063 -0.005384356)
(3.302587e-05 0.0003463125 -0.008935141)
(3.487203e-05 0.0003924353 -0.01653824)
(3.157016e-05 0.0004845862 -0.01524263)
(0.0003316833 0.005035133 -0.03484914)
(0.0004458174 0.006151771 -0.02862783)
(0.0005748288 0.007345794 -0.0378493)
(0.000758257 0.008927947 -0.04722792)
(0.0004470929 0.01181364 -0.05052905)
(2.504286e-05 0.0001920283 -0.001370524)
(2.816467e-05 0.000212854 -0.00481595)
(3.003553e-05 0.0002366344 -0.007931055)
(3.160372e-05 0.0002661211 -0.01454539)
(2.93586e-05 0.0003258329 -0.01325255)
(0.0003045882 0.003340566 -0.02985971)
(0.0003955154 0.004008388 -0.02405271)
(0.0005003576 0.004679613 -0.03099635)
(0.0006484248 0.0055784 -0.03733035)
(0.0008932535 0.00732665 -0.03842771)
(0.004077105 0.08098915 -0.1269234)
(2.324129e-05 0.000138094 -0.001243807)
(2.5926e-05 0.0001523633 -0.004348102)
(2.752034e-05 0.0001683781 -0.0071165)
(2.883458e-05 0.0001879448 -0.01295682)
(2.730126e-05 0.0002275437 -0.01169994)
(0.0002792837 0.002307871 -0.0260707)
(0.0003545098 0.002734521 -0.02069338)
(0.0004349124 0.003141366 -0.02619289)
(0.0005554732 0.003672342 -0.0307887)
(0.0007683537 0.004752578 -0.03074119)
(0.008257972 0.0523476 -0.09800617)
(0.004861058 0.06301226 -0.01323593)
(2.124095e-05 7.449936e-05 -0.0011385)
(2.351727e-05 8.185305e-05 -0.003963063)
(2.479955e-05 9.002137e-05 -0.006453724)
(2.582984e-05 9.990769e-05 -0.0116816)
(2.4554e-05 0.0001200805 -0.01047365)
(0.0002480648 0.001207467 -0.02313941)
(0.0003079728 0.001415613 -0.0181704)
(0.0003692312 0.001605067 -0.02269981)
(0.0004563975 0.001845828 -0.02623972)
(0.0006243614 0.002340834 -0.02563638)
(0.006832705 0.02535431 -0.07938278)
(0.009227424 0.03047952 -0.01000806)
(0.005014605 0.03654008 -0.03474515)
(1.926261e-05 2.440256e-05 -0.00105033)
(2.117233e-05 2.693733e-05 -0.003643186)
(2.217716e-05 2.962023e-05 -0.00590817)
(2.292357e-05 3.217036e-05 -0.01064313)
(2.174418e-05 3.892262e-05 -0.009487904)
(0.0002167384 0.0003837178 -0.02081883)
(0.000264608 0.0004358028 -0.01621146)
(0.0003102394 0.0004970467 -0.02005091)
(0.000374227 0.0005589718 -0.02288992)
(0.0004954044 0.0007047135 -0.02201961)
(0.005378193 0.007456563 -0.06668978)
(0.007352191 0.008779424 -0.007977972)
(0.009210076 0.01069682 -0.02785675)
(0.005146413 0.01269875 -0.01246215)
(0.0001067078 -0.000546086 -0.006279295)
(0.0001803058 -0.0002140927 -0.004965859)
(0.0001059744 -0.0001707761 -0.0207993)
(0.0001171975 -0.0001150379 -0.00402141)
(0.0001737545 -0.0001254777 -0.01604906)
(9.397341e-05 -0.0001094424 -0.03168302)
(8.184038e-05 -4.014117e-05 -0.003348999)
(0.0001116787 -4.4972e-05 -0.01289503)
(0.0001521317 -4.902892e-05 -0.02406508)
(7.809048e-05 -4.259125e-05 -0.05291207)
(6.05295e-05 -1.148215e-05 -0.002851417)
(7.784927e-05 -1.300589e-05 -0.01071014)
(9.662691e-05 -1.493221e-05 -0.01924902)
(0.0001250793 -1.703744e-05 -0.0398024)
(4.507851e-05 -2.260864e-05 -0.04335199)
(4.697869e-05 1.04265e-05 -0.002469884)
(5.774688e-05 1.178652e-05 -0.009111735)
(6.747461e-05 1.353026e-05 -0.01596391)
(7.917464e-05 1.590838e-05 -0.03175047)
(7.117879e-05 2.170839e-05 -0.0324151)
(0.0003406265 0.0002191056 -0.08661675)
(3.777532e-05 3.022811e-05 -0.00216861)
(4.505378e-05 3.40298e-05 -0.00789057)
(5.035211e-05 3.881493e-05 -0.01357251)
(5.570762e-05 4.53761e-05 -0.02630268)
(4.571915e-05 6.081251e-05 -0.0258024)
(0.0005440655 0.0006551304 -0.06451564)
(0.0003336024 0.0007615867 -0.0609694)
(3.13754e-05 6.861667e-05 -0.001924033)
(3.649326e-05 7.713568e-05 -0.006924523)
(3.967168e-05 8.74694e-05 -0.01174361)
(4.209573e-05 0.0001011626 -0.02233823)
(3.334753e-05 0.0001306066 -0.02133855)
(0.000360353 0.001406294 -0.0512494)
(0.0005479737 0.001756857 -0.04534428)
(0.0003068785 0.002054379 -0.0669352)
(2.7107e-05 0.0001088943 -0.001719974)
(3.099935e-05 0.0001218308 -0.006134802)
(3.304597e-05 0.0001372463 -0.01028769)
(3.437961e-05 0.0001572581 -0.01929043)
(2.72608e-05 0.0001992618 -0.01807632)
(0.0002839208 0.002108832 -0.04227182)
(0.0003931329 0.002619315 -0.03596241)
(0.0005352916 0.003158222 -0.04979396)
(0.0002978769 0.00376273 -0.06681888)
(2.409124e-05 0.0002281354 -0.001544907)
(2.716757e-05 0.0002543943 -0.005468885)
(2.865605e-05 0.0002845428 -0.009085751)
(2.944406e-05 0.0003223647 -0.0168426)
(2.402855e-05 0.0003979616 -0.0155484)
(0.0002438973 0.004138882 -0.03566814)
(0.0003244118 0.005062427 -0.02958289)
(0.0004130816 0.006054578 -0.03938926)
(0.00055259 0.007378601 -0.04985889)
(0.0003195257 0.009826665 -0.05437874)
(2.344585e-05 0.0002548876 -0.001388488)
(2.628603e-05 0.0002827076 -0.004882924)
(2.778532e-05 0.0003140701 -0.008048855)
(2.884548e-05 0.0003527678 -0.01477812)
(2.55468e-05 0.0004298725 -0.01348323)
(0.0002614278 0.004409042 -0.0304355)
(0.0003379719 0.005303011 -0.02458709)
(0.0004247896 0.006209621 -0.03178867)
(0.0005499269 0.007435377 -0.03847638)
(0.0007650762 0.00984339 -0.03989651)
(0.003396052 0.11014 -0.135235)
(2.191546e-05 0.0001774247 -0.001257334)
(2.437936e-05 0.0001957549 -0.004397783)
(2.569299e-05 0.0002163189 -0.007202423)
(2.663363e-05 0.0002414626 -0.01312329)
(2.43564e-05 0.0002924002 -0.011861)
(0.0002466765 0.002966925 -0.02646254)
(0.00031203 0.003517275 -0.02104982)
(0.0003805135 0.004043497 -0.02669884)
(0.0004838294 0.004731577 -0.03148212)
(0.0006661638 0.00613317 -0.0315308)
(0.00709086 0.06778401 -0.1020425)
(0.00422993 0.08222339 -0.01823009)
(2.053375e-05 0.0001280678 -0.001146817)
(2.269958e-05 0.0001407271 -0.003993295)
(2.38425e-05 0.0001547058 -0.006505414)
(2.469009e-05 0.0001715962 -0.01178035)
(2.304817e-05 0.0002058544 -0.0105678)
(0.0002316938 0.002070439 -0.02336263)
(0.0002871186 0.002429166 -0.01836222)
(0.0003432301 0.002756566 -0.02296268)
(0.0004231394 0.003173566 -0.02657924)
(0.0005768951 0.004030574 -0.02600883)
(0.006263007 0.04372195 -0.08084322)
(0.008562331 0.05315914 -0.01074418)
(0.004651386 0.06516595 -0.03660817)
(1.89261e-05 6.935473e-05 -0.001054149)
(2.078593e-05 7.592723e-05 -0.00365697)
(2.172925e-05 8.312453e-05 -0.00593152)
(2.239644e-05 9.17482e-05 -0.01068732)
(2.106076e-05 0.000109415 -0.009529366)
(0.0002094527 0.001092502 -0.02091633)
(0.0002554834 0.001270705 -0.01629366)
(0.0002990924 0.001426561 -0.02016118)
(0.0003603066 0.001620811 -0.02302922)
(0.0004761123 0.002024132 -0.0221639)
(0.005154724 0.02149472 -0.06729302)
(0.007064817 0.02558077 -0.008259414)
(0.008864562 0.03096095 -0.02852071)
(0.004963839 0.03688959 -0.01306287)
(1.728883e-05 2.278005e-05 -0.000975985)
(1.88707e-05 2.506469e-05 -0.00337521)
(1.961359e-05 2.744962e-05 -0.005454545)
(2.010037e-05 2.967254e-05 -0.009787219)
(1.888493e-05 3.565991e-05 -0.008683712)
(0.0001859397 0.0003494642 -0.01894932)
(0.0002234133 0.0003942372 -0.01465723)
(0.0002573643 0.0004460067 -0.01798657)
(0.0003031437 0.0004966173 -0.02033821)
(0.000391115 0.0006184042 -0.01933543)
(0.004101188 0.006437282 -0.05768936)
(0.005552539 0.007448464 -0.006753629)
(0.007081379 0.008963222 -0.02308364)
(0.009131208 0.0107522 -0.01025753)
(0.005040664 0.01267987 -0.006381613)
(0.0001085119 -0.0006931616 -0.00591606)
(0.000176943 -0.0005644381 -0.00484292)
(0.0001024395 -0.0005775954 -0.01996101)
(0.0001186629 -0.0002025652 -0.003978159)
(0.0001723613 -0.0002246016 -0.01581341)
(9.259167e-05 -0.0002071444 -0.03089549)
(8.22929e-05 -0.0001037944 -0.00333465)
(0.000111856 -0.0001191135 -0.01282358)
(0.0001508396 -0.0001352986 -0.02387539)
(7.718013e-05 -0.0001348959 -0.05218447)
(6.074871e-05 -3.656432e-05 -0.002847499)
(7.808109e-05 -4.146521e-05 -0.01069147)
(9.679925e-05 -4.777233e-05 -0.01920424)
(0.0001247882 -5.480279e-05 -0.03966683)
(4.513854e-05 -7.330791e-05 -0.04308796)
(4.697869e-05 -1.04265e-05 -0.002469884)
(5.774688e-05 -1.178652e-05 -0.009111735)
(6.747461e-05 -1.353026e-05 -0.01596391)
(7.917464e-05 -1.590838e-05 -0.03175047)
(7.117879e-05 -2.170839e-05 -0.0324151)
(0.0003406265 -0.0002191056 -0.08661675)
(3.759834e-05 9.485551e-06 -0.002170564)
(4.484308e-05 1.066937e-05 -0.00789922)
(5.009053e-05 1.214013e-05 -0.01359102)
(5.537338e-05 1.414788e-05 -0.02634818)
(4.517566e-05 1.884427e-05 -0.02586235)
(0.000539729 0.0002025341 -0.06473304)
(0.0003318004 0.0002347058 -0.06132383)
(3.103844e-05 2.761009e-05 -0.001927947)
(3.609155e-05 3.089977e-05 -0.006940955)
(3.917249e-05 3.491097e-05 -0.01177674)
(4.144773e-05 4.026878e-05 -0.02241402)
(3.229331e-05 5.228874e-05 -0.02142901)
(0.0003483481 0.000561411 -0.05152594)
(0.0005366182 0.0006940263 -0.04566482)
(0.0003015258 0.0007893877 -0.06780443)
(2.62915e-05 6.265331e-05 -0.001726905)
(3.002267e-05 6.998798e-05 -0.006162459)
(3.184462e-05 7.860912e-05 -0.01034054)
(3.285112e-05 8.977465e-05 -0.01940421)
(2.499205e-05 0.0001131506 -0.01820254)
(0.0002568082 0.001195855 -0.04261893)
(0.000356742 0.001483129 -0.03628874)
(0.000493852 0.001782914 -0.05042399)
(0.0002755825 0.002108211 -0.06830382)
(2.311546e-05 9.987507e-05 -0.001556236)
(2.601082e-05 0.0001110877 -0.005512551)
(2.724858e-05 0.0001241219 -0.009165826)
(2.767714e-05 0.0001406713 -0.01700751)
(2.145617e-05 0.0001749199 -0.01572171)
(0.0002138385 0.001821168 -0.03611495)
(0.0002832926 0.002221854 -0.02996459)
(0.0003595458 0.002648168 -0.04000664)