/*--------------------------------*- C++ -*----------------------------------*\
| =========                 |                                                 |
| \\      /  F ield         | OpenFOAM: The Open Source CFD Toolbox           |
|  \\    /   O peration     | Version:  2306                                  |
|   \\  /    A nd           | Website:  www.openfoam.com                      |
|    \\/     M anipulation  |                                                 |
\*---------------------------------------------------------------------------*/
FoamFile
{
    version     2.0;
    format      ascii;
    arch        "LSB;label=32;scalar=64";
    class       volScalarField;
    location    "0.9/fuel";
    object      X.H2O;
}
// * * * * * * * * * * * * * * * * * * * * * * * * * * * * * * * * * * * * * //

dimensions      [0 0 0 0 0 0 0];

internalField   nonuniform List<scalar> 
16000
(
0.07109071
0.06978605
0.09229087
0.0710167
0.06718677
0.09127755
0.06971143
0.1160443
0.09222337
0.07087176
0.06336906
0.08926027
0.06711082
0.1151392
0.09120967
0.0695653
0.1391071
0.1159824
0.09209101
0.07065808
0.05860832
0.08629868
0.06329083
0.1133365
0.08919156
0.06696212
0.138266
0.115077
0.09107655
0.06934989
0.1610709
0.1390498
0.115861
0.09189568
0.07037694
0.05370155
0.08260267
0.05852637
0.1106872
0.08622857
0.0631377
0.1365914
0.1132737
0.08905685
0.06674294
0.1602804
0.1382085
0.114955
0.09088013
0.06906649
0.1819484
0.1610174
0.1389371
0.1156815
0.09163852
0.07009853
0.05011746
0.07877784
0.0536145
0.107376
0.08253029
0.05836597
0.1341304
0.1106234
0.08609114
0.06291204
0.1587069
0.1365333
0.1131505
0.08885807
0.06645463
0.1812015
0.1602266
0.1380953
0.1147747
0.09062153
0.06878585
0.2018163
0.1818981
0.1609121
0.1387706
0.1154452
0.09138374
0.06986827
0.04788452
0.07594448
0.05002824
0.103943
0.07870235
0.0534441
0.1310546
0.1073103
0.0823884
0.0581296
0.1563951
0.1340715
0.110498
0.08588838
0.06261522
0.1797154
0.1586527
0.1364192
0.1129684
0.08859641
0.06616915
0.2011083
0.181151
0.1601209
0.1379281
0.1145372
0.09036534
0.06855375
0.220753
0.2017689
0.1817991
0.1607563
0.1385511
0.1152109
0.09117304
0.06963979
0.04663135
0.07414656
0.04779455
0.1013944
0.07586801
0.04985365
0.1278653
0.1038749
0.07855432
0.05319293
0.1535064
0.1309941
0.1071814
0.08217906
0.0578187
0.1775324
0.1563401
0.1339556
0.1103129
0.08562148
0.06232134
0.1996999
0.1796645
0.1585461
0.1362505
0.1127286
0.0883372
0.06593292
0.2200801
0.2010607
0.1810517
0.1599646
0.1377077
0.1143019
0.09015347
0.06832341
0.2388292
0.2207081
0.2016756
0.1816527
0.1605509
0.1383334
0.1150172
0.09096396
0.06941307
0.04607203
0.07311896
0.04654107
0.09977242
0.07407
0.04761854
0.1254963
0.1013256
0.07571808
0.04959638
0.1505116
0.1278026
0.1037411
0.07833586
0.05286247
0.1748052
0.1534501
0.1308752
0.1069911
0.08190349
0.05751086
0.1976314
0.1774808
0.1562321
0.1337843
0.110069
0.0853571
0.06207773
0.2187418
0.1996519
0.1795644
0.1583885
0.1360281
0.1124909
0.08812273
0.06569839
0.2381884
0.2200351
0.2009671
0.1809047
0.1597584
0.1374891
0.1141072
0.08994321
0.06809485
0.2561076
0.2387866
0.2206197
0.2015373
0.1814595
0.1603472
0.1381535
0.1148249
0.0907565
0.06918813
0.04607203
0.07265413
0.04598162
0.0988426
0.07304248
0.04636451
0.1239872
0.09970376
0.07391993
0.04735927
0.1482867
0.1254331
0.1011906
0.07549683
0.04925796
0.1719784
0.1504534
0.1276794
0.1035434
0.0780482
0.05253515
0.1950478
0.1747525
0.1533394
0.1306994
0.1067404
0.08163049
0.05725436
0.2167767
0.1975828
0.1773794
0.1560722
0.1335585
0.1098274
0.08513804
0.06183544
0.2369141
0.2186965
0.1995576
0.1794163
0.1581807
0.1358077
0.1122943
0.08790983
0.06546555
0.2554963
0.2381457
0.2199464
0.2008283
0.1807109
0.1595539
0.1373084
0.1139141
0.08973458
0.06786806
0.2726437
0.2560672
0.2387027
0.2204888
0.2013548
0.1812678
0.1601787
0.1379749
0.1146342
0.09055067
0.06810727
0.04663135
0.07265413
0.04598162
0.09842103
0.07257769
0.04580483
0.1231211
0.09877412
0.07289257
0.04610447
0.1468686
0.1239242
0.09956897
0.07369852
0.04701829
0.1698782
0.1482281
0.1253091
0.1009911
0.07520555
0.04892279
0.1923702
0.1719239
0.1503388
0.1274973
0.103283
0.07776317
0.05225995
0.2143226
0.1949981
0.1746487
0.1531755
0.1304678
0.1064919
0.08140333
0.05699793
0.2350432
0.2167308
0.1974872
0.1772293
0.1558614
0.1333347
0.1096271
0.08492025
0.06159446
0.2542808
0.2368711
0.2186072
0.1994178
0.179221
0.1579745
0.1356253
0.1120991
0.08769849
0.06523442
0.2720597
0.2554557
0.2380616
0.2198151
0.2006453
0.1805185
0.1593848
0.1371291
0.1137224
0.08952756
0.06677837
0.2884869
0.2726052
0.2559874
0.2385784
0.2203159
0.2011737
0.1811093
0.1600116
0.1377977
0.1144449
0.08956085
0.06737103
0.04788452
0.07311896
0.04654107
0.09842103
0.07257769
0.04580483
0.122728
0.09835265
0.0724279
0.04554449
0.1460543
0.1230583
0.0986397
0.07267144
0.04576253
0.1685392
0.1468102
0.1238005
0.09936988
0.07340706
0.04668064
0.1903808
0.1698234
0.1481128
0.1251257
0.1007284
0.07491695
0.04864095
0.2117795
0.1923189
0.1718166
0.1501693
0.1272572
0.1030248
0.07752412
0.05198231
0.2327071
0.2142757
0.1949003
0.174495
0.1529595
0.1302382
0.1062852
0.0811765
0.05674157
0.2524965
0.2349997
0.2166404
0.1973457
0.1770313
0.1556523
0.1331493
0.1094281
0.08470375
0.06135481
0.2708986
0.25424
0.2367864
0.2184749
0.1992334
0.1790271
0.157804
0.1354442
0.1119054
0.08748872
0.06412349
0.2879282
0.2720211
0.2553757
0.2379368
0.2196416
0.2004635
0.1803594
0.159217
0.1369511
0.1135323
0.08853209
0.06603282
0.3036811
0.2884501
0.2725292
0.2558691
0.2384142
0.2201443
0.201024
0.180952
0.1598458
0.1376219
0.1135344
0.0888877
0.06681686
0.05011746
0.07414656
0.04779455
0.0988426
0.07304248
0.04636451
0.122728
0.09835265
0.0724279
0.04554449
0.1456845
0.1226654
0.09821843
0.07220694
0.04520216
0.16777
0.1459961
0.122935
0.09844118
0.07238037
0.04542396
0.1891122
0.1684846
0.1466954
0.1236176
0.09910762
0.07311832
0.0463973
0.2098901
0.1903292
0.1697155
0.1479422
0.1248839
0.1004679
0.07467486
0.04835661
0.2302866
0.2117311
0.1922179
0.1716577
0.1499456
0.1270191
0.1028083
0.07728354
0.05170219
0.2502687
0.2326626
0.2141832
0.1947555
0.1742923
0.1527453
0.1300471
0.1060788
0.08095002
0.0564853
0.2691941
0.2524551
0.234914
0.2165065
0.1971589
0.1768348
0.1554791
0.1329649
0.1092302
0.08448852
0.06020126
0.2868175
0.2708597
0.2541594
0.2366609
0.2183003
0.1990504
0.1788668
0.1576347
0.1352645
0.111713
0.08647966
0.0633508
0.303146
0.2878913
0.2719448
0.255257
0.2377721
0.2194695
0.2003133
0.1802015
0.1590505
0.1367746
0.1126173
0.08785275
0.06546897
0.3182662
0.303646
0.2883776
0.2724164
0.2557128
0.2382512
0.2200024
0.2008754
0.180796
0.1596812
0.1367756
0.1129157
0.08838141
0.06644629
0.05370155
0.07594448
0.05002824
0.09977242
0.07407
0.04761854
0.1231211
0.09877412
0.07289257
0.04610447
0.1456845
0.1226654
0.09821843
0.07220694
0.04520216
0.1674206
0.1456264
0.1225424
0.09802022
0.07191611
0.04486322
0.1883832
0.1677156
0.1458816
0.1227528
0.09817967
0.07209203
0.04514029
0.2086851
0.1890608
0.1683771
0.1465254
0.1233766
0.09884767
0.07287653
0.04611202
0.2284882
0.2098414
0.1902277
0.1695557
0.1477172
0.1246441
0.1002494
0.07443119
0.04806974
0.2479606
0.2302407
0.2116356
0.1920682
0.171448
0.1497238
0.1268194
0.1025904
0.0770414
0.05141959
0.2670664
0.2502264
0.232575
0.2140463
0.1945644
0.1740911
0.152567
0.1298563
0.1058727
0.0807239
0.05524593
0.2851873
0.2691548
0.2523736
0.2347869
0.2163296
0.1969735
0.1766721
0.1553069
0.1327817
0.1090335
0.08345192
0.05935454
0.3020824
0.2867804
0.2707829
0.25404
0.2364951
0.2181269
0.198899
0.1787076
0.1574666
0.1350861
0.1107873
0.08578192
0.06275553
0.3177532
0.3031108
0.2878185
0.2718317
0.2551003
0.2376086
0.2193271
0.2001642
0.1800449
0.1588853
0.1359246
0.1119936
0.08733987
0.06509024
0.3322782
0.3182326
0.3035767
0.2882699
0.2722674
0.2555575
0.2381163
0.2198616
0.200728
0.1806411
0.1588889
0.1362011
0.1124505
0.08804308
0.06626063
0.05860832
0.07877784
0.0536145
0.1013944
0.07586801
0.04985365
0.1239872
0.09970376
0.07391993
0.04735927
0.1460543
0.1230583
0.0986397
0.07267144
0.04576253
0.1674206
0.1456264
0.1225424
0.09802022
0.07191611
0.04486322
0.188052
0.1673663
0.1455122
0.1223605
0.09775913
0.07162801
0.04457945
0.2079925
0.1883321
0.1676085
0.1457124
0.1225127
0.09792049
0.07185091
0.04485513
0.2273412
0.2086367
0.1889597
0.168218
0.1463013
0.1231376
0.09863
0.07263359
0.04582479
0.2462459
0.2284421
0.2097455
0.1900773
0.1693449
0.147494
0.1244429
0.1000296
0.07418593
0.04778034
0.2648621
0.247917
0.2301502
0.2114941
0.1918706
0.1712399
0.1495377
0.1266185
0.1023712
0.07679771
0.05004125
0.2831523
0.2670262
0.2501432
0.2324451
0.2138654
0.1943747
0.1739237
0.152389
0.1296658
0.1056669
0.07963031
0.05419927
0.3005213
0.2851498
0.2690772
0.2522528
0.234619
0.2161541
0.1968199
0.1765102
0.1551356
0.1325995
0.1080855
0.0827026
0.05866046
0.3167336
0.302047
0.2867072
0.2706691
0.2538822
0.2363304
0.2179835
0.1987487
0.1785495
0.1572998
0.134227
0.1101482
0.08524719
0.06234838
0.3317859
0.3177195
0.3030413
0.2877106
0.2716822
0.2549446
0.2374733
0.2191858
0.2000162
0.1798895
0.1580897
0.1353456
0.1115228
0.08699591
0.06489987
0.3457496
0.332246
0.3181663
0.3034737
0.2881276
0.2721193
0.2554292
0.2379826
0.2197219
0.2005817
0.1798954
0.1583512
0.135769
0.1121396
0.08787364
0.06336906
0.08260267
0.05852637
0.103943
0.07870235
0.0534441
0.1254963
0.1013256
0.07571808
0.04959638
0.1468686
0.1239242
0.09956897
0.07369852
0.04701829
0.16777
0.1459961
0.122935
0.09844118
0.07238037
0.04542396
0.188052
0.1673663
0.1455122
0.1223605
0.09775913
0.07162801
0.04457945
0.2076779
0.188001
0.1672595
0.1453433
0.1221208
0.09750036
0.07138725
0.04429439
0.2266819
0.2079443
0.1882314
0.1674501
0.1454891
0.1222745
0.09770376
0.07160896
0.04456846
0.2451521
0.2272954
0.2085412
0.18881
0.1680081
0.1460789
0.1229374
0.09841131
0.07238949
0.04553562
0.2632246
0.2462021
0.2283513
0.2096034
0.1898787
0.1691356
0.1473068
0.1242405
0.09980826
0.07393907
0.04636948
0.2810444
0.2648207
0.2478311
0.2300161
0.2113073
0.1916744
0.1710653
0.1493504
0.1264163
0.1021506
0.07561005
0.04858921
0.2985729
0.283114
0.2669469
0.2500197
0.2322735
0.2136859
0.1942168
0.1737566
0.1522112
0.1294756
0.1046712
0.0787383
0.0531921
0.3152372
0.3004855
0.2850757
0.268962
0.2520931
0.2344524
0.2160087
0.1966672
0.1763494
0.1549655
0.1317209
0.1074018
0.0820975
0.05815326
0.3308075
0.3166997
0.301977
0.2865986
0.2705187
0.2537255
0.2361942
0.2178411
0.1985995
0.1783927
0.1564962
0.1336342
0.1096587
0.08488321
0.06214082
0.3452768
0.3317536
0.317653
0.3029381
0.2875678
0.2715338
0.2548158
0.2373391
0.2190456
0.1998694
0.1791409
0.157548
0.1349086
0.1112072
0.0868232
0.3587105
0.3457188
0.3321824
0.3180678
0.3033376
0.2879862
0.2719969
0.2553018
0.2378498
0.2195833
0.1998771
0.1793895
0.1579469
0.1354804
0.111984
0.06718677
0.08629868
0.06329083
0.107376
0.08253029
0.05836597
0.1278653
0.1038749
0.07855432
0.05319293
0.1482867
0.1254331
0.1011906
0.07549683
0.04925796
0.1685392
0.1468102
0.1238005
0.09936988
0.07340706
0.04668064
0.1883832
0.1677156
0.1458816
0.1227528
0.09817967
0.07209203
0.04514029
0.2076779
0.188001
0.1672595
0.1453433
0.1221208
0.09750036
0.07138725
0.04429439
0.2263823
0.2076298
0.1879006
0.1671014
0.1451206
0.1218831
0.09728411
0.07114581
0.04400803
0.2445233
0.2266362
0.2078493
0.1880823
0.1672411
0.1452677
0.1220754
0.09748628
0.07136618
0.04428029
0.26218
0.2451086
0.2272049
0.2083998
0.1886124
0.1677998
0.1458927
0.1227363
0.09819158
0.07214424
0.04412886
0.2794785
0.263183
0.2461158
0.2282166
0.2094157
0.1896816
0.1689601
0.1471183
0.1240367
0.09958554
0.07273621
0.04490557
0.2965547
0.2810049
0.2647389
0.2477036
0.2298388
0.2111217
0.1915099
0.1708896
0.1491619
0.1262127
0.1010744
0.07442444
0.04679284
0.3133696
0.2985363
0.2830384
0.2668293
0.2498565
0.2321032
0.2135365
0.1940592
0.1735897
0.1520337
0.1285545
0.1038622
0.07790619
0.05230125
0.3293717
0.3152029
0.3004148
0.2849658
0.2688099
0.2519346
0.2343143
0.215864
0.1965153
0.1761894
0.1541443
0.1310878
0.1068506
0.08166158
0.05787861
0.3443372
0.3307751
0.3166328
0.3018732
0.2864549
0.2703693
0.2535959
0.236059
0.2176998
0.1984514
0.1776368
0.1559419
0.1331803
0.1093257
0.08469832
0.358256
0.3452459
0.3316899
0.3175542
0.3028016
0.287426
0.271411
0.2546881
0.2372059
0.2189065
0.1991621
0.1786313
0.1571392
0.1346157
0.1110488
0.3711882
0.3586809
0.3456578
0.332088
0.3179375
0.3032024
0.2878692
0.2718754
0.2551754
0.2377181
0.2189154
0.1993992
0.1790092
0.1576768
0.1353359
0.06978605
0.08926027
0.06711082
0.1106872
0.08622857
0.0631377
0.1310546
0.1073103
0.0823884
0.0581296
0.1505116
0.1278026
0.1037411
0.07833586
0.05286247
0.1698782
0.1482281
0.1253091
0.1009911
0.07520555
0.04892279
0.1891122
0.1684846
0.1466954
0.1236176
0.09910762
0.07311832
0.0463973
0.2079925
0.1883321
0.1676085
0.1457124
0.1225127
0.09792049
0.07185091
0.04485513
0.2263823
0.2076298
0.1879006
0.1671014
0.1451206
0.1218831
0.09728411
0.07114581
0.04400803
0.2442376
0.2263368
0.207535
0.1877519
0.1668929
0.1448996
0.1216845
0.09706725
0.0709037
0.04372038
0.2615795
0.24448
0.2265462
0.2077085
0.1878856
0.1670337
0.1450825
0.1218755
0.09726806
0.07112258
0.04288054
0.2784796
0.2621386
0.2450227
0.2270709
0.2082129
0.1884162
0.1676253
0.1457056
0.1225342
0.09797081
0.07095132
0.04273669
0.2950555
0.2794388
0.2631008
0.2459878
0.2280386
0.2092293
0.1895162
0.1687834
0.1469285
0.1238316
0.09849929
0.07154939
0.04316364
0.3114353
0.296517
0.2809269
0.2646175
0.2475351
0.2296628
0.2109661
0.1913443
0.1707127
0.1489722
0.1252192
0.1000051
0.07301331
0.04451663
0.3275799
0.3133346
0.2984641
0.2829262
0.2666738
0.2496945
0.2319614
0.2133873
0.1939018
0.173423
0.1511738
0.1278067
0.1031097
0.07719034
0.05168981
0.3429585
0.3293389
0.3151353
0.3003098
0.2848206
0.2686587
0.2518032
0.234177
0.2157203
0.1963644
0.1754176
0.1535529
0.1305775
0.1064541
0.08142817
0.357353
0.3443061
0.3307109
0.3165334
0.3017359
0.2863123
0.2702457
0.2534672
0.2359247
0.2175595
0.1977375
0.1771157
0.1555176
0.1328716
0.1091566
0.3707511
0.3582264
0.3451848
0.3315952
0.3174236
0.302666
0.2873088
0.2712891
0.2545613
0.2370738
0.2182362
0.1986809
0.1782468
0.1568652
0.1344687
0.3832081
0.3711598
0.3586224
0.3455673
0.3319631
0.3178079
0.3030905
0.2877532
0.2717549
0.2550501
0.2370835
0.2184625
0.1990399
0.1787551
0.1575416
0.07109071
0.09127755
0.06971143
0.1133365
0.08919156
0.06696212
0.1341304
0.1106234
0.08609114
0.06291204
0.1535064
0.1309941
0.1071814
0.08217906
0.0578187
0.1719784
0.1504534
0.1276794
0.1035434
0.0780482
0.05253515
0.1903808
0.1698234
0.1481128
0.1251257
0.1007284
0.07491695
0.04864095
0.2086851
0.1890608
0.1683771
0.1465254
0.1233766
0.09884767
0.07287653
0.04611202
0.2266819
0.2079443
0.1882314
0.1674501
0.1454891
0.1222745
0.09770376
0.07160896
0.04456846
0.2442376
0.2263368
0.207535
0.1877519
0.1668929
0.1448996
0.1216845
0.09706725
0.0709037
0.04372038
0.2613066
0.2441944
0.2262469
0.2073945
0.1875555
0.1666859
0.1447149
0.1214853
0.09684979
0.07066092
0.04232416
0.2779053
0.2615383
0.2443945
0.2264128
0.2075225
0.1876903
0.1668602
0.1448967
0.121675
0.09704911
0.06993925
0.04154115
0.2940991
0.2784401
0.2620569
0.2448954
0.2268938
0.2080275
0.1882519
0.16745
0.1455176
0.1223311
0.09689596
0.06982386
0.04115144
0.3099984
0.2950176
0.2793605
0.262979
0.2458187
0.2278618
0.2090729
0.1893497
0.1686055
0.1467376
0.1228304
0.0974308
0.07018672
0.04112752
0.3257243
0.3113992
0.2964425
0.2808111
0.264457
0.2473678
0.2295152
0.2108094
0.1911775
0.1705347
0.1480456
0.1242317
0.0987359
0.07127515
0.04150291
0.3412379
0.3275465
0.3132655
0.2983568
0.2827778
0.2665194
0.2495596
0.2318198
0.2132383
0.1937446
0.1726153
0.1504756
0.1271109
0.1024639
0.07671036
0.356028
0.3429271
0.3292741
0.3150348
0.3001709
0.2846763
0.2685335
0.2516725
0.2340405
0.2155774
0.1956358
0.1748618
0.153076
0.1302104
0.106242
0.3698827
0.3573232
0.3442447
0.3306157
0.316402
0.3015994
0.2861942
0.270123
0.2533394
0.2357915
0.2168831
0.1972454
0.1767167
0.1552289
0.1327149
0.3827874
0.3707227
0.3581677
0.345094
0.33147
0.3172937
0.3025538
0.2871924
0.2711682
0.2544355
0.236437
0.2177802
0.1983178
0.1779891
0.1567277
0.3947933
0.3831808
0.3711036
0.3585355
0.3454474
0.331839
0.3177008
0.3029796
0.2876381
0.2716354
0.2544458
0.2366533
0.2181221
0.1987999
0.1786279
0.09229087
0.0710167
0.1151392
0.09120967
0.0695653
0.1365914
0.1132737
0.08905685
0.06674294
0.1563951
0.1340715
0.110498
0.08588838
0.06261522
0.1748052
0.1534501
0.1308752
0.1069911
0.08190349
0.05751086
0.1923702
0.1719239
0.1503388
0.1274973
0.103283
0.07776317
0.05225995
0.2098901
0.1903292
0.1697155
0.1479422
0.1248839
0.1004679
0.07467486
0.04835661
0.2273412
0.2086367
0.1889597
0.168218
0.1463013
0.1231376
0.09863
0.07263359
0.04582479
0.2445233
0.2266362
0.2078493
0.1880823
0.1672411
0.1452677
0.1220754
0.09748628
0.07136618
0.04428029
0.2613066
0.2441944
0.2262469
0.2073945
0.1875555
0.1666859
0.1447149
0.1214853
0.09684979
0.07066092
0.04232416
0.2776443
0.2612655
0.2441091
0.2261138
0.207209
0.1873607
0.1665129
0.1445297
0.1212855
0.09663173
0.0694823
0.04100895
0.2935493
0.277866
0.261457
0.2442678
0.2262365
0.2073379
0.1875269
0.1666861
0.1447101
0.1214737
0.09598441
0.06885473
0.04005708
0.3090819
0.2940615
0.2783622
0.2619357
0.2447271
0.2267179
0.2078721
0.1880867
0.1672738
0.1453286
0.1213417
0.09588202
0.06858407
0.03938252
0.3243459
0.3099622
0.2949429
0.2792443
0.2628179
0.2456506
0.2277135
0.2089155
0.1891821
0.1684264
0.1458048
0.1218449
0.09620578
0.06863636
0.03879241
0.3394562
0.3256898
0.311328
0.2963319
0.280658
0.2642975
0.2472273
0.2293665
0.2106517
0.1910097
0.1696649
0.1471237
0.1230588
0.09717598
0.06901596
0.03666245
0.3543746
0.3412059
0.3274803
0.3131629
0.2982151
0.2826304
0.2663909
0.2494249
0.2316784
0.2130895
0.1929825
0.1719594
0.1498257
0.1265138
0.1020318
0.3686084
0.3559979
0.3428649
0.3291779
0.3149019
0.3000329
0.2845567
0.268409
0.2515427
0.2339048
0.2148873
0.1951112
0.1744136
0.152733
0.130014
0.3819516
0.369854
0.3572642
0.3441534
0.3304898
0.3162713
0.3014865
0.286077
0.2700012
0.2532126
0.235149
0.216417
0.1968687
0.1764453
0.1550823
0.3943882
0.3827601
0.3706663
0.3580806
0.3449739
0.3313455
0.3171863
0.3024425
0.2870769
0.2710483
0.2538292
0.2360038
0.2174362
0.1980743
0.1778597
0.4059654
0.3947671
0.3831268
0.3710201
0.3584204
0.3453283
0.3317363
0.3175946
0.3028695
0.2875239
0.271059
0.2540363
0.2363299
0.2178947
0.1986797
0.1160443
0.09222337
0.07087176
0.138266
0.115077
0.09107655
0.06934989
0.1587069
0.1365333
0.1131505
0.08885807
0.06645463
0.1775324
0.1563401
0.1339556
0.1103129
0.08562148
0.06232134
0.1950478
0.1747525
0.1533394
0.1306994
0.1067404
0.08163049
0.05725436
0.2117795
0.1923189
0.1718166
0.1501693
0.1272572
0.1030248
0.07752412
0.05198231
0.2284882
0.2098414
0.1902277
0.1695557
0.1477172
0.1246441
0.1002494
0.07443119
0.04806974
0.2451521
0.2272954
0.2085412
0.18881
0.1680081
0.1460789
0.1229374
0.09841131
0.07238949
0.04553562
0.2615795
0.24448
0.2265462
0.2077085
0.1878856
0.1670337
0.1450825
0.1218755
0.09726806
0.07112258
0.04288054
0.2776443
0.2612655
0.2441091
0.2261138
0.207209
0.1873607
0.1665129
0.1445297
0.1212855
0.09663173
0.0694823
0.04100895
0.2932994
0.2776051
0.2611843
0.2439827
0.225938
0.2070248
0.1871978
0.1663395
0.1443439
0.1210851
0.09557201
0.06841745
0.03956951
0.3085548
0.2935118
0.2777885
0.2613363
0.2441003
0.2260615
0.2071835
0.1873629
0.1665113
0.144523
0.1204944
0.09500978
0.06769383
0.03843784
0.3234666
0.3090459
0.2939871
0.2782466
0.2617754
0.2445599
0.2265706
0.207716
0.1879208
0.1670967
0.1444075
0.1204076
0.09476766
0.06723947
0.03744932
0.3381327
0.3243112
0.3098908
0.2948318
0.2790906
0.2626578
0.2455096
0.2275642
0.208757
0.1890134
0.1675515
0.1448857
0.1207139
0.09481336
0.0668953
0.03581732
0.3526625
0.3394231
0.3256215
0.3112222
0.2961855
0.2805058
0.2641637
0.247086
0.2292168
0.2104929
0.1901894
0.1687989
0.1460278
0.1216166
0.09515134
0.06540727
0.03409826
0.3670184
0.3543439
0.3411425
0.3273821
0.3130273
0.2980742
0.2825077
0.2662625
0.2492904
0.2315372
0.2123681
0.1923635
0.1713486
0.1492678
0.1261142
0.3807253
0.3685795
0.3559383
0.3427726
0.3290506
0.3147698
0.2999186
0.2844378
0.2682851
0.2514135
0.2332495
0.2143905
0.1946881
0.1740911
0.1525494
0.3935833
0.3819241
0.3697974
0.3571766
0.3440326
0.3303646
0.3161633
0.3013745
0.2859607
0.2698802
0.252601
0.2347064
0.2160601
0.1966124
0.1763074
0.4055751
0.3943619
0.3827059
0.3705826
0.3579653
0.3448544
0.3312426
0.3170797
0.3023321
0.2869624
0.27047
0.2534169
0.235677
0.2172056
0.1979521
0.4167445
0.4059402
0.3947151
0.3830465
0.3709096
0.358306
0.3452298
0.3316344
0.3174891
0.3027602
0.2869733
0.2706684
0.2537284
0.2361139
0.2177808
0.1391071
0.1159824
0.09209101
0.07065808
0.1602804
0.1382085
0.114955
0.09088013
0.06906649
0.1797154
0.1586527
0.1364192
0.1129684
0.08859641
0.06616915
0.1976314
0.1774808
0.1562321
0.1337843
0.110069
0.0853571
0.06207773
0.2143226
0.1949981
0.1746487
0.1531755
0.1304678
0.1064919
0.08140333
0.05699793
0.2302866
0.2117311
0.1922179
0.1716577
0.1499456
0.1270191
0.1028083
0.07728354
0.05170219
0.2462459
0.2284421
0.2097455
0.1900773
0.1693449
0.147494
0.1244429
0.1000296
0.07418593
0.04778034
0.26218
0.2451086
0.2272049
0.2083998
0.1886124
0.1677998
0.1458927
0.1227363
0.09819158
0.07214424
0.04412886
0.2779053
0.2615383
0.2443945
0.2264128
0.2075225
0.1876903
0.1668602
0.1448967
0.121675
0.09704911
0.06993925
0.04154115
0.2932994
0.2776051
0.2611843
0.2439827
0.225938
0.2070248
0.1871978
0.1663395
0.1443439
0.1210851
0.09557201
0.06841745
0.03956951
0.3083153
0.293262
0.2775278
0.261064
0.2438156
0.2257634
0.2068708
0.1870345
0.1661654
0.1441576
0.1201108
0.09461541
0.06729132
0.03801349
0.322961
0.308519
0.2934378
0.2776734
0.2611768
0.243934
0.2259151
0.2070285
0.1871984
0.166336
0.1436117
0.1195971
0.09396646
0.0664641
0.03669779
0.3372885
0.3234322
0.3089748
0.2938767
0.2780938
0.2616162
0.2444199
0.2264226
0.2075591
0.187754
0.1662331
0.1435369
0.1193796
0.09355935
0.06580528
0.03507568
0.3513908
0.3380996
0.3242428
0.3097846
0.294685
0.2789379
0.2625235
0.2453677
0.2274138
0.2085974
0.1881886
0.1666885
0.1438296
0.1194272
0.09325037
0.06471225
0.03374126
0.3653719
0.3526308
0.3393577
0.3255202
0.3110822
0.2960401
0.2803781
0.264029
0.2469436
0.2290662
0.2097165
0.1893721
0.1677684
0.1446794
0.1197442
0.09191537
0.06336846
0.0322012
0.3791952
0.3669888
0.354283
0.3410483
0.3272521
0.3128924
0.2979569
0.2823852
0.2661343
0.2491561
0.2308523
0.211782
0.1917869
0.170824
0.1488941
0.3924024
0.3806975
0.3685222
0.3558497
0.3426505
0.328924
0.3146604
0.2998049
0.2843196
0.2681621
0.2507899
0.2327778
0.2139898
0.1943836
0.1739184
0.4047996
0.3935569
0.3818696
0.3697132
0.3570606
0.3439125
0.330261
0.316056
0.3012632
0.2858452
0.2692971
0.2521797
0.2343674
0.2158174
0.1964823
0.4163682
0.4055497
0.3943098
0.3826254
0.3704718
0.3578506
0.3447557
0.3311404
0.316974
0.3022225
0.28641
0.2700768
0.2531058
0.235458
0.2170898
0.4271493
0.4167202
0.4058902
0.3946378
0.3829402
0.3707996
0.3582114
0.3451321
0.3315334
0.3173846
0.3022336
0.2866003
0.2703748
0.2535228
0.2360057
0.1610709
0.1390498
0.115861
0.09189568
0.07037694
0.1812015
0.1602266
0.1380953
0.1147747
0.09062153
0.06878585
0.1996999
0.1796645
0.1585461
0.1362505
0.1127286
0.0883372
0.06593292
0.2167767
0.1975828
0.1773794
0.1560722
0.1335585
0.1098274
0.08513804
0.06183544
0.2327071
0.2142757
0.1949003
0.174495
0.1529595
0.1302382
0.1062852
0.0811765
0.05674157
0.2479606
0.2302407
0.2116356
0.1920682
0.171448
0.1497238
0.1268194
0.1025904
0.0770414
0.05141959
0.2632246
0.2462021
0.2283513
0.2096034
0.1898787
0.1691356
0.1473068
0.1242405
0.09980826
0.07393907
0.04636948
0.2784796
0.2621386
0.2450227
0.2270709
0.2082129
0.1884162
0.1676253
0.1457056
0.1225342
0.09797081
0.07095132
0.04273669
0.2935493
0.277866
0.261457
0.2442678
0.2262365
0.2073379
0.1875269
0.1666861
0.1447101
0.1214737
0.09598441
0.06885473
0.04005708
0.3083153
0.293262
0.2775278
0.261064
0.2438156
0.2257634
0.2068708
0.1870345
0.1661654
0.1441576
0.1201108
0.09461541
0.06729132
0.03801349
0.3227312
0.3082796
0.2931881
0.277413
0.2609049
0.2436497
0.2256174
0.2067164
0.1868706
0.1659909
0.1432511
0.1192304
0.09360342
0.06610999
0.03635154
0.3368031
0.3229267
0.3084483
0.2933279
0.2775213
0.2610184
0.2437948
0.2257681
0.2068729
0.1870333
0.1654818
0.1427759
0.1186352
0.09286094
0.06517685
0.03457695
0.3505796
0.3372555
0.3233641
0.3088692
0.2937307
0.2779419
0.2614829
0.2442792
0.2262738
0.2074014
0.1869402
0.1654161
0.1425778
0.1182637
0.09227026
0.0640815
0.03332701
0.3641491
0.351359
0.338034
0.3241411
0.3096441
0.2945391
0.2788097
0.2623883
0.2452247
0.2272625
0.2078172
0.1873746
0.1656959
0.1426272
0.1179821
0.09128941
0.06304448
0.03202637
0.3776108
0.3653415
0.3525681
0.3392606
0.3253861
0.310943
0.2959181
0.2802495
0.2638934
0.2468004
0.2283294
0.2089426
0.188399
0.1664998
0.142928
0.116749
0.09008645
0.06175279
0.0307411
0.3909291
0.3791668
0.3669304
0.3541927
0.3409236
0.3271229
0.3127802
0.2978397
0.2822628
0.2660063
0.2485045
0.2302959
0.2112359
0.1912915
0.1704725
0.4036618
0.3923757
0.3806425
0.3684371
0.3557325
0.3425291
0.3288191
0.3145516
0.2996919
0.2842021
0.2675675
0.250341
0.2323973
0.2137014
0.1942206
0.4156205
0.4047741
0.3935045
0.3817887
0.3696018
0.3569453
0.3438131
0.3301582
0.3159495
0.3011528
0.2852882
0.2688954
0.2518571
0.2341369
0.2156941
0.4267863
0.4163438
0.4054996
0.3942323
0.3825188
0.3703616
0.3577557
0.3446577
0.3310391
0.3168691
0.3016942
0.2860345
0.2697802
0.2528973
0.235348
0.437197
0.4271258
0.416672
0.4058158
0.3945355
0.3828344
0.3707087
0.3581176
0.3450351
0.3314331
0.3168802
0.3018768
0.2863198
0.2701787
0.2534198
0.1819484
0.1610174
0.1389371
0.1156815
0.09163852
0.07009853
0.2011083
0.181151
0.1601209
0.1379281
0.1145372
0.09036534
0.06855375
0.2187418
0.1996519
0.1795644
0.1583885
0.1360281
0.1124909
0.08812273
0.06569839
0.2350432
0.2167308
0.1974872
0.1772293
0.1558614
0.1333347
0.1096271
0.08492025
0.06159446
0.2502687
0.2326626
0.2141832
0.1947555
0.1742923
0.1527453
0.1300471
0.1060788
0.08095002
0.0564853
0.2648621
0.247917
0.2301502
0.2114941
0.1918706
0.1712399
0.1495377
0.1266185
0.1023712
0.07679771
0.05004125
0.2794785
0.263183
0.2461158
0.2282166
0.2094157
0.1896816
0.1689601
0.1471183
0.1240367
0.09958554
0.07273621
0.04490557
0.2940991
0.2784401
0.2620569
0.2448954
0.2268938
0.2080275
0.1882519
0.16745
0.1455176
0.1223311
0.09689596
0.06982386
0.04115144
0.3085548
0.2935118
0.2777885
0.2613363
0.2441003
0.2260615
0.2071835
0.1873629
0.1665113
0.144523
0.1204944
0.09500978
0.06769383
0.03843784
0.3227312
0.3082796
0.2931881
0.277413
0.2609049
0.2436497
0.2256174
0.2067164
0.1868706
0.1659909
0.1432511
0.1192304
0.09360342
0.06610999
0.03635154
0.3365825
0.322697
0.308209
0.2930785
0.2772612
0.2607468
0.2435109
0.225471
0.2065615
0.1867063
0.1651413
0.1424312
0.1182976
0.09254121
0.06488191
0.03433016
0.3501132
0.3367703
0.322859
0.3083432
0.2931826
0.2773702
0.2608858
0.2436551
0.2256206
0.2067168
0.1862286
0.1646978
0.1418788
0.1176147
0.09170294
0.06364491
0.0330067
0.3633691
0.350548
0.3371903
0.323263
0.3087295
0.2935855
0.2778146
0.2613488
0.2441377
0.2261242
0.2066318
0.1861699
0.1645152
0.1415356
0.1170722
0.09071933
0.0626614
0.03179183
0.3764342
0.3641185
0.3512961
0.3379365
0.3240066
0.3095045
0.2944166
0.2786807
0.2622521
0.2450808
0.2265222
0.2070465
0.1864376
0.1645651
0.1412759
0.1161676
0.08978953
0.0615658
0.03064148
0.3894036
0.3775816
0.3652813
0.3524748
0.339132
0.3252528
0.3108262
0.2957952
0.2801201
0.2637569
0.2460995
0.2275945
0.2080205
0.1872002
0.1648513
0.1401243
0.1150581
0.08863295
0.06043437
0.02960602
0.4022423
0.3909018
0.3791107
0.3668436
0.354073
0.3407997
0.3270153
0.3126681
0.2977228
0.2821406
0.2653852
0.2479751
0.2297772
0.2107665
0.1909595
0.4145237
0.4036361
0.3923228
0.3805607
0.3683245
0.3556159
0.3424285
0.3287148
0.3144434
0.2995796
0.2836343
0.2671396
0.2499789
0.2321234
0.213547
0.4260651
0.415596
0.4047237
0.3934266
0.3816816
0.3694909
0.3568499
0.3437144
0.3300561
0.3158437
0.3006201
0.2849046
0.2685878
0.2516377
0.2340198
0.4368467
0.4267628
0.4162955
0.4054251
0.3941298
0.3824128
0.3702704
0.3576616
0.3445604
0.3309385
0.3163632
0.301335
0.2857511
0.2695813
0.2527926
0.4469038
0.4371744
0.4270794
0.4166004
0.4057173
0.3944338
0.382747
0.3706185
0.3580245
0.3449389
0.3309497
0.3165386
0.3016086
0.2861325
0.2700805
0.2018163
0.1818981
0.1609121
0.1387706
0.1154452
0.09138374
0.06986827
0.2200801
0.2010607
0.1810517
0.1599646
0.1377077
0.1143019
0.09015347
0.06832341
0.2369141
0.2186965
0.1995576
0.1794163
0.1581807
0.1358077
0.1122943
0.08790983
0.06546555
0.2524965
0.2349997
0.2166404
0.1973457
0.1770313
0.1556523
0.1331493
0.1094281
0.08470375
0.06135481
0.2670664
0.2502264
0.232575
0.2140463
0.1945644
0.1740911
0.152567
0.1298563
0.1058727
0.0807239
0.05524593
0.2810444
0.2648207
0.2478311
0.2300161
0.2113073
0.1916744
0.1710653
0.1493504
0.1264163
0.1021506
0.07561005
0.04858921
0.2950555
0.2794388
0.2631008
0.2459878
0.2280386
0.2092293
0.1895162
0.1687834
0.1469285
0.1238316
0.09849929
0.07154939
0.04316364
0.3090819
0.2940615
0.2783622
0.2619357
0.2447271
0.2267179
0.2078721
0.1880867
0.1672738
0.1453286
0.1213417
0.09588202
0.06858407
0.03938252
0.322961
0.308519
0.2934378
0.2776734
0.2611768
0.243934
0.2259151
0.2070285
0.1871984
0.166336
0.1436117
0.1195971
0.09396646
0.0664641
0.03669779
0.3365825
0.322697
0.308209
0.2930785
0.2772612
0.2607468
0.2435109
0.225471
0.2065615
0.1867063
0.1651413
0.1424312
0.1182976
0.09254121
0.06488191
0.03433016
0.3499012
0.3365497
0.3226295
0.3081042
0.2929336
0.2771105
0.2606147
0.2433718
0.2253242
0.2064062
0.185906
0.1643724
0.1415615
0.1173173
0.09143597
0.06342492
0.03283741
0.3629205
0.3500817
0.3367053
0.3227584
0.3082042
0.2930381
0.2772437
0.2607528
0.2435149
0.2254726
0.2059559
0.1854895
0.1638555
0.140926
0.1165446
0.09032306
0.06235919
0.03159271
0.3756836
0.3633387
0.3504854
0.3370934
0.3231292
0.3085906
0.2934639
0.2776867
0.2612141
0.2439956
0.2253942
0.2059028
0.1853197
0.1635356
0.140422
0.1156373