/*--------------------------------*- C++ -*----------------------------------*\
| =========                 |                                                 |
| \\      /  F ield         | OpenFOAM: The Open Source CFD Toolbox           |
|  \\    /   O peration     | Version:  2306                                  |
|   \\  /    A nd           | Website:  www.openfoam.com                      |
|    \\/     M anipulation  |                                                 |
\*---------------------------------------------------------------------------*/
FoamFile
{
    version     2.0;
    format      ascii;
    arch        "LSB;label=32;scalar=64";
    class       volScalarField;
    location    "0.9/fuel";
    object      X.H2;
}
// * * * * * * * * * * * * * * * * * * * * * * * * * * * * * * * * * * * * * //

dimensions      [0 0 0 0 0 0 0];

internalField   nonuniform List<scalar> 
16000
(
0.9289093
0.930214
0.9077091
0.9289833
0.9328132
0.9087224
0.9302886
0.8839557
0.9077766
0.9291282
0.9366309
0.9107397
0.9328892
0.8848608
0.9087903
0.9304347
0.8608929
0.8840176
0.907909
0.9293419
0.9413917
0.9137013
0.9367092
0.8866635
0.9108084
0.9330379
0.861734
0.884923
0.9089234
0.9306501
0.8389291
0.8609502
0.884139
0.9081043
0.9296231
0.9462984
0.9173973
0.9414736
0.8893128
0.9137714
0.9368623
0.8634086
0.8867263
0.9109432
0.9332571
0.8397196
0.8617915
0.885045
0.9091199
0.9309335
0.8180516
0.8389826
0.8610629
0.8843185
0.9083615
0.9299015
0.9498825
0.9212222
0.9463855
0.892624
0.9174697
0.941634
0.8658696
0.8893766
0.9139089
0.937088
0.8412931
0.8634667
0.8868495
0.9111419
0.9335454
0.8187985
0.8397734
0.8619047
0.8852253
0.9093785
0.9312141
0.7981837
0.8181019
0.8390879
0.8612294
0.8845548
0.9086163
0.9301317
0.9521155
0.9240555
0.9499718
0.896057
0.9212977
0.9465559
0.8689454
0.8926897
0.9176116
0.9418704
0.8436049
0.8659285
0.889502
0.9141116
0.9373848
0.8202846
0.8413473
0.8635808
0.8870316
0.9114036
0.9338309
0.7988917
0.818849
0.8398791
0.8620719
0.8854628
0.9096347
0.9314463
0.779247
0.7982311
0.8182009
0.8392437
0.8614489
0.8847891
0.908827
0.9303602
0.9533687
0.9258534
0.9522055
0.8986056
0.924132
0.9501464
0.8721347
0.8961251
0.9214457
0.9468071
0.8464936
0.8690059
0.8928186
0.9178209
0.9421813
0.8224676
0.8436599
0.8660444
0.8896871
0.9143785
0.9376787
0.8003001
0.8203355
0.8414539
0.8637495
0.8872714
0.9116628
0.9340671
0.7799199
0.7989393
0.8189483
0.8400354
0.8622923
0.8856981
0.9098465
0.9316766
0.7611708
0.7792919
0.7983244
0.8183473
0.8394491
0.8616666
0.8849828
0.909036
0.9305869
0.953928
0.926881
0.9534589
0.9002276
0.92593
0.9523815
0.8745037
0.8986744
0.9242819
0.9504036
0.8494884
0.8721974
0.8962589
0.9216641
0.9471375
0.8251948
0.8465499
0.8691248
0.8930089
0.9180965
0.9424891
0.8023686
0.8225192
0.8437679
0.8662157
0.889931
0.9146429
0.9379223
0.7812582
0.8003481
0.8204356
0.8416115
0.8639719
0.8875091
0.9118773
0.9343016
0.7618116
0.7799649
0.7990329
0.8190953
0.8402416
0.8625109
0.8858928
0.9100568
0.9319052
0.7438924
0.7612134
0.7793803
0.7984627
0.8185405
0.8396528
0.8618465
0.8851751
0.9092435
0.9308119
0.953928
0.9273459
0.9540184
0.9011574
0.9269575
0.9536355
0.8760128
0.9002962
0.9260801
0.9526407
0.8517133
0.8745669
0.8988094
0.9245032
0.950742
0.8280216
0.8495466
0.8723206
0.8964566
0.9219518
0.9474648
0.8049522
0.8252475
0.8466606
0.8693006
0.8932596
0.9183695
0.9427456
0.7832233
0.8024172
0.8226206
0.8439278
0.8664415
0.8901726
0.914862
0.9381646
0.7630859
0.7813035
0.8004424
0.8205837
0.8418193
0.8641923
0.8877057
0.9120902
0.9345344
0.7445037
0.7618543
0.7800536
0.7991717
0.8192891
0.8404461
0.8626916
0.8860859
0.9102654
0.9321319
0.7273563
0.7439328
0.7612973
0.7795112
0.7986452
0.8187322
0.8398213
0.8620251
0.8853658
0.9094493
0.9318927
0.9533687
0.9273459
0.9540184
0.901579
0.9274223
0.9541952
0.8768789
0.9012259
0.9271074
0.9538955
0.8531314
0.8760758
0.900431
0.9263015
0.9529817
0.8301218
0.8517719
0.8746909
0.8990089
0.9247944
0.9510772
0.8076298
0.8280761
0.8496612
0.8725027
0.896717
0.9222368
0.94774
0.7856774
0.8050019
0.8253513
0.8468245
0.8695322
0.8935081
0.9185967
0.9430021
0.7649568
0.7832692
0.8025128
0.8227707
0.8441386
0.8666653
0.8903729
0.9150797
0.9384055
0.7457192
0.7631289
0.7813928
0.8005822
0.820779
0.8420255
0.8643747
0.8879009
0.9123015
0.9347656
0.7279403
0.7445443
0.7619384
0.7801849
0.7993547
0.8194815
0.8406152
0.8628709
0.8862776
0.9104724
0.9332216
0.7115131
0.7273948
0.7440126
0.7614216
0.7796841
0.7988263
0.8188907
0.8399884
0.8622023
0.8855551
0.9104391
0.932629
0.9521155
0.926881
0.9534589
0.901579
0.9274223
0.9541952
0.877272
0.9016474
0.9275721
0.9544555
0.8539457
0.8769417
0.9013603
0.9273286
0.9542375
0.8314608
0.8531898
0.8761995
0.9006301
0.9265929
0.9533194
0.8096192
0.8301766
0.8518872
0.8748743
0.8992716
0.925083
0.951359
0.7882205
0.8076811
0.8281834
0.8498307
0.8727428
0.8969752
0.9224759
0.9480177
0.7672929
0.7857243
0.8050997
0.825505
0.8470405
0.8697618
0.8937148
0.9188235
0.9432584
0.7475035
0.7650003
0.7833596
0.8026543
0.8229687
0.8443477
0.8668507
0.8905719
0.9152963
0.9386452
0.7291014
0.74576
0.7632136
0.7815251
0.8007666
0.8209729
0.842196
0.8645558
0.8880946
0.9125113
0.9358765
0.7120718
0.7279789
0.7446243
0.7620632
0.7803584
0.7995365
0.8196406
0.840783
0.8630489
0.8864677
0.9114679
0.9339672
0.6963189
0.7115499
0.7274708
0.7441309
0.7615858
0.7798557
0.798976
0.819048
0.8401542
0.8623781
0.8864656
0.9111123
0.9331831
0.9498825
0.9258534
0.9522055
0.9011574
0.9269575
0.9536355
0.877272
0.9016474
0.9275721
0.9544555
0.8543155
0.8773346
0.9017816
0.9277931
0.9547978
0.83223
0.8540039
0.877065
0.9015588
0.9276196
0.954576
0.8108878
0.8315154
0.8533046
0.8763824
0.9008924
0.9268817
0.9536027
0.7901099
0.8096708
0.8302845
0.8520578
0.8751161
0.8995321
0.9253251
0.9516434
0.7697134
0.7882689
0.8077821
0.8283423
0.8500544
0.8729809
0.8971917
0.9227165
0.9482978
0.7497313
0.7673374
0.7858168
0.8052445
0.8257077
0.8472547
0.8699529
0.8939212
0.91905
0.9435147
0.7308059
0.7475449
0.765086
0.7834935
0.8028411
0.8231652
0.8445209
0.8670351
0.8907698
0.9155115
0.9397987
0.7131825
0.7291403
0.7458406
0.7633391
0.7816997
0.8009496
0.8211332
0.8423653
0.8647355
0.888287
0.9135203
0.9366492
0.696854
0.7121087
0.7280552
0.744743
0.7622279
0.7805305
0.7996867
0.8197985
0.8409495
0.8632254
0.8873827
0.9121473
0.934531
0.6817338
0.696354
0.7116224
0.7275836
0.7442872
0.7617488
0.7799976
0.7991246
0.819204
0.8403188
0.8632244
0.8870843
0.9116186
0.9335537
0.9462984
0.9240555
0.9499718
0.9002276
0.92593
0.9523815
0.8768789
0.9012259
0.9271074
0.9538955
0.8543155
0.8773346
0.9017816
0.9277931
0.9547978
0.8325794
0.8543736
0.8774576
0.9019798
0.9280839
0.9551368
0.8116168
0.8322844
0.8541184
0.8772472
0.9018203
0.927908
0.9548597
0.7913149
0.8109392
0.8316229
0.8534746
0.8766234
0.9011523
0.9271235
0.953888
0.7715118
0.7901586
0.8097723
0.8304443
0.8522828
0.8753559
0.8997506
0.9255688
0.9519303
0.7520394
0.7697593
0.7883644
0.8079318
0.828552
0.8502762
0.8731806
0.8974096
0.9229586
0.9485804
0.7329336
0.7497736
0.767425
0.7859537
0.8054356
0.8259089
0.847433
0.8701437
0.8941273
0.9192761
0.9447541
0.7148127
0.7308452
0.7476264
0.7652131
0.7836704
0.8030265
0.8233279
0.8446931
0.8672183
0.8909665
0.9165481
0.9406455
0.6979176
0.7132196
0.7292171
0.74596
0.7635049
0.7818731
0.801101
0.8212924
0.8425334
0.8649139
0.8892127
0.9142181
0.9372445
0.6822468
0.6968892
0.7121815
0.7281683
0.7448997
0.7623914
0.7806729
0.7998358
0.8199551
0.8411147
0.8640754
0.8880064
0.9126601
0.9349098
0.6677218
0.6817674
0.6964233
0.7117301
0.7277326
0.7444425
0.7618837
0.7801384
0.799272
0.8193589
0.8411111
0.8637989
0.8875495
0.9119569
0.9337394
0.9413917
0.9212222
0.9463855
0.8986056
0.924132
0.9501464
0.8760128
0.9002962
0.9260801
0.9526407
0.8539457
0.8769417
0.9013603
0.9273286
0.9542375
0.8325794
0.8543736
0.8774576
0.9019798
0.9280839
0.9551368
0.811948
0.8326337
0.8544878
0.8776395
0.9022409
0.928372
0.9554206
0.7920075
0.8116679
0.8323915
0.8542876
0.8774873
0.9020795
0.9281491
0.9551449
0.7726588
0.7913633
0.8110403
0.831782
0.8536987
0.8768624
0.90137
0.9273664
0.9541752
0.7537541
0.7715579
0.7902545
0.8099227
0.8306551
0.852506
0.8755571
0.8999704
0.9258141
0.9522197
0.7351379
0.752083
0.7698498
0.7885059
0.8081294
0.8287601
0.8504623
0.8733815
0.8976288
0.9232023
0.9499587
0.7168477
0.7329738
0.7498568
0.7675549
0.7861346
0.8056253
0.8260763
0.847611
0.8703342
0.8943331
0.9203697
0.9458007
0.6994787
0.7148502
0.7309228
0.7477472
0.765381
0.7838459
0.8031801
0.8234898
0.8448644
0.8674005
0.8919145
0.9172974
0.9413395
0.6832664
0.697953
0.7132928
0.7293309
0.7461178
0.7636696
0.7820165
0.8012513
0.8214505
0.8427002
0.865773
0.8898518
0.9147528
0.9376516
0.6682141
0.6822805
0.6969587
0.7122894
0.7283178
0.7450554
0.7625267
0.7808142
0.7999838
0.8201105
0.8419103
0.8646544
0.8884772
0.9130041
0.9351001
0.6542504
0.667754
0.6818337
0.6965263
0.7118724
0.7278807
0.7445708
0.7620174
0.7802781
0.7994183
0.8201046
0.8416488
0.864231
0.8878604
0.9121264
0.9366309
0.9173973
0.9414736
0.896057
0.9212977
0.9465559
0.8745037
0.8986744
0.9242819
0.9504036
0.8531314
0.8760758
0.900431
0.9263015
0.9529817
0.83223
0.8540039
0.877065
0.9015588
0.9276196
0.954576
0.811948
0.8326337
0.8544878
0.8776395
0.9022409
0.928372
0.9554206
0.7923221
0.811999
0.8327405
0.8546567
0.8778792
0.9024996
0.9286127
0.9557056
0.7733181
0.7920557
0.8117686
0.8325499
0.8545109
0.8777255
0.9022962
0.928391
0.9554315
0.7548479
0.7727046
0.7914588
0.81119
0.8319919
0.8539211
0.8770626
0.9015887
0.9276105
0.9544644
0.7367754
0.7537979
0.7716487
0.7903966
0.8101213
0.8308644
0.8526932
0.8757595
0.9001917
0.9260609
0.9536305
0.7189556
0.7351793
0.7521689
0.7699839
0.7886927
0.8083256
0.8289347
0.8506496
0.8735837
0.8978494
0.9243899
0.9514108
0.7014271
0.716886
0.7330531
0.7499803
0.7677265
0.7863141
0.8057832
0.8262434
0.8477888
0.8705244
0.8953288
0.9212617
0.9468079
0.6847628
0.6995145
0.7149243
0.731038
0.7479069
0.7655476
0.7839913
0.8033328
0.8236506
0.8450345
0.8682791
0.8925982
0.9179025
0.9418467
0.6691925
0.6833003
0.698023
0.7134014
0.7294813
0.7462745
0.7638058
0.7821589
0.8014005
0.8216073
0.8435038
0.8663658
0.8903413
0.9151168
0.9378592
0.6547232
0.6682464
0.682347
0.6970619
0.7124322
0.7284662
0.7451842
0.7626609
0.7809544
0.8001306
0.8208591
0.842452
0.8650914
0.8887928
0.9131768
0.6412895
0.6542812
0.6678176
0.6819322
0.6966624
0.7120138
0.7280031
0.7446982
0.7621502
0.7804167
0.8001229
0.8206105
0.8420531
0.8645196
0.888016
0.9328132
0.9137013
0.9367092
0.892624
0.9174697
0.941634
0.8721347
0.8961251
0.9214457
0.9468071
0.8517133
0.8745669
0.8988094
0.9245032
0.950742
0.8314608
0.8531898
0.8761995
0.9006301
0.9265929
0.9533194
0.8116168
0.8322844
0.8541184
0.8772472
0.9018203
0.927908
0.9548597
0.7923221
0.811999
0.8327405
0.8546567
0.8778792
0.9024996
0.9286127
0.9557056
0.7736177
0.7923702
0.8120994
0.8328986
0.8548794
0.8781169
0.9027159
0.9288542
0.955992
0.7554767
0.7733638
0.7921507
0.8119177
0.8327589
0.8547323
0.8779246
0.9025137
0.9286338
0.9557197
0.73782
0.7548914
0.7727951
0.7916002
0.8113876
0.8322002
0.8541073
0.8772637
0.9018084
0.9278558
0.9558711
0.7205215
0.736817
0.7538842
0.7717834
0.7905843
0.8103184
0.8310399
0.8528817
0.8759633
0.9004145
0.9272638
0.9550944
0.7034453
0.7189951
0.7352611
0.7522964
0.7701612
0.7888783
0.8084901
0.8291104
0.8508381
0.8737873
0.8989256
0.9255756
0.9532072
0.6866304
0.7014637
0.7169616
0.7331707
0.7501435
0.7678968
0.7864635
0.8059408
0.8264103
0.8479663
0.8714455
0.8961378
0.9220938
0.9476987
0.6706283
0.6847971
0.6995852
0.7150342
0.7311901
0.7480654
0.7656857
0.784136
0.8034847
0.8238106
0.8458557
0.8689122
0.8931494
0.9183384
0.9421214
0.6556628
0.6692249
0.6833672
0.6981268
0.7135451
0.7296307
0.7464041
0.763941
0.7823002
0.8015486
0.8223632
0.8440581
0.8668197
0.8906743
0.9153017
0.641744
0.6547541
0.6683101
0.6824458
0.6971984
0.712574
0.728589
0.7453119
0.7627941
0.7810935
0.8008379
0.8213687
0.8428608
0.8653843
0.8889512
0.6288118
0.6413191
0.6543422
0.667912
0.6820625
0.6967976
0.7121308
0.7281246
0.7448246
0.7622819
0.7810846
0.8006008
0.8209908
0.8423232
0.8646641
0.930214
0.9107397
0.9328892
0.8893128
0.9137714
0.9368623
0.8689454
0.8926897
0.9176116
0.9418704
0.8494884
0.8721974
0.8962589
0.9216641
0.9471375
0.8301218
0.8517719
0.8746909
0.8990089
0.9247944
0.9510772
0.8108878
0.8315154
0.8533046
0.8763824
0.9008924
0.9268817
0.9536027
0.7920075
0.8116679
0.8323915
0.8542876
0.8774873
0.9020795
0.9281491
0.9551449
0.7736177
0.7923702
0.8120994
0.8328986
0.8548794
0.8781169
0.9027159
0.9288542
0.955992
0.7557624
0.7736632
0.792465
0.8122481
0.8331071
0.8551004
0.8783155
0.9029327
0.9290963
0.9562796
0.7384205
0.75552
0.7734538
0.7922915
0.8121144
0.8329663
0.8549175
0.8781245
0.9027319
0.9288774
0.9571195
0.7215204
0.7378614
0.7549773
0.7729291
0.7917871
0.8115838
0.8323747
0.8542944
0.8774658
0.9020292
0.9290487
0.9572633
0.7049445
0.7205612
0.7368992
0.7540122
0.7719614
0.7907707
0.8104838
0.8312166
0.8530715
0.8761684
0.9015007
0.9284506
0.9568364
0.6885647
0.703483
0.7190731
0.7353825
0.7524649
0.7703372
0.7890339
0.8086557
0.8292873
0.8510278
0.8747808
0.8999949
0.9269867
0.9554834
0.6724201
0.6866654
0.7015359
0.7170738
0.7333262
0.7503055
0.7680386
0.7866127
0.8060982
0.826577
0.8488262
0.8721933
0.8968903
0.9228097
0.9483102
0.6570415
0.6706611
0.6848647
0.6996902
0.7151794
0.7313413
0.7481968
0.765823
0.7842797
0.8036356
0.8245824
0.8464471
0.8694225
0.8935459
0.9185718
0.642647
0.6556939
0.6692891
0.6834666
0.6982641
0.7136877
0.7297543
0.7465328
0.7640753
0.7824405
0.8022625
0.8228843
0.8444824
0.8671284
0.8908434
0.6292489
0.6417736
0.6548152
0.6684048
0.6825764
0.697334
0.7126912
0.7287109
0.7454387
0.7629262
0.7817638
0.8013191
0.8217532
0.8431348
0.8655313
0.6167919
0.6288402
0.6413776
0.6544327
0.6680369
0.6821921
0.6969095
0.7122468
0.7282451
0.7449499
0.7629165
0.7815375
0.8009601
0.8212449
0.8424584
0.9289093
0.9087224
0.9302886
0.8866635
0.9108084
0.9330379
0.8658696
0.8893766
0.9139089
0.937088
0.8464936
0.8690059
0.8928186
0.9178209
0.9421813
0.8280216
0.8495466
0.8723206
0.8964566
0.9219518
0.9474648
0.8096192
0.8301766
0.8518872
0.8748743
0.8992716
0.925083
0.951359
0.7913149
0.8109392
0.8316229
0.8534746
0.8766234
0.9011523
0.9271235
0.953888
0.7733181
0.7920557
0.8117686
0.8325499
0.8545109
0.8777255
0.9022962
0.928391
0.9554315
0.7557624
0.7736632
0.792465
0.8122481
0.8331071
0.8551004
0.8783155
0.9029327
0.9290963
0.9562796
0.7386934
0.7558056
0.7737531
0.7926055
0.8124445
0.8333141
0.8552851
0.8785147
0.9031502
0.9293391
0.9576758
0.7220947
0.7384617
0.7556055
0.7735872
0.7924775
0.8123097
0.8331398
0.8551033
0.878325
0.9029509
0.9300608
0.9584588
0.7059009
0.7215599
0.7379431
0.7551046
0.7731062
0.7919725
0.8117481
0.83255
0.8544824
0.8776689
0.903104
0.9301761
0.9588486
0.6900016
0.7049824
0.7206395
0.737021
0.7541813
0.7721382
0.7909271
0.8106503
0.8313945
0.8532624
0.8771696
0.9025692
0.9298133
0.9588725
0.6742757
0.6886008
0.7035575
0.7191889
0.735543
0.7526322
0.7704848
0.7891906
0.8088225
0.8294653
0.8519544
0.8757683
0.9012641
0.9287248
0.9584971
0.6587621
0.6724535
0.6867345
0.7016432
0.7172222
0.7334806
0.7504404
0.7681802
0.7867617
0.8062554
0.8273847
0.8495244
0.8728891
0.8975361
0.9232896
0.643972
0.6570729
0.6707259
0.6849652
0.6998291
0.7153237
0.7314665
0.7483275
0.7659595
0.7844226
0.8043642
0.8251382
0.846924
0.8697896
0.893758
0.6301173
0.6426768
0.6557553
0.6693843
0.683598
0.6984006
0.7138058
0.729877
0.7466606
0.7642085
0.7831169
0.8027546
0.8232833
0.8447711
0.8672851
0.6172126
0.6292773
0.6418323
0.654906
0.66853
0.6827063
0.6974462
0.7128076
0.7288318
0.7455645
0.763563
0.7822198
0.8016822
0.8220109
0.8432723
0.6052067
0.6168192
0.6288964
0.6414645
0.6545526
0.668161
0.6822992
0.6970204
0.7123619
0.7283646
0.7455542
0.7633467
0.7818779
0.8012001
0.8213721
0.9077091
0.9289833
0.8848608
0.9087903
0.9304347
0.8634086
0.8867263
0.9109432
0.9332571
0.8436049
0.8659285
0.889502
0.9141116
0.9373848
0.8251948
0.8465499
0.8691248
0.8930089
0.9180965
0.9424891
0.8076298
0.8280761
0.8496612
0.8725027
0.896717
0.9222368
0.94774
0.7901099
0.8096708
0.8302845
0.8520578
0.8751161
0.8995321
0.9253251
0.9516434
0.7726588
0.7913633
0.8110403
0.831782
0.8536987
0.8768624
0.90137
0.9273664
0.9541752
0.7554767
0.7733638
0.7921507
0.8119177
0.8327589
0.8547323
0.8779246
0.9025137
0.9286338
0.9557197
0.7386934
0.7558056
0.7737531
0.7926055
0.8124445
0.8333141
0.8552851
0.8785147
0.9031502
0.9293391
0.9576758
0.7223557
0.7387345
0.7558909
0.7738862
0.792791
0.8126393
0.8334871
0.8554703
0.8787145
0.9033683
0.9305177
0.9589911
0.7064507
0.722134
0.738543
0.7557322
0.7737635
0.7926621
0.8124731
0.8333139
0.8552899
0.8785263
0.9040156
0.9311453
0.9599429
0.6909181
0.7059385
0.7216378
0.7380643
0.7552729
0.7732821
0.7921279
0.8119133
0.8327262
0.8546714
0.8786583
0.904118
0.9314159
0.9606175
0.6756541
0.6900378
0.7050571
0.7207557
0.7371821
0.7543494
0.7722865
0.7910845
0.8108179
0.8315736
0.8541952
0.8781551
0.9037942
0.9313636
0.9612076
0.6605438
0.6743102
0.688672
0.7036681
0.719342
0.7357025
0.7527727
0.7706335
0.7893483
0.8089903
0.8303351
0.8528763
0.8769412
0.902824
0.930984
0.9633375
0.6456254
0.6587941
0.6725197
0.6868371
0.7017849
0.7173696
0.7336091
0.7505751
0.7683216
0.7869105
0.8070175
0.8280406
0.8501743
0.8734862
0.8979682
0.6313916
0.6440021
0.6571351
0.6708221
0.6850981
0.6999671
0.7154433
0.731591
0.7484573
0.7660952
0.7851127
0.8048888
0.8255864
0.847267
0.869986
0.6180484
0.630146
0.6427358
0.6558466
0.6695102
0.6837287
0.6985135
0.713923
0.7299988
0.7467874
0.764851
0.783583
0.8031313
0.8235547
0.8449177
0.6056118
0.6172399
0.6293337
0.6419194
0.6550261
0.6686545
0.6828137
0.6975575
0.7129231
0.7289517
0.7461708
0.7639962
0.7825638
0.8019257
0.8221403
0.5940346
0.6052329
0.6168732
0.6289799
0.6415796
0.6546717
0.6682637
0.6824054
0.6971305
0.7124761
0.728941
0.7459637
0.7636701
0.7821053
0.8013203
0.8839557
0.9077766
0.9291282
0.861734
0.884923
0.9089234
0.9306501
0.8412931
0.8634667
0.8868495
0.9111419
0.9335454
0.8224676
0.8436599
0.8660444
0.8896871
0.9143785
0.9376787
0.8049522
0.8252475
0.8466606
0.8693006
0.8932596
0.9183695
0.9427456
0.7882205
0.8076811
0.8281834
0.8498307
0.8727428
0.8969752
0.9224759
0.9480177
0.7715118
0.7901586
0.8097723
0.8304443
0.8522828
0.8753559
0.8997506
0.9255688
0.9519303
0.7548479
0.7727046
0.7914588
0.81119
0.8319919
0.8539211
0.8770626
0.9015887
0.9276105
0.9544644
0.7384205
0.75552
0.7734538
0.7922915
0.8121144
0.8329663
0.8549175
0.8781245
0.9027319
0.9288774
0.9571195
0.7223557
0.7387345
0.7558909
0.7738862
0.792791
0.8126393
0.8334871
0.8554703
0.8787145
0.9033683
0.9305177
0.9589911
0.7067006
0.7223949
0.7388157
0.7560173
0.774062
0.7929752
0.8128022
0.8336605
0.8556561
0.8789149
0.904428
0.9315826
0.9604305
0.6914452
0.7064882
0.7222115
0.7386637
0.7558997
0.7739385
0.7928165
0.8126371
0.8334887
0.855477
0.8795056
0.9049902
0.9323062
0.9615622
0.6765334
0.6909541
0.7060129
0.7217534
0.7382246
0.7554401
0.7734294
0.792284
0.8120792
0.8329033
0.8555925
0.8795924
0.9052323
0.9327605
0.9625507
0.6618673
0.6756888
0.6901092
0.7051682
0.7209094
0.7373422
0.7544904
0.7724358
0.791243
0.8109866
0.8324485
0.8551143
0.8792861
0.9051866
0.9331047
0.9641827
0.6473375
0.6605769
0.6743785
0.6887778
0.7038145
0.7194942
0.7358363
0.752914
0.7707832
0.7895071
0.8098106
0.8312011
0.8539722
0.8783834
0.9048487
0.9345927
0.9659017
0.6329816
0.6456561
0.6588575
0.6726179
0.6869727
0.7019258
0.7174923
0.7337375
0.7507096
0.7684628
0.7876319
0.8076365
0.8286514
0.8507322
0.8738858
0.6192747
0.6314205
0.6440617
0.6572274
0.6709494
0.6852302
0.7000814
0.7155622
0.7317149
0.7485865
0.7667505
0.7856095
0.8053119
0.8259089
0.8474506
0.6064167
0.6180759
0.6302026
0.6428234
0.6559674
0.6696354
0.6838367
0.6986255
0.7140393
0.7301198
0.747399
0.7652936
0.7839399
0.8033876
0.8236926
0.5944249
0.6056381
0.6172941
0.6294174
0.6420347
0.6551456
0.6687574
0.6829203
0.6976679
0.7130376
0.72953
0.7465831
0.764323
0.7827944
0.8020479
0.5832555
0.5940598
0.6052849
0.6169535
0.6290904
0.641694
0.6547702
0.6683656
0.6825109
0.6972398
0.7130267
0.7293316
0.7462716
0.7638861
0.7822192
0.8608929
0.8840176
0.907909
0.9293419
0.8397196
0.8617915
0.885045
0.9091199
0.9309335
0.8202846
0.8413473
0.8635808
0.8870316
0.9114036
0.9338309
0.8023686
0.8225192
0.8437679
0.8662157
0.889931
0.9146429
0.9379223
0.7856774
0.8050019
0.8253513
0.8468245
0.8695322
0.8935081
0.9185967
0.9430021
0.7697134
0.7882689
0.8077821
0.8283423
0.8500544
0.8729809
0.8971917
0.9227165
0.9482978
0.7537541
0.7715579
0.7902545
0.8099227
0.8306551
0.852506
0.8755571
0.8999704
0.9258141
0.9522197
0.73782
0.7548914
0.7727951
0.7916002
0.8113876
0.8322002
0.8541073
0.8772637
0.9018084
0.9278558
0.9558711
0.7220947
0.7384617
0.7556055
0.7735872
0.7924775
0.8123097
0.8331398
0.8551033
0.878325
0.9029509
0.9300608
0.9584588
0.7067006
0.7223949
0.7388157
0.7560173
0.774062
0.7929752
0.8128022
0.8336605
0.8556561
0.8789149
0.904428
0.9315826
0.9604305
0.6916847
0.706738
0.7224722
0.738936
0.7561844
0.7742366
0.7931292
0.8129655
0.8338346
0.8558424
0.8798892
0.9053846
0.9327087
0.9619865
0.677039
0.691481
0.7065622
0.7223266
0.7388232
0.756066
0.7740849
0.7929715
0.8128016
0.833664
0.8563883
0.8804029
0.9060335
0.9335359
0.9633022
0.6627115
0.6765678
0.6910252
0.7061233
0.7219062
0.7383838
0.7555801
0.7735774
0.7924409
0.812246
0.8337669
0.8564631
0.8806204
0.9064407
0.9341947
0.9649243
0.6486092
0.6619004
0.6757572
0.6902154
0.705315
0.7210621
0.7374765
0.7546323
0.7725862
0.7914026
0.8118114
0.8333115
0.8561704
0.8805728
0.9067496
0.9352878
0.9662587
0.6346281
0.6473692
0.6606423
0.6744798
0.6889178
0.7039599
0.7196219
0.735971
0.7530564
0.7709338
0.7902835
0.8106279
0.8322316
0.8553206
0.8802558
0.9080846
0.9366315
0.9677988
0.6208048
0.6330112
0.645717
0.6589517
0.6727479
0.6871076
0.7020431
0.7176148
0.7338657
0.7508439
0.7691477
0.788218
0.8082131
0.829176
0.8511059
0.6075976
0.6193025
0.6314778
0.6441503
0.6573495
0.671076
0.6853396
0.7001951
0.7156804
0.7318379
0.7492101
0.7672222
0.7860102
0.8056164
0.8260816
0.5952004
0.6064431
0.6181304
0.6302868
0.6429394
0.6560875
0.669739
0.683944
0.6987368
0.7141548
0.7307029
0.7478203
0.7656326
0.7841826
0.8035177
0.5836318
0.5944503
0.6056902
0.6173746
0.6295282
0.6421494
0.6552443
0.6688596
0.683026
0.6977775
0.71359
0.7299232
0.7468942
0.764542
0.7829102
0.5728507
0.5832798
0.5941098
0.6053622
0.6170598
0.6292004
0.6417886
0.6548679
0.6684666
0.6826154
0.6977664
0.7133997
0.7296252
0.7464772
0.7639943
0.8389291
0.8609502
0.884139
0.9081043
0.9296231
0.8187985
0.8397734
0.8619047
0.8852253
0.9093785
0.9312141
0.8003001
0.8203355
0.8414539
0.8637495
0.8872714
0.9116628
0.9340671
0.7832233
0.8024172
0.8226206
0.8439278
0.8664415
0.8901726
0.914862
0.9381646
0.7672929
0.7857243
0.8050997
0.825505
0.8470405
0.8697618
0.8937148
0.9188235
0.9432584
0.7520394
0.7697593
0.7883644
0.8079318
0.828552
0.8502762
0.8731806
0.8974096
0.9229586
0.9485804
0.7367754
0.7537979
0.7716487
0.7903966
0.8101213
0.8308644
0.8526932
0.8757595
0.9001917
0.9260609
0.9536305
0.7215204
0.7378614
0.7549773
0.7729291
0.7917871
0.8115838
0.8323747
0.8542944
0.8774658
0.9020292
0.9290487
0.9572633
0.7064507
0.722134
0.738543
0.7557322
0.7737635
0.7926621
0.8124731
0.8333139
0.8552899
0.8785263
0.9040156
0.9311453
0.9599429
0.6916847
0.706738
0.7224722
0.738936
0.7561844
0.7742366
0.7931292
0.8129655
0.8338346
0.8558424
0.8798892
0.9053846
0.9327087
0.9619865
0.6772688
0.6917204
0.7068119
0.722587
0.7390951
0.7563503
0.7743826
0.7932836
0.8131294
0.8340091
0.8567489
0.8807696
0.9063966
0.93389
0.9636485
0.6631969
0.6770733
0.6915517
0.7066721
0.7224787
0.7389816
0.7562052
0.7742319
0.7931271
0.8129667
0.8345182
0.8572241
0.8813648
0.9071391
0.9348231
0.9654231
0.6494204
0.6627445
0.6766359
0.6911308
0.7062693
0.7220581
0.7385171
0.7557208
0.7737262
0.7925986
0.8130598
0.8345839
0.8574222
0.8817363
0.9077297
0.9359185
0.966673
0.6358509
0.648641
0.661966
0.6758589
0.6903559
0.7054609
0.7211903
0.7376117
0.7547753
0.7727375
0.7921828
0.8126254
0.8343041
0.8573728
0.8820179
0.9087106
0.9369555
0.9679736
0.6223892
0.6346585
0.6474319
0.6607394
0.6746139
0.689057
0.7040819
0.7197505
0.7361066
0.7531996
0.7716706
0.7910574
0.811601
0.8335002
0.857072
0.883251
0.9099136
0.9382472
0.9692589
0.6090709
0.6208332
0.6330696
0.6458073
0.6590764
0.6728771
0.6872198
0.7021603
0.7177372
0.7339937
0.7514955
0.7697041
0.7887641
0.8087085
0.8295275
0.5963382
0.6076243
0.6193575
0.6315629
0.6442675
0.6574709
0.6711809
0.6854484
0.7003081
0.7157979
0.7324325
0.749659
0.7676027
0.7862986
0.8057794
0.5843795
0.5952259
0.6064955
0.6182113
0.6303982
0.6430547
0.6561869
0.6698418
0.6840505
0.6988472
0.7147118
0.7311046
0.7481429
0.7658631
0.7843059
0.5732137
0.5836562
0.5945004
0.6057677
0.6174812
0.6296384
0.6422443
0.6553423
0.6689609
0.6831309
0.6983058
0.7139655
0.7302198
0.7471027
0.764652
0.562803
0.5728742
0.583328
0.5941842
0.6054645
0.6171656
0.6292913
0.6418824
0.6549649
0.6685669
0.6831198
0.6981232
0.7136802
0.7298213
0.7465802
0.8180516
0.8389826
0.8610629
0.8843185
0.9083615
0.9299015
0.7988917
0.818849
0.8398791
0.8620719
0.8854628
0.9096347
0.9314463
0.7812582
0.8003481
0.8204356
0.8416115
0.8639719
0.8875091
0.9118773
0.9343016
0.7649568
0.7832692
0.8025128
0.8227707
0.8441386
0.8666653
0.8903729
0.9150797
0.9384055
0.7497313
0.7673374
0.7858168
0.8052445
0.8257077
0.8472547
0.8699529
0.8939212
0.91905
0.9435147
0.7351379
0.752083
0.7698498
0.7885059
0.8081294
0.8287601
0.8504623
0.8733815
0.8976288
0.9232023
0.9499587
0.7205215
0.736817
0.7538842
0.7717834
0.7905843
0.8103184
0.8310399
0.8528817
0.8759633
0.9004145
0.9272638
0.9550944
0.7059009
0.7215599
0.7379431
0.7551046
0.7731062
0.7919725
0.8117481
0.83255
0.8544824
0.8776689
0.903104
0.9301761
0.9588486
0.6914452
0.7064882
0.7222115
0.7386637
0.7558997
0.7739385
0.7928165
0.8126371
0.8334887
0.855477
0.8795056
0.9049902
0.9323062
0.9615622
0.6772688
0.6917204
0.7068119
0.722587
0.7390951
0.7563503
0.7743826
0.7932836
0.8131294
0.8340091
0.8567489
0.8807696
0.9063966
0.93389
0.9636485
0.6634175
0.677303
0.691791
0.7069215
0.7227388
0.7392532
0.7564891
0.774529
0.7934385
0.8132937
0.8348587
0.8575688
0.8817024
0.9074588
0.9351181
0.9656698
0.6498868
0.6632297
0.677141
0.6916568
0.7068174
0.7226298
0.7391142
0.7563449
0.7743794
0.7932832
0.8137714
0.8353022
0.8581212
0.8823853
0.9082971
0.9363551
0.9669933
0.6366309
0.649452
0.6628097
0.676737
0.6912705
0.7064145
0.7221854
0.7386512
0.7558623
0.7738758
0.7933682
0.8138301
0.8354848
0.8584644
0.8829278
0.9092807
0.9373386
0.9682082
0.6235658
0.6358815
0.6487039
0.6620635
0.6759934
0.6904955
0.7055834
0.7213193
0.7377479
0.7549192
0.7734778
0.7929535
0.8135624
0.8354349
0.8587241
0.8838324
0.9102105
0.9384342
0.9693585
0.6105964
0.6224184
0.6347187
0.6475252
0.660868
0.6747472
0.6891738
0.7042048
0.7198799
0.7362431
0.7539005
0.7724055
0.7919795
0.8127998
0.8351487
0.8598757
0.8849419
0.911367
0.9395656
0.970394
0.5977577
0.6090982
0.6208893
0.6331564
0.645927
0.6592003
0.6729847
0.6873319
0.7022772
0.7178594
0.7346148
0.7520249
0.7702228
0.7892335
0.8090405
0.5854763
0.5963639
0.6076772
0.6194393
0.6316755
0.6443841
0.6575715
0.6712852
0.6855566
0.7004204
0.7163657
0.7328604
0.7500211
0.7678766
0.786453
0.5739349
0.584404
0.5952763
0.6065734
0.6183184
0.6305091
0.6431501
0.6562856
0.6699439
0.6841563
0.6993799
0.7150954
0.7314122
0.7483623
0.7659802
0.5631533
0.5732372
0.5837045
0.5945749
0.6058702
0.6175872
0.6297296
0.6423384
0.6554396
0.6690615
0.6836368
0.698665
0.7142489
0.7304187
0.7472074
0.5530962
0.5628256
0.5729206
0.5833996
0.5942827
0.6055662
0.617253
0.6293815
0.6419755
0.6550611
0.6690503
0.6834614
0.6983914
0.7138675
0.7299195
0.7981837
0.8181019
0.8390879
0.8612294
0.8845548
0.9086163
0.9301317
0.7799199
0.7989393
0.8189483
0.8400354
0.8622923
0.8856981
0.9098465
0.9316766
0.7630859
0.7813035
0.8004424
0.8205837
0.8418193
0.8641923
0.8877057
0.9120902
0.9345344
0.7475035
0.7650003
0.7833596
0.8026543
0.8229687
0.8443477
0.8668507
0.8905719
0.9152963
0.9386452
0.7329336
0.7497736
0.767425
0.7859537
0.8054356
0.8259089
0.847433
0.8701437
0.8941273
0.9192761
0.9447541
0.7189556
0.7351793
0.7521689
0.7699839
0.7886927
0.8083256
0.8289347
0.8506496
0.8735837
0.8978494
0.9243899
0.9514108
0.7049445
0.7205612
0.7368992
0.7540122
0.7719614
0.7907707
0.8104838
0.8312166
0.8530715
0.8761684
0.9015007
0.9284506
0.9568364
0.6909181
0.7059385
0.7216378
0.7380643
0.7552729
0.7732821
0.7921279
0.8119133
0.8327262
0.8546714
0.8786583
0.904118
0.9314159
0.9606175
0.677039
0.691481
0.7065622
0.7223266
0.7388232
0.756066
0.7740849
0.7929715
0.8128016
0.833664
0.8563883
0.8804029
0.9060335
0.9335359
0.9633022
0.6634175
0.677303
0.691791
0.7069215
0.7227388
0.7392532
0.7564891
0.774529
0.7934385
0.8132937
0.8348587
0.8575688
0.8817024
0.9074588
0.9351181
0.9656698
0.6500988
0.6634503
0.6773705
0.6918958
0.7070664
0.7228895
0.7393853
0.7566282
0.7746758
0.7935938
0.814094
0.8356276
0.8584385
0.8826827
0.908564
0.9365751
0.9671626
0.6370795
0.6499183
0.6632947
0.6772416
0.6917958
0.7069619
0.7227563
0.7392472
0.7564851
0.7745274
0.7940441
0.8145105
0.8361445
0.859074
0.8834554
0.9096769
0.9376408
0.9684073
0.6243164
0.6366613
0.6495146
0.6629066
0.6768708
0.6914094
0.7065361
0.7223133
0.7387859
0.7560044
0.7746058
0.7940972
0.8146803
0.8364644
0.859578
0.8843627
0.9105621
0.9386827
0.9695
0.6117293
0.6235951
0.6359419
0.6487974
0.6621925
0.6761272
0.6906127
0.7057067
0.7214493
0.737885
0.7556232
0.7742093
0.793841
0.8146305
0.8367063
0.8604217
0.8852201
0.9115437
0.9396968
0.9704598
0.5992274
0.6106245
0.6224762
0.6348083
0.6476485
0.6609958
0.6748591
0.6892914
0.7043285
0.7200102
0.7369111
0.7545998
0.7732814
0.7931158
0.8143579
0.8377889
0.8614573
0.8862857
0.9125556
0.9406371
0.9712672
0.5868447
0.597784
0.6091522
0.6209728
0.6332713
0.6460459
0.6593034
0.6730921
0.6874439
0.702394
0.7184524
0.7351195
0.7525186
0.7706686
0.7895482
0.5749927
0.5855011
0.5964149
0.6077559
0.6195476
0.6317875
0.6444807
0.6576715