/*--------------------------------*- C++ -*----------------------------------*\
| =========                 |                                                 |
| \\      /  F ield         | OpenFOAM: The Open Source CFD Toolbox           |
|  \\    /   O peration     | Version:  2306                                  |
|   \\  /    A nd           | Website:  www.openfoam.com                      |
|    \\/     M anipulation  |                                                 |
\*---------------------------------------------------------------------------*/
FoamFile
{
    version     2.0;
    format      ascii;
    arch        "LSB;label=32;scalar=64";
    class       volVectorField;
    location    "1.2/phiEC";
    object      i;
}
// * * * * * * * * * * * * * * * * * * * * * * * * * * * * * * * * * * * * * //

dimensions      [0 -2 0 0 0 1 0];

internalField   nonuniform List<vector> 
20000
(
(39.81277 86.50759 18740.6)
(39.38485 252.9796 18554.42)
(95.64106 82.22836 17931.03)
(122.1019 285.8666 19517.74)
(38.5609 399.3914 18194.27)
(94.65421 240.4609 17754.1)
(120.6787 839.6804 19282.25)
(111.7148 76.63915 16800.09)
(292.4607 271.6343 18651.61)
(213.0377 557.4721 21271.44)
(37.40718 511.4607 17686.55)
(92.75448 379.6147 17411.87)
(117.9189 1336.335 18815.88)
(110.6236 224.1138 16635.21)
(289.1862 797.8505 18428.01)
(210.2326 1656.69 20967.82)
(106.021 71.31595 15670.56)
(340.3802 253.1213 17459.56)
(507.2761 529.421 20279.61)
(320.4675 893.1062 24279.3)
(36.02648 575.3328 17074.45)
(90.09516 486.1164 16929.44)
(114.0145 1728.184 18134.36)
(108.5234 353.8009 16316.31)
(282.8387 1269.694 17985.22)
(204.692 2695.17 20331.29)
(105.024 208.5466 15517.13)
(336.7693 743.4606 17251.29)
(500.8469 1573.233 19991.6)
(315.9223 2719.988 24024.09)
(93.70449 66.66916 14658.41)
(322.3159 235.5258 16279.54)
(586.1283 493.1801 18951.63)
(756.4237 847.6546 23073.1)
(454.277 1067.883 28356.23)
(34.55468 580.8497 16418.61)
(86.9135 546.8079 16347.87)
(109.2904 1960.561 17278.49)
(105.5845 453.0509 15866.76)
(273.8628 1641.899 17338.26)
(196.6282 3586.25 19311.47)
(103.1054 329.2235 15220.39)
(329.7727 1183.102 16838.87)
(488.1562 2559.125 19387.9)
(306.5954 4649.045 23417.58)
(92.84073 194.9581 14514.99)
(319.0216 691.7757 16085.78)
(579.0714 1465.491 18683.51)
(746.0491 2581.267 22831.22)
(448.8075 3380.13 28533.32)
(81.38164 62.67829 13779.19)
(284.5688 220.1787 15226.79)
(552.5751 458.8522 17658.51)
(864.6001 789.3604 21514.77)
(1060.181 1013.188 26848.21)
(580.1222 671.163 31312.02)
(33.1461 525.7808 15791)
(83.52245 552.046 15724.75)
(104.2169 1986.044 16333.39)
(102.0694 509.6057 15324.85)
(263.0073 1862.584 16525.89)
(186.5465 4177.278 17869.49)
(100.4211 421.576 14802.1)
(319.8842 1529.869 16236.33)
(469.7024 3404.794 18420.94)
(292.1199 6651.778 22212.81)
(91.17862 307.7718 14237.58)
(312.6397 1100.843 15702.08)
(565.1521 2383.724 18121.56)
(724.7851 4411.022 22256.57)
(436.8933 6317.74 28943.33)
(80.63749 183.2879 13644.35)
(281.7164 646.6988 15045.65)
(546.1522 1363.471 17409.1)
(853.269 2403.602 21289.7)
(1047.725 3206.292 27015.83)
(576.7667 2004.36 31831.52)
(70.93698 59.22772 13016.27)
(247.0464 207.0013 14313.9)
(486.8339 428.9514 16514.14)
(809.8133 734.3432 20029.17)
(1194.915 943.3276 24975.31)
(1339.5 637.6079 29560.44)
(671.3831 416.1473 32524.48)
(31.94791 416.8633 15258.83)
(80.27697 499.7131 15128.46)
(99.36318 1793.78 15435.81)
(98.32361 514.4845 14744.24)
(251.3517 1886.772 15628.91)
(175.4517 4266.2 16086.3)
(97.21098 474.1993 14297.86)
(307.9312 1735.449 15479.79)
(446.6525 3965.514 17054.07)
(272.3749 8410.895 19857.97)
(88.85325 394.1065 13846.55)
(303.6224 1423.485 15141.52)
(544.9331 3171.212 17221.58)
(691.84 6309.573 21115.6)
(416.0705 10705.46 29758.3)
(79.20559 289.3487 13383.55)
(276.1907 1029.11 14686.96)
(533.488 2217.742 16886.38)
(830.0766 4106.955 20755.09)
(1020.654 5990.37 27404.18)
(570.0429 3228.748 33036.56)
(70.28968 173.1976 12888.85)
(244.5893 607.9951 14143.59)
(481.2775 1274.62 16280.98)
(799.5262 2236.032 19819.83)
(1181.35 2984.861 25131.18)
(1331.788 1903.568 30051.86)
(669.4261 1196.998 32982.87)
(62.49189 56.2053 12347.9)
(215.3202 195.6083 13522.16)
(422.3074 403.2878 15524.98)
(711.2762 686.4893 18727.9)
(1109.95 877.5377 23229.82)
(1489.937 594.0447 27449.75)
(1539.515 396.5775 30632.23)
(769.3474 212.7708 33297.47)
(31.08019 266.9442 14874.86)
(77.51586 396.2042 14622.81)
(95.25499 1415.422 14691.41)
(94.73858 465.7149 14188.62)
(240.2002 1704.161 14776.97)
(164.9138 3809.741 14494.25)
(93.79057 478.7381 13757.62)
(295.1013 1757.974 14644.5)
(421.3003 4049.873 15364.08)
(248.6612 8736.529 15103.54)
(86.07261 443.3006 13375.17)
(292.7254 1614.755 14437.7)
(519.706 3693.258 15949.58)
(646.9885 7976.307 18886.29)
(380.8839 18395.82 31483.72)
(77.20232 370.5159 13015.91)
(268.3842 1330.727 14162.92)
(515.1017 2950.334 16049.27)
(794.2172 5873.813 19693.83)
(973.4971 10145.37 28176.57)
(560.3666 3854.615 35350.01)
(69.04413 273.42 12642.41)
(239.8297 967.5213 13806.36)
(470.3232 2073.22 15792.33)
(778.4848 3820.504 19322.61)
(1151.945 5575.458 25492.44)
(1316.387 3064.747 31192.33)
(665.6993 1769.58 33930.37)
(61.92143 164.3593 12226.99)
(213.1829 574.5327 13361.22)
(417.5223 1198.364 15305.76)
(702.3853 2090.316 18532.19)
(1097.653 2776.587 23374.75)
(1481.452 1773.223 27906.57)
(1534.908 1140.16 31064.65)
(768.5892 598.4739 33664.31)
(55.6928 53.52312 11755.35)
(189.6917 185.6285 12828.54)
(368.0085 381.1006 14667.87)
(616.2997 645.4339 17607.64)
(971.1399 820.3618 21717.24)
(1373.558 552.7529 25515.28)
(1697.772 370.0783 28407.14)
(1751.234 205.1889 31274.93)
(873.6379 49.30881 33723.85)
(30.62554 91.80363 14674.23)
(75.51591 253.7204 14257.97)
(92.29732 902.2476 14166.21)
(91.68807 369.2526 13717.45)
(230.7588 1344.763 14070.35)
(156.1602 2956.072 13272.06)
(90.51688 433.3577 13240.64)
(282.825 1587.85 13851.14)
(397.2119 3616.826 13854.92)
(227.2282 7422.264 12098.81)
(83.10989 447.5435 12870.13)
(281.0307 1635.709 13660.64)
(491.9777 3771.794 14377.05)
(593.201 8285.062 14386.5)
(318.8589 19784.52 7150.603)
(74.80688 416.7657 12572.74)
(258.9512 1509.532 13504.98)
(492.1734 3435.96 14866.18)
(745.5091 7424.504 17620.67)
(894.1127 17423.7 29812.16)
(550.2367 1959.064 39647.63)
(67.30158 350.1194 12295.01)
(233.1056 1251.09 13313.67)
(454.4224 2758.066 15009.78)
(745.983 5463.898 18335.66)
(1100.92 9440.049 26211.18)
(1294.322 3656.553 33382.85)
(660.8853 1810.782 35368.97)
(60.82373 259.4677 11993.11)
(209.0428 914.2732 13042.54)
(408.0891 1949.191 14846.32)
(684.2042 3571.523 18067.38)
(1071.03 5186.073 23710.68)
(1464.568 2854.087 28967.02)
(1526.185 1684.173 31959.28)
(767.1518 842.6479 34352.77)
(55.18384 156.516 11640.21)
(187.808 545.2211 12675.81)
(363.8462 1132.437 14460.71)
(608.6449 1965.311 17423.62)
(960.518 2595.667 21852.7)
(1365.831 1649.875 25939.99)
(1692.571 1063.708 28808.56)
(1749.22 576.5185 31618.6)
(873.9968 141.698 34044.58)
(50.15195 51.11565 11224.12)
(169.0639 176.7718 12213.49)
(324.226 361.6646 13916.95)
(536.9255 609.9415 16638)
(840.2869 771.3191 20420.34)
(1197.664 516.7776 23851.76)
(1557.618 344.5603 26393.67)
(1913.793 192.6292 28961)
(1973.162 52.89822 31576.86)
(984.047 -107.9606 33850.97)
(30.62554 -91.80363 14674.23)
(74.46785 87.25706 14067.33)
(90.75434 309.4595 13895.98)
(89.47803 236.4641 13377.49)
(223.9591 857.2411 13571.74)
(149.973 1857.806 12461.42)
(87.73107 343.5986 12802.23)
(272.4275 1253.011 13193.05)
(377.1877 2806.663 12696.07)
(210.4519 5481.081 10229.54)
(80.27426 405.12 12386.83)
(269.84 1477.423 12922.56)
(465.6202 3368.615 12972.64)
(544.5223 7040.172 11541.37)
(276.4022 13557.74 5183.895)
(72.25461 420.7546 12097.93)
(248.8283 1529.12 12778.55)
(466.98 3509.014 13403.59)
(687.1978 7711.867 13436.6)
(754.6879 18739.7 6799.615)
(65.21789 393.8235 11876.23)
(224.9809 1419.197 12695.08)
(434.5975 3212.04 13903.79)
(701.8837 6906.114 16407.76)
(1015.411 16207.73 27733.29)
(1271.335 1857.766 37452.95)
(656.8025 822.0523 36987.21)
(59.28802 332.2535 11663.44)
(203.1938 1182.238 12576.95)
(394.397 2593.077 14110.54)
(656.1307 5107.802 17144.75)
(1024.919 8780.029 24379.15)
(1440.507 3404.101 31004.33)
(1515.007 1721.814 33319.15)
(765.3495 797.7689 35228.8)
(54.20446 247.0859 11417.49)
(184.1592 867.6302 12373.38)
(355.6407 1841.966 14026.52)
(592.9926 3357.958 16986.57)
(937.5316 4848.116 22166.69)
(1350.483 2655.297 26926.02)
(1682.784 1570.57 29639.43)
(1745.48 810.2514 32264.48)
(874.5291 205.0922 34608.5)
(49.69309 149.476 11114.15)
(167.3833 519.2079 12068.04)
(320.5574 1074.685 13720.34)
(530.2669 1857.246 16464.09)
(831.1429 2440.504 20547.68)
(1190.978 1542.475 24248.74)
(1552.829 990.2726 26766.68)
(1911.249 540.9297 29278.94)
(1973.445 150.6098 31873.31)
(985.7166 -286.1722 34203.38)
(45.55663 48.93447 10743.33)
(152.2535 168.8218 11661.98)
(289.005 344.4143 13250.87)
(473.0924 578.8479 15788.4)
(731.8553 728.9216 19298.97)
(1035.037 485.8927 22429.42)
(1355.234 322.1949 24671.83)
(1747.089 179.7446 26896.14)
(2135.651 52.14102 29194.43)
(2204.176 -91.26411 31584.69)
(1100.266 -303.1067 33648.33)
(31.08019 -266.9442 14874.86)
(74.46785 -87.25706 14067.33)
(90.75434 -309.4595 13895.98)
(88.31967 81.32304 13199.84)
(220.4109 294.0297 13315.18)
(146.7853 632.2565 12060.06)
(85.71258 220.0364 12485.9)
(264.9364 798.7694 12728.67)
(363.0238 1764.057 11927.27)
(199.126 3326.249 9140.885)
(77.86114 321.2096 11977)
(260.3604 1165.878 12310.33)
(443.691 2614.191 11894.07)
(506.3562 5200.059 9770.626)
(247.9423 8871.928 4082.864)
(69.81182 380.8703 11643.56)
(239.1415 1381.148 12088.58)
(443.0271 3133.959 12097.33)
(634.3425 6553.816 10790.47)
(658.8812 12848.58 4938.025)
(62.99779 397.593 11427.55)
(216.262 1437.612 12012.1)
(412.8167 3280.332 12536.54)
(649.1334 7173.397 12517.01)
(865.8763 17432.2 6343.169)
(57.45167 373.7278 11266.02)
(196.1264 1341.095 11992.38)
(377.3267 3019.903 13070.66)
(618.0552 6456.008 15342.51)
(947.806 15073.26 25794.87)
(1415.578 1729.192 34790.18)
(1505.598 781.224 34850.25)
(763.9336 340.8241 35966.41)
(52.83429 316.3987 11103.54)
(179.0043 1121.926 11931.53)
(343.7306 2450.442 13331.17)
(568.8264 4802.409 16119.04)
(897.7455 8207.804 22791.54)
(1328.662 3166.656 28820.56)
(1670.345 1604.909 30903.12)
(1740.908 765.5863 33087.87)
(874.9787 197.1438 35248.45)
(48.81011 235.9722 10901.45)
(164.1276 826.2355 11780.03)
(313.325 1748.035 13308.27)
(516.6517 3173.338 16051.04)
(811.3572 4558.348 20842.88)
(1177.706 2482.398 25170.4)
(1543.844 1461.919 27538.9)
(1906.606 759.5279 29876.85)
(1973.778 214.9114 32395.15)
(988.487 -361.2188 34810.32)
(45.13939 143.0976 10638.05)
(150.7382 495.8578 11523.07)
(285.7315 1023.427 13063.63)
(467.2231 1762.572 15623.35)
(723.901 2306.369 19419.31)
(1029.278 1450.291 22802.64)
(1351.074 925.9709 25020.41)
(1744.645 504.6456 27191.19)
(2135.312 147.8611 29466.83)
(2206.996 -241.7723 31904.98)
(1103.837 -817.6514 34130.65)
(41.67725 46.94329 10304.79)
(138.3102 161.6189 11162.74)
(260.3015 328.9289 12653.37)
(421.7797 551.2485 15034.46)
(644.9353 691.7758 18316.26)
(901.2703 459.185 21200.39)
(1170.341 302.9536 23202.42)
(1516.79 168.1948 25140.79)
(1939.639 49.50393 27100.45)
(2361.434 -79.76634 29152.59)
(2443 -267.3945 31273.88)
(1221.492 -590.2784 32987.12)
(31.94791 -416.8633 15258.83)
(75.51591 -253.7204 14257.97)
(92.29732 -902.2476 14166.21)
(88.31967 -81.32304 13199.84)
(220.4109 -294.0297 13315.18)
(146.7853 -632.2565 12060.06)
(84.65454 75.67351 12320.6)
(261.0263 273.9778 12489.7)
(355.723 600.3799 11546.57)
(193.451 1112.183 8639.224)
(76.11263 205.6988 11681.28)
(253.5293 743.2285 11878.3)
(428.1664 1643.159 11178.45)
(480.5529 3156.239 8739.007)
(230.3487 5038.43 3488.472)
(67.733 301.9823 11258.25)
(230.9354 1089.904 11516.26)
(423.0903 2432.125 11094.11)
(592.8198 4841.387 9143.218)
(594.4513 8411.392 3895.413)
(60.87293 359.904 10998.18)
(207.9187 1298.494 11363.4)
(392.107 2929.718 11315.42)
(601.2834 6096.392 10056.22)
(762.6499 11955.38 4612.101)
(55.49508 377.305 10840.23)
(188.5423 1358.498 11346.96)
(358.573 3084.11 11785.12)
(572.5242 6705.864 11705.36)
(813.2275 16212.09 5906.222)
(51.19587 355.8941 10725.09)
(172.7755 1272.681 11376.76)
(328.882 2853.8 12348.43)
(536.0536 6070.048 14424.44)
(831.2619 14090.81 24114.97)
(1306.112 1608.48 32341.3)
(1659.965 727.968 32326.6)
(1737.397 326.6645 33782.51)
(875.1927 84.44068 35705.06)
(47.5748 302.1675 10601.63)
(159.5281 1068.401 11359.25)
(302.8273 2325.49 12648.36)
(495.6305 4538.412 15231.14)
(777.1175 7717.332 21430.35)
(1158.853 2960.393 26941.34)
(1532.466 1493.628 28713.63)
(1901.058 716.9392 30639.83)
(1973.903 203.7798 32988.4)
(991.354 -298.7931 35474.04)
(44.33652 225.9031 10434.43)
(147.8029 789.0783 11248.01)
(279.2779 1664.665 12671.2)
(455.2216 3011.594 15231.32)
(706.6897 4307.862 19698.27)
(1017.847 2334.045 23669.18)
(1343.274 1366.934 25742.12)
(1740.215 708.3394 27746.22)
(2134.609 209.6771 29946.62)
(2211.668 -304.8449 32456.75)
(1109.886 -1065.566 34978.88)
(41.29524 137.2749 10203.79)
(136.9323 474.7017 11029.76)
(257.3499 977.4136 12474.55)
(416.542 1678.537 14877.26)
(637.9233 2188.848 18430.45)
(896.2595 1370.579 21553.1)
(1166.752 870.6689 23530.13)
(1514.633 472.1893 25416.41)
(1939.082 140.1876 27352.6)
(2363.319 -211.2542 29444.4)
(2449.343 -721.451 31706.8)
(1228.102 -1616.722 33716.24)
(38.34929 45.11437 9902.251)
(126.5377 155.0431 10707.32)
(236.4884 314.8978 12112.33)
(379.9605 526.4708 14357.8)
(575.1255 658.8021 17443.73)
(794.3399 435.7845 20123.13)
(1018.956 286.3034 21933.21)
(1308.899 158.1805 23645.7)
(1680.278 46.57458 25331.53)
(2133.379 -72.40969 27049.36)
(2589.184 -239.6771 28815.63)
(2687.446 -524.1774 30531)
(1345.878 -1032.224 31621.36)
(33.1461 -525.7808 15791)
(77.51586 -396.2042 14622.81)
(95.25499 -1415.422 14691.41)
(89.47803 -236.4641 13377.49)
(223.9591 -857.2411 13571.74)
(149.973 -1857.806 12461.42)
(84.65454 -75.67351 12320.6)
(261.0263 -273.9778 12489.7)
(355.723 -600.3799 11546.57)
(193.451 -1112.183 8639.224)
(75.19607 70.7426 11526.75)
(249.9632 254.9282 11655.98)
(420.1594 559.2479 10824.05)
(467.6116 1055.432 8263.521)
(221.926 1635.58 3226.774)
(66.2267 193.3857 10980.23)
(225.0215 694.7967 11112.38)
(408.9704 1528.741 10428.46)
(564.6997 2938.803 8183.379)
(554.5252 4778.267 3332.359)
(59.06466 285.3584 10634.08)
(200.8506 1024.678 10825.31)
(374.8669 2273.624 10377.59)
(563.6573 4503.631 8524.264)
(692.9633 7828.368 3642.389)
(53.62243 341.539 10432.77)
(181.2849 1227.034 10733.94)
(340.7411 2754.461 10636.98)
(531.2119 5699.055 9404.977)
(720.1251 11119.45 4296.489)
(49.45018 359.3006 10319.62)
(166.0912 1289.196 10764.24)
(312.5691 2914.476 11133.51)
(496.8668 6304.963 11004.5)
(715.3188 15155.39 5522.698)
(46.09764 339.8867 10240.19)
(153.9704 1211.965 10830.94)
(289.7395 2708.288 11715.68)
(467.123 5736.413 13629.57)
(719.9139 13249 22674.65)
(1139.389 1503.693 30232.54)
(1523.005 677.4221 30037.18)
(1896.885 305.7119 31284.15)
(1973.824 86.57998 33412.56)
(993.1833 -115.7858 35923.24)
(43.21327 289.274 10147.39)
(143.6559 1020.354 10846.14)
(269.9104 2214.587 12042.74)
(436.6915 4307.122 14453.17)
(676.9056 7293.371 20253.44)
(1001.615 2783.485 25334.27)
(1333.411 1396.52 26840.1)
(1734.964 668.3756 28454.75)
(2133.657 197.6075 30492.58)
(2216.495 -251.8304 33060.4)
(1116.343 -915.781 35938.29)
(40.56015 216.711 10008.45)
(134.2632 755.4123 10766.43)
(251.5309 1589.824 12099.75)
(405.8318 2868.021 14503.91)
(622.7507 4088.394 18695.19)
(886.3149 2205.775 22372.01)
(1160.026 1285.288 24208.64)
(1510.732 662.7136 25934.93)
(1938.036 198.3622 27796.85)
(2366.436 -266.2274 29947.22)
(2460.088 -940.5107 32468.02)
(1239.573 -2168.864 35061.38)
(37.99757 131.9267 9805.192)
(125.2762 455.3878 10579.75)
(233.8043 935.7208 11941.13)
(375.2375 1603.093 14207.67)
(568.8676 2084.524 17552.48)
(789.9227 1300.738 20457.86)
(1015.832 822.8188 22242.9)
(1307.028 444.0681 23904.79)
(1679.714 131.8346 25566.88)
(2134.64 -191.7546 27318.64)
(2593.946 -646.7741 29207.63)
(2699.297 -1435.912 31181.05)
(1357.356 -2891.905 32711.16)
(35.45492 43.42606 9530.852)
(116.4374 149.0032 10289.24)
(216.3776 302.0879 11618.65)
(345.2549 504.0185 13744.83)
(518.227 629.1975 16660.22)
(708.521 415.0125 19166.27)
(898.1492 271.7131 20820.52)
(1139.46 149.4926 22354.77)
(1448.942 43.86733 23827.86)
(1844.049 -67.15877 25284.26)
(2326.471 -219.7767 26725.61)
(2816.261 -471.7667 28083)
(2933.413 -917.4441 29137.99)
(1469.828 -1680.085 29190.62)
(34.55468 -580.8497 16418.61)
(80.27697 -499.7131 15128.46)
(99.36318 -1793.78 15435.81)
(91.68807 -369.2526 13717.45)
(230.7588 -1344.763 14070.35)
(156.1602 -2956.072 13272.06)
(85.71258 -220.0364 12485.9)
(264.9364 -798.7694 12728.67)
(363.0238 -1764.057 11927.27)
(199.126 -3326.249 9140.885)
(75.19607 -70.7426 11526.75)
(249.9632 -254.9282 11655.98)
(420.1594 -559.2479 10824.05)
(467.6116 -1055.432 8263.521)
(221.926 -1635.58 3226.774)
(65.4371 66.50793 10834.95)
(221.934 238.3161 10904.55)
(401.6858 520.3098 10098.8)
(550.5809 982.7699 7740.926)
(535.3826 1551.352 3084.399)
(57.7544 182.7398 10371.36)
(195.7567 653.2148 10445.59)
(362.6551 1429.113 9755.319)
(538.1553 2733.85 7631.56)
(649.6557 4447.743 3118.611)
(52.02881 270.7971 10087.24)
(175.1367 968.285 10225.44)
(325.8962 2137.606 9755.211)
(498.7153 4210.105 7972.876)
(657.1586 7281.45 3394.696)
(47.77937 325.2412 9931.595)
(159.6949 1164.438 10182.47)
(297.0581 2602.95 10048.47)
(461.3086 5358.303 8841.524)
(635.0468 10394.69 4017.893)
(44.52377 343.14 9852.951)
(148.0062 1227.692 10247.63)
(275.3608 2765.87 10562.65)
(433.0363 5958.414 10397.36)
(620.1734 14249.94 5192.249)
(41.87011 325.3837 9801.378)
(138.645 1157.463 10341.58)
(258.2315 2579.135 11154.5)
(411.5615 5444.106 12933.12)
(627.1461 12521.37 21429.35)
(984.862 1413.838 28428.8)
(1325.221 633.362 28077.25)
(1731.046 284.9371 29053.31)
(2132.885 83.65048 30883.34)
(2219.569 -97.49368 33469.14)
(1120.603 -364.7596 36615.17)
(39.53174 277.5034 9733.098)
(130.4923 976.8214 10381.71)
(243.0844 2115.026 11499.52)
(389.2949 4101.811 13762.81)
(596.4935 6921.896 19222.06)
(872.1938 2630.541 23945.61)
(1151.524 1313.1 25240.94)
(1506.122 625.2544 26596.93)
(1936.756 186.5429 28302.56)
(2369.642 -219.7879 30497.49)
(2471.559 -808.6136 33328.8)
(1252.303 -1935.077 36711.18)
(37.32076 208.268 9617.464)
(122.8323 724.6778 10327.13)
(228.5127 1522.01 11582.32)
(365.5796 2739.123 13851.08)
(555.3264 3893.564 17804.59)
(781.156 2093.388 21235.05)
(1009.978 1214.656 22884.11)
(1303.648 623.2298 24392.21)
(1678.674 186.4155 25981.56)
(2136.72 -241.6146 27782.67)
(2602.017 -843.4045 29896.93)
(2719.863 -1926.854 32380.34)
(1377.99 -4060.509 34866.01)
(35.12958 126.9896 9437.425)
(115.2759 437.6476 10166.64)
(213.92 897.6567 11454.41)
(340.9598 1534.728 13601.09)
(512.5838 1990.858 16764.08)
(704.5789 1238.74 19485.04)
(895.395 780.8889 21114.43)
(1137.83 419.6775 22599.61)
(1448.432 124.156 24049.04)
(1844.99 -177.8476 25535.34)
(2329.988 -593.1257 27086.5)
(2825.349 -1292.55 28669.78)
(2953.988 -2570.79 30105.83)
(1488.635 -4861.374 30667.1)
(32.90833 41.86104 9186.715)
(107.6522 143.4274 9903.469)
(199.1192 290.3213 11165.35)
(315.934 483.5193 13185.31)
(470.9866 602.37 15950.13)
(638.5668 396.3637 18306.69)
(801.2347 258.7621 19831.87)
(1004.474 141.8757 21222.76)
(1261.25 41.47142 22529.92)
(1589.06 -63.00289 23786.77)
(2006.536 -204.5099 24983.23)
(2516.619 -433.3019 26037.49)
(3038.536 -826.4666 26759.54)
(3173.628 -1492.016 26776.1)
(1587.33 -2508.709 49358.32)
(36.02648 -575.3328 17074.45)
(83.52245 -552.046 15724.75)
(104.2169 -1986.044 16333.39)
(94.73858 -465.7149 14188.62)
(240.2002 -1704.161 14776.97)
(164.9138 -3809.741 14494.25)
(87.73107 -343.5986 12802.23)
(272.4275 -1253.011 13193.05)
(377.1877 -2806.663 12696.07)
(210.4519 -5481.081 10229.54)
(76.11263 -205.6988 11681.28)
(253.5293 -743.2285 11878.3)
(428.1664 -1643.159 11178.45)
(480.5529 -3156.239 8739.007)
(230.3487 -5038.43 3488.472)
(65.4371 -66.50793 10834.95)
(221.934 -238.3161 10904.55)
(401.6858 -520.3098 10098.8)
(550.5809 -982.7699 7740.926)
(535.3826 -1551.352 3084.399)
(57.06757 62.84661 10234.08)
(193.0973 224.0532 10250.19)
(356.3542 486.4014 9447.148)
(525.3441 914.2439 7220.042)
(628.8552 1444.154 2887.919)
(50.87408 173.4147 9837.93)
(170.7058 617.2644 9866.608)
(315.3805 1343.614 9170.147)
(476.6836 2555.672 7138.362)
(617.9738 4137.186 2907.579)
(46.35752 257.8748 9602.552)
(154.2763 918.8873 9699.903)
(284.1453 2020.018 9215.159)
(433.3358 3958.348 7494.988)
(580.7222 6806.855 3174.882)
(43.01741 310.6124 9482.38)
(142.2991 1108.885 9693.605)
(261.689 2470.223 9532.877)
(402.106 5063.745 8353.153)
(551.106 9773.479 3777.314)
(40.439 328.4983 9430.659)
(133.2676 1172.483 9784.493)
(245.4006 2633.971 10056.41)
(381.5126 5654.793 9865.415)
(540.3855 13467.31 4906.166)
(38.30197 312.144 9401.163)
(125.9357 1108.082 9898.661)
(232.5536 2463.19 10651.19)
(366.8674 5184.624 12315.15)
(552.6242 11883.8 20338.05)
(857.6197 1336.16 26870.16)
(1144.468 595.5268 26404.14)
(1502.693 266.5352 27156.26)
(1935.794 78.86432 28664.65)
(2371.676 -85.04839 30870.2)
(2479.129 -322.1595 33935.91)
(1261.109 -792.6574 38010.75)
(36.37388 266.6921 9352.834)
(119.3797 937.0794 9958.052)
(220.8317 2024.813 11007.68)
(350.6673 3917.479 13143.26)
(531.8913 6592.105 18306.34)
(768.7072 2496.533 22728.49)
(1002.579 1240.945 23859.68)
(1299.657 587.9867 25014.55)
(1677.43 175.1901 26453.68)
(2138.854 -199.4277 28290.57)
(2610.64 -725.3664 30676.38)
(2742.686 -1719.715 33851.32)
(1402.329 -3865.159 37862.91)
(34.50356 200.4741 9256.722)
(113.0257 696.4473 9923.858)
(209.0748 1460.098 11110.19)
(332.1767 2622.318 13259.7)
(500.3722 3718.631 17004.86)
(696.7551 1993.62 20225.19)
(890.2342 1152.763 21722.96)
(1134.883 588.9971 23060.22)
(1447.496 175.5236 24438.77)
(1846.54 -224.0871 25968.04)
(2335.954 -773.5676 27721.13)
(2841.125 -1734.977 29752.52)
(2990.973 -3610.776 32020.44)
(1524.13 -7320.606 33857.04)
(32.60625 122.4131 9096.655)
(106.5777 421.2708 9785.452)
(196.8563 862.6925 11007.51)
(312.001 1472.31 13047.42)
(465.8544 1905.976 16049.56)
(635.012 1183.079 18611.14)
(798.777 743.6695 20111.77)
(1003.036 398.2943 21455.11)
(1260.8 117.3713 22738.92)
(1589.825 -166.8442 24022.67)
(2009.311 -551.9501 25319.48)
(2523.455 -1187.279 26577.08)
(3054.343 -2316.303 27631.8)
(3207.234 -4318.36 28082.53)
(1615.814 -7558.331 52660.87)
(30.64585 40.40527 8866.701)
(99.92193 138.2589 9545.99)
(184.105 279.4588 10747.02)
(290.7629 464.689 12671.44)
(431.0562 577.8752 15301.72)
(580.4628 379.4646 17527.37)
(722.2296 247.1356 18943.46)
(896.2271 135.1151 20216.58)
(1111.968 39.36245 21391.39)
(1383.106 -59.50969 22494.46)
(1727.922 -192.031 23507.74)
(2165.836 -403.4128 24343.28)
(2700.443 -759.3677 24806.26)
(3249.435 -1344.025 24559.58)
(3396.516 -2223.873 45005.33)
(217.1746 -508.8545 15547.48)
(37.40718 -511.4607 17686.55)
(86.9135 -546.8079 16347.87)
(109.2904 -1960.561 17278.49)
(98.32361 -514.4845 14744.24)
(251.3517 -1886.772 15628.91)
(175.4517 -4266.2 16086.3)
(90.51688 -433.3577 13240.64)
(282.825 -1587.85 13851.14)
(397.2119 -3616.826 13854.92)
(227.2282 -7422.264 12098.81)
(77.86114 -321.2096 11977)
(260.3604 -1165.878 12310.33)
(443.691 -2614.191 11894.07)
(506.3562 -5200.059 9770.626)
(247.9423 -8871.928 4082.864)
(66.2267 -193.3857 10980.23)
(225.0215 -694.7967 11112.38)
(408.9704 -1528.741 10428.46)
(564.6997 -2938.803 8183.379)
(554.5252 -4778.267 3332.359)
(57.06757 -62.84661 10234.08)
(193.0973 -224.0532 10250.19)
(356.3542 -486.4014 9447.148)
(525.3441 -914.2439 7220.042)
(628.8552 -1444.154 2887.919)
(50.26877 59.63959 9707.65)
(168.3925 211.722 9681.96)
(309.9547 457.3007 8880.402)
(465.6135 854.6584 6753.667)
(599.1376 1343.348 2693.027)
(45.32726 165.1394 9365.134)
(150.3712 585.7735 9359.369)
(274.9983 1269.698 8662.255)
(414.3697 2402.832 6710.343)
(546.8986 3867.533 2719.518)
(41.7355 246.276 9168.136)
(137.4642 875.0478 9234.046)
(250.3075 1917.008 8742.024)
(377.774 3740.716 7080.574)
(504.3566 6399.968 2984.661)
(39.06929 297.3586 9075.899)
(128.1219 1059.018 9255.368)
(233.2006 2352.418 9075.71)
(354.2469 4805.681 7925.28)
(480.3069 9236.519 3568.906)
(36.99167 315.1318 9045.526)
(121.0459 1122.461 9365.334)
(220.9839 2515.561 9602.429)
(340.0494 5385.268 9393.516)
(476.1294 12781.55 4655.503)
(35.2416 299.9831 9033.83)
(115.2077 1063 9494.654)
(211.2552 2358.13 10195.51)
(330.4424 4951.651 11760.6)
(492.7347 11317.73 19369.14)
(755.8587 1268.098 25504.1)
(996.4399 562.8043 24958.97)
(1296.691 250.6445 25540.39)
(1676.513 74.03469 26791.77)
(2140.203 -77.15797 28634.64)
(2616.336 -289.059 31226.12)
(2758.473 -704.5952 35010.08)
(1420.67 -1664.331 40735.92)
(33.62772 256.7118 9001.995)
(109.8467 900.575 9569.157)
(202.0417 1942.451 10558.91)
(318.6148 3750.438 12582.05)
(479.2374 6295.979 17484.05)
(685.6446 2377.567 21647.47)
(883.7117 1177.719 22648.83)
(1131.405 555.6886 23648.34)
(1446.383 164.9229 24882.5)
(1848.128 -184.955 26441.68)
(2342.336 -665.4222 28438.83)
(2858.64 -1548.981 31080.84)
(3034.593 -3438.35 34685.16)
(1570.078 -7804.989 39170.29)
(32.02497 193.2493 8922.464)
(104.4964 670.3865 9551.756)
(192.395 1403.228 10676.69)
(303.9585 2515.673 12719.9)
(454.7483 3560.1 16280.06)
(627.9566 1904.046 19318.03)
(794.1714 1097.822 20691.3)
(1000.437 558.9874 21892.25)
(1259.975 165.9242 23107.19)
(1591.085 -210.2271 24429.22)
(2014.02 -719.9245 25910.83)
(2535.33 -1593.946 27572.87)
(3082.764 -3254.464 29358.06)
(3270.659 -6506.178 30908.61)
(1672.833 -12563.7 60566.45)
(30.36446 118.156 8779.773)
(98.92429 406.0898 9432.226)
(182.0117 830.4147 10595.08)
(287.1415 1414.973 12538.91)
(426.3565 1828.475 15397.11)
(577.2299 1132.639 17818.84)
(720.0134 710.2561 19210.77)
(894.9443 379.3149 20437.85)
(1111.57 111.4012 21589.74)
(1383.76 -157.596 22717.35)
(1730.231 -518.2851 23823.59)
(2171.281 -1105.443 24845.83)
(2712.384 -2128.509 25607.84)
(3275.148 -3891.063 25735.32)
(3447.167 -6703.299 47902.44)
(223.1854 -1621.938 16605.7)
(28.61921 39.0471 8568.218)
(93.0537 133.451 9213.552)
(170.8916 269.3892 10359.32)
(268.8585 447.3049 12197.1)
(396.7618 555.3737 14706.04)
(531.3276 364.0353 16815.57)
(656.5901 236.6007 18137.79)
(807.9748 129.0474 19312.08)
(992.3024 37.49155 20379)
(1219.565 -56.46702 21360.42)
(1503.885 -181.4194 22234.53)
(1863.93 -378.8481 22910.84)
(2319.201 -707.0575 23198.16)
(2872.758 -1234.88 22770.01)
(3439.145 -2002.205 41251.46)
(456.957 -448.7464 14155.65)
(257.5934 -813.3976 22252.8)
(38.5609 -399.3914 18194.27)
(90.09516 -486.1165 16929.44)
(114.0145 -1728.184 18134.36)
(102.0694 -509.6057 15324.85)
(263.0073 -1862.584 16525.89)
(186.5465 -4177.278 17869.49)
(93.79057 -478.7381 13757.62)
(295.1013 -1757.974 14644.5)
(421.3003 -4049.873 15364.08)
(248.6612 -8736.529 15103.54)
(80.27426 -405.12 12386.83)
(269.84 -1477.423 12922.56)
(465.6202 -3368.615 12972.64)
(544.5223 -7040.172 11541.37)
(276.4022 -13557.74 5183.895)
(67.733 -301.9823 11258.25)
(230.9354 -1089.904 11516.26)
(423.0903 -2432.125 11094.11)
(592.8198 -4841.387 9143.218)
(594.4513 -8411.392 3895.413)
(57.7544 -182.7398 10371.36)
(195.7567 -653.2148 10445.59)
(362.6551 -1429.113 9755.319)
(538.1553 -2733.85 7631.56)
(649.6557 -4447.743 3118.611)
(50.26877 -59.63959 9707.65)
(168.3925 -211.722 9681.96)
(309.9547 -457.3007 8880.402)
(465.6135 -854.6584 6753.667)
(599.1376 -1343.348 2693.027)
(44.7872 56.79357 9241.07)
(148.3324 200.9204 9184.137)
(270.2786 432.1425 8388.437)
(404.8395 803.5437 6348.64)
(530.6345 1255.791 2518.951)
(40.80665 157.7116 8941.395)
(133.9799 557.826 8909.752)
(242.2453 1204.947 8217.295)
(361.2764 2270.708 6339.035)
(475.2458 3636.309 2556.504)
(37.90367 235.7673 8775.061)
(123.7627 835.6959 8816.468)
(223.0444 1825.581 8322.548)
(332.7984 3550.052 6717.505)
(439.6419 6048.253 2819.778)
(35.73759 285.2591 8705.2)
(116.3668 1013.836 8858.776)
(209.9832 2246.662 8665.793)
(315.7159 4576.603 7545.783)
(423.1629 8766.043 3386.309)
(34.03519 302.8546 8692.048)
(110.7305 1076.794 8983.019)
(200.7338 2408.267 9191.457)
(306.2576 5143.278 8970.151)
(424.4533 12172.7 4433.082)
(32.58039 288.7571 8694.928)
(106.0054 1021.59 9123.806)
(193.2729 2262.211 9779.763)
(300.221 4740.527 11258.3)
(443.9224 10809.42 18499.1)
(674.177 1207.675 24290.86)
(878.2991 534.1314 23692.12)
(1128.822 236.8764 24145.27)
(1445.567 69.68793 25200.28)
(1849.131 -71.5567 26762.57)
(2346.557 -265.2036 28945.06)
(2870.761 -634.7877 32127.5)
(3067.455 -1480.919 37241.83)
(1610.518 -3665.672 46369.04)
(31.21173 247.4604 8676.916)
(101.5559 866.8761 9210.326)
(185.9192 1866.795 10146.88)
(291.5399 3597.923 12069.79)
(435.5261 6027.607 16738.82)
(617.9371 2270.752 20676.41)
(788.3505 1121.593 21573.04)
(997.3712 527.377 22450.39)
(1258.995 155.8964 23526.49)
(1592.376 -173.5189 24874.24)
(2019.063 -619.3358 26579.62)
(2548.53 -1423.351 28794.78)
(3116.294 -3100.342 31762.13)
(3352.764 -6941.102 35624.49)
(1756.91 -16377.16 77865.48)
(29.82298 186.5289 8611.639)
(96.99169 646.2286 9206.95)
(177.885 1350.727 10276.63)
(279.7359 2417.707 12224.14)
(416.1865 3415.348 15618.23)
(570.8135 1822.872 18495.59)
(715.8605 1048.498 19764.25)
(892.6257 532.3507 20854.15)
(1110.842 157.4816 21939.23)
(1384.837 -198.5796 23101.49)
(1734.152 -676.0469 24379.06)
(2180.747 -1484.228 25773.36)
(2733.87 -2991.273 27194.68)
(3323.7 -5865.304 28280.78)
(3548.599 -11152.74 54859.19)
(236.1899 -3184.411 19139.58)
(28.35636 114.1844 8484.211)
(92.12435 391.9684 9103.743)
(168.948 800.4932 10212.85)
(265.5086 1362.04 12069.53)
(392.4342 1757.279 14797.71)
(528.3673 1086.586 17095.18)
(654.5747 679.9793 18393.71)
(806.8184 362.2804 19523.4)
(991.9477 106.1049 20567.88)
(1220.14 -149.5403 21571.94)
(1505.873 -489.654 22532.94)
(1868.479 -1038.168 23382.81)
(2328.737 -1982.037 23944.49)
(2892.186 -3575.703 23849.73)
(3477.623 -6037.502 43849.45)
(467.5216 -1431.785 15080.75)
(267.4478 -2650.245 23691.89)
(26.79109 37.77677 8289.099)
(86.90108 128.9654 8903.468)
(159.1503 260.0223 9998.743)
(249.5771 431.1895 11757.43)
(366.907 534.6 14156.07)
(489.1102 349.8617 16161.51)