/*--------------------------------*- C++ -*----------------------------------*\
| =========                 |                                                 |
| \\      /  F ield         | OpenFOAM: The Open Source CFD Toolbox           |
|  \\    /   O peration     | Version:  2306                                  |
|   \\  /    A nd           | Website:  www.openfoam.com                      |
|    \\/     M anipulation  |                                                 |
\*---------------------------------------------------------------------------*/
FoamFile
{
    version     2.0;
    format      ascii;
    arch        "LSB;label=32;scalar=64";
    class       volScalarField;
    location    "1.2/phiEC";
    object      phi;
}
// * * * * * * * * * * * * * * * * * * * * * * * * * * * * * * * * * * * * * //

dimensions      [1 2 -3 0 0 -1 0];

internalField   nonuniform List<scalar> 
20000
(
0.780962
0.7809611
0.780958
0.7811512
0.7809595
0.7809572
0.7811483
0.7809524
0.781139
0.7813523
0.7809571
0.7809556
0.7811428
0.7809517
0.7811363
0.7813468
0.7809468
0.781122
0.781331
0.7815766
0.7809543
0.7809534
0.781135
0.7809502
0.781131
0.7813358
0.7809461
0.7811194
0.7813257
0.7815677
0.7809418
0.7811049
0.7813016
0.7815446
0.7818379
0.7809514
0.7809507
0.7811255
0.7809481
0.7811236
0.7813198
0.7809447
0.7811145
0.7813153
0.7815494
0.7809411
0.7811026
0.7812967
0.7815361
0.7818272
0.7809375
0.7810897
0.7812724
0.781501
0.7817925
0.7820673
0.7809485
0.7809479
0.7811154
0.7809456
0.7811146
0.7812999
0.7809428
0.7811076
0.7813001
0.7815212
0.7809399
0.781098
0.781287
0.7815188
0.7818041
0.7809368
0.7810875
0.7812678
0.7814931
0.7817824
0.7820606
0.7809337
0.7810765
0.7812464
0.7814581
0.7817319
0.7820093
0.7822275
0.7809461
0.7809452
0.7811057
0.780943
0.7811049
0.781278
0.7809405
0.7810992
0.7812813
0.7814829
0.7809381
0.7810916
0.7812728
0.781492
0.7817641
0.7809356
0.7810833
0.7812588
0.7814769
0.7817604
0.7820473
0.7809331
0.7810744
0.7812421
0.7814508
0.7817225
0.7820029
0.7822233
0.7809304
0.781065
0.7812237
0.78142
0.781673
0.7819333
0.7821604
0.7823925
0.7809444
0.7809429
0.7810974
0.7809405
0.7810957
0.7812572
0.7809381
0.7810902
0.7812605
0.7814371
0.7809359
0.7810838
0.7812552
0.7814557
0.7816971
0.7809339
0.7810772
0.7812457
0.781452
0.7817225
0.7820283
0.7809319
0.7810704
0.7812336
0.7814358
0.7817021
0.7819902
0.7822155
0.7809298
0.7810631
0.7812197
0.7814131
0.7816642
0.7819274
0.7821564
0.7823904
0.7809274
0.781055
0.7812041
0.781387
0.7816209
0.7818603
0.7820735
0.7823156
0.7825605
0.7809434
0.7809413
0.7810915
0.7809384
0.7810879
0.7812399
0.7809357
0.7810816
0.7812408
0.7813955
0.7809336
0.7810754
0.7812359
0.7814122
0.7815801
0.7809319
0.7810699
0.7812293
0.7814182
0.781659
0.7820087
0.7809304
0.7810647
0.7812213
0.7814126
0.7816667
0.7819723
0.7822056
0.7809287
0.7810593
0.7812118
0.7813991
0.7816452
0.7819156
0.782149
0.7823866
0.7809269
0.7810531
0.7812003
0.7813805
0.7816127
0.7818548
0.7820698
0.7823136
0.78256
0.7809248
0.781046
0.7811869
0.7813584
0.7815759
0.781796
0.7819906
0.7822174
0.7824731
0.7827298
0.7809434
0.7809404
0.7810884
0.7809368
0.7810823
0.7812277
0.7809337
0.7810744
0.7812243
0.7813629
0.7809314
0.7810674
0.7812175
0.7813728
0.7814992
0.7809298
0.7810621
0.7812113
0.7813778
0.7815482
0.7809284
0.7810579
0.781206
0.7813811
0.7816077
0.7819537
0.7821974
0.7809272
0.7810539
0.7812002
0.7813774
0.7816124
0.7818989
0.7821396
0.782382
0.7809259
0.7810495
0.7811928
0.7813673
0.781595
0.7818438
0.7820629
0.7823098
0.7825591
0.7809243
0.7810443
0.7811833
0.7813523
0.7815682
0.7817908
0.7819871
0.7822155
0.7824726
0.7827309
0.7809224
0.7810381
0.7811717
0.7813333
0.7815369
0.7817405
0.7819178
0.7821242
0.7823632
0.7826314
0.782899
0.7809444
0.7809404
0.7810884
0.780936
0.7810793
0.7812214
0.7809323
0.7810691
0.7812127
0.7813407
0.7809296
0.7810607
0.7812022
0.7813418
0.7814445
0.7809277
0.7810547
0.7811942
0.7813411
0.7814716
0.7809264
0.7810506
0.7811892
0.7813435
0.7815046
0.7809254
0.7810474
0.7811858
0.781348
0.7815574
0.7818816
0.7821317
0.7823786
0.7809244
0.7810444
0.7811819
0.781347
0.7815642
0.7818282
0.7820541
0.7823054
0.7825579
0.7809233
0.7810409
0.7811762
0.7813398
0.7815515
0.7817806
0.7819807
0.782212
0.7824716
0.7827326
0.7809219
0.7810364
0.7811683
0.7813275
0.7815296
0.7817357
0.7819146
0.7821224
0.7823626
0.7826323
0.782902
0.7809202
0.7810308
0.781158
0.7813111
0.7815027
0.7816925
0.7818551
0.7820427
0.7822595
0.7825094
0.782789
0.7830663
0.7809461
0.7809413
0.7810915
0.780936
0.7810793
0.7812214
0.7809315
0.7810664
0.7812067
0.7813296
0.7809282
0.7810558
0.7811914
0.7813208
0.7814105
0.780926
0.7810483
0.78118
0.7813122
0.7814197
0.7809245
0.7810435
0.7811732
0.7813094
0.7814333
0.7809235
0.7810405
0.78117
0.7813129
0.7814616
0.7809227
0.7810383
0.7811683
0.7813193
0.7815129
0.7818121
0.7820469
0.7823022
0.7825571
0.7809219
0.781036
0.7811658
0.7813205
0.7815226
0.781766
0.7819725
0.7822079
0.7824704
0.7827345
0.780921
0.7810331
0.7811615
0.7813157
0.7815138
0.781726
0.7819085
0.7821192
0.7823617
0.7826338
0.7829072
0.7809198
0.7810292
0.7811547
0.7813056
0.7814958
0.7816879
0.781852
0.782041
0.7822591
0.7825102
0.7827916
0.7830722
0.7809182
0.7810242
0.7811457
0.7812911
0.7814724
0.7816504
0.7818008
0.7819725
0.7821692
0.7823952
0.7826547
0.7829441
0.7832289
0.7809485
0.7809429
0.7810974
0.7809368
0.7810823
0.7812277
0.7809315
0.7810664
0.7812067
0.7813296
0.7809275
0.7810532
0.7811858
0.7813103
0.7813941
0.7809247
0.7810438
0.7811699
0.7812927
0.7813875
0.7809228
0.7810376
0.7811599
0.7812825
0.7813851
0.7809216
0.7810339
0.781155
0.781281
0.7813953
0.7809209
0.7810317
0.7811534
0.7812863
0.7814233
0.7809203
0.7810302
0.7811529
0.7812944
0.7814743
0.781751
0.7819657
0.7822048
0.7824696
0.7827356
0.7809197
0.7810285
0.7811516
0.7812974
0.7814865
0.7817123
0.7819009
0.7821153
0.7823605
0.7826353
0.7829127
0.7809189
0.7810261
0.7811483
0.7812943
0.7814808
0.7816788
0.7818464
0.782038
0.7822581
0.7825115
0.7827962
0.7830824
0.7809178
0.7810227
0.7811425
0.7812859
0.7814658
0.781646
0.7817979
0.781971
0.7821687
0.782396
0.7826571
0.7829494
0.7832392
0.7809164
0.7810182
0.7811344
0.7812731
0.7814452
0.7816131
0.7817532
0.7819118
0.7820915
0.782296
0.78253
0.7827975
0.7830943
0.7833825
0.7809514
0.7809452
0.7811057
0.7809384
0.7810879
0.7812399
0.7809323
0.7810691
0.7812127
0.7813407
0.7809275
0.7810532
0.7811858
0.7813103
0.7813941
0.780924
0.7810414
0.7811647
0.7812828
0.781372
0.7809216
0.7810333
0.7811505
0.7812644
0.781355
0.7809201
0.7810282
0.7811425
0.7812559
0.7813504
0.7809191
0.7810254
0.7811391
0.7812563
0.7813613
0.7809185
0.7810239
0.7811388
0.7812632
0.7813901
0.7809181
0.7810229
0.7811393
0.7812726
0.7814409
0.7816982
0.7818946
0.7821125
0.7823597
0.7826363
0.7829163
0.7809176
0.7810217
0.7811388
0.7812769
0.7814549
0.7816658
0.7818392
0.7820344
0.7822571
0.7825128
0.782801
0.7830939
0.7809169
0.7810197
0.7811363
0.7812751
0.7814515
0.7816374
0.7817925
0.7819681
0.7821679
0.7823971
0.7826612
0.7829585
0.7832578
0.780916
0.7810167
0.7811314
0.781268
0.7814389
0.7816089
0.7817504
0.7819103
0.7820911
0.7822967
0.7825322
0.7828022
0.7831034
0.7833993
0.7809147
0.7810126
0.781124
0.7812566
0.7814206
0.7815795
0.7817109
0.7818586
0.7820243
0.7822108
0.782422
0.7826625
0.7829355
0.7832355
0.7835208
0.7809543
0.7809479
0.7811154
0.7809405
0.7810957
0.7812572
0.7809337
0.7810744
0.7812243
0.7813629
0.7809282
0.7810558
0.7811914
0.7813208
0.7814105
0.780924
0.7810414
0.7811647
0.7812828
0.781372
0.780921
0.781031
0.7811456
0.7812552
0.7813406
0.7809189
0.7810242
0.7811336
0.7812389
0.7813225
0.7809176
0.7810201
0.7811273
0.7812327
0.7813194
0.7809168
0.7810179
0.7811253
0.7812348
0.7813318
0.7809164
0.7810169
0.7811258
0.781243
0.7813613
0.7809161
0.7810163
0.7811271
0.7812533
0.7814116
0.7816525
0.7818332
0.7820317
0.7822563
0.7825137
0.7828043
0.7831018
0.7809157
0.7810154
0.7811273
0.7812585
0.7814269
0.7816251
0.7817857
0.7819647
0.7821669
0.7823984
0.7826655
0.7829686
0.7832798
0.7809151
0.7810138
0.7811254
0.7812577
0.7814253
0.7816007
0.7817454
0.7819076
0.7820903
0.7822978
0.782536
0.7828104
0.78312
0.7834311
0.7809143
0.7810111
0.7811211
0.7812518
0.7814145
0.7815756
0.7817084
0.7818572
0.7820239
0.7822115
0.7824241
0.7826668
0.7829438
0.7832504
0.7835458
0.7809131
0.7810074
0.7811145
0.7812415
0.7813981
0.7815492
0.781673
0.7818114
0.7819654
0.7821371
0.7823294
0.7825459
0.7827904
0.7830651
0.783362
0.7837695
0.7809571
0.7809507
0.7811255
0.780943
0.7811049
0.781278
0.7809357
0.7810816
0.7812408
0.7813955
0.7809296
0.7810607
0.7812022
0.7813418
0.7814445
0.7809247
0.7810438
0.7811699
0.7812927
0.7813875
0.780921
0.781031
0.7811456
0.7812552
0.7813406
0.7809183
0.7810221
0.781129
0.7812303
0.7813091
0.7809165
0.7810162
0.7811189
0.7812167
0.7812933
0.7809154
0.7810128
0.7811141
0.7812125
0.7812924
0.7809148
0.7810112
0.781113
0.7812161
0.7813062
0.7809145
0.7810106
0.7811142
0.781225
0.7813361
0.7809143
0.7810103
0.7811161
0.7812359
0.7813856
0.7816124
0.7817801
0.7819622
0.7821661
0.7823991
0.7826684
0.7829757
0.7832964
0.780914
0.7810097
0.7811168
0.7812418
0.7814017
0.781589
0.7817389
0.7819044
0.7820893
0.7822989
0.78254
0.7828196
0.7831395
0.7834725
0.7809135
0.7810084
0.7811154
0.7812419
0.7814015
0.7815677
0.7817035
0.7818546
0.7820231
0.7822125
0.7824276
0.7826744
0.7829587
0.7832787
0.7835963
0.7809127
0.781006
0.7811117
0.7812368
0.7813923
0.7815454
0.7816706
0.78181
0.781965
0.7821377
0.7823313
0.7825499
0.782798
0.7830786
0.7833843
0.7838119
0.7809116
0.7810026
0.7811056
0.7812275
0.7813775
0.7815215
0.7816387
0.781769
0.7819131
0.7820725
0.7822492
0.7824459
0.7826655
0.7829105
0.7831811
0.7835885
0.7841456
0.7809595
0.7809534
0.781135
0.7809456
0.7811146
0.7812999
0.7809381
0.7810902
0.7812605
0.7814371
0.7809314
0.7810674
0.7812175
0.7813728
0.7814992
0.780926
0.7810483
0.78118
0.7813122
0.7814197
0.7809216
0.7810333
0.7811505
0.7812644
0.781355
0.7809183
0.7810221
0.781129
0.7812303
0.7813091
0.780916
0.7810142
0.7811146
0.7812086
0.7812807
0.7809144
0.7810091
0.7811061
0.7811974
0.7812678
0.7809134
0.7810063
0.7811023
0.7811949
0.7812689
0.7809129
0.7810051
0.781102
0.7811994
0.7812838
0.7809127
0.7810048
0.7811037
0.7812089
0.7813137
0.7809126
0.7810048
0.781106
0.7812202
0.7813623
0.7815769
0.7817336
0.7819021
0.7820886
0.7822996
0.7825426
0.7828259
0.7831544
0.7835091
0.7809123
0.7810044
0.7811071
0.7812266
0.7813789
0.7815565
0.7816974
0.7818516
0.7820222
0.7822136
0.7824313
0.7826828
0.7829763
0.7833155
0.7836715
0.7809119
0.7810033
0.7811062
0.7812273
0.7813798
0.7815379
0.7816659
0.7818076
0.7819643
0.7821387
0.7823346
0.7825569
0.7828117
0.783104
0.7834291
0.7839046
0.7809112
0.7810013
0.7811029
0.781223
0.7813719
0.7815179
0.7816363
0.7817677
0.7819127
0.7820731
0.7822511
0.7824497
0.7826725
0.7829229
0.7832011
0.7836259
0.7842134
0.7809103
0.7809981
0.7810974
0.7812146
0.7813584
0.7814961
0.7816074
0.7817306
0.7818662
0.7820152
0.782179
0.7823595
0.7825585
0.7827778
0.7830181
0.7833887
0.7839309
0.7845112
0.7809611
0.7809556
0.7811428
0.7809481
0.7811236
0.7813198
0.7809405
0.7810992
0.7812813
0.7814829
0.7809336
0.7810754
0.7812359
0.7814122
0.7815801
0.7809277
0.7810547
0.7811942
0.7813411
0.7814716
0.7809228
0.7810376
0.7811599
0.7812825
0.7813851
0.7809189
0.7810242
0.7811336
0.7812389
0.7813225
0.780916
0.7810142
0.7811146
0.7812086
0.7812807
0.7809138
0.7810072
0.781102
0.7811898
0.781256
0.7809124
0.7810028
0.7810947
0.7811806
0.7812457
0.7809116
0.7810004
0.7810917
0.7811793
0.7812484
0.7809112
0.7809995
0.781092
0.7811845
0.7812639
0.7809111
0.7809995
0.7810941
0.7811944
0.7812936
0.780911
0.7809997
0.7810967
0.7812059
0.7813412
0.781545
0.7816923
0.7818493
0.7820216
0.7822142
0.7824337
0.7826886
0.7829897
0.7833481
0.7837601
0.7809108
0.7809996
0.7810982
0.7812127
0.7813582
0.7815272
0.7816601
0.7818047
0.7819634
0.7821397
0.7823381
0.7825647
0.7828279
0.7831372
0.7834958
0.7840772
0.7809105
0.7809987
0.7810976
0.7812139
0.7813599
0.7815106
0.7816319
0.7817654
0.781912
0.782074
0.7822541
0.7824563
0.7826853
0.7829463
0.7832415
0.7837078
0.7843665
0.7809099
0.7809968
0.7810948
0.7812103
0.7813531
0.7814926
0.7816051
0.7817293
0.7818658
0.7820157
0.7821807
0.782363
0.7825651
0.7827893
0.7830365
0.7834223
0.7839905
0.7846016
0.780909
0.7809939
0.7810897
0.7812026
0.7813408
0.7814726
0.7815786
0.7816955
0.7818236
0.7819637
0.7821166
0.7822837
0.782466
0.7826643
0.7828785
0.7832108
0.7837026
0.7842639
0.7848628
0.780962
0.7809572
0.7811483
0.7809502
0.781131
0.7813358
0.7809428
0.7811076
0.7813001
0.7815212
0.7809359
0.7810838
0.7812552
0.7814557
0.7816971
0.7809298
0.7810621
0.7812113
0.7813778
0.7815482
0.7809245
0.7810435
0.7811732
0.7813094
0.7814333
0.7809201
0.7810282
0.7811425
0.7812559
0.7813504
0.7809165
0.7810162
0.7811189
0.7812167
0.7812933
0.7809138
0.7810072
0.781102
0.7811898
0.781256
0.7809119
0.781001
0.7810908
0.7811733
0.7812346
0.7809107
0.7809971
0.7810845
0.7811656
0.7812264
0.78091
0.7809951
0.7810822
0.7811652
0.7812302
0.7809097
0.7809944
0.7810829
0.781171
0.7812461
0.7809096
0.7809946
0.7810854
0.7811811
0.7812755
0.7809095
0.780995
0.7810882
0.7811927
0.781322
0.7815161
0.7816552
0.7818026
0.7819628
0.7821403
0.7823404
0.7825702
0.7828402
0.7831666
0.7835746
0.7845
0.7809094
0.780995
0.7810899
0.7811998
0.7813391
0.7815004
0.7816263
0.7817626
0.7819112
0.782075
0.7822574
0.7824636
0.7827004
0.7829768
0.7833017
0.7838607
0.7846618
0.7809091
0.7809943
0.7810897
0.7812015
0.7813415
0.7814856
0.7816009
0.7817271
0.7818651
0.7820166
0.7821836
0.7823693
0.7825771
0.7828111
0.7830736
0.783496
0.7841253
0.7848059
0.7809086
0.7809926
0.7810872
0.7811984
0.7813356
0.7814692
0.7815764
0.7816943
0.7818233
0.7819642
0.7821183
0.7822871
0.7824723
0.7826751
0.7828956
0.7832416
0.783756
0.7843431
0.784972
0.7809077
0.78099
0.7810825
0.7811913
0.7813244
0.7814508
0.781552
0.7816633
0.7817848
0.781917
0.7820606
0.7822164
0.7823849
0.7825661
0.7827592
0.7830591
0.7835023
0.7840079
0.7845842
0.7851973
0.780958
0.7811512
0.7809517
0.7811363
0.7813468
0.7809447
0.7811145
0.7813153
0.7815494
0.7809381
0.7810916
0.7812728
0.781492
0.7817641
0.7809319
0.7810699
0.7812293
0.7814182
0.781659
0.7820087
0.7809264
0.7810506
0.7811892
0.7813435
0.7815046
0.7809216
0.7810339
0.781155
0.781281
0.7813953
0.7809176
0.7810201
0.7811273
0.7812327
0.7813194
0.7809144
0.7810091
0.7811061
0.7811974
0.7812678
0.7809119
0.781001
0.7810908
0.7811733
0.7812346
0.7809102
0.7809953
0.7810808
0.7811587
0.7812158
0.7809091
0.7809919
0.7810753
0.7811522
0.7812092
0.7809084
0.7809901
0.7810735
0.7811526
0.7812139
0.7809082
0.7809897
0.7810745
0.7811587
0.7812299
0.7809082
0.7809901
0.7810772
0.7811689
0.7812589
0.7869771
0.7809082
0.7809906
0.7810803
0.7811806
0.7813043
0.7814898
0.7816217
0.7817606
0.7819106
0.7820756
0.7822596
0.7824687
0.7827118
0.7830039
0.7833728
0.7842366
0.7853099
0.7809081
0.7809908
0.7810822
0.7811878
0.7813215
0.7814758
0.7815955
0.7817245
0.7818644
0.7820175
0.7821868
0.7823762
0.7825913
0.7828395
0.7831289
0.7836337
0.7843863
0.7851904
0.7809079
0.7809902
0.7810822
0.7811899
0.7813245
0.7814625
0.7815723
0.7816922
0.7818227
0.781965
0.782121
0.782293
0.7824836
0.7826956
0.7829302
0.7833093
0.7838771
0.7845226
0.785217
0.7809074
0.7809888
0.7810801
0.7811873
0.7813194
0.7814476
0.7815499
0.7816622
0.7817845
0.7819175
0.7820622
0.7822196
0.7823908
0.7825763
0.7827752
0.7830878
0.7835513
0.7840789
0.7846797
0.7853212
0.7809066
0.7809863
0.7810758
0.7811809
0.781309
0.7814306
0.7815274
0.7816336
0.7817491
0.7818744
0.7820098
0.7821559
0.7823128
0.78248
0.782656
0.7829295
0.7833323
0.7837859
0.7843018
0.7848891
0.7853628
0.7809524
0.781139
0.7813523
0.7809461
0.7811194
0.7813257
0.7815677
0.7809399
0.781098
0.781287
0.7815188
0.7818041
0.7809339
0.7810772
0.7812457
0.781452
0.7817225
0.7820283
0.7809284
0.7810579
0.781206
0.7813811
0.7816077
0.7819537
0.7821974
0.7809235
0.7810405
0.78117
0.7813129
0.7814616
0.7809191
0.7810254
0.7811391
0.7812563
0.7813613
0.7809154
0.7810128
0.7811141
0.7812125
0.7812924
0.7809124
0.7810028
0.7810947
0.7811806
0.7812457
0.7809102
0.7809953
0.7810808
0.7811587
0.7812158
0.7809086
0.7809902
0.7810717
0.7811456
0.7811991
0.7809076
0.7809871
0.7810669
0.7811401
0.7811939
0.780907
0.7809856
0.7810655
0.781141
0.7811991
0.7809068
0.7809854
0.7810668
0.7811473
0.7812152
0.7884107
0.7809068
0.7809859
0.7810697
0.7811577
0.7812437
0.7864466
0.7871449
0.7809069
0.7809865
0.7810729
0.7811694
0.781288
0.7814656
0.781591
0.7817225
0.7818638
0.7820181
0.7821889
0.782381
0.782602
0.7828648
0.7831944
0.7839733
0.7849617
0.7859305
0.7809069
0.7809868
0.781075
0.7811767
0.7813052
0.781453
0.7815672
0.7816897
0.7818219
0.7819659
0.782124
0.7822996
0.782497
0.7827223
0.7829817
0.7834359
0.7841121
0.7848617
0.7856626
0.7809067
0.7809864
0.7810753
0.7811791
0.7813086
0.7814411
0.781546
0.7816601
0.7817839
0.7819183
0.7820648
0.7822252
0.7824016
0.7825957
0.7828077
0.7831507
0.7836624
0.7842401
0.7848944
0.7855964
0.7809063
0.7809851
0.7810734
0.781177
0.7813042
0.7814275
0.7815254
0.7816325
0.7817488
0.7818749
0.7820113
0.782159
0.7823185
0.7824897
0.7826711
0.7829564
0.7833779
0.783851
0.7843873
0.7849972
0.785492
0.7809055
0.7809828
0.7810695
0.781171
0.7812947
0.7814117
0.7815045
0.781606
0.7817162
0.7818352
0.7819635
0.7821011
0.7822481
0.7824035
0.7825654
0.7828174
0.7831872
0.7835982
0.7840591
0.7845819
0.7850402
0.7853784
0.7809468
0.781122
0.781331
0.7815766
0.7809411
0.7811026
0.7812967
0.7815361
0.7818272
0.7809356
0.7810833
0.7812588
0.7814769
0.7817604
0.7820473
0.7809304
0.7810647
0.7812213
0.7814126
0.7816667
0.7819723
0.7822056
0.7809254
0.7810474
0.7811858
0.781348
0.7815574
0.7818816
0.7821317
0.7823786
0.7809209
0.7810317
0.7811534
0.7812863
0.7814233
0.7809168
0.7810179
0.7811253
0.7812348
0.7813318
0.7809134
0.7810063
0.7811023
0.7811949
0.7812689
0.7809107
0.7809971
0.7810845
0.7811656
0.7812264
0.7809086
0.7809902
0.7810717
0.7811456
0.7811991
0.7809071
0.7809854
0.7810634
0.7811338
0.7811842
0.7809062
0.7809826
0.7810591
0.781129
0.7811799
0.7809057
0.7809814
0.7810582
0.7811304
0.7811856
0.7893768
0.7809056
0.7809813
0.7810597
0.7811369
0.7812017
0.7877212
0.7884866
0.7809056
0.7809819
0.7810627
0.7811473
0.7812296
0.7859735
0.7865961
0.7873925
0.7809057
0.7809827
0.7810661
0.7811589
0.7812729
0.7814432
0.7815629
0.7816878
0.7818214
0.7819664
0.782126
0.7823042
0.7825071
0.782746
0.7830427
0.7837485
0.7846313
0.7855172
0.7864362
0.7809057
0.7809831
0.7810683
0.7811664
0.78129
0.781432
0.781541
0.7816577
0.7817832
0.7819191
0.7820677
0.7822315
0.7824143
0.7826209
0.7828561
0.7832686
0.7838783
0.784545
0.7852865
0.7860829
0.7809056
0.7809828
0.7810688
0.781169
0.7812938
0.7814212
0.7815216
0.7816305
0.7817482
0.7818756
0.7820139
0.7821644
0.7823287
0.7825081
0.7827018
0.7830155
0.7834813
0.7839988
0.7845799
0.7852379
0.7857782
0.7809052
0.7809817
0.7810672
0.7811673
0.7812901
0.7814087
0.7815026
0.781605
0.7817159
0.7818357
0.7819649
0.7821041
0.7822535
0.7824128
0.7825798
0.7828428
0.78323
0.7836587
0.7841374
0.7846786
0.7851527
0.7855081
0.7809045
0.7809795
0.7810635
0.7811618
0.7812813
0.7813941
0.7814832
0.7815804
0.7816857
0.7817991
0.7819209
0.7820511
0.7821894
0.7823348
0.782485
0.782719
0.7830617
0.7834381
0.7838544
0.7843196
0.7847209
0.7850544
0.7853937
0.7809418
0.7811049
0.7813016
0.7815446
0.7818379
0.7809368
0.7810875
0.7812678
0.7814931
0.7817824
0.7820606
0.7809319
0.7810704
0.7812336
0.7814358
0.7817021
0.7819902
0.7822155
0.7809272
0.7810539
0.7812002
0.7813774
0.7816124
0.7818989
0.7821396
0.782382
0.7809227
0.7810383
0.7811683
0.7813193
0.7815129
0.7818121
0.7820469
0.7823022
0.7825571
0.7809185
0.7810239
0.7811388
0.7812632
0.7813901
0.7809148
0.7810112
0.781113
0.7812161
0.7813062
0.7809116
0.7810004
0.7810917
0.7811793
0.7812484
0.7809091
0.7809919
0.7810753
0.7811522
0.7812092
0.7809071
0.7809854
0.7810634
0.7811338
0.7811842
0.7809057
0.7809811
0.7810559
0.781123
0.7811707
0.7809049
0.7809785
0.781052
0.7811188
0.7811673
0.7899972
0.7809045
0.7809775
0.7810513
0.7811206
0.7811733
0.788578
0.7894334
0.7809044
0.7809776
0.7810531
0.7811272
0.7811892
0.7871244
0.787788
0.7886268
0.7809045
0.7809783
0.7810562
0.7811376
0.7812166
0.7855919
0.7861092
0.7868164
0.7876775
0.7809046
0.7809791
0.7810597
0.7811492
0.7812588
0.7814225
0.7815369
0.7816559
0.7817826
0.7819196
0.7820696
0.7822359
0.7824239
0.7826433
0.7829134
0.7835601
0.784356
0.7851359
0.7859697
0.7868679
0.7809047
0.7809796
0.7810621
0.7811567
0.7812758
0.7814124
0.7815168
0.7816282
0.7817476
0.7818764
0.7820166
0.7821704
0.7823408
0.782532
0.7827475
0.7831262
0.7836822
0.7842788
0.7849321
0.7856646
0.7862789
0.7809045
0.7809795
0.7810627
0.7811595
0.78128
0.7814027
0.7814989
0.7816031
0.7817153
0.7818364
0.7819673
0.7821092
0.7822633
0.7824302
0.7826089
0.7828986
0.783327
0.7837961
0.7843139
0.7848941
0.7854025
0.7857952
0.7809042
0.7809784
0.7810613
0.7811581
0.7812768
0.7813911
0.7814813
0.7815794
0.7816854
0.7817995
0.7819223
0.7820539
0.7821946
0.7823436
0.7824987
0.7827431
0.783102
0.7834948
0.7839272
0.784408
0.7848214
0.7851673
0.7855238
0.7809035
0.7809764
0.7810579
0.7811531
0.7812687
0.7813775
0.7814632
0.7815565
0.7816573
0.7817656
0.7818815
0.7820051
0.7821358
0.7822725
0.7824126
0.7826315
0.7829514
0.7832995
0.7836799
0.7840989
0.7844489
0.7847339
0.7850684
0.7854089
0.7809375
0.7810897
0.7812724
0.781501
0.7817925
0.7820673
0.7809331
0.7810744
0.7812421
0.7814508
0.7817225
0.7820029
0.7822233
0.7809287
0.7810593
0.7812118
0.7813991
0.7816452
0.7819156
0.782149
0.7823866
0.7809244
0.7810444
0.7811819
0.781347
0.7815642
0.7818282
0.7820541
0.7823054
0.7825579
0.7809203
0.7810302
0.7811529
0.7812944
0.7814743
0.781751
0.7819657
0.7822048
0.7824696
0.7827356
0.7809164
0.7810169
0.7811258
0.781243
0.7813613
0.7809129
0.7810051
0.781102
0.7811994
0.7812838
0.78091
0.7809951
0.7810822
0.7811652
0.7812302
0.7809076
0.7809871
0.7810669
0.7811401
0.7811939
0.7809057
0.7809811
0.7810559
0.781123
0.7811707
0.7809045
0.780977
0.7810488
0.7811131
0.7811584
0.7903033
0.7809037
0.7809747
0.7810454
0.7811095
0.7811556
0.7891273
0.7900489
0.7809033
0.7809738
0.781045
0.7811115
0.7811619
0.7878967
0.788627
0.7895443
0.7809033
0.780974
0.7810469
0.7811183
0.7811777
0.7866512
0.7871848
0.787911
0.7888188
0.7809034
0.7809748
0.7810501
0.7811286
0.7812045
0.7852797
0.7857172
0.7863091
0.7870693
0.7879794
0.7809036
0.7809757
0.7810537
0.78114
0.7812457
0.7814033
0.7815128
0.7816264
0.7817471
0.7818769
0.7820184
0.7821745
0.78235
0.7825533
0.7828017
0.7834001
0.7841274
0.7848221
0.7855472
0.7863555
0.7870675
0.7809036
0.7809763
0.7810562
0.7811476
0.7812626
0.7813941
0.7814943
0.7816008
0.7817147
0.7818372
0.78197
0.782115
0.7822748
0.782453
0.7826523
0.7830032
0.7835157
0.7840567
0.7846371
0.785277
0.7858408
0.7862971
0.7809035
0.7809763
0.7810569
0.7811507
0.7812671
0.7813853
0.7814777
0.7815775
0.7816849
0.7818003
0.7819246
0.7820588
0.7822039
0.7823603
0.7825263
0.782796
0.7831936
0.7836237
0.7840912
0.7846055
0.785045
0.7854179
0.7858118
0.7809032
0.7809754
0.7810558
0.7811496
0.7812643
0.7813747
0.7814614
0.7815555
0.781657
0.781766
0.7818829
0.7820078
0.7821408
0.7822809
0.7824257
0.7826544
0.7829896
0.783353
0.7837481
0.784181
0.7845409
0.7848348
0.7851817
0.7855394
0.7809026
0.7809735
0.7810526
0.7811449
0.7812568
0.781362
0.7814445
0.7815341
0.7816308
0.7817344
0.7818451
0.7819626
0.7820865
0.7822155
0.782347
0.7825528
0.7828532
0.7831777
0.7835287
0.7839107
0.7842203
0.7844611
0.7847468
0.7850823
0.7854238
0.7809337
0.7810765
0.7812464
0.7814581
0.7817319
0.7820093
0.7822275
0.7809298
0.7810631
0.7812197
0.7814131
0.7816642
0.7819274
0.7821564
0.7823904
0.7809259
0.7810495
0.7811928
0.7813673
0.781595
0.7818438
0.7820629
0.7823098
0.7825591
0.7809219
0.781036
0.7811658
0.7813205
0.7815226
0.781766
0.7819725
0.7822079
0.7824704
0.7827345
0.7809181
0.7810229
0.7811393
0.7812726
0.7814409
0.7816982
0.7818946
0.7821125
0.7823597
0.7826363
0.7829163
0.7809145
0.7810106
0.7811142
0.781225
0.7813361
0.7809112
0.7809995
0.781092
0.7811845
0.7812639
0.7809084
0.7809901
0.7810735
0.7811526
0.7812139
0.7809062
0.7809826
0.7810591
0.781129
0.7811799
0.7809045
0.780977
0.7810488
0.7811131
0.7811584
0.7903033
0.7809033
0.7809733
0.7810424
0.7811039
0.7811471
0.789398
0.7903538
0.7809026
0.7809712
0.7810393
0.7811008
0.7811449
0.7883911
0.7891716
0.7901516
0.7809022
0.7809704
0.7810391
0.781103
0.7811513
0.7873611
0.7879409
0.788723
0.7897061
0.7809022
0.7809707
0.7810411
0.7811099
0.7811669
0.7862671
0.7867069
0.7872962
0.788079
0.7890526
0.7809024
0.7809716
0.7810444
0.7811201
0.7811932
0.7850171
0.7853968
0.7859019
0.7865387
0.7873365
0.7881417
0.7809026
0.7809726
0.781048
0.7811315
0.7812335
0.7813853
0.7814904
0.7815991
0.7817142
0.7818377
0.7819717
0.7821189
0.7822836
0.7824733
0.7827038
0.7832621
0.783934
0.7845628
0.7852022
0.7858982
0.7865336
0.787086
0.7809027
0.7809733
0.7810506
0.7811391
0.7812502
0.781377
0.7814733
0.7815754
0.7816842
0.781801
0.7819271
0.7820643
0.782215
0.7823821
0.7825677
0.7828953
0.7833719
0.7838684
0.7843919
0.7849566
0.785438
0.7858572
0.7863148
0.7809026
0.7809733
0.7810515
0.7811423
0.7812549
0.781369
0.7814579
0.7815537
0.7816565
0.7817667
0.7818851
0.7820126
0.7821497
0.7822969
0.7824522
0.7827048
0.7830765
0.7834747
0.783902
0.7843644
0.7847456
0.7850591
0.785433
0.7858281
0.7809023
0.7809725
0.7810505
0.7811415
0.7812526
0.7813592
0.7814427
0.7815332
0.7816305
0.7817349
0.7818464
0.7819652
0.7820913
0.7822236
0.7823596
0.7825747
0.7828896
0.7832284
0.7835931
0.7839876
0.7843057
0.7845534
0.7848481
0.7851958
0.7855546
0.7809018
0.7809708
0.7810477
0.7811372
0.7812457
0.7813473
0.7814269
0.7815132
0.781606
0.7817054
0.7818112
0.7819233
0.7820411
0.7821632
0.7822871
0.7824814
0.7827649
0.7830691
0.7833958
0.7837476
0.7840254
0.7842317
0.7844731
0.7847596
0.7850959
0.7854413
0.7809304
0.781065
0.7812237
0.78142
0.781673
0.7819333
0.7821604
0.7823925
0.7809269
0.7810531
0.7812003
0.7813805
0.7816127
0.7818548
0.7820698
0.7823136
0.78256
0.7809233
0.7810409
0.7811762
0.7813398
0.7815515
0.7817806
0.7819807
0.782212
0.7824716
0.7827326
0.7809197
0.7810285
0.7811516
0.7812974
0.7814865
0.7817123
0.7819009
0.7821153
0.7823605
0.7826353
0.7829127
0.7809161
0.7810163
0.7811271
0.7812533
0.7814116
0.7816525
0.7818332
0.7820317
0.7822563
0.7825137
0.7828043
0.7831018
0.7809127
0.7810048
0.7811037
0.7812089
0.7813137
0.7809097
0.7809944
0.7810829
0.781171
0.7812461
0.780907
0.7809856
0.7810655
0.781141
0.7811991
0.7809049
0.7809785
0.781052
0.7811188
0.7811673
0.7899972
0.7809033
0.7809733
0.7810424
0.7811039
0.7811471
0.789398
0.7903538
0.7809022
0.7809698
0.7810363
0.7810954
0.7811367
0.7886347
0.7894411
0.7904545
0.7809015
0.7809678
0.7810335
0.7810927
0.7811349
0.7878154
0.788431
0.7892597
0.7903046
0.7809012
0.7809672
0.7810335
0.7810952
0.7811415
0.7869285
0.7874019
0.7880274
0.7888627
0.7899155
0.7809012
0.7809676
0.7810356
0.781102
0.7811569
0.7859451
0.7863192
0.7868097
0.7874482
0.7882831
0.7891937
0.7809014
0.7809685
0.7810391
0.7811122
0.7811827
0.7847912
0.7851273
0.7855694
0.786114
0.7867812
0.7874796
0.7881572
0.7809016
0.7809696
0.7810427
0.7811235
0.781222
0.7813685
0.7814696
0.7815738
0.7816838
0.7818015
0.7819288
0.7820682
0.7822234
0.7824014
0.7826167
0.7831411
0.7837672
0.7843438
0.7849181
0.7855268
0.7860603
0.7865502
0.7871042
0.7809018
0.7809703
0.7810454
0.7811311
0.7812385
0.781361
0.7814536
0.7815516
0.7816559
0.7817674
0.7818876
0.7820178
0.7821604
0.7823177
0.7824916
0.7827993
0.7832456
0.7837057
0.7841841
0.7846909
0.7851058
0.785453
0.7858732
0.7863321
0.7809017
0.7809704
0.7810464
0.7811344
0.7812434
0.7813537
0.7814394
0.7815315
0.78163
0.7817355
0.7818485
0.7819698
0.7820999
0.7822389
0.7823849
0.7826228
0.7829723
0.7833438
0.7837383
0.7841596
0.7844958
0.7847587
0.7850729
0.7854477
0.7858441
0.7809015
0.7809697
0.7810456
0.7811339
0.7812416
0.7813447
0.7814252
0.7815123
0.7816058
0.7817058
0.7818124
0.7819258
0.7820456
0.7821709
0.7822991
0.7825023
0.7827996
0.7831174
0.7834568
0.7838202
0.7841054
0.7843174
0.7845657
0.7848611
0.7852098
0.7855725
0.780901
0.7809681
0.7810429
0.7811299
0.7812351
0.7813336
0.7814103
0.7814935
0.7815828
0.7816782
0.7817795
0.7818866
0.7819989
0.7821149
0.782232
0.7824161
0.7826847
0.7829714
0.7832773
0.7836041
0.7838565
0.7840362
0.784243
0.784485
0.7847722
0.7851119
0.7854577
0.7809274
0.781055
0.7812041
0.781387
0.7816209
0.7818603
0.7820735
0.7823156
0.7825605
0.7809243
0.7810443
0.7811833
0.7813523
0.7815682
0.7817908
0.7819871
0.7822155
0.7824726
0.7827309
0.780921
0.7810331
0.7811615
0.7813157
0.7815138
0.781726
0.7819085
0.7821192
0.7823617
0.7826338
0.7829072
0.7809176
0.7810217
0.7811388
0.7812769
0.7814549
0.7816658
0.7818392
0.7820344
0.7822571
0.7825128
0.782801
0.7830939
0.7809143
0.7810103
0.7811161
0.7812359
0.7813856
0.7816124
0.7817801
0.7819622
0.7821661
0.7823991
0.7826684
0.7829757
0.7832964
0.7809111
0.7809995
0.7810941
0.7811944
0.7812936
0.7809082
0.7809897
0.7810745
0.7811587
0.7812299
0.7809057
0.7809814
0.7810582
0.7811304
0.7811856
0.7893768
0.7809037
0.7809747
0.7810454
0.7811095
0.7811556
0.7891273
0.7900489
0.7809022
0.7809698
0.7810363
0.7810954
0.7811367
0.7886347
0.7894411
0.7904545
0.7809011
0.7809665
0.7810307
0.7810875
0.781127
0.7880392
0.7886734
0.7895271
0.7906051
0.7809005
0.7809647
0.7810282
0.7810852
0.7811256
0.7873515
0.7878522
0.7885102
0.7893907
0.7905066
0.7809003
0.7809642
0.7810283
0.7810878
0.7811323
0.7865664
0.7869665
0.7874816
0.7881534
0.7890432
0.790049
0.7809003
0.7809647
0.7810306
0.7810947
0.7811475
0.7856683
0.7859941
0.7864151
0.78695
0.7876328
0.7884057
0.7892075
0.7809005
0.7809657
0.781034
0.7811048
0.7811728
0.7845931
0.7848955
0.7852897
0.7857675
0.7863381
0.7869111
0.7874933
0.7881728
0.7809007
0.7809668
0.7810377
0.7811159
0.7812112
0.7813528
0.78145
0.7815501
0.7816554
0.7817679
0.7818892
0.7820215
0.7821684
0.7823362
0.7825384
0.7830334
0.7836209
0.7841549
0.7846782
0.7852215
0.7856769
0.7860754
0.7865663
0.7871218
0.7809009
0.7809676
0.7810404
0.7811236