/*--------------------------------*- C++ -*----------------------------------*\
| =========                 |                                                 |
| \\      /  F ield         | OpenFOAM: The Open Source CFD Toolbox           |
|  \\    /   O peration     | Version:  2306                                  |
|   \\  /    A nd           | Website:  www.openfoam.com                      |
|    \\/     M anipulation  |                                                 |
\*---------------------------------------------------------------------------*/
FoamFile
{
    version     2.0;
    format      ascii;
    arch        "LSB;label=32;scalar=64";
    class       volScalarField;
    location    "1.2/phiEC";
    object      T;
}
// * * * * * * * * * * * * * * * * * * * * * * * * * * * * * * * * * * * * * //

dimensions      [0 0 0 1 0 0 0];

internalField   nonuniform List<scalar> 
20000
(
1155.219
1155.217
1156.932
1155.159
1155.213
1156.931
1155.156
1159.231
1156.912
1155.04
1155.208
1156.93
1155.151
1159.23
1156.911
1155.035
1161.63
1159.23
1156.874
1154.866
1155.201
1156.927
1155.143
1159.229
1156.909
1155.026
1161.629
1159.229
1156.872
1154.858
1163.95
1161.636
1159.229
1156.822
1154.647
1155.195
1156.925
1155.134
1159.227
1156.906
1155.014
1161.627
1159.227
1156.869
1154.842
1163.95
1161.635
1159.228
1156.819
1154.631
1166.135
1163.959
1161.649
1159.232
1156.761
1154.466
1155.188
1156.922
1155.125
1159.224
1156.902
1154.999
1161.625
1159.224
1156.865
1154.82
1163.948
1161.633
1159.225
1156.814
1154.601
1166.135
1163.958
1161.647
1159.23
1156.757
1154.44
1168.172
1166.144
1163.976
1161.672
1159.243
1156.717
1154.35
1155.182
1156.919
1155.115
1159.222
1156.898
1154.983
1161.623
1159.221
1156.859
1154.795
1163.946
1161.63
1159.22
1156.807
1154.562
1166.133
1163.956
1161.644
1159.225
1156.749
1154.387
1168.172
1166.143
1163.975
1161.67
1159.239
1156.711
1154.316
1170.067
1168.181
1166.162
1164.006
1161.709
1159.261
1156.692
1154.244
1155.178
1156.916
1155.107
1159.219
1156.895
1154.966
1161.621
1159.217
1156.853
1154.768
1163.944
1161.627
1159.215
1156.799
1154.519
1166.132
1163.953
1161.64
1159.218
1156.739
1154.31
1168.171
1166.141
1163.972
1161.665
1159.233
1156.698
1154.246
1170.067
1168.18
1166.16
1164.003
1161.706
1159.257
1156.683
1154.203
1171.831
1170.075
1168.198
1166.191
1164.05
1161.75
1159.277
1156.674
1154.155
1155.176
1156.915
1155.101
1159.217
1156.891
1154.952
1161.618
1159.214
1156.847
1154.736
1163.942
1161.623
1159.209
1156.79
1154.488
1166.13
1163.95
1161.635
1159.209
1156.727
1154.211
1168.169
1166.139
1163.968
1161.658
1159.223
1156.679
1154.14
1170.066
1168.178
1166.158
1163.999
1161.7
1159.25
1156.666
1154.119
1171.83
1170.074
1168.196
1166.189
1164.047
1161.747
1159.273
1156.663
1154.108
1173.474
1171.837
1170.09
1168.225
1166.235
1164.095
1161.78
1159.298
1156.664
1154.088
1155.176
1156.914
1155.097
1159.216
1156.889
1154.94
1161.616
1159.211
1156.841
1154.706
1163.94
1161.62
1159.204
1156.778
1154.419
1166.127
1163.947
1161.629
1159.199
1156.718
1168.167
1166.136
1163.963
1161.649
1159.209
1156.66
1153.991
1170.064
1168.176
1166.154
1163.992
1161.69
1159.24
1156.64
1153.987
1171.829
1170.073
1168.194
1166.185
1164.041
1161.742
1159.265
1156.64
1154.013
1173.474
1171.837
1170.089
1168.223
1166.232
1164.093
1161.778
1159.293
1156.651
1154.038
1175.009
1173.48
1171.851
1170.116
1168.266
1166.28
1164.13
1161.815
1159.325
1156.666
1154.045
1155.178
1156.914
1155.097
1159.215
1156.887
1154.934
1161.615
1159.209
1156.836
1154.683
1163.938
1161.617
1159.199
1156.767
1154.351
1166.125
1163.944
1161.623
1159.188
1156.696
1168.165
1166.133
1163.957
1161.637
1159.187
1170.063
1168.173
1166.149
1163.983
1161.674
1159.229
1156.607
1153.8
1171.828
1170.071
1168.19
1166.179
1164.031
1161.735
1159.253
1156.606
1153.863
1173.473
1171.835
1170.087
1168.22
1166.227
1164.089
1161.773
1159.284
1156.625
1153.935
1175.009
1173.48
1171.85
1170.114
1168.264
1166.278
1164.128
1161.813
1159.32
1156.652
1153.993
1176.445
1175.015
1173.493
1171.874
1170.153
1168.307
1166.313
1164.167
1161.854
1159.358
1156.681
1154.028
1155.182
1156.915
1155.101
1159.215
1156.887
1154.934
1161.614
1159.208
1156.834
1154.67
1163.936
1161.615
1159.195
1156.758
1154.3
1166.124
1163.941
1161.618
1159.178
1156.67
1168.163
1166.13
1163.951
1161.626
1159.166
1170.061
1168.171
1166.144
1163.972
1161.648
1171.826
1170.068
1168.186
1166.17
1164.016
1161.727
1159.239
1156.56
1153.651
1173.472
1171.834
1170.084
1168.214
1166.218
1164.083
1161.766
1159.27
1156.584
1153.775
1175.008
1173.479
1171.848
1170.11
1168.259
1166.274
1164.124
1161.808
1159.309
1156.623
1153.887
1176.445
1175.014
1173.492
1171.873
1170.151
1168.306
1166.312
1164.166
1161.852
1159.353
1156.667
1153.976
1177.791
1176.451
1175.027
1173.514
1171.908
1170.191
1168.338
1166.349
1164.208
1161.897
1159.398
1156.709
1154.035
1155.188
1156.916
1155.107
1159.216
1156.889
1154.94
1161.614
1159.208
1156.834
1154.67
1163.935
1161.614
1159.193
1156.752
1154.273
1166.122
1163.939
1161.614
1159.171
1156.649
1168.162
1166.127
1163.947
1161.617
1159.147
1170.059
1168.168
1166.139
1163.961
1161.627
1171.825
1170.066
1168.181
1166.16
1163.989
1173.47
1171.832
1170.08
1168.206
1166.204
1164.077
1161.759
1159.25
1156.527
1153.549
1175.007
1173.477
1171.846
1170.105
1168.251
1166.269
1164.12
1161.801
1159.293
1156.579
1153.723
1176.444
1175.013
1173.491
1171.87
1170.146
1168.303
1166.309
1164.163
1161.847
1159.342
1156.638
1153.87
1177.791
1176.45
1175.026
1173.513
1171.906
1170.189
1168.337
1166.348
1164.207
1161.895
1159.393
1156.695
1153.984
1179.054
1177.796
1176.461
1175.046
1173.545
1171.942
1170.218
1168.371
1166.388
1164.251
1161.944
1159.445
1156.75
1154.067
1155.195
1156.919
1155.115
1159.217
1156.891
1154.952
1161.615
1159.209
1156.836
1154.683
1163.935
1161.614
1159.193
1156.752
1154.273
1166.122
1163.938
1161.613
1159.167
1156.637
1168.161
1166.126
1163.943
1161.611
1159.133
1170.058
1168.166
1166.135
1163.953
1161.61
1171.823
1170.063
1168.177
1166.151
1163.969
1173.469
1171.829
1170.076
1168.197
1166.179
1175.006
1173.475
1171.842
1170.098
1168.238
1166.264
1164.115
1161.792
1159.269
1156.516
1153.494
1176.443
1175.012
1173.488
1171.865
1170.139
1168.298
1166.305
1164.159
1161.84
1159.324
1156.593
1153.709
1177.79
1176.449
1175.024
1173.51
1171.903
1170.186
1168.335
1166.346
1164.204
1161.891
1159.383
1156.668
1153.882
1179.053
1177.795
1176.46
1175.044
1173.543
1171.941
1170.217
1168.371
1166.387
1164.251
1161.943
1159.441
1156.738
1154.017
1180.24
1179.058
1177.806
1176.479
1175.073
1173.576
1171.968
1170.249
1168.407
1166.429
1164.298
1161.995
1159.498
1156.802
1154.122
1155.201
1156.922
1155.125
1159.219
1156.895
1154.966
1161.616
1159.211
1156.841
1154.706
1163.936
1161.615
1159.195
1156.758
1154.3
1166.122
1163.938
1161.613
1159.167
1156.637
1168.16
1166.125
1163.942
1161.607
1159.125
1170.057
1168.164
1166.132
1163.947
1161.599
1171.822
1170.061
1168.173
1166.143
1163.955
1173.468
1171.827
1170.071
1168.188
1166.161
1175.004
1173.473
1171.838
1170.09
1168.215
1176.442
1175.01
1173.485
1171.859
1170.127
1168.294
1166.302
1164.154
1161.829
1159.299
1156.529
1153.485
1177.789
1176.448
1175.022
1173.506
1171.896
1170.183
1168.332
1166.343
1164.2
1161.883
1159.366
1156.626
1153.726
1179.053
1177.795
1176.459
1175.042
1173.54
1171.939
1170.216
1168.369
1166.385
1164.249
1161.939
1159.432
1156.714
1153.917
1180.239
1179.058
1177.805
1176.477
1175.072
1173.575
1171.967
1170.248
1168.406
1166.428
1164.297
1161.994
1159.495
1156.792
1154.072
1181.354
1180.244
1179.067
1177.822
1176.504
1175.102
1173.599
1171.995
1170.281
1168.444
1166.472
1164.346
1162.049
1159.556
1156.865
1155.028
1155.208
1156.925
1155.134
1159.222
1156.898
1154.983
1161.618
1159.214
1156.847
1154.736
1163.938
1161.617
1159.199
1156.767
1154.351
1166.122
1163.939
1161.614
1159.171
1156.649
1168.16
1166.125
1163.942
1161.607
1159.125
1170.056
1168.163
1166.13
1163.944
1161.593
1171.821
1170.06
1168.17
1166.138
1163.945
1173.466
1171.825
1170.068
1168.181
1166.148
1175.003
1173.471
1171.835
1170.082
1168.199
1176.441
1175.008
1173.481
1171.851
1170.107
1177.788
1176.446
1175.019
1173.5
1171.885
1170.178
1168.329
1166.34
1164.195
1161.872
1159.341
1156.567
1153.517
1179.052
1177.793
1176.457
1175.038
1173.534
1171.935
1170.213
1168.367
1166.383
1164.245
1161.932
1159.418
1156.678
1153.769
1180.239
1179.057
1177.804
1176.475
1175.069
1173.572
1171.965
1170.247
1168.405
1166.427
1164.296
1161.992
1159.489
1156.772
1153.972
1181.354
1180.243
1179.067
1177.821
1176.503
1175.101
1173.598
1171.994
1170.28
1168.444
1166.472
1164.347
1162.049
1159.554
1156.856
1154.96
1182.401
1181.358
1180.252
1179.082
1177.845
1176.53
1175.123
1173.623
1172.024
1170.315
1168.483
1166.516
1164.397
1162.104
1159.617
1157.7
1156.768
1155.213
1156.927
1155.143
1159.224
1156.902
1154.999
1161.621
1159.217
1156.853
1154.768
1163.94
1161.62
1159.204
1156.778
1154.419
1166.124
1163.941
1161.618
1159.178
1156.67
1168.161
1166.126
1163.943
1161.611
1159.133
1170.056
1168.163
1166.13
1163.944
1161.593
1171.82
1170.059
1168.169
1166.135
1163.941
1173.465
1171.824
1170.066
1168.177
1166.14
1175.002
1173.469
1171.831
1170.076
1168.187
1176.44
1175.006
1173.478
1171.844
1170.092
1177.787
1176.444
1175.016
1173.493
1171.867
1179.051
1177.792
1176.454
1175.033
1173.524
1171.932
1170.21
1168.364
1166.38
1164.24
1161.922
1159.396
1156.629
1153.579
1180.238
1179.056
1177.802
1176.472
1175.063
1173.569
1171.963
1170.245
1168.404
1166.426
1164.294
1161.988
1159.479
1156.744
1153.826
1181.353
1180.242
1179.065
1177.819
1176.5
1175.099
1173.596
1171.993
1170.279
1168.443
1166.472
1164.347
1162.049
1159.552
1156.839
1154.808
1182.401
1181.357
1180.251
1179.081
1177.844
1176.529
1175.122
1173.623
1172.024
1170.314
1168.483
1166.517
1164.398
1162.106
1159.617
1157.692
1156.668
1183.386
1182.405
1181.366
1180.266
1179.104
1177.869
1176.549
1175.145
1173.65
1172.055
1170.35
1168.524
1166.562
1164.448
1162.16
1160.355
1159.3
1158.52
1155.217
1156.93
1155.151
1159.227
1156.906
1155.014
1161.623
1159.221
1156.859
1154.795
1163.942
1161.623
1159.209
1156.79
1154.488
1166.125
1163.944
1161.623
1159.188
1156.696
1168.162
1166.127
1163.947
1161.617
1159.147
1170.057
1168.164
1166.132
1163.947
1161.599
1171.82
1170.059
1168.169
1166.135
1163.941
1173.465
1171.823
1170.064
1168.174
1166.136
1175.001
1173.468
1171.829
1170.072
1168.18
1176.439
1175.005
1173.475
1171.839
1170.082
1177.786
1176.443
1175.013
1173.487
1171.853
1179.05
1177.79
1176.451
1175.026
1173.507
1180.237
1179.054
1177.799
1176.467
1175.054
1173.566
1171.961
1170.243
1168.401
1166.423
1164.29
1161.98
1159.464
1156.71
1153.647
1181.352
1180.241
1179.063
1177.815
1176.495
1175.096
1173.594
1171.992
1170.278
1168.442
1166.471
1164.346
1162.048
1159.549
1156.818
1154.514
1182.401
1181.357
1180.25
1179.079
1177.841
1176.527
1175.121
1173.622
1172.023
1170.314
1168.484
1166.518
1164.4
1162.109
1159.618
1157.677
1156.428
1183.386
1182.405
1181.365
1180.265
1179.103
1177.868
1176.549
1175.145
1173.65
1172.055
1170.35
1168.524
1166.563
1164.45
1162.163
1160.36
1159.292
1158.393
1184.312
1183.39
1182.412
1181.379
1180.286
1179.126
1177.887
1176.57
1175.169
1173.678
1172.087
1170.386
1168.565
1166.608
1164.498
1162.806
1161.766
1160.9
1160.287
1155.219
1156.931
1155.156
1159.229
1156.909
1155.026
1161.625
1159.224
1156.865
1154.82
1163.944
1161.627
1159.215
1156.799
1154.519
1166.127
1163.947
1161.629
1159.199
1156.718
1168.163
1166.13
1163.951
1161.626
1159.166
1170.058
1168.166
1166.135
1163.953
1161.61
1171.821
1170.06
1168.17
1166.138
1163.945
1173.465
1171.823
1170.064
1168.174
1166.136
1175.001
1173.468
1171.828
1170.07
1168.176
1176.438
1175.004
1173.473
1171.835
1170.075
1177.785
1176.441
1175.01
1173.482
1171.844
1179.049
1177.789
1176.448
1175.021
1173.495
1180.236
1179.053
1177.796
1176.461
1175.039
1181.351
1180.24
1179.061
1177.811
1176.487
1175.093
1173.592
1171.99
1170.276
1168.441
1166.469
1164.344
1162.045
1159.544
1156.8
1153.686
1182.4
1181.356
1180.249
1179.076
1177.837
1176.525
1175.119
1173.62
1172.022
1170.313
1168.484
1166.519
1164.403
1162.113
1159.621
1157.671
1155.91
1183.385
1182.404
1181.364
1180.263
1179.1
1177.867
1176.547
1175.144
1173.649
1172.054
1170.35
1168.526
1166.566
1164.455
1162.169
1160.377
1159.281
1158.086
1184.311
1183.389
1182.412
1181.378
1180.285
1179.125
1177.886
1176.57
1175.169
1173.678
1172.087
1170.387
1168.566
1166.61
1164.501
1162.816
1161.781
1160.892
1160.141
1185.181
1184.315
1183.397
1182.425
1181.398
1180.307
1179.142
1177.906
1176.592
1175.195
1173.707
1172.119
1170.423
1168.606
1166.652
1165.064
1164.042
1163.175
1162.501
1162.072
1156.932
1155.159
1159.23
1156.911
1155.035
1161.627
1159.227
1156.869
1154.842
1163.946
1161.63
1159.22
1156.807
1154.562
1166.13
1163.95
1161.635
1159.209
1156.727
1154.211
1168.165
1166.133
1163.957
1161.637
1159.187
1170.059
1168.168
1166.139
1163.961
1161.627
1171.822
1170.061
1168.173
1166.143
1163.955
1173.465
1171.824
1170.066
1168.177
1166.14
1175.001
1173.468
1171.828
1170.07
1168.176
1176.438
1175.003
1173.472
1171.833
1170.072
1177.784
1176.44
1175.008
1173.478
1171.838
1179.048
1177.787
1176.446
1175.016
1173.487
1180.235
1179.051
1177.794
1176.456
1175.028
1181.351
1180.239
1179.059
1177.806
1176.473
1147.801
1182.399
1181.354
1180.246
1179.072
1177.829
1176.522
1175.117
1173.619
1172.02
1170.312
1168.483
1166.519
1164.404
1162.118
1159.631
1157.77
1154.558
1183.385
1182.403
1181.362
1180.26
1179.096
1177.864
1176.546
1175.143
1173.648
1172.054
1170.351
1168.527
1166.57
1164.462
1162.18
1160.43
1159.287
1157.431
1184.311
1183.389
1182.411
1181.376
1180.283
1179.124
1177.885
1176.569
1175.168
1173.677
1172.087
1170.388
1168.569
1166.615
1164.509
1162.841
1161.823
1160.88
1159.793
1185.181
1184.314
1183.396
1182.424
1181.397
1180.306
1179.142
1177.905
1176.592
1175.195
1173.707
1172.12
1170.425
1168.608
1166.656
1165.074
1164.063
1163.197
1162.492
1161.918
1185.996
1185.184
1184.321
1183.408
1182.442
1181.417
1180.322
1179.16
1177.926
1176.615
1175.221
1173.736
1172.153
1170.46
1168.646
1167.151
1166.146
1165.273
1164.58
1164.102
1163.027
1159.231
1156.912
1155.04
1161.629
1159.229
1156.872
1154.858
1163.948
1161.633
1159.225
1156.814
1154.601
1166.132
1163.953
1161.64
1159.218
1156.739
1154.31
1168.167
1166.136
1163.963
1161.649
1159.209
1156.66
1153.991
1170.061
1168.171
1166.144
1163.972
1161.648
1171.823
1170.063
1168.177
1166.151
1163.969
1173.466
1171.825
1170.068
1168.181
1166.148
1175.001
1173.468
1171.829
1170.072
1168.18
1176.438
1175.003
1173.472
1171.833
1170.072
1177.784
1176.44
1175.007
1173.477
1171.835
1179.048
1177.786
1176.444
1175.013
1173.481
1180.234
1179.05
1177.792
1176.452
1175.02
1181.35
1180.237
1179.056
1177.801
1176.463
1140.655
1182.398
1181.353
1180.244
1179.067
1177.816
1159.171
1149.997
1183.384
1182.402
1181.36
1180.256
1179.089
1177.862
1176.544
1175.141
1173.647
1172.053
1170.35
1168.528
1166.573
1164.469
1162.198
1160.693
1159.416
1155.931
1184.31
1183.388
1182.409
1181.373
1180.279
1179.121
1177.883
1176.567
1175.168
1173.677
1172.087
1170.39
1168.573
1166.623
1164.522
1162.909
1161.943
1160.883
1159.081
1185.18
1184.314
1183.395
1182.422
1181.394
1180.305
1179.141
1177.905
1176.591
1175.194
1173.707
1172.121
1170.427
1168.613
1166.664
1165.101
1164.119
1163.257
1162.477
1161.553
1185.996
1185.184
1184.321
1183.407
1182.442
1181.416
1180.322
1179.16
1177.926
1176.615
1175.221
1173.737
1172.154
1170.462
1168.649
1167.161
1166.169
1165.303
1164.607
1164.093
1162.872
1186.761
1185.999
1185.19
1184.332
1183.425
1182.461
1181.431
1180.339
1179.179
1177.948
1176.639
1175.248
1173.766
1172.186
1170.496
1169.087
1168.104
1167.225
1166.499
1165.98
1164.949
1163.129
1161.63
1159.23
1156.874
1154.866
1163.95
1161.635
1159.228
1156.819
1154.631
1166.133
1163.956
1161.644
1159.225
1156.749
1154.387
1168.169
1166.139
1163.968
1161.658
1159.223
1156.679
1154.14
1170.063
1168.173
1166.149
1163.983
1161.674
1159.229
1156.607
1153.8
1171.825
1170.066
1168.181
1166.16
1163.989
1173.468
1171.827
1170.071
1168.188
1166.161
1175.002
1173.469
1171.831
1170.076
1168.187
1176.438
1175.004
1173.473
1171.835
1170.075
1177.784
1176.44
1175.007
1173.477
1171.835
1179.047
1177.786
1176.443
1175.011
1173.478
1180.234
1179.049
1177.79
1176.449
1175.015
1181.349
1180.236
1179.054
1177.797
1176.456
1134.988
1182.397
1181.352
1180.242
1179.063
1177.807
1158.34
1144.385
1183.383
1182.401
1181.358
1180.252
1179.077
1163.242
1160.118
1152.342
1184.31
1183.387
1182.407
1181.37
1180.272
1179.119
1177.882
1176.566
1175.166
1173.676
1172.087
1170.391
1168.576
1166.631
1164.541
1163.203
1162.357
1160.97
1157.626
1185.18
1184.313
1183.394
1182.42
1181.391
1180.302
1179.139
1177.904
1176.59
1175.194
1173.707
1172.123
1170.431
1168.62
1166.676
1165.17
1164.266
1163.408
1162.465
1160.842
1185.996
1185.183
1184.32
1183.406
1182.439
1181.415
1180.321
1179.159
1177.925
1176.615
1175.222
1173.738
1172.156
1170.467
1168.656
1167.187
1166.227
1165.382
1164.675
1164.072
1162.51
1186.761
1185.999
1185.19
1184.332
1183.424
1182.46
1181.431
1180.338
1179.179
1177.948
1176.64
1175.249
1173.768
1172.188
1170.499
1169.097
1168.126
1167.257
1166.536
1166.009
1164.939
1162.974
1187.476
1186.764
1186.005
1185.201
1184.348
1183.442
1182.474
1181.447
1180.356
1179.199
1177.97
1176.664
1175.276
1173.796
1172.218
1170.889
1169.931
1169.053
1168.298
1167.719
1166.717
1165.04
1163.232
1163.95
1161.636
1159.229
1156.822
1154.647
1166.135
1163.958
1161.647
1159.23
1156.757
1154.44
1168.171
1166.141
1163.972
1161.665
1159.233
1156.698
1154.246
1170.064
1168.176
1166.154
1163.992
1161.69
1159.24
1156.64
1153.987
1171.826
1170.068
1168.186
1166.17
1164.016
1161.727
1159.239
1156.56
1153.651
1173.469
1171.829
1170.076
1168.197
1166.179
1175.003
1173.471
1171.835
1170.082
1168.199
1176.439
1175.005
1173.475
1171.839
1170.082
1177.784
1176.44
1175.008
1173.478
1171.838
1179.047
1177.786
1176.443
1175.011
1173.478
1180.233
1179.049
1177.789
1176.447
1175.013
1181.348
1180.235
1179.053
1177.794
1176.451
1131.18
1182.397
1181.351
1180.24
1179.059
1177.8
1156.945
1139.684
1183.382
1182.4
1181.356
1180.248
1179.068
1163.91
1159.54
1147.942
1184.309
1183.385
1182.405
1181.365
1180.261
1165.912
1163.986
1161.278
1154.801
1185.179
1184.312
1183.392
1182.416
1181.385
1180.3
1179.138
1177.902
1176.589
1175.193
1173.707
1172.124
1170.434
1168.628
1166.695
1165.456
1164.739
1163.823
1162.489
1159.531
1185.995
1185.182
1184.319
1183.403
1182.436
1181.413
1180.319
1179.158
1177.925
1176.615
1175.222
1173.739
1172.16
1170.473
1168.668
1167.252
1166.375
1165.571
1164.83
1164.041
1161.82
1186.76
1185.998
1185.189
1184.33
1183.422
1182.459
1181.43
1180.337
1179.178
1177.947
1176.64
1175.25
1173.77
1172.192
1170.505
1169.121
1168.182
1167.339
1166.628
1166.079
1164.916
1162.613
1187.476
1186.763
1186.005
1185.2
1184.348
1183.441
1182.474
1181.446
1180.356
1179.199
1177.97
1176.665
1175.277
1173.798
1172.221
1170.898
1169.951
1169.084
1168.337
1167.76
1166.747
1165.03
1163.077
1188.144
1187.479
1186.769
1186.015
1185.216
1184.365
1183.455
1182.489
1181.463
1180.375
1179.219
1177.993
1176.689
1175.303
1173.825
1172.571
1171.641
1170.771
1169.997
1169.365
1168.36
1166.796
1165.13
1163.335
1166.135
1163.959
1161.649
1159.232
1156.761
1154.466
1168.172
1166.143
1163.975
1161.67
1159.239
1156.711
1154.316
1170.066
1168.178
1166.158
1163.999
1161.7
1159.25
1156.666
1154.119
1171.828
1170.071
1168.19
1166.179
1164.031
1161.735
1159.253
1156.606
1153.863
1173.47
1171.832
1170.08
1168.206
1166.204
1164.077
1161.759
1159.25
1156.527
1153.549
1175.004
1173.473
1171.838
1170.09
1168.215
1176.44
1175.006
1173.478
1171.844
1170.092
1177.785
1176.441
1175.01
1173.482
1171.844
1179.048
1177.786
1176.444
1175.013
1173.481
1180.233
1179.049
1177.789
1176.447
1175.013
1181.348
1180.235
1179.052
1177.793
1176.449
1129.276
1182.396
1181.35
1180.239
1179.056
1177.796
1155.696
1136.444
1183.382
1182.399
1181.354
1180.244
1179.062
1163.899
1158.481
1144.115
1184.308
1183.384
1182.403
1181.361
1180.253
1167.015
1164.62
1160.831
1151.386
1185.178
1184.311
1183.39
1182.412
1181.374
1168.034
1166.536
1164.891
1162.565
1157.341
1185.995
1185.181
1184.317
1183.4
1182.43
1181.411
1180.318
1179.157
1177.924
1176.614
1175.221
1173.74
1172.163
1170.481
1168.685
1167.517
1166.838
1166.06
1165.183
1164.001
1160.607
1186.76
1185.998
1185.188
1184.328
1183.419
1182.457
1181.428
1180.336
1179.177
1177.947
1176.64
1175.251
1173.773
1172.198
1170.516
1169.181
1168.322
1167.529
1166.826
1166.22
1164.875
1161.926
1187.475
1186.763
1186.004
1185.199
1184.346
1183.44
1182.473
1181.446
1180.355
1179.198
1177.97
1176.666
1175.279
1173.802
1172.227
1170.92
1170.004
1169.163
1168.432
1167.855
1166.815
1165.007
1162.716
1188.144
1187.478
1186.769
1186.015
1185.215
1184.364
1183.454
1182.488
1181.463
1180.375
1179.22
1177.993
1176.69
1175.305
1173.828
1172.579
1171.66
1170.801
1170.035
1169.407
1168.401
1166.826
1165.121
1163.18
1188.766
1188.146
1187.484
1186.779
1186.03
1185.231
1184.377
1183.468
1182.504
1181.48
1180.394
1179.241
1178.016
1176.714
1175.329
1174.144
1173.246
1172.39
1171.607
1170.935
1169.924
1168.429
1166.875
1165.221
1163.438
1168.172
1166.144
1163.976
1161.672
1159.243
1156.717
1154.35
1170.067
1168.18
1166.16
1164.003
1161.706
1159.257
1156.683
1154.203
1171.829
1170.073
1168.194
1166.185
1164.041
1161.742
1159.265
1156.64
1154.013
1173.472
1171.834
1170.084
1168.214
1166.218
1164.083
1161.766
1159.27
1156.584
1153.775
1175.006
1173.475
1171.842
1170.098
1168.238
1166.264
1164.115
1161.792
1159.269
1156.516
1153.494
1176.441
1175.008
1173.481
1171.851
1170.107
1177.786
1176.443
1175.013
1173.487
1171.853
1179.048
1177.787
1176.446
1175.016
1173.487
1180.234
1179.049
1177.79
1176.449
1175.015
1181.348
1180.235
1179.052
1177.793
1176.449
1129.276
1182.396
1181.35
1180.238
1179.055
1177.794
1154.98
1134.805
1183.381
1182.398
1181.353
1180.242
1179.058
1163.683
1157.502
1141.415
1184.307
1183.383
1182.402
1181.358
1180.247
1167.476
1164.703
1160.024
1148.337
1185.177
1184.31
1183.388
1182.409
1181.367
1169.217
1167.516
1165.421
1162.193
1154.752
1185.994
1185.18
1184.315
1183.396
1182.42
1169.884
1168.572
1167.289
1165.882
1163.929
1158.71
1186.759
1185.997
1185.186
1184.325
1183.413
1182.455
1181.427
1180.335
1179.176
1177.946
1176.64
1175.252
1173.776
1172.205
1170.532
1169.424
1168.754
1168.014
1167.261
1166.488
1164.804
1160.723
1187.475
1186.762
1186.003
1185.196
1184.343
1183.438
1182.471
1181.445
1180.355
1179.198
1177.97
1176.667
1175.282
1173.808
1172.237
1170.976
1170.134
1169.345
1168.636
1168.043
1166.943
1164.964
1162.032
1188.143
1187.478
1186.768
1186.013
1185.213
1184.363
1183.453
1182.488
1181.462
1180.374
1179.22
1177.994
1176.692
1175.308
1173.834
1172.6
1171.709
1170.875
1170.127
1169.508
1168.496
1166.894
1165.098
1162.82
1188.766
1188.146
1187.484
1186.778
1186.029
1185.231
1184.376
1183.468
1182.504
1181.48
1180.394
1179.241
1178.017
1176.716
1175.332
1174.152
1173.263
1172.417
1171.642
1170.976
1169.968
1168.47
1166.905
1165.212
1163.284
1189.343
1188.768
1188.152
1187.493
1186.793
1186.045
1185.243
1184.39
1183.483
1182.52
1181.498
1180.414
1179.262
1178.039
1176.739
1175.619
1174.753
1173.917
1173.134
1172.436
1171.426
1169.984
1168.497
1166.954
1165.312
1163.535
1170.067
1168.181
1166.162
1164.006
1161.709
1159.261
1156.692
1154.244
1171.83
1170.074
1168.196
1166.189
1164.047
1161.747
1159.273
1156.663
1154.108
1173.473
1171.835
1170.087
1168.22
1166.227
1164.089
1161.773
1159.284
1156.625
1153.935
1175.007
1173.477
1171.846
1170.105
1168.251
1166.269
1164.12
1161.801
1159.293
1156.579
1153.723
1176.442
1175.01
1173.485
1171.859
1170.127
1168.294
1166.302
1164.154
1161.829
1159.299
1156.529
1153.485
1177.787
1176.444
1175.016
1173.493
1171.867
1179.049
1177.789
1176.448
1175.021
1173.495
1180.234
1179.05
1177.792
1176.452
1175.02
1181.348
1180.235
1179.053
1177.794
1176.451
1131.18
1182.396
1181.35
1180.238
1179.055
1177.794
1154.98
1134.805
1183.381
1182.397
1181.352
1180.241
1179.056
1163.516
1156.934
1140.034
1184.307
1183.383
1182.401
1181.356
1180.244
1167.643
1164.586
1159.265
1146.144
1185.177
1184.309
1183.386
1182.406
1181.361
1169.816
1167.98
1165.544
1161.576
1152.4
1185.993
1185.179
1184.313
1183.393
1182.413
1171.025
1169.61
1168.099
1166.288
1163.604
1156.502
1186.758
1185.996
1185.184
1184.321
1183.404
1171.57
1170.356
1169.22
1168.109
1166.92
1164.674
1158.857
1187.474
1186.761
1186.001
1185.194
1184.337
1183.437
1182.47
1181.444
1180.354
1179.197
1177.97
1176.668
1175.284
1173.814
1172.251
1171.197
1170.53
1169.8
1169.074
1168.395
1167.163
1164.89
1160.84
1188.143
1187.477
1186.767
1186.011
1185.21
1184.361
1183.452
1182.487
1181.462
1180.374
1179.22
1177.995
1176.695
1175.313
1173.843
1172.651
1171.829
1171.044
1170.322
1169.704
1168.672
1167.02
1165.053
1162.139
1188.765
1188.146
1187.483
1186.777
1186.027
1185.23
1184.375
1183.468
1182.503
1181.48
1180.394
1179.242
1178.019
1176.719
1175.337
1174.171
1173.309
1172.487
1171.73
1171.074
1170.068
1168.564
1166.973
1165.188
1162.925
1189.343
1188.768
1188.151
1187.493
1186.792
1186.044
1185.242
1184.389
1183.483
1182.52
1181.498
1180.414
1179.263
1178.041
1176.741
1175.626
1174.77
1173.943
1173.168
1172.476
1171.469
1170.028
1168.539
1166.984
1165.302
1163.381
1189.878
1189.346
1188.774
1188.161
1187.507
1186.807
1186.056
1185.255
1184.403
1183.498
1182.537
1181.517
1180.434
1179.283
1178.061
1177.003
1176.172
1175.359
1174.584
1173.873
1172.871
1171.479
1170.044
1168.566
1167.032
1165.397
1163.61
1171.831
1170.075
1168.198
1166.191
1164.05
1161.75
1159.277
1156.674
1154.155
1173.474
1171.837
1170.089
1168.223
1166.232
1164.093
1161.778
1159.293
1156.651
1154.038
1175.008
1173.479
1171.848
1170.11
1168.259
1166.274
1164.124
1161.808
1159.309
1156.623
1153.887
1176.443
1175.012
1173.488
1171.865
1170.139
1168.298
1166.305
1164.159
1161.84
1159.324
1156.593
1153.709
1177.788
1176.446
1175.019
1173.5
1171.885
1170.178
1168.329
1166.34
1164.195
1161.872
1159.341
1156.567
1153.517
1179.05
1177.79
1176.451
1175.026
1173.507
1180.235
1179.051
1177.794
1176.456
1175.028
1181.349
1180.236
1179.054
1177.797
1176.456
1134.988
1182.396
1181.35
1180.239
1179.056
1177.796
1155.696
1136.444
1183.381
1182.397
1181.352
1180.241
1179.056
1163.516
1156.934
1140.034
1184.307
1183.382
1182.4
1181.355
1180.242
1167.688
1164.477
1158.821
1145.011
1185.176
1184.308
1183.385
1182.404
1181.358
1170.111
1168.175
1165.493
1160.996
1150.679
1185.993
1185.178
1184.312
1183.39
1182.408
1171.64
1170.182
1168.53
1166.417
1163.135
1154.484
1186.758
1185.995
1185.183
1184.318
1183.397
1172.628
1171.354
1170.078
1168.744
1167.203
1164.365
1156.689
1187.474
1186.76
1186
1185.19
1184.329
1173.141
1171.99
1170.924
1169.922
1168.963
1167.481
1164.754
1159.004
1188.142
1187.476
1186.766
1186.009
1185.205
1184.359
1183.451
1182.486
1181.461
1180.373
1179.22
1177.996
1176.697
1175.319
1173.856
1172.852
1172.191
1171.464
1170.739
1170.067
1168.976
1167.235
1164.976
1160.959
1188.765
1188.145
1187.482
1186.775
1186.025
1185.228
1184.374
1183.467
1182.503
1181.48
1180.394
1179.243
1178.021
1176.724
1175.346
1174.219
1173.42
1172.643
1171.913
1171.264
1170.254
1168.739
1167.097
1165.143
1162.247
1189.343
1188.768
1188.151
1187.492
1186.791
1186.043
1185.242
1184.389
1183.482
1182.52
1181.499
1180.415
1179.265
1178.044
1176.746
1175.644
1174.813
1174.007
1173.249
1172.569
1171.567
1170.128
1168.633
1167.051
1165.279
1163.023
1189.878
1189.346
1188.773
1188.16
1187.506
1186.807
1186.055
1185.255
1184.403
1183.498
1182.537
1181.517
1180.434
1179.285
1178.063
1177.01
1176.188
1175.384
1174.616
1173.91
1172.912
1171.522
1170.088
1168.607
1167.062
1165.388
1163.457
1190.37
1189.88
1189.351
1188.782
1188.174
1187.521
1186.818
1186.067
1185.268
1184.418
1183.514
1182.555
1181.536
1180.453
1179.304
1178.305
1177.509
1176.723
1175.962
1175.246
1174.26
1172.917
1171.532
1170.104
1168.634
1167.106
1165.463
1163.67
1173.474
1171.837
1170.09
1168.225
1166.235
1164.095
1161.78
1159.298
1156.664
1154.088
1175.009
1173.48
1171.85
1170.114
1168.264
1166.278
1164.128
1161.813
1159.32
1156.652
1153.993
1176.444
1175.013
1173.491
1171.87
1170.146
1168.303
1166.309
1164.163
1161.847
1159.342
1156.638
1153.87
1177.789
1176.448
1175.022
1173.506
1171.896
1170.183
1168.332
1166.343
1164.2
1161.883
1159.366
1156.626
1153.726
1179.051
1177.792
1176.454
1175.033
1173.524
1171.932
1170.21
1168.364
1166.38
1164.24
1161.922
1159.396
1156.629
1153.579
1180.236
1179.053
1177.796
1176.461
1175.039
1181.35
1180.237
1179.056
1177.801
1176.463
1140.655
1182.397
1181.351
1180.24
1179.059
1177.8
1156.945
1139.684
1183.381
1182.398
1181.353
1180.242
1179.058
1163.683
1157.502
1141.415
1184.307
1183.382
1182.4
1181.355
1180.242
1167.688
1164.477
1158.821
1145.011
1185.176
1184.308
1183.385
1182.403
1181.356
1170.232
1168.241
1165.427
1160.655
1149.779
1185.992
1185.178
1184.311
1183.388
1182.405
1171.966
1170.479
1168.73
1166.407
1162.703
1152.994
1186.757
1185.994
1185.181
1184.315
1183.393
1173.215
1171.933
1170.593
1169.117
1167.314
1163.96
1154.706
1187.473
1186.759
1185.998
1185.187
1184.322
1174.111
1172.916
1171.751
1170.601
1169.431
1167.701
1164.447
1156.875
1188.142
1187.475
1186.764
1186.005
1185.197
1174.618
1173.517
1172.494
1171.539
1170.652
1169.422
1167.541
1164.835
1159.152
1188.764
1188.144
1187.481
1186.772
1186.02
1185.226
1184.373
1183.466
1182.502
1181.479
1180.394
1179.243
1178.023
1176.73
1175.358
1174.403
1173.75
1173.029
1172.299
1171.614
1170.573
1169.038
1167.308
1165.063
1161.078
1189.342
1188.767
1188.15
1187.49
1186.788
1186.042
1185.241
1184.388
1183.482
1182.52
1181.499
1180.416
1179.267
1178.048
1176.754
1175.688
1174.915
1174.153
1173.42
1172.749
1171.748
1170.312
1168.806
1167.174
1165.233
1162.349
1189.877
1189.345
1188.772
1188.159
1187.505
1186.806
1186.055
1185.254
1184.403
1183.498
1182.538
1181.518
1180.436
1179.288
1178.068
1177.027
1176.228
1175.444
1174.692
1173.998
1173.005
1171.619
1170.187
1168.701
1167.13
1165.364
1163.099
1190.37
1189.88
1189.351
1188.781