/*--------------------------------*- C++ -*----------------------------------*\
| =========                 |                                                 |
| \\      /  F ield         | OpenFOAM: The Open Source CFD Toolbox           |
|  \\    /   O peration     | Version:  2306                                  |
|   \\  /    A nd           | Website:  www.openfoam.com                      |
|    \\/     M anipulation  |                                                 |
\*---------------------------------------------------------------------------*/
FoamFile
{
    version     2.0;
    format      ascii;
    arch        "LSB;label=32;scalar=64";
    class       volScalarField;
    location    "0.9/phiI";
    object      J;
}
// * * * * * * * * * * * * * * * * * * * * * * * * * * * * * * * * * * * * * //

dimensions      [0 -3 0 0 0 1 0];

internalField   nonuniform List<scalar> 
12000
(
-7.999447e+08
-8.071547e+08
-7.329432e+08
-8.056449e+08
-8.217048e+08
-7.376041e+08
-8.12968e+08
-6.768196e+08
-7.37941e+08
-8.208358e+08
-8.434806e+08
-7.467719e+08
-8.277441e+08
-6.803813e+08
-7.426782e+08
-8.284326e+08
-6.319985e+08
-6.812929e+08
-7.511282e+08
-8.459685e+08
-8.714948e+08
-7.598039e+08
-8.49846e+08
-6.873114e+08
-7.519982e+08
-8.43763e+08
-6.349223e+08
-6.849131e+08
-7.560421e+08
-8.540126e+08
-5.948204e+08
-6.36079e+08
-6.92951e+08
-7.728542e+08
-8.819609e+08
-9.019017e+08
-7.751626e+08
-8.782296e+08
-6.969413e+08
-7.652547e+08
-8.666941e+08
-6.40577e+08
-6.919595e+08
-7.657145e+08
-8.702521e+08
-5.973132e+08
-6.390504e+08
-6.967043e+08
-7.780527e+08
-8.906504e+08
-5.629094e+08
-5.985866e+08
-6.465916e+08
-7.12072e+08
-8.038369e+08
0
-9.261971e+08
-7.897105e+08
-9.08914e+08
-7.078214e+08
-7.808972e+08
-8.961164e+08
-6.483373e+08
-7.017612e+08
-7.794875e+08
-8.945563e+08
-6.021167e+08
-6.447996e+08
-7.04014e+08
-7.882921e+08
-9.082048e+08
-5.650846e+08
-6.011195e+08
-6.496703e+08
-7.160377e+08
-8.094415e+08
0
-5.349607e+08
-5.66411e+08
-6.081916e+08
-6.637651e+08
-7.39232e+08
0
0
-9.426405e+08
-7.997146e+08
-9.333484e+08
-7.173384e+08
-7.957467e+08
-9.278322e+08
-6.568987e+08
-7.128635e+08
-7.957715e+08
-9.257404e+08
-6.086599e+08
-6.526992e+08
-7.141981e+08
-8.028949e+08
-9.345057e+08
-5.692658e+08
-6.060024e+08
-6.556311e+08
-7.237676e+08
-8.204903e+08
0
-5.368908e+08
-5.686208e+08
-6.108145e+08
-6.670144e+08
-7.434989e+08
0
0
-5.100955e+08
-5.382338e+08
-5.752631e+08
-6.238282e+08
-6.880776e+08
0
0
0
-9.524465e+08
-8.056385e+08
-9.498226e+08
-7.230179e+08
-8.059651e+08
-9.530168e+08
-6.640326e+08
-7.226334e+08
-8.11278e+08
-9.592989e+08
-6.157769e+08
-6.614418e+08
-7.257722e+08
-8.20205e+08
-9.682815e+08
-5.749342e+08
-6.126624e+08
-6.638361e+08
-7.345584e+08
-8.362773e+08
0
-5.40594e+08
-5.728702e+08
-6.158743e+08
-6.73311e+08
-7.518237e+08
0
0
-5.118286e+08
-5.401941e+08
-5.775501e+08
-6.265936e+08
-6.915675e+08
0
0
0
-4.8774e+08
-5.131676e+08
-5.464455e+08
-5.896309e+08
-6.459023e+08
0
0
0
0
-9.569825e+08
-8.088363e+08
-9.596137e+08
-7.257508e+08
-8.119961e+08
-9.69941e+08
-6.678507e+08
-7.285065e+08
-8.219617e+08
-9.858887e+08
-6.215318e+08
-6.687866e+08
-7.360289e+08
-8.36752e+08
-1.004612e+09
-5.810442e+08
-6.19931e+08
-6.729538e+08
-7.468711e+08
-8.550499e+08
0
-5.455984e+08
-5.786385e+08
-6.227885e+08
-6.819975e+08
-7.634723e+08
0
0
-5.151491e+08
-5.43957e+08
-5.819509e+08
-6.31933e+08
-6.983372e+08
0
0
0
-4.893111e+08
-5.149275e+08
-5.484732e+08
-5.920398e+08
-6.488679e+08
0
0
0
0
-4.674621e+08
-4.906331e+08
-5.208237e+08
-5.597388e+08
-6.098644e+08
0
0
0
0
0
-9.569825e+08
-8.10231e+08
-9.641325e+08
-7.26885e+08
-8.152338e+08
-9.799704e+08
-6.693161e+08
-7.313493e+08
-8.282533e+08
-1.00371e+09
-6.243755e+08
-6.727714e+08
-7.422456e+08
-8.481718e+08
-1.033357e+09
-5.8589e+08
-6.258637e+08
-6.806862e+08
-7.57866e+08
-8.730734e+08
0
-5.509607e+08
-5.848777e+08
-6.303679e+08
-6.916964e+08
-7.768228e+08
0
0
-5.19626e+08
-5.490483e+08
-5.879362e+08
-6.392467e+08
-7.077007e+08
0
0
0
-4.923173e+08
-5.183006e+08
-5.52368e+08
-5.966795e+08
-6.546001e+08
0
0
0
0
-4.68897e+08
-4.922282e+08
-5.226431e+08
-5.618727e+08
-6.124441e+08
0
0
0
0
0
-4.489477e+08
-4.701945e+08
-4.978009e+08
-5.331887e+08
-5.784193e+08
0
0
0
0
0
9.611219e+08
-9.524465e+08
-8.10231e+08
-9.641325e+08
-7.272689e+08
-8.166388e+08
-9.845903e+08
-6.696738e+08
-7.325347e+08
-8.316164e+08
-1.014247e+09
-6.25246e+08
-6.743355e+08
-7.452793e+08
-8.548883e+08
-1.052585e+09
-5.881466e+08
-6.288497e+08
-6.849445e+08
-7.645881e+08
-8.85537e+08
0
-5.551587e+08
-5.898748e+08
-6.366213e+08
-7.000053e+08
-7.888394e+08
0
0
-5.244028e+08
-5.545223e+08
-5.944397e+08
-6.473054e+08
-7.182099e+08
0
0
0
-4.963637e+08
-5.22854e+08
-5.576479e+08
-6.030049e+08
-6.62473e+08
0
0
0
0
-4.716394e+08
-4.952814e+08
-5.261326e+08
-5.659752e+08
-6.174184e+08
0
0
0
0
0
-4.502662e+08
-4.716508e+08
-4.994491e+08
-5.351018e+08
-5.807017e+08
0
0
0
0
0
9.690663e+08
-4.319488e+08
-4.515345e+08
-4.769285e+08
-5.093535e+08
-5.505323e+08
0
0
0
0
0
8.775492e+08
9.195582e+08
-9.426405e+08
-8.088363e+08
-9.596137e+08
-7.272689e+08
-8.166388e+08
-9.845903e+08
-6.696885e+08
-7.329376e+08
-8.330699e+08
-1.019093e+09
-6.252733e+08
-6.747425e+08
-7.465558e+08
-8.584677e+08
-1.063935e+09
-5.886997e+08
-6.298061e+08
-6.866603e+08
-7.678999e+08
-8.928639e+08
0
-5.57028e+08
-5.922537e+08
-6.398335e+08
-7.046521e+08
-7.962494e+08
0
0
-5.281079e+08
-5.588508e+08
-5.997087e+08
-6.540318e+08
-7.273064e+08
0
0
0
-5.006677e+08
-5.277285e+08
-5.633508e+08
-6.09915e+08
-6.71197e+08
0
0
0
0
-4.753257e+08
-4.993957e+08
-5.30852e+08
-5.715504e+08
-6.242188e+08
0
0
0
0
0
-4.527836e+08
-4.744355e+08
-5.026061e+08
-5.387745e+08
-5.850946e+08
0
0
0
0
0
9.850756e+08
-4.331667e+08
-4.528725e+08
-4.784327e+08
-5.110852e+08
-5.525762e+08
0
0
0
0
0
8.826111e+08
9.269276e+08
-4.162713e+08
-4.344031e+08
-4.578802e+08
-4.877621e+08
-5.255306e+08
0
0
0
0
0
8.057637e+08
8.41792e+08
8.902002e+08
-9.261971e+08
-8.056385e+08
-9.498226e+08
-7.26885e+08
-8.152338e+08
-9.799704e+08
-6.696885e+08
-7.329376e+08
-8.330699e+08
-1.019093e+09
-6.251408e+08
-6.747767e+08
-7.469937e+08
-8.6001e+08
-1.069149e+09
-5.885733e+08
-6.298772e+08
-6.871398e+08
-7.693101e+08
-8.967611e+08
0
-5.573964e+08
-5.928811e+08
-6.409152e+08
-7.06577e+08
-7.999372e+08
0
0
-5.297e+08
-5.60826e+08
-6.022791e+08
-6.5756e+08
-7.324706e+08
0
0
0
-5.039832e+08
-5.315474e+08
-5.679139e+08
-6.155835e+08
-6.785653e+08
0
0
0
0
-4.792374e+08
-5.037862e+08
-5.359275e+08
-5.77605e+08
-6.316915e+08
0
0
0
0
0
-4.561638e+08
-4.781826e+08
-5.068682e+08
-5.437536e+08
-5.910812e+08
0
0
0
0
0
1.009204e+09
-4.354896e+08
-4.554281e+08
-4.813106e+08
-5.144052e+08
-5.565042e+08
0
0
0
0
0
8.925403e+08
9.417678e+08
-4.174014e+08
-4.356388e+08
-4.592614e+08
-4.893412e+08
-5.273786e+08
0
0
0
0
0
8.095931e+08
8.465117e+08
8.971867e+08
-4.017556e+08
-4.186046e+08
-4.403987e+08
-4.68072e+08
-5.029095e+08
0
0
0
0
0
7.478479e+08
7.747205e+08
8.163291e+08
8.72137e+08
-9.019016e+08
-7.997147e+08
-9.333484e+08
-7.257508e+08
-8.119961e+08
-9.69941e+08
-6.696738e+08
-7.325347e+08
-8.316164e+08
-1.014247e+09
-6.251408e+08
-6.747767e+08
-7.469937e+08
-8.6001e+08
-1.069149e+09
-5.883798e+08
-6.297625e+08
-6.872021e+08
-7.698001e+08
-8.984369e+08
0
-5.571955e+08
-5.927929e+08
-6.410462e+08
-7.07154e+08
-8.015283e+08
0
0
-5.299508e+08
-5.61259e+08
-6.030125e+08
-6.588097e+08
-7.346683e+08
0
0
0
-5.053667e+08
-5.332321e+08
-5.700543e+08
-6.184195e+08
-6.825095e+08
0
0
0
0
-4.822342e+08
-5.072016e+08
-5.399515e+08
-5.825127e+08
-6.379003e+08
0
0
0
0
0
-4.59744e+08
-4.821713e+08
-5.114368e+08
-5.491379e+08
-5.976218e+08
0
0
0
0
0
1.040596e+09
-4.386061e+08
-4.588632e+08
-4.851903e+08
-5.188984e+08
-5.618448e+08
0
0
0
0
0
9.068275e+08
9.641137e+08
-4.195546e+08
-4.379964e+08
-4.619014e+08
-4.923656e+08
-5.309257e+08
0
0
0
0
0
8.170125e+08
8.557645e+08
9.112524e+08
-4.028085e+08
-4.197509e+08
-4.416737e+08
-4.695212e+08
-5.045931e+08
0
0
0
0
0
7.509693e+08
7.783066e+08
8.208153e+08
8.789111e+08
-3.882718e+08
-4.039776e+08
-4.242826e+08
-4.500137e+08
-4.823029e+08
0
0
0
0
0
6.995793e+08
7.204238e+08
7.52483e+08
8.004481e+08
8.643316e+08
-8.714948e+08
-7.897105e+08
-9.08914e+08
-7.230179e+08
-8.059651e+08
-9.530168e+08
-6.693161e+08
-7.313493e+08
-8.282533e+08
-1.00371e+09
-6.252733e+08
-6.747425e+08
-7.465558e+08
-8.584677e+08
-1.063935e+09
-5.883798e+08
-6.297625e+08
-6.872021e+08
-7.698001e+08
-8.984369e+08
0
-5.569781e+08
-5.926151e+08
-6.409546e+08
-7.072532e+08
-8.020891e+08
0
0
-5.297127e+08
-5.610915e+08
-6.029749e+08
-6.590178e+08
-7.353706e+08
0
0
0
-5.055384e+08
-5.335395e+08
-5.705787e+08
-6.192931e+08
-6.839743e+08
0
0
0
0
-4.834539e+08
-5.086669e+08
-5.417808e+08
-5.848815e+08
-6.410837e+08
0
0
0
0
0
-4.624747e+08
-4.852569e+08
-5.150338e+08
-5.534635e+08
-6.029945e+08
0
0
0
0
0
1.074403e+09
-4.419021e+08
-4.625125e+08
-4.893386e+08
-5.237411e+08
-5.67655e+08
0
0
0
0
0
9.241324e+08
9.931556e+08
-4.224416e+08
-4.411627e+08
-4.654563e+08
-4.964526e+08
-5.357398e+08
0
0
0
0
0
8.274623e+08
8.690703e+08
9.324293e+08
-4.048125e+08
-4.219359e+08
-4.441082e+08
-4.722935e+08
-5.07821e+08
0
0
0
0
0
7.569722e+08
7.852512e+08
8.296081e+08
8.92553e+08
-3.892561e+08
-4.050455e+08
-4.25465e+08
-4.513505e+08
-4.838464e+08
0
0
0
0
0
7.02225e+08
7.233573e+08
7.559006e+08
8.047981e+08
8.710411e+08
-3.757094e+08
-3.903913e+08
-4.093665e+08
-4.333761e+08
-4.634227e+08
0
0
0
0
0
6.580543e+08
6.750413e+08
7.006973e+08
7.384841e+08
7.933394e+08
-8.434806e+08
-7.751626e+08
-8.782296e+08
-7.173384e+08
-7.957467e+08
-9.278322e+08
-6.678507e+08
-7.285065e+08
-8.219617e+08
-9.858887e+08
-6.25246e+08
-6.743355e+08
-7.452793e+08
-8.548883e+08
-1.052585e+09
-5.885733e+08
-6.298772e+08
-6.871398e+08
-7.693101e+08
-8.967611e+08
0
-5.569781e+08
-5.926151e+08
-6.409546e+08
-7.072532e+08
-8.020891e+08
0
0
-5.294878e+08
-5.608877e+08
-6.028166e+08
-6.589551e+08
-7.355165e+08
0
0
0
-5.052824e+08
-5.333307e+08
-5.704546e+08
-6.193193e+08
-6.842785e+08
0
0
0
0
-4.835697e+08
-5.088887e+08
-5.421681e+08
-5.855259e+08
-6.42135e+08
0
0
0
0
0
-4.635622e+08
-4.865494e+08
-5.166269e+08
-5.554922e+08
-6.056609e+08
0
0
0
0
0
1.099769e+09
-4.444071e+08
-4.653225e+08
-4.925861e+08
-5.276051e+08
-5.723871e+08
0
0
0
0
0
9.409663e+08
1.024391e+09
-4.254911e+08
-4.445212e+08
-4.692495e+08
-5.008462e+08
-5.409603e+08
0
0
0
0
0
8.396771e+08
8.851748e+08
9.59957e+08
-4.074976e+08
-4.248682e+08
-4.473834e+08
-4.760357e+08
-5.121956e+08
0
0
0
0
0
7.653171e+08
7.950273e+08
8.4225e+08
9.131061e+08
-3.911274e+08
-4.070786e+08
-4.277202e+08
-4.539053e+08
-4.868026e+08
0
0
0
0
0
7.072882e+08
7.289962e+08
7.625171e+08
8.133246e+08
8.845631e+08
-3.766323e+08
-3.913894e+08
-4.104674e+08
-4.34615e+08
-4.648453e+08
0
0
0
0
0
6.603511e+08
6.775353e+08
7.034994e+08
7.418006e+08
7.976382e+08
-3.639772e+08
-3.777343e+08
-3.955156e+08
-4.179859e+08
-4.460436e+08
0
0
0
0
0
6.215884e+08
6.358999e+08
6.57336e+08
6.882031e+08
7.320849e+08
-8.217048e+08
-7.598039e+08
-8.49846e+08
-7.078214e+08
-7.808972e+08
-8.961164e+08
-6.640326e+08
-7.226334e+08
-8.11278e+08
-9.592989e+08
-6.243755e+08
-6.727714e+08
-7.422456e+08
-8.481718e+08
-1.033357e+09
-5.886997e+08
-6.298061e+08
-6.866603e+08
-7.678999e+08
-8.928639e+08
0
-5.571955e+08
-5.927929e+08
-6.410462e+08
-7.07154e+08
-8.015283e+08
0
0
-5.294878e+08
-5.608877e+08
-6.028166e+08
-6.589551e+08
-7.355165e+08
0
0
0
-5.050579e+08
-5.331178e+08
-5.702676e+08
-6.191845e+08
-6.842507e+08
0
0
0
0
-4.833063e+08
-5.086586e+08
-5.419972e+08
-5.854562e+08
-6.422394e+08
0
0
0
0
0
-4.636375e+08
-4.867099e+08
-5.169194e+08
-5.559841e+08
-6.064566e+08
0
0
0
0
0
1.115635e+09
-4.45386e+08
-4.664754e+08
-4.939927e+08
-5.293747e+08
-5.746754e+08
0
0
0
0
0
9.522537e+08
1.047736e+09
-4.27801e+08
-4.470975e+08
-4.722051e+08
-5.043324e+08
-5.451841e+08
0
0
0
0
0
8.50902e+08
9.008267e+08
9.895756e+08
-4.103304e+08
-4.279744e+08
-4.508723e+08
-4.800502e+08
-5.169273e+08
0
0
0
0
0
7.748535e+08
8.064471e+08
8.575502e+08
9.398615e+08
-3.936331e+08
-4.098053e+08
-4.30752e+08
-4.573507e+08
-4.908044e+08
0
0
0
0
0
7.142639e+08
7.368311e+08
7.718291e+08
8.255869e+08
9.049645e+08
-3.783849e+08
-3.932875e+08
-4.125651e+08
-4.369802e+08
-4.675672e+08
0
0
0
0
0
6.64731e+08
6.823058e+08
7.088842e+08
7.482211e+08
8.060669e+08
-3.648449e+08
-3.7867e+08
-3.965442e+08
-4.191388e+08
-4.473608e+08
0
0
0
0
0
6.236169e+08
6.380706e+08
6.597232e+08
6.909251e+08
7.353595e+08
-3.529961e+08
-3.659144e+08
-3.826155e+08
-4.037023e+08
-4.299808e+08
0
0
0
0
0
5.890499e+08
6.014478e+08
6.198753e+08
6.460738e+08
6.824222e+08
-8.071547e+08
-7.467719e+08
-8.277441e+08
-6.969413e+08
-7.652547e+08
-8.666941e+08
-6.568987e+08
-7.128635e+08
-7.957715e+08
-9.257404e+08
-6.215318e+08
-6.687866e+08
-7.360289e+08
-8.36752e+08
-1.004612e+09
-5.881466e+08
-6.288497e+08
-6.849445e+08
-7.645881e+08
-8.85537e+08
0
-5.573964e+08
-5.928811e+08
-6.409152e+08
-7.06577e+08
-7.999372e+08
0
0
-5.297127e+08
-5.610915e+08
-6.029749e+08
-6.590178e+08
-7.353706e+08
0
0
0
-5.050579e+08
-5.331178e+08
-5.702676e+08
-6.191845e+08
-6.842507e+08
0
0
0
0
-4.830862e+08
-5.084448e+08
-5.417989e+08
-5.852892e+08
-6.421326e+08
0
0
0
0
0
-4.633732e+08
-4.864696e+08
-5.167228e+08
-5.558605e+08
-6.06453e+08
0
0
0
0
0
1.124544e+09
-4.454312e+08
-4.665909e+08
-4.942163e+08
-5.297596e+08
-5.752988e+08
0
0
0
0
0
9.584629e+08
1.062285e+09
-4.286881e+08
-4.481355e+08
-4.734608e+08
-5.058967e+08
-5.47183e+08
0
0
0
0
0
8.578162e+08
9.112904e+08
1.01165e+09
-4.1247e+08
-4.30349e+08
-4.535805e+08
-4.832208e+08
-5.20735e+08
0
0
0
0
0
7.83293e+08
8.169322e+08
8.72419e+08
9.687106e+08
-3.962742e+08
-4.126899e+08
-4.339772e+08
-4.610406e+08
-4.951237e+08
0
0
0
0
0
7.2211e+08
7.457787e+08
7.827047e+08
8.404371e+08
9.315922e+08
-3.807306e+08
-3.958315e+08
-4.15383e+08
-4.401674e+08
-4.712482e+08
0
0
0
0
0
6.707257e+08
6.888749e+08
7.16364e+08
7.572581e+08
8.181966e+08
-3.664909e+08
-3.804474e+08
-3.985018e+08
-4.213374e+08
-4.498786e+08
0
0
0
0
0
6.274753e+08
6.422082e+08
6.64288e+08
6.961554e+08
7.417e+08
-3.538141e+08
-3.66794e+08
-3.835795e+08
-4.047788e+08
-4.312056e+08
0
0
0
0
0
5.908641e+08
6.033694e+08
6.219569e+08
6.483952e+08
6.851095e+08
-3.426995e+08
-3.548518e+08
-3.705717e+08
-3.904058e+08
-4.150843e+08
0
0
0
0
0
5.596858e+08
5.706408e+08
5.868506e+08
6.096494e+08
6.408234e+08
-7.999447e+08
-7.376041e+08
-8.12968e+08
-6.873114e+08
-7.519982e+08
-8.43763e+08
-6.483373e+08
-7.017612e+08
-7.794875e+08
-8.945563e+08
-6.157769e+08
-6.614418e+08
-7.257722e+08
-8.20205e+08
-9.682815e+08
-5.8589e+08
-6.258637e+08
-6.806862e+08
-7.57866e+08
-8.730734e+08
0
-5.57028e+08
-5.922537e+08
-6.398335e+08
-7.046521e+08
-7.962494e+08
0
0
-5.299508e+08
-5.61259e+08
-6.030125e+08
-6.588097e+08
-7.346683e+08
0
0
0
-5.052824e+08
-5.333307e+08
-5.704546e+08
-6.193193e+08
-6.842785e+08
0
0
0
0
-4.830862e+08
-5.084448e+08
-5.417989e+08
-5.852892e+08
-6.421326e+08
0
0
0
0
0
-4.631596e+08
-4.86259e+08
-5.165219e+08
-5.556795e+08
-6.063095e+08
0
0
0
0
0
1.12851e+09
-4.451695e+08
-4.663473e+08
-4.940061e+08
-5.296048e+08
-5.752324e+08
0
0
0
0
0
9.615598e+08
1.070433e+09
-4.287101e+08
-4.482171e+08
-4.736331e+08
-5.062029e+08
-5.47684e+08
0
0
0
0
0
8.611284e+08
9.170308e+08
1.025376e+09
-4.132785e+08
-4.312897e+08
-4.547116e+08
-4.846185e+08
-5.22504e+08
0
0
0
0
0
7.881807e+08
8.233733e+08
8.823318e+08
9.901771e+08
-3.982638e+08
-4.148883e+08
-4.364719e+08
-4.639437e+08
-4.985839e+08
0
0
0
0
0
7.288678e+08
7.536891e+08
7.926858e+08
8.548805e+08
9.604097e+08
-3.83201e+08
-3.985201e+08
-4.183766e+08
-4.435761e+08
-4.752147e+08
0
0
0
0
0
6.773881e+08
6.962584e+08
7.249032e+08
7.678152e+08
8.329052e+08
-3.686928e+08
-3.828284e+08
-4.011299e+08
-4.24298e+08
-4.53281e+08
0
0
0
0
0
6.327292e+08
6.478683e+08
6.70572e+08
7.034206e+08
7.506275e+08
-3.553639e+08
-3.684629e+08
-3.854119e+08
-4.068295e+08
-4.335442e+08
0
0
0
0
0
5.943084e+08
6.070229e+08
6.259234e+08
6.528335e+08
6.902736e+08
-3.434725e+08
-3.556809e+08
-3.714776e+08
-3.91414e+08
-4.162271e+08
0
0
0
0
0
5.613244e+08
5.723631e+08
5.886964e+08
6.116757e+08
6.431157e+08
-3.330287e+08
-3.444794e+08
-3.593023e+08
-3.779974e+08
-4.012271e+08
0
0
0
0
0
5.329434e+08
5.427841e+08
5.57276e+08
5.775124e+08
6.048584e+08
-7.329432e+08
-8.056449e+08
-6.803813e+08
-7.426782e+08
-8.284326e+08
-6.40577e+08
-6.919595e+08
-7.657145e+08
-8.702521e+08
-6.086599e+08
-6.526992e+08
-7.141981e+08
-8.028949e+08
-9.345057e+08
-5.810442e+08
-6.19931e+08
-6.729538e+08
-7.468711e+08
-8.550499e+08
0
-5.551587e+08
-5.898748e+08
-6.366213e+08
-7.000053e+08
-7.888394e+08
0
0
-5.297e+08
-5.60826e+08
-6.022791e+08
-6.5756e+08
-7.324706e+08
0
0
0
-5.055384e+08
-5.335395e+08
-5.705787e+08
-6.192931e+08
-6.839743e+08
0
0
0
0
-4.833063e+08
-5.086586e+08
-5.419972e+08
-5.854562e+08
-6.422394e+08
0
0
0
0
0
-4.631596e+08
-4.86259e+08
-5.165219e+08
-5.556795e+08
-6.063095e+08
0
0
0
0
0
1.12851e+09
-4.449632e+08
-4.661422e+08
-4.93807e+08
-5.294192e+08
-5.750716e+08
0
0
0
0
0
9.628232e+08
1.074054e+09
-4.284529e+08
-4.479741e+08
-4.734165e+08
-5.060299e+08
-5.475796e+08
0
0
0
0
0
8.624898e+08
9.198879e+08
1.033052e+09
-4.132823e+08
-4.313448e+08
-4.548447e+08
-4.848652e+08
-5.229138e+08
0
0
0
0
0
7.902487e+08
8.2645e+08
8.877589e+08
1.003515e+09
-3.990043e+08
-4.157458e+08
-4.374975e+08
-4.652036e+08
-5.001659e+08
0
0
0
0
0
7.326016e+08
7.582574e+08
7.987988e+08
8.64486e+08
9.81845e+08
-3.850574e+08
-4.005635e+08
-4.20685e+08
-4.462485e+08
-4.783803e+08
0
0
0
0
0
6.830078e+08
7.0261e+08
7.32447e+08
7.775054e+08
8.472333e+08
-3.710102e+08
-3.853424e+08
-4.039188e+08
-4.274599e+08
-4.56942e+08
0
0
0
0
0
6.385135e+08
6.541539e+08
6.776318e+08
7.11715e+08
7.610641e+08
-3.574365e+08
-3.706975e+08
-3.878706e+08
-4.09589e+08
-4.367021e+08
0
0
0
0
0
5.989791e+08
6.119952e+08
6.313476e+08
6.589431e+08
6.974483e+08
-3.449354e+08
-3.57252e+08
-3.731976e+08
-3.933326e+08
-4.184067e+08
0
0
0
0
0
5.644309e+08
5.756314e+08
5.922047e+08
6.155363e+08
6.474985e+08
-3.337609e+08
-3.452628e+08
-3.601558e+08
-3.789444e+08
-4.022966e+08
0
0
0
0
0
5.344351e+08
5.443429e+08
5.58933e+08
5.79311e+08
6.068598e+08
-3.239321e+08
-3.347379e+08
-3.487383e+08
-3.663917e+08
-3.88304e+08
0
0
0
0
0
5.08414e+08
5.173678e+08
5.304962e+08
5.487092e+08
5.731221e+08
-6.768196e+08
-7.37941e+08
-8.208358e+08
-6.349223e+08
-6.849131e+08
-7.560421e+08
-8.540126e+08
-6.021167e+08
-6.447996e+08
-7.04014e+08
-7.882921e+08
-9.082048e+08
-5.749342e+08
-6.126624e+08
-6.638361e+08
-7.345584e+08
-8.362773e+08
0
-5.509607e+08
-5.848777e+08
-6.303679e+08
-6.916964e+08
-7.768228e+08
0
0
-5.281079e+08
-5.588508e+08
-5.997087e+08
-6.540318e+08
-7.273064e+08
0
0
0
-5.053667e+08
-5.332321e+08
-5.700543e+08
-6.184195e+08
-6.825095e+08
0
0
0
0
-4.835697e+08
-5.088887e+08
-5.421681e+08
-5.855259e+08
-6.42135e+08
0
0
0
0
0
-4.633732e+08
-4.864696e+08
-5.167228e+08
-5.558605e+08
-6.06453e+08
0
0
0
0
0
1.124544e+09
-4.449632e+08
-4.661422e+08
-4.93807e+08
-5.294192e+08
-5.750716e+08
0
0
0
0
0
9.628232e+08
1.074054e+09
-4.282542e+08
-4.477755e+08
-4.732218e+08
-5.058444e+08
-5.474117e+08
0
0
0
0
0
8.629402e+08
9.210519e+08
1.036461e+09
-4.13031e+08
-4.311048e+08
-4.546263e+08
-4.846822e+08
-5.227858e+08
0
0
0
0
0
7.909097e+08
8.277106e+08
8.904576e+08
1.010975e+09
-3.98994e+08
-4.1578e+08
-4.375996e+08
-4.654043e+08
-5.005059e+08
0
0
0
0
0
7.340139e+08
7.601829e+08
8.017105e+08
8.697386e+08
9.951742e+08
-3.857389e+08
-4.013492e+08
-4.216203e+08
-4.473916e+08
-4.798073e+08
0
0
0
0
0
6.85997e+08
7.061085e+08
7.367886e+08
7.834209e+08
8.56742e+08
-3.727481e+08
-3.872483e+08
-4.060632e+08
-4.299311e+08
-4.598538e+08
0
0
0
0
0
6.43312e+08
6.594485e+08
6.836989e+08
7.190399e+08
7.706487e+08
-3.596167e+08
-3.730553e+08
-3.904774e+08
-4.125329e+08
-4.400953e+08
0
0
0
0
0
6.040818e+08
6.17465e+08
6.373682e+08
6.658061e+08
7.056423e+08
-3.468912e+08
-3.59355e+08
-3.755043e+08
-3.959129e+08
-4.213479e+08
0
0
0
0
0
5.686294e+08
5.800612e+08
5.969778e+08
6.208151e+08
6.535322e+08
-3.351448e+08
-3.467456e+08
-3.617745e+08
-3.807443e+08
-4.043343e+08
0
0
0
0
0
5.372601e+08
5.472965e+08
5.620763e+08
5.827289e+08
6.106732e+08
-3.246273e+08
-3.354798e+08
-3.495445e+08
-3.672835e+08
-3.893078e+08
0
0
0
0
0
5.097809e+08
5.187893e+08
5.319979e+08
5.503253e+08
5.748993e+08
-3.153687e+08
-3.255753e+08
-3.388189e+08
-3.555167e+08
-3.762242e+08
0
0
0
0
0
4.857804e+08
4.940141e+08
5.060297e+08
5.226068e+08
5.446718e+08
-6.319985e+08
-6.812929e+08
-7.511282e+08
-8.459685e+08
-5.973132e+08
-6.390504e+08
-6.967043e+08
-7.780527e+08
-8.906504e+08
-5.692658e+08
-6.060024e+08
-6.556311e+08
-7.237676e+08
-8.204903e+08
0
-5.455984e+08
-5.786385e+08
-6.227885e+08
-6.819975e+08
-7.634723e+08
0
0
-5.244028e+08
-5.545223e+08
-5.944397e+08
-6.473054e+08
-7.182099e+08
0
0
0
-5.039832e+08
-5.315474e+08
-5.679139e+08
-6.155835e+08
-6.785653e+08
0
0
0
0
-4.834539e+08
-5.086669e+08
-5.417808e+08
-5.848815e+08
-6.410837e+08
0
0
0
0
0
-4.636375e+08
-4.867099e+08
-5.169194e+08
-5.559841e+08
-6.064566e+08
0
0
0
0
0
1.115635e+09
-4.451695e+08
-4.663473e+08
-4.940061e+08
-5.296048e+08
-5.752324e+08
0
0
0
0
0
9.615598e+08
1.070433e+09
-4.282542e+08
-4.477755e+08
-4.732218e+08
-5.058444e+08
-5.474117e+08
0
0
0
0
0
8.629402e+08
9.210519e+08
1.036461e+09
-4.128399e+08
-4.309131e+08
-4.544371e+08
-4.844998e+08
-5.226162e+08
0
0
0
0
0
7.910451e+08
8.281264e+08
8.915567e+08
1.01429e+09
-3.987492e+08
-4.155444e+08
-4.37382e+08
-4.652164e+08
-5.003635e+08
0
0
0
0
0
7.343336e+08
7.607942e+08
8.029007e+08
8.723515e+08
1.002642e+09
-3.857174e+08
-4.013668e+08
-4.216977e+08
-4.475554e+08
-4.800928e+08
0
0
0
0
0
6.870148e+08
7.074247e+08
7.386107e+08
7.862314e+08
8.619396e+08
-3.733782e+08
-3.879714e+08
-4.069205e+08
-4.309741e+08
-4.611493e+08
0
0
0
0
0
6.457845e+08
6.622549e+08
6.870278e+08
7.232389e+08
7.764799e+08
-3.612485e+08
-3.748389e+08
-3.924765e+08
-4.148271e+08
-4.427858e+08
0
0
0
0
0
6.08257e+08
6.219954e+08
6.424332e+08
6.716998e+08
7.128778e+08
-3.489474e+08
-3.615726e+08
-3.779479e+08
-3.986627e+08
-4.245047e+08
0
0
0
0
0
5.731868e+08
5.848965e+08
6.022252e+08
6.266729e+08
6.603113e+08
-3.369945e+08
-3.487297e+08
-3.639446e+08
-3.831638e+08
-4.070826e+08
0
0
0
0
0
5.410672e+08
5.512862e+08
5.663351e+08
5.873784e+08
6.158877e+08
-3.259394e+08
-3.368824e+08
-3.510716e+08
-3.689766e+08
-3.912182e+08
0
0
0
0
0
5.123674e+08
5.214802e+08
5.348427e+08
5.533905e+08
5.782766e+08
-3.160305e+08
-3.262796e+08
-3.395822e+08
-3.563587e+08
-3.771689e+08
0
0
0
0
0
4.870396e+08
4.953188e+08
5.074011e+08
5.240727e+08
5.462692e+08
-3.072984e+08
-3.169502e+08
-3.294908e+08
-3.453091e+08
-3.649113e+08
0
0
0
0
0
4.647917e+08
4.7243e+08
4.835205e+08
4.987404e+08
5.188822e+08
-5.948204e+08
-6.36079e+08
-6.92951e+08
-7.728542e+08
-8.819609e+08
-5.650846e+08
-6.011195e+08
-6.496703e+08
-7.160377e+08
-8.094415e+08
0
-5.40594e+08
-5.728702e+08
-6.158743e+08
-6.73311e+08
-7.518237e+08
0
0
-5.19626e+08
-5.490483e+08
-5.879362e+08
-6.392467e+08
-7.077007e+08
0
0
0
-5.006677e+08
-5.277285e+08
-5.633508e+08
-6.09915e+08
-6.71197e+08
0
0
0
0
-4.822342e+08
-5.072016e+08
-5.399515e+08
-5.825127e+08
-6.379003e+08
0
0
0
0
0
-4.635622e+08
-4.865494e+08
-5.166269e+08
-5.554922e+08
-6.056609e+08
0
0
0
0
0
1.099769e+09
-4.454312e+08
-4.665909e+08
-4.942163e+08
-5.297596e+08
-5.752988e+08
0
0
0
0
0
9.584629e+08
1.062285e+09
-4.284529e+08
-4.479741e+08
-4.734165e+08
-5.060299e+08
-5.475796e+08
0
0
0
0
0
8.624898e+08
9.198879e+08
1.033052e+09
-4.128399e+08
-4.309131e+08
-4.544371e+08
-4.844998e+08
-5.226162e+08
0
0
0
0
0
7.910451e+08
8.281264e+08
8.915567e+08
1.01429e+09
-3.985656e+08
-4.153597e+08
-4.371989e+08
-4.650384e+08
-5.001955e+08
0
0
0
0
0
7.343244e+08
7.609173e+08
8.032924e+08
8.734168e+08
1.005964e+09
-3.854797e+08
-4.011364e+08
-4.214826e+08
-4.473657e+08
-4.799418e+08
0
0
0
0
0
6.871457e+08
7.077176e+08
7.391851e+08
7.873785e+08
8.645294e+08
-3.733485e+08
-3.879758e+08
-4.069779e+08
-4.311082e+08
-4.613906e+08
0
0
0
0
0
6.465455e+08
6.632034e+08
6.882724e+08
7.249933e+08
7.792435e+08
-3.61833e+08
-3.755076e+08
-3.932658e+08
-4.157837e+08
-4.439687e+08
0
0
0
0
0
6.103499e+08
6.243208e+08
6.451065e+08
6.749191e+08
7.170076e+08
-3.504834e+08
-3.632468e+08
-3.798179e+08
-4.008004e+08
-4.270009e+08
0
0
0
0
0
5.768726e+08
5.888461e+08
6.065654e+08
6.315962e+08
6.661298e+08
-3.389379e+08
-3.508207e+08
-3.66242e+08
-3.857402e+08
-4.100292e+08
0
0
0
0
0
5.451771e+08
5.55613e+08
5.709808e+08
5.924885e+08
6.216745e+08
-3.276928e+08
-3.387585e+08
-3.531184e+08
-3.712516e+08
-3.937934e+08
0
0
0
0
0
5.158446e+08
5.251045e+08
5.386838e+08
5.575428e+08
5.828709e+08
-3.172775e+08
-3.276092e+08
-3.410262e+08
-3.579552e+08
-3.789648e+08
0
0
0
0
0
4.894213e+08
4.977868e+08
5.099962e+08
5.268492e+08
5.492991e+08
-3.079289e+08
-3.176205e+08
-3.302151e+08
-3.461058e+08
-3.658026e+08
0
0
0
0
0
4.659571e+08
4.736339e+08
4.847807e+08
5.000801e+08
5.203318e+08
-2.996826e+08
-3.08822e+08
-3.207114e+08
-3.35713e+08
-3.542982e+08
0
0
0
0
0
4.452481e+08
4.523835e+08
4.626917e+08
4.767664e+08
4.95295e+08
-5.629094e+08
-5.985866e+08
-6.465916e+08
-7.12072e+08
-8.038369e+08
0
-5.368908e+08
-5.686208e+08
-6.108145e+08
-6.670144e+08
-7.434989e+08
0
0
-5.151491e+08
-5.43957e+08
-5.819509e+08
-6.31933e+08
-6.983372e+08
0
0
0
-4.963637e+08
-5.22854e+08
-5.576479e+08
-6.030049e+08
-6.62473e+08
0
0
0
0
-4.792374e+08
-5.037862e+08
-5.359275e+08
-5.77605e+08
-6.316915e+08
0
0
0
0
0
-4.624747e+08
-4.852569e+08
-5.150338e+08
-5.534635e+08
-6.029945e+08
0
0
0
0
0
1.074403e+09
-4.45386e+08
-4.664754e+08
-4.939927e+08
-5.293747e+08
-5.746754e+08
0
0
0
0
0
9.522537e+08
1.047736e+09
-4.287101e+08
-4.482171e+08
-4.736331e+08
-5.062029e+08
-5.47684e+08
0
0
0
0
0
8.611284e+08
9.170308e+08
1.025376e+09
-4.13031e+08
-4.311048e+08
-4.546263e+08
-4.846822e+08
-5.227858e+08
0
0
0
0
0
7.909097e+08
8.277106e+08
8.904576e+08
1.010975e+09
-3.985656e+08
-4.153597e+08
-4.371989e+08
-4.650384e+08
-5.001955e+08
0
0
0
0
0
7.343244e+08
7.609173e+08
8.032924e+08
8.734168e+08
1.005964e+09
-3.853036e+08
-4.009588e+08
-4.213059e+08
-4.47193e+08
-4.797769e+08
0
0
0
0
0
6.870624e+08
7.077053e+08
7.392988e+08
7.877559e+08
8.655877e+08
-3.731183e+08
-3.877515e+08
-4.067665e+08
-4.309188e+08
-4.612346e+08
0
0
0
0
0
6.46564e+08
6.633194e+08
6.885441e+08
7.255425e+08
7.803709e+08
-3.617962e+08
-3.755018e+08
-3.933071e+08
-4.158934e+08
-4.441738e+08
0
0
0
0
0
6.109328e+08
6.250294e+08
6.460022e+08
6.761145e+08
7.187244e+08
-3.51027e+08
-3.638672e+08
-3.805481e+08
-4.016815e+08
-4.280862e+08
0
0
0
0
0
5.78676e+08
5.908175e+08
6.087828e+08
6.341819e+08
6.69292e+08
-3.403871e+08
-3.52396e+08
-3.679966e+08
-3.877386e+08
-4.123534e+08
0
0
0
0
0
5.484681e+08
5.59106e+08
5.747696e+08
5.967102e+08
6.265343e+08
-3.295344e+08
-3.407344e+08
-3.552839e+08
-3.736726e+08
-3.965523e+08
0
0
0
0
0
5.195807e+08
5.290135e+08
5.428468e+08
5.620708e+08
5.879204e+08
-3.18943e+08
-3.293873e+08
-3.429609e+08
-3.600999e+08
-3.813846e+08
0
0
0
0
0
4.926163e+08
5.011027e+08
5.134903e+08
5.305976e+08
5.534036e+08
-3.091152e+08
-3.188839e+08
-3.315837e+08
-3.476148e+08
-3.674951e+08
0
0
0
0
0
4.681607e+08
4.759099e+08
4.871638e+08
5.026152e+08
5.230773e+08
-3.002844e+08
-3.094606e+08
-3.214005e+08
-3.364688e+08
-3.551411e+08
0
0
0
0
0
4.463309e+08
4.534993e+08
4.638559e+08
4.779985e+08
4.966203e+08
-2.924842e+08
-3.01152e+08
-3.124392e+08
-3.266843e+08
-3.443259e+08
0
0
0
0
0
4.269853e+08
4.336897e+08
4.433247e+08
4.564179e+08
4.735714e+08
-5.349607e+08
-5.66411e+08
-6.081916e+08
-6.637651e+08
-7.39232e+08
0
0
-5.118286e+08
-5.401941e+08
-5.775501e+08
-6.265936e+08
-6.915675e+08
0
0
0
-4.923173e+08
-5.183006e+08
-5.52368e+08
-5.966795e+08
-6.546001e+08
0
0
0
0
-4.753257e+08
-4.993957e+08
-5.30852e+08
-5.715504e+08
-6.242188e+08
0
0
0
0
0
-4.59744e+08
-4.821713e+08
-5.114368e+08
-5.491379e+08
-5.976218e+08
0
0
0
0
0
1.040596e+09
-4.444071e+08
-4.653225e+08
-4.925861e+08
-5.276051e+08
-5.723871e+08
0
0
0
0
0
9.409663e+08
1.024391e+09
-4.286881e+08
-4.481355e+08
-4.734608e+08
-5.058967e+08
-5.47183e+08
0
0
0
0
0
8.578162e+08
9.112904e+08
1.01165e+09
-4.132823e+08
-4.313448e+08
-4.548447e+08
-4.848652e+08
-5.229138e+08
0
0
0
0
0
7.902487e+08
8.2645e+08
8.877589e+08
1.003515e+09
-3.987492e+08
-4.155444e+08
-4.37382e+08
-4.652164e+08
-5.003635e+08
0
0
0
0
0
7.343336e+08
7.607942e+08
8.029007e+08
8.723515e+08
1.002642e+09
-3.853036e+08
-4.009588e+08
-4.213059e+08
-4.47193e+08
-4.797769e+08
0
0
0
0
0
6.870624e+08
7.077053e+08
7.392988e+08
7.877559e+08
8.655877e+08
-3.729493e+08
-3.875808e+08
-4.065962e+08
-4.307516e+08
-4.610739e+08
0
0
0
0
0
6.464405e+08
6.632372e+08
6.885287e+08
7.256494e+08
7.80742e+08
-3.615731e+08
-3.752841e+08
-3.931004e+08
-4.157058e+08
-4.440155e+08
0
0
0
0
0
6.108803e+08
6.250396e+08
6.461054e+08
6.763702e+08
7.192582e+08
-3.509845e+08
-3.638528e+08
-3.805767e+08
-4.017712e+08
-4.282615e+08
0
0
0
0
0
5.791305e+08
5.913595e+08
6.094508e+08
6.350401e+08
6.704572e+08
-3.408945e+08
-3.529732e+08
-3.686742e+08
-3.885541e+08
-4.133537e+08
0
0
0
0
0
5.500438e+08
5.608072e+08
5.766514e+08
5.988555e+08
6.290724e+08
-3.309053e+08
-3.422202e+08
-3.569341e+08
-3.755466e+08
-3.987237e+08
0
0
0
0
0
5.225467e+08
5.321375e+08
5.462019e+08
5.657589e+08
5.920879e+08
-3.206911e+08
-3.312592e+08
-3.450064e+08
-3.623807e+08
-3.839753e+08
0
0
0
0
0
4.960349e+08
5.04662e+08
5.172561e+08
5.346585e+08
5.578794e+08
-3.106991e+08
-3.205726e+08
-3.334167e+08
-3.49641e+08
-3.697749e+08
0
0
0
0
0
4.711114e+08
4.789616e+08
4.903645e+08
5.060276e+08
5.267839e+08
-3.014147e+08
-3.106623e+08
-3.227005e+08
-3.378982e+08
-3.567398e+08
0
0
0
0
0
4.483781e+08
4.556084e+08
4.660563e+08
4.803282e+08
4.991279e+08
-2.930595e+08
-3.017613e+08
-3.130955e+08
-3.27403e+08
-3.451249e+08
0
0
0
0
0
4.27995e+08
4.347279e+08
4.44405e+08
4.57557e+08
4.747907e+08
-2.856777e+08
-2.939025e+08
-3.046344e+08
-3.181795e+08
-3.349472e+08
0
0
0
0
0
4.098684e+08
4.161967e+08
4.252449e+08
4.374839e+08
4.534486e+08
-5.100955e+08
-5.382338e+08
-5.752631e+08
-6.238282e+08
-6.880776e+08
0
0
0
-4.893111e+08
-5.149275e+08
-5.484732e+08
-5.920398e+08
-6.488679e+08
0
0
0
0
-4.716394e+08
-4.952814e+08
-5.261326e+08
-5.659752e+08