/*--------------------------------*- C++ -*----------------------------------*\
| =========                 |                                                 |
| \\      /  F ield         | OpenFOAM: The Open Source CFD Toolbox           |
|  \\    /   O peration     | Version:  2306                                  |
|   \\  /    A nd           | Website:  www.openfoam.com                      |
|    \\/     M anipulation  |                                                 |
\*---------------------------------------------------------------------------*/
FoamFile
{
    version     2.0;
    format      ascii;
    arch        "LSB;label=32;scalar=64";
    class       volScalarField;
    location    "0.9/phiI";
    object      phi;
}
// * * * * * * * * * * * * * * * * * * * * * * * * * * * * * * * * * * * * * //

dimensions      [1 2 -3 0 0 -1 0];

internalField   nonuniform List<scalar> 
12000
(
1.617846
1.617809
1.612855
1.618713
1.617737
1.612784
1.618683
1.607948
1.613649
1.620465
1.617604
1.61266
1.618626
1.607861
1.613583
1.620451
1.603942
1.608682
1.615255
1.623119
1.617365
1.6125
1.618516
1.607707
1.613469
1.620424
1.603848
1.608598
1.615199
1.623128
1.600684
1.604626
1.610164
1.617687
1.626703
1.616953
1.612333
1.618307
1.607513
1.613322
1.620359
1.603679
1.608451
1.615104
1.623148
1.600587
1.604535
1.610088
1.617646
1.626743
1.598002
1.601328
1.60601
1.612409
1.620969
1.631254
1.61639
1.612178
1.617927
1.607329
1.613171
1.620209
1.603466
1.608267
1.614984
1.623152
1.60041
1.604372
1.609955
1.61758
1.626826
1.597904
1.601233
1.605925
1.612344
1.620948
1.631335
1.595749
1.598611
1.602629
1.608103
1.615435
1.625134
1.635833
1.615776
1.612031
1.617388
1.607204
1.613032
1.619892
1.603261
1.608095
1.614866
1.623091
1.600184
1.604167
1.609792
1.617502
1.626925
1.597724
1.601061
1.605773
1.612233
1.620921
1.631499
1.595651
1.598515
1.602539
1.608027
1.615386
1.625139
1.635954
1.593828
1.596327
1.599841
1.604597
1.610926
1.619274
1.629324
1.64044
1.615266
1.611872
1.616791
1.607148
1.612895
1.619404
1.603125
1.60798
1.614757
1.62287
1.599962
1.603972
1.609642
1.617432
1.626985
1.597491
1.600842
1.605584
1.612099
1.6209
1.63172
1.595471
1.598339
1.602377
1.607894
1.615305
1.625163
1.636199
1.593731
1.596231
1.599749
1.604515
1.610862
1.619244
1.629355
1.6406
1.592166
1.594379
1.597495
1.601701
1.607249
1.614503
1.623135
1.63354
1.645074
1.614981
1.611731
1.616291
1.607117
1.612742
1.618839
1.60308
1.60793
1.614641
1.622457
1.599807
1.603843
1.609547
1.61737
1.626894
1.597258
1.600627
1.605407
1.611985
1.620897
1.631936
1.595235
1.598112
1.602172
1.607729
1.615213
1.625214
1.636541
1.593552
1.596055
1.599582
1.604368
1.610753
1.619201
1.629429
1.640925
1.592071
1.594284
1.597403
1.601616
1.607178
1.614455
1.623125
1.633596
1.645274
1.590712
1.592692
1.595491
1.59926
1.604207
1.610609
1.618101
1.62702
1.637781
1.649735
1.614981
1.611647
1.61601
1.607092
1.612604
1.618359
1.603077
1.607901
1.614501
1.621943
1.59975
1.603802
1.60951
1.617287
1.626584
1.597088
1.600479
1.605293
1.611921
1.620899
1.632014
1.594995
1.597885
1.601972
1.607579
1.615146
1.625298
1.636912
1.593317
1.595824
1.599367
1.604183
1.610622
1.619163
1.629553
1.641387
1.591895
1.594108
1.597234
1.601463
1.607052
1.614378
1.62312
1.633721
1.645678
1.590619
1.592599
1.595399
1.599174
1.604132
1.610552
1.61807
1.627029
1.637863
1.649975
1.589428
1.591216
1.593754
1.597172
1.601638
1.607381
1.613988
1.62172
1.630928
1.642049
1.654424
1.615266
1.611647
1.61601
1.607077
1.612522
1.618087
1.603084
1.607878
1.614369
1.621492
1.599746
1.6038
1.609487
1.617165
1.626137
1.597017
1.600425
1.60526
1.611902
1.620859
1.631835
1.594814
1.59772
1.601835
1.607489
1.615124
1.625382
1.637157
1.593075
1.59559
1.599153
1.604006
1.610509
1.619157
1.629722
1.641914
1.591662
1.593878
1.597014
1.601265
1.606895
1.614289
1.623135
1.633916
1.64626
1.590446
1.592426
1.595231
1.599017
1.603996
1.610452
1.618023
1.627062
1.638038
1.650458
1.589337
1.591125
1.593664
1.597086
1.60156
1.607317
1.613945
1.621705
1.630957
1.642156
1.654702
1.588283
1.589911
1.592233
1.59536
1.599436
1.604649
1.610572
1.617387
1.625361
1.63486
1.646342
1.658114
1.615776
1.611731
1.616291
1.607077
1.612522
1.618087
1.603089
1.607863
1.61429
1.621233
1.599757
1.603808
1.609466
1.617043
1.625726
1.597004
1.600421
1.605262
1.611888
1.620763
1.631475
1.594732
1.597652
1.601788
1.607469
1.615131
1.6254
1.637108
1.592888
1.595414
1.598998
1.603888
1.610451
1.61919
1.629889
1.642325
1.591421
1.593641
1.596791
1.60107
1.606749
1.614225
1.62319
1.634171
1.646941
1.590218
1.592198
1.59501
1.598813
1.603823
1.610332
1.617977
1.627131
1.638304
1.651159
1.589168
1.590955
1.593497
1.596928
1.601419
1.607205
1.613871
1.621689
1.631028
1.64238
1.655265
1.588195
1.589822
1.592144
1.595274
1.599357
1.604581
1.61052
1.617357
1.625361
1.634908
1.646474
1.658423
1.587256
1.588748
1.590886
1.593769
1.59752
1.602301
1.607675
1.61378
1.620804
1.629022
1.638815
1.649724
1.66085
1.61639
1.611872
1.616791
1.607092
1.612604
1.618359
1.603089
1.607863
1.61429
1.621233
1.599766
1.603813
1.609452
1.616968
1.625486
1.597012
1.600433
1.60527
1.611871
1.620655
1.631115
1.594711
1.59764
1.601786
1.607476
1.61513
1.625336
1.636835
1.592798
1.595333
1.598935
1.60385
1.610448
1.619231
1.629963
1.642405
1.591231
1.593458
1.596623
1.600931
1.606656
1.614208
1.623278
1.63442
1.647517
1.589979
1.59196
1.594782
1.598607
1.603654
1.610225
1.61796
1.627246
1.638645
1.651993
1.588944
1.59073
1.593277
1.596721
1.601237
1.607063
1.613787
1.621686
1.631148
1.642718
1.656084
1.58803
1.589656
1.59198
1.595117
1.599213
1.60446
1.61043
1.617309
1.625376
1.635016
1.646747
1.659047
1.58717
1.588661
1.590799
1.593685
1.597442
1.602231
1.607618
1.61374
1.620788
1.629039
1.638882
1.649875
1.661182
1.586329
1.587704
1.589685
1.592359
1.595836
1.600254
1.605179
1.610716
1.617006
1.624241
1.632705
1.641934
1.652233
1.662663
1.616953
1.612031
1.617388
1.607117
1.612742
1.618839
1.603084
1.607878
1.614369
1.621492
1.599766
1.603813
1.609452
1.616968
1.625486
1.59702
1.600441
1.605275
1.611859
1.620585
1.630898
1.594714
1.597648
1.601798
1.607486
1.615118
1.625245
1.636525
1.59277
1.595313
1.598924
1.603852
1.610463
1.619246
1.629933
1.642217
1.591136
1.593369
1.596547
1.600875
1.606632
1.614229
1.623353
1.634551
1.647726
1.589789
1.591774
1.594607
1.598452
1.603537
1.610166
1.617985
1.627388
1.638975
1.652734
1.588709
1.590495
1.593049
1.596508
1.601053
1.606929
1.61372
1.621716
1.631324
1.643143
1.657071
1.587811
1.589435
1.591763
1.59491
1.599025
1.604305
1.61032
1.61726
1.625415
1.635189
1.647155
1.659958
1.587009
1.588498
1.590638
1.593529
1.597297
1.602106
1.607517
1.613673
1.620766
1.629083
1.639027
1.650187
1.661851
1.586245
1.587619
1.5896
1.592276
1.595758
1.600184
1.60512
1.61067
1.616978
1.624238
1.632737
1.642016
1.652399
1.663009
1.585487
1.586761
1.588605
1.591099
1.594341
1.598451
1.603
1.608072
1.613773
1.620249
1.627697
1.635611
1.644249
1.653896
1.663572
1.617365
1.612178
1.617927
1.607148
1.612895
1.619404
1.603077
1.607901
1.614501
1.621943
1.599757
1.603808
1.609466
1.617043
1.625726
1.59702
1.600441
1.605275
1.611859
1.620585
1.630898
1.59472
1.597655
1.601806
1.607491
1.615108
1.625183
1.63633
1.592769
1.595316
1.598932
1.603864
1.610475
1.619242
1.629859
1.641955
1.591104
1.593342
1.596527
1.600867
1.606639
1.614253
1.623385
1.634552
1.64762
1.589691
1.59168
1.594522
1.598383
1.603492
1.61016
1.618029
1.627497
1.639162
1.653069
1.588521
1.590308
1.59287
1.596345
1.600918
1.606839
1.613694
1.621782
1.631521
1.643555
1.657975
1.58758
1.589203
1.591536
1.594695
1.598834
1.604152
1.610219
1.617233
1.625493
1.635425
1.647665
1.661064
1.586796
1.588283
1.590425
1.593324
1.597107
1.601943
1.607389
1.613593
1.620753
1.629165
1.639252
1.65065
1.66283
1.586089
1.58746
1.589442
1.592123
1.595614
1.600056
1.605012
1.610589
1.616933
1.624242
1.632812
1.642189
1.652739
1.663708
1.585406
1.586678
1.588522
1.591018
1.594264
1.598381
1.602939
1.608022
1.613738
1.620233
1.627707
1.635655
1.644342
1.654072
1.663926
1.584719
1.585904
1.587629
1.589966
1.593002
1.596846
1.601077
1.605759
1.610979
1.616846
1.623509
1.630425
1.637769
1.645784
1.65473
1.617604
1.612333
1.618307
1.607204
1.613032
1.619892
1.60308
1.60793
1.614641
1.622457
1.599746
1.6038
1.609487
1.617165
1.626137
1.597012
1.600433
1.60527
1.611871
1.620655
1.631115
1.59472
1.597655
1.601806
1.607491
1.615108
1.625183
1.63633
1.592773
1.595321
1.598939
1.603872
1.61048
1.619233
1.629804
1.641783
1.5911
1.593341
1.59653
1.600875
1.606651
1.614268
1.623387
1.634495
1.647407
1.589657
1.591649
1.594495
1.598365
1.603487
1.610173
1.618063
1.627545
1.639196
1.653046
1.588422
1.590212
1.592779
1.596265
1.600857
1.606808
1.613706
1.62185
1.631663
1.643797
1.658437
1.587395
1.589018
1.591355
1.594526
1.598686
1.604041
1.610158
1.61724
1.625599
1.635676
1.648158
1.662095
1.586571
1.588056
1.590201
1.593109
1.596911
1.601777
1.607266
1.613527
1.620764
1.62929
1.639548
1.651226
1.664022
1.58588
1.58725
1.589233
1.59192
1.595424
1.599888
1.604873
1.610489
1.616884
1.624264
1.632935
1.642455
1.653242
1.664731
1.585253
1.586523
1.588368
1.590868
1.594121
1.598252
1.602827
1.607932
1.613677
1.62021
1.627737
1.635754
1.644537
1.65443
1.664639
1.584639
1.585823
1.587548
1.589887
1.592926
1.596777
1.601014
1.605706
1.610938
1.616821
1.623505
1.630446
1.637822
1.645884
1.65491
1.584014
1.585121
1.586741
1.58894
1.591796
1.595408
1.599362
1.603714
1.608531
1.6139
1.619935
1.626085
1.632453
1.6392
1.646553
1.617737
1.6125
1.618516
1.607329
1.613171
1.620209
1.603125
1.60798
1.614757
1.62287
1.59975
1.603802
1.60951
1.617287
1.626584
1.597004
1.600421
1.605262
1.611888
1.620763
1.631475
1.594714
1.597648
1.601798
1.607486
1.615118
1.625245
1.636525
1.592773
1.595321
1.598939
1.603872
1.61048
1.619233
1.629804
1.641783
1.591102
1.593344
1.596535
1.600881
1.606659
1.614274
1.623381
1.634447
1.647257
1.589651
1.591645
1.594494
1.598367
1.603494
1.610187
1.618081
1.627554
1.639155
1.652881
1.588386
1.590177
1.592748
1.59624
1.600841
1.606808
1.613725
1.621894
1.631728
1.643862
1.658495
1.587297
1.588921
1.591262
1.59444
1.598615
1.603992
1.610141
1.61727
1.625691
1.635851
1.648456
1.662655
1.586389
1.587873
1.590021
1.592938
1.596757
1.601651
1.607178
1.613493
1.620805
1.629437
1.639853
1.651782
1.665147
1.585661
1.587028
1.589013
1.591707
1.595226
1.599716
1.604734
1.610394
1.616851
1.624315
1.633107
1.642797
1.653866
1.665981
1.58505
1.586318
1.588164
1.590668
1.593933
1.598082
1.602682
1.607818
1.613603
1.620191
1.627793
1.635909
1.644831
1.65496
1.665684
1.58449
1.585672
1.587398
1.589739
1.592786
1.596648
1.6009
1.605611
1.610866
1.61678
1.623504
1.630496
1.637938
1.646093
1.655278
1.583937
1.585043
1.586663
1.588862
1.591722
1.595339
1.599299
1.603659
1.608486
1.613869
1.61992
1.626089
1.632481
1.63926
1.646657
1.583365
1.584403
1.58593
1.588005
1.590702
1.594109
1.597822
1.601887
1.606362
1.611315
1.616836
1.622376
1.627999
1.633797
1.639918
1.617809
1.61266
1.618626
1.607513
1.613322
1.620359
1.603261
1.608095
1.614866
1.623091
1.599807
1.603843
1.609547
1.61737
1.626894
1.597017
1.600425
1.60526
1.611902
1.620859
1.631835
1.594711
1.59764
1.601786
1.607476
1.61513
1.625336
1.636835
1.592769
1.595316
1.598932
1.603864
1.610475
1.619242
1.629859
1.641955
1.591102
1.593344
1.596535
1.600881
1.606659
1.614274
1.623381
1.634447
1.647257
1.589652
1.591647
1.594497
1.598372
1.603501
1.610194
1.618088
1.627551
1.639114
1.652752
1.588379
1.590171
1.592743
1.596238
1.600843
1.606816
1.61374
1.621915
1.631744
1.643838
1.658376
1.587261
1.588885
1.591228
1.59441
1.598591
1.60398
1.610145
1.617296
1.625745
1.635932
1.648553
1.662776
1.586293
1.587776
1.589926
1.592848
1.596678
1.60159
1.607142
1.613491
1.620852
1.629552
1.640062
1.652123
1.665778
1.585484
1.586849
1.588835
1.591536
1.595069
1.599581
1.60463
1.610331
1.616844
1.624388
1.633295
1.643144
1.654469
1.667168
1.584836
1.586101
1.587948
1.590458
1.593735
1.597906
1.602533
1.607705
1.613538
1.620191
1.627883
1.636118
1.645208
1.655615
1.666963
1.584293
1.585472
1.587198
1.589544
1.5926
1.596478
1.600751
1.605487
1.610776
1.616733
1.623516
1.630579
1.638117
1.646407
1.655821
1.583791
1.584896
1.586516
1.588718
1.591583
1.595211
1.599184
1.60356
1.608407
1.613814
1.619898
1.626106
1.632545
1.639387
1.646873
1.58329
1.584327
1.585854
1.58793
1.590629
1.594041
1.597759
1.601832
1.606315
1.611279
1.616813
1.622369
1.62801
1.633831
1.63998
1.582765
1.583742
1.585186
1.587151
1.589705
1.592929
1.596429
1.600244
1.604422
1.609021
1.614111
1.619156
1.624191
1.629269
1.634472
1.617846
1.612784
1.618683
1.607707
1.613469
1.620424
1.603466
1.608267
1.614984
1.623152
1.599962
1.603972
1.609642
1.617432
1.626985
1.597088
1.600479
1.605293
1.611921
1.620899
1.632014
1.594732
1.597652
1.601788
1.607469
1.615131
1.6254
1.637108
1.59277
1.595313
1.598924
1.603852
1.610463
1.619246
1.629933
1.642217
1.5911
1.593341
1.59653
1.600875
1.606651
1.614268
1.623387
1.634495
1.647407
1.589652
1.591647
1.594497
1.598372
1.603501
1.610194
1.618088
1.627551
1.639114
1.652752
1.58838
1.590173
1.592745
1.596241
1.600847
1.606821
1.613747
1.621922
1.631742
1.643804
1.658268
1.587254
1.588878
1.591221
1.594405
1.598588
1.603981
1.610153
1.617312
1.625768
1.635955
1.648544
1.662692
1.586257
1.58774
1.589891
1.592815
1.596649
1.601569
1.607133
1.613499
1.620885
1.629616
1.640159
1.652244
1.665946
1.585389
1.586753
1.588741
1.591445
1.594985
1.59951
1.604578
1.610306
1.616857
1.624453
1.633434
1.64338
1.654841
1.667846
1.584663
1.585926
1.587774
1.590289
1.593576
1.597765
1.602416
1.607621
1.613499
1.620213
1.627989
1.636338
1.645586
1.656249
1.66818
1.584084
1.585261
1.586987
1.589337
1.592404
1.5963
1.600596
1.605362
1.610689
1.616697
1.623549
1.630699
1.638353
1.646806
1.656492
1.583599
1.5847
1.586321
1.588527
1.5914
1.595042
1.599033
1.60343
1.608305
1.613748
1.619878
1.626141
1.632649
1.639581
1.647197
1.583148
1.584184
1.58571
1.587789
1.590494
1.593914
1.597644
1.60173
1.60623
1.611215
1.616776
1.622363
1.62804
1.633905
1.640113
1.582692
1.583668
1.585111
1.587077
1.589634
1.592862
1.596367
1.600188
1.604374
1.608982
1.614084
1.619141
1.62419
1.629285
1.634507
1.582208
1.583131
1.584499
1.586366
1.588792
1.591852
1.595162
1.598756
1.602675
1.606967
1.611692
1.616324
1.620882
1.625395
1.629906
1.612855
1.618713
1.607861
1.613583
1.620451
1.603679
1.608451
1.615104
1.623148
1.600184
1.604167
1.609792
1.617502
1.626925
1.597258
1.600627
1.605407
1.611985
1.620897
1.631936
1.594814
1.59772
1.601835
1.607489
1.615124
1.625382
1.637157
1.592798
1.595333
1.598935
1.60385
1.610448
1.619231
1.629963
1.642405
1.591104
1.593342
1.596527
1.600867
1.606639
1.614253
1.623385
1.634552
1.64762
1.589651
1.591645
1.594494
1.598367
1.603494
1.610187
1.618081
1.627554
1.639155
1.652881
1.58838
1.590173
1.592745
1.596241
1.600847
1.606821
1.613747
1.621922
1.631742
1.643804
1.658268
1.587255
1.588879
1.591222
1.594406
1.59859
1.603984
1.610158
1.617319
1.625776
1.635956
1.648517
1.662601
1.586249
1.587733
1.589883
1.592808
1.596643
1.601565
1.607134
1.613508
1.620902
1.629643
1.640189
1.652248
1.665889
1.585354
1.586717
1.588705
1.59141
1.594953
1.599483
1.60456
1.6103
1.61687
1.624492
1.633507
1.64349
1.65498
1.668044
1.584571
1.585832
1.58768
1.590198
1.59349
1.597689
1.602355
1.60758
1.613486
1.62024
1.628072
1.636495
1.645841
1.656642
1.668882
1.583916
1.58509
1.586816
1.589171
1.592245
1.596157
1.600472
1.605264
1.610626
1.616681
1.623598
1.630832
1.638596
1.647205
1.657141
1.583395
1.584494
1.586115
1.588325
1.591207
1.594864
1.598875
1.603297
1.608203
1.613687
1.619871
1.6262
1.632792
1.639835
1.647607
1.58296
1.583993
1.58552
1.587602
1.590314
1.593747
1.597492
1.601597
1.60612
1.611135
1.616734
1.622363
1.628092
1.634022
1.640316
1.582553
1.583528
1.584971
1.58694
1.589501
1.592738
1.596252
1.600086
1.604286
1.608912
1.614036
1.619118
1.624195
1.629323
1.634586
1.582137
1.583058
1.584427
1.586294
1.588722
1.591786
1.595101
1.598701
1.602626
1.606926
1.61166
1.616303
1.620873
1.625398
1.629924
1.58169
1.582563
1.583864
1.585641
1.587951
1.590864
1.594004
1.597401
1.601091
1.605115
1.609522
1.613805
1.617969
1.622028
1.625999
1.607948
1.613649
1.620465
1.603848
1.608598
1.615199
1.623128
1.60041
1.604372
1.609955
1.61758
1.626826
1.597491
1.600842
1.605584
1.612099
1.6209
1.63172
1.594995
1.597885
1.601972
1.607579
1.615146
1.625298
1.636912
1.592888
1.595414
1.598998
1.603888
1.610451
1.61919
1.629889
1.642325
1.591136
1.593369
1.596547
1.600875
1.606632
1.614229
1.623353
1.634551
1.647726
1.589657
1.591649
1.594495
1.598365
1.603487
1.610173
1.618063
1.627545
1.639196
1.653046
1.588379
1.590171
1.592743
1.596238
1.600843
1.606816
1.61374
1.621915
1.631744
1.643838
1.658376
1.587255
1.588879
1.591222
1.594406
1.59859
1.603984
1.610158
1.617319
1.625776
1.635956
1.648517
1.662601
1.58625
1.587733
1.589883
1.592808
1.596643
1.601566
1.607136
1.613512
1.620909
1.629651
1.640192
1.652226
1.665809
1.585347
1.58671
1.588697
1.591402
1.594945
1.599477
1.604556
1.610302
1.616879
1.624511
1.633537
1.643524
1.654994
1.668005
1.584537
1.585797
1.587644
1.590162
1.593456
1.597658
1.60233
1.607564
1.613483
1.620258
1.628118
1.636576
1.64596
1.656793
1.669094
1.583826
1.584998
1.586725
1.58908
1.592159
1.596078
1.600404
1.605211
1.610595
1.61668
1.623639
1.630929
1.638767
1.647472
1.657544
1.583232
1.584328
1.585948
1.588161
1.59105
1.59472
1.598746
1.60319
1.608124
1.613645
1.619879
1.626271
1.632943
1.640094
1.648016
1.582762
1.583792
1.585319
1.587404
1.590124
1.59357
1.597332
1.601458
1.606008
1.611056
1.616698
1.622379
1.628171
1.634179
1.640578
1.58237
1.583342
1.584785
1.586756
1.589324
1.592572
1.596101
1.59995
1.604171
1.608822
1.613977
1.619094
1.624211
1.629387
1.63471
1.582002
1.582921
1.58429
1.586159
1.588592
1.591664
1.594987
1.598597
1.602536
1.606852
1.611605
1.616267
1.62086
1.625411
1.629966
1.58162
1.582493
1.583793
1.585571
1.587883
1.590799
1.593943
1.597346
1.601041
1.605072
1.609488
1.613779
1.617953
1.622022
1.626004
1.581206
1.582035
1.583275
1.58497
1.587175
1.589954
1.59294
1.59616
1.599646
1.603433
1.607563
1.611544
1.615377
1.619062
1.622602
1.603942
1.608682
1.615255
1.623119
1.600587
1.604535
1.610088
1.617646
1.626743
1.597724
1.601061
1.605773
1.612233
1.620921
1.631499
1.595235
1.598112
1.602172
1.607729
1.615213
1.625214
1.636541
1.593075
1.59559
1.599153
1.604006
1.610509
1.619157
1.629722
1.641914
1.591231
1.593458
1.596623
1.600931
1.606656
1.614208
1.623278
1.63442
1.647517
1.589691
1.59168
1.594522
1.598383
1.603492
1.61016
1.618029
1.627497
1.639162
1.653069
1.588386
1.590177
1.592748
1.59624
1.600841
1.606808
1.613725
1.621894
1.631728
1.643862
1.658495
1.587254
1.588878
1.591221
1.594405
1.598588
1.603981
1.610153
1.617312
1.625768
1.635955
1.648544
1.662692
1.58625
1.587733
1.589883
1.592808
1.596643
1.601566
1.607136
1.613512
1.620909
1.629651
1.640192
1.652226
1.665809
1.585347
1.58671
1.588697
1.591402
1.594944
1.599476
1.604556
1.610303
1.616882
1.624517
1.633546
1.64353
1.654976
1.667933
1.58453
1.58579
1.587636
1.590154
1.593447
1.59765
1.602322
1.60756
1.613484
1.620266
1.628138
1.636608
1.645999
1.656812
1.669063
1.583793
1.584964
1.586689
1.589045
1.592124
1.596045
1.600375
1.605188
1.610582
1.616681
1.623662
1.63098
1.638854
1.647598
1.657701
1.583145
1.584239
1.585858
1.588072
1.590964
1.594639
1.598674
1.603129
1.60808
1.613624
1.61989
1.626323
1.63305
1.640273
1.648289
1.582603
1.58363
1.585156
1.587244
1.589969
1.593427
1.597202
1.601345
1.605918
1.610995
1.616677
1.622405
1.628257
1.634342
1.640844
1.582177
1.583146
1.584589
1.586563
1.589138
1.592398
1.595941
1.599808
1.604051
1.60873
1.613921
1.619079
1.624243
1.629478
1.634874
1.581823
1.58274
1.584108
1.58598
1.588418
1.591501
1.594836
1.598461
1.602417
1.606754
1.611534
1.616225
1.620849
1.625436
1.630036
1.581488
1.582359
1.58366
1.585439
1.587755
1.590679
1.593831
1.597243
1.60095
1.604994
1.609427
1.613735
1.617927
1.622016
1.62602
1.581138
1.581966
1.583205
1.584902
1.587108
1.58989
1.59288
1.596105
1.599596
1.603389
1.607527
1.611516
1.615356
1.619049
1.622597
1.580754
1.581542
1.582725
1.584346
1.586455
1.589112
1.591958
1.595019
1.598321
1.601897
1.605782
1.609501
1.613049
1.616421
1.619609
1.600684
1.604626
1.610164
1.617687
1.626703
1.597904
1.601233
1.605925
1.612344
1.620948
1.631335
1.595471
1.598339
1.602377
1.607894
1.615305
1.625163
1.636199
1.593317
1.595824
1.599367
1.604183
1.610622
1.619163
1.629553
1.641387
1.591421
1.593641
1.596791
1.60107
1.606749
1.614225
1.62319
1.634171
1.646941
1.589789
1.591774
1.594607
1.598452
1.603537
1.610166
1.617985
1.627388
1.638975
1.652734
1.588422
1.590212
1.592779
1.596265
1.600857
1.606808
1.613706
1.62185
1.631663
1.643797
1.658437
1.587261
1.588885
1.591228
1.59441
1.598591
1.60398
1.610145
1.617296
1.625745
1.635932
1.648553
1.662776
1.586249
1.587733
1.589883
1.592808
1.596643
1.601565
1.607134
1.613508
1.620902
1.629643
1.640189
1.652248
1.665889
1.585347
1.58671
1.588697
1.591402
1.594944
1.599476
1.604556
1.610303
1.616882
1.624517
1.633546
1.64353
1.654976
1.667933
1.584531
1.58579
1.587636
1.590153
1.593446
1.597648
1.602321
1.607559
1.613485
1.62027
1.628145
1.636618
1.646005
1.656797
1.668996
1.583787
1.584957
1.586682
1.589036
1.592114
1.596035
1.600365
1.60518
1.610577
1.616682
1.623671
1.631001
1.638888
1.647639
1.657723
1.583113
1.584206
1.585824
1.588037
1.590929
1.594605
1.598643
1.603102
1.608059
1.613613
1.619895
1.62635
1.633105
1.640364
1.648418
1.582519
1.583544
1.585069
1.587156
1.589884
1.593346
1.597128
1.60128
1.605865
1.61096
1.616666
1.622426
1.628318
1.634456
1.641028
1.582022
1.582989
1.584431
1.586406
1.588986
1.592255
1.59581
1.599692
1.603954
1.608656
1.613879
1.619074
1.624283
1.629574
1.635044
1.581635
1.582549
1.583917
1.585791
1.588236
1.591328
1.594677
1.598318
1.602293
1.606654
1.611463
1.616187
1.620849
1.62548
1.630132
1.581313
1.582182
1.583482
1.585264
1.587586
1.590518
1.593681
1.597106
1.600829
1.604892
1.609347
1.61368
1.617897
1.622014
1.626051
1.581009
1.581835
1.583075
1.584772
1.586983
1.589771
1.592769
1.596003
1.599504
1.603309
1.607461
1.611465
1.61532
1.619029
1.622595
1.580687
1.581474
1.582657
1.58428
1.58639
1.58905
1.5919
1.594965
1.598272
1.601853
1.605744
1.60947
1.613025
1.616403
1.619597
1.580328
1.58108
1.582212
1.583765
1.585786
1.58833
1.59105
1.593965
1.597102
1.600488
1.604154
1.607642
1.610944
1.614049
1.616944
1.598002
1.601328
1.60601
1.612409
1.620969
1.631254
1.595651
1.598515
1.602539
1.608027
1.615386
1.625139
1.635954
1.593552
1.596055
1.599582
1.604368
1.610753
1.619201
1.629429
1.640925
1.591662
1.593878
1.597014
1.601265
1.606895
1.614289
1.623135
1.633916
1.64626
1.589979
1.59196
1.594782
1.598607
1.603654
1.610225
1.61796
1.627246
1.638645
1.651993
1.588521
1.590308
1.59287
1.596345
1.600918
1.606839
1.613694
1.621782
1.631521
1.643555
1.657975
1.587297
1.588921
1.591262
1.59444
1.598615
1.603992
1.610141
1.61727
1.625691
1.635851
1.648456
1.662655
1.586257
1.58774
1.589891
1.592815
1.596649
1.601569
1.607133
1.613499
1.620885
1.629616
1.640159
1.652244
1.665946
1.585347
1.58671
1.588697
1.591402
1.594945
1.599477
1.604556
1.610302
1.616879
1.624511
1.633537
1.643524
1.654994
1.668005
1.584531
1.58579
1.587636
1.590153
1.593446
1.597648
1.602321
1.607559
1.613485
1.62027
1.628145
1.636618
1.646005
1.656797
1.668996
1.583789
1.584958
1.586682
1.589035
1.592113
1.596033
1.600363
1.605178
1.610575
1.616682
1.623674
1.631007
1.638898
1.647646
1.657709
1.583108
1.5842
1.585817
1.588028
1.590919
1.594595
1.598632
1.603091
1.60805
1.613608
1.619895
1.626359
1.633126
1.640399
1.64846
1.582489
1.583513
1.585036
1.587122
1.589849
1.593312
1.597095
1.60125
1.605839
1.610941
1.616658
1.622433
1.628347
1.634514
1.64112
1.581941
1.582905
1.584346
1.586321
1.588902
1.592175
1.595735
1.599624
1.603895
1.608612
1.613853
1.619071
1.62431
1.629641
1.635161
1.581485
1.582396
1.583763
1.585638
1.588087
1.591188
1.594547
1.5982
1.60219
1.606571
1.611406
1.616159
1.620856
1.625529
1.630234
1.58113
1.581996
1.583296
1.585079
1.587406
1.590349
1.593524
1.596962
1.600702
1.604785
1.609266
1.613625
1.617873
1.622023
1.6261
1.580839
1.581662
1.582901
1.584601
1.586817
1.589614
1.592621
1.595867
1.599382
1.603203
1.607375
1.611399
1.615276
1.619007
1.622598
1.580561
1.581347
1.58253
1.584153
1.586267
1.588933
1.59179
1.594863
1.598179
1.601771
1.605675
1.609414
1.612982
1.616373
1.619581
1.580263
1.581014
1.582146
1.5837
1.585722
1.588269
1.590992
1.593912
1.597053
1.600443
1.604115
1.607609
1.610917
1.614027
1.616927
1.579926
1.580646
1.581732
1.583222
1.585161
1.587603
1.590205
1.592989
1.595975
1.599189
1.602658
1.605942
1.609027
1.611902
1.614549
1.595749
1.598611
1.602629
1.608103
1.615435
1.625134
1.635833
1.593731
1.596231
1.599749
1.604515
1.610862
1.619244
1.629355
1.6406
1.591895
1.594108
1.597234
1.601463
1.607052
1.614378
1.62312
1.633721
1.645678
1.590218
1.592198
1.59501
1.598813
1.603823
1.610332
1.617977
1.627131
1.638304
1.651159
1.588709
1.590495
1.593049
1.596508
1.601053
1.606929
1.61372
1.621716
1.631324
1.643143
1.657071
1.587395
1.589018
1.591355
1.594526
1.598686
1.604041
1.610158
1.61724
1.625599
1.635676
1.648158
1.662095
1.586293
1.587776
1.589926
1.592848
1.596678
1.60159
1.607142
1.613491
1.620852
1.629552
1.640062
1.652123
1.665778
1.585354
1.586717
1.588705
1.59141
1.594953
1.599483
1.60456
1.6103
1.61687
1.624492
1.633507
1.64349
1.65498
1.668044
1.58453
1.58579
1.587636
1.590154
1.593447
1.59765
1.602322
1.60756
1.613484
1.620266
1.628138
1.636608
1.645999
1.656812
1.669063
1.583789
1.584958
1.586682
1.589035
1.592113
1.596033
1.600363
1.605178
1.610575
1.616682
1.623674
1.631007
1.638898
1.647646
1.657709
1.58311
1.584201
1.585817
1.588028
1.590918
1.594593
1.598629
1.603088
1.608047
1.613605
1.619894
1.626362
1.633133
1.640409
1.648468
1.582485
1.583507
1.585029
1.587115
1.58984
1.593301
1.597083
1.601238
1.605828
1.610932
1.616652
1.622434
1.628357
1.634536
1.641156
1.581913
1.582875
1.584314
1.586288
1.588869
1.592141
1.595701
1.599592
1.603866
1.608587
1.613836
1.619065
1.62432
1.629671
1.63522
1.581406
1.582316
1.583681
1.585555
1.588005
1.591109
1.594472
1.59813
1.602129
1.60652
1.611369
1.61614
1.620859
1.625561
1.630303
1.580984
1.581847
1.583146
1.58493
1.587261
1.590211
1.593394
1.596844
1.600596
1.604697
1.609198
1.613581
1.617855
1.622038
1.626153
1.58066
1.581481
1.582719
1.584421
1.586641
1.589447
1.592465
1.595723
1.599253
1.603092
1.607286
1.611333
1.615234
1.618991
1.622612
1.580394
1.581178
1.58236
1.583986
1.586104
1.588778
1.591644
1.594728
1.598057
1.601663
1.605585
1.609341
1.612926
1.616336
1.619563
1.580139
1.580889
1.582021
1.583576
1.585602
1.588154
1.590883
1.59381
1.59696
1.60036
1.604044
1.607549
1.610868
1.613989
1.616899
1.579862
1.580581
1.581667
1.583158
1.585099
1.587543
1.590149
1.592936
1.595926
1.599144
1.602619
1.605907
1.608998
1.611877
1.614528
1.579545
1.580235
1.58128
1.582713
1.584577
1.586923
1.589419
1.592081
1.594929
1.597987
1.601279
1.604379
1.607273
1.609947
1.612381
1.593828
1.596327
1.599841
1.604597
1.610926
1.619274
1.629324
1.64044
1.592071
1.594284
1.597403
1.601616
1.607178
1.614455
1.623125
1.633596
1.645274
1.590446
1.592426
1.595231
1.599017
1.603996
1.610452
1.618023
1.627062
1.638038
1.650458
1.588944
1.59073
1.593277
1.596721
1.601237
1.607063
1.613787
1.621686
1.631148
1.642718
1.656084
1.58758
1.589203
1.591536
1.594695
1.598834
1.604152
1.610219
1.617233
1.625493
1.635425
1.647665
1.661064
1.586389
1.587873
1.590021
1.592938
1.596757
1.601651
1.607178
1.613493
1.620805
1.629437
1.639853
1.651782
1.665147
1.585389
1.586753
1.588741
1.591445
1.594985
1.59951
1.604578
1.610306
1.616857
1.624453
1.633434
1.64338
1.654841
1.667846
1.584537
1.585797
1.587644
1.590162
1.593456
1.597658
1.60233
1.607564
1.613483
1.620258
1.628118
1.636576
1.64596
1.656793
1.669094
1.583787
1.584957
1.586682
1.589036
1.592114
1.596035
1.600365
1.60518
1.610577
1.616682
1.623671
1.631001
1.638888
1.647639
1.657723
1.58311
1.584201
1.585817
1.588028
1.590918
1.594593
1.598629
1.603088
1.608047
1.613605
1.619894
1.626362
1.633133
1.640409
1.648468
1.582487
1.583509
1.58503
1.587114
1.589839
1.593299
1.59708
1.601234
1.605823
1.610928
1.616649
1.622432
1.628359
1.634542
1.641166
1.58191
1.582871
1.584309
1.586281
1.58886
1.592131
1.59569
1.59958
1.603853
1.608575
1.613826
1.619059
1.62432
1.629681
1.635242
1.58138
1.582287
1.583651
1.585524
1.587973
1.591076
1.594438
1.598098
1.602098
1.606492
1.611346
1.616125
1.620854
1.625571
1.630335
1.580909
1.581769
1.583066
1.58485
1.587182
1.590133
1.59332
1.596774
1.600533
1.604641
1.609154
1.61355
1.617841
1.622045
1.626187
1.580518
1.581336
1.582574
1.584276
1.5865
1.589312
1.592337
1.595605
1.599146
1.603
1.607211
1.611277
1.615199
1.618981
1.62263
1.580219
1.581001
1.582183
1.58381
1.585933
1.588614
1.59149
1.594585
1.597927
1.60155
1.60549
1.609266
1.612871
1.616301
1.619551
1.579976
1.580723
1.581855
1.583412
1.585442
1.588002
1.59074
1.593676
1.596838
1.600251
1.60395
1.607471
1.610804
1.61394
1.616866
1.579741
1.580459
1.581544
1.583037
1.584981
1.58743
1.590042
1.592835
1.595834
1.599061
1.602546
1.605845
1.608945
1.611833
1.614493
1.579482
1.580172
1.581217
1.58265
1.584516
1.586865
1.589363
1.592028
1.594881
1.597943
1.601239
1.604343
1.607242
1.60992
1.612358
1.579183
1.579846
1.580852
1.582234
1.58403
1.586287
1.588683
1.591234
1.593956
1.596871
1.600002
1.602936
1.60566
1.608157
1.610407
1.592166
1.594379
1.597495
1.601701
1.607249
1.614503
1.623135
1.63354
1.645074
1.590619
1.592599
1.595399
1.599174
1.604132
1.610552
1.61807
1.627029
1.637863
1.649975
1.589168
1.590955
1.593497
1.596928
1.601419
1.607205
1.613871
1.621689
1.631028
1.64238
1.655265
1.587811
1.589435
1.591763
1.59491
1.599025
1.604305
1.61032
1.61726
1.625415
1.635189
1.647155
1.659958
1.586571
1.588056
1.590201
1.593109
1.596911
1.601777
1.607266
1.613527
1.620764
1.62929
1.639548
1.651226
1.664022
1.585484
1.586849
1.588835
1.591536
1.595069
1.599581
1.60463
1.610331
1.616844
1.624388
1.633295
1.643144
1.654469
1.667168