/*--------------------------------*- C++ -*----------------------------------*\
| =========                 |                                                 |
| \\      /  F ield         | OpenFOAM: The Open Source CFD Toolbox           |
|  \\    /   O peration     | Version:  2306                                  |
|   \\  /    A nd           | Website:  www.openfoam.com                      |
|    \\/     M anipulation  |                                                 |
\*---------------------------------------------------------------------------*/
FoamFile
{
    version     2.0;
    format      ascii;
    arch        "LSB;label=32;scalar=64";
    class       volScalarField;
    location    "0.9/phiI";
    object      T;
}
// * * * * * * * * * * * * * * * * * * * * * * * * * * * * * * * * * * * * * //

dimensions      [0 0 0 1 0 0 0];

internalField   nonuniform List<scalar> 
12000
(
1197.663
1197.501
1199.634
1197.74
1197.124
1199.626
1197.578
1201.425
1199.701
1197.801
1196.415
1199.604
1197.203
1201.457
1199.692
1197.64
1203.077
1201.481
1199.753
1197.847
1195.195
1199.562
1196.497
1201.53
1199.67
1197.265
1203.12
1201.514
1199.744
1197.686
1204.649
1203.125
1201.524
1199.79
1197.876
1193.35
1199.483
1195.287
1201.661
1199.627
1196.562
1203.218
1201.586
1199.722
1197.312
1204.694
1203.168
1201.557
1199.781
1197.715
1206.164
1204.69
1203.16
1201.554
1199.813
1197.886
1191.223
1199.336
1193.467
1201.875
1199.545
1195.363
1203.396
1201.715
1199.677
1196.612
1204.796
1203.266
1201.629
1199.758
1197.341
1206.207
1204.735
1203.203
1201.586
1199.803
1197.725
1207.626
1206.199
1204.72
1203.183
1201.57
1199.818
1197.895
1189.274
1199.047
1191.373
1202.163
1199.393
1193.567
1203.688
1201.924
1199.592
1195.422
1204.981
1203.442
1201.756
1199.712
1196.644
1206.306
1204.837
1203.301
1201.657
1199.779
1197.352
1207.668
1206.242
1204.764
1203.226
1201.601
1199.808
1197.734
1209.039
1207.657
1206.223
1204.737
1203.194
1201.571
1199.823
1197.903
1187.828
1198.684
1189.454
1202.382
1199.104
1191.505
1204.095
1202.203
1199.435
1193.649
1205.285
1203.729
1201.959
1199.623
1195.463
1206.485
1205.02
1203.475
1201.783
1199.731
1196.657
1207.762
1206.341
1204.865
1203.323
1201.672
1199.784
1197.361
1209.078
1207.698
1206.266
1204.782
1203.236
1201.602
1199.812
1197.743
1210.4
1209.065
1207.677
1206.236
1204.743
1203.19
1201.571
1199.827
1197.912
1187.066
1198.361
1188.03
1202.499
1198.746
1189.615
1204.462
1202.415
1199.146
1191.618
1205.712
1204.126
1202.228
1199.46
1193.712
1206.78
1205.32
1203.757
1201.981
1199.638
1195.483
1207.931
1206.519
1205.047
1203.495
1201.795
1199.733
1196.668
1209.166
1207.792
1206.365
1204.882
1203.331
1201.671
1199.787
1197.37
1210.437
1209.104
1207.718
1206.279
1204.787
1203.233
1201.602
1199.816
1197.751
1211.711
1210.423
1209.081
1207.686
1206.238
1204.736
1203.187
1201.572
1199.831
1197.92
1187.066
1198.175
1187.279
1202.545
1198.428
1188.212
1204.729
1202.53
1198.792
1189.757
1206.112
1204.485
1202.434
1199.172
1191.711
1207.194
1205.737
1204.143
1202.24
1199.47
1193.751
1208.21
1206.81
1205.342
1203.771
1201.987
1199.637
1195.501
1209.326
1207.96
1206.541
1205.062
1203.501
1201.792
1199.735
1196.68
1210.521
1209.192
1207.811
1206.377
1204.886
1203.327
1201.67
1199.79
1197.38
1211.746
1210.46
1209.12
1207.727
1206.281
1204.78
1203.229
1201.602
1199.82
1197.76
1212.97
1211.731
1210.437
1209.088
1207.685
1206.229
1204.73
1203.184
1201.571
1199.835
1197.929
1187.828
1198.175
1187.279
1202.556
1198.245
1187.472
1204.893
1202.575
1198.479
1188.373
1206.418
1204.748
1202.547
1198.821
1189.877
1207.588
1206.13
1204.496
1202.439
1199.181
1191.774
1208.602
1207.215
1205.75
1204.148
1202.236
1199.463
1193.784
1209.589
1208.236
1206.828
1205.352
1203.773
1201.979
1199.636
1195.519
1210.672
1209.352
1207.979
1206.552
1205.064
1203.495
1201.789
1199.736
1196.692
1211.825
1210.544
1209.208
1207.82
1206.378
1204.879
1203.323
1201.669
1199.793
1197.39
1213.003
1211.766
1210.474
1209.127
1207.726
1206.271
1204.774
1203.226
1201.602
1199.823
1197.769
1214.178
1212.988
1211.742
1210.441
1209.084
1207.673
1206.22
1204.724
1203.181
1201.571
1199.838
1197.942
1189.274
1198.361
1188.03
1202.556
1198.245
1187.472
1204.97
1202.587
1198.299
1187.643
1206.616
1204.91
1202.592
1198.514
1188.513
1207.895
1206.431
1204.754
1202.549
1198.834
1189.963
1208.978
1207.603
1206.136
1204.493
1202.429
1199.173
1191.828
1209.957
1208.62
1207.225
1205.751
1204.139
1202.219
1199.457
1193.817
1210.919
1209.611
1208.251
1206.834
1205.35
1203.761
1201.972
1199.634
1195.538
1211.968
1210.694
1209.367
1207.986
1206.551
1205.055
1203.489
1201.786
1199.738
1196.704
1213.078
1211.845
1210.557
1209.214
1207.818
1206.367
1204.872
1203.318
1201.668
1199.796
1197.399
1214.209
1213.021
1211.777
1210.478
1209.123
1207.714
1206.263
1204.768
1203.222
1201.601
1199.827
1197.783
1215.335
1214.194
1212.997
1211.744
1210.435
1209.071
1207.664
1206.212
1204.718
1203.177
1201.571
1199.847
1197.961
1191.223
1198.684
1189.454
1202.545
1198.428
1188.212
1204.97
1202.587
1198.299
1187.643
1206.713
1204.987
1202.604
1198.337
1187.794
1208.097
1206.628
1204.915
1202.594
1198.532
1188.617
1209.272
1207.905
1206.433
1204.747
1202.537
1198.83
1190.037
1210.312
1208.99
1207.606
1206.129
1204.476
1202.407
1199.167
1191.881
1211.265
1209.973
1208.627
1207.223
1205.739
1204.119
1202.205
1199.452
1193.849
1212.202
1210.939
1209.623
1208.254
1206.829
1205.336
1203.751
1201.965
1199.632
1195.557
1213.214
1211.987
1210.706
1209.371
1207.982
1206.539
1205.046
1203.482
1201.782
1199.739
1196.717
1214.281
1213.096
1211.856
1210.56
1209.21
1207.806
1206.358
1204.865
1203.314
1201.666
1199.798
1197.415
1215.365
1214.225
1213.03
1211.779
1210.472
1209.11
1207.704
1206.254
1204.761
1203.218
1201.6
1199.835
1197.802
1216.441
1215.349
1214.201
1212.998
1211.737
1210.421
1209.06
1207.653
1206.204
1204.711
1203.173
1201.574
1199.86
1197.985
1193.35
1199.047
1191.373
1202.499
1198.746
1189.615
1204.893
1202.575
1198.479
1188.373
1206.713
1204.987
1202.604
1198.337
1187.794
1208.197
1206.723
1204.99
1202.606
1198.357
1187.906
1209.469
1208.106
1206.627
1204.906
1202.581
1198.531
1188.705
1210.591
1209.281
1207.904
1206.422
1204.726
1202.512
1198.826
1190.109
1211.6
1210.322
1208.991
1207.598
1206.11
1204.449
1202.387
1199.16
1191.933
1212.528
1211.279
1209.978
1208.624
1207.21
1205.717
1204.101
1202.19
1199.445
1193.882
1213.436
1212.219
1210.948
1209.625
1208.247
1206.813
1205.323
1203.74
1201.957
1199.631
1195.577
1214.411
1213.232
1211.998
1210.709
1209.365
1207.969
1206.528
1205.037
1203.475
1201.779
1199.74
1196.736
1215.434
1214.297
1213.105
1211.858
1210.554
1209.196
1207.795
1206.349
1204.857
1203.309
1201.664
1199.806
1197.436
1216.471
1215.379
1214.233
1213.031
1211.772
1210.457
1209.098
1207.694
1206.245
1204.754
1203.213
1201.603
1199.848
1197.827
1217.499
1216.454
1215.355
1214.201
1212.989
1211.722
1210.409
1209.048
1207.643
1206.195
1204.704
1203.173
1201.583
1199.877
1198.014
1195.195
1199.336
1193.467
1202.382
1199.104
1191.505
1204.729
1202.53
1198.792
1189.757
1206.616
1204.91
1202.592
1198.514
1188.513
1208.197
1206.723
1204.99
1202.606
1198.357
1187.906
1209.566
1208.204
1206.722
1204.981
1202.594
1198.359
1188.002
1210.778
1209.475
1208.103
1206.614
1204.883
1202.556
1198.53
1188.792
1211.865
1210.598
1209.279
1207.892
1206.399
1204.695
1202.491
1198.822
1190.18
1212.845
1211.609
1210.322
1208.982
1207.577
1206.082
1204.425
1202.367
1199.153
1191.985
1213.746
1212.54
1211.283
1209.973
1208.609
1207.187
1205.698
1204.083
1202.175
1199.439
1193.915
1214.622
1213.451
1212.227
1210.948
1209.615
1208.23
1206.799
1205.31
1203.729
1201.949
1199.629
1195.602
1215.558
1214.426
1213.24
1211.998
1210.701
1209.351
1207.957
1206.517
1205.028
1203.468
1201.774
1199.746
1196.76
1216.537
1215.448
1214.305
1213.105
1211.85
1210.539
1209.184
1207.784
1206.339
1204.85
1203.303
1201.666
1199.818
1197.462
1217.527
1216.484
1215.386
1214.232
1213.022
1211.757
1210.445
1209.086
1207.683
1206.236
1204.746
1203.213
1201.611
1199.865
1197.856
1218.507
1217.511
1216.46
1215.354
1214.191
1212.973
1211.709
1210.396
1209.037
1207.633
1206.185
1204.701
1203.177
1201.595
1199.9
1196.415
1199.483
1195.287
1202.163
1199.393
1193.567
1204.462
1202.415
1199.146
1191.618
1206.418
1204.748
1202.547
1198.821
1189.877
1208.097
1206.628
1204.915
1202.594
1198.532
1188.617
1209.566
1208.204
1206.722
1204.981
1202.594
1198.359
1188.002
1210.871
1209.571
1208.201
1206.708
1204.957
1202.569
1198.361
1188.096
1212.042
1210.784
1209.471
1208.088
1206.588
1204.851
1202.534
1198.529
1188.877
1213.096
1211.871
1210.596
1209.266
1207.868
1206.366
1204.668
1202.469
1198.817
1190.25
1214.046
1212.853
1211.608
1210.312
1208.961
1207.549
1206.057
1204.402
1202.348
1199.146
1192.036
1214.917
1213.756
1212.543
1211.277
1209.958
1208.586
1207.167
1205.678
1204.065
1202.16
1199.433
1193.953
1215.76
1214.636
1213.457
1212.225
1210.938
1209.597
1208.215
1206.785
1205.297
1203.717
1201.94
1199.632
1195.634
1216.656
1215.572
1214.433
1213.239
1211.989
1210.685
1209.337
1207.944
1206.506
1205.018
1203.46
1201.774
1199.757
1196.79
1217.591
1216.55
1215.454
1214.304
1213.097
1211.834
1210.526
1209.172
1207.773
1206.33
1204.841
1203.301
1201.673
1199.835
1197.493
1218.535
1217.539
1216.489
1215.384
1214.223
1213.006
1211.743
1210.432
1209.075
1207.672
1206.227
1204.743
1203.216
1201.623
1199.887
1219.468
1218.518
1217.515
1216.457
1215.344
1214.175
1212.96
1211.696
1210.384
1209.025
1207.621
1206.179
1204.701
1203.185
1201.612
1197.124
1199.562
1196.497
1201.875
1199.545
1195.363
1204.095
1202.203
1199.435
1193.649
1206.112
1204.485
1202.434
1199.172
1191.711
1207.895
1206.431
1204.754
1202.549
1198.834
1189.963
1209.469
1208.106
1206.627
1204.906
1202.581
1198.531
1188.705
1210.871
1209.571
1208.201
1206.708
1204.957
1202.569
1198.361
1188.096
1212.131
1210.876
1209.567
1208.185
1206.681
1204.924
1202.547
1198.362
1188.188
1213.265
1212.047
1210.779
1209.456
1208.062
1206.554
1204.822
1202.512
1198.528
1188.96
1214.285
1213.101
1211.867
1210.582
1209.242
1207.836
1206.338
1204.641
1202.447
1198.812
1190.319
1215.203
1214.053
1212.851
1211.598
1210.292
1208.933
1207.524
1206.032
1204.378
1202.328
1199.139
1192.091
1216.041
1214.926
1213.758
1212.536
1211.261
1209.934
1208.565
1207.146
1205.658
1204.046
1202.144
1199.432
1193.997
1216.85
1215.772
1214.641
1213.455
1212.213
1210.919
1209.582
1208.199
1206.77
1205.284
1203.705
1201.936
1199.64
1195.671
1217.706
1216.669
1215.578
1214.431
1213.229
1211.973
1210.671
1209.324
1207.932
1206.495
1205.008
1203.456
1201.779
1199.772
1196.825
1218.596
1217.603
1216.555
1215.452
1214.294
1213.08
1211.821
1210.513
1209.159
1207.761
1206.319
1204.836
1203.304
1201.684
1199.856
1219.495
1218.546
1217.543
1216.486
1215.374
1214.207
1212.992
1211.73
1210.419
1209.062
1207.661
1206.22
1204.743
1203.224
1201.64
1220.382
1219.478
1218.522
1217.512
1216.447
1215.327
1214.161
1212.946
1211.682
1210.371
1209.012
1207.613
1206.177
1204.706
1203.198
1197.501
1199.604
1197.203
1201.661
1199.627
1196.562
1203.688
1201.924
1199.592
1195.422
1205.712
1204.126
1202.228
1199.46
1193.712
1207.588
1206.13
1204.496
1202.439
1199.181
1191.774
1209.272
1207.905
1206.433
1204.747
1202.537
1198.83
1190.037
1210.778
1209.475
1208.103
1206.614
1204.883
1202.556
1198.53
1188.792
1212.131
1210.876
1209.567
1208.185
1206.681
1204.924
1202.547
1198.362
1188.188
1213.349
1212.135
1210.871
1209.551
1208.158
1206.646
1204.896
1202.525
1198.362
1188.278
1214.446
1213.269
1212.042
1210.764
1209.431
1208.028
1206.524
1204.794
1202.49
1198.526
1189.042
1215.431
1214.29
1213.097
1211.854
1210.559
1209.21
1207.808
1206.31
1204.614
1202.425
1198.807
1190.392
1216.315
1215.209
1214.051
1212.84
1211.577
1210.264
1208.908
1207.499
1206.007
1204.354
1202.307
1199.136
1192.152
1217.119
1216.05
1214.927
1213.75
1212.52
1211.237
1209.914
1208.545
1207.126
1205.639
1204.027
1202.133
1199.435
1194.046
1217.892
1216.861
1215.776
1214.637
1213.443
1212.194
1210.903
1209.566
1208.184
1206.755
1205.269
1203.697
1201.936
1199.653
1195.714
1218.707
1217.717
1216.673
1215.575
1214.421
1213.212
1211.958
1210.657
1209.31
1207.919
1206.482
1205.001
1203.457
1201.788
1199.793
1219.554
1218.607
1217.607
1216.552
1215.442
1214.277
1213.066
1211.807
1210.5
1209.147
1207.749
1206.312
1204.835
1203.311
1201.7
1220.408
1219.505
1218.549
1217.54
1216.476
1215.357
1214.192
1212.978
1211.716
1210.406
1209.049
1207.652
1206.217
1204.747
1203.236
1221.25
1220.391
1219.481
1218.518
1217.501
1216.43
1215.313
1214.147
1212.932
1211.669
1210.357
1209.002
1207.608
1206.179
1204.715
1197.663
1199.626
1197.578
1201.53
1199.67
1197.265
1203.396
1201.715
1199.677
1196.612
1205.285
1203.729
1201.959
1199.623
1195.463
1207.194
1205.737
1204.143
1202.24
1199.47
1193.751
1208.978
1207.603
1206.136
1204.493
1202.429
1199.173
1191.828
1210.591
1209.281
1207.904
1206.422
1204.726
1202.512
1198.826
1190.109
1212.042
1210.784
1209.471
1208.088
1206.588
1204.851
1202.534
1198.529
1188.877
1213.349
1212.135
1210.871
1209.551
1208.158
1206.646
1204.896
1202.525
1198.362
1188.278
1214.526
1213.352
1212.129
1210.855
1209.524
1208.124
1206.616
1204.867
1202.502
1198.362
1188.367
1215.585
1214.45
1213.264
1212.028
1210.739
1209.397
1207.999
1206.495
1204.765
1202.467
1198.523
1189.127
1216.534
1215.435
1214.286
1213.084
1211.831
1210.528
1209.183
1207.78
1206.282
1204.587
1202.402
1198.806
1190.469
1217.382
1216.32
1215.207
1214.04
1212.82
1211.55
1210.24
1208.884
1207.474
1205.982
1204.329
1202.291
1199.139
1192.217
1218.151
1217.127
1216.05
1214.919
1213.734
1212.497
1211.217
1209.893
1208.524
1207.106
1205.618
1204.011
1202.126
1199.444
1194.1
1218.887
1217.902
1216.864
1215.772
1214.624
1213.423
1212.178
1210.886
1209.549
1208.168
1206.739
1205.258
1203.693
1201.94
1199.67
1219.662
1218.718
1217.721
1216.67
1215.564
1214.403
1213.197
1211.943
1210.643
1209.296
1207.905
1206.473
1204.998
1203.461
1201.801
1220.466
1219.564
1218.611
1217.603
1216.541
1215.425
1214.263
1213.052
1211.793
1210.486
1209.133
1207.739
1206.308
1204.839
1203.322
1221.275
1220.417
1219.508
1218.545
1217.529
1216.459
1215.343
1214.178
1212.964
1211.702
1210.392
1209.039
1207.647
1206.219
1204.755
1222.072
1221.259
1220.394
1219.477
1218.507
1217.484
1216.416
1215.299
1214.133
1212.918
1211.654
1210.345
1208.996
1207.608
1206.184
1199.634
1197.74
1201.457
1199.692
1197.64
1203.218
1201.586
1199.722
1197.312
1204.981
1203.442
1201.756
1199.712
1196.644
1206.78
1205.32
1203.757
1201.981
1199.638
1195.483
1208.602
1207.215
1205.75
1204.148
1202.236
1199.463
1193.784
1210.312
1208.99
1207.606
1206.129
1204.476
1202.407
1199.167
1191.881
1211.865
1210.598
1209.279
1207.892
1206.399
1204.695
1202.491
1198.822
1190.18
1213.265
1212.047
1210.779
1209.456
1208.062
1206.554
1204.822
1202.512
1198.528
1188.96
1214.526
1213.352
1212.129
1210.855
1209.524
1208.124
1206.616
1204.867
1202.502
1198.362
1188.367
1215.662
1214.529
1213.347
1212.114
1210.829
1209.491
1208.094
1206.586
1204.838
1202.48
1198.361
1188.46
1216.682
1215.589
1214.444
1213.249
1212.003
1210.707
1209.369
1207.969
1206.465
1204.737
1202.444
1198.525
1189.217
1217.593
1216.538
1215.431
1214.273
1213.062
1211.801
1210.502
1209.156
1207.752
1206.254
1204.559
1202.383
1198.811
1190.551
1218.404
1217.387
1216.318
1215.196
1214.02
1212.794
1211.526
1210.215
1208.859
1207.449
1205.956
1204.308
1202.279
1199.146
1192.288
1219.137
1218.158
1217.126
1216.042
1214.903
1213.711
1212.476
1211.197
1209.873
1208.504
1207.084
1205.6
1204
1202.124
1199.457
1219.836
1218.896
1217.904
1216.859
1215.759
1214.605
1213.406
1212.161
1210.869
1209.533
1208.151
1206.726
1205.251
1203.693
1201.95
1220.57
1219.671
1218.721
1217.717
1216.658
1215.546
1214.388
1213.182
1211.928
1210.628
1209.281
1207.893
1206.467
1204.999
1203.47
1221.331
1220.475
1219.567
1218.607
1217.592
1216.524
1215.41
1214.248
1213.037
1211.778
1210.471
1209.122
1207.734
1206.308
1204.846
1222.097
1221.283
1220.419
1219.504
1218.534
1217.512
1216.445
1215.328
1214.164
1212.95
1211.687
1210.38
1209.032
1207.646
1206.224
1222.851
1222.08
1221.261
1220.39
1219.466
1218.491
1217.47
1216.401
1215.284
1214.118
1212.902
1211.641
1210.337
1208.993
1207.611
1201.425
1199.701
1197.801
1203.12
1201.514
1199.744
1197.686
1204.796
1203.266
1201.629
1199.758
1197.341
1206.485
1205.02
1203.475
1201.783
1199.731
1196.657
1208.21
1206.81
1205.342
1203.771
1201.987
1199.637
1195.501
1209.957
1208.62
1207.225
1205.751
1204.139
1202.219
1199.457
1193.817
1211.6
1210.322
1208.991
1207.598
1206.11
1204.449
1202.387
1199.16
1191.933
1213.096
1211.871
1210.596
1209.266
1207.868
1206.366
1204.668
1202.469
1198.817
1190.25
1214.446
1213.269
1212.042
1210.764
1209.431
1208.028
1206.524
1204.794
1202.49
1198.526
1189.042
1215.662
1214.529
1213.347
1212.114
1210.829
1209.491
1208.094
1206.586
1204.838
1202.48
1198.361
1188.46
1216.756
1215.665
1214.524
1213.332
1212.089
1210.797
1209.462
1208.064
1206.555
1204.809
1202.457
1198.366
1188.556
1217.735
1216.685
1215.583
1214.43
1213.226
1211.972
1210.68
1209.34
1207.94
1206.435
1204.707
1202.424
1198.533
1189.312
1218.607
1217.596
1216.533
1215.418
1214.251
1213.033
1211.776
1210.475
1209.129
1207.724
1206.224
1204.535
1202.369
1198.82
1190.637
1219.381
1218.409
1217.384
1216.307
1215.176
1213.994
1212.77
1211.503
1210.191
1208.834
1207.422
1205.933
1204.291
1202.272
1199.159
1220.077
1219.143
1218.157
1217.118
1216.025
1214.88
1213.691
1212.456
1211.176
1209.852
1208.481
1207.065
1205.587
1203.993
1202.126
1220.738
1219.844
1218.898
1217.899
1216.846
1215.74
1214.588
1213.389
1212.144
1210.852
1209.515
1208.136
1206.717
1205.248
1203.697
1221.432
1220.579
1219.674
1218.716
1217.705
1216.641
1215.531
1214.373
1213.167
1211.913
1210.612
1209.268
1207.886
1206.466
1205.004
1222.151
1221.34
1220.477
1219.563
1218.595
1217.575
1216.51
1215.396
1214.233
1213.022
1211.763
1210.459
1209.114
1207.732
1206.312
1222.874
1222.105
1221.285
1220.415
1219.492
1218.518
1217.498
1216.43
1215.314
1214.149
1212.934
1211.675
1210.372
1209.029
1207.648
1223.585
1222.858
1222.082
1221.256
1220.378
1219.45
1218.476
1217.455
1216.387
1215.269
1214.102
1212.889
1211.632
1210.333
1208.994
1203.077
1201.481
1199.753
1197.847
1204.694
1203.168
1201.557
1199.781
1197.715
1206.306
1204.837
1203.301
1201.657
1199.779
1197.352
1207.931
1206.519
1205.047
1203.495
1201.795
1199.733
1196.668
1209.589
1208.236
1206.828
1205.352
1203.773
1201.979
1199.636
1195.519
1211.265
1209.973
1208.627
1207.223
1205.739
1204.119
1202.205
1199.452
1193.849
1212.845
1211.609
1210.322
1208.982
1207.577
1206.082
1204.425
1202.367
1199.153
1191.985
1214.285
1213.101
1211.867
1210.582
1209.242
1207.836
1206.338
1204.641
1202.447
1198.812
1190.319
1215.585
1214.45
1213.264
1212.028
1210.739
1209.397
1207.999
1206.495
1204.765
1202.467
1198.523
1189.127
1216.756
1215.665
1214.524
1213.332
1212.089
1210.797
1209.462
1208.064
1206.555
1204.809
1202.457
1198.366
1188.556
1217.806
1216.758
1215.659
1214.509
1213.308
1212.057
1210.768
1209.432
1208.033
1206.525
1204.778
1202.437
1198.374
1188.657
1218.745
1217.738
1216.679
1215.569
1214.407
1213.196
1211.945
1210.652
1209.312
1207.91
1206.404
1204.681
1202.41
1198.544
1189.41
1219.578
1218.61
1217.591
1216.521
1215.397
1214.223
1213.008
1211.75
1210.449
1209.101
1207.695
1206.198
1204.515
1202.36
1198.834
1220.314
1219.385
1218.405
1217.373
1216.288
1215.151
1213.971
1212.747
1211.479
1210.167
1208.808
1207.399
1205.914
1204.279
1202.269
1220.972
1220.083
1219.142
1218.149
1217.102
1216.003
1214.86
1213.671
1212.436
1211.155
1209.829
1208.462
1207.05
1205.577
1203.991
1221.596
1220.746
1219.845
1218.892
1217.886
1216.827
1215.723
1214.571
1213.372
1212.126
1210.834
1209.499
1208.126
1206.712
1205.249
1222.25
1221.441
1220.581
1219.669
1218.704
1217.688
1216.625
1215.515
1214.357
1213.151
1211.896
1210.598
1209.259
1207.882
1206.468
1222.928
1222.16
1221.342
1220.473
1219.551
1218.578
1217.56
1216.495
1215.381
1214.218
1213.006
1211.749
1210.45
1209.111
1207.733
1223.608
1222.882
1222.106
1221.281
1220.404
1219.476
1218.503
1217.483
1216.415
1215.299
1214.133
1212.921
1211.665
1210.368
1209.03
1224.276
1223.592
1222.86
1222.078
1221.245
1220.362
1219.435
1218.462
1217.441
1216.372
1215.253
1214.089
1212.879
1211.627
1210.332
1204.649
1203.125
1201.524
1199.79
1197.876
1206.207
1204.735
1203.203
1201.586
1199.803
1197.725
1207.762
1206.341
1204.865
1203.323
1201.672
1199.784
1197.361
1209.326
1207.96
1206.541
1205.062
1203.501
1201.792
1199.735
1196.68
1210.919
1209.611
1208.251
1206.834
1205.35
1203.761
1201.972
1199.634
1195.538
1212.528
1211.279
1209.978
1208.624
1207.21
1205.717
1204.101
1202.19
1199.445
1193.882
1214.046
1212.853
1211.608
1210.312
1208.961
1207.549
1206.057
1204.402
1202.348
1199.146
1192.036
1215.431
1214.29
1213.097
1211.854
1210.559
1209.21
1207.808
1206.31
1204.614
1202.425
1198.807
1190.392
1216.682
1215.589
1214.444
1213.249
1212.003
1210.707
1209.369
1207.969
1206.465
1204.737
1202.444
1198.525
1189.217
1217.806
1216.758
1215.659
1214.509
1213.308
1212.057
1210.768
1209.432
1208.033
1206.525
1204.778
1202.437
1198.374
1188.657
1218.814
1217.809
1216.753
1215.645
1214.486
1213.277
1212.03
1210.74
1209.403
1208.003
1206.493
1204.751
1202.423
1198.388
1188.762
1219.711
1218.747
1217.732
1216.666
1215.547
1214.378
1213.17
1211.919
1210.624
1209.283
1207.879
1206.376
1204.659
1202.4
1198.561
1220.504
1219.58
1218.606
1217.579
1216.5
1215.37
1214.199
1212.983
1211.724
1210.422
1209.072
1207.668
1206.176
1204.499
1202.355
1221.202
1220.317
1219.382
1218.395
1217.354
1216.263
1215.129
1213.949
1212.724
1211.455
1210.141
1208.784
1207.379
1205.9
1204.271
1221.824
1220.978
1220.082
1219.134
1218.133
1217.08
1215.983
1214.84
1213.651
1212.415
1211.133
1209.81
1208.446
1207.04
1205.572
1222.41
1221.604
1220.747
1219.84
1218.879
1217.867
1216.81
1215.706
1214.554
1213.355
1212.108
1210.817
1209.487
1208.119
1206.711
1223.024
1222.258
1221.442
1220.576
1219.657
1218.687
1217.672
1216.61
1215.499
1214.341
1213.134
1211.882
1210.588
1209.254
1207.882
1223.66
1222.935
1222.161
1221.337
1220.461
1219.535
1218.564
1217.545
1216.479
1215.365
1214.202
1212.992
1211.739
1210.445
1209.11
1224.299
1223.615
1222.883
1222.102
1221.27
1220.387
1219.461
1218.488
1217.468
1216.4
1215.283
1214.119
1212.911
1211.659
1210.366
1224.926
1224.283
1223.593
1222.855
1222.066
1221.229
1220.348
1219.421
1218.447
1217.426
1216.356
1215.239
1214.078
1212.873
1211.624
1206.164
1204.69
1203.16
1201.554
1199.813
1197.886
1207.668
1206.242
1204.764
1203.226
1201.601
1199.808
1197.734
1209.166
1207.792
1206.365
1204.882
1203.331
1201.671
1199.787
1197.37
1210.672
1209.352
1207.979
1206.552
1205.064
1203.495
1201.789
1199.736
1196.692
1212.202
1210.939
1209.623
1208.254
1206.829
1205.336
1203.751
1201.965
1199.632
1195.557
1213.746
1212.54
1211.283
1209.973
1208.609
1207.187
1205.698
1204.083
1202.175
1199.439
1193.915
1215.203
1214.053
1212.851
1211.598
1210.292
1208.933
1207.524
1206.032
1204.378
1202.328
1199.139
1192.091
1216.534
1215.435
1214.286
1213.084
1211.831
1210.528
1209.183
1207.78
1206.282
1204.587
1202.402
1198.806
1190.469
1217.735
1216.685
1215.583
1214.43
1213.226
1211.972
1210.68
1209.34
1207.94
1206.435
1204.707
1202.424
1198.533
1189.312
1218.814
1217.809
1216.753
1215.645
1214.486
1213.277
1212.03
1210.74
1209.403
1208.003
1206.493
1204.751
1202.423
1198.388
1188.762
1219.778
1218.816
1217.803
1216.739
1215.622
1214.456
1213.251
1212.003
1210.712
1209.374
1207.972
1206.464
1204.729
1202.413
1198.406
1220.633
1219.713
1218.742
1217.719
1216.644
1215.519
1214.353
1213.144
1211.892
1210.597
1209.253
1207.851
1206.352
1204.642
1202.394
1221.387
1220.506
1219.576
1218.593
1217.559
1216.473
1215.346
1214.175
1212.958
1211.699
1210.394
1209.046
1207.646
1206.158
1204.488
1222.047
1221.205
1220.314
1219.371
1218.376
1217.33
1216.241
1215.107
1213.926
1212.701
1211.43
1210.117
1208.765
1207.364
1205.89
1222.631
1221.829
1220.976
1220.073
1219.118
1218.111
1217.061
1215.964
1214.82
1213.63
1212.393
1211.113
1209.793
1208.435
1207.033
1223.18
1222.417
1221.604
1220.741
1219.826
1218.86
1217.85
1216.793
1215.688
1214.536
1213.336
1212.091
1210.805
1209.479
1208.116
1223.754
1223.031
1222.259
1221.437
1220.564
1219.64
1218.672
1217.657
1216.594
1215.483
1214.324
1213.119
1211.871
1210.581
1209.252
1224.35
1223.668
1222.937
1222.156
1221.325
1220.445
1219.52
1218.549
1217.53
1216.464
1215.349
1214.187
1212.982
1211.733
1210.443
1224.948
1224.306
1223.616
1222.878
1222.09
1221.253
1220.373
1219.447
1218.474
1217.453
1216.384
1215.268
1214.108
1212.904
1211.657
1225.533
1224.932
1224.284
1223.588
1222.844
1222.05
1221.215
1220.333
1219.406
1218.432
1217.41
1216.341
1215.228
1214.07
1212.869
1207.626
1206.199
1204.72
1203.183
1201.57
1199.818
1197.895
1209.078
1207.698
1206.266
1204.782
1203.236
1201.602
1199.812
1197.743
1210.521
1209.192
1207.811
1206.377
1204.886
1203.327
1201.67
1199.79
1197.38
1211.968
1210.694
1209.367
1207.986
1206.551
1205.055
1203.489
1201.786
1199.738
1196.704
1213.436
1212.219
1210.948
1209.625
1208.247
1206.813
1205.323
1203.74
1201.957
1199.631
1195.577
1214.917
1213.756
1212.543
1211.277
1209.958
1208.586
1207.167
1205.678
1204.065
1202.16
1199.433
1193.953
1216.315
1215.209
1214.051
1212.84
1211.577
1210.264
1208.908
1207.499
1206.007
1204.354
1202.307
1199.136
1192.152
1217.593
1216.538
1215.431
1214.273
1213.062
1211.801
1210.502
1209.156
1207.752
1206.254
1204.559
1202.383
1198.811
1190.551
1218.745
1217.738
1216.679
1215.569
1214.407
1213.196
1211.945
1210.652
1209.312
1207.91
1206.404
1204.681
1202.41
1198.544
1189.41
1219.778
1218.816
1217.803
1216.739
1215.622
1214.456
1213.251
1212.003
1210.712
1209.374
1207.972
1206.464
1204.729
1202.413
1198.406
1220.698
1219.779
1218.81
1217.789
1216.717
1215.594
1214.431
1213.225
1211.976
1210.684
1209.343
1207.942
1206.439
1204.711
1202.407
1221.513
1220.635
1219.708
1218.729
1217.698
1216.617
1215.495
1214.329
1213.118
1211.865
1210.567
1209.225
1207.827
1206.332
1204.629
1222.227
1221.389
1220.502
1219.564
1218.574
1217.533
1216.451
1215.323
1214.15
1212.934
1211.671
1210.368
1209.024
1207.627
1206.145
1222.849
1222.05
1221.202
1220.304
1219.353
1218.353
1217.309
1216.22
1215.085
1213.904
1212.676
1211.407
1210.098
1208.749
1207.353
1223.395
1222.636
1221.827
1220.968
1220.057
1219.096
1218.092
1217.042
1215.944
1214.8
1213.608
1212.373
1211.096
1209.781
1208.427
1223.907
1223.186
1222.417
1221.598
1220.728
1219.808
1218.844
1217.833
1216.776
1215.671
1214.517
1213.319
1212.077
1210.795
1209.474
1224.442
1223.761
1223.032
1222.254
1221.425
1220.547
1219.625
1218.656
1217.641
1216.578
1215.466
1214.308
1213.107
1211.863
1210.578
1224.998
1224.357
1223.669
1222.932
1222.145
1221.309
1220.43
1219.505
1218.534
1217.515
1216.447
1215.334
1214.176
1212.974
1211.73
1225.555
1224.954
1224.307
1223.612
1222.867
1222.074
1221.239
1220.359
1219.432
1218.459
1217.437
1216.369
1215.257
1214.1
1212.9
1226.1
1225.54
1224.933
1224.279
1223.577
1222.828
1222.037
1221.201
1220.319
1219.392
1218.416
1217.395
1216.33
1215.22
1214.066
1209.039
1207.657
1206.223
1204.737
1203.194
1201.571
1199.823
1197.903
1210.437
1209.104
1207.718
1206.279
1204.787
1203.233
1201.602
1199.816
1197.751
1211.825
1210.544
1209.208
1207.82
1206.378
1204.879
1203.323
1201.669
1199.793
1197.39
1213.214
1211.987
1210.706
1209.371
1207.982
1206.539
1205.046
1203.482
1201.782
1199.739
1196.717
1214.622
1213.451
1212.227
1210.948
1209.615
1208.23
1206.799
1205.31
1203.729
1201.949
1199.629
1195.602
1216.041
1214.926
1213.758
1212.536
1211.261
1209.934
1208.565
1207.146
1205.658
1204.046
1202.144
1199.432
1193.997
1217.382
1216.32
1215.207
1214.04
1212.82
1211.55
1210.24
1208.884
1207.474
1205.982
1204.329
1202.291
1199.139
1192.217
1218.607
1217.596
1216.533
1215.418
1214.251
1213.033
1211.776
1210.475
1209.129
1207.724
1206.224
1204.535
1202.369
1198.82
1190.637
1219.711
1218.747
1217.732
1216.666
1215.547
1214.378
1213.17
1211.919
1210.624
1209.283
1207.879
1206.376
1204.659
1202.4
1198.561
1220.698
1219.779
1218.81
1217.789
1216.717
1215.594
1214.431
1213.225
1211.976
1210.684
1209.343
1207.942
1206.439
1204.711
1202.407
1221.576
1220.7
1219.774
1218.797
1217.768
1216.689
1215.57
1214.406
1213.199
1211.949
1210.654
1209.314
1207.917
1206.419
1204.698
1222.35
1221.514
1220.63
1219.695
1218.708
1217.672
1216.594
1215.471
1214.304
1213.093
1211.837
1210.54
1209.201
1207.807
1206.317
1223.024
1222.229
1221.385
1220.49
1219.544
1218.549
1217.511
1216.428
1215.3
1214.126
1212.907
1211.646
1210.346
1209.005
1207.613
1223.608
1222.851
1222.047
1221.192
1220.286
1219.33
1218.332
1217.288
1216.198
1215.063
1213.879
1212.653
1211.387
1210.082
1208.737
1224.117
1223.4
1222.634
1221.819
1220.952
1220.037
1219.078
1218.074
1217.022
1215.925
1214.779
1213.588
1212.356
1211.084
1209.772
1224.591
1223.913
1223.186
1222.411
1221.585
1220.71
1219.792
1218.827
1217.817
1216.759
1215.652
1214.5
1213.305
1212.067
1210.79
1225.088
1224.449
1223.762
1223.027
1222.242
1221.408
1220.532
1219.609
1218.641
1217.625
1216.56
1215.45
1214.296
1213.098
1211.858
1225.604
1225.005
1224.358
1223.664
1222.92
1222.129
1221.295
1220.416
1219.49
1218.519
1217.498
1216.432
1215.322
1214.167
1212.97
1226.121
1225.561
1224.955
1224.302
1223.6
1222.851
1222.061
1221.225
1220.344
1219.417
1218.443
1217.422
1216.358
1215.249
1214.096
1226.626
1226.106
1225.54
1224.928
1224.268
1223.562
1222.814
1222.023
1221.186
1220.305
1219.376
1218.401
1217.383
1216.321
1215.215
1210.4
1209.065
1207.677
1206.236
1204.743
1203.19
1201.571
1199.827
1197.912
1211.746
1210.46
1209.12
1207.727
1206.281
1204.78
1203.229
1201.602
1199.82
1197.76
1213.078
1211.845
1210.557
1209.214
1207.818
1206.367
1204.872
1203.318
1201.668
1199.796
1197.399
1214.411
1213.232
1211.998
1210.709
1209.365
1207.969
1206.528
1205.037
1203.475
1201.779
1199.74
1196.736
1215.76
1214.636
1213.457
1212.225
1210.938
1209.597
1208.215
1206.785
1205.297
1203.717
1201.94
1199.632
1195.634
1217.119
1216.05
1214.927
1213.75
1212.52
1211.237
1209.914
1208.545
1207.126
1205.639