/*--------------------------------*- C++ -*----------------------------------*\
| =========                 |                                                 |
| \\      /  F ield         | OpenFOAM: The Open Source CFD Toolbox           |
|  \\    /   O peration     | Version:  2306                                  |
|   \\  /    A nd           | Website:  www.openfoam.com                      |
|    \\/     M anipulation  |                                                 |
\*---------------------------------------------------------------------------*/
FoamFile
{
    version     2.0;
    format      ascii;
    arch        "LSB;label=32;scalar=64";
    class       volVectorField;
    location    "0.3/phiI";
    object      i;
}
// * * * * * * * * * * * * * * * * * * * * * * * * * * * * * * * * * * * * * //

dimensions      [0 -2 0 0 0 1 0];

internalField   nonuniform List<vector> 
12000
(
(22.39414 -2.480807 1456.86)
(22.7755 -8.721641 1468.958)
(43.01196 1.332841 1347.979)
(22.82966 -2.964749 4491.876)
(23.51595 -14.81762 1493.417)
(43.58039 2.496452 1355.85)
(23.22793 -10.18392 4528.541)
(36.72611 3.203458 1256.504)
(43.81338 1.017973 4147.797)
(23.77045 -3.947394 7680.029)
(24.47277 -16.98264 1530)
(44.70103 2.155035 1371.317)
(24.00435 -17.25929 4602.604)
(37.00688 8.169078 1262.602)
(44.40581 1.562934 4171.567)
(24.2034 -13.15075 7742.153)
(28.68439 4.140463 1183.178)
(37.38532 2.959548 3856.598)
(45.55308 0.3820311 7079.652)
(25.23117 -5.449692 10951.7)
(25.34777 -10.84281 1576.984)
(46.17493 1.335606 1393.194)
(25.01999 -20.32534 4713.262)
(37.58577 11.12779 1274.423)
(45.57701 0.6613013 4218.275)
(25.05326 -22.20646 7867.572)
(28.83237 11.09303 1188.269)
(37.6772 7.452346 3874.951)
(46.19475 -0.3226549 7119.825)
(25.71725 -17.68563 11040.66)
(22.48638 4.683227 1122.192)
(29.22164 3.93683 3622.89)
(38.82574 2.469344 6569.096)
(48.25712 -0.5889381 10085.29)
(27.23611 -7.505511 14348.3)
(25.63123 5.82851 1627.445)
(47.59165 0.7418345 1418.816)
(25.98045 -14.7406 4855.059)
(38.38068 11.92354 1290.707)
(47.1321 -0.5643596 4284.383)
(26.18828 -27.08082 8054.813)
(29.15138 15.89311 1198.061)
(38.2788 10.0036 3910.547)
(47.46926 -2.357608 7198.778)
(26.67952 -29.76571 11220.22)
(22.56987 12.83892 1126.612)
(29.37633 10.49771 3638.171)
(39.14046 6.011103 6600.034)
(48.97429 -3.202096 10142.77)
(27.79494 -23.89145 14466.14)
(17.85845 4.975326 1069.7)
(22.94029 4.506427 3428.653)
(30.39617 3.529195 6159.085)
(41.06759 1.72203 9347.781)
(51.96877 -1.917248 13200.94)
(29.82058 -10.16341 16312.23)
(25.04106 23.99813 1667.035)
(48.22867 2.761393 1442.762)
(26.36996 2.226508 5006.709)
(39.23324 9.69457 1308.888)
(48.66404 -1.240898 4361.871)
(27.32052 -22.58067 8294.307)
(29.60154 17.81027 1211.352)
(39.10805 10.54492 3959.649)
(49.18938 -4.408263 7310.613)
(27.99679 -37.39475 11488.26)
(22.75954 18.81947 1135.072)
(29.70878 14.96979 3667.587)
(39.78852 7.739846 6660.076)
(50.407 -6.970233 10255.78)
(28.91103 -40.11064 14704.05)
(17.90279 13.82463 1073.632)
(23.02841 12.32376 3441.891)
(30.56461 9.305148 6184.79)
(41.41734 3.813141 9392.005)
(52.78936 -7.142215 13277.08)
(30.47346 -31.91595 16445.8)
(14.39023 5.126673 1023.589)
(18.25286 4.818062 3261.735)
(23.931 4.153695 5818.54)
(32.22386 2.908613 8755.645)
(44.14433 0.7004111 12224.88)
(56.75079 -3.634589 14986.11)
(32.54062 -12.84809 16772.58)
(23.9566 31.26755 1693.264)
(47.60983 7.251829 1458.743)
(25.87422 21.36536 5124.97)
(39.83276 6.010256 1324.462)
(49.4406 1.16429 4434.334)
(27.92073 -4.967948 8549.521)
(30.11445 15.26255 1225.781)
(40.00538 8.344344 4014.596)
(50.9535 -5.256189 7441.851)
(29.39027 -34.52893 11830.89)
(23.03301 21.55426 1146.45)
(30.17856 16.70144 3707.57)
(40.68794 7.761602 6743.019)
(52.37928 -10.28726 10415.99)
(30.47738 -51.50738 15059.28)
(18.01225 20.52457 1081.13)
(23.22726 18.02594 3467.248)
(30.92458 13.11716 6234.308)
(42.13668 4.28419 9477.877)
(54.43864 -13.28617 13426.84)
(31.78838 -53.49138 16715.18)
(14.41191 14.3769 1027.147)
(18.30066 13.36745 3273.487)
(24.0286 11.29514 5840.767)
(32.4134 7.488774 8792.352)
(44.54214 0.8072715 12283.42)
(57.70515 -12.23797 15072.23)
(33.28921 -40.00934 16907.55)
(11.72277 5.192059 982.4269)
(14.73933 4.984361 3115.347)
(19.11167 4.505249 5526.256)
(25.4716 3.617369 8264.092)
(34.73093 2.060912 11441.75)
(48.10435 -0.6197904 13854.5)
(61.79968 -5.362206 15378.37)
(35.39744 -15.5621 17236.24)
(22.9261 24.82214 1708.69)
(46.21422 10.11795 1467.699)
(24.85886 29.60133 5202.641)
(39.88025 3.853691 1333.345)
(48.94459 6.254364 4482.612)
(27.61049 16.16086 8747.502)
(30.53921 9.231465 1237.475)
(40.6539 5.031996 4061.84)
(52.00814 -2.068247 7564.732)
(30.30912 -15.90128 12195.39)
(23.35746 19.07133 1158.594)
(30.71563 14.21763 3751.094)
(41.67635 5.606959 6836.078)
(54.49695 -11.40565 10604.24)
(32.22709 -50.86574 15513.36)
(18.17295 23.78943 1091.158)
(23.51379 20.61337 3501.402)
(31.43453 14.46997 6301.727)
(43.1436 3.504848 9596.66)
(56.75579 -18.34681 13639.36)
(33.67649 -69.76699 17117.32)
(14.47383 21.52104 1033.915)
(18.41688 19.82352 3295.918)
(24.24622 16.43904 5883.375)
(32.81558 10.29232 8863.11)
(45.3592 -0.4463513 12397.18)
(59.6345 -21.46116 15241.48)
(34.80583 -66.97148 17179.17)
(11.72959 14.66057 985.6848)
(14.7637 13.96389 3125.962)
(19.16651 12.45731 5545.953)
(25.58376 9.73036 8295.801)
(34.94942 5.006547 11490.31)
(48.56443 -3.078787 13920.58)
(62.89024 -17.3573 15465.05)
(36.24347 -48.1794 17372.71)
(9.651739 5.194804 945.2818)
(12.036 5.061742 2984.882)
(15.49765 4.702044 5270.237)
(20.44607 4.030184 7842.476)
(27.58367 2.885341 10792.06)
(37.95515 0.9661628 12946.3)
(52.30353 -1.942566 14180.9)
(67.11753 -7.101862 15773.59)
(38.3912 -18.30722 17700.59)
(22.32526 9.287219 1715.773)
(44.82071 8.508687 1472.263)
(23.87181 23.92182 5247.898)
(39.50313 3.376356 1337.141)
(47.63872 9.577161 4509.462)
(26.72932 26.35045 8876.554)
(30.70537 3.95559 1243.361)
(40.74178 3.346563 4088.909)
(51.75407 4.246717 7646.532)
(30.2781 8.284053 12477.4)
(23.65135 11.91951 1168.094)
(31.16469 8.528281 3786.545)
(42.42391 3.037725 6916.463)
(55.97283 -7.022956 10780.85)
(33.5789 -30.82837 15996.11)
(18.36934 21.44597 1101.743)
(23.85361 18.20559 3537.945)
(32.02105 12.10355 6375.348)
(44.27139 1.406586 9730.258)
(59.35601 -19.85058 13889.5)
(35.88573 -72.00229 17631.16)
(14.56663 25.12521 1042.931)
(18.58703 22.96491 3325.954)
(24.55948 18.72638 5940.861)
(33.38719 11.05984 8959.594)
(46.51351 -2.333646 12554.75)
(62.3974 -28.79353 15481.85)
(37.01924 -88.14671 17584.39)
(11.75981 22.07177 991.869)
(14.83087 20.88967 3146.172)
(19.29655 18.42589 5583.582)
(25.83017 14.02217 8356.631)
(35.40956 6.42749 11583.99)
(49.50808 -6.56887 14048.88)
(65.10385 -29.67116 15635.05)
(37.96483 -80.56494 17646.8)
(9.648491 14.74728 948.2941)
(12.045 14.28288 2994.589)
(15.5275 13.14388 5288.002)
(20.51171 11.07439 7870.55)
(27.71581 7.593578 10833.97)
(38.2112 1.799335 13001)
(52.82706 -6.967647 14247.13)
(68.34681 -22.50549 15860.91)
(39.33643 -56.4318 17838.65)
(8.01205 5.159576 911.4423)
(9.935678 5.074314 2867.327)
(12.71485 4.803802 5042.352)
(16.67495 4.273766 7473.406)
(22.27442 3.382294 10235.11)
(30.29815 1.940632 12193.23)
(41.37604 -0.1269117 13218.6)
(56.74342 -3.269263 14510.06)
(72.7044 -8.854925 16169.7)
(41.52099 -21.08454 18163)
(22.32526 -9.287308 1715.773)
(43.99074 3.278822 1474.168)
(23.29167 9.003915 5268.533)
(39.02759 2.587329 1338.389)
(46.30191 8.249896 4522.972)
(25.8258 22.18645 8951.153)
(30.64637 1.591422 1245.154)
(40.39331 3.17458 4100.504)
(50.62277 8.503547 7691.759)
(29.59805 21.45528 12660.56)
(23.80977 4.925268 1172.455)
(31.34893 3.648423 3804.552)
(42.59249 2.30711 6962.788)
(56.08344 1.173298 10898.46)
(33.92623 -2.445914 16369.03)
(18.55697 13.75461 1109.838)
(24.1619 11.36506 3566.682)
(32.51984 7.093171 6435.695)
(45.17005 -0.03642285 9846.191)
(61.40493 -13.83693 14124.71)
(37.79475 -50.12793 18176.6)
(14.68316 22.91155 1052.381)
(18.7942 20.69878 3357.73)
(24.93092 16.46013 6002.566)
(34.04968 8.858909 9065.275)
(47.83222 -4.374307 12732.45)
(65.62058 -30.81967 15765.19)
(39.69097 -93.23681 18101.72)
(11.80685 25.88278 1000.086)
(14.93091 24.38657 3173.126)
(19.48605 21.31697 5634.046)
(26.18451 15.84576 8438.832)
(36.06584 6.383366 11711.93)
(50.85329 -9.90623 14226.81)
(68.31782 -39.29527 15876.65)
(40.50743 -106.6689 18055.48)
(9.656893 22.29362 954.0021)
(12.07946 21.49571 3013.029)
(15.60538 19.63449 5321.853)
(20.66297 16.2998 7924.223)
(28.00176 10.71777 10914.45)
(38.74648 1.427488 13106.45)
(53.89934 -12.69561 14375.51)
(70.84914 -37.92529 16031.83)
(41.26571 -94.28228 18115.35)
(8.002573 14.71211 914.2477)
(9.93424 14.39847 2876.29)
(12.72828 13.5347 5058.573)
(16.71322 11.89927 7498.703)
(22.3549 9.187429 10272.2)
(30.45622 4.834521 12240.35)
(41.67033 -1.399258 13273.24)
(57.33167 -10.86332 14576.52)
(74.07502 -27.68673 16257.71)
(42.5672 -64.77 18302.68)
(6.688117 5.10003 880.4067)
(8.271551 5.04736 2760.396)
(10.54969 4.836306 4837.25)
(13.76795 4.412891 7145.093)
(18.28718 3.690149 9747.837)
(24.62295 2.546786 11548.25)
(33.1759 1.000307 12420.95)
(44.99495 -1.219369 13493.49)
(61.42395 -4.600998 14840.37)
(78.55841 -10.62236 16564.59)
(44.78485 -23.89436 16428.16)
(22.9261 -24.82207 1708.69)
(43.99075 -3.278827 1474.168)
(23.29168 -9.004006 5268.533)
(38.72069 0.9876031 1338.674)
(45.49914 3.202604 4528.541)
(25.28522 8.461805 8984.962)
(30.50444 0.684278 1245.189)
(39.93589 2.52601 4104.308)
(49.39507 7.745531 7714.282)
(28.81929 19.58549 12766.04)
(23.83692 1.367065 1173.348)
(31.30154 1.518319 3810.146)
(42.30039 2.760395 6982.742)
(55.21397 6.867155 10963.37)
(33.51806 14.80457 16610.75)
(18.67194 5.811213 1113.315)
(24.32996 4.715114 3580.014)
(32.74095 3.01156 6466.687)
(45.46115 0.6954163 9913.383)
(62.01013 -3.054353 14281.53)
(38.62811 -16.30145 18596.07)
(14.79879 14.94544 1059.501)
(18.99135 13.29175 3382.143)
(25.26896 10.23673 6051.425)
(34.62484 4.87471 9152.443)
(48.93752 -4.287252 12887.41)
(68.40765 -22.70412 16032.03)
(42.15717 -69.42475 18649.36)
(11.86859 23.76757 1008.655)
(15.05552 22.24877 3201.427)
(19.71541 19.19841 5687.597)
(26.60462 13.78305 8527.356)
(36.83266 4.38957 11852.54)
(52.41923 -11.8998 14427.95)
(72.16886 -41.85755 16161.85)
(43.64517 -114.601 18576.91)
(9.672186 26.21296 961.5722)
(12.13228 25.21134 3037.553)
(15.72023 22.91503 5367.062)
(20.88222 18.80433 7996.318)
(28.41258 11.89738 11023.4)
(39.5126 0.3178881 13250.66)
(55.43828 -17.49661 14553.75)
(74.51996 -49.86551 16274.9)
(44.14157 -125.3514 18527.79)
(7.997049 22.30872 919.5559)
(9.946146 21.7625 2893.287)
(12.77135 20.35321 5089.418)
(16.80753 17.72726 7546.944)
(22.5353 13.39516 10343.16)
(30.79349 6.445209 12330.79)
(42.28193 -3.558963 13378.39)
(58.53473 -18.83343 14705.09)
(76.87066 -46.23091 16429.66)
(44.70758 -108.1305 18582.09)
(6.674806 14.59727 883.0352)
(8.263609 14.38756 2768.733)
(10.55191 13.70888 4852.21)
(13.78817 12.40022 7168.173)
(18.33701 10.20235 9781.228)
(24.7227 6.752685 11589.86)
(33.36035 2.091272 12467.87)
(45.32823 -4.592367 13548.12)
(62.07823 -14.76918 14907.1)
(80.073 -32.90403 16653.34)
(45.93381 -73.19536 16552.81)
(5.598809 5.026466 851.7773)
(6.926777 4.994891 2662.458)
(8.831529 4.826087 4650.898)
(11.50149 4.475936 6849.773)
(15.20938 3.880594 9314.578)
(20.35709 2.938093 10984.45)
(27.10952 1.717571 11738.59)
(36.21821 0.06352903 12651.07)
(48.812 -2.312125 13769.7)
(66.34343 -5.938649 15170.17)
(84.67572 -12.40474 14977.64)
(47.32304 -26.07073 12600.92)
(23.9566 -31.26742 1693.264)
(44.82071 -8.508692 1472.263)
(23.87181 -23.92175 5247.898)
(38.72069 -0.987608 1338.674)
(45.49914 -3.202609 4528.541)
(25.28523 -8.461897 8984.962)
(30.40127 0.2098007 1244.898)
(39.63777 0.9762295 4105.162)
(48.64423 3.056093 7723.465)
(28.33766 7.651556 12813.72)
(23.8032 0.1363456 1172.895)
(31.16642 0.6945196 3810.351)
(41.87808 2.401011 6989.326)
(54.14922 6.981665 10995.57)
(32.90768 16.06009 16749.7)
(18.70934 1.525685 1113.757)
(24.36251 1.349471 3582.857)
(32.71696 1.359431 6476.576)
(45.25404 2.11306 9942.566)
(61.49474 4.619031 14368.08)
(38.56873 6.228327 18866.33)
(14.8741 6.448957 1062.419)
(19.11208 5.654447 3392.732)
(25.45705 4.278246 6074.411)
(34.90244 2.013169 9197.691)
(49.39557 -1.547884 12977.75)
(69.64853 -8.561677 16209.74)
(43.47155 -30.03516 19067.25)
(11.93267 15.66399 1015.046)
(15.17795 14.54391 3222.834)
(19.93236 12.3545 5729.018)
(26.98861 8.491234 8597.955)
(37.51279 1.796532 11969.28)
(53.79178 -9.848388 14604)
(75.69533 -31.61896 16430.68)
(46.66944 -88.74929 19127.61)
(9.695437 24.16978 969.4376)
(12.20036 23.16918 3063.164)
(15.86143 20.92323 5414.665)
(21.1458 16.8999 8073.08)
(28.89969 10.09523 11141.15)
(40.41489 -1.434815 13409.56)
(57.25474 -19.46174 14755.72)
(79.00456 -52.9809 16562.33)
(47.74929 -136.1217 19053.81)
(7.991964 26.26822 926.5856)
(9.96619 25.59555 2915.846)
(12.83597 23.87738 5130.491)
(16.94513 20.6741 7611.474)
(22.79549 15.36268 10438.65)
(31.27766 6.777861 12453.36)
(43.15965 -5.741192 13522.36)
(60.27048 -25.1147 14883.83)
(81.00444 -60.51553 16674.42)
(47.9209 -144.2073 18998.46)
(6.660295 22.18754 888.0021)
(8.261049 21.81521 2784.521)
(10.57093 20.7114 4880.606)
(13.84445 18.61898 7212.095)
(18.4539 15.12365 9844.957)
(24.94095 9.641957 11669.46)
(33.74971 2.197605 12557.78)
(46.01742 -8.537207 13653.07)
(63.41435 -24.98816 15035.98)
(83.16662 -54.5936 16826.4)
(48.28846 -122.1133 16801.91)
(5.583066 14.43388 854.252)
(6.914789 14.29346 2670.261)
(8.826688 13.74709 4664.799)
(11.50934 12.66423 6871.04)
(15.23893 10.85463 9345.021)
(20.42193 8.014444 11021.86)
(27.22886 4.338752 11779.91)
(36.42955 -0.6386381 12697.83)
(49.18505 -7.782733 13824.36)
(67.06507 -18.68789 15237.22)
(86.33687 -38.15928 15056.76)
(48.55139 -79.72036 12695.25)
(4.696254 4.942609 825.2509)
(5.819432 4.927479 2572.228)
(7.440789 4.787897 4480.399)
(9.698956 4.491339 6581.602)
(12.80365 3.985588 8925.034)
(17.05916 3.19518 10483.62)
(22.54568 2.19371 11142.85)
(29.73534 0.8939923 11931.12)
(39.42536 -0.8704551 12882.6)
(52.82601 -3.405953 14045.94)
(71.49855 -7.28285 13708.27)
(89.43797 -13.78728 11497.78)
(49.1974 -27.66779 8949.635)
(25.04105 -23.99803 1667.034)
(46.21422 -10.11798 1467.699)
(24.85886 -29.6012 5202.641)
(39.02759 -2.587331 1338.389)
(46.30192 -8.249902 4522.972)
(25.8258 -22.18638 8951.153)
(30.40127 -0.2098007 1244.898)
(39.63777 -0.9762345 4105.162)
(48.64423 -3.056097 7723.465)
(28.33767 -7.651649 12813.72)
(23.77004 -0.04411717 1172.391)
(31.0664 0.2214254 3809.515)
(41.59679 0.9534444 6990.815)
(53.47573 2.835296 11008.64)
(32.50552 6.554851 16812.41)
(18.70622 0.01554434 1113.101)
(24.33155 0.1746252 3581.586)
(32.59533 0.7094982 6477.184)
(44.88428 2.203077 9952.346)
(60.64986 5.934676 14410.98)
(38.17417 11.51922 19020.74)
(14.90235 1.70994 1062.623)
(19.15224 1.534213 3394.171)
(25.50082 1.304182 6079.604)
(34.91409 1.09844 9212.543)
(49.30372 1.201875 13017.39)
(69.58741 1.689 16307.4)
(43.75378 -2.182054 19333.5)
(11.97613 6.846878 1017.577)
(15.25705 6.324049 3231.677)
(20.06529 5.330092 5747.255)
(27.20769 3.587962 8631.652)
(37.86788 0.6075636 12030.54)
(54.4651 -4.503838 14707.03)
(77.56631 -14.06906 16609.13)
(48.46058 -43.66711 19544.49)
(9.72228 16.02088 975.2631)
(12.26962 15.30708 3082.326)
(15.99805 13.73545 5450.9)
(21.39345 10.90542 8132.906)
(29.34711 6.064887 11235.78)
(41.23135 -2.245393 13542.13)
(58.89712 -15.45029 14933.05)
(83.27289 -40.59527 16833.57)
(51.33332 -108.1276 19608.27)
(7.99006 24.2685 933.8702)
(9.994576 23.62214 2939.313)
(12.91704 21.97662 5173.496)
(17.11192 18.89528 7679.646)
(23.10625 13.73489 10540.7)
(31.85196 5.287641 12586.19)
(44.19972 -7.26916 13681.38)
(62.34112 -27.07177 15086.91)
(86.12888 -64.20416 16964.39)
(52.00288 -157.8205 19529.44)
(6.641601 26.14307 894.5726)
(8.259963 25.69564 2805.441)
(10.60063 24.37194 4918.336)
(13.92719 21.84822 7270.671)
(18.62282 17.60696 9930.364)
(25.25436 10.90256 11776.7)
(34.30842 1.681249 12679.74)
(47.00865 -11.80159 13796.94)
(65.35012 -32.76918 15215.38)
(87.76959 -71.25435 17072.99)
(51.84343 -163.2454 17173.01)
(5.562096 21.97667 858.9228)
(6.902827 21.72604 2685.019)
(8.830125 20.84038 4691.146)
(11.53924 19.11744 6911.444)
(15.31335 16.25331 9403.002)
(20.56815 11.76182 11093.24)
(27.48548 5.921692 11858.81)
(36.87182 -2.02927 12787.28)
(49.95317 -13.51199 13929.21)
(68.53657 -31.16461 15366.48)
(89.7331 -63.01713 15210.92)
(51.07156 -132.9387 12883.74)
(4.677532 14.23014 827.5907)
(5.804845 14.14806 2579.568)
(7.431467 13.69484 4493.396)
(9.698861 12.77767 6601.349)
(12.81921 11.24204 8953.066)
(17.10082 8.863271 10517.68)
(22.62577 5.850891 11179.89)
(29.87464 1.943689 11972.18)
(39.66412 -3.357455 12929.25)
(53.23964 -10.97269 14100.68)
(72.28887 -22.62147 13767.97)
(91.21235 -42.23523 11557.71)
(50.484 -84.50833 9015.903)
(3.944815 4.839239 800.5686)
(4.901089 4.849017 2488.718)
(6.293769 4.732861 4323.472)
(8.236482 4.474995 6336.372)
(10.88513 4.036175 8571.457)
(14.47398 3.354656 10033.7)
(19.01239 2.518385 10614.32)
(24.85414 1.456492 11303.24)
(32.50084 0.07543301 12125.1)
(42.79662 -1.802314 13114.54)
(57.03455 -4.501472 12683.55)
(75.51979 -8.326976 10530.47)
(92.95748 -14.80181 8168.044)
(50.44941 -28.72143 5415.933)
(25.63121 -5.828516 1627.445)
(47.60982 -7.251863 1458.743)
(25.87421 -21.36526 5124.97)
(39.50313 -3.376357 1337.141)
(47.63872 -9.577196 4509.462)
(26.72931 -26.35032 8876.554)
(30.50445 -0.6842778 1245.189)
(39.93589 -2.526013 4104.308)
(49.39507 -7.745537 7714.282)
(28.8193 -19.58542 12766.04)
(23.77004 0.04411695 1172.391)
(31.0664 -0.2214254 3809.515)
(41.59679 -0.9534493 6990.815)
(53.47573 -2.835301 11008.64)
(32.50552 -6.554945 16812.41)
(18.6958 -0.1217402 1112.522)
(24.29955 -0.02394614 3580.108)
(32.50149 0.2432466 6475.888)
(44.62808 0.9166718 9954.631)
(60.08057 2.533249 14428.37)
(37.87382 5.143181 19090.11)
(14.90466 0.0009329955 1061.891)
(19.15024 0.0649504 3392.265)
(25.47555 0.2463439 6077.708)
(34.81289 0.7220448 9213.863)
(49.00492 1.918429 13030.95)
(69.02421 4.570196 16355.45)
(43.56882 7.108559 19483.94)
(11.99214 1.831248 1017.645)
(15.2868 1.731073 3232.355)
(20.11135 1.544403 5750.002)
(27.2688 1.217586 8639.745)
(37.92824 0.7125383 12051.26)
(54.52132 -0.01486074 14752.4)
(77.95044 -1.209354 16706.25)
(49.07771 -10.43907 19807.09)
(9.741067 7.043675 977.5125)
(12.31576 6.74292 3089.956)
(16.08521 6.06813 5466.085)
(21.54538 4.815098 8159.7)
(29.60901 2.60663 11281.64)
(41.68689 -1.266266 13612.23)
(59.78561 -7.48405 15037.06)
(85.7693 -19.58445 17012.99)
(53.59754 -57.21447 20024.62)
(7.991804 16.12029 939.2384)
(10.02551 15.69788 2956.735)
(12.99706 14.59231 5205.858)
(17.27059 12.48708 7731.938)
(23.39643 8.889722 10620.91)
(32.38208 2.871566 12693.49)
(45.15483 -6.310288 13814.54)
(64.25633 -21.10188 15265.8)
(91.14257 -49.64514 17238.39)
(56.14899 -127.5816 20088.27)
(6.621444 24.16818 901.3678)
(8.262339 23.76239 2827.143)
(10.63952 22.53419 4957.679)
(14.0283 20.15449 7332.202)
(18.82494 16.10469 10020.94)
(25.62663 9.609396 11891.6)
(34.97154 0.4900713 12812.19)
(48.18903 -13.12235 13956.3)
(67.67887 -34.74036 15419.8)
(93.54061 -75.53948 17365.73)
(56.40413 -179.7142 17646.16)
(5.531915 25.8797 865.0967)
(6.887556 25.60844 2704.55)
(8.837146 24.56335 4726.094)
(11.58378 22.51263 6965.207)
(15.42104 19.07309 9480.473)
(20.77783 13.63475 11188.99)
(27.85295 6.477186 11965.18)
(37.50637 -3.398612 12908.76)
(51.05994 -17.87031 14073.12)
(70.67569 -40.46747 15546.68)
(94.81154 -82.08874 15430.64)
(54.89038 -177.977 13164.47)
(4.649048 21.67602 832.0028)
(5.786093 21.54288 2593.433)
(7.424648 20.81598 4517.999)
(9.71148 19.36339 6638.808)
(12.86407 16.94473 9006.364)
(17.19882 13.20091 10582.52)
(22.80167 8.438534 11250.46)
(30.17022 2.231005 12050.45)
(40.1602 -6.23931 13018.31)
(54.08808 -18.48745 14205.48)
(73.89806 -37.36651 13882.99)
(94.84234 -69.54883 11674.45)
(53.12561 -140.8818 9148.306)
(3.924066 13.96182 802.7908)
(4.883376 13.96007 2495.652)
(6.281502 13.58568 4335.687)
(8.231236 12.78947 6354.824)
(10.89155 11.45882 8597.467)
(14.49955 9.411028 10065.02)
(19.06632 6.898607 10647.96)
(24.94972 3.710187 11339.93)
(32.66048 -0.4343355 12165.91)
(43.06335 -6.067186 13161.09)
(57.48958 -14.16416 12732.24)
(76.36317 -25.67674 10575.74)
(94.81492 -45.22626 8210.111)
(51.77456 -87.66718 5455.53)
(3.31692 4.735115 777.5301)
(4.135699 4.75035 2411.096)
(5.340779 4.66523 4178.358)
(7.027597 4.438877 6110.776)
(9.324094 4.049821 8248.26)
(12.40605 3.450937 9625.681)
(16.23541 2.733056 10140.1)
(21.07017 1.849823 10746.8)
(27.28295 0.725937 11465.03)
(35.40561 -0.7386798 12319.72)
(46.33025 -2.732624 11834.07)
(60.32279 -5.353485 9748.455)
(78.49585 -9.093392 7481.574)
(95.31022 -15.46995 4939.591)
(51.10277 -29.25165 1835.758)
(25.34776 10.84272 1576.984)
(48.22866 -2.761377 1442.762)
(26.36995 -2.226514 5006.709)
(39.88025 -3.853691 1333.345)
(48.94458 -6.254398 4482.612)
(27.61048 -16.16076 8747.502)
(30.64637 -1.591422 1245.154)
(40.39331 -3.17458 4100.504)
(50.62277 -8.503583 7691.759)
(29.59804 -21.45514 12660.56)
(23.8032 -0.1363458 1172.895)
(31.16642 -0.6945194 3810.351)
(41.87808 -2.401014 6989.326)
(54.14922 -6.981671 10995.57)
(32.90768 -16.06001 16749.7)
(18.6958 0.1217403 1112.522)
(24.29955 0.02394592 3580.108)
(32.50149 -0.2432466 6475.888)
(44.62808 -0.9166768 9954.631)
(60.08058 -2.533254 14428.37)
(37.87383 -5.143277 19090.11)
(14.90053 -0.1483482 1061.294)
(19.14019 -0.09855679 3390.55)
(25.4459 0.01502565 6075.33)
(34.72834 0.273292 9212.222)
(48.78248 0.8620483 13034.26)
(68.58832 2.139712 16374.79)
(43.3668 3.779824 19550.95)
(11.9928 -0.002662815 1016.89)
(15.2895 0.0540949 3230.192)
(20.1118 0.1603812 5746.997)
(27.2523 0.3455602 8637.476)
(37.85481 0.7223438 12053.7)
(54.31338 1.528356 14768)
(77.6608 3.23876 16753.38)
(49.09641 2.820997 19953.78)
(9.745562 1.876648 977.4984)
(12.33264 1.858761 3090.189)
(16.11828 1.769344 5467.478)
(21.60074 1.544526 8164.227)
(29.69408 1.071221 11293.37)
(41.81019 0.1718146 13636.35)
(59.98789 -1.23716 15082.78)
(86.5903 -4.080754 17109.71)
(54.54329 -18.55369 20283.88)
(7.992468 7.079705 941.2719)
(10.04629 6.954265 2963.481)
(13.04891 6.532377 5218.917)
(17.3704 5.6609 7754.265)
(23.57483 4.077279 10657.5)
(32.69986 1.284599 12746)
(45.71197 -3.16136 13885.36)
(65.36019 -10.49303 15370.93)
(94.26052 -25.11476 17418.98)
(58.88315 -70.69146 20504.47)
(6.601321 16.04495 906.357)
(8.267429 15.82422 2843.162)
(10.67894 15.05416 4987.04)
(14.12506 13.49024 7378.861)
(19.01424 10.75067 10091.03)
(25.97248 6.233603 11982.35)
(35.58622 -0.3277043 12919.54)
(49.28537 -10.40464 14090.28)
(69.87028 -26.81123 15600.5)
(99.30396 -58.7789 17642.81)
(61.11517 -147.1285 18143.63)
(5.495901 23.86571 871.474)
(6.871028 23.6968 2724.766)
(8.848247 22.75969 4762.425)
(11.63886 20.87399 7021.448)
(15.54983 17.64901 9562.17)
(21.02604 12.46878 11290.77)
(28.28793 5.508863 12079.33)
(38.26014 -4.304511 13041)
(52.38334 -19.0026 14233.01)
(73.26664 -42.47677 15752.64)
(101.2361 -86.99678 15691.71)
(59.82065 -196.6452 13522.24)
(4.610103 25.48112 837.8341)
(5.758868 25.37765 2611.767)
(7.416299 24.55316 4550.591)
(9.730942 22.84448 6688.57)
(12.92903 19.97175 9077.418)
(17.33897 15.48151 10669.24)
(23.05266 9.705737 11345.16)
(30.59268 2.081624 12156.05)
(40.87199 -8.467476 13139.42)
(55.3125 -23.9536 14349.55)
(76.24388 -48.21567 14043.42)
(100.288 -90.48609 11840.83)
(57.13797 -188.7852 9345.504)
(3.892672 21.30238 806.9791)
(4.856823 21.26628 2508.738)
(6.267218 20.6887 4358.781)
(8.232288 19.43825 6389.778)
(10.91679 17.35156 8646.846)
(14.56386 14.14334 10124.54)
(19.18814 10.19068 10711.92)
(25.15572 5.151153 11409.74)
(32.99567 -1.433296 12243.61)
(43.61419 -10.43605 13249.84)
(58.41974 -23.46706 12825.39)
(78.0787 -42.18263 10662.92)
(98.61637 -74.34201 8292.07)
(54.4965 -146.1228 5534.638)
(3.297025 13.70871 779.6477)
(4.115838 13.7054 2417.677)
(5.325095 13.42933 4189.888)
(7.018877 12.73572 6128.105)
(9.324443 11.5586 8272.547)
(12.42094 9.762075 9654.697)
(16.27112 7.608415 10170.95)
(21.13657 4.959488 10780.04)
(27.39432 1.590851 11501.41)
(35.586 -2.797033 12360.33)
(46.62551 -8.769592 11875.44)
(60.80979 -16.64611 9785.396)
(79.37812 -27.91946 7513.337)
(97.22261 -47.19629 4964.653)
(52.44751 -89.2565 1849.013)
(2.790327 4.640292 755.9554)
(3.495373 4.650407 2338.712)
(4.544838 4.576024 4043.589)
(6.020623 4.387791 5902.253)
(8.030245 4.039665 7951.056)
(10.71809 3.503528 9253.015)
(14.00788 2.87554 9710.567)
(18.089 2.120508 10248.06)
(23.23308 1.189095 10880.64)
(29.83197 0.001559997 11627.64)
(38.44844 -1.54887 11108.98)
(49.09489 -3.45693 9099.389)
(62.75889 -5.979105 6926.079)
(80.48765 -9.597506 4520.244)
(96.54024 -15.80429 1672.419)
(24.47276 16.98258 1530)
(47.59164 -0.741798 1418.816)
(25.98044 14.74052 4855.059)
(39.83276 -6.010255 1324.462)
(49.44059 -1.164275 4434.334)
(27.92071 4.967941 8549.521)
(30.70537 -3.955589 1243.361)
(40.74178 -3.346563 4088.909)
(51.75406 -4.246751 7646.532)
(30.27809 -8.283949 12477.4)
(23.83692 -1.367065 1173.348)
(31.30154 -1.518319 3810.146)
(42.3004 -2.760396 6982.742)
(55.21396 -6.867191 10963.37)
(33.51805 -14.80444 16610.75)
(18.70622 -0.01554426 1113.101)
(24.33155 -0.1746254 3581.586)
(32.59533 -0.709498 6477.184)
(44.88428 -2.20308 9952.346)
(60.64986 -5.934682 14410.98)
(38.17418 -11.51914 19020.74)
(14.90053 0.1483483 1061.294)
(19.14019 0.09855684 3390.55)
(25.4459 -0.01502588 6075.33)
(34.72834 -0.273292 9212.222)
(48.78248 -0.8620535 13034.26)
(68.58833 -2.139717 16374.79)
(43.3668 -3.77992 19550.95)
(11.9899 -0.1629669 1016.3)
(15.28542 -0.1244954 3228.416)
(20.10256 -0.05316307 5744.207)
(27.22627 0.07117134 8634.291)
(37.78285 0.3088948 12051.87)
(54.13407 0.7843184 14771.84)
(77.35366 1.759647 16772.07)
(48.98937 2.462447 20018.55)
(9.742476 -0.02144563 976.746)
(12.33338 0.05112504 3087.938)
(16.12196 0.1584668 5464.001)
(21.60507 0.2967299 8160.337)
(29.68965 0.4644978 11291.05)
(41.77251 0.6977249 13639.56)
(59.86849 1.140759 15098.37)
(86.56646 1.937608 17155.99)
(54.75996 -1.34992 20427.02)
(7.986376 1.845332 941.2075)
(10.05131 1.907309 2963.444)
(13.06778 1.911949 5219.503)
(17.40879 1.814423 7756.788)
(23.64318 1.518918 10664.42)
(32.81616 0.8413458 12759.89)
(45.89828 -0.3805563 13909.91)
(65.70671 -2.467467 15417.07)
(95.51052 -6.929502 17515.42)
(60.15155 -26.53526 20760.64)
(6.585792 6.989393 908.2204)
(8.269636 7.000941 2849.233)
(10.70396 6.775326 4998.547)
(14.18591 6.197112 7398.061)
(19.13176 5.074138 10121.58)
(26.18563 3.074458 12024.21)
(35.96111 -0.04953426 12972.42)
(49.94543 -5.080732 14161.91)
(71.18994 -13.53489 15706.89)
(103.0402 -30.6659 17824.73)
(64.31647 -84.10928 18512.48)
(5.46338 15.76377 876.1508)
(6.853672 15.77085 2739.627)
(8.860239 15.23668 4789.37)
(11.69146 14.06318 7063.737)
(15.66987 11.95793 9624.674)
(21.25553 8.461489 11369.89)
(28.69082 3.585342 12169.72)
(38.96137 -3.537923 13148.58)
(53.6237 -14.53453 14368)
(75.73789 -32.58555 15935.4)
(107.7541 -68.00507 15938.95)
(64.9677 -162.2346 13898.27)
(4.568151 23.48284 843.855)
(5.725952 23.42354 2630.717)
(7.407146 22.76511 4584.393)
(9.755482 21.23135 6740.46)
(13.00649 18.59302 9152.036)
(17.50392 14.38645 10760.88)
(23.34782 8.868726 11445.93)
(31.09168 1.427626 12269.6)
(41.71834 -9.102805 13271.62)
(56.78176 -24.91747 14510.14)
(79.10124 -50.28898 14227.05)
(107.217 -95.8719 12038.44)
(62.3393 -209.0664 9596.836)
(3.852352 25.07073 812.51)
(4.82045 25.00704 2526.037)
(6.245965 24.38833 4389.346)
(8.234551 22.95265 6436.151)
(10.95337 20.49729 8712.564)
(14.65541 16.68574 10203.97)
(19.36114 11.93868 10797.47)
(25.44868 5.815958 11503.47)
(33.47412 -2.28889 12348.54)
(44.40467 -13.53068 13370.67)
(59.76396 -30.05696 12953.52)
(80.58417 -54.22995 10784.53)
(104.3313 -96.64825 8408.89)
(58.63684 -195.9182 5652.473)
(3.267376 20.95887 783.6333)
(4.08615 20.91361 2430.086)
(5.302433 20.4606 4211.666)
(7.011425 19.39654 6160.894)
(9.336304 17.5629 8318.594)
(12.46256 14.75948 9709.779)
(16.35504 11.38671 10229.54)
(21.28249 7.22056 10843.15)
(27.63086 1.897067 11570.5)
(35.96148 -5.074231 12437.51)
(47.23207 -14.62266 11954.23)
(61.80311 -27.33883 9856.067)
(81.17161 -45.71807 7574.528)
(101.1374 -77.50001 5013.493)
(55.21018 -148.7595 1875.491)
(2.771736 13.46638 757.9777)
(3.476278 13.46458 2344.978)
(4.526764 13.20222 4054.521)
(6.00804 12.62774 5918.602)
(8.02639 11.58093 7973.851)
(10.7257 9.976142 9280.074)
(14.03132 8.094882 9739.096)
(18.135 5.833362 10278.47)
(23.31216 3.044734 10913.49)
(29.95941 -0.5085661 11663.71)
(38.64999 -5.145987 11145.02)
(49.41222 -10.87348 9130.798)
(63.26934 -18.46864 6951.997)
(81.39562 -29.39489 4539.123)
(98.48055 -48.18235 1680.777)
(2.343849 4.54921 735.704)
(2.957631 4.559399 2270.99)
(3.877347 4.484493 3918.005)
(5.177111 4.313048 5708.681)
(6.949159 4.011275 7676.443)
(9.314865 3.52708 8910.577)
(12.18451 2.967443 9318.703)
(15.69163 2.309793 9796.817)
(20.03536 1.516699 10357.3)
(25.50111 0.5357939 11015.38)
(32.50032 -0.7171077 10477.52)
(40.83182 -2.180247 8544.813)
(51.14482 -3.988954 6464.704)
(64.39027 -6.39024 4180.665)
(81.53155 -9.848541 1528.253)
(23.51594 14.81759 1493.417)
(46.17493 -1.335596 1393.194)
(25.01999 20.32529 4713.262)
(39.23324 -9.694569 1308.888)
(48.66403 1.240935 4361.871)
(27.32051 22.58059 8294.307)
(30.53921 -9.231464 1237.475)
(40.65391 -5.031995 4061.84)
(52.00813 2.068262 7564.732)
(30.3091 15.90128 12195.39)
(23.80977 -4.925269 1172.455)
(31.34893 -3.648422 3804.552)
(42.59249 -2.307109 6962.788)
(56.08343 -1.173332 10898.46)
(33.92622 2.446019 16369.03)
(18.70934 -1.525685 1113.757)
(24.36251 -1.349471 3582.857)
(32.71696 -1.359431 6476.576)
(45.25404 -2.113061 9942.566)
(61.49473 -4.619068 14368.08)
(38.56872 -6.228189 18866.33)
(14.90466 -0.0009328439 1061.891)
(19.15024 -0.06495031 3392.265)
(25.47555 -0.2463441 6077.708)
(34.81289 -0.7220447 9213.863)
(49.00492 -1.918432 13030.95)
(69.02422 -4.570201 16355.45)
(43.56882 -7.108484 19483.94)
(11.9899 0.1629671 1016.3)
(15.28542 0.1244955 3228.416)
(20.10256 0.05316312 5744.207)