/*--------------------------------*- C++ -*----------------------------------*\
| =========                 |                                                 |
| \\      /  F ield         | OpenFOAM: The Open Source CFD Toolbox           |
|  \\    /   O peration     | Version:  2306                                  |
|   \\  /    A nd           | Website:  www.openfoam.com                      |
|    \\/     M anipulation  |                                                 |
\*---------------------------------------------------------------------------*/
FoamFile
{
    version     2.0;
    format      ascii;
    arch        "LSB;label=32;scalar=64";
    class       volScalarField;
    location    "0.3/phiI";
    object      J;
}
// * * * * * * * * * * * * * * * * * * * * * * * * * * * * * * * * * * * * * //

dimensions      [0 -3 0 0 0 1 0];

internalField   nonuniform List<scalar> 
12000
(
-6.741392e+08
-6.800545e+08
-6.276844e+08
-6.799728e+08
-6.921361e+08
-6.315761e+08
-6.859892e+08
-5.897643e+08
-6.329087e+08
-6.949837e+08
-7.10254e+08
-6.393088e+08
-6.982739e+08
-5.928114e+08
-6.368704e+08
-7.012439e+08
-5.595316e+08
-5.945239e+08
-6.462331e+08
-7.196173e+08
-7.33605e+08
-6.502441e+08
-7.166875e+08
-5.987854e+08
-6.447427e+08
-7.140242e+08
-5.620983e+08
-5.976264e+08
-6.503575e+08
-7.262758e+08
-5.343308e+08
-5.639359e+08
-6.065377e+08
-6.680157e+08
-7.547339e+08
-7.589605e+08
-6.630128e+08
-7.403846e+08
-6.070098e+08
-6.558825e+08
-7.331802e+08
-5.670907e+08
-6.037106e+08
-6.585548e+08
-7.398681e+08
-5.365766e+08
-5.665492e+08
-6.09767e+08
-6.724025e+08
-7.619666e+08
-5.125112e+08
-5.384462e+08
-5.749474e+08
-6.261011e+08
-6.989518e+08
0
-7.792975e+08
-6.749297e+08
-7.660302e+08
-6.161495e+08
-6.689062e+08
-7.578135e+08
-5.738669e+08
-6.120957e+08
-6.701685e+08
-7.602501e+08
-5.409213e+08
-5.716339e+08
-6.161022e+08
-6.811238e+08
-7.767325e+08
-5.14523e+08
-5.407326e+08
-5.776663e+08
-6.295332e+08
-7.037132e+08
0
-4.932291e+08
-5.1638e+08
-5.486497e+08
-5.928169e+08
-6.537897e+08
0
0
-7.93184e+08
-6.829465e+08
-7.86544e+08
-6.239157e+08
-6.810891e+08
-7.844066e+08
-5.811954e+08
-6.214382e+08
-6.837758e+08
-7.864587e+08
-5.467713e+08
-5.785443e+08
-6.24849e+08
-6.935008e+08
-7.988939e+08
-5.183991e+08
-5.451573e+08
-5.829588e+08
-6.362697e+08
-7.131827e+08
0
-4.950612e+08
-5.184277e+08
-5.510271e+08
-5.957037e+08
-6.575094e+08
0
0
-4.759119e+08
-4.968823e+08
-5.259024e+08
-5.651585e+08
-6.180355e+08
0
0
0
-8.01571e+08
-6.87582e+08
-8.005079e+08
-6.282893e+08
-6.892947e+08
-8.056239e+08
-5.870794e+08
-6.294264e+08
-6.965486e+08
-8.147089e+08
-5.530016e+08
-5.860424e+08
-6.346315e+08
-7.08045e+08
-8.274103e+08
-5.235933e+08
-5.51123e+08
-5.901669e+08
-6.455927e+08
-7.266499e+08
0
-4.985797e+08
-5.223745e+08
-5.556305e+08
-6.01327e+08
-6.648151e+08
0
0
-4.77599e+08
-4.987467e+08
-5.280303e+08
-5.676802e+08
-6.211594e+08
0
0
0
-4.601988e+08
-4.79373e+08
-5.05817e+08
-5.412693e+08
-5.884001e+08
0
0
0
0
-8.05493e+08
-6.900453e+08
-8.089189e+08
-6.301775e+08
-6.940279e+08
-8.200224e+08
-5.899618e+08
-6.339661e+08
-7.051696e+08
-8.371973e+08
-5.578401e+08
-5.921151e+08
-6.430627e+08
-7.217571e+08
-8.58131e+08
-5.290758e+08
-5.574992e+08
-5.980243e+08
-6.560688e+08
-7.42531e+08
0
-5.032807e+08
-5.276706e+08
-5.61851e+08
-6.090062e+08
-6.749541e+08
0
0
-4.808295e+08
-5.023285e+08
-5.321342e+08
-5.725668e+08
-6.272493e+08
0
0
0
-4.617667e+08
-4.810894e+08
-5.077532e+08
-5.435239e+08
-5.911247e+08
0
0
0
0
-4.45805e+08
-4.63487e+08
-4.877909e+08
-5.202025e+08
-5.628578e+08
0
0
0
0
0
-8.05493e+08
-6.911129e+08
-8.128453e+08
-6.308264e+08
-6.965311e+08
-8.286716e+08
-5.908149e+08
-6.359474e+08
-7.101366e+08
-8.52414e+08
-5.599889e+08
-5.951421e+08
-6.479091e+08
-7.310377e+08
-8.825407e+08
-5.332508e+08
-5.625007e+08
-6.044578e+08
-6.651804e+08
-7.575784e+08
0
-5.082165e+08
-5.332809e+08
-5.685331e+08
-6.17425e+08
-6.864077e+08
0
0
-4.851374e+08
-5.071206e+08
-5.376535e+08
-5.79189e+08
-6.355922e+08
0
0
0
-4.647613e+08
-4.843773e+08
-5.114753e+08
-5.478761e+08
-5.964096e+08
0
0
0
0
-4.47272e+08
-4.650817e+08
-4.895722e+08
-5.222519e+08
-5.652903e+08
0
0
0
0
0
-4.325387e+08
-4.489361e+08
-4.714452e+08
-5.013171e+08
-5.403753e+08
0
0
0
0
0
1.096346e+09
-8.01571e+08
-6.911129e+08
-8.128453e+08
-6.309923e+08
-6.97611e+08
-8.327021e+08
-5.908155e+08
-6.366396e+08
-7.127542e+08
-8.615309e+08
-5.603971e+08
-5.960791e+08
-6.500581e+08
-7.363843e+08
-8.990146e+08
-5.349863e+08
-5.64776e+08
-6.07733e+08
-6.704846e+08
-7.677949e+08
0
-5.119325e+08
-5.375986e+08
-5.738408e+08
-6.244031e+08
-6.96466e+08
0
0
-4.89645e+08
-5.1217e+08
-5.435309e+08
-5.863468e+08
-6.447967e+08
0
0
0
-4.687491e+08
-4.887674e+08
-5.164663e+08
-5.537466e+08
-6.035957e+08
0
0
0
0
-4.500672e+08
-4.681288e+08
-4.929869e+08
-5.261953e+08
-5.699906e+08
0
0
0
0
0
-4.339191e+08
-4.504278e+08
-4.730991e+08
-5.032006e+08
-5.425831e+08
0
0
0
0
0
1.104666e+09
-4.202451e+08
-4.355262e+08
-4.56481e+08
-4.842096e+08
-5.202539e+08
0
0
0
0
0
9.892485e+08
1.043599e+09
-7.93184e+08
-6.900453e+08
-8.089189e+08
-6.309923e+08
-6.97611e+08
-8.327021e+08
-5.906675e+08
-6.368214e+08
-7.138794e+08
-8.657717e+08
-5.601493e+08
-5.961205e+08
-6.508293e+08
-7.391958e+08
-9.088609e+08
-5.35183e+08
-5.652585e+08
-6.088043e+08
-6.728815e+08
-7.736854e+08
0
-5.134122e+08
-5.394456e+08
-5.763262e+08
-6.280376e+08
-7.02398e+08
0
0
-4.930145e+08
-5.160125e+08
-5.48115e+08
-5.921131e+08
-6.525244e+08
0
0
0
-4.729124e+08
-4.933771e+08
-5.21753e+08
-5.600381e+08
-6.114164e+08
0
0
0
0
-4.537858e+08
-4.721915e+08
-4.975564e+08
-5.314988e+08
-5.763526e+08
0
0
0
0
0
-4.365433e+08
-4.532713e+08
-4.762617e+08
-5.068149e+08
-5.468361e+08
0
0
0
0
0
1.121181e+09
-4.215497e+08
-4.369294e+08
-4.580271e+08
-4.859567e+08
-5.222802e+08
0
0
0
0
0
9.944354e+08
1.051238e+09
-4.088098e+08
-4.231006e+08
-4.426968e+08
-4.685629e+08
-5.020539e+08
0
0
0
0
0
8.947751e+08
9.445158e+08
1.006385e+09
-7.792974e+08
-6.87582e+08
-8.005079e+08
-6.308264e+08
-6.965311e+08
-8.286716e+08
-5.906675e+08
-6.368214e+08
-7.138794e+08
-8.657717e+08
-5.598896e+08
-5.959886e+08
-6.510413e+08
-7.40401e+08
-9.134335e+08
-5.348388e+08
-5.650478e+08
-6.089082e+08
-6.737698e+08
-7.767792e+08
0
-5.135033e+08
-5.397083e+08
-5.769219e+08
-6.292974e+08
-7.051318e+08
0
0
-4.943168e+08
-5.175915e+08
-5.501445e+08
-5.94898e+08
-6.56642e+08
0
0
0
-4.760102e+08
-4.968598e+08
-5.258314e+08
-5.650196e+08
-6.178099e+08
0
0
0
0
-4.576621e+08
-4.764474e+08
-5.023795e+08
-5.371528e+08
-5.832196e+08
0
0
0
0
0
-4.400316e+08
-4.570586e+08
-4.804878e+08
-5.116657e+08
-5.52576e+08
0
0
0
0
0
1.145815e+09
-4.240248e+08
-4.395982e+08
-4.609767e+08
-4.89301e+08
-5.261732e+08
0
0
0
0
0
1.004473e+09
1.066385e+09
-4.100478e+08
-4.244265e+08
-4.441504e+08
-4.701946e+08
-5.03931e+08
0
0
0
0
0
8.986128e+08
9.493065e+08
1.013573e+09
-3.981295e+08
-4.115434e+08
-4.299302e+08
-4.541628e+08
-4.854311e+08
0
0
0
0
0
8.186738e+08
8.566204e+08
9.127051e+08
9.833025e+08
-7.589605e+08
-6.829465e+08
-7.86544e+08
-6.301775e+08
-6.940279e+08
-8.200224e+08
-5.908155e+08
-6.366396e+08
-7.127542e+08
-8.615309e+08
-5.598896e+08
-5.959886e+08
-6.510413e+08
-7.40401e+08
-9.134335e+08
-5.345427e+08
-5.648028e+08
-6.087997e+08
-6.740268e+08
-7.781031e+08
0
-5.131272e+08
-5.393973e+08
-5.767635e+08
-6.294869e+08
-7.061793e+08
0
0
-4.943493e+08
-5.177417e+08
-5.505054e+08
-5.956485e+08
-6.581502e+08
0
0
0
-4.771825e+08
-4.982515e+08
-5.27572e+08
-5.673074e+08
-6.209933e+08
0
0
0
0
-4.605374e+08
-4.796475e+08
-5.060737e+08
-5.415827e+08
-5.887429e+08
0
0
0
0
0
-4.436638e+08
-4.610195e+08
-4.849375e+08
-5.168189e+08
-5.587395e+08
0
0
0
0
0
1.17734e+09
-4.273132e+08
-4.431499e+08
-4.649137e+08
-4.937829e+08
-5.314163e+08
0
0
0
0
0
1.018869e+09
1.088954e+09
-4.123923e+08
-4.269429e+08
-4.469171e+08
-4.733107e+08
-5.075286e+08
0
0
0
0
0
9.059563e+08
9.585689e+08
1.027817e+09
-3.993098e+08
-4.128013e+08
-4.313028e+08
-4.556953e+08
-4.871819e+08
0
0
0
0
0
8.217445e+08
8.601825e+08
9.172269e+08
9.902374e+08
-3.881277e+08
-4.007501e+08
-4.180607e+08
-4.408364e+08
-4.701519e+08
0
0
0
0
0
7.558803e+08
7.855022e+08
8.293253e+08
8.927408e+08
9.729914e+08
-7.33605e+08
-6.749297e+08
-7.660301e+08
-6.282893e+08
-6.892947e+08
-8.056239e+08
-5.908149e+08
-6.359474e+08
-7.101366e+08
-8.52414e+08
-5.601493e+08
-5.961205e+08
-6.508293e+08
-7.391958e+08
-9.088609e+08
-5.345427e+08
-5.648028e+08
-6.087997e+08
-6.740268e+08
-7.781031e+08
0
-5.128254e+08
-5.391145e+08
-5.765382e+08
-6.294099e+08
-7.064975e+08
0
0
-4.939671e+08
-5.173953e+08
-5.502396e+08
-5.955588e+08
-6.584502e+08
0
0
0
-4.771807e+08
-4.983372e+08
-5.27809e+08
-5.678008e+08
-6.219444e+08
0
0
0
0
-4.616086e+08
-4.809008e+08
-5.076104e+08
-5.435512e+08
-5.913724e+08
0
0
0
0
0
-4.463523e+08
-4.639879e+08
-4.883293e+08
-5.208283e+08
-5.636477e+08
0
0
0
0
0
1.210434e+09
-4.30736e+08
-4.4686e+08
-4.690519e+08
-4.985323e+08
-5.370267e+08
0
0
0
0
0
1.036188e+09
1.117799e+09
-4.15508e+08
-4.302901e+08
-4.50607e+08
-4.774822e+08
-5.123666e+08
0
0
0
0
0
9.162871e+08
9.718442e+08
1.049037e+09
-4.015416e+08
-4.151844e+08
-4.339102e+08
-4.586157e+08
-4.9053e+08
0
0
0
0
0
8.275802e+08
8.669929e+08
9.259648e+08
1.003983e+09
-3.892564e+08
-4.019491e+08
-4.193623e+08
-4.422824e+08
-4.717943e+08
0
0
0
0
0
7.58442e+08
7.883638e+08
8.326977e+08
8.971056e+08
9.798444e+08
-3.78731e+08
-3.906435e+08
-4.069803e+08
-4.284558e+08
-4.560286e+08
0
0
0
0
0
7.025945e+08
7.266076e+08
7.616713e+08
8.12056e+08
8.835818e+08
-7.10254e+08
-6.630128e+08
-7.403845e+08
-6.239157e+08
-6.810891e+08
-7.844066e+08
-5.899618e+08
-6.339661e+08
-7.051696e+08
-8.371972e+08
-5.603971e+08
-5.960791e+08
-6.500581e+08
-7.363843e+08
-8.990146e+08
-5.348388e+08
-5.650478e+08
-6.089082e+08
-6.737698e+08
-7.767792e+08
0
-5.128254e+08
-5.391145e+08
-5.765382e+08
-6.294099e+08
-7.064975e+08
0
0
-4.936709e+08
-5.171055e+08
-5.499737e+08
-5.953581e+08
-6.584132e+08
0
0
0
-4.768034e+08
-4.979818e+08
-5.275027e+08
-5.675931e+08
-6.219409e+08
0
0
0
0
-4.615857e+08
-4.809473e+08
-5.077741e+08
-5.439047e+08
-5.920357e+08
0
0
0
0
0
-4.473426e+08
-4.651331e+08
-4.89714e+08
-5.22569e+08
-5.659165e+08
0
0
0
0
0
1.234177e+09
-4.3327e+08
-4.496338e+08
-4.721954e+08
-5.022097e+08
-5.414643e+08
0
0
0
0
0
1.052766e+09
1.14803e+09
-4.187514e+08
-4.337849e+08
-4.544804e+08
-4.818947e+08
-5.175307e+08
0
0
0
0
0
9.283142e+08
9.878054e+08
1.076159e+09
-4.045051e+08
-4.183548e+08
-4.373855e+08
-4.625217e+08
-4.950273e+08
0
0
0
0
0
8.356802e+08
8.765699e+08
9.384872e+08
1.024474e+09
-3.913852e+08
-4.04217e+08
-4.2183e+08
-4.450321e+08
-4.749284e+08
0
0
0
0
0
7.632889e+08
7.937975e+08
8.39142e+08
9.055394e+08
9.934383e+08
-3.798122e+08
-3.917897e+08
-4.082201e+08
-4.298256e+08
-4.575764e+08
0
0
0
0
0
7.047865e+08
7.290027e+08
7.643876e+08
8.153148e+08
8.878864e+08
-3.698855e+08
-3.811489e+08
-3.966085e+08
-4.169063e+08
-4.429216e+08
0
0
0
0
0
6.564496e+08
6.764769e+08
7.055109e+08
7.465141e+08
8.040101e+08
-6.921361e+08
-6.502441e+08
-7.166875e+08
-6.161495e+08
-6.689062e+08
-7.578135e+08
-5.870794e+08
-6.294264e+08
-6.965486e+08
-8.147089e+08
-5.599889e+08
-5.951421e+08
-6.479091e+08
-7.310377e+08
-8.825407e+08
-5.35183e+08
-5.652585e+08
-6.088043e+08
-6.728815e+08
-7.736854e+08
0
-5.131272e+08
-5.393973e+08
-5.767635e+08
-6.294869e+08
-7.061793e+08
0
0
-4.936709e+08
-5.171055e+08
-5.499737e+08
-5.953581e+08
-6.584132e+08
0
0
0
-4.76517e+08
-4.976965e+08
-5.272277e+08
-5.673479e+08
-6.217703e+08
0
0
0
0
-4.612183e+08
-4.805944e+08
-5.074545e+08
-5.436492e+08
-5.919e+08
0
0
0
0
0
-4.473081e+08
-4.651545e+08
-4.898313e+08
-5.228369e+08
-5.664187e+08
0
0
0
0
0
1.248005e+09
-4.341975e+08
-4.506922e+08
-4.734609e+08
-5.037793e+08
-5.434734e+08
0
0
0
0
0
1.063474e+09
1.169611e+09
-4.211476e+08
-4.363975e+08
-4.574152e+08
-4.852992e+08
-5.215959e+08
0
0
0
0
0
9.392173e+08
1.00307e+09
1.104595e+09
-4.075858e+08
-4.21665e+08
-4.410315e+08
-4.666476e+08
-4.998189e+08
0
0
0
0
0
8.448902e+08
8.877146e+08
9.535443e+08
1.050706e+09
-3.942104e+08
-4.072317e+08
-4.251198e+08
-4.487077e+08
-4.791345e+08
0
0
0
0
0
7.699491e+08
8.013368e+08
8.482033e+08
9.176306e+08
1.013735e+09
-3.818478e+08
-3.939524e+08
-4.105673e+08
-4.324261e+08
-4.60524e+08
0
0
0
0
0
7.08922e+08
7.335306e+08
7.695424e+08
8.215406e+08
8.962069e+08
-3.709235e+08
-3.822466e+08
-3.97793e+08
-4.1821e+08
-4.443862e+08
0
0
0
0
0
6.583607e+08
6.785321e+08
7.077895e+08
7.491419e+08
8.072217e+08
-3.6154e+08
-3.722121e+08
-3.868683e+08
-4.061024e+08
-4.307067e+08
0
0
0
0
0
6.158488e+08
6.329476e+08
6.576071e+08
6.920435e+08
7.39393e+08
-6.800545e+08
-6.393088e+08
-6.982739e+08
-6.070098e+08
-6.558825e+08
-7.331802e+08
-5.811954e+08
-6.214382e+08
-6.837758e+08
-7.864587e+08
-5.578401e+08
-5.921151e+08
-6.430627e+08
-7.217571e+08
-8.58131e+08
-5.349863e+08
-5.64776e+08
-6.07733e+08
-6.704846e+08
-7.677949e+08
0
-5.135033e+08
-5.397083e+08
-5.769219e+08
-6.292974e+08
-7.051318e+08
0
0
-4.939671e+08
-5.173953e+08
-5.502396e+08
-5.955588e+08
-6.584502e+08
0
0
0
-4.76517e+08
-4.976965e+08
-5.272277e+08
-5.673479e+08
-6.217703e+08
0
0
0
0
-4.609431e+08
-4.803179e+08
-5.071825e+08
-5.433922e+08
-5.916793e+08
0
0
0
0
0
-4.469541e+08
-4.648094e+08
-4.895109e+08
-5.225628e+08
-5.662257e+08
0
0
0
0
0
1.255126e+09
-4.341561e+08
-4.506985e+08
-4.73547e+08
-5.03991e+08
-5.43874e+08
0
0
0
0
0
1.068919e+09
1.18211e+09
-4.220173e+08
-4.373881e+08
-4.585843e+08
-4.867336e+08
-5.234084e+08
0
0
0
0
0
9.456993e+08
1.012894e+09
1.124823e+09
-4.098589e+08
-4.241342e+08
-4.437931e+08
-4.698226e+08
-5.035775e+08
0
0
0
0
0
8.529058e+08
8.978102e+08
9.679442e+08
1.078275e+09
-3.971458e+08
-4.103747e+08
-4.285708e+08
-4.525876e+08
-4.836092e+08
0
0
0
0
0
7.773849e+08
8.099053e+08
8.587479e+08
9.321814e+08
1.039795e+09
-3.845484e+08
-3.968255e+08
-4.136935e+08
-4.359023e+08
-4.644775e+08
0
0
0
0
0
7.145602e+08
7.397502e+08
7.766938e+08
8.302968e+08
9.081455e+08
-3.728743e+08
-3.843142e+08
-4.000302e+08
-4.206812e+08
-4.471708e+08
0
0
0
0
0
6.619599e+08
6.824065e+08
7.120946e+08
7.541276e+08
8.133585e+08
-3.625389e+08
-3.732657e+08
-3.880021e+08
-4.073469e+08
-4.32099e+08
0
0
0
0
0
6.175393e+08
6.347437e+08
6.595661e+08
6.942505e+08
7.419827e+08
-3.536575e+08
-3.637811e+08
-3.777033e+08
-3.959627e+08
-4.19291e+08
0
0
0
0
0
5.797016e+08
5.945558e+08
6.159329e+08
6.455292e+08
6.856865e+08
-6.741392e+08
-6.315761e+08
-6.859892e+08
-5.987854e+08
-6.447427e+08
-7.140242e+08
-5.738669e+08
-6.120957e+08
-6.701685e+08
-7.602501e+08
-5.530016e+08
-5.860424e+08
-6.346315e+08
-7.08045e+08
-8.274103e+08
-5.332508e+08
-5.625007e+08
-6.044578e+08
-6.651804e+08
-7.575784e+08
0
-5.134122e+08
-5.394456e+08
-5.763262e+08
-6.280376e+08
-7.02398e+08
0
0
-4.943493e+08
-5.177417e+08
-5.505054e+08
-5.956485e+08
-6.581502e+08
0
0
0
-4.768034e+08
-4.979818e+08
-5.275027e+08
-5.675931e+08
-6.219409e+08
0
0
0
0
-4.609431e+08
-4.803179e+08
-5.071825e+08
-5.433922e+08
-5.916793e+08
0
0
0
0
0
-4.466912e+08
-4.645433e+08
-4.892465e+08
-5.223068e+08
-5.659899e+08
0
0
0
0
0
1.258068e+09
-4.338146e+08
-4.503652e+08
-4.732318e+08
-5.037118e+08
-5.436555e+08
0
0
0
0
0
1.071314e+09
1.188511e+09
-4.219693e+08
-4.373845e+08
-4.586503e+08
-4.869061e+08
-5.237401e+08
0
0
0
0
0
9.485436e+08
1.017867e+09
1.136498e+09
-4.106782e+08
-4.250625e+08
-4.448863e+08
-4.711473e+08
-5.052337e+08
0
0
0
0
0
8.57344e+08
9.037936e+08
9.771811e+08
1.097849e+09
-3.9931e+08
-4.127158e+08
-4.311784e+08
-4.555716e+08
-4.871099e+08
0
0
0
0
0
7.836459e+08
8.173556e+08
8.682972e+08
9.461114e+08
1.067298e+09
-3.873536e+08
-3.998194e+08
-4.169681e+08
-4.39571e+08
-4.686802e+08
0
0
0
0
0
7.207624e+08
7.466898e+08
7.848204e+08
8.404914e+08
9.225346e+08
-3.754615e+08
-3.8706e+08
-4.03008e+08
-4.239818e+08
-4.509054e+08
0
0
0
0
0
6.668359e+08
6.87686e+08
7.18007e+08
7.610454e+08
8.219938e+08
-3.64413e+08
-3.752466e+08
-3.901398e+08
-4.097005e+08
-4.347423e+08
0
0
0
0
0
6.207201e+08
6.381238e+08
6.63257e+08
6.984192e+08
7.468965e+08
-3.546209e+08
-3.647947e+08
-3.78791e+08
-3.971531e+08
-4.206186e+08
0
0
0
0
0
5.812132e+08
5.961481e+08
6.17648e+08
6.474287e+08
6.87862e+08
-3.462016e+08
-3.558184e+08
-3.690597e+08
-3.864274e+08
-4.085866e+08
0
0
0
0
0
5.472213e+08
5.603009e+08
5.791145e+08
6.050205e+08
6.398126e+08
-6.276844e+08
-6.799728e+08
-5.928114e+08
-6.368704e+08
-7.012439e+08
-5.670907e+08
-6.037106e+08
-6.585548e+08
-7.398681e+08
-5.467713e+08
-5.785443e+08
-6.24849e+08
-6.935008e+08
-7.988939e+08
-5.290758e+08
-5.574992e+08
-5.980243e+08
-6.560688e+08
-7.42531e+08
0
-5.119325e+08
-5.375986e+08
-5.738408e+08
-6.244031e+08
-6.96466e+08
0
0
-4.943168e+08
-5.175915e+08
-5.501445e+08
-5.94898e+08
-6.56642e+08
0
0
0
-4.771807e+08
-4.983372e+08
-5.27809e+08
-5.678008e+08
-6.219444e+08
0
0
0
0
-4.612183e+08
-4.805944e+08
-5.074545e+08
-5.436492e+08
-5.919e+08
0
0
0
0
0
-4.466912e+08
-4.645433e+08
-4.892465e+08
-5.223068e+08
-5.659899e+08
0
0
0
0
0
1.258068e+09
-4.335625e+08
-4.501105e+08
-4.729768e+08
-5.034619e+08
-5.434183e+08
0
0
0
0
0
1.072163e+09
1.191143e+09
-4.216395e+08
-4.370622e+08
-4.583446e+08
-4.866286e+08
-5.235113e+08
0
0
0
0
0
9.49509e+08
1.020043e+09
1.14246e+09
-4.106255e+08
-4.250498e+08
-4.449381e+08
-4.71293e+08
-5.05516e+08
0
0
0
0
0
8.590032e+08
9.064079e+08
9.818415e+08
1.109136e+09
-4.000854e+08
-4.135899e+08
-4.322023e+08
-4.56809e+08
-4.886387e+08
0
0
0
0
0
7.868937e+08
8.214669e+08
8.739374e+08
9.550209e+08
1.086823e+09
-3.894202e+08
-4.02047e+08
-4.194384e+08
-4.423854e+08
-4.719656e+08
0
0
0
0
0
7.25842e+08
7.525257e+08
7.918818e+08
8.497265e+08
9.363352e+08
-3.781485e+08
-3.8992e+08
-4.061251e+08
-4.274597e+08
-4.548743e+08
0
0
0
0
0
6.72135e+08
6.934896e+08
7.24602e+08
7.689083e+08
8.32057e+08
-3.668987e+08
-3.778765e+08
-3.929841e+08
-4.128418e+08
-4.382843e+08
0
0
0
0
0
6.250074e+08
6.427007e+08
6.682854e+08
7.041444e+08
7.537168e+08
-3.564259e+08
-3.666974e+08
-3.808381e+08
-3.994002e+08
-4.231334e+08
0
0
0
0
0
5.840565e+08
5.99142e+08
6.208737e+08
6.510065e+08
6.919713e+08
-3.471327e+08
-3.567958e+08
-3.701057e+08
-3.875684e+08
-4.098551e+08
0
0
0
0
0
5.485852e+08
5.617275e+08
5.806373e+08
6.066851e+08
6.416857e+08
-3.391385e+08
-3.482872e+08
-3.608986e+08
-3.774394e+08
-3.985283e+08
0
0
0
0
0
5.178082e+08
5.2946e+08
5.462119e+08
5.691957e+08
5.99848e+08
-5.897643e+08
-6.329087e+08
-6.949837e+08
-5.620983e+08
-5.976264e+08
-6.503575e+08
-7.262758e+08
-5.409213e+08
-5.716339e+08
-6.161022e+08
-6.811238e+08
-7.767325e+08
-5.235933e+08
-5.51123e+08
-5.901669e+08
-6.455927e+08
-7.266499e+08
0
-5.082165e+08
-5.332809e+08
-5.685331e+08
-6.17425e+08
-6.864077e+08
0
0
-4.930145e+08
-5.160125e+08
-5.48115e+08
-5.921131e+08
-6.525244e+08
0
0
0
-4.771825e+08
-4.982515e+08
-5.27572e+08
-5.673074e+08
-6.209933e+08
0
0
0
0
-4.615857e+08
-4.809473e+08
-5.077741e+08
-5.439047e+08
-5.920357e+08
0
0
0
0
0
-4.469541e+08
-4.648094e+08
-4.895109e+08
-5.225628e+08
-5.662257e+08
0
0
0
0
0
1.255126e+09
-4.335625e+08
-4.501105e+08
-4.729768e+08
-5.034619e+08
-5.434183e+08
0
0
0
0
0
1.072163e+09
1.191143e+09
-4.213974e+08
-4.368179e+08
-4.581002e+08
-4.863869e+08
-5.232784e+08
0
0
0
0
0
9.497332e+08
1.020809e+09
1.144906e+09
-4.103067e+08
-4.247379e+08
-4.446415e+08
-4.710221e+08
-5.052846e+08
0
0
0
0
0
8.593515e+08
9.072884e+08
9.838734e+08
1.1149e+09
-4.000294e+08
-4.135702e+08
-4.322413e+08
-4.569348e+08
-4.888856e+08
0
0
0
0
0
7.878988e+08
8.229948e+08
8.763919e+08
9.59508e+08
1.098099e+09
-3.901573e+08
-4.028739e+08
-4.204018e+08
-4.435435e+08
-4.73392e+08
0
0
0
0
0
7.283212e+08
7.555402e+08
7.957629e+08
8.551611e+08
9.451409e+08
-3.80129e+08
-3.920462e+08
-4.084739e+08
-4.301231e+08
-4.57969e+08
0
0
0
0
0
6.763743e+08
6.982346e+08
7.301419e+08
7.757387e+08
8.411794e+08
-3.694822e+08
-3.80615e+08
-3.959599e+08
-4.161495e+08
-4.420424e+08
0
0
0
0
0
6.296206e+08
6.476704e+08
6.738103e+08
7.105308e+08
7.614733e+08
-3.588215e+08
-3.692234e+08
-3.835609e+08
-4.023983e+08
-4.265009e+08
0
0
0
0
0
5.878732e+08
6.031751e+08
6.252402e+08
6.558806e+08
6.976164e+08
-3.488755e+08
-3.586279e+08
-3.720709e+08
-3.897187e+08
-4.122538e+08
0
0
0
0
0
5.511511e+08
5.644091e+08
5.83499e+08
6.098152e+08
6.452137e+08
-3.400408e+08
-3.492316e+08
-3.619067e+08
-3.785358e+08
-3.99743e+08
0
0
0
0
0
5.19048e+08
5.307495e+08
5.475781e+08
5.706752e+08
6.014902e+08
-3.324566e+08
-3.411532e+08
-3.531819e+08
-3.689574e+08
-3.890548e+08
0
0
0
0
0
4.910009e+08
5.014804e+08
5.165457e+08
5.371506e+08
5.644911e+08
-5.595316e+08
-5.945239e+08
-6.462331e+08
-7.196173e+08
-5.365766e+08
-5.665492e+08
-6.09767e+08
-6.724025e+08
-7.619666e+08
-5.183991e+08
-5.451573e+08
-5.829588e+08
-6.362697e+08
-7.131827e+08
0
-5.032807e+08
-5.276706e+08
-5.61851e+08
-6.090062e+08
-6.749541e+08
0
0
-4.89645e+08
-5.1217e+08
-5.435309e+08
-5.863468e+08
-6.447967e+08
0
0
0
-4.760102e+08
-4.968598e+08
-5.258314e+08
-5.650196e+08
-6.178099e+08
0
0
0
0
-4.616086e+08
-4.809008e+08
-5.076104e+08
-5.435512e+08
-5.913724e+08
0
0
0
0
0
-4.473081e+08
-4.651545e+08
-4.898313e+08
-5.228369e+08
-5.664187e+08
0
0
0
0
0
1.248005e+09
-4.338146e+08
-4.503652e+08
-4.732318e+08
-5.037118e+08
-5.436555e+08
0
0
0
0
0
1.071314e+09
1.188511e+09
-4.213974e+08
-4.368179e+08
-4.581002e+08
-4.863869e+08
-5.232784e+08
0
0
0
0
0
9.497332e+08
1.020809e+09
1.144906e+09
-4.100738e+08
-4.24503e+08
-4.444067e+08
-4.707902e+08
-5.050585e+08
0
0
0
0
0
8.593171e+08
9.074895e+08
9.845867e+08
1.117266e+09
-3.997212e+08
-4.132682e+08
-4.319534e+08
-4.566706e+08
-4.886573e+08
0
0
0
0
0
7.879258e+08
8.233086e+08
8.772134e+08
9.614635e+08
1.103876e+09
-3.901e+08
-4.028489e+08
-4.204306e+08
-4.436515e+08
-4.736117e+08
0
0
0
0
0
7.289289e+08
7.564634e+08
7.971958e+08
8.575177e+08
9.495737e+08
-3.808373e+08
-3.928317e+08
-4.093846e+08
-4.312121e+08
-4.59303e+08
0
0
0
0
0
6.783287e+08
7.005381e+08
7.329895e+08
7.794755e+08
8.465269e+08
-3.713896e+08
-3.826517e+08
-3.982001e+08
-4.186793e+08
-4.449675e+08
0
0
0
0
0
6.332386e+08
6.516377e+08
6.783207e+08
7.158915e+08
7.68211e+08
-3.613135e+08
-3.718556e+08
-3.864087e+08
-4.055534e+08
-4.300712e+08
0
0
0
0
0
5.919461e+08
6.075102e+08
6.299785e+08
6.612353e+08
7.039156e+08
-3.511895e+08
-3.610617e+08
-3.746849e+08
-3.925865e+08
-4.154644e+08
0
0
0
0
0
5.545837e+08
5.680064e+08
5.873526e+08
6.140518e+08
6.500209e+08
-3.417283e+08
-3.510002e+08
-3.637981e+08
-3.805987e+08
-4.020363e+08
0
0
0
0
0
5.213817e+08
5.331739e+08
5.50145e+08
5.734546e+08
6.045779e+08
-3.333351e+08
-3.420683e+08
-3.541555e+08
-3.700133e+08
-3.902209e+08
0
0
0
0
0
4.921352e+08
5.026545e+08
5.177824e+08
5.384792e+08
5.659512e+08
-3.261328e+08
-3.344046e+08
-3.45874e+08
-3.609409e+08
-3.801208e+08
0
0
0
0
0
4.66429e+08
4.759365e+08
4.895959e+08
5.08232e+08
5.328523e+08
-5.343308e+08
-5.639359e+08
-6.065377e+08
-6.680157e+08
-7.547339e+08
-5.14523e+08
-5.407326e+08
-5.776663e+08
-6.295332e+08
-7.037132e+08
0
-4.985797e+08
-5.223745e+08
-5.556305e+08
-6.01327e+08
-6.648151e+08
0
0
-4.851374e+08
-5.071206e+08
-5.376535e+08
-5.79189e+08
-6.355922e+08
0
0
0
-4.729124e+08
-4.933771e+08
-5.21753e+08
-5.600381e+08
-6.114164e+08
0
0
0
0
-4.605374e+08
-4.796475e+08
-5.060737e+08
-5.415827e+08
-5.887429e+08
0
0
0
0
0
-4.473426e+08
-4.651331e+08
-4.89714e+08
-5.22569e+08
-5.659165e+08
0
0
0
0
0
1.234177e+09
-4.341561e+08
-4.506985e+08
-4.73547e+08
-5.03991e+08
-5.43874e+08
0
0
0
0
0
1.068919e+09
1.18211e+09
-4.216395e+08
-4.370622e+08
-4.583446e+08
-4.866286e+08
-5.235113e+08
0
0
0
0
0
9.49509e+08
1.020043e+09
1.14246e+09
-4.100738e+08
-4.24503e+08
-4.444067e+08
-4.707902e+08
-5.050585e+08
0
0
0
0
0
8.593171e+08
9.074895e+08
9.845867e+08
1.117266e+09
-3.994969e+08
-4.130421e+08
-4.317274e+08
-4.564473e+08
-4.884398e+08
0
0
0
0
0
7.877634e+08
8.232717e+08
8.773985e+08
9.621503e+08
1.106255e+09
-3.898033e+08
-4.025565e+08
-4.20151e+08
-4.433939e+08
-4.733871e+08
0
0
0
0
0
7.287751e+08
7.564786e+08
7.974836e+08
8.583035e+08
9.515101e+08
-3.807831e+08
-3.928038e+08
-4.094052e+08
-4.313055e+08
-4.594986e+08
0
0
0
0
0
6.786825e+08
7.010916e+08
7.338513e+08
7.808461e+08
8.488385e+08
-3.720693e+08
-3.834059e+08
-3.990646e+08
-4.197078e+08
-4.462208e+08
0
0
0
0
0
6.348215e+08
6.534543e+08
6.804967e+08
7.186314e+08
7.718784e+08
-3.631509e+08
-3.738162e+08
-3.885528e+08
-4.079638e+08
-4.328462e+08
0
0
0
0
0
5.950876e+08
6.109015e+08
6.337539e+08
6.656017e+08
7.092e+08
-3.535944e+08
-3.635999e+08
-3.774205e+08
-3.956034e+08
-4.188664e+08
0
0
0
0
0
5.582217e+08
5.718409e+08
5.914918e+08
6.186481e+08
6.55303e+08
-3.439683e+08
-3.533504e+08
-3.663153e+08
-3.833498e+08
-4.051045e+08
0
0
0
0
0
5.24495e+08
5.364151e+08
5.535872e+08
5.771971e+08
6.087576e+08
-3.349745e+08
-3.437803e+08
-3.559805e+08
-3.719973e+08
-3.924188e+08
0
0
0
0
0
4.942718e+08
5.048632e+08
5.201062e+08
5.409746e+08
5.686941e+08
-3.269865e+08
-3.352953e+08
-3.468169e+08
-3.619599e+08
-3.812428e+08
0
0
0
0
0
4.674722e+08
4.770123e+08
4.907232e+08
5.094355e+08
5.34164e+08
-3.201324e+08
-3.28018e+08
-3.389623e+08
-3.533525e+08
-3.716828e+08
0
0
0
0
0
4.438059e+08
4.524856e+08
4.649615e+08
4.819393e+08
5.042895e+08
-5.125112e+08
-5.384462e+08
-5.749474e+08
-6.261011e+08
-6.989518e+08
0
-4.950612e+08
-5.184277e+08
-5.510271e+08
-5.957037e+08
-6.575094e+08
0
0
-4.808295e+08
-5.023285e+08
-5.321342e+08
-5.725668e+08
-6.272493e+08
0
0
0
-4.687491e+08
-4.887674e+08
-5.164663e+08
-5.537466e+08
-6.035957e+08
0
0
0
0
-4.576621e+08
-4.764474e+08
-5.023795e+08
-5.371528e+08
-5.832196e+08
0
0
0
0
0
-4.463523e+08
-4.639879e+08
-4.883293e+08
-5.208283e+08
-5.636477e+08
0
0
0
0
0
1.210435e+09
-4.341975e+08
-4.506922e+08
-4.734609e+08
-5.037793e+08
-5.434734e+08
0
0
0
0
0
1.063474e+09
1.169611e+09
-4.219693e+08
-4.373845e+08
-4.586503e+08
-4.869061e+08
-5.237401e+08
0
0
0
0
0
9.485436e+08
1.017867e+09
1.136498e+09
-4.103067e+08
-4.247379e+08
-4.446415e+08
-4.710221e+08
-5.052846e+08
0
0
0
0
0
8.593515e+08
9.072884e+08
9.838734e+08
1.1149e+09
-3.994969e+08
-4.130421e+08
-4.317274e+08
-4.564473e+08
-4.884398e+08
0
0
0
0
0
7.877634e+08
8.232717e+08
8.773985e+08
9.621503e+08
1.106255e+09
-3.895881e+08
-4.023387e+08
-4.199334e+08
-4.431788e+08
-4.731774e+08
0
0
0
0
0
7.285461e+08
7.563222e+08
7.974442e+08
8.584794e+08
9.52193e+08
-3.804979e+08
-3.925219e+08
-4.09134e+08
-4.310544e+08
-4.59278e+08
0
0
0
0
0
6.784241e+08
7.009373e+08
7.338561e+08
7.811157e+08
8.496079e+08
-3.720147e+08
-3.833795e+08
-3.990797e+08
-4.197892e+08
-4.463962e+08
0
0
0
0
0
6.350094e+08
6.537707e+08
6.810084e+08
7.194507e+08
7.732143e+08
-3.63804e+08
-3.745393e+08
-3.893817e+08
-4.089393e+08
-4.340289e+08
0
0
0
0
0
5.963985e+08
6.12373e+08
6.354697e+08
6.67694e+08
7.118842e+08
-3.553688e+08
-3.654877e+08
-3.794827e+08
-3.979082e+08
-4.215074e+08
0
0
0
0
0
5.609885e+08
5.747901e+08
5.947226e+08
6.223046e+08
6.59606e+08
-3.462994e+08
-3.557992e+08
-3.689516e+08
-3.862453e+08
-4.083541e+08
0
0
0
0
0
5.27776e+08
5.398459e+08
5.572532e+08
5.812154e+08
6.132926e+08
-3.371494e+08
-3.460548e+08
-3.584099e+08
-3.746445e+08
-3.953593e+08
0
0
0
0
0
4.971156e+08
5.078079e+08
5.232116e+08
5.443203e+08
5.723877e+08
-3.285771e+08
-3.369581e+08
-3.485826e+08
-3.638729e+08
-3.833547e+08
0
0
0
0
0
4.694387e+08
4.790377e+08
4.92843e+08
5.116965e+08
5.366276e+08
-3.209628e+08
-3.288833e+08
-3.398795e+08
-3.543387e+08
-3.727646e+08
0
0
0
0
0
4.447682e+08
4.534763e+08
4.659956e+08
4.830373e+08
5.054782e+08
-3.144145e+08
-3.219581e+08
-3.324224e+08
-3.461779e+08
-3.637002e+08
0
0
0
0
0
4.228893e+08
4.308626e+08
4.423191e+08
4.578866e+08
4.783106e+08
-4.932291e+08
-5.1638e+08
-5.486497e+08
-5.928169e+08
-6.537897e+08
0
0
-4.77599e+08
-4.987467e+08
-5.280303e+08
-5.676802e+08
-6.211594e+08
0
0
0
-4.647613e+08
-4.843773e+08
-5.114753e+08
-5.478761e+08
-5.964096e+08
0
0
0
0
-4.537858e+08
-4.721915e+08
-4.975564e+08
-5.314988e+08
-5.763526e+08
0
0
0
0
0
-4.436638e+08
-4.610195e+08
-4.849375e+08
-5.168189e+08
-5.587395e+08
0
0
0
0
0
1.17734e+09
-4.3327e+08
-4.496338e+08
-4.721954e+08
-5.022097e+08
-5.414643e+08
0
0
0
0
0
1.052766e+09
1.14803e+09
-4.220173e+08
-4.373881e+08
-4.585843e+08
-4.867336e+08
-5.234084e+08
0
0
0
0
0
9.456993e+08
1.012894e+09
1.124823e+09
-4.106255e+08
-4.250498e+08
-4.449381e+08
-4.71293e+08
-5.05516e+08
0
0
0
0
0
8.590032e+08
9.064079e+08
9.818415e+08
1.109136e+09
-3.997212e+08
-4.132682e+08
-4.319534e+08
-4.566706e+08
-4.886573e+08
0
0
0
0
0
7.879258e+08
8.233086e+08
8.772134e+08
9.614635e+08
1.103876e+09
-3.895881e+08
-4.023387e+08
-4.199334e+08
-4.431788e+08
-4.731774e+08
0
0
0
0
0
7.285461e+08
7.563222e+08
7.974442e+08
8.584794e+08
9.52193e+08
-3.802907e+08
-3.923128e+08
-4.089241e+08
-4.308469e+08
-4.590756e+08
0
0
0
0
0
6.781609e+08
7.007178e+08
7.33703e+08
7.81074e+08
8.497799e+08
-3.717383e+08
-3.831084e+08
-3.988179e+08
-4.195449e+08
-4.4618e+08
0
0
0
0
0
6.34692e+08
6.535175e+08
6.808516e+08
7.194462e+08
7.734718e+08
-3.637498e+08
-3.745111e+08
-3.893961e+08
-4.090118e+08
-4.341874e+08
0
0
0
0
0
5.964763e+08
6.125341e+08
6.357563e+08
6.681752e+08
7.126767e+08
-3.560017e+08
-3.66182e+08
-3.802767e+08
-3.98842e+08
-4.22628e+08
0
0
0
0
0
5.620947e+08
5.760085e+08
5.961118e+08
6.23953e+08
6.61653e+08
-3.480213e+08
-3.576215e+08
-3.709358e+08
-3.884596e+08
-4.108763e+08
0
0
0
0
0
5.302419e+08
5.424469e+08
5.600655e+08
5.843461e+08
6.168958e+08
-3.394106e+08
-3.484277e+08
-3.609519e+08
-3.774325e+08
-3.984748e+08
0
0
0
0
0
5.000966e+08
5.109068e+08
5.264957e+08
5.47882e+08
5.763536e+08
-3.30687e+08
-3.39166e+08
-3.509326e+08
-3.66426e+08
-3.861814e+08
0
0
0
0
0
4.720491e+08
4.817315e+08
4.956677e+08
5.147174e+08
5.399309e+08
-3.22508e+08
-3.304963e+08
-3.415937e+08
-3.561882e+08
-3.747991e+08
0
0
0
0
0
4.465837e+08
4.553432e+08
4.679417e+08
4.851013e+08
5.077112e+08
-3.152236e+08
-3.227997e+08
-3.333132e+08
-3.471366e+08
-3.647462e+08
0
0
0
0
0
4.237806e+08
4.317777e+08
4.432724e+08
4.588944e+08
4.793954e+08
-3.089744e+08
-3.161841e+08
-3.262184e+08
-3.393916e+08
-3.561569e+08
0
0
0
0
0
4.034886e+08
4.10843e+08
4.214187e+08
4.357623e+08
4.545363e+08
-4.759119e+08
-4.968823e+08
-5.259024e+08
-5.651585e+08
-6.180355e+08
0
0
0
-4.617667e+08
-4.810894e+08
-5.077532e+08
-5.435239e+08
-5.911247e+08
0
0
0
0
-4.500672e+08
-4.681288e+08
-4.929869e+08
-5.261953e+08
-5.699906e+08
0
0