/*--------------------------------*- C++ -*----------------------------------*\
| =========                 |                                                 |
| \\      /  F ield         | OpenFOAM: The Open Source CFD Toolbox           |
|  \\    /   O peration     | Version:  2306                                  |
|   \\  /    A nd           | Website:  www.openfoam.com                      |
|    \\/     M anipulation  |                                                 |
\*---------------------------------------------------------------------------*/
FoamFile
{
    version     2.0;
    format      ascii;
    arch        "LSB;label=32;scalar=64";
    class       volScalarField;
    location    "0.3/phiI";
    object      T;
}
// * * * * * * * * * * * * * * * * * * * * * * * * * * * * * * * * * * * * * //

dimensions      [0 0 0 1 0 0 0];

internalField   nonuniform List<scalar> 
12000
(
1102.137
1102.014
1103.602
1102.188
1101.729
1103.591
1102.066
1104.961
1103.646
1102.228
1101.192
1103.566
1101.781
1104.982
1103.636
1102.105
1106.235
1104.999
1103.68
1102.255
1100.27
1103.516
1101.246
1105.028
1103.61
1101.821
1106.265
1105.019
1103.669
1102.133
1107.462
1106.267
1105.026
1103.702
1102.27
1098.882
1103.426
1100.331
1105.109
1103.559
1101.288
1106.332
1105.065
1103.643
1101.849
1107.494
1106.297
1105.047
1103.691
1102.148
1108.654
1107.489
1106.29
1105.043
1103.712
1102.272
1097.291
1103.273
1098.961
1105.24
1103.468
1100.381
1106.453
1105.146
1103.591
1101.318
1107.567
1106.364
1105.092
1103.664
1101.865
1108.686
1107.522
1106.32
1105.064
1103.701
1102.15
1109.814
1108.678
1107.508
1106.302
1105.049
1103.711
1102.273
1095.84
1103.014
1097.394
1105.413
1103.31
1099.028
1106.649
1105.273
1103.497
1100.418
1107.697
1106.484
1105.171
1103.612
1101.336
1108.758
1107.594
1106.386
1105.108
1103.674
1101.866
1109.845
1108.71
1107.54
1106.332
1105.069
1103.699
1102.151
1110.942
1109.835
1108.693
1107.517
1106.305
1105.044
1103.709
1102.274
1094.765
1102.709
1095.964
1105.534
1103.052
1097.483
1106.921
1105.44
1103.337
1099.081
1107.911
1106.677
1105.295
1103.515
1100.441
1108.889
1107.724
1106.504
1105.186
1103.62
1101.339
1109.916
1108.782
1107.612
1106.398
1105.113
1103.671
1101.868
1110.973
1109.866
1108.725
1107.549
1106.334
1105.064
1103.697
1102.152
1112.038
1110.961
1109.847
1108.699
1107.516
1106.297
1105.04
1103.707
1102.276
1094.2
1102.446
1094.904
1105.586
1102.751
1096.073
1107.162
1105.556
1103.079
1097.558
1108.208
1106.942
1105.455
1103.351
1099.12
1109.102
1107.934
1106.694
1105.306
1103.521
1100.45
1110.043
1108.912
1107.74
1106.515
1105.189
1103.616
1101.342
1111.041
1109.937
1108.797
1107.62
1106.399
1105.108
1103.669
1101.87
1112.067
1110.991
1109.879
1108.731
1107.548
1106.326
1105.06
1103.695
1102.153
1113.099
1112.054
1110.971
1109.851
1108.695
1107.506
1106.29
1105.035
1103.705
1102.277
1094.2
1102.296
1094.347
1105.595
1102.492
1095.028
1107.333
1105.606
1102.781
1096.168
1108.484
1107.177
1105.567
1103.093
1097.618
1109.4
1108.224
1106.952
1105.459
1103.353
1099.141
1110.251
1109.122
1107.947
1106.701
1105.306
1103.515
1100.457
1111.164
1110.063
1108.926
1107.748
1106.515
1105.182
1103.612
1101.345
1112.133
1111.06
1109.949
1108.802
1107.619
1106.391
1105.102
1103.666
1101.871
1113.127
1112.083
1111.001
1109.882
1108.727
1107.538
1106.319
1105.055
1103.693
1102.155
1114.124
1113.113
1112.062
1110.973
1109.846
1108.684
1107.497
1106.283
1105.031
1103.703
1102.277
1094.765
1102.296
1094.347
1105.591
1102.344
1094.478
1107.436
1105.616
1102.525
1095.137
1108.692
1107.345
1105.616
1102.798
1096.246
1109.681
1108.495
1107.182
1105.567
1103.095
1097.656
1110.54
1109.414
1108.231
1106.952
1105.452
1103.343
1099.159
1111.364
1110.268
1109.133
1107.951
1106.697
1105.295
1103.509
1100.465
1112.252
1111.182
1110.075
1108.93
1107.744
1106.504
1105.175
1103.609
1101.349
1113.192
1112.15
1111.069
1109.952
1108.798
1107.608
1106.383
1105.097
1103.664
1101.873
1114.152
1113.142
1112.092
1111.003
1109.877
1108.715
1107.529
1106.312
1105.05
1103.691
1102.156
1115.114
1114.138
1113.12
1112.063
1110.966
1109.833
1108.674
1107.489
1106.276
1105.026
1103.7
1102.284
1095.84
1102.446
1094.904
1105.591
1102.344
1094.478
1107.483
1105.612
1102.38
1094.594
1108.826
1107.447
1105.625
1102.547
1095.229
1109.898
1108.701
1107.347
1105.615
1102.803
1096.301
1110.815
1109.69
1108.497
1107.177
1105.556
1103.085
1097.689
1111.643
1110.552
1109.418
1108.229
1106.941
1105.435
1103.334
1099.177
1112.446
1111.38
1110.277
1109.135
1107.945
1106.683
1105.285
1103.503
1100.473
1113.307
1112.268
1111.191
1110.077
1108.925
1107.732
1106.495
1105.168
1103.605
1101.352
1114.215
1113.206
1112.158
1111.071
1109.946
1108.786
1107.598
1106.375
1105.091
1103.661
1101.875
1115.141
1114.165
1113.149
1112.092
1110.996
1109.864
1108.705
1107.52
1106.304
1105.044
1103.688
1102.162
1116.068
1115.126
1114.143
1113.119
1112.055
1110.952
1109.821
1108.663
1107.479
1106.269
1105.02
1103.703
1102.295
1097.291
1102.709
1095.964
1105.595
1102.492
1095.028
1107.483
1105.612
1102.38
1094.594
1108.891
1107.493
1105.622
1102.403
1094.693
1110.04
1108.833
1107.448
1105.624
1102.555
1095.296
1111.03
1109.904
1108.7
1107.339
1105.602
1102.795
1096.347
1111.91
1110.823
1109.69
1108.489
1107.161
1105.535
1103.076
1097.721
1112.714
1111.653
1110.555
1109.414
1108.216
1106.921
1105.42
1103.325
1099.195
1113.494
1112.459
1111.387
1110.276
1109.126
1107.929
1106.671
1105.275
1103.497
1100.481
1114.327
1113.321
1112.276
1111.192
1110.07
1108.911
1107.722
1106.486
1105.161
1103.601
1101.356
1115.203
1114.228
1113.213
1112.158
1111.063
1109.933
1108.775
1107.589
1106.367
1105.085
1103.657
1101.883
1116.095
1115.153
1114.171
1113.148
1112.084
1110.982
1109.852
1108.694
1107.51
1106.297
1105.039
1103.69
1102.174
1116.986
1116.079
1115.131
1114.141
1113.11
1112.04
1110.94
1109.81
1108.653
1107.47
1106.261
1105.019
1103.71
1102.312
1098.882
1103.014
1097.394
1105.586
1102.751
1096.073
1107.436
1105.616
1102.525
1095.137
1108.891
1107.493
1105.622
1102.403
1094.693
1110.11
1108.898
1107.494
1105.621
1102.413
1094.766
1111.173
1110.045
1108.831
1107.438
1105.611
1102.549
1095.352
1112.12
1111.036
1109.902
1108.689
1107.32
1105.579
1102.788
1096.392
1112.972
1111.917
1110.822
1109.681
1108.471
1107.136
1105.517
1103.067
1097.752
1113.753
1112.723
1111.656
1110.549
1109.4
1108.195
1106.904
1105.405
1103.317
1099.213
1114.508
1113.506
1112.465
1111.385
1110.267
1109.11
1107.916
1106.659
1105.265
1103.491
1100.49
1115.312
1114.34
1113.327
1112.275
1111.183
1110.055
1108.899
1107.711
1106.477
1105.154
1103.597
1101.366
1116.154
1115.214
1114.233
1113.212
1112.149
1111.049
1109.921
1108.764
1107.579
1106.359
1105.078
1103.659
1101.895
1117.012
1116.106
1115.158
1114.169
1113.139
1112.069
1110.969
1109.84
1108.684
1107.501
1106.289
1105.037
1103.697
1102.191
1117.867
1116.996
1116.083
1115.128
1114.132
1113.095
1112.027
1110.927
1109.798
1108.642
1107.46
1106.257
1105.022
1103.722
1102.334
1100.27
1103.273
1098.961
1105.534
1103.052
1097.483
1107.333
1105.606
1102.781
1096.168
1108.826
1107.447
1105.625
1102.547
1095.229
1110.11
1108.898
1107.494
1105.621
1102.413
1094.766
1111.243
1110.115
1108.895
1107.484
1105.608
1102.41
1094.827
1112.259
1111.177
1110.042
1108.819
1107.418
1105.588
1102.545
1095.407
1113.176
1112.124
1111.032
1109.89
1108.668
1107.293
1105.56
1102.78
1096.436
1114.003
1112.978
1111.915
1110.812
1109.662
1108.446
1107.115
1105.498
1103.057
1097.783
1114.76
1113.761
1112.725
1111.649
1110.534
1109.378
1108.176
1106.886
1105.39
1103.307
1099.231
1115.489
1114.52
1113.51
1112.462
1111.374
1110.249
1109.095
1107.902
1106.647
1105.255
1103.485
1100.505
1116.261
1115.323
1114.345
1113.325
1112.265
1111.168
1110.042
1108.887
1107.699
1106.467
1105.145
1103.597
1101.382
1117.07
1116.165
1115.219
1114.231
1113.202
1112.134
1111.036
1109.908
1108.753
1107.569
1106.35
1105.076
1103.665
1101.914
1117.892
1117.022
1116.11
1115.156
1114.159
1113.123
1112.056
1110.957
1109.828
1108.673
1107.491
1106.284
1105.04
1103.708
1102.214
1118.711
1117.876
1116.999
1116.08
1115.118
1114.116
1113.082
1112.014
1110.915
1109.786
1108.631
1107.454
1106.257
1105.03
1103.738
1101.192
1103.426
1100.331
1105.413
1103.31
1099.028
1107.162
1105.556
1103.079
1097.558
1108.692
1107.345
1105.616
1102.798
1096.246
1110.04
1108.833
1107.448
1105.624
1102.555
1095.296
1111.243
1110.115
1108.895
1107.484
1105.608
1102.41
1094.827
1112.329
1111.247
1110.11
1108.882
1107.464
1105.585
1102.407
1094.887
1113.312
1112.263
1111.172
1110.028
1108.796
1107.39
1105.569
1102.539
1095.461
1114.202
1113.18
1112.12
1111.02
1109.868
1108.64
1107.27
1105.54
1102.773
1096.48
1115.003
1114.009
1112.976
1111.905
1110.793
1109.637
1108.424
1107.094
1105.48
1103.048
1097.813
1115.733
1114.767
1113.762
1112.717
1111.634
1110.513
1109.359
1108.158
1106.869
1105.375
1103.298
1099.254
1116.434
1115.499
1114.523
1113.507
1112.45
1111.356
1110.234
1109.081
1107.888
1106.634
1105.244
1103.483
1100.526
1117.175
1116.272
1115.328
1114.342
1113.315
1112.249
1111.154
1110.029
1108.874
1107.688
1106.456
1105.142
1103.603
1101.403
1117.95
1117.08
1116.169
1115.216
1114.221
1113.186
1112.12
1111.023
1109.896
1108.741
1107.558
1106.345
1105.079
1103.677
1101.938
1118.737
1117.902
1117.025
1116.106
1115.145
1114.144
1113.11
1112.043
1110.944
1109.816
1108.661
1107.484
1106.284
1105.048
1103.725
1119.52
1118.72
1117.879
1116.995
1116.069
1115.102
1114.102
1113.068
1112.001
1110.902
1109.774
1108.622
1107.451
1106.261
1105.043
1101.729
1103.516
1101.246
1105.24
1103.468
1100.381
1106.921
1105.44
1103.337
1099.081
1108.484
1107.177
1105.567
1103.093
1097.618
1109.898
1108.701
1107.347
1105.615
1102.803
1096.301
1111.173
1110.045
1108.831
1107.438
1105.611
1102.549
1095.352
1112.329
1111.247
1110.11
1108.882
1107.464
1105.585
1102.407
1094.887
1113.38
1112.332
1111.242
1110.096
1108.859
1107.436
1105.566
1102.403
1094.946
1114.335
1113.315
1112.258
1111.159
1110.005
1108.767
1107.366
1105.549
1102.534
1095.513
1115.196
1114.205
1113.176
1112.108
1110.998
1109.84
1108.616
1107.247
1105.52
1102.765
1096.522
1115.97
1115.008
1114.006
1112.966
1111.886
1110.768
1109.614
1108.402
1107.073
1105.461
1103.038
1097.849
1116.673
1115.74
1114.767
1113.754
1112.702
1111.612
1110.494
1109.341
1108.14
1106.851
1105.359
1103.293
1099.283
1117.344
1116.443
1115.501
1114.519
1113.495
1112.432
1111.341
1110.219
1109.066
1107.874
1106.62
1105.237
1103.487
1100.552
1118.053
1117.185
1116.275
1115.324
1114.331
1113.298
1112.235
1111.14
1110.015
1108.862
1107.676
1106.45
1105.142
1103.613
1101.43
1118.793
1117.959
1117.084
1116.166
1115.206
1114.205
1113.172
1112.107
1111.01
1109.884
1108.729
1107.55
1106.344
1105.085
1103.693
1119.545
1118.745
1117.905
1117.021
1116.096
1115.129
1114.13
1113.096
1112.029
1110.931
1109.803
1108.652
1107.481
1106.288
1105.06
1120.293
1119.528
1118.723
1117.875
1116.985
1116.053
1115.089
1114.089
1113.055
1111.988
1110.888
1109.764
1108.618
1107.453
1106.27
1102.014
1103.566
1101.781
1105.109
1103.559
1101.288
1106.649
1105.273
1103.497
1100.418
1108.208
1106.942
1105.455
1103.351
1099.12
1109.681
1108.495
1107.182
1105.567
1103.095
1097.656
1111.03
1109.904
1108.7
1107.339
1105.602
1102.795
1096.347
1112.259
1111.177
1110.042
1108.819
1107.418
1105.588
1102.545
1095.407
1113.38
1112.332
1111.242
1110.096
1108.859
1107.436
1105.566
1102.403
1094.946
1114.401
1113.383
1112.326
1111.228
1110.073
1108.829
1107.411
1105.546
1102.399
1095.003
1115.326
1114.337
1113.31
1112.245
1111.136
1109.976
1108.742
1107.342
1105.529
1102.528
1095.565
1116.159
1115.199
1114.201
1113.164
1112.087
1110.971
1109.816
1108.592
1107.223
1105.501
1102.756
1096.57
1116.905
1115.975
1115.005
1113.996
1112.947
1111.861
1110.746
1109.592
1108.38
1107.051
1105.442
1103.032
1097.89
1117.577
1116.679
1115.74
1114.759
1113.739
1112.68
1111.593
1110.475
1109.322
1108.121
1106.833
1105.347
1103.294
1099.318
1118.219
1117.353
1116.445
1115.497
1114.506
1113.476
1112.416
1111.325
1110.203
1109.051
1107.859
1106.61
1105.234
1103.496
1100.584
1118.894
1118.062
1117.188
1116.272
1115.313
1114.314
1113.284
1112.22
1111.126
1110.002
1108.848
1107.667
1106.447
1105.148
1103.628
1119.601
1118.802
1117.962
1117.08
1116.155
1115.189
1114.191
1113.159
1112.093
1110.997
1109.87
1108.719
1107.547
1106.347
1105.097
1120.317
1119.553
1118.748
1117.901
1117.011
1116.08
1115.115
1114.116
1113.082
1112.016
1110.917
1109.793
1108.647
1107.482
1106.297
1121.03
1120.301
1119.531
1118.719
1117.864
1116.969
1116.039
1115.075
1114.075
1113.041
1111.973
1110.877
1109.757
1108.617
1107.459
1102.137
1103.591
1102.066
1105.028
1103.61
1101.821
1106.453
1105.146
1103.591
1101.318
1107.911
1106.677
1105.295
1103.515
1100.441
1109.4
1108.224
1106.952
1105.459
1103.353
1099.141
1110.815
1109.69
1108.497
1107.177
1105.556
1103.085
1097.689
1112.12
1111.036
1109.902
1108.689
1107.32
1105.579
1102.788
1096.392
1113.312
1112.263
1111.172
1110.028
1108.796
1107.39
1105.569
1102.539
1095.461
1114.401
1113.383
1112.326
1111.228
1110.073
1108.829
1107.411
1105.546
1102.399
1095.003
1115.391
1114.403
1113.377
1112.312
1111.204
1110.043
1108.803
1107.387
1105.526
1102.394
1095.06
1116.286
1115.329
1114.332
1113.297
1112.222
1111.107
1109.951
1108.716
1107.318
1105.509
1102.522
1095.622
1117.089
1116.162
1115.195
1114.189
1113.143
1112.06
1110.947
1109.792
1108.567
1107.2
1105.48
1102.752
1096.623
1117.805
1116.909
1115.972
1114.995
1113.977
1112.922
1111.839
1110.724
1109.57
1108.358
1107.029
1105.426
1103.032
1097.936
1118.447
1117.583
1116.678
1115.732
1114.744
1113.717
1112.661
1111.574
1110.455
1109.303
1108.101
1106.818
1105.34
1103.3
1099.358
1119.058
1118.227
1117.354
1116.44
1115.484
1114.488
1113.46
1112.4
1111.309
1110.188
1109.034
1107.847
1106.605
1105.237
1103.509
1119.7
1118.903
1118.064
1117.183
1116.26
1115.296
1114.3
1113.269
1112.206
1111.112
1109.987
1108.837
1107.662
1106.449
1105.158
1120.372
1119.609
1118.804
1117.958
1117.069
1116.139
1115.175
1114.177
1113.144
1112.079
1110.982
1109.859
1108.714
1107.547
1106.355
1121.054
1120.325
1119.555
1118.744
1117.89
1116.994
1116.066
1115.101
1114.102
1113.069
1112.001
1110.906
1109.787
1108.646
1107.488
1121.731
1121.037
1120.303
1119.526
1118.708
1117.848
1116.955
1116.025
1115.061
1114.061
1113.026
1111.961
1110.87
1109.755
1108.62
1103.602
1102.188
1104.982
1103.636
1102.105
1106.332
1105.065
1103.643
1101.849
1107.697
1106.484
1105.171
1103.612
1101.336
1109.102
1107.934
1106.694
1105.306
1103.521
1100.45
1110.54
1109.414
1108.231
1106.952
1105.452
1103.343
1099.159
1111.91
1110.823
1109.69
1108.489
1107.161
1105.535
1103.076
1097.721
1113.176
1112.124
1111.032
1109.89
1108.668
1107.293
1105.56
1102.78
1096.436
1114.335
1113.315
1112.258
1111.159
1110.005
1108.767
1107.366
1105.549
1102.534
1095.513
1115.391
1114.403
1113.377
1112.312
1111.204
1110.043
1108.803
1107.387
1105.526
1102.394
1095.06
1116.35
1115.393
1114.398
1113.363
1112.29
1111.175
1110.018
1108.778
1107.362
1105.506
1102.389
1095.122
1117.214
1116.289
1115.323
1114.319
1113.275
1112.194
1111.083
1109.926
1108.691
1107.293
1105.488
1102.52
1095.683
1117.986
1117.092
1116.158
1115.183
1114.168
1113.117
1112.037
1110.923
1109.768
1108.543
1107.175
1105.463
1102.754
1096.68
1118.671
1117.808
1116.905
1115.961
1114.976
1113.953
1112.901
1111.818
1110.702
1109.548
1108.334
1107.01
1105.416
1103.037
1097.987
1119.282
1118.453
1117.582
1116.67
1115.716
1114.722
1113.698
1112.642
1111.555
1110.436
1109.282
1108.084
1106.807
1105.337
1103.31
1119.861
1119.065
1118.228
1117.349
1116.427
1115.465
1114.471
1113.444
1112.384
1111.293
1110.17
1109.021
1107.839
1106.603
1105.243
1120.471
1119.709
1118.905
1118.06
1117.172
1116.243
1115.281
1114.285
1113.254
1112.191
1111.096
1109.975
1108.83
1107.661
1106.455
1121.108
1120.38
1119.611
1118.8
1117.947
1117.052
1116.124
1115.161
1114.162
1113.13
1112.064
1110.97
1109.852
1108.712
1107.552
1121.755
1121.062
1120.327
1119.551
1118.733
1117.873
1116.98
1116.051
1115.087
1114.088
1113.053
1111.989
1110.898
1109.784
1108.649
1122.398
1121.739
1121.039
1120.298
1119.515
1118.692
1117.834
1116.941
1116.011
1115.047
1114.046
1113.013
1111.952
1110.866
1109.756
1104.961
1103.646
1102.228
1106.265
1105.019
1103.669
1102.133
1107.567
1106.364
1105.092
1103.664
1101.865
1108.889
1107.724
1106.504
1105.186
1103.62
1101.339
1110.251
1109.122
1107.947
1106.701
1105.306
1103.515
1100.457
1111.643
1110.552
1109.418
1108.229
1106.941
1105.435
1103.334
1099.177
1112.972
1111.917
1110.822
1109.681
1108.471
1107.136
1105.517
1103.067
1097.752
1114.202
1113.18
1112.12
1111.02
1109.868
1108.64
1107.27
1105.54
1102.773
1096.48
1115.326
1114.337
1113.31
1112.245
1111.136
1109.976
1108.742
1107.342
1105.529
1102.528
1095.565
1116.35
1115.393
1114.398
1113.363
1112.29
1111.175
1110.018
1108.778
1107.362
1105.506
1102.389
1095.122
1117.277
1116.352
1115.387
1114.384
1113.341
1112.261
1111.15
1109.992
1108.752
1107.337
1105.485
1102.389
1095.188
1118.109
1117.216
1116.284
1115.311
1114.298
1113.248
1112.17
1111.058
1109.9
1108.666
1107.267
1105.47
1102.523
1095.749
1118.849
1117.989
1117.088
1116.146
1115.163
1114.143
1113.094
1112.013
1110.9
1109.744
1108.517
1107.154
1105.451
1102.76
1096.742
1119.502
1118.674
1117.805
1116.895
1115.943
1114.953
1113.932
1112.88
1111.796
1110.68
1109.524
1108.313
1106.995
1105.41
1103.047
1120.082
1119.288
1118.452
1117.574
1116.654
1115.695
1114.704
1113.679
1112.623
1111.535
1110.416
1109.265
1108.072
1106.801
1105.339
1120.629
1119.868
1119.066
1118.222
1117.336
1116.409
1115.449
1114.455
1113.427
1112.367
1111.275
1110.156
1109.011
1107.835
1106.606
1121.206
1120.478
1119.71
1118.9
1118.048
1117.155
1116.228
1115.266
1114.27
1113.239
1112.175
1111.083
1109.966
1108.827
1107.664
1121.809
1121.116
1120.382
1119.607
1118.789
1117.93
1117.038
1116.11
1115.146
1114.148
1113.115
1112.051
1110.962
1109.848
1108.714
1122.421
1121.763
1121.063
1120.322
1119.54
1118.717
1117.859
1116.966
1116.037
1115.073
1114.072
1113.04
1111.98
1110.894
1109.785
1123.029
1122.405
1121.74
1121.034
1120.287
1119.499
1118.678
1117.82
1116.927
1115.997
1115.031
1114.032
1113.004
1111.947
1110.865
1106.235
1104.999
1103.68
1102.255
1107.494
1106.297
1105.047
1103.691
1102.148
1108.758
1107.594
1106.386
1105.108
1103.674
1101.866
1110.043
1108.912
1107.74
1106.515
1105.189
1103.616
1101.342
1111.364
1110.268
1109.133
1107.951
1106.697
1105.295
1103.509
1100.465
1112.714
1111.653
1110.555
1109.414
1108.216
1106.921
1105.42
1103.325
1099.195
1114.003
1112.978
1111.915
1110.812
1109.662
1108.446
1107.115
1105.498
1103.057
1097.783
1115.196
1114.205
1113.176
1112.108
1110.998
1109.84
1108.616
1107.247
1105.52
1102.765
1096.522
1116.286
1115.329
1114.332
1113.297
1112.222
1111.107
1109.951
1108.716
1107.318
1105.509
1102.522
1095.622
1117.277
1116.352
1115.387
1114.384
1113.341
1112.261
1111.15
1109.992
1108.752
1107.337
1105.485
1102.389
1095.188
1118.171
1117.278
1116.346
1115.374
1114.362
1113.314
1112.237
1111.125
1109.966
1108.726
1107.311
1105.468
1102.393
1095.258
1118.97
1118.111
1117.211
1116.271
1115.29
1114.271
1113.225
1112.146
1111.033
1109.875
1108.639
1107.245
1105.458
1102.531
1095.82
1119.678
1118.852
1117.985
1117.076
1116.126
1115.138
1114.121
1113.071
1111.99
1110.876
1109.718
1108.494
1107.137
1105.443
1102.771
1120.299
1119.505
1118.671
1117.795
1116.877
1115.92
1114.932
1113.911
1112.858
1111.774
1110.656
1109.503
1108.297
1106.985
1105.409
1120.847
1120.087
1119.286
1118.443
1117.559
1116.633
1115.676
1114.685
1113.661
1112.604
1111.515
1110.397
1109.251
1108.064
1106.799
1121.362
1120.636
1119.869
1119.06
1118.209
1117.318
1116.393
1115.433
1114.439
1113.411
1112.35
1111.26
1110.145
1109.005
1107.835
1121.905
1121.213
1120.48
1119.705
1118.889
1118.031
1117.14
1116.213
1115.251
1114.254
1113.223
1112.161
1111.073
1109.962
1108.828
1122.475
1121.816
1121.118
1120.377
1119.595
1118.773
1117.916
1117.024
1116.095
1115.132
1114.132
1113.101
1112.042
1110.957
1109.849
1123.053
1122.429
1121.764
1121.059
1120.311
1119.524
1118.703
1117.845
1116.952
1116.023
1115.057
1114.059
1113.031
1111.975
1110.893
1123.626
1123.036
1122.406
1121.735
1121.024
1120.272
1119.486
1118.664
1117.806
1116.913
1115.982
1115.018
1114.022
1112.997
1111.945
1107.462
1106.267
1105.026
1103.702
1102.27
1108.686
1107.522
1106.32
1105.064
1103.701
1102.15
1109.916
1108.782
1107.612
1106.398
1105.113
1103.671
1101.868
1111.164
1110.063
1108.926
1107.748
1106.515
1105.182
1103.612
1101.345
1112.446
1111.38
1110.277
1109.135
1107.945
1106.683
1105.285
1103.503
1100.473
1113.753
1112.723
1111.656
1110.549
1109.4
1108.195
1106.904
1105.405
1103.317
1099.213
1115.003
1114.009
1112.976
1111.905
1110.793
1109.637
1108.424
1107.094
1105.48
1103.048
1097.813
1116.159
1115.199
1114.201
1113.164
1112.087
1110.971
1109.816
1108.592
1107.223
1105.501
1102.756
1096.57
1117.214
1116.289
1115.323
1114.319
1113.275
1112.194
1111.083
1109.926
1108.691
1107.293
1105.488
1102.52
1095.683
1118.171
1117.278
1116.346
1115.374
1114.362
1113.314
1112.237
1111.125
1109.966
1108.726
1107.311
1105.468
1102.393
1095.258
1119.031
1118.172
1117.273
1116.334
1115.353
1114.336
1113.29
1112.212
1111.1
1109.941
1108.698
1107.288
1105.456
1102.403
1095.334
1119.798
1118.972
1118.106
1117.199
1116.251
1115.264
1114.249
1113.201
1112.122
1111.008
1109.848
1108.615
1107.227
1105.45
1102.544
1120.473
1119.68
1118.847
1117.973
1117.057
1116.102
1115.117
1114.098
1113.049
1111.967
1110.85
1109.695
1108.476
1107.125
1105.441
1121.061
1120.302
1119.502
1118.661
1117.777
1116.855
1115.9
1114.912
1113.89
1112.837
1111.751
1110.635
1109.486
1108.285
1106.979
1121.577
1120.852
1120.086
1119.278
1118.428
1117.538
1116.615
1115.658
1114.667
1113.642
1112.583
1111.496
1110.383
1109.241
1108.059
1122.06
1121.369
1120.636
1119.863
1119.047
1118.191
1117.302
1116.377
1115.417
1114.422
1113.393
1112.334
1111.248
1110.138
1109.004
1122.57
1121.912
1121.214
1120.475
1119.694
1118.872
1118.017
1117.125
1116.198
1115.236
1114.238
1113.208
1112.151
1111.067
1109.961
1123.106
1122.482
1121.818
1121.113
1120.366
1119.579
1118.759
1117.902
1117.009
1116.081
1115.116
1114.118
1113.091
1112.036
1110.955
1123.65
1123.06
1122.43
1121.759
1121.048
1120.296
1119.51
1118.689
1117.831
1116.938
1116.007
1115.043
1114.049
1113.024
1111.972
1124.189
1123.633
1123.037
1122.402
1121.725
1121.008
1120.258
1119.472
1118.65
1117.792
1116.897
1115.968
1115.007
1114.015
1112.994
1108.654
1107.489
1106.29
1105.043
1103.712
1102.272
1109.845
1108.71
1107.54
1106.332
1105.069
1103.699
1102.151
1111.041
1109.937
1108.797
1107.62
1106.399
1105.108
1103.669
1101.87
1112.252
1111.182
1110.075
1108.93
1107.744
1106.504
1105.175
1103.609
1101.349
1113.494
1112.459
1111.387
1110.276
1109.126
1107.929
1106.671
1105.275
1103.497
1100.481
1114.76
1113.761
1112.725
1111.649
1110.534
1109.378
1108.176
1106.886
1105.39
1103.307
1099.231
1115.97
1115.008
1114.006
1112.966
1111.886
1110.768
1109.614
1108.402
1107.073
1105.461
1103.038
1097.849
1117.089
1116.162
1115.195
1114.189
1113.143
1112.06
1110.947
1109.792
1108.567
1107.2
1105.48
1102.752
1096.623
1118.109
1117.216
1116.284
1115.311
1114.298
1113.248
1112.17
1111.058
1109.9
1108.666
1107.267
1105.47
1102.523
1095.749
1119.031
1118.172
1117.273
1116.334
1115.353
1114.336
1113.29
1112.212
1111.1
1109.941
1108.698
1107.288
1105.456
1102.403
1095.334
1119.857
1119.032
1118.167
1117.261
1116.313
1115.327
1114.313
1113.266
1112.188
1111.075
1109.913
1108.674
1107.27
1105.448
1102.417
1120.591
1119.799
1118.967
1118.094
1117.179
1116.226
1115.242
1114.226
1113.178
1112.098
1110.982
1109.824
1108.595
1107.214
1105.447
1121.233
1120.475
1119.676
1118.836
1117.954
1117.033
1116.081
1115.095
1114.076
1113.026
1111.942
1110.827
1109.675
1108.462
1107.117
1121.789
1121.064
1120.299
1119.492
1118.644
1117.755
1116.835
1115.88
1114.891
1113.87
1112.814
1111.73
1110.618
1109.473
1108.277
1122.273
1121.582
1120.85
1120.078
1119.263
1118.408
1117.52
1116.597
1115.64
1114.648
1113.621
1112.565
1111.481
1110.373
1109.236
1122.723
1122.066
1121.369
1120.631
1119.85
1119.03
1118.176
1117.286
1116.361
1115.4
1114.404
1113.377
1112.321
1111.24
1110.135
1123.2
1122.577
1121.913
1121.209
1120.463
1119.677
1118.857
1118.002
1117.11
1116.183
1115.219
1114.223
1113.197
1112.144
1111.065
1123.702
1123.112
1122.483
1121.813
1121.102
1120.35
1119.565
1118.744
1117.887
1116.995
1116.065
1115.102
1114.107
1113.084
1112.033
1124.212
1123.656
1123.061
1122.425
1121.749
1121.032
1120.282
1119.497
1118.675
1117.817
1116.922
1115.993
1115.033
1114.041
1113.021
1124.717
1124.195
1123.634
1123.033
1122.391
1121.71
1120.995
1120.245
1119.458
1118.636
1117.777
1116.883
1115.957
1114.999
1114.011
1109.814
1108.678
1107.508
1106.302
1105.049
1103.711
1102.273
1110.973
1109.866
1108.725
1107.549
1106.334
1105.064
1103.697
1102.152
1112.133
1111.06
1109.949
1108.802
1107.619
1106.391
1105.102
1103.666
1101.871
1113.307
1112.268
1111.191
1110.077
1108.925
1107.732
1106.495
1105.168
1103.605
1101.352
1114.508
1113.506
1112.465
1111.385
1110.267
1109.11
1107.916
1106.659
1105.265
1103.491
1100.49
1115.733
1114.767
1113.762
1112.717
1111.634
1110.513
1109.359
1108.158
1106.869
1105.375
1103.298
1099.254
1116.905
1115.975
1115.005
1113.996
1112.947
1111.861
1110.746
1109.592
1108.38
1107.051
1105.442
1103.032
1097.89
1117.986
1117.092
1116.158
1115.183
1114.168
1113.117
1112.037
1110.923
1109.768
1108.543
1107.175
1105.463
1102.754
1096.68
1118.97
1118.111
1117.211
1116.271
1115.29
1114.271
1113.225
1112.146
1111.033
1109.875
1108.639
1107.245
1105.458
1102.531
1095.82
1119.857
1119.032
1118.167
1117.261
1116.313
1115.327
1114.313
1113.266
1112.188
1111.075
1109.913
1108.674
1107.27
1105.448
1102.417
1120.65
1119.859
1119.027
1118.155
1117.241
1116.288
1115.305
1114.29
1113.243
1112.164
1111.048
1109.888
1108.654
1107.256
1105.445
1121.35
1120.592
1119.794
1118.956
1118.075
1117.155
1116.204
1115.22
1114.203
1113.155
1112.072
1110.958
1109.804
1108.579
1107.205
1121.959
1121.235
1120.471
1119.665
1118.818
1117.931
1117.013
1116.06
1115.074
1114.054
1113.002
1111.919
1110.808
1109.66
1108.452
1122.482
1121.791
1121.061
1120.289
1119.475
1118.622
1117.736
1116.815
1115.86
1114.871
1113.847
1112.793
1111.712
1110.604
1109.464
1122.934
1122.277
1121.58
1120.842
1120.063
1119.243
1118.391
1117.503
1116.579
1115.621
1114.628
1113.603
1112.55
1111.47
1110.366
1123.351
1122.729
1122.066
1121.363
1120.618
1119.833
1119.014
1118.16
1117.27
1116.344
1115.382
1114.388
1113.364
1112.312
1111.235
1123.795
1123.207
1122.578
1121.908
1121.198
1120.447
1119.663
1118.843
1117.987
1117.095
1116.166
1115.204
1114.211
1113.189
1112.14
1124.264
1123.709
1123.114
1122.478
1121.802
1121.086
1120.337
1119.551
1118.73
1117.873
1116.979
1116.05
1115.09
1114.1
1113.08
1124.74
1124.219
1123.657
1123.056
1122.414
1121.733
1121.019
1120.269
1119.483
1118.661
1117.802
1116.908
1115.982
1115.025
1114.037
1125.211
1124.724
1124.196
1123.63
1123.022
1122.376
1121.696
1120.982
1120.231
1119.445
1118.621
1117.763
1116.872
1115.949
1114.994
1110.942
1109.835
1108.693
1107.517
1106.305
1105.044
1103.709
1102.274
1112.067
1110.991
1109.879
1108.731
1107.548
1106.326
1105.06
1103.695
1102.153
1113.192
1112.15
1111.069
1109.952
1108.798
1107.608
1106.383
1105.097
1103.664
1101.873
1114.327
1113.321
1112.276
1111.192
1110.07
1108.911
1107.722
1106.486
1105.161
1103.601
1101.356
1115.489
1114.52
1113.51
1112.462
1111.374
1110.249
1109.095
1107.902
1106.647
1105.255
1103.485
1100.505
1116.673
1115.74
1114.767
1113.754
1112.702
1111.612
1110.494
1109.341
1108.14
1106.851
1105.359
1103.293
1099.283
1117.805
1116.909
1115.972
1114.995
1113.977
1112.922
1111.839
1110.724
1109.57
1108.358
1107.029
1105.426
1103.032
1097.936
1118.849
1117.989
1117.088
1116.146
1115.163
1114.143
1113.094
1112.013
1110.9
1109.744
1108.517
1107.154
1105.451
1102.76
1096.742
1119.798
1118.972
1118.106
1117.199
1116.251
1115.264
1114.249
1113.201
1112.122
1111.008
1109.848
1108.615
1107.227
1105.45
1102.544
1120.65
1119.859
1119.027
1118.155
1117.241
1116.288
1115.305
1114.29
1113.243
1112.164
1111.048
1109.888
1108.654
1107.256
1105.445
1121.408
1120.651
1119.854
1119.015
1118.135
1117.216
1116.266
1115.283
1114.267
1113.219
1112.137
1111.023
1109.867
1108.638
1107.247
1122.074
1121.351
1120.588
1119.783
1118.937
1118.051
1117.134
1116.183
1115.198
1114.181
1113.129
1112.048
1110.938
1109.787
1108.568
1122.65
1121.961
1121.231
1120.46
1119.647
1118.795
1117.911
1116.992
1116.039
1115.052
1114.031
1112.979
1111.9
1110.793
1109.649
1123.141
1122.484
1121.788
1121.051
1120.272
1119.454
1118.603
1117.717
1116.796
1115.84
1114.849
1113.826
1112.776
1111.699
1110.595
1123.56
1122.938
1122.275
1121.572
1120.828
1120.043
1119.226
1118.373
1117.485
1116.561
1115.601
1114.609
1113.587
1112.538
1111.463
1123.946
1123.357
1122.729
1122.06
1121.35
1120.601
1119.817
1118.999
1118.144
1117.254
1116.326
1115.366
1114.374
1113.354
1112.307
1124.357
1123.802
1123.208
1122.573
1121.897
1121.182
1120.433
1119.648
1118.828
1117.972
1117.078
1116.151
1115.192
1114.203
1113.184
1124.792
1124.27
1123.71
1123.109
1122.467
1121.787
1121.073
1120.323
1119.537
1118.716
1117.857
1116.964
1116.039
1115.082
1114.095
1125.234
1124.746
1124.22
1123.653
1123.046
1122.4
1121.72
1121.005
1120.255
1119.469
1118.645
1117.787
1116.897
1115.974
1115.02
1125.672
1125.218
1124.724
1124.192
1123.619
1123.008
1122.363
1121.683
1120.968
1120.217
1119.429
1118.607
1117.751
1116.863
1115.943
1112.038
1110.961
1109.847
1108.699
1107.516
1106.297
1105.04
1103.707
1102.276
1113.127
1112.083
1111.001
1109.882
1108.727
1107.538
1106.319
1105.055
1103.693
1102.155
1114.215
1113.206
1112.158
1111.071
1109.946
1108.786
1107.598
1106.375
1105.091
1103.661
1101.875
1115.312
1114.34
1113.327
1112.275
1111.183
1110.055
1108.899
1107.711
1106.477
1105.154
1103.597
1101.366
1116.434
1115.499
1114.523
1113.507
1112.45
1111.356
1110.234
1109.081
1107.888
1106.634
1105.244
1103.483
1100.526
1117.577
1116.679
1115.74
1114.759
1113.739
1112.68
1111.593
1110.475
1109.322
1108.121
1106.833
1105.347
1103.294