/*--------------------------------*- C++ -*----------------------------------*\
| =========                 |                                                 |
| \\      /  F ield         | OpenFOAM: The Open Source CFD Toolbox           |
|  \\    /   O peration     | Version:  2306                                  |
|   \\  /    A nd           | Website:  www.openfoam.com                      |
|    \\/     M anipulation  |                                                 |
\*---------------------------------------------------------------------------*/
FoamFile
{
    version     2.0;
    format      ascii;
    arch        "LSB;label=32;scalar=64";
    class       volScalarField;
    location    "1.5/air";
    object      diffSp.O2;
}
// * * * * * * * * * * * * * * * * * * * * * * * * * * * * * * * * * * * * * //

dimensions      [0 2 -1 0 0 0 0];

internalField   nonuniform List<scalar> 
16000
(
0.0002568488
0.0002518083
0.0002627868
0.0002517154
0.0002489985
0.0002616709
0.0002395902
0.0002643042
0.0002616515
0.000248825
0.0002473931
0.0002607058
0.000232099
0.0002639085
0.0002583722
0.0002319722
0.0002655125
0.0002639323
0.0002606659
0.0002471241
0.0002466464
0.0002599961
0.0002276324
0.0002635561
0.000255508
0.0002209004
0.0002653433
0.00026278
0.0002554637
0.0002272961
0.0002665686
0.0002653821
0.0002635979
0.0002599273
0.0002462483
0.0002466464
0.0002596202
0.0002255207
0.0002632877
0.0002533911
0.0002140478
0.0002651984
0.0002617344
0.0002508574
0.000213772
0.0002664786
0.0002649144
0.0002617517
0.0002532653
0.000224858
0.0002675262
0.0002665197
0.0002652688
0.0002633464
0.0002595134
0.0002460723
0.0001519449
0.0002473931
0.0002596202
0.0002255207
0.000263142
0.0002522674
0.0002107423
0.00026509
0.0002609295
0.0002474195
0.0002051892
0.0002664063
0.0002644983
0.0002600501
0.0002473039
0.0002099815
0.0002674662
0.0002662892
0.0002645377
0.0002609612
0.0002520212
0.0002243902
0.0002684037
0.0002675051
0.0002664812
0.0002651935
0.0002632212
0.0002594732
0.0002465848
0.0001519257
0.0001526329
0.0001523596
0.0002489985
0.0002599961
0.0002276324
0.000263142
0.0002522674
0.0002107423
0.0002650315
0.0002604904
0.0002455854
0.0002009904
0.0002663543
0.000264181
0.0002587254
0.0002428169
0.0002004107
0.0002674208
0.0002660924
0.0002638733
0.000258736
0.0002452756
0.000209249
0.0002683562
0.0002673619
0.0002661364
0.0002642699
0.0002605424
0.00025188
0.0002258707
0.0002692155
0.0002683916
0.0002674917
0.0002664651
0.000265175
0.0002632527
0.0002598234
0.0002478783
0.0001518838
0.0001526293
0.0001523324
0.0001532919
0.0001530108
0.0001527773
0.0002518083
0.0002607058
0.000232099
0.0002632877
0.0002533911
0.0002140478
0.0002650315
0.0002604904
0.0002455854
0.0002009904
0.0002663269
0.0002640085
0.0002579981
0.0002404111
0.0001956915
0.0002673895
0.0002659472
0.0002633592
0.0002569877
0.0002401714
0.0001994775
0.0002683216
0.000267245
0.0002658341
0.0002634172
0.0002580229
0.000245029
0.0002115563
0.0002691744
0.0002682828
0.0002672871
0.0002660483
0.0002641674
0.0002605885
0.0002528862
0.0002295027
0.000269969
0.0002692063
0.0002683862
0.0002674946
0.0002664809
0.0002652279
0.0002634538
0.000260552
0.0002502373
0.000151803
0.0001526231
0.0001522686
0.0001532919
0.0001530076
0.0001527436
0.000153889
0.0001536227
0.0001533891
0.0001532008
0.0002568488
0.0002616709
0.0002395902
0.0002635561
0.000255508
0.0002209004
0.00026509
0.0002609295
0.0002474195
0.0002051892
0.0002663269
0.0002640085
0.0002579981
0.0002404111
0.0001956915
0.0002673735
0.0002658697
0.0002630771
0.0002560227
0.0002374257
0.0001946505
0.0002682983
0.000267162
0.0002656069
0.0002627491
0.0002560303
0.0002398357
0.0002023827
0.0002691448
0.0002681966
0.0002671153
0.0002656759
0.0002632252
0.0002580683
0.0002466319
0.0002171225
0.0002699318
0.0002691133
0.0002682351
0.0002672594
0.0002660513
0.0002642728
0.0002611316
0.0002549825
0.0002358565
0.0002706713
0.0002699606
0.000269203
0.0002683941
0.0002675195
0.0002665363
0.0002653613
0.0002638252
0.0002616424
0.0002544861
0.0001515885
0.0001526171
0.0001521326
0.0001532933
0.0001530027
0.0001526633
0.0001538898
0.0001536251
0.0001533861
0.0001531627
0.0001544302
0.0001541767
0.000153953
0.0001537692
0.0001536265
0.0002627868
0.0002517154
0.0002639085
0.0002583722
0.0002319722
0.0002651984
0.0002617344
0.0002508574
0.000213772
0.0002663543
0.000264181
0.0002587254
0.0002428169
0.0002004107
0.0002673735
0.0002658697
0.0002630771
0.0002560227
0.0002374257
0.0001946505
0.0002682866
0.0002671187
0.0002654844
0.0002623798
0.0002549263
0.0002370389
0.000197869
0.0002691252
0.000268137
0.0002669909
0.0002653917
0.0002624793
0.0002560665
0.0002418957
0.0002093166
0.0002699052
0.0002690407
0.0002681122
0.0002670583
0.0002656606
0.0002633672
0.0002589176
0.0002499599
0.0002265371
0.0002706371
0.0002698767
0.0002690755
0.0002682264
0.0002672939
0.0002661667
0.0002646076
0.0002621475
0.0002580289
0.0002463108
0.0002713273
0.0002706632
0.0002699577
0.0002692116
0.0002684198
0.0002675717
0.0002666388
0.0002655852
0.0002643824
0.0002631584
0.0001500991
0.000152639
0.0001517879
0.0001533019
0.0001530013
0.0001524939
0.0001538932
0.0001536333
0.0001533814
0.0001530723
0.0001544312
0.0001541804
0.0001539573
0.0001537661
0.0001535861
0.0001549285
0.0001546812
0.0001544636
0.0001542837
0.000154147
6.52862e-05
0.0002643042
0.0002616515
0.000248825
0.0002653433
0.00026278
0.0002554637
0.0002272961
0.0002664063
0.0002644983
0.0002600501
0.0002473039
0.0002099815
0.0002673895
0.0002659472
0.0002633592
0.0002569877
0.0002401714
0.0001994775
0.0002682866
0.0002671187
0.0002654844
0.0002623798
0.0002549263
0.0002370389
0.000197869
0.0002691154
0.0002681066
0.0002669255
0.0002652371
0.0002620645
0.0002549547
0.0002393467
0.0002055108
0.0002698876
0.0002689912
0.000268026
0.0002669105
0.0002653579
0.0002626423
0.0002571502
0.0002461602
0.0002207851
0.0002706126
0.0002698115
0.0002689735
0.0002680881
0.0002670974
0.0002658213
0.0002638707
0.0002605028
0.0002547039
0.0002411275
0.0002712956
0.0002705857
0.0002698429
0.0002690721
0.0002682674
0.000267404
0.000266411
0.0002651775
0.0002635829
0.0002618366
0.000148321
0.0002719415
0.0002713193
0.0002706601
0.0002699655
0.0002692356
0.0002684673
0.0002676572
0.0002668006
0.0002659337
0.0002652602
0.0001529898
0.000150635
0.000153363
0.000153034
0.0001521128
0.0001539049
0.0001536593
0.0001533802
0.0001528891
0.0001544348
0.0001541916
0.0001539701
0.0001537609
0.0001534919
0.0001549295
0.000154685
0.0001544697
0.0001542893
0.0001541438
6.526865e-05
0.0001553892
0.0001551487
0.0001549313
0.0001547505
0.000154611
6.549992e-05
6.529776e-05
0.0002655125
0.0002639323
0.0002606659
0.0002471241
0.0002664786
0.0002649144
0.0002617517
0.0002532653
0.000224858
0.0002674208
0.0002660924
0.0002638733
0.000258736
0.0002452756
0.000209249
0.0002682983
0.000267162
0.0002656069
0.0002627491
0.0002560303
0.0002398357
0.0002023827
0.0002691154
0.0002681066
0.0002669255
0.0002652371
0.0002620645
0.0002549547
0.0002393467
0.0002055108
0.0002698789
0.0002689663
0.0002679816
0.0002668319
0.0002651916
0.0002622366
0.0002561661
0.0002441166
0.0002180108
0.0002705965
0.0002697673
0.000268903
0.0002679898
0.0002669505
0.0002655473
0.0002632683
0.0002591699
0.0002521671
0.0002379257
0.0002712728
0.0002705256
0.0002697516
0.0002689592
0.0002681399
0.000267252
0.0002661773
0.0002647212
0.0002626668
0.0002603938
0.00014691
0.000271912
0.0002712471
0.0002705541
0.0002698403
0.0002691118
0.0002683681
0.0002676032
0.0002668005
0.0002659927
0.0002654163
0.0001528454
0.000149235
0.0002725173
0.0002719336
0.000271316
0.000270667
0.0002699873
0.0002692784
0.0002685419
0.0002677887
0.0002670598
0.0002665582
0.0001539836
0.000153217
0.000151205
0.0001539714
0.0001537598
0.0001534042
0.0001525204
0.0001544464
0.000154223
0.0001540047
0.0001537567
0.0001533094
0.0001549328
0.0001546963
0.0001544864
0.0001543046
0.0001541375
6.522805e-05
0.00015539
0.0001551524
0.0001549375
0.0001547582
0.0001546173
6.549848e-05
6.528023e-05
0.000155818
0.0001555836
0.0001553681
0.0001551814
0.0001550338
6.568932e-05
6.551009e-05
6.530919e-05
0.0002665686
0.0002653821
0.0002635979
0.0002599273
0.0002462483
0.0002674662
0.0002662892
0.0002645377
0.0002609612
0.0002520212
0.0002243902
0.0002683216
0.000267245
0.0002658341
0.0002634172
0.0002580229
0.000245029
0.0002115563
0.0002691252
0.000268137
0.0002669909
0.0002653917
0.0002624793
0.0002560665
0.0002418957
0.0002093166
0.0002698789
0.0002689663
0.0002679816
0.0002668319
0.0002651916
0.0002622366
0.0002561661
0.0002441166
0.0002180108
0.0002705884
0.0002697451
0.0002688671
0.0002679387
0.0002668714
0.0002653948
0.0002629274
0.0002584227
0.0002507976
0.0002363776
0.0002712578
0.000270485
0.000269689
0.0002688806
0.0002680481
0.0002671342
0.0002659798
0.0002643212
0.0002618769
0.0002592283
0.0001459612
0.0002718907
0.0002711911
0.0002704699
0.0002697398
0.0002690107
0.0002682818
0.0002675377
0.0002667359
0.000265878
0.0002652247
0.0001525645
0.0001480625
0.0002724898
0.0002718661
0.0002712171
0.0002705512
0.0002698766
0.0002692029
0.0002685402
0.0002679103
0.0002673671
0.0002671078
0.000154195
0.0001531192
0.0001501061
0.0002730581
0.0002725097
0.0002719302
0.000271322
0.0002706866
0.000270026
0.000269345
0.0002686554
0.0002680022
0.0002675611
0.0001546108
0.0001541621
0.0001534896
0.0001518059
0.0001545092
0.0001543336
0.000154107
0.0001537656
0.0001529775
0.0001549435
0.000154727
0.0001545283
0.0001543406
0.0001541286
6.515128e-05
0.0001553931
0.0001551629
0.0001549544
0.0001547782
0.000154633
6.549551e-05
6.52397e-05
0.0001558187
0.000155587
0.000155374
0.0001551892
0.0001550424
6.569208e-05
6.550865e-05
6.529167e-05
0.000156218
0.0001559909
0.0001557773
0.0001555874
0.0001554279
6.586266e-05
6.569813e-05
6.552011e-05
6.532077e-05
0.0002675262
0.0002665197
0.0002652688
0.0002633464
0.0002595134
0.0002460723
0.0002683562
0.0002673619
0.0002661364
0.0002642699
0.0002605424
0.00025188
0.0002258707
0.0002691448
0.0002681966
0.0002671153
0.0002656759
0.0002632252
0.0002580683
0.0002466319
0.0002171225
0.0002698876
0.0002689912
0.000268026
0.0002669105
0.0002653579
0.0002626423
0.0002571502
0.0002461602
0.0002207851
0.0002705884
0.0002697451
0.0002688671
0.0002679387
0.0002668714
0.0002653948
0.0002629274
0.0002584227
0.0002507976
0.0002363776
0.0002712503
0.0002704646
0.0002696573
0.0002688403
0.0002679999
0.0002670693
0.0002658661
0.0002640875
0.0002614229
0.0002585852
0.0001454868
0.0002718767
0.0002711533
0.0002704123
0.0002696704
0.0002689395
0.000268217
0.0002674767
0.0002666511
0.0002657148
0.0002649681
0.000152306
0.0001472543
0.0002724699
0.0002718137
0.0002711385
0.0002704584
0.0002697871
0.0002691392
0.0002685269
0.000267968
0.0002674999
0.0002672984
0.0001542446
0.0001529068
0.0001491506
0.0002730323
0.0002724465
0.0002718375
0.0002712136
0.0002705839
0.0002699591
0.0002693559
0.0002688021
0.0002683613
0.0002681844
0.0001549037
0.0001543526
0.0001534134
0.0001509524
0.0002735663
0.0002730507
0.0002725063
0.0002719354
0.0002713398
0.0002707218
0.0002700861
0.0002694458
0.0002688409
0.00026843
0.0001551035
0.0001547611
0.000154373
0.0001537927
0.0001524234
0.0001550005
0.0001548323
0.0001546438
0.0001544285
0.0001541215
6.501804e-05
0.0001554026
0.0001551913
0.0001549955
0.0001548229
0.0001546658
6.54905e-05
6.516323e-05
0.0001558214
0.0001555967
0.0001553898
0.0001552094
0.0001550634
6.569873e-05
6.550565e-05
6.525122e-05
0.0001562187
0.000155994
0.0001557828
0.0001555948
0.0001554367
6.586645e-05
6.570089e-05
6.551867e-05
6.530329e-05
0.0001565924
0.0001563728
0.0001561631
0.0001559709
0.0001558032
6.602525e-05
6.587032e-05
6.57068e-05
6.553025e-05
6.533206e-05
0.0002684037
0.0002675051
0.0002664812
0.0002651935
0.0002632212
0.0002594732
0.0002465848
0.0002691744
0.0002682828
0.0002672871
0.0002660483
0.0002641674
0.0002605885
0.0002528862
0.0002295027
0.0002699052
0.0002690407
0.0002681122
0.0002670583
0.0002656606
0.0002633672
0.0002589176
0.0002499599
0.0002265371
0.0002705965
0.0002697673
0.000268903
0.0002679898
0.0002669505
0.0002655473
0.0002632683
0.0002591699
0.0002521671
0.0002379257
0.0002712503
0.0002704646
0.0002696573
0.0002688403
0.0002679999
0.0002670693
0.0002658661
0.0002640875
0.0002614229
0.0002585852
0.0001454868
0.0002718697
0.0002711343
0.0002703832
0.000269635
0.0002689028
0.0002681821
0.00026744
0.0002665942
0.0002656052
0.0002648026
0.0001521565
0.0001468457
0.0002724568
0.0002717783
0.0002710848
0.0002703945
0.0002697248
0.0002690928
0.0002685093
0.0002679845
0.0002675388
0.0002673447
0.0001542342
0.0001527048
0.0001484771
0.0002730137
0.0002723974
0.0002717638
0.0002711268
0.0002705011
0.0002699035
0.0002693567
0.0002688902
0.0002685591
0.0002684745
0.0001550455
0.0001544133
0.0001532517
0.0001501914
0.0002735422
0.0002729915
0.0002724193
0.0002718336
0.000271243
0.0002706588
0.0002700972
0.0002695879
0.0002691886
0.0002690303
0.0001553987
0.0001550165
0.0001545297
0.0001537262
0.0001517771
0.0002740443
0.0002735593
0.0002730474
0.0002725109
0.0002719516
0.0002713719
0.0002707765
0.0002701772
0.0002696112
0.0002692174
0.0001555373
0.0001552339
0.0001549372
0.0001546042
0.0001541097
6.480965e-05
0.0001554539
0.0001552875
0.0001551066
0.000154926
0.0001547327
6.54839e-05
6.503122e-05
0.00015583
0.0001556226
0.0001554281
0.0001552539
0.0001551058
6.57116e-05
6.550054e-05
6.51751e-05
0.0001562211
0.0001560028
0.0001557975
0.0001556139
0.0001554581
6.587546e-05
6.570753e-05
6.551565e-05
6.526294e-05
0.000156593
0.0001563756
0.0001561681
0.0001559779
0.0001558116
6.602915e-05
6.587412e-05
6.570956e-05
6.552881e-05
6.531461e-05
0.0001569434
0.0001567318
0.0001565268
0.0001563352
0.0001561613
6.618122e-05
6.603195e-05
6.587784e-05
6.571557e-05
6.55401e-05
4.262874e-05
0.0002692155
0.0002683916
0.0002674917
0.0002664651
0.000265175
0.0002632527
0.0002598234
0.0002478783
0.0002699318
0.0002691133
0.0002682351
0.0002672594
0.0002660513
0.0002642728
0.0002611316
0.0002549825
0.0002358565
0.0002706126
0.0002698115
0.0002689735
0.0002680881
0.0002670974
0.0002658213
0.0002638707
0.0002605028
0.0002547039
0.0002411275
0.0002712578
0.000270485
0.000269689
0.0002688806
0.0002680481
0.0002671342
0.0002659798
0.0002643212
0.0002618769
0.0002592283
0.0001459612
0.0002718697
0.0002711343
0.0002703832
0.000269635
0.0002689028
0.0002681821
0.00026744
0.0002665942
0.0002656052
0.0002648026
0.0001521565
0.0001468457
0.0002724503
0.0002717605
0.0002710576
0.000270362
0.0002696929
0.0002690682
0.0002684974
0.0002679852
0.0002675432
0.0002673463
0.0001542168
0.0001525863
0.0001481328
0.0002730014
0.0002723642
0.0002717135
0.000271067
0.0002704436
0.0002698637
0.0002693516
0.0002689344
0.0002686564
0.000268609
0.0001551113
0.0001544183
0.0001530953
0.0001496446
0.0002735247
0.0002729454
0.0002723501
0.000271752
0.0002711652
0.0002706069
0.0002700997
0.0002696774
0.0002693908
0.0002693302
0.000155558
0.0001551519
0.000154591
0.000153602
0.0001511911
0.0002740217
0.0002735037
0.0002729657
0.0002724151
0.0002718603
0.0002713116
0.0002707847
0.0002703067
0.0002699312
0.0002697689
0.0001558123
0.0001554897
0.0001551468
0.000154724
0.0001540476
6.457089e-05
0.0002744939
0.0002740377
0.0002735561
0.0002730515
0.0002725258
0.0002719811
0.000271422
0.0002708596
0.0002703266
0.000269948
0.0001559354
0.0001556521
0.0001553858
0.0001551289
0.000154842
6.54719e-05
6.482627e-05
0.0001558761
0.0001557096
0.0001555304
0.0001553544
0.0001551891
6.573551e-05
6.549358e-05
6.504432e-05
0.0001562287
0.0001560263
0.0001558325
0.0001556557
0.0001555009
6.589265e-05
6.572025e-05
6.551043e-05
6.518719e-05
0.0001565951
0.0001563837
0.0001561816
0.0001559957
0.0001558321
6.603839e-05
6.588312e-05
6.571618e-05
6.552578e-05
6.527438e-05
0.0001569439
0.0001567345
0.0001565315
0.0001563417
0.0001561692
6.618496e-05
6.603586e-05
6.588165e-05
6.571834e-05
6.553866e-05
4.261743e-05
0.000157273
0.0001570698
0.0001568706
0.0001566809
0.0001565042
6.633089e-05
6.618713e-05
6.603853e-05
6.588546e-05
6.572407e-05
4.276302e-05
4.263894e-05
0.000269969
0.0002692063
0.0002683862
0.0002674946
0.0002664809
0.0002652279
0.0002634538
0.000260552
0.0002502373
0.0002706371
0.0002698767
0.0002690755
0.0002682264
0.0002672939
0.0002661667
0.0002646076
0.0002621475
0.0002580289
0.0002463108
0.0002712728
0.0002705256
0.0002697516
0.0002689592
0.0002681399
0.000267252
0.0002661773
0.0002647212
0.0002626668
0.0002603938
0.00014691
0.0002718767
0.0002711533
0.0002704123
0.0002696704
0.0002689395
0.000268217
0.0002674767
0.0002666511
0.0002657148
0.0002649681
0.000152306
0.0001472543
0.0002724503
0.0002717605
0.0002710576
0.000270362
0.0002696929
0.0002690682
0.0002684974
0.0002679852
0.0002675432
0.0002673463
0.0001542168
0.0001525863
0.0001481328
0.0002729953
0.0002723475
0.000271688
0.0002710367
0.0002704143
0.0002698428
0.000269347
0.0002689516
0.000268695
0.0002686615
0.0001551365
0.0001544105
0.0001530027
0.0001493622
0.0002735132
0.0002729142
0.0002723028
0.0002716958
0.0002711112
0.0002705699
0.000270097
0.0002697258
0.000269498
0.0002694824
0.0001556423
0.0001552189
0.0001546048
0.0001534823
0.000150763
0.0002740053
0.0002734605
0.0002729008
0.0002723384
0.0002717867
0.0002712619
0.0002707857
0.0002703891
0.0002701203
0.000270051
0.0001559662
0.0001556379
0.0001552683
0.0001547787
0.0001539519
6.435314e-05
0.0002744727
0.0002739856
0.0002734794
0.0002729615
0.0002724395
0.0002719233
0.0002714271
0.0002709759
0.000270617
0.0002704485
0.0001561859
0.0001558904
0.0001555961
0.0001552924
0.000154926
6.544535e-05
6.459194e-05
0.000274917
0.0002744878
0.0002740346
0.0002735599
0.0002730652
0.000272553
0.0002720274
0.0002714983
0.0002709958
0.0002706312
0.0001563089
0.0001560377
0.0001557855
0.0001555508
0.0001553246
6.577038e-05
6.54809e-05
6.484274e-05
0.0001562704
0.0001561051
0.0001559256
0.0001557491
0.0001555839
6.592378e-05
6.574362e-05
6.550311e-05
6.505768e-05
0.000156602
0.0001564052
0.0001562137
0.0001560342
0.0001558727
6.605595e-05
6.590018e-05
6.572875e-05
6.552045e-05
6.519902e-05
0.0001569458
0.000156742
0.000156544
0.0001563581
0.0001561883
6.619382e-05
6.60451e-05
6.589063e-05
6.572493e-05
6.553561e-05
4.259138e-05
0.0001572735
0.0001570723
0.000156875
0.0001566869
0.0001565116
6.63344e-05
6.619089e-05
6.604245e-05
6.588927e-05
6.572684e-05
4.276209e-05
4.262769e-05
0.000157583
0.0001573884
0.0001571956
0.0001570094
0.000156832
6.647494e-05
6.633614e-05
6.619293e-05
6.60452e-05
6.589283e-05
4.288172e-05
4.277207e-05
4.264551e-05
0.0002706713
0.0002699606
0.000269203
0.0002683941
0.0002675195
0.0002665363
0.0002653613
0.0002638252
0.0002616424
0.0002544861
0.0002712956
0.0002705857
0.0002698429
0.0002690721
0.0002682674
0.000267404
0.000266411
0.0002651775
0.0002635829
0.0002618366
0.000148321
0.0002718907
0.0002711911
0.0002704699
0.0002697398
0.0002690107
0.0002682818
0.0002675377
0.0002667359
0.000265878
0.0002652247
0.0001525645
0.0001480625
0.0002724568
0.0002717783
0.0002710848
0.0002703945
0.0002697248
0.0002690928
0.0002685093
0.0002679845
0.0002675388
0.0002673447
0.0001542342
0.0001527048
0.0001484771
0.0002729953
0.0002723475
0.000271688
0.0002710367
0.0002704143
0.0002698428
0.000269347
0.0002689516
0.000268695
0.0002686615
0.0001551365
0.0001544105
0.0001530027
0.0001493622
0.0002735075
0.0002728986
0.0002722789
0.0002716673
0.0002710836
0.0002705506
0.0002700941
0.0002697462
0.0002695438
0.000269547
0.0001556788
0.000155246
0.0001546036
0.0001534113
0.0001505394
0.0002739945
0.0002734313
0.0002728563
0.0002722855
0.0002717358
0.0002712266
0.0002707826
0.0002704344
0.0002702228
0.0002701981
0.0001560508
0.0001557193
0.0001553323
0.0001547963
0.0001538626
6.419278e-05
0.0002744574
0.000273945
0.0002734185
0.0002728893
0.0002723701
0.0002718757
0.0002714261
0.00027105
0.0002707894
0.0002707071
0.0001563283
0.0001560327
0.0001557275
0.0001553955
0.0001549702
6.540912e-05
6.437807e-05
0.0002748972
0.000274439
0.0002739627
0.0002734753
0.000272984
0.0002724978
0.0002720299
0.0002716029
0.0002712593
0.0002710852
0.0001565362
0.0001562549
0.000155982
0.0001557163
0.0001554449
6.579914e-05
6.545439e-05
6.461275e-05
0.000275315
0.0002749114
0.000274485
0.0002740381
0.0002735726
0.0002730905
0.0002725958
0.0002720977
0.0002716234
0.0002712732
0.0001566613
0.0001564008
0.0001561563
0.0001559303
0.0001557184
6.596975e-05
6.577719e-05
6.548975e-05
6.485941e-05
0.0001566399
0.0001564768
0.0001562983
0.0001561197
0.0001559509
6.608749e-05
6.593076e-05
6.575156e-05
6.551278e-05
6.507079e-05
0.0001569521
0.0001567616
0.0001565735
0.0001563936
0.0001562261
6.621059e-05
6.606255e-05
6.590755e-05
6.573735e-05
6.553016e-05
4.254267e-05
0.0001572752
0.0001570792
0.0001568866
0.0001567022
0.0001565294
6.634272e-05
6.619974e-05
6.605168e-05
6.589824e-05
6.57334e-05
4.27601e-05
4.260179e-05
0.0001575834
0.0001573907
0.0001571997
0.0001570151
0.0001568389
6.647823e-05
6.633967e-05
6.619669e-05
6.604913e-05
6.589664e-05
4.288352e-05
4.277117e-05
4.263429e-05
0.0001578747
0.0001576888
0.0001575031
0.0001573215
0.0001571454
6.661323e-05
6.647964e-05
6.634128e-05
6.619881e-05
6.605163e-05
4.299068e-05
4.288974e-05
4.277779e-05
4.265071e-05
0.0002713273
0.0002706632
0.0002699577
0.0002692116
0.0002684198
0.0002675717
0.0002666388
0.0002655852
0.0002643824
0.0002631584
0.0001500991
0.000271912
0.0002712471
0.0002705541
0.0002698403
0.0002691118
0.0002683681
0.0002676032
0.0002668005
0.0002659927
0.0002654163
0.0001528454
0.000149235
0.0002724699
0.0002718137
0.0002711385
0.0002704584
0.0002697871
0.0002691392
0.0002685269
0.000267968
0.0002674999
0.0002672984
0.0001542446
0.0001529068
0.0001491506
0.0002730014
0.0002723642
0.0002717135
0.000271067
0.0002704436
0.0002698637
0.0002693516
0.0002689344
0.0002686564
0.000268609
0.0001551113
0.0001544183
0.0001530953
0.0001496446
0.0002735075
0.0002728986
0.0002722789
0.0002716673
0.0002710836
0.0002705506
0.0002700941
0.0002697462
0.0002695438
0.000269547
0.0001556788
0.000155246
0.0001546036
0.0001534113
0.0001505394
0.0002739891
0.0002734166
0.0002728339
0.0002722587
0.0002717097
0.0002712082
0.0002707796
0.0002704538
0.0002702675
0.0002702621
0.0001560886
0.0001557552
0.0001553593
0.0001547992
0.0001538099
6.410862e-05
0.0002744473
0.0002739176
0.0002733767
0.0002728396
0.0002723219
0.0002718419
0.0002714219
0.0002710907
0.0002708835
0.0002708433
0.0001564076
0.0001561133
0.0001558027
0.0001554533
0.0001549883
6.53763e-05
6.422043e-05
0.0002748828
0.000274401
0.0002739056
0.0002734075
0.0002729185
0.0002724524
0.0002720273
0.0002716692
0.0002714159
0.0002713208
0.0001566663
0.0001563864
0.000156108
0.0001558274
0.0001555275
6.581548e-05
6.541871e-05
6.440271e-05
0.0002752964
0.0002748656
0.0002744176
0.0002739589
0.0002734962
0.0002730381
0.0002725967
0.0002721924
0.0002718635
0.0002716868
0.000156868
0.0001565981
0.0001563359
0.0001560858
0.0001558423
6.601283e-05
6.580512e-05
6.546327e-05
6.463366e-05
0.0002756891
0.0002753098
0.0002749088
0.0002744883
0.0002740501
0.0002735962
0.0002731304
0.0002726611
0.0002722132
0.0002718777
0.000156995
0.0001567445
0.000156507
0.0001562847
0.0001560768
6.613409e-05
6.597541e-05
6.578386e-05
6.549876e-05
6.487574e-05
0.0001569867
0.0001568271
0.0001566507
0.0001564719
0.0001562985
6.624059e-05
6.60936e-05
6.593759e-05
6.575961e-05
6.552215e-05
4.246012e-05
0.0001572809
0.0001570974
0.0001569138
0.000156735
0.0001565645
6.635843e-05
6.621642e-05
6.6069e-05
6.591501e-05
6.574565e-05
4.275651e-05
4.255343e-05
0.000157585
0.0001573971
0.0001572105
0.0001570293
0.0001568555
6.648601e-05
6.634799e-05
6.620554e-05
6.605834e-05
6.590557e-05
4.288777e-05
4.276921e-05
4.26085e-05
0.0001578751
0.000157691
0.000157507
0.0001573268
0.0001571519
6.661632e-05
6.648295e-05
6.634482e-05
6.620258e-05
6.605555e-05
4.299316e-05
4.289156e-05
4.277689e-05
4.263953e-05
0.0001581495
0.0001579724
0.0001577941
0.0001576179
0.0001574446
6.674592e-05
6.661747e-05
6.648424e-05
6.634651e-05
6.620446e-05
4.309329e-05
4.299785e-05
4.289468e-05
4.278224e-05
4.26537e-05
0.0001515885
0.0002719415
0.0002713193
0.0002706601
0.0002699655
0.0002692356
0.0002684673
0.0002676572
0.0002668006
0.0002659337
0.0002652602
0.0001529898
0.000150635
0.0002724898
0.0002718661
0.0002712171
0.0002705512
0.0002698766
0.0002692029
0.0002685402
0.0002679103
0.0002673671
0.0002671078
0.000154195
0.0001531192
0.0001501061
0.0002730137
0.0002723974
0.0002717638
0.0002711268
0.0002705011
0.0002699035
0.0002693567
0.0002688902
0.0002685591
0.0002684745
0.0001550455
0.0001544133
0.0001532517
0.0001501914
0.0002735132
0.0002729142
0.0002723028
0.0002716958
0.0002711112
0.0002705699
0.000270097
0.0002697258
0.000269498
0.0002694824
0.0001556423
0.0001552189
0.0001546048
0.0001534823
0.000150763
0.0002739891
0.0002734166
0.0002728339
0.0002722587
0.0002717097
0.0002712082
0.0002707796
0.0002704538
0.0002702675
0.0002702621
0.0001560886
0.0001557552
0.0001553593
0.0001547992
0.0001538099
6.410862e-05
0.0002744422
0.0002739038
0.0002733556
0.0002728144
0.0002722974
0.0002718243
0.0002714186
0.0002711082
0.0002709247
0.0002709031
0.0001564435
0.0001561498
0.0001558367
0.0001554786
0.0001549935
6.535708e-05
6.413763e-05
0.0002748733
0.0002743753
0.0002738664
0.0002733608
0.0002728731
0.0002724201
0.0002720223
0.0002717055
0.0002715014
0.0002714455
0.0001567395
0.000156462
0.000156182
0.000155894
0.0001555769
6.582298e-05
6.538651e-05
6.424775e-05
0.0002752829
0.0002748301
0.0002743641
0.0002738953
0.0002734347
0.000272995
0.0002725931
0.0002722522
0.0002720062
0.000271902
0.000156987
0.0001567185
0.0001564526
0.0001561928
0.0001559319
6.604388e-05
6.582115e-05
6.542813e-05
6.44274e-05
0.0002756717
0.000275267
0.0002748457
0.0002744141
0.0002739785
0.0002735468
0.0002731304
0.0002727477
0.0002724335
0.0002722566
0.000157184
0.0001569242
0.0001566707
0.0001564278
0.0001561948
6.617916e-05
6.60175e-05
6.581097e-05
6.547231e-05
6.465417e-05
0.0002760406
0.0002756845
0.0002753075
0.000274912
0.0002744996
0.0002740723
0.0002736336
0.0002731913
0.0002727683
0.0002724477
0.0001573113
0.0001570708
0.0001568403
0.0001566221
0.0001564146
6.628481e-05
6.613899e-05
6.598092e-05
6.579066e-05
6.550748e-05
4.23353e-05
0.0001573127
0.0001571575
0.0001569847
0.0001568069
0.0001566314
6.638643e-05
6.624599e-05
6.609956e-05
6.59445e-05
6.576735e-05
4.275111e-05
4.247174e-05
0.0001575902
0.000157414
0.0001572358
0.0001570598
0.0001568882
6.650069e-05
6.636362e-05
6.622212e-05
6.607553e-05
6.592219e-05
4.289564e-05
4.276562e-05
4.256042e-05
0.0001578765
0.000157697
0.0001575171
0.0001573401
0.0001571675
6.662361e-05
6.649073e-05
6.635313e-05
6.621141e-05
6.606474e-05
4.299895e-05
4.289582e-05
4.277493e-05
4.261382e-05
0.0001581498
0.0001579744
0.0001577977
0.0001576229
0.0001574507
6.674883e-05
6.662056e-05
6.648755e-05
6.635005e-05
6.620823e-05
4.309584e-05
4.300034e-05
4.28965e-05
4.278134e-05
4.264253e-05
0.0001584084
0.00015824
0.0001580695
0.0001578994
0.0001577301
6.687299e-05
6.674976e-05
6.66216e-05
6.648891e-05
6.635151e-05
4.319212e-05
4.309976e-05
4.300214e-05
4.289846e-05
4.278467e-05
0.000151803
0.000152639
0.0001517879
0.0002725173
0.0002719336
0.000271316
0.000270667
0.0002699873
0.0002692784
0.0002685419
0.0002677887
0.0002670598
0.0002665582
0.0001539836
0.000153217
0.000151205
0.0002730323
0.0002724465
0.0002718375
0.0002712136
0.0002705839
0.0002699591
0.0002693559
0.0002688021
0.0002683613
0.0002681844
0.0001549037
0.0001543526
0.0001534134
0.0001509524
0.0002735247
0.0002729454
0.0002723501
0.000271752
0.0002711652
0.0002706069
0.0002700997
0.0002696774
0.0002693908
0.0002693302
0.000155558
0.0001551519
0.000154591
0.000153602
0.0001511911
0.0002739945
0.0002734313
0.0002728563
0.0002722855
0.0002717358
0.0002712266
0.0002707826
0.0002704344
0.0002702228
0.0002701981
0.0001560508
0.0001557193
0.0001553323
0.0001547963
0.0001538626
6.419278e-05
0.0002744422
0.0002739038
0.0002733556
0.0002728144
0.0002722974
0.0002718243
0.0002714186
0.0002711082
0.0002709247
0.0002709031
0.0001564435
0.0001561498
0.0001558367
0.0001554786
0.0001549935
6.535708e-05
6.413763e-05
0.0002748686
0.0002743623
0.0002738466
0.0002733371
0.0002728499
0.0002724033
0.0002720186
0.000271721
0.000271539
0.0002715005
0.0001567727
0.0001564965
0.0001562162
0.0001559248
0.0001555996
6.58255e-05
6.536769e-05
6.416631e-05
0.000275274
0.000274806
0.0002743274
0.0002738515
0.000273392
0.0002729644
0.0002725876
0.0002722848
0.0002720842
0.0002720164
0.0001570543
0.0001567882
0.0001565219
0.0001562582
0.0001559884
6.606324e-05
6.58286e-05
6.539655e-05
6.427509e-05
0.0002756591
0.0002752338
0.0002747957
0.0002743546
0.0002739208
0.0002735062
0.0002731263
0.0002728022
0.0002725644
0.0002724542
0.0001572933
0.0001570345
0.0001567779
0.0001565273
0.0001562817
6.621314e-05
6.604804e-05
6.582669e-05
6.54377e-05
6.445162e-05
0.0002760242
0.0002756445
0.0002752487
0.0002748427
0.0002744327
0.000274026
0.0002736332
0.0002732712
0.0002729718
0.0002727969
0.000157485
0.0001572354
0.0001569899
0.0001567533
0.0001565242
6.632814e-05
6.618311e-05
6.602205e-05
6.581696e-05
6.548105e-05
4.219377e-05
0.0002763703
0.0002760364
0.0002756825
0.0002753107
0.0002749227
0.0002745205
0.0002741073
0.0002736905
0.0002732912
0.0002729857
0.0001576113
0.0001573808
0.0001571579
0.0001569442
0.0001567382
6.642758e-05
6.628913e-05
6.614375e-05
6.598656e-05
6.579718e-05
4.27412e-05
4.23488e-05
0.0001576196
0.0001574696
0.0001573013
0.0001571262
0.0001569503
6.652676e-05
6.639126e-05
6.625126e-05
6.61056e-05
6.595113e-05
4.290942e-05
4.276009e-05
4.247949e-05
0.0001578813
0.0001577127
0.0001575407
0.0001573685
0.0001571981
6.663734e-05
6.650534e-05
6.636868e-05
6.622788e-05
6.60818e-05
4.300966e-05
4.290364e-05
4.277128e-05
4.2566e-05
0.0001581511
0.0001579801
0.0001578073
0.0001576355
0.0001574654
6.675569e-05
6.662787e-05
6.649534e-05
6.635836e-05
6.621705e-05
4.31018e-05
4.300614e-05
4.290074e-05
4.277935e-05
4.261689e-05
0.0001584086
0.000158242
0.0001580729
0.0001579042
0.0001577359
6.687574e-05
6.675268e-05
6.662471e-05
6.649223e-05
6.635506e-05
4.319457e-05
4.310232e-05
4.300463e-05
4.290026e-05
4.278375e-05
0.0001586523
0.0001584928
0.0001583301
0.0001581667
0.0001580022
6.699455e-05
6.68765e-05