/*--------------------------------*- C++ -*----------------------------------*\
| =========                 |                                                 |
| \\      /  F ield         | OpenFOAM: The Open Source CFD Toolbox           |
|  \\    /   O peration     | Version:  2306                                  |
|   \\  /    A nd           | Website:  www.openfoam.com                      |
|    \\/     M anipulation  |                                                 |
\*---------------------------------------------------------------------------*/
FoamFile
{
    version     2.0;
    format      ascii;
    arch        "LSB;label=32;scalar=64";
    class       volScalarField;
    location    "1.5/air";
    object      N2;
}
// * * * * * * * * * * * * * * * * * * * * * * * * * * * * * * * * * * * * * //

dimensions      [0 0 0 0 0 0 0];

internalField   nonuniform List<scalar> 
16000
(
0.7704434
0.7704334
0.7722481
0.7704905
0.7704212
0.7721422
0.7704743
0.7752643
0.7723857
0.770605
0.7704114
0.772001
0.7704562
0.7751488
0.7722467
0.7705741
0.7782976
0.7754166
0.7727363
0.7708261
0.7704061
0.7718779
0.7704427
0.7749906
0.7720692
0.77054
0.7781847
0.7752669
0.7725568
0.7707692
0.7812096
0.7784484
0.7757947
0.7733658
0.7712234
0.7704061
0.7718078
0.7704358
0.7748502
0.7719187
0.7705151
0.7780299
0.7750707
0.7723292
0.770704
0.7811024
0.7783028
0.7756053
0.7731495
0.7711307
0.7839709
0.7813526
0.7788212
0.7764617
0.7743246
0.771895
0.8102016
0.7704114
0.7718078
0.7704358
0.7747694
0.7718343
0.7705025
0.7778921
0.7749009
0.7721376
0.7706552
0.7809554
0.7781117
0.7753603
0.7728717
0.7710152
0.78387
0.7812146
0.7786387
0.7762374
0.7740782
0.7717701
0.7865852
0.784106
0.7817059
0.7794751
0.7774669
0.7756552
0.772949
0.8088585
0.8119462
0.8104138
0.7704212
0.7718779
0.7704427
0.7747694
0.7718343
0.7705025
0.7778126
0.7748043
0.7720306
0.7706302
0.7808247
0.7779457
0.7751501
0.7726352
0.770925
0.7837318
0.7810335
0.7784024
0.7759462
0.7737585
0.7716037
0.78649
0.7839761
0.7815334
0.7792618
0.7772149
0.7753739
0.7727855
0.7890665
0.7867125
0.7844395
0.7823246
0.7804536
0.7788459
0.7774121
0.7745311
0.8061458
0.8107466
0.8090755
0.8127407
0.8121397
0.8108375
0.7704334
0.772001
0.7704562
0.7748502
0.7719187
0.7705151
0.7778126
0.7748043
0.7720306
0.7706302
0.7807494
0.7778512
0.7750315
0.7725025
0.7708779
0.7836088
0.7808763
0.7781993
0.7756963
0.7734813
0.7714608
0.7863595
0.7838058
0.7813105
0.778985
0.7768849
0.7750068
0.7725579
0.7889764
0.7865899
0.7842774
0.7821239
0.7802177
0.7785706
0.7770874
0.7742912
0.7914289
0.7891871
0.7870269
0.7850233
0.7832482
0.7817846
0.7806244
0.7796526
0.7768655
0.8019652
0.8083294
0.8063799
0.8116315
0.8109437
0.8095076
0.8134039
0.8129185
0.8125261
0.8114712
0.7704434
0.7721422
0.7704743
0.7749906
0.7720692
0.77054
0.7778921
0.7749009
0.7721376
0.7706552
0.7807494
0.7778512
0.7750315
0.7725025
0.7708779
0.7835379
0.7807869
0.7780844
0.7755552
0.7733238
0.7713805
0.7862435
0.7836581
0.7811191
0.7787469
0.7766003
0.7746909
0.7723566
0.788853
0.7864291
0.7840679
0.781864
0.7799089
0.7782064
0.7766616
0.7739598
0.7913433
0.789071
0.7868738
0.7848348
0.7830272
0.7815311
0.7803205
0.779252
0.7764188
0.793685
0.7915433
0.7894847
0.7875772
0.7858944
0.7845012
0.7834842
0.7828277
0.7824567
0.7803739
0.7959265
0.8046205
0.8022643
0.8093971
0.80854
0.8068403
0.8123714
0.8118124
0.8113365
0.8101516
0.8141362
0.8135691
0.8132734
0.8131045
0.8123136
0.7722481
0.7704905
0.7751488
0.7722467
0.7705741
0.7780299
0.7750707
0.7723292
0.770704
0.7808247
0.7779457
0.7751501
0.7726352
0.770925
0.7835379
0.7807869
0.7780844
0.7755552
0.7733238
0.7713805
0.7861766
0.783574
0.7810109
0.7786122
0.7764391
0.7745122
0.7722414
0.7887432
0.7862898
0.7838881
0.781641
0.7796421
0.7778905
0.776296
0.7736734
0.791226
0.7889189
0.7866761
0.7845908
0.7827388
0.7811955
0.7799156
0.7787345
0.7758783
0.7936034
0.791433
0.7893397
0.7873992
0.785687
0.7842646
0.7832077
0.7824629
0.7818713
0.7793095
0.7958454
0.7937939
0.7918259
0.7900059
0.7883986
0.7870756
0.7860977
0.7855683
0.7855061
0.7859968
0.7860945
0.7993063
0.7965436
0.8059708
0.8048845
0.8028213
0.8102919
0.80959
0.8089548
0.807516
0.8131681
0.8125394
0.8121728
0.8119222
0.8110043
0.8149925
0.8142909
0.8138989
0.8138047
0.8138736
0.8135258
0.7752643
0.7723857
0.770605
0.7781847
0.7752669
0.7725568
0.7707692
0.7809554
0.7781117
0.7753603
0.7728717
0.7710152
0.7836088
0.7808763
0.7781993
0.7756963
0.7734813
0.7714608
0.7861766
0.783574
0.7810109
0.7786122
0.7764391
0.7745122
0.7722414
0.7886799
0.7862105
0.7837864
0.7815149
0.7794907
0.7777112
0.7760896
0.7735118
0.7911217
0.788787
0.7865065
0.7843815
0.7824901
0.7809038
0.7795639
0.7782972
0.7754502
0.7934917
0.7912885
0.7891526
0.7871689
0.7854164
0.7839523
0.7828385
0.7819848
0.7811777
0.7783559
0.7957675
0.7936888
0.7916881
0.7898372
0.7882026
0.7868535
0.7858398
0.7852369
0.7849742
0.7848795
0.7830474
0.7979188
0.7959495
0.7940632
0.7923208
0.7907841
0.7895128
0.7885797
0.7880519
0.7880787
0.7888076
0.7907882
0.7889541
0.8010657
0.7998362
0.797463
0.807104
0.806212
0.8053778
0.803593
0.8112185
0.8104708
0.8099699
0.8095646
0.8083968
0.8140802
0.8133255
0.8128741
0.8127104
0.8126984
0.8122268
0.8159317
0.8151384
0.8146
0.8143927
0.8145115
0.8149808
0.8137756
0.7782976
0.7754166
0.7727363
0.7708261
0.7811024
0.7783028
0.7756053
0.7731495
0.7711307
0.7837318
0.7810335
0.7784024
0.7759462
0.7737585
0.7716037
0.7862435
0.7836581
0.7811191
0.7787469
0.7766003
0.7746909
0.7723566
0.7886799
0.7862105
0.7837864
0.7815149
0.7794907
0.7777112
0.7760896
0.7735118
0.7910616
0.7887119
0.7864107
0.7842632
0.7823492
0.7807378
0.7793645
0.7780529
0.7752202
0.7933923
0.7911632
0.7889921
0.7869715
0.7851832
0.7836814
0.7825169
0.7815767
0.7806237
0.7777047
0.7956607
0.7935511
0.7915102
0.7896191
0.7879471
0.7865605
0.7854964
0.7848011
0.7843391
0.7838403
0.7814303
0.7978442
0.7958491
0.7939318
0.7921603
0.7905982
0.7893026
0.7883374
0.7877422
0.7875907
0.7877818
0.7879879
0.7853709
0.7999126
0.7980185
0.7962066
0.7945348
0.79306
0.7918401
0.7909325
0.7904202
0.7904038
0.7911529
0.7932142
0.7931998
0.7911776
0.8025424
0.8015505
0.800631
0.7985323
0.8082301
0.8073275
0.8066628
0.8060643
0.804547
0.8122431
0.8113859
0.8108232
0.8105285
0.8103611
0.8096426
0.8150679
0.8142286
0.813639
0.8133734
0.8134229
0.8138121
0.8124787
0.8169349
0.8160699
0.8154298
0.8150628
0.8150496
0.815529
0.8152089
0.8140274
0.7812096
0.7784484
0.7757947
0.7733658
0.7712234
0.78387
0.7812146
0.7786387
0.7762374
0.7740782
0.7717701
0.7863595
0.7838058
0.7813105
0.778985
0.7768849
0.7750068
0.7725579
0.7887432
0.7862898
0.7838881
0.781641
0.7796421
0.7778905
0.776296
0.7736734
0.7910616
0.7887119
0.7864107
0.7842632
0.7823492
0.7807378
0.7793645
0.7780529
0.7752202
0.7933351
0.7910919
0.7889014
0.78686
0.7850511
0.7835275
0.7823341
0.781348
0.7803238
0.7773792
0.7955658
0.7934318
0.7913577
0.7894321
0.787727
0.7863064
0.7851981
0.7844283
0.7838289
0.7831031
0.7804932
0.797742
0.7957175
0.7937623
0.7919529
0.7903559
0.7890256
0.7880149
0.7873361
0.7870072
0.786826
0.7864055
0.7834105
0.799841
0.7979222
0.7960811
0.7943818
0.792883
0.7916405
0.7907028
0.7901287
0.7899465
0.7902024
0.7906296
0.789944
0.7874289
0.8018332
0.8000082
0.7982646
0.7966572
0.7952395
0.7940636
0.7931863
0.7926709
0.7926347
0.7932833
0.7952447
0.7954286
0.7950862
0.7929965
0.8039549
0.8029916
0.8022769
0.8015624
0.7996784
0.8094274
0.8084391
0.8077452
0.8072902
0.8069169
0.8058376
0.8133285
0.8124009
0.8117159
0.8113415
0.8112582
0.8114896
0.8098992
0.8161141
0.8152083
0.814524
0.8141067
0.8140353
0.8144454
0.8140415
0.8127326
0.8179757
0.8170662
0.8163458
0.8158661
0.8156784
0.8159954
0.8157387
0.8154389
0.8142815
0.7839709
0.7813526
0.7788212
0.7764617
0.7743246
0.771895
0.78649
0.7839761
0.7815334
0.7792618
0.7772149
0.7753739
0.7727855
0.788853
0.7864291
0.7840679
0.781864
0.7799089
0.7782064
0.7766616
0.7739598
0.7911217
0.788787
0.7865065
0.7843815
0.7824901
0.7809038
0.7795639
0.7782972
0.7754502
0.7933351
0.7910919
0.7889014
0.78686
0.7850511
0.7835275
0.7823341
0.781348
0.7803238
0.7773792
0.7955111
0.7933639
0.7912715
0.7893265
0.7876024
0.7861621
0.7850289
0.784219
0.7835522
0.7827259
0.7800541
0.7976511
0.7956034
0.7936169
0.7917752
0.7901472
0.7887856
0.7877348
0.7869895
0.7865383
0.7861467
0.7854452
0.7823041
0.7997429
0.7977962
0.795919
0.794184
0.7926524
0.7913775
0.7903973
0.7897465
0.789401
0.7893174
0.7891673
0.7880777
0.785245
0.8017644
0.7999159
0.7981443
0.7965108
0.7950705
0.7938733
0.7929679
0.7923942
0.7922037
0.7923918
0.7928417
0.7924204
0.7916858
0.789231
0.8036862
0.8019251
0.8002443
0.7986961
0.7973306
0.7961966
0.7953438
0.7948356
0.7947645
0.7953462
0.7971158
0.7972995
0.7971567
0.7966409
0.7945316
0.8053995
0.8043749
0.8036643
0.803127
0.8025687
0.8010545
0.8106624
0.8096241
0.8088298
0.8083264
0.8080692
0.808075
0.8061028
0.8144613
0.8134778
0.8127117
0.8122011
0.8120186
0.8122922
0.8117219
0.8101577
0.8171934
0.8162476
0.8154881
0.8149649
0.8147269
0.8149852
0.814656
0.8142728
0.8129887
0.8190415
0.8181008
0.8173285
0.816759
0.8164465
0.8165649
0.8161902
0.8159501
0.8156709
0.8145376
0.7865852
0.784106
0.7817059
0.7794751
0.7774669
0.7756552
0.772949
0.7889764
0.7865899
0.7842774
0.7821239
0.7802177
0.7785706
0.7770874
0.7742912
0.791226
0.7889189
0.7866761
0.7845908
0.7827388
0.7811955
0.7799156
0.7787345
0.7758783
0.7933923
0.7911632
0.7889921
0.7869715
0.7851832
0.7836814
0.7825169
0.7815767
0.7806237
0.7777047
0.7955111
0.7933639
0.7912715
0.7893265
0.7876024
0.7861621
0.7850289
0.784219
0.7835522
0.7827259
0.7800541
0.7975987
0.7955385
0.7935348
0.7916748
0.7900291
0.7886494
0.7875759
0.7867953
0.7862838
0.7857987
0.7849825
0.7817956
0.7996557
0.797687
0.7957801
0.7940145
0.7924539
0.7911496
0.7901323
0.7894204
0.7889635
0.7886887
0.7882788
0.7869819
0.7840094
0.8016701
0.799795
0.7979891
0.7963217
0.7948504
0.7936227
0.7926775
0.7920318
0.7916895
0.7915626
0.7914828
0.7906933
0.7896319
0.7869195
0.8036199
0.8018363
0.8001289
0.7985558
0.7971688
0.7960148
0.7951353
0.7945723
0.7943555
0.7945054
0.7948622
0.794501
0.7940116
0.7932191
0.7907949
0.8054763
0.8037746
0.802152
0.8006583
0.799341
0.7982454
0.7974179
0.7969133
0.7968231
0.7973303
0.7989559
0.7990397
0.7989013
0.7985769
0.7979645
0.7960428
0.8068489
0.8057947
0.8050039
0.8044512
0.8040442
0.8037866
0.8013359
0.8119282
0.8108486
0.8099919
0.8093735
0.8090483
0.8091271
0.808313
0.8063697
0.815618
0.8146032
0.8137719
0.8131688
0.812835
0.8129782
0.8125051
0.8119561
0.8104182
0.818294
0.8173206
0.8165135
0.8159056
0.8155495
0.8156169
0.8151808
0.8148684
0.8145061
0.8132469
0.8201202
0.8191612
0.8183509
0.8177212
0.8173088
0.8172823
0.8167475
0.8163867
0.8161633
0.8159049
0.8148502
0.7890665
0.7867125
0.7844395
0.7823246
0.7804536
0.7788459
0.7774121
0.7745311
0.7913433
0.789071
0.7868738
0.7848348
0.7830272
0.7815311
0.7803205
0.779252
0.7764188
0.7934917
0.7912885
0.7891526
0.7871689
0.7854164
0.7839523
0.7828385
0.7819848
0.7811777
0.7783559
0.7955658
0.7934318
0.7913577
0.7894321
0.787727
0.7863064
0.7851981
0.7844283
0.7838289
0.7831031
0.7804932
0.7975987
0.7955385
0.7935348
0.7916748
0.7900291
0.7886494
0.7875759
0.7867953
0.7862838
0.7857987
0.7849825
0.7817956
0.7996054
0.7976249
0.7957016
0.7939188
0.7923415
0.7910203
0.789982
0.7892376
0.7887264
0.7883667
0.7878503
0.7864652
0.7834455
0.8015863
0.7996902
0.7978561
0.7961596
0.794661
0.7934057
0.7924256
0.7917228
0.791277
0.7909742
0.7906576
0.7896778
0.7884303
0.7855981
0.8035291
0.8017201
0.7999799
0.7983745
0.7969582
0.7957753
0.7948583
0.7942274
0.7938676
0.7937232
0.7935879
0.7928943
0.7921085
0.7910546
0.788428
0.8054124
0.8036891
0.802041
0.8005236
0.7991859
0.7980713
0.7972185
0.7966618
0.7964338
0.796533
0.7968311
0.796415
0.795974
0.7954083
0.7945571
0.7923427
0.8072079
0.8055615
0.8039931
0.80255
0.8012773
0.8002175
0.7994134
0.7989161
0.798806
0.7992601
0.8007474
0.8007675
0.8005387
0.8002164
0.7997822
0.7992804
0.7963494
0.8083048
0.8072227
0.8063866
0.8057396
0.8053
0.8051528
0.8040358
0.8016178
0.8132036
0.812105
0.8111966
0.8105038
0.8100488
0.8100286
0.8093446
0.8085525
0.8066382
0.8167887
0.8157532
0.8148827
0.8142046
0.8137661
0.8137335
0.8131758
0.8127197
0.8121922
0.8106808
0.8194044
0.8184156
0.817574
0.8169102
0.8164592
0.8163884
0.8158002
0.8153781
0.8150825
0.8147413
0.8135619
0.8212046
0.8202348
0.8194001
0.8187253
0.8182438
0.8181004
0.8174545
0.8169317
0.8165849
0.8163783
0.8161904
0.8151699
0.7914289
0.7891871
0.7870269
0.7850233
0.7832482
0.7817846
0.7806244
0.7796526
0.7768655
0.7936034
0.791433
0.7893397
0.7873992
0.785687
0.7842646
0.7832077
0.7824629
0.7818713
0.7793095
0.7956607
0.7935511
0.7915102
0.7896191
0.7879471
0.7865605
0.7854964
0.7848011
0.7843391
0.7838403
0.7814303
0.7976511
0.7956034
0.7936169
0.7917752
0.7901472
0.7887856
0.7877348
0.7869895
0.7865383
0.7861467
0.7854452
0.7823041
0.7996054
0.7976249
0.7957016
0.7939188
0.7923415
0.7910203
0.789982
0.7892376
0.7887264
0.7883667
0.7878503
0.7864652
0.7834455
0.801538
0.7996305
0.7977809
0.7960681
0.7945537
0.7932825
0.7922827
0.7915498
0.7910535
0.7906731
0.7902597
0.7891984
0.7878692
0.7849958
0.8034485
0.8016194
0.7998522
0.7982192
0.7967769
0.795568
0.794618
0.7939334
0.7934766
0.7931681
0.7928143
0.7919498
0.7909933
0.7897804
0.7870634
0.8053249
0.8035772
0.8018978
0.8003496
0.798984
0.7978419
0.7969536
0.7963325
0.7959694
0.7957913
0.7956291
0.7949078
0.7942023
0.7934002
0.7923393
0.7899778
0.8071462
0.8054791
0.8038862
0.8024204
0.8011283
0.8000504
0.7992222
0.7986754
0.7984341
0.7985017
0.7987342
0.7982928
0.7977927
0.7972658
0.7966229
0.7958885
0.7926567
0.8088848
0.8072902
0.8057722
0.8043762
0.803145
0.8021186
0.8013369
0.8008467
0.8007235
0.801128
0.8025068
0.8024622
0.8021785
0.8017685
0.8013312
0.8009757
0.7995474
0.7966539
0.8097498
0.8086597
0.8077826
0.8070789
0.806533
0.8063253
0.8053796
0.8042854
0.8019002
0.8144816
0.813372
0.8124355
0.8116809
0.8111396
0.8109658
0.8102301
0.8095634
0.8087936
0.8069083
0.8179628
0.8169179
0.8160195
0.8152937
0.81477
0.8146126
0.8139185
0.8133749
0.8129359
0.81243
0.811001
0.8205177
0.8195208
0.8186578
0.8179522
0.8174363
0.8172536
0.8165612
0.8159851
0.8155771
0.8152985
0.8150283
0.8138841
0.8222892
0.8213146
0.8204637
0.819758
0.8192235
0.8189962
0.8182635
0.8176282
0.8171174
0.8167847
0.8166407
0.8164822
0.8154127
0.793685
0.7915433
0.7894847
0.7875772
0.7858944
0.7845012
0.7834842
0.7828277
0.7824567
0.7803739
0.7957675
0.7936888
0.7916881
0.7898372
0.7882026
0.7868535
0.7858398
0.7852369
0.7849742
0.7848795
0.7830474
0.797742
0.7957175
0.7937623
0.7919529
0.7903559
0.7890256
0.7880149
0.7873361
0.7870072
0.786826
0.7864055
0.7834105
0.7996557
0.797687
0.7957801
0.7940145
0.7924539
0.7911496
0.7901323
0.7894204
0.7889635
0.7886887
0.7882788
0.7869819
0.7840094
0.801538
0.7996305
0.7977809
0.7960681
0.7945537
0.7932825
0.7922827
0.7915498
0.7910535
0.7906731
0.7902597
0.7891984
0.7878692
0.7849958
0.803402
0.8015621
0.7997801
0.7981316
0.7966743
0.7954503
0.7944818
0.7937687
0.7932647
0.792884
0.7924415
0.7915041
0.7904719
0.7891871
0.7864411
0.8052471
0.8034803
0.8017751
0.8002005
0.7988101
0.7976433
0.7967238
0.7960518
0.7955972
0.7952649
0.7948993
0.794022
0.7931642
0.7922159
0.7910252
0.7886108
0.8070618
0.8053713
0.8037483
0.8022531
0.8009343
0.7998303
0.7989683
0.7983602
0.7979907
0.7977958
0.7975947
0.7968711
0.7961304
0.7953952
0.7945625
0.7936607
0.7902927
0.8088252
0.8072106
0.8056691
0.8042514
0.8030016
0.8019579
0.8011533
0.8006158
0.8003677
0.8004043
0.8005926
0.8001175
0.7995894
0.7990002
0.7983877
0.7978258
0.7961586
0.7929686
0.8105105
0.8089643
0.8074935
0.8061415
0.8049491
0.803954
0.8031934
0.8027111
0.8025768
0.8029419
0.8042227
0.8041357
0.8037973
0.8033358
0.8028102
0.8024333
0.8012178
0.7998128
0.7969565
0.8111814
0.8100879
0.8091912
0.8084373
0.8078255
0.8074912
0.8065351
0.8056068
0.8045355
0.8021829
0.8157533
0.8146425
0.8136868
0.8128954
0.8122824
0.812003
0.8111543
0.8104328
0.8097836
0.809036
0.8072372
0.8191345
0.8180865
0.8171723
0.8164113
0.815831
0.8155713
0.8147869
0.814105
0.8135756
0.8131538
0.8127201
0.8113284
0.821629
0.8206294
0.8197527
0.8190192
0.8184537
0.8181913
0.8174172
0.8167354
0.8161715
0.8157777
0.8155619
0.8153216
0.8141288
0.8233701
0.8223948
0.8215342
0.8208064
0.8202341
0.8199408
0.8191512
0.8184279
0.8178033
0.8173047
0.8170286
0.8169087
0.8167037
0.8155772
0.7958454
0.7937939
0.7918259
0.7900059
0.7883986
0.7870756
0.7860977
0.7855683
0.7855061
0.7859968
0.7860945
0.7978442
0.7958491
0.7939318
0.7921603
0.7905982
0.7893026
0.7883374
0.7877422
0.7875907
0.7877818
0.7879879
0.7853709
0.7997429
0.7977962
0.795919
0.794184
0.7926524
0.7913775
0.7903973
0.7897465
0.789401
0.7893174
0.7891673
0.7880777
0.785245
0.8015863
0.7996902
0.7978561
0.7961596
0.794661
0.7934057
0.7924256
0.7917228
0.791277
0.7909742
0.7906576
0.7896778
0.7884303
0.7855981
0.803402
0.8015621
0.7997801
0.7981316
0.7966743
0.7954503
0.7944818
0.7937687
0.7932647
0.792884
0.7924415
0.7915041
0.7904719
0.7891871
0.7864411
0.8052023
0.8034251
0.8017057
0.8001164
0.7987118
0.7975307
0.7965936
0.7958947
0.7953955
0.7949956
0.7945475
0.7936041
0.7926789
0.7916639
0.7904136
0.7879872
0.8069867
0.8052778
0.8036301
0.8021097
0.8007673
0.7996398
0.7987481
0.7980917
0.7976353
0.7972949
0.7969029
0.7960354
0.7951564
0.7942919
0.7933393
0.792337
0.7889256
0.8087436
0.8071065
0.8055361
0.8040902
0.802815
0.8017464
0.8009094
0.8003136
0.7999433
0.7997306
0.7995087
0.79877
0.7980213
0.7972447
0.7964672
0.7957522
0.7939292
0.790606
0.8104528
0.8088874
0.8073939
0.8060211
0.8048109
0.8037993
0.8030169
0.8024893
0.8022355
0.8022497
0.802397
0.8019065
0.8013442
0.8007253
0.800048
0.7994967
0.7980698
0.796427
0.7932784
0.8120881
0.8105874
0.8091608
0.80785
0.8066939
0.8057282
0.8049878
0.8045135
0.8043705
0.804701
0.8058992
0.8057752
0.8054038
0.8048921
0.8043158
0.8038393
0.8026569
0.8014585
0.8000767
0.7972572
0.8125927
0.8115042
0.8105943
0.809813
0.8091435
0.808727
0.8076872
0.8067453
0.8058344
0.804786
0.8025256
0.8170145
0.8159073
0.8149432
0.814125
0.8134668
0.8130993
0.8121805
0.8113439
0.8106368
0.8100051
0.8093313
0.8075736
0.8202995
0.8192532
0.8183301
0.8175466
0.8169232
0.8165923
0.8157363
0.8149625
0.8142929
0.8137778
0.8134196
0.8130166
0.8115772
0.8227346
0.8217363
0.820852
0.8200988
0.8194984
0.8191733
0.8183468
0.8175822
0.8169111
0.8163594
0.8160225
0.8158311
0.8155442
0.8142947
0.8244447
0.8234719
0.8226059
0.821863
0.8212625
0.8209197
0.8200886
0.8193076
0.8185938
0.8179798
0.8175333
0.8172777
0.817112
0.8168536
0.8156611
0.7959265
0.7979188
0.7959495
0.7940632
0.7923208
0.7907841
0.7895128
0.7885797
0.7880519
0.7880787
0.7888076
0.7907882
0.7889541
0.799841
0.7979222
0.7960811
0.7943818
0.792883
0.7916405
0.7907028
0.7901287
0.7899465
0.7902024
0.7906296
0.789944
0.7874289
0.8016701
0.799795
0.7979891
0.7963217
0.7948504
0.7936227
0.7926775
0.7920318
0.7916895
0.7915626
0.7914828
0.7906933
0.7896319
0.7869195
0.8034485
0.8016194
0.7998522
0.7982192
0.7967769
0.795568
0.794618
0.7939334
0.7934766
0.7931681
0.7928143
0.7919498
0.7909933
0.7897804
0.7870634
0.8052023
0.8034251
0.8017057
0.8001164
0.7987118
0.7975307
0.7965936
0.7958947
0.7953955
0.7949956
0.7945475
0.7936041
0.7926789
0.7916639
0.7904136
0.7879872
0.8069434
0.8052246
0.8035633
0.8020288
0.8006729
0.7995317
0.7986233
0.7979413
0.7974428
0.7970386
0.7965695
0.7956411
0.7947011
0.7937776
0.7927693
0.7917209
0.7883019
0.808671
0.8070162
0.8054221
0.8039521
0.8026544
0.8015633
0.800698
0.8000561
0.7996032
0.7992525
0.7988505
0.7979778
0.7971024
0.7962092
0.7953268
0.7945176
0.7926039
0.7892393
0.8103738
0.8087868
0.8072655
0.8058656
0.8046311
0.8035957
0.8027823
0.8021989
0.8018285
0.8016052
0.8013629
0.8006249
0.7998581
0.7990694
0.7982454
0.7975626
0.7959939
0.7941964
0.7909179
0.8120322
0.810513
0.8090646
0.8077338
0.8065606
0.8055791
0.8048177
0.8043
0.8040426
0.8040374
0.8041537
0.8036492
0.8030716
0.8024187
0.8017109
0.8010828
0.7997216
0.7983121
0.7966937
0.7935863
0.8136203
0.8121625
0.8107775
0.8095054
0.8083834
0.8074453
0.8067241
0.8062579
0.8061078
0.8064085
0.8075333
0.8073826
0.8069835
0.8064434
0.805819
0.8052836
0.8040481
0.8028791
0.8016976
0.8003389
0.7976188
0.8139817
0.8129018
0.8119878
0.8111865
0.8104834
0.809996
0.8089114
0.8078836
0.8069557
0.8060623
0.8050898
0.8028762
0.8182618
0.8171622
0.8161952
0.8153617
0.8146693
0.8142426
0.8132672
0.812359
0.8115348
0.810842
0.8102748
0.8096332
0.8078292
0.8214548
0.8204135
0.8194869
0.8186885
0.8180358
0.8176488
0.816749
0.8159026
0.8151396
0.8144822
0.8140245
0.8136912
0.8132417
0.8117459
0.8238321
0.8228379
0.8219502
0.8211841
0.8205578
0.8201861
0.8193216
0.8185036
0.8177486
0.8170883
0.8165887
0.8162724
0.8160353
0.8156949
0.8143792
0.8255109
0.8245428
0.8236751
0.8229221
0.8223007
0.821919
0.8210609
0.8202376
0.8194652
0.818761
0.8181954
0.8177667
0.8174665
0.8172495
0.8169299
0.8019652
0.7993063
0.7965436
0.7999126
0.7980185
0.7962066
0.7945348
0.79306
0.7918401
0.7909325
0.7904202
0.7904038
0.7911529
0.7932142
0.7931998
0.7911776
0.8017644
0.7999159
0.7981443
0.7965108
0.7950705
0.7938733
0.7929679
0.7923942
0.7922037
0.7923918
0.7928417
0.7924204
0.7916858
0.789231
0.8035291
0.8017201
0.7999799
0.7983745
0.7969582
0.7957753
0.7948583
0.7942274
0.7938676
0.7937232
0.7935879
0.7928943
0.7921085
0.7910546
0.788428
0.8052471
0.8034803
0.8017751
0.8002005
0.7988101
0.7976433
0.7967238
0.7960518
0.7955972
0.7952649
0.7948993
0.794022
0.7931642
0.7922159
0.7910252
0.7886108
0.8069434
0.8052246
0.8035633
0.8020288
0.8006729
0.7995317
0.7986233
0.7979413
0.7974428
0.7970386
0.7965695
0.7956411
0.7947011
0.7937776
0.7927693
0.7917209
0.7883019
0.8086291
0.8069649
0.8053577
0.8038741
0.8025635
0.8014595
0.8005782
0.7999119
0.799419
0.7990078
0.7985332
0.797604
0.7966728
0.7957266
0.7947954
0.7939419
0.7919869
0.7886157
0.8103035
0.8086995
0.8071555
0.8057325
0.8044763
0.8034195
0.802579
0.8019516
0.8015023
0.8011477
0.8007348
0.7998713
0.798987
0.7980924
0.7971748
0.7964107
0.7947572
0.7928698
0.7895518
0.8119556
0.8104156
0.8089404
0.8075836
0.8063871
0.8053828
0.8045918
0.8040206
0.8036516
0.8034195
0.8031647
0.8024266
0.8016582
0.8008493
0.8000102
0.7992668
0.7977851
0.7962343
0.7944622
0.7912282
0.8135661
0.8120904
0.8106844
0.809393
0.8082546
0.8073014
0.80656
0.8060521
0.8057923
0.8057713
0.8058608
0.80535
0.8047593
0.8040919
0.8033507
0.8026835
0.8012926
0.799945
0.7985528
0.7969587
0.7939564
0.81511
0.8136925
0.8123467
0.8111109
0.810021
0.809109
0.808406
0.8079478
0.8077923
0.8080667
0.8091264
0.8089539
0.8085369
0.8079739
0.8073234
0.8067339
0.8054799
0.8042555
0.8030999
0.8019352
0.8006543
0.7979887
0.8153467
0.8142782
0.8133647
0.8125534
0.8118251
0.8112928
0.8101705
0.8090962
0.8080803
0.8071666
0.8063387
0.8054003
0.8031427
0.8194932
0.8184037
0.8174383
0.8165959
0.8158817
0.8154085
0.8144021
0.8134362
0.8125387
0.8117268
0.811092
0.8105504
0.8098624
0.8080026
0.8225983
0.8215645
0.8206381
0.8198307
0.8191569
0.818729
0.8177981
0.816907
0.8160702
0.8153179
0.8147132
0.8142764
0.8138972
0.8133941
0.8118319
0.8249195
0.8239317
0.8230439
0.8222694
0.8216245
0.8212164
0.8203277
0.819471
0.8186617
0.8179163
0.8173045
0.8168229
0.816462
0.8161734
0.8157717
0.8265673
0.8256056
0.8247387
0.8239794
0.8233428
0.8229307
0.8220543
0.8212033
0.8203879
0.8196242
0.8189651
0.8184153
0.8179435
0.8175941
0.8173195
0.8061458
0.8046205
0.8022643
0.8010657
0.7998362
0.797463
0.8018332
0.8000082
0.7982646
0.7966572
0.7952395
0.7940636
0.7931863
0.7926709
0.7926347
0.7932833
0.7952447
0.7954286
0.7950862
0.7929965
0.8036199
0.8018363
0.8001289
0.7985558
0.7971688
0.7960148
0.7951353
0.7945723
0.7943555
0.7945054
0.7948622
0.794501
0.7940116
0.7932191
0.7907949
0.8053249
0.8035772
0.8018978
0.8003496
0.798984
0.7978419
0.7969536
0.7963325
0.7959694
0.7957913
0.7956291
0.7949078
0.7942023
0.7934002
0.7923393
0.7899778
0.8069867
0.8052778
0.8036301
0.8021097
0.8007673
0.7996398
0.7987481
0.7980917
0.7976353
0.7972949
0.7969029
0.7960354
0.7951564
0.7942919
0.7933393
0.792337
0.7889256
0.8086291
0.8069649
0.8053577
0.8038741
0.8025635
0.8014595
0.8005782
0.7999119
0.799419
0.7990078
0.7985332
0.797604
0.7966728
0.7957266
0.7947954
0.7939419
0.7919869
0.7886157
0.8102631
0.8086499
0.8070934
0.8056573
0.8043888
0.8033195
0.8024638
0.8018131
0.8013257
0.8009137
0.8004321
0.7995157
0.7985798
0.797637
0.7966759
0.7958736
0.7941806
0.7922522
0.7889286
0.8118876
0.8103311
0.8088341
0.807455
0.8062378
0.8052129
0.804396
0.8037826
0.8033383
0.8029809
0.802564
0.8017075
0.8008296
0.7999232
0.7990001
0.7981851
0.7966311
0.7949959
0.7931346
0.7898633
0.8134919
0.8119961
0.8105642
0.8092478
0.8080869
0.8071119
0.8063421
0.8057829
0.8054161
0.8051778
0.804913
0.8041809
0.8034111
0.8025993
0.8017388
0.8009701
0.7994743
0.7980065
0.7964735
0.7947268
0.791602
0.8150574
0.8136227
0.8122564
0.8110021
0.8098964
0.8089698
0.8082475
0.8077493
0.8074883
0.8074537
0.8075209
0.8070065
0.8064105
0.8057313
0.8049766
0.80427
0.8028808
0.8015011
0.8001669
0.7987919
0.7972773
0.7943351
0.8165595
0.8151801
0.8138711
0.8126697
0.8116099
0.8107225
0.8100368
0.8095866
0.8094266
0.8096779
0.8106793
0.8104895
0.8100592
0.809483
0.8088121
0.8081918
0.8069195
0.805675
0.8044616
0.8033192
0.802221
0.8009768
0.7982698
0.8166869
0.8156315
0.8147222
0.8139061
0.8131634
0.812596
0.8114584
0.8103452
0.8092812
0.8082773
0.8074222
0.8066211
0.8056361
0.8033234
0.8207073
0.8196298
0.818669
0.8178227
0.8170937
0.8165877
0.8155604
0.8145625
0.8136062
0.8127195
0.8119606
0.8113473
0.8107595
0.8100176
0.8080911
0.8237287
0.8227041
0.8217807
0.8209685
0.8202801
0.8198206
0.8188717
0.8179487
0.8170662
0.816239
0.8155355
0.814949
0.8144674
0.8140366
0.8134718
0.8259958
0.8250157
0.8241301
0.8233511
0.8226927
0.8222564
0.821352
0.8204706
0.8196217
0.8188211
0.818121
0.8175251
0.8170003
0.8165901
0.8162437
0.8276129
0.8266588
0.8257947
0.8250321
0.8243844
0.8239483
0.8230605
0.8221907
0.8213469
0.8205394
0.8198182
0.8191734
0.818582
0.818063
0.817659
0.8088585
0.8083294
0.8063799
0.8059708
0.8048845
0.8028213
0.8025424
0.8015505
0.800631
0.7985323
0.8036862
0.8019251
0.8002443
0.7986961
0.7973306
0.7961966
0.7953438
0.7948356
0.7947645
0.7953462
0.7971158
0.7972995
0.7971567
0.7966409
0.7945316
0.8054124
0.8036891
0.802041
0.8005236
0.7991859
0.7980713
0.7972185
0.7966618
0.7964338
0.796533
0.7968311
0.796415
0.795974
0.7954083
0.7945571
0.7923427
0.8070618
0.8053713
0.8037483
0.8022531
0.8009343
0.7998303
0.7989683
0.7983602
0.7979907
0.7977958
0.7975947
0.7968711
0.7961304
0.7953952
0.7945625
0.7936607
0.7902927
0.808671
0.8070162
0.8054221
0.8039521
0.8026544
0.8015633
0.800698
0.8000561
0.7996032
0.7992525
0.7988505
0.7979778
0.7971024
0.7962092
0.7953268
0.7945176
0.7926039
0.7892393
0.8102631
0.8086499
0.8070934
0.8056573
0.8043888
0.8033195
0.8024638
0.8018131
0.8013257
0.8009137
0.8004321
0.7995157
0.7985798
0.797637
0.7966759
0.7958736
0.7941806
0.7922522
0.7889286
0.8118484
0.8102831
0.808774
0.8073824
0.8061533
0.8051165
0.804285
0.8036493
0.8031686
0.8027565
0.8022744
0.8013682
0.8004422
0.7994915
0.7985293
0.7976807
0.796093
0.7944184
0.7925165
0.7892405
0.813426
0.8119143
0.8104613
0.8091235
0.8079427
0.8069479
0.8061532
0.8055536
0.8051146
0.8047566
0.8043371
0.8034932
0.8026206
0.8017185
0.8007813
0.7999493
0.7983905
0.7968506
0.7952335
0.7933985
0.7902389
0.8149854
0.8135311
0.8121401
0.8108616
0.8097342
0.8087867
0.808037
0.8074895
0.8071257
0.8068828
0.8066108
0.8058861
0.8051214
0.8043076
0.8034437
0.802646
0.8011651
0.7996806
0.7982266
0.7967114
0.7950453
0.7919844
0.8165084
0.8151123
0.8137836
0.8125642
0.8114892
0.8105878
0.8098835
0.8093948
0.8091333
0.8090874
0.8091354
0.8086201
0.8080219
0.807339
0.806574
0.8058491
0.8044565
0.8030767
0.801708
0.8003873
0.7990794
0.7976031
0.7946229
0.817971
0.8166275
0.8153534
0.8141843
0.813153
0.8122888
0.8116196
0.8111774
0.8110138
0.8112444
0.8121932
0.8119894
0.81155
0.8109649
0.8102835
0.8096391
0.808368
0.8071039
0.8058688
0.8046664
0.803583
0.802513
0.8012216
0.7984604
0.8180019
0.816961
0.8160581
0.8152415
0.8144899
0.8138995
0.8127537
0.8116243
0.8105202
0.8094666
0.8085161
0.8076833
0.8068354
0.8057958
0.8034157
0.8219033
0.8208389
0.8198851
0.8190383
0.8183002
0.8177696
0.8167328
0.8157133
0.814724
0.8137772
0.8129396
0.8121993
0.8115409
0.810901
0.8100967
0.8248449
0.8238307
0.8229125
0.8220988
0.8214004
0.8209169
0.8199573
0.8190155
0.8181004
0.8172266
0.816445
0.8157576
0.8151277
0.8145966
0.8141075
0.82706
0.8260887
0.8252073
0.8244264
0.8237586
0.8233001
0.8223865
0.8214888
0.8206146
0.8197737
0.8190157
0.8183299
0.8176923
0.8171202
0.8166552
0.8286472
0.8277014
0.8268415
0.8260779
0.8254225
0.8249674
0.8240731
0.8231914
0.8223282
0.8214917
0.8207243
0.8200161
0.8193312
0.8186945
0.8181237
0.8102016
0.8107466
0.8090755
0.8093971
0.80854
0.8068403
0.807104
0.806212
0.8053778
0.803593
0.8039549
0.8029916
0.8022769
0.8015624
0.7996784
0.8054763
0.8037746
0.802152
0.8006583
0.799341
0.7982454
0.7974179
0.7969133
0.7968231
0.7973303
0.7989559
0.7990397
0.7989013
0.7985769
0.7979645
0.7960428
0.8071462
0.8054791
0.8038862
0.8024204
0.8011283
0.8000504
0.7992222
0.7986754
0.7984341
0.7985017
0.7987342
0.7982928
0.7977927
0.7972658
0.7966229
0.7958885
0.7926567
0.8087436
0.8071065
0.8055361
0.8040902
0.802815
0.8017464
0.8009094
0.8003136
0.7999433
0.7997306
0.7995087
0.79877
0.7980213
0.7972447
0.7964672
0.7957522
0.7939292
0.790606
0.8103035
0.8086995
0.8071555
0.8057325
0.8044763
0.8034195
0.802579
0.8019516
0.8015023
0.8011477
0.8007348
0.7998713
0.798987
0.7980924
0.7971748
0.7964107
0.7947572
0.7928698
0.7895518
0.8118484
0.8102831
0.808774
0.8073824
0.8061533
0.8051165
0.804285
0.8036493
0.8031686
0.8027565
0.8022744
0.8013682
0.8004422
0.7994915
0.7985293
0.7976807
0.796093
0.7944184
0.7925165
0.7892405
0.813388
0.8118678
0.8104032
0.8090533
0.8078611
0.8068549
0.8060462
0.8054252
0.8049513
0.8045411
0.8040595
0.8031687
0.802251
0.8013078
0.800335
0.7994733
0.7978852
0.7963116
0.7946553
0.7927799
0.789617
0.8149214
0.8134519
0.8120403