/*--------------------------------*- C++ -*----------------------------------*\
| =========                 |                                                 |
| \\      /  F ield         | OpenFOAM: The Open Source CFD Toolbox           |
|  \\    /   O peration     | Version:  2306                                  |
|   \\  /    A nd           | Website:  www.openfoam.com                      |
|    \\/     M anipulation  |                                                 |
\*---------------------------------------------------------------------------*/
FoamFile
{
    version     2.0;
    format      ascii;
    arch        "LSB;label=32;scalar=64";
    class       volScalarField;
    location    "1.5/air";
    object      nernst;
}
// * * * * * * * * * * * * * * * * * * * * * * * * * * * * * * * * * * * * * //

dimensions      [1 2 -3 0 0 -1 0];

internalField   nonuniform List<scalar> 
16000
(
-0.7760008
-0.7663424
-0.7875344
-0.7661732
-0.760926
-0.7854071
-0.7426586
-0.79076
-0.7853987
-0.7606207
-0.7578204
-0.7835589
-0.7279186
-0.7899972
-0.7791486
-0.7276868
-0.7934055
-0.7900756
-0.7835684
-0.7573641
-0.756373
-0.7821961
-0.7190492
-0.7893106
-0.7736603
-0.7055882
-0.7930716
-0.7878754
-0.7736315
-0.7184302
-0.7957598
-0.7931785
-0.7894898
-0.7822381
-0.7557215
-0.756373
-0.7814733
-0.7148344
-0.7887848
-0.7695883
-0.6917145
-0.7927782
-0.7858683
-0.7647658
-0.6911828
-0.7955762
-0.7922763
-0.7859676
-0.7694873
-0.7136107
-0.7979095
-0.7956861
-0.7930119
-0.789097
-0.7815648
-0.7554654
-0.7922536
-0.7578204
-0.7814733
-0.7148344
-0.7884986
-0.7674217
-0.6849664
-0.7925558
-0.7843193
-0.7581096
-0.6735754
-0.7954208
-0.7914652
-0.7827048
-0.7579684
-0.6834844
-0.7977832
-0.7952333
-0.7916067
-0.7845452
-0.7672054
-0.7127527
-0.7998943
-0.7978874
-0.7956592
-0.792953
-0.7889858
-0.7816505
-0.7565884
-0.7919969
-0.794846
-0.7936986
-0.760926
-0.7821961
-0.7190492
-0.7884986
-0.7674217
-0.6849664
-0.7924353
-0.7834727
-0.7545449
-0.6648673
-0.7953058
-0.7908441
-0.7801574
-0.7492317
-0.663704
-0.7976795
-0.7948384
-0.7903196
-0.7802759
-0.754138
-0.6820533
-0.7997923
-0.7976004
-0.794986
-0.7911795
-0.7838712
-0.7670888
-0.7158325
-0.80174
-0.7998886
-0.797906
-0.7957091
-0.7930435
-0.7892196
-0.7825344
-0.7592851
-0.7914716
-0.7946612
-0.793415
-0.7972111
-0.7961621
-0.7951848
-0.7663424
-0.7835589
-0.7279186
-0.7887848
-0.7695883
-0.6917145
-0.7924353
-0.7834727
-0.7545449
-0.6648673
-0.7952444
-0.7905056
-0.7787566
-0.7445237
-0.6538285
-0.7976044
-0.794544
-0.7893205
-0.77691
-0.7441635
-0.6618237
-0.7997097
-0.7973577
-0.7943864
-0.78953
-0.7790325
-0.7538054
-0.6868867
-0.8016505
-0.7996672
-0.797499
-0.7948962
-0.7911077
-0.7841288
-0.7692313
-0.7232436
-0.8034637
-0.8017389
-0.7999202
-0.7979883
-0.7958592
-0.7933149
-0.7898272
-0.7842021
-0.7641265
-0.7906198
-0.7942952
-0.7928165
-0.7970503
-0.7959786
-0.7948796
-0.7993331
-0.7983631
-0.7975076
-0.7967165
-0.7760008
-0.7854071
-0.7426586
-0.7893106
-0.7736603
-0.7055882
-0.7925558
-0.7843193
-0.7581096
-0.6735754
-0.7952444
-0.7905056
-0.7787566
-0.7445237
-0.6538285
-0.7975648
-0.7943861
-0.7887717
-0.7750486
-0.7387668
-0.6517017
-0.7996505
-0.7971817
-0.7939326
-0.7882338
-0.7751915
-0.7436461
-0.6679697
-0.8015781
-0.7994834
-0.7971474
-0.7941592
-0.789284
-0.7792836
-0.7571127
-0.6983709
-0.8033822
-0.8015482
-0.7996152
-0.79752
-0.7950193
-0.7914758
-0.7853824
-0.7735209
-0.7360595
-0.8050793
-0.8034636
-0.8017729
-0.8000086
-0.7981504
-0.7961278
-0.7937878
-0.7908142
-0.7866323
-0.7727333
-0.7890693
-0.7937559
-0.7917838
-0.7967341
-0.7956179
-0.7942275
-0.7991856
-0.7982107
-0.797325
-0.7963968
-0.801278
-0.8003356
-0.7995396
-0.7988833
-0.7982952
-0.7875344
-0.7661732
-0.7899972
-0.7791486
-0.7276868
-0.7927782
-0.7858683
-0.7647658
-0.6911828
-0.7953058
-0.7908441
-0.7801574
-0.7492317
-0.663704
-0.7975648
-0.7943861
-0.7887717
-0.7750486
-0.7387668
-0.6517017
-0.7996195
-0.7970891
-0.7936873
-0.7875166
-0.7730588
-0.7381424
-0.6585506
-0.8015265
-0.7993527
-0.7968893
-0.7935934
-0.787836
-0.7754204
-0.7478601
-0.6824254
-0.8033161
-0.8013911
-0.7993574
-0.7971086
-0.7942439
-0.7897176
-0.7811176
-0.7638002
-0.7175228
-0.8050039
-0.8032907
-0.8015134
-0.7996689
-0.7976975
-0.7953989
-0.7923263
-0.7875859
-0.7796768
-0.7568349
-0.8065977
-0.8050791
-0.8034967
-0.8018595
-0.800167
-0.7984055
-0.7965315
-0.7944839
-0.7922185
-0.7899699
-0.7827372
-0.793097
-0.7898312
-0.79628
-0.7951002
-0.7930922
-0.798896
-0.7979183
-0.7969672
-0.7957133
-0.8011396
-0.800198
-0.799394
-0.7987008
-0.7979684
-0.803091
-0.8021534
-0.8013601
-0.8007401
-0.800288
-0.7992571
-0.79076
-0.7853987
-0.7606207
-0.7930716
-0.7878754
-0.7736315
-0.7184302
-0.7954208
-0.7914652
-0.7827048
-0.7579684
-0.6834844
-0.7976044
-0.794544
-0.7893205
-0.77691
-0.7441635
-0.6618237
-0.7996195
-0.7970891
-0.7936873
-0.7875166
-0.7730588
-0.7381424
-0.6585506
-0.8014995
-0.7992849
-0.7967525
-0.7932849
-0.7870297
-0.77327
-0.7428533
-0.6745738
-0.8032688
-0.8012803
-0.7991723
-0.7968022
-0.7936395
-0.7883061
-0.7777008
-0.7563965
-0.7059394
-0.8049423
-0.8031483
-0.801296
-0.7993774
-0.7972911
-0.7947055
-0.7908832
-0.784399
-0.7732282
-0.7466288
-0.8065273
-0.804919
-0.803262
-0.8015742
-0.7998536
-0.7980598
-0.7960674
-0.7936693
-0.7906342
-0.7873147
-0.7762641
-0.808028
-0.8065972
-0.8051106
-0.8035793
-0.8020103
-0.8004063
-0.7987678
-0.7970967
-0.795475
-0.794317
-0.7931778
-0.7849203
-0.7958043
-0.794513
-0.7910628
-0.7984827
-0.7975288
-0.7964588
-0.7945416
-0.8008678
-0.7999359
-0.7991191
-0.7983431
-0.7972737
-0.8029598
-0.8020249
-0.8012307
-0.8005991
-0.8001051
-0.7989303
-0.8047897
-0.8038601
-0.8030494
-0.8024059
-0.8019628
-0.8011397
-0.7993798
-0.7934055
-0.7900756
-0.7835684
-0.7573641
-0.7955762
-0.7922763
-0.7859676
-0.7694873
-0.7136107
-0.7976795
-0.7948384
-0.7903196
-0.7802759
-0.754138
-0.6820533
-0.7996505
-0.7971817
-0.7939326
-0.7882338
-0.7751915
-0.7436461
-0.6679697
-0.8014995
-0.7992849
-0.7967525
-0.7932849
-0.7870297
-0.77327
-0.7428533
-0.6745738
-0.8032442
-0.8012231
-0.7990759
-0.7966384
-0.7933068
-0.7875153
-0.7757946
-0.7523974
-0.7003127
-0.8048983
-0.8030482
-0.8011418
-0.7991659
-0.7969831
-0.7941525
-0.7897004
-0.7818091
-0.7682867
-0.7402805
-0.8064696
-0.804787
-0.803066
-0.8013322
-0.7995791
-0.7977342
-0.7955807
-0.7927491
-0.7888141
-0.7844365
-0.7712199
-0.807962
-0.8064476
-0.8048931
-0.8033218
-0.8017519
-0.800191
-0.7986334
-0.7970552
-0.7955216
-0.7944756
-0.7923132
-0.7796759
-0.8093778
-0.8080273
-0.8066271
-0.8051889
-0.8037217
-0.8022348
-0.8007391
-0.7992634
-0.7979017
-0.7970681
-0.7968727
-0.794257
-0.7871521
-0.7980669
-0.7972189
-0.7958811
-0.7925923
-0.8004793
-0.7995945
-0.798767
-0.7978329
-0.7961121
-0.8027017
-0.80178
-0.8009893
-0.8003341
-0.7997448
-0.7982388
-0.8046643
-0.8037382
-0.802929
-0.8022822
-0.8018241
-0.8009564
-0.799053
-0.8063885
-0.8054699
-0.8046487
-0.8039651
-0.803471
-0.8027073
-0.8012488
-0.7995028
-0.7957598
-0.7931785
-0.7894898
-0.7822381
-0.7557215
-0.7977832
-0.7952333
-0.7916067
-0.7845452
-0.7672054
-0.7127527
-0.7997097
-0.7973577
-0.7943864
-0.78953
-0.7790325
-0.7538054
-0.6868867
-0.8015265
-0.7993527
-0.7968893
-0.7935934
-0.787836
-0.7754204
-0.7478601
-0.6824254
-0.8032442
-0.8012231
-0.7990759
-0.7966384
-0.7933068
-0.7875153
-0.7757946
-0.7523974
-0.7003127
-0.8048753
-0.8029966
-0.801062
-0.7990548
-0.7968166
-0.7938441
-0.7890305
-0.7803554
-0.7656122
-0.7371996
-0.8064281
-0.8046941
-0.8029273
-0.8011588
-0.7993766
-0.7974781
-0.7951684
-0.7919431
-0.7872482
-0.7821217
-0.7678414
-0.8079076
-0.806324
-0.8047114
-0.8031043
-0.8015287
-0.7999911
-0.7984667
-0.7968792
-0.7952273
-0.7939863
-0.7911499
-0.7754143
-0.8093158
-0.807887
-0.8064235
-0.8049499
-0.8034891
-0.8020653
-0.8007046
-0.7994534
-0.7984201
-0.7979777
-0.7972385
-0.7934909
-0.782914
-0.8106536
-0.8093771
-0.8080558
-0.8067015
-0.8053238
-0.8039329
-0.8025446
-0.8011899
-0.7999673
-0.7992397
-0.7992595
-0.7977646
-0.7954331
-0.789432
-0.800086
-0.7993588
-0.7984994
-0.7972351
-0.7943109
-0.8023316
-0.8014611
-0.8006912
-0.7999946
-0.799224
-0.7970988
-0.8044175
-0.8035054
-0.8027047
-0.8020532
-0.8015617
-0.800594
-0.7983621
-0.8062682
-0.8053533
-0.8045345
-0.8038505
-0.8033504
-0.8025687
-0.8010655
-0.7991762
-0.8078958
-0.8069943
-0.8061688
-0.8054559
-0.8048986
-0.8041247
-0.8028034
-0.8013582
-0.7996266
-0.7979095
-0.7956861
-0.7930119
-0.789097
-0.7815648
-0.7554654
-0.7997923
-0.7976004
-0.794986
-0.7911795
-0.7838712
-0.7670888
-0.7158325
-0.8015781
-0.7994834
-0.7971474
-0.7941592
-0.789284
-0.7792836
-0.7571127
-0.6983709
-0.8032688
-0.8012803
-0.7991723
-0.7968022
-0.7936395
-0.7883061
-0.7777008
-0.7563965
-0.7059394
-0.8048753
-0.8029966
-0.801062
-0.7990548
-0.7968166
-0.7938441
-0.7890305
-0.7803554
-0.7656122
-0.7371996
-0.8064065
-0.8046464
-0.8028559
-0.8010687
-0.7992691
-0.7973367
-0.7949312
-0.7914733
-0.78635
-0.7808471
-0.7661538
-0.8078685
-0.806237
-0.804583
-0.8029492
-0.8013665
-0.7998368
-0.7983143
-0.796673
-0.7948567
-0.7934112
-0.7901454
-0.7725033
-0.8092645
-0.8077708
-0.8062532
-0.8047481
-0.8032891
-0.8019096
-0.8006382
-0.7995107
-0.7985974
-0.7982184
-0.7972098
-0.7925245
-0.7793698
-0.8105953
-0.8092452
-0.8078646
-0.8064772
-0.805107
-0.8037807
-0.8025352
-0.8014285
-0.8005856
-0.8002938
-0.7999213
-0.7980032
-0.7947182
-0.7860286
-0.8118611
-0.8106531
-0.8094045
-0.8081268
-0.8068295
-0.8055234
-0.8042235
-0.8029621
-0.8018276
-0.8011474
-0.8011762
-0.8000378
-0.7987123
-0.7966658
-0.7917439
-0.8019487
-0.8012405
-0.8005063
-0.7997065
-0.7985896
-0.7953901
-0.8040623
-0.8032
-0.8024287
-0.801772
-0.8012155
-0.8000652
-0.7972249
-0.8060313
-0.80513
-0.8043213
-0.803639
-0.8031258
-0.8023046
-0.8007028
-0.7984861
-0.8077801
-0.8068822
-0.8060595
-0.8053474
-0.8047873
-0.8040044
-0.8026648
-0.8011748
-0.7993002
-0.8093199
-0.808439
-0.807618
-0.8068856
-0.80628
-0.8054772
-0.80421
-0.8028998
-0.801468
-0.7997506
-0.7998943
-0.7978874
-0.7956592
-0.792953
-0.7889858
-0.7816505
-0.7565884
-0.8016505
-0.7996672
-0.797499
-0.7948962
-0.7911077
-0.7841288
-0.7692313
-0.7232436
-0.8033161
-0.8013911
-0.7993574
-0.7971086
-0.7942439
-0.7897176
-0.7811176
-0.7638002
-0.7175228
-0.8048983
-0.8030482
-0.8011418
-0.7991659
-0.7969831
-0.7941525
-0.7897004
-0.7818091
-0.7682867
-0.7402805
-0.8064065
-0.8046464
-0.8028559
-0.8010687
-0.7992691
-0.7973367
-0.7949312
-0.7914733
-0.78635
-0.7808471
-0.7661538
-0.807848
-0.8061921
-0.8045169
-0.802869
-0.8012813
-0.7997528
-0.7982238
-0.7965398
-0.794616
-0.7930522
-0.7895768
-0.7710369
-0.8092274
-0.8076888
-0.8061328
-0.8046044
-0.8031446
-0.8017912
-0.8005692
-0.7994979
-0.7986119
-0.7982213
-0.7970556
-0.7916943
-0.7769078
-0.8105468
-0.8091358
-0.8077043
-0.8062876
-0.8049207
-0.8036416
-0.8024968
-0.8015449
-0.8008883
-0.8007278
-0.800216
-0.7979783
-0.7938981
-0.7831343
-0.8118061
-0.8105291
-0.8092245
-0.8079155
-0.8066249
-0.8053795
-0.8042155
-0.8031932
-0.8024264
-0.8021628
-0.8018618
-0.8005197
-0.7988153
-0.7959783
-0.7890489
-0.813005
-0.8118609
-0.8106796
-0.8094724
-0.8082488
-0.8070189
-0.8057976
-0.8046141
-0.8035502
-0.8028945
-0.802887
-0.8018721
-0.8008525
-0.7996844
-0.7979268
-0.7930889
-0.8036857
-0.8029773
-0.8022603
-0.8015715
-0.8008733
-0.799408
-0.795527
-0.8056889
-0.8048344
-0.8040566
-0.803381
-0.802841
-0.8019486
-0.8001733
-0.7973519
-0.8075519
-0.806667
-0.8058546
-0.8051466
-0.8045809
-0.8037788
-0.8024006
-0.8008119
-0.7986109
-0.8092083
-0.8083309
-0.8075128
-0.8067816
-0.8061747
-0.8053663
-0.8040897
-0.8027611
-0.8012846
-0.7994245
-0.8106671
-0.8098102
-0.8089995
-0.808259
-0.8076185
-0.8067964
-0.8055535
-0.8042955
-0.8029964
-0.8015779
-0.799879
-0.80174
-0.7998886
-0.797906
-0.7957091
-0.7930435
-0.7892196
-0.7825344
-0.7592851
-0.8033822
-0.8015482
-0.7996152
-0.79752
-0.7950193
-0.7914758
-0.7853824
-0.7735209
-0.7360595
-0.8049423
-0.8031483
-0.801296
-0.7993774
-0.7972911
-0.7947055
-0.7908832
-0.784399
-0.7732282
-0.7466288
-0.8064281
-0.8046941
-0.8029273
-0.8011588
-0.7993766
-0.7974781
-0.7951684
-0.7919431
-0.7872482
-0.7821217
-0.7678414
-0.807848
-0.8061921
-0.8045169
-0.802869
-0.8012813
-0.7997528
-0.7982238
-0.7965398
-0.794616
-0.7930522
-0.7895768
-0.7710369
-0.809208
-0.8076466
-0.8060708
-0.8045301
-0.8030692
-0.8017273
-0.8005263
-0.7994746
-0.7985883
-0.7981811
-0.7969396
-0.7912242
-0.7756573
-0.8105116
-0.8090584
-0.8075909
-0.8061525
-0.8047864
-0.8035367
-0.8024527
-0.801586
-0.8010155
-0.8009011
-0.8003263
-0.7978593
-0.7932083
-0.7810973
-0.8117602
-0.8104258
-0.8090735
-0.8077366
-0.806449
-0.8052485
-0.8041817
-0.803314
-0.8027398
-0.8026199
-0.8022247
-0.8007603
-0.7987676
-0.7952692
-0.7867448
-0.8129531
-0.8117441
-0.8105102
-0.8092733
-0.8080551
-0.8068809
-0.805785
-0.8048226
-0.8040984
-0.8038219
-0.8035188
-0.8023748
-0.8011593
-0.7996571
-0.7972532
-0.7907227
-0.8140894
-0.8130052
-0.8118867
-0.810745
-0.8095892
-0.8084292
-0.8072788
-0.8061653
-0.8051618
-0.8045278
-0.8044744
-0.8035181
-0.8025927
-0.8016784
-0.800661
-0.7987009
-0.7932549
-0.8053176
-0.804605
-0.8038851
-0.8032022
-0.802589
-0.8015696
-0.799514
-0.7956647
-0.807221
-0.8063796
-0.805597
-0.8049
-0.8043214
-0.803485
-0.8020434
-0.8002816
-0.7974799
-0.8089881
-0.808123
-0.8073149
-0.8065886
-0.8059793
-0.8051593
-0.8038639
-0.8024966
-0.8009214
-0.7987362
-0.8105593
-0.8097058
-0.8088979
-0.8081588
-0.8075177
-0.8066916
-0.8054426
-0.8041751
-0.8028577
-0.8013944
-0.7995533
-0.8119433
-0.8111126
-0.8103172
-0.8095766
-0.8089154
-0.8080828
-0.8068652
-0.80563
-0.8043812
-0.8030932
-0.801692
-0.7999966
-0.8034637
-0.8017389
-0.7999202
-0.7979883
-0.7958592
-0.7933149
-0.7898272
-0.7842021
-0.7641265
-0.8050039
-0.8032907
-0.8015134
-0.7996689
-0.7976975
-0.7953989
-0.7923263
-0.7875859
-0.7796768
-0.7568349
-0.8064696
-0.804787
-0.803066
-0.8013322
-0.7995791
-0.7977342
-0.7955807
-0.7927491
-0.7888141
-0.7844365
-0.7712199
-0.8078685
-0.806237
-0.804583
-0.8029492
-0.8013665
-0.7998368
-0.7983143
-0.796673
-0.7948567
-0.7934112
-0.7901454
-0.7725033
-0.809208
-0.8076466
-0.8060708
-0.8045301
-0.8030692
-0.8017273
-0.8005263
-0.7994746
-0.7985883
-0.7981811
-0.7969396
-0.7912242
-0.7756573
-0.8104932
-0.8090186
-0.8075324
-0.8060827
-0.8047163
-0.8034804
-0.8024245
-0.8015949
-0.8010579
-0.8009593
-0.8003576
-0.797769
-0.7928201
-0.7800551
-0.8117268
-0.8103528
-0.8089664
-0.8076091
-0.8063221
-0.8051499
-0.8041433
-0.8033644
-0.8028878
-0.80283
-0.8024034
-0.8008591
-0.7986646
-0.7946941
-0.7851082
-0.8129096
-0.8116468
-0.8103677
-0.8091043
-0.8078883
-0.8067552
-0.8057497
-0.8049316
-0.8043896
-0.8042496
-0.8038714
-0.8026697
-0.8013299
-0.7995717
-0.7966322
-0.7887043
-0.8140405
-0.8128953
-0.8117272
-0.8105572
-0.8094059
-0.8082966
-0.8072612
-0.80635
-0.8056557
-0.8053628
-0.8050356
-0.8039779
-0.8029228
-0.8018242
-0.8005115
-0.7980296
-0.7909237
-0.8151181
-0.8140901
-0.8130305
-0.8119498
-0.810857
-0.8097616
-0.8086765
-0.8076267
-0.8066789
-0.8060655
-0.8059747
-0.8050524
-0.8041655
-0.8033178
-0.8025003
-0.8012677
-0.798803
-0.7934209
-0.8068549
-0.8061439
-0.8054174
-0.8047226
-0.804098
-0.8031971
-0.8016608
-0.79962
-0.7958034
-0.8086676
-0.807843
-0.8070631
-0.8063488
-0.8057329
-0.8048923
-0.8035691
-0.8021383
-0.8003903
-0.7976085
-0.8103463
-0.8095045
-0.8087062
-0.8079722
-0.8073301
-0.8064959
-0.8052355
-0.8039491
-0.8025929
-0.801031
-0.798866
-0.811839
-0.8110115
-0.810219
-0.8094798
-0.8088184
-0.8079825
-0.8067604
-0.8055191
-0.8042608
-0.8029544
-0.8015085
-0.7996711
-0.8131534
-0.8123504
-0.8115741
-0.8108403
-0.8101687
-0.809336
-0.8081454
-0.8069342
-0.8057067
-0.804467
-0.803194
-0.8017963
-0.8000868
-0.8050793
-0.8034636
-0.8017729
-0.8000086
-0.7981504
-0.7961278
-0.7937878
-0.7908142
-0.7866323
-0.7727333
-0.8065273
-0.804919
-0.803262
-0.8015742
-0.7998536
-0.7980598
-0.7960674
-0.7936693
-0.7906342
-0.7873147
-0.7762641
-0.8079076
-0.806324
-0.8047114
-0.8031043
-0.8015287
-0.7999911
-0.7984667
-0.7968792
-0.7952273
-0.7939863
-0.7911499
-0.7754143
-0.8092274
-0.8076888
-0.8061328
-0.8046044
-0.8031446
-0.8017912
-0.8005692
-0.7994979
-0.7986119
-0.7982213
-0.7970556
-0.7916943
-0.7769078
-0.8104932
-0.8090186
-0.8075324
-0.8060827
-0.8047163
-0.8034804
-0.8024245
-0.8015949
-0.8010579
-0.8009593
-0.8003576
-0.797769
-0.7928201
-0.7800551
-0.8117093
-0.8103151
-0.8089112
-0.8075431
-0.8062559
-0.8050972
-0.8041189
-0.8033801
-0.8029449
-0.8029127
-0.8024758
-0.8008903
-0.7985907
-0.7943747
-0.7842656
-0.8128779
-0.8115778
-0.8102666
-0.8089837
-0.8077678
-0.8066609
-0.8057115
-0.8049775
-0.8045306
-0.8044531
-0.8040557
-0.8028233
-0.8014053
-0.7994717
-0.7961538
-0.7872666
-0.8139992
-0.8128034
-0.8115928
-0.8103976
-0.8092476
-0.8081759
-0.8072232
-0.8064447
-0.8059175
-0.8057497
-0.8053558
-0.8042623
-0.8031388
-0.8019179
-0.8003816
-0.7974465
-0.7889354
-0.8150718
-0.8139868
-0.8128804
-0.8117729
-0.8106837
-0.8096347
-0.808655
-0.8077903
-0.8071236
-0.8068163
-0.8064681
-0.8054554
-0.8044664
-0.8034915
-0.8024988
-0.8010562
-0.7981317
-0.7911238
-0.816094
-0.8151194
-0.8141151
-0.8130916
-0.8120577
-0.8110224
-0.8099977
-0.809007
-0.8081108
-0.8075198
-0.8073998
-0.8065079
-0.8056405
-0.8048134
-0.8040353
-0.803016
-0.80135
-0.798905
-0.7935872
-0.808307
-0.8076023
-0.8068755
-0.8061672
-0.8055181
-0.8046369
-0.8032775
-0.8017518
-0.7997264
-0.7959427
-0.8100356
-0.8092314
-0.8084597
-0.8077379
-0.8070919
-0.8062433
-0.8049677
-0.8036532
-0.8022333
-0.800499
-0.7977416
-0.8116326
-0.8108163
-0.8100329
-0.809299
-0.8086373
-0.807795
-0.8065647
-0.8053118
-0.8040345
-0.8026892
-0.8011448
-0.7989849
-0.8130523
-0.8122525
-0.8114789
-0.8107467
-0.8100749
-0.8092395
-0.8080452
-0.8068294
-0.8055958
-0.8043465
-0.8030551
-0.8016127
-0.7997617
-0.814302
-0.8135277
-0.8127732
-0.8120513
-0.8113779
-0.8105523
-0.8093934
-0.8082081
-0.8070034
-0.8057834
-0.8045568
-0.8032861
-0.8018754
-0.8001523
-0.8065977
-0.8050791
-0.8034967
-0.8018595
-0.800167
-0.7984055
-0.7965315
-0.7944839
-0.7922185
-0.7899699
-0.7827372
-0.807962
-0.8064476
-0.8048931
-0.8033218
-0.8017519
-0.800191
-0.7986334
-0.7970552
-0.7955216
-0.7944756
-0.7923132
-0.7796759
-0.8092645
-0.8077708
-0.8062532
-0.8047481
-0.8032891
-0.8019096
-0.8006382
-0.7995107
-0.7985974
-0.7982184
-0.7972098
-0.7925245
-0.7793698
-0.8105116
-0.8090584
-0.8075909
-0.8061525
-0.8047864
-0.8035367
-0.8024527
-0.801586
-0.8010155
-0.8009011
-0.8003263
-0.7978593
-0.7932083
-0.7810973
-0.8117093
-0.8103151
-0.8089112
-0.8075431
-0.8062559
-0.8050972
-0.8041189
-0.8033801
-0.8029449
-0.8029127
-0.8024758
-0.8008903
-0.7985907
-0.7943747
-0.7842656
-0.8128612
-0.8115421
-0.8102144
-0.8089213
-0.807705
-0.8066104
-0.8056877
-0.8049922
-0.8045866
-0.804536
-0.8041345
-0.8028877
-0.8014307
-0.7994072
-0.7958937
-0.7865245
-0.8139691
-0.8127382
-0.8114973
-0.8102836
-0.8091332
-0.8080852
-0.8071841
-0.8064833
-0.8060443
-0.8059355
-0.8055267
-0.804419
-0.803259
-0.8019626
-0.8002769
-0.797012
-0.7875188
-0.8150327
-0.8139001
-0.8127537
-0.8116222
-0.8105338
-0.8095189
-0.8086151
-0.8078717
-0.8073575
-0.8071633
-0.8067534
-0.8057114
-0.8046748
-0.8036254
-0.8025149
-0.8009006
-0.7975523
-0.7891653
-0.8160503
-0.8150221
-0.813974
-0.8129252
-0.8118941
-0.8109014
-0.8099738
-0.8091528
-0.808513
-0.8081977
-0.8078336
-0.8068566
-0.8058999
-0.8049718
-0.8040674
-0.8029415
-0.8011318
-0.7982337
-0.7913236
-0.81702
-0.816096
-0.8151441
-0.8141745
-0.8131958
-0.8122167
-0.8112485
-0.8103127
-0.8094652
-0.8088976
-0.8087578
-0.8078951
-0.8070465
-0.8062261
-0.8054519
-0.8044897
-0.8030873
-0.8014321
-0.7990071
-0.7937532
-0.8096806
-0.8089873
-0.8082654
-0.8075514
-0.8068792
-0.8060009
-0.804709
-0.8033578
-0.8018429
-0.7998326
-0.7960861
-0.8113309
-0.8105498
-0.8097915
-0.8090694
-0.8084055
-0.8075518
-0.8063115
-0.805043
-0.8037375
-0.8023283
-0.8006119
-0.7978638
-0.8128521
-0.812063
-0.8112981
-0.810571
-0.8098995
-0.8090587
-0.8078576
-0.8066335
-0.8053882
-0.8041199
-0.8027895
-0.8012487
-0.7990763
-0.8142038
-0.8134327
-0.8126808
-0.8119604
-0.8112872
-0.8104591
-0.8092969
-0.8081079
-0.8068987
-0.8056725
-0.8044363
-0.8031471
-0.8016916
-0.7998273
-0.8153928
-0.814648
-0.8139172
-0.8132111
-0.8125425
-0.8117301
-0.8106052
-0.8094508
-0.8082711
-0.8070727
-0.8058643
-0.8046388
-0.8033549
-0.8019316
-0.800191
-0.7890693
-0.808028
-0.8065972
-0.8051106
-0.8035793
-0.8020103
-0.8004063
-0.7987678
-0.7970967
-0.795475
-0.794317
-0.7931778
-0.7849203
-0.8093158
-0.807887
-0.8064235
-0.8049499
-0.8034891
-0.8020653
-0.8007046
-0.7994534
-0.7984201
-0.7979777
-0.7972385
-0.7934909
-0.782914
-0.8105468
-0.8091358
-0.8077043
-0.8062876
-0.8049207
-0.8036416
-0.8024968
-0.8015449
-0.8008883
-0.8007278
-0.800216
-0.7979783
-0.7938981
-0.7831343
-0.8117268
-0.8103528
-0.8089664
-0.8076091
-0.8063221
-0.8051499
-0.8041433
-0.8033644
-0.8028878
-0.80283
-0.8024034
-0.8008591
-0.7986646
-0.7946941
-0.7851082
-0.8128612
-0.8115421
-0.8102144
-0.8089213
-0.807705
-0.8066104
-0.8056877
-0.8049922
-0.8045866
-0.804536
-0.8041345
-0.8028877
-0.8014307
-0.7994072
-0.7958937
-0.7865245
-0.8139532
-0.8127045
-0.811448
-0.8102245
-0.8090735
-0.8080368
-0.8071602
-0.806495
-0.8060947
-0.8060118
-0.8056009
-0.8044877
-0.8033113
-0.8019784
-0.8002174
-0.7967794
-0.7867873
-0.815004
-0.8138385
-0.8126635
-0.8115144
-0.8104253
-0.809432
-0.8085753
-0.8079031
-0.8074698
-0.8073299
-0.8069069
-0.8058555
-0.8047972
-0.8037074
-0.8025258
-0.8007906
-0.7971223
-0.7877696
-0.8160132
-0.8149404
-0.8138545
-0.812783
-0.8117523
-0.8107909
-0.8099329
-0.8092232
-0.8087224
-0.8085093
-0.8080867
-0.8070824
-0.8060859
-0.8051027
-0.8041208
-0.8029167
-0.8009731
-0.7976579
-0.7893945
-0.8169788
-0.8160045
-0.8150115
-0.814018
-0.8130418
-0.812102
-0.8112235
-0.8104441
-0.8098313
-0.809513
-0.8091405
-0.808196
-0.8072659
-0.8063582
-0.8054822
-0.8044523
-0.8030049
-0.8012072
-0.7983358
-0.7915224
-0.8178985
-0.8170227
-0.8161205
-0.815202
-0.8142754
-0.813349
-0.8124338
-0.8115497
-0.8107481
-0.810205
-0.8100527
-0.8092205
-0.8083918
-0.8075804
-0.8068012
-0.8058601
-0.8045535
-0.8031584
-0.8015143
-0.7991091
-0.7939212
-0.8109818
-0.8103037
-0.8095923
-0.8088788
-0.8081934
-0.8073155
-0.8060662
-0.8047809
-0.803438
-0.8019337
-0.7999433
-0.7962178
-0.8125588
-0.8118028
-0.8110616
-0.8103461
-0.8096734
-0.808823
-0.8076139
-0.8063795
-0.8051185
-0.8038215
-0.8024272
-0.8007149
-0.7979582
-0.8140094
-0.8132484
-0.812505
-0.8117897
-0.8111169
-0.8102842
-0.8091161
-0.8079202
-0.8067026
-0.8054647
-0.8042093
-0.802881
-0.8013272
-0.7991427
-0.8152974
-0.8145556
-0.8138274
-0.8131229
-0.8124545
-0.8116399
-0.8105121
-0.8093544
-0.8081709
-0.8069679
-0.8057532
-0.8045182
-0.8032157
-0.8017477
-0.7998661
-0.8164292
-0.8157143
-0.8150087
-0.8143213
-0.8136626
-0.8128677
-0.8117791
-0.8106582
-0.8095085
-0.8083341
-0.8071461
-0.805938
-0.8046992
-0.8034027
-0.8019633
-0.7906198
-0.793097
-0.7898312
-0.8093778
-0.8080273
-0.8066271
-0.8051889
-0.8037217
-0.8022348
-0.8007391
-0.7992634
-0.7979017
-0.7970681
-0.7968727
-0.794257
-0.7871521
-0.8105953
-0.8092452
-0.8078646
-0.8064772
-0.805107
-0.8037807
-0.8025352
-0.8014285
-0.8005856
-0.8002938
-0.7999213
-0.7980032
-0.7947182
-0.7860286
-0.8117602
-0.8104258
-0.8090735
-0.8077366
-0.806449
-0.8052485
-0.8041817
-0.803314
-0.8027398
-0.8026199
-0.8022247
-0.8007603
-0.7987676
-0.7952692
-0.7867448
-0.8128779
-0.8115778
-0.8102666
-0.8089837
-0.8077678
-0.8066609
-0.8057115
-0.8049775
-0.8045306
-0.8044531
-0.8040557
-0.8028233
-0.8014053
-0.7994717
-0.7961538
-0.7872666
-0.8139532
-0.8127045
-0.811448
-0.8102245
-0.8090735
-0.8080368
-0.8071602
-0.806495
-0.8060947
-0.8060118
-0.8056009
-0.8044877
-0.8033113
-0.8019784
-0.8002174
-0.7967794
-0.7867873
-0.8149889
-0.8138066
-0.8126169
-0.8114585
-0.8103686
-0.8093855
-0.8085513
-0.8079118
-0.8075142
-0.8073984
-0.806974
-0.8059198
-0.8048529
-0.8037452
-0.8025298
-0.8007319
-0.7968925
-0.7870486
-0.8159859
-0.8148822
-0.8137694
-0.8126812
-0.8116495
-0.8107077
-0.8098931
-0.8092486
-0.8088219
-0.8086584
-0.8082235
-0.8072108
-0.8061978
-0.8051877
-0.8041634
-0.8029084
-0.8008622
-0.7972323
-0.7880194
-0.8169435
-0.8159275
-0.8148989
-0.8138841
-0.8129078
-0.8119969
-0.8111826
-0.8105056
-0.8100201
-0.8097943
-0.8093658
-0.808394
-0.8074277
-0.8064737
-0.8055382
-0.804464
-0.8029753
-0.8010454
-0.7977636
-0.7896224
-0.8178596
-0.8169368
-0.8159961
-0.8150551
-0.8141306
-0.8132409
-0.8124088
-0.8116694
-0.8110838
-0.8107671
-0.8103921
-0.8094806
-0.8085758
-0.8076861
-0.8068194
-0.8058277
-0.8045085
-0.8030681
-0.8012827
-0.7984376
-0.7917207
-0.8187317
-0.8179019
-0.8170472
-0.8161771
-0.8152999
-0.8144234
-0.813558
-0.8127226
-0.8119647
-0.8114467
-0.8112881
-0.8104871
-0.8096813
-0.808882
-0.8081031
-0.8071722
-0.8059181
-0.804617
-0.8032294
-0.8015961
-0.7992157
-0.7940753
-0.8122157
-0.8115558
-0.810859
-0.8101526
-0.8094618
-0.8085906
-0.8073751
-0.8061313
-0.8048528
-0.803518
-0.8020287
-0.8000441
-0.7963212
-0.813724
-0.8129943
-0.8122733
-0.8115693
-0.8108961
-0.810055
-0.8088799
-0.8076759
-0.8064477
-0.8051937
-0.8039096
-0.8025174
-0.8007924
-0.7980274
-0.8151083
-0.8143763
-0.8136563
-0.8129567
-0.8122891
-0.8114703
-0.8103371
-0.8091735
-0.8079831
-0.8067716
-0.8055451
-0.8042907
-0.8029491
-0.8013827
-0.7991822
-0.8163364
-0.8156244
-0.8149214
-0.8142356
-0.8135771
-0.8127803
-0.811689
-0.8105651
-0.8094121
-0.8082339
-0.8070412
-0.8058268
-0.8045784
-0.8032633
-0.8017791
-0.8174144
-0.8167294
-0.8160501
-0.8153837
-0.8147387
-0.8139647
-0.8129135
-0.8118283
-0.8107114
-0.8095662
-0.8084012
-0.8072129
-0.8059914
-0.80474
-0.8034279
-0.7914716
-0.7937559
-0.7917838
-0.7958043
-0.794513
-0.7910628
-0.8106536
-0.8093771
-0.8080558
-0.8067015
-0.8053238
-0.8039329
-0.8025446
-0.8011899
-0.7999673
-0.7992397
-0.7992595
-0.7977646
-0.7954331
-0.789432
-0.8118061
-0.8105291
-0.8092245
-0.8079155
-0.8066249
-0.8053795
-0.8042155
-0.8031932
-0.8024264
-0.8021628
-0.8018618
-0.8005197
-0.7988153
-0.7959783
-0.7890489
-0.8129096
-0.8116468
-0.8103677
-0.8091043
-0.8078883
-0.8067552
-0.8057497
-0.8049316
-0.8043896
-0.8042496
-0.8038714
-0.8026697
-0.8013299
-0.7995717
-0.7966322
-0.7887043
-0.8139691
-0.8127382
-0.8114973
-0.8102836
-0.8091332
-0.8080852
-0.8071841
-0.8064833
-0.8060443
-0.8059355
-0.8055267
-0.804419
-0.803259
-0.8019626
-0.8002769
-0.797012
-0.7875188
-0.8149889
-0.8138066
-0.8126169
-0.8114585
-0.8103686
-0.8093855
-0.8085513
-0.8079118
-0.8075142
-0.8073984
-0.806974
-0.8059198
-0.8048529
-0.8037452
-0.8025298
-0.8007319
-0.7968925
-0.7870486
-0.8159715
-0.814852
-0.8137254
-0.8126283
-0.8115958
-0.8106633
-0.8098692
-0.8092548
-0.8088608
-0.8087196
-0.8082835
-0.8072686
-0.8062496
-0.8052285
-0.8041854
-0.8029054
-0.8008036
-0.7970052
-0.7873089
-0.8169175
-0.8158725
-0.8148187
-0.813788
-0.8128106
-0.8119177
-0.8111434
-0.8105264
-0.8101087
-0.8099283
-0.8094879
-0.8085076
-0.8075267
-0.8065511
-0.8055853
-0.8044852
-0.8029648
-0.8009337
-0.7973422
-0.7882677
-0.8178261
-0.8168642
-0.8158902
-0.814929
-0.8140044
-0.8131413
-0.8123688
-0.8117239
-0.8112553
-0.8110226
-0.8105936
-0.8096547
-0.8087156
-0.8077845
-0.8068676
-0.8058454
-0.8045154
-0.8030339
-0.8011179
-0.7978688
-0.7898475
-0.8186949
-0.8178214
-0.8169306
-0.8160395
-0.8151642
-0.8143219
-0.8135341
-0.812833
-0.8122747
-0.8119634
-0.8115908
-0.8107127
-0.8098353
-0.8089644
-0.8081079
-0.807135
-0.8058789
-0.8045646
-0.8031314
-0.8013579
-0.7985439
-0.7919023
-0.8195214
-0.8187359
-0.8179264
-0.8171026
-0.8162723
-0.8154431
-0.814625
-0.8138355
-0.8131193
-0.8126269
-0.8124669
-0.8116979
-0.810917
-0.8101344
-0.8093607
-0.8084433
-0.8072256
-0.8059758
-0.8046805
-0.8033002
-0.8016828
-0.7993129
-0.7941997
-0.813387
-0.8127475
-0.8120686
-0.811374
-0.8106854
-0.809826
-0.8086456
-0.8074346
-0.8061964
-0.8049243
-0.8036021
-0.802115
-0.8001191
-0.7963988
-0.8148304
-0.8141281
-0.8134294
-0.8127407
-0.8120732
-0.8112471
-0.8101076
-0.8089368
-0.807738
-0.8065157
-0.805273
-0.8039897
-0.8025839
-0.8008466
-0.7980693
-0.8161524
-0.8154498
-0.8147547
-0.8140737
-0.8134162
-0.8126156
-0.8115194
-0.8103901
-0.8092311
-0.8080459
-0.8068446
-0.8056183
-0.8043504
-0.802996
-0.8014134
-0.817324
-0.816642
-0.8159651
-0.8153003
-0.8146557
-0.8138799
-0.8128261
-0.8117382
-0.8106183
-0.8094698
-0.8083009
-0.8071079
-0.8058801
-0.8046189
-0.8032881
-0.8183509
-0.817696
-0.8170436
-0.8163999
-0.8157717
-0.8150207
-0.8140075
-0.8129593
-0.8118776
-0.8107646
-0.809628
-0.8084623
-0.8072606
-0.8060264
-0.8047597
-0.7919969
-0.7942952
-0.7928165
-0.79628
-0.7951002
-0.7930922
-0.7980669
-0.7972189
-0.7958811
-0.7925923
-0.8118611
-0.8106531
-0.8094045
-0.8081268
-0.8068295
-0.8055234
-0.8042235
-0.8029621
-0.8018276
-0.8011474
-0.8011762
-0.8000378
-0.7987123
-0.7966658
-0.7917439
-0.8129531
-0.8117441
-0.8105102
-0.8092733
-0.8080551
-0.8068809
-0.805785
-0.8048226
-0.8040984
-0.8038219
-0.8035188
-0.8023748
-0.8011593
-0.7996571
-0.7972532
-0.7907227
-0.8139992
-0.8128034
-0.8115928
-0.8103976
-0.8092476
-0.8081759
-0.8072232
-0.8064447
-0.8059175
-0.8057497
-0.8053558
-0.8042623
-0.8031388
-0.8019179
-0.8003816
-0.7974465
-0.7889354
-0.815004
-0.8138385
-0.8126635
-0.8115144
-0.8104253
-0.809432
-0.8085753
-0.8079031
-0.8074698
-0.8073299
-0.8069069
-0.8058555
-0.8047972
-0.8037074
-0.8025258
-0.8007906
-0.7971223
-0.7877696
-0.8159715
-0.814852
-0.8137254
-0.8126283
-0.8115958
-0.8106633
-0.8098692
-0.8092548
-0.8088608
-0.8087196
-0.8082835
-0.8072686
-0.8062496
-0.8052285
-0.8041854
-0.8029054
-0.8008036
-0.7970052
-0.7873089
-0.8169038
-0.8158441
-0.8147771
-0.8137381
-0.8127598
-0.8118753
-0.8111199
-0.8105306
-0.810143
-0.8099831
-0.8095416
-0.808559
-0.807573
-0.8065891
-0.8056106
-0.8044985
-0.8029609
-0.800875
-0.7971179
-0.7875677
-0.8178014
-0.8168124
-0.8158146
-0.8148385
-0.8139126
-0.8130662
-0.8123307
-0.8117412
-0.8113349
-0.8111437
-0.810703
-0.8097553
-0.8088023
-0.8078523
-0.8069107
-0.8058723
-0.8045341
-0.8030212
-0.8010053
-0.7974516
-0.7885119
-0.8186631
-0.8177531
-0.8168311
-0.815921
-0.8150455