/*--------------------------------*- C++ -*----------------------------------*\
| =========                 |                                                 |
| \\      /  F ield         | OpenFOAM: The Open Source CFD Toolbox           |
|  \\    /   O peration     | Version:  2306                                  |
|   \\  /    A nd           | Website:  www.openfoam.com                      |
|    \\/     M anipulation  |                                                 |
\*---------------------------------------------------------------------------*/
FoamFile
{
    version     2.0;
    format      ascii;
    arch        "LSB;label=32;scalar=64";
    class       volScalarField;
    location    "1.5/air";
    object      T;
}
// * * * * * * * * * * * * * * * * * * * * * * * * * * * * * * * * * * * * * //

dimensions      [0 0 0 1 0 0 0];

internalField   nonuniform List<scalar> 
16000
(
1251.287
1237.194
1267.696
1236.934
1229.285
1264.617
1202.524
1271.859
1264.563
1228.796
1224.749
1261.949
1180.891
1270.77
1255.482
1180.523
1275.148
1270.836
1261.838
1223.989
1222.635
1259.985
1167.85
1269.8
1247.509
1147.987
1274.683
1267.662
1247.386
1166.866
1278.023
1274.79
1269.915
1259.793
1221.509
1222.635
1258.944
1161.646
1269.061
1241.593
1127.499
1274.286
1264.777
1234.483
1126.669
1277.777
1273.506
1264.825
1241.24
1159.697
1280.619
1277.889
1274.479
1269.223
1258.646
1221.011
1267.135
1224.749
1258.944
1161.646
1268.66
1238.444
1117.516
1273.988
1262.553
1224.787
1100.593
1277.579
1272.362
1260.12
1224.459
1115.21
1280.455
1277.258
1272.47
1262.641
1237.751
1158.318
1282.995
1280.561
1277.784
1274.272
1268.878
1258.534
1222.464
1267.05
1270.508
1269.18
1229.285
1259.985
1167.85
1268.66
1238.444
1117.516
1273.827
1261.339
1219.59
1087.666
1277.436
1271.49
1256.448
1211.714
1085.873
1280.331
1276.718
1270.643
1256.477
1218.709
1112.986
1282.865
1280.17
1276.839
1271.734
1261.483
1237.354
1162.68
1285.186
1282.962
1280.525
1277.74
1274.221
1268.964
1259.504
1226.125
1266.863
1270.499
1269.056
1273.755
1272.369
1271.239
1237.194
1261.949
1180.891
1269.061
1241.593
1127.499
1273.827
1261.339
1219.59
1087.666
1277.361
1271.015
1254.429
1204.839
1071.187
1280.245
1276.32
1269.228
1251.619
1204.152
1082.982
1282.771
1279.85
1276.01
1269.388
1254.497
1218.009
1119.983
1285.074
1282.665
1279.965
1276.597
1271.452
1261.61
1240.176
1173.328
1287.217
1285.161
1282.947
1280.532
1277.783
1274.366
1269.518
1261.521
1232.781
1266.498
1270.486
1268.761
1273.764
1272.362
1271.083
1276.676
1275.382
1274.23
1273.317
1251.287
1264.617
1202.524
1269.8
1247.509
1147.987
1273.988
1262.553
1224.787
1100.593
1277.361
1271.015
1254.429
1204.839
1071.187
1280.201
1276.108
1268.451
1248.931
1196.266
1067.927
1282.707
1279.622
1275.387
1267.547
1248.952
1203.189
1091.967
1284.993
1282.429
1279.495
1275.576
1268.859
1254.623
1222.555
1136.729
1287.116
1284.907
1282.534
1279.889
1276.606
1271.742
1263.112
1246.04
1191.782
1289.105
1287.194
1285.152
1282.969
1280.601
1277.935
1274.733
1270.54
1264.535
1244.7
1265.473
1270.487
1268.123
1273.787
1272.355
1270.706
1276.688
1275.402
1274.224
1273.139
1279.324
1278.088
1277.004
1276.092
1275.418
1267.696
1236.934
1270.77
1255.482
1180.523
1274.286
1264.777
1234.483
1126.669
1277.436
1271.49
1256.448
1211.714
1085.873
1280.201
1276.108
1268.451
1248.931
1196.266
1067.927
1282.675
1279.504
1275.051
1266.529
1245.872
1195.151
1077.983
1284.94
1282.266
1279.154
1274.796
1266.803
1249.053
1209.084
1113.193
1287.043
1284.709
1282.199
1279.339
1275.534
1269.25
1256.981
1231.955
1164.64
1289.012
1286.965
1284.804
1282.511
1279.984
1276.922
1272.663
1265.917
1254.526
1221.689
1290.866
1289.083
1287.186
1285.176
1283.039
1280.743
1278.216
1275.347
1272.073
1268.717
1258.197
1270.628
1266.455
1273.858
1272.378
1269.903
1276.72
1275.459
1274.219
1272.713
1279.337
1278.114
1277.034
1276.086
1275.229
1281.752
1280.554
1279.496
1278.622
1277.954
1276.542
1271.859
1264.563
1228.796
1274.683
1267.662
1247.386
1166.866
1277.579
1272.362
1260.12
1224.459
1115.21
1280.245
1276.32
1269.228
1251.619
1204.152
1082.982
1282.675
1279.504
1275.051
1266.529
1245.872
1195.151
1077.983
1284.913
1282.183
1278.975
1274.372
1265.659
1245.951
1201.786
1101.581
1286.995
1284.574
1281.963
1278.934
1274.703
1267.253
1252.071
1221.218
1147.648
1288.945
1286.788
1284.526
1282.133
1279.446
1275.975
1270.636
1261.373
1245.262
1206.931
1290.779
1288.872
1286.873
1284.795
1282.623
1280.285
1277.592
1274.228
1269.874
1265.072
1249.349
1292.51
1290.844
1289.075
1287.207
1285.241
1283.168
1280.977
1278.659
1276.303
1274.485
1272.45
1260.821
1274.19
1272.571
1268.056
1276.804
1275.614
1274.242
1271.842
1279.369
1278.185
1277.113
1276.078
1274.785
1281.764
1280.581
1279.534
1278.658
1277.948
1276.353
1283.995
1282.83
1281.78
1280.897
1280.233
1278.939
1276.663
1275.148
1270.836
1261.838
1223.989
1277.777
1273.506
1264.825
1241.24
1159.697
1280.331
1276.718
1270.643
1256.477
1218.709
1112.986
1282.707
1279.622
1275.387
1267.547
1248.952
1203.189
1091.967
1284.913
1282.183
1278.975
1274.372
1265.659
1245.951
1201.786
1101.581
1286.971
1284.506
1281.842
1278.719
1274.247
1266.134
1249.33
1215.415
1139.385
1288.901
1286.667
1284.334
1281.864
1279.043
1275.223
1268.978
1257.681
1238.16
1197.746
1290.717
1288.709
1286.625
1284.487
1282.274
1279.869
1276.951
1272.975
1267.35
1261.084
1242.299
1292.43
1290.648
1288.786
1286.866
1284.903
1282.898
1280.83
1278.659
1276.465
1274.914
1271.738
1253.878
1294.05
1292.489
1290.835
1289.093
1287.267
1285.358
1283.372
1281.337
1279.368
1278.015
1277.329
1273.538
1263.631
1277.159
1276.138
1274.391
1270.057
1279.451
1278.365
1277.31
1276.085
1273.917
1281.795
1280.651
1279.631
1278.749
1277.934
1275.912
1284.006
1282.855
1281.818
1280.943
1280.273
1278.932
1276.475
1286.076
1284.946
1283.904
1282.999
1282.291
1281.082
1279.046
1276.785
1278.023
1274.79
1269.915
1259.793
1221.509
1280.455
1277.258
1272.47
1262.641
1237.751
1158.318
1282.771
1279.85
1276.01
1269.388
1254.497
1218.009
1119.983
1284.94
1282.266
1279.154
1274.796
1266.803
1249.053
1209.084
1113.193
1286.971
1284.506
1281.842
1278.719
1274.247
1266.134
1249.33
1215.415
1139.385
1288.88
1286.607
1284.236
1281.724
1278.827
1274.805
1268.038
1255.608
1234.313
1193.286
1290.677
1288.598
1286.454
1284.272
1282.023
1279.546
1276.41
1271.875
1265.17
1257.855
1237.544
1292.372
1290.495
1288.557
1286.593
1284.628
1282.662
1280.65
1278.482
1276.151
1274.388
1270.353
1248.042
1293.975
1292.306
1290.566
1288.778
1286.965
1285.152
1283.368
1281.669
1280.21
1279.52
1278.368
1273.066
1258.196
1295.492
1294.029
1292.48
1290.851
1289.147
1287.372
1285.539
1283.682
1281.92
1280.74
1280.38
1278.177
1274.868
1266.582
1279.786
1278.936
1277.842
1276.159
1272.315
1281.871
1280.826
1279.862
1278.952
1277.918
1275.073
1284.034
1282.921
1281.915
1281.056
1280.366
1278.916
1276.034
1286.087
1284.969
1283.94
1283.045
1282.341
1281.122
1279.038
1276.597
1288.015
1286.921
1285.893
1284.972
1284.211
1283.023
1281.173
1279.152
1276.907
1280.619
1277.889
1274.479
1269.223
1258.646
1221.011
1282.865
1280.17
1276.839
1271.734
1261.483
1237.354
1162.68
1284.993
1282.429
1279.495
1275.576
1268.859
1254.623
1222.555
1136.729
1286.995
1284.574
1281.963
1278.934
1274.703
1267.253
1252.071
1221.218
1147.648
1288.88
1286.607
1284.236
1281.724
1278.827
1274.805
1268.038
1255.608
1234.313
1193.286
1290.656
1288.542
1286.367
1284.162
1281.892
1279.369
1276.098
1271.233
1263.917
1256.071
1235.162
1292.334
1290.392
1288.4
1286.403
1284.433
1282.485
1280.484
1278.25
1275.703
1273.683
1269.077
1244.006
1293.921
1292.163
1290.352
1288.526
1286.721
1284.978
1283.331
1281.827
1280.573
1280.042
1278.612
1272.026
1253.456
1295.422
1293.857
1292.228
1290.556
1288.867
1287.19
1285.569
1284.083
1282.902
1282.444
1281.818
1279.122
1274.505
1262.375
1296.845
1295.472
1294.02
1292.494
1290.9
1289.243
1287.536
1285.814
1284.189
1283.089
1282.777
1281.091
1279.202
1276.341
1269.634
1282.175
1281.368
1280.456
1279.412
1277.913
1273.595
1284.103
1283.083
1282.141
1281.3
1280.553
1278.887
1275.199
1286.112
1285.03
1284.031
1283.158
1282.459
1281.213
1279.022
1276.157
1288.025
1286.942
1285.926
1285.015
1284.262
1283.074
1281.213
1279.145
1276.719
1289.826
1288.77
1287.762
1286.834
1286.032
1284.847
1283.102
1281.265
1279.259
1277.03
1282.995
1280.561
1277.784
1274.272
1268.878
1258.534
1222.464
1285.074
1282.665
1279.965
1276.597
1271.452
1261.61
1240.176
1173.328
1287.043
1284.709
1282.199
1279.339
1275.534
1269.25
1256.981
1231.955
1164.64
1288.901
1286.667
1284.334
1281.864
1279.043
1275.223
1268.978
1257.681
1238.16
1197.746
1290.656
1288.542
1286.367
1284.162
1281.892
1279.369
1276.098
1271.233
1263.917
1256.071
1235.162
1292.315
1290.341
1288.321
1286.307
1284.333
1282.39
1280.383
1278.094
1275.402
1273.228
1268.339
1241.963
1293.885
1292.067
1290.206
1288.352
1286.552
1284.852
1283.283
1281.872
1280.68
1280.169
1278.561
1271.032
1250.104
1295.372
1293.724
1292.028
1290.32
1288.642
1287.039
1285.571
1284.323
1283.442
1283.237
1282.513
1279.427
1273.718
1258.612
1296.78
1295.311
1293.783
1292.217
1290.637
1289.071
1287.566
1286.202
1285.138
1284.728
1284.224
1282.352
1279.983
1276.029
1266.459
1298.115
1296.826
1295.463
1294.032
1292.538
1290.987
1289.391
1287.784
1286.265
1285.216
1284.877
1283.391
1281.944
1280.32
1277.901
1271.28
1284.378
1283.579
1282.711
1281.831
1280.909
1278.842
1273.734
1286.176
1285.178
1284.241
1283.399
1282.691
1281.384
1278.991
1275.325
1288.048
1286.998
1286.011
1285.122
1284.381
1283.191
1281.304
1279.128
1276.281
1289.835
1288.79
1287.793
1286.875
1286.08
1284.899
1283.153
1281.305
1279.251
1276.842
1291.52
1290.505
1289.522
1288.597
1287.768
1286.588
1284.916
1283.181
1281.357
1279.365
1277.145
1285.186
1282.962
1280.525
1277.74
1274.221
1268.964
1259.504
1226.125
1287.116
1284.907
1282.534
1279.889
1276.606
1271.742
1263.112
1246.04
1191.782
1288.945
1286.788
1284.526
1282.133
1279.446
1275.975
1270.636
1261.373
1245.262
1206.931
1290.677
1288.598
1286.454
1284.272
1282.023
1279.546
1276.41
1271.875
1265.17
1257.855
1237.544
1292.315
1290.341
1288.321
1286.307
1284.333
1282.39
1280.383
1278.094
1275.402
1273.228
1268.339
1241.963
1293.868
1292.019
1290.132
1288.263
1286.465
1284.785
1283.251
1281.874
1280.691
1280.173
1278.476
1270.448
1248.388
1295.338
1293.634
1291.891
1290.158
1288.485
1286.93
1285.558
1284.444
1283.708
1283.604
1282.836
1279.453
1272.95
1255.9
1296.733
1295.187
1293.596
1291.996
1290.425
1288.93
1287.573
1286.446
1285.689
1285.547
1285.004
1283.022
1280.292
1275.428
1263.571
1298.054
1296.676
1295.242
1293.772
1292.29
1290.823
1289.414
1288.137
1287.137
1286.72
1286.223
1284.652
1282.982
1280.922
1277.611
1268.582
1299.308
1298.097
1296.817
1295.474
1294.072
1292.618
1291.123
1289.617
1288.191
1287.183
1286.803
1285.415
1284.125
1282.868
1281.488
1278.752
1271.458
1286.424
1285.627
1284.766
1283.917
1283.125
1281.682
1278.942
1273.875
1288.106
1287.134
1286.204
1285.348
1284.613
1283.409
1281.474
1279.096
1275.453
1289.856
1288.842
1287.871
1286.974
1286.194
1285.017
1283.269
1281.395
1279.234
1276.405
1291.529
1290.524
1289.551
1288.635
1287.814
1286.638
1284.967
1283.232
1281.396
1279.358
1276.957
1293.109
1292.136
1291.182
1290.269
1289.426
1288.258
1286.648
1284.984
1283.26
1281.448
1279.465
1277.235
1287.217
1285.161
1282.947
1280.532
1277.783
1274.366
1269.518
1261.521
1232.781
1289.012
1286.965
1284.804
1282.511
1279.984
1276.922
1272.663
1265.917
1254.526
1221.689
1290.717
1288.709
1286.625
1284.487
1282.274
1279.869
1276.951
1272.975
1267.35
1261.084
1242.299
1292.334
1290.392
1288.4
1286.403
1284.433
1282.485
1280.484
1278.25
1275.703
1273.683
1269.077
1244.006
1293.868
1292.019
1290.132
1288.263
1286.465
1284.785
1283.251
1281.874
1280.691
1280.173
1278.476
1270.448
1248.388
1295.322
1293.589
1291.822
1290.075
1288.406
1286.873
1285.545
1284.491
1283.813
1283.748
1282.959
1279.416
1272.495
1254.498
1296.701
1295.102
1293.467
1291.843
1290.278
1288.829
1287.566
1286.578
1285.981
1285.962
1285.417
1283.352
1280.363
1274.843
1261.454
1298.01
1296.559
1295.066
1293.564
1292.09
1290.688
1289.417
1288.361
1287.653
1287.489
1286.977
1285.383
1283.586
1281.2
1277.152
1266.115
1299.25
1297.956
1296.61
1295.23
1293.838
1292.461
1291.137
1289.934
1288.982
1288.547
1288.028
1286.589
1285.166
1283.683
1281.915
1278.467
1268.811
1300.428
1299.291
1298.089
1296.828
1295.511
1294.146
1292.744
1291.33
1289.988
1289.02
1288.605
1287.281
1286.059
1284.919
1283.828
1282.119
1278.844
1271.637
1288.332
1287.541
1286.682
1285.829
1285.045
1283.786
1281.765
1279.043
1274.017
1289.91
1288.967
1288.048
1287.183
1286.414
1285.238
1283.486
1281.563
1279.201
1275.581
1291.549
1290.572
1289.624
1288.728
1287.92
1286.751
1285.086
1283.348
1281.487
1279.34
1276.522
1293.116
1292.154
1291.209
1290.304
1289.469
1288.305
1286.698
1285.036
1283.311
1281.488
1279.458
1277.048
1294.6
1293.67
1292.749
1291.854
1291.01
1289.861
1288.311
1286.708
1285.053
1283.339
1281.534
1279.542
1277.307
1289.105
1287.194
1285.152
1282.969
1280.601
1277.935
1274.733
1270.54
1264.535
1244.7
1290.779
1288.872
1286.873
1284.795
1282.623
1280.285
1277.592
1274.228
1269.874
1265.072
1249.349
1292.372
1290.495
1288.557
1286.593
1284.628
1282.662
1280.65
1278.482
1276.151
1274.388
1270.353
1248.042
1293.885
1292.067
1290.206
1288.352
1286.552
1284.852
1283.283
1281.872
1280.68
1280.169
1278.561
1271.032
1250.104
1295.322
1293.589
1291.822
1290.075
1288.406
1286.873
1285.545
1284.491
1283.813
1283.748
1282.959
1279.416
1272.495
1254.498
1296.686
1295.06
1293.402
1291.766
1290.203
1288.777
1287.558
1286.633
1286.106
1286.138
1285.596
1283.485
1280.358
1274.495
1260.348
1297.981
1296.479
1294.945
1293.421
1291.952
1290.592
1289.408
1288.485
1287.932
1287.89
1287.39
1285.783
1283.902
1281.29
1276.717
1264.291
1299.209
1297.847
1296.445
1295.035
1293.65
1292.332
1291.134
1290.135
1289.451
1289.25
1288.724
1287.29
1285.816
1284.197
1282.142
1278.068
1266.388
1300.374
1299.159
1297.894
1296.599
1295.291
1293.996
1292.751
1291.615
1290.705
1290.256
1289.716
1288.35
1287.03
1285.741
1284.432
1282.458
1278.56
1269.039
1301.479
1300.412
1299.283
1298.099
1296.862
1295.58
1294.263
1292.935
1291.67
1290.743
1290.303
1289.033
1287.851
1286.753
1285.74
1284.344
1282.187
1278.937
1271.816
1290.116
1289.338
1288.484
1287.624
1286.82
1285.618
1283.857
1281.849
1279.143
1274.159
1291.598
1290.687
1289.787
1288.921
1288.125
1286.961
1285.305
1283.563
1281.652
1279.306
1275.702
1293.135
1292.198
1291.277
1290.391
1289.568
1288.411
1286.811
1285.154
1283.427
1281.578
1279.44
1276.613
1294.607
1293.686
1292.774
1291.887
1291.049
1289.905
1288.358
1286.758
1285.105
1283.39
1281.573
1279.534
1277.12
1296
1295.114
1294.228
1293.357
1292.52
1291.398
1289.908
1288.364
1286.768
1285.121
1283.413
1281.599
1279.603
1277.361
1290.866
1289.083
1287.186
1285.176
1283.039
1280.743
1278.216
1275.347
1272.073
1268.717
1258.197
1292.43
1290.648
1288.786
1286.866
1284.903
1282.898
1280.83
1278.659
1276.465
1274.914
1271.738
1253.878
1293.921
1292.163
1290.352
1288.526
1286.721
1284.978
1283.331
1281.827
1280.573
1280.042
1278.612
1272.026
1253.456
1295.338
1293.634
1291.891
1290.158
1288.485
1286.93
1285.558
1284.444
1283.708
1283.604
1282.836
1279.453
1272.95
1255.9
1296.686
1295.06
1293.402
1291.766
1290.203
1288.777
1287.558
1286.633
1286.106
1286.138
1285.596
1283.485
1280.358
1274.495
1260.348
1297.966
1296.44
1294.884
1293.348
1291.881
1290.542
1289.4
1288.538
1288.054
1288.064
1287.575
1285.96
1284.035
1281.306
1276.46
1263.333
1299.182
1297.772
1296.332
1294.9
1293.519
1292.24
1291.123
1290.246
1289.707
1289.621
1289.112
1287.686
1286.186
1284.483
1282.235
1277.701
1264.595
1300.335
1299.056
1297.74
1296.415
1295.114
1293.873
1292.744
1291.795
1291.13
1290.896
1290.352
1288.998
1287.653
1286.293
1284.846
1282.653
1278.167
1266.66
1301.428
1300.289
1299.101
1297.884
1296.655
1295.438
1294.265
1293.192
1292.323
1291.867
1291.313
1290.003
1288.739
1287.526
1286.36
1284.844
1282.517
1278.653
1269.267
1302.465
1301.465
1300.405
1299.293
1298.131
1296.926
1295.688
1294.44
1293.248
1292.361
1291.908
1290.689
1289.543
1288.466
1287.471
1286.18
1284.4
1282.255
1279.03
1271.996
1291.787
1291.027
1290.185
1289.325
1288.501
1287.322
1285.68
1283.928
1281.931
1279.244
1274.294
1293.181
1292.305
1291.428
1290.57
1289.759
1288.608
1287.02
1285.372
1283.64
1281.742
1279.404
1275.798
1294.625
1293.729
1292.838
1291.968
1291.142
1290.004
1288.464
1286.871
1285.222
1283.505
1281.663
1279.516
1276.687
1296.007
1295.13
1294.252
1293.389
1292.558
1291.439
1289.952
1288.411
1286.818
1285.173
1283.463
1281.638
1279.595
1277.175
1297.317
1296.475
1295.626
1294.782
1293.96
1292.869
1291.44
1289.955
1288.417
1286.828
1285.185
1283.468
1281.649
1279.647
1277.397
1265.473
1292.51
1290.844
1289.075
1287.207
1285.241
1283.168
1280.977
1278.659
1276.303
1274.485
1272.45
1260.821
1293.975
1292.306
1290.566
1288.778
1286.965
1285.152
1283.368
1281.669
1280.21
1279.52
1278.368
1273.066
1258.196
1295.372
1293.724
1292.028
1290.32
1288.642
1287.039
1285.571
1284.323
1283.442
1283.237
1282.513
1279.427
1273.718
1258.612
1296.701
1295.102
1293.467
1291.843
1290.278
1288.829
1287.566
1286.578
1285.981
1285.962
1285.417
1283.352
1280.363
1274.843
1261.454
1297.966
1296.44
1294.884
1293.348
1291.881
1290.542
1289.4
1288.538
1288.054
1288.064
1287.575
1285.96
1284.035
1281.306
1276.46
1263.333
1299.168
1297.735
1296.274
1294.831
1293.453
1292.192
1291.114
1290.294
1289.819
1289.784
1289.287
1287.865
1286.353
1284.609
1282.262
1277.485
1263.653
1300.309
1298.987
1297.634
1296.289
1294.991
1293.786
1292.73
1291.893
1291.363
1291.235
1290.709
1289.368
1288.017
1286.622
1285.092
1282.742
1277.807
1264.898
1301.392
1300.192
1298.956
1297.712
1296.489
1295.321
1294.255
1293.354
1292.71
1292.451
1291.894
1290.596
1289.315
1288.056
1286.807
1285.203
1282.708
1278.266
1266.931
1302.418
1301.349
1300.235
1299.092
1297.937
1296.792
1295.688
1294.675
1293.846
1293.39
1292.83
1291.573
1290.351
1289.177
1288.06
1286.701
1284.888
1282.576
1278.746
1269.494
1303.389
1302.452
1301.459
1300.414
1299.323
1298.191
1297.027
1295.853
1294.73
1293.885
1293.427
1292.258
1291.148
1290.092
1289.102
1287.855
1286.228
1284.456
1282.324
1279.123
1272.164
1293.356
1292.618
1291.794
1290.941
1290.107
1288.946
1287.376
1285.741
1283.998
1282.014
1279.339
1274.402
1294.668
1293.828
1292.979
1292.135
1291.321
1290.189
1288.66
1287.079
1285.439
1283.717
1281.825
1279.479
1275.875
1296.024
1295.169
1294.312
1293.464
1292.645
1291.532
1290.051
1288.517
1286.931
1285.291
1283.579
1281.727
1279.576
1276.742
1297.324
1296.49
1295.649
1294.812
1293.996
1292.908
1291.481
1289.999
1288.463
1286.878
1285.237
1283.518
1281.688
1279.639
1277.21
1298.556
1297.757
1296.946
1296.134
1295.332
1294.276
1292.907
1291.482
1290.002
1288.47
1286.884
1285.232
1283.509
1281.684
1279.674
1266.498
1270.628
1266.455
1294.05
1292.489
1290.835
1289.093
1287.267
1285.358
1283.372
1281.337
1279.368
1278.015
1277.329
1273.538
1263.631
1295.422
1293.857
1292.228
1290.556
1288.867
1287.19
1285.569
1284.083
1282.902
1282.444
1281.818
1279.122
1274.505
1262.375
1296.733
1295.187
1293.596
1291.996
1290.425
1288.93
1287.573
1286.446
1285.689
1285.547
1285.004
1283.022
1280.292
1275.428
1263.571
1297.981
1296.479
1294.945
1293.421
1291.952
1290.592
1289.408
1288.485
1287.932
1287.89
1287.39
1285.783
1283.902
1281.29
1276.717
1264.291
1299.168
1297.735
1296.274
1294.831
1293.453
1292.192
1291.114
1290.294
1289.819
1289.784
1289.287
1287.865
1286.353
1284.609
1282.262
1277.485
1263.653
1300.297
1298.952
1297.58
1296.224
1294.928
1293.74
1292.72
1291.936
1291.465
1291.385
1290.871
1289.537
1288.185
1286.774
1285.204
1282.772
1277.596
1263.971
1301.368
1300.127
1298.857
1297.593
1296.373
1295.238
1294.24
1293.443
1292.922
1292.762
1292.222
1290.938
1289.656
1288.379
1287.087
1285.425
1282.796
1277.913
1265.199
1302.384
1301.259
1300.099
1298.931
1297.781
1296.682
1295.677
1294.822
1294.201
1293.927
1293.364
1292.115
1290.881
1289.67
1288.493
1287.093
1285.242
1282.764
1278.365
1267.2
1303.345
1302.344
1301.299
1300.227
1299.142
1298.066
1297.026
1296.07
1295.282
1294.832
1294.274
1293.067
1291.887
1290.744
1289.649
1288.355
1286.738
1284.933
1282.636
1278.84
1269.706
1304.254
1303.378
1302.447
1301.467
1300.443
1299.38
1298.286
1297.182
1296.124
1295.32
1294.865
1293.747
1292.675
1291.643
1290.66
1289.442
1287.897
1286.276
1284.512
1282.393
1279.211
1272.302
1294.83
1294.118
1293.317
1292.478
1291.644
1290.503
1288.993
1287.43
1285.802
1284.069
1282.091
1279.41
1274.492
1296.064
1295.263
1294.444
1293.62
1292.812
1291.705
1290.235
1288.712
1287.137
1285.505
1283.788
1281.887
1279.538
1275.934
1297.34
1296.527
1295.705
1294.884
1294.078
1292.996
1291.574
1290.098
1288.57
1286.99
1285.354
1283.633
1281.776
1279.619
1276.779
1298.562
1297.771
1296.968
1296.162
1295.366
1294.313
1292.946
1291.523
1290.045
1288.516
1286.934
1285.284
1283.56
1281.723
1279.666
1299.72
1298.965
1298.194
1297.415
1296.637
1295.619
1294.31
1292.945
1291.523
1290.049
1288.519
1286.924
1285.266
1283.536
1281.703
1266.863
1270.487
1268.123
1274.19
1272.571
1268.056
1295.492
1294.029
1292.48
1290.851
1289.147
1287.372
1285.539
1283.682
1281.92
1280.74
1280.38
1278.177
1274.868
1266.582
1296.78
1295.311
1293.783
1292.217
1290.637
1289.071
1287.566
1286.202
1285.138
1284.728
1284.224
1282.352
1279.983
1276.029
1266.459
1298.01
1296.559
1295.066
1293.564
1292.09
1290.688
1289.417
1288.361
1287.653
1287.489
1286.977
1285.383
1283.586
1281.2
1277.152
1266.115
1299.182
1297.772
1296.332
1294.9
1293.519
1292.24
1291.123
1290.246
1289.707
1289.621
1289.112
1287.686
1286.186
1284.483
1282.235
1277.701
1264.595
1300.297
1298.952
1297.58
1296.224
1294.928
1293.74
1292.72
1291.936
1291.465
1291.385
1290.871
1289.537
1288.185
1286.774
1285.204
1282.772
1277.596
1263.971
1301.356
1300.095
1298.807
1297.533
1296.314
1295.195
1294.23
1293.48
1293.015
1292.899
1292.371
1291.094
1289.815
1288.531
1287.22
1285.529
1282.827
1277.706
1264.288
1302.361
1301.199
1300.007
1298.82
1297.673
1296.604
1295.662
1294.902
1294.395
1294.212
1293.666
1292.43
1291.196
1289.974
1288.769
1287.345
1285.461
1282.851
1278.019
1265.499
1303.313
1302.261
1301.173
1300.076
1298.996
1297.963
1297.015
1296.206
1295.61
1295.327
1294.766
1293.566
1292.373
1291.199
1290.056
1288.738
1287.124
1285.281
1282.82
1278.464
1267.452
1304.213
1303.277
1302.299
1301.293
1300.274
1299.263
1298.286
1297.384
1296.637
1296.197
1295.648
1294.492
1293.354
1292.242
1291.167
1289.911
1288.387
1286.775
1284.978
1282.695
1278.927
1269.884
1305.063
1304.245
1303.374
1302.456
1301.495
1300.496
1299.469
1298.431
1297.435
1296.672
1296.227
1295.159
1294.128
1293.124
1292.154
1290.964
1289.479
1287.939
1286.324
1284.568
1282.457
1279.276
1272.421
1296.216
1295.533
1294.759
1293.94
1293.113
1291.999
1290.545
1289.041
1287.484
1285.863
1284.134
1282.148
1279.465
1274.562
1297.378
1296.615
1295.829
1295.03
1294.235
1293.159
1291.747
1290.281
1288.764
1287.196
1285.568
1283.841
1281.934
1279.579
1275.974
1298.577
1297.807
1297.022
1296.23
1295.444
1294.396
1293.034
1291.616
1290.145
1288.622
1287.046
1285.401
1283.674
1281.81
1279.645
1299.726
1298.979
1298.215
1297.442
1296.669
1295.654
1294.347
1292.983
1291.565
1290.092
1288.566
1286.974
1285.318
1283.586
1281.742
1300.816
1300.103
1299.372
1298.628
1297.878
1296.901
1295.651
1294.344
1292.982
1291.565
1290.092
1288.554
1286.952
1285.287
1283.549
1267.05
1270.486
1268.761
1273.858
1272.378
1269.903
1277.159
1276.138
1274.391
1270.057
1296.845
1295.472
1294.02
1292.494
1290.9
1289.243
1287.536
1285.814
1284.189
1283.089
1282.777
1281.091
1279.202
1276.341
1269.634
1298.054
1296.676
1295.242
1293.772
1292.29
1290.823
1289.414
1288.137
1287.137
1286.72
1286.223
1284.652
1282.982
1280.922
1277.611
1268.582
1299.209
1297.847
1296.445
1295.035
1293.65
1292.332
1291.134
1290.135
1289.451
1289.25
1288.724
1287.29
1285.816
1284.197
1282.142
1278.068
1266.388
1300.309
1298.987
1297.634
1296.289
1294.991
1293.786
1292.73
1291.893
1291.363
1291.235
1290.709
1289.368
1288.017
1286.622
1285.092
1282.742
1277.807
1264.898
1301.356
1300.095
1298.807
1297.533
1296.314
1295.195
1294.23
1293.48
1293.015
1292.899
1292.371
1291.094
1289.815
1288.531
1287.22
1285.529
1282.827
1277.706
1264.288
1302.35
1301.168
1299.96
1298.763
1297.617
1296.563
1295.651
1294.937
1294.48
1294.338
1293.804
1292.574
1291.343
1290.118
1288.903
1287.467
1285.564
1282.882
1277.816
1264.603
1303.292
1302.204
1301.087
1299.973
1298.895
1297.89
1297
1296.28
1295.789
1295.591
1295.046
1293.856
1292.664
1291.481
1290.317
1288.988
1287.373
1285.498
1282.907
1278.125
1265.779
1304.183
1303.199
1302.181
1301.153
1300.139
1299.168
1298.275
1297.511
1296.941
1296.657
1296.104
1294.953
1293.802
1292.663
1291.545
1290.272
1288.764
1287.155
1285.32
1282.876
1278.557
1267.665
1305.024
1304.151
1303.236
1302.293
1301.339
1300.389
1299.47
1298.621
1297.914
1297.49
1296.954
1295.848
1294.754
1293.676
1292.624
1291.401
1289.939
1288.42
1286.813
1285.024
1282.751
1278.992
1270.04
1305.817
1305.055
1304.241
1303.382
1302.482
1301.546
1300.581
1299.605
1298.668
1297.948
1297.515
1296.498
1295.509
1294.537
1293.587
1292.428
1290.997
1289.516
1287.98
1286.371
1284.62
1282.502
1279.324
1272.519
1297.52
1296.868
1296.123
1295.329
1294.517
1293.434
1292.037
1290.588
1289.088
1287.537
1285.92
1284.181
1282.189
1279.502
1274.613
1298.613
1297.89
1297.139
1296.368
1295.592
1294.55
1293.196
1291.788
1290.327
1288.815
1287.25
1285.612
1283.879
1281.966
1279.602
1299.741
1299.013
1298.266
1297.506
1296.744
1295.733
1294.43
1293.072
1291.658
1290.192
1288.671
1287.086
1285.434
1283.7
1281.828
1300.821
1300.117
1299.392
1298.654
1297.909
1296.934
1295.685
1294.381
1293.021
1291.606
1290.136
1288.6
1287.002
1285.338
1283.599
1301.845
1301.176
1300.484
1299.776
1299.057
1298.121
1296.929
1295.682
1294.378
1293.02
1291.604
1290.122
1288.577
1286.968
1285.294
1267.135
1270.499
1269.056
1273.787
1272.355
1270.706
1276.804
1275.614
1274.242
1271.842
1279.786
1278.936
1277.842
1276.159
1272.315
1298.115
1296.826
1295.463
1294.032
1292.538
1290.987
1289.391
1287.784
1286.265
1285.216
1284.877
1283.391
1281.944
1280.32
1277.901
1271.28
1299.25
1297.956
1296.61
1295.23
1293.838
1292.461
1291.137
1289.934
1288.982
1288.547
1288.028
1286.589
1285.166
1283.683
1281.915
1278.467
1268.811
1300.335
1299.056
1297.74
1296.415
1295.114
1293.873
1292.744
1291.795
1291.13
1290.896
1290.352
1288.998
1287.653
1286.293
1284.846
1282.653
1278.167
1266.66
1301.368
1300.127
1298.857
1297.593
1296.373
1295.238
1294.24
1293.443
1292.922
1292.762
1292.222
1290.938
1289.656
1288.379
1287.087
1285.425
1282.796
1277.913
1265.199
1302.35
1301.168
1299.96
1298.763
1297.617
1296.563
1295.651
1294.937
1294.48
1294.338
1293.804
1292.574
1291.343
1290.118
1288.903
1287.467
1285.564
1282.882
1277.816
1264.603
1303.282
1302.175
1301.043
1299.92
1298.843
1297.851
1296.99
1296.311
1295.867
1295.708
1295.174
1293.991
1292.801
1291.615
1290.444
1289.11
1287.494
1285.6
1282.938
1277.926
1264.897
1304.164
1303.147
1302.101
1301.056
1300.044
1299.099
1298.262
1297.579
1297.108
1296.903
1296.365
1295.222
1294.072
1292.924
1291.79
1290.51
1289.011
1287.401
1285.534
1282.962
1278.224
1266.017
1304.997
1304.079
1303.127
1302.163
1301.213
1300.301
1299.462
1298.741
1298.199
1297.919
1297.38
1296.277
1295.17
1294.067
1292.977
1291.74
1290.295
1288.791
1287.187
1285.36
1282.928
1278.627
1267.856
1305.781
1304.968
1304.114
1303.232
1302.338
1301.448
1300.585
1299.787
1299.12
1298.713
1298.195
1297.14
1296.09
1295.05
1294.025
1292.836
1291.426
1289.968
1288.452
1286.851
1285.067
1282.788
1279.039
1270.175
1306.518
1305.81
1305.052
1304.25
1303.408
1302.53
1301.626
1300.71
1299.829
1299.15
1298.735
1297.768
1296.821
1295.884
1294.96
1293.835
1292.457
1291.03
1289.552
1288.022
1286.416
1284.655
1282.531
1279.354
1272.596
1298.747
1298.127
1297.415
1296.649
1295.858
1294.809
1293.468
1292.075
1290.63
1289.135
1287.587
1285.959
1284.214
1282.214
1279.521
1299.775
1299.092
1298.377
1297.637
1296.884
1295.879
1294.584
1293.233
1291.829
1290.373
1288.863
1287.288
1285.644
1283.903
1281.98
1300.835
1300.149
1299.441
1298.715
1297.98
1297.009
1295.765
1294.465
1293.109
1291.7
1290.235
1288.705
1287.113
1285.454
1283.711
1301.851
1301.188
1300.504
1299.801
1299.087
1298.153
1296.962
1295.716
1294.415
1293.059
1291.645
1290.166
1288.623
1287.017
1285.345
1302.812
1302.185
1301.534
1300.862
1300.176
1299.282
1298.147
1296.957
1295.712
1294.412
1293.055
1291.63
1290.141
1288.588
1286.971
1270.508
1269.18
1273.764
1272.362
1271.083
1276.72
1275.459
1274.219
1272.713
1279.451
1278.365
1277.31
1276.085
1273.917
1282.175
1281.368
1280.456
1279.412
1277.913
1273.595
1299.308
1298.097
1296.817
1295.474
1294.072
1292.618
1291.123
1289.617
1288.191
1287.183
1286.803
1285.415
1284.125
1282.868
1281.488
1278.752
1271.458
1300.374
1299.159
1297.894
1296.599
1295.291
1293.996
1292.751
1291.615
1290.705
1290.256
1289.716
1288.35
1287.03
1285.741
1284.432
1282.458
1278.56
1269.039
1301.392
1300.192
1298.956
1297.712
1296.489
1295.321
1294.255
1293.354
1292.71
1292.451
1291.894
1290.596
1289.315
1288.056
1286.807
1285.203
1282.708
1278.266
1266.931
1302.361
1301.199
1300.007
1298.82
1297.673
1296.604
1295.662
1294.902
1294.395
1294.212
1293.666
1292.43
1291.196
1289.974
1288.769
1287.345
1285.461
1282.851
1278.019
1265.499
1303.282
1302.175
1301.043
1299.92
1298.843
1297.851
1296.99
1296.311
1295.867
1295.708
1295.174
1293.991
1292.801
1291.615
1290.444
1289.11
1287.494
1285.6
1282.938
1277.926
1264.897
1304.154
1303.12
1302.06
1301.007
1299.996
1299.064
1298.252
1297.608
1297.181
1297.012
1296.484
1295.347
1294.199
1293.049
1291.909
1290.627
1289.133
1287.521
1285.635
1282.993
1278.029
1265.148
1304.979
1304.03
1303.052
1302.074
1301.125
1300.238
1299.45
1298.806
1298.355
1298.149
1297.623
1296.528
1295.421
1294.311
1293.206
1291.964
1290.531
1289.035
1287.43
1285.571
1283.014
1278.298
1266.233
1305.755
1304.901
1304.012
1303.112
1302.222
1301.367
1300.579
1299.901