/*--------------------------------*- C++ -*----------------------------------*\
| =========                 |                                                 |
| \\      /  F ield         | OpenFOAM: The Open Source CFD Toolbox           |
|  \\    /   O peration     | Version:  2306                                  |
|   \\  /    A nd           | Website:  www.openfoam.com                      |
|    \\/     M anipulation  |                                                 |
\*---------------------------------------------------------------------------*/
FoamFile
{
    version     2.0;
    format      ascii;
    arch        "LSB;label=32;scalar=64";
    class       volVectorField;
    location    "1.5/air";
    object      U;
}
// * * * * * * * * * * * * * * * * * * * * * * * * * * * * * * * * * * * * * //

dimensions      [0 1 -1 0 0 0 0];

internalField   nonuniform List<vector> 
16000
(
(0.36091 0.05565817 -0.05574118)
(0.6460662 0.1055289 -0.08605453)
(0.3929061 0.003814724 -0.003701969)
(0.646286 0.08569197 -0.1067799)
(0.7762012 0.09025993 -0.08593124)
(0.7747454 0.009220215 -0.006822935)
(1.299603 0.1779483 -0.1814705)
(0.2997533 -0.001311545 0.001322677)
(0.774946 0.006937433 -0.0088742)
(0.7769926 0.08532397 -0.0937849)
(0.8401126 0.0561417 -0.08350078)
(0.9839341 0.009697694 -0.007118488)
(1.640213 0.1681176 -0.2012029)
(0.6177841 -0.001847688 0.002240553)
(1.71414 0.01744357 -0.01722175)
(1.641618 0.1958435 -0.177029)
(0.3404604 0.0008448598 -0.0008339705)
(0.6180075 -0.002257908 0.001780257)
(0.9848674 0.007198389 -0.009282003)
(0.8419699 0.0826651 -0.06274555)
(0.8662893 0.01900051 -0.08228219)
(1.095703 0.006861335 -0.006771034)
(1.823643 0.110792 -0.2010459)
(0.805449 -0.001660827 0.002476774)
(2.278005 0.01962877 -0.0197702)
(2.117601 0.1941225 -0.2071377)
(0.6948093 0.001426026 -0.001502584)
(1.417601 -0.003456464 0.003148823)
(2.279835 0.01956252 -0.01973025)
(1.828181 0.1942056 -0.1265197)
(0.3171735 -0.0004290159 0.0004410527)
(0.6950224 0.001474157 -0.00152608)
(0.8065447 -0.00252691 0.001371482)
(1.098258 0.006769622 -0.006656261)
(0.8699759 0.08112472 -0.02934678)
(0.8662893 -0.01900051 -0.08228219)
(1.145399 0.002356447 -0.006355832)
(1.899371 0.03842546 -0.198936)
(0.9145638 -0.0009600815 0.002521905)
(2.586478 0.0154002 -0.02199156)
(2.36234 0.1338861 -0.2136515)
(0.9015231 0.001385777 -0.001647391)
(1.931193 -0.003260517 0.00392213)
(3.10256 0.02320858 -0.02423007)
(2.366633 0.1974838 -0.1564478)
(0.651632 -0.0007676191 0.0007428002)
(1.580575 0.002391426 -0.002801488)
(1.933334 -0.004481797 0.002408322)
(2.592828 0.02110893 -0.01642563)
(1.909522 0.1904295 -0.06193008)
(0.3303126 0.0002993631 -0.0002879258)
(0.6518381 -0.0007660652 0.0006873687)
(0.9026035 0.001579105 -0.00177145)
(0.9175834 -0.00261236 0.0003063641)
(1.150921 0.00620485 -0.002736289)
(0.873039 0.08060199 0.004132903)
(0.0003042753 -0.001366626 -0.000661092)
(0.8401126 -0.0561417 -0.08350078)
(1.145399 -0.002356447 -0.006355832)
(1.899371 -0.03842546 -0.198936)
(0.9652183 -0.0003124086 0.002563782)
(2.727216 0.005576082 -0.02200871)
(2.466559 0.04723147 -0.2128522)
(1.020442 0.0008915254 -0.001653648)
(2.238879 -0.001985848 0.004552732)
(3.585248 0.01761565 -0.0256814)
(2.652157 0.1378084 -0.1648485)
(0.8490546 -0.0007655076 0.0007858869)
(2.141806 0.002398148 -0.003172544)
(2.689464 -0.004696933 0.003367697)
(3.591678 0.02360741 -0.01973542)
(2.479145 0.1939062 -0.07976441)
(0.6762263 0.0005034422 -0.0005441514)
(1.491771 -0.001475799 0.001118229)
(2.143971 0.002473608 -0.003507912)
(2.246255 -0.005404554 0.0003635559)
(2.742099 0.02028099 -0.007961809)
(1.918895 0.1883742 0.006689611)
(0.3224377 -0.0001217168 0.000133376)
(0.6764356 0.0005183801 -0.0005910339)
(0.8501003 -0.00084606 0.000435632)
(1.023468 0.001544377 -0.001718451)
(0.9716155 -0.002726277 -0.0008949553)
(1.15585 0.005947433 0.0008355549)
(0.8519932 0.08107519 0.03603222)
(0.0003189833 -0.003956367 -0.0006829953)
(0.0003053455 -0.001222312 -0.000604068)
(0.0003057296 -0.001369597 -0.001284293)
(0.7762012 -0.09025993 -0.08593124)
(1.095703 -0.006861335 -0.006771034)
(1.823643 -0.110792 -0.2010459)
(0.9652183 0.0003124086 0.002563782)
(2.727216 -0.005576082 -0.02200871)
(2.466559 -0.04723147 -0.2128522)
(1.075366 0.0003010658 -0.001646219)
(2.383317 -0.000661839 0.00493715)
(3.805611 0.006532841 -0.02608922)
(2.773973 0.0490419 -0.1657391)
(0.9636543 -0.0005134211 0.0007840604)
(2.475396 0.001591177 -0.003178802)
(3.153137 -0.003142702 0.004326408)
(4.182669 0.01856981 -0.02191729)
(2.783669 0.1356088 -0.08660123)
(0.8791863 0.0004964924 -0.0006202132)
(2.029592 -0.001577369 0.001212237)
(2.966264 0.002451357 -0.004127397)
(3.160343 -0.006122238 0.0008979978)
(3.825052 0.02278964 -0.0100584)
(2.493215 0.1912457 0.005427797)
(0.6615027 -0.0002192272 0.0002002291)
(1.542873 0.0008157476 -0.001193578)
(2.031689 -0.001835011 0.0005957857)
(2.482922 0.002203642 -0.00365088)
(2.400191 -0.006221398 -0.001979727)
(2.756358 0.01915926 0.001272055)
(1.858372 0.1882692 0.07145254)
(0.326462 0.0001195451 -0.0001088058)
(0.6617099 -0.0002219462 0.000145366)
(0.8802459 0.0005564208 -0.0008454372)
(0.9665821 -0.0008820825 -0.0002067002)
(1.081841 0.001471829 -0.00174519)
(0.9768435 -0.002874904 -0.002405623)
(1.11396 0.005920826 0.003454935)
(0.797037 0.08302245 0.06485295)
(0.0003459427 -0.007132215 -0.000732795)
(0.0003282054 -0.003539053 -0.0006219787)
(0.0003204514 -0.003971733 -0.001336725)
(0.0002234536 -0.001140279 -0.0005562308)
(0.0003046797 -0.001225713 -0.001173294)
(0.0003029831 -0.001361728 -0.003511277)
(0.6460662 -0.1055289 -0.08605453)
(0.9839341 -0.009697694 -0.007118488)
(1.640213 -0.1681176 -0.2012029)
(0.9145638 0.0009600815 0.002521905)
(2.586478 -0.0154002 -0.02199156)
(2.36234 -0.1338861 -0.2136515)
(1.075366 -0.0003010658 -0.001646219)
(2.383317 0.0006618391 0.00493715)
(3.805611 -0.006532841 -0.02608922)
(2.773973 -0.0490419 -0.1657391)
(1.016871 -0.0001786531 0.0007832324)
(2.631409 0.0005446982 -0.003116403)
(3.373041 -0.001076988 0.004916352)
(4.455254 0.006923359 -0.02263726)
(2.913792 0.04838799 -0.08842956)
(0.9964942 0.0003236211 -0.0006399732)
(2.351878 -0.001117733 0.001238656)
(3.466615 0.001605704 -0.004195492)
(3.729069 -0.004261603 0.001562743)
(4.470603 0.01808569 -0.01147327)
(2.800742 0.1334749 0.002774441)
(0.8611728 -0.0002131918 0.000191453)
(2.09473 0.0008258469 -0.00146922)
(2.821936 -0.002056202 0.0005503233)
(3.47402 0.002059689 -0.004457339)
(3.394325 -0.007319267 -0.002196506)
(3.847114 0.02143337 0.001387132)
(2.411566 0.1901837 0.08531048)
(0.6689633 0.0002012754 -0.0002254634)
(1.512309 -0.0004621299 0.0001271022)
(2.096852 0.0008184378 -0.00185534)
(2.359165 -0.002113908 -0.0007145446)
(2.648699 0.001778752 -0.003781777)
(2.414985 -0.006922737 -0.004688863)
(2.638017 0.01770377 0.008712767)
(1.699409 0.1871482 0.1241971)
(0.3237246 -2.54545e-05 3.584442e-05)
(0.6691714 0.0002033709 -0.0002762661)
(0.862219 -0.0002481227 -9.40622e-05)
(0.9994588 0.0005386494 -0.001074952)
(1.023136 -0.0009405784 -0.001089378)
(1.087285 0.001340141 -0.002050124)
(0.9338606 -0.003131888 -0.004457103)
(1.014429 0.005796606 0.00385717)
(0.6840852 0.08399947 0.07140123)
(0.0003953137 -0.009357012 -0.001120789)
(0.0003702917 -0.006356519 -0.0006631477)
(0.0003474066 -0.00703523 -0.001441525)
(0.0002401257 -0.00330127 -0.0005722546)
(0.0003275492 -0.003555082 -0.001216791)
(0.0003175166 -0.003935892 -0.003588178)
(0.0003593854 -0.001056738 -0.0005179935)
(0.0002226269 -0.001143885 -0.001080566)
(0.0003005621 -0.001219532 -0.003209468)
(0.0002939416 -0.001332111 -0.001199996)
(0.36091 -0.05565817 -0.05574118)
(0.7747454 -0.009220215 -0.006822935)
(1.299603 -0.1779483 -0.1814705)
(0.805449 0.001660827 0.002476774)
(2.278005 -0.01962877 -0.0197702)
(2.117601 -0.1941225 -0.2071377)
(1.020442 -0.0008915254 -0.001653648)
(2.238879 0.001985848 0.004552732)
(3.585248 -0.01761565 -0.0256814)
(2.652157 -0.1378084 -0.1648485)
(1.016871 0.0001786531 0.0007832324)
(2.631409 -0.0005446982 -0.003116403)
(3.373041 0.001076988 0.004916352)
(4.455254 -0.006923359 -0.02263726)
(2.913792 -0.04838799 -0.08842956)
(1.050839 0.0001100636 -0.0006461614)
(2.503359 -0.0003986123 0.001252299)
(3.703226 0.0005457595 -0.004126327)
(4.000753 -0.001492148 0.002023982)
(4.769635 0.006755272 -0.01207396)
(2.932054 0.04758273 0.001046976)
(0.9768909 -0.0001415699 0.0001786207)
(2.424143 0.0005493312 -0.001575488)
(3.306476 -0.001509821 0.0005209692)
(4.086226 0.001274811 -0.004629623)
(4.017285 -0.005227587 -0.001996455)
(4.497775 0.01705836 0.001315966)
(2.706434 0.1320816 0.08650601)
(0.870247 0.000202846 -0.0002715972)
(2.055816 -0.0004907801 3.776997e-05)
(2.906447 0.0008118846 -0.002385106)
(3.313648 -0.00245259 -0.001062077)
(3.725097 0.001485336 -0.004680437)
(3.416634 -0.008192254 -0.005542242)
(3.661065 0.01969071 0.01097214)
(2.201728 0.1847134 0.1449999)
(0.6638189 -5.346753e-05 3.215509e-05)
(1.52764 0.0002948527 -0.00062619)
(2.05791 -0.0006233568 -0.0004313894)
(2.431515 0.0006727905 -0.00245837)
(2.520109 -0.002454268 -0.002484087)
(2.664173 0.001198902 -0.004157199)
(2.292173 -0.007641248 -0.00785244)
(2.363726 0.01384127 0.01078482)
(1.40171 0.1692126 0.1293538)
(0.3249082 5.67416e-05 -4.756002e-05)
(0.6640262 -5.224369e-05 -1.48619e-05)
(0.8712953 0.0002155571 -0.0005077505)
(0.9798159 -0.0002704555 -0.000529979)
(1.057179 0.0004880196 -0.001414527)
(1.028366 -0.001061911 -0.002256862)
(1.040504 0.001075775 -0.002813141)
(0.8356989 -0.003467305 -0.007119217)
(0.8251503 0.005844217 -0.0007779118)
(0.4342554 0.05718223 -0.003559938)
(0.0004486191 -0.01858708 -0.001494559)
(0.0004469474 -0.008333567 -0.0009969473)
(0.0003953836 -0.009157194 -0.002157684)
(0.0002708983 -0.005922884 -0.0006092819)
(0.000369614 -0.006276292 -0.00130378)
(0.0003440903 -0.006879022 -0.003737301)
(0.0003743782 -0.003059113 -0.0005325257)
(0.0002393435 -0.003317409 -0.001119798)
(0.0003231519 -0.003525277 -0.003270123)
(0.0003080186 -0.003876773 -0.001242639)
(0.0003569267 -0.0009946845 -0.0004862759)
(0.0003608022 -0.001060312 -0.001006295)
(0.0002193056 -0.001138466 -0.002955728)
(0.0002822953 -0.001195496 -0.001096316)
(0.0002952609 -0.001333084 -0.01200022)
(0.3929061 -0.003814724 -0.003701969)
(0.646286 -0.08569197 -0.1067799)
(0.6177841 0.001847688 0.002240553)
(1.71414 -0.01744357 -0.01722175)
(1.641618 -0.1958435 -0.177029)
(0.9015231 -0.001385777 -0.001647391)
(1.931193 0.003260517 0.00392213)
(3.10256 -0.02320858 -0.02423007)
(2.366633 -0.1974838 -0.1564478)
(0.9636543 0.0005134211 0.0007840605)
(2.475396 -0.001591177 -0.003178802)
(3.153137 0.003142702 0.004326408)
(4.182669 -0.01856981 -0.02191729)
(2.783669 -0.1356088 -0.08660123)
(1.050839 -0.0001100635 -0.0006461614)
(2.503359 0.0003986123 0.001252299)
(3.703226 -0.0005457595 -0.004126327)
(4.000753 0.001492148 0.002023982)
(4.769635 -0.006755272 -0.01207396)
(2.932054 -0.04758273 0.001046976)
(1.030584 -4.925173e-05 0.0001731401)
(2.578643 0.000188151 -0.001606951)
(3.536687 -0.0005478703 0.0005207742)
(4.377997 0.000418734 -0.004599453)
(4.315952 -0.001856978 -0.001773825)
(4.799442 0.006387704 0.001027853)
(2.831466 0.04690607 0.08507891)
(0.986728 0.0001335254 -0.000288584)
(2.381036 -0.0003489298 -2.474576e-05)
(3.401031 0.000526429 -0.002613327)
(3.907624 -0.001847688 -0.001202534)
(4.394947 0.0008061371 -0.004919918)
(4.044594 -0.005913036 -0.005717756)
(4.2677 0.01577098 0.01229927)
(2.463236 0.1267439 0.1475145)
(0.8639316 -5.11595e-05 1.133606e-05)
(2.075193 0.0002997405 -0.0008246522)
(2.85598 -0.0007047744 -0.0007165647)
(3.408287 0.0006080458 -0.003209931)
(3.557911 -0.002909124 -0.003177494)
(3.74844 0.0007952029 -0.004951671)
(3.229272 -0.008771094 -0.008947461)
(3.229194 0.01714842 0.01551403)
(1.792557 0.1597974 0.1464812)
(0.665882 9.653232e-05 -0.0001139511)
(1.5169 -0.0001581522 -0.0001485308)
(2.077288 0.0002498411 -0.001206951)
(2.388309 -0.0007956383 -0.001372055)
(2.595576 0.0003907018 -0.00316443)
(2.534998 -0.002981639 -0.004584044)
(2.531128 0.0003223566 -0.00488648)
(2.014495 -0.008495986 -0.01129544)
(1.848803 0.01088302 0.006412285)
(0.8132702 0.1109997 0.02225636)
(0.323621 1.267425e-05 -2.848425e-06)
(0.6660887 9.335217e-05 -0.0001665365)
(0.8649737 -6.32242e-05 -0.000230627)
(0.9896568 0.000198784 -0.0007946571)
(1.036839 -0.0003185495 -0.001128883)
(1.062501 0.0003739296 -0.001990605)
(0.9829254 -0.001315126 -0.003813745)
(0.9335075 0.0007329329 -0.004071425)
(0.6645166 -0.003368313 -0.01138256)
(0.4828713 -0.001954054 -0.02807633)
(0.002157209 -0.01366739 -0.0120347)
(0.0005285203 -0.01638413 -0.001337719)
(0.0004458548 -0.01459136 -0.002832847)
(0.0003253813 -0.007760499 -0.0009168848)
(0.0004439102 -0.008163129 -0.001919807)
(0.0003902892 -0.008901731 -0.004415529)
(0.0004014364 -0.005485861 -0.0005661663)
(0.000270172 -0.005850615 -0.001198238)
(0.0003646489 -0.006142397 -0.003386505)
(0.0003336705 -0.00669219 -0.001332129)
(0.0003693579 -0.002879481 -0.0004997241)
(0.0003758579 -0.003074788 -0.001042022)
(0.0002358554 -0.003290751 -0.003008842)
(0.000304193 -0.003480534 -0.001131233)
(0.0003093304 -0.00383857 -0.01212484)
(0.0004158731 -0.0009371242 -0.0004591172)
(0.0003587858 -0.000998235 -0.0009447862)
(0.0003580126 -0.00105554 -0.002752625)
(0.0002043292 -0.001117375 -0.001009884)
(0.0002901006 -0.001195423 -0.01097648)
(3.005294e-05 -0.0001452211 -0.004587324)
(0.2997533 0.001311545 0.001322677)
(0.774946 -0.006937433 -0.0088742)
(0.7769926 -0.08532397 -0.0937849)
(0.6948093 -0.001426026 -0.001502584)
(1.417601 0.003456464 0.003148823)
(2.279835 -0.01956252 -0.01973025)
(1.828181 -0.1942056 -0.1265197)
(0.8490546 0.0007655075 0.0007858869)
(2.141806 -0.002398148 -0.003172544)
(2.689464 0.004696934 0.003367697)
(3.591678 -0.02360741 -0.01973542)
(2.479145 -0.1939062 -0.07976441)
(0.9964942 -0.000323621 -0.0006399732)
(2.351878 0.001117733 0.001238656)
(3.466615 -0.001605704 -0.004195492)
(3.729069 0.004261603 0.001562743)
(4.470603 -0.01808569 -0.01147327)
(2.800742 -0.1334749 0.002774441)
(1.030584 4.925173e-05 0.0001731401)
(2.578643 -0.0001881509 -0.001606951)
(3.536687 0.0005478702 0.0005207742)
(4.377997 -0.000418734 -0.004599452)
(4.315952 0.001856978 -0.001773825)
(4.799442 -0.006387704 0.001027853)
(2.831466 -0.04690607 0.08507891)
(1.04073 4.546875e-05 -0.0002948362)
(2.533791 -0.0001249966 -5.174773e-05)
(3.63556 0.000177346 -0.002688605)
(4.191989 -0.0006788173 -0.001232544)
(4.715469 0.0002413059 -0.004926035)
(4.345697 -0.002115051 -0.005693914)
(4.548748 0.005951391 0.0122837)
(2.570549 0.04467757 0.1460595)
(0.9798399 -3.543963e-05 -1.553756e-06)
(2.402395 0.0001975949 -0.0009192788)
(3.344644 -0.0005246984 -0.0008794045)
(4.013992 0.0003541501 -0.003536841)
(4.208489 -0.002222051 -0.003415038)
(4.423521 0.0002865495 -0.005115669)
(3.813176 -0.006282769 -0.009202532)
(3.738161 0.01393893 0.01770481)
(1.989122 0.1071756 0.1482472)
(0.8663157 0.0001002455 -0.0001476119)
(2.061466 -0.0001752971 -0.0002694931)
(2.880872 0.0002337319 -0.001626311)
(3.351804 -0.0009440439 -0.00190661)
(3.656995 0.0002398199 -0.004047957)
(3.580415 -0.003531122 -0.005478949)
(3.546359 -6.710232e-05 -0.005220752)
(2.809786 -0.009056795 -0.01177015)
(2.465137 0.01497767 0.01349934)
(0.9962546 0.09885045 0.03315488)
(0.663572 2.469831e-05 -3.458835e-05)
(1.520811 0.0001148514 -0.0004170039)
(2.063548 -0.0002651543 -0.0006672345)
(2.409674 0.0001184232 -0.001884802)
(2.550501 -0.00106351 -0.002572397)
(2.610716 -0.0001033983 -0.00407625)
(2.4055 -0.003840469 -0.006893492)
(2.230118 -0.000970607 -0.005863511)
(1.542616 -0.008868263 -0.01426301)
(0.9917615 0.00425643 -0.01803551)
(0.003478507 0.0005215147 -0.008362098)
(0.3237776 2.905973e-05 -2.015121e-05)
(0.6637785 1.651562e-05 -8.646674e-05)
(0.8673533 9.650489e-05 -0.0003795143)
(0.98275 -8.227478e-05 -0.0005788964)
(1.046992 0.0001539512 -0.001198413)
(1.042078 -0.0004266786 -0.001965224)
(1.016108 0.000130475 -0.002951034)
(0.8796115 -0.001639899 -0.005704503)
(0.7452698 0.0006084563 -0.007460272)
(0.3753657 -0.007702892 -0.02882987)
(0.002491975 -0.01228601 -0.01050388)
(0.0005712794 -0.01123464 -0.01648289)
(0.0003846567 -0.01521899 -0.001232368)
(0.0005217176 -0.01291348 -0.002501767)
(0.0004390394 -0.01308659 -0.005074972)
(0.0004489832 -0.007184495 -0.0008497458)
(0.0003232552 -0.007605107 -0.001765731)
(0.0004362738 -0.007942157 -0.003954458)
(0.0003773356 -0.008608658 -0.001801424)
(0.0003915543 -0.005161598 -0.000530944)
(0.0004029963 -0.005420275 -0.00111338)
(0.000266339 -0.005728141 -0.003110427)
(0.0003443297 -0.005991595 -0.001204706)
(0.0003349867 -0.00657774 -0.01235535)
(0.0004270168 -0.002712769 -0.0004716362)
(0.0003712764 -0.002894764 -0.0009779626)
(0.0003729365 -0.00305079 -0.002800225)
(0.0002205046 -0.003252695 -0.001041233)
(0.0003119955 -0.003442468 -0.01106274)
(3.14793e-05 -0.000416568 -0.004627254)
(0.0004248012 -0.000889412 -0.0004353466)
(0.0004187679 -0.0009405974 -0.0008920517)
(0.0003564383 -0.0009939121 -0.002584322)
(0.0003457303 -0.001036594 -0.0009405248)
(0.0002111056 -0.001116642 -0.01011022)
(2.728243e-05 -0.0001308711 -0.004196024)
(2.653599e-05 -0.0001308436 -0.005435188)
(0.3404604 -0.0008448598 -0.0008339705)
(0.6180075 0.002257908 0.001780257)
(0.9848674 -0.007198389 -0.009282003)
(0.8419699 -0.0826651 -0.06274555)
(0.651632 0.0007676191 0.0007428002)
(1.580575 -0.002391426 -0.002801488)
(1.933334 0.004481797 0.002408322)
(2.592828 -0.02110893 -0.01642563)
(1.909522 -0.1904295 -0.06193008)
(0.8791863 -0.0004964925 -0.0006202132)
(2.029592 0.001577369 0.001212237)
(2.966264 -0.002451357 -0.004127397)
(3.160343 0.006122238 0.0008979979)
(3.825052 -0.02278964 -0.0100584)
(2.493215 -0.1912457 0.005427797)
(0.9768909 0.0001415699 0.0001786207)
(2.424143 -0.0005493311 -0.001575488)
(3.306476 0.001509821 0.0005209692)
(4.086226 -0.001274811 -0.004629623)
(4.017285 0.005227587 -0.001996455)
(4.497775 -0.01705836 0.001315966)
(2.706434 -0.1320816 0.08650601)
(1.04073 -4.546874e-05 -0.0002948362)
(2.533791 0.0001249964 -5.174782e-05)
(3.63556 -0.0001773459 -0.002688605)
(4.191989 0.0006788172 -0.001232544)
(4.715469 -0.0002413058 -0.004926035)
(4.345697 0.002115051 -0.005693914)
(4.548748 -0.005951391 0.0122837)
(2.570549 -0.04467757 0.1460595)
(1.033605 -1.287255e-05 -6.697794e-06)
(2.555966 6.700409e-05 -0.0009543377)
(3.576675 -0.0001920352 -0.0009453583)
(4.303456 0.0001109868 -0.003643838)
(4.52117 -0.0008212321 -0.003459582)
(4.746617 5.173108e-05 -0.005094788)
(4.092254 -0.00224662 -0.00922274)
(3.975111 0.005312784 0.01770994)
(2.058754 0.0376553 0.1480977)
(0.9823246 6.683981e-05 -0.0001624397)
(2.387153 -0.0001316143 -0.000339057)
(3.37229 0.0001387962 -0.001833384)
(3.950599 -0.0007261358 -0.00216869)
(4.320087 5.827308e-05 -0.004391079)
(4.236088 -0.002686557 -0.005685029)
(4.174445 -0.0002705216 -0.005071497)
(3.298813 -0.00630683 -0.01164672)
(2.820772 0.01186147 0.01536778)
(1.083896 0.06405794 0.0346076)
(0.863584 3.096266e-05 -6.039076e-05)
(2.066078 0.0001154007 -0.000575773)
(2.862996 -0.0003193345 -0.0009772018)
(3.379457 5.273763e-05 -0.0025175)
(3.597848 -0.001294742 -0.003322573)
(3.679874 -0.000341647 -0.004900541)
(3.383336 -0.004389344 -0.007604757)
(3.093845 -0.001107299 -0.005203013)
(2.111967 -0.00854645 -0.01226293)
(1.278958 0.006419627 -0.009085763)
(0.004112551 0.0004473707 -0.005909821)
(0.6637359 4.308793e-05 -6.20157e-05)
(1.516264 -6.818628e-06 -0.0002737285)
(2.06815 5.501364e-05 -0.0009387143)
(2.394384 -0.0004089193 -0.001439219)
(2.572688 -0.0001281091 -0.002702629)
(2.565418 -0.001531086 -0.004011782)
(2.478674 -0.0009448804 -0.005238185)
(2.114141 -0.005048496 -0.009040565)
(1.715575 -0.002329391 -0.007833126)
(0.8035516 -0.007394236 -0.02128674)
(0.004274334 -7.954896e-05 -0.007314668)
(0.0005857171 -0.002243187 -0.01191956)
(0.3233318 1.928956e-05 -1.08054e-05)
(0.663942 4.41114e-05 -0.0001041771)
(0.8646195 1.312531e-05 -0.0002882794)
(0.9852213 8.097386e-05 -0.00066895)
(1.039827 -0.000125756 -0.001063222)
(1.052248 5.123503e-05 -0.001818138)
(0.9961987 -0.0006569584 -0.003156573)
(0.9104254 -0.0001878204 -0.004306306)
(0.6994999 -0.001682406 -0.009089639)
(0.4243088 -0.004534183 -0.02565843)
(0.001884715 -0.01143054 -0.009717303)
(0.0007063101 -0.009987647 -0.01433485)
(0.000536489 -0.01027222 -0.01163643)
(0.0005009812 -0.01407859 -0.00113861)
(0.0003798944 -0.01200583 -0.00230029)
(0.0005115808 -0.01160106 -0.00449745)
(0.0004231751 -0.01169266 -0.002245396)
(0.0004305083 -0.00675914 -0.0007966523)
(0.0004493924 -0.007042712 -0.001636436)
(0.0003177368 -0.007402407 -0.00362706)
(0.0004121963 -0.007704504 -0.001605371)
(0.0003780352 -0.008437389 -0.01280251)
(0.000446558 -0.004861446 -0.0005007438)
(0.0003935489 -0.005100971 -0.001044265)
(0.0003998022 -0.005308129 -0.002891018)
(0.0002502753 -0.005594151 -0.001107234)
(0.0003521249 -0.005883578 -0.01121492)
(3.412293e-05 -0.0007141278 -0.004707961)
(0.0004346169 -0.002574656 -0.0004471078)
(0.0004299724 -0.002727556 -0.0009230093)
(0.0003688254 -0.002872687 -0.002627977)
(0.0003603893 -0.003017437 -0.0009689813)
(0.0002272155 -0.003215612 -0.01017938)
(2.952447e-05 -0.0003755745 -0.004222099)
(2.780155e-05 -0.000378871 -0.005483307)
(0.000452398 -0.0008455649 -0.0004142206)
(0.0004280661 -0.000892814 -0.0008459237)
(0.0004167117 -0.000936659 -0.002440045)
(0.0003460953 -0.0009765535 -0.0008831483)
(0.00034936 -0.001035767 -0.009417266)
(1.938501e-05 -0.0001225337 -0.003864869)
(2.284334e-05 -0.0001181949 -0.00497146)
(2.540949e-05 -0.0001306403 -0.005361667)
(0.3171735 0.000429016 0.0004410527)
(0.6950224 -0.001474157 -0.00152608)
(0.8065447 0.00252691 0.001371482)
(1.098258 -0.006769622 -0.006656261)
(0.8699759 -0.08112472 -0.02934678)
(0.6762263 -0.0005034422 -0.0005441514)
(1.491771 0.001475799 0.001118229)
(2.143971 -0.002473608 -0.003507912)
(2.246255 0.005404554 0.0003635559)
(2.742099 -0.02028099 -0.007961809)
(1.918895 -0.1883742 0.006689611)
(0.8611728 0.0002131918 0.000191453)
(2.09473 -0.000825847 -0.00146922)
(2.821936 0.002056202 0.0005503232)
(3.47402 -0.002059689 -0.004457339)
(3.394325 0.007319267 -0.002196506)
(3.847114 -0.02143337 0.001387132)
(2.411566 -0.1901837 0.08531048)
(0.986728 -0.0001335254 -0.000288584)
(2.381036 0.0003489298 -2.474583e-05)
(3.401031 -0.0005264289 -0.002613327)
(3.907624 0.001847688 -0.001202534)
(4.394947 -0.0008061371 -0.004919918)
(4.044594 0.005913036 -0.005717756)
(4.2677 -0.01577098 0.01229927)
(2.463236 -0.1267439 0.1475145)
(1.033605 1.287253e-05 -6.697825e-06)
(2.555966 -6.700404e-05 -0.0009543377)
(3.576675 0.0001920353 -0.0009453584)
(4.303456 -0.0001109866 -0.003643838)
(4.52117 0.000821232 -0.003459582)
(4.746617 -5.1731e-05 -0.005094788)
(4.092254 0.00224662 -0.00922274)
(3.975111 -0.005312784 0.01770994)
(2.058754 -0.0376553 0.1480977)
(1.036113 2.278142e-05 -0.0001682078)
(2.540086 -4.875712e-05 -0.0003673114)
(3.605471 4.373905e-05 -0.001912009)
(4.237122 -0.0002696263 -0.002263938)
(4.638249 -2.629017e-07 -0.004485649)
(4.551268 -0.0009899858 -0.005679698)
(4.473979 -0.0001361922 -0.004919918)
(3.531059 -0.00224352 -0.01150987)
(2.994259 0.004187467 0.01419269)
(1.117062 0.02204668 0.03467971)
(0.9794262 2.219578e-05 -7.3852e-05)
(2.391961 7.312748e-05 -0.0006571156)
(3.352267 -0.0002513827 -0.001143948)
(3.981427 -1.271627e-05 -0.002815021)
(4.253578 -0.001008962 -0.003622097)
(4.348143 -0.0003749864 -0.005105025)
(3.992772 -0.003243918 -0.007538126)
(3.620887 -0.0008118954 -0.004508)
(2.454866 -0.005637267 -0.01132798)
(1.438444 0.004881907 -0.007432039)
(0.004415634 0.0002844138 -0.005176115)
(0.8636764 4.345326e-05 -8.748133e-05)
(2.060543 -5.617774e-06 -0.000412105)
(2.868403 3.183705e-05 -0.001289745)
(3.359388 -0.000517892 -0.001965365)
(3.626657 -0.0002672613 -0.003476697)
(3.620414 -0.001844888 -0.00481433)
(3.479182 -0.001202041 -0.005664204)
(2.944353 -0.005363613 -0.008937071)
(2.336778 -0.001910223 -0.005087929)
(1.062017 -0.005686262 -0.01286543)
(0.005279067 2.70664e-06 -0.005146691)
(0.0005944561 -0.00115426 -0.008800485)
(0.6628574 3.034131e-05 -4.482387e-05)
(1.516292 2.23138e-05 -0.0002932284)
(2.06261 -7.828334e-05 -0.0007669404)
(2.399158 -6.639143e-05 -0.001600441)
(2.556703 -0.0006483431 -0.00241144)
(2.587652 -0.0005723085 -0.003715669)
(2.434756 -0.002328307 -0.005659603)
(2.181079 -0.002184675 -0.006487386)
(1.620229 -0.005992925 -0.01101757)
(0.8996868 -0.003111898 -0.01801415)
(0.003398296 -0.0001339653 -0.006748304)
(0.0007293713 -0.002149232 -0.01037758)
(0.0005483032 -0.002968467 -0.009725482)
(0.3231313 2.340783e-05 -1.529913e-05)
(0.6630627 2.753692e-05 -8.942804e-05)
(0.8647088 4.17418e-05 -0.000292997)
(0.9823158 -2.748787e-06 -0.0005845588)
(1.042308 4.052139e-05 -0.001070026)
(1.045046 -0.0002238157 -0.001760363)
(1.006101 -0.0001686297 -0.002781641)
(0.8918821 -0.0009555863 -0.004681886)
(0.7254466 -0.0002854034 -0.007366945)
(0.3959768 -0.005810758 -0.02472686)
(0.002151418 -0.0105576 -0.008982748)
(0.0005076006 -0.009285239 -0.01325418)
(0.00065978 -0.009152323 -0.01015894)
(0.0005036242 -0.009361196 -0.006522168)
(0.0004731395 -0.01323138 -0.001068212)
(0.0004988442 -0.0111094 -0.002127015)
(0.00037271 -0.0107923 -0.004116877)
(0.0004834059 -0.01041105 -0.001979817)
(0.0004234589 -0.01106901 -0.01332633)
(0.0004807726 -0.006364949 -0.0007503505)
(0.0004315757 -0.006627091 -0.001534353)
(0.0004447932 -0.006856979 -0.003364055)
(0.0002995446 -0.007190189 -0.001475196)
(0.0004190335 -0.007543463 -0.01152361)
(3.85894e-05 -0.0009150225 -0.004834315)
(0.0004516062 -0.004612822 -0.0004745031)
(0.0004495874 -0.004805095 -0.0009848749)
(0.0003908845 -0.004996442 -0.002711203)
(0.0003867589 -0.005187298 -0.001028921)
(0.0002568327 -0.005491073 -0.01029842)
(3.36908e-05 -0.0006422625 -0.004273794)
(3.014437e-05 -0.0006494579 -0.005579135)
(0.0004613668 -0.002447694 -0.000425312)
(0.0004379396 -0.002588993 -0.0008750686)
(0.0004278286 -0.002707136 -0.002480415)
(0.0003582827 -0.002842639 -0.0009095226)
(0.0003639165 -0.002982454 -0.009476005)
(2.106796e-05 -0.0003517078 -0.003884925)
(2.48371e-05 -0.0003425179 -0.005003089)
(2.663715e-05 -0.0003742986 -0.005408595)
(0.0004626389 -0.0008070712 -0.0003952279)
(0.000456202 -0.0008488786 -0.0008049005)
(0.0004262541 -0.000889175 -0.00231382)
(0.0004077238 -0.0009206064 -0.0008338996)
(0.0003486016 -0.000975616 -0.008842389)
(3.543602e-05 -0.0001138054 -0.003599978)
(1.59776e-05 -0.0001108176 -0.004579004)
(2.114428e-05 -0.0001182409 -0.004904278)
(2.458435e-05 -0.0001271935 -0.004835143)
(0.3303126 -0.0002993632 -0.0002879258)
(0.6518381 0.0007660653 0.0006873688)
(0.9026035 -0.001579105 -0.00177145)
(0.9175834 0.00261236 0.0003063641)
(1.150921 -0.00620485 -0.002736289)
(0.873039 -0.08060199 0.004132903)
(0.6615027 0.0002192272 0.0002002291)
(1.542873 -0.0008157476 -0.001193578)
(2.031689 0.001835011 0.0005957856)
(2.482922 -0.002203642 -0.00365088)
(2.400191 0.006221398 -0.001979727)
(2.756358 -0.01915926 0.001272055)
(1.858372 -0.1882692 0.07145254)
(0.870247 -0.000202846 -0.0002715972)
(2.055816 0.00049078 3.776977e-05)
(2.906447 -0.0008118844 -0.002385106)
(3.313648 0.00245259 -0.001062077)
(3.725097 -0.001485336 -0.004680437)
(3.416634 0.008192254 -0.005542242)
(3.661065 -0.01969071 0.01097214)
(2.201728 -0.1847134 0.1449999)
(0.9798399 3.543965e-05 -1.553795e-06)
(2.402395 -0.0001975948 -0.0009192788)
(3.344644 0.0005246984 -0.0008794045)
(4.013992 -0.00035415 -0.003536841)
(4.208489 0.002222051 -0.003415038)
(4.423521 -0.0002865496 -0.005115668)
(3.813176 0.006282769 -0.009202532)
(3.738161 -0.01393893 0.01770481)
(1.989122 -0.1071756 0.1482472)
(1.036113 -2.278129e-05 -0.0001682078)
(2.540086 4.875706e-05 -0.0003673113)
(3.605471 -4.373901e-05 -0.001912009)
(4.237122 0.0002696263 -0.002263937)
(4.638249 2.629737e-07 -0.004485649)
(4.551268 0.0009899856 -0.005679698)
(4.473979 0.0001361921 -0.004919919)
(3.531059 0.00224352 -0.01150987)
(2.994259 -0.004187467 0.01419269)
(1.117062 -0.02204668 0.03467971)
(1.033159 7.636487e-06 -7.915663e-05)
(2.544927 2.391453e-05 -0.0006888364)
(3.584533 -9.470306e-05 -0.001210189)
(4.269288 -1.439206e-05 -0.002921783)
(4.568589 -0.000376282 -0.003707515)
(4.66885 -0.0001573044 -0.005110565)
(4.28468 -0.001177941 -0.007383606)
(3.870411 -0.0002960922 -0.004154011)
(2.616335 -0.001994348 -0.01102961)
(1.512425 0.001656983 -0.006973154)
(0.004529583 9.5534e-05 -0.004854974)
(0.9794473 2.693701e-05 -9.90984e-05)
(2.386034 -6.980832e-06 -0.0004880263)
(3.357848 1.431014e-06 -0.001468551)
(3.958848 -0.0004178979 -0.002219884)
(4.285747 -0.0002689289 -0.003787113)
(4.281276 -0.001418888 -0.005010944)
(4.100597 -0.0009476223 -0.005514623)
(3.454795 -0.003742964 -0.008350931)
(2.707695 -0.001048177 -0.003781669)
(1.213695 -0.003232007 -0.01087316)
(0.00583728 1.331571e-05 -0.00447797)
(0.000595889 -0.0003619801 -0.007735125)
(0.8625481 3.228183e-05 -6.833995e-05)
(2.060316 1.315941e-05 -0.000422693)
(2.861605 -0.0001016898 -0.001089067)
(3.364937 -0.0001358166 -0.002146151)
(3.605598 -0.0008299018 -0.003108392)
(3.6493 -0.0007897425 -0.004460454)
(3.421709 -0.00265929 -0.006181105)
(3.031425 -0.00226854 -0.00602141)
(2.215672 -0.00572295 -0.008876385)
(1.184046 -0.001558215 -0.01009681)
(0.004310987 -4.722014e-05 -0.004726924)
(0.0007444564 -0.001124381 -0.007626197)
(0.0005563582 -0.001589967 -0.008385759)
(0.6624237 3.856669e-05 -5.165185e-05)
(1.514353 3.492661e-06 -0.0002642119)
(2.062376 -4.817111e-05 -0.0007559945)
(2.393213 -0.0001987496 -0.001434501)
(2.561469 -0.0002887442 -0.002406731)
(2.57157 -0.001072425 -0.003590786)
(2.456285 -0.001337038 -0.00494643)
(2.140778 -0.003477607 -0.007270524)
(1.674759 -0.003370923 -0.008250616)
(0.8450978 -0.005397779 -0.01794668)
(0.003832842 -0.0001030712 -0.006227812)
(0.0005333935 -0.002016047 -0.009570603)
(0.0006800109 -0.002778727 -0.008472234)
(0.0005186135 -0.003553814 -0.005274091)
(0.3227868 1.945155e-05 -1.165342e-05)
(0.6626285 3.493386e-05 -9.568622e-05)
(0.8635755 2.43514e-05 -0.0002726456)
(0.9823273 2.541776e-05 -0.0005694347)
(1.039337 -4.209056e-05 -0.0009934742)