/*--------------------------------*- C++ -*----------------------------------*\
| =========                 |                                                 |
| \\      /  F ield         | OpenFOAM: The Open Source CFD Toolbox           |
|  \\    /   O peration     | Version:  2306                                  |
|   \\  /    A nd           | Website:  www.openfoam.com                      |
|    \\/     M anipulation  |                                                 |
\*---------------------------------------------------------------------------*/
FoamFile
{
    version     2.0;
    format      ascii;
    arch        "LSB;label=32;scalar=64";
    class       volScalarField;
    location    "1.5/air";
    object      X.O2;
}
// * * * * * * * * * * * * * * * * * * * * * * * * * * * * * * * * * * * * * //

dimensions      [0 0 0 0 0 0 0];

internalField   nonuniform List<scalar> 
16000
(
0.2068806
0.2068898
0.2052067
0.2068369
0.2069012
0.2053048
0.2068519
0.2024108
0.2050791
0.2067307
0.2069103
0.2054358
0.2068687
0.2025178
0.205208
0.2067593
0.1996013
0.2022696
0.204754
0.2065256
0.2069152
0.20555
0.2068812
0.2026644
0.2053726
0.206791
0.1997058
0.2024084
0.2049205
0.2065783
0.1969061
0.1994616
0.2019194
0.2041704
0.2061571
0.2069152
0.205615
0.2068877
0.2027945
0.2055122
0.206814
0.1998491
0.2025902
0.2051315
0.2066388
0.1970053
0.1995964
0.2020949
0.2043709
0.206243
0.1943523
0.1967738
0.1991165
0.2013015
0.2032816
0.2055342
0.1701822
0.2069103
0.205615
0.2068877
0.2028694
0.2055904
0.2068258
0.1999767
0.2027476
0.2053092
0.2066841
0.1971412
0.1997733
0.2023219
0.2046285
0.2063502
0.1944455
0.1969015
0.1992854
0.2015093
0.20351
0.20565
0.1919361
0.1942274
0.1964469
0.1985112
0.2003705
0.2020486
0.2045568
0.1714159
0.1685805
0.1699873
0.2069012
0.20555
0.2068812
0.2028694
0.2055904
0.2068258
0.2000503
0.2028371
0.2054083
0.2067073
0.1972622
0.1999271
0.2025166
0.2048477
0.2064338
0.1945733
0.1970691
0.1995042
0.201779
0.2038063
0.2058043
0.1920241
0.1943475
0.1966065
0.1987086
0.2006039
0.2023093
0.2047084
0.1896443
0.1918184
0.1939191
0.1958747
0.1976056
0.1990937
0.2004212
0.2030902
0.1739088
0.1696818
0.1712165
0.1678512
0.1684028
0.1695984
0.2068898
0.2054358
0.2068687
0.2027945
0.2055122
0.206814
0.2000503
0.2028371
0.2054083
0.2067073
0.1973319
0.2000146
0.2026265
0.2049708
0.2064775
0.194687
0.1972145
0.1996922
0.2020105
0.2040633
0.2059368
0.1921446
0.1945049
0.1968128
0.1989649
0.2009094
0.2026494
0.2049194
0.1897275
0.1919318
0.194069
0.1960603
0.1978239
0.1993485
0.2007219
0.2033126
0.1874637
0.189533
0.191528
0.1933794
0.1950205
0.1963742
0.1974475
0.1983469
0.2009274
0.1777542
0.1719021
0.1736936
0.1688693
0.1695008
0.1708196
0.1672426
0.1676881
0.1680482
0.1690165
0.2068806
0.2053048
0.2068519
0.2026644
0.2053726
0.206791
0.1999767
0.2027476
0.2053092
0.2066841
0.1973319
0.2000146
0.2026265
0.2049708
0.2064775
0.1947526
0.1972972
0.1997986
0.2021412
0.2042093
0.2060113
0.1922518
0.1946415
0.1969898
0.1991852
0.2011731
0.2029422
0.205106
0.1898415
0.1920803
0.1942626
0.1963007
0.1981097
0.1996857
0.2011163
0.2036197
0.1875427
0.1896402
0.1916695
0.1935537
0.1952248
0.1966087
0.1977287
0.1987177
0.2013412
0.1853825
0.1873581
0.1892582
0.1910196
0.1925744
0.193862
0.1948023
0.1954094
0.1957525
0.1976793
0.1833158
0.1753113
0.1774789
0.1709211
0.1717085
0.1732704
0.1681902
0.1687033
0.1691402
0.1702282
0.1665707
0.167091
0.1673623
0.1675174
0.1682432
0.2052067
0.2068369
0.2025178
0.205208
0.2067593
0.1998491
0.2025902
0.2051315
0.2066388
0.1972622
0.1999271
0.2025166
0.2048477
0.2064338
0.1947526
0.1972972
0.1997986
0.2021412
0.2042093
0.2060113
0.1923136
0.1947193
0.1970899
0.1993099
0.2013224
0.2031078
0.2052129
0.1899428
0.192209
0.1944288
0.196507
0.1983566
0.1999782
0.201455
0.2038852
0.1876509
0.1897806
0.1918521
0.1937792
0.1954916
0.1969191
0.1981035
0.1991967
0.2018419
0.1854577
0.1874599
0.189392
0.1911841
0.1927661
0.1940808
0.1950579
0.1957467
0.1962939
0.1986645
0.1833905
0.1852819
0.1870974
0.188777
0.190261
0.1914831
0.1923865
0.1928757
0.1929332
0.1924798
0.1923895
0.1802019
0.1827471
0.1740698
0.1750686
0.1769664
0.1700993
0.170744
0.1713275
0.1726495
0.167459
0.168036
0.1683725
0.1686025
0.1694452
0.1657852
0.1664287
0.1667884
0.1668748
0.1668116
0.1671307
0.2024108
0.2050791
0.2067307
0.1997058
0.2024084
0.2049205
0.2065783
0.1971412
0.1997733
0.2023219
0.2046285
0.2063502
0.194687
0.1972145
0.1996922
0.2020105
0.2040633
0.2059368
0.1923136
0.1947193
0.1970899
0.1993099
0.2013224
0.2031078
0.2052129
0.1900013
0.1922823
0.1945228
0.1966236
0.1984968
0.2001442
0.2016462
0.2040351
0.1877471
0.1899024
0.1920088
0.1939727
0.1957216
0.1971891
0.198429
0.1996016
0.2022386
0.1855607
0.1875933
0.1895648
0.1913968
0.1930161
0.1943695
0.1953994
0.196189
0.1969356
0.1995473
0.1834624
0.1853789
0.1872245
0.1889327
0.190442
0.1916882
0.1926248
0.193182
0.1934248
0.1935123
0.1952062
0.1814799
0.1832946
0.1850337
0.1866407
0.1880587
0.1892322
0.1900938
0.1905812
0.1905565
0.1898834
0.1880549
0.1897481
0.1785821
0.179714
0.1818999
0.1730281
0.173848
0.174615
0.1762565
0.1692485
0.169935
0.1703951
0.1707673
0.1718401
0.166622
0.1673146
0.1677288
0.1678791
0.1678901
0.1683229
0.1649238
0.1656514
0.1661452
0.1663354
0.1662264
0.165796
0.1669016
0.1996013
0.2022696
0.204754
0.2065256
0.1970053
0.1995964
0.2020949
0.2043709
0.206243
0.1945733
0.1970691
0.1995042
0.201779
0.2038063
0.2058043
0.1922518
0.1946415
0.1969898
0.1991852
0.2011731
0.2029422
0.205106
0.1900013
0.1922823
0.1945228
0.1966236
0.1984968
0.2001442
0.2016462
0.2040351
0.1878026
0.1899717
0.1920973
0.194082
0.1958519
0.1973427
0.1986135
0.1998278
0.2024517
0.1856524
0.1877089
0.189713
0.1915792
0.1932316
0.19462
0.1956968
0.1965665
0.1974482
0.2001502
0.1835608
0.1855059
0.1873887
0.1891341
0.190678
0.1919589
0.1929422
0.1935848
0.1940119
0.194473
0.196702
0.1815487
0.1833872
0.1851548
0.1867888
0.1882303
0.1894263
0.1903175
0.1908673
0.1910072
0.1908307
0.1906404
0.1930582
0.1796436
0.1813882
0.1830576
0.1845987
0.1859588
0.1870843
0.1879218
0.1883946
0.1884098
0.1877183
0.1858166
0.1858299
0.1876956
0.177223
0.1781358
0.1789822
0.1809148
0.1719933
0.1728227
0.1734336
0.1739838
0.1753789
0.1683079
0.1690948
0.1696114
0.1698821
0.1700358
0.1706956
0.165716
0.166486
0.1670269
0.1672706
0.1672252
0.1668681
0.1680917
0.164004
0.1647971
0.1653841
0.1657207
0.1657328
0.1652931
0.1655867
0.1666705
0.1969061
0.1994616
0.2019194
0.2041704
0.2061571
0.1944455
0.1969015
0.1992854
0.2015093
0.20351
0.20565
0.1921446
0.1945049
0.1968128
0.1989649
0.2009094
0.2026494
0.2049194
0.1899428
0.192209
0.1944288
0.196507
0.1983566
0.1999782
0.201455
0.2038852
0.1878026
0.1899717
0.1920973
0.194082
0.1958519
0.1973427
0.1986135
0.1998278
0.2024517
0.1857052
0.1877746
0.1897968
0.1916822
0.1933537
0.1947622
0.1958658
0.196778
0.1977257
0.2004516
0.1836483
0.185616
0.1875294
0.1893067
0.1908813
0.1921937
0.1932179
0.1939294
0.1944835
0.1951547
0.197569
0.1816429
0.1835085
0.1853111
0.1869801
0.188454
0.1896821
0.1906154
0.1912424
0.1915462
0.1917136
0.1921021
0.1948705
0.1797096
0.1814768
0.1831734
0.1847399
0.1861221
0.1872684
0.1881338
0.1886637
0.1888318
0.1885957
0.1882013
0.1888342
0.1911566
0.1778756
0.1795556
0.1811614
0.1826424
0.1839491
0.1850332
0.1858424
0.1863178
0.1863512
0.1857529
0.1839443
0.1837748
0.1840904
0.1860174
0.1759236
0.1768097
0.1774673
0.1781249
0.1798593
0.1708934
0.1718012
0.1724388
0.172857
0.1732
0.1741922
0.1673118
0.1681631
0.1687919
0.1691356
0.1692121
0.1689996
0.17046
0.1647565
0.1655872
0.1662149
0.1665977
0.1666633
0.1662871
0.1666576
0.1678586
0.16305
0.1638836
0.1645441
0.164984
0.1651561
0.1648654
0.1651009
0.1653757
0.1664374
0.1943523
0.1967738
0.1991165
0.2013015
0.2032816
0.2055342
0.1920241
0.1943475
0.1966065
0.1987086
0.2006039
0.2023093
0.2047084
0.1898415
0.1920803
0.1942626
0.1963007
0.1981097
0.1996857
0.2011163
0.2036197
0.1877471
0.1899024
0.1920088
0.1939727
0.1957216
0.1971891
0.198429
0.1996016
0.2022386
0.1857052
0.1877746
0.1897968
0.1916822
0.1933537
0.1947622
0.1958658
0.196778
0.1977257
0.2004516
0.1836987
0.1856786
0.1876089
0.1894042
0.1909964
0.192327
0.1933743
0.1941229
0.1947394
0.1955035
0.1979753
0.1817266
0.1836136
0.1854452
0.1871441
0.1886466
0.1899037
0.1908741
0.1915626
0.1919794
0.1923413
0.1929895
0.1958937
0.1797999
0.1815929
0.1833227
0.1849223
0.1863349
0.1875111
0.1884157
0.1890165
0.1893354
0.1894126
0.1895512
0.1905574
0.1931745
0.177939
0.1796406
0.1812722
0.1827773
0.1841049
0.1852087
0.1860438
0.186573
0.1867488
0.1865752
0.1861603
0.1865488
0.1872266
0.1894924
0.1761707
0.1777911
0.1793382
0.1807639
0.1820219
0.1830669
0.183853
0.1843214
0.184387
0.1838507
0.1822198
0.1820506
0.1821821
0.1826574
0.1846017
0.174595
0.1755372
0.1761909
0.1766852
0.1771988
0.1785924
0.1697591
0.1707126
0.1714423
0.1719048
0.1721411
0.1721358
0.1739483
0.1662724
0.1671748
0.1678779
0.1683465
0.168514
0.1682629
0.1687863
0.1702226
0.163767
0.1646342
0.1653306
0.1658105
0.1660289
0.1657919
0.1660939
0.1664454
0.1676236
0.1620732
0.1629352
0.1636432
0.1641653
0.1644517
0.1643432
0.1646868
0.164907
0.165163
0.1662025
0.1919361
0.1942274
0.1964469
0.1985112
0.2003705
0.2020486
0.2045568
0.1897275
0.1919318
0.194069
0.1960603
0.1978239
0.1993485
0.2007219
0.2033126
0.1876509
0.1897806
0.1918521
0.1937792
0.1954916
0.1969191
0.1981035
0.1991967
0.2018419
0.1856524
0.1877089
0.189713
0.1915792
0.1932316
0.19462
0.1956968
0.1965665
0.1974482
0.2001502
0.1836987
0.1856786
0.1876089
0.1894042
0.1909964
0.192327
0.1933743
0.1941229
0.1947394
0.1955035
0.1979753
0.1817749
0.1836734
0.1855209
0.1872368
0.1887556
0.1900295
0.1910209
0.191742
0.1922145
0.1926628
0.1934171
0.196364
0.1798802
0.1816935
0.1834508
0.1850786
0.186518
0.1877214
0.1886603
0.1893175
0.1897394
0.1899932
0.1903717
0.1915696
0.1943167
0.1780257
0.179752
0.1814152
0.1829516
0.1843078
0.1854399
0.1863117
0.1869074
0.1872232
0.1873403
0.1874139
0.1881425
0.1891222
0.1916272
0.1762317
0.1778728
0.1794445
0.1808932
0.1821709
0.1832345
0.1840451
0.1845642
0.1847641
0.1846258
0.1842969
0.18463
0.1850813
0.1858121
0.1880488
0.1745244
0.1760894
0.1775822
0.1789571
0.18017
0.1811791
0.1819414
0.1824064
0.1824895
0.1820222
0.1805247
0.1804475
0.1805749
0.1808737
0.1814379
0.1832086
0.1732626
0.1742316
0.1749588
0.1754671
0.1758414
0.1760784
0.1783333
0.168597
0.1695881
0.1703748
0.1709428
0.1712416
0.1711691
0.1719171
0.173703
0.1652115
0.1661423
0.1669049
0.1674584
0.1677646
0.1676333
0.1680675
0.1685713
0.1699833
0.1627582
0.1636505
0.1643904
0.1649477
0.1652744
0.1652126
0.1656125
0.1658991
0.1662314
0.1673867
0.1610849
0.1619636
0.1627061
0.1632832
0.1636612
0.1636855
0.1641758
0.1645066
0.1647115
0.1649484
0.1659157
0.1896443
0.1918184
0.1939191
0.1958747
0.1976056
0.1990937
0.2004212
0.2030902
0.1875427
0.1896402
0.1916695
0.1935537
0.1952248
0.1966087
0.1977287
0.1987177
0.2013412
0.1855607
0.1875933
0.1895648
0.1913968
0.1930161
0.1943695
0.1953994
0.196189
0.1969356
0.1995473
0.1836483
0.185616
0.1875294
0.1893067
0.1908813
0.1921937
0.1932179
0.1939294
0.1944835
0.1951547
0.197569
0.1817749
0.1836734
0.1855209
0.1872368
0.1887556
0.1900295
0.1910209
0.191742
0.1922145
0.1926628
0.1934171
0.196364
0.1799265
0.1817507
0.1835231
0.1851668
0.1866217
0.1878407
0.188799
0.1894863
0.1899584
0.1902905
0.1907675
0.1920469
0.1948381
0.1781029
0.1798485
0.1815377
0.183101
0.1844825
0.1856401
0.1865441
0.1871925
0.1876038
0.1878833
0.1881755
0.1890799
0.1902317
0.1928482
0.1763152
0.1779797
0.1795817
0.1810601
0.182365
0.1834552
0.1843006
0.1848822
0.185214
0.1853472
0.185472
0.1861117
0.1868367
0.187809
0.1902339
0.1745831
0.176168
0.1776844
0.1790811
0.1803128
0.1813395
0.1821251
0.1826381
0.1828482
0.1827568
0.1824821
0.1828656
0.183272
0.1837935
0.1845782
0.1866206
0.1729326
0.174446
0.1758884
0.177216
0.1783873
0.1793629
0.1801034
0.1805613
0.1806628
0.1802445
0.178875
0.1788566
0.1790672
0.1793639
0.1797637
0.1802258
0.1829261
0.1719247
0.172919
0.1736875
0.1742823
0.1746865
0.1748219
0.1758491
0.1780739
0.1674264
0.1684347
0.1692686
0.1699047
0.1703226
0.1703412
0.1709694
0.171697
0.1734562
0.164138
0.1650875
0.1658859
0.166508
0.1669103
0.1669402
0.1674519
0.1678705
0.1683547
0.1697423
0.1617407
0.1626468
0.1634181
0.1640266
0.1644402
0.1645051
0.1650444
0.1654315
0.1657026
0.1660156
0.1670976
0.1600917
0.16098
0.1617446
0.162363
0.1628042
0.1629356
0.1635277
0.1640069
0.1643249
0.1645143
0.1646866
0.1656225
0.1874637
0.189533
0.191528
0.1933794
0.1950205
0.1963742
0.1974475
0.1983469
0.2009274
0.1854577
0.1874599
0.189392
0.1911841
0.1927661
0.1940808
0.1950579
0.1957467
0.1962939
0.1986645
0.1835608
0.1855059
0.1873887
0.1891341
0.190678
0.1919589
0.1929422
0.1935848
0.1940119
0.194473
0.196702
0.1817266
0.1836136
0.1854452
0.1871441
0.1886466
0.1899037
0.1908741
0.1915626
0.1919794
0.1923413
0.1929895
0.1958937
0.1799265
0.1817507
0.1835231
0.1851668
0.1866217
0.1878407
0.188799
0.1894863
0.1899584
0.1902905
0.1907675
0.1920469
0.1948381
0.1781474
0.1799034
0.181607
0.1831853
0.1845813
0.1857536
0.1866759
0.1873522
0.1878101
0.1881612
0.1885428
0.1895225
0.19075
0.1934048
0.1763894
0.1780725
0.1796992
0.1812032
0.1825321
0.1836463
0.1845221
0.1851533
0.1855747
0.1858591
0.1861855
0.186983
0.1878657
0.1889852
0.1914943
0.1746636
0.1762709
0.1778162
0.1792413
0.1804988
0.1815508
0.1823693
0.1829417
0.1832762
0.1834405
0.18359
0.1842549
0.1849054
0.1856451
0.1866237
0.188803
0.1729893
0.1745218
0.1759868
0.1773353
0.1785245
0.1795168
0.1802794
0.180783
0.1810052
0.180943
0.1807289
0.1811355
0.1815961
0.1820816
0.182674
0.1833508
0.1863309
0.1713917
0.172857
0.1742524
0.1755361
0.1766686
0.177613
0.1783325
0.1787836
0.1788971
0.1785247
0.1772558
0.1772969
0.1775579
0.1779352
0.1783377
0.1786649
0.1799799
0.1826454
0.1705972
0.1715986
0.1724045
0.1730512
0.1735529
0.1737438
0.1746133
0.1756195
0.177814
0.1662538
0.1672719
0.1681314
0.168824
0.1693209
0.1694805
0.1701561
0.1707684
0.1714756
0.173208
0.1630618
0.1640196
0.1648433
0.1655089
0.1659893
0.1661337
0.1667704
0.1672692
0.1676721
0.1681364
0.1694482
0.1607208
0.1616341
0.1624249
0.1630715
0.1635444
0.1637119
0.1643466
0.1648749
0.165249
0.1655046
0.1657524
0.166802
0.1590987
0.1599911
0.1607703
0.1614168
0.1619064
0.1621147
0.1627862
0.1633685
0.1638367
0.1641417
0.1642737
0.164419
0.1653998
0.1853825
0.1873581
0.1892582
0.1910196
0.1925744
0.193862
0.1948023
0.1954094
0.1957525
0.1976793
0.1834624
0.1853789
0.1872245
0.1889327
0.190442
0.1916882
0.1926248
0.193182
0.1934248
0.1935123
0.1952062
0.1816429
0.1835085
0.1853111
0.1869801
0.188454
0.1896821
0.1906154
0.1912424
0.1915462
0.1917136
0.1921021
0.1948705
0.1798802
0.1816935
0.1834508
0.1850786
0.186518
0.1877214
0.1886603
0.1893175
0.1897394
0.1899932
0.1903717
0.1915696
0.1943167
0.1781474
0.1799034
0.181607
0.1831853
0.1845813
0.1857536
0.1866759
0.1873522
0.1878101
0.1881612
0.1885428
0.1895225
0.19075
0.1934048
0.1764322
0.1781252
0.1797656
0.181284
0.1826266
0.1837547
0.1846477
0.1853052
0.18577
0.1861212
0.1865294
0.1873943
0.1883469
0.1895329
0.1920693
0.1747351
0.1763601
0.1779291
0.1793786
0.1806589
0.1817337
0.182581
0.1832003
0.1836194
0.1839256
0.1842628
0.1850716
0.1858627
0.1867375
0.1878363
0.190065
0.1730669
0.174621
0.1761136
0.1774893
0.1787031
0.1797194
0.1805133
0.1810733
0.1814137
0.1815933
0.1817785
0.1824453
0.1831279
0.1838056
0.1845732
0.1854048
0.1885123
0.1714465
0.1729301
0.1743471
0.1756508
0.1768005
0.1777608
0.1785014
0.1789962
0.1792246
0.179191
0.1790176
0.179455
0.1799413
0.1804839
0.181048
0.1815657
0.1831019
0.1860432
0.1698986
0.1713187
0.1726701
0.1739128
0.1750092
0.1759243
0.176624
0.1770678
0.1771914
0.1768554
0.1756773
0.1757572
0.1760685
0.176493
0.1769766
0.1773234
0.178442
0.1797355
0.1823665
0.1692826
0.1702867
0.1711103
0.1718028
0.172365
0.1726722
0.173551
0.1744044
0.1753895
0.1775538
0.1650874
0.1661063
0.166983
0.1677092
0.1682718
0.1685283
0.1693075
0.1699699
0.1705662
0.1712528
0.1729057
0.161988
0.1629484
0.1637864
0.1644841
0.1650162
0.1652543
0.1659738
0.1665994
0.1670851
0.1674721
0.1678701
0.1691476
0.1597031
0.1606185
0.1614216
0.1620937
0.1626119
0.1628524
0.1635619
0.1641869
0.164704
0.1650651
0.1652629
0.1654834
0.1665775
0.1581091
0.1590019
0.1597899
0.1604564
0.1609806
0.1612493
0.1619727
0.1626355
0.163208
0.163665
0.1639181
0.164028
0.164216
0.1652489
0.1833905
0.1852819
0.1870974
0.188777
0.190261
0.1914831
0.1923865
0.1928757
0.1929332
0.1924798
0.1923895
0.1815487
0.1833872
0.1851548
0.1867888
0.1882303
0.1894263
0.1903175
0.1908673
0.1910072
0.1908307
0.1906404
0.1930582
0.1797999
0.1815929
0.1833227
0.1849223
0.1863349
0.1875111
0.1884157
0.1890165
0.1893354
0.1894126
0.1895512
0.1905574
0.1931745
0.1781029
0.1798485
0.1815377
0.183101
0.1844825
0.1856401
0.1865441
0.1871925
0.1876038
0.1878833
0.1881755
0.1890799
0.1902317
0.1928482
0.1764322
0.1781252
0.1797656
0.181284
0.1826266
0.1837547
0.1846477
0.1853052
0.18577
0.1861212
0.1865294
0.1873943
0.1883469
0.1895329
0.1920693
0.1747763
0.1764109
0.177993
0.179456
0.1807495
0.1818375
0.182701
0.1833452
0.1838053
0.1841739
0.184587
0.185457
0.1863104
0.1872468
0.1884007
0.190641
0.1731359
0.1747069
0.1762223
0.1776212
0.1788567
0.1798949
0.1807161
0.1813207
0.1817411
0.1820548
0.182416
0.1832154
0.1840257
0.1848228
0.1857013
0.1866258
0.1897744
0.1715215
0.1730258
0.1744694
0.1757991
0.1769722
0.1779555
0.1787259
0.1792745
0.1796154
0.1798113
0.1800155
0.1806959
0.1813855
0.182101
0.1828175
0.1834765
0.1851572
0.1882231
0.1699516
0.1713893
0.1727616
0.1740235
0.1751362
0.1760666
0.1767865
0.1772719
0.1775054
0.1774924
0.1773568
0.1778082
0.1783257
0.1788954
0.1795189
0.1800266
0.1813409
0.1828545
0.1857574
0.1684502
0.169828
0.1711382
0.1723425
0.173405
0.1742928
0.1749735
0.1754098
0.1755413
0.1752373
0.1741356
0.1742496
0.174591
0.1750615
0.1755915
0.1760299
0.1771176
0.1782205
0.1794926
0.1820895
0.1679871
0.1689862
0.1698217
0.1705392
0.1711541
0.1715367
0.1724921
0.1733578
0.1741952
0.1751591
0.1772385
0.163931
0.1649462
0.1658304
0.166581
0.1671849
0.1675221
0.1683654
0.1691333
0.1697826
0.1703628
0.1709816
0.1725965
0.1609207
0.1618793
0.1627252
0.1634433
0.1640147
0.1643181
0.165103
0.1658127
0.166427
0.1668995
0.1672282
0.167598
0.1689191
0.1586909
0.1596048
0.1604147
0.1611045
0.1616546
0.1619524
0.1627098
0.1634106
0.1640258
0.1645317
0.1648406
0.1650161
0.1652792
0.1664253
0.1571257
0.158016
0.1588086
0.1594888
0.1600387
0.1603527
0.1611139
0.1618294
0.1624835
0.1630461
0.1634554
0.1636898
0.1638416
0.1640786
0.165172
0.1833158
0.1814799
0.1832946
0.1850337
0.1866407
0.1880587
0.1892322
0.1900938
0.1905812
0.1905565
0.1898834
0.1880549
0.1897481
0.1797096
0.1814768
0.1831734
0.1847399
0.1861221
0.1872684
0.1881338
0.1886637
0.1888318
0.1885957
0.1882013
0.1888342
0.1911566
0.1780257
0.179752
0.1814152
0.1829516
0.1843078
0.1854399
0.1863117
0.1869074
0.1872232
0.1873403
0.1874139
0.1881425
0.1891222
0.1916272
0.1763894
0.1780725
0.1796992
0.1812032
0.1825321
0.1836463
0.1845221
0.1851533
0.1855747
0.1858591
0.1861855
0.186983
0.1878657
0.1889852
0.1914943
0.1747763
0.1764109
0.177993
0.179456
0.1807495
0.1818375
0.182701
0.1833452
0.1838053
0.1841739
0.184587
0.185457
0.1863104
0.1872468
0.1884007
0.190641
0.1731757
0.1747558
0.1762837
0.1776957
0.1789437
0.1799944
0.180831
0.1814592
0.1819185
0.1822909
0.1827232
0.1835789
0.1844454
0.185297
0.1862271
0.1871943
0.1903503
0.1715882
0.1731088
0.1745742
0.1759261
0.17712
0.178124
0.1789205
0.1795115
0.1799285
0.1802515
0.1806217
0.1814256
0.1822321
0.1830552
0.1838686
0.1846147
0.1863796
0.1894847
0.1700241
0.1714818
0.1728796
0.1741664
0.1753016
0.1762539
0.1770023
0.1775391
0.17788
0.1780855
0.1783085
0.1789878
0.1796938
0.1804202
0.1811791
0.1818081
0.1832537
0.1849108
0.1879353
0.1685016
0.1698963
0.1712266
0.1724493
0.1735275
0.1744299
0.17513
0.1756061
0.1758428
0.1758476
0.1757407
0.1762048
0.1767362
0.1773368
0.1779883
0.1785663
0.1798195
0.1811176
0.1826087
0.1854735
0.167044
0.1683819
0.1696534
0.1708217
0.1718524
0.1727144
0.1733773
0.1738059
0.1739438
0.1736673
0.1726336
0.1727721
0.1731388
0.1736352
0.1742093
0.1747016
0.1758378
0.1769132
0.1780005
0.1792512
0.1817563
0.1667124
0.1677034
0.1685422
0.1692779
0.1699235
0.170371
0.1713673
0.1723116
0.1731644
0.1739856
0.1748798
0.1769159
0.1627878
0.1637956
0.1646822
0.1654465
0.1660816
0.1664731
0.167368
0.1682015
0.1689581
0.1695942
0.170115
0.1707043
0.1723616
0.1598626
0.1608163
0.1616651
0.1623967
0.1629949
0.1633496
0.1641744
0.1649505
0.1656503
0.1662533
0.1666732
0.166979
0.1673915
0.1687643
0.1576864
0.1585963
0.159409
0.1601105
0.1606841
0.1610246
0.1618166
0.1625661
0.1632581
0.1638634
0.1643214
0.1646114
0.1648288
0.1651409
0.1663477
0.1561503
0.157036
0.15783
0.1585193
0.1590881
0.1594375
0.1602234
0.1609774
0.161685
0.1623302
0.1628486
0.1632415
0.1635167
0.1637156
0.1640086
0.1777542
0.1802019
0.1827471
0.1796436
0.1813882
0.1830576
0.1845987
0.1859588
0.1870843
0.1879218
0.1883946
0.1884098
0.1877183
0.1858166
0.1858299
0.1876956
0.177939
0.1796406
0.1812722
0.1827773
0.1841049
0.1852087
0.1860438
0.186573
0.1867488
0.1865752
0.1861603
0.1865488
0.1872266
0.1894924
0.1763152
0.1779797
0.1795817
0.1810601
0.182365
0.1834552
0.1843006
0.1848822
0.185214
0.1853472
0.185472
0.1861117
0.1868367
0.187809
0.1902339
0.1747351
0.1763601
0.1779291
0.1793786
0.1806589
0.1817337
0.182581
0.1832003
0.1836194
0.1839256
0.1842628
0.1850716
0.1858627
0.1867375
0.1878363
0.190065
0.1731757
0.1747558
0.1762837
0.1776957
0.1789437
0.1799944
0.180831
0.1814592
0.1819185
0.1822909
0.1827232
0.1835789
0.1844454
0.185297
0.1862271
0.1871943
0.1903503
0.1716266
0.173156
0.1746334
0.1759978
0.1772036
0.1782196
0.1790308
0.1796443
0.1800982
0.1804768
0.1809139
0.18177
0.182628
0.1835001
0.1843585
0.1851455
0.1869488
0.1900605
0.1700886
0.171562
0.1729807
0.1742889
0.175444
0.1764161
0.1771894
0.1777667
0.1781802
0.1785066
0.1788866
0.1796817
0.180496
0.18132
0.1821654
0.1828695
0.1843937
0.1861343
0.1891962
0.1685718
0.1699858
0.1713406
0.1725873
0.1736871
0.1746104
0.1753378
0.1758631
0.1762025
0.176416
0.1766504
0.1773296
0.1780367
0.1787813
0.1795538
0.1802384
0.1816031
0.1830321
0.1846657
0.1876489
0.1670937
0.168448
0.1697389
0.1709249
0.1719708
0.1728467
0.1735281
0.173995
0.1742338
0.1742531
0.1741708
0.1746405
0.1751837
0.1757976
0.1764794
0.1770932
0.1783732
0.1796138
0.1808959
0.1823646
0.1851321
0.1656774
0.1669778
0.1682129
0.1693473
0.1703481
0.1711858
0.1718317
0.1722527
0.1723956
0.1721434
0.1711698
0.1713283
0.1717114
0.1722286
0.1728264
0.1733683
0.1745211
0.175647
0.1767101
0.1777818
0.1789608
0.1814156
0.1654604
0.1664405
0.1672786
0.1680231
0.1686916
0.1691803
0.1702109
0.1711976
0.1721309
0.1729706
0.1737315
0.1745943
0.1766707
0.1616594
0.1626577
0.1635425
0.1643148
0.1649697
0.1654037
0.1663268
0.167213
0.1680366
0.1687819
0.1693647
0.1698619
0.1704938
0.1722023
0.1588156
0.1597621
0.1606106
0.1613501
0.1619675
0.1623596
0.1632127
0.1640296
0.1647969
0.1654867
0.1660414
0.1664421
0.16679
0.1672516
0.1686853
0.1566913
0.1575952
0.1584078
0.1591167
0.1597073
0.1600809
0.1608948
0.1616797
0.1624212
0.1631044
0.1636652
0.1641067
0.1644376
0.1647022
0.1650705
0.155184
0.1560637
0.1568567
0.1575515
0.1581342
0.1585113
0.1593137
0.160093
0.1608398
0.1615394
0.1621432
0.162647
0.1630794
0.1633997
0.1636514
0.1739088
0.1753113
0.1774789
0.1785821
0.179714
0.1818999
0.1778756
0.1795556
0.1811614
0.1826424
0.1839491
0.1850332
0.1858424
0.1863178
0.1863512
0.1857529
0.1839443
0.1837748
0.1840904
0.1860174
0.1762317
0.1778728
0.1794445
0.1808932
0.1821709
0.1832345
0.1840451
0.1845642
0.1847641
0.1846258
0.1842969
0.18463
0.1850813
0.1858121
0.1880488
0.1746636
0.1762709
0.1778162
0.1792413
0.1804988
0.1815508
0.1823693
0.1829417
0.1832762
0.1834405
0.18359
0.1842549
0.1849054
0.1856451
0.1866237
0.188803
0.1731359
0.1747069
0.1762223
0.1776212
0.1788567
0.1798949
0.1807161
0.1813207
0.1817411
0.1820548
0.182416
0.1832154
0.1840257
0.1848228
0.1857013
0.1866258
0.1897744
0.1716266
0.173156
0.1746334
0.1759978
0.1772036
0.1782196
0.1790308
0.1796443
0.1800982
0.1804768
0.1809139
0.18177
0.182628
0.1835001
0.1843585
0.1851455
0.1869488
0.1900605
0.1701258
0.1716076
0.1730379
0.174358
0.1755245
0.176508
0.1772954
0.1778942
0.1783428
0.178722
0.1791653
0.1800092
0.1808711
0.1817396
0.1826251
0.1833646
0.1849254
0.1867041
0.1897716
0.1686342
0.1700633
0.1714383
0.1727055
0.1738243
0.1747666
0.1755179
0.176082
0.1764908
0.1768195
0.1772032
0.1779913
0.1787994
0.1796339
0.180484
0.1812347
0.1826664
0.1841737
0.18589
0.1889087
0.1671618
0.1685347
0.1698493
0.1710583
0.1721248
0.1730209
0.1737284
0.1742425
0.1745797
0.1747988
0.1750424
0.1757156
0.1764238
0.1771707
0.1779625
0.1786701
0.1800473
0.1813992
0.1828117
0.1844218
0.187304
0.1657256
0.1670419
0.1682957
0.1694472
0.1704626
0.1713137
0.1719773
0.1724351
0.1726749
0.1727067
0.1726449
0.1731177
0.1736655
0.1742899
0.1749839
0.1756337
0.1769117
0.1781813
0.1794095
0.1806757
0.182071
0.184783
0.1643482
0.1656131
0.166814
0.1679164
0.1688892
0.1697039
0.1703336
0.1707471
0.170894
0.1706632
0.1697436
0.1699179
0.170313
0.1708423
0.1714585
0.1720284
0.1731977
0.1743417
0.1754575
0.1765083
0.1775188
0.1786639
0.1811566
0.1642314
0.1651991
0.1660331
0.1667818
0.1674633
0.167984
0.1690283
0.1700504
0.1710276
0.1719499
0.1727357
0.1734719
0.1743774
0.1765044
0.1605472
0.1615343
0.1624146
0.1631902
0.1638584
0.1643223
0.1652643
0.1661796
0.167057
0.1678707
0.1685673
0.1691303
0.1696699
0.1703512
0.172121
0.157781
0.1587188
0.1595642
0.1603079
0.1609385
0.1613594
0.1622288
0.1630747
0.1638836
0.164642
0.1652871
0.1658251
0.1662668
0.1666621
0.1671803
0.1557067
0.1566033
0.1574136
0.1581265
0.1587292
0.1591287
0.1599567
0.160764
0.1615416
0.1622752
0.1629168
0.163463
0.163944
0.1643201
0.1646377
0.1542279
0.1551004
0.1558907
0.1565883
0.1571809
0.15758
0.1583925
0.1591888
0.1599614
0.160701
0.1613617
0.1619524
0.1624943
0.1629699
0.1633402
0.1714159
0.1719021
0.1736936
0.1740698
0.1750686
0.1769664
0.177223
0.1781358
0.1789822
0.1809148
0.1761707
0.1777911
0.1793382
0.1807639
0.1820219
0.1830669
0.183853
0.1843214
0.184387
0.1838507
0.1822198
0.1820506
0.1821821
0.1826574
0.1846017
0.1745831
0.176168
0.1776844
0.1790811
0.1803128
0.1813395
0.1821251
0.1826381
0.1828482
0.1827568
0.1824821
0.1828656
0.183272
0.1837935
0.1845782
0.1866206
0.1730669
0.174621
0.1761136
0.1774893
0.1787031
0.1797194
0.1805133
0.1810733
0.1814137
0.1815933
0.1817785
0.1824453
0.1831279
0.1838056
0.1845732
0.1854048
0.1885123
0.1715882
0.1731088
0.1745742
0.1759261
0.17712
0.178124
0.1789205
0.1795115
0.1799285
0.1802515
0.1806217
0.1814256
0.1822321
0.1830552
0.1838686
0.1846147
0.1863796
0.1894847
0.1701258
0.1716076
0.1730379
0.174358
0.1755245
0.176508
0.1772954
0.1778942
0.1783428
0.178722
0.1791653
0.1800092
0.1808711
0.1817396
0.1826251
0.1833646
0.1849254
0.1867041
0.1897716
0.1686702
0.1701074
0.1714935
0.1727722
0.173902
0.1748552
0.1756199
0.1762046
0.1766469
0.177026
0.1774697
0.1783036
0.179156
0.1800314
0.1809176
0.1816993
0.1831624
0.1847061
0.1864602
0.1894836
0.1672224
0.1686097
0.1699438
0.1711725
0.1722573
0.1731716
0.1739021
0.1744533
0.174857
0.1751862
0.175572
0.1763482
0.1771511
0.1779813
0.1788439
0.1796099
0.1810454
0.1824641
0.1839546
0.1856467
0.1885619
0.1657917
0.1671258
0.1684025
0.1695762
0.1706115
0.1714819
0.1721707
0.1726738
0.1730081
0.1732314
0.1734814
0.1741477
0.1748507
0.1755991
0.1763937
0.1771277
0.1784906
0.1798573
0.1811964
0.1825925
0.1841281
0.1869511
0.1643951
0.1656753
0.1668942
0.1680132
0.1689999
0.1698276
0.1704744
0.1709232
0.1711635
0.1712056
0.1711615
0.1716349
0.1721845
0.1728121
0.1735152
0.1741816
0.1754622
0.1767314
0.1779908
0.1792066
0.1804109
0.1817708
0.1845175
0.1630542
0.1642858
0.1654542
0.1665266
0.1674728
0.1682659
0.1688802
0.1692863
0.1694364
0.1692248
0.1683538
0.1685408
0.1689442
0.1694813
0.170107
0.1706989
0.1718666
0.1730282
0.1741636
0.1752692
0.1762656
0.1772501
0.1784385
0.180981
0.1630259
0.1639801
0.1648079
0.1655568
0.1662462
0.1667879
0.1678393
0.168876
0.1698897
0.1708573
0.1717305
0.1724957
0.173275
0.1742306
0.1764195
0.1594519
0.1604267
0.1613003
0.1620761
0.1627526
0.1632389
0.1641893
0.1651241
0.1660315
0.1669001
0.1676687
0.1683481
0.1689525
0.16954
0.1702786
0.1567595
0.1576876
0.1585281
0.159273
0.1599124
0.1603552
0.1612342
0.1620971
0.1629356
0.1637365
0.1644532
0.1650834
0.1656612
0.1661484
0.166597
0.1547334
0.1556217
0.156428
0.1571425
0.1577536
0.1581733
0.1590095
0.1598315
0.1606321
0.1614024
0.1620969
0.1627253
0.1633097
0.1638341
0.1642604
0.1532824
0.154147
0.1549332
0.1556317
0.1562311
0.1566475
0.1574658
0.1582727
0.1590629
0.1598288
0.1605316
0.1611803
0.1618078
0.1623912
0.1629143
0.1701822
0.1696818
0.1712165
0.1709211
0.1717085
0.1732704
0.1730281
0.173848
0.174615
0.1762565
0.1759236
0.1768097
0.1774673
0.1781249
0.1798593
0.1745244
0.1760894
0.1775822
0.1789571
0.18017
0.1811791
0.1819414
0.1824064
0.1824895
0.1820222
0.1805247
0.1804475
0.1805749
0.1808737
0.1814379
0.1832086
0.1729893
0.1745218
0.1759868
0.1773353
0.1785245
0.1795168
0.1802794
0.180783
0.1810052
0.180943
0.1807289
0.1811355
0.1815961
0.1820816
0.182674
0.1833508
0.1863309
0.1715215
0.1730258
0.1744694
0.1757991
0.1769722
0.1779555
0.1787259
0.1792745
0.1796154
0.1798113
0.1800155
0.1806959
0.1813855
0.182101
0.1828175
0.1834765
0.1851572
0.1882231
0.1700886
0.171562
0.1729807
0.1742889
0.175444
0.1764161
0.1771894
0.1777667
0.1781802
0.1785066
0.1788866
0.1796817
0.180496
0.18132
0.1821654
0.1828695
0.1843937
0.1861343
0.1891962
0.1686702
0.1701074
0.1714935
0.1727722
0.173902
0.1748552
0.1756199
0.1762046
0.1766469
0.177026
0.1774697
0.1783036
0.179156
0.1800314
0.1809176
0.1816993
0.1831624
0.1847061
0.1864602
0.1894836
0.1672572
0.1686524
0.1699972
0.171237
0.1723323
0.1732571
0.1740004
0.1745714
0.1750071
0.1753844
0.1758273
0.1766468
0.1774912
0.1783592
0.1792547
0.1800482
0.181511
0.1829609
0.1844877
0.1862172
0.189136
0.1658504
0.1671986
0.168494
0.1696867
0.1707396
0.1716275
0.1723383
0.1728771