/*--------------------------------*- C++ -*----------------------------------*\
| =========                 |                                                 |
| \\      /  F ield         | OpenFOAM: The Open Source CFD Toolbox           |
|  \\    /   O peration     | Version:  2306                                  |
|   \\  /    A nd           | Website:  www.openfoam.com                      |
|    \\/     M anipulation  |                                                 |
\*---------------------------------------------------------------------------*/
FoamFile
{
    version     2.0;
    format      ascii;
    arch        "LSB;label=32;scalar=64";
    class       volScalarField;
    location    "0.9";
    object      contErrCp;
}
// * * * * * * * * * * * * * * * * * * * * * * * * * * * * * * * * * * * * * //

dimensions      [1 -1 -3 -1 0 0 0];

internalField   nonuniform List<scalar> 
52000
(
0
0
0
0
0
0
0
0
0
0
0
0
0
0
0
0
0
0
0
0
0
0
0
0
0
0
0
0
0
0
0
0
0
0
0
0
0
0
0
0
0
0
0
0
0
0
0
0
0
0
0
0
0
0
0
0
0
0
0
0
0
0
0
0
0
0
0
0
0
0
0
0
0
0
0
0
0
0
0
0
0
0
0
0
0
0
0
0
0
0
0
0
0
0
0
0
0
0
0
0
0
0
0
0
0
0
0
0
0
0
0
0
0
0
0
0
0
0
0
0
0
0
0
0
0
0
0
0
0
0
0
0
0
0
0
0
0
0
0
0
0
0
0
0
0
0
0
0
0
0
0
0
0
0
0
0
0
0
0
0
0
0
0
0
0
0
0
0
0
0
0
0
0
0
0
0
0
0
0
0
0
0
0
0
0
0
0
0
0
0
0
0
0
0
0
0
0
0
0
0
0
0
0
0
0
0
0
0
0
0
0
0
0
0
0
0
0
0
0
0
0
0
0
0
0
0
0
0
0
0
0
0
0
0
0
0
0
0
0
0
0.000107336
0
0
0
0
0
0
0
0
0
0
0
0
0
0
0
0
0
0
0
0
0
0
0
0
0
0
0
0
0
0
0
0
0
0
0
0
0
0
0
0
0
0
0
0
0
0
0
0
0
0
0
0
0
0
0
0
0
0
0
0
0
0
0
0
0
0.0004481319
0
0
0
0
0
0.0001517056
-0.0004416548
0
0
0
0
0
0
0
0
0
0
0
0
0
0
0
0
0
0
0
0
0
0
0
0
0
0
0
0
0
0
0
0
0
0
0
0
0
0
0
0
0
0
0
0
0
0
0
0
0
0
0
0
0
0
0
0
0
0
0
0
0
0
0
0
0
0
0
0
0
0
-0.0001881244
0
0
0
0
0
-0.0001179397
-0.0008572088
0
0
0
0
0
-0.0001575277
0.0003482565
0.0006398447
0
0
0
0
0
0
0
0
0
0
0
0
0
0
0
0
0
0
0
0
0
0
0
0
0
0
0
0
0
0
0
0
0
0
0
0
0
0
0
0
0
0
0
0
0
0
0
0
0
0
0
0
0
0
0
0
0
0
0
0
0
0
0
0
0
0
0
0
0
0
0
0
0
0
0
0.0004107288
0
0
0
0
0
-0.0002330774
-6.737414e-05
0
0
0
0
0
0.0001444945
-0.001124758
4.383889e-06
0
0
0
0
0
5.978588e-05
0.0001186252
0.0004054435
0.0003024646
0
0
0
0
0
0
0
0
0
0
0
0
0
0
0
0
0
0
0
0
0
0
0
0
0
0
0
0
0
0
0
0
0
0
0
0
0
0
0
0
0
0
0
0
0
0
0
0
0
0
0
0
0
0
0
0
0
0
0
0
0
0
0
0
0
0
0
0
0
0
0
0
0
0
0
0
0
0
0
0
-0.0005174382
0
0
0
0
0
0.0005856344
0.0006420986
0
0
0
0
0
0.000722672
0.001299733
0.0007952123
0
0
0
0
0
0.0001378771
-0.0001466872
0.001644034
-0.001384975
0
0
0
0
0
-1.814808e-06
0.0005050011
-0.0001319937
-0.0002176753
0.0001481763
0
0
0
0
0
0
0
0
0
0
0
0
0
0
0
0
0
0
0
0
0
0
0
0
0
0
0
0
0
0
0
0
0
0
0
0
0
0
0
0
0
0
0
0
0
0
0
0
0
0
0
0
0
0
0
0
0
0
0
0
0
0
0
0
0
0
0
0
0
0
0
0
0
0
0
0
0
0
0
0
0
0
0
0
0
0.0001250463
0
0
0
0
0
-0.0006877665
-0.0001153524
0
0
0
0
0
-0.0005721315
-0.0005760917
-0.001784239
0
0
0
0
0
0.0001957313
-0.0007178822
-0.001423851
-0.0008651217
0
0
0
0
0
-0.0004505227
-0.001453079
0.0005129449
-0.001065091
0.00117695
0
0
0
0
0
-0.0001325497
0.0004095492
-0.0002357094
-0.0005622617
-8.694494e-05
-0.0007419378
0
0
0
0
0
0
0
0
0
0
0
0
0
0
0
0
0
0
0
0
0
0
0
0
0
0
0
0
0
0
0
0
0
0
0
0
0
0
0
0
0
0
0
0
0
0
0
0
0
0
0
0
0
0
0
0
0
0
0
0
0
0
0
0
0
0
0
0
0
-1.513555e-06
0
0
0
0
0
0
0
0
0
0
0
0
0
0
0
0
0
0
0
0
-0.0001319633
0
0
0
0
0
0.0001092696
0.000531538
0
0
0
0
0
-9.590414e-05
0.00123953
0.0008549144
0
0
0
0
0
-0.0004892253
-0.0001556341
-0.0004444674
0.002263795
0
0
0
0
0
-9.158623e-06
0.0001031496
-0.0002258401
0.001380081
0.002215846
0
0
0
0
0
-0.0001587005
0.0001287795
0.0003202582
0.001713994
0.0005083411
-0.0003193342
0
0
0
0
0
-0.0002937032
0.0004229881
-4.883135e-05
0.0002565955
0.0002343738
0.0003879653
-0.0001755974
0
0
0
0
0
0
0
0
0
0
0
0
0
0
0
0
0
0
0
0
0
0
0
0
0
0
0
0
0
0
0
0
0
0
0
0
0
0
0
0
0
0
0
0
0
0
0
0
0
0
0
0
0
0
0
0
0
2.628829e-06
0
0
0
0
0
0
0
0
0
0
0
0
0
0
0
-1.603285e-08
2.127269e-06
0
0
0
0
0
0
0
0
0
0
0
0
0
0
0
0
0
0
0
0
-0.0001497631
0
0
0
0
0
-0.0007675114
-4.292091e-05
0
0
0
0
0
3.666592e-05
-0.0003637202
-0.001604079
0
0
0
0
0
-0.0003059452
-0.0001640806
-3.799172e-05
-0.001061906
0
0
0
0
0
0.0002166897
0.001372997
0.0009805131
-0.000976297
-0.001844272
0
0
0
0
0
0.0001732566
0.0007160489
-0.0002568917
-0.0009507692
-0.0008553902
-0.001244902
0
0
0
0
0
-0.0003210282
0.0001966191
0.000920135
-0.0004832792
-0.001439187
-0.001017777
0.001930967
0
0
0
0
0
-1.784491e-05
-1.340726e-05
-0.0001422206
0.000316947
-0.000390587
-1.93373e-05
0.0001903433
5.185969e-05
0
0
0
0
0
0
0
0
0
0
0
0
0
0
0
0
0
0
0
0
0
0
0
0
0
0
0
0
0
0
0
0
0
0
0
0
0
0
0
0
0
0
0
0
8.129374e-07
0
0
0
0
0
0
0
0
0
0
0
0
0
0
0
-2.252834e-06
-8.749161e-06
0
0
0
0
0
0
0
0
0
0
0
0
0
0
0
7.156904e-07
-1.83739e-06
-5.766702e-06
0
0
0
0
0
0
0
0
0
0
0
0
0
0
0
0
0
0
0
0
0.0002151814
0
0
0
0
0
-5.794214e-05
-0.00110739
0
0
0
0
0
-0.0008058199
0.001218566
0.001689036
0
0
0
0
0
0.0009908635
0.0009409404
0.0006599765
0.0003013777
0
0
0
0
0
0.0002561103
-0.0001577317
0.0009752783
0.00106015
5.915938e-05
0
0
0
0
0
-0.0004577598
-0.0006388239
-0.0004181478
-0.001798803
0.00236811
-0.0007211362
0
0
0
0
0
0.000291679
-0.0005606686
-6.598921e-05
0.0008011709
0.001160346
-0.0008905824
0.0002782185
0
0
0
0
0
0.0001194883
0.001240567
-0.0001004982
-0.0003720534
-0.0001101456
0.0003094751
0.0006634691
-0.0001161944
0
0
0
0
0
0.0001630667
0.0002727694
0.0005365886
0.0001857595
-0.0003780571
0.0002301013
0.0008428853
-9.061297e-05
4.408513e-05
0
0
0
0
0
0
0
0
0
0
0
0
0
0
0
0
0
0
0
0
0
0
0
0
0
0
0
0
0
0
-2.315303e-07
0
0
0
0
0
0
0
0
0
0
0
0
0
0
0
1.046006e-07
-6.414276e-06
0
0
0
0
0
0
0
0
0
0
0
0
0
0
0
1.361225e-06
1.718189e-06
8.973275e-07
0
0
0
0
0
0
0
0
0
0
0
0
0
0
0
-1.213653e-07
-3.494968e-06
9.079873e-07
4.610454e-06
0
0
0
0
0
0
0
0
0
0
0
0
0
0
0
0
0
0
0
0
-0.0002458226
0
0
0
0
0
-0.0001137458
0.0006967281
0
0
0
0
0
0.0005492205
-0.0008077384
0.0007336161
0
0
0
0
0
-9.262706e-05
0.0007361865
0.0002232968
-0.001934765
0
0
0
0
0
0.0001161879
0.0003437167
-0.0001143451
0.0002962663
0.001775854
0
0
0
0
0
-0.0001796562
-0.000583989
-0.001316138
-0.0001742437
-0.001406248
0.0007603566
0
0
0
0
0
-0.0005030692
0.001968817
-0.0001936362
-0.0007522842
0.000386601
0.001450212
-0.0007971269
0
0
0
0
0
0.0004218545
0.0008452374
-0.0007193339
0.0008961014
2.546031e-05
-0.0006443357
-0.0006806539
0.001217552
0
0
0
0
0
-3.863798e-05
0.0006961862
-0.0006147899
-1.368082e-05
0.0001585156
0.0006785302
-0.0004842019
-0.0002923865
-0.001262414
0
0
0
0
0
-8.77844e-05
0.000256346
-0.0001736367
-0.0006158972
0.0003545006
-0.000796385
0.0002840303
-0.0004008145
0.0002755586
0.0001488183
0
0
0
0
0
0
0
0
0
0
0
0
0
0
0
-4.784669e-06
0
0
0
0
0
0
0
0
0
0
0
0
0
0
0
-1.823045e-06
-7.198938e-07
0
0
0
0
0
0
0
0
0
0
0
0
0
0
0
-3.518111e-06
-3.311262e-06
-6.09544e-06
0
0
0
0
0
0
0
0
0
0
0
0
0
0
0
1.780781e-06
-2.330895e-06
1.229816e-06
3.549767e-06
0
0
0
0
0
0
0
0
0
0
0
0
0
0
0
7.724721e-07
-3.510017e-06
-2.263181e-06
-1.661969e-06
-3.400661e-06
0
0
0
0
0
0
0
0
0
0
0
0
0
0
0
0
0
0
0
0
0
0
0
0
0
-3.689519e-06
1.523651e-05
0
0
0
0
0
0.0001864404
0.0007025662
0.0008358437
0
0
0
0
0
-0.0001621978
8.213606e-05
0.001269703
-0.0001920453
0
0
0
0
0
-0.0002462276
-0.0005561902
-0.0006661115
-0.0005634365
2.646866e-05
0
0
0
0
0
0.0003292062
0.0002409893
9.573562e-05
0.0007464391
0.0001947593
0.000357902
0
0
0
0
0
-0.0005274489
-0.001143955
-0.00023064
0.001879146
-0.000905996
0.0005942069
0.0001517001
0
0
0
0
0
-0.0002884948
0.0002329995
-0.0001917485
-0.000169507
0.0001673009
0.000303657
0.0004622102
-0.001299963
0
0
0
0
0
-6.154663e-05
-0.001887873
-0.001441036
0.0004552152
3.955274e-05
-8.645906e-05
0.0001429347
-0.0004895748
-0.0015692
0
0
0
0
0
0.0001404596
4.935048e-05
-3.256356e-05
0.0004620818
-8.927481e-06
0.001583071
2.367369e-05
0.0006773783
-0.0008437008
0.001147937
0
0
0
0
0
0.0001826678
-1.121005e-05
0.0006812287
0.000631947
0.0009972669
0.0002577867
0.0001079243
-0.0003365022
-7.339264e-05
-0.0003278997
-0.0002445688
0
0
0
0
0
0
0
0
0
0
0
0
0
0
0
-1.455343e-06
-1.652814e-06
0
0
0
0
0
0
0
0
0
0
0
0
0
0
0
-3.516812e-07
2.785438e-07
-1.866495e-06
0
0
0
0
0
0
0
0
0
0
0
0
0
0
0
-1.805507e-06
1.441801e-06
-5.097477e-06
6.518166e-07
0
0
0
0
0
0
0
0
0
0
0
0
0
0
0
5.558435e-08
2.889125e-06
4.306248e-07
3.355871e-06
-2.047827e-07
0
0
0
0
0
0
0
0
0
0
0
0
0
0
0
-1.087423e-06
-7.58556e-07
-8.065349e-07
-3.086522e-07
2.800823e-06
2.83286e-05
0
0
0
0
0
0
0
0
0
0
0
0
0
0
0
0
0
0
0
0
0
0
0
0
0
0
0
0
0
0
3.442586e-05
-0.0005983136
-0.0002187509
0
0
0
0
0
9.289168e-05
-0.001524229
0.0005388259
-0.002090553
0
0
0
0
0
0.0007672008
-0.0002883557
-4.690638e-05
-0.001088903
0.0007394618
0
0
0
0
0
2.495437e-05
-0.0001786936
-4.177954e-05
0.0002152954
-0.002134022
-0.0009684591
0
0
0
0
0
0.0005145301
0.0004353956
0.0007809124
-0.001317615
-0.0001799205
0.0004558831
-0.0007870228
0
0
0
0
0
0.0006737617
0.0007362731
0.0003065659
0.0002643119
-0.0002489361
0.001065422
-9.262933e-05
-0.0005140558
0
0
0
0
0
-0.0006191056
0.0006180629
0.0001414754
0.0004661476
0.0003213591
-0.0003469117
-0.0003971612
0.0004963833
0.001823605
0
0
0
0
0
-0.0006605716
0.0003877366
0.0008090617
0.0005922901
1.821113e-05
-0.0005695306
-0.001424848
-2.233137e-05
0.0006690543
0.0003766717
0
0
0
0
0
-0.0004504743
-0.0001900525
-0.001671245
-0.001888163
-0.0009798197
-0.0006837733
0.0002177807
-0.0004900989
0.0003211
-0.0004288477
-0.0007548284
0
0
0
0
0
5.177895e-05
0.0001269885
0.0003761358
-0.0007456498
-7.356802e-05
-0.0001179069
0.0006775201
0.0001961221
0.0003671958
-0.0003321929
0.0001401196
6.138151e-06
0
0
0
0
0
0
0
0
0
0
0
0
0
0
0
2.146344e-06
-5.671296e-06
4.095148e-06
0
0
0
0
0
0
0
0
0
0
0
0
0
0
0
-2.370118e-06
4.003438e-06
-3.386097e-07
-2.884823e-06
0
0
0
0
0
0
0
0
0
0
0
0
0
0
0
-6.469258e-07
-3.377899e-07
1.825761e-06
-2.500965e-06
5.525098e-06
0
0
0
0
0
0
0
0
0
0
0
0
0
0
0
-1.883115e-07
3.004936e-06
-1.509168e-06
3.25452e-06
2.526093e-06
1.459627e-05
0
0
0
0
0
0
0
0
0
0
0
0
0
0
0
4.616409e-07
-1.386706e-06
-1.776374e-06
-9.988423e-07
6.888077e-07
2.466759e-05
-1.322277e-05
0
0
0
0
0
0
0
0
0
0
0
0
0
0
0
0
0
0
0
0
0
0
0
0
0
0
0
0
0
0
0
0
0
0
0
5.765851e-05
-5.885008e-05
0.0001133184
0.0005265846
0
0
0
0
0
-0.0003531368
0.0005457907
0.00066143
-0.0007119855
0.00153962
0
0
0
0
0
-0.000165112
0.0001011469
0.0005848533
0.0003783589
2.96164e-05
-0.002108444
0
0
0
0
0
-0.0002236377
-0.0006524319
0.0004643019
0.0008409341
0.0003678239
0.0005559989
0.0004215129
0
0
0
0
0
-0.0009258364
-0.0001006164
-0.000675042
-0.0003277882
-0.0002632206
-0.001510757
0.0005756848
0.0006674799
0
0
0
0
0
0.001078402
-0.001365285
-0.0003215286
-0.0005761111
0.0004318232
-0.0003937268
0.0007396553
-0.001514382
0.001004313
0
0
0
0
0
0.0004112318
-0.000310467
0.0009068199
0.0005887538
-0.0004068036
0.0002510173
0.0006360013
-0.0002461283
-0.0003556476
-0.001376646
0
0
0
0
0
-0.0001379036
0.001648361
0.001822468
0.0003123346
-0.0004570218
0.001281386
-0.0008698219
-0.0004202863
0.0001083621
-8.039271e-05
-0.0001192294
0
0
0
0
0
-0.0007083406
0.0003588763
0.0001008434
0.0001141468
-0.0002430602
0.0005143725
-0.00148703
-0.001895613
-0.001008598
0.0004289601
0.0006732506
-1.633526e-06
0
0
0
0
0
-8.902672e-06
0.000154381
-0.0002795801
-0.0002880992
0.0004993552
6.530241e-05
-0.0002978786
0.0001723692
0.0003419322
-3.870069e-05
0.0001311632
1.221572e-06
-3.056602e-06
0
0
0
0
0
0
0
0
0
0
0
0
0
0
0
1.242128e-06
-4.656759e-07
-1.143498e-06
4.657569e-06
0
0
0
0
0
0
0
0
0
0
0
0
0
0
0
-1.395413e-06
2.263464e-06
4.338584e-07
9.228939e-07
5.253845e-06
0
0
0
0
0
0
0
0
0
0
0
0
0
0
0
-2.882037e-06
1.85761e-06
-1.954929e-07
2.016777e-06
-5.821595e-07
2.002838e-05
0
0
0
0
0
0
0
0
0
0
0
0
0
0
0
-2.753109e-06
1.892365e-07
-2.94804e-06
3.511625e-06
-1.093907e-06
6.675757e-07
1.368296e-05
0
0
0
0
0
0
0
0
0
0
0
0
0
0
0
3.742622e-07
4.802183e-07
-3.135632e-06
2.039622e-06
2.313546e-07
-1.284957e-06
-9.692159e-06
1.756739e-05
0
0
0
0
0
0
0
0
0
0
0
0
0
0
0
0
0
0
0
0
0
0
0
0
0
0
0
0
0
0
0
0
0
0
0
0
0
0
0
0
9.369559e-05
-0.0007891177
-0.0002204905
-0.0001335222
-0.0002556182
0
0
0
0
0
-8.654325e-05
7.025245e-05
-0.001208185
0.0008617684
0.001759525
0.0005695995
0
0
0
0
0
-6.3631e-05
0.001314802
-4.19228e-05
0.0003724675
0.0001374691
0.001455822
0.002367284
0
0
0
0
0
0.0005100882
-3.958225e-05
0.001563312
-0.0005682216
-0.0008172878
-0.0002693778
-0.001275063
0.0002291581
0
0
0
0
0
-0.0005168243
0.0006820346
-0.0007154234
0.001550471
-0.00127395
-0.0001230554
-0.0003667631
0.0001444232
-0.0002543777
0
0
0
0
0
0.0003893275
-0.0005727721
0.000232247
-5.922885e-05
-0.00134643
-0.0007517656
-0.0003904115
-0.001114286
0.001586789
0.0007080523
0
0
0
0
0
0.0001123762
-0.0001257976
0.0007883509
-0.0001112618
-0.001233804
0.0007022316
0.0008272317
0.001497906
0.001529607
0.0004867665
-9.431178e-05
0
0
0
0
0
0.0007203312
0.0003496342
-0.001014799
-0.0008966198
-0.0004607999
5.913581e-05
-0.0003566916
0.001319566
0.00132062
-0.0006926977
0.0002143759
-2.30859e-06
0
0
0
0
0
-8.61555e-05
0.001260166
0.0005847481
-7.618169e-05
0.0003233915
0.0003074719
0.0004905924
0.000508589
0.001010804
-0.0001029177
-8.675567e-05
-2.758464e-06
-1.590337e-06
0
0
0
0
0
-0.000284471
9.507619e-05
5.868817e-05
-0.0001316683
0.0001166902
0.0001617287
-0.0002143234
0.0005259247
-0.0005178571
0.0001653582
-0.000114866
2.659071e-06
-5.074846e-06
3.854146e-06
0
0
0
0
0
0
0
0
0
0
0
0
0
0
0
1.852747e-06
-7.807347e-07
1.072536e-06
-3.61717e-07
-6.171258e-07
0
0
0
0
0
0
0
0
0
0
0
0
0
0
0
-1.557505e-06
-4.767784e-07
-5.716048e-06
2.570015e-06
1.396019e-06
3.616348e-05
0
0
0
0
0
0
0
0
0
0
0
0
0
0
0
-2.996286e-07
1.862136e-06
2.647454e-06
3.405589e-06
1.515355e-06
-1.100032e-05
-1.464597e-05
0
0
0
0
0
0
0
0
0
0
0
0
0
0
0
1.368087e-06
-4.480787e-06
3.814819e-06
3.502202e-06
-2.27001e-06
-1.27519e-05
1.920663e-05
4.925072e-06
0
0
0
0
0
0
0
0
0
0
0
0
0
0
0
-8.763128e-07
-3.609089e-06
-7.909413e-07
1.260373e-06
1.141588e-06
4.111275e-06
9.158991e-06
2.098472e-06
-2.265725e-05
0
0
0
0
0
0
0
0
0
0
0
0
0
0
0
0
0
0
0
0
0
0
0
0
0
0
0
0
0
0
0
0
0
0
0
0
0
0
0
0
0
0
0
0
0
9.888346e-05
0.0001224092
0.00123136
-0.0003035734
6.423505e-05
0.0001093981
0
0
0
0
0
0.0001974484
-0.0003947542
-0.001238603
0.0006579867
-0.0002726965
-0.00133749
-0.001788986
0
0
0
0
0
-1.603358e-05
0.0003981985
-0.0009228954
4.655258e-05
0.0007922032
-4.618471e-05
-0.0003459478
-0.002167947
0
0
0
0
0
0.000179984
-5.788034e-05
-0.0004743909
-0.0008624075
0.001054516
0.001719584
0.0007668035
0.0005676538
-0.0002330838
0
0
0
0
0
0.0001206549
0.001393174
0.0008486287
0.0003383527
-0.000715942
0.002288068
-0.001549262
0.0007650104
-0.0008318587
-0.0004970915
0
0
0
0
0
3.244138e-06
0.0002854914
-0.001114173
-0.0001799135
0.0004150638
0.001162506
-0.0005187091
-0.000131453
-0.0002326853
-0.0006319974
-0.0001451178
0
0
0
0
0
0.0003808688
-0.0006101761
-0.001632807
-0.0008350589
-7.511585e-05
0.0005904081
0.0002090154
-0.00101072
-0.001046677
-0.000543573
0.0001815251
1.212354e-06
0
0
0
0
0
-0.0002956376
-0.001362951
-0.0009574608
0.0004023492
-0.0004139181
0.001877833
0.0005329387
4.598914e-06
-0.0001090991
-2.300054e-06
0.0002416043
-1.360053e-06
1.187863e-06
0
0
0
0
0
0.0007750345
-0.0008075634
-0.0004573203
-0.000392871
-0.0006110313
-0.0007719627
0.0001226139
-0.001371086
-0.000451622
-0.0006276404
0.0003518657
9.074887e-07
6.389929e-06
7.14907e-08
0
0
0
0
0
7.65145e-05
-0.000314735
0.0001415815
-0.000150467
-0.0002940877
0.000144417
5.516761e-05
-9.708885e-05
-0.0002321
-0.0001303839
-6.999291e-05
-5.567204e-07
-1.770689e-06
-5.517633e-07
-4.978778e-06
0
0
0
0
0
0
0
0
0
0
0
0
0
0
0
-7.231779e-07
1.906765e-07
1.74116e-06
-2.548227e-06
-2.909991e-07
9.332652e-06
0
0
0
0
0
0
0
0
0
0
0
0
0
0
0
2.37784e-07
9.70225e-07
-1.116117e-06
1.389841e-06
3.250892e-06
6.837806e-06
1.456577e-05
0
0
0
0
0
0
0
0
0
0
0
0
0
0
0
-6.801281e-07
3.266942e-06
-2.214394e-06
9.709077e-07
3.255679e-07
-5.463808e-06
6.264096e-06
2.233031e-05
0
0
0
0
0
0
0
0
0
0
0
0
0
0
0
-1.694086e-06
2.05454e-06
-1.296729e-06
-2.818745e-06
-2.252583e-06
-1.203126e-05
3.947012e-05
1.837568e-06
2.184518e-05
0
0
0
0
0
0
0
0
0
0
0
0
0
0
0
-1.628711e-06
1.104504e-07
-2.978906e-07
4.199771e-06
-5.231031e-07
6.39369e-06
5.562388e-06
1.46998e-05
7.219591e-06
5.002926e-06
0
0
0
0
0
0
0
0
0
0
0
0
0
0
0
0
0
0
0
0
0
0
0
0
0
0
0
0
0
0
0
0
0
0
0
0
0
0
0
0
0
0
0
0
0
0
0
0
0
0
0.0001701958
0.0001592513
-0.0002216792
-0.000500899
0.0003119593
0.0001034852
-0.0002075519
0
0
0
0
0
-0.000117684
-0.001057551
0.0008815104
0.000592857
-0.001723879
0.0005732571
3.423759e-05
0.001776772
0
0
0
0
0
-0.0004272108
-3.886113e-05
0.000978118
-0.000574899
-0.0005823314
-0.001304648
0.0002166061
0.0004327614
-0.0006077802
0
0
0
0
0
-0.0002245253
-0.0004357027
-0.001008885
0.0009863204
0.0004663182
-0.0001246338
0.001557155
-0.0006374689
-0.0002496801
-0.0002203567
0
0
0
0
0
-0.0004417975
-0.0007159411
-0.0007755887
-0.0004462556
0.0006245539
0.0005011088
-0.000141869
0.001525077
-0.001304501
0.0004678594
0.0003191695
0
0
0
0
0
0.0003561279
0.0007201876
0.0009363883
7.246789e-05
-0.0002940081
0.000129483
0.0002016874
-0.001785856
0.0006545724
0.001562732
0.0003130759
7.283252e-06
0
0
0
0
0
0.0005080174
-0.0005059322
0.0009755511
5.847696e-05
0.0008427713
-0.0007364501
-0.0007042225
-0.0004284899
-1.735024e-06
0.0009294615
-0.0001800781
-3.427109e-06
-6.358408e-06
0
0
0
0
0
-0.0006742844
0.0004802637
0.0004523854
0.0008170578
-0.00084931
0.0001301836
-0.0009855648
0.0008530026
0.001579747
0.0007888555
0.0003322399
-1.490609e-06
-2.778968e-06
-4.407773e-06
0
0
0
0
0
-0.0003013572
0.0001887341
0.0006532021
0.0008883204
0.001045008
0.0005545598
0.0002503337
0.0001658384
0.0005222294
0.001192222
-0.0003158934
1.413768e-06
2.343423e-06
-2.090862e-06
-3.805212e-06
0
0
0
0
0
0.0001290184
-1.636939e-05
0.0001553356
-0.0001636713
-8.245822e-05
0.0009811825
-0.0004099518
0.000332961
0.0004984484
-0.000212318
3.616316e-05
1.771098e-06
1.928076e-06
5.140539e-06
-5.850806e-06
-3.632975e-05
0
0
0
0
0
0
0
0
0
0
0
0
0
0
0
-1.364402e-06
1.416963e-06
8.609486e-07
-3.405781e-06
-1.522865e-06
2.627995e-06
1.971251e-05
0
0
0
0
0
0
0
0
0
0
0
0
0
0
0
-2.630709e-06
1.52405e-06
-2.130632e-06
-1.049907e-06
1.662783e-06
3.298631e-05
-4.579435e-06
-1.142378e-06
0
0
0
0
0
0
0
0
0
0
0
0
0
0
0
-2.15324e-06
-1.487505e-06
-4.543924e-06
3.714918e-07
2.666524e-06
-8.765275e-06
-2.022609e-06
-6.310724e-06
-1.805532e-05
0
0
0
0
0
0
0
0
0
0
0
0
0
0
0
6.740749e-07
9.105416e-07
2.519427e-06
-2.083209e-06
-1.737705e-06
5.853537e-06
1.375445e-05
-9.344558e-06
-1.294085e-05
-9.479796e-06
0
0
0
0
0
0
0
0
0
0
0
0
0
0
0
-3.494797e-07
7.578294e-08
-7.751332e-07
-2.716598e-06
-6.0162e-07
6.806408e-06
3.064661e-05
5.103775e-06
-7.80524e-06
-1.254786e-05
-78652.84
0
0
0
0
0
0
0
0
0
0
0
0
0
0
0
0
0
0
0
0
0
0
0
0
0
0
0
0
0
0
0
0
0
0
0
0
0
0
0
0
0
0
0
0
0
0
0
0
0
0
0
0
0
0
0
0.0001844759
0.0002857631
-0.0005737312
-0.0003123083
0.001096818
3.710237e-05
-0.000118509
-0.0002831927
0
0
0
0
0
-0.0006039911
0.0004618779
0.0005938343
-2.10982e-05
0.0008128406
-0.0006757804
-0.0006022086
-4.435997e-05
-0.0003613874
0
0
0
0
0
-0.0002167617
-0.000206385
0.00119058
0.0001052345
0.000133317
-0.0004672441
-0.001007573
0.0002309235
-0.0001078905
0.001063848
0
0
0
0
0
0.000502983
0.0008302842
8.32095e-05
-0.0004509238
-0.003297879
-0.0007751093
-0.00076152
-0.001264905
0.0002458879
-0.0001006475
6.97017e-06
0
0
0
0
0
-0.0006985765
-0.0006032443
-0.001012367
0.0006876857
0.0003254821
-0.0006434708
-0.0009238503
6.119518e-05
-0.001883342
-0.0001780468
-0.0001627997
3.008964e-06
0
0
0
0
0
0.0002074466
-0.00110386
-0.001054192
0.0007313968
0.001105856
0.0008713391
0.0005550408
-0.0001569708
0.001801385
-0.000741027
-0.0003597433
2.393582e-06
-3.19574e-08
0
0
0
0
0
0.001052941
-0.0005634416
0.0008036787
-0.001912344
0.0001866253
1.332462e-05
0.0001201597
-0.0004480603
-4.385412e-05
-0.001503607
-0.0002774418
1.433069e-06
2.045038e-06
-3.662329e-07
0
0
0
0
0
8.710404e-05
0.0006402205
-6.836163e-05
-0.0004766613
0.0007326251
1.277186e-05
0.0004631996
-0.0009398815
-0.001549834
-0.001343662
-0.0001716527
5.927081e-07
2.926895e-07
-3.761953e-06
4.063089e-06
0
0
0
0
0
-0.0001457789
-0.0002546161
-0.001585926
-0.0007407186
0.0006508104
-0.002479889
0.0004224118
-0.0001118875
0.0001016151
-0.0001450622
-0.0004660778
9.513499e-07
-3.549169e-06
-9.197413e-07
5.016927e-06
-3.264246e-05
0
0
0
0
0
0.00019673
-0.0005036143
-0.0001720619
-0.000226395
-0.0002764996
-0.0001954591
-0.0004600395
1.605573e-06
-0.0004703823
-0.0001981323
3.165285e-05
4.109066e-06
-1.497854e-06
3.004107e-06
-3.499191e-06
-5.293609e-05
4.646932e-07
0
0
0
0
0
0
0
0
0
0
0
0
0
0
0
3.488181e-08
-2.552512e-06
-1.720453e-06
-1.766919e-06
-2.556418e-06
1.772679e-05
6.631268e-06
2.478916e-06
0
0
0
0
0
0
0
0
0
0
0
0
0
0
0
-1.927499e-06
3.862342e-07
3.621479e-06
-9.185424e-08
2.970852e-06
1.720981e-05
-3.550929e-06
5.838957e-06
-1.852581e-05
0
0
0
0
0
0
0
0
0
0
0
0
0
0
0
-1.561621e-06
4.336216e-06
1.172664e-06
1.410655e-06
2.465717e-06
-1.208964e-05
-6.933211e-06
1.821385e-05
1.734492e-05
2.030161e-05
0
0
0
0
0
0
0
0
0
0
0
0
0
0
0
1.296292e-06
5.227e-06
-3.355465e-06
-2.452196e-07
-2.932497e-06
9.705984e-06
-1.778678e-05
-4.470866e-06
-2.808222e-05
1.154314e-05
-79352.09
0
0
0
0
0
0
0
0
0
0
0
0
0
0
0
1.909404e-08
-2.443522e-07
-7.170676e-07
-1.163785e-07
1.31786e-07
1.133963e-05
3.293238e-06
-1.191167e-05
5.580138e-06
-1.470483e-06
-72090.73
-79216.09
0
0
0
0
0
0
0
0
0
0
0
0
0
0
0
0
0
0
0
0
0
0
0
0
0
0
0
0
0
0
0
0
0
0
0
0
0
0
0
0
0
0
0
0
0
0
0
0
0
0
0
0
0
0
0
0
0
0
0
0
1.021279e-06
-0.0002640135
-0.0008544402
0.0003894434
9.134379e-05
-0.0004835588
0.0003321722
0.0002943528
-0.000256163
0
0
0
0
0
3.519494e-05
0.0009129555
-6.258919e-05
0.00060654
0.0009176026
-0.0005901768
0.00108117
6.833487e-05
0.0002484783
0.0001756945
0
0
0
0
0
-0.0007455297
-0.0002573489
8.717964e-05
-0.001742443
0.0002029427
0.0007905793
0.001111751
0.0008785394
0.00104552
-0.0002865979
-0.0004717221
0
0
0
0
0
-0.0002721953
0.0002199213
0.001179236
0.0003663174
0.0002876394
0.002774883
0.0003618796
0.0001919502
0.0006219721
0.0002472397
0.0001229274
-1.948313e-06
0
0
0
0
0
-0.0002796865
0.0009803999
0.001255006
0.001016562
-0.001453431
-0.0009173117
-0.0005245078
-0.0006173375
2.423666e-05
-0.0001596838
0.0001929016
-6.179418e-07
1.741404e-06
0
0
0
0
0
-0.0006617572
0.0007603307
-0.0002998648
0.002500257
-0.000604884
5.105957e-05
-0.000110319
-0.000686729
-0.001925046
9.527693e-05
9.023591e-05
8.132628e-07
6.111214e-07
6.980933e-07
0
0
0
0
0
0.0006378836
-0.001062378
-0.001187616
-0.0009433165
-0.0005559967
-7.681894e-05
0.0008885828
0.0001497626
0.002876236
-0.000780298
0.0006008892
2.024074e-06
4.450257e-06
-6.962576e-07
-2.397948e-06
0
0
0
0
0
0.0002116179
0.0006865055
0.00163058
-0.0002988012
-0.001393703
-0.0007020437
0.0003784082
-0.001420785
-0.0001154583
0.0005833339
0.0004702179
-4.47657e-06
-1.030862e-06
-5.927245e-06
-2.44047e-06
-3.056825e-06
0
0
0
0
0
-0.0005440095
0.001496263
-9.248946e-05
0.0006331499
0.0007303429
-0.001231718
0.001695433
-0.001002364
0.0002149176
-0.0003316119
-2.733537e-05
1.932902e-06
-1.538997e-06
-1.672104e-06
7.832033e-06
6.117319e-06
2.529862e-05
0
0
0
0
0
-0.0002735214
0.0004768059
-3.479995e-05
0.0005496372
0.0007952496
7.092833e-05
-0.0003641522
-0.0003051347
0.000525049
3.403998e-05
9.072516e-05
2.440353e-06
-2.499467e-06
1.636538e-06
1.66086e-06
-1.68186e-05
3.645444e-05
4.590114e-05
0
0
0
0
0
0
0
0
0
0
0
0
0
0
0
3.9646e-06
3.880878e-06
-3.290498e-06
-1.229406e-06
-3.261598e-06
-1.028775e-05
-4.110603e-06
4.536543e-05
1.578578e-05
0
0
0
0
0
0
0
0
0
0
0
0
0
0
0
-1.065492e-06
-1.002833e-06
3.883393e-07
1.954309e-08
2.583716e-06
5.092966e-06
7.948218e-06
-1.45024e-05
-2.238191e-05
-1.519971e-05
0
0
0
0
0
0
0
0
0
0
0
0
0
0
0
4.46647e-07
2.185454e-06
-2.030957e-07
-7.866459e-07
-1.448925e-06
-1.068625e-05
6.431191e-06
3.928192e-05
-2.038363e-05
-1.173184e-06
-80762.42
0
0
0
0
0
0
0
0
0
0
0
0
0
0
0
-5.020724e-08
-2.729071e-06
2.542849e-06
5.387547e-07
1.795944e-07
-1.333397e-06
-8.055021e-06
2.839386e-05
-4.774114e-06
2.422373e-05
-72542.6
-79926.44
0
0
0
0
0
0
0
0
0
0
0
0
0
0
0
-2.521533e-07
-4.029016e-06
-2.006769e-06
-3.179547e-08
2.189886e-06
-6.541556e-06
3.235557e-06
2.668429e-06
-5.701608e-06
-1.012608e-05
-66586.97
-72584.6
-80712.04
0
0
0
0
0
0
0
0
0
0
0
0
0
0
0
0
0
0
0
0
0
0
0
0
0
0
0
0
0
0
0
0
0
0
0
0
0
0
0
0
0
0
0
0
0
0
0
0
0
0
0
0
0
0
0
0
0
0
0
0
0
0
0
0
0
9.830594e-05
0.0002766284
9.98557e-05
0.0003945872
-0.0004634455
-1.671114e-05
0.0006160567
-0.0006164887
-0.0002169726
9.086749e-05
0
0
0
0
0
0.0006428624
-0.00142062
-0.0005967946
-8.909463e-05
-1.798695e-05
9.729008e-05
0.0002511155
-0.0002360985
0.0004005777
-0.0002419756
0.0001575528
0
0
0
0
0
0.0002842736
0.0007287475
-0.001133686
-0.0002601148
-0.0009988064
-0.001447472
-0.001245512
-0.0003367007
0.0003865484
-0.001143231
8.212057e-05
6.445514e-06
0
0
0
0
0
-4.111903e-05
-0.0007033754
-0.0008065081
-0.001165482
-0.0008281152
0.001071051
0.001126135
-0.0001464674
0.0004079131
-0.0005880446
0.0001534692
-1.850446e-06
3.678432e-07
0
0
0
0
0
-0.0003197872
-0.0003058175
0.001125213
-0.0006147946
0.0004906758
-0.0004372045
-0.001020025
0.001308886
0.002122938
-0.0001114146
0.0003518477
-1.906271e-06
-7.679648e-07
-1.025362e-07
0
0
0
0
0
0.0003282544
0.001109286
0.0003397487
-0.0003549433
-4.460046e-05
5.97715e-05
-0.00179473
0.000195225
-0.0006131138
0.00216031
5.650663e-05
2.328306e-06
-4.315447e-06
-1.014718e-06
4.156936e-06
0
0
0
0
0
-0.0005732194
-0.001606471
-0.001353132
0.0007559092
0.0006234704
0.0002865496
0.001075229
0.0009182885
0.0007985827
-0.001499462
-0.0001120567
3.187944e-06
-2.220989e-06
3.086633e-06
-3.007901e-06
1.227748e-06
0
0
0
0
0
0.0006950565
-0.0005219218
-0.0004089566
-0.001068985
-0.0002709796
0.001841712
-0.0002347622
0.0009926532
0.000766223
0.0003926924
-0.0001579454
-4.555949e-07
2.421194e-07
2.157437e-06
-2.384263e-06
4.659487e-05
7.019946e-05
0
0
0
0
0
0.0002732355
-0.0004468164
-0.002231791
-0.001536332
-0.001308364
-0.0009491597
0.002027108
-0.0003416301
2.574852e-05
0.0005791873
0.0001952859
2.283057e-06
-3.634762e-06
-3.37501e-06
-1.431106e-06
9.599815e-06
-6.53445e-06
3.769931e-07
0
0
0
0
0
-0.0002843877
0.001319162
0.0002038278
0.0007517318
-0.0005047662
1.752512e-05
-0.0003130841
0.0001363782
0.0001047846
-0.0007106104
1.582248e-05
3.912129e-07
3.917153e-06
2.038378e-06
1.08626e-06
6.366212e-06
2.350487e-06
2.025256e-05
7.188392e-06
0
0
0
0
0
0
0
0
0
0
0
0
0
0
0
2.994928e-06
-1.922152e-06
1.224059e-06
-3.297834e-06
-3.610138e-06
-8.400962e-07
5.129241e-06
2.927405e-05
-4.579161e-07
-8.059248e-06
0
0
0
0
0
0
0
0
0
0
0
0
0
0
0
6.136752e-07
1.025675e-06
1.326338e-06
-1.441074e-06
6.743488e-06
3.951617e-06
1.577246e-05
-1.886159e-05
-1.013527e-05
6.671179e-06
-82870.74
0
0
0
0
0
0
0
0
0
0
0
0
0
0
0
-1.567345e-06
-3.908479e-07
-4.655465e-07
5.102675e-06
3.506231e-06
-3.920125e-05
-1.3249e-07
1.051166e-05
-1.664447e-05
2.159554e-05
-73430.98
-81358.96
0
0
0
0
0
0
0
0
0
0
0
0
0
0
0
-1.6895e-06
-3.715979e-06
-6.59667e-07
1.364217e-06
-3.204107e-06
-6.935678e-06
9.5651e-06
2.250975e-05
-1.751146e-05
5.211714e-06
-66932.1
-73043.94
-81449.17
0
0
0
0
0
0
0
0
0
0
0
0
0
0
0
-4.05137e-07
-1.047512e-06
1.154395e-06
3.837365e-06
1.985915e-07
1.710408e-06
1.072453e-05
-9.133953e-06
1.338749e-06
2.251762e-06
-62190.83
-67028.97
-73883.57
-83185.07
0
0
0
0
0
0
0
0
0
0
0
0
0
0
0
0
0
0
0
0
0
0
0
0
0
0
0
0
0
0
0
0
0
0
0
0
0
0
0
0
0
0
0
0
0
0
0
0
0
0
0
0
0
0
0
0
0
0
0
0
0
0
0
0
0
0
0
0
0
0
6.313794e-05
0.0003244467
7.958502e-05
1.944679e-05
-0.0008816557
-0.0002936032
0.0001987309
-0.000229858
-2.947976e-05
0.0005662994
-3.591186e-05
0
0
0
0
0
-0.0001259344
-0.001451471
0.002496595
0.00031986
0.002410265
-0.000770118
-0.001462877
-0.0007329569
-0.0002176755
0.0002775857
0.0002795836
-1.188427e-07
0
0
0
0
0
-0.0001225038
0.001450645
0.0003467907
0.000482142
0.002417851
0.001479784
0.0009091634
0.0004772228
0.0006730912
0.0001698051
2.696951e-05
-7.353027e-07
-2.266883e-07
0
0
0
0
0
-0.0002680816
0.001371583
0.001031949
0.0001732716
-0.001101939
0.0007483478
0.001007675
-0.002245963
-0.001258443
0.0004125765
0.000103572
-1.042141e-06
1.442077e-06
-2.256405e-06
0
0
0
0
0
8.241026e-05
-6.514825e-06
-6.491123e-06
0.0002828857
-0.0001937385
-0.0002802374
0.00205452
-0.0005874295
-0.001086965
-0.001375821
0.0002015132
2.437071e-06
1.834609e-06
-4.610268e-06
1.071998e-06
0
0
0
0
0
0.0003411558
0.0005237581
-0.0003287441
-0.000979466
0.0001020046
0.0002653314
0.0008578513
-0.0002415175
-0.000840287
0.0006756858
-0.0005132537
3.33913e-07
-2.447881e-06
9.377655e-07
5.445465e-06
-1.64582e-05
0
0
0
0
0
-0.0002992028
0.0009417374
0.0006018116
0.001460867
-6.848999e-05
-0.001310676
0.0005421188
-0.0009750597
-0.0003257034
0.0006832772
0.0002653318
-5.353966e-07
-3.854063e-06
3.978991e-06
2.668054e-06
-2.639592e-05
6.165286e-06
0
0
0
0
0
0.0003739036
0.0001369832
0.001395054
2.438463e-05
-0.0002222704
0.0003581346
-0.00186001
0.0004887862
0.0001914235
2.192203e-05
-6.505006e-05
1.521545e-07
-2.866394e-06
-1.340869e-06
1.00077e-06
1.904691e-06
-1.791988e-05
-2.617219e-05
0
0
0
0
0
3.242263e-05
-0.001620373
-0.0002590773
0.001403806
0.0006521703
0.0004890141
0.001467767
0.0002590369
-0.0005131785
0.000497523
-0.000132085
2.308106e-06
-4.287365e-06
-4.073699e-06
1.62559e-07
6.441226e-06
3.271888e-05
2.81146e-05
7.147916e-06
0
0
0
0
0
-0.0001102406
0.0007338835
-0.001001886
-0.0004027311
-0.001335177
0.0005544807
-0.0002939629
0.000622268
0.0004210431
0.0002234446
5.070901e-05
-3.243277e-07
-7.939324e-07
2.134926e-06
-1.527822e-08
-4.779825e-05
-6.464137e-06
1.199351e-05
-8.770253e-06
-8.205637e-07
0
0
0
0
0
0
0
0
0
0
0
0
0
0
0
4.218947e-07
-2.685644e-06
2.526627e-06
-2.403261e-06
-5.331122e-06
-1.130217e-05
-1.183198e-06
1.543281e-05
-1.916513e-05
-2.667506e-05
-85578.23
0
0
0
0
0
0
0
0
0
0
0
0
0
0
0
-2.282371e-06
-3.050797e-06
3.250106e-06
-5.270696e-06
4.383576e-07
2.833561e-05
1.32227e-05
3.719739e-06
1.482762e-05
1.581169e-05
-74692.48
-83499.28
0
0
0
0
0
0
0
0
0
0
0
0
0
0
0
2.870749e-08
-1.786815e-06
1.781766e-06
-1.189964e-06
2.332652e-06
-3.936157e-06
3.403245e-05
7.219506e-06
-4.449975e-06
3.90537e-06
-67603.31
-73947.24
-82935.88
0
0
0
0
0
0
0
0
0
0
0
0
0
0
0
-5.975514e-07
-3.158227e-06
1.500555e-06
-4.469493e-08