/*--------------------------------*- C++ -*----------------------------------*\
| =========                 |                                                 |
| \\      /  F ield         | OpenFOAM: The Open Source CFD Toolbox           |
|  \\    /   O peration     | Version:  2306                                  |
|   \\  /    A nd           | Website:  www.openfoam.com                      |
|    \\/     M anipulation  |                                                 |
\*---------------------------------------------------------------------------*/
FoamFile
{
    version     2.0;
    format      ascii;
    arch        "LSB;label=32;scalar=64";
    class       volScalarField;
    location    "0.9";
    object      k;
}
// * * * * * * * * * * * * * * * * * * * * * * * * * * * * * * * * * * * * * //

dimensions      [1 1 -3 -1 0 0 0];

internalField   nonuniform List<scalar> 
52000
(
20
20
20
20
20
20
20
20
20
20
20
20
20
20
20
20
20
20
20
20
20
20
20
20
20
20
20
20
20
20
20
20
20
20
20
20
20
20
20
20
20
20
20
20
20
20
20
20
20
20
20
20
20
20
20
20
20
20
20
20
20
20
20
20
20
20
20
20
20
20
20
20
20
20
20
20
20
20
20
20
20
20
20
20
20
20
20
20
20
20
20
20
20
20
20
20
20
20
20
20
20
20
20
20
20
20
20
20
20
20
20
20
20
20
20
20
20
20
20
20
20
20
20
20
20
20
20
20
20
20
20
20
20
20
20
20
20
20
20
20
20
20
20
20
20
20
20
20
20
20
20
20
20
20
20
20
20
20
20
20
20
20
20
20
20
20
20
20
20
20
20
20
20
20
20
20
20
20
20
20
20
20
20
20
20
20
20
20
20
20
20
20
20
20
20
20
20
20
20
20
20
20
20
20
20
20
20
20
20
20
20
20
20
20
20
20
20
20
20
20
20
20
20
20
20
20
20
20
20
20
20
20
20
20
20
20
20
20
20
20
0.08435899
20
20
20
20
20
20
20
20
20
20
20
20
20
20
20
20
20
20
20
20
20
20
20
20
20
20
20
20
20
20
20
20
20
20
20
20
20
20
20
20
20
20
20
20
20
20
20
20
20
20
20
20
20
20
20
20
20
20
20
20
20
20
20
20
20
0.08367974
20
20
20
20
20
0.08515532
0.0836681
20
20
20
20
20
20
20
20
20
20
20
20
20
20
20
20
20
20
20
20
20
20
20
20
20
20
20
20
20
20
20
20
20
20
20
20
20
20
20
20
20
20
20
20
20
20
20
20
20
20
20
20
20
20
20
20
20
20
20
20
20
20
20
20
20
20
20
20
20
20
0.08330138
20
20
20
20
20
0.08499452
0.08200398
20
20
20
20
20
0.08536858
0.08499331
0.08327999
20
20
20
20
20
20
20
20
20
20
20
20
20
20
20
20
20
20
20
20
20
20
20
20
20
20
20
20
20
20
20
20
20
20
20
20
20
20
20
20
20
20
20
20
20
20
20
20
20
20
20
20
20
20
20
20
20
20
20
20
20
20
20
20
20
20
20
20
20
20
20
20
20
20
20
0.08308538
20
20
20
20
20
0.08485505
0.08095685
20
20
20
20
20
0.08530627
0.08451883
0.08094032
20
20
20
20
20
0.08554324
0.08531087
0.08485379
0.08305279
20
20
20
20
20
20
20
20
20
20
20
20
20
20
20
20
20
20
20
20
20
20
20
20
20
20
20
20
20
20
20
20
20
20
20
20
20
20
20
20
20
20
20
20
20
20
20
20
20
20
20
20
20
20
20
20
20
20
20
20
20
20
20
20
20
20
20
20
20
20
20
20
20
20
20
20
20
20
20
20
0.08298486
20
20
20
20
20
0.0847524
0.08032496
20
20
20
20
20
0.08525017
0.08410145
0.07935392
20
20
20
20
20
0.08551459
0.08512943
0.08409773
0.0802805
20
20
20
20
20
0.08569829
0.08552121
0.0852604
0.08475139
0.08293773
20
20
20
20
20
20
20
20
20
20
20
20
20
20
20
20
20
20
20
20
20
20
20
20
20
20
20
20
20
20
20
20
20
20
20
20
20
20
20
20
20
20
20
20
20
20
20
20
20
20
20
20
20
20
20
20
20
20
20
20
20
20
20
20
20
20
20
20
20
20
20
20
20
20
20
20
20
20
20
20
20
20
20
20
20
0.08298486
20
20
20
20
20
0.084698
0.08002434
20
20
20
20
20
0.08520721
0.08379156
0.07835048
20
20
20
20
20
0.08548935
0.08496365
0.08342014
0.07831171
20
20
20
20
20
0.08568245
0.08544173
0.08496886
0.08377988
0.07993583
20
20
20
20
20
0.08583942
0.08568937
0.08550347
0.08522462
0.08469766
0.08291851
20
20
20
20
20
20
20
20
20
20
20
20
20
20
20
20
20
20
20
20
20
20
20
20
20
20
20
20
20
20
20
20
20
20
20
20
20
20
20
20
20
20
20
20
20
20
20
20
20
20
20
20
20
20
20
20
20
20
20
20
20
20
20
20
20
20
20
20
20
0.3597807
20
20
20
20
20
20
20
20
20
20
20
20
20
20
20
20
20
20
20
20
0.08308538
20
20
20
20
20
0.084698
0.08002434
20
20
20
20
20
0.08518383
0.08362657
0.07786032
20
20
20
20
20
0.08547019
0.08483554
0.08290996
0.07702596
20
20
20
20
20
0.08566899
0.08537009
0.08469809
0.08289655
0.07775158
20
20
20
20
20
0.08582884
0.08564833
0.08537844
0.08484678
0.08360263
0.07987334
20
20
20
20
20
0.0859694
0.08583544
0.08568366
0.08549377
0.08521056
0.08470002
0.08299454
20
20
20
20
20
20
20
20
20
20
20
20
20
20
20
20
20
20
20
20
20
20
20
20
20
20
20
20
20
20
20
20
20
20
20
20
20
20
20
20
20
20
20
20
20
20
20
20
20
20
20
20
20
20
20
20
20
0.3597715
20
20
20
20
20
20
20
20
20
20
20
20
20
20
20
0.3598967
0.3598492
20
20
20
20
20
20
20
20
20
20
20
20
20
20
20
20
20
20
20
20
0.08330138
20
20
20
20
20
0.0847524
0.08032496
20
20
20
20
20
0.08518383
0.08362657
0.07786032
20
20
20
20
20
0.08545979
0.08476548
0.08263622
0.07638608
20
20
20
20
20
0.08565902
0.08531507
0.08448626
0.08222339
0.0762998
20
20
20
20
20
0.08582015
0.08561239
0.08526361
0.08449123
0.08259863
0.07764631
20
20
20
20
20
0.08596113
0.0858098
0.08562137
0.08533457
0.08478469
0.08358905
0.0800918
20
20
20
20
20
0.08609
0.08596724
0.08583417
0.08568345
0.08549549
0.08522319
0.08476121
0.08317965
20
20
20
20
20
20
20
20
20
20
20
20
20
20
20
20
20
20
20
20
20
20
20
20
20
20
20
20
20
20
20
20
20
20
20
20
20
20
20
20
20
20
20
20
0.3597523
20
20
20
20
20
20
20
20
20
20
20
20
20
20
20
0.3598906
0.3598388
20
20
20
20
20
20
20
20
20
20
20
20
20
20
20
0.3600055
0.3599594
0.3599193
20
20
20
20
20
20
20
20
20
20
20
20
20
20
20
20
20
20
20
20
0.08367974
20
20
20
20
20
0.08485505
0.08095685
20
20
20
20
20
0.08520721
0.08379156
0.07835048
20
20
20
20
20
0.08545979
0.08476548
0.08263622
0.07638608
20
20
20
20
20
0.08565369
0.08528503
0.08436961
0.08185952
0.07556971
20
20
20
20
20
0.08581387
0.08558545
0.0851742
0.08421019
0.08182778
0.07616033
20
20
20
20
20
0.08595448
0.08578804
0.08556569
0.08518617
0.08438049
0.08256794
0.07799716
20
20
20
20
20
0.08608289
0.08594804
0.08579673
0.08560675
0.08531985
0.08479747
0.08374602
0.08061938
20
20
20
20
20
0.08620242
0.08608849
0.0859675
0.08583724
0.08569053
0.08551112
0.08526451
0.08487976
0.08351506
20
20
20
20
20
20
20
20
20
20
20
20
20
20
20
20
20
20
20
20
20
20
20
20
20
20
20
20
20
20
0.3597203
20
20
20
20
20
20
20
20
20
20
20
20
20
20
20
0.3598784
0.3598161
20
20
20
20
20
20
20
20
20
20
20
20
20
20
20
0.3600003
0.3599533
0.3599077
20
20
20
20
20
20
20
20
20
20
20
20
20
20
20
0.3601041
0.3600605
0.360023
0.3599909
20
20
20
20
20
20
20
20
20
20
20
20
20
20
20
20
20
20
20
20
0.08435899
20
20
20
20
20
0.08499452
0.08200398
20
20
20
20
20
0.08525017
0.08410145
0.07935392
20
20
20
20
20
0.08547019
0.08483554
0.08290996
0.07702596
20
20
20
20
20
0.08565369
0.08528503
0.08436961
0.08185952
0.07556971
20
20
20
20
20
0.08581056
0.08557096
0.08512498
0.0840545
0.08140912
0.0754113
20
20
20
20
20
0.08594975
0.08577218
0.08552333
0.08506923
0.08405876
0.08178227
0.07661266
20
20
20
20
20
0.08607723
0.08593212
0.08576429
0.08553705
0.08515423
0.08439138
0.08281524
0.07883065
20
20
20
20
20
0.08619602
0.08607234
0.08594023
0.08579289
0.08560918
0.08534137
0.08488986
0.08406428
0.08153254
20
20
20
20
20
0.08630762
0.08620116
0.08608923
0.08597152
0.08584583
0.0857063
0.08554208
0.08533429
0.08505306
0.08411699
20
20
20
20
20
20
20
20
20
20
20
20
20
20
20
0.3596578
20
20
20
20
20
20
20
20
20
20
20
20
20
20
20
0.3598603
0.3597754
20
20
20
20
20
20
20
20
20
20
20
20
20
20
20
0.3599902
0.3599413
0.3598825
20
20
20
20
20
20
20
20
20
20
20
20
20
20
20
0.3600995
0.3600557
0.3600169
0.3599787
20
20
20
20
20
20
20
20
20
20
20
20
20
20
20
0.3601948
0.3601521
0.3601163
0.3600875
0.3600642
20
20
20
20
20
20
20
20
20
20
20
20
20
20
20
20
20
20
20
20
20
20
20
20
20
0.08515532
0.0836681
20
20
20
20
20
0.08530627
0.08451883
0.08094032
20
20
20
20
20
0.08548935
0.08496365
0.08342014
0.07831171
20
20
20
20
20
0.08565902
0.08531507
0.08448626
0.08222339
0.0762998
20
20
20
20
20
0.08581056
0.08557096
0.08512498
0.0840545
0.08140912
0.0754113
20
20
20
20
20
0.08594728
0.08576381
0.08550035
0.08500439
0.08387979
0.08135496
0.0759187
20
20
20
20
20
0.08607323
0.08592079
0.08574033
0.08548331
0.08502249
0.0840669
0.08210089
0.07767394
20
20
20
20
20
0.08619092
0.08605912
0.08591722
0.08575385
0.08553415
0.08517954
0.08453061
0.08331922
0.08021484
20
20
20
20
20
0.08630172
0.08618669
0.08606662
0.08594018
0.08580104
0.08563228
0.0854022
0.08505696
0.08452081
0.08301038
20
20
20
20
20
0.08640632
0.08630644
0.086202
0.08609339
0.0859802
0.08586086
0.08573185
0.08558942
0.08543389
0.08528909
0.3593724
20
20
20
20
20
20
20
20
20
20
20
20
20
20
20
0.3598388
0.3596933
20
20
20
20
20
20
20
20
20
20
20
20
20
20
20
0.3599757
0.359924
0.3598368
20
20
20
20
20
20
20
20
20
20
20
20
20
20
20
0.3600903
0.3600467
0.360005
0.359952
20
20
20
20
20
20
20
20
20
20
20
20
20
20
20
0.3601905
0.360148
0.3601118
0.3600815
0.3600517
20
20
20
20
20
20
20
20
20
20
20
20
20
20
20
0.3602792
0.3602368
0.3602008
0.3601727
0.360153
0.6343469
20
20
20
20
20
20
20
20
20
20
20
20
20
20
20
20
20
20
20
20
20
20
20
20
20
20
20
20
20
20
0.08536858
0.08499331
0.08327999
20
20
20
20
20
0.08551459
0.08512943
0.08409773
0.0802805
20
20
20
20
20
0.08566899
0.08537009
0.08469809
0.08289655
0.07775158
20
20
20
20
20
0.08581387
0.08558545
0.0851742
0.08421019
0.08182778
0.07616033
20
20
20
20
20
0.08594728
0.08576381
0.08550035
0.08500439
0.08387979
0.08135496
0.0759187
20
20
20
20
20
0.08607116
0.08591489
0.08572757
0.08545391
0.08494903
0.08388602
0.08171298
0.07710152
20
20
20
20
20
0.08618734
0.08604981
0.08590064
0.08572461
0.08547556
0.08504973
0.08424276
0.08274995
0.07938767
20
20
20
20
20
0.08629701
0.08617491
0.0860478
0.08591335
0.08576094
0.0855626
0.08526602
0.08478578
0.08402849
0.08230163
20
20
20
20
20
0.08640082
0.08629312
0.08618184
0.08606778
0.08594977
0.08582336
0.08567828
0.08550195
0.08528807
0.08508427
0.3590693
20
20
20
20
20
0.08649915
0.0864052
0.08630726
0.086206
0.08610171
0.08599425
0.08588326
0.08576874
0.08565732
0.08558051
0.3598538
0.3594725
20
20
20
20
20
20
20
20
20
20
20
20
20
20
20
0.3599624
0.3599051
0.3597505
20
20
20
20
20
20
20
20
20
20
20
20
20
20
20
0.3600775
0.3600351
0.359988
0.3599044
20
20
20
20
20
20
20
20
20
20
20
20
20
20
20
0.360182
0.3601401
0.3601036
0.3600695
0.3600245
20
20
20
20
20
20
20
20
20
20
20
20
20
20
20
0.3602751
0.3602329
0.360197
0.3601685
0.3601469
0.6343398
20
20
20
20
20
20
20
20
20
20
20
20
20
20
20
0.360358
0.3603161
0.3602793
0.36025
0.3602298
0.6343948
0.6343499
20
20
20
20
20
20
20
20
20
20
20
20
20
20
20
20
20
20
20
20
20
20
20
20
20
20
20
20
20
20
20
20
20
20
20
0.08554324
0.08531087
0.08485379
0.08305279
20
20
20
20
20
0.08568245
0.08544173
0.08496886
0.08377988
0.07993583
20
20
20
20
20
0.08582015
0.08561239
0.08526361
0.08449123
0.08259863
0.07764631
20
20
20
20
20
0.08594975
0.08577218
0.08552333
0.08506923
0.08405876
0.08178227
0.07661266
20
20
20
20
20
0.08607116
0.08591489
0.08572757
0.08545391
0.08494903
0.08388602
0.08171298
0.07710152
20
20
20
20
20
0.08618548
0.08604502
0.08589198
0.08570891
0.08544326
0.084977
0.08408211
0.08244173
0.07898481
20
20
20
20
20
0.0862937
0.08616666
0.08603445
0.08589381
0.08573048
0.08550733
0.08515528
0.08456647
0.08365132
0.08186096
20
20
20
20
20
0.08639643
0.08628227
0.08616518
0.08604622
0.08592332
0.08578876
0.08562505
0.08540962
0.08512914
0.08486707
0.3588319
20
20
20
20
20
0.086494
0.08639276
0.08628871
0.08618329
0.08607736
0.08597061
0.08586169
0.08574876
0.08563981
0.08557562
0.3598112
0.3592288
20
20
20
20
20
0.08658662
0.08649807
0.08640597
0.08631106
0.08621385
0.08611482
0.0860145
0.08591465
0.08582193
0.08576576
0.3600251
0.3599017
0.3595755
20
20
20
20
20
20
20
20
20
20
20
20
20
20
20
0.3600668
0.360029
0.3599689
0.3598215
20
20
20
20
20
20
20
20
20
20
20
20
20
20
20
0.36017
0.3601306
0.3600936
0.3600523
0.3599774
20
20
20
20
20
20
20
20
20
20
20
20
20
20
20
0.360267
0.3602257
0.3601901
0.3601607
0.3601349
0.6343244
20
20
20
20
20
20
20
20
20
20
20
20
20
20
20
0.3603541
0.3603124
0.3602759
0.3602465
0.3602257
0.6343914
0.6343428
20
20
20
20
20
20
20
20
20
20
20
20
20
20
20
0.360432
0.3603907
0.3603535
0.3603224
0.3602997
0.634436
0.6343975
0.6343529
20
20
20
20
20
20
20
20
20
20
20
20
20
20
20
20
20
20
20
20
20
20
20
20
20
20
20
20
20
20
20
20
20
20
20
20
20
20
20
20
0.08569829
0.08552121
0.0852604
0.08475139
0.08293773
20
20
20
20
20
0.08582884
0.08564833
0.08537844
0.08484678
0.08360263
0.07987334
20
20
20
20
20
0.08595448
0.08578804
0.08556569
0.08518617
0.08438049
0.08256794
0.07799716
20
20
20
20
20
0.08607323
0.08592079
0.08574033
0.08548331
0.08502249
0.0840669
0.08210089
0.07767394
20
20
20
20
20
0.08618548
0.08604502
0.08589198
0.08570891
0.08544326
0.084977
0.08408211
0.08244173
0.07898481
20
20
20
20
20
0.08629198
0.08616243
0.08602754
0.08588352
0.08571397
0.08547657
0.08509281
0.08444363
0.08344709
0.08164706
20
20
20
20
20
0.08639332
0.0862747
0.08615344
0.0860308
0.0859038
0.08576183
0.08558126
0.08533132
0.0849951
0.08469343
0.3586726
20
20
20
20
20
0.08648987
0.08638264
0.0862734
0.08616433
0.08605658
0.08594933
0.08583935
0.08572123
0.08560084
0.08552777
0.3597527
0.3590293
20
20
20
20
20
0.08658178
0.0864864
0.08638863
0.08629015
0.08619238
0.08609666
0.08600428
0.08591814
0.08584668
0.08582014
0.3600422
0.359866
0.3593801
20
20
20
20
20
0.08666917
0.08658559
0.08649879
0.08640954
0.08631844
0.08622609
0.08613344
0.08604249
0.08595993
0.08591093
0.3601366
0.3600642
0.3599552
0.359681
20
20
20
20
20
20
20
20
20
20
20
20
20
20
20
0.3601601
0.3601279
0.360089
0.3600319
0.3599012
20
20
20
20
20
20
20
20
20
20
20
20
20
20
20
0.3602556
0.360217
0.3601825
0.3601512
0.3601172
0.6342981
20
20
20
20
20
20
20
20
20
20
20
20
20
20
20
0.3603464
0.3603056
0.3602696
0.3602402
0.360218
0.6343845
0.6343274
20
20
20
20
20
20
20
20
20
20
20
20
20
20
20
0.3604283
0.3603872
0.3603503
0.3603193
0.3602964
0.6344337
0.6343941
0.6343458
20
20
20
20
20
20
20
20
20
20
20
20
20
20
20
0.3605016
0.3604611
0.3604239
0.3603915
0.360366
0.6344736
0.6344383
0.6344001
0.6343559
20
20
20
20
20
20
20
20
20
20
20
20
20
20
20
20
20
20
20
20
20
20
20
20
20
20
20
20
20
20
20
20
20
20
20
20
20
20
20
20
20
20
20
20
20
0.08583942
0.08568937
0.08550347
0.08522462
0.08469766
0.08291851
20
20
20
20
20
0.08596113
0.0858098
0.08562137
0.08533457
0.08478469
0.08358905
0.0800918
20
20
20
20
20
0.08607723
0.08593212
0.08576429
0.08553705
0.08515423
0.08439138
0.08281524
0.07883065
20
20
20
20
20
0.08618734
0.08604981
0.08590064
0.08572461
0.08547556
0.08504973
0.08424276
0.08274995
0.07938767
20
20
20
20
20
0.08629198
0.08616243
0.08602754
0.08588352
0.08571397
0.08547657
0.08509281
0.08444363
0.08344709
0.08164706
20
20
20
20
20
0.08639172
0.08627082
0.0861474
0.08602277
0.08589342
0.08574701
0.08555644
0.08528632
0.08491881
0.08459801
0.358593
20
20
20
20
20
0.08648695
0.08637556
0.08626264
0.08615087
0.08604154
0.08593316
0.0858206
0.08569511
0.08556077
0.08547715
0.359702
0.3588926
20
20
20
20
20
0.08657788
0.08647688
0.08637433
0.08627275
0.08617424
0.08608061
0.08599308
0.08591375
0.08584921
0.0858292
0.3600385
0.3598184
0.3592151
20
20
20
20
20
0.08666461
0.0865746
0.0864825
0.08638999
0.08629866
0.08621025
0.08612709
0.08605296
0.08599677
0.08598011
0.3601697
0.360077
0.3599233
0.3595254
20
20
20
20
20
0.08674716
0.08666818
0.08658627
0.08650217
0.0864165
0.08632992
0.0862434
0.08615903
0.0860828
0.08603712
0.3602257
0.3601703
0.3601069
0.3600119
0.3597884
20
20
20
20
20
20
20
20
20
20
20
20
20
20
20
0.360246
0.3602149
0.3601818
0.3601452
0.3600949
0.6342571
20
20
20
20
20
20
20
20
20
20
20
20
20
20
20
0.3603355
0.3602973
0.3602628
0.3602333
0.3602082
0.6343742
0.6343012
20
20
20
20
20
20
20
20
20
20
20
20
20
20
20
0.3604209
0.3603806
0.3603444
0.3603136
0.3602903
0.6344293
0.6343872
0.6343304
20
20
20
20
20
20
20
20
20
20
20
20
20
20
20
0.360498
0.3604578
0.3604208
0.3603885
0.360363
0.6344717
0.634436
0.6343967
0.6343488
20
20
20
20
20
20
20
20
20
20
20
20
20
20
20
0.3605672
0.3605278
0.3604908
0.3604576
0.36043
0.6345095
0.6344757
0.6344406
0.6344028
0.6343589
20
20
20
20
20
20
20
20
20
20
20
20
20
20
20
20
20
20
20
20
20
20
20
20
20
20
20
20
20
20
20
20
20
20
20
20
20
20
20
20
20
20
20
20
20
20
20
20
20
20
0.0859694
0.08583544
0.08568366
0.08549377
0.08521056
0.08470002
0.08299454
20
20
20
20
20
0.08608289
0.08594804
0.08579673
0.08560675
0.08531985
0.08479747
0.08374602
0.08061938
20
20
20
20
20
0.08619092
0.08605912
0.08591722
0.08575385
0.08553415
0.08517954
0.08453061
0.08331922
0.08021484
20
20
20
20
20
0.0862937
0.08616666
0.08603445
0.08589381
0.08573048
0.08550733
0.08515528
0.08456647
0.08365132
0.08186096
20
20
20
20
20
0.08639172
0.08627082
0.0861474
0.08602277
0.08589342
0.08574701
0.08555644
0.08528632
0.08491881
0.08459801
0.358593
20
20
20
20
20
0.08648544
0.08637194
0.08625712
0.08614392
0.08603366
0.08592441
0.08580987
0.0856794
0.08553617
0.08544637
0.3596733
0.3588237
20
20
20
20
20
0.08657513
0.08647023
0.08636429
0.08626043
0.08616124
0.08606865
0.08598347
0.08590658
0.08584278
0.08582345
0.3600289
0.3597771
0.3591
20
20
20
20
20
0.08666093
0.08656563
0.08646905
0.08637371
0.086282
0.08619641
0.08611982
0.08605604
0.08601272
0.08600675
0.3601833
0.3600749
0.3598839
0.3593915
20
20
20
20
20
0.08674286
0.08665782
0.08657091
0.08648376
0.08639794
0.08631527
0.08623818
0.08617073
0.08612083
0.08610629
0.3602613
0.3601962
0.3601144
0.3599823
0.3596664
20
20
20
20
20
0.08682092
0.08674623
0.08666884
0.08658948
0.08650875
0.08642731
0.08634612
0.08626711
0.08619578
0.08615183
0.3603045
0.3602556
0.3602067
0.3601513
0.3600705
0.6341998
20
20
20
20
20
20
20
20
20
20
20
20
20
20
20
0.3603259
0.3602949
0.3602628
0.3602314
0.3601995
0.634361
0.6342605
20
20
20
20
20
20
20
20
20
20
20
20
20
20
20
0.3604104
0.3603726
0.3603379
0.3603076
0.3602832
0.6344235
0.6343769
0.6343043
20
20
20
20
20
20
20
20
20
20
20
20
20
20
20
0.3604909
0.3604515
0.3604151
0.3603832
0.3603576
0.6344683
0.6344316
0.6343898
0.6343334
20
20
20
20
20
20
20
20
20
20
20
20
20
20
20
0.3605638
0.3605245
0.3604878
0.3604547
0.3604271
0.6345078
0.6344738
0.6344383
0.6343994
0.6343518
20
20
20
20
20
20
20
20
20
20
20
20
20
20
20
0.3606292
0.3605909
0.3605544
0.3605209
0.3604917
0.6345444
0.6345114
0.6344777
0.634443
0.6344054
0.7257714
20
20
20
20
20
20
20
20
20
20
20
20
20
20
20
20
20
20
20
20
20
20
20
20
20
20
20
20
20
20
20
20
20
20
20
20
20
20
20
20
20
20
20
20
20
20
20
20
20
20
20
20
20
20
20
0.08609
0.08596724
0.08583417
0.08568345
0.08549549
0.08522319
0.08476121
0.08317965
20
20
20
20
20
0.08619602
0.08607234
0.08594023
0.08579289
0.08560918
0.08534137
0.08488986
0.08406428
0.08153254
20
20
20
20
20
0.08629701
0.08617491
0.0860478
0.08591335
0.08576094
0.0855626
0.08526602
0.08478578
0.08402849
0.08230163
20
20
20
20
20
0.08639332
0.0862747
0.08615344
0.0860308
0.0859038
0.08576183
0.08558126
0.08533132
0.0849951
0.08469343
0.3586726
20
20
20
20
20
0.08648544
0.08637194
0.08625712
0.08614392
0.08603366
0.08592441
0.08580987
0.0856794
0.08553617
0.08544637
0.3596733
0.3588237
20
20
20
20
20
0.0865737
0.08646682
0.08635914
0.08625408
0.08615447
0.08606227
0.08597793
0.08590157
0.08583707
0.08581737
0.360022
0.3597536
0.3590414
20
20
20
20
20
0.08665832
0.08655935
0.0864596
0.0863622
0.08627011
0.0861862
0.0861135
0.08605528
0.08601777
0.08601603
0.3601877
0.3600678
0.3598502
0.3592967
20
20
20
20
20
0.08673937
0.08664935
0.08655823
0.08646842
0.08638231
0.08630252
0.08623219
0.08617571
0.08613981
0.08613685
0.3602794
0.3602083
0.3601123
0.3599493
0.3595605
20
20
20
20
20
0.08681685
0.08673646
0.08665435
0.08657209
0.08649121
0.08641344
0.08634115
0.0862781
0.08623154
0.08621623
0.3603382
0.3602835
0.360225
0.3601534
0.3600423
0.634139
20
20
20
20
20
0.0868907
0.08682005
0.08674688
0.08667191
0.08659573
0.08651897
0.08644255
0.08636826
0.08630104
0.08625853
0.3603772
0.3603314
0.3602875
0.3602441
0.3601964
0.6343459
0.6342039
20
20
20
20
20
20
20
20
20
20
20
20
20
20
20
0.3604008
0.3603697
0.3603376
0.3603067
0.3602788
0.6344176
0.6343635
0.6342639
20
20
20
20
20
20
20
20
20
20
20
20
20
20
20
0.3604808
0.3604436
0.3604088
0.3603776
0.3603515
0.634464
0.6344258
0.6343795
0.6343074
20
20
20
20
20
20
20
20
20
20
20
20
20
20
20
0.360557
0.3605185
0.3604823
0.3604496
0.3604221
0.6345048
0.6344703
0.6344339
0.6343925
0.6343365
20
20
20
20
20
20
20
20
20
20
20
20
20
20
20
0.3606259
0.3605878
0.3605515
0.3605182
0.3604891
0.6345429
0.6345097
0.6344758
0.6344407
0.634402
0.7257661
20
20
20
20
20
20
20
20
20
20
20
20
20
20
20
0.3606878
0.3606507
0.360615
0.3605815
0.3605515
0.6345784
0.6345461
0.6345132
0.6344798
0.6344453
0.7258061
0.7257734
20
20
20
20
20
20
20
20
20
20
20
20
20
20
20
20
20
20
20
20
20
20
20
20
20
20
20
20
20
20
20
20
20
20
20
20
20
20
20
20
20
20
20
20
20
20
20
20
20
20
20
20
20
20
20
20
20
20
20
20
0.08620242
0.08608849
0.0859675
0.08583724
0.08569053
0.08551112
0.08526451
0.08487976
0.08351506
20
20
20
20
20
0.08630172
0.08618669
0.08606662
0.08594018
0.08580104
0.08563228
0.0854022
0.08505696
0.08452081
0.08301038
20
20
20
20
20
0.08639643
0.08628227
0.08616518
0.08604622
0.08592332
0.08578876
0.08562505
0.08540962
0.08512914
0.08486707
0.3588319
20
20
20
20
20
0.08648695
0.08637556
0.08626264
0.08615087
0.08604154
0.08593316
0.0858206
0.08569511
0.08556077
0.08547715
0.359702
0.3588926
20
20
20
20
20
0.0865737
0.08646682
0.08635914
0.08625408
0.08615447
0.08606227
0.08597793
0.08590157
0.08583707
0.08581737
0.360022
0.3597536
0.3590414
20
20
20
20
20
0.08665696
0.08655614
0.08645475
0.08635628
0.08626394
0.0861808
0.08610984
0.08605398
0.08601867
0.08601854
0.3601887
0.3600627
0.3598311
0.3592481
20
20
20
20
20
0.0867369
0.08664343
0.08654931
0.08645758
0.08637117
0.08629318
0.086227
0.08617684
0.08614808
0.08615043
0.360288
0.3602128
0.3601068
0.3599218
0.3594848
20
20
20
20
20
0.08681355
0.08672846
0.08664237
0.08655761
0.08647644
0.0864014
0.08633555
0.08628304
0.08625008
0.08624589
0.3603565
0.3602991
0.3602345
0.3601504
0.3600143
0.6340862
20
20
20
20
20
0.08688686
0.08681082
0.0867332
0.08665548
0.08657912
0.08650576
0.08643759
0.08637809
0.08633366
0.08631719
0.3604078
0.3603577
0.3603076
0.3602552
0.3601933
0.6343301
0.6341441
20
20
20
20
20
0.08695676
0.08688991
0.0868207
0.08674982
0.08667787
0.08660544
0.08653338
0.08646336
0.08639987
0.08635871
0.3604456
0.3604016
0.3603598
0.3603201
0.3602818
0.6344134
0.6343484
0.6342081
20
20
20
20
20
20
20
20
20
20
20
20
20
20
20
0.3604712
0.3604402
0.3604079
0.3603766
0.3603484
0.6344605
0.6344198
0.6343661
0.6342673
20
20
20
20
20
20
20
20
20
20
20
20
20
20
20
0.3605472
0.3605108
0.3604761
0.3604441
0.3604164
0.6345011
0.634466
0.6344281
0.6343821
0.6343106
20
20
20
20
20
20
20
20
20
20
20
20
20
20
20
0.3606193
0.3605819
0.3605462
0.3605132
0.3604842
0.63454
0.6345066
0.6344724
0.6344363
0.6343951
0.7257547
20
20
20
20
20
20
20
20
20
20
20
20
20
20
20
0.3606846
0.3606477
0.3606122
0.3605789
0.3605489
0.6345769
0.6345445
0.6345115
0.6344779
0.634443
0.7258035
0.7257681
20
20
20
20
20
20
20
20
20
20
20
20
20
20
20
0.3607433
0.3607075
0.3606727
0.3606396
0.3606091
0.6346114
0.6345799
0.6345477
0.634515
0.6344818
0.7258357
0.7258078
0.7257749
20
20
20
20
20
20
20
20
20
20
20
20
20
20
20
20
20
20
20
20
20
20
20
20
20
20
20
20
20
20
20
20
20
20
20
20
20
20
20
20
20
20
20
20
20
20
20
20
20
20
20
20
20
20
20
20
20
20
20
20
20
20
20
20
20
0.08630762
0.08620116
0.08608923
0.08597152
0.08584583
0.0857063
0.08554208
0.08533429
0.08505306
0.08411699
20
20
20
20
20
0.08640082
0.08629312
0.08618184
0.08606778
0.08594977
0.08582336
0.08567828
0.08550195
0.08528807
0.08508427
0.3590693
20
20
20
20
20
0.08648987
0.08638264
0.0862734
0.08616433
0.08605658
0.08594933
0.08583935
0.08572123
0.08560084
0.08552777
0.3597527
0.3590293
20
20
20
20
20
0.08657513
0.08647023
0.08636429
0.08626043
0.08616124
0.08606865
0.08598347
0.08590658
0.08584278
0.08582345
0.3600289
0.3597771
0.3591
20
20
20
20
20
0.08665696
0.08655614
0.08645475
0.08635628
0.08626394
0.0861808
0.08610984
0.08605398
0.08601867
0.08601854
0.3601887
0.3600627
0.3598311
0.3592481
20
20
20
20
20
0.08673562
0.08664039
0.08654473
0.086452
0.0863654
0.08628825
0.08622402
0.0861767
0.08615099
0.0861556
0.3602915
0.360214
0.3601028
0.3599063
0.3594456
20
20
20
20
20
0.08681121
0.08672285
0.08663394
0.08654736
0.08646592
0.08639258
0.08633077
0.08628445
0.08625871
0.08625989
0.360366
0.360307
0.3602384
0.3601457
0.359992
0.6340483
20
20
20
20
20
0.08688373
0.08680326
0.08672188
0.08664178
0.08656513
0.08649428
0.08643211
0.08638245
0.08635071
0.08634459
0.3604249
0.3603734
0.3603201
0.3602616
0.3601889
0.6343154
0.6340922
20
20
20
20
20
0.08695312
0.0868812
0.08680778
0.08673431
0.08666215
0.08659284
0.08652841
0.08647202
0.08642944
0.08641189
0.360473
0.3604254
0.360379
0.3603331
0.3602862
0.6344101
0.6343326
0.6341492
20
20
20
20
20
0.08701928
0.08695603
0.08689056
0.08682353
0.08675552
0.08668712
0.08661911
0.08655303
0.08649297
0.08645327
0.3605104
0.3604679
0.3604273
0.3603888
0.3603527
0.6344597
0.6344154
0.6343509
0.6342123
20
20
20
20
20
20
20
20
20
20
20
20
20
20
20
0.3605376
0.3605069
0.3604746
0.3604428
0.3604135
0.6344984
0.6344624
0.634422
0.6343687
0.6342707
20
20
20
20
20
20
20
20
20
20
20
20
20
20
20
0.3606099
0.3605744
0.3605401
0.3605078
0.3604788
0.6345366
0.6345029
0.6344681
0.6344304
0.6343848
0.7257353
20
20
20
20
20
20
20
20
20
20
20
20
20
20
20
0.3606782
0.360642
0.3606071
0.3605741
0.3605442
0.6345741
0.6345416
0.6345084
0.6344744
0.6344386
0.7257984
0.7257566
20
20
20
20
20
20
20
20
20
20
20
20
20
20
20
0.3607402
0.3607046
0.36067
0.360637
0.3606066
0.6346099
0.6345783
0.6345461
0.6345133
0.63448
0.725834
0.7258052
0.7257696
20
20
20
20
20
20
20
20
20
20
20
20
20
20
20
0.3607958
0.3607614
0.3607277
0.3606951
0.3606646
0.6346433
0.6346127
0.6345813
0.6345493
0.6345168
0.7258629
0.7258372
0.7258091
0.725776
20
20
20
20
20
20
20
20
20
20
20
20
20
20
20
20
20
20
20
20
20
20
20
20
20
20
20
20
20
20
20
20
20
20
20
20
20
20
20
20
20
20
20
20
20
20
20
20
20
20
20
20
20
20
20
20
20
20
20
20
20
20
20
20
20
20
20
20
20
20
0.08640632
0.08630644
0.086202
0.08609339
0.0859802
0.08586086
0.08573185
0.08558942
0.08543389
0.08528909
0.3593724
20
20
20
20
20
0.086494
0.08639276
0.08628871
0.08618329
0.08607736
0.08597061
0.08586169
0.08574876
0.08563981
0.08557562
0.3598112
0.3592288
20
20
20
20
20
0.08657788
0.08647688
0.08637433
0.08627275
0.08617424
0.08608061
0.08599308
0.08591375
0.08584921
0.0858292
0.3600385
0.3598184
0.3592151
20
20
20
20
20
0.08665832
0.08655935
0.0864596
0.0863622
0.08627011
0.0861862
0.0861135
0.08605528
0.08601777
0.08601603
0.3601877
0.3600678
0.3598502
0.3592967
20
20
20
20
20
0.08673562
0.08664039
0.08654473
0.086452
0.0863654
0.08628825
0.08622402
0.0861767
0.08615099
0.0861556
0.3602915
0.360214
0.3601028
0.3599063
0.3594456
20
20
20
20
20
0.08680999
0.08671998
0.08662961
0.08654208
0.08646046
0.08638794
0.08632803
0.08628457
0.086262
0.08626554
0.36037
0.3603103
0.3602396
0.3601425
0.3599797
0.6340286
20
20
20
20
20
0.08688151
0.08679796
0.08671391
0.08663209
0.08655515
0.08648589
0.08642748
0.08638366
0.08635876
0.08635778
0.360434
0.3603819
0.3603267
0.3602645
0.3601845
0.634304
0.6340548
20
20
20
20
20
0.08695016
0.08687405
0.08679708
0.08672135
0.08664889
0.08658189
0.08652301
0.08647572
0.08644484
0.0864368
0.3604886
0.36044
0.3603914
0.360342
0.3602894
0.6344071
0.6343181
0.6340981
20
20
20
20
20
0.08701584
0.08694781
0.08687837
0.08680888
0.08674065
0.08667513
0.08661418
0.08656069
0.08651984
0.0865016
0.360535
0.3604892
0.3604446
0.3604013
0.3603591
0.6344604
0.634412
0.6343352
0.6341543
20
20
20
20
20
0.08707845
0.08701863
0.08695669
0.08689331
0.08682901
0.08676436
0.08670013
0.08663773
0.08658091
0.08654273
0.3605721
0.3605311
0.3604914
0.3604533
0.3604177
0.6344986
0.6344614
0.6344174
0.6343534
0.6342164
20
20
20
20
20
20
20
20
20
20
20
20
20
20
20
0.3606004
0.3605702
0.3605381
0.360506
0.3604757
0.6345342
0.6345002
0.6344644
0.6344242
0.6343713
0.7257057
20
20
20
20
20
20
20
20
20
20
20
20
20
20
20
0.3606691
0.3606347
0.360601
0.3605687
0.3605389
0.6345709
0.6345382
0.6345047
0.6344701
0.6344327
0.7257906
0.7257373
20
20
20
20
20
20
20
20
20
20
20
20
20
20
20
0.360734
0.3606991
0.360665
0.3606324
0.360602
0.6346073
0.6345756
0.6345433
0.6345103
0.6344765
0.7258307
0.7258001
0.7257582
20
20
20
20
20
20
20
20
20
20
20
20
20
20
20
0.3607928
0.3607586
0.3607251
0.3606926
0.3606621
0.6346419
0.6346112
0.6345798
0.6345478
0.6345152
0.7258615
0.7258355
0.7258065
0.7257707
20
20
20
20
20
20
20
20
20
20
20
20
20
20
20
0.3608457
0.3608127
0.36078
0.3607483
0.3607179
0.6346742
0.6346445
0.634614
0.6345828
0.634551
0.725889
0.7258642
0.7258384
0.72581
0.7257766
20
20
20
20
20
20
20
20
20
20
20
20
20
20
20
20
20
20
20
20
20
20
20
20
20
20
20
20
20
20
20
20
20
20
20
20
20
20
20
20
20
20
20
20
20
20
20
20
20
20
20
20
20
20
20
20
20
20
20
20
20
20
20
20
20
20
20
20
20
0.3596578
20
20
20
20
20
0.08649915
0.0864052
0.08630726
0.086206
0.08610171
0.08599425
0.08588326
0.08576874
0.08565732
0.08558051
0.3598538
0.3594725
20
20
20
20
20
0.08658178
0.0864864
0.08638863
0.08629015
0.08619238
0.08609666
0.08600428
0.08591814
0.08584668
0.08582014
0.3600422
0.359866
0.3593801
20
20
20
20
20
0.08666093
0.08656563
0.08646905
0.08637371
0.086282
0.08619641
0.08611982
0.08605604
0.08601272
0.08600675
0.3601833
0.3600749
0.3598839
0.3593915
20
20
20
20
20
0.0867369
0.08664343
0.08654931
0.08645758
0.08637117
0.08629318
0.086227
0.08617684
0.08614808
0.08615043
0.360288
0.3602128
0.3601068
0.3599218
0.3594848
20
20
20
20
20
0.08680999
0.08671998
0.08662961
0.08654208
0.08646046
0.08638794
0.08632803
0.08628457
0.086262
0.08626554
0.36037
0.3603103
0.3602396
0.3601425
0.3599797
0.6340286
20
20
20
20
20
0.08688035
0.08679524
0.08670981
0.08662709
0.08654998
0.08648147
0.08642486
0.08638374
0.08636189
0.0863632
0.3604379
0.3603856
0.3603296
0.3602655
0.3601819
0.6342978
0.6340354
20
20
20
20
20
0.08694805
0.08686904
0.08678955
0.08671218
0.08663942
0.08657389
0.08651849
0.08647662
0.08645212
0.08644886
0.360497
0.3604481
0.3603986
0.3603471
0.3602911
0.6344046
0.6343068
0.6340613
20
20
20
20
20
0.08701303
0.08694106
0.08686826
0.08679664
0.0867281
0.0866647
0.08660889
0.08656381
0.08653374