/*--------------------------------*- C++ -*----------------------------------*\
| =========                 |                                                 |
| \\      /  F ield         | OpenFOAM: The Open Source CFD Toolbox           |
|  \\    /   O peration     | Version:  2306                                  |
|   \\  /    A nd           | Website:  www.openfoam.com                      |
|    \\/     M anipulation  |                                                 |
\*---------------------------------------------------------------------------*/
FoamFile
{
    version     2.0;
    format      ascii;
    arch        "LSB;label=32;scalar=64";
    class       volScalarField;
    location    "0.9";
    object      rhoCp;
}
// * * * * * * * * * * * * * * * * * * * * * * * * * * * * * * * * * * * * * //

dimensions      [1 -1 -2 -1 0 0 0];

internalField   nonuniform List<scalar> 
52000
(
5346000
5346000
5346000
5346000
5346000
5346000
5346000
5346000
5346000
5346000
5346000
5346000
5346000
5346000
5346000
5346000
5346000
5346000
5346000
5346000
5346000
5346000
5346000
5346000
5346000
5346000
5346000
5346000
5346000
5346000
5346000
5346000
5346000
5346000
5346000
5346000
5346000
5346000
5346000
5346000
5346000
5346000
5346000
5346000
5346000
5346000
5346000
5346000
5346000
5346000
5346000
5346000
5346000
5346000
5346000
5346000
5346000
5346000
5346000
5346000
5346000
5346000
5346000
5346000
5346000
5346000
5346000
5346000
5346000
5346000
5346000
5346000
5346000
5346000
5346000
5346000
5346000
5346000
5346000
5346000
5346000
5346000
5346000
5346000
5346000
5346000
5346000
5346000
5346000
5346000
5346000
5346000
5346000
5346000
5346000
5346000
5346000
5346000
5346000
5346000
5346000
5346000
5346000
5346000
5346000
5346000
5346000
5346000
5346000
5346000
5346000
5346000
5346000
5346000
5346000
5346000
5346000
5346000
5346000
5346000
5346000
5346000
5346000
5346000
5346000
5346000
5346000
5346000
5346000
5346000
5346000
5346000
5346000
5346000
5346000
5346000
5346000
5346000
5346000
5346000
5346000
5346000
5346000
5346000
5346000
5346000
5346000
5346000
5346000
5346000
5346000
5346000
5346000
5346000
5346000
5346000
5346000
5346000
5346000
5346000
5346000
5346000
5346000
5346000
5346000
5346000
5346000
5346000
5346000
5346000
5346000
5346000
5346000
5346000
5346000
5346000
5346000
5346000
5346000
5346000
5346000
5346000
5346000
5346000
5346000
5346000
5346000
5346000
5346000
5346000
5346000
5346000
5346000
5346000
5346000
5346000
5346000
5346000
5346000
5346000
5346000
5346000
5346000
5346000
5346000
5346000
5346000
5346000
5346000
5346000
5346000
5346000
5346000
5346000
5346000
5346000
5346000
5346000
5346000
5346000
5346000
5346000
5346000
5346000
5346000
5346000
5346000
5346000
5346000
5346000
5346000
5346000
5346000
5346000
5346000
5346000
5346000
5346000
5346000
5346000
348.4761
5346000
5346000
5346000
5346000
5346000
5346000
5346000
5346000
5346000
5346000
5346000
5346000
5346000
5346000
5346000
5346000
5346000
5346000
5346000
5346000
5346000
5346000
5346000
5346000
5346000
5346000
5346000
5346000
5346000
5346000
5346000
5346000
5346000
5346000
5346000
5346000
5346000
5346000
5346000
5346000
5346000
5346000
5346000
5346000
5346000
5346000
5346000
5346000
5346000
5346000
5346000
5346000
5346000
5346000
5346000
5346000
5346000
5346000
5346000
5346000
5346000
5346000
5346000
5346000
5346000
351.6685
5346000
5346000
5346000
5346000
5346000
344.8048
351.7249
5346000
5346000
5346000
5346000
5346000
5346000
5346000
5346000
5346000
5346000
5346000
5346000
5346000
5346000
5346000
5346000
5346000
5346000
5346000
5346000
5346000
5346000
5346000
5346000
5346000
5346000
5346000
5346000
5346000
5346000
5346000
5346000
5346000
5346000
5346000
5346000
5346000
5346000
5346000
5346000
5346000
5346000
5346000
5346000
5346000
5346000
5346000
5346000
5346000
5346000
5346000
5346000
5346000
5346000
5346000
5346000
5346000
5346000
5346000
5346000
5346000
5346000
5346000
5346000
5346000
5346000
5346000
5346000
5346000
5346000
353.4668
5346000
5346000
5346000
5346000
5346000
345.5426
359.7562
5346000
5346000
5346000
5346000
5346000
343.8521
345.5506
353.5732
5346000
5346000
5346000
5346000
5346000
5346000
5346000
5346000
5346000
5346000
5346000
5346000
5346000
5346000
5346000
5346000
5346000
5346000
5346000
5346000
5346000
5346000
5346000
5346000
5346000
5346000
5346000
5346000
5346000
5346000
5346000
5346000
5346000
5346000
5346000
5346000
5346000
5346000
5346000
5346000
5346000
5346000
5346000
5346000
5346000
5346000
5346000
5346000
5346000
5346000
5346000
5346000
5346000
5346000
5346000
5346000
5346000
5346000
5346000
5346000
5346000
5346000
5346000
5346000
5346000
5346000
5346000
5346000
5346000
5346000
5346000
5346000
5346000
5346000
5346000
354.4999
5346000
5346000
5346000
5346000
5346000
346.1841
364.9653
5346000
5346000
5346000
5346000
5346000
344.1351
347.7442
365.0514
5346000
5346000
5346000
5346000
5346000
343.0774
344.1178
346.1972
354.6654
5346000
5346000
5346000
5346000
5346000
5346000
5346000
5346000
5346000
5346000
5346000
5346000
5346000
5346000
5346000
5346000
5346000
5346000
5346000
5346000
5346000
5346000
5346000
5346000
5346000
5346000
5346000
5346000
5346000
5346000
5346000
5346000
5346000
5346000
5346000
5346000
5346000
5346000
5346000
5346000
5346000
5346000
5346000
5346000
5346000
5346000
5346000
5346000
5346000
5346000
5346000
5346000
5346000
5346000
5346000
5346000
5346000
5346000
5346000
5346000
5346000
5346000
5346000
5346000
5346000
5346000
5346000
5346000
5346000
5346000
5346000
5346000
5346000
5346000
5346000
5346000
5346000
5346000
5346000
5346000
354.9822
5346000
5346000
5346000
5346000
5346000
346.6574
368.1693
5346000
5346000
5346000
5346000
5346000
344.3893
349.6924
373.1893
5346000
5346000
5346000
5346000
5346000
343.2062
344.9465
349.7144
368.404
5346000
5346000
5346000
5346000
5346000
342.3994
343.1797
344.3536
346.6769
355.2252
5346000
5346000
5346000
5346000
5346000
5346000
5346000
5346000
5346000
5346000
5346000
5346000
5346000
5346000
5346000
5346000
5346000
5346000
5346000
5346000
5346000
5346000
5346000
5346000
5346000
5346000
5346000
5346000
5346000
5346000
5346000
5346000
5346000
5346000
5346000
5346000
5346000
5346000
5346000
5346000
5346000
5346000
5346000
5346000
5346000
5346000
5346000
5346000
5346000
5346000
5346000
5346000
5346000
5346000
5346000
5346000
5346000
5346000
5346000
5346000
5346000
5346000
5346000
5346000
5346000
5346000
5346000
5346000
5346000
5346000
5346000
5346000
5346000
5346000
5346000
5346000
5346000
5346000
5346000
5346000
5346000
5346000
5346000
5346000
5346000
354.9822
5346000
5346000
5346000
5346000
5346000
346.9086
369.71
5346000
5346000
5346000
5346000
5346000
344.5838
351.1503
378.4945
5346000
5346000
5346000
5346000
5346000
343.3189
345.7056
352.9159
378.7067
5346000
5346000
5346000
5346000
5346000
342.4697
343.5395
345.689
351.217
370.1802
5346000
5346000
5346000
5346000
5346000
341.7825
342.4418
343.2655
344.5262
346.9363
355.3274
5346000
5346000
5346000
5346000
5346000
5346000
5346000
5346000
5346000
5346000
5346000
5346000
5346000
5346000
5346000
5346000
5346000
5346000
5346000
5346000
5346000
5346000
5346000
5346000
5346000
5346000
5346000
5346000
5346000
5346000
5346000
5346000
5346000
5346000
5346000
5346000
5346000
5346000
5346000
5346000
5346000
5346000
5346000
5346000
5346000
5346000
5346000
5346000
5346000
5346000
5346000
5346000
5346000
5346000
5346000
5346000
5346000
5346000
5346000
5346000
5346000
5346000
5346000
5346000
5346000
5346000
5346000
5346000
5346000
344.1283
5346000
5346000
5346000
5346000
5346000
5346000
5346000
5346000
5346000
5346000
5346000
5346000
5346000
5346000
5346000
5346000
5346000
5346000
5346000
5346000
354.4999
5346000
5346000
5346000
5346000
5346000
346.9086
369.71
5346000
5346000
5346000
5346000
5346000
344.6896
351.9306
381.1323
5346000
5346000
5346000
5346000
5346000
343.4042
346.2937
355.3583
385.6993
5346000
5346000
5346000
5346000
5346000
342.5286
343.8635
346.9359
355.4294
381.7332
5346000
5346000
5346000
5346000
5346000
341.8289
342.6259
343.8326
346.2601
352.0657
370.5113
5346000
5346000
5346000
5346000
5346000
341.218
341.8024
342.4726
343.3187
344.604
346.9415
354.9755
5346000
5346000
5346000
5346000
5346000
5346000
5346000
5346000
5346000
5346000
5346000
5346000
5346000
5346000
5346000
5346000
5346000
5346000
5346000
5346000
5346000
5346000
5346000
5346000
5346000
5346000
5346000
5346000
5346000
5346000
5346000
5346000
5346000
5346000
5346000
5346000
5346000
5346000
5346000
5346000
5346000
5346000
5346000
5346000
5346000
5346000
5346000
5346000
5346000
5346000
5346000
5346000
5346000
5346000
5346000
5346000
5346000
344.1743
5346000
5346000
5346000
5346000
5346000
5346000
5346000
5346000
5346000
5346000
5346000
5346000
5346000
5346000
5346000
343.3853
343.6853
5346000
5346000
5346000
5346000
5346000
5346000
5346000
5346000
5346000
5346000
5346000
5346000
5346000
5346000
5346000
5346000
5346000
5346000
5346000
5346000
353.4668
5346000
5346000
5346000
5346000
5346000
346.6574
368.1693
5346000
5346000
5346000
5346000
5346000
344.6896
351.9306
381.1323
5346000
5346000
5346000
5346000
5346000
343.4504
346.6159
356.6804
389.2612
5346000
5346000
5346000
5346000
5346000
342.5719
344.1124
347.9161
358.6956
389.7525
5346000
5346000
5346000
5346000
5346000
341.8662
342.7864
344.3539
347.9037
356.8782
382.3136
5346000
5346000
5346000
5346000
5346000
341.2539
341.9164
342.7526
344.0414
346.5597
352.1451
369.3986
5346000
5346000
5346000
5346000
5346000
340.695
341.2295
341.8129
342.4822
343.3244
344.5647
346.6808
354.1077
5346000
5346000
5346000
5346000
5346000
5346000
5346000
5346000
5346000
5346000
5346000
5346000
5346000
5346000
5346000
5346000
5346000
5346000
5346000
5346000
5346000
5346000
5346000
5346000
5346000
5346000
5346000
5346000
5346000
5346000
5346000
5346000
5346000
5346000
5346000
5346000
5346000
5346000
5346000
5346000
5346000
5346000
5346000
5346000
344.27
5346000
5346000
5346000
5346000
5346000
5346000
5346000
5346000
5346000
5346000
5346000
5346000
5346000
5346000
5346000
343.4123
343.7395
5346000
5346000
5346000
5346000
5346000
5346000
5346000
5346000
5346000
5346000
5346000
5346000
5346000
5346000
5346000
342.6896
342.9819
343.2371
5346000
5346000
5346000
5346000
5346000
5346000
5346000
5346000
5346000
5346000
5346000
5346000
5346000
5346000
5346000
5346000
5346000
5346000
5346000
5346000
351.6685
5346000
5346000
5346000
5346000
5346000
346.1841
364.9653
5346000
5346000
5346000
5346000
5346000
344.5838
351.1503
378.4945
5346000
5346000
5346000
5346000
5346000
343.4504
346.6159
356.6804
389.2612
5346000
5346000
5346000
5346000
5346000
342.5951
344.2483
348.4577
360.4818
393.8942
5346000
5346000
5346000
5346000
5346000
341.8928
342.9065
344.7604
349.2116
360.6471
390.5462
5346000
5346000
5346000
5346000
5346000
341.282
342.0123
343.0023
344.7163
348.4316
357.0405
380.4231
5346000
5346000
5346000
5346000
5346000
340.7256
341.3143
341.9797
342.8272
344.1218
346.5186
351.4227
366.723
5346000
5346000
5346000
5346000
5346000
340.2092
340.7034
341.2329
341.8072
342.4631
343.2717
344.3997
346.1628
352.5379
5346000
5346000
5346000
5346000
5346000
5346000
5346000
5346000
5346000
5346000
5346000
5346000
5346000
5346000
5346000
5346000
5346000
5346000
5346000
5346000
5346000
5346000
5346000
5346000
5346000
5346000
5346000
5346000
5346000
5346000
344.4358
5346000
5346000
5346000
5346000
5346000
5346000
5346000
5346000
5346000
5346000
5346000
5346000
5346000
5346000
5346000
343.4655
343.8578
5346000
5346000
5346000
5346000
5346000
5346000
5346000
5346000
5346000
5346000
5346000
5346000
5346000
5346000
5346000
342.7112
343.0086
343.2978
5346000
5346000
5346000
5346000
5346000
5346000
5346000
5346000
5346000
5346000
5346000
5346000
5346000
5346000
5346000
342.0507
342.3367
342.5761
342.7795
5346000
5346000
5346000
5346000
5346000
5346000
5346000
5346000
5346000
5346000
5346000
5346000
5346000
5346000
5346000
5346000
5346000
5346000
5346000
5346000
348.4761
5346000
5346000
5346000
5346000
5346000
345.5426
359.7562
5346000
5346000
5346000
5346000
5346000
344.3893
349.6924
373.1893
5346000
5346000
5346000
5346000
5346000
343.4042
346.2937
355.3583
385.6993
5346000
5346000
5346000
5346000
5346000
342.5951
344.2483
348.4577
360.4818
393.8942
5346000
5346000
5346000
5346000
5346000
341.9068
342.971
344.9845
349.9396
362.7217
394.811
5346000
5346000
5346000
5346000
5346000
341.3016
342.0819
343.1921
345.2494
349.9332
360.8839
388.0179
5346000
5346000
5346000
5346000
5346000
340.7492
341.3837
342.1234
343.1401
344.8753
348.398
355.863
375.9852
5346000
5346000
5346000
5346000
5346000
340.2366
340.7743
341.3534
342.0049
342.8288
344.0416
346.1156
349.9511
362.164
5346000
5346000
5346000
5346000
5346000
339.7556
340.2165
340.7044
341.2226
341.7808
342.4092
343.1545
344.1109
345.4029
349.7431
5346000
5346000
5346000
5346000
5346000
5346000
5346000
5346000
5346000
5346000
5346000
5346000
5346000
5346000
5346000
344.7764
5346000
5346000
5346000
5346000
5346000
5346000
5346000
5346000
5346000
5346000
5346000
5346000
5346000
5346000
5346000
343.5447
344.08
5346000
5346000
5346000
5346000
5346000
5346000
5346000
5346000
5346000
5346000
5346000
5346000
5346000
5346000
5346000
342.7529
343.0605
343.4326
5346000
5346000
5346000
5346000
5346000
5346000
5346000
5346000
5346000
5346000
5346000
5346000
5346000
5346000
5346000
342.0698
342.3557
342.6025
342.8444
5346000
5346000
5346000
5346000
5346000
5346000
5346000
5346000
5346000
5346000
5346000
5346000
5346000
5346000
5346000
341.4693
341.744
341.9822
342.1652
342.3206
5346000
5346000
5346000
5346000
5346000
5346000
5346000
5346000
5346000
5346000
5346000
5346000
5346000
5346000
5346000
5346000
5346000
5346000
5346000
5346000
5346000
5346000
5346000
5346000
5346000
344.8048
351.7249
5346000
5346000
5346000
5346000
5346000
344.1351
347.7442
365.0514
5346000
5346000
5346000
5346000
5346000
343.3189
345.7056
352.9159
378.7067
5346000
5346000
5346000
5346000
5346000
342.5719
344.1124
347.9161
358.6956
389.7525
5346000
5346000
5346000
5346000
5346000
341.9068
342.971
344.9845
349.9396
362.7217
394.811
5346000
5346000
5346000
5346000
5346000
341.3118
342.1186
343.2951
345.5455
350.773
363.0032
391.9221
5346000
5346000
5346000
5346000
5346000
340.7656
341.4328
342.2293
343.3814
345.4763
349.9115
359.3337
382.1855
5346000
5346000
5346000
5346000
5346000
340.2578
340.8315
341.4543
342.178
343.1655
344.7769
347.7726
353.4701
368.803
5346000
5346000
5346000
5346000
5346000
339.7807
340.2797
340.8038
341.3612
341.9801
342.7413
343.7872
345.3756
347.8535
354.9806
5346000
5346000
5346000
5346000
5346000
339.3311
339.7624
340.2168
340.6932
341.1952
341.7296
342.3159
342.9684
343.6935
344.37
346.5598
5346000
5346000
5346000
5346000
5346000
5346000
5346000
5346000
5346000
5346000
5346000
5346000
5346000
5346000
5346000
343.6257
344.5515
5346000
5346000
5346000
5346000
5346000
5346000
5346000
5346000
5346000
5346000
5346000
5346000
5346000
5346000
5346000
342.8111
343.1345
343.6876
5346000
5346000
5346000
5346000
5346000
5346000
5346000
5346000
5346000
5346000
5346000
5346000
5346000
5346000
5346000
342.1062
342.3904
342.6539
342.9889
5346000
5346000
5346000
5346000
5346000
5346000
5346000
5346000
5346000
5346000
5346000
5346000
5346000
5346000
5346000
341.4868
341.76
341.9992
342.1915
342.3875
5346000
5346000
5346000
5346000
5346000
5346000
5346000
5346000
5346000
5346000
5346000
5346000
5346000
5346000
5346000
340.9286
341.2019
341.436
341.6241
341.7572
342.0515
5346000
5346000
5346000
5346000
5346000
5346000
5346000
5346000
5346000
5346000
5346000
5346000
5346000
5346000
5346000
5346000
5346000
5346000
5346000
5346000
5346000
5346000
5346000
5346000
5346000
5346000
5346000
5346000
5346000
5346000
343.8521
345.5506
353.5732
5346000
5346000
5346000
5346000
5346000
343.2062
344.9465
349.7144
368.404
5346000
5346000
5346000
5346000
5346000
342.5286
343.8635
346.9359
355.4294
381.7332
5346000
5346000
5346000
5346000
5346000
341.8928
342.9065
344.7604
349.2116
360.6471
390.5462
5346000
5346000
5346000
5346000
5346000
341.3118
342.1186
343.2951
345.5455
350.773
363.0032
391.9221
5346000
5346000
5346000
5346000
5346000
340.774
341.4582
342.2856
343.5135
345.8122
350.7598
361.2419
385.318
5346000
5346000
5346000
5346000
5346000
340.2724
340.8714
341.5266
342.3073
343.4285
345.3683
349.1094
356.198
373.0744
5346000
5346000
5346000
5346000
5346000
339.8002
340.3304
340.8857
341.4788
342.1576
343.0532
344.4037
346.618
350.1439
358.4006
5346000
5346000
5346000
5346000
5346000
339.3544
339.8204
340.3051
340.8057
341.3294
341.8958
342.5548
343.3611
344.3513
345.2924
348.5268
5346000
5346000
5346000
5346000
5346000
338.9326
339.3376
339.7626
340.206
340.6669
341.1478
341.6498
342.1764
342.6954
343.0725
343.4498
345.925
5346000
5346000
5346000
5346000
5346000
5346000
5346000
5346000
5346000
5346000
5346000
5346000
5346000
5346000
5346000
342.8423
343.2013
344.1898
5346000
5346000
5346000
5346000
5346000
5346000
5346000
5346000
5346000
5346000
5346000
5346000
5346000
5346000
5346000
342.156
342.4299
342.7267
343.2559
5346000
5346000
5346000
5346000
5346000
5346000
5346000
5346000
5346000
5346000
5346000
5346000
5346000
5346000
5346000
341.5204
341.7881
342.0288
342.243
342.5351
5346000
5346000
5346000
5346000
5346000
5346000
5346000
5346000
5346000
5346000
5346000
5346000
5346000
5346000
5346000
340.9451
341.2164
341.4494
341.6396
341.7835
342.1181
5346000
5346000
5346000
5346000
5346000
5346000
5346000
5346000
5346000
5346000
5346000
5346000
5346000
5346000
5346000
340.4268
340.6942
340.9332
341.1247
341.2698
341.5198
342.0178
5346000
5346000
5346000
5346000
5346000
5346000
5346000
5346000
5346000
5346000
5346000
5346000
5346000
5346000
5346000
5346000
5346000
5346000
5346000
5346000
5346000
5346000
5346000
5346000
5346000
5346000
5346000
5346000
5346000
5346000
5346000
5346000
5346000
5346000
5346000
343.0774
344.1178
346.1972
354.6654
5346000
5346000
5346000
5346000
5346000
342.4697
343.5395
345.689
351.217
370.1802
5346000
5346000
5346000
5346000
5346000
341.8662
342.7864
344.3539
347.9037
356.8782
382.3136
5346000
5346000
5346000
5346000
5346000
341.3016
342.0819
343.1921
345.2494
349.9332
360.8839
388.0179
5346000
5346000
5346000
5346000
5346000
340.774
341.4582
342.2856
343.5135
345.8122
350.7598
361.2419
385.318
5346000
5346000
5346000
5346000
5346000
340.2798
340.8919
341.5643
342.3767
343.5736
345.7004
349.8591
357.6895
375.1848
5346000
5346000
5346000
5346000
5346000
339.8135
340.3656
340.9434
341.564
342.2921
343.3006
344.9061
347.628
351.9153
360.5542
5346000
5346000
5346000
5346000
5346000
339.3725
339.8669
340.3772
340.8995
341.4449
342.0479
342.7913
343.7754
345.0699
346.2772
350.0914
5346000
5346000
5346000
5346000
5346000
338.9544
339.3915
339.8436
340.3054
340.7736
341.2512
341.7437
342.2625
342.7679
343.0805
343.688
347.4881
5346000
5346000
5346000
5346000
5346000
338.558
338.9389
339.3379
339.7525
340.1815
340.6232
341.0769
341.5343
341.9691
342.2474
342.3648
343.1594
345.2738
5346000
5346000
5346000
5346000
5346000
5346000
5346000
5346000
5346000
5346000
5346000
5346000
5346000
5346000
5346000
342.1737
342.4173
342.798
343.7385
5346000
5346000
5346000
5346000
5346000
5346000
5346000
5346000
5346000
5346000
5346000
5346000
5346000
5346000
5346000
341.5661
341.8166
342.0584
342.3175
342.7994
5346000
5346000
5346000
5346000
5346000
5346000
5346000
5346000
5346000
5346000
5346000
5346000
5346000
5346000
5346000
340.9767
341.2417
341.4715
341.6663
341.8357
342.2643
5346000
5346000
5346000
5346000
5346000
5346000
5346000
5346000
5346000
5346000
5346000
5346000
5346000
5346000
5346000
340.4425
340.7078
340.9452
341.1363
341.2845
341.5459
342.0843
5346000
5346000
5346000
5346000
5346000
5346000
5346000
5346000
5346000
5346000
5346000
5346000
5346000
5346000
5346000
339.9571
340.2199
340.4585
340.6616
340.8174
341.0632
341.4899
341.9846
5346000
5346000
5346000
5346000
5346000
5346000
5346000
5346000
5346000
5346000
5346000
5346000
5346000
5346000
5346000
5346000
5346000
5346000
5346000
5346000
5346000
5346000
5346000
5346000
5346000
5346000
5346000
5346000
5346000
5346000
5346000
5346000
5346000
5346000
5346000
5346000
5346000
5346000
5346000
5346000
342.3994
343.1797
344.3536
346.6769
355.2252
5346000
5346000
5346000
5346000
5346000
341.8289
342.6259
343.8326
346.2601
352.0657
370.5113
5346000
5346000
5346000
5346000
5346000
341.282
342.0123
343.0023
344.7163
348.4316
357.0405
380.4231
5346000
5346000
5346000
5346000
5346000
340.7656
341.4328
342.2293
343.3814
345.4763
349.9115
359.3337
382.1855
5346000
5346000
5346000
5346000
5346000
340.2798
340.8919
341.5643
342.3767
343.5736
345.7004
349.8591
357.6895
375.1848
5346000
5346000
5346000
5346000
5346000
339.8204
340.3835
340.9732
341.6089
342.3649
343.4384
345.19
348.1959
352.8808
361.6074
5346000
5346000
5346000
5346000
5346000
339.3849
339.899
340.4276
340.9661
341.5298
342.1661
342.9858
344.1273
345.6782
347.0693
351.15
5346000
5346000
5346000
5346000
5346000
338.9714
339.4348
339.9096
340.3874
340.8634
341.343
341.84
342.3814
342.9365
343.2846
344.0474
348.7903
5346000
5346000
5346000
5346000
5346000
338.5784
338.9894
339.4133
339.8436
340.275
340.7018
341.1196
341.5145
341.851
341.9885
342.219
343.3503
346.512
5346000
5346000
5346000
5346000
5346000
338.2051
338.564
338.9393
339.3285
339.7296
340.1411
340.5589
340.9757
341.3616
341.6081
341.6558
342.1314
342.8339
344.6
5346000
5346000
5346000
5346000
5346000
5346000
5346000
5346000
5346000
5346000
5346000
5346000
5346000
5346000
5346000
341.5814
341.7849
342.0398
342.3998
343.2392
5346000
5346000
5346000
5346000
5346000
5346000
5346000
5346000
5346000
5346000
5346000
5346000
5346000
5346000
5346000
341.0199
341.2666
341.488
341.6933
341.9138
342.5213
5346000
5346000
5346000
5346000
5346000
5346000
5346000
5346000
5346000
5346000
5346000
5346000
5346000
5346000
5346000
340.4725
340.7316
340.9644
341.1547
341.3104
341.5983
342.2301
5346000
5346000
5346000
5346000
5346000
5346000
5346000
5346000
5346000
5346000
5346000
5346000
5346000
5346000
5346000
339.972
340.2328
340.4697
340.6717
340.828
341.0777
341.516
342.051
5346000
5346000
5346000
5346000
5346000
5346000
5346000
5346000
5346000
5346000
5346000
5346000
5346000
5346000
5346000
339.5171
339.7731
340.0117
340.2199
340.3937
340.6372
341.037
341.4606
341.9508
5346000
5346000
5346000
5346000
5346000
5346000
5346000
5346000
5346000
5346000
5346000
5346000
5346000
5346000
5346000
5346000
5346000
5346000
5346000
5346000
5346000
5346000
5346000
5346000
5346000
5346000
5346000
5346000
5346000
5346000
5346000
5346000
5346000
5346000
5346000
5346000
5346000
5346000
5346000
5346000
5346000
5346000
5346000
5346000
5346000
341.7825
342.4418
343.2655
344.5262
346.9363
355.3274
5346000
5346000
5346000
5346000
5346000
341.2539
341.9164
342.7526
344.0414
346.5597
352.1451
369.3986
5346000
5346000
5346000
5346000
5346000
340.7492
341.3837
342.1234
343.1401
344.8753
348.398
355.863
375.9852
5346000
5346000
5346000
5346000
5346000
340.2724
340.8714
341.5266
342.3073
343.4285
345.3683
349.1094
356.198
373.0744
5346000
5346000
5346000
5346000
5346000
339.8204
340.3835
340.9732
341.6089
342.3649
343.4384
345.19
348.1959
352.8808
361.6074
5346000
5346000
5346000
5346000
5346000
339.3913
339.9154
340.4535
341.0007
341.5748
342.2311
343.0962
344.3299
346.0255
347.5062
351.6817
5346000
5346000
5346000
5346000
5346000
338.983
339.4647
339.9556
340.4451
340.928
341.4125
341.9207
342.4947
343.1119
343.5053
344.3647
349.6894
5346000
5346000
5346000
5346000
5346000
338.5943
339.0299
339.4747
339.9186
340.353
340.7701
341.1656
341.5289
341.832
341.9353
342.2226
343.6363
347.5767
5346000
5346000
5346000
5346000
5346000
338.2243
338.6114
339.01
339.4135
339.8155
340.2092
340.5843
340.9248
341.1898
341.2842
341.4094
342.0108
342.9988
345.5734
5346000
5346000
5346000
5346000
5346000
337.8723
338.2108
338.5644
338.9305
339.3072
339.6922
340.082
340.4677
340.8244
341.0528
341.0957
341.4566
341.8754
342.481
343.9223
5346000
5346000
5346000
5346000
5346000
5346000
5346000
5346000
5346000
5346000
5346000
5346000
5346000
5346000
5346000
341.0361
341.2339
341.4471
341.6857
342.0094
342.9327
5346000
5346000
5346000
5346000
5346000
5346000
5346000
5346000
5346000
5346000
5346000
5346000
5346000
5346000
5346000
340.5139
340.7553
340.9773
341.1671
341.3399
341.6782
342.4861
5346000
5346000
5346000
5346000
5346000
5346000
5346000
5346000
5346000
5346000
5346000
5346000
5346000
5346000
5346000
340.0007
340.2556
340.4876
340.6871
340.845
341.1037
341.5683
342.1965
5346000
5346000
5346000
5346000
5346000
5346000
5346000
5346000
5346000
5346000
5346000
5346000
5346000
5346000
5346000
339.5314
339.7854
340.0223
340.2293
340.4027
340.6475
341.0514
341.4866
342.017
5346000
5346000
5346000
5346000
5346000
5346000
5346000
5346000
5346000
5346000
5346000
5346000
5346000
5346000
5346000
339.1035
339.3524
339.5878
339.8006
339.9848
340.2354
340.614
341.0113
341.4307
341.9183
5346000
5346000
5346000
5346000
5346000
5346000
5346000
5346000
5346000
5346000
5346000
5346000
5346000
5346000
5346000
5346000
5346000
5346000
5346000
5346000
5346000
5346000
5346000
5346000
5346000
5346000
5346000
5346000
5346000
5346000
5346000
5346000
5346000
5346000
5346000
5346000
5346000
5346000
5346000
5346000
5346000
5346000
5346000
5346000
5346000
5346000
5346000
5346000
5346000
5346000
341.218
341.8024
342.4726
343.3187
344.604
346.9415
354.9755
5346000
5346000
5346000
5346000
5346000
340.7256
341.3143
341.9797
342.8272
344.1218
346.5186
351.4227
366.723
5346000
5346000
5346000
5346000
5346000
340.2578
340.8315
341.4543
342.178
343.1655
344.7769
347.7726
353.4701
368.803
5346000
5346000
5346000
5346000
5346000
339.8135
340.3656
340.9434
341.564
342.2921
343.3006
344.9061
347.628
351.9153
360.5542
5346000
5346000
5346000
5346000
5346000
339.3913
339.9154
340.4535
341.0007
341.5748
342.2311
343.0962
344.3299
346.0255
347.5062
351.6817
5346000
5346000
5346000
5346000
5346000
338.989
339.4799
339.9791
340.4749
340.9618
341.45
341.9669
342.5632
343.2201
343.6406
344.5457
350.1451
5346000
5346000
5346000
5346000
5346000
338.6053
339.0579
339.5175
339.9712
340.4084
340.8206
341.2051
341.5566
341.8549
341.9525
342.2724
343.8909
348.3255
5346000
5346000
5346000
5346000
5346000
338.2393
338.6495
339.0676
339.4833
339.8868
340.2676
340.6127
340.9058
341.1109
341.1528
341.3031
342.003
343.2288
346.4269
5346000
5346000
5346000
5346000
5346000
337.8904
338.2554
338.6309
339.0104
339.3876
339.7549
340.1024
340.4115
340.648
340.7305
340.8363
341.2546
341.7885
342.6314
344.6733
5346000
5346000
5346000
5346000
5346000
337.5582
337.8777
338.2112
338.5562
338.9106
339.2723
339.6374
339.9984
340.3314
340.5512
340.6001
340.9208
341.241
341.6023
342.1221
343.5348
5346000
5346000
5346000
5346000
5346000
5346000
5346000
5346000
5346000
5346000
5346000
5346000
5346000
5346000
5346000
340.5319
340.7269
340.9345
341.1358
341.3513
341.7804
342.8942
5346000
5346000
5346000
5346000
5346000
5346000
5346000
5346000
5346000
5346000
5346000
5346000
5346000
5346000
5346000
340.0405
340.2791
340.4999
340.6954
340.8591
341.1357
341.6483
342.4515
5346000
5346000
5346000
5346000
5346000
5346000
5346000
5346000
5346000
5346000
5346000
5346000
5346000
5346000
5346000
339.559
339.8074
340.0396
340.2435
340.4165
340.6645
341.0773
341.5389
342.1621
5346000
5346000
5346000
5346000
5346000
5346000
5346000
5346000
5346000
5346000
5346000
5346000
5346000
5346000
5346000
339.1172
339.3643
339.5981
339.8096
339.9931
340.2441
340.6243
341.0257
341.4567
341.9844
5346000
5346000
5346000
5346000
5346000
5346000
5346000
5346000
5346000
5346000
5346000
5346000
5346000
5346000
5346000
338.7142
338.9549
339.1864
339.3998
339.5928
339.8448
340.2148
340.5914
340.9851
341.4021
341.8818
5346000
5346000
5346000
5346000
5346000
5346000
5346000
5346000
5346000
5346000
5346000
5346000
5346000
5346000
5346000
5346000
5346000
5346000
5346000
5346000
5346000
5346000
5346000
5346000
5346000
5346000
5346000
5346000
5346000
5346000
5346000
5346000
5346000
5346000
5346000
5346000
5346000
5346000
5346000
5346000
5346000
5346000
5346000
5346000
5346000
5346000
5346000
5346000
5346000
5346000
5346000
5346000
5346000
5346000
5346000
340.695
341.2295
341.8129
342.4822
343.3244
344.5647
346.6808
354.1077
5346000
5346000
5346000
5346000
5346000
340.2366
340.7743
341.3534
342.0049
342.8288
344.0416
346.1156
349.9511
362.164
5346000
5346000
5346000
5346000
5346000
339.8002
340.3304
340.8857
341.4788
342.1576
343.0532
344.4037
346.618
350.1439
358.4006
5346000
5346000
5346000
5346000
5346000
339.3849
339.899
340.4276
340.9661
341.5298
342.1661
342.9858
344.1273
345.6782
347.0693
351.15
5346000
5346000
5346000
5346000
5346000
338.989
339.4799
339.9791
340.4749
340.9618
341.45
341.9669
342.5632
343.2201
343.6406
344.5457
350.1451
5346000
5346000
5346000
5346000
5346000
338.6109
339.0722
339.5394
339.9982
340.4371
340.8474
341.2279
341.5766
341.8773
341.9754
342.3108
344.0371
348.7084
5346000
5346000
5346000
5346000
5346000
338.2496
338.6758
339.1077
339.5323
339.9372
340.3102
340.6375
340.9049
341.0824
341.1028
341.2632
342.035
343.4325
347.0362
5346000
5346000
5346000
5346000
5346000
337.9045
338.2913
338.685
339.076
339.4542
339.8084
340.1252
340.3843
340.556
340.5824
340.7023
341.1572
341.7787
342.819
345.3386
5346000
5346000
5346000
5346000
5346000
337.5752
337.9197
338.2738
338.6314
338.9863
339.3315
339.6567
339.9457
340.1659
340.2516
340.3549
340.7086
341.087
341.5508
342.2633
344.1827
5346000
5346000
5346000
5346000
5346000
337.2614
337.5632
337.8781
338.2035
338.5375
338.8779
339.2212
339.5602
339.8739
340.0854
340.1461
340.444
340.7333
341.0129
341.3296
341.9063
343.4873
5346000
5346000
5346000
5346000
5346000
5346000
5346000
5346000
5346000
5346000
5346000
5346000
5346000
5346000
5346000
340.0603
340.2561
340.4613
340.6604
340.846
341.1582
341.7511
342.8562
5346000
5346000
5346000
5346000
5346000
5346000
5346000
5346000
5346000
5346000
5346000
5346000
5346000
5346000
5346000
339.5975
339.8308
340.0523
340.2511
340.4258
340.681
341.1096
341.619
342.416
5346000
5346000
5346000
5346000
5346000
5346000
5346000
5346000
5346000
5346000
5346000
5346000
5346000
5346000
5346000
339.1437
339.3856
339.6149