/*--------------------------------*- C++ -*----------------------------------*\
| =========                 |                                                 |
| \\      /  F ield         | OpenFOAM: The Open Source CFD Toolbox           |
|  \\    /   O peration     | Version:  2306                                  |
|   \\  /    A nd           | Website:  www.openfoam.com                      |
|    \\/     M anipulation  |                                                 |
\*---------------------------------------------------------------------------*/
FoamFile
{
    version     2.0;
    format      ascii;
    arch        "LSB;label=32;scalar=64";
    class       volScalarField;
    location    "0.9";
    object      T;
}
// * * * * * * * * * * * * * * * * * * * * * * * * * * * * * * * * * * * * * //

dimensions      [0 0 0 1 0 0 0];

internalField   nonuniform List<scalar> 
52000
(
1189.318
1189.316
1191.127
1189.254
1189.312
1191.126
1189.251
1193.534
1191.106
1189.128
1189.306
1191.124
1189.246
1193.533
1191.105
1189.123
1196.025
1193.533
1191.067
1188.944
1189.3
1191.122
1189.238
1193.532
1191.103
1189.114
1196.025
1193.532
1191.066
1188.935
1198.423
1196.032
1193.534
1191.014
1188.712
1189.292
1191.119
1189.229
1193.53
1191.1
1189.101
1196.023
1193.53
1191.063
1188.919
1198.422
1196.031
1193.532
1191.011
1188.695
1200.672
1198.431
1196.047
1193.539
1190.952
1188.52
1189.285
1191.117
1189.218
1193.527
1191.097
1189.086
1196.021
1193.528
1191.058
1188.896
1198.42
1196.029
1193.529
1191.006
1188.664
1200.671
1198.43
1196.045
1193.536
1190.948
1188.492
1202.767
1200.681
1198.45
1196.072
1193.552
1190.907
1188.396
1189.279
1191.114
1189.209
1193.525
1191.093
1189.069
1196.019
1193.525
1191.053
1188.87
1198.419
1196.026
1193.525
1191
1188.623
1200.67
1198.429
1196.042
1193.532
1190.94
1188.437
1202.766
1200.68
1198.449
1196.07
1193.549
1190.901
1188.36
1204.715
1202.775
1200.7
1198.481
1196.112
1193.573
1190.882
1188.283
1189.275
1191.111
1189.2
1193.522
1191.089
1189.052
1196.016
1193.521
1191.047
1188.842
1198.416
1196.023
1193.52
1190.992
1188.578
1200.668
1198.426
1196.038
1193.525
1190.93
1188.356
1202.765
1200.678
1198.446
1196.065
1193.543
1190.888
1188.287
1204.714
1202.774
1200.698
1198.479
1196.109
1193.569
1190.873
1188.239
1206.529
1204.722
1202.792
1200.73
1198.527
1196.155
1193.591
1190.862
1188.187
1189.273
1191.109
1189.193
1193.52
1191.086
1189.036
1196.014
1193.518
1191.041
1188.809
1198.414
1196.02
1193.514
1190.983
1188.547
1200.666
1198.423
1196.033
1193.516
1190.919
1188.252
1202.763
1200.676
1198.441
1196.058
1193.533
1190.87
1188.175
1204.713
1202.773
1200.696
1198.474
1196.103
1193.562
1190.855
1188.15
1206.528
1204.721
1202.791
1200.728
1198.524
1196.153
1193.587
1190.851
1188.138
1208.222
1206.536
1204.738
1202.821
1200.775
1198.575
1196.188
1193.614
1190.853
1188.114
1189.273
1191.108
1189.19
1193.519
1191.083
1189.024
1196.012
1193.515
1191.035
1188.777
1198.412
1196.016
1193.509
1190.972
1188.475
1200.664
1198.419
1196.027
1193.506
1190.911
1174.873
1202.761
1200.673
1198.436
1196.048
1193.518
1190.85
1188.018
1204.712
1202.77
1200.692
1198.467
1196.093
1193.553
1190.83
1188.011
1206.527
1204.72
1202.789
1200.724
1198.518
1196.148
1193.579
1190.829
1188.037
1208.221
1206.535
1204.737
1202.819
1200.773
1198.573
1196.186
1193.609
1190.84
1188.061
1209.805
1208.228
1206.55
1204.764
1202.862
1200.821
1198.61
1196.225
1193.642
1190.854
1188.067
1189.275
1191.108
1189.19
1193.518
1191.082
1189.018
1196.01
1193.513
1191.03
1188.753
1198.41
1196.013
1193.504
1190.96
1188.403
1200.662
1198.416
1196.021
1193.495
1190.889
1162.433
1202.759
1200.67
1198.43
1196.037
1193.497
1189.318
1162.213
1204.71
1202.768
1200.687
1198.458
1196.077
1193.543
1190.797
1187.814
1206.526
1204.718
1202.785
1200.717
1198.509
1196.141
1193.568
1190.796
1187.879
1208.22
1206.534
1204.735
1202.815
1200.767
1198.569
1196.181
1193.601
1190.814
1187.953
1209.805
1208.227
1206.549
1204.762
1202.86
1200.819
1198.609
1196.222
1193.638
1190.841
1188.012
1211.289
1209.811
1208.241
1206.573
1204.802
1202.905
1200.855
1198.649
1196.265
1193.677
1190.869
1188.047
1189.279
1191.109
1189.193
1193.518
1191.082
1189.018
1196.01
1193.512
1191.028
1188.74
1198.408
1196.011
1193.5
1190.951
1188.349
1200.66
1198.413
1196.016
1193.486
1190.864
1155.529
1202.758
1200.667
1198.425
1196.026
1193.476
1186.364
1131.969
1204.708
1202.765
1200.682
1198.447
1196.05
1192.949
1186.315
1155.116
1206.524
1204.716
1202.781
1200.709
1198.493
1196.134
1193.555
1190.75
1187.655
1208.219
1206.532
1204.732
1202.809
1200.758
1198.563
1196.175
1193.588
1190.773
1187.783
1209.804
1208.226
1206.547
1204.759
1202.855
1200.816
1198.606
1196.218
1193.628
1190.812
1187.9
1211.288
1209.81
1208.24
1206.572
1204.8
1202.903
1200.854
1198.648
1196.263
1193.672
1190.855
1187.992
1212.681
1211.294
1209.822
1208.262
1206.607
1204.84
1202.936
1200.892
1198.691
1196.31
1193.719
1190.898
1188.053
1189.285
1191.111
1189.2
1193.519
1191.083
1189.024
1196.01
1193.512
1191.028
1188.74
1198.407
1196.01
1193.498
1190.946
1188.32
1200.659
1198.411
1196.012
1193.479
1190.843
1151.597
1202.756
1200.665
1198.42
1196.017
1193.458
1183.809
1113.111
1204.706
1202.762
1200.677
1198.436
1196.029
1191.813
1177.599
1112.8
1206.523
1204.713
1202.776
1200.699
1198.466
1195.845
1191.864
1183.706
1150.953
1208.218
1206.53
1204.728
1202.801
1200.744
1198.557
1196.168
1193.57
1190.717
1187.545
1209.803
1208.224
1206.544
1204.753
1202.847
1200.811
1198.601
1196.212
1193.613
1190.768
1187.727
1211.287
1209.809
1208.238
1206.569
1204.795
1202.9
1200.852
1198.645
1196.259
1193.663
1190.827
1187.88
1212.681
1211.293
1209.822
1208.261
1206.606
1204.839
1202.935
1200.891
1198.69
1196.308
1193.714
1190.884
1187.999
1213.99
1212.686
1211.305
1209.842
1208.293
1206.642
1204.868
1202.97
1200.932
1198.736
1196.359
1193.767
1190.939
1188.084
1189.292
1191.114
1189.209
1193.52
1191.086
1189.036
1196.01
1193.513
1191.03
1188.753
1198.407
1196.01
1193.498
1190.946
1188.32
1200.658
1198.41
1196.01
1193.475
1190.831
1149.769
1202.755
1200.663
1198.417
1196.011
1193.444
1181.932
1101.795
1204.705
1202.76
1200.672
1198.428
1196.013
1190.798
1169.96
1084.48
1206.521
1204.711
1202.771
1200.689
1198.446
1195.33
1188.535
1169.839
1100.962
1208.216
1206.527
1204.723
1202.792
1200.719
1198.387
1195.418
1190.885
1181.75
1148.814
1209.801
1208.223
1206.541
1204.746
1202.834
1200.806
1198.597
1196.204
1193.592
1190.706
1187.485
1211.287
1209.808
1208.236
1206.564
1204.788
1202.896
1200.848
1198.642
1196.253
1193.647
1190.782
1187.709
1212.68
1211.292
1209.82
1208.258
1206.602
1204.836
1202.933
1200.89
1198.688
1196.305
1193.705
1190.857
1187.89
1213.99
1212.686
1211.304
1209.84
1208.291
1206.641
1204.867
1202.969
1200.931
1198.735
1196.357
1193.763
1190.927
1188.031
1215.222
1213.995
1212.696
1211.322
1209.87
1208.324
1206.668
1204.899
1203.006
1200.974
1198.783
1196.411
1193.821
1190.992
1188.139
1189.3
1191.117
1189.218
1193.522
1191.089
1189.052
1196.012
1193.515
1191.035
1188.777
1198.408
1196.011
1193.5
1190.951
1188.349
1200.658
1198.41
1196.01
1193.475
1190.831
1149.769
1202.754
1200.662
1198.415
1196.008
1193.437
1180.938
1096.428
1204.704
1202.758
1200.669
1198.422
1196.002
1190.023
1164.302
1066.719
1206.52
1204.709
1202.768
1200.682
1198.432
1194.883
1185.505
1157.478
1066.014
1208.215
1206.525
1204.719
1202.784
1200.701
1198.108
1193.969
1185.534
1163.958
1094.771
1209.8
1208.221
1206.537
1204.738
1202.811
1200.686
1198.203
1195.043
1190.142
1180.65
1148.39
1211.285
1209.806
1208.232
1206.558
1204.776
1202.891
1200.845
1198.637
1196.244
1193.623
1190.719
1187.473
1212.679
1211.291
1209.818
1208.253
1206.595
1204.832
1202.93
1200.887
1198.685
1196.298
1193.69
1190.816
1187.726
1213.989
1212.685
1211.302
1209.838
1208.288
1206.638
1204.865
1202.967
1200.93
1198.734
1196.354
1193.756
1190.904
1187.925
1215.221
1213.994
1212.695
1211.321
1209.868
1208.323
1206.667
1204.898
1203.005
1200.973
1198.783
1196.41
1193.819
1190.982
1188.086
1216.381
1215.226
1214.004
1212.712
1211.348
1209.898
1208.347
1206.695
1204.931
1203.044
1201.017
1198.833
1196.465
1193.88
1191.056
1189.062
1189.306
1191.119
1189.229
1193.525
1191.093
1189.069
1196.014
1193.518
1191.041
1188.809
1198.41
1196.013
1193.504
1190.96
1188.403
1200.659
1198.411
1196.012
1193.479
1190.843
1151.597
1202.754
1200.662
1198.415
1196.008
1193.437
1180.938
1096.428
1204.703
1202.758
1200.668
1198.419
1195.997
1189.602
1161.295
1058.086
1206.519
1204.707
1202.765
1200.676
1198.422
1194.547
1183.168
1148.207
1043.435
1208.214
1206.523
1204.716
1202.777
1200.688
1197.878
1192.671
1180.582
1147.888
1056.118
1209.799
1208.219
1206.533
1204.73
1202.795
1200.503
1197.462
1192.757
1183.209
1160.617
1093.591
1211.284
1209.804
1208.229
1206.55
1204.756
1202.794
1200.594
1198.052
1194.78
1189.757
1180.536
1149.653
1212.678
1211.289
1209.815
1208.248
1206.584
1204.828
1202.927
1200.884
1198.681
1196.289
1193.667
1190.758
1187.504
1213.988
1212.683
1211.3
1209.834
1208.282
1206.635
1204.863
1202.966
1200.928
1198.731
1196.349
1193.743
1190.868
1187.769
1215.221
1213.993
1212.694
1211.319
1209.865
1208.321
1206.665
1204.897
1203.004
1200.973
1198.783
1196.409
1193.814
1190.963
1187.98
1216.381
1215.225
1214.003
1212.711
1211.347
1209.897
1208.347
1206.695
1204.931
1203.043
1201.017
1198.834
1196.466
1193.879
1191.047
1188.99
1217.473
1216.385
1215.234
1214.019
1212.736
1211.374
1209.92
1208.372
1206.724
1204.965
1203.083
1201.062
1198.884
1196.522
1193.942
1191.903
1190.835
1189.312
1191.122
1189.238
1193.527
1191.097
1189.086
1196.016
1193.521
1191.047
1188.842
1198.412
1196.016
1193.509
1190.972
1188.475
1200.66
1198.413
1196.016
1193.486
1190.864
1155.529
1202.755
1200.663
1198.417
1196.011
1193.444
1181.932
1101.795
1204.703
1202.758
1200.668
1198.419
1195.997
1189.602
1161.295
1058.086
1206.519
1204.707
1202.763
1200.674
1198.418
1194.365
1181.891
1143.246
1032.269
1208.213
1206.522
1204.713
1202.772
1200.68
1197.711
1191.676
1176.717
1135.705
1030.735
1209.798
1208.217
1206.53
1204.724
1202.783
1200.361
1196.822
1190.669
1176.71
1142.384
1054.212
1211.283
1209.802
1208.225
1206.543
1204.741
1202.654
1200.137
1196.923
1191.868
1181.946
1160.22
1097.381
1212.677
1211.288
1209.811
1208.241
1206.566
1204.744
1202.738
1200.527
1197.967
1194.686
1189.817
1181.447
1152.84
1213.987
1212.682
1211.297
1209.829
1208.272
1206.631
1204.86
1202.963
1200.925
1198.727
1196.341
1193.724
1190.821
1187.568
1215.22
1213.992
1212.692
1211.315
1209.86
1208.318
1206.663
1204.895
1203.003
1200.971
1198.781
1196.406
1193.806
1190.935
1187.826
1216.38
1215.225
1214.002
1212.709
1211.344
1209.895
1208.345
1206.693
1204.93
1203.043
1201.018
1198.834
1196.467
1193.878
1191.031
1188.83
1217.473
1216.385
1215.234
1214.018
1212.735
1211.373
1209.919
1208.372
1206.724
1204.965
1203.083
1201.063
1198.885
1196.524
1193.943
1191.894
1190.728
1218.502
1217.477
1216.393
1215.249
1214.041
1212.76
1211.394
1209.942
1208.399
1206.755
1205.001
1203.124
1201.109
1198.935
1196.579
1194.687
1193.524
1192.619
1189.316
1191.124
1189.246
1193.53
1191.1
1189.101
1196.019
1193.525
1191.053
1188.87
1198.414
1196.02
1193.514
1190.983
1188.547
1200.662
1198.416
1196.021
1193.495
1190.889
1162.433
1202.756
1200.665
1198.42
1196.017
1193.458
1183.809
1113.111
1204.704
1202.758
1200.669
1198.422
1196.002
1190.023
1164.302
1066.719
1206.519
1204.707
1202.763
1200.674
1198.418
1194.365
1181.891
1143.246
1032.269
1208.212
1206.521
1204.712
1202.77
1200.676
1197.622
1191.134
1174.591
1129.143
1018.062
1209.797
1208.216
1206.528
1204.72
1202.776
1200.261
1196.344
1189.046
1171.586
1128.47
1028.258
1211.282
1209.801
1208.223
1206.537
1204.73
1202.548
1199.757
1195.923
1189.167
1174.564
1141.689
1060.288
1212.676
1211.286
1209.808
1208.235
1206.552
1204.624
1202.398
1199.856
1196.576
1191.475
1182.013
1162.884
1106.65
1213.986
1212.68
1211.294
1209.822
1208.255
1206.556
1204.7
1202.701
1200.508
1197.978
1194.804
1190.355
1183.351
1158.678
1215.219
1213.991
1212.689
1211.31
1209.851
1208.315
1206.661
1204.893
1203.001
1200.969
1198.778
1196.4
1193.793
1190.902
1187.637
1216.38
1215.224
1214
1212.706
1211.339
1209.893
1208.343
1206.692
1204.929
1203.042
1201.017
1198.835
1196.467
1193.876
1191.011
1188.518
1217.472
1216.384
1215.233
1214.016
1212.732
1211.372
1209.917
1208.371
1206.724
1204.965
1203.084
1201.065
1198.888
1196.527
1193.945
1191.881
1190.475
1218.501
1217.476
1216.393
1215.248
1214.04
1212.759
1211.393
1209.942
1208.399
1206.755
1205.001
1203.125
1201.11
1198.938
1196.582
1194.693
1193.517
1192.485
1219.47
1218.505
1217.484
1216.406
1215.269
1214.064
1212.778
1211.415
1209.967
1208.427
1206.787
1205.038
1203.165
1201.155
1198.986
1197.228
1196.11
1195.146
1194.419
1189.318
1191.126
1189.251
1193.532
1191.103
1189.114
1196.021
1193.528
1191.058
1188.896
1198.416
1196.023
1193.52
1190.992
1188.578
1200.664
1198.419
1196.027
1193.506
1190.911
1174.873
1202.758
1200.667
1198.425
1196.026
1193.476
1186.364
1131.969
1204.705
1202.76
1200.672
1198.428
1196.013
1190.798
1169.96
1084.48
1206.519
1204.707
1202.765
1200.676
1198.422
1194.547
1183.168
1148.207
1043.435
1208.212
1206.521
1204.712
1202.77
1200.676
1197.622
1191.134
1174.591
1129.143
1018.062
1209.796
1208.215
1206.526
1204.718
1202.772
1200.209
1196.088
1188.153
1168.752
1120.942
1015.272
1211.281
1209.799
1208.221
1206.534
1204.724
1202.476
1199.483
1195.165
1187.042
1168.704
1127.518
1036.053
1212.675
1211.285
1209.806
1208.23
1206.543
1204.536
1202.125
1199.284
1195.322
1188.461
1174.602
1145.987
1074.854
1213.985
1212.679
1211.292
1209.817
1208.243
1206.449
1204.417
1202.217
1199.712
1196.504
1191.704
1183.494
1168.442
1122.808
1215.218
1213.989
1212.687
1211.305
1209.835
1208.245
1206.517
1204.674
1202.703
1200.552
1198.107
1195.157
1191.362
1186.19
1169.25
1216.379
1215.222
1213.998
1212.701
1211.331
1209.889
1208.341
1206.69
1204.928
1203.041
1201.016
1198.834
1196.466
1193.873
1190.993
1187.64
1217.472
1216.383
1215.231
1214.013
1212.727
1211.369
1209.916
1208.37
1206.723
1204.965
1203.084
1201.066
1198.892
1196.533
1193.95
1191.877
1189.927
1218.501
1217.476
1216.391
1215.246
1214.037
1212.758
1211.392
1209.941
1208.398
1206.755
1205.002
1203.126
1201.113
1198.943
1196.589
1194.711
1193.507
1192.16
1219.47
1218.505
1217.484
1216.405
1215.268
1214.063
1212.778
1211.414
1209.966
1208.427
1206.788
1205.038
1203.167
1201.157
1198.99
1197.238
1196.126
1195.138
1194.266
1220.381
1219.473
1218.512
1217.497
1216.426
1215.29
1214.08
1212.797
1211.437
1209.992
1208.456
1206.821
1205.075
1203.206
1201.2
1199.554
1198.469
1197.531
1196.768
1196.24
1191.127
1189.254
1193.533
1191.105
1189.123
1196.023
1193.53
1191.063
1188.919
1198.419
1196.026
1193.525
1191
1188.623
1200.666
1198.423
1196.033
1193.516
1190.919
1188.252
1202.759
1200.67
1198.43
1196.037
1193.497
1189.318
1162.213
1204.706
1202.762
1200.677
1198.436
1196.029
1191.813
1177.599
1112.8
1206.52
1204.709
1202.768
1200.682
1198.432
1194.883
1185.505
1157.478
1066.014
1208.213
1206.522
1204.713
1202.772
1200.68
1197.711
1191.676
1176.717
1135.705
1030.735
1209.796
1208.215
1206.526
1204.718
1202.772
1200.209
1196.088
1188.153
1168.752
1120.942
1015.272
1211.281
1209.799
1208.22
1206.532
1204.721
1202.439
1199.339
1194.755
1185.865
1165.449
1119.842
1023.989
1212.674
1211.284
1209.804
1208.226
1206.537
1204.477
1201.934
1198.864
1194.359
1186.068
1168.697
1133.092
1054.497
1213.984
1212.677
1211.289
1209.812
1208.235
1206.37
1204.192
1201.817
1199.022
1195.155
1188.764
1176.946
1154.907
1099.249
1215.217
1213.988
1212.684
1211.299
1209.824
1208.147
1206.264
1204.275
1202.146
1199.751
1196.77
1192.611
1186.3
1176.484
1149.201
1216.378
1215.221
1213.995
1212.696
1211.316
1209.825
1208.209
1206.495
1204.682
1202.755
1200.675
1198.371
1195.762
1192.857
1190.088
1181.384
1217.471
1216.382
1215.229
1214.009
1212.72
1211.366
1209.914
1208.368
1206.721
1204.964
1203.084
1201.067
1198.894
1196.539
1193.962
1191.985
1188.493
1218.5
1217.475
1216.39
1215.243
1214.033
1212.755
1211.39
1209.94
1208.397
1206.755
1205.002
1203.128
1201.117
1198.951
1196.601
1194.769
1193.518
1191.469
1219.469
1218.504
1217.483
1216.404
1215.266
1214.061
1212.776
1211.413
1209.966
1208.427
1206.788
1205.04
1203.17
1201.163
1198.998
1197.264
1196.172
1195.129
1193.899
1220.381
1219.473
1218.512
1217.496
1216.425
1215.289
1214.08
1212.797
1211.437
1209.992
1208.456
1206.821
1205.076
1203.209
1201.204
1199.565
1198.491
1197.555
1196.76
1196.077
1221.237
1220.384
1219.48
1218.524
1217.515
1216.445
1215.306
1214.098
1212.818
1211.46
1210.019
1208.486
1206.854
1205.112
1203.247
1201.699
1200.639
1199.706
1198.947
1198.391
1197.213
1193.534
1191.106
1189.128
1196.025
1193.532
1191.066
1188.935
1198.42
1196.029
1193.529
1191.006
1188.664
1200.668
1198.426
1196.038
1193.525
1190.93
1188.356
1202.761
1200.673
1198.436
1196.048
1193.518
1190.85
1188.018
1204.708
1202.765
1200.682
1198.447
1196.05
1192.949
1186.315
1155.116
1206.521
1204.711
1202.771
1200.689
1198.446
1195.33
1188.535
1169.839
1100.962
1208.214
1206.523
1204.716
1202.777
1200.688
1197.878
1192.671
1180.582
1147.888
1056.118
1209.797
1208.216
1206.528
1204.72
1202.776
1200.261
1196.344
1189.046
1171.586
1128.47
1028.258
1211.281
1209.799
1208.22
1206.532
1204.721
1202.439
1199.339
1194.755
1185.865
1165.449
1119.842
1023.989
1212.674
1211.283
1209.803
1208.224
1206.534
1204.447
1201.835
1198.642
1193.832
1184.736
1165.411
1126.116
1044.482
1213.984
1212.677
1211.288
1209.809
1208.229
1206.317
1204.037
1201.533
1198.509
1194.106
1186.41
1171.712
1144.614
1084.572
1215.216
1213.987
1212.682
1211.295
1209.817
1208.075
1206.065
1203.951
1201.68
1199.045
1195.524
1190.148
1181.374
1167.555
1136.465
1216.377
1215.22
1213.993
1212.691
1211.306
1209.734
1207.976
1206.14
1204.231
1202.218
1200.011
1197.415
1194.191
1190.237
1186.459
1173.819
1217.47
1216.38
1215.226
1214.004
1212.707
1211.306
1209.791
1208.188
1206.503
1204.733
1202.868
1200.893
1198.799
1196.692
1195.138
1193.465
1183.651
1218.499
1217.474
1216.388
1215.239
1214.026
1212.753
1211.388
1209.938
1208.396
1206.754
1205.002
1203.129
1201.121
1198.96
1196.62
1195.046
1193.661
1189.879
1219.468
1218.503
1217.481
1216.401
1215.262
1214.059
1212.775
1211.412
1209.965
1208.427
1206.789
1205.042
1203.174
1201.171
1199.012
1197.336
1196.3
1195.137
1193.147
1220.38
1219.472
1218.511
1217.494
1216.422
1215.288
1214.078
1212.796
1211.436
1209.992
1208.457
1206.823
1205.079
1203.214
1201.212
1199.592
1198.55
1197.62
1196.747
1195.693
1221.237
1220.384
1219.48
1218.523
1217.514
1216.445
1215.305
1214.098
1212.818
1211.46
1210.019
1208.487
1206.855
1205.114
1203.25
1201.709
1200.662
1199.738
1198.977
1198.382
1197.05
1222.042
1221.24
1220.391
1219.491
1218.541
1217.534
1216.46
1215.322
1214.117
1212.84
1211.485
1210.046
1208.516
1206.887
1205.148
1203.688
1202.652
1201.719
1200.938
1200.359
1199.249
1197.318
1196.025
1193.533
1191.067
1188.944
1198.422
1196.031
1193.532
1191.011
1188.695
1200.67
1198.429
1196.042
1193.532
1190.94
1188.437
1202.763
1200.676
1198.441
1196.058
1193.533
1190.87
1188.175
1204.71
1202.768
1200.687
1198.458
1196.077
1193.543
1190.797
1187.814
1206.523
1204.713
1202.776
1200.699
1198.466
1195.845
1191.864
1183.706
1150.953
1208.215
1206.525
1204.719
1202.784
1200.701
1198.108
1193.969
1185.534
1163.958
1094.771
1209.798
1208.217
1206.53
1204.724
1202.783
1200.361
1196.822
1190.669
1176.71
1142.384
1054.212
1211.281
1209.799
1208.221
1206.534
1204.724
1202.476
1199.483
1195.165
1187.042
1168.704
1127.518
1036.053
1212.674
1211.283
1209.803
1208.224
1206.534
1204.447
1201.835
1198.642
1193.832
1184.736
1165.411
1126.116
1044.482
1213.983
1212.676
1211.287
1209.807
1208.227
1206.291
1203.958
1201.385
1198.234
1193.528
1185.093
1168.796
1139.058
1077.454
1215.216
1213.986
1212.68
1211.292
1209.812
1208.027
1205.929
1203.726
1201.345
1198.513
1194.538
1188.149
1177.398
1160.735
1128.58
1216.376
1215.218
1213.991
1212.687
1211.299
1209.667
1207.794
1205.855
1203.861
1201.762
1199.41
1196.477
1192.544
1187.392
1182.597
1167.811
1217.469
1216.379
1215.224
1213.999
1212.697
1211.221
1209.574
1207.862
1206.104
1204.307
1202.459
1200.525
1198.47
1196.432
1195.18
1192.702
1177.709
1218.499
1217.472
1216.385
1215.234
1214.014
1212.697
1211.273
1209.77
1208.195
1206.55
1204.836
1203.056
1201.232
1199.476
1198.297
1197.703
1194.418
1186.075
1219.468
1218.502
1217.479
1216.397
1215.255
1214.056
1212.773
1211.411
1209.964
1208.426
1206.788
1205.043
1203.178
1201.18
1199.032
1197.64
1196.737
1195.239
1191.608
1220.38
1219.471
1218.509
1217.492
1216.419
1215.286
1214.077
1212.795
1211.435
1209.992
1208.457
1206.824
1205.083
1203.222
1201.225
1199.663
1198.704
1197.781
1196.741
1194.943
1221.237
1220.383
1219.479
1218.522
1217.512
1216.443
1215.304
1214.097
1212.817
1211.46
1210.019
1208.488
1206.858
1205.119
1203.258
1201.735
1200.722
1199.821
1199.051
1198.365
1196.669
1222.041
1221.24
1220.39
1219.49
1218.54
1217.533
1216.459
1215.322
1214.117
1212.84
1211.485
1210.047
1208.518
1206.889
1205.151
1203.698
1202.674
1201.752
1200.977
1200.391
1199.24
1197.155
1222.795
1222.044
1221.247
1220.401
1219.508
1218.559
1217.547
1216.476
1215.34
1214.137
1212.862
1211.51
1210.074
1208.547
1206.919
1205.541
1204.531
1203.601
1202.794
1202.163
1201.102
1199.341
1197.423
1198.423
1196.032
1193.534
1191.014
1188.712
1200.671
1198.43
1196.045
1193.536
1190.948
1188.492
1202.765
1200.678
1198.446
1196.065
1193.543
1190.888
1188.287
1204.712
1202.77
1200.692
1198.467
1196.093
1193.553
1190.83
1188.011
1206.524
1204.716
1202.781
1200.709
1198.493
1196.134
1193.555
1190.75
1187.655
1208.216
1206.527
1204.723
1202.792
1200.719
1198.387
1195.418
1190.885
1181.75
1148.814
1209.799
1208.219
1206.533
1204.73
1202.795
1200.503
1197.462
1192.757
1183.209
1160.617
1093.591
1211.282
1209.801
1208.223
1206.537
1204.73
1202.548
1199.757
1195.923
1189.167
1174.564
1141.689
1060.288
1212.674
1211.284
1209.804
1208.226
1206.537
1204.477
1201.934
1198.864
1194.359
1186.068
1168.697
1133.092
1054.497
1213.983
1212.676
1211.287
1209.807
1208.227
1206.291
1203.958
1201.385
1198.234
1193.528
1185.093
1168.796
1139.058
1077.454
1215.215
1213.985
1212.679
1211.291
1209.809
1208.002
1205.86
1203.61
1201.169
1198.225
1193.991
1187.022
1175.174
1157.049
1124.762
1216.376
1215.218
1213.989
1212.684
1211.295
1209.622
1207.669
1205.658
1203.6
1201.43
1198.945
1195.707
1191.148
1184.99
1179.501
1163.767
1217.468
1216.378
1215.222
1213.996
1212.691
1211.158
1209.404
1207.601
1205.781
1203.955
1202.101
1200.155
1198.014
1195.788
1194.421
1191.362
1172.728
1218.498
1217.471
1216.383
1215.23
1214.005
1212.617
1211.07
1209.466
1207.829
1206.176
1204.526
1202.897
1201.335
1199.993
1199.425
1198.486
1193.893
1181.417
1219.467
1218.501
1217.477
1216.393
1215.244
1214.004
1212.665
1211.253
1209.776
1208.238
1206.644
1205.003
1203.345
1201.779
1200.746
1200.422
1198.449
1195.586
1188.618
1220.379
1219.47
1218.507
1217.488
1216.412
1215.283
1214.075
1212.794
1211.434
1209.991
1208.457
1206.825
1205.086
1203.23
1201.244
1199.955
1199.193
1198.222
1196.778
1193.559
1221.236
1220.382
1219.477
1218.519
1217.508
1216.441
1215.303
1214.096
1212.817
1211.46
1210.02
1208.49
1206.861
1205.126
1203.27
1201.802
1200.874
1200.017
1199.217
1198.338
1195.943
1222.041
1221.24
1220.389
1219.489
1218.538
1217.532
1216.458
1215.321
1214.116
1212.839
1211.485
1210.048
1208.52
1206.894
1205.158
1203.722
1202.731
1201.836
1201.073
1200.467
1199.22
1196.774
1222.795
1222.044
1221.246
1220.401
1219.507
1218.558
1217.547
1216.475
1215.34
1214.137
1212.862
1211.51
1210.075
1208.549
1206.922
1205.55
1204.552
1203.633
1202.834
1202.206
1201.134
1199.333
1197.26
1223.5
1222.798
1222.051
1221.257
1220.417
1219.524
1218.572
1217.562
1216.492
1215.359
1214.158
1212.885
1211.535
1210.101
1208.576
1207.272
1206.292
1205.371
1204.545
1203.863
1202.807
1201.181
1199.433
1197.528
1200.672
1198.431
1196.047
1193.539
1190.952
1188.52
1202.766
1200.68
1198.449
1196.07
1193.549
1190.901
1188.36
1204.713
1202.773
1200.696
1198.474
1196.103
1193.562
1190.855
1188.15
1206.526
1204.718
1202.785
1200.717
1198.509
1196.141
1193.568
1190.796
1187.879
1208.218
1206.53
1204.728
1202.801
1200.744
1198.557
1196.168
1193.57
1190.717
1187.545
1209.8
1208.221
1206.537
1204.738
1202.811
1200.686
1198.203
1195.043
1190.142
1180.65
1148.39
1211.283
1209.802
1208.225
1206.543
1204.741
1202.654
1200.137
1196.923
1191.868
1181.946
1160.22
1097.381
1212.675
1211.285
1209.806
1208.23
1206.543
1204.536
1202.125
1199.284
1195.322
1188.461
1174.602
1145.987
1074.854
1213.984
1212.677
1211.288
1209.809
1208.229
1206.317
1204.037
1201.533
1198.509
1194.106
1186.41
1171.712
1144.614
1084.572
1215.215
1213.985
1212.679
1211.291
1209.809
1208.002
1205.86
1203.61
1201.169
1198.225
1193.991
1187.022
1175.174
1157.049
1124.762
1216.375
1215.217
1213.989
1212.683
1211.292
1209.6
1207.607
1205.558
1203.465
1201.255
1198.69
1195.271
1190.346
1183.623
1177.797
1161.743
1217.468
1216.377
1215.221
1213.993
1212.687
1211.116
1209.288
1207.421
1205.555
1203.704
1201.834
1199.845
1197.577
1195.109
1193.574
1190.15
1169.289
1218.497
1217.47
1216.382
1215.227
1213.999
1212.558
1210.91
1209.223
1207.533
1205.871
1204.264
1202.73
1201.304
1200.111
1199.707
1198.577
1192.879
1177.364
1219.466
1218.5
1217.475
1216.389
1215.236
1213.929
1212.473
1210.967
1209.433
1207.894
1206.376
1204.914
1203.575
1202.517
1202.141
1201.608
1199.174
1195.18
1185.005
1220.378
1219.469
1218.505
1217.484
1216.402
1215.234
1213.973
1212.645
1211.258
1209.815
1208.323
1206.794
1205.258
1203.815
1202.852
1202.572
1201.046
1199.352
1196.882
1191.245
1221.236
1220.381
1219.475
1218.516
1217.503
1216.439
1215.301
1214.095
1212.816
1211.459
1210.019
1208.491
1206.865
1205.133
1203.287
1202.07
1201.346
1200.525
1199.595
1198.309
1194.664
1222.04
1221.239
1220.388
1219.487
1218.535
1217.53
1216.457
1215.32
1214.116
1212.839
1211.485
1210.049
1208.523
1206.9
1205.169
1203.783
1202.874
1202.032
1201.28
1200.619
1199.183
1196.051
1222.795
1222.044
1221.245
1220.399
1219.505
1218.557
1217.546
1216.475
1215.34
1214.137
1212.863
1211.511
1210.077
1208.553
1206.929
1205.572
1204.605
1203.713
1202.932
1202.306
1201.209
1199.312
1196.88
1223.5
1222.798
1222.05
1221.256
1220.416
1219.524
1218.571
1217.562
1216.492
1215.359
1214.158
1212.886
1211.536
1210.103
1208.578
1207.28
1206.311
1205.4
1204.584
1203.907
1202.85
1201.214
1199.425
1197.366
1224.158
1223.503
1222.804
1222.06
1221.272
1220.433
1219.537
1218.586
1217.578
1216.51
1215.378
1214.179
1212.909
1211.56
1210.128
1208.894
1207.945
1207.039
1206.205
1205.483
1204.424
1202.876
1201.261
1199.526
1197.634
1202.767
1200.681
1198.45
1196.072
1193.552
1190.907
1188.396
1204.714
1202.774
1200.698
1198.479
1196.109
1193.569
1190.873
1188.239
1206.527
1204.72
1202.789
1200.724
1198.518
1196.148
1193.579
1190.829
1188.037
1208.219
1206.532
1204.732
1202.809
1200.758
1198.563
1196.175
1193.588
1190.773
1187.783
1209.801
1208.223
1206.541
1204.746
1202.834
1200.806
1198.597
1196.204
1193.592
1190.706
1187.485
1211.284
1209.804
1208.229
1206.55
1204.756
1202.794
1200.594
1198.052
1194.78
1189.757
1180.536
1149.653
1212.676
1211.286
1209.808
1208.235
1206.552
1204.624
1202.398
1199.856
1196.576
1191.475
1182.013
1162.884
1106.65
1213.984
1212.677
1211.289
1209.812
1208.235
1206.37
1204.192
1201.817
1199.022
1195.155
1188.764
1176.946
1154.907
1099.249
1215.216
1213.986
1212.68
1211.292
1209.812
1208.027
1205.929
1203.726
1201.345
1198.513
1194.538
1188.149
1177.398
1160.735
1128.58
1216.375
1215.217
1213.989
1212.683
1211.292
1209.6
1207.607
1205.558
1203.465
1201.255
1198.69
1195.271
1190.346
1183.623
1177.797
1161.743
1217.468
1216.377
1215.22
1213.992
1212.685
1211.095
1209.23
1207.33
1205.44
1203.574
1201.69
1199.667
1197.312
1194.688
1193.051
1189.454
1167.55
1218.497
1217.469
1216.38
1215.224
1213.995
1212.518
1210.802
1209.055
1207.327
1205.657
1204.073
1202.587
1201.214
1200.049
1199.682
1198.438
1191.931
1174.502
1219.466
1218.499
1217.474
1216.386
1215.23
1213.873
1212.323
1210.739
1209.157
1207.615
1206.152
1204.818
1203.68
1202.879
1202.741
1202.143
1199.342
1194.407
1181.78
1220.377
1219.468
1218.504
1217.481
1216.394
1215.164
1213.793
1212.376
1210.935
1209.493
1208.076
1206.725
1205.51
1204.573
1204.241
1203.805
1202.092
1199.955
1196.539
1188.51
1221.235
1220.38
1219.474
1218.512
1217.493
1216.393
1215.205
1213.955
1212.649
1211.293
1209.893
1208.46
1207.024
1205.676
1204.755
1204.455
1203.111
1201.798
1200.341
1198.255
1192.662
1222.04
1221.238
1220.386
1219.484
1218.53
1217.528
1216.456
1215.319
1214.115
1212.838
1211.485
1210.05
1208.526
1206.907
1205.185
1204.027
1203.31
1202.528
1201.733
1200.908
1199.121
1194.783
1222.794
1222.043
1221.244
1220.397
1219.502
1218.555
1217.545
1216.474
1215.339
1214.137
1212.863
1211.513
1210.08
1208.558
1206.939
1205.628
1204.736
1203.897
1203.141
1202.503
1201.347
1199.274
1196.16
1223.5
1222.797
1222.049
1221.255
1220.415
1219.523
1218.571
1217.561
1216.492
1215.359
1214.159
1212.887
1211.538
1210.107
1208.584
1207.301
1206.36
1205.475
1204.678
1204.01
1202.949
1201.288
1199.404
1196.987
1224.158
1223.503
1222.804
1222.06
1221.271
1220.433
1219.536
1218.586
1217.578
1216.51
1215.379
1214.18
1212.91
1211.562
1210.13
1208.902
1207.963
1207.067
1206.241
1205.525
1204.468
1202.919
1201.294
1199.517
1197.472
1224.77
1224.161
1223.509
1222.814
1222.075
1221.287
1220.445
1219.55
1218.601
1217.594
1216.528
1215.398
1214.201
1212.932
1211.585
1210.417
1209.502
1208.616
1207.782
1207.034
1205.975
1204.484
1202.945
1201.341
1199.618
1197.733
1204.715
1202.775
1200.7
1198.481
1196.112
1193.573
1190.882
1188.283
1206.528
1204.721
1202.791
1200.728
1198.524
1196.153
1193.587
1190.851
1188.138
1208.22
1206.534
1204.735
1202.815
1200.767
1198.569
1196.181
1193.601
1190.814
1187.953
1209.803
1208.224
1206.544
1204.753
1202.847
1200.811
1198.601
1196.212
1193.613
1190.768
1187.727
1211.285
1209.806
1208.232
1206.558
1204.776
1202.891
1200.845
1198.637
1196.244
1193.623
1190.719
1187.473
1212.677
1211.288
1209.811
1208.241
1206.566
1204.744