/*--------------------------------*- C++ -*----------------------------------*\
| =========                 |                                                 |
| \\      /  F ield         | OpenFOAM: The Open Source CFD Toolbox           |
|  \\    /   O peration     | Version:  2306                                  |
|   \\  /    A nd           | Website:  www.openfoam.com                      |
|    \\/     M anipulation  |                                                 |
\*---------------------------------------------------------------------------*/
FoamFile
{
    version     2.0;
    format      ascii;
    arch        "LSB;label=32;scalar=64";
    class       volScalarField;
    location    "0.6";
    object      contErrCp;
}
// * * * * * * * * * * * * * * * * * * * * * * * * * * * * * * * * * * * * * //

dimensions      [1 -1 -3 -1 0 0 0];

internalField   nonuniform List<scalar> 
52000
(
0
0
0
0
0
0
0
0
0
0
0
0
0
0
0
0
0
0
0
0
0
0
0
0
0
0
0
0
0
0
0
0
0
0
0
0
0
0
0
0
0
0
0
0
0
0
0
0
0
0
0
0
0
0
0
0
0
0
0
0
0
0
0
0
0
0
0
0
0
0
0
0
0
0
0
0
0
0
0
0
0
0
0
0
0
0
0
0
0
0
0
0
0
0
0
0
0
0
0
0
0
0
0
0
0
0
0
0
0
0
0
0
0
0
0
0
0
0
0
0
0
0
0
0
0
0
0
0
0
0
0
0
0
0
0
0
0
0
0
0
0
0
0
0
0
0
0
0
0
0
0
0
0
0
0
0
0
0
0
0
0
0
0
0
0
0
0
0
0
0
0
0
0
0
0
0
0
0
0
0
0
0
0
0
0
0
0
0
0
0
0
0
0
0
0
0
0
0
0
0
0
0
0
0
0
0
0
0
0
0
0
0
0
0
0
0
0
0
0
0
0
0
0
0
0
0
0
0
0
0
0
0
0
0
0
0
0
0
0
0
0.0002853647
0
0
0
0
0
0
0
0
0
0
0
0
0
0
0
0
0
0
0
0
0
0
0
0
0
0
0
0
0
0
0
0
0
0
0
0
0
0
0
0
0
0
0
0
0
0
0
0
0
0
0
0
0
0
0
0
0
0
0
0
0
0
0
0
0
-0.0005901441
0
0
0
0
0
4.777118e-05
-0.000535444
0
0
0
0
0
0
0
0
0
0
0
0
0
0
0
0
0
0
0
0
0
0
0
0
0
0
0
0
0
0
0
0
0
0
0
0
0
0
0
0
0
0
0
0
0
0
0
0
0
0
0
0
0
0
0
0
0
0
0
0
0
0
0
0
0
0
0
0
0
0
0.0007033046
0
0
0
0
0
8.189897e-05
0.0005914273
0
0
0
0
0
-0.0004850814
0.0002182765
-7.940912e-05
0
0
0
0
0
0
0
0
0
0
0
0
0
0
0
0
0
0
0
0
0
0
0
0
0
0
0
0
0
0
0
0
0
0
0
0
0
0
0
0
0
0
0
0
0
0
0
0
0
0
0
0
0
0
0
0
0
0
0
0
0
0
0
0
0
0
0
0
0
0
0
0
0
0
0
-1.991982e-05
0
0
0
0
0
9.909028e-05
-0.001917805
0
0
0
0
0
0.0001834654
-0.0005589085
0.0004707845
0
0
0
0
0
-9.389688e-05
0.0007178518
0.0002783288
-1.105798e-05
0
0
0
0
0
0
0
0
0
0
0
0
0
0
0
0
0
0
0
0
0
0
0
0
0
0
0
0
0
0
0
0
0
0
0
0
0
0
0
0
0
0
0
0
0
0
0
0
0
0
0
0
0
0
0
0
0
0
0
0
0
0
0
0
0
0
0
0
0
0
0
0
0
0
0
0
0
0
0
0
-0.0007878559
0
0
0
0
0
4.0704e-05
0.0001270275
0
0
0
0
0
-0.0001151227
0.00104454
0.0009310415
0
0
0
0
0
-0.0004591904
-0.0007167041
-0.001302959
-0.0008044562
0
0
0
0
0
-0.0003397988
-0.0002012823
-0.0001431925
0.0004671571
-0.0008163985
0
0
0
0
0
0
0
0
0
0
0
0
0
0
0
0
0
0
0
0
0
0
0
0
0
0
0
0
0
0
0
0
0
0
0
0
0
0
0
0
0
0
0
0
0
0
0
0
0
0
0
0
0
0
0
0
0
0
0
0
0
0
0
0
0
0
0
0
0
0
0
0
0
0
0
0
0
0
0
0
0
0
0
0
0
0.0001457147
0
0
0
0
0
0.0003208225
0.001708951
0
0
0
0
0
-0.0001264409
-5.426324e-05
0.0003315276
0
0
0
0
0
0.0004469538
-0.001150886
0.0001955173
-0.0002468865
0
0
0
0
0
0.0007928368
0.0002573928
-3.79548e-05
-0.0005675479
0.001491573
0
0
0
0
0
0.0001855933
5.396349e-05
6.174763e-05
0.0001382938
4.57912e-05
0.001632008
0
0
0
0
0
0
0
0
0
0
0
0
0
0
0
0
0
0
0
0
0
0
0
0
0
0
0
0
0
0
0
0
0
0
0
0
0
0
0
0
0
0
0
0
0
0
0
0
0
0
0
0
0
0
0
0
0
0
0
0
0
0
0
0
0
0
0
0
0
1.93785e-07
0
0
0
0
0
0
0
0
0
0
0
0
0
0
0
0
0
0
0
0
7.062484e-05
0
0
0
0
0
-0.0003127859
-0.0003453506
0
0
0
0
0
-1.382149e-05
-0.00211427
-0.001503276
0
0
0
0
0
-0.0005669784
0.001065937
0.0002262366
-0.0007028718
0
0
0
0
0
-7.905219e-05
-0.0001311159
0.001938483
0.001765333
0.001048654
0
0
0
0
0
0.000534365
0.001122083
-0.0001878186
0.001345563
0.0001094242
-0.001392125
0
0
0
0
0
0.0001935683
2.783291e-05
0.0001046806
-0.0005723225
0.0004572017
0.0002488445
-0.0004388694
0
0
0
0
0
0
0
0
0
0
0
0
0
0
0
0
0
0
0
0
0
0
0
0
0
0
0
0
0
0
0
0
0
0
0
0
0
0
0
0
0
0
0
0
0
0
0
0
0
0
0
0
0
0
0
0
0
-1.278797e-06
0
0
0
0
0
0
0
0
0
0
0
0
0
0
0
-5.091801e-07
5.376512e-07
0
0
0
0
0
0
0
0
0
0
0
0
0
0
0
0
0
0
0
0
2.230849e-06
0
0
0
0
0
0.000986327
-0.001039933
0
0
0
0
0
-0.0002303418
0.001077913
-0.001404481
0
0
0
0
0
-4.457117e-05
-0.001218251
0.001875854
0.0009645984
0
0
0
0
0
0.0002089958
-0.0006861683
-0.0007930688
-0.002223493
-0.0009379396
0
0
0
0
0
-0.0006375868
-0.001555283
0.001093351
-0.001356703
0.0006316276
-0.001810544
0
0
0
0
0
-0.0008130413
-0.0008553414
-0.001448385
-0.0001283551
-0.001579905
-0.0006719058
-0.0003403506
0
0
0
0
0
-9.780806e-05
-0.0006715784
0.0001929738
0.0003124771
0.0008913032
-0.0006735154
-0.0009291644
8.606883e-05
0
0
0
0
0
0
0
0
0
0
0
0
0
0
0
0
0
0
0
0
0
0
0
0
0
0
0
0
0
0
0
0
0
0
0
0
0
0
0
0
0
0
0
0
2.09539e-06
0
0
0
0
0
0
0
0
0
0
0
0
0
0
0
-1.012118e-06
-6.355845e-06
0
0
0
0
0
0
0
0
0
0
0
0
0
0
0
-3.375878e-07
7.600923e-08
-1.642232e-06
0
0
0
0
0
0
0
0
0
0
0
0
0
0
0
0
0
0
0
0
-0.0003780483
0
0
0
0
0
-0.0009372764
0.001274985
0
0
0
0
0
-0.0001374546
-0.001463128
0.0003983942
0
0
0
0
0
-0.000247377
0.0007583074
-0.00025554
0.0003881212
0
0
0
0
0
0.000430099
0.00107273
0.0003039881
-0.0009760767
-0.0001679805
0
0
0
0
0
0.0001834387
-0.001808228
0.0004755325
0.0001869566
0.001110049
0.001318115
0
0
0
0
0
-0.0005840074
-0.001329052
0.001134961
-3.145574e-05
0.000361796
-0.0005453904
-0.0008238803
0
0
0
0
0
-0.0005464157
0.001361485
-0.0002600462
0.0003134303
-0.001451953
0.0006384049
0.002792491
0.0003344914
0
0
0
0
0
0.0001735232
0.0008357563
0.0009253238
-0.0005766912
-0.000657016
-0.0007733796
-0.000266717
5.528954e-05
-0.0002401518
0
0
0
0
0
0
0
0
0
0
0
0
0
0
0
0
0
0
0
0
0
0
0
0
0
0
0
0
0
0
-1.572114e-07
0
0
0
0
0
0
0
0
0
0
0
0
0
0
0
-3.339164e-06
-5.18007e-06
0
0
0
0
0
0
0
0
0
0
0
0
0
0
0
-1.863999e-06
-5.250811e-06
-2.101629e-06
0
0
0
0
0
0
0
0
0
0
0
0
0
0
0
-7.005147e-07
-4.557538e-06
-4.461594e-06
6.506198e-06
0
0
0
0
0
0
0
0
0
0
0
0
0
0
0
0
0
0
0
0
-0.000124805
0
0
0
0
0
0.0004576522
-0.0005295444
0
0
0
0
0
0.0001381349
0.0009534529
0.0004832818
0
0
0
0
0
0.0003480034
0.0007531477
0.0009841357
0.0001588278
0
0
0
0
0
-0.0002855767
0.0001134374
-0.0002455517
0.001456722
-0.001008362
0
0
0
0
0
0.0004609256
0.0004899669
-0.001648175
-0.001805953
-0.001115183
0.0002090255
0
0
0
0
0
0.0005839507
0.0009098394
0.0003114353
-3.833306e-05
0.0001147923
-0.001265917
-0.001006053
0
0
0
0
0
0.000237689
0.001189604
0.001971229
-0.0001547686
0.0008828725
0.0003292766
-0.001135294
0.002231607
0
0
0
0
0
0.0001068819
-0.000206314
0.0001280044
0.002578062
0.001712857
0.001246446
0.0003828204
-0.001866807
-0.0006196552
0
0
0
0
0
-0.000215638
-0.0007179108
-0.000739621
-0.0002698048
0.0004765709
0.0003217651
0.0005886098
5.080641e-05
0.000506478
-3.341318e-05
0
0
0
0
0
0
0
0
0
0
0
0
0
0
0
-4.737557e-06
0
0
0
0
0
0
0
0
0
0
0
0
0
0
0
3.804258e-07
-1.094417e-06
0
0
0
0
0
0
0
0
0
0
0
0
0
0
0
-2.337407e-06
3.127903e-06
-7.654952e-06
0
0
0
0
0
0
0
0
0
0
0
0
0
0
0
1.26948e-06
-6.512217e-07
9.877526e-07
8.035307e-06
0
0
0
0
0
0
0
0
0
0
0
0
0
0
0
1.515888e-06
-2.598518e-06
-3.532318e-06
2.794144e-06
-5.694103e-06
0
0
0
0
0
0
0
0
0
0
0
0
0
0
0
0
0
0
0
0
0
0
0
0
0
-0.0006381576
0.0004174333
0
0
0
0
0
0.0002114015
0.0005553503
0.0003942522
0
0
0
0
0
-0.0004732842
0.0006205197
-0.001296674
-0.00133429
0
0
0
0
0
0.0001627662
-0.001261389
-0.001801379
0.0009222409
0.002272268
0
0
0
0
0
0.0001698759
-0.0004628249
0.0008241141
0.0009735445
-0.0006807143
0.0007375652
0
0
0
0
0
-0.0002654277
-0.0008449137
0.0002272462
0.0004279646
0.001359097
0.002327207
-0.0002116293
0
0
0
0
0
8.689761e-06
-0.001775104
-4.880049e-05
-0.0007138868
-6.165267e-05
-0.000797158
-0.0009787136
-5.113133e-05
0
0
0
0
0
0.0003238648
0.0002950714
-0.000608528
-0.0001790414
-0.001486831
-0.001522169
0.0002349757
0.00164079
-0.0006486036
0
0
0
0
0
-0.0002230466
0.00105018
0.001394477
-0.0009343704
-0.001425317
-0.000380538
-0.0004983998
-0.0001042921
0.0003135497
0.0002604028
0
0
0
0
0
0.0003060345
0.0002687932
-4.738412e-05
0.000962415
0.0003940662
0.0003511814
0.0003590176
-0.0006644231
0.0002298134
-0.0003728996
0.0001118439
0
0
0
0
0
0
0
0
0
0
0
0
0
0
0
-2.017502e-06
-4.904451e-06
0
0
0
0
0
0
0
0
0
0
0
0
0
0
0
2.155822e-07
3.750504e-07
1.559441e-06
0
0
0
0
0
0
0
0
0
0
0
0
0
0
0
-1.805285e-06
1.438843e-06
-5.687942e-06
2.248739e-07
0
0
0
0
0
0
0
0
0
0
0
0
0
0
0
-9.244735e-07
2.018236e-06
3.464553e-06
1.171172e-06
-2.109187e-06
0
0
0
0
0
0
0
0
0
0
0
0
0
0
0
5.582236e-07
-4.455026e-06
4.925463e-07
1.264898e-06
1.524375e-06
6.012262e-05
0
0
0
0
0
0
0
0
0
0
0
0
0
0
0
0
0
0
0
0
0
0
0
0
0
0
0
0
0
0
-7.210574e-05
0.0005015484
-0.0001314654
0
0
0
0
0
0.000708549
-0.001358456
0.0001210332
-0.001154941
0
0
0
0
0
0.0002162049
0.001338354
-0.001473029
0.000608421
0.0007709124
0
0
0
0
0
7.545784e-05
0.0002524725
-0.0001014676
0.0005588856
-0.002350843
-0.00173571
0
0
0
0
0
0.0007552109
0.0009366161
0.000248755
-0.001479908
-0.0007235084
-0.0004457159
-0.0003568081
0
0
0
0
0
0.0006029624
0.001349112
-0.0008612557
-0.001520239
-0.0006263108
-0.0004295424
-0.0001819105
-0.001705605
0
0
0
0
0
-0.0006045254
-0.001229197
-0.001317406
-0.0004207723
0.0008049952
4.080006e-05
0.001675175
0.000656084
0.001613228
0
0
0
0
0
-0.0003364133
-0.0006108055
-0.001395769
0.0008931317
0.000148226
0.0009302267
0.0002973708
-0.0003589143
-0.0006759354
-0.0002656248
0
0
0
0
0
-0.0002682212
-0.0002771399
0.0001996754
-0.0007387787
-0.0009345348
5.673262e-05
-0.0009331054
0.001701836
-0.0004740809
0.001944864
0.0001021076
0
0
0
0
0
0.0004928306
-0.0007653029
-0.0002027159
0.0002697685
0.0002199574
0.0002490623
-0.0001696612
0.0002505025
0.0003260818
-0.0001319512
-9.61496e-05
5.36346e-06
0
0
0
0
0
0
0
0
0
0
0
0
0
0
0
4.450495e-06
-2.361827e-06
1.613305e-06
0
0
0
0
0
0
0
0
0
0
0
0
0
0
0
-2.727867e-06
2.050286e-06
4.033179e-06
-1.110576e-05
0
0
0
0
0
0
0
0
0
0
0
0
0
0
0
4.148758e-07
1.733939e-06
1.545878e-06
-1.966996e-06
6.432658e-06
0
0
0
0
0
0
0
0
0
0
0
0
0
0
0
6.534999e-07
4.069642e-07
2.888567e-06
-2.179242e-06
1.888941e-06
-3.466649e-05
0
0
0
0
0
0
0
0
0
0
0
0
0
0
0
9.992079e-07
-6.603848e-07
2.132545e-07
-1.57526e-06
-5.616994e-07
-1.778259e-05
-2.883795e-05
0
0
0
0
0
0
0
0
0
0
0
0
0
0
0
0
0
0
0
0
0
0
0
0
0
0
0
0
0
0
0
0
0
0
0
6.402257e-05
-4.544785e-05
-8.572223e-05
-2.825726e-05
0
0
0
0
0
6.804647e-05
-0.002013963
0.0007342226
-0.001414343
-0.000192552
0
0
0
0
0
-0.000397518
0.0002657255
-0.0001773278
0.00171161
0.000152778
-0.001765965
0
0
0
0
0
-0.0007954718
-0.0002197287
-0.00113907
0.00104775
0.0007471398
0.0009935848
0.001237556
0
0
0
0
0
-0.0005861132
-0.0005177882
-0.000344157
0.001646255
0.001432676
-0.0008320865
-0.0004542041
0.00225488
0
0
0
0
0
0.0001641261
-0.0004922865
0.001556426
0.0003741293
0.0005958019
0.0001798279
-0.0006921956
-0.0004090853
-0.001168002
0
0
0
0
0
0.0002561288
2.126274e-05
0.002101229
0.001522817
0.00103119
-0.001283049
-0.0008114874
-0.001355078
-5.462167e-05
-6.538972e-05
0
0
0
0
0
0.0001331763
-2.860166e-06
0.001778538
6.317103e-05
-0.000142342
0.0007230582
-2.715235e-05
-0.002096104
0.001306757
-0.001620403
-0.0002248024
0
0
0
0
0
-0.0004808951
0.0006120966
0.001223337
0.0003369059
-0.001600332
-0.0004072637
-0.0003922187
1.284132e-05
-0.0007223517
-4.880355e-05
-0.0008891444
3.190624e-07
0
0
0
0
0
0.0002546701
-0.0008533397
0.0005298316
0.0006710907
-0.0008138478
-0.0004619114
-0.0004149188
-3.624161e-05
0.0006436693
-3.977922e-05
0.0001040993
-2.924252e-06
-9.68768e-07
0
0
0
0
0
0
0
0
0
0
0
0
0
0
0
2.246862e-06
-7.130124e-07
4.472547e-06
1.139638e-06
0
0
0
0
0
0
0
0
0
0
0
0
0
0
0
-4.533018e-08
1.832463e-08
1.906447e-06
4.083549e-07
7.027489e-06
0
0
0
0
0
0
0
0
0
0
0
0
0
0
0
2.588125e-07
2.173823e-07
7.750644e-07
5.131778e-07
1.407445e-06
-2.783594e-05
0
0
0
0
0
0
0
0
0
0
0
0
0
0
0
-6.699e-07
7.883161e-07
-8.235438e-07
1.808482e-06
-2.9202e-06
1.136905e-05
4.490887e-05
0
0
0
0
0
0
0
0
0
0
0
0
0
0
0
-1.176104e-07
-2.725761e-06
-1.462194e-06
5.180041e-07
1.129331e-06
1.067029e-06
3.28568e-05
1.448836e-05
0
0
0
0
0
0
0
0
0
0
0
0
0
0
0
0
0
0
0
0
0
0
0
0
0
0
0
0
0
0
0
0
0
0
0
0
0
0
0
0
-0.0001622688
0.0005230613
0.0001913374
0.0001671849
0.0006473201
0
0
0
0
0
0.0005104436
-9.080889e-05
0.0008496825
-0.001431654
-0.0003254534
0.001525937
0
0
0
0
0
0.0008847437
-0.0004894409
-0.001032339
8.670808e-05
-0.001566061
0.0006336503
0.0006918993
0
0
0
0
0
0.001097736
0.0008321035
-5.461793e-05
0.000933006
-0.0009862033
0.0002149094
-0.0004083438
-0.001111532
0
0
0
0
0
0.0004431665
-0.0003390511
-0.0009298598
-0.0004701924
0.0004407967
-0.0002433195
0.001839708
9.815164e-05
-0.001850462
0
0
0
0
0
-0.0004392327
-0.0003398301
-0.001492608
-0.001137657
-0.0002229464
0.001157823
-0.0005944571
0.0002580647
0.00108016
0.001103042
0
0
0
0
0
0.000268683
0.0004973507
-0.001226946
-0.000760452
-0.0006794792
-0.0005044316
0.0001846082
0.00133854
-0.0001009794
-0.0002418307
-0.000624467
0
0
0
0
0
0.0008963341
-1.866436e-05
-0.0001869788
-0.000523225
0.0005540829
0.0005790496
-0.0009889792
8.493129e-05
0.002665852
-0.0008783489
0.0006172671
-4.849115e-06
0
0
0
0
0
-0.0001735855
0.001119609
-0.0003473641
-0.002569368
0.0008752434
0.0002341152
-0.0005317227
0.0009320043
-0.0008049926
-7.657669e-05
0.0002311905
2.99482e-06
-3.765797e-07
0
0
0
0
0
-0.0001024363
-2.105702e-05
-0.0004407269
0.0001788639
-2.441663e-05
0.0006297113
0.0005564647
-0.0002050058
-4.101346e-05
-0.0006142
5.778087e-05
4.558063e-06
-1.640568e-07
1.522168e-06
0
0
0
0
0
0
0
0
0
0
0
0
0
0
0
7.966627e-07
-2.262984e-06
4.344517e-06
4.366531e-07
1.853987e-06
0
0
0
0
0
0
0
0
0
0
0
0
0
0
0
-1.663382e-06
7.433417e-07
-1.732097e-07
1.380604e-06
3.446467e-06
4.821516e-05
0
0
0
0
0
0
0
0
0
0
0
0
0
0
0
-1.152965e-06
1.353263e-09
9.058639e-07
2.282706e-06
6.235401e-06
-1.606623e-05
1.771779e-05
0
0
0
0
0
0
0
0
0
0
0
0
0
0
0
-7.267266e-07
-1.526381e-06
-2.932905e-07
4.437143e-07
-2.959885e-06
7.668201e-06
1.795711e-05
3.039729e-05
0
0
0
0
0
0
0
0
0
0
0
0
0
0
0
-1.567477e-07
-5.251905e-06
1.096125e-07
1.518128e-06
-4.485453e-07
1.82258e-05
1.675707e-05
-1.576296e-05
-1.506623e-05
0
0
0
0
0
0
0
0
0
0
0
0
0
0
0
0
0
0
0
0
0
0
0
0
0
0
0
0
0
0
0
0
0
0
0
0
0
0
0
0
0
0
0
0
0
0.0001748882
0.0005636179
-0.0002602979
0.0001128682
0.0008255164
-8.062192e-05
0
0
0
0
0
-0.0005357052
0.0004081242
0.001150466
-0.0002075881
0.001713056
0.0005674556
-0.0015794
0
0
0
0
0
0.0001447353
-0.001307502
0.0003733858
0.0005936241
0.0005033721
-0.0002452001
-0.001630765
0.001754594
0
0
0
0
0
-3.9775e-05
-0.001099108
-0.0004893106
0.0002674013
-0.001069183
0.001759178
-0.001233073
0.001285526
0.0003045362
0
0
0
0
0
0.0002995184
-0.0006589988
0.001819625
0.001066801
-0.0008225322
-0.001317427
0.0002304668
-0.00196597
0.0001133814
0.0006110643
0
0
0
0
0
-0.000284263
0.000542672
-5.208571e-05
0.001536015
0.0004197298
7.899636e-05
0.0001873122
-0.001358522
0.00175287
-0.0001953869
-0.0004486817
0
0
0
0
0
-0.0004099179
-0.0007276658
0.0004296313
-0.000263289
-0.0001128729
-0.0001332161
0.0001656213
-0.0006386067
-0.001212996
0.001242344
0.0003087071
4.508425e-06
0
0
0
0
0
-0.0005386376
-0.0008693898
0.0009509665
1.79002e-05
-0.001439143
0.0003291255
0.0007643767
-0.0001495524
-0.000280026
-0.001518406
0.0001633778
-3.449006e-06
4.983167e-06
0
0
0
0
0
-0.0001562158
0.0001770421
-0.001053462
0.0001161316
0.002020047
-0.0008560363
0.0007785712
0.0006602531
-0.001042743
2.856818e-05
6.499152e-05
7.899782e-07
1.116811e-06
-1.598227e-06
0
0
0
0
0
-0.0001431032
0.0005991466
-0.0005384818
0.0005184288
0.0004784138
-0.0009400354
-0.0006017372
-0.0002988366
0.0003344238
-1.40912e-05
-0.0001079247
5.509436e-08
3.197751e-06
-1.220263e-06
-2.067456e-06
0
0
0
0
0
0
0
0
0
0
0
0
0
0
0
-1.319483e-06
-9.446573e-07
2.438908e-06
1.246745e-06
1.281798e-06
1.663662e-05
0
0
0
0
0
0
0
0
0
0
0
0
0
0
0
-1.520686e-06
1.80111e-06
-3.798218e-07
-1.394324e-06
4.342757e-06
8.432485e-06
-2.716371e-05
0
0
0
0
0
0
0
0
0
0
0
0
0
0
0
-3.298232e-06
2.841924e-06
-6.783044e-07
-8.883549e-07
3.262952e-06
-1.121603e-05
2.567073e-05
1.707146e-05
0
0
0
0
0
0
0
0
0
0
0
0
0
0
0
3.848776e-06
3.023129e-06
-2.105085e-07
-9.800293e-07
-1.666511e-07
3.669499e-06
-1.62202e-05
-9.919583e-06
1.459593e-05
0
0
0
0
0
0
0
0
0
0
0
0
0
0
0
-7.228074e-07
2.079712e-07
-3.669553e-07
4.665116e-06
4.694047e-07
2.869184e-05
1.143919e-05
7.888503e-06
1.846398e-05
-2.023044e-05
0
0
0
0
0
0
0
0
0
0
0
0
0
0
0
0
0
0
0
0
0
0
0
0
0
0
0
0
0
0
0
0
0
0
0
0
0
0
0
0
0
0
0
0
0
0
0
0
0
0
-0.0001547531
-0.001012956
-3.429937e-05
-0.0004684257
-0.0001359944
-0.0002048722
0.0001820435
0
0
0
0
0
-0.0007593308
-1.872939e-05
0.0005294811
-0.0008837912
6.626767e-05
0.0005661124
-0.0007707081
6.506464e-05
0
0
0
0
0
0.0003266569
4.260621e-05
0.0002535024
0.0007833643
0.0003818575
-0.001027488
0.001789007
0.0004087521
-0.001011618
0
0
0
0
0
6.201583e-05
-0.0001662297
-0.0003811831
5.29416e-05
0.0007089053
0.001006723
-0.001608817
0.001457546
-0.001855655
-0.0005655453
0
0
0
0
0
-0.0003416045
-0.001136412
0.0005402736
-0.001802889
-0.0007826225
0.0009152208
-0.0008425564
0.0008084475
3.675468e-05
0.001084619
-0.0001072063
0
0
0
0
0
0.0001221329
-0.0004605255
-0.001590108
0.002208598
0.000488763
0.001351746
0.0005157981
-0.0002416022
0.0006973061
-0.002167974
-0.000307526
7.956907e-06
0
0
0
0
0
0.0007151357
0.001899947
-0.000403117
0.0004967699
0.001171383
-0.0003677246
-0.002533544
-0.000303551
-0.0002678396
0.001154998
0.0002239827
2.060629e-06
-6.478602e-06
0
0
0
0
0
0.0002508125
0.0001472973
-0.0008529435
0.00117644
-0.001152217
0.001169813
-0.001694096
0.001027172
0.001201867
0.0001440431
0.0003297118
-1.267095e-06
5.029661e-07
-5.974578e-06
0
0
0
0
0
-6.018981e-05
-0.000639688
-5.083939e-05
0.001278911
-0.001674585
0.0003846735
0.000952319
-0.0002325328
0.0005714197
0.0008003924
-8.504305e-06
1.154694e-06
-1.241906e-06
3.925472e-06
2.709036e-06
0
0
0
0
0
-1.98302e-05
0.0007980386
6.293171e-05
-0.000215755
-0.0003482933
-0.0003101819
-4.787538e-05
0.0001216659
-0.0003385245
-0.0002376437
-0.0001247291
1.917278e-06
8.54166e-07
-1.413229e-07
-3.154821e-06
-3.782565e-05
0
0
0
0
0
0
0
0
0
0
0
0
0
0
0
-5.20779e-07
-9.902775e-08
1.570476e-06
-5.962288e-06
-1.244472e-06
1.020772e-05
1.697004e-05
0
0
0
0
0
0
0
0
0
0
0
0
0
0
0
-3.300939e-06
-7.531556e-07
-2.05958e-06
1.655841e-06
1.624592e-06
3.029758e-05
5.117221e-06
1.266378e-05
0
0
0
0
0
0
0
0
0
0
0
0
0
0
0
3.176702e-06
-1.260086e-06
-7.344463e-07
1.467439e-06
2.7254e-06
-2.754454e-05
1.717755e-06
8.836911e-06
-3.521666e-05
0
0
0
0
0
0
0
0
0
0
0
0
0
0
0
6.476589e-07
2.971455e-06
-1.420615e-06
-3.863618e-06
1.561266e-07
6.303953e-06
-1.714114e-05
3.270451e-05
1.242504e-05
-1.516367e-05
0
0
0
0
0
0
0
0
0
0
0
0
0
0
0
1.41814e-06
-2.083405e-06
2.875024e-06
-2.929114e-06
-1.237889e-06
1.877643e-05
-1.288695e-05
-2.924738e-05
-2.545141e-05
-1.3577e-05
-73510.62
0
0
0
0
0
0
0
0
0
0
0
0
0
0
0
0
0
0
0
0
0
0
0
0
0
0
0
0
0
0
0
0
0
0
0
0
0
0
0
0
0
0
0
0
0
0
0
0
0
0
0
0
0
0
0
5.285951e-06
0.0004168694
0.0003570624
-0.0001911637
0.0008410527
-5.525375e-05
0.000232919
-0.0002824002
0
0
0
0
0
-0.0005476096
0.0007918525
0.0005967252
-0.0008718426
-6.0032e-05
0.0003780617
-0.002797074
5.994625e-05
3.146146e-05
0
0
0
0
0
-3.051951e-05
-1.373121e-06
4.918464e-05
-0.0002147767
-0.0004420371
-0.002314163
1.068946e-05
-0.001520805
-0.0003573528
0.0006284094
0
0
0
0
0
-0.0002438568
0.0009848074
0.000332413
0.001747056
0.0002028958
-0.0005772695
0.0006583014
0.0002310733
0.0005043535
-0.0002373085
0.0001597073
0
0
0
0
0
8.764658e-05
0.001528806
0.001001803
-0.001257971
-0.000820142
-0.0001417524
-0.001715419
0.0006374325
0.0006342183
0.001491231
-0.0003796344
3.122958e-06
0
0
0
0
0
-0.0001429255
-0.001258345
0.0002111244
0.001543059
-0.002235371
-0.0005510877
8.082522e-05
-4.864093e-05
0.000110521
-0.0006257851
0.0002803446
5.026035e-06
-2.46447e-06
0
0
0
0
0
0.0004393941
-0.0001363399
-0.0001169296
-0.0009101678
-0.001019949
-0.001015863
0.0002144522
0.0002234965
-0.000404016
0.001328049
-0.0001717449
3.651162e-06
1.85451e-06
-2.745737e-06
0
0
0
0
0
0.0005041772
-0.0008139568
0.0004995642
0.0008677131
-0.0007489259
-0.0006161381
0.0004156098
-0.001686645
-0.00173709
-0.0009010782
-0.0001995555
-3.285549e-06
2.649772e-06
-7.636652e-07
3.129125e-06
0
0
0
0
0
-0.0001711033
-0.0002975474
0.0007205075
0.002199765
0.0003844754
0.0007114599
0.0004774936
-1.793689e-05
0.0002615732
-0.0007881111
-7.028707e-05
4.214644e-07
-4.577929e-06
3.500262e-06
4.441538e-06
-1.543886e-05
0
0
0
0
0
-0.0002061286
0.0005328072
-0.0005680085
-0.0002444736
0.0003452951
0.0006568593
0.0006075897
-0.0005435252
-0.0007230441
0.0005021202
0.000110568
2.652505e-06
-1.017981e-06
3.029942e-06
4.075156e-06
-4.550086e-05
1.555093e-05
0
0
0
0
0
0
0
0
0
0
0
0
0
0
0
2.479133e-06
-2.129265e-06
4.070966e-07
-1.636033e-06
-4.602089e-06
6.91437e-06
3.315046e-05
2.120983e-05
0
0
0
0
0
0
0
0
0
0
0
0
0
0
0
6.749819e-07
-1.5198e-06
-4.928155e-07
1.072091e-06
1.198152e-06
2.744146e-05
-6.898803e-06
-1.984192e-06
-3.241701e-05
0
0
0
0
0
0
0
0
0
0
0
0
0
0
0
-3.926296e-06
3.876933e-06
6.804552e-07
-6.073654e-07
2.30369e-07
-6.431213e-06
2.555532e-05
-5.249009e-06
-2.055136e-05
1.757435e-05
0
0
0
0
0
0
0
0
0
0
0
0
0
0
0
7.68948e-08
-3.875878e-06
5.899352e-06
1.753927e-06
-5.284667e-07
-5.843924e-06
-1.488452e-06
1.842156e-05
-3.052533e-05
-1.513348e-05
-74185.29
0
0
0
0
0
0
0
0
0
0
0
0
0
0
0
1.009319e-06
-4.251437e-06
-2.85664e-06
4.790039e-06
-2.200219e-06
1.792539e-05
-5.451529e-06
1.317883e-05
3.592203e-05
1.87647e-05
-67655.61
-74104.6
0
0
0
0
0
0
0
0
0
0
0
0
0
0
0
0
0
0
0
0
0
0
0
0
0
0
0
0
0
0
0
0
0
0
0
0
0
0
0
0
0
0
0
0
0
0
0
0
0
0
0
0
0
0
0
0
0
0
0
0
0.0001559125
-0.0004841948
-1.005193e-06
-0.0002632876
-0.0004147242
-0.0008224817
0.0003762763
0.0005742015
-0.0001890543
0
0
0
0
0
-0.0001767555
0.0003262568
0.0008329723
-0.0004191689
6.405316e-06
0.001827244
2.604698e-05
0.001039554
0.0008330718
0.0004491722
0
0
0
0
0
8.788018e-05
-0.0002166829
-0.000298431
-0.001261864
-0.0002105073
2.10539e-05
0.001644454
0.002774315
0.0001834946
0.0009337108
-0.0001468301
0
0
0
0
0
-0.0001930088
-9.792648e-05
0.0001103904
-0.0005407598
0.0001566901
-0.0002220942
0.001247008
-0.00130245
-0.001682306
-0.001600478
1.123286e-05
-1.981626e-06
0
0
0
0
0
-0.0002707372
0.001105979
-0.001668704
-0.0007820395
0.001005718
0.0001461328
-0.0005908483
0.0007491694
0.0003554663
-0.002569434
-0.0006332826
-3.293687e-06
1.835387e-06
0
0
0
0
0
-0.0004706677
-0.0005364546
0.0008172457
-0.0006240362
0.0004656654
0.0006739475
-0.0001790382
-5.126395e-05
0.00153236
-0.0003000862
0.0003183824
2.442184e-06
1.037857e-07
9.621843e-07
0
0
0
0
0
4.805463e-05
-0.0002075932
0.0007653817
-0.001168533
0.0005802062
0.0009583557
-0.000657772
0.001921382
0.0002240016
0.0005046615
-0.0009885942
1.221522e-06
3.775239e-06
-2.406194e-06
3.088334e-06
0
0
0
0
0
0.0002135586
-0.0003728428
0.000128235
-0.0009729737
-0.001776179
0.0002088721
0.000110949
-0.001792804
0.0008493022
0.0001880407
-0.0001093739
2.212211e-07
3.67322e-06
-3.217578e-06
-6.373964e-07
1.740532e-05
0
0
0
0
0
0.0008244233
-0.0007123684
-0.0001736209
-0.00111644
-0.001455259
-0.0002577913
-0.0008762528
0.001241512
0.0009157937
-0.0004062593
0.0004367543
-1.679391e-06
-2.48143e-06
-5.538795e-06
4.199045e-06
1.147248e-05
1.309221e-05
0
0
0
0
0
3.425746e-05
0.0003121369
-0.0001751787
0.0005785947
0.0004979516
0.001019074
-0.001274497
-0.0005272752
0.0003947996
0.000915711
-0.0002034024
-9.433834e-07
2.419931e-07
2.694608e-06
3.035594e-06
-2.151772e-05
5.350187e-05
1.885001e-05
0
0
0
0
0
0
0
0
0
0
0
0
0
0
0
2.022518e-06
5.51183e-07
-2.961143e-06
-5.443057e-06
1.051122e-07
-3.203431e-05
1.718202e-06
-3.656171e-06
1.879934e-06
0
0
0
0
0
0
0
0
0
0
0
0
0
0
0
-1.576718e-06
-7.082338e-07
-3.803284e-06
3.875393e-07
2.110773e-06
2.528745e-05
6.612158e-06
1.428326e-05
-4.222093e-06
9.620931e-06
0
0
0
0
0
0
0
0
0
0
0
0
0
0
0
9.055966e-07
2.409383e-06
2.118395e-06
5.310352e-07
-1.122349e-06
-1.558194e-05
1.186475e-05
-7.52142e-06
4.236733e-05
7.323269e-06
-75550.71
0
0
0
0
0
0
0
0
0
0
0
0
0
0
0
-1.349263e-06
6.916001e-08
9.561556e-07
2.059725e-06
-3.335866e-06
-1.190019e-05
2.634051e-05
-1.570821e-05
-1.17169e-05
2.406416e-05
-68094.86
-74790.73
0
0
0
0
0
0
0
0
0
0
0
0
0
0
0
-7.010992e-07
-3.927578e-06
3.541014e-06
-2.405036e-07
1.326805e-06
1.256862e-05
-1.028901e-05
1.026676e-05
-8.646194e-06
-1.583301e-05
-62798.65
-68180.88
-75645.2
0
0
0
0
0
0
0
0
0
0
0
0
0
0
0
0
0
0
0
0
0
0
0
0
0
0
0
0
0
0
0
0
0
0
0
0
0
0
0
0
0
0
0
0
0
0
0
0
0
0
0
0
0
0
0
0
0
0
0
0
0
0
0
0
0
2.739792e-05
0.0006632247
0.0003164341
0.0003752142
0.0002316635
-0.0002643851
0.0006481603
-8.095879e-05
-0.0007630277
0.0001731985
0
0
0
0
0
8.341003e-05
0.001771284
0.0002319113
-0.001338466
0.0003150441
0.001107557
-0.001115045
-0.001594443
0.001287897
-0.0007234252
1.818715e-05
0
0
0
0
0
0.0009164202
0.0009287458
-0.0006928991
0.0004547655
0.0003082586
-0.0005885035
-0.0008840965
0.0001215436
0.0004566607
0.0006424643
-0.000465182
3.142691e-06
0
0
0
0
0
-0.0001311563
-0.0003281928
0.001143685
-0.0001696747
8.244771e-05
0.0003491946
0.0003689462
0.0001692084
-0.0004735238
0.003131579
0.0002612257
1.716024e-07
-5.936236e-07
0
0
0
0
0
-3.12946e-05
0.0008918855
-0.000694963
0.0005808777
-0.000921726
-9.285967e-05
-0.000400187
-0.0007522452
0.0002845118
-0.0008245158
0.0008008653
1.370427e-06
5.761514e-07
-5.816006e-08
0
0
0
0
0
0.0002241768
2.626847e-05
-0.0003668151
0.001134671
-0.0004784105
0.0006355977
0.001517825
-0.0001830915
0.0004751646
-0.0004404145
-9.42159e-06
4.336165e-06
2.851344e-07
5.106607e-06
-1.077271e-06
0
0
0
0
0
-0.0008168979
0.0009260635
-0.0003895331
-0.0005913856
-8.224044e-05
5.664833e-05
0.0005577056
-0.0002465602
-0.0007389476
0.000616478
6.792292e-05
2.074248e-06
-3.032549e-07
4.66237e-07
-1.696541e-06
-1.534787e-05
0
0
0
0
0
-3.498225e-05
0.0008552686
0.0008497421
0.0004646577
-0.0001637024
0.0005975476
-0.0004127448
-0.0003346113
0.001852319
-0.0003077336
0.0004123928
1.199856e-06
-1.229437e-06
-2.085588e-06
1.382016e-07
3.030933e-05
3.919144e-06
0
0
0
0
0
0.0002262917
-0.0003471006
0.001346256
-0.0002561793
-2.781805e-05
-0.0009431058
-0.0002899772
0.001240609
-0.0009644463
0.0001565196
0.0005396318
-6.855503e-07
7.586735e-07
3.424922e-06
-1.310865e-06
3.208704e-05
3.540885e-06
-1.741181e-05
0
0
0
0
0
0.0003347082
-0.0009439266
-0.0003806083
-4.064227e-06
0.0004833787
-0.0008446937
0.0001404376
0.0002779555
-0.0005873068
-9.200564e-05
-0.0003868475
-4.50891e-06
-5.279157e-07
-2.1516e-06
-2.121981e-06
-1.229902e-05
2.61201e-05
-1.743245e-06
-1.800192e-05
0
0
0
0
0
0
0
0
0
0
0
0
0
0
0
-1.545787e-07
2.140182e-06
1.760671e-06
-3.843151e-06
-2.380828e-06
-5.296446e-06
3.166901e-05
1.230009e-05
1.144832e-05
-7.611497e-06
0
0
0
0
0
0
0
0
0
0
0
0
0
0
0
-3.083569e-07
5.3252e-08
-7.45867e-07
-2.690443e-06
1.643987e-06
3.042496e-05
-2.312309e-05
6.228236e-06
-1.179597e-05
-1.193283e-06
-77591.3
0
0
0
0
0
0
0
0
0
0
0
0
0
0
0
-3.74839e-06
2.996465e-06
-1.313292e-06
3.274678e-06
1.407814e-06
-2.402501e-05
1.28495e-05
-8.305473e-06
9.146531e-06
-4.047322e-05
-68961.36
-76179.18
0
0
0
0
0
0
0
0
0
0
0
0
0
0
0
-2.366715e-06
-3.67239e-07
3.330127e-07
1.94199e-06
7.988563e-07
-3.121889e-05
1.213847e-05
-3.98924e-05
1.402994e-05
1.150975e-05
-63135.62
-68627.94
-76358.72
0
0
0
0
0
0
0
0
0
0
0
0
0
0
0
-7.392531e-07
9.528255e-07
-3.357603e-06
-1.708747e-06
-3.19892e-06
4.120206e-05
-4.833755e-06
1.851865e-05
-2.748716e-05
-6.392405e-06
-58927.47
-63272.73
-69531.38
-78180.03
0
0
0
0
0
0
0
0
0
0
0
0
0
0
0
0
0
0
0
0
0
0
0
0
0
0
0
0
0
0
0
0
0
0
0
0
0
0
0
0
0
0
0
0
0
0
0
0
0
0
0
0
0
0
0
0
0
0
0
0
0
0
0
0
0
0
0
0
0
0
-0.0002776025
-0.0008349769
-0.0008646596
0.0007313871
-0.0002260361
-0.0001299474
-0.0001735088
4.953951e-05
5.799031e-05
0.0005883522
-6.118433e-05
0
0
0
0
0
-0.0005373066
-0.001614992
-0.00121839
-0.0002463277
-0.0002237172
1.795514e-05
-0.0006268975
0.0007118009
-0.0004519552
-0.001718206
0.0001225774
-3.084511e-07
0
0
0
0
0
0.0007297599
-0.001446556
-0.0007756639
-0.0001421809
0.0008681289
-9.975463e-05
-0.0002863184
7.119521e-05
0.001543407
-0.00155015
9.921252e-05
4.312005e-06
2.635906e-06
0
0
0
0
0
7.953641e-05
-0.0008976902
-0.001183746
-1.280721e-05
0.0002334503
0.0001058379
-0.0009554642
0.002879297
-0.002004537
0.0007334493
-0.0009856679
7.349543e-07
8.567497e-07
-5.103379e-06
0
0
0
0
0
-0.0003032028
0.0007967376
0.0007264309
-0.001139617
-0.0002976379
0.0005422719
-0.0006775145
0.001637387
-0.0007583157
-0.001598517
0.0006261309
-2.265266e-06
-2.186677e-06
-2.600324e-06
2.29588e-06
0
0
0
0
0
0.000684771
-0.001192882
-0.0004385075
0.001210881
0.001367152
-0.0009253937
2.048691e-05
-0.0002010915
7.872051e-05
-0.0008314922
0.0003893507
7.523162e-07
-8.301796e-06
4.93387e-06
1.520895e-06
-1.863192e-05
0
0
0
0
0
0.0003474097
0.00109274
-0.0003039032
0.0001604263
0.0007958876
-0.0002010106
-0.0007721572
-0.0007225728
-0.0009437946
-9.458865e-05
-4.999703e-05
-2.139672e-06
-6.7687e-07
3.083571e-06
1.103731e-06
-1.509045e-05
1.539745e-05
0
0
0
0
0
-0.0006216151
-0.0008703397
-0.001533884
-0.002370724
-0.001328141
0.000153616
-0.0006535386
-0.0002683993
0.001397931
-0.000168746
9.207441e-05
-3.036879e-06
-2.651515e-06
-4.787249e-06
-2.145017e-06
3.372955e-05
1.168951e-05
2.30506e-05
0
0
0
0
0
-0.0006589243
0.0007890616
0.0001217219
-0.001797745
-0.0006834958
0.001438845
-0.0006729528
0.001325669
0.0008276835
0.0002128305
-0.0002476157
-3.973035e-06
-3.119727e-06
-3.658645e-06
4.241428e-06
9.360902e-06
4.214764e-06
6.603551e-06
2.233943e-05
0
0
0
0
0
-0.0003117335
-0.0002087619
0.001352923
-1.792958e-05
-0.0002918475
-0.0005998805
0.0003376402
-7.972716e-05
-0.0001921232
-0.0001331392
-4.899913e-05
-4.503653e-06
2.057117e-06
3.370816e-06
3.616726e-06
-3.585526e-05
1.719699e-05
-1.406973e-06
-1.72015e-05
2.186553e-05
0
0
0
0
0
0
0
0
0
0
0
0
0
0
0
1.38995e-06
-2.20242e-06
2.087825e-06
-1.310118e-06
-5.880721e-06
1.264004e-05
6.131324e-06
-1.953575e-05
-7.570817e-07
4.685797e-06
-80206.55
0
0
0
0
0
0
0
0
0
0
0
0
0
0
0
-2.2667e-06
-9.480455e-07
1.477863e-06
1.822445e-06
4.81049e-08
2.57262e-05
-2.622471e-05
2.173508e-05
-2.117235e-05
-3.014609e-06
-70189.93
-78253.33
0
0
0
0
0
0
0
0
0
0
0
0
0
0
0
5.584307e-07
8.67859e-08
-3.900137e-07
2.201402e-06
4.274614e-06
-7.093666e-06
9.191433e-06
-7.844422e-06
1.66209e-05
3.437597e-06
-63792.77
-69510.03
-77802.73
0
0
0
0
0
0
0
0
0
0
0
0
0
0
0
3.412772e-06
-2.753348e-06
1.13689e-06
1.06388e-06
-4.578853e-06
-3.471586e-07
4.182753e-05
8.792719e-06