/*--------------------------------*- C++ -*----------------------------------*\
| =========                 |                                                 |
| \\      /  F ield         | OpenFOAM: The Open Source CFD Toolbox           |
|  \\    /   O peration     | Version:  2306                                  |
|   \\  /    A nd           | Website:  www.openfoam.com                      |
|    \\/     M anipulation  |                                                 |
\*---------------------------------------------------------------------------*/
FoamFile
{
    version     2.0;
    format      ascii;
    arch        "LSB;label=32;scalar=64";
    class       volScalarField;
    location    "0.6";
    object      k;
}
// * * * * * * * * * * * * * * * * * * * * * * * * * * * * * * * * * * * * * //

dimensions      [1 1 -3 -1 0 0 0];

internalField   nonuniform List<scalar> 
52000
(
20
20
20
20
20
20
20
20
20
20
20
20
20
20
20
20
20
20
20
20
20
20
20
20
20
20
20
20
20
20
20
20
20
20
20
20
20
20
20
20
20
20
20
20
20
20
20
20
20
20
20
20
20
20
20
20
20
20
20
20
20
20
20
20
20
20
20
20
20
20
20
20
20
20
20
20
20
20
20
20
20
20
20
20
20
20
20
20
20
20
20
20
20
20
20
20
20
20
20
20
20
20
20
20
20
20
20
20
20
20
20
20
20
20
20
20
20
20
20
20
20
20
20
20
20
20
20
20
20
20
20
20
20
20
20
20
20
20
20
20
20
20
20
20
20
20
20
20
20
20
20
20
20
20
20
20
20
20
20
20
20
20
20
20
20
20
20
20
20
20
20
20
20
20
20
20
20
20
20
20
20
20
20
20
20
20
20
20
20
20
20
20
20
20
20
20
20
20
20
20
20
20
20
20
20
20
20
20
20
20
20
20
20
20
20
20
20
20
20
20
20
20
20
20
20
20
20
20
20
20
20
20
20
20
20
20
20
20
20
20
0.08029602
20
20
20
20
20
20
20
20
20
20
20
20
20
20
20
20
20
20
20
20
20
20
20
20
20
20
20
20
20
20
20
20
20
20
20
20
20
20
20
20
20
20
20
20
20
20
20
20
20
20
20
20
20
20
20
20
20
20
20
20
20
20
20
20
20
0.07971098
20
20
20
20
20
0.08097999
0.07970144
20
20
20
20
20
20
20
20
20
20
20
20
20
20
20
20
20
20
20
20
20
20
20
20
20
20
20
20
20
20
20
20
20
20
20
20
20
20
20
20
20
20
20
20
20
20
20
20
20
20
20
20
20
20
20
20
20
20
20
20
20
20
20
20
20
20
20
20
20
20
0.07938971
20
20
20
20
20
0.08082923
0.07827731
20
20
20
20
20
0.08115902
0.08082809
0.07937212
20
20
20
20
20
20
20
20
20
20
20
20
20
20
20
20
20
20
20
20
20
20
20
20
20
20
20
20
20
20
20
20
20
20
20
20
20
20
20
20
20
20
20
20
20
20
20
20
20
20
20
20
20
20
20
20
20
20
20
20
20
20
20
20
20
20
20
20
20
20
20
20
20
20
20
0.07920829
20
20
20
20
20
0.08069895
0.07739178
20
20
20
20
20
0.0810952
0.08038328
0.0773783
20
20
20
20
20
0.08130767
0.08109897
0.08069741
0.0791813
20
20
20
20
20
20
20
20
20
20
20
20
20
20
20
20
20
20
20
20
20
20
20
20
20
20
20
20
20
20
20
20
20
20
20
20
20
20
20
20
20
20
20
20
20
20
20
20
20
20
20
20
20
20
20
20
20
20
20
20
20
20
20
20
20
20
20
20
20
20
20
20
20
20
20
20
20
20
20
20
0.07912424
20
20
20
20
20
0.08060329
0.07686182
20
20
20
20
20
0.0810377
0.07999336
0.07604198
20
20
20
20
20
0.08127626
0.08091226
0.07998935
0.0768257
20
20
20
20
20
0.08144048
0.08128183
0.08104609
0.08060138
0.07908527
20
20
20
20
20
20
20
20
20
20
20
20
20
20
20
20
20
20
20
20
20
20
20
20
20
20
20
20
20
20
20
20
20
20
20
20
20
20
20
20
20
20
20
20
20
20
20
20
20
20
20
20
20
20
20
20
20
20
20
20
20
20
20
20
20
20
20
20
20
20
20
20
20
20
20
20
20
20
20
20
20
20
20
20
20
0.07912424
20
20
20
20
20
0.08055269
0.07661118
20
20
20
20
20
0.08099368
0.07970459
0.07520375
20
20
20
20
20
0.08124841
0.08074163
0.07935696
0.0751722
20
20
20
20
20
0.08142253
0.0811933
0.08074558
0.0796923
0.07653898
20
20
20
20
20
0.08156183
0.08142847
0.08126038
0.08100788
0.08055058
0.07906941
20
20
20
20
20
20
20
20
20
20
20
20
20
20
20
20
20
20
20
20
20
20
20
20
20
20
20
20
20
20
20
20
20
20
20
20
20
20
20
20
20
20
20
20
20
20
20
20
20
20
20
20
20
20
20
20
20
20
20
20
20
20
20
20
20
20
20
20
20
0.3568507
20
20
20
20
20
20
20
20
20
20
20
20
20
20
20
20
20
20
20
20
0.07920829
20
20
20
20
20
0.08055269
0.07661118
20
20
20
20
20
0.08096972
0.0795511
0.0747966
20
20
20
20
20
0.08122721
0.08060978
0.07888241
0.0741004
20
20
20
20
20
0.08140709
0.08111323
0.08046645
0.0788689
0.074708
20
20
20
20
20
0.0815499
0.08138044
0.08112016
0.08061779
0.07952615
0.07648768
20
20
20
20
20
0.08167387
0.08155565
0.0814198
0.08124726
0.08099147
0.0805518
0.07913326
20
20
20
20
20
20
20
20
20
20
20
20
20
20
20
20
20
20
20
20
20
20
20
20
20
20
20
20
20
20
20
20
20
20
20
20
20
20
20
20
20
20
20
20
20
20
20
20
20
20
20
20
20
20
20
20
20
0.3568426
20
20
20
20
20
20
20
20
20
20
20
20
20
20
20
0.3569465
0.3569094
20
20
20
20
20
20
20
20
20
20
20
20
20
20
20
20
20
20
20
20
0.07938971
20
20
20
20
20
0.08060329
0.07686182
20
20
20
20
20
0.08096972
0.0795511
0.0747966
20
20
20
20
20
0.08121568
0.0805377
0.07862833
0.07356559
20
20
20
20
20
0.08139557
0.08105157
0.08024817
0.0782438
0.07349442
20
20
20
20
20
0.08153994
0.08133805
0.08099102
0.08025085
0.07859075
0.07462188
20
20
20
20
20
0.08166472
0.08152538
0.08134578
0.08106758
0.08055085
0.07951191
0.07667067
20
20
20
20
20
0.08177804
0.0816701
0.08155226
0.08141684
0.08124611
0.08100183
0.0806076
0.07928976
20
20
20
20
20
20
20
20
20
20
20
20
20
20
20
20
20
20
20
20
20
20
20
20
20
20
20
20
20
20
20
20
20
20
20
20
20
20
20
20
20
20
20
20
0.3568257
20
20
20
20
20
20
20
20
20
20
20
20
20
20
20
0.3569409
0.3569002
20
20
20
20
20
20
20
20
20
20
20
20
20
20
20
0.3570373
0.3570005
0.3569693
20
20
20
20
20
20
20
20
20
20
20
20
20
20
20
20
20
20
20
20
0.07971098
20
20
20
20
20
0.08069895
0.07739178
20
20
20
20
20
0.08099368
0.07970459
0.07520375
20
20
20
20
20
0.08121568
0.0805377
0.07862833
0.07356559
20
20
20
20
20
0.08138939
0.08101784
0.08012806
0.07790679
0.07288085
20
20
20
20
20
0.08153266
0.08130609
0.08089025
0.07996104
0.07787555
0.0733789
20
20
20
20
20
0.08165725
0.08149941
0.08127923
0.08089973
0.08013301
0.07856012
0.07491456
20
20
20
20
20
0.08177033
0.08164781
0.08150704
0.08132437
0.08104626
0.08055975
0.079656
0.07711474
20
20
20
20
20
0.08187537
0.0817753
0.08166883
0.08155335
0.08142158
0.08125958
0.08104089
0.0807166
0.07957624
20
20
20
20
20
20
20
20
20
20
20
20
20
20
20
20
20
20
20
20
20
20
20
20
20
20
20
20
20
20
0.3567975
20
20
20
20
20
20
20
20
20
20
20
20
20
20
20
0.3569298
0.3568803
20
20
20
20
20
20
20
20
20
20
20
20
20
20
20
0.3570325
0.3569949
0.3569592
20
20
20
20
20
20
20
20
20
20
20
20
20
20
20
0.3571207
0.357085
0.3570553
0.3570306
20
20
20
20
20
20
20
20
20
20
20
20
20
20
20
20
20
20
20
20
0.08029602
20
20
20
20
20
0.08082923
0.07827731
20
20
20
20
20
0.0810377
0.07999336
0.07604198
20
20
20
20
20
0.08122721
0.08060978
0.07888241
0.0741004
20
20
20
20
20
0.08138939
0.08101784
0.08012806
0.07790679
0.07288085
20
20
20
20
20
0.08152881
0.08128882
0.0808347
0.07980063
0.07748822
0.07274892
20
20
20
20
20
0.08165189
0.0814803
0.08122832
0.08076723
0.07980083
0.07783088
0.07375975
20
20
20
20
20
0.08176409
0.08162912
0.08146751
0.08123994
0.08085762
0.08013871
0.07878703
0.07561283
20
20
20
20
20
0.08186848
0.08175691
0.08163635
0.08149851
0.08132158
0.08106388
0.08064909
0.07995
0.07788994
20
20
20
20
20
0.08196664
0.08187307
0.08177486
0.08167138
0.08156016
0.08143551
0.08128897
0.08110801
0.08087629
0.08009818
20
20
20
20
20
20
20
20
20
20
20
20
20
20
20
0.3567433
20
20
20
20
20
20
20
20
20
20
20
20
20
20
20
0.3569132
0.3568449
20
20
20
20
20
20
20
20
20
20
20
20
20
20
20
0.3570231
0.3569839
0.3569372
20
20
20
20
20
20
20
20
20
20
20
20
20
20
20
0.3571164
0.3570806
0.3570498
0.35702
20
20
20
20
20
20
20
20
20
20
20
20
20
20
20
0.357198
0.3571626
0.3571334
0.357111
0.3570935
20
20
20
20
20
20
20
20
20
20
20
20
20
20
20
20
20
20
20
20
20
20
20
20
20
0.08097999
0.07970144
20
20
20
20
20
0.0810952
0.08038328
0.0773783
20
20
20
20
20
0.08124841
0.08074163
0.07935696
0.0751722
20
20
20
20
20
0.08139557
0.08105157
0.08024817
0.0782438
0.07349442
20
20
20
20
20
0.08152881
0.08128882
0.0808347
0.07980063
0.07748822
0.07274892
20
20
20
20
20
0.08164908
0.08147014
0.08120061
0.0806937
0.07961626
0.07743541
0.07317809
20
20
20
20
20
0.08175966
0.08161569
0.08143803
0.08117454
0.08070744
0.07980289
0.07812282
0.07464974
20
20
20
20
20
0.08186293
0.08174172
0.08160868
0.08144984
0.08122911
0.08087759
0.0802746
0.07925265
0.07678227
20
20
20
20
20
0.0819603
0.08185681
0.08174847
0.081633
0.08150289
0.0813414
0.08112337
0.08081319
0.08037317
0.0791596
20
20
20
20
20
0.08205246
0.08196456
0.08187293
0.08177786
0.08167868
0.08157365
0.08145962
0.08133492
0.08120349
0.0810928
0.3565019
20
20
20
20
20
20
20
20
20
20
20
20
20
20
20
0.3568929
0.3567743
20
20
20
20
20
20
20
20
20
20
20
20
20
20
20
0.3570096
0.3569679
0.3568976
20
20
20
20
20
20
20
20
20
20
20
20
20
20
20
0.3571078
0.3570721
0.3570388
0.3569967
20
20
20
20
20
20
20
20
20
20
20
20
20
20
20
0.3571939
0.3571587
0.3571293
0.3571054
0.3570826
20
20
20
20
20
20
20
20
20
20
20
20
20
20
20
0.3572703
0.3572348
0.3572051
0.3571825
0.3571675
0.632646
20
20
20
20
20
20
20
20
20
20
20
20
20
20
20
20
20
20
20
20
20
20
20
20
20
20
20
20
20
20
0.08115902
0.08082809
0.07937212
20
20
20
20
20
0.08127626
0.08091226
0.07998935
0.0768257
20
20
20
20
20
0.08140709
0.08111323
0.08046645
0.0788689
0.074708
20
20
20
20
20
0.08153266
0.08130609
0.08089025
0.07996104
0.07787555
0.0733789
20
20
20
20
20
0.08164908
0.08147014
0.08120061
0.0806937
0.07961626
0.07743541
0.07317809
20
20
20
20
20
0.08175736
0.08160866
0.08142224
0.08113866
0.08062367
0.07961596
0.07776318
0.0741746
20
20
20
20
20
0.08185901
0.08173096
0.08158856
0.0814131
0.08115671
0.08072833
0.07997541
0.07872193
0.07609248
20
20
20
20
20
0.08195521
0.08184348
0.08172637
0.08159987
0.08145134
0.08125312
0.08096352
0.08052742
0.07991089
0.07856572
20
20
20
20
20
0.08204656
0.08194965
0.08184976
0.08174717
0.08163983
0.08152254
0.08138593
0.08122333
0.08103987
0.08089606
0.3562489
20
20
20
20
20
0.08213337
0.08205051
0.08196452
0.08187598
0.08178506
0.08169143
0.08159466
0.0814951
0.0814004
0.081341
0.3569009
0.3565875
20
20
20
20
20
20
20
20
20
20
20
20
20
20
20
0.3569964
0.3569497
0.3568236
20
20
20
20
20
20
20
20
20
20
20
20
20
20
20
0.3570958
0.357061
0.357023
0.3569555
20
20
20
20
20
20
20
20
20
20
20
20
20
20
20
0.357186
0.3571512
0.3571214
0.3570945
0.3570589
20
20
20
20
20
20
20
20
20
20
20
20
20
20
20
0.3572664
0.3572312
0.3572015
0.3571785
0.357162
0.6326398
20
20
20
20
20
20
20
20
20
20
20
20
20
20
20
0.3573381
0.3573029
0.3572723
0.3572482
0.3572322
0.632686
0.6326485
20
20
20
20
20
20
20
20
20
20
20
20
20
20
20
20
20
20
20
20
20
20
20
20
20
20
20
20
20
20
20
20
20
20
20
0.08130767
0.08109897
0.08069741
0.0791813
20
20
20
20
20
0.08142253
0.0811933
0.08074558
0.0796923
0.07653898
20
20
20
20
20
0.08153994
0.08133805
0.08099102
0.08025085
0.07859075
0.07462188
20
20
20
20
20
0.08165189
0.0814803
0.08122832
0.08076723
0.07980083
0.07783088
0.07375975
20
20
20
20
20
0.08175736
0.08160866
0.08142224
0.08113866
0.08062367
0.07961596
0.07776318
0.0741746
20
20
20
20
20
0.08185698
0.08172539
0.08157797
0.08139326
0.08111672
0.08064475
0.07980878
0.07843546
0.0757579
20
20
20
20
20
0.08195161
0.0818341
0.08171057
0.08157551
0.08141195
0.08118322
0.08083428
0.0802977
0.07955838
0.07819916
20
20
20
20
20
0.08204179
0.08193747
0.08183052
0.08172117
0.08160584
0.08147558
0.0813145
0.08110993
0.08086802
0.08069182
0.3560518
20
20
20
20
20
0.08212781
0.0820366
0.08194334
0.08184922
0.08175459
0.08165846
0.08155914
0.08145592
0.08136097
0.08131892
0.3568596
0.3563836
20
20
20
20
20
0.08220977
0.08213151
0.08205051
0.08196748
0.08188288
0.08179705
0.08171038
0.08162453
0.08154596
0.08150213
0.3570456
0.3569429
0.3566753
20
20
20
20
20
20
20
20
20
20
20
20
20
20
20
0.357085
0.3570538
0.3570046
0.3568844
20
20
20
20
20
20
20
20
20
20
20
20
20
20
20
0.3571747
0.357142
0.3571116
0.3570785
0.357018
20
20
20
20
20
20
20
20
20
20
20
20
20
20
20
0.3572589
0.3572243
0.3571949
0.357171
0.3571509
0.6326263
20
20
20
20
20
20
20
20
20
20
20
20
20
20
20
0.3573344
0.3572994
0.357269
0.3572448
0.3572283
0.6326829
0.6326423
20
20
20
20
20
20
20
20
20
20
20
20
20
20
20
0.357402
0.3573671
0.357336
0.3573102
0.3572917
0.6327207
0.6326883
0.6326511
20
20
20
20
20
20
20
20
20
20
20
20
20
20
20
20
20
20
20
20
20
20
20
20
20
20
20
20
20
20
20
20
20
20
20
20
20
20
20
20
0.08144048
0.08128183
0.08104609
0.08060138
0.07908527
20
20
20
20
20
0.0815499
0.08138044
0.08112016
0.08061779
0.07952615
0.07648768
20
20
20
20
20
0.08165725
0.08149941
0.08127923
0.08089973
0.08013301
0.07856012
0.07491456
20
20
20
20
20
0.08175966
0.08161569
0.08143803
0.08117454
0.08070744
0.07980289
0.07812282
0.07464974
20
20
20
20
20
0.08185698
0.08172539
0.08157797
0.08139326
0.08111672
0.08064475
0.07980878
0.07843546
0.0757579
20
20
20
20
20
0.08194975
0.08182928
0.08170235
0.0815626
0.08139052
0.08114435
0.0807616
0.08016951
0.07936826
0.07802178
20
20
20
20
20
0.08203843
0.08192893
0.08181691
0.08170243
0.08158056
0.0814391
0.08125668
0.08101575
0.08072548
0.08052991
0.3559199
20
20
20
20
20
0.08212332
0.08202524
0.08192581
0.08182679
0.08172848
0.08162892
0.08152445
0.08141191
0.08130484
0.08126144
0.3568051
0.3562174
20
20
20
20
20
0.08220452
0.08211842
0.08203074
0.08194306
0.08185653
0.08177203
0.08169033
0.08161421
0.0815528
0.08153771
0.3570553
0.3569082
0.3565113
20
20
20
20
20
0.08228203
0.082208
0.08213152
0.08205333
0.08197403
0.08189415
0.08181449
0.08173685
0.0816674
0.08162895
0.3571422
0.3570802
0.3569896
0.3567651
20
20
20
20
20
20
20
20
20
20
20
20
20
20
20
0.3571648
0.3571381
0.3571057
0.3570591
0.3569525
20
20
20
20
20
20
20
20
20
20
20
20
20
20
20
0.3572482
0.3572159
0.3571873
0.3571616
0.3571345
0.6326035
20
20
20
20
20
20
20
20
20
20
20
20
20
20
20
0.3573272
0.357293
0.357263
0.3572387
0.3572209
0.6326765
0.6326289
20
20
20
20
20
20
20
20
20
20
20
20
20
20
20
0.3573985
0.3573638
0.3573329
0.3573071
0.3572885
0.6327185
0.6326852
0.6326449
20
20
20
20
20
20
20
20
20
20
20
20
20
20
20
0.3574622
0.357428
0.3573966
0.3573696
0.3573486
0.6327528
0.6327227
0.6326906
0.6326537
20
20
20
20
20
20
20
20
20
20
20
20
20
20
20
20
20
20
20
20
20
20
20
20
20
20
20
20
20
20
20
20
20
20
20
20
20
20
20
20
20
20
20
20
20
0.08156183
0.08142847
0.08126038
0.08100788
0.08055058
0.07906941
20
20
20
20
20
0.08166472
0.08152538
0.08134578
0.08106758
0.08055085
0.07951191
0.07667067
20
20
20
20
20
0.08176409
0.08162912
0.08146751
0.08123994
0.08085762
0.08013871
0.07878703
0.07561283
20
20
20
20
20
0.08185901
0.08173096
0.08158856
0.0814131
0.08115671
0.08072833
0.07997541
0.07872193
0.07609248
20
20
20
20
20
0.08194975
0.08182928
0.08170235
0.0815626
0.08139052
0.08114435
0.0807616
0.08016951
0.07936826
0.07802178
20
20
20
20
20
0.08203669
0.08192454
0.08180987
0.08169262
0.08156705
0.08141904
0.08122416
0.08096216
0.08064503
0.08044138
0.3558541
20
20
20
20
20
0.08212015
0.08201728
0.08191346
0.0818108
0.08170947
0.0816065
0.08149636
0.08137355
0.08125267
0.08120534
0.3567585
0.3561039
20
20
20
20
20
0.08220027
0.08210771
0.08201441
0.08192269
0.08183423
0.08175006
0.08167067
0.08159827
0.08154155
0.08153493
0.3570475
0.3568638
0.3563733
20
20
20
20
20
0.08227706
0.08219562
0.08211289
0.08203054
0.08195003
0.0818728
0.08180074
0.0817372
0.0816907
0.08168233
0.3571674
0.357087
0.3569589
0.3566339
20
20
20
20
20
0.08235045
0.08228034
0.08220801
0.08213421
0.08205955
0.08198466
0.08191039
0.08183864
0.08177481
0.08173905
0.3572198
0.3571721
0.3571179
0.3570392
0.3568562
20
20
20
20
20
20
20
20
20
20
20
20
20
20
20
0.3572386
0.3572129
0.3571851
0.3571546
0.3571136
0.6325682
20
20
20
20
20
20
20
20
20
20
20
20
20
20
20
0.357317
0.3572849
0.3572562
0.3572317
0.3572113
0.632667
0.6326062
20
20
20
20
20
20
20
20
20
20
20
20
20
20
20
0.3573915
0.3573576
0.3573272
0.3573017
0.3572826
0.6327143
0.6326788
0.6326315
20
20
20
20
20
20
20
20
20
20
20
20
20
20
20
0.3574588
0.3574248
0.3573937
0.3573668
0.3573457
0.632751
0.6327205
0.6326875
0.6326475
20
20
20
20
20
20
20
20
20
20
20
20
20
20
20
0.3575192
0.3574857
0.3574545
0.3574266
0.3574037
0.6327836
0.6327546
0.6327248
0.6326929
0.6326563
20
20
20
20
20
20
20
20
20
20
20
20
20
20
20
20
20
20
20
20
20
20
20
20
20
20
20
20
20
20
20
20
20
20
20
20
20
20
20
20
20
20
20
20
20
20
20
20
20
20
0.08167387
0.08155565
0.0814198
0.08124726
0.08099147
0.0805518
0.07913326
20
20
20
20
20
0.08177033
0.08164781
0.08150704
0.08132437
0.08104626
0.08055975
0.079656
0.07711474
20
20
20
20
20
0.08186293
0.08174172
0.08160868
0.08144984
0.08122911
0.08087759
0.0802746
0.07925265
0.07678227
20
20
20
20
20
0.08195161
0.0818341
0.08171057
0.08157551
0.08141195
0.08118322
0.08083428
0.0802977
0.07955838
0.07819916
20
20
20
20
20
0.08203669
0.08192454
0.08180987
0.08169262
0.08156705
0.08141904
0.08122416
0.08096216
0.08064503
0.08044138
0.3558541
20
20
20
20
20
0.08211851
0.0820132
0.0819071
0.0818025
0.08169945
0.08159438
0.08148058
0.08135126
0.08122175
0.08117205
0.3567323
0.3560467
20
20
20
20
20
0.08219726
0.08210022
0.08200291
0.08190824
0.08181818
0.08173373
0.08165481
0.0815827
0.08152553
0.08152172
0.3570356
0.3568257
0.3562774
20
20
20
20
20
0.08227302
0.08218549
0.08209751
0.08201156
0.08192983
0.0818543
0.08178727
0.08173205
0.08169652
0.08169908
0.3571759
0.3570813
0.3569221
0.3565215
20
20
20
20
20
0.08234573
0.08226861
0.08219038
0.08211272
0.08203713
0.08196524
0.08189917
0.08184249
0.08180242
0.08179557
0.3572486
0.3571916
0.3571208
0.3570109
0.3567528
20
20
20
20
20
0.08241528
0.08234885
0.08228036
0.08221058
0.08214012
0.0820696
0.08199991
0.0819328
0.08187321
0.08183881
0.3572885
0.3572464
0.3572043
0.3571571
0.3570903
0.6325191
20
20
20
20
20
20
20
20
20
20
20
20
20
20
20
0.3573075
0.3572819
0.357255
0.3572286
0.357202
0.6326547
0.6325711
20
20
20
20
20
20
20
20
20
20
20
20
20
20
20
0.3573816
0.3573499
0.3573209
0.3572956
0.3572755
0.6327086
0.6326693
0.6326089
20
20
20
20
20
20
20
20
20
20
20
20
20
20
20
0.3574522
0.3574188
0.3573883
0.3573616
0.3573405
0.6327476
0.6327163
0.6326811
0.6326341
20
20
20
20
20
20
20
20
20
20
20
20
20
20
20
0.3575159
0.3574826
0.3574516
0.3574239
0.357401
0.632782
0.6327528
0.6327226
0.6326898
0.6326501
20
20
20
20
20
20
20
20
20
20
20
20
20
20
20
0.3575731
0.3575405
0.3575096
0.3574814
0.357457
0.6328137
0.6327852
0.6327564
0.6327268
0.6326952
0.7244942
20
20
20
20
20
20
20
20
20
20
20
20
20
20
20
20
20
20
20
20
20
20
20
20
20
20
20
20
20
20
20
20
20
20
20
20
20
20
20
20
20
20
20
20
20
20
20
20
20
20
20
20
20
20
20
0.08177804
0.0816701
0.08155226
0.08141684
0.08124611
0.08100183
0.0806076
0.07928976
20
20
20
20
20
0.08186848
0.08175691
0.08163635
0.08149851
0.08132158
0.08106388
0.08064909
0.07995
0.07788994
20
20
20
20
20
0.08195521
0.08184348
0.08172637
0.08159987
0.08145134
0.08125312
0.08096352
0.08052742
0.07991089
0.07856572
20
20
20
20
20
0.08203843
0.08192893
0.08181691
0.08170243
0.08158056
0.0814391
0.08125668
0.08101575
0.08072548
0.08052991
0.3559199
20
20
20
20
20
0.08211851
0.0820132
0.0819071
0.0818025
0.08169945
0.08159438
0.08148058
0.08135126
0.08122175
0.08117205
0.3567323
0.3560467
20
20
20
20
20
0.0821957
0.08209638
0.08199701
0.08190078
0.08180981
0.08172502
0.08164594
0.08157325
0.08151486
0.08151195
0.3570278
0.3568042
0.3562286
20
20
20
20
20
0.08227016
0.0821784
0.08208669
0.08199813
0.08191538
0.08184073
0.08177647
0.08172546
0.08169472
0.08170216
0.3571772
0.3570722
0.356891
0.3564422
20
20
20
20
20
0.08234189
0.082259
0.08217582
0.08209483
0.08201829
0.08194853
0.08188824
0.08184125
0.08181383
0.08181842
0.3572623
0.3571992
0.3571157
0.3569802
0.3566635
20
20
20
20
20
0.0824108
0.08233771
0.08226365
0.08219022
0.08211894
0.0820514
0.08198975
0.08193732
0.0819006
0.08189298
0.3573166
0.3572688
0.3572177
0.3571559
0.3570638
0.6324674
20
20
20
20
20
0.08247675
0.08241377
0.08234888
0.08228283
0.08221622
0.08214967
0.08208401
0.08202091
0.08196478
0.08193149
0.3573516
0.3573125
0.3572748
0.3572375
0.357197
0.6326405
0.6325226
20
20
20
20
20
20
20
20
20
20
20
20
20
20
20
0.3573722
0.3573464
0.3573196
0.3572937
0.3572702
0.6327025
0.6326569
0.632574
20
20
20
20
20
20
20
20
20
20
20
20
20
20
20
0.3574426
0.3574113
0.3573821
0.357356
0.3573343
0.6327433
0.6327106
0.6326716
0.6326116
20
20
20
20
20
20
20
20
20
20
20
20
20
20
20
0.3575095
0.3574769
0.3574464
0.357419
0.3573961
0.632779
0.6327494
0.6327184
0.6326835
0.6326368
20
20
20
20
20
20
20
20
20
20
20
20
20
20
20
0.3575699
0.3575376
0.3575069
0.3574788
0.3574545
0.6328122
0.6327836
0.6327546
0.6327246
0.6326921
0.7244896
20
20
20
20
20
20
20
20
20
20
20
20
20
20
20
0.3576242
0.3575926
0.3575623
0.357534
0.3575088
0.632843
0.6328152
0.6327869
0.6327582
0.6327289
0.7245232
0.7244959
20
20
20
20
20
20
20
20
20
20
20
20
20
20
20
20
20
20
20
20
20
20
20
20
20
20
20
20
20
20
20
20
20
20
20
20
20
20
20
20
20
20
20
20
20
20
20
20
20
20
20
20
20
20
20
20
20
20
20
20
0.08187537
0.0817753
0.08166883
0.08155335
0.08142158
0.08125958
0.08104089
0.0807166
0.07957624
20
20
20
20
20
0.0819603
0.08185681
0.08174847
0.081633
0.08150289
0.0813414
0.08112337
0.08081319
0.08037317
0.0791596
20
20
20
20
20
0.08204179
0.08193747
0.08183052
0.08172117
0.08160584
0.08147558
0.0813145
0.08110993
0.08086802
0.08069182
0.3560518
20
20
20
20
20
0.08212015
0.08201728
0.08191346
0.0818108
0.08170947
0.0816065
0.08149636
0.08137355
0.08125267
0.08120534
0.3567585
0.3561039
20
20
20
20
20
0.0821957
0.08209638
0.08199701
0.08190078
0.08180981
0.08172502
0.08164594
0.08157325
0.08151486
0.08151195
0.3570278
0.3568042
0.3562286
20
20
20
20
20
0.08226868
0.08217476
0.08208113
0.08199121
0.08190788
0.08183356
0.08177047
0.08172113
0.08169211
0.08170161
0.3571766
0.3570661
0.3568734
0.3564015
20
20
20
20
20
0.08233917
0.08225226
0.08216557
0.08208218
0.08200486
0.08193636
0.08187956
0.08183807
0.08181712
0.08182729
0.3572682
0.357201
0.3571085
0.3569547
0.3565997
20
20
20
20
20
0.08240715
0.08232858
0.08224982
0.08217327
0.08210115
0.08203578
0.08197992
0.08193721
0.08191321
0.08191656
0.3573313
0.3572806
0.3572235
0.3571507
0.3570378
0.6324227
20
20
20
20
20
0.0824725
0.08240319
0.08233301
0.08226351
0.08219611
0.0821324
0.08207436
0.08202512
0.08199039
0.08198167
0.3573776
0.3573343
0.3572907
0.357245
0.3571918
0.6326257
0.6324717
20
20
20
20
20
0.08253506
0.08247534
0.08241383
0.08235127
0.08228823
0.08222532
0.08216335
0.08210382
0.08205079
0.08201853
0.357411
0.3573736
0.3573379
0.3573038
0.357271
0.6326977
0.6326427
0.6325262
20
20
20
20
20
20
20
20
20
20
20
20
20
20
20
0.3574332
0.3574075
0.3573804
0.3573542
0.3573304
0.6327395
0.6327045
0.6326592
0.632577
20
20
20
20
20
20
20
20
20
20
20
20
20
20
20
0.3575002
0.3574695
0.3574403
0.3574135
0.3573904
0.6327754
0.6327451
0.6327127
0.6326739
0.6326143
20
20
20
20
20
20
20
20
20
20
20
20
20
20
20
0.3575637
0.3575319
0.3575018
0.3574741
0.3574498
0.6328094
0.6327806
0.6327512
0.6327204
0.6326858
0.7244796
20
20
20
20
20
20
20
20
20
20
20
20
20
20
20
0.3576211
0.3575898
0.3575596
0.3575315
0.3575063
0.6328416
0.6328136
0.6327852
0.6327564
0.6327267
0.7245208
0.7244912
20
20
20
20
20
20
20
20
20
20
20
20
20
20
20
0.3576727
0.3576422
0.3576126
0.3575845
0.3575588
0.6328716
0.6328444
0.6328166
0.6327885
0.63276
0.7245482
0.7245246
0.7244972
20
20
20
20
20
20
20
20
20
20
20
20
20
20
20
20
20
20
20
20
20
20
20
20
20
20
20
20
20
20
20
20
20
20
20
20
20
20
20
20
20
20
20
20
20
20
20
20
20
20
20
20
20
20
20
20
20
20
20
20
20
20
20
20
20
0.08196664
0.08187307
0.08177486
0.08167138
0.08156016
0.08143551
0.08128897
0.08110801
0.08087629
0.08009818
20
20
20
20
20
0.08204656
0.08194965
0.08184976
0.08174717
0.08163983
0.08152254
0.08138593
0.08122333
0.08103987
0.08089606
0.3562489
20
20
20
20
20
0.08212332
0.08202524
0.08192581
0.08182679
0.08172848
0.08162892
0.08152445
0.08141191
0.08130484
0.08126144
0.3568051
0.3562174
20
20
20
20
20
0.08219726
0.08210022
0.08200291
0.08190824
0.08181818
0.08173373
0.08165481
0.0815827
0.08152553
0.08152172
0.3570356
0.3568257
0.3562774
20
20
20
20
20
0.08226868
0.08217476
0.08208113
0.08199121
0.08190788
0.08183356
0.08177047
0.08172113
0.08169211
0.08170161
0.3571766
0.3570661
0.3568734
0.3564015
20
20
20
20
20
0.08233776
0.08224881
0.08216031
0.08207566
0.0819979
0.08192996
0.08187477
0.08183573
0.08181753
0.08183016
0.3572704
0.3572009
0.3571037
0.3569405
0.3565668
20
20
20
20
20
0.08240455
0.08232218
0.0822401
0.08216128
0.08208848
0.08202444
0.08197218
0.08193519
0.08191801
0.08192693
0.3573386
0.3572861
0.3572252
0.3571446
0.3570172
0.6323906
20
20
20
20
20
0.08246902
0.08239451
0.08231988
0.0822474
0.08217923
0.08211758
0.08206508
0.08202514
0.08200252
0.08200411
0.3573918
0.3573469
0.3573
0.3572486
0.3571858
0.6326121
0.6324277
20
20
20
20
20
0.08253101
0.08246529
0.08239876
0.08233291
0.08226912
0.08220886
0.08215403
0.08210746
0.08207429
0.0820645
0.3574347
0.3573937
0.3573535
0.3573136
0.357273
0.6326936
0.632628
0.632476
20
20
20
20
20
0.08259035
0.08253373
0.08247543
0.08241614
0.08235646
0.08229694
0.08223836
0.08218212
0.08213194
0.08210078
0.3574674
0.3574313
0.3573966
0.3573638
0.3573329
0.6327379
0.6326995
0.6326449
0.6325298
20
20
20
20
20
20
20
20
20
20
20
20
20
20
20
0.3574909
0.3574653
0.3574383
0.3574115
0.357387
0.6327724
0.6327412
0.6327064
0.6326615
0.6325799
20
20
20
20
20
20
20
20
20
20
20
20
20
20
20
0.3575547
0.3575247
0.3574958
0.3574687
0.3574444
0.6328061
0.632777
0.6327469
0.6327147
0.6326762
0.7244628
20
20
20
20
20
20
20
20
20
20
20
20
20
20
20
0.3576151
0.3575843
0.3575547
0.3575269
0.3575018
0.632839
0.6328109
0.6327823
0.6327531
0.6327225
0.7245161
0.7244813
20
20
20
20
20
20
20
20
20
20
20
20
20
20
20
0.3576697
0.3576394
0.35761
0.3575821
0.3575564
0.6328702
0.6328429
0.6328151
0.6327869
0.6327582
0.7245466
0.7245223
0.7244925
20
20
20
20
20
20
20
20
20
20
20
20
20
20
20
0.3577187
0.3576893
0.3576606
0.357633
0.3576071
0.6328994
0.6328728
0.6328457
0.6328181
0.6327901
0.7245714
0.7245495
0.7245258
0.7244981
20
20
20
20
20
20
20
20
20
20
20
20
20
20
20
20
20
20
20
20
20
20
20
20
20
20
20
20
20
20
20
20
20
20
20
20
20
20
20
20
20
20
20
20
20
20
20
20
20
20
20
20
20
20
20
20
20
20
20
20
20
20
20
20
20
20
20
20
20
20
0.08205246
0.08196456
0.08187293
0.08177786
0.08167868
0.08157365
0.08145962
0.08133492
0.08120349
0.0810928
0.3565019
20
20
20
20
20
0.08212781
0.0820366
0.08194334
0.08184922
0.08175459
0.08165846
0.08155914
0.08145592
0.08136097
0.08131892
0.3568596
0.3563836
20
20
20
20
20
0.08220027
0.08210771
0.08201441
0.08192269
0.08183423
0.08175006
0.08167067
0.08159827
0.08154155
0.08153493
0.3570475
0.3568638
0.3563733
20
20
20
20
20
0.08227016
0.0821784
0.08208669
0.08199813
0.08191538
0.08184073
0.08177647
0.08172546
0.08169472
0.08170216
0.3571772
0.3570722
0.356891
0.3564422
20
20
20
20
20
0.08233776
0.08224881
0.08216031
0.08207566
0.0819979
0.08192996
0.08187477
0.08183573
0.08181753
0.08183016
0.3572704
0.3572009
0.3571037
0.3569405
0.3565668
20
20
20
20
20
0.08240321
0.0823189
0.0822351
0.0821551
0.08208191
0.08201849
0.08196794
0.08193357
0.08191941
0.08193084
0.3573416
0.3572882
0.3572253
0.3571407
0.3570058
0.632374
20
20
20
20
20
0.08246654
0.08238843
0.08231063
0.08223601
0.0821672
0.08210684
0.08205782
0.08202343
0.08200745
0.08201439
0.3573992
0.3573535
0.3573046
0.3572496
0.3571805
0.6326016
0.6323961
20
20
20
20
20
0.08252769
0.08245704
0.08238627
0.0823176
0.08225305
0.08219474
0.08214511
0.08210727
0.08208546
0.08208524
0.3574478
0.3574057
0.3573635
0.3573201
0.3572741
0.6326899
0.6326144
0.6324327
20
20
20
20
20
0.0825865
0.08252419
0.08246111
0.0823987
0.08233828
0.08228124
0.08222934
0.08218519
0.08215342
0.08214289
0.3574888
0.3574494
0.357411
0.3573737
0.3573371
0.6327375
0.6326953
0.6326302
0.6324803
20
20
20
20
20
0.08264278
0.08258912
0.08253386
0.08247768
0.08242115
0.08236481
0.0823094
0.08225623
0.08220872
0.08217874
0.3575211
0.3574862
0.3574524
0.35742
0.3573896
0.6327718
0.6327394
0.6327012
0.6326471
0.6325333
20
20
20
20
20
20
20
20
20
20
20
20
20
20
20
0.3575455
0.3575203
0.3574934
0.3574664
0.357441
0.6328034
0.6327739
0.632743
0.6327084
0.6326638
0.7244372
20
20
20
20
20
20
20
20
20
20
20
20
20
20
20
0.3576063
0.3575772
0.3575488
0.3575216
0.3574965
0.6328358
0.6328075
0.6327786
0.6327487
0.6327167
0.7245089
0.7244645
20
20
20
20
20
20
20
20
20
20
20
20
20
20
20
0.3576638
0.3576341
0.3576052
0.3575776
0.3575521
0.6328677
0.6328403
0.6328124
0.6327839
0.6327549
0.7245434
0.7245176
0.7244826
20
20
20
20
20
20
20
20
20
20
20
20
20
20
20
0.3577158
0.3576867
0.3576581
0.3576306
0.3576048
0.6328981
0.6328715
0.6328443
0.6328166
0.6327885
0.7245701
0.7245479
0.7245234
0.7244934
20
20
20
20
20
20
20
20
20
20
20
20
20
20
20
0.3577625
0.3577343
0.3577064
0.3576794
0.3576537
0.6329263
0.6329005
0.6328741
0.632847
0.6328196
0.7245938
0.7245726
0.7245505
0.7245266
0.7244986
20
20
20
20
20
20
20
20
20
20
20
20
20
20
20
20
20
20
20
20
20
20
20
20
20
20
20
20
20
20
20
20
20
20
20
20
20
20
20
20
20
20
20
20
20
20
20
20
20
20
20
20
20
20
20
20
20
20
20
20
20
20
20
20
20
20
20
20
20
0.3567433
20
20
20
20
20
0.08213337
0.08205051
0.08196452
0.08187598
0.08178506
0.08169143
0.08159466
0.0814951
0.0814004
0.081341
0.3569009
0.3565875
20
20
20
20
20
0.08220452
0.08211842
0.08203074
0.08194306
0.08185653
0.08177203
0.08169033
0.08161421
0.0815528
0.08153771
0.3570553
0.3569082
0.3565113
20
20
20
20
20
0.08227302
0.08218549
0.08209751
0.08201156
0.08192983
0.0818543
0.08178727
0.08173205
0.08169652
0.08169908
0.3571759
0.3570813
0.3569221
0.3565215
20
20
20
20
20
0.08233917
0.08225226
0.08216557
0.08208218
0.08200486
0.08193636
0.08187956
0.08183807
0.08181712
0.08182729
0.3572682
0.357201
0.3571085
0.3569547
0.3565997
20
20
20
20
20
0.08240321
0.0823189
0.0822351
0.0821551
0.08208191
0.08201849
0.08196794
0.08193357
0.08191941
0.08193084
0.3573416
0.3572882
0.3572253
0.3571407
0.3570058
0.632374
20
20
20
20
20
0.08246526
0.0823853
0.08230588
0.08223014
0.08216097
0.08210121
0.08205385
0.08202204
0.08200904
0.08201843
0.3574023
0.3573563
0.3573065
0.3572497
0.3571773
0.6325959
0.6323797
20
20
20
20
20
0.08252533
0.08245124
0.08237748
0.08230676
0.0822416
0.0821845
0.08213816
0.08210557
0.08209005
0.08209487
0.3574548
0.3574123
0.357369
0.3573236
0.3572743
0.632687
0.6326041
0.6324015
20
20
20
20
20
0.08258334
0.08251634
0.08244924
0.08238414
0.08232299
0.08226776
0.08222074
0.08218476