/*--------------------------------*- C++ -*----------------------------------*\
| =========                 |                                                 |
| \\      /  F ield         | OpenFOAM: The Open Source CFD Toolbox           |
|  \\    /   O peration     | Version:  2306                                  |
|   \\  /    A nd           | Website:  www.openfoam.com                      |
|    \\/     M anipulation  |                                                 |
\*---------------------------------------------------------------------------*/
FoamFile
{
    version     2.0;
    format      ascii;
    arch        "LSB;label=32;scalar=64";
    class       volScalarField;
    location    "0.6";
    object      rhoCp;
}
// * * * * * * * * * * * * * * * * * * * * * * * * * * * * * * * * * * * * * //

dimensions      [1 -1 -2 -1 0 0 0];

internalField   nonuniform List<scalar> 
52000
(
5346000
5346000
5346000
5346000
5346000
5346000
5346000
5346000
5346000
5346000
5346000
5346000
5346000
5346000
5346000
5346000
5346000
5346000
5346000
5346000
5346000
5346000
5346000
5346000
5346000
5346000
5346000
5346000
5346000
5346000
5346000
5346000
5346000
5346000
5346000
5346000
5346000
5346000
5346000
5346000
5346000
5346000
5346000
5346000
5346000
5346000
5346000
5346000
5346000
5346000
5346000
5346000
5346000
5346000
5346000
5346000
5346000
5346000
5346000
5346000
5346000
5346000
5346000
5346000
5346000
5346000
5346000
5346000
5346000
5346000
5346000
5346000
5346000
5346000
5346000
5346000
5346000
5346000
5346000
5346000
5346000
5346000
5346000
5346000
5346000
5346000
5346000
5346000
5346000
5346000
5346000
5346000
5346000
5346000
5346000
5346000
5346000
5346000
5346000
5346000
5346000
5346000
5346000
5346000
5346000
5346000
5346000
5346000
5346000
5346000
5346000
5346000
5346000
5346000
5346000
5346000
5346000
5346000
5346000
5346000
5346000
5346000
5346000
5346000
5346000
5346000
5346000
5346000
5346000
5346000
5346000
5346000
5346000
5346000
5346000
5346000
5346000
5346000
5346000
5346000
5346000
5346000
5346000
5346000
5346000
5346000
5346000
5346000
5346000
5346000
5346000
5346000
5346000
5346000
5346000
5346000
5346000
5346000
5346000
5346000
5346000
5346000
5346000
5346000
5346000
5346000
5346000
5346000
5346000
5346000
5346000
5346000
5346000
5346000
5346000
5346000
5346000
5346000
5346000
5346000
5346000
5346000
5346000
5346000
5346000
5346000
5346000
5346000
5346000
5346000
5346000
5346000
5346000
5346000
5346000
5346000
5346000
5346000
5346000
5346000
5346000
5346000
5346000
5346000
5346000
5346000
5346000
5346000
5346000
5346000
5346000
5346000
5346000
5346000
5346000
5346000
5346000
5346000
5346000
5346000
5346000
5346000
5346000
5346000
5346000
5346000
5346000
5346000
5346000
5346000
5346000
5346000
5346000
5346000
5346000
5346000
5346000
5346000
5346000
5346000
368.3264
5346000
5346000
5346000
5346000
5346000
5346000
5346000
5346000
5346000
5346000
5346000
5346000
5346000
5346000
5346000
5346000
5346000
5346000
5346000
5346000
5346000
5346000
5346000
5346000
5346000
5346000
5346000
5346000
5346000
5346000
5346000
5346000
5346000
5346000
5346000
5346000
5346000
5346000
5346000
5346000
5346000
5346000
5346000
5346000
5346000
5346000
5346000
5346000
5346000
5346000
5346000
5346000
5346000
5346000
5346000
5346000
5346000
5346000
5346000
5346000
5346000
5346000
5346000
5346000
5346000
371.3369
5346000
5346000
5346000
5346000
5346000
364.8586
371.3871
5346000
5346000
5346000
5346000
5346000
5346000
5346000
5346000
5346000
5346000
5346000
5346000
5346000
5346000
5346000
5346000
5346000
5346000
5346000
5346000
5346000
5346000
5346000
5346000
5346000
5346000
5346000
5346000
5346000
5346000
5346000
5346000
5346000
5346000
5346000
5346000
5346000
5346000
5346000
5346000
5346000
5346000
5346000
5346000
5346000
5346000
5346000
5346000
5346000
5346000
5346000
5346000
5346000
5346000
5346000
5346000
5346000
5346000
5346000
5346000
5346000
5346000
5346000
5346000
5346000
5346000
5346000
5346000
5346000
5346000
373.0071
5346000
5346000
5346000
5346000
5346000
365.6179
378.8938
5346000
5346000
5346000
5346000
5346000
363.9711
365.6254
373.1015
5346000
5346000
5346000
5346000
5346000
5346000
5346000
5346000
5346000
5346000
5346000
5346000
5346000
5346000
5346000
5346000
5346000
5346000
5346000
5346000
5346000
5346000
5346000
5346000
5346000
5346000
5346000
5346000
5346000
5346000
5346000
5346000
5346000
5346000
5346000
5346000
5346000
5346000
5346000
5346000
5346000
5346000
5346000
5346000
5346000
5346000
5346000
5346000
5346000
5346000
5346000
5346000
5346000
5346000
5346000
5346000
5346000
5346000
5346000
5346000
5346000
5346000
5346000
5346000
5346000
5346000
5346000
5346000
5346000
5346000
5346000
5346000
5346000
5346000
5346000
373.9555
5346000
5346000
5346000
5346000
5346000
366.2759
383.6905
5346000
5346000
5346000
5346000
5346000
364.2897
367.8823
383.7659
5346000
5346000
5346000
5346000
5346000
363.2377
364.274
366.2888
374.103
5346000
5346000
5346000
5346000
5346000
5346000
5346000
5346000
5346000
5346000
5346000
5346000
5346000
5346000
5346000
5346000
5346000
5346000
5346000
5346000
5346000
5346000
5346000
5346000
5346000
5346000
5346000
5346000
5346000
5346000
5346000
5346000
5346000
5346000
5346000
5346000
5346000
5346000
5346000
5346000
5346000
5346000
5346000
5346000
5346000
5346000
5346000
5346000
5346000
5346000
5346000
5346000
5346000
5346000
5346000
5346000
5346000
5346000
5346000
5346000
5346000
5346000
5346000
5346000
5346000
5346000
5346000
5346000
5346000
5346000
5346000
5346000
5346000
5346000
5346000
5346000
5346000
5346000
5346000
5346000
374.3963
5346000
5346000
5346000
5346000
5346000
366.7602
386.6103
5346000
5346000
5346000
5346000
5346000
364.5764
369.8796
391.2045
5346000
5346000
5346000
5346000
5346000
363.3932
365.2111
369.9034
386.8154
5346000
5346000
5346000
5346000
5346000
362.5915
363.3685
364.5438
366.7807
374.6124
5346000
5346000
5346000
5346000
5346000
5346000
5346000
5346000
5346000
5346000
5346000
5346000
5346000
5346000
5346000
5346000
5346000
5346000
5346000
5346000
5346000
5346000
5346000
5346000
5346000
5346000
5346000
5346000
5346000
5346000
5346000
5346000
5346000
5346000
5346000
5346000
5346000
5346000
5346000
5346000
5346000
5346000
5346000
5346000
5346000
5346000
5346000
5346000
5346000
5346000
5346000
5346000
5346000
5346000
5346000
5346000
5346000
5346000
5346000
5346000
5346000
5346000
5346000
5346000
5346000
5346000
5346000
5346000
5346000
5346000
5346000
5346000
5346000
5346000
5346000
5346000
5346000
5346000
5346000
5346000
5346000
5346000
5346000
5346000
5346000
374.3963
5346000
5346000
5346000
5346000
5346000
367.0168
388.0043
5346000
5346000
5346000
5346000
5346000
364.7958
371.3705
395.9967
5346000
5346000
5346000
5346000
5346000
363.5305
366.0702
373.182
396.1818
5346000
5346000
5346000
5346000
5346000
362.6795
363.8095
366.0566
371.4423
388.4173
5346000
5346000
5346000
5346000
5346000
362.0006
362.653
363.4801
364.7434
367.0467
374.7034
5346000
5346000
5346000
5346000
5346000
5346000
5346000
5346000
5346000
5346000
5346000
5346000
5346000
5346000
5346000
5346000
5346000
5346000
5346000
5346000
5346000
5346000
5346000
5346000
5346000
5346000
5346000
5346000
5346000
5346000
5346000
5346000
5346000
5346000
5346000
5346000
5346000
5346000
5346000
5346000
5346000
5346000
5346000
5346000
5346000
5346000
5346000
5346000
5346000
5346000
5346000
5346000
5346000
5346000
5346000
5346000
5346000
5346000
5346000
5346000
5346000
5346000
5346000
5346000
5346000
5346000
5346000
5346000
5346000
364.0548
5346000
5346000
5346000
5346000
5346000
5346000
5346000
5346000
5346000
5346000
5346000
5346000
5346000
5346000
5346000
5346000
5346000
5346000
5346000
5346000
373.9555
5346000
5346000
5346000
5346000
5346000
367.0168
388.0043
5346000
5346000
5346000
5346000
5346000
364.9152
372.167
398.3607
5346000
5346000
5346000
5346000
5346000
363.6349
366.736
375.6744
402.4469
5346000
5346000
5346000
5346000
5346000
362.7546
364.2084
367.4702
375.7502
398.8861
5346000
5346000
5346000
5346000
5346000
362.0585
362.8906
364.1799
366.7109
372.3122
388.7112
5346000
5346000
5346000
5346000
5346000
361.4582
362.0329
362.7005
363.5533
364.8371
367.053
374.3787
5346000
5346000
5346000
5346000
5346000
5346000
5346000
5346000
5346000
5346000
5346000
5346000
5346000
5346000
5346000
5346000
5346000
5346000
5346000
5346000
5346000
5346000
5346000
5346000
5346000
5346000
5346000
5346000
5346000
5346000
5346000
5346000
5346000
5346000
5346000
5346000
5346000
5346000
5346000
5346000
5346000
5346000
5346000
5346000
5346000
5346000
5346000
5346000
5346000
5346000
5346000
5346000
5346000
5346000
5346000
5346000
5346000
364.1014
5346000
5346000
5346000
5346000
5346000
5346000
5346000
5346000
5346000
5346000
5346000
5346000
5346000
5346000
5346000
363.3758
363.6393
5346000
5346000
5346000
5346000
5346000
5346000
5346000
5346000
5346000
5346000
5346000
5346000
5346000
5346000
5346000
5346000
5346000
5346000
5346000
5346000
373.0071
5346000
5346000
5346000
5346000
5346000
366.7602
386.6103
5346000
5346000
5346000
5346000
5346000
364.9152
372.167
398.3607
5346000
5346000
5346000
5346000
5346000
363.6916
367.1007
377.0205
405.583
5346000
5346000
5346000
5346000
5346000
362.8104
364.5159
368.5816
379.077
406.0049
5346000
5346000
5346000
5346000
5346000
362.1062
363.0997
364.8255
368.5771
377.231
399.3971
5346000
5346000
5346000
5346000
5346000
361.5023
362.1815
363.0672
364.4509
367.0614
372.3975
387.6987
5346000
5346000
5346000
5346000
5346000
360.9544
361.4785
362.0538
362.7227
363.5706
364.8004
366.7878
373.5743
5346000
5346000
5346000
5346000
5346000
5346000
5346000
5346000
5346000
5346000
5346000
5346000
5346000
5346000
5346000
5346000
5346000
5346000
5346000
5346000
5346000
5346000
5346000
5346000
5346000
5346000
5346000
5346000
5346000
5346000
5346000
5346000
5346000
5346000
5346000
5346000
5346000
5346000
5346000
5346000
5346000
5346000
5346000
5346000
364.1982
5346000
5346000
5346000
5346000
5346000
5346000
5346000
5346000
5346000
5346000
5346000
5346000
5346000
5346000
5346000
363.405
363.6934
5346000
5346000
5346000
5346000
5346000
5346000
5346000
5346000
5346000
5346000
5346000
5346000
5346000
5346000
5346000
362.7365
362.9946
363.2181
5346000
5346000
5346000
5346000
5346000
5346000
5346000
5346000
5346000
5346000
5346000
5346000
5346000
5346000
5346000
5346000
5346000
5346000
5346000
5346000
371.3369
5346000
5346000
5346000
5346000
5346000
366.2759
383.6905
5346000
5346000
5346000
5346000
5346000
364.7958
371.3705
395.9967
5346000
5346000
5346000
5346000
5346000
363.6916
367.1007
377.0205
405.583
5346000
5346000
5346000
5346000
5346000
362.8403
364.6842
369.1955
380.8914
409.6035
5346000
5346000
5346000
5346000
5346000
362.1408
363.2573
365.3305
370.062
381.0662
406.6886
5346000
5346000
5346000
5346000
5346000
361.5377
362.3084
363.3966
365.2918
369.1908
377.4036
397.6958
5346000
5346000
5346000
5346000
5346000
360.9913
361.5873
362.2763
363.1811
364.5691
367.0309
371.6653
385.2514
5346000
5346000
5346000
5346000
5346000
360.4851
360.9694
361.4887
362.0557
362.7103
363.5191
364.6244
366.2597
372.1048
5346000
5346000
5346000
5346000
5346000
5346000
5346000
5346000
5346000
5346000
5346000
5346000
5346000
5346000
5346000
5346000
5346000
5346000
5346000
5346000
5346000
5346000
5346000
5346000
5346000
5346000
5346000
5346000
5346000
5346000
364.3641
5346000
5346000
5346000
5346000
5346000
5346000
5346000
5346000
5346000
5346000
5346000
5346000
5346000
5346000
5346000
363.4626
363.8109
5346000
5346000
5346000
5346000
5346000
5346000
5346000
5346000
5346000
5346000
5346000
5346000
5346000
5346000
5346000
362.7605
363.0235
363.2782
5346000
5346000
5346000
5346000
5346000
5346000
5346000
5346000
5346000
5346000
5346000
5346000
5346000
5346000
5346000
362.1393
362.4004
362.6105
362.7875
5346000
5346000
5346000
5346000
5346000
5346000
5346000
5346000
5346000
5346000
5346000
5346000
5346000
5346000
5346000
5346000
5346000
5346000
5346000
5346000
368.3264
5346000
5346000
5346000
5346000
5346000
365.6179
378.8938
5346000
5346000
5346000
5346000
5346000
364.5764
369.8796
391.2045
5346000
5346000
5346000
5346000
5346000
363.6349
366.736
375.6744
402.4469
5346000
5346000
5346000
5346000
5346000
362.8403
364.6842
369.1955
380.8914
409.6035
5346000
5346000
5346000
5346000
5346000
362.1591
363.3424
365.6093
370.8881
383.1708
410.3844
5346000
5346000
5346000
5346000
5346000
361.5627
362.4016
363.6487
365.9577
370.8982
381.3164
404.4626
5346000
5346000
5346000
5346000
5346000
361.0205
361.6778
362.4702
363.5996
365.5147
369.1756
376.214
393.6793
5346000
5346000
5346000
5346000
5346000
360.518
361.0587
361.6475
362.3256
363.206
364.496
366.5972
370.1682
381.0392
5346000
5346000
5346000
5346000
5346000
360.0457
360.4979
360.9754
361.483
362.0326
362.6562
363.3925
364.3131
365.4849
369.4475
5346000
5346000
5346000
5346000
5346000
5346000
5346000
5346000
5346000
5346000
5346000
5346000
5346000
5346000
5346000
364.6962
5346000
5346000
5346000
5346000
5346000
5346000
5346000
5346000
5346000
5346000
5346000
5346000
5346000
5346000
5346000
363.549
364.0284
5346000
5346000
5346000
5346000
5346000
5346000
5346000
5346000
5346000
5346000
5346000
5346000
5346000
5346000
5346000
362.8071
363.0802
363.4109
5346000
5346000
5346000
5346000
5346000
5346000
5346000
5346000
5346000
5346000
5346000
5346000
5346000
5346000
5346000
362.1607
362.4221
362.6392
362.8515
5346000
5346000
5346000
5346000
5346000
5346000
5346000
5346000
5346000
5346000
5346000
5346000
5346000
5346000
5346000
361.5912
361.8452
362.0622
362.2209
362.3549
5346000
5346000
5346000
5346000
5346000
5346000
5346000
5346000
5346000
5346000
5346000
5346000
5346000
5346000
5346000
5346000
5346000
5346000
5346000
5346000
5346000
5346000
5346000
5346000
5346000
364.8586
371.3871
5346000
5346000
5346000
5346000
5346000
364.2897
367.8823
383.7659
5346000
5346000
5346000
5346000
5346000
363.5305
366.0702
373.182
396.1818
5346000
5346000
5346000
5346000
5346000
362.8104
364.5159
368.5816
379.077
406.0049
5346000
5346000
5346000
5346000
5346000
362.1591
363.3424
365.6093
370.8881
383.1708
410.3844
5346000
5346000
5346000
5346000
5346000
361.5758
362.451
363.786
366.3281
371.8527
383.4671
407.872
5346000
5346000
5346000
5346000
5346000
361.041
361.7426
362.6146
363.9241
366.2703
370.901
379.7542
399.2505
5346000
5346000
5346000
5346000
5346000
360.5438
361.1318
361.7821
362.5645
363.6643
365.4289
368.4983
373.7832
387.1049
5346000
5346000
5346000
5346000
5346000
360.0757
360.5766
361.1038
361.6707
362.3144
363.122
364.2174
365.7916
368.0282
374.3056
5346000
5346000
5346000
5346000
5346000
359.6333
360.0573
360.5022
360.9672
361.4572
361.9803
362.5557
363.1881
363.8663
364.4376
366.3593
5346000
5346000
5346000
5346000
5346000
5346000
5346000
5346000
5346000
5346000
5346000
5346000
5346000
5346000
5346000
363.6438
364.4795
5346000
5346000
5346000
5346000
5346000
5346000
5346000
5346000
5346000
5346000
5346000
5346000
5346000
5346000
5346000
362.8735
363.1622
363.6583
5346000
5346000
5346000
5346000
5346000
5346000
5346000
5346000
5346000
5346000
5346000
5346000
5346000
5346000
5346000
362.2019
362.4623
362.6954
362.993
5346000
5346000
5346000
5346000
5346000
5346000
5346000
5346000
5346000
5346000
5346000
5346000
5346000
5346000
5346000
361.611
361.8636
362.0819
362.2495
362.4207
5346000
5346000
5346000
5346000
5346000
5346000
5346000
5346000
5346000
5346000
5346000
5346000
5346000
5346000
5346000
361.0776
361.3332
361.5492
361.7199
361.8332
362.0994
5346000
5346000
5346000
5346000
5346000
5346000
5346000
5346000
5346000
5346000
5346000
5346000
5346000
5346000
5346000
5346000
5346000
5346000
5346000
5346000
5346000
5346000
5346000
5346000
5346000
5346000
5346000
5346000
5346000
5346000
363.9711
365.6254
373.1015
5346000
5346000
5346000
5346000
5346000
363.3932
365.2111
369.9034
386.8154
5346000
5346000
5346000
5346000
5346000
362.7546
364.2084
367.4702
375.7502
398.8861
5346000
5346000
5346000
5346000
5346000
362.1408
363.2573
365.3305
370.062
381.0662
406.6886
5346000
5346000
5346000
5346000
5346000
361.5758
362.451
363.786
366.3281
371.8527
383.4671
407.872
5346000
5346000
5346000
5346000
5346000
361.0515
361.7764
362.6919
364.1022
366.6929
371.8673
381.6947
402.0379
5346000
5346000
5346000
5346000
5346000
360.5617
361.1833
361.8797
362.7448
364.0235
366.1791
370.0289
376.5742
390.9653
5346000
5346000
5346000
5346000
5346000
360.0993
360.6404
361.2106
361.832
362.5672
363.5589
365.0155
367.233
370.3899
377.4332
5346000
5346000
5346000
5346000
5346000
359.6613
360.1292
360.6145
361.1165
361.647
362.2312
362.9192
363.7412
364.6797
365.4129
368.1599
5346000
5346000
5346000
5346000
5346000
359.2452
359.6442
360.0609
360.4935
360.9415
361.4081
361.8948
362.4032
362.892
363.219
363.5224
365.7609
5346000
5346000
5346000
5346000
5346000
5346000
5346000
5346000
5346000
5346000
5346000
5346000
5346000
5346000
5346000
362.9206
363.2446
364.1368
5346000
5346000
5346000
5346000
5346000
5346000
5346000
5346000
5346000
5346000
5346000
5346000
5346000
5346000
5346000
362.2595
362.5116
362.7765
363.2515
5346000
5346000
5346000
5346000
5346000
5346000
5346000
5346000
5346000
5346000
5346000
5346000
5346000
5346000
5346000
361.6491
361.8971
362.1175
362.3058
362.5651
5346000
5346000
5346000
5346000
5346000
5346000
5346000
5346000
5346000
5346000
5346000
5346000
5346000
5346000
5346000
361.0962
361.35
361.5653
361.7383
361.8617
362.1649
5346000
5346000
5346000
5346000
5346000
5346000
5346000
5346000
5346000
5346000
5346000
5346000
5346000
5346000
5346000
360.5986
360.85
361.0734
361.2496
361.3805
361.6059
362.0673
5346000
5346000
5346000
5346000
5346000
5346000
5346000
5346000
5346000
5346000
5346000
5346000
5346000
5346000
5346000
5346000
5346000
5346000
5346000
5346000
5346000
5346000
5346000
5346000
5346000
5346000
5346000
5346000
5346000
5346000
5346000
5346000
5346000
5346000
5346000
363.2377
364.274
366.2888
374.103
5346000
5346000
5346000
5346000
5346000
362.6795
363.8095
366.0566
371.4423
388.4173
5346000
5346000
5346000
5346000
5346000
362.1062
363.0997
364.8255
368.5771
377.231
399.3971
5346000
5346000
5346000
5346000
5346000
361.5627
362.4016
363.6487
365.9577
370.8982
381.3164
404.4626
5346000
5346000
5346000
5346000
5346000
361.0515
361.7764
362.6919
364.1022
366.6929
371.8673
381.6947
402.0379
5346000
5346000
5346000
5346000
5346000
360.571
361.2098
361.931
362.8421
364.2222
366.6003
370.886
378.0953
392.8615
5346000
5346000
5346000
5346000
5346000
360.1157
360.685
361.2866
361.9503
362.7603
363.9051
365.6626
368.3984
372.2079
379.3854
5346000
5346000
5346000
5346000
5346000
359.6833
360.1873
360.707
361.2422
361.8121
362.4608
363.2711
364.3035
365.5365
366.4317
369.5828
5346000
5346000
5346000
5346000
5346000
359.2714
359.7111
360.1633
360.6232
361.0895
361.5685
362.0679
362.5941
363.0825
363.3168
363.784
367.1976
5346000
5346000
5346000
5346000
5346000
358.8793
359.2556
359.6476
360.0525
360.469
360.8957
361.3322
361.7695
362.1794
362.4234
362.5112
363.2402
365.1501
5346000
5346000
5346000
5346000
5346000
5346000
5346000
5346000
5346000
5346000
5346000
5346000
5346000
5346000
5346000
362.2917
362.5185
362.8627
363.7116
5346000
5346000
5346000
5346000
5346000
5346000
5346000
5346000
5346000
5346000
5346000
5346000
5346000
5346000
5346000
361.7021
361.9347
362.1577
362.3884
362.8211
5346000
5346000
5346000
5346000
5346000
5346000
5346000
5346000
5346000
5346000
5346000
5346000
5346000
5346000
5346000
361.1321
361.3803
361.593
361.7712
361.9186
362.3079
5346000
5346000
5346000
5346000
5346000
5346000
5346000
5346000
5346000
5346000
5346000
5346000
5346000
5346000
5346000
360.6164
360.8658
361.0878
361.264
361.3981
361.6342
362.1327
5346000
5346000
5346000
5346000
5346000
5346000
5346000
5346000
5346000
5346000
5346000
5346000
5346000
5346000
5346000
360.1484
360.3966
360.6208
360.8103
360.9531
361.1811
361.5771
362.0357
5346000
5346000
5346000
5346000
5346000
5346000
5346000
5346000
5346000
5346000
5346000
5346000
5346000
5346000
5346000
5346000
5346000
5346000
5346000
5346000
5346000
5346000
5346000
5346000
5346000
5346000
5346000
5346000
5346000
5346000
5346000
5346000
5346000
5346000
5346000
5346000
5346000
5346000
5346000
5346000
362.5915
363.3685
364.5438
366.7807
374.6124
5346000
5346000
5346000
5346000
5346000
362.0585
362.8906
364.1799
366.7109
372.3122
388.7112
5346000
5346000
5346000
5346000
5346000
361.5377
362.3084
363.3966
365.2918
369.1908
377.4036
397.6958
5346000
5346000
5346000
5346000
5346000
361.041
361.7426
362.6146
363.9241
366.2703
370.901
379.7542
399.2505
5346000
5346000
5346000
5346000
5346000
360.571
361.2098
361.931
362.8421
364.2222
366.6003
370.886
378.0953
392.8615
5346000
5346000
5346000
5346000
5346000
360.1241
360.7078
361.3261
362.0129
362.8654
364.0978
366.0274
369.0515
373.1947
380.3364
5346000
5346000
5346000
5346000
5346000
359.6985
360.2277
360.7722
361.3324
361.9347
362.6391
363.5561
364.7715
366.25
367.244
370.5417
5346000
5346000
5346000
5346000
5346000
359.292
359.7652
360.2473
360.7311
361.2154
361.7113
362.236
362.8081
363.3553
363.5921
364.1545
368.3868
5346000
5346000
5346000
5346000
5346000
358.9039
359.3184
359.7429
360.1705
360.5964
361.0166
361.4284
361.8171
362.1399
362.2354
362.4118
363.4523
366.2932
5346000
5346000
5346000
5346000
5346000
358.5336
358.8892
359.2588
359.6396
360.0294
360.4263
360.8267
361.2231
361.5847
361.8034
361.8304
362.2821
362.9252
364.5201
5346000
5346000
5346000
5346000
5346000
5346000
5346000
5346000
5346000
5346000
5346000
5346000
5346000
5346000
5346000
361.7303
361.9204
362.1587
362.4841
363.2421
5346000
5346000
5346000
5346000
5346000
5346000
5346000
5346000
5346000
5346000
5346000
5346000
5346000
5346000
5346000
361.1821
361.4134
361.6193
361.8089
362.0043
362.5573
5346000
5346000
5346000
5346000
5346000
5346000
5346000
5346000
5346000
5346000
5346000
5346000
5346000
5346000
5346000
360.6506
360.8942
361.1122
361.2883
361.4302
361.6912
362.2753
5346000
5346000
5346000
5346000
5346000
5346000
5346000
5346000
5346000
5346000
5346000
5346000
5346000
5346000
5346000
360.1653
360.4116
360.6342
360.8229
360.9665
361.1984
361.6054
362.1009
5346000
5346000
5346000
5346000
5346000
5346000
5346000
5346000
5346000
5346000
5346000
5346000
5346000
5346000
5346000
359.7253
359.9678
360.193
360.3883
360.5501
360.7779
361.1557
361.549
362.0034
5346000
5346000
5346000
5346000
5346000
5346000
5346000
5346000
5346000
5346000
5346000
5346000
5346000
5346000
5346000
5346000
5346000
5346000
5346000
5346000
5346000
5346000
5346000
5346000
5346000
5346000
5346000
5346000
5346000
5346000
5346000
5346000
5346000
5346000
5346000
5346000
5346000
5346000
5346000
5346000
5346000
5346000
5346000
5346000
5346000
362.0006
362.653
363.4801
364.7434
367.0467
374.7034
5346000
5346000
5346000
5346000
5346000
361.5023
362.1815
363.0672
364.4509
367.0614
372.3975
387.6987
5346000
5346000
5346000
5346000
5346000
361.0205
361.6778
362.4702
363.5996
365.5147
369.1756
376.214
393.6793
5346000
5346000
5346000
5346000
5346000
360.5617
361.1833
361.8797
362.7448
364.0235
366.1791
370.0289
376.5742
390.9653
5346000
5346000
5346000
5346000
5346000
360.1241
360.7078
361.3261
362.0129
362.8654
364.0978
366.0274
369.0515
373.1947
380.3364
5346000
5346000
5346000
5346000
5346000
359.7063
360.2484
360.8058
361.3796
362.0001
362.7371
363.7165
365.0384
366.6539
367.6897
371.0224
5346000
5346000
5346000
5346000
5346000
359.3064
359.8027
360.3062
360.8076
361.3067
361.8193
362.372
362.9948
363.61
363.8643
364.4766
369.2048
5346000
5346000
5346000
5346000
5346000
358.9234
359.3691
359.8209
360.2681
360.7034
361.1217
361.5218
361.8913
362.1891
362.2385
362.4499
363.7492
367.2699
5346000
5346000
5346000
5346000
5346000
358.5569
358.9484
359.3483
359.7494
360.1451
360.529
360.8917
361.218
361.4642
361.5285
361.6235
362.2013
363.1084
365.4235
5346000
5346000
5346000
5346000
5346000
358.2068
358.5431
358.8922
359.2513
359.6179
359.9895
360.3627
360.7285
361.0618
361.2642
361.2884
361.6338
362.0315
362.585
363.8874
5346000
5346000
5346000
5346000
5346000
5346000
5346000
5346000
5346000
5346000
5346000
5346000
5346000
5346000
5346000
361.2099
361.3954
361.5958
361.8195
362.1116
362.9523
5346000
5346000
5346000
5346000
5346000
5346000
5346000
5346000
5346000
5346000
5346000
5346000
5346000
5346000
5346000
360.6985
360.9253
361.1337
361.3105
361.47
361.7784
362.5238
5346000
5346000
5346000
5346000
5346000
5346000
5346000
5346000
5346000
5346000
5346000
5346000
5346000
5346000
5346000
360.1981
360.4388
360.6568
360.8436
360.9893
361.2305
361.6623
362.2433
5346000
5346000
5346000
5346000
5346000
5346000
5346000
5346000
5346000
5346000
5346000
5346000
5346000
5346000
5346000
359.7415
359.9822
360.2057
360.4
360.5617
360.791
361.173
361.5772
362.0686
5346000
5346000
5346000
5346000
5346000
5346000
5346000
5346000
5346000
5346000
5346000
5346000
5346000
5346000
5346000
359.3261
359.5626
359.7855
359.9862
360.1587
360.3952
360.7553
361.1309
361.5203
361.9724
5346000
5346000
5346000
5346000
5346000
5346000
5346000
5346000
5346000
5346000
5346000
5346000
5346000
5346000
5346000
5346000
5346000
5346000
5346000
5346000
5346000
5346000
5346000
5346000
5346000
5346000
5346000
5346000
5346000
5346000
5346000
5346000
5346000
5346000
5346000
5346000
5346000
5346000
5346000
5346000
5346000
5346000
5346000
5346000
5346000
5346000
5346000
5346000
5346000
5346000
361.4582
362.0329
362.7005
363.5533
364.8371
367.053
374.3787
5346000
5346000
5346000
5346000
5346000
360.9913
361.5873
362.2763
363.1811
364.5691
367.0309
371.6653
385.2514
5346000
5346000
5346000
5346000
5346000
360.5438
361.1318
361.7821
362.5645
363.6643
365.4289
368.4983
373.7832
387.1049
5346000
5346000
5346000
5346000
5346000
360.1157
360.685
361.2866
361.9503
362.7603
363.9051
365.6626
368.3984
372.2079
379.3854
5346000
5346000
5346000
5346000
5346000
359.7063
360.2484
360.8058
361.3796
362.0001
362.7371
363.7165
365.0384
366.6539
367.6897
371.0224
5346000
5346000
5346000
5346000
5346000
359.3137
359.8219
360.3364
360.8473
361.3547
361.8777
362.4485
363.1035
363.7614
364.0267
364.6593
369.6185
5346000
5346000
5346000
5346000
5346000
358.937
359.4044
359.8755
360.3369
360.7799
361.1995
361.597
361.9645
362.2633
362.2964
362.5234
364.009
367.9543
5346000
5346000
5346000
5346000
5346000
358.5754
358.9963
359.4216
359.8401
360.2416
360.6169
360.9545
361.2389
361.4291
361.4356
361.5469
362.2234
363.3486
366.2108
5346000
5346000
5346000
5346000
5346000
358.2289
358.5991
358.9768
359.3546
359.7257
360.0825
360.4153
360.7062
360.9207
360.975
361.0583
361.4658
361.9778
362.7506
364.5895
5346000
5346000
5346000
5346000
5346000
357.8975
358.2158
358.546
358.8851
359.2308
359.5805
359.9303
360.2725
360.5833
360.7784
360.8075
361.1148
361.4215
361.7648
362.239
363.5237
5346000
5346000
5346000
5346000
5346000
5346000
5346000
5346000
5346000
5346000
5346000
5346000
5346000
5346000
5346000
360.727
360.9095
361.1056
361.2955
361.4977
361.8913
362.9158
5346000
5346000
5346000
5346000
5346000
5346000
5346000
5346000
5346000
5346000
5346000
5346000
5346000
5346000
5346000
360.2442
360.4691
360.6768
360.8606
361.013
361.2726
361.7496
362.4908
5346000
5346000
5346000
5346000
5346000
5346000
5346000
5346000
5346000
5346000
5346000
5346000
5346000
5346000
5346000
359.773
360.0083
360.2274
360.419
360.5808
360.8137
361.205
361.6341
362.2105
5346000
5346000
5346000
5346000
5346000
5346000
5346000
5346000
5346000
5346000
5346000
5346000
5346000
5346000
5346000
359.3417
359.5765
359.7978
359.9973
360.1692
360.4065
360.7683
361.1481
361.5485
362.0374
5346000
5346000
5346000
5346000
5346000
5346000
5346000
5346000
5346000
5346000
5346000
5346000
5346000
5346000
5346000
358.9493
359.1786
359.3984
359.6002
359.782
360.0208
360.3751
360.7333
361.1055
361.4928
361.9376
5346000
5346000
5346000
5346000
5346000
5346000
5346000
5346000
5346000
5346000
5346000
5346000
5346000
5346000
5346000
5346000
5346000
5346000
5346000
5346000
5346000
5346000
5346000
5346000
5346000
5346000
5346000
5346000
5346000
5346000
5346000
5346000
5346000
5346000
5346000
5346000
5346000
5346000
5346000
5346000
5346000
5346000
5346000
5346000
5346000
5346000
5346000
5346000
5346000
5346000
5346000
5346000
5346000
5346000
5346000
360.9544
361.4785
362.0538
362.7227
363.5706
364.8004
366.7878
373.5743
5346000
5346000
5346000
5346000
5346000
360.518
361.0587
361.6475
362.3256
363.206
364.496
366.5972
370.1682
381.0392
5346000
5346000
5346000
5346000
5346000
360.0993
360.6404
361.2106
361.832
362.5672
363.5589
365.0155
367.233
370.3899
377.4332
5346000
5346000
5346000
5346000
5346000
359.6985
360.2277
360.7722
361.3324
361.9347
362.6391
363.5561
364.7715
366.25
367.244
370.5417
5346000
5346000
5346000
5346000
5346000
359.3137
359.8219
360.3364
360.8473
361.3547
361.8777
362.4485
363.1035
363.7614
364.0267
364.6593
369.6185
5346000
5346000
5346000
5346000
5346000
358.9439
359.4224
359.9035
360.3724
360.8197
361.2409
361.639
362.0091
362.3133
362.341
362.574
364.1572
368.3036
5346000
5346000
5346000
5346000
5346000
358.5882
359.0296
359.4728
359.9039
360.3101
360.6809
361.0046
361.2676
361.433
361.4131
361.5276
362.2761
363.5575
366.7708
5346000
5346000
5346000
5346000
5346000
358.2463
358.6444
359.046
359.4397
359.8153
360.1615
360.4656
360.708
360.8583
360.8528
360.9462
361.3944
361.9937
362.9474
365.2074
5346000
5346000
5346000
5346000
5346000
357.9183
358.2688
358.626
358.9828
359.3324
359.6674
359.9776
360.2472
360.4437
360.502
360.5839
360.9284
361.2963
361.7406
362.3926
364.1325
5346000
5346000
5346000
5346000
5346000
357.6045
357.9059
358.2185
358.5392
358.8657
359.1955
359.525
359.8465
360.1394
360.3274
360.3677
360.6519
360.9294
361.1976
361.4983
362.0298
363.4789
5346000
5346000
5346000
5346000
5346000
5346000
5346000
5346000
5346000
5346000
5346000
5346000
5346000
5346000
5346000
360.2738
360.4573
360.6506
360.8394
361.0147
361.3102
361.8629
362.8797
5346000
5346000
5346000
5346000
5346000
5346000
5346000
5346000
5346000
5346000
5346000
5346000
5346000
5346000
5346000
359.8176
360.0381
360.2471
360.4343
360.5985
360.8395
361.2472
361.7214
362.457
5346000
5346000
5346000
5346000
5346000
5346000
5346000
5346000
5346000
5346000
5346000
5346000
5346000
5346000
5346000
359.3721
359.6018