/*--------------------------------*- C++ -*----------------------------------*\
| =========                 |                                                 |
| \\      /  F ield         | OpenFOAM: The Open Source CFD Toolbox           |
|  \\    /   O peration     | Version:  2306                                  |
|   \\  /    A nd           | Website:  www.openfoam.com                      |
|    \\/     M anipulation  |                                                 |
\*---------------------------------------------------------------------------*/
FoamFile
{
    version     2.0;
    format      ascii;
    arch        "LSB;label=32;scalar=64";
    class       volScalarField;
    location    "0.3/air";
    object      diffSp.O2;
}
// * * * * * * * * * * * * * * * * * * * * * * * * * * * * * * * * * * * * * //

dimensions      [0 2 -1 0 0 0 0];

internalField   nonuniform List<scalar> 
16000
(
0.0002201625
0.0002165797
0.0002243569
0.0002165142
0.0002145941
0.0002235403
0.0002078938
0.0002254091
0.0002235237
0.0002144718
0.0002134651
0.0002228349
0.0002025863
0.0002251091
0.0002211201
0.0002024977
0.0002262545
0.0002251218
0.0002228011
0.0002132753
0.0002129411
0.000222317
0.0001994316
0.0002248414
0.0002190245
0.0001946522
0.0002261213
0.0002242432
0.0002189892
0.0001991973
0.0002270019
0.0002261447
0.0002248631
0.0002222595
0.0002126608
0.0002129411
0.000222043
0.0001979433
0.0002246375
0.000217478
0.0001898097
0.0002260063
0.0002234463
0.0002156215
0.0001896175
0.0002269287
0.0002257707
0.0002234534
0.0002173794
0.000197481
0.000227688
0.0002269543
0.0002260486
0.0002246669
0.0002219543
0.0002125372
0.0001304262
0.0002134651
0.000222043
0.0001979433
0.0002245268
0.0002166584
0.0001874786
0.0002259201
0.0002228333
0.0002131125
0.0001835528
0.0002268689
0.0002254377
0.0002221557
0.0002130238
0.0001869483
0.0002276381
0.0002267608
0.0002254609
0.0002228431
0.0002164659
0.0001971534
0.0002283248
0.0002276628
0.0002269156
0.0002259821
0.0002245654
0.00022192
0.000212896
0.0001304129
0.0001308976
0.0001306893
0.0002145941
0.000222317
0.0001994316
0.0002245268
0.0002166584
0.0001874786
0.0002258736
0.0002224991
0.0002117761
0.0001805921
0.0002268256
0.0002251838
0.0002211466
0.0002097537
0.0001801883
0.0002275992
0.0002265948
0.0002249272
0.0002211448
0.0002115382
0.0001864362
0.0002282845
0.0002275375
0.000226622
0.0002252355
0.0002225125
0.000216353
0.0001981974
0.0002289214
0.0002283074
0.0002276444
0.0002268947
0.0002259593
0.000224581
0.0002221674
0.0002138034
0.0001303836
0.0001308949
0.0001306698
0.0001313566
0.0001311397
0.0001309545
0.0002165797
0.0002228349
0.0002025863
0.0002246375
0.000217478
0.0001898097
0.0002258736
0.0002224991
0.0002117761
0.0001805921
0.0002268028
0.0002250459
0.0002205932
0.0002080035
0.0001768619
0.0002275721
0.0002264721
0.0002245149
0.0002198128
0.0002078206
0.0001795364
0.0002282541
0.0002274342
0.0002263646
0.0002245478
0.0002205863
0.0002113452
0.000188066
0.0002288859
0.0002282093
0.0002274611
0.0002265347
0.000225138
0.0002225302
0.0002170702
0.0002007598
0.0002294823
0.0002289069
0.0002282959
0.0002276391
0.0002268988
0.0002259911
0.0002247223
0.0002226863
0.0002154625
0.0001303266
0.0001308901
0.000130624
0.0001313564
0.0001311369
0.00013093
0.0001317798
0.0001315704
0.0001313821
0.0001312237
0.0002201625
0.0002235403
0.0002078938
0.0002248414
0.0002190245
0.0001946522
0.0002259201
0.0002228333
0.0002131125
0.0001835528
0.0002268028
0.0002250459
0.0002205932
0.0002080035
0.0001768619
0.0002275582
0.0002264067
0.0002242889
0.0002190786
0.000205825
0.0001761346
0.0002282334
0.0002273605
0.0002261713
0.0002240102
0.0002190667
0.0002075614
0.0001815887
0.0002288594
0.0002281305
0.0002273064
0.0002262138
0.0002243729
0.0002205966
0.0002124904
0.0001919986
0.0002294496
0.0002288212
0.0002281555
0.0002274226
0.0002265192
0.0002252002
0.0002229179
0.0002185739
0.0002052526
0.0002300117
0.0002294689
0.0002288977
0.0002282955
0.0002276514
0.0002269336
0.0002260836
0.0002249876
0.0002234598
0.0002184574
0.0001301717
0.0001308844
0.0001305258
0.0001313569
0.0001311319
0.0001308716
0.0001317803
0.0001315716
0.0001313791
0.0001311958
0.0001321695
0.0001319675
0.0001317839
0.0001316258
0.0001314949
0.0002243569
0.0002165142
0.0002251091
0.0002211201
0.0002024977
0.0002260063
0.0002234463
0.0002156215
0.0001896175
0.0002268256
0.0002251838
0.0002211466
0.0002097537
0.0001801883
0.0002275582
0.0002264067
0.0002242889
0.0002190786
0.000205825
0.0001761346
0.0002282229
0.000227322
0.0002260672
0.0002237136
0.0002182262
0.0002055284
0.0001784073
0.0002288415
0.0002280757
0.0002271942
0.0002259696
0.0002237694
0.0002190658
0.0002090344
0.0001864881
0.0002294253
0.0002287533
0.0002280404
0.0002272372
0.0002261759
0.0002244553
0.0002212072
0.0002148825
0.0001986636
0.000229981
0.00022939
0.0002287763
0.0002281338
0.0002274339
0.0002265914
0.0002254367
0.0002236539
0.0002207579
0.0002126631
0.0002305121
0.0002299987
0.0002294605
0.0002288985
0.0002283095
0.000227685
0.0002270041
0.0002262422
0.0002253825
0.0002245158
0.0001290785
0.000130893
0.0001302749
0.0001313616
0.0001311271
0.0001307481
0.0001317823
0.0001315761
0.0001313735
0.0001311295
0.0001321701
0.0001319698
0.0001317862
0.0001316224
0.0001314651
0.0001325335
0.0001323349
0.0001321546
0.0001319977
0.0001318682
5.566758e-05
0.0002254091
0.0002235237
0.0002144718
0.0002261213
0.0002242432
0.0002189892
0.0001991973
0.0002268689
0.0002254377
0.0002221557
0.0002130238
0.0001869483
0.0002275721
0.0002264721
0.0002245149
0.0002198128
0.0002078206
0.0001795364
0.0002282229
0.000227322
0.0002260672
0.0002237136
0.0002182262
0.0002055284
0.0001784073
0.0002288325
0.0002280475
0.0002271352
0.0002258369
0.0002234345
0.0002182175
0.0002071792
0.0001838053
0.0002294089
0.0002287065
0.0002279592
0.0002271009
0.0002259113
0.0002238628
0.0002198481
0.0002121019
0.0001946082
0.0002299582
0.0002293278
0.000228678
0.0002279996
0.0002272449
0.0002262759
0.0002248142
0.0002223634
0.0002182966
0.0002090179
0.0002304831
0.0002299247
0.0002293489
0.0002287601
0.0002281524
0.0002275047
0.0002267624
0.000225848
0.0002246905
0.0002234742
0.0001278213
0.0002309861
0.0002304996
0.0002299906
0.0002294613
0.000228912
0.0002283406
0.000227744
0.0002271179
0.000226487
0.000225987
0.000131079
0.0001294335
0.0001313988
0.0001311382
0.00013047
0.0001317895
0.0001315911
0.0001313672
0.0001309951
0.0001321724
0.0001319766
0.0001317933
0.0001316159
0.0001313954
0.0001325342
0.0001323374
0.0001321584
0.0001320007
0.0001318646
5.565464e-05
0.0001328747
0.0001326804
0.0001324998
0.0001323418
0.0001322094
5.582128e-05
5.567485e-05
0.0002262545
0.0002251218
0.0002228011
0.0002132753
0.0002269287
0.0002257707
0.0002234534
0.0002173794
0.000197481
0.0002275992
0.0002265948
0.0002249272
0.0002211448
0.0002115382
0.0001864362
0.0002282334
0.0002273605
0.0002261713
0.0002240102
0.0002190667
0.0002075614
0.0001815887
0.0002288325
0.0002280475
0.0002271352
0.0002258369
0.0002234345
0.0002182175
0.0002071792
0.0001838053
0.0002294008
0.0002286828
0.0002279172
0.0002270286
0.0002257665
0.0002235323
0.0002190936
0.0002106112
0.0001926549
0.0002299429
0.0002292852
0.0002286097
0.0002279039
0.0002271043
0.0002260288
0.0002243117
0.0002213271
0.0002164325
0.0002067754
0.0002304615
0.0002298663
0.0002292593
0.000228647
0.0002280206
0.0002273443
0.0002265273
0.0002254347
0.0002239418
0.000222389
0.0001268307
0.0002309587
0.0002304294
0.0002298858
0.0002293345
0.0002287794
0.0002282186
0.0002276444
0.0002270417
0.0002264346
0.0002259979
0.0001309427
0.0001284388
0.0002314357
0.000230974
0.0002304916
0.0002299912
0.0002294738
0.0002289407
0.0002283928
0.0002278367
0.0002272992
0.0002269136
0.0001317848
0.0001312243
0.0001298093
0.0001318318
0.0001316518
0.0001313709
0.000130725
0.0001321799
0.0001319963
0.0001318132
0.0001316068
0.0001312608
0.0001325364
0.0001323447
0.0001321688
0.0001320091
0.000131857
5.562469e-05
0.0001328753
0.0001326829
0.0001325038
0.0001323466
0.0001322128
5.581969e-05
5.566191e-05
0.0001331964
0.0001330062
0.0001328267
0.0001326646
0.0001325267
5.596124e-05
5.582771e-05
5.568204e-05
0.0002270019
0.0002261447
0.0002248631
0.0002222595
0.0002126608
0.0002276381
0.0002267608
0.0002254609
0.0002228431
0.0002164659
0.0001971534
0.0002282541
0.0002274342
0.0002263646
0.0002245478
0.0002205863
0.0002113452
0.000188066
0.0002288415
0.0002280757
0.0002271942
0.0002259696
0.0002237694
0.0002190658
0.0002090344
0.0001864881
0.0002294008
0.0002286828
0.0002279172
0.0002270286
0.0002257665
0.0002235323
0.0002190936
0.0002106112
0.0001926549
0.0002299352
0.0002292637
0.0002285747
0.0002278541
0.0002270289
0.0002258923
0.0002240292
0.0002207491
0.0002154308
0.0002056931
0.000230447
0.0002298264
0.0002291973
0.0002285677
0.0002279256
0.0002272221
0.0002263358
0.000225085
0.0002233126
0.0002215273
0.0001261664
0.0002309381
0.000230374
0.0002298016
0.0002292316
0.0002286703
0.0002281137
0.0002275459
0.0002269322
0.0002262792
0.0002257966
0.0001307238
0.0001276122
0.0002314096
0.0002309072
0.0002303921
0.0002298719
0.0002293527
0.0002288405
0.0002283405
0.0002278647
0.0002274473
0.0002272243
0.000131901
0.0001311251
0.0001290247
0.0002318625
0.000231424
0.0002309662
0.0002304919
0.0002300026
0.0002295002
0.0002289879
0.0002284736
0.0002279867
0.0002276419
0.0001322433
0.000131899
0.0001313997
0.0001302046
0.0001322208
0.0001320666
0.0001318741
0.0001316002
0.0001310163
0.0001325434
0.0001323646
0.000132195
0.0001320295
0.0001318444
5.556813e-05
0.0001328773
0.0001326899
0.0001325148
0.0001323589
0.0001322213
5.58162e-05
5.563199e-05
0.000133197
0.0001330085
0.0001328307
0.0001326697
0.000132532
5.596272e-05
5.582611e-05
5.566911e-05
0.0001335004
0.0001333151
0.0001331371
0.000132973
0.0001328271
5.609198e-05
5.596685e-05
5.583405e-05
5.568933e-05
0.000227688
0.0002269543
0.0002260486
0.0002246669
0.0002219543
0.0002125372
0.0002282845
0.0002275375
0.000226622
0.0002252355
0.0002225125
0.000216353
0.0001981974
0.0002288594
0.0002281305
0.0002273064
0.0002262138
0.0002243729
0.0002205966
0.0002124904
0.0001919986
0.0002294089
0.0002287065
0.0002279592
0.0002271009
0.0002259113
0.0002238628
0.0002198481
0.0002121019
0.0001946082
0.0002299352
0.0002292637
0.0002285747
0.0002278541
0.0002270289
0.0002258923
0.0002240292
0.0002207491
0.0002154308
0.0002056931
0.0002304398
0.0002298062
0.0002291657
0.000228527
0.0002278758
0.0002271557
0.0002262278
0.0002248842
0.0002229553
0.0002210555
0.0001258346
0.0002309244
0.0002303361
0.0002297435
0.00022916
0.0002285931
0.0002280364
0.0002274649
0.0002268261
0.0002261117
0.0002255732
0.0001305294
0.0001270442
0.00023139
0.0002308544
0.0002303122
0.0002297753
0.0002292538
0.0002287564
0.0002282883
0.0002278576
0.0002274876
0.0002273073
0.0001319139
0.0001309557
0.0001283478
0.0002318376
0.0002313603
0.0002308714
0.0002303784
0.0002298885
0.000229409
0.0002289507
0.0002285302
0.0002281883
0.0002280239
0.0001324239
0.0001320051
0.0001313201
0.0001295918
0.0002322677
0.0002318512
0.0002314165
0.0002309662
0.0002305024
0.0002300271
0.0002295436
0.000229061
0.0002286054
0.0002282815
0.0001326115
0.0001323401
0.0001320349
0.0001315954
0.000130611
0.0001325814
0.0001324333
0.000132268
0.0001320807
0.0001318276
5.547016e-05
0.0001328838
0.0001327088
0.0001325414
0.0001323868
0.0001322393
5.581e-05
5.557563e-05
0.0001331988
0.0001330152
0.0001328413
0.0001326828
0.000132545
5.596629e-05
5.582261e-05
5.563924e-05
0.0001335009
0.0001333173
0.0001331409
0.000132978
0.0001328328
5.609433e-05
5.596833e-05
5.583245e-05
5.567641e-05
0.0001337884
0.0001336084
0.0001334333
0.000133268
0.0001331169
5.621653e-05
5.609691e-05
5.597238e-05
5.584048e-05
5.569645e-05
0.0002283248
0.0002276628
0.0002269156
0.0002259821
0.0002245654
0.00022192
0.000212896
0.0002288859
0.0002282093
0.0002274611
0.0002265347
0.000225138
0.0002225302
0.0002170702
0.0002007598
0.0002294253
0.0002287533
0.0002280404
0.0002272372
0.0002261759
0.0002244553
0.0002212072
0.0002148825
0.0001986636
0.0002299429
0.0002292852
0.0002286097
0.0002279039
0.0002271043
0.0002260288
0.0002243117
0.0002213271
0.0002164325
0.0002067754
0.0002304398
0.0002298062
0.0002291657
0.000228527
0.0002278758
0.0002271557
0.0002262278
0.0002248842
0.0002229553
0.0002210555
0.0001258346
0.0002309175
0.000230317
0.000229714
0.0002291234
0.0002285532
0.0002279953
0.000227419
0.0002267616
0.0002260073
0.0002254354
0.0001304185
0.0001267574
0.0002313769
0.0002308184
0.0002302571
0.0002297083
0.0002291845
0.0002286957
0.0002282453
0.0002278353
0.000227478
0.0002273067
0.0001318927
0.0001308015
0.0001278722
0.0002318189
0.00023131
0.0002307952
0.0002302867
0.0002297956
0.0002293333
0.0002289137
0.0002285538
0.0002282878
0.0002281904
0.0001325062
0.0001320281
0.0001311882
0.0001290492
0.000232244
0.0002317905
0.0002313259
0.000230858
0.0002303936
0.0002299408
0.0002295104
0.0002291214
0.0002288106
0.0002286626
0.0001328004
0.0001324981
0.0001321217
0.0001315267
0.0001301429
0.0002326527
0.000232257
0.0002318439
0.0002314163
0.000230976
0.0002305252
0.0002300675
0.0002296109
0.0002291804
0.0002288686
0.0001329406
0.0001326963
0.0001324543
0.0001321843
0.0001318008
5.531794e-05
0.0001329186
0.0001327729
0.0001326138
0.0001324514
0.0001322769
5.58006e-05
5.547851e-05
0.0001332048
0.0001330328
0.0001328668
0.0001327116
0.0001325712
5.597318e-05
5.581634e-05
5.55831e-05
0.0001335026
0.0001333236
0.000133151
0.0001329908
0.0001328467
5.609987e-05
5.59719e-05
5.582893e-05
5.564661e-05
0.0001337888
0.0001336105
0.0001334369
0.0001332729
0.0001331226
5.621907e-05
5.609926e-05
5.597387e-05
5.583888e-05
5.568355e-05
0.0001340616
0.0001338875
0.000133716
0.0001335514
0.0001333966
5.633745e-05
5.622089e-05
5.610176e-05
5.597799e-05
5.584673e-05
3.635984e-05
0.0002289214
0.0002283074
0.0002276444
0.0002268947
0.0002259593
0.000224581
0.0002221674
0.0002138034
0.0002294496
0.0002288212
0.0002281555
0.0002274226
0.0002265192
0.0002252002
0.0002229179
0.0002185739
0.0002052526
0.0002299582
0.0002293278
0.000228678
0.0002279996
0.0002272449
0.0002262759
0.0002248142
0.0002223634
0.0002182966
0.0002090179
0.000230447
0.0002298264
0.0002291973
0.0002285677
0.0002279256
0.0002272221
0.0002263358
0.000225085
0.0002233126
0.0002215273
0.0001261664
0.0002309175
0.000230317
0.000229714
0.0002291234
0.0002285532
0.0002279953
0.000227419
0.0002267616
0.0002260073
0.0002254354
0.0001304185
0.0001267574
0.0002313703
0.0002308002
0.000230229
0.0002296741
0.0002291489
0.0002286639
0.000228221
0.0002278181
0.0002274621
0.0002272913
0.0001318737
0.0001307125
0.0001276294
0.0002318064
0.0002312756
0.0002307427
0.000230223
0.0002297307
0.0002292793
0.0002288835
0.0002285578
0.0002283291
0.0002282607
0.0001325411
0.0001320189
0.0001310667
0.0001286605
0.0002322262
0.0002317424
0.0002312533
0.0002307704
0.0002303051
0.0002298694
0.0002294779
0.0002291517
0.0002289218
0.0002288457
0.0001328995
0.0001325777
0.0001321474
0.000131423
0.0001297211
0.0002326301
0.000232199
0.0002317575
0.0002313129
0.000230872
0.0002304424
0.000230035
0.0002296675
0.0002293744
0.0002292269
0.000133121
0.0001328604
0.0001325836
0.0001322493
0.0001317387
5.514485e-05
0.0002330183
0.0002326425
0.00023225
0.0002318437
0.0002314255
0.0002309974
0.000230563
0.00023013
0.0002297209
0.0002294199
0.0001332467
0.0001330163
0.0001327958
0.000132579
0.0001323385
5.578516e-05
5.53287e-05
0.0001332368
0.000133092
0.0001329349
0.0001327768
0.0001326227
5.598608e-05
5.580672e-05
5.548683e-05
0.0001335081
0.00013334
0.000133175
0.0001330186
0.0001328744
5.611038e-05
5.597869e-05
5.582259e-05
5.559072e-05
0.0001337905
0.0001336164
0.0001334465
0.0001332851
0.0001331363
5.622505e-05
5.61048e-05
5.597741e-05
5.583534e-05
5.565382e-05
0.000134062
0.0001338895
0.0001337194
0.0001335561
0.0001334022
5.633997e-05
5.622344e-05
5.610411e-05
5.597947e-05
5.584512e-05
3.635147e-05
0.0001343211
0.0001341532
0.0001339862
0.0001338235
0.0001336674
5.645475e-05
5.634134e-05
5.622517e-05
5.610667e-05
5.598342e-05
3.645705e-05
3.636613e-05
0.0002294823
0.0002289069
0.0002282959
0.0002276391
0.0002268988
0.0002259911
0.0002247223
0.0002226863
0.0002154625
0.000229981
0.00022939
0.0002287763
0.0002281338
0.0002274339
0.0002265914
0.0002254367
0.0002236539
0.0002207579
0.0002126631
0.0002304615
0.0002298663
0.0002292593
0.000228647
0.0002280206
0.0002273443
0.0002265273
0.0002254347
0.0002239418
0.000222389
0.0001268307
0.0002309244
0.0002303361
0.0002297435
0.00022916
0.0002285931
0.0002280364
0.0002274649
0.0002268261
0.0002261117
0.0002255732
0.0001305294
0.0001270442
0.0002313703
0.0002308002
0.000230229
0.0002296741
0.0002291489
0.0002286639
0.000228221
0.0002278181
0.0002274621
0.0002272913
0.0001318737
0.0001307125
0.0001276294
0.0002318001
0.0002312582
0.000230716
0.0002301905
0.0002296974
0.0002292511
0.0002288664
0.000228556
0.0002283424
0.0002282856
0.0001325533
0.0001320071
0.0001309961
0.0001284601
0.0002322143
0.0002317096
0.0002312031
0.0002307096
0.0002302433
0.0002298186
0.0002294517
0.0002291627
0.0002289759
0.0002289348
0.0001329504
0.0001326147
0.0001321457
0.0001313282
0.0001294138
0.0002326131
0.0002321532
0.0002316881
0.0002312293
0.0002307873
0.000230374
0.0002300039
0.0002296967
0.0002294824
0.0002294048
0.00013322
0.0001329532
0.0001326555
0.0001322728
0.0001316569
5.498787e-05
0.0002329967
0.0002325872
0.0002321676
0.000231745
0.000231326
0.0002309179
0.0002305308
0.0002301814
0.0002299006
0.0002297519
0.0001334144
0.0001331729
0.0001329306
0.0001326792
0.0001323819
5.575935e-05
5.515864e-05
0.0002333654
0.0002330086
0.0002326358
0.0002322498
0.0002318524
0.0002314457
0.0002310331
0.0002306217
0.0002302325
0.0002299416
0.0001335372
0.0001333152
0.0001331048
0.0001329042
0.0001327065
5.600471e-05
5.579089e-05
5.533937e-05
0.0001335376
0.0001333947
0.0001332383
0.0001330808
0.000132928
5.612934e-05
5.599125e-05
5.581276e-05
5.549532e-05
0.0001337955
0.0001336318
0.000133469
0.0001333115
0.0001331635
5.623633e-05
5.611522e-05
5.598411e-05
5.582894e-05
5.559819e-05
0.0001340635
0.0001338951
0.0001337285
0.0001335677
0.0001334154
5.634591e-05
5.622942e-05
5.610964e-05
5.5983e-05
5.584158e-05
3.633219e-05
0.0001343215
0.0001341551
0.0001339895
0.0001338279
0.0001336727
5.64572e-05
5.634387e-05
5.622772e-05
5.610902e-05
5.59849e-05
3.645601e-05
3.635779e-05
0.0001345679
0.0001344064
0.0001342444
0.0001340848
0.0001339289
5.656877e-05
5.645825e-05
5.634516e-05
5.622952e-05
5.611142e-05
3.654546e-05
3.646267e-05
3.637015e-05
0.0002300117
0.0002294689
0.0002288977
0.0002282955
0.0002276514
0.0002269336
0.0002260836
0.0002249876
0.0002234598
0.0002184574
0.0002304831
0.0002299247
0.0002293489
0.0002287601
0.0002281524
0.0002275047
0.0002267624
0.000225848
0.0002246905
0.0002234742
0.0001278213
0.0002309381
0.000230374
0.0002298016
0.0002292316
0.0002286703
0.0002281137
0.0002275459
0.0002269322
0.0002262792
0.0002257966
0.0001307238
0.0001276122
0.0002313769
0.0002308184
0.0002302571
0.0002297083
0.0002291845
0.0002286957
0.0002282453
0.0002278353
0.000227478
0.0002273067
0.0001318927
0.0001308015
0.0001278722
0.0002318001
0.0002312582
0.000230716
0.0002301905
0.0002296974
0.0002292511
0.0002288664
0.000228556
0.0002283424
0.0002282856
0.0001325533
0.0001320071
0.0001309961
0.0001284601
0.0002322083
0.000231693
0.0002311776
0.0002306787
0.0002302116
0.0002297923
0.0002294371
0.0002291652
0.0002289973
0.0002289714
0.000132972
0.0001326286
0.0001321392
0.000131273
0.0001292536
0.0002326017
0.0002321218
0.0002316402
0.0002311712
0.0002307282
0.0002303254
0.0002299791
0.0002297082
0.0002295371
0.0002294948
0.0001332735
0.0001330029
0.0001326915
0.000132275
0.0001315842
5.48726e-05
0.0002329805
0.0002325434
0.0002321013
0.0002316651
0.0002312449
0.0002308521
0.0002305002
0.0002302079
0.0002300014
0.0002299188
0.0001335083
0.0001332649
0.0001330131
0.0001327401
0.0001324002
5.57281e-05
5.50043e-05
0.0002333448
0.0002329559
0.0002325572
0.0002321556
0.0002317573
0.0002313693
0.0002310012
0.0002306683
0.0002303988
0.0002302489
0.0001336925
0.000133461
0.000133234
0.0001330099
0.0001327793
5.601878e-05
5.576519e-05
5.517228e-05
0.0002336948
0.0002333563
0.0002330024
0.0002326356
0.000232258
0.0002318716
0.0002314794
0.0002310884
0.0002307178
0.0002304377
0.0001338144
0.0001335998
0.000133395
0.0001332011
0.0001330144
5.615721e-05
5.600906e-05
5.579656e-05
5.535016e-05
0.000133823
0.0001336826
0.0001335278
0.0001333698
0.0001332154
5.625647e-05
5.613383e-05
5.599632e-05
5.581889e-05
5.550367e-05
0.0001340683
0.0001339096
0.0001337497
0.0001335927
0.0001334414
5.635707e-05
5.624062e-05
5.611997e-05
5.59896e-05
5.58351e-05
3.629618e-05
0.000134323
0.0001341605
0.0001339981
0.0001338391
0.0001336854
5.646295e-05
5.634981e-05
5.62337e-05
5.611454e-05
5.598842e-05
3.64537e-05
3.633861e-05
0.0001345682
0.0001344083
0.0001342476
0.0001340891
0.000133934
5.657113e-05
5.646071e-05
5.63477e-05
5.623207e-05
5.611378e-05
3.654643e-05
3.646165e-05
3.636184e-05
0.0001348025
0.0001346478
0.0001344913
0.0001343355
0.0001341813
5.667929e-05
5.657195e-05
5.646169e-05
5.634904e-05
5.623371e-05
3.66283e-05
3.65505e-05
3.646618e-05
3.637328e-05
0.0002305121
0.0002299987
0.0002294605
0.0002288985
0.0002283095
0.000227685
0.0002270041
0.0002262422
0.0002253825
0.0002245158
0.0001290785
0.0002309587
0.0002304294
0.0002298858
0.0002293345
0.0002287794
0.0002282186
0.0002276444
0.0002270417
0.0002264346
0.0002259979
0.0001309427
0.0001284388
0.00023139
0.0002308544
0.0002303122
0.0002297753
0.0002292538
0.0002287564
0.0002282883
0.0002278576
0.0002274876
0.0002273073
0.0001319139
0.0001309557
0.0001283478
0.0002318064
0.0002312756
0.0002307427
0.000230223
0.0002297307
0.0002292793
0.0002288835
0.0002285578
0.0002283291
0.0002282607
0.0001325411
0.0001320189
0.0001310667
0.0001286605
0.0002322083
0.000231693
0.0002311776
0.0002306787
0.0002302116
0.0002297923
0.0002294371
0.0002291652
0.0002289973
0.0002289714
0.000132972
0.0001326286
0.0001321392
0.000131273
0.0001292536
0.000232596
0.000232106
0.0002316159
0.0002311415
0.0002306979
0.0002303002
0.0002299653
0.0002297114
0.0002295597
0.0002295331
0.0001332971
0.0001330245
0.0001327059
0.000132272
0.0001315422
5.481219e-05
0.0002329697
0.0002325135
0.0002320556
0.0002316095
0.0002311884
0.0002308054
0.000230476
0.0002302182
0.0002300531
0.0002300046
0.00013356
0.0001333164
0.0001330593
0.0001327728
0.0001324041
5.570105e-05
5.489087e-05
0.0002333294
0.0002329142
0.000232494
0.0002320793
0.0002316798
0.0002313062
0.0002309712
0.0002306919
0.0002304922
0.0002304044
0.0001337803
0.0001335482
0.0001333157
0.0001330796
0.0001328276
5.602516e-05
5.573436e-05
5.502055e-05
0.0002336751
0.0002333061
0.0002329274
0.0002325458
0.0002321673
0.0002317985
0.0002314484
0.0002311312
0.0002308726
0.0002307236
0.0001339585
0.000133735
0.0001335158
0.0001333033
0.0001330931
5.618278e-05
5.602263e-05
5.577094e-05
5.518599e-05
0.0002340069
0.0002336862
0.0002333504
0.0002330023
0.0002326436
0.0002322764
0.0002319037
0.000231532
0.0002311791
0.00023091
0.0001340797
0.0001338721
0.0001336725
0.0001334818
0.0001332987
5.628606e-05
5.616084e-05
5.601333e-05
5.580232e-05
5.536077e-05
0.0001340939
0.0001339571
0.0001338047
0.0001336473
0.0001334908
5.637686e-05
5.626044e-05
5.613823e-05
5.600145e-05
5.582485e-05
3.623524e-05
0.0001343274
0.0001341742
0.0001340182
0.0001338627
0.0001337102
5.647373e-05
5.636091e-05
5.624482e-05
5.612478e-05
5.599491e-05
3.644945e-05
3.630283e-05
0.0001345696
0.0001344134
0.0001342559
0.0001340998
0.0001339462
5.657668e-05
5.646647e-05
5.635363e-05
5.623804e-05
5.611927e-05
3.65487e-05
3.645936e-05
3.634272e-05
0.0001348029
0.0001346496
0.0001344944
0.0001343397
0.0001341863
5.668158e-05
5.657433e-05
5.646415e-05
5.635158e-05
5.623626e-05
3.662983e-05
3.655147e-05
3.646516e-05
3.636499e-05
0.0001350258
0.0001348779
0.0001347273
0.0001345761
0.0001344247
5.678633e-05
5.668221e-05
5.657506e-05
5.646518e-05
5.635276e-05
3.67075e-05
3.663286e-05
3.655354e-05
3.646885e-05
3.637499e-05
0.0001301717
0.0002309861
0.0002304996
0.0002299906
0.0002294613
0.000228912
0.0002283406
0.000227744
0.0002271179
0.000226487
0.000225987
0.000131079
0.0001294335
0.0002314096
0.0002309072
0.0002303921
0.0002298719
0.0002293527
0.0002288405
0.0002283405
0.0002278647
0.0002274473
0.0002272243
0.000131901
0.0001311251
0.0001290247
0.0002318189
0.00023131
0.0002307952
0.0002302867
0.0002297956
0.0002293333
0.0002289137
0.0002285538
0.0002282878
0.0002281904
0.0001325062
0.0001320281
0.0001311882
0.0001290492
0.0002322143
0.0002317096
0.0002312031
0.0002307096
0.0002302433
0.0002298186
0.0002294517
0.0002291627
0.0002289759
0.0002289348
0.0001329504
0.0001326147
0.0001321457
0.0001313282
0.0001294138
0.000232596
0.000232106
0.0002316159
0.0002311415
0.0002306979
0.0002303002
0.0002299653
0.0002297114
0.0002295597
0.0002295331
0.0001332971
0.0001330245
0.0001327059
0.000132272
0.0001315422
5.481219e-05
0.0002329642
0.0002324984
0.0002320323
0.0002315812
0.0002311594
0.0002307812
0.0002304626
0.000230221
0.0002300746
0.0002300416
0.0001335832
0.0001333394
0.0001330799
0.0001327866
0.0001324032
5.568555e-05
5.483138e-05
0.000233319
0.0002328857
0.0002324503
0.0002320262
0.0002316257
0.0002312614
0.0002309476
0.0002307008
0.0002305402
0.0002304848
0.0001338292
0.0001335977
0.0001333631
0.0001331207
0.0001328556
5.602685e-05
5.570777e-05
5.490892e-05
0.0002336604
0.0002332663
0.0002328672
0.000232473
0.0002320934
0.0002317381
0.0002314192
0.0002311525
0.0002309595
0.0002308687
0.0001340407
0.0001338167
0.0001335934
0.0001333727
0.0001331492
5.620067e-05
5.602885e-05
5.574052e-05
5.503682e-05
0.0002339882
0.0002336384
0.0002332791
0.0002329167
0.0002325572
0.0002322068
0.0002318739
0.0002315718
0.0002313244
0.0002311777
0.0001342144
0.0001339979
0.000133785
0.000133578
0.000133376
5.631435e-05
5.61858e-05
5.60264e-05
5.577679e-05
5.519945e-05
0.0002343024
0.000233999
0.0002336808
0.0002333505
0.00023301
0.0002326612
0.0002323071
0.0002319537
0.000231618
0.0002313602
0.0001343339
0.0001341333
0.0001339389
0.0001337515
0.0001335696
5.640586e-05
5.628924e-05
5.61644e-05
5.601769e-05
5.580791e-05
3.614362e-05
0.0001343516
0.0001342189
0.0001340699
0.0001339142
0.0001337571
5.649275e-05
5.638042e-05
5.626432e-05
5.614269e-05
5.600641e-05
3.644267e-05
3.624247e-05
0.0001345738
0.0001344265
0.000134275
0.0001341223
0.00013397
5.658704e-05
5.647719e-05
5.636466e-05
5.624908e-05
5.612941e-05
3.655287e-05
3.645511e-05
3.630713e-05
0.0001348042
0.0001346545
0.0001345024
0.00013435
0.0001341981
5.668694e-05
5.657988e-05
5.646991e-05
5.635751e-05
5.624221e-05
3.66334e-05
3.655376e-05
3.646287e-05
3.634592e-05
0.0001350262
0.0001348796
0.0001347303
0.0001345801
0.0001344295
5.678855e-05
5.66845e-05
5.657745e-05
5.646765e-05
5.635531e-05
3.670916e-05
3.66344e-05
3.655452e-05
3.646783e-05
3.636671e-05
0.0001352382
0.0001350973
0.0001349529
0.0001348068
0.000134659
5.688976e-05
5.678902e-05
5.668505e-05
5.657824e-05
5.646852e-05
3.678466e-05
3.671166e-05
3.663552e-05
3.65558e-05
3.64702e-05
0.0001303266
0.000130893
0.0001302749
0.0002314357
0.000230974
0.0002304916
0.0002299912
0.0002294738
0.0002289407
0.0002283928
0.0002278367
0.0002272992
0.0002269136
0.0001317848
0.0001312243
0.0001298093
0.0002318376
0.0002313603
0.0002308714
0.0002303784
0.0002298885
0.000229409
0.0002289507
0.0002285302
0.0002281883
0.0002280239
0.0001324239
0.0001320051
0.0001313201
0.0001295918
0.0002322262
0.0002317424
0.0002312533
0.0002307704
0.0002303051
0.0002298694
0.0002294779
0.0002291517
0.0002289218
0.0002288457
0.0001328995
0.0001325777
0.0001321474
0.000131423
0.0001297211
0.0002326017
0.0002321218
0.0002316402
0.0002311712
0.0002307282
0.0002303254
0.0002299791
0.0002297082
0.0002295371
0.0002294948
0.0001332735
0.0001330029
0.0001326915
0.000132275
0.0001315842
5.48726e-05
0.0002329642
0.0002324984
0.0002320323
0.0002315812
0.0002311594
0.0002307812
0.0002304626
0.000230221
0.0002300746
0.0002300416
0.0001335832
0.0001333394
0.0001330799
0.0001327866
0.0001324032
5.568555e-05
5.483138e-05
0.0002333138
0.0002328712
0.0002324281
0.0002319992
0.000231598
0.0002312382
0.0002309345
0.0002307031
0.0002305603
0.0002305197
0.0001338512
0.0001336202
0.0001333848
0.0001331395
0.000132868
5.602679e-05
5.569254e-05
5.485035e-05
0.0002336505
0.0002332391
0.0002328255
0.0002324225
0.0002320417
0.0002316952
0.0002313963
0.0002311603
0.0002310041
0.0002309441
0.0001340867
0.0001338635
0.0001336391
0.0001334148
0.000133184
5.62115e-05
5.603053e-05
5.571437e-05
5.492698e-05
0.0002339741
0.0002336005
0.0002332217
0.0002328474
0.0002324867
0.0002321491
0.0002318459
0.0002315915
0.0002314058
0.000231314
0.0001342916
0.0001340744
0.000133858
0.0001336444
0.0001334325
5.633539e-05
5.620337e-05
5.603245e-05
5.574677e-05
5.505279e-05
0.0002342846
0.0002339535
0.0002336129
0.0002332691
0.0002329278
0.0002325951
0.0002322789
0.0002319916
0.0002317553
0.0002316126
0.0001344605
0.0001342511
0.000134044
0.0001338419
0.0001336434
5.643404e-05
5.631693e-05
5.618874e-05
5.603027e-05
5.578246e-05
3.604038e-05
0.0002345817
0.000234295
0.0002339939
0.000233681
0.000233358
0.0002330269
0.0002326907
0.000232355
0.0002320357
0.0002317896
0.0001345773
0.000134384
0.0001341953
0.0001340116
0.0001338314
5.652051e-05
5.640871e-05
5.629234e-05
5.616804e-05
5.602188e-05
3.643144e-05
3.615215e-05
0.0001345968
0.0001344688
0.0001343239
0.000134171
0.0001340146
5.660525e-05
5.649597e-05
5.638389e-05
5.626826e-05
5.614696e-05
3.656014e-05
3.644826e-05
3.624729e-05
0.0001348082
0.0001346671
0.0001345207
0.0001343717
0.000134221
5.669691e-05
5.65902e-05
5.648058e-05
5.636847e-05
5.625317e-05
3.663994e-05
3.655789e-05
3.645858e-05
3.631051e-05
0.0001350274
0.0001348844
0.0001347381
0.0001345901
0.0001344409
5.679374e-05
5.668987e-05
5.6583e-05
5.64734e-05
5.636123e-05
3.671303e-05
3.663797e-05
3.655679e-05
3.646552e-05
3.634769e-05
0.0001352385
0.0001350989
0.0001349558
0.0001348107
0.0001346637
5.689191e-05
5.679125e-05
5.668736e-05
5.658062e-05
5.6471e-05
3.678632e-05
3.671333e-05
3.663706e-05
3.655677e-05
3.646916e-05
0.0001354402
0.0001353063
0.0001351683
0.0001350278
0.0001348844
5.698956e-05
5.689225e-05