/*--------------------------------*- C++ -*----------------------------------*\
| =========                 |                                                 |
| \\      /  F ield         | OpenFOAM: The Open Source CFD Toolbox           |
|  \\    /   O peration     | Version:  2306                                  |
|   \\  /    A nd           | Website:  www.openfoam.com                      |
|    \\/     M anipulation  |                                                 |
\*---------------------------------------------------------------------------*/
FoamFile
{
    version     2.0;
    format      ascii;
    arch        "LSB;label=32;scalar=64";
    class       volScalarField;
    location    "0.3/air";
    object      N2;
}
// * * * * * * * * * * * * * * * * * * * * * * * * * * * * * * * * * * * * * //

dimensions      [0 0 0 0 0 0 0];

internalField   nonuniform List<scalar> 
16000
(
0.7703552
0.7703479
0.7717602
0.7703939
0.7703388
0.7716704
0.7703818
0.7742251
0.7718777
0.7704877
0.7703315
0.7715513
0.7703683
0.7741226
0.7717593
0.7704636
0.7767652
0.7743597
0.7721785
0.7706692
0.7703271
0.7714483
0.7703582
0.7739825
0.7716095
0.7704374
0.7766625
0.7742268
0.7720245
0.7706232
0.7792552
0.7769018
0.7746946
0.7727208
0.7709981
0.7703271
0.7713903
0.7703525
0.7738582
0.7714836
0.7704184
0.7765218
0.7740529
0.7718313
0.7705713
0.7791557
0.7767693
0.7745259
0.7725336
0.7709206
0.7816601
0.7793876
0.77724
0.7752866
0.7735515
0.7715622
0.8049533
0.7703315
0.7713903
0.7703525
0.7737867
0.7714138
0.7704087
0.7763966
0.7739024
0.77167
0.7705332
0.7790193
0.7765954
0.7743084
0.7722953
0.7708257
0.7815647
0.7792592
0.7770734
0.7750859
0.7733361
0.7714554
0.7839746
0.7817874
0.7797147
0.7778342
0.7761811
0.7747097
0.772458
0.8037824
0.8068779
0.8051376
0.7703388
0.7714483
0.7703582
0.7737867
0.7714138
0.7704087
0.7763243
0.773817
0.7715808
0.7705138
0.778898
0.7764445
0.7741221
0.7720943
0.7707538
0.781434
0.779091
0.776858
0.7748262
0.7730586
0.771315
0.783883
0.7816645
0.7795541
0.7776387
0.7759542
0.7744609
0.7723157
0.7862049
0.7840966
0.782102
0.7802885
0.7787254
0.7774127
0.7762477
0.7738161
0.801417
0.8058156
0.803971
0.8080557
0.8070491
0.8055057
0.7703479
0.7715513
0.7703683
0.7738582
0.7714836
0.7704184
0.7763243
0.773817
0.7715808
0.7705138
0.778828
0.7763585
0.7740169
0.7719822
0.7707162
0.7813178
0.7789451
0.7766731
0.7746039
0.7728192
0.7711959
0.7837576
0.7815033
0.7793466
0.7773855
0.775658
0.7741387
0.7721194
0.7861169
0.7839786
0.7819482
0.780101
0.7785081
0.7771628
0.7759575
0.7736051
0.7883584
0.7863221
0.7843981
0.7826533
0.7811467
0.7799409
0.7790077
0.7782209
0.7758377
0.7977696
0.8036746
0.8016206
0.8070541
0.8059901
0.8043466
0.809078
0.8082163
0.8073911
0.8060564
0.7703552
0.7716704
0.7703818
0.7739825
0.7716095
0.7704374
0.7763966
0.7739024
0.77167
0.7705332
0.778828
0.7763585
0.7740169
0.7719822
0.7707162
0.7812507
0.7788621
0.7765684
0.7744785
0.7726843
0.7711292
0.7836461
0.7813636
0.7791686
0.777168
0.7754032
0.7738632
0.7719473
0.7859963
0.783824
0.7817497
0.7798584
0.7782241
0.7768333
0.7755795
0.7733154
0.7882736
0.7862087
0.7842505
0.7824741
0.7809394
0.7797059
0.7787297
0.7778605
0.7754443
0.7904427
0.7884713
0.786612
0.7849266
0.7834774
0.7823137
0.7814982
0.7809923
0.7807048
0.7788988
0.7924975
0.800388
0.7980301
0.8050362
0.8038611
0.8020211
0.8081278
0.8072176
0.8063378
0.8049063
0.8101099
0.8092301
0.808537
0.807903
0.8067883
0.7717602
0.7703939
0.7741226
0.7717593
0.7704636
0.7765218
0.7740529
0.7718313
0.7705713
0.778898
0.7764445
0.7741221
0.7720943
0.7707538
0.7812507
0.7788621
0.7765684
0.7744785
0.7726843
0.7711292
0.7835818
0.7812841
0.7790681
0.777045
0.7752591
0.7737081
0.7718491
0.7858892
0.78369
0.7815794
0.7796504
0.7779791
0.7765483
0.7752568
0.7730662
0.7881574
0.7860601
0.7840601
0.7822423
0.780669
0.7793955
0.7783605
0.777397
0.7749692
0.7903608
0.788362
0.7864702
0.7847546
0.7832794
0.7820905
0.7812404
0.7806573
0.7801779
0.7779636
0.7924645
0.7905518
0.7887505
0.7871202
0.7857165
0.7845971
0.7838045
0.7834143
0.783415
0.7838554
0.783905
0.7956759
0.7930357
0.8019405
0.8006217
0.7985152
0.8062136
0.8052105
0.8042284
0.8026088
0.809203
0.8082825
0.8075432
0.8068563
0.8056474
0.8112148
0.8102549
0.8095339
0.809017
0.8085837
0.8078443
0.7742251
0.7718777
0.7704877
0.7766625
0.7742268
0.7720245
0.7706232
0.7790193
0.7765954
0.7743084
0.7722953
0.7708257
0.7813178
0.7789451
0.7766731
0.7746039
0.7728192
0.7711959
0.7835818
0.7812841
0.7790681
0.777045
0.7752591
0.7737081
0.7718491
0.7858274
0.7836137
0.7814832
0.7795329
0.7778402
0.7763868
0.7750754
0.7729259
0.7880542
0.7859314
0.7838969
0.7820436
0.7804361
0.779126
0.7780407
0.7770072
0.7745938
0.7902487
0.7882188
0.7862871
0.7845323
0.7830215
0.7817963
0.7808968
0.7802193
0.7795548
0.7771257
0.7923852
0.7904462
0.7886137
0.7869548
0.7855264
0.7843841
0.7835601
0.7831045
0.7829274
0.7828546
0.7812346
0.7944288
0.79257
0.7908215
0.7892401
0.78788
0.7867899
0.7860262
0.7856348
0.7857301
0.7864115
0.7881154
0.7864035
0.7975067
0.7961452
0.7938378
0.8032783
0.8021585
0.8010587
0.7991874
0.8073765
0.8063785
0.8055538
0.8047684
0.8033749
0.8103461
0.8093506
0.8085908
0.808029
0.8075433
0.8067127
0.8123681
0.8113538
0.8105447
0.8099887
0.8096556
0.8095663
0.808062
0.7767652
0.7743597
0.7721785
0.7706692
0.7791557
0.7767693
0.7745259
0.7725336
0.7709206
0.781434
0.779091
0.776858
0.7748262
0.7730586
0.771315
0.7836461
0.7813636
0.7791686
0.777168
0.7754032
0.7738632
0.7719473
0.7858274
0.7836137
0.7814832
0.7795329
0.7778402
0.7763868
0.7750754
0.7729259
0.7879947
0.7858581
0.7838047
0.7819314
0.7803043
0.7789728
0.7778598
0.7767904
0.7743924
0.7901489
0.7880947
0.7861303
0.7843418
0.7827993
0.7815414
0.7805982
0.7798463
0.7790589
0.7765541
0.7922766
0.7903079
0.7884373
0.786741
0.785279
0.7841036
0.7832352
0.7826978
0.7823456
0.781923
0.7798162
0.7943519
0.7924678
0.7906893
0.7890805
0.7876971
0.7865853
0.785793
0.7853406
0.7852749
0.7854757
0.7856205
0.7832667
0.7963402
0.794531
0.7928309
0.7912944
0.7899723
0.7889128
0.7881605
0.7877794
0.7878437
0.7885737
0.7904043
0.7902547
0.7883461
0.7990767
0.7979447
0.7968495
0.7947706
0.8045759
0.8034842
0.802566
0.8016669
0.8000183
0.8085965
0.8075335
0.8067031
0.8060587
0.8054737
0.8044613
0.8115329
0.8104875
0.8096445
0.8090508
0.8086729
0.8085319
0.8069323
0.8135618
0.8125017
0.8116314
0.8109785
0.8105938
0.8105776
0.8097688
0.8082816
0.7792552
0.7769018
0.7746946
0.7727208
0.7709981
0.7815647
0.7792592
0.7770734
0.7750859
0.7733361
0.7714554
0.7837576
0.7815033
0.7793466
0.7773855
0.775658
0.7741387
0.7721194
0.7858892
0.78369
0.7815794
0.7796504
0.7779791
0.7765483
0.7752568
0.7730662
0.7879947
0.7858581
0.7838047
0.7819314
0.7803043
0.7789728
0.7778598
0.7767904
0.7743924
0.7900915
0.7880241
0.7860416
0.7842343
0.7826735
0.7813968
0.7804286
0.7796376
0.7787912
0.7762687
0.7921801
0.790188
0.7882861
0.7865579
0.785066
0.7838606
0.7829533
0.7823505
0.781879
0.7812629
0.7789947
0.7942466
0.7923339
0.7905189
0.7888744
0.787459
0.786316
0.785483
0.7849555
0.784731
0.7846029
0.7842072
0.7815494
0.7962655
0.7944319
0.792703
0.7911401
0.7897957
0.7887157
0.7879361
0.7874984
0.7874103
0.7876909
0.788058
0.7873573
0.7850668
0.7982027
0.7964394
0.794784
0.7932886
0.7920019
0.7909678
0.790232
0.7898427
0.7898942
0.7905545
0.7923508
0.7924063
0.7919278
0.7899352
0.8005683
0.7994901
0.798601
0.7976749
0.7957703
0.8059143
0.8047719
0.803869
0.8031331
0.8024224
0.8011449
0.8098507
0.8087469
0.8078428
0.8071807
0.8067183
0.8064759
0.8046852
0.8127567
0.8116687
0.810769
0.810083
0.8096605
0.8095995
0.8087356
0.8071538
0.8147785
0.8136906
0.8127687
0.8120471
0.8115556
0.8114674
0.8107677
0.8099732
0.8085031
0.7816601
0.7793876
0.77724
0.7752866
0.7735515
0.7715622
0.783883
0.7816645
0.7795541
0.7776387
0.7759542
0.7744609
0.7723157
0.7859963
0.783824
0.7817497
0.7798584
0.7782241
0.7768333
0.7755795
0.7733154
0.7880542
0.7859314
0.7838969
0.7820436
0.7804361
0.779126
0.7780407
0.7770072
0.7745938
0.7900915
0.7880241
0.7860416
0.7842343
0.7826735
0.7813968
0.7804286
0.7796376
0.7787912
0.7762687
0.7921245
0.7901199
0.7882007
0.7864545
0.7849455
0.7837226
0.7827935
0.7821556
0.7816261
0.7809254
0.7786099
0.794153
0.7922178
0.7903728
0.7886978
0.7872541
0.7860829
0.7852141
0.7846272
0.7842941
0.7839825
0.783349
0.7805803
0.7961633
0.7943021
0.7925379
0.7909409
0.7895659
0.7884564
0.7876382
0.7871303
0.7868935
0.7868682
0.7867273
0.7856932
0.7831554
0.7981301
0.7963432
0.7946599
0.7931392
0.7918311
0.7907774
0.7900156
0.789572
0.7894794
0.7897126
0.790129
0.7896782
0.7889036
0.7866432
0.8000197
0.7982992
0.796685
0.7952277
0.7939734
0.7929641
0.79224
0.7918517
0.7918732
0.7924889
0.7941545
0.7942435
0.7939684
0.7933066
0.7912763
0.8020764
0.8009618
0.8001096
0.7993694
0.798567
0.7969735
0.807272
0.8061018
0.8051383
0.8044046
0.8038375
0.8034513
0.8013767
0.8111352
0.8099952
0.8090431
0.8082978
0.8078046
0.8076558
0.8066824
0.8049108
0.8140005
0.8128876
0.8119394
0.8111892
0.8106645
0.8105381
0.8097905
0.8089412
0.8073771
0.8160107
0.814903
0.813948
0.8131684
0.8126002
0.8123889
0.8116475
0.8109594
0.8101793
0.8087265
0.7839746
0.7817874
0.7797147
0.7778342
0.7761811
0.7747097
0.772458
0.7861169
0.7839786
0.7819482
0.780101
0.7785081
0.7771628
0.7759575
0.7736051
0.7881574
0.7860601
0.7840601
0.7822423
0.780669
0.7793955
0.7783605
0.777397
0.7749692
0.7901489
0.7880947
0.7861303
0.7843418
0.7827993
0.7815414
0.7805982
0.7798463
0.7790589
0.7765541
0.7921245
0.7901199
0.7882007
0.7864545
0.7849455
0.7837226
0.7827935
0.7821556
0.7816261
0.7809254
0.7786099
0.7940991
0.7921519
0.7902903
0.7885981
0.7871381
0.7859507
0.7850616
0.7844433
0.7840571
0.7836647
0.7829356
0.7801351
0.7960724
0.7941896
0.7923965
0.7907703
0.7893682
0.7882319
0.78738
0.7868166
0.7864791
0.7862835
0.7859177
0.7847151
0.7820743
0.7980307
0.7962171
0.7944998
0.7929462
0.7916088
0.7905268
0.7897284
0.789218
0.7889846
0.7889289
0.7888697
0.7881086
0.7870738
0.7846219
0.799949
0.7982056
0.7965645
0.7950827
0.7938079
0.7927798
0.7920308
0.7915905
0.7914737
0.7916823
0.7920348
0.7916583
0.7911174
0.7902644
0.7880115
0.8017943
0.8001137
0.798538
0.7971159
0.7958918
0.7949051
0.7941942
0.793803
0.7938075
0.7943661
0.7959349
0.7959577
0.7957189
0.7952523
0.7944804
0.7925999
0.8035825
0.8024529
0.8015514
0.8008345
0.8001988
0.7996497
0.7972198
0.8086495
0.8074522
0.8064523
0.8056482
0.8050699
0.8047969
0.803663
0.8016098
0.8124337
0.8112744
0.8102799
0.8094788
0.8088924
0.8086914
0.8078489
0.8068905
0.8051382
0.8152576
0.814127
0.8131486
0.8123434
0.8117462
0.8115013
0.810719
0.8099832
0.8091484
0.8076023
0.8172502
0.8161313
0.8151517
0.8143334
0.8137002
0.8133988
0.8125607
0.8118291
0.8111528
0.8103871
0.8089991
0.7862049
0.7840966
0.782102
0.7802885
0.7787254
0.7774127
0.7762477
0.7738161
0.7882736
0.7862087
0.7842505
0.7824741
0.7809394
0.7797059
0.7787297
0.7778605
0.7754443
0.7902487
0.7882188
0.7862871
0.7845323
0.7830215
0.7817963
0.7808968
0.7802193
0.7795548
0.7771257
0.7921801
0.790188
0.7882861
0.7865579
0.785066
0.7838606
0.7829533
0.7823505
0.781879
0.7812629
0.7789947
0.7940991
0.7921519
0.7902903
0.7885981
0.7871381
0.7859507
0.7850616
0.7844433
0.7840571
0.7836647
0.7829356
0.7801351
0.79602
0.7941256
0.7923166
0.7906739
0.7892563
0.7881046
0.7872337
0.7866409
0.7862546
0.785984
0.7855271
0.7842538
0.781581
0.7979423
0.7961079
0.7943627
0.7927809
0.7914176
0.7903101
0.7894795
0.7889164
0.788588
0.7883725
0.788104
0.7871845
0.7860023
0.7834668
0.7998523
0.798083
0.796409
0.7948955
0.7935925
0.7925373
0.7917531
0.7912489
0.7909976
0.7909314
0.7908337
0.7901712
0.7893893
0.7883373
0.7859435
0.8017254
0.8000225
0.7984207
0.796975
0.7957311
0.7947264
0.7939915
0.7935502
0.793422
0.7935899
0.7939042
0.7934911
0.7930158
0.7923807
0.7914518
0.7893695
0.803529
0.8018858
0.8003461
0.7989569
0.7977608
0.7967955
0.7960966
0.7957059
0.7956913
0.7962096
0.7976783
0.7976607
0.7973628
0.7969303
0.7963421
0.7956507
0.7928686
0.8050933
0.8039441
0.8030168
0.8022412
0.8016167
0.8012043
0.7998714
0.7974665
0.8100319
0.8088231
0.8077889
0.8069403
0.8062816
0.8059761
0.8049942
0.803876
0.8018444
0.8137409
0.8125682
0.8115488
0.8106986
0.8100482
0.8097375
0.8088741
0.8080436
0.8071003
0.8053673
0.8165199
0.8153801
0.8143792
0.813538
0.8128789
0.8125479
0.8116738
0.8109014
0.8101774
0.8093574
0.8078771
0.8184925
0.8173671
0.8163721
0.8155241
0.8148462
0.8144682
0.8135634
0.812734
0.8120123
0.8113477
0.8106407
0.8092781
0.7883584
0.7863221
0.7843981
0.7826533
0.7811467
0.7799409
0.7790077
0.7782209
0.7758377
0.7903608
0.788362
0.7864702
0.7847546
0.7832794
0.7820905
0.7812404
0.7806573
0.7801779
0.7779636
0.7922766
0.7903079
0.7884373
0.786741
0.785279
0.7841036
0.7832352
0.7826978
0.7823456
0.781923
0.7798162
0.794153
0.7922178
0.7903728
0.7886978
0.7872541
0.7860829
0.7852141
0.7846272
0.7842941
0.7839825
0.783349
0.7805803
0.79602
0.7941256
0.7923166
0.7906739
0.7892563
0.7881046
0.7872337
0.7866409
0.7862546
0.785984
0.7855271
0.7842538
0.781581
0.7978914
0.7960457
0.7942852
0.7926876
0.7913095
0.7901872
0.7893385
0.7887476
0.7883731
0.7880878
0.7877347
0.7867481
0.7855017
0.7829404
0.7997663
0.7979768
0.7962758
0.7947352
0.7934072
0.7923275
0.7915125
0.790958
0.790616
0.7903983
0.7901038
0.7892959
0.7883753
0.7872017
0.7847518
0.8016311
0.7999032
0.7982695
0.7967932
0.795522
0.7944912
0.7937225
0.7932197
0.7929625
0.7928673
0.7927532
0.7920721
0.791377
0.790558
0.7894779
0.7873054
0.8034618
0.801797
0.8002319
0.7988199
0.7976046
0.7966218
0.7958998
0.795461
0.7953182
0.7954608
0.7957251
0.7952974
0.794783
0.794206
0.7934792
0.7926363
0.7896452
0.8052264
0.8036183
0.8021123
0.8007539
0.7995841
0.7986386
0.7979514
0.7975613
0.7975331
0.7980116
0.7994019
0.7993368
0.7990049
0.7985157
0.7979573
0.7974245
0.7958884
0.7931355
0.8065957
0.8054416
0.8044858
0.8036766
0.8029853
0.8025646
0.8014101
0.8000935
0.7977136
0.8114158
0.8101996
0.8091475
0.8082577
0.8075465
0.8071444
0.8061625
0.8051928
0.8040903
0.8020805
0.8150492
0.8138711
0.8128333
0.8119524
0.8112459
0.8108575
0.8099116
0.8090583
0.8082398
0.8073117
0.8056468
0.8177833
0.8166387
0.8156242
0.8147555
0.8140544
0.8136498
0.8127132
0.8118477
0.8110853
0.8103733
0.8096123
0.8081583
0.819734
0.818606
0.8176006
0.8167327
0.8160197
0.8155867
0.8146265
0.8137294
0.8129088
0.8121971
0.8115857
0.8109002
0.8094904
0.7904427
0.7884713
0.786612
0.7849266
0.7834774
0.7823137
0.7814982
0.7809923
0.7807048
0.7788988
0.7923852
0.7904462
0.7886137
0.7869548
0.7855264
0.7843841
0.7835601
0.7831045
0.7829274
0.7828546
0.7812346
0.7942466
0.7923339
0.7905189
0.7888744
0.787459
0.786316
0.785483
0.7849555
0.784731
0.7846029
0.7842072
0.7815494
0.7960724
0.7941896
0.7923965
0.7907703
0.7893682
0.7882319
0.78738
0.7868166
0.7864791
0.7862835
0.7859177
0.7847151
0.7820743
0.7978914
0.7960457
0.7942852
0.7926876
0.7913095
0.7901872
0.7893385
0.7887476
0.7883731
0.7880878
0.7877347
0.7867481
0.7855017
0.7829404
0.7997167
0.7979164
0.7962006
0.7946447
0.7933024
0.7922086
0.7913762
0.7907951
0.7904094
0.7901255
0.7897519
0.7888826
0.7879009
0.7866727
0.7842085
0.8015473
0.7997998
0.79814
0.7966374
0.7953422
0.7942878
0.7934895
0.7929383
0.7925942
0.7923545
0.7920537
0.7912372
0.7904156
0.7894816
0.7883072
0.7861131
0.8033699
0.8016807
0.8000847
0.798643
0.7974015
0.7963935
0.7956388
0.7951407
0.7948736
0.7947636
0.7946178
0.7939376
0.793219
0.7924764
0.7916092
0.7906539
0.7875823
0.8051608
0.8035317
0.802001
0.8006205
0.7994321
0.7984698
0.7977602
0.7973235
0.7971716
0.7972875
0.7975184
0.7970639
0.7965332
0.7959153
0.7952398
0.79457
0.7928768
0.7899191
0.8068886
0.8053136
0.8038392
0.8025098
0.8013645
0.8004378
0.7997617
0.7993729
0.7993323
0.7997789
0.8010961
0.8010002
0.8006284
0.8001077
0.7994925
0.7989759
0.7976443
0.7961246
0.7934008
0.8080894
0.8069321
0.8059634
0.8051195
0.8043884
0.8038869
0.8027587
0.8016164
0.800316
0.797961
0.8127946
0.811578
0.810513
0.8095993
0.8088401
0.8083722
0.8073218
0.80635
0.8053927
0.804306
0.8023678
0.8163551
0.8151754
0.8141276
0.8132232
0.8124799
0.8120238
0.8110242
0.8100871
0.8092439
0.8084375
0.8075695
0.8059329
0.8190445
0.8178987
0.8168754
0.8159885
0.8152545
0.8147975
0.8138087
0.8128799
0.8120231
0.8112708
0.8106123
0.8098732
0.8083724
0.8209725
0.8198444
0.8188328
0.8179503
0.8172125
0.8167353
0.8157393
0.8147861
0.8138969
0.813085
0.8124226
0.811829
0.8110975
0.8096347
0.7924645
0.7905518
0.7887505
0.7871202
0.7857165
0.7845971
0.7838045
0.7834143
0.783415
0.7838554
0.783905
0.7943519
0.7924678
0.7906893
0.7890805
0.7876971
0.7865853
0.785793
0.7853406
0.7852749
0.7854757
0.7856205
0.7832667
0.7961633
0.7943021
0.7925379
0.7909409
0.7895659
0.7884564
0.7876382
0.7871303
0.7868935
0.7868682
0.7867273
0.7856932
0.7831554
0.7979423
0.7961079
0.7943627
0.7927809
0.7914176
0.7903101
0.7894795
0.7889164
0.788588
0.7883725
0.788104
0.7871845
0.7860023
0.7834668
0.7997167
0.7979164
0.7962006
0.7946447
0.7933024
0.7922086
0.7913762
0.7907951
0.7904094
0.7901255
0.7897519
0.7888826
0.7879009
0.7866727
0.7842085
0.801499
0.799741
0.7980669
0.7965495
0.7952406
0.7941724
0.7933575
0.7927808
0.7923948
0.7920921
0.7917164
0.7908431
0.7899659
0.7889796
0.787762
0.7855696
0.8032881
0.8015799
0.7999586
0.7984915
0.7972267
0.7961959
0.7954127
0.7948681
0.7945174
0.7942687
0.7939448
0.7931374
0.7923016
0.791455
0.7904977
0.7894749
0.7863903
0.805071
0.8034182
0.8018576
0.8004482
0.7992344
0.7982477
0.7975066
0.7970126
0.7967407
0.7966131
0.7964502
0.7957558
0.7950343
0.7942641
0.7934642
0.792688
0.7908931
0.7878579
0.8068244
0.805229
0.8037307
0.8023797
0.8012165
0.8002735
0.7995757
0.7991417
0.7989814
0.7990774
0.7992754
0.7988084
0.7982512
0.797616
0.7968979
0.7962645
0.7947914
0.7931158
0.7901912
0.8085175
0.8069737
0.8055293
0.804227
0.8031049
0.8021959
0.8015304
0.8011431
0.8010921
0.8015098
0.8027649
0.8026403
0.8022448
0.8016878
0.8010418
0.8004604
0.7991828
0.7978627
0.7963594
0.7936644
0.809569
0.8084149
0.8074361
0.8065739
0.8058031
0.8052506
0.8040715
0.8029531
0.801823
0.800539
0.7982609
0.8141657
0.8129519
0.8118813
0.8109492
0.8101604
0.8096334
0.8085421
0.8075004
0.8065388
0.8055938
0.8045686
0.802662
0.8176558
0.8164777
0.8154242
0.8145051
0.8137328
0.8132296
0.812184
0.8111922
0.810264
0.809431
0.8086787
0.8078334
0.8061507
0.8203013
0.8191567
0.8181285
0.8172287
0.8164716
0.8159725
0.8149507
0.8139689
0.8130479
0.8122
0.8114971
0.8108567
0.8100716
0.8085179
0.822206
0.82108
0.8200649
0.8191723
0.8184156
0.8179053
0.8168828
0.8158933
0.8149472
0.8140658
0.8133
0.812653
0.812014
0.8112314
0.8097084
0.7924975
0.7944288
0.79257
0.7908215
0.7892401
0.78788
0.7867899
0.7860262
0.7856348
0.7857301
0.7864115
0.7881154
0.7864035
0.7962655
0.7944319
0.792703
0.7911401
0.7897957
0.7887157
0.7879361
0.7874984
0.7874103
0.7876909
0.788058
0.7873573
0.7850668
0.7980307
0.7962171
0.7944998
0.7929462
0.7916088
0.7905268
0.7897284
0.789218
0.7889846
0.7889289
0.7888697
0.7881086
0.7870738
0.7846219
0.7997663
0.7979768
0.7962758
0.7947352
0.7934072
0.7923275
0.7915125
0.790958
0.790616
0.7903983
0.7901038
0.7892959
0.7883753
0.7872017
0.7847518
0.801499
0.799741
0.7980669
0.7965495
0.7952406
0.7941724
0.7933575
0.7927808
0.7923948
0.7920921
0.7917164
0.7908431
0.7899659
0.7889796
0.787762
0.7855696
0.803241
0.8015226
0.7998874
0.798406
0.7971279
0.796084
0.7952847
0.7947155
0.7943245
0.7940155
0.7936204
0.7927596
0.7918724
0.7909786
0.7899793
0.7889258
0.7858468
0.8049912
0.8033199
0.8017347
0.8003006
0.7990644
0.7980557
0.797287
0.7967479
0.7963955
0.7961345
0.795801
0.7949859
0.7941549
0.793289
0.7924086
0.7915659
0.7897127
0.7866664
0.8067367
0.8051182
0.8035907
0.8022117
0.8010238
0.8000573
0.799329
0.7988395
0.7985631
0.7984241
0.7982426
0.7975467
0.7968092
0.7960334
0.7952024
0.7944761
0.7929073
0.791131
0.7881322
0.8084548
0.806891
0.8054233
0.8041
0.8029605
0.8020357
0.8013492
0.8009182
0.800751
0.8008291
0.8010017
0.8005216
0.7999524
0.7992911
0.7985553
0.7978709
0.7964725
0.7950114
0.7933533
0.7904616
0.810115
0.8086008
0.8071845
0.8059079
0.8048076
0.8039153
0.80326
0.8028747
0.8028144
0.8032065
0.8044054
0.8042597
0.8038425
0.8032653
0.8025848
0.8019671
0.800657
0.7993883
0.7980798
0.7965929
0.7939814
0.8110333
0.8098845
0.8089025
0.8080256
0.8072324
0.8066311
0.8054271
0.8042564
0.8031479
0.80203
0.8008093
0.798568
0.8155271
0.8143184
0.8132459
0.8123036
0.8114913
0.8109248
0.8097966
0.808713
0.8076801
0.8067287
0.8058386
0.8048374
0.8028861
0.8189495
0.817775
0.8167192
0.8157901
0.8149984
0.8144571
0.8133841
0.8123455
0.8113616
0.8104423
0.8096591
0.8089254
0.8080341
0.8062987
0.821552
0.8204105
0.8193802
0.8184715
0.8176971
0.8171668
0.8161205
0.8151052
0.8141305
0.8132174
0.8124158
0.8117285
0.8110424
0.8102063
0.8085923
0.8234334
0.8223107
0.8212946
0.8203951
0.8196242
0.8190874
0.8180481
0.8170315
0.8160485
0.8151095
0.8142718
0.8135198
0.8128281
0.8121394
0.8112998
0.7977696
0.7956759
0.7930357
0.7963402
0.794531
0.7928309
0.7912944
0.7899723
0.7889128
0.7881605
0.7877794
0.7878437
0.7885737
0.7904043
0.7902547
0.7883461
0.7981301
0.7963432
0.7946599
0.7931392
0.7918311
0.7907774
0.7900156
0.789572
0.7894794
0.7897126
0.790129
0.7896782
0.7889036
0.7866432
0.7998523
0.798083
0.796409
0.7948955
0.7935925
0.7925373
0.7917531
0.7912489
0.7909976
0.7909314
0.7908337
0.7901712
0.7893893
0.7883373
0.7859435
0.8015473
0.7997998
0.79814
0.7966374
0.7953422
0.7942878
0.7934895
0.7929383
0.7925942
0.7923545
0.7920537
0.7912372
0.7904156
0.7894816
0.7883072
0.7861131
0.803241
0.8015226
0.7998874
0.798406
0.7971279
0.796084
0.7952847
0.7947155
0.7943245
0.7940155
0.7936204
0.7927596
0.7918724
0.7909786
0.7899793
0.7889258
0.7858468
0.8049452
0.803264
0.8016653
0.8002174
0.7989682
0.7979468
0.7971626
0.7965998
0.7962085
0.7958896
0.795488
0.7946225
0.7937436
0.7928343
0.7919162
0.7910424
0.7891629
0.7861233
0.8066586
0.8050222
0.8034708
0.8020679
0.8008582
0.7998703
0.7991153
0.7985823
0.798228
0.7979603
0.7976148
0.7968041
0.7959632
0.7950988
0.7941944
0.7934096
0.7917833
0.7899495
0.7869417
0.8083689
0.8067828
0.8052866
0.8039361
0.8027727
0.801825
0.801109
0.8006241
0.8003445
0.800195
0.8000012
0.7993018
0.7985616
0.7977687
0.7969302
0.7961627
0.7946818
0.7931255
0.7913678
0.7884052
0.8100537
0.8085199
0.8070809
0.8057839
0.8046667
0.803759
0.8030834
0.8026555
0.8024825
0.8025451
0.802695
0.802208
0.8016266
0.8009542
0.8001932
0.7994852
0.7980685
0.7966791
0.7952299
0.7935893
0.7907866
0.811683
0.8101966
0.808807
0.8075545
0.8064749
0.8055984
0.8049528
0.8045695
0.8045012
0.8048702
0.8060186
0.8058548
0.8054233
0.8048282
0.8041294
0.8034732
0.802155
0.8008523
0.7995925
0.7982955
0.7968737
0.794306
0.8124813
0.8113396
0.8103572
0.809473
0.8086616
0.80803
0.8068007
0.805604
0.8044416
0.803343
0.8022809
0.8010859
0.7988019
0.8168772
0.8156755
0.8146038
0.8136552
0.8128281
0.8122295
0.811082
0.8099608
0.8088849
0.8078609
0.80696
0.8060891
0.8050418
0.8030383
0.8202347
0.8190655
0.8180098
0.8170745
0.8162684
0.8156995
0.8146064
0.8135398
0.8125083
0.8115323
0.8106597
0.8098924
0.8091129
0.8081703
0.8063744
0.8227955
0.8216583
0.820628
0.8197137
0.8189264
0.8183712
0.81731
0.8162698
0.8152609
0.8142934
0.8134241
0.8126363
0.8119043
0.8111684
0.8102751
0.8246539
0.8235356
0.8225199
0.821616
0.8208345
0.8202766
0.8192259
0.8181921
0.8171816
0.8162051
0.8153077
0.8144824
0.8136867
0.8129468
0.8122034
0.801417
0.800388
0.7980301
0.7975067
0.7961452
0.7938378
0.7982027
0.7964394
0.794784
0.7932886
0.7920019
0.7909678
0.790232
0.7898427
0.7898942
0.7905545
0.7923508
0.7924063
0.7919278
0.7899352
0.799949
0.7982056
0.7965645
0.7950827
0.7938079
0.7927798
0.7920308
0.7915905
0.7914737
0.7916823
0.7920348
0.7916583
0.7911174
0.7902644
0.7880115
0.8016311
0.7999032
0.7982695
0.7967932
0.795522
0.7944912
0.7937225
0.7932197
0.7929625
0.7928673
0.7927532
0.7920721
0.791377
0.790558
0.7894779
0.7873054
0.8032881
0.8015799
0.7999586
0.7984915
0.7972267
0.7961959
0.7954127
0.7948681
0.7945174
0.7942687
0.7939448
0.7931374
0.7923016
0.791455
0.7904977
0.7894749
0.7863903
0.8049452
0.803264
0.8016653
0.8002174
0.7989682
0.7979468
0.7971626
0.7965998
0.7962085
0.7958896
0.795488
0.7946225
0.7937436
0.7928343
0.7919162
0.7910424
0.7891629
0.7861233
0.8066137
0.8049676
0.8034031
0.8019868
0.8007646
0.7997644
0.7989943
0.7984384
0.7980466
0.797723
0.7973121
0.7964534
0.7955675
0.7946628
0.7937243
0.7929118
0.7912589
0.7893991
0.7863989
0.8082926
0.806689
0.8051695
0.8037958
0.8026112
0.8016428
0.8009009
0.8003738
0.8000188
0.799745
0.7993931
0.7985837
0.7977456
0.7968696
0.7959639
0.7951439
0.7936133
0.7919999
0.7901854
0.7872159
0.8099696
0.808414
0.8069473
0.8056238
0.8044833
0.8035535
0.8028491
0.802369
0.8020868
0.801929
0.8017243
0.8010265
0.8002821
0.7994859
0.7986298
0.7978476
0.7963579
0.7948864
0.7933425
0.7916035
0.7887339
0.8116229
0.8101174
0.8087056
0.8074333
0.8063372
0.8054458
0.8047804
0.8043557
0.8041779
0.8042268
0.8043571
0.8038647
0.8032775
0.8025943
0.8018231
0.8010857
0.7996739
0.7982646
0.7968844
0.7954469
0.793873
0.7911195
0.8132228
0.8117629
0.8103983
0.8091688
0.8081086
0.8072471
0.8066108
0.8062297
0.8061543
0.8065025
0.8076047
0.8074261
0.806983
0.8063772
0.8056627
0.8049849
0.8036535
0.8023416
0.8010463
0.7997955
0.7985549
0.797161
0.7945531
0.8139122
0.812779
0.8117985
0.8109102
0.8100884
0.8094317
0.8081932
0.8069705
0.8057811
0.8046272
0.8035795
0.8025376
0.8012963
0.7989609
0.8182153
0.8170217
0.8159529
0.8150012
0.8141637
0.8135426
0.8123814
0.8112402
0.810126
0.809058
0.8080811
0.8071964
0.8062795
0.8051806
0.8031163
0.8215106
0.8203477
0.8192941
0.8183553
0.8175389
0.8169481
0.8158439
0.8147568
0.8136967
0.8126724
0.8117405
0.8108819
0.8100696
0.80924
0.8082399
0.8240311
0.8228993
0.8218703
0.8209527
0.820156
0.819581
0.8185101
0.8174545
0.8164203
0.815418
0.8144921
0.8136353
0.8128038
0.8120234
0.8112327
0.8258668
0.8247536
0.8237396
0.8228331
0.8220438
0.8214689
0.8204111
0.8193656
0.8183374
0.8173329
0.8163961
0.8155101
0.8146422
0.8137997
0.8130073
0.8037824
0.8036746
0.8016206
0.8019405
0.8006217
0.7985152
0.7990767
0.7979447
0.7968495
0.7947706
0.8000197
0.7982992
0.796685
0.7952277
0.7939734
0.7929641
0.79224
0.7918517
0.7918732
0.7924889
0.7941545
0.7942435
0.7939684
0.7933066
0.7912763
0.8017254
0.8000225
0.7984207
0.796975
0.7957311
0.7947264
0.7939915
0.7935502
0.793422
0.7935899
0.7939042
0.7934911
0.7930158
0.7923807
0.7914518
0.7893695
0.8033699
0.8016807
0.8000847
0.798643
0.7974015
0.7963935
0.7956388
0.7951407
0.7948736
0.7947636
0.7946178
0.7939376
0.793219
0.7924764
0.7916092
0.7906539
0.7875823
0.8049912
0.8033199
0.8017347
0.8003006
0.7990644
0.7980557
0.797287
0.7967479
0.7963955
0.7961345
0.795801
0.7949859
0.7941549
0.793289
0.7924086
0.7915659
0.7897127
0.7866664
0.8066137
0.8049676
0.8034031
0.8019868
0.8007646
0.7997644
0.7989943
0.7984384
0.7980466
0.797723
0.7973121
0.7964534
0.7955675
0.7946628
0.7937243
0.7929118
0.7912589
0.7893991
0.7863989
0.8082487
0.8066356
0.8051034
0.8037166
0.8025199
0.8015396
0.8007831
0.8002338
0.7998424
0.7995147
0.7990998
0.7982447
0.7973638
0.7964502
0.7955132
0.7946686
0.7931146
0.7914746
0.7896346
0.7866738
0.8098949
0.8083223
0.8068329
0.8054867
0.8043257
0.8033758
0.8026463
0.8021252
0.8017699
0.8014916
0.8011342
0.8003309
0.7994931
0.7986186
0.7977002
0.7968709
0.7953372
0.7938162
0.7922155
0.7904205
0.7875467
0.8115406
0.8100137
0.8085749
0.8072768
0.8061581
0.8052451
0.8045518
0.8040763
0.8037924
0.8036273
0.803414
0.8027184
0.8019753
0.8011748
0.8003153
0.7995103
0.798034
0.7965521
0.79509
0.7935584
0.7918872
0.7890706
0.8131639
0.8116853
0.8102991
0.8090502
0.807974
0.807098
0.8064425
0.8060211
0.805839
0.8058758
0.8059887
0.8054929
0.8049016
0.804214
0.8034333
0.8026825
0.8012669
0.7998613
0.7984595
0.7970882
0.7957079
0.7941634
0.791373
0.8147363
0.8133011
0.8119605
0.8107525
0.8097108
0.8088635
0.808236
0.8078572
0.8077755
0.8081046
0.8091646
0.8089733
0.8085215
0.8079078
0.8071847
0.8064886
0.8051586
0.8038327
0.8025271
0.8012391
0.8000395
0.7988203
0.7973797
0.7947211
0.8153259
0.814202
0.8132251
0.8123354
0.8115067
0.8108335
0.8095894
0.8083568
0.8071406
0.8059586
0.8048521
0.8038214
0.8027327
0.8014392
0.7990423
0.8195409
0.818356
0.8172917
0.8163392
0.8154949
0.8148562
0.8136895
0.8125342
0.8113994
0.8102922
0.8092687
0.8083061
0.8073761
0.8064086
0.8052516
0.8227767
0.8216209
0.8205704
0.8196303
0.8188068
0.8181989
0.8170881
0.8159895
0.8149083
0.8138548
0.8128725
0.8119532
0.8110506
0.8101897
0.809305
0.8252583
0.8241324
0.823106
0.8221867
0.8213832
0.8207924
0.8197159
0.8186502
0.8176002
0.816572
0.8156096
0.8146952
0.8137957
0.8129172
0.8120841
0.827072
0.8259642
0.8249528
0.8240451
0.8232499
0.8226613
0.8215996
0.8205467
0.8195064
0.8184838
0.8175175
0.8165912
0.8156637
0.8147504
0.8138573
0.8049533
0.8058156
0.803971
0.8050362
0.8038611
0.8020211
0.8032783
0.8021585
0.8010587
0.7991874
0.8005683
0.7994901
0.798601
0.7976749
0.7957703
0.8017943
0.8001137
0.798538
0.7971159
0.7958918
0.7949051
0.7941942
0.793803
0.7938075
0.7943661
0.7959349
0.7959577
0.7957189
0.7952523
0.7944804
0.7925999
0.8034618
0.801797
0.8002319
0.7988199
0.7976046
0.7966218
0.7958998
0.795461
0.7953182
0.7954608
0.7957251
0.7952974
0.794783
0.794206
0.7934792
0.7926363
0.7896452
0.805071
0.8034182
0.8018576
0.8004482
0.7992344
0.7982477
0.7975066
0.7970126
0.7967407
0.7966131
0.7964502
0.7957558
0.7950343
0.7942641
0.7934642
0.792688
0.7908931
0.7878579
0.8066586
0.8050222
0.8034708
0.8020679
0.8008582
0.7998703
0.7991153
0.7985823
0.798228
0.7979603
0.7976148
0.7968041
0.7959632
0.7950988
0.7941944
0.7934096
0.7917833
0.7899495
0.7869417
0.8082487
0.8066356
0.8051034
0.8037166
0.8025199
0.8015396
0.8007831
0.8002338
0.7998424
0.7995147
0.7990998
0.7982447
0.7973638
0.7964502
0.7955132
0.7946686
0.7931146
0.7914746
0.7896346
0.7866738
0.8098519
0.8082701
0.8067682
0.8054094
0.8042366
0.8032751
0.8025314
0.8019888
0.8015983
0.8012678
0.8008497
0.8000025
0.799124
0.798214
0.7972666
0.7964151
0.7948608
0.7933166
0.7916895
0.7898694
0.7870055
0.8114674
0.8099239
0.808463
0.8071428
0.8060041
0.8050716
0.8043539