/*--------------------------------*- C++ -*----------------------------------*\
| =========                 |                                                 |
| \\      /  F ield         | OpenFOAM: The Open Source CFD Toolbox           |
|  \\    /   O peration     | Version:  2306                                  |
|   \\  /    A nd           | Website:  www.openfoam.com                      |
|    \\/     M anipulation  |                                                 |
\*---------------------------------------------------------------------------*/
FoamFile
{
    version     2.0;
    format      ascii;
    arch        "LSB;label=32;scalar=64";
    class       volScalarField;
    location    "0.3/air";
    object      nernst;
}
// * * * * * * * * * * * * * * * * * * * * * * * * * * * * * * * * * * * * * //

dimensions      [1 2 -3 0 0 -1 0];

internalField   nonuniform List<scalar> 
16000
(
-0.7040259
-0.696784
-0.7126247
-0.6966581
-0.6927501
-0.7109794
-0.6790608
-0.7149911
-0.710968
-0.6925235
-0.6904496
-0.7095523
-0.6680964
-0.7143795
-0.7061286
-0.6679268
-0.7169554
-0.7144317
-0.7095505
-0.6901114
-0.6893802
-0.7085019
-0.6615307
-0.7138279
-0.7018895
-0.6515308
-0.7166775
-0.7126583
-0.7018616
-0.6610803
-0.7187267
-0.7167519
-0.7139522
-0.7085207
-0.6888994
-0.6893802
-0.7079457
-0.6584202
-0.7134052
-0.698751
-0.641294
-0.7164316
-0.7110414
-0.6950237
-0.6409088
-0.718569
-0.7159894
-0.7111093
-0.6986603
-0.6575302
-0.7203659
-0.7186473
-0.716599
-0.7136268
-0.7079975
-0.688713
-0.7163686
-0.6904496
-0.7079457
-0.6584202
-0.7131751
-0.6970841
-0.6363334
-0.7162449
-0.7097943
-0.6899036
-0.6279528
-0.7184336
-0.7153035
-0.7084798
-0.6897868
-0.6352606
-0.720255
-0.7182459
-0.715405
-0.7099482
-0.6968945
-0.6569049
-0.7219001
-0.7203307
-0.7186082
-0.7165347
-0.7135256
-0.708057
-0.6895463
-0.7161719
-0.7182932
-0.7173315
-0.6927501
-0.7085019
-0.6615307
-0.7131751
-0.6970841
-0.6363334
-0.7161437
-0.7091132
-0.6871677
-0.6215732
-0.7183331
-0.7147784
-0.7064294
-0.6830812
-0.6207341
-0.7201621
-0.7178948
-0.7143125
-0.706505
-0.6868332
-0.6342225
-0.7218088
-0.7200663
-0.7180034
-0.7150195
-0.7093826
-0.6967882
-0.6591837
-0.7233457
-0.7218801
-0.7203312
-0.7186338
-0.7165927
-0.713698
-0.7087276
-0.6915475
-0.7157687
-0.718147
-0.7171133
-0.7200861
-0.7191793
-0.7183261
-0.696784
-0.7095523
-0.6680964
-0.7134052
-0.698751
-0.641294
-0.7161437
-0.7091132
-0.6871677
-0.6215732
-0.7182794
-0.7144925
-0.7053029
-0.679477
-0.6135156
-0.7200943
-0.7176328
-0.7134658
-0.7037962
-0.679186
-0.6193748
-0.7217331
-0.7198412
-0.717465
-0.7136136
-0.7054739
-0.6865544
-0.6377845
-0.7232643
-0.7216704
-0.7199474
-0.7178931
-0.7149249
-0.7095557
-0.6984084
-0.6646692
-0.7247138
-0.723331
-0.7218933
-0.7203862
-0.718743
-0.716798
-0.7141653
-0.7099957
-0.6951491
-0.7151132
-0.717856
-0.7166523
-0.7199553
-0.7190326
-0.7180907
-0.7217223
-0.7208692
-0.7200889
-0.719356
-0.7040259
-0.7109794
-0.6790608
-0.7138279
-0.7018895
-0.6515308
-0.7162449
-0.7097943
-0.6899036
-0.6279528
-0.7182794
-0.7144925
-0.7053029
-0.679477
-0.6135156
-0.7200585
-0.7174924
-0.7130012
-0.7023004
-0.675061
-0.6119804
-0.7216785
-0.7196776
-0.717058
-0.7125116
-0.7023798
-0.6787628
-0.6238874
-0.7231968
-0.7214948
-0.7196153
-0.7172236
-0.7133601
-0.7056278
-0.6890517
-0.6462561
-0.7246382
-0.7231466
-0.7215958
-0.719933
-0.7179605
-0.7151886
-0.7105145
-0.7016665
-0.6741874
-0.7260125
-0.7247008
-0.7233479
-0.7219561
-0.7205089
-0.7189504
-0.7171657
-0.7149279
-0.7118365
-0.7015676
-0.7139161
-0.7174227
-0.7158556
-0.719697
-0.718742
-0.7175869
-0.7215997
-0.7207437
-0.7199418
-0.7191086
-0.7232435
-0.7224108
-0.7216726
-0.7210227
-0.7204223
-0.7126247
-0.6966581
-0.7143795
-0.7061286
-0.6679268
-0.7164316
-0.7110414
-0.6950237
-0.6409088
-0.7183331
-0.7147784
-0.7064294
-0.6830812
-0.6207341
-0.7200585
-0.7174924
-0.7130012
-0.7023004
-0.675061
-0.6119804
-0.7216499
-0.7195914
-0.7168382
-0.7119028
-0.7006651
-0.6745555
-0.6169972
-0.7231483
-0.7213694
-0.7193714
-0.7167111
-0.7121221
-0.702507
-0.681941
-0.6345181
-0.7245755
-0.7229932
-0.7213435
-0.7195355
-0.7172428
-0.713661
-0.7070319
-0.6941284
-0.6604434
-0.7259414
-0.7245305
-0.7230888
-0.721613
-0.7200514
-0.7182406
-0.7158415
-0.7122152
-0.7063408
-0.6896872
-0.7272484
-0.7260003
-0.7247184
-0.7234114
-0.7220791
-0.7207099
-0.7192685
-0.7177096
-0.716004
-0.7143253
-0.7090173
-0.7168682
-0.714349
-0.7193212
-0.7183167
-0.7167094
-0.721358
-0.7205003
-0.7196508
-0.7185793
-0.7231263
-0.7222948
-0.7215513
-0.7208749
-0.7201688
-0.7246805
-0.7238516
-0.7231179
-0.7224959
-0.72198
-0.721084
-0.7149911
-0.710968
-0.6925235
-0.7166775
-0.7126583
-0.7018616
-0.6610803
-0.7184336
-0.7153035
-0.7084798
-0.6897868
-0.6352606
-0.7200943
-0.7176328
-0.7134658
-0.7037962
-0.679186
-0.6193748
-0.7216499
-0.7195914
-0.7168382
-0.7119028
-0.7006651
-0.6745555
-0.6169972
-0.7231229
-0.7213043
-0.7192421
-0.7164322
-0.7114344
-0.700774
-0.6781064
-0.6287579
-0.7245304
-0.7228845
-0.7211619
-0.71924
-0.7166866
-0.712442
-0.7042557
-0.6884165
-0.6518973
-0.725882
-0.7243891
-0.7228708
-0.7213187
-0.7196436
-0.7175755
-0.7145551
-0.7095724
-0.7012988
-0.6821296
-0.7271809
-0.7258399
-0.7244796
-0.7231154
-0.721743
-0.7203248
-0.7187567
-0.7168845
-0.7145603
-0.7121172
-0.7042068
-0.7284267
-0.7272367
-0.7260176
-0.7247802
-0.7235309
-0.7222712
-0.7209998
-0.7197152
-0.7184759
-0.7175719
-0.7166349
-0.7105683
-0.7188977
-0.7177994
-0.7151428
-0.7210083
-0.7201659
-0.7192278
-0.7176716
-0.7228952
-0.7220715
-0.7213189
-0.7205823
-0.7196294
-0.7245675
-0.7237412
-0.7230074
-0.7223774
-0.7218314
-0.7208302
-0.726044
-0.7252215
-0.7244772
-0.723843
-0.7233379
-0.722572
-0.7211694
-0.7169554
-0.7144317
-0.7095505
-0.6901114
-0.718569
-0.7159894
-0.7111093
-0.6986603
-0.6575302
-0.7201621
-0.7178948
-0.7143125
-0.706505
-0.6868332
-0.6342225
-0.7216785
-0.7196776
-0.717058
-0.7125116
-0.7023798
-0.6787628
-0.6238874
-0.7231229
-0.7213043
-0.7192421
-0.7164322
-0.7114344
-0.700774
-0.6781064
-0.6287579
-0.7245068
-0.7228284
-0.7210672
-0.7190824
-0.7163817
-0.7117614
-0.7027117
-0.685343
-0.6477571
-0.7258393
-0.7242891
-0.7227157
-0.721105
-0.7193364
-0.7170515
-0.7135132
-0.7074441
-0.6974648
-0.6774523
-0.7271243
-0.7257065
-0.7242794
-0.7228641
-0.7214504
-0.719971
-0.7182482
-0.7160093
-0.7129906
-0.7098274
-0.7004905
-0.7283624
-0.7270843
-0.7257926
-0.7245082
-0.7232444
-0.7220031
-0.7207729
-0.7195277
-0.7183164
-0.7174813
-0.7158495
-0.7066451
-0.7295519
-0.7284156
-0.7272536
-0.7260775
-0.7248954
-0.7237145
-0.722542
-0.7213973
-0.7203445
-0.7196729
-0.7194188
-0.7174004
-0.7121379
-0.720627
-0.7198524
-0.7187154
-0.7161641
-0.7225606
-0.7217704
-0.7210088
-0.7201561
-0.7187271
-0.7243444
-0.7235287
-0.7227981
-0.7221512
-0.7215362
-0.7202929
-0.7259344
-0.7251151
-0.7243726
-0.7237364
-0.7232209
-0.7224231
-0.7209158
-0.7273435
-0.7265294
-0.7257795
-0.72512
-0.7245849
-0.7238621
-0.722649
-0.7212553
-0.7187267
-0.7167519
-0.7139522
-0.7085207
-0.6888994
-0.720255
-0.7182459
-0.715405
-0.7099482
-0.6968945
-0.6569049
-0.7217331
-0.7198412
-0.717465
-0.7136136
-0.7054739
-0.6865544
-0.6377845
-0.7231483
-0.7213694
-0.7193714
-0.7167111
-0.7121221
-0.702507
-0.681941
-0.6345181
-0.7245068
-0.7228284
-0.7210672
-0.7190824
-0.7163817
-0.7117614
-0.7027117
-0.685343
-0.6477571
-0.7258169
-0.7242375
-0.7226353
-0.7209929
-0.7191711
-0.7167614
-0.7129272
-0.7062556
-0.6954001
-0.675188
-0.7270834
-0.7256123
-0.7241374
-0.7226839
-0.7212353
-0.719698
-0.7178321
-0.7152681
-0.7116729
-0.7080164
-0.6980099
-0.7283082
-0.7269573
-0.725604
-0.724278
-0.7229979
-0.7217614
-0.7205388
-0.7192626
-0.7179405
-0.7169742
-0.7149017
-0.7034872
-0.7294904
-0.7282702
-0.7270396
-0.725821
-0.7246325
-0.7234907
-0.7224105
-0.721419
-0.7205877
-0.720186
-0.719545
-0.7166986
-0.7089486
-0.7306275
-0.7295413
-0.7284322
-0.7273116
-0.7261885
-0.7250712
-0.7239711
-0.7229096
-0.7219555
-0.7213608
-0.7212743
-0.7200603
-0.7182253
-0.7137333
-0.7221946
-0.7215138
-0.7207258
-0.7196325
-0.7173294
-0.7240207
-0.7232427
-0.7225268
-0.7218493
-0.7211022
-0.7194061
-0.7257179
-0.7249101
-0.7241746
-0.7235356
-0.7229962
-0.7221264
-0.7203789
-0.7272369
-0.7264262
-0.7256787
-0.7250195
-0.7244805
-0.7237452
-0.7225001
-0.7210017
-0.7285839
-0.7277827
-0.7270313
-0.726354
-0.7257786
-0.7250519
-0.7239311
-0.7227262
-0.7213416
-0.7203659
-0.7186473
-0.716599
-0.7136268
-0.7079975
-0.688713
-0.7218088
-0.7200663
-0.7180034
-0.7150195
-0.7093826
-0.6967882
-0.6591837
-0.7231968
-0.7214948
-0.7196153
-0.7172236
-0.7133601
-0.7056278
-0.6890517
-0.6462561
-0.7245304
-0.7228845
-0.7211619
-0.71924
-0.7166866
-0.712442
-0.7042557
-0.6884165
-0.6518973
-0.7258169
-0.7242375
-0.7226353
-0.7209929
-0.7191711
-0.7167614
-0.7129272
-0.7062556
-0.6954001
-0.675188
-0.727062
-0.7255637
-0.724064
-0.7225901
-0.7211215
-0.719549
-0.7175972
-0.714843
-0.7109256
-0.7070269
-0.6967727
-0.7282691
-0.7268675
-0.7254703
-0.7241137
-0.7228191
-0.721579
-0.7203449
-0.7190113
-0.7175533
-0.716453
-0.714108
-0.7013389
-0.7294385
-0.7281489
-0.72686
-0.725604
-0.7244072
-0.7232913
-0.7222701
-0.7213602
-0.7206053
-0.7202521
-0.7194296
-0.7158984
-0.7063058
-0.7305687
-0.7294025
-0.7282279
-0.7270672
-0.7259401
-0.7248661
-0.7238701
-0.7229892
-0.7223069
-0.7220199
-0.7216406
-0.7201044
-0.717576
-0.711155
-0.7316567
-0.7306177
-0.7295578
-0.7284885
-0.7274189
-0.7263576
-0.7253162
-0.7243175
-0.7234238
-0.7228652
-0.722797
-0.7218433
-0.7207331
-0.7190853
-0.7153468
-0.7236613
-0.7229994
-0.7223083
-0.7215552
-0.720557
-0.7180773
-0.7254029
-0.7246327
-0.723919
-0.7232764
-0.7226898
-0.7216874
-0.7194942
-0.7270262
-0.7262269
-0.7254879
-0.7248306
-0.7242828
-0.7235196
-0.7222033
-0.7204654
-0.72848
-0.7276822
-0.7269335
-0.7262573
-0.7256804
-0.7249477
-0.7238141
-0.7225773
-0.7210883
-0.7297702
-0.7289846
-0.728238
-0.7275492
-0.7269435
-0.7261982
-0.7251141
-0.7240002
-0.7228038
-0.7214283
-0.7219001
-0.7203307
-0.7186082
-0.7165347
-0.7135256
-0.708057
-0.6895463
-0.7232643
-0.7216704
-0.7199474
-0.7178931
-0.7149249
-0.7095557
-0.6984084
-0.6646692
-0.7245755
-0.7229932
-0.7213435
-0.7195355
-0.7172428
-0.713661
-0.7070319
-0.6941284
-0.6604434
-0.7258393
-0.7242891
-0.7227157
-0.721105
-0.7193364
-0.7170515
-0.7135132
-0.7074441
-0.6974648
-0.6774523
-0.727062
-0.7255637
-0.724064
-0.7225901
-0.7211215
-0.719549
-0.7175972
-0.714843
-0.7109256
-0.7070269
-0.6967727
-0.7282485
-0.7268212
-0.7254013
-0.7240286
-0.7227255
-0.721481
-0.7202349
-0.7188606
-0.7173162
-0.7161394
-0.7136641
-0.7002585
-0.7294008
-0.728063
-0.7267326
-0.7254494
-0.7242449
-0.7231429
-0.7221529
-0.7212775
-0.7205361
-0.7201802
-0.7192565
-0.7152336
-0.7044776
-0.7305188
-0.7292864
-0.7280562
-0.7268605
-0.7257275
-0.7246843
-0.723761
-0.7229927
-0.7224446
-0.7222558
-0.7217779
-0.7199967
-0.7168883
-0.7089805
-0.7316004
-0.7304849
-0.7293625
-0.728255
-0.7271816
-0.7261628
-0.7252238
-0.7244054
-0.7237832
-0.7235249
-0.7232023
-0.722085
-0.7206918
-0.7184709
-0.7132872
-0.732642
-0.7316476
-0.7306341
-0.7296127
-0.7285925
-0.7275821
-0.7265928
-0.725646
-0.7248002
-0.7242606
-0.7241773
-0.7233148
-0.72243
-0.7214183
-0.7199628
-0.7162938
-0.7250471
-0.7243896
-0.723716
-0.7230504
-0.7223612
-0.7211286
-0.7181734
-0.7267186
-0.7259555
-0.7252402
-0.7245885
-0.7240215
-0.7232068
-0.7217638
-0.7195829
-0.7282743
-0.7274878
-0.7267478
-0.7260756
-0.7254953
-0.7247494
-0.7235884
-0.7222804
-0.7205526
-0.7296687
-0.7288865
-0.7281427
-0.7274554
-0.7268493
-0.7261004
-0.7250099
-0.7238832
-0.7226549
-0.7211751
-0.7309059
-0.7301387
-0.729401
-0.7287088
-0.7280817
-0.7273242
-0.7262549
-0.7251765
-0.7240696
-0.7228816
-0.7215188
-0.7233457
-0.7218801
-0.7203312
-0.7186338
-0.7165927
-0.713698
-0.7087276
-0.6915475
-0.7246382
-0.7231466
-0.7215958
-0.719933
-0.7179605
-0.7151886
-0.7105145
-0.7016665
-0.6741874
-0.725882
-0.7243891
-0.7228708
-0.7213187
-0.7196436
-0.7175755
-0.7145551
-0.7095724
-0.7012988
-0.6821296
-0.7270834
-0.7256123
-0.7241374
-0.7226839
-0.7212353
-0.719698
-0.7178321
-0.7152681
-0.7116729
-0.7080164
-0.6980099
-0.7282485
-0.7268212
-0.7254013
-0.7240286
-0.7227255
-0.721481
-0.7202349
-0.7188606
-0.7173162
-0.7161394
-0.7136641
-0.7002585
-0.729381
-0.7280187
-0.7266669
-0.7253693
-0.7241602
-0.7230639
-0.7220866
-0.7212219
-0.7204772
-0.7201132
-0.7191419
-0.7148622
-0.7035509
-0.7304826
-0.7292041
-0.7279344
-0.726713
-0.7255744
-0.7245498
-0.7236701
-0.7229637
-0.7224783
-0.722328
-0.7218084
-0.7198525
-0.7163284
-0.7074565
-0.7315524
-0.7303737
-0.7291981
-0.728057
-0.7269784
-0.7259903
-0.7251246
-0.7244233
-0.7239458
-0.7237969
-0.7234046
-0.722186
-0.7205739
-0.7178708
-0.7115387
-0.732588
-0.7315206
-0.7304473
-0.7293892
-0.7283652
-0.7273947
-0.7265027
-0.7257269
-0.7251384
-0.7248774
-0.7245605
-0.7235896
-0.722554
-0.7212955
-0.7193717
-0.7144747
-0.7335856
-0.7326337
-0.7316641
-0.7306879
-0.7297139
-0.7287506
-0.7278088
-0.7269088
-0.7261039
-0.7255813
-0.7254742
-0.7246555
-0.7238423
-0.72302
-0.7221041
-0.7205107
-0.7164117
-0.7263659
-0.725709
-0.7250377
-0.7243818
-0.7237623
-0.7228543
-0.721204
-0.7182702
-0.7279735
-0.7272214
-0.726505
-0.7258418
-0.7252529
-0.7244824
-0.7232749
-0.7218405
-0.7196725
-0.7294677
-0.7286965
-0.7279614
-0.7272788
-0.7266718
-0.7259152
-0.7248116
-0.7236574
-0.7223579
-0.7206402
-0.7308065
-0.7300428
-0.729308
-0.7286174
-0.7279904
-0.7272305
-0.7261571
-0.7250723
-0.7239527
-0.7227327
-0.7212659
-0.7319942
-0.7312472
-0.7305224
-0.7298325
-0.7291938
-0.72843
-0.7273762
-0.7263117
-0.7252391
-0.7241392
-0.7229631
-0.7216016
-0.7247138
-0.723331
-0.7218933
-0.7203862
-0.718743
-0.716798
-0.7141653
-0.7099957
-0.6951491
-0.7259414
-0.7245305
-0.7230888
-0.721613
-0.7200514
-0.7182406
-0.7158415
-0.7122152
-0.7063408
-0.6896872
-0.7271243
-0.7257065
-0.7242794
-0.7228641
-0.7214504
-0.719971
-0.7182482
-0.7160093
-0.7129906
-0.7098274
-0.7004905
-0.7282691
-0.7268675
-0.7254703
-0.7241137
-0.7228191
-0.721579
-0.7203449
-0.7190113
-0.7175533
-0.716453
-0.714108
-0.7013389
-0.729381
-0.7280187
-0.7266669
-0.7253693
-0.7241602
-0.7230639
-0.7220866
-0.7212219
-0.7204772
-0.7201132
-0.7191419
-0.7148622
-0.7035509
-0.7304635
-0.7291616
-0.7278715
-0.7266367
-0.7254947
-0.7244786
-0.7236188
-0.7229394
-0.7224785
-0.7223429
-0.7218066
-0.7197583
-0.7160177
-0.7066783
-0.7315175
-0.7302947
-0.7290814
-0.7279158
-0.726832
-0.725863
-0.7250425
-0.7244091
-0.7240064
-0.7239085
-0.7234951
-0.7222103
-0.720445
-0.7173976
-0.7103017
-0.7325419
-0.731414
-0.7302899
-0.7291996
-0.7281702
-0.7272288
-0.7264068
-0.7257437
-0.7252959
-0.7251412
-0.7247673
-0.7237435
-0.7226083
-0.7211572
-0.7188426
-0.7129324
-0.7335339
-0.7325123
-0.7314855
-0.730474
-0.729496
-0.7285701
-0.7277196
-0.72698
-0.7264145
-0.7261477
-0.7258197
-0.7249133
-0.7239977
-0.7230367
-0.7219042
-0.7199273
-0.714618
-0.7344895
-0.7335783
-0.7326504
-0.731717
-0.7307865
-0.7298674
-0.7289699
-0.728113
-0.7273461
-0.7268399
-0.7267141
-0.7259205
-0.7251379
-0.7243683
-0.7236042
-0.7225391
-0.7205842
-0.7165296
-0.7276237
-0.7269715
-0.7262989
-0.725639
-0.7250175
-0.7241993
-0.7229201
-0.7212795
-0.7183678
-0.729173
-0.7284346
-0.7277225
-0.72705
-0.7264391
-0.7256679
-0.7245439
-0.7233432
-0.7219175
-0.7197626
-0.7306098
-0.7298567
-0.7291306
-0.728445
-0.7278181
-0.727053
-0.7259718
-0.7248738
-0.7237266
-0.7224355
-0.7207318
-0.7318969
-0.7311534
-0.7304315
-0.7297433
-0.729105
-0.7283392
-0.7272825
-0.7262139
-0.7251349
-0.7240222
-0.7228141
-0.721349
-0.7330379
-0.7323126
-0.7316035
-0.7309211
-0.730278
-0.7295152
-0.7284782
-0.7274284
-0.7263687
-0.7253019
-0.7242125
-0.7230376
-0.7216647
-0.7260125
-0.7247008
-0.7233479
-0.7219561
-0.7205089
-0.7189504
-0.7171657
-0.7149279
-0.7118365
-0.7015676
-0.7271809
-0.7258399
-0.7244796
-0.7231154
-0.721743
-0.7203248
-0.7187567
-0.7168845
-0.7145603
-0.7121172
-0.7042068
-0.7283082
-0.7269573
-0.725604
-0.724278
-0.7229979
-0.7217614
-0.7205388
-0.7192626
-0.7179405
-0.7169742
-0.7149017
-0.7034872
-0.7294008
-0.728063
-0.7267326
-0.7254494
-0.7242449
-0.7231429
-0.7221529
-0.7212775
-0.7205361
-0.7201802
-0.7192565
-0.7152336
-0.7044776
-0.7304635
-0.7291616
-0.7278715
-0.7266367
-0.7254947
-0.7244786
-0.7236188
-0.7229394
-0.7224785
-0.7223429
-0.7218066
-0.7197583
-0.7160177
-0.7066783
-0.7314991
-0.730254
-0.7290211
-0.7278427
-0.7267559
-0.7257957
-0.7249964
-0.7243939
-0.7240235
-0.7239477
-0.7235282
-0.7222095
-0.7203645
-0.7171383
-0.7096661
-0.7325082
-0.7313383
-0.7301779
-0.7290642
-0.7280298
-0.7271065
-0.7263281
-0.7257313
-0.7253588
-0.7252564
-0.7248694
-0.7238168
-0.7226181
-0.7210344
-0.7184432
-0.7118381
-0.7334895
-0.7324102
-0.7313347
-0.7302923
-0.7293088
-0.7284101
-0.7276255
-0.726992
-0.7265588
-0.7263918
-0.7260122
-0.7250701
-0.7240966
-0.72304
-0.7217405
-0.7194292
-0.7130973
-0.7344399
-0.7334621
-0.7324797
-0.7315124
-0.7305779
-0.7296938
-0.728882
-0.7281752
-0.7276309
-0.7273591
-0.7270218
-0.7261485
-0.7252835
-0.7244168
-0.7235227
-0.7222996
-0.7200015
-0.7147607
-0.7353553
-0.7344832
-0.7335953
-0.7327026
-0.7318135
-0.730936
-0.7300801
-0.7292637
-0.7285326
-0.7280444
-0.7279052
-0.727134
-0.7263669
-0.7256158
-0.7248857
-0.7239796
-0.7225994
-0.7206577
-0.7166477
-0.7288265
-0.7281821
-0.7275124
-0.7268463
-0.7262124
-0.725411
-0.7242585
-0.722986
-0.7213552
-0.7184659
-0.7303209
-0.7295992
-0.7288952
-0.7282202
-0.7275916
-0.7268164
-0.725724
-0.7246055
-0.7234117
-0.7219947
-0.7198567
-0.7317041
-0.730971
-0.7302576
-0.7295746
-0.7289371
-0.7281672
-0.727105
-0.7260285
-0.7249363
-0.723796
-0.7225169
-0.7208157
-0.7329425
-0.7322206
-0.7315145
-0.7308339
-0.7301913
-0.7294269
-0.7283875
-0.7273347
-0.726271
-0.7251977
-0.7240954
-0.7228886
-0.7214123
-0.7340394
-0.7333369
-0.7326457
-0.7319744
-0.7313333
-0.7305767
-0.7295602
-0.7285266
-0.7274809
-0.7264259
-0.7253684
-0.7242794
-0.7230934
-0.7217095
-0.7272484
-0.7260003
-0.7247184
-0.7234114
-0.7220791
-0.7207099
-0.7192685
-0.7177096
-0.716004
-0.7143253
-0.7090173
-0.7283624
-0.7270843
-0.7257926
-0.7245082
-0.7232444
-0.7220031
-0.7207729
-0.7195277
-0.7183164
-0.7174813
-0.7158495
-0.7066451
-0.7294385
-0.7281489
-0.72686
-0.725604
-0.7244072
-0.7232913
-0.7222701
-0.7213602
-0.7206053
-0.7202521
-0.7194296
-0.7158984
-0.7063058
-0.7304826
-0.7292041
-0.7279344
-0.726713
-0.7255744
-0.7245498
-0.7236701
-0.7229637
-0.7224783
-0.722328
-0.7218084
-0.7198525
-0.7163284
-0.7074565
-0.7314991
-0.730254
-0.7290211
-0.7278427
-0.7267559
-0.7257957
-0.7249964
-0.7243939
-0.7240235
-0.7239477
-0.7235282
-0.7222095
-0.7203645
-0.7171383
-0.7096661
-0.7324905
-0.7312992
-0.7301201
-0.728994
-0.7279566
-0.7270418
-0.7262841
-0.7257179
-0.7253788
-0.7252999
-0.724911
-0.7238447
-0.7226144
-0.7209626
-0.7182284
-0.7112743
-0.733457
-0.7323375
-0.7312274
-0.7301624
-0.7291739
-0.728292
-0.7275485
-0.726978
-0.7266166
-0.7265
-0.7261104
-0.7251524
-0.7241469
-0.7230304
-0.7216184
-0.7190635
-0.712018
-0.7343972
-0.7333643
-0.7323352
-0.7313383
-0.7303983
-0.7295396
-0.7287896
-0.7281822
-0.7277617
-0.7275822
-0.7271963
-0.7262927
-0.7253858
-0.724459
-0.7234748
-0.7221207
-0.7195064
-0.7132614
-0.7353077
-0.7343721
-0.7334321
-0.7325071
-0.7316138
-0.7307694
-0.7299943
-0.7293188
-0.7287953
-0.7285227
-0.7281793
-0.7273319
-0.7264917
-0.7256623
-0.7248376
-0.7238491
-0.7223556
-0.7200756
-0.7149031
-0.7361844
-0.7353499
-0.7345005
-0.7336468
-0.7327971
-0.7319593
-0.731143
-0.7303649
-0.7296681
-0.7291988
-0.7290526
-0.7283028
-0.7275507
-0.7268069
-0.7260839
-0.7252221
-0.7240328
-0.7226596
-0.7207313
-0.7167656
-0.7299777
-0.729345
-0.7286818
-0.7280149
-0.7273683
-0.7265709
-0.725465
-0.7243175
-0.7230519
-0.721431
-0.7185677
-0.7314205
-0.7307176
-0.7300257
-0.7293533
-0.7287154
-0.7279376
-0.726868
-0.7257801
-0.7246672
-0.7234802
-0.7220756
-0.7199431
-0.7327534
-0.7320418
-0.731344
-0.7306686
-0.7300272
-0.7292594
-0.7282155
-0.7271572
-0.7260854
-0.7249988
-0.723869
-0.7225912
-0.7208797
-0.7339458
-0.7332467
-0.7325584
-0.731889
-0.7312486
-0.7304906
-0.7294719
-0.7284358
-0.7273872
-0.7263281
-0.7252641
-0.7241622
-0.7229444
-0.7214573
-0.7350008
-0.7343218
-0.7336503
-0.7329931
-0.7323587
-0.7316129
-0.730619
-0.7296053
-0.7285752
-0.7275334
-0.7264868
-0.725429
-0.7243287
-0.7231322
-0.7217347
-0.7139161
-0.7284267
-0.7272367
-0.7260176
-0.7247802
-0.7235309
-0.7222712
-0.7209998
-0.7197152
-0.7184759
-0.7175719
-0.7166349
-0.7105683
-0.7294904
-0.7282702
-0.7270396
-0.725821
-0.7246325
-0.7234907
-0.7224105
-0.721419
-0.7205877
-0.720186
-0.719545
-0.7166986
-0.7089486
-0.7305188
-0.7292864
-0.7280562
-0.7268605
-0.7257275
-0.7246843
-0.723761
-0.7229927
-0.7224446
-0.7222558
-0.7217779
-0.7199967
-0.7168883
-0.7089805
-0.7315175
-0.7302947
-0.7290814
-0.7279158
-0.726832
-0.725863
-0.7250425
-0.7244091
-0.7240064
-0.7239085
-0.7234951
-0.7222103
-0.720445
-0.7173976
-0.7103017
-0.7324905
-0.7312992
-0.7301201
-0.728994
-0.7279566
-0.7270418
-0.7262841
-0.7257179
-0.7253788
-0.7252999
-0.724911
-0.7238447
-0.7226144
-0.7209626
-0.7182284
-0.7112743
-0.7334399
-0.7322999
-0.7311719
-0.7300951
-0.7291036
-0.7282297
-0.7275057
-0.7269643
-0.726635
-0.7265417
-0.7261515
-0.725187
-0.7241668
-0.7230211
-0.7215522
-0.7188695
-0.7114618
-0.7343659
-0.7332946
-0.7322324
-0.7312138
-0.7302687
-0.7294258
-0.7287144
-0.7281661
-0.7278131
-0.7276812
-0.7272866
-0.7263712
-0.7254438
-0.7244834
-0.7234436
-0.7219968
-0.7191441
-0.712197
-0.7352666
-0.7342784
-0.7332938
-0.7323404
-0.7314418
-0.7306212
-0.7299043
-0.729322
-0.7289141
-0.728727
-0.7283368
-0.7274608
-0.7265847
-0.7257099
-0.7248248
-0.723774
-0.7221749
-0.7195835
-0.7134249
-0.7361387
-0.7352438
-0.7343447
-0.7334601
-0.7326064
-0.7317999
-0.73106
-0.7304147
-0.7299123
-0.7296424
-0.7292982
-0.7284741
-0.727654
-0.7268415
-0.7260415
-0.7251263
-0.7238971
-0.7224116
-0.7201497
-0.7150449
-0.736978
-0.73618
-0.7353677
-0.7345515
-0.7337397
-0.7329398
-0.7321611
-0.7314196
-0.7307557
-0.7303065
-0.7301583
-0.7294312
-0.7286947
-0.7279595
-0.7272361
-0.7263914
-0.7252706
-0.7240859
-0.7227199
-0.7208048
-0.7168857
-0.731081
-0.7304627
-0.7298101
-0.7291466
-0.7284941
-0.7276982
-0.7266208
-0.7255189
-0.7243767
-0.7231177
-0.7215106
-0.7186612
-0.7324748
-0.7317923
-0.7311154
-0.7304506
-0.7298097
-0.7290353
-0.7279855
-0.7269197
-0.7258364
-0.7247289
-0.7235524
-0.7221495
-0.7200094
-0.7337601
-0.733071
-0.7323911
-0.731727
-0.731088
-0.7303271
-0.7293045
-0.7282638
-0.7272095
-0.7261424
-0.7250651
-0.7239355
-0.7226468
-0.7209253
-0.7349088
-0.7342332
-0.7335646
-0.7329094
-0.7322757
-0.7315288
-0.7305329
-0.7295171
-0.7284845
-0.7274397
-0.726389
-0.7253247
-0.7242115
-0.722983
-0.7214825
-0.7359238
-0.7352689
-0.7346183
-0.7339777
-0.7333536
-0.732622
-0.7316529
-0.7306614
-0.7296507
-0.7286239
-0.7275898
-0.7265423
-0.725473
-0.7243619
-0.7231525
-0.7151132
-0.7168682
-0.714349
-0.7295519
-0.7284156
-0.7272536
-0.7260775
-0.7248954
-0.7237145
-0.722542
-0.7213973
-0.7203445
-0.7196729
-0.7194188
-0.7174004
-0.7121379
-0.7305687
-0.7294025
-0.7282279
-0.7270672
-0.7259401
-0.7248661
-0.7238701
-0.7229892
-0.7223069
-0.7220199
-0.7216406
-0.7201044
-0.717576
-0.711155
-0.7315524
-0.7303737
-0.7291981
-0.728057
-0.7269784
-0.7259903
-0.7251246
-0.7244233
-0.7239458
-0.7237969
-0.7234046
-0.722186
-0.7205739
-0.7178708
-0.7115387
-0.7325082
-0.7313383
-0.7301779
-0.7290642
-0.7280298
-0.7271065
-0.7263281
-0.7257313
-0.7253588
-0.7252564
-0.7248694
-0.7238168
-0.7226181
-0.7210344
-0.7184432
-0.7118381
-0.7334399
-0.7322999
-0.7311719
-0.7300951
-0.7291036
-0.7282297
-0.7275057
-0.7269643
-0.726635
-0.7265417
-0.7261515
-0.725187
-0.7241668
-0.7230211
-0.7215522
-0.7188695
-0.7114618
-0.7343494
-0.7332585
-0.7321792
-0.7311492
-0.7302012
-0.7293656
-0.7286726
-0.7281517
-0.7278291
-0.7277193
-0.7273247
-0.7264051
-0.7254692
-0.7244935
-0.7234272
-0.7219322
-0.7189523
-0.7116483
-0.7352364
-0.7342115
-0.7331953
-0.732221
-0.7313174
-0.7305116
-0.729831
-0.7293043
-0.7289596
-0.7288173
-0.7284188
-0.7275322
-0.7266398
-0.7257417
-0.7248225
-0.7237306
-0.7220506
-0.7192245
-0.7123752
-0.7360991
-0.7351541
-0.7342124
-0.7333006
-0.7324417
-0.7316577
-0.7309728
-0.7304154
-0.7300213
-0.7298308
-0.729441
-0.7285886
-0.7277353
-0.7268839
-0.7260369
-0.7250849
-0.7238188
-0.7222289
-0.7196605
-0.7135875
-0.7369342
-0.7360787
-0.735219
-0.7343734
-0.7335578
-0.7327877
-0.7320817
-0.7314658
-0.730985
-0.7307211
-0.7303801
-0.7295801
-0.728779
-0.7279811
-0.7271906
-0.7263054
-0.7251696
-0.7239449
-0.7224676
-0.7202237
-0.715187
-0.7377372
-0.7369747
-0.7361982
-0.7354183
-0.7346429
-0.7338794
-0.7331368
-0.7324304
-0.7317985
-0.73137
-0.7312241
-0.7305206
-0.7298021
-0.7290776
-0.7283571
-0.7275209
-0.7264364
-0.7253189
-0.724139
-0.72278
-0.7208823
-0.7169959
-0.732139
-0.7315374
-0.7308985
-0.7302433
-0.7295901
-0.7288002
-0.7277446
-0.7266705
-0.7255728
-0.7244357
-0.7231874
-0.7215833
-0.7187341
-0.7334863
-0.7328254
-0.7321658
-0.7315123
-0.7308744
-0.7301078
-0.7290802
-0.7280335
-0.7269715
-0.7258927
-0.7247943
-0.7236181
-0.7222044
-0.720057
-0.7347263
-0.7340606
-0.7334002
-0.7327504
-0.7321184
-0.7313689
-0.7303695
-0.7293497
-0.7283124
-0.7272619
-0.7262031
-0.7251254
-0.7239844
-0.7226851
-0.720951
-0.7358333
-0.7351818
-0.7345342
-0.7338955
-0.7332723
-0.7325397
-0.7315688
-0.7305754
-0.7295625
-0.7285332
-0.727496
-0.7264445
-0.7253685
-0.7242445
-0.7230031
-0.7368099
-0.7361796
-0.7355509
-0.7349286
-0.7343179
-0.7336031
-0.73266
-0.731693
-0.7307041
-0.7296962
-0.7286764
-0.7276411
-0.7265819
-0.7255016
-0.7243777
-0.7157687
-0.7174227
-0.7158556
-0.7188977
-0.7177994
-0.7151428
-0.7306275
-0.7295413
-0.7284322
-0.7273116
-0.7261885
-0.7250712
-0.7239711
-0.7229096
-0.7219555
-0.7213608
-0.7212743
-0.7200603
-0.7182253
-0.7137333
-0.7316004
-0.7304849
-0.7293625
-0.728255
-0.7271816
-0.7261628
-0.7252238
-0.7244054
-0.7237832
-0.7235249
-0.7232023
-0.722085
-0.7206918
-0.7184709
-0.7132872
-0.7325419
-0.731414
-0.7302899
-0.7291996
-0.7281702
-0.7272288
-0.7264068
-0.7257437
-0.7252959
-0.7251412
-0.7247673
-0.7237435
-0.7226083
-0.7211572
-0.7188426
-0.7129324
-0.733457
-0.7323375
-0.7312274
-0.7301624
-0.7291739
-0.728292
-0.7275485
-0.726978
-0.7266166
-0.7265
-0.7261104
-0.7251524
-0.7241469
-0.7230304
-0.7216184
-0.7190635
-0.712018
-0.7343494
-0.7332585
-0.7321792
-0.7311492
-0.7302012
-0.7293656
-0.7286726
-0.7281517
-0.7278291
-0.7277193
-0.7273247
-0.7264051
-0.7254692
-0.7244935
-0.7234272
-0.7219322
-0.7189523
-0.7116483
-0.7352204
-0.7341769
-0.7331442
-0.7321591
-0.7312526
-0.7304536
-0.7297903
-0.7292894
-0.7289733
-0.7288519
-0.7284536
-0.7275634
-0.7266648
-0.7257568
-0.7248223
-0.7237098
-0.7219861
-0.7190347
-0.711834
-0.73607
-0.73509
-0.734118
-0.7331863
-0.7323226
-0.7315525
-0.7309018
-0.7303967
-0.730062
-0.7299135
-0.7295157
-0.7286528
-0.7277849
-0.7269144
-0.7260424
-0.7250682
-0.7237739
-0.7221042
-0.7193049
-0.7125524
-0.736896
-0.7359928
-0.7350925
-0.734221
-0.7334003
-0.7326517
-0.7319978
-0.7314651
-0.7310861
-0.7308961
-0.7305105
-0.7296822
-0.7288492
-0.728016
-0.7271852
-0.726274
-0.7251249
-0.7238635
-0.7222831
-0.7197373
-0.7137489
-0.7376951
-0.736878
-0.7360565
-0.7352486
-0.7344697
-0.7337348
-0.7330615
-0.7324745
-0.7320156
-0.7317603
-0.7314261
-0.7306509
-0.7298704
-0.7290875
-0.7283066
-0.7274362
-0.7263456
-0.7252128
-0.7239928
-0.7225234
-0.7203016
-0.7153171
-0.7384629
-0.7377349
-0.7369934
-0.7362486
-0.7355084
-0.73478
-0.7340722
-0.7333995
-0.7327986
-0.7323916
-0.7322513
-0.7315723
-0.7308736
-0.7301631
-0.7294488
-0.7286232
-0.727563
-0.7264812
-0.7253672
-0.7241918
-0.7228442
-0.720953
-0.7170843
-0.7331543
-0.7325712
-0.7319485
-0.731305
-0.7306568
-0.7298763
-0.7288437
-0.7277909
-0.7267203
-0.7256266
-0.7244984
-0.7232507
-0.7216368
-0.718788
-0.7344569
-0.7338188
-0.7331782
-0.732539
-0.7319086
-0.7311541
-0.73015
-0.729125
-0.7280816
-0.7270232
-0.7259526
-0.7248537
-0.723666
-0.7222419
-0.7200845
-0.7356538
-0.7350122
-0.7343727
-0.7337393
-0.7331181
-0.7323832
-0.731409
-0.730412
-0.729395
-0.728361
-0.7273181
-0.7262583
-0.7251689
-0.724017
-0.7227048
-0.7367209
-0.736094
-0.7354682
-0.734848
-0.7342382
-0.7335225
-0.7325778
-0.731609
-0.7306181
-0.729608
-0.7285857
-0.7275473
-0.726484
-0.725397
-0.7242602
-0.7376606
-0.7370551
-0.7364491
-0.7358464
-0.7352515
-0.7345555
-0.7336394
-0.7326982
-0.7317334
-0.7307469
-0.7297455
-0.7287242
-0.7276771
-0.7266068
-0.7255137
-0.7161719
-0.717856
-0.7166523
-0.7193212
-0.7183167
-0.7167094
-0.720627
-0.7198524
-0.7187154
-0.7161641
-0.7316567
-0.7306177
-0.7295578
-0.7284885
-0.7274189
-0.7263576
-0.7253162
-0.7243175
-0.7234238
-0.7228652
-0.722797
-0.7218433
-0.7207331
-0.7190853
-0.7153468
-0.732588
-0.7315206
-0.7304473
-0.7293892
-0.7283652
-0.7273947
-0.7265027
-0.7257269
-0.7251384
-0.7248774
-0.7245605
-0.7235896
-0.722554
-0.7212955
-0.7193717
-0.7144747
-0.7334895
-0.7324102
-0.7313347
-0.7302923
-0.7293088
-0.7284101
-0.7276255
-0.726992
-0.7265588
-0.7263918
-0.7260122
-0.7250701
-0.7240966
-0.72304
-0.7217405
-0.7194292
-0.7130973
-0.7343659
-0.7332946
-0.7322324
-0.7312138
-0.7302687
-0.7294258
-0.7287144
-0.7281661
-0.7278131
-0.7276812
-0.7272866
-0.7263712
-0.7254438
-0.7244834
-0.7234436
-0.7219968
-0.7191441
-0.712197
-0.7352204
-0.7341769
-0.7331442
-0.7321591
-0.7312526
-0.7304536
-0.7297903
-0.7292894
-0.7289733
-0.7288519
-0.7284536
-0.7275634
-0.7266648
-0.7257568
-0.7248223
-0.7237098
-0.7219861
-0.7190347
-0.711834
-0.7360546
-0.7350567
-0.7340691
-0.733127
-0.7322604
-0.7314968
-0.7308624
-0.7303816
-0.7300738
-0.7299451
-0.7295475
-0.7286811
-0.7278077
-0.7269295
-0.7260469
-0.7250622
-0.7237525
-0.7220398
-0.7191171
-0.7120186
-0.736868
-0.7359314
-0.7350022
-0.7341116
-0.7332863
-0.7325508
-0.7319294
-0.7314461
-0.7311231
-0.7309726
-0.730579
-0.72974
-0.7288931
-0.7280429
-0.7271915
-0.7262656
-0.7251065
-0.7238171
-0.7221579
-0.7193849
-0.7127273
-0.7376585
-0.7367959
-0.7359357
-0.7351031
-0.7343194
-0.733605
-0.7329814
-0.7324733