/*--------------------------------*- C++ -*----------------------------------*\
| =========                 |                                                 |
| \\      /  F ield         | OpenFOAM: The Open Source CFD Toolbox           |
|  \\    /   O peration     | Version:  2306                                  |
|   \\  /    A nd           | Website:  www.openfoam.com                      |
|    \\/     M anipulation  |                                                 |
\*---------------------------------------------------------------------------*/
FoamFile
{
    version     2.0;
    format      ascii;
    arch        "LSB;label=32;scalar=64";
    class       volScalarField;
    location    "0.3/air";
    object      O2;
}
// * * * * * * * * * * * * * * * * * * * * * * * * * * * * * * * * * * * * * //

dimensions      [0 0 0 0 0 0 0];

internalField   nonuniform List<scalar> 
16000
(
0.2299041
0.2299309
0.2281188
0.2298677
0.2299659
0.2282035
0.2299057
0.2257503
0.2280084
0.2297628
0.2299954
0.2283161
0.2299523
0.2258534
0.2281213
0.2298167
0.2232257
0.2256164
0.2277262
0.2295495
0.2300118
0.2284119
0.22999
0.2259955
0.2282643
0.2298817
0.2233284
0.2257499
0.2278746
0.2296216
0.2207383
0.2230892
0.2252836
0.2272129
0.2291753
0.2300118
0.2284655
0.2300104
0.2261239
0.228382
0.2299331
0.2234694
0.2259254
0.2280609
0.2297098
0.2208379
0.2232219
0.2254525
0.2273971
0.2292675
0.2183335
0.220606
0.2227514
0.2246948
0.2264134
0.2285701
0.1950367
0.2299954
0.2284655
0.2300104
0.2261985
0.2284464
0.22996
0.2235949
0.2260803
0.2282156
0.2297787
0.2209744
0.223396
0.2256708
0.2276297
0.2293834
0.2184289
0.2207344
0.2229181
0.2248957
0.2266316
0.2286847
0.2160186
0.2182062
0.2202789
0.2221575
0.223804
0.2252753
0.2276403
0.1962091
0.1931086
0.1948521
0.2299659
0.2284119
0.22999
0.2261985
0.2284464
0.22996
0.2236674
0.2261695
0.2282995
0.2298156
0.2210957
0.2235473
0.225859
0.2278244
0.2294774
0.2185597
0.2209027
0.2231337
0.2251558
0.2269099
0.2288355
0.2161102
0.2183292
0.2204395
0.2223531
0.2240315
0.2255275
0.2277866
0.2137879
0.2158966
0.2178916
0.2197051
0.2212668
0.2225757
0.2237484
0.2262556
0.1985778
0.1941715
0.1960202
0.1919312
0.1929373
0.1944836
0.2299309
0.2283161
0.2299523
0.2261239
0.228382
0.2299331
0.2236674
0.2261695
0.2282995
0.2298156
0.2211657
0.2236334
0.225967
0.2279323
0.229529
0.2186759
0.2210487
0.2233189
0.2253788
0.2271448
0.2289632
0.2162356
0.2184904
0.2206471
0.2226066
0.2243283
0.2258526
0.2279881
0.2138759
0.2160146
0.2180454
0.2198926
0.2214842
0.2228264
0.2240412
0.2264688
0.2116339
0.2136706
0.2155951
0.2173402
0.2188469
0.2200516
0.2209832
0.2217801
0.2242143
0.2022306
0.1963138
0.1983738
0.192933
0.1939969
0.1956442
0.1909104
0.1917706
0.1925951
0.1939323
0.2299041
0.2282035
0.2299057
0.2259955
0.2282643
0.2298817
0.2235949
0.2260803
0.2282156
0.2297787
0.2211657
0.2236334
0.225967
0.2279323
0.229529
0.218743
0.2211317
0.2234237
0.2255049
0.2272759
0.2290351
0.2163471
0.2186301
0.2208251
0.2228243
0.2245836
0.2261289
0.2281634
0.2139964
0.2161692
0.218244
0.2201353
0.2217684
0.2231567
0.2244219
0.2267614
0.2117188
0.213784
0.2157426
0.2175195
0.2190542
0.2202868
0.2212619
0.2221424
0.2246093
0.2095493
0.211521
0.2133807
0.2150665
0.216516
0.2176798
0.2184946
0.219
0.2192975
0.2211387
0.2075117
0.1996024
0.2019696
0.1949515
0.1961272
0.1979727
0.1918608
0.1927695
0.1936491
0.1950837
0.1898799
0.1907582
0.1914498
0.192083
0.1931995
0.2281188
0.2298677
0.2258534
0.2281213
0.2298167
0.2234694
0.2259254
0.2280609
0.2297098
0.2210957
0.2235473
0.225859
0.2278244
0.2294774
0.218743
0.2211317
0.2234237
0.2255049
0.2272759
0.2290351
0.2164114
0.2187096
0.2209258
0.2229474
0.2247279
0.2262838
0.2282632
0.2141036
0.2163033
0.2184142
0.2203434
0.2220137
0.2234423
0.2247462
0.2270126
0.2118349
0.2139326
0.2159331
0.2177513
0.2193247
0.2205974
0.2216319
0.2226078
0.2250864
0.2096312
0.2116304
0.2135226
0.2152386
0.216714
0.217903
0.2187525
0.2193356
0.2198256
0.222076
0.2075273
0.2094402
0.2112418
0.2128725
0.2142766
0.2153963
0.2161888
0.2165784
0.2165778
0.2161458
0.2161211
0.2043174
0.2069722
0.1980481
0.1993684
0.2014836
0.1937753
0.1947772
0.1957597
0.1973841
0.1907869
0.191706
0.1924438
0.1931303
0.1943417
0.188776
0.1897348
0.1904544
0.1909696
0.1914019
0.1921424
0.2257503
0.2280084
0.2297628
0.2233284
0.2257499
0.2278746
0.2296216
0.2209744
0.223396
0.2256708
0.2276297
0.2293834
0.2186759
0.2210487
0.2233189
0.2253788
0.2271448
0.2289632
0.2164114
0.2187096
0.2209258
0.2229474
0.2247279
0.2262838
0.2282632
0.2141653
0.2163795
0.2185105
0.2204609
0.2221527
0.2236041
0.2249283
0.2271536
0.2119382
0.2140614
0.2160963
0.21795
0.2195576
0.2208672
0.2219523
0.2229989
0.2254633
0.2097434
0.2117735
0.2137056
0.2154609
0.2169721
0.2181973
0.2190963
0.2197743
0.2204501
0.222916
0.2076066
0.2095458
0.2113786
0.2130379
0.2144666
0.2156092
0.2164332
0.2168884
0.2170659
0.2171477
0.2187964
0.2055629
0.2074218
0.2091706
0.2107522
0.2121126
0.2132031
0.213967
0.2143583
0.2142624
0.213581
0.2118829
0.2136167
0.2024831
0.2038477
0.2061684
0.1967112
0.19783
0.1989312
0.2008102
0.1926137
0.1936105
0.1944338
0.1952193
0.1966169
0.1896448
0.1906393
0.1913977
0.1919578
0.1924428
0.1932752
0.1876237
0.1886371
0.189445
0.1899995
0.1903308
0.1904188
0.1919244
0.2232257
0.2256164
0.2277262
0.2295495
0.2208379
0.2232219
0.2254525
0.2273971
0.2292675
0.2185597
0.2209027
0.2231337
0.2251558
0.2269099
0.2288355
0.2163471
0.2186301
0.2208251
0.2228243
0.2245836
0.2261289
0.2281634
0.2141653
0.2163795
0.2185105
0.2204609
0.2221527
0.2236041
0.2249283
0.2271536
0.2119977
0.2141346
0.2161885
0.2180623
0.2196895
0.2210205
0.2221336
0.2232163
0.2256655
0.2098431
0.2118976
0.2138625
0.2156514
0.2171943
0.2184523
0.2193952
0.2201479
0.220947
0.223489
0.2077151
0.2096841
0.211555
0.2132517
0.2147141
0.2158898
0.2167583
0.2172953
0.2176482
0.2180804
0.2202175
0.2056397
0.207524
0.2093027
0.2109118
0.2122956
0.2134077
0.2142002
0.2146525
0.2147178
0.2145173
0.2143798
0.2167591
0.2036514
0.2054606
0.2071609
0.2086976
0.2100201
0.2110798
0.2118324
0.2122136
0.2121491
0.2114185
0.2095873
0.2097421
0.2116696
0.2009137
0.202045
0.2031429
0.2052335
0.1954146
0.1965053
0.1974224
0.1983225
0.1999779
0.1913946
0.1924567
0.1932857
0.1939287
0.1945135
0.195529
0.188459
0.1895035
0.1903454
0.1909376
0.1913138
0.1914537
0.1930553
0.1864308
0.1874901
0.1883594
0.1890112
0.1893943
0.1894085
0.1902161
0.1917046
0.2207383
0.2230892
0.2252836
0.2272129
0.2291753
0.2184289
0.2207344
0.2229181
0.2248957
0.2266316
0.2286847
0.2162356
0.2184904
0.2206471
0.2226066
0.2243283
0.2258526
0.2279881
0.2141036
0.2163033
0.2184142
0.2203434
0.2220137
0.2234423
0.2247462
0.2270126
0.2119977
0.2141346
0.2161885
0.2180623
0.2196895
0.2210205
0.2221336
0.2232163
0.2256655
0.2099005
0.2119682
0.2139511
0.2157589
0.2173201
0.2185969
0.2195649
0.2203569
0.2212152
0.2237752
0.2078117
0.209804
0.2117062
0.2134348
0.2149271
0.2161329
0.2170402
0.2176428
0.2181154
0.2187415
0.2210407
0.205745
0.2076579
0.2094732
0.211118
0.2125337
0.213677
0.2145103
0.2150378
0.2152619
0.2153906
0.2157943
0.2184794
0.203726
0.2055597
0.2072888
0.2088519
0.2101966
0.2112769
0.2120568
0.2124947
0.2125826
0.2123015
0.2119344
0.2126415
0.2149543
0.2017888
0.2035521
0.2052077
0.2067032
0.2079902
0.2090245
0.2097607
0.2101501
0.2100986
0.209438
0.2076407
0.2075849
0.2080678
0.2100767
0.1994229
0.2005001
0.2013885
0.2023169
0.2042316
0.1940771
0.1952186
0.1961204
0.1968552
0.1975666
0.1988493
0.1901412
0.1912442
0.1921473
0.1928081
0.1932689
0.1935107
0.1953049
0.1872359
0.1883231
0.1892219
0.1899067
0.1903277
0.1903869
0.1912498
0.1928336
0.1852148
0.1863019
0.1872231
0.1879437
0.1884339
0.1885205
0.1892184
0.1900117
0.1914829
0.2183335
0.220606
0.2227514
0.2246948
0.2264134
0.2285701
0.2161102
0.2183292
0.2204395
0.2223531
0.2240315
0.2255275
0.2277866
0.2139964
0.2161692
0.218244
0.2201353
0.2217684
0.2231567
0.2244219
0.2267614
0.2119382
0.2140614
0.2160963
0.21795
0.2195576
0.2208672
0.2219523
0.2229989
0.2254633
0.2099005
0.2119682
0.2139511
0.2157589
0.2173201
0.2185969
0.2195649
0.2203569
0.2212152
0.2237752
0.2078673
0.2098721
0.2117916
0.2135382
0.2150476
0.2162708
0.2172001
0.2178378
0.2183685
0.2190794
0.2214262
0.2058386
0.2077739
0.2096192
0.2112945
0.2127386
0.2139101
0.2147792
0.2153661
0.215699
0.2160115
0.2166533
0.2194501
0.2038282
0.2056895
0.2074539
0.2090511
0.2104265
0.2115363
0.2123547
0.2128627
0.2130995
0.2131244
0.2132657
0.214307
0.2168687
0.2018614
0.2036484
0.2053318
0.2068526
0.208161
0.209215
0.209977
0.2104208
0.2105135
0.21028
0.209863
0.2103138
0.211094
0.2133737
0.1999718
0.2016923
0.2033066
0.204764
0.2060185
0.207028
0.2077524
0.2081409
0.2081196
0.2075038
0.2058375
0.2057478
0.2060224
0.2066879
0.2087323
0.1979153
0.1990292
0.1998806
0.2006199
0.2014241
0.2030259
0.19272
0.1938896
0.1948522
0.1955847
0.1961506
0.1965369
0.1986172
0.1888574
0.1899967
0.190948
0.1916922
0.192184
0.1923312
0.1933041
0.195079
0.1859927
0.1871049
0.1880524
0.1888017
0.1893252
0.18945
0.1901958
0.1910442
0.1926101
0.1839831
0.1850903
0.1860445
0.1868234
0.1873906
0.1876005
0.1883404
0.1890266
0.1898055
0.1912594
0.2160186
0.2182062
0.2202789
0.2221575
0.223804
0.2252753
0.2276403
0.2138759
0.2160146
0.2180454
0.2198926
0.2214842
0.2228264
0.2240412
0.2264688
0.2118349
0.2139326
0.2159331
0.2177513
0.2193247
0.2205974
0.2216319
0.2226078
0.2250864
0.2098431
0.2118976
0.2138625
0.2156514
0.2171943
0.2184523
0.2193952
0.2201479
0.220947
0.223489
0.2078673
0.2098721
0.2117916
0.2135382
0.2150476
0.2162708
0.2172001
0.2178378
0.2183685
0.2190794
0.2214262
0.2058925
0.2078399
0.2097017
0.2113942
0.2128545
0.2140423
0.2149317
0.21555
0.2159361
0.2163295
0.2170671
0.2198961
0.2039191
0.205802
0.2075953
0.2092218
0.2106242
0.2117608
0.212613
0.2131765
0.213514
0.2137092
0.2140756
0.2152858
0.2179516
0.2019608
0.2037744
0.2054918
0.2070456
0.2083833
0.2094655
0.2102642
0.2107749
0.2110083
0.2110639
0.2111225
0.2118839
0.2129251
0.215398
0.2000425
0.2017859
0.2034271
0.204909
0.206184
0.2072123
0.2079616
0.2084021
0.208519
0.2083104
0.2079575
0.2083334
0.2088742
0.209732
0.2120017
0.1981973
0.1998779
0.2014536
0.2028757
0.2041
0.2050869
0.205798
0.2061895
0.2061851
0.2056265
0.2040575
0.204034
0.2042721
0.2047381
0.2055131
0.2074054
0.1964097
0.1975388
0.1984396
0.1991555
0.1997903
0.2003406
0.2027791
0.1913431
0.1925399
0.193539
0.1943422
0.1949193
0.1951909
0.1963251
0.1983837
0.1875595
0.1887182
0.189712
0.1905123
0.1910975
0.191297
0.192138
0.1930959
0.1948514
0.1847361
0.1858662
0.186844
0.1876484
0.1882446
0.1884883
0.1892691
0.1900031
0.1908369
0.1923847
0.1827442
0.1838625
0.1848416
0.1856591
0.1862915
0.1865919
0.1874287
0.1881587
0.1888332
0.1895976
0.1909866
0.2137879
0.2158966
0.2178916
0.2197051
0.2212668
0.2225757
0.2237484
0.2262557
0.2117188
0.213784
0.2157426
0.2175195
0.2190542
0.2202868
0.2212619
0.2221424
0.2246093
0.2097434
0.2117735
0.2137056
0.2154609
0.2169721
0.2181973
0.2190963
0.2197743
0.2204501
0.222916
0.2078117
0.209804
0.2117062
0.2134348
0.2149271
0.2161329
0.2170402
0.2176428
0.2181154
0.2187415
0.2210407
0.2058925
0.2078399
0.2097017
0.2113942
0.2128545
0.2140423
0.2149317
0.21555
0.2159361
0.2163295
0.2170671
0.2198961
0.2039714
0.205866
0.2076752
0.2093181
0.210736
0.2118881
0.2127593
0.2133522
0.2137385
0.2140088
0.2144664
0.2157476
0.2184456
0.2020491
0.2038836
0.2056289
0.2072109
0.2085744
0.2096823
0.2105131
0.2110764
0.211405
0.2116203
0.2118884
0.2128084
0.2139974
0.2165549
0.2001392
0.2019085
0.2035825
0.2050961
0.2063994
0.2074548
0.2082393
0.2087437
0.2089952
0.2090614
0.2091588
0.2098208
0.2106029
0.2116604
0.2140726
0.1982661
0.199969
0.2015708
0.2030166
0.2042607
0.2052656
0.2060007
0.2064422
0.2065706
0.2064027
0.2060883
0.2065011
0.2069757
0.2076106
0.2085436
0.21064
0.1964626
0.1981057
0.1996455
0.2010347
0.2022309
0.2031964
0.2038956
0.2042864
0.2043013
0.203783
0.2023142
0.2023315
0.2026288
0.2030604
0.203648
0.2043419
0.2071361
0.1948993
0.1960481
0.1969749
0.1977497
0.1983732
0.1987845
0.2001187
0.202532
0.1899611
0.1911695
0.1922031
0.193051
0.1937087
0.1940129
0.1949935
0.196112
0.1981488
0.1862528
0.1874249
0.1884438
0.1892932
0.1899428
0.1902523
0.1911143
0.1919433
0.192886
0.194622
0.1834744
0.1846136
0.185614
0.1864545
0.1871128
0.1874428
0.1883158
0.1890866
0.1898088
0.1906278
0.1921097
0.1815024
0.1826273
0.1836218
0.1844691
0.1851463
0.1855235
0.1864273
0.1872554
0.1879755
0.1886382
0.1893438
0.1907074
0.2116339
0.2136706
0.2155951
0.2173402
0.2188469
0.2200516
0.2209832
0.2217801
0.2242143
0.2096312
0.2116304
0.2135226
0.2152386
0.216714
0.217903
0.2187525
0.2193356
0.2198256
0.222076
0.2077151
0.2096841
0.211555
0.2132517
0.2147141
0.2158898
0.2167583
0.2172953
0.2176482
0.2180804
0.2202175
0.2058386
0.2077739
0.2096192
0.2112945
0.2127386
0.2139101
0.2147792
0.2153661
0.215699
0.2160115
0.2166533
0.2194501
0.2039714
0.205866
0.2076752
0.2093181
0.210736
0.2118881
0.2127593
0.2133522
0.2137385
0.2140088
0.2144664
0.2157476
0.2184456
0.2021
0.2039457
0.2057064
0.2073042
0.2086826
0.2098052
0.2106541
0.2112452
0.2116199
0.211905
0.2122579
0.2132451
0.2144984
0.217082
0.2002252
0.2020147
0.2037157
0.2052565
0.2065847
0.2076646
0.2084799
0.2090346
0.2093767
0.2095945
0.2098888
0.2106963
0.2116173
0.2127969
0.215266
0.1983604
0.2000883
0.201722
0.2031984
0.2044697
0.2055008
0.2062696
0.2067727
0.2070301
0.2071253
0.2072394
0.2079202
0.2086148
0.2094339
0.2105187
0.2127067
0.1965298
0.1981946
0.1997596
0.2011717
0.2023871
0.20337
0.2040923
0.2045313
0.2046743
0.2045318
0.2042674
0.204695
0.2052089
0.2057852
0.2065118
0.2073579
0.2103636
0.1947654
0.1963733
0.1978793
0.1992377
0.2004077
0.2013533
0.2020407
0.202431
0.2024594
0.201981
0.2005907
0.2006556
0.2009871
0.2014758
0.2020332
0.2025654
0.204104
0.2068685
0.1933972
0.194551
0.1955064
0.196315
0.1970055
0.1974251
0.1985786
0.1998965
0.2022846
0.1885777
0.1897935
0.190845
0.1917343
0.1924447
0.1928459
0.1938265
0.1947948
0.1958975
0.1979125
0.184945
0.1861226
0.1871599
0.1880402
0.1887459
0.1891335
0.1900782
0.1909301
0.191747
0.1926745
0.1943423
0.1822115
0.1833556
0.1843696
0.1852377
0.1859382
0.186342
0.1872776
0.1881418
0.1889027
0.1896129
0.1903727
0.1918282
0.1802613
0.1813889
0.1823938
0.1832612
0.1839735
0.1844059
0.1853652
0.1862612
0.1870806
0.1877907
0.1884002
0.1890843
0.1904949
0.2095493
0.211521
0.2133807
0.2150665
0.216516
0.2176798
0.2184946
0.219
0.2192975
0.2211387
0.2076066
0.2095458
0.2113786
0.2130379
0.2144666
0.2156092
0.2164332
0.2168884
0.2170659
0.2171477
0.2187964
0.205745
0.2076579
0.2094732
0.211118
0.2125337
0.213677
0.2145103
0.2150378
0.2152619
0.2153906
0.2157943
0.2184794
0.2039191
0.205802
0.2075953
0.2092218
0.2106242
0.2117608
0.212613
0.2131765
0.213514
0.2137092
0.2140756
0.2152858
0.2179516
0.2021
0.2039457
0.2057064
0.2073042
0.2086826
0.2098052
0.2106541
0.2112452
0.2116199
0.211905
0.2122579
0.2132451
0.2144984
0.217082
0.2002747
0.2020751
0.2037909
0.2053469
0.2066894
0.2077835
0.2086161
0.2091975
0.2095834
0.2098673
0.2102407
0.2111098
0.2120919
0.2133262
0.21581
0.1984442
0.2001917
0.2018515
0.2033541
0.2046495
0.2057042
0.2065026
0.2070541
0.2073984
0.2076382
0.207939
0.2087552
0.2095764
0.2105106
0.2116902
0.2139005
0.1966218
0.1983109
0.1999068
0.2013486
0.2025902
0.2035984
0.2043532
0.2048516
0.2051188
0.205229
0.2053748
0.2060549
0.2067732
0.2075152
0.2083823
0.2093415
0.212429
0.194831
0.19646
0.1979906
0.1993712
0.2005596
0.2015221
0.2022318
0.2026688
0.2028209
0.2027051
0.2024742
0.2029286
0.203459
0.2040765
0.2047513
0.2054207
0.2071172
0.210089
0.1931034
0.1946782
0.1961525
0.1974819
0.1986273
0.1995541
0.2002304
0.2006194
0.2006602
0.2002137
0.1988967
0.1989924
0.1993639
0.1998842
0.2004988
0.2010145
0.2023455
0.2038676
0.2066028
0.1919039
0.1930608
0.1940292
0.1948726
0.1956032
0.1961038
0.197231
0.1983723
0.1996738
0.2020368
0.1871993
0.1884155
0.1894801
0.1903933
0.1911518
0.1916189
0.1926684
0.1936389
0.1945949
0.1956817
0.1976248
0.1836395
0.1848187
0.185866
0.18677
0.1875127
0.1879681
0.1889667
0.1899027
0.1907444
0.1915492
0.1924165
0.1940559
0.1809507
0.1820961
0.1831189
0.1840053
0.1847388
0.185195
0.1861831
0.1871109
0.1879664
0.1887171
0.1893739
0.1901117
0.191614
0.1790233
0.1801509
0.1811622
0.1820441
0.1827814
0.183258
0.1842532
0.1852056
0.1860937
0.1869044
0.1875652
0.1881568
0.1888869
0.1903506
0.2075273
0.2094402
0.2112418
0.2128725
0.2142766
0.2153963
0.2161888
0.2165784
0.2165778
0.2161458
0.2161211
0.2056397
0.207524
0.2093027
0.2109118
0.2122956
0.2134077
0.2142002
0.2146525
0.2147178
0.2145173
0.2143798
0.2167591
0.2038282
0.2056895
0.2074539
0.2090511
0.2104265
0.2115363
0.2123547
0.2128627
0.2130995
0.2131244
0.2132657
0.214307
0.2168687
0.2020491
0.2038836
0.2056289
0.2072109
0.2085744
0.2096823
0.2105131
0.2110764
0.211405
0.2116203
0.2118884
0.2128084
0.2139974
0.2165549
0.2002747
0.2020751
0.2037909
0.2053469
0.2066894
0.2077835
0.2086161
0.2091975
0.2095834
0.2098673
0.2102407
0.2111098
0.2120919
0.2133262
0.21581
0.1984925
0.2002505
0.2019246
0.203442
0.2047512
0.2058195
0.2066346
0.2072115
0.2075978
0.2079006
0.2082762
0.2091494
0.2100263
0.2110129
0.2122357
0.2144447
0.1967035
0.1984116
0.2000329
0.2015001
0.2027649
0.2037959
0.2045793
0.2051242
0.205475
0.2057239
0.2060478
0.2068551
0.2076907
0.2085368
0.2094943
0.2105212
0.2136225
0.1949207
0.1965734
0.198134
0.1995434
0.2007573
0.2017441
0.2024854
0.2029796
0.2032517
0.2033794
0.2035424
0.2042368
0.2049581
0.2057279
0.2065272
0.2073033
0.2091022
0.2121527
0.1931675
0.1947628
0.196261
0.197612
0.1987753
0.1997184
0.2004163
0.2008505
0.2010111
0.2009152
0.2007173
0.2011842
0.2017413
0.2023762
0.2030938
0.2037264
0.2051992
0.206878
0.2098163
0.1914746
0.1930182
0.1944626
0.1957648
0.196887
0.1977961
0.1984617
0.1988491
0.1989004
0.1984829
0.197228
0.1973525
0.1977478
0.1983045
0.19895
0.1995307
0.2008076
0.202127
0.2036326
0.2063387
0.1904246
0.1915784
0.1925569
0.1934187
0.194189
0.1947409
0.1959192
0.1970365
0.1981656
0.1994507
0.2017365
0.1858286
0.1870421
0.1881122
0.1890439
0.1898321
0.1903585
0.1914491
0.1924898
0.1934501
0.1943938
0.195419
0.1973303
0.1823392
0.1835169
0.18457
0.1854886
0.1862604
0.186763
0.1878078
0.1887987
0.1897258
0.1905573
0.191308
0.1921526
0.1938379
0.1796944
0.1808386
0.1818663
0.1827657
0.1835223
0.1840207
0.1850419
0.1860228
0.1869428
0.1877895
0.1884908
0.1891294
0.1899132
0.1914684
0.1777902
0.1789159
0.1799305
0.1808226
0.1815789
0.1820887
0.1831105
0.1840993
0.1850445
0.1859249
0.1866893
0.1873346
0.1879718
0.1887529
0.1902768
0.2075117
0.2055629
0.2074218
0.2091706
0.2107522
0.2121126
0.2132031
0.213967
0.2143583
0.2142624
0.213581
0.2118829
0.2136167
0.203726
0.2055597
0.2072888
0.2088519
0.2101966
0.2112769
0.2120568
0.2124947
0.2125826
0.2123015
0.2119344
0.2126415
0.2149543
0.2019608
0.2037744
0.2054918
0.2070456
0.2083833
0.2094655
0.2102642
0.2107749
0.2110083
0.2110639
0.2111225
0.2118839
0.2129251
0.215398
0.2002252
0.2020147
0.2037157
0.2052565
0.2065847
0.2076646
0.2084799
0.2090346
0.2093767
0.2095945
0.2098888
0.2106963
0.2116173
0.2127969
0.215266
0.1984925
0.2002505
0.2019246
0.203442
0.2047512
0.2058195
0.2066346
0.2072115
0.2075978
0.2079006
0.2082762
0.2091494
0.2100263
0.2110129
0.2122357
0.2144447
0.1967506
0.1984689
0.2001041
0.2015855
0.2028637
0.2039078
0.2047073
0.2052768
0.2056679
0.2059771
0.2063722
0.2072329
0.2081199
0.2090134
0.2100128
0.2110707
0.2141666
0.1950006
0.1966717
0.1982569
0.1996909
0.2009273
0.2019361
0.202705
0.2032442
0.2035969
0.203858
0.2041916
0.2050067
0.2058375
0.2067031
0.2075831
0.2084257
0.2102833
0.2133456
0.1932552
0.1948736
0.196401
0.19778
0.1989679
0.1999345
0.200663
0.2011527
0.2014293
0.2015685
0.2017501
0.2024459
0.2031833
0.2039589
0.2047895
0.2055152
0.2070839
0.208864
0.2118778
0.1915373
0.1931009
0.1945686
0.1958918
0.1970313
0.1979562
0.1986428
0.1990741
0.1992414
0.1991635
0.1989911
0.1994711
0.2000402
0.2007013
0.2014367
0.2021206
0.2035184
0.2049792
0.2066403
0.2095455
0.1898773
0.1913913
0.1928075
0.1940841
0.1951844
0.1960767
0.1967322
0.1971177
0.1971782
0.1967863
0.1955876
0.1957333
0.1961504
0.1967273
0.1974074
0.1980246
0.1993342
0.200602
0.2019099
0.203399
0.2060213
0.1889605
0.1901091
0.1910908
0.1919674
0.1927602
0.1933609
0.1945643
0.1957343
0.1968417
0.1979586
0.1991803
0.201429
0.1844676
0.1856759
0.1867481
0.18769
0.1885018
0.1890678
0.1901953
0.1912782
0.19231
0.1932602
0.1941489
0.1951501
0.197106
0.1810459
0.18222
0.1832755
0.1842041
0.1849954
0.1855361
0.1866085
0.1876463
0.1886293
0.1895475
0.1903291
0.1910612
0.1919518
0.1936898
0.1784441
0.1795852
0.1806151
0.1815233
0.1822973
0.1828272
0.1838727
0.1848874
0.1858613
0.1867734
0.1875737
0.1882594
0.1889436
0.1897785
0.191394
0.1765632
0.1776856
0.1787012
0.1796003
0.1803708
0.1809071
0.1819459
0.1829618
0.183944
0.1848821
0.1857188
0.1864695
0.1871595
0.1878463
0.1886845
0.2022306
0.2043174
0.2069722
0.2036514
0.2054606
0.2071609
0.2086976
0.2100201
0.2110798
0.2118324
0.2122136
0.2121491
0.2114185
0.2095873
0.2097421
0.2116696
0.2018614
0.2036484
0.2053318
0.2068526
0.208161
0.209215
0.209977
0.2104208
0.2105135
0.21028
0.209863
0.2103138
0.211094
0.2133737
0.2001392
0.2019085
0.2035825
0.2050961
0.2063994
0.2074548
0.2082393
0.2087437
0.2089952
0.2090614
0.2091588
0.2098208
0.2106029
0.2116604
0.2140726
0.1984442
0.2001917
0.2018515
0.2033541
0.2046495
0.2057042
0.2065026
0.2070541
0.2073984
0.2076382
0.207939
0.2087552
0.2095764
0.2105106
0.2116902
0.2139005
0.1967506
0.1984689
0.2001041
0.2015855
0.2028637
0.2039078
0.2047073
0.2052768
0.2056679
0.2059771
0.2063722
0.2072329
0.2081199
0.2090134
0.2100128
0.2110707
0.2141666
0.1950465
0.1967276
0.1983263
0.1997741
0.2010234
0.202045
0.2028294
0.2033923
0.2037838
0.2041029
0.2045046
0.2053701
0.2062489
0.207158
0.2080756
0.2089494
0.2108334
0.2138894
0.1933332
0.1949695
0.1965208
0.1979237
0.1991334
0.2001214
0.2008766
0.2014098
0.2017643
0.2020322
0.2023778
0.2031885
0.2040293
0.2048936
0.2057976
0.2065819
0.2082082
0.2100462
0.2130698
0.1916231
0.1932092
0.1947052
0.1960556
0.1972191
0.1981669
0.198883
0.1993681
0.1996479
0.1997975
0.1999914
0.2006909
0.201431
0.2022237
0.203062
0.2038291
0.2053094
0.2068657
0.208627
0.2116043
0.1899387
0.1914722
0.1929111
0.1942081
0.1953253
0.196233
0.1969088
0.1973368
0.1975101
0.1974476
0.1972979
0.1977848
0.1983661
0.1990384
0.1997992
0.2005068
0.2019231
0.2033117
0.2047606
0.2064042
0.2092199
0.1883095
0.1897958
0.1911853
0.1924376
0.1935173
0.1943938
0.1950395
0.195423
0.1954914
0.1951227
0.1939746
0.1941383
0.1945698
0.1951647
0.1958632
0.1965191
0.1978368
0.1991389
0.2003978
0.2016941
0.203118
0.2056963
0.1875129
0.1886543
0.1896365
0.1905203
0.1913314
0.1919626
0.1931914
0.1943875
0.195549
0.1966465
0.1977076
0.1989035
0.2011949
0.1831178
0.1843192
0.1853905
0.1863388
0.1871655
0.1877636
0.1889106
0.1900311
0.1911062
0.1921292
0.1930289
0.1938983
0.1949455
0.1969536
0.1797611
0.1809299
0.1819853
0.1829202
0.1837259
0.1842944
0.1853869
0.1864528
0.1874835
0.1884585
0.18933
0.1900958
0.1908737
0.1918155
0.193614
0.177201
0.1783378
0.1793677
0.1802816
0.1810685
0.1816233
0.1826839
0.1837235
0.1847316
0.1856984
0.1865666
0.1873531
0.1880836
0.1888176
0.1897097
0.1753432
0.1764611
0.1774764
0.1783799
0.179161
0.1797185
0.1807687
0.1818019
0.1828118
0.1837875
0.184684
0.1855082
0.1863026
0.1870409
0.1877823
0.1985778
0.1996024
0.2019696
0.2024831
0.2038477
0.2061684
0.2017888
0.2035521
0.2052077
0.2067032
0.2079902
0.2090245
0.2097607
0.2101501
0.2100986
0.209438
0.2076407
0.2075849
0.2080678
0.2100767
0.2000425
0.2017859
0.2034271
0.204909
0.206184
0.2072123
0.2079616
0.2084021
0.208519
0.2083104
0.2079575
0.2083334
0.2088742
0.209732
0.2120017
0.1983604
0.2000883
0.201722
0.2031984
0.2044697
0.2055008
0.2062696
0.2067727
0.2070301
0.2071253
0.2072394
0.2079202
0.2086148
0.2094339
0.2105187
0.2127067
0.1967035
0.1984116
0.2000329
0.2015001
0.2027649
0.2037959
0.2045793
0.2051242
0.205475
0.2057239
0.2060478
0.2068551
0.2076907
0.2085368
0.2094943
0.2105212
0.2136225
0.1950465
0.1967276
0.1983263
0.1997741
0.2010234
0.202045
0.2028294
0.2033923
0.2037838
0.2041029
0.2045046
0.2053701
0.2062489
0.207158
0.2080756
0.2089494
0.2108334
0.2138894
0.1933782
0.1950241
0.1965885
0.1980048
0.1992271
0.2002274
0.2009976
0.2015537
0.2019458
0.2022695
0.2026805
0.2035392
0.2044251
0.2053296
0.2062678
0.2070798
0.2087329
0.2105969
0.2136131
0.1916994
0.1933029
0.1948223
0.1961959
0.1973805
0.198349
0.1990911
0.1996183
0.1999736
0.2002475
0.2005995
0.2014089
0.202247
0.2031229
0.2040284
0.204848
0.2063782
0.2079916
0.2098101
0.212795
0.1900227
0.1915781
0.1930447
0.1943681
0.1955085
0.1964384
0.197143
0.1976233
0.1979056
0.1980637
0.1982684
0.1989663
0.1997106
0.2005067
0.2013626
0.2021446
0.2036339
0.2051048
0.2066486
0.2083912
0.211275
0.1883696
0.189875
0.1912866
0.1925588
0.1936549
0.1945464
0.1952118
0.1956367
0.1958147
0.1957661
0.1956359
0.1961283
0.1967154
0.1973985
0.1981695
0.1989066
0.2003181
0.2017269
0.2031065
0.2045435
0.2061203
0.2088865
0.18677
0.1882297
0.1895941
0.1908235
0.1918837
0.1927452
0.1933816
0.1937629
0.1938385
0.1934906
0.1923887
0.1925673
0.1930103
0.1936159
0.1943303
0.1950077
0.1963387
0.1976501
0.1989448
0.2001948
0.2014346
0.2028304
0.2054488
0.1860823
0.1872152
0.1881954
0.1890835
0.189905
0.1905614
0.1917994
0.1930216
0.1942103
0.1953634
0.19641
0.1974508
0.1986929
0.2010357
0.1817801
0.1829734
0.1840418
0.1849932
0.1858304
0.1864511
0.1876118
0.1887524
0.1898659
0.1909331
0.191909
0.1927924
0.1937079
0.1948066
0.1968756
0.1784856
0.1796482
0.1807014
0.1816399
0.1824559
0.1830462
0.1841499
0.1852365
0.1862959
0.1873194
0.1882503
0.1891078
0.1899186
0.1907465
0.1917459
0.1759658
0.1770973
0.1781259
0.1790431
0.1798395
0.1804141
0.1814844
0.1825394
0.183573
0.1845746
0.1854996
0.1863553
0.1871856
0.1879644
0.1887533
0.1741306
0.1752435
0.1762571
0.1771633
0.1779522
0.1785268
0.1795841
0.180629
0.1816566
0.1826605
0.1835964
0.1844816
0.1853484
0.1861896
0.1869804
0.1962091
0.1963138
0.1983738
0.1980481
0.1993684
0.2014836
0.2009137
0.202045
0.2031429
0.2052335
0.1999718
0.2016923
0.2033066
0.204764
0.2060185
0.207028
0.2077524
0.2081409
0.2081196
0.2075038
0.2058375
0.2057478
0.2060224
0.2066879
0.2087323
0.1982661
0.199969
0.2015708
0.2030166
0.2042607
0.2052656
0.2060007
0.2064422
0.2065706
0.2064027
0.2060883
0.2065011
0.2069757
0.2076106
0.2085436
0.21064
0.1966218
0.1983109
0.1999068
0.2013486
0.2025902
0.2035984
0.2043532
0.2048516
0.2051188
0.205229
0.2053748
0.2060549
0.2067732
0.2075152
0.2083823
0.2093415
0.212429
0.1950006
0.1966717
0.1982569
0.1996909
0.2009273
0.2019361
0.202705
0.2032442
0.2035969
0.203858
0.2041916
0.2050067
0.2058375
0.2067031
0.2075831
0.2084257
0.2102833
0.2133456
0.1933782
0.1950241
0.1965885
0.1980048
0.1992271
0.2002274
0.2009976
0.2015537
0.2019458
0.2022695
0.2026805
0.2035392
0.2044251
0.2053296
0.2062678
0.2070798
0.2087329
0.2105969
0.2136131
0.1917434
0.1933562
0.1948884
0.1962751
0.1974718
0.1984522
0.1992089
0.1997584
0.2001499
0.2004778
0.2008928
0.2017479
0.2026288
0.2035424
0.2044791
0.2053234
0.206877
0.2085171
0.2103612
0.2133377
0.1900973
0.1916698
0.1931591
0.1945051
0.1956661
0.1966161
0.1973458
0.197867
0.1982225
0.198501
0.1988584
0.1996617
0.2004995
0.201374
0.2022923
0.2031213
0.2046547
0.2061753
0.2077759
0.2095749
0.2124637
0.1884519
0.1899786
0.1914172
0.1927153
0.193834
0.194747
0.1954404
0.195916
0.1962001
0.1963655
0.1965788
0.1972744
0.1980175
0.1988179
0.1996773
0.2004821
0.2019581
0.2034397
0.2049012
0.2064326
0.2081073
0.2109378
0.1868289
0.1883072
0.1896933
0.1909421
0.1920183
0.1928943
0.1935499
0.1939715
0.1941538
0.1941172
0.1940045
0.1945002
0.1950914
0.195779
0.1965595
0.1973101
0.1987255
0.2001306
0.201532
0.2029026
0.2042825
0.2058297
0.2086327
0.1852567
0.1866917
0.1880321
0.18924
0.1902817
0.191129
0.1917566
0.1921356
0.1922175
0.1918887
0.190829
0.1910203
0.191472
0.1920856
0.1928085
0.1935043
0.194834
0.1961595
0.1974646
0.1987519
0.1999507
0.2011691
0.2026117
0.2052806
0.1846689
0.1857925
0.1867692
0.1876587
0.1884871
0.1891599
0.1904037
0.1916358
0.1928514
0.1940328
0.1951384
0.1961681
0.1972556
0.19855
0.2009542
0.1804548
0.1816394
0.1827034
0.1836556
0.1844996
0.1851379
0.1863042
0.187459
0.1885932
0.1896997
0.1907224
0.191684
0.1926127
0.1935787
0.1947357
0.1772199
0.1783754
0.1794255
0.1803653
0.1811885
0.181796
0.1829062
0.1840044
0.1850849
0.1861378
0.1871193
0.1880376
0.188939
0.1897985
0.1906816
0.174739
0.1758645
0.1768906
0.1778096
0.1786127
0.1792031
0.1802792
0.1813443
0.1823937
0.1834213
0.184383
0.1852965
0.186195
0.1870721
0.1879037
0.1729259
0.1740332
0.1750443
0.1759517
0.1767465
0.1773349
0.178396
0.1794485
0.1804882
0.1815102
0.1824759
0.1834013
0.184328
0.1852402
0.186132
0.1950367
0.1941715
0.1960202
0.1949515
0.1961272
0.1979727
0.1967112
0.19783
0.1989312
0.2008102
0.1994229
0.2005001
0.2013885
0.2023169
0.2042316
0.1981973
0.1998779
0.2014536
0.2028757
0.2041
0.2050869
0.205798
0.2061895
0.2061851
0.2056265
0.2040575
0.204034
0.2042721
0.2047381
0.2055131
0.2074054
0.1965298
0.1981946
0.1997596
0.2011717
0.2023871
0.20337
0.2040923
0.2045313
0.2046743
0.2045318
0.2042674
0.204695
0.2052089
0.2057852
0.2065118
0.2073579
0.2103636
0.1949207
0.1965734
0.198134
0.1995434
0.2007573
0.2017441
0.2024854
0.2029796
0.2032517
0.2033794
0.2035424
0.2042368
0.2049581
0.2057279
0.2065272
0.2073033
0.2091022
0.2121527
0.1933332
0.1949695
0.1965208
0.1979237
0.1991334
0.2001214
0.2008766
0.2014098
0.2017643
0.2020322
0.2023778
0.2031885
0.2040293
0.2048936
0.2057976
0.2065819
0.2082082
0.2100462
0.2130698
0.1917434
0.1933562
0.1948884
0.1962751
0.1974718
0.1984522
0.1992089
0.1997584
0.2001499
0.2004778
0.2008928
0.2017479
0.2026288
0.2035424
0.2044791
0.2053234
0.206877
0.2085171
0.2103612
0.2133377
0.1901403
0.1917219
0.1932237
0.1945824
0.1957552
0.1967168
0.1974606
0.1980034
0.1983941
0.1987248
0.1991429
0.1999901
0.2008686
0.2017786
0.2027259
0.2035772
0.2051311
0.206675
0.2083021
0.2101263
0.2130055
0.188525
0.1900683
0.1915291
0.1928492
0.1939879
0.1949204