/*--------------------------------*- C++ -*----------------------------------*\
| =========                 |                                                 |
| \\      /  F ield         | OpenFOAM: The Open Source CFD Toolbox           |
|  \\    /   O peration     | Version:  2306                                  |
|   \\  /    A nd           | Website:  www.openfoam.com                      |
|    \\/     M anipulation  |                                                 |
\*---------------------------------------------------------------------------*/
FoamFile
{
    version     2.0;
    format      ascii;
    arch        "LSB;label=32;scalar=64";
    class       volScalarField;
    location    "0.3/air";
    object      T;
}
// * * * * * * * * * * * * * * * * * * * * * * * * * * * * * * * * * * * * * //

dimensions      [0 0 0 1 0 0 0];

internalField   nonuniform List<scalar> 
16000
(
1145.908
1135.208
1158.307
1135.012
1129.245
1155.894
1108.949
1161.398
1155.845
1128.877
1125.843
1153.808
1092.671
1160.514
1148.723
1092.398
1163.862
1160.551
1153.707
1125.272
1124.262
1152.274
1082.909
1159.725
1142.487
1067.993
1163.47
1157.96
1142.381
1082.182
1166.043
1163.539
1159.789
1152.103
1123.418
1124.262
1151.462
1078.28
1159.123
1137.868
1052.718
1163.132
1155.606
1132.304
1052.11
1165.828
1162.439
1155.627
1137.572
1076.841
1168.036
1165.903
1163.257
1159.21
1151.198
1123.045
1157.903
1125.843
1151.462
1078.28
1158.797
1135.414
1045.306
1162.879
1153.793
1124.753
1032.734
1165.652
1161.459
1151.786
1124.484
1043.616
1167.889
1165.335
1161.527
1153.822
1134.836
1075.82
1169.884
1167.962
1165.789
1163.061
1158.911
1151.096
1124.129
1157.84
1160.35
1159.281
1129.245
1152.274
1082.909
1158.797
1135.414
1045.306
1162.742
1152.803
1120.715
1023.175
1165.525
1160.711
1148.792
1114.583
1021.867
1167.775
1164.847
1159.955
1148.787
1119.994
1041.981
1169.766
1167.595
1164.927
1160.864
1152.843
1134.497
1079.074
1171.611
1169.833
1167.908
1165.728
1162.994
1158.957
1151.829
1126.867
1157.699
1160.343
1159.185
1162.748
1161.617
1160.669
1135.208
1153.808
1092.671
1159.123
1137.868
1052.718
1162.742
1152.803
1120.715
1023.175
1165.458
1160.305
1147.148
1109.256
1011.037
1167.696
1164.487
1158.739
1144.826
1108.698
1019.752
1169.677
1167.292
1164.171
1158.836
1147.127
1119.409
1047.18
1171.507
1169.546
1167.37
1164.671
1160.576
1152.895
1136.646
1087.03
1173.233
1171.569
1169.8
1167.893
1165.74
1163.088
1159.374
1153.366
1131.859
1157.423
1160.329
1158.958
1162.752
1161.608
1160.547
1164.942
1163.864
1162.884
1162.072
1145.908
1155.894
1108.949
1159.725
1142.487
1067.993
1162.879
1153.793
1124.753
1032.734
1165.458
1160.305
1147.148
1109.256
1011.037
1167.655
1164.294
1158.072
1142.639
1102.599
1008.658
1169.617
1167.076
1163.603
1157.25
1142.603
1107.907
1026.402
1171.43
1169.315
1166.917
1163.728
1158.321
1147.158
1122.873
1059.646
1173.137
1171.318
1169.389
1167.258
1164.625
1160.76
1154.043
1141.141
1100.874
1174.76
1173.194
1171.542
1169.799
1167.929
1165.842
1163.36
1160.156
1155.655
1140.829
1156.634
1160.32
1158.465
1162.766
1161.593
1160.254
1164.95
1163.876
1162.874
1161.933
1166.965
1165.921
1164.979
1164.152
1163.494
1158.307
1135.012
1160.514
1148.723
1092.398
1163.132
1155.606
1132.304
1052.11
1165.525
1160.711
1148.792
1114.583
1021.867
1167.655
1164.294
1158.072
1142.639
1102.599
1008.658
1169.586
1166.963
1163.296
1156.374
1140.095
1101.69
1016.08
1171.378
1169.155
1166.588
1163.01
1156.539
1142.601
1112.396
1042.148
1173.066
1171.12
1169.052
1166.714
1163.616
1158.564
1148.973
1130.083
1080.526
1174.67
1172.963
1171.187
1169.325
1167.291
1164.838
1161.457
1156.22
1147.646
1123.428
1176.201
1174.722
1173.169
1171.545
1169.839
1168.027
1166.049
1163.827
1161.32
1158.775
1150.958
1160.386
1157.173
1162.81
1161.588
1159.629
1164.971
1163.911
1162.856
1161.598
1166.973
1165.938
1164.996
1164.14
1163.345
1168.846
1167.826
1166.897
1166.09
1165.422
1164.256
1161.398
1155.845
1128.877
1163.47
1157.96
1142.381
1082.182
1165.652
1161.459
1151.786
1124.484
1043.616
1167.696
1164.487
1158.739
1144.826
1108.698
1019.752
1169.586
1166.963
1163.296
1156.374
1140.095
1101.69
1016.08
1171.351
1169.072
1166.415
1162.619
1155.549
1140.069
1106.74
1033.548
1173.019
1170.983
1168.814
1166.314
1162.838
1156.815
1144.932
1121.7
1067.858
1174.604
1172.782
1170.9
1168.932
1166.737
1163.911
1159.623
1152.402
1140.314
1112.377
1176.117
1174.506
1172.843
1171.14
1169.38
1167.499
1165.34
1162.668
1159.281
1155.699
1144.326
1177.564
1176.165
1174.699
1173.172
1171.584
1169.931
1168.2
1166.384
1164.546
1163.1
1161.422
1152.803
1163.025
1161.667
1158.194
1165.027
1164.008
1162.843
1160.916
1166.995
1165.985
1165.044
1164.118
1162.993
1168.854
1167.844
1166.922
1166.111
1165.409
1164.106
1170.608
1169.61
1168.685
1167.868
1167.198
1166.094
1164.338
1163.862
1160.551
1153.707
1125.272
1165.828
1162.439
1155.627
1137.572
1076.841
1167.775
1164.847
1159.955
1148.787
1119.994
1041.981
1169.617
1167.076
1163.603
1157.25
1142.603
1107.907
1026.402
1171.351
1169.072
1166.415
1162.619
1155.549
1140.069
1106.74
1033.548
1172.995
1170.913
1168.691
1166.102
1162.412
1155.839
1142.684
1117.186
1061.716
1174.559
1172.657
1170.7
1168.652
1166.324
1163.184
1158.141
1149.329
1134.737
1105.537
1176.054
1174.336
1172.581
1170.809
1168.994
1167.029
1164.65
1161.451
1157.071
1152.487
1139.083
1177.484
1175.96
1174.393
1172.801
1171.196
1169.574
1167.909
1166.161
1164.393
1163.132
1160.709
1147.571
1178.855
1177.529
1176.142
1174.7
1173.208
1171.668
1170.083
1168.472
1166.916
1165.8
1165.101
1162.162
1154.769
1165.267
1164.346
1162.882
1159.524
1167.051
1166.105
1165.167
1164.089
1162.309
1168.876
1167.892
1166.986
1166.166
1165.381
1163.756
1170.616
1169.628
1168.711
1167.898
1167.221
1166.08
1164.188
1172.266
1171.292
1170.371
1169.539
1168.835
1167.781
1166.166
1164.42
1166.043
1163.539
1159.789
1152.103
1123.418
1167.889
1165.335
1161.527
1153.822
1134.836
1075.82
1169.677
1167.292
1164.171
1158.836
1147.127
1119.409
1047.18
1171.378
1169.155
1166.588
1163.01
1156.539
1142.601
1112.396
1042.148
1172.995
1170.913
1168.691
1166.102
1162.412
1155.839
1142.684
1117.186
1061.716
1174.537
1172.594
1170.597
1168.506
1166.103
1162.783
1157.307
1147.612
1131.731
1102.224
1176.012
1174.219
1172.4
1170.577
1168.716
1166.67
1164.087
1160.421
1155.212
1149.932
1135.559
1177.424
1175.799
1174.147
1172.501
1170.877
1169.267
1167.62
1165.839
1163.937
1162.541
1159.563
1143.21
1178.779
1177.334
1175.852
1174.352
1172.854
1171.375
1169.931
1168.555
1167.351
1166.713
1165.708
1161.649
1150.652
1180.078
1178.821
1177.506
1176.142
1174.734
1173.285
1171.806
1170.32
1168.912
1167.921
1167.47
1165.678
1163.071
1156.831
1167.284
1166.491
1165.505
1164.075
1161.052
1168.929
1168.013
1167.14
1166.291
1165.333
1163.091
1170.636
1169.674
1168.778
1167.973
1167.277
1166.049
1163.838
1172.274
1171.309
1170.397
1169.57
1168.868
1167.804
1166.152
1164.27
1173.83
1172.882
1171.972
1171.128
1170.387
1169.342
1167.843
1166.238
1164.503
1168.036
1165.903
1163.257
1159.21
1151.198
1123.045
1169.766
1167.595
1164.927
1160.864
1152.843
1134.497
1079.074
1171.43
1169.315
1166.917
1163.728
1158.321
1147.158
1122.873
1059.646
1173.019
1170.983
1168.814
1166.314
1162.838
1156.815
1144.932
1121.7
1067.858
1174.537
1172.594
1170.597
1168.506
1166.103
1162.783
1157.307
1147.612
1131.731
1102.224
1175.991
1174.16
1172.308
1170.458
1168.57
1166.476
1163.77
1159.83
1154.155
1148.532
1133.795
1177.384
1175.688
1173.977
1172.292
1170.652
1169.041
1167.383
1165.528
1163.444
1161.883
1158.545
1140.205
1178.722
1177.181
1175.619
1174.07
1172.566
1171.129
1169.778
1168.534
1167.47
1166.957
1165.776
1160.768
1147.09
1180.005
1178.635
1177.23
1175.812
1174.401
1173.019
1171.697
1170.486
1169.503
1169.042
1168.412
1166.238
1162.663
1153.624
1181.237
1180.045
1178.799
1177.506
1176.173
1174.805
1173.412
1172.02
1170.706
1169.776
1169.373
1167.957
1166.38
1164.082
1158.963
1169.145
1168.389
1167.539
1166.577
1165.265
1161.926
1170.686
1169.789
1168.933
1168.135
1167.388
1165.993
1163.176
1172.292
1171.352
1170.462
1169.648
1168.946
1167.858
1166.121
1163.921
1173.837
1172.898
1171.996
1171.159
1170.423
1169.376
1167.867
1166.224
1164.353
1175.309
1174.39
1173.495
1172.648
1171.88
1170.833
1169.397
1167.906
1166.31
1164.585
1169.884
1167.962
1165.789
1163.061
1158.911
1151.096
1124.129
1171.507
1169.546
1167.37
1164.671
1160.576
1152.895
1136.646
1087.03
1173.066
1171.12
1169.052
1166.714
1163.616
1158.564
1148.973
1130.083
1080.526
1174.559
1172.657
1170.7
1168.652
1166.324
1163.184
1158.141
1149.329
1134.737
1105.537
1175.991
1174.16
1172.308
1170.458
1168.57
1166.476
1163.77
1159.83
1154.155
1148.532
1133.795
1177.364
1175.633
1173.891
1172.185
1170.535
1168.92
1167.248
1165.339
1163.137
1161.478
1157.964
1138.686
1178.684
1177.076
1175.458
1173.875
1172.363
1170.952
1169.653
1168.469
1167.442
1166.956
1165.666
1159.962
1144.581
1179.951
1178.489
1177.008
1175.544
1174.13
1172.798
1171.59
1170.556
1169.795
1169.53
1168.841
1166.363
1161.979
1150.776
1181.168
1179.868
1178.535
1177.191
1175.856
1174.553
1173.315
1172.197
1171.307
1170.892
1170.357
1168.786
1166.841
1163.733
1156.52
1182.337
1181.206
1180.024
1178.798
1177.535
1176.24
1174.923
1173.609
1172.369
1171.476
1171.066
1169.797
1168.544
1167.148
1165.156
1160.114
1170.885
1170.14
1169.328
1168.49
1167.603
1165.899
1162.021
1172.339
1171.46
1170.61
1169.815
1169.099
1167.959
1166.064
1163.261
1173.855
1172.94
1172.058
1171.235
1170.505
1169.453
1167.921
1166.193
1164.004
1175.316
1174.406
1173.519
1172.678
1171.914
1170.869
1169.43
1167.929
1166.297
1164.436
1176.71
1175.823
1174.948
1174.105
1173.32
1172.274
1170.881
1169.451
1167.968
1166.382
1164.663
1171.611
1169.833
1167.908
1165.728
1162.994
1158.957
1151.829
1126.867
1173.137
1171.318
1169.389
1167.258
1164.625
1160.76
1154.043
1141.141
1100.874
1174.604
1172.782
1170.9
1168.932
1166.737
1163.911
1159.623
1152.402
1140.314
1112.377
1176.012
1174.219
1172.4
1170.577
1168.716
1166.67
1164.087
1160.421
1155.212
1149.932
1135.559
1177.364
1175.633
1173.891
1172.185
1170.535
1168.92
1167.248
1165.339
1163.137
1161.478
1157.964
1138.686
1178.665
1177.023
1175.376
1173.775
1172.259
1170.859
1169.581
1168.419
1167.396
1166.911
1165.567
1159.496
1143.298
1179.915
1178.389
1176.855
1175.359
1173.94
1172.64
1171.501
1170.568
1169.916
1169.737
1169.024
1166.316
1161.346
1148.731
1181.117
1179.729
1178.324
1176.936
1175.598
1174.345
1173.221
1172.286
1171.633
1171.428
1170.873
1169.205
1166.981
1163.198
1154.313
1182.271
1181.038
1179.773
1178.498
1177.232
1175.999
1174.829
1173.774
1172.937
1172.525
1172.005
1170.657
1169.226
1167.497
1164.843
1158.023
1183.379
1182.307
1181.186
1180.023
1178.825
1177.597
1176.35
1175.106
1173.93
1173.069
1172.64
1171.443
1170.308
1169.184
1167.953
1165.743
1160.237
1172.522
1171.785
1170.982
1170.171
1169.385
1168.134
1165.967
1162.116
1173.899
1173.04
1172.198
1171.396
1170.665
1169.597
1168.02
1166.135
1163.348
1175.333
1174.445
1173.577
1172.751
1171.995
1170.951
1169.507
1167.983
1166.265
1164.088
1176.717
1175.838
1174.97
1174.134
1173.353
1172.309
1170.917
1169.485
1167.992
1166.369
1164.514
1178.039
1177.185
1176.334
1175.502
1174.71
1173.671
1172.316
1170.928
1169.506
1168.031
1166.45
1164.723
1173.233
1171.569
1169.8
1167.893
1165.74
1163.088
1159.374
1153.366
1131.859
1174.67
1172.963
1171.187
1169.325
1167.291
1164.838
1161.457
1156.22
1147.646
1123.428
1176.054
1174.336
1172.581
1170.809
1168.994
1167.029
1164.65
1161.451
1157.071
1152.487
1139.083
1177.384
1175.688
1173.977
1172.292
1170.652
1169.041
1167.383
1165.528
1163.444
1161.883
1158.545
1140.205
1178.665
1177.023
1175.376
1173.775
1172.259
1170.859
1169.581
1168.419
1167.396
1166.911
1165.567
1159.496
1143.298
1179.896
1178.338
1176.777
1175.264
1173.843
1172.558
1171.452
1170.563
1169.955
1169.81
1169.087
1166.256
1160.977
1147.676
1181.082
1179.633
1178.178
1176.759
1175.418
1174.197
1173.144
1172.318
1171.791
1171.689
1171.138
1169.399
1166.974
1162.705
1152.701
1182.222
1180.904
1179.571
1178.254
1176.985
1175.799
1174.738
1173.86
1173.253
1173.045
1172.52
1171.144
1169.606
1167.626
1164.423
1156.122
1183.317
1182.147
1180.946
1179.736
1178.536
1177.366
1176.256
1175.256
1174.455
1174.04
1173.512
1172.263
1171.017
1169.715
1168.19
1165.441
1158.184
1184.367
1183.351
1182.288
1181.185
1180.048
1178.884
1177.701
1176.521
1175.405
1174.575
1174.13
1172.98
1171.897
1170.862
1169.849
1168.388
1165.806
1160.361
1174.068
1173.341
1172.544
1171.735
1170.961
1169.843
1168.191
1166.036
1162.213
1175.374
1174.54
1173.709
1172.903
1172.152
1171.103
1169.65
1168.081
1166.206
1163.434
1176.733
1175.875
1175.026
1174.203
1173.431
1172.39
1170.998
1169.562
1168.045
1166.337
1164.167
1178.046
1177.199
1176.355
1175.53
1174.742
1173.706
1172.352
1170.964
1169.539
1168.055
1166.437
1164.574
1179.301
1178.48
1177.657
1176.841
1176.051
1175.027
1173.709
1172.358
1170.976
1169.56
1168.09
1166.502
1164.771
1174.76
1173.194
1171.542
1169.799
1167.929
1165.842
1163.36
1160.156
1155.655
1140.829
1176.117
1174.506
1172.843
1171.14
1169.38
1167.499
1165.34
1162.668
1159.281
1155.699
1144.326
1177.424
1175.799
1174.147
1172.501
1170.877
1169.267
1167.62
1165.839
1163.937
1162.541
1159.563
1143.21
1178.684
1177.076
1175.458
1173.875
1172.363
1170.952
1169.653
1168.469
1167.442
1166.956
1165.666
1159.962
1144.581
1179.896
1178.338
1176.777
1175.264
1173.843
1172.558
1171.452
1170.563
1169.955
1169.81
1169.087
1166.256
1160.977
1147.676
1181.064
1179.585
1178.104
1176.669
1175.326
1174.12
1173.102
1172.325
1171.854
1171.796
1171.251
1169.472
1166.941
1162.418
1151.859
1182.189
1180.813
1179.432
1178.085
1176.813
1175.658
1174.666
1173.894
1173.413
1173.309
1172.798
1171.404
1169.795
1167.64
1164.046
1154.722
1183.27
1182.02
1180.754
1179.504
1178.3
1177.174
1176.167
1175.333
1174.75
1174.527
1174
1172.745
1171.451
1170.038
1168.292
1165.071
1156.315
1184.308
1183.198
1182.06
1180.911
1179.772
1178.662
1177.609
1176.657
1175.89
1175.472
1174.937
1173.743
1172.575
1171.421
1170.237
1168.568
1165.506
1158.344
1185.303
1184.341
1183.333
1182.287
1181.209
1180.104
1178.982
1177.862
1176.801
1176.003
1175.55
1174.439
1173.388
1172.388
1171.437
1170.207
1168.435
1165.87
1160.486
1175.532
1174.819
1174.031
1173.222
1172.438
1171.362
1169.892
1168.248
1166.104
1162.311
1176.772
1175.964
1175.151
1174.347
1173.581
1172.54
1171.149
1169.703
1168.142
1166.277
1163.517
1178.061
1177.235
1176.409
1175.596
1174.817
1173.784
1172.432
1171.046
1169.616
1168.108
1166.405
1164.228
1179.307
1178.494
1177.677
1176.868
1176.082
1175.06
1173.743
1172.394
1171.012
1169.594
1168.113
1166.488
1164.622
1180.499
1179.714
1178.919
1178.125
1177.344
1176.339
1175.061
1173.747
1172.401
1171.024
1169.611
1168.133
1166.541
1164.805
1176.201
1174.722
1173.169
1171.545
1169.839
1168.027
1166.049
1163.827
1161.32
1158.775
1150.958
1177.484
1175.96
1174.393
1172.801
1171.196
1169.574
1167.909
1166.161
1164.393
1163.132
1160.709
1147.571
1178.722
1177.181
1175.619
1174.07
1172.566
1171.129
1169.778
1168.534
1167.47
1166.957
1165.776
1160.768
1147.09
1179.915
1178.389
1176.855
1175.359
1173.94
1172.64
1171.501
1170.568
1169.916
1169.737
1169.024
1166.316
1161.346
1148.731
1181.064
1179.585
1178.104
1176.669
1175.326
1174.12
1173.102
1172.325
1171.854
1171.796
1171.251
1169.472
1166.941
1162.418
1151.859
1182.172
1180.767
1179.361
1177.999
1176.725
1175.584
1174.626
1173.903
1173.479
1173.421
1172.921
1171.517
1169.871
1167.625
1163.828
1153.988
1183.238
1181.933
1180.621
1179.342
1178.135
1177.038
1176.097
1175.363
1174.901
1174.778
1174.269
1173.014
1171.694
1170.211
1168.315
1164.747
1154.938
1184.263
1183.077
1181.876
1180.69
1179.547
1178.478
1177.521
1176.726
1176.163
1175.926
1175.393
1174.199
1173.005
1171.79
1170.496
1168.652
1165.14
1156.507
1185.246
1184.195
1183.116
1182.027
1180.946
1179.892
1178.892
1177.987
1177.253
1176.837
1176.299
1175.147
1174.022
1172.927
1171.855
1170.524
1168.609
1165.57
1158.504
1186.189
1185.279
1184.324
1183.333
1182.31
1181.262
1180.198
1179.135
1178.127
1177.361
1176.908
1175.835
1174.811
1173.83
1172.896
1171.745
1170.245
1168.482
1165.933
1160.611
1176.92
1176.226
1175.451
1174.646
1173.853
1172.794
1171.405
1169.941
1168.304
1166.173
1162.403
1178.098
1177.32
1176.527
1175.733
1174.96
1173.928
1172.581
1171.196
1169.756
1168.203
1166.344
1163.581
1179.322
1178.529
1177.729
1176.932
1176.154
1175.135
1173.822
1172.475
1171.094
1169.67
1168.166
1166.456
1164.277
1180.504
1179.727
1178.939
1178.151
1177.374
1176.371
1175.094
1173.781
1172.436
1171.06
1169.645
1168.157
1166.528
1164.656
1181.637
1180.888
1180.124
1179.355
1178.589
1177.608
1176.37
1175.094
1173.784
1172.443
1171.069
1169.648
1168.166
1166.569
1164.826
1156.634
1177.564
1176.165
1174.699
1173.172
1171.584
1169.931
1168.2
1166.384
1164.546
1163.1
1161.422
1152.803
1178.779
1177.334
1175.852
1174.352
1172.854
1171.375
1169.931
1168.555
1167.351
1166.713
1165.708
1161.649
1150.652
1179.951
1178.489
1177.008
1175.544
1174.13
1172.798
1171.59
1170.556
1169.795
1169.53
1168.841
1166.363
1161.979
1150.776
1181.082
1179.633
1178.178
1176.759
1175.418
1174.197
1173.144
1172.318
1171.791
1171.689
1171.138
1169.399
1166.974
1162.705
1152.701
1182.172
1180.767
1179.361
1177.999
1176.725
1175.584
1174.626
1173.903
1173.479
1173.421
1172.921
1171.517
1169.871
1167.625
1163.828
1153.988
1183.222
1181.889
1180.553
1179.26
1178.051
1176.968
1176.058
1175.372
1174.964
1174.886
1174.389
1173.134
1171.802
1170.284
1168.312
1164.56
1154.215
1184.233
1182.994
1181.749
1180.536
1179.39
1178.348
1177.453
1176.752
1176.303
1176.16
1175.646
1174.458
1173.253
1172.006
1170.644
1168.675
1164.822
1155.152
1185.204
1184.08
1182.941
1181.815
1180.731
1179.716
1178.807
1178.049
1177.506
1177.26
1176.725
1175.574
1174.43
1173.294
1172.153
1170.747
1168.691
1165.21
1156.698
1186.135
1185.14
1184.117
1183.085
1182.06
1181.06
1180.111
1179.251
1178.55
1178.142
1177.607
1176.493
1175.401
1174.338
1173.307
1172.095
1170.555
1168.65
1165.635
1158.663
1187.026
1186.166
1185.263
1184.324
1183.355
1182.361
1181.352
1180.343
1179.385
1178.654
1178.206
1177.171
1176.176
1175.212
1174.286
1173.169
1171.778
1170.284
1168.529
1165.998
1160.728
1178.238
1177.566
1176.81
1176.015
1175.219
1174.173
1172.833
1171.448
1169.99
1168.361
1166.237
1162.476
1179.357
1178.61
1177.841
1177.062
1176.292
1175.274
1173.966
1172.623
1171.243
1169.809
1168.26
1166.394
1163.632
1180.519
1179.76
1178.989
1178.212
1177.444
1176.444
1175.169
1173.86
1172.517
1171.141
1169.721
1168.209
1166.495
1164.312
1181.642
1180.901
1180.144
1179.38
1178.618
1177.639
1176.402
1175.128
1173.819
1172.478
1171.105
1169.682
1168.189
1166.555
1164.678
1182.717
1182.005
1181.275
1180.532
1179.786
1178.832
1177.636
1176.401
1175.128
1173.822
1172.482
1171.1
1169.675
1168.187
1166.584
1157.423
1160.386
1157.173
1178.855
1177.529
1176.142
1174.7
1173.208
1171.668
1170.083
1168.472
1166.916
1165.8
1165.101
1162.162
1154.769
1180.005
1178.635
1177.23
1175.812
1174.401
1173.019
1171.697
1170.486
1169.503
1169.042
1168.412
1166.238
1162.663
1153.624
1181.117
1179.729
1178.324
1176.936
1175.598
1174.345
1173.221
1172.286
1171.633
1171.428
1170.873
1169.205
1166.981
1163.198
1154.313
1182.189
1180.813
1179.432
1178.085
1176.813
1175.658
1174.666
1173.894
1173.413
1173.309
1172.798
1171.404
1169.795
1167.64
1164.046
1154.722
1183.222
1181.889
1180.553
1179.26
1178.051
1176.968
1176.058
1175.372
1174.964
1174.886
1174.389
1173.134
1171.802
1170.284
1168.312
1164.56
1154.215
1184.218
1182.953
1181.685
1180.457
1179.309
1178.28
1177.415
1176.759
1176.361
1176.262
1175.761
1174.575
1173.367
1172.104
1170.71
1168.676
1164.639
1154.44
1185.175
1184.001
1182.82
1181.668
1180.581
1179.592
1178.741
1178.072
1177.636
1177.48
1176.964
1175.818
1174.669
1173.515
1172.337
1170.88
1168.714
1164.897
1155.365
1186.094
1185.03
1183.951
1182.884
1181.855
1180.893
1180.03
1179.309
1178.787
1178.539
1178.007
1176.893
1175.785
1174.688
1173.606
1172.355
1170.774
1168.73
1165.28
1156.888
1186.974
1186.034
1185.066
1184.088
1183.117
1182.17
1181.27
1180.454
1179.785
1179.389
1178.863
1177.787
1176.727
1175.689
1174.678
1173.517
1172.121
1170.587
1168.691
1165.7
1158.812
1187.815
1187.004
1186.151
1185.263
1184.346
1183.404
1182.447
1181.491
1180.582
1179.885
1179.448
1178.452
1177.487
1176.544
1175.627
1174.531
1173.198
1171.811
1170.322
1168.576
1166.058
1160.823
1179.49
1178.844
1178.109
1177.329
1176.538
1175.508
1174.207
1172.87
1171.491
1170.038
1168.414
1166.285
1162.536
1180.553
1179.838
1179.097
1178.338
1177.576
1176.577
1175.307
1174.003
1172.664
1171.289
1169.858
1168.302
1166.432
1163.67
1181.656
1180.933
1180.192
1179.439
1178.686
1177.709
1176.475
1175.203
1173.897
1172.559
1171.186
1169.758
1168.241
1166.522
1164.334
1182.723
1182.018
1181.294
1180.556
1179.815
1178.862
1177.667
1176.433
1175.162
1173.857
1172.518
1171.136
1169.708
1168.21
1166.57
1183.744
1183.068
1182.371
1181.658
1180.936
1180.012
1178.858
1177.664
1176.432
1175.162
1173.858
1172.51
1171.122
1169.69
1168.196
1157.699
1160.32
1158.465
1163.025
1161.667
1158.194
1180.078
1178.821
1177.506
1176.142
1174.734
1173.285
1171.806
1170.32
1168.912
1167.921
1167.47
1165.678
1163.071
1156.831
1181.168
1179.868
1178.535
1177.191
1175.856
1174.553
1173.315
1172.197
1171.307
1170.892
1170.357
1168.786
1166.841
1163.733
1156.52
1182.222
1180.904
1179.571
1178.254
1176.985
1175.799
1174.738
1173.86
1173.253
1173.045
1172.52
1171.144
1169.606
1167.626
1164.423
1156.122
1183.238
1181.933
1180.621
1179.342
1178.135
1177.038
1176.097
1175.363
1174.901
1174.778
1174.269
1173.014
1171.694
1170.211
1168.315
1164.747
1154.938
1184.218
1182.953
1181.685
1180.457
1179.309
1178.28
1177.415
1176.759
1176.361
1176.262
1175.761
1174.575
1173.367
1172.104
1170.71
1168.676
1164.639
1154.44
1185.161
1183.961
1182.759
1181.594
1180.504
1179.527
1178.704
1178.078
1177.691
1177.576
1177.072
1175.93
1174.78
1173.618
1172.423
1170.941
1168.715
1164.717
1154.664
1186.067
1184.955
1183.836
1182.744
1181.712
1180.774
1179.966
1179.329
1178.909
1178.746
1178.232
1177.123
1176.011
1174.902
1173.795
1172.52
1170.905
1168.753
1164.971
1155.577
1186.935
1185.93
1184.908
1183.897
1182.923
1182.011
1181.193
1180.508
1180.01
1179.764
1179.241
1178.163
1177.088
1176.02
1174.968
1173.78
1172.377
1170.801
1168.769
1165.349
1157.066
1187.766
1186.879
1185.965
1185.04
1184.12
1183.223
1182.371
1181.597
1180.962
1180.581
1180.069
1179.032
1178.005
1176.992
1175.999
1174.867
1173.539
1172.147
1170.618
1168.732
1165.761
1158.936
1188.558
1187.795
1186.991
1186.152
1185.285
1184.394
1183.487
1182.58
1181.719
1181.057
1180.636
1179.679
1178.746
1177.827
1176.924
1175.849
1174.557
1173.227
1171.845
1170.361
1168.62
1166.102
1160.904
1180.68
1180.061
1179.352
1178.592
1177.811
1176.802
1175.539
1174.241
1172.908
1171.533
1170.084
1168.452
1166.32
1162.582
1181.689
1181.008
1180.296
1179.56
1178.813
1177.838
1176.608
1175.341
1174.039
1172.705
1171.332
1169.894
1168.333
1166.458
1163.694
1182.736
1182.049
1181.34
1180.614
1179.88
1178.931
1177.738
1176.506
1175.237
1173.935
1172.598
1171.217
1169.784
1168.261
1166.536
1183.749
1183.081
1182.39
1181.682
1180.963
1180.041
1178.888
1177.695
1176.464
1175.196
1173.892
1172.545
1171.158
1169.724
1168.219
1184.717
1184.079
1183.417
1182.735
1182.038
1181.147
1180.036
1178.884
1177.692
1176.462
1175.194
1173.881
1172.527
1171.133
1169.695
1157.84
1160.329
1158.958
1162.81
1161.588
1159.629
1165.267
1164.346
1162.882
1159.524
1181.237
1180.045
1178.799
1177.506
1176.173
1174.805
1173.412
1172.02
1170.706
1169.776
1169.373
1167.957
1166.38
1164.082
1158.963
1182.271
1181.038
1179.773
1178.498
1177.232
1175.999
1174.829
1173.774
1172.937
1172.525
1172.005
1170.657
1169.226
1167.497
1164.843
1158.023
1183.27
1182.02
1180.754
1179.504
1178.3
1177.174
1176.167
1175.333
1174.75
1174.527
1174
1172.745
1171.451
1170.038
1168.292
1165.071
1156.315
1184.233
1182.994
1181.749
1180.536
1179.39
1178.348
1177.453
1176.752
1176.303
1176.16
1175.646
1174.458
1173.253
1172.006
1170.644
1168.675
1164.822
1155.152
1185.161
1183.961
1182.759
1181.594
1180.504
1179.527
1178.704
1178.078
1177.691
1177.576
1177.072
1175.93
1174.78
1173.618
1172.423
1170.941
1168.715
1164.717
1154.664
1186.053
1184.917
1183.777
1182.672
1181.639
1180.712
1179.931
1179.334
1178.96
1178.836
1178.334
1177.229
1176.117
1175.003
1173.886
1172.6
1170.966
1168.754
1164.795
1154.887
1186.909
1185.858
1184.799
1183.764
1182.787
1181.898
1181.132
1180.527
1180.125
1179.96
1179.454
1178.381
1177.302
1176.224
1175.152
1173.952
1172.54
1170.931
1168.792
1165.046
1155.774
1187.729
1186.78
1185.814
1184.858
1183.936
1183.073
1182.298
1181.65
1181.176
1180.938
1180.428
1179.388
1178.346
1177.306
1176.276
1175.124
1173.799
1172.399
1170.829
1168.808
1165.415
1157.216
1188.511
1187.677
1186.814
1185.94
1185.071
1184.223
1183.417
1182.685
1182.084
1181.721
1181.226
1180.228
1179.236
1178.251
1177.278
1176.171
1174.887
1173.562
1172.173
1170.65
1168.771
1165.806
1159.045
1189.256
1188.54
1187.783
1186.993
1186.173
1185.331
1184.473
1183.615
1182.799
1182.173
1181.771
1180.854
1179.955
1179.063
1178.179
1177.128
1175.873
1174.584
1173.257
1171.878
1170.397
1168.65
1166.133
1160.971
1181.811
1181.222
1180.54
1179.803
1179.039
1178.054
1176.83
1175.57
1174.275
1172.946
1171.573
1170.115
1168.478
1166.343
1162.614
1182.768
1182.122
1181.441
1180.731
1180.003
1179.056
1177.866
1176.638
1175.374
1174.076
1172.744
1171.363
1169.918
1168.351
1166.47
1183.762
1183.111
1182.436
1181.739
1181.027
1180.108
1178.957
1177.766
1176.537
1175.271
1173.97
1172.625
1171.238
1169.798
1168.27
1184.723
1184.091
1183.435
1182.758
1182.065
1181.175
1180.065
1178.915
1177.724
1176.495
1175.228
1173.916
1172.563
1171.169
1169.728
1185.641
1185.04
1184.413
1183.763
1183.095
1182.237
1181.169
1180.06
1178.91
1177.721
1176.491
1175.215
1173.896
1172.535
1171.134
1157.903
1160.343
1159.185
1162.766
1161.593
1160.254
1165.027
1164.008
1162.843
1160.916
1167.284
1166.491
1165.505
1164.075
1161.052
1182.337
1181.206
1180.024
1178.798
1177.535
1176.24
1174.923
1173.609
1172.369
1171.476
1171.066
1169.797
1168.544
1167.148
1165.156
1160.114
1183.317
1182.147
1180.946
1179.736
1178.536
1177.366
1176.256
1175.256
1174.455
1174.04
1173.512
1172.263
1171.017
1169.715
1168.19
1165.441
1158.184
1184.263
1183.077
1181.876
1180.69
1179.547
1178.478
1177.521
1176.726
1176.163
1175.926
1175.393
1174.199
1173.005
1171.79
1170.496
1168.652
1165.14
1156.507
1185.175
1184.001
1182.82
1181.668
1180.581
1179.592
1178.741
1178.072
1177.636
1177.48
1176.964
1175.818
1174.669
1173.515
1172.337
1170.88
1168.714
1164.897
1155.365
1186.053
1184.917
1183.777
1182.672
1181.639
1180.712
1179.931
1179.334
1178.96
1178.836
1178.334
1177.229
1176.117
1175.003
1173.886
1172.6
1170.966
1168.754
1164.795
1154.887
1186.896
1185.822
1184.743
1183.696
1182.717
1181.839
1181.099
1180.532
1180.173
1180.046
1179.552
1178.482
1177.403
1176.321
1175.241
1174.035
1172.619
1170.991
1168.793
1164.873
1155.094
1187.704
1186.712
1185.71
1184.732
1183.807
1182.966
1182.241
1181.669
1181.287
1181.125
1180.632
1179.595
1178.549
1177.5
1176.454
1175.293
1173.969
1172.56
1170.957
1168.831
1165.116
1155.942
1188.476
1187.583
1186.672
1185.768
1184.897
1184.081
1183.35
1182.737
1182.29
1182.062
1181.569
1180.568
1179.559
1178.549
1177.543
1176.419
1175.141
1173.818
1172.421
1170.856
1168.845
1165.463
1157.35
1189.211
1188.428
1187.616
1186.792
1185.972
1185.171
1184.41
1183.719
1183.152
1182.81
1182.335
1181.377
1180.42
1179.466
1178.517
1177.437
1176.19
1174.908
1173.585
1172.2
1170.679
1168.796
1165.837
1159.138
1189.909
1189.24
1188.529
1187.786
1187.014
1186.218
1185.408
1184.597
1183.825
1183.235
1182.855
1181.978
1181.114
1180.252
1179.391
1178.367
1177.15
1175.897
1174.61
1173.286
1171.91
1170.421
1168.669
1166.152
1161.023
1182.886
1182.327
1181.675
1180.965
1180.222
1179.265
1178.08
1176.858
1175.6
1174.309
1172.981
1171.599
1170.135
1168.492
1166.353
1183.793
1183.182
1182.533
1181.852
1181.147
1180.23
1179.082
1177.894
1176.669
1175.408
1174.111
1172.77
1171.382
1169.931
1168.358
1184.736
1184.121
1183.48
1182.813
1182.128
1181.241
1180.132
1178.983
1177.794
1176.568
1175.303
1173.994
1172.643
1171.249
1169.802
1185.646
1185.051
1184.43
1183.786
1183.121
1182.265
1181.198
1180.09
1178.941
1177.752
1176.524
1175.248
1173.93
1172.571
1171.17
1186.515
1185.951
1185.36
1184.743
1184.105
1183.282
1182.258
1181.192
1180.084
1178.936
1177.747
1176.51
1175.227
1173.901
1172.533
1160.35
1159.281
1162.752
1161.608
1160.547
1164.971
1163.911
1162.856
1161.598
1167.051
1166.105
1165.167
1164.089
1162.309
1169.145
1168.389
1167.539
1166.577
1165.265
1161.926
1183.379
1182.307
1181.186
1180.023
1178.825
1177.597
1176.35
1175.106
1173.93
1173.069
1172.64
1171.443
1170.308
1169.184
1167.953
1165.743
1160.237
1184.308
1183.198
1182.06
1180.911
1179.772
1178.662
1177.609
1176.657
1175.89
1175.472
1174.937
1173.743
1172.575
1171.421
1170.237
1168.568
1165.506
1158.344
1185.204
1184.08
1182.941
1181.815
1180.731
1179.716
1178.807
1178.049
1177.506
1177.26
1176.725
1175.574
1174.43
1173.294
1172.153
1170.747
1168.691
1165.21
1156.698
1186.067
1184.955
1183.836
1182.744
1181.712
1180.774
1179.966
1179.329
1178.909
1178.746
1178.232
1177.123
1176.011
1174.902
1173.795
1172.52
1170.905
1168.753
1164.971
1155.577
1186.896
1185.822
1184.743
1183.696
1182.717
1181.839
1181.099
1180.532
1180.173
1180.046
1179.552
1178.482
1177.403
1176.321
1175.241
1174.035
1172.619
1170.991
1168.793
1164.873
1155.094
1187.692
1186.678
1185.658
1184.668
1183.741
1182.91
1182.21
1181.674
1181.333
1181.207
1180.725
1179.691
1178.645
1177.593
1176.54
1175.375
1174.051
1172.638
1171.016
1168.833
1164.946
1155.272
1188.453
1187.519
1186.573
1185.649
1184.775
1183.98
1183.297
1182.757
1182.396
1182.242
1181.765
1180.766
1179.754
1178.735
1177.714
1176.583
1175.308
1173.986
1172.58
1170.983
1168.867
1165.168
1156.094
1189.178
1188.339
1187.481
1186.63
1185.808
1185.038
1184.348
1183.772
1183.351
1183.138