/*--------------------------------*- C++ -*----------------------------------*\
| =========                 |                                                 |
| \\      /  F ield         | OpenFOAM: The Open Source CFD Toolbox           |
|  \\    /   O peration     | Version:  2306                                  |
|   \\  /    A nd           | Website:  www.openfoam.com                      |
|    \\/     M anipulation  |                                                 |
\*---------------------------------------------------------------------------*/
FoamFile
{
    version     2.0;
    format      ascii;
    arch        "LSB;label=32;scalar=64";
    class       volVectorField;
    location    "0.3/air";
    object      U;
}
// * * * * * * * * * * * * * * * * * * * * * * * * * * * * * * * * * * * * * //

dimensions      [0 1 -1 0 0 0 0];

internalField   nonuniform List<vector> 
16000
(
(0.3441283 0.05044698 -0.05053078)
(0.6142865 0.09639712 -0.07773999)
(0.3612554 0.003564024 -0.003448777)
(0.6144789 0.07739983 -0.09756864)
(0.7370286 0.08276321 -0.07746715)
(0.7111461 0.008835905 -0.006432444)
(1.232391 0.1623597 -0.165602)
(0.2753961 -0.001157458 0.001168916)
(0.7113343 0.006552916 -0.008467241)
(0.7377149 0.07691604 -0.08600513)
(0.7960821 0.05176631 -0.07543673)
(0.9016693 0.009142482 -0.006711098)
(1.55438 0.1537325 -0.1837053)
(0.5675256 -0.001545294 0.00196798)
(1.570921 0.01711005 -0.01683884)
(1.555605 0.1788415 -0.1618275)
(0.3113388 0.0007422778 -0.0007349628)
(0.5677327 -0.001973669 0.001519062)
(0.9025496 0.006789649 -0.008691549)
(0.7976756 0.07467691 -0.05780125)
(0.8199574 0.01753715 -0.0743538)
(1.005233 0.006381663 -0.006300693)
(1.722129 0.1018719 -0.1843747)
(0.7403722 -0.00136917 0.002116576)
(2.084366 0.01934584 -0.01960421)
(2.013761 0.1757879 -0.1874305)
(0.6351162 0.001256742 -0.001325208)
(1.301649 -0.002802048 0.002624139)
(2.086095 0.01944216 -0.01939328)
(1.726035 0.1781704 -0.1161124)
(0.2907041 -0.0003795016 0.0003886963)
(0.6353129 0.001301027 -0.001341398)
(0.7413815 -0.002145785 0.001208206)
(1.007648 0.006317462 -0.006093149)
(0.8230748 0.07330238 -0.02698235)
(0.8199574 -0.01753715 -0.0743538)
(1.051274 0.002207707 -0.005942775)
(1.79062 0.03532338 -0.1826842)
(0.8398456 -0.0008407463 0.002203286)
(2.369675 0.01490289 -0.02151784)
(2.229159 0.1225269 -0.1956341)
(0.8238794 0.001229915 -0.001452059)
(1.772928 -0.002622873 0.003134512)
(2.826874 0.02507595 -0.02614688)
(2.232834 0.1810221 -0.1428489)
(0.5969892 -0.000673323 0.0006577713)
(1.444255 0.002138262 -0.002469966)
(1.774893 -0.003495816 0.002094551)
(2.375672 0.0207847 -0.01580184)
(1.799227 0.1749649 -0.05659192)
(0.3022461 0.0002580763 -0.0002492729)
(0.5971794 -0.000676784 0.0006076333)
(0.8248683 0.001396509 -0.001544729)
(0.8426155 -0.002264532 0.0004331956)
(1.056525 0.005851873 -0.002356895)
(0.8255905 0.07284258 0.003979097)
(0.0003384892 -0.001033385 -0.0004951263)
(0.7960821 -0.05176631 -0.07543673)
(1.051274 -0.002207707 -0.005942775)
(1.79062 -0.03532338 -0.1826842)
(0.886202 -0.0002755576 0.002249114)
(2.500059 0.005457751 -0.02169052)
(2.321627 0.04317871 -0.1955806)
(0.9324162 0.0007997517 -0.00145536)
(2.055188 -0.001645097 0.003691057)
(3.28006 0.01816718 -0.02610022)
(2.495482 0.1263201 -0.1506968)
(0.7776608 -0.0006704137 0.000698558)
(1.956658 0.002154338 -0.002806245)
(2.468265 -0.003651284 0.002773535)
(3.286135 0.02420202 -0.02023382)
(2.332235 0.1784738 -0.07240073)
(0.6185052 0.0004330087 -0.0004684217)
(1.366157 -0.001284894 0.0009977713)
(1.958633 0.002247865 -0.003043571)
(2.06194 -0.00427962 0.0005921571)
(2.51419 0.02032198 -0.007520694)
(1.806936 0.1731479 0.006631505)
(0.2953579 -0.0001072734 0.000116529)
(0.6186983 0.000446776 -0.000506744)
(0.7786183 -0.0007468749 0.0004044757)
(0.9351768 0.001367605 -0.001467475)
(0.8920571 -0.002367232 -0.0005268218)
(1.061315 0.005666462 0.001242094)
(0.8059482 0.07329323 0.03350563)
(0.0003490394 -0.002991449 -0.0005117989)
(0.0004020132 -0.0009324166 -0.000460389)
(0.0003412362 -0.001035844 -0.0009642776)
(0.7370286 -0.08276321 -0.07746715)
(1.005233 -0.006381663 -0.006300693)
(1.722129 -0.1018719 -0.1843747)
(0.886202 0.0002755574 0.002249114)
(2.500059 -0.005457751 -0.02169052)
(2.321627 -0.04317871 -0.1955806)
(0.9825315 0.0002705565 -0.001446326)
(2.187712 -0.0005459697 0.004030426)
(3.485139 0.006819712 -0.02634153)
(2.606415 0.04492135 -0.1519544)
(0.882475 -0.0004486805 0.0006984575)
(2.261114 0.001437471 -0.002808213)
(2.893808 -0.002531574 0.00350257)
(3.828702 0.01941216 -0.02263421)
(2.614758 0.1248473 -0.07868637)
(0.803944 0.0004253134 -0.0005317222)
(1.858267 -0.001368303 0.001088945)
(2.709281 0.002245705 -0.003577716)
(2.900401 -0.004744341 0.001020191)
(3.503595 0.02344086 -0.01026059)
(2.343769 0.1762472 0.005820639)
(0.605675 -0.0001914307 0.0001770771)
(1.410655 0.0007041797 -0.00101527)
(1.860182 -0.001586516 0.0005829802)
(2.267969 0.002033451 -0.00308079)
(2.203148 -0.004953961 -0.001231861)
(2.527995 0.01952025 0.001890067)
(1.750791 0.1729874 0.06635)
(0.298842 0.0001013959 -9.275347e-05)
(0.6058662 -0.0001954457 0.0001287716)
(0.8049143 0.0004792449 -0.0007138741)
(0.8851487 -0.0007768942 -0.0001294054)
(0.9884337 0.001307061 -0.001430453)
(0.8968195 -0.002484522 -0.001735015)
(1.023036 0.005705063 0.004098313)
(0.7546224 0.07505234 0.06003843)
(0.0003678484 -0.005395183 -0.0005497389)
(0.000417197 -0.002700428 -0.0004740452)
(0.0003517973 -0.003003567 -0.001004206)
(0.0003154328 -0.0008871676 -0.0004323519)
(0.0004042194 -0.0009352077 -0.0008961266)
(0.0003394374 -0.001030046 -0.002630918)
(0.6142865 -0.09639712 -0.07773999)
(0.9016693 -0.009142482 -0.006711098)
(1.55438 -0.1537325 -0.1837053)
(0.8398456 0.0008407462 0.002203286)
(2.369675 -0.01490289 -0.02151784)
(2.229159 -0.1225269 -0.1956341)
(0.9825315 -0.0002705563 -0.001446326)
(2.187712 0.0005459699 0.004030426)
(3.485139 -0.006819712 -0.02634153)
(2.606415 -0.04492135 -0.1519544)
(0.9311305 -0.0001559313 0.0006983795)
(2.403466 0.0004938357 -0.002752182)
(3.095634 -0.0008542425 0.003951877)
(4.079262 0.00731384 -0.02326657)
(2.73478 0.04454959 -0.08062576)
(0.9110644 0.000276368 -0.0005473323)
(2.153023 -0.0009663431 0.001116572)
(3.16589 0.001483785 -0.003637663)
(3.42205 -0.003252956 0.001365844)
(4.093679 0.01894583 -0.01179318)
(2.62976 0.1231796 0.003460097)
(0.7882891 -0.0001866183 0.0001714751)
(1.914797 0.0007101839 -0.001242587)
(2.58317 -0.001768313 0.0005681123)
(3.172634 0.001947217 -0.003745036)
(3.115098 -0.005658066 -0.001397858)
(3.524904 0.02231739 0.001853515)
(2.268995 0.1751212 0.07940286)
(0.6121055 0.0001705441 -0.0001911492)
(1.384136 -0.0003999141 0.0001211292)
(1.916735 0.0007100859 -0.001554093)
(2.15967 -0.001814708 -0.0004970351)
(2.419214 0.001691995 -0.003070861)
(2.216695 -0.005491424 -0.003338632)
(2.419757 0.01832841 0.009677426)
(1.60321 0.171739 0.1145473)
(0.2964606 -2.231972e-05 3.083423e-05)
(0.6122974 0.0001722088 -0.0002350191)
(0.7892487 -0.0002185786 -7.004344e-05)
(0.913772 0.0004644592 -0.0008941851)
(0.9368473 -0.0008243889 -0.0008604823)
(0.9933933 0.001202149 -0.001611937)
(0.8573636 -0.002676475 -0.00336998)
(0.931992 0.005708892 0.005043435)
(0.6480939 0.07609529 0.06641679)
(0.0004028715 -0.007075653 -0.0008454419)
(0.0004443096 -0.004849196 -0.000505522)
(0.0003705944 -0.005321947 -0.001084105)
(0.0003254246 -0.002569229 -0.0004448022)
(0.0004194047 -0.00271317 -0.0009293162)
(0.0003498599 -0.002976988 -0.002689318)
(0.000420722 -0.000836635 -0.0004100851)
(0.0003171547 -0.0008901353 -0.0008414826)
(0.0004016294 -0.0009306818 -0.002447205)
(0.0003340214 -0.001007938 -0.0009013724)
(0.3441283 -0.05044698 -0.05053078)
(0.7111461 -0.008835905 -0.006432444)
(1.232391 -0.1623597 -0.165602)
(0.7403722 0.00136917 0.002116576)
(2.084366 -0.01934584 -0.01960421)
(2.013761 -0.1757879 -0.1874305)
(0.9324162 -0.0007997517 -0.00145536)
(2.055188 0.001645097 0.003691057)
(3.28006 -0.01816718 -0.02610022)
(2.495482 -0.1263201 -0.1506968)
(0.9311305 0.0001559316 0.0006983795)
(2.403466 -0.0004938359 -0.002752182)
(3.095634 0.0008542425 0.003951877)
(4.079262 -0.007313839 -0.02326657)
(2.73478 -0.04454959 -0.08062576)
(0.9606727 9.385052e-05 -0.0005520371)
(2.291517 -0.0003439754 0.001130135)
(3.381768 0.0005082071 -0.003580881)
(3.671243 -0.001116087 0.00162829)
(4.367102 0.007133836 -0.01228533)
(2.751707 0.04394961 0.001746488)
(0.8940589 -0.0001240172 0.0001614744)
(2.215593 0.0004711375 -0.00132742)
(3.026274 -0.001292744 0.0005547849)
(3.731262 0.001239425 -0.003891919)
(3.686338 -0.003913063 -0.001373521)
(4.119065 0.01793886 0.001833983)
(2.543493 0.1219469 0.08056698)
(0.7960852 0.0001709265 -0.0002293598)
(1.881138 -0.0004245521 5.100471e-05)
(2.656245 0.0007024599 -0.001986406)
(3.032818 -0.002091483 -0.0007541388)
(3.401695 0.001495178 -0.003784609)
(3.135549 -0.006292404 -0.003979518)
(3.354116 0.02079755 0.01192718)
(2.077889 0.1693786 0.1335831)
(0.6076438 -4.554563e-05 2.838316e-05)
(1.397282 0.0002501215 -0.0005299328)
(1.883054 -0.0005358544 -0.0003401002)
(2.222319 0.0005908808 -0.002032206)
(2.3068 -0.002089742 -0.001957143)
(2.433316 0.001232951 -0.003244816)
(2.103969 -0.006003775 -0.005824273)
(2.168648 0.01494469 0.01253655)
(1.321478 0.1557363 0.1195112)
(0.2974447 4.80217e-05 -4.030611e-05)
(0.607835 -4.58279e-05 -1.395893e-05)
(0.7970469 0.0001820897 -0.0004293619)
(0.8967355 -0.0002374966 -0.0004344181)
(0.9664588 0.0004228705 -0.001163484)
(0.9416211 -0.0009221136 -0.001821906)
(0.9507002 0.0009936756 -0.002158702)
(0.7673142 -0.002927535 -0.005497014)
(0.7590861 0.005611696 0.001343118)
(0.4126736 0.05285001 0.002128462)
(0.0004402359 -0.01409897 -0.001124783)
(0.0004945126 -0.006359795 -0.0007600354)
(0.0004045386 -0.006924943 -0.00162988)
(0.0003432036 -0.004608476 -0.0004736413)
(0.0004464737 -0.004788979 -0.0009958868)
(0.0003683794 -0.005204219 -0.002803114)
(0.000429977 -0.002422598 -0.0004215902)
(0.0003271737 -0.002582217 -0.0008719849)
(0.0004166187 -0.002690971 -0.002493473)
(0.0003441078 -0.002932675 -0.0009338647)
(0.0004044737 -0.0008010782 -0.0003915169)
(0.0004240812 -0.0008395858 -0.0007979649)
(0.0003151213 -0.0008860779 -0.002298467)
(0.0003906139 -0.0009125726 -0.0008376311)
(0.0003329819 -0.001008788 -0.00899938)
(0.3612554 -0.003564024 -0.003448777)
(0.6144789 -0.07739983 -0.09756864)
(0.5675256 0.001545294 0.00196798)
(1.570921 -0.01711005 -0.01683884)
(1.555605 -0.1788415 -0.1618275)
(0.8238794 -0.001229915 -0.001452059)
(1.772928 0.002622873 0.003134512)
(2.826874 -0.02507595 -0.02614688)
(2.232834 -0.1810221 -0.1428489)
(0.882475 0.0004486807 0.0006984575)
(2.261114 -0.001437471 -0.002808213)
(2.893808 0.002531574 0.00350257)
(3.828702 -0.01941216 -0.02263421)
(2.614758 -0.1248473 -0.07868637)
(0.9606727 -9.385072e-05 -0.0005520371)
(2.291517 0.0003439753 0.001130135)
(3.381768 -0.0005082071 -0.003580881)
(3.671243 0.001116087 0.00162829)
(4.367102 -0.007133836 -0.01228533)
(2.751707 -0.04394961 0.001746488)
(0.9431186 -4.314411e-05 0.0001572371)
(2.356627 0.0001611664 -0.00135139)
(3.236736 -0.0004679786 0.0005591296)
(3.997442 0.000415531 -0.003871565)
(3.960164 -0.001358542 -0.001295307)
(4.394252 0.006737614 0.00176629)
(2.660702 0.04337242 0.07905968)
(0.902492 0.0001120068 -0.0002431168)
(2.178388 -0.0003015566 1.645705e-06)
(3.107825 0.0004548616 -0.002167816)
(3.575954 -0.001567466 -0.0008546225)
(4.012893 0.0008773851 -0.003976769)
(3.71132 -0.004378556 -0.004194705)
(3.908137 0.01655266 0.01347359)
(2.319784 0.1170968 0.1367814)
(0.7906192 -4.376753e-05 1.12334e-05)
(1.89769 0.0002525544 -0.0006951885)
(2.612747 -0.0006047222 -0.0005695746)
(3.114445 0.0005353235 -0.002641149)
(3.256111 -0.002459784 -0.002495404)
(3.422988 0.0009532594 -0.003847858)
(2.963599 -0.006664502 -0.006651531)
(2.955655 0.01880191 0.017216)
(1.680545 0.1485438 0.1363482)
(0.6093473 8.217134e-05 -9.655129e-05)
(1.387998 -0.0001342096 -0.0001282915)
(1.899608 0.0002121016 -0.001016112)
(2.185037 -0.0006795413 -0.001122767)
(2.372074 0.0003595306 -0.002591647)
(2.320398 -0.002514289 -0.003686888)
(2.311908 0.000542465 -0.003708006)
(1.84923 -0.006620427 -0.008571147)
(1.700378 0.01170992 0.008503963)
(0.7696922 0.102449 0.02419346)
(0.2963274 1.067219e-05 -2.452573e-06)
(0.609538 7.862711e-05 -0.0001432563)
(0.7915759 -5.559102e-05 -0.0001982589)
(0.9051731 0.0001676765 -0.0006699658)
(0.9488371 -0.0002775767 -0.0009345278)
(0.9713141 0.0003295559 -0.001626299)
(0.9000691 -0.001125722 -0.003096899)
(0.8530565 0.0007231624 -0.003105662)
(0.6103114 -0.002864833 -0.008916061)
(0.4445015 -0.000772958 -0.02101444)
(0.002028046 -0.01031111 -0.009144696)
(0.0005473991 -0.01250021 -0.001020616)
(0.0004395655 -0.01105244 -0.002140535)
(0.0003748144 -0.006041011 -0.0007126472)
(0.0004949737 -0.006230804 -0.001465862)
(0.0004009952 -0.00673256 -0.003320208)
(0.0004459584 -0.004343671 -0.0004482666)
(0.0003449678 -0.004553152 -0.0009331258)
(0.0004432924 -0.004687793 -0.002582632)
(0.0003619376 -0.005062922 -0.0010021)
(0.0004121215 -0.002319592 -0.0004023657)
(0.0004333802 -0.002435336 -0.0008262552)
(0.000325037 -0.002561931 -0.002339771)
(0.0004051085 -0.00265734 -0.0008642799)
(0.0003430639 -0.002904587 -0.009093592)
(0.000446161 -0.0007665168 -0.0003754822)
(0.0004079126 -0.0008040274 -0.0007617793)
(0.0004223768 -0.0008359314 -0.002180036)
(0.0003063014 -0.0008698539 -0.0007866889)
(0.0003929009 -0.0009127022 -0.008377238)
(3.527023e-05 -0.0001098766 -0.003437337)
(0.2753961 0.001157459 0.001168916)
(0.7113343 -0.006552916 -0.008467242)
(0.7377149 -0.07691604 -0.08600513)
(0.6351162 -0.001256742 -0.001325208)
(1.301649 0.002802048 0.002624139)
(2.086095 -0.01944216 -0.01939328)
(1.726035 -0.1781704 -0.1161124)
(0.7776608 0.0006704138 0.000698558)
(1.956658 -0.002154338 -0.002806245)
(2.468265 0.003651284 0.002773534)
(3.286135 -0.02420202 -0.02023382)
(2.332235 -0.1784738 -0.07240073)
(0.9110644 -0.0002763682 -0.0005473325)
(2.153023 0.000966343 0.001116572)
(3.16589 -0.001483785 -0.003637663)
(3.42205 0.003252956 0.001365844)
(4.093679 -0.01894583 -0.01179318)
(2.62976 -0.1231796 0.003460097)
(0.9431186 4.314426e-05 0.000157237)
(2.356627 -0.0001611663 -0.00135139)
(3.236736 0.0004679786 0.0005591296)
(3.997442 -0.0004155311 -0.003871565)
(3.960164 0.001358541 -0.001295307)
(4.394252 -0.006737614 0.001766291)
(2.660702 -0.04337242 0.07905968)
(0.9518068 3.804666e-05 -0.0002481009)
(2.317958 -0.0001079544 -1.944412e-05)
(3.321903 0.0001531742 -0.002225639)
(3.835909 -0.0005743084 -0.000872904)
(4.305291 0.0002795567 -0.003984558)
(3.987326 -0.001528169 -0.004259887)
(4.163734 0.006206852 0.01394316)
(2.423681 0.0413317 0.1352111)
(0.8965385 -3.037041e-05 6.162429e-07)
(2.196584 0.0001655438 -0.0007728253)
(3.05934 -0.0004493941 -0.0006994171)
(3.667448 0.0003135423 -0.002900053)
(3.850984 -0.001869014 -0.00267322)
(4.038972 0.0004728332 -0.00396874)
(3.498976 -0.004593722 -0.006918252)
(3.422565 0.01433639 0.01891357)
(1.876052 0.09867608 0.1367861)
(0.7925781 8.49714e-05 -0.0001249113)
(1.885854 -0.0001488836 -0.0002306301)
(2.63392 0.0001964648 -0.001364455)
(3.065885 -0.0008042178 -0.001556465)
(3.341465 0.0002332591 -0.003303539)
(3.276687 -0.002960034 -0.004392369)
(3.238624 0.0002758593 -0.003925611)
(2.578782 -0.006799886 -0.008874131)
(2.271086 0.01421845 0.0133826)
(0.9406495 0.09093511 0.03255768)
(0.6073398 2.081727e-05 -2.964675e-05)
(1.3912 9.7263e-05 -0.0003583153)
(1.887762 -0.0002248998 -0.0005699714)
(2.203242 0.0001011196 -0.001583021)
(2.333232 -0.0009022164 -0.002122341)
(2.385893 -4.47902e-05 -0.003319672)
(2.201995 -0.00320507 -0.005585944)
(2.037233 -0.0004837392 -0.004396722)
(1.416412 -0.006995372 -0.01110051)
(0.9126337 0.005132432 -0.01303781)
(0.003272971 0.0005026255 -0.006339653)
(0.2964381 2.484227e-05 -1.722068e-05)
(0.6075303 1.347824e-05 -7.620423e-05)
(0.7935314 8.081323e-05 -0.0003268093)
(0.899205 -7.199997e-05 -0.000495096)
(0.9575342 0.0001298007 -0.001009106)
(0.9536256 -0.0003673611 -0.001631965)
(0.9289649 0.0001305246 -0.002403871)
(0.8055886 -0.001386685 -0.004639161)
(0.681207 0.00061938 -0.005778271)
(0.3448219 -0.006173515 -0.02250903)
(0.002294196 -0.009368843 -0.00801605)
(0.0005329651 -0.00849428 -0.01254196)
(0.0004096966 -0.01184034 -0.0009589648)
(0.0005449325 -0.009854199 -0.001911679)
(0.0004348252 -0.009909174 -0.003821099)
(0.0004740598 -0.005691004 -0.0006725439)
(0.0003757245 -0.005921046 -0.001374291)
(0.0004899303 -0.006063239 -0.003016108)
(0.0003926274 -0.00651058 -0.001359482)
(0.000425102 -0.004157487 -0.0004275779)
(0.0004494011 -0.004292448 -0.000882871)
(0.0003426161 -0.004458727 -0.002419021)
(0.0004307914 -0.004573675 -0.0009205249)
(0.0003609244 -0.004977784 -0.009270395)
(0.0004531758 -0.002219398 -0.0003857588)
(0.0004156023 -0.00233214 -0.0007885367)
(0.0004315953 -0.002416688 -0.002217782)
(0.0003159718 -0.002532757 -0.0008110662)
(0.0004074081 -0.002628918 -0.008443113)
(3.626851e-05 -0.0003151077 -0.003467489)
(0.0004459672 -0.0007382742 -0.0003613047)
(0.0004502891 -0.00076942 -0.0007304849)
(0.0004064758 -0.0008006378 -0.00208143)
(0.0004151432 -0.0008210478 -0.0007460063)
(0.0003082736 -0.0008694388 -0.007868647)
(4.062455e-05 -9.990751e-05 -0.00320006)
(3.176505e-05 -9.902927e-05 -0.004073243)
(0.3113388 -0.0007422777 -0.0007349629)
(0.5677327 0.001973669 0.001519062)
(0.9025496 -0.006789649 -0.008691549)
(0.7976756 -0.07467691 -0.05780125)
(0.5969892 0.0006733229 0.0006577713)
(1.444255 -0.002138262 -0.002469966)
(1.774893 0.003495816 0.002094551)
(2.375672 -0.0207847 -0.01580184)
(1.799227 -0.1749649 -0.05659192)
(0.803944 -0.0004253136 -0.0005317224)
(1.858267 0.001368303 0.001088945)
(2.709281 -0.002245705 -0.003577716)
(2.900401 0.004744341 0.001020191)
(3.503595 -0.02344086 -0.01026059)
(2.343769 -0.1762472 0.00582064)
(0.8940589 0.0001240173 0.0001614743)
(2.215593 -0.0004711373 -0.00132742)
(3.026274 0.001292744 0.0005547851)
(3.731262 -0.001239425 -0.003891919)
(3.686338 0.003913063 -0.001373521)
(4.119065 -0.01793886 0.001833983)
(2.543493 -0.1219469 0.08056698)
(0.9518068 -3.804665e-05 -0.000248101)
(2.317958 0.0001079544 -1.944429e-05)
(3.321903 -0.0001531743 -0.002225639)
(3.835909 0.0005743085 -0.0008729038)
(4.305291 -0.0002795567 -0.003984558)
(3.987326 0.001528169 -0.004259887)
(4.163734 -0.006206852 0.01394316)
(2.423681 -0.0413317 0.1352111)
(0.9456529 -1.103594e-05 -3.580472e-06)
(2.336824 5.595257e-05 -0.0008011283)
(3.271331 -0.0001643142 -0.0007512393)
(3.931659 9.874112e-05 -0.002982112)
(4.136821 -0.0006889324 -0.002702375)
(4.333727 0.0001326614 -0.003952852)
(3.754753 -0.001595791 -0.00703731)
(3.635372 0.005375279 0.01960686)
(1.957396 0.03436944 0.1351603)
(0.8985726 5.647616e-05 -0.0001373271)
(2.183462 -0.0001117948 -0.0002889398)
(3.082786 0.0001154814 -0.001534165)
(3.613088 -0.0006173169 -0.001765918)
(3.946847 7.084529e-05 -0.003573203)
(3.876238 -0.002242278 -0.004545691)
(3.811771 3.615227e-05 -0.003793371)
(3.027192 -0.00452717 -0.008954701)
(2.584774 0.01193271 0.01639424)
(1.026104 0.05829855 0.03356064)
(0.7902004 2.541471e-05 -5.142653e-05)
(1.889605 9.695267e-05 -0.0004940457)
(2.618547 -0.0002708896 -0.0008316878)
(3.089341 4.349589e-05 -0.002107906)
(3.29069 -0.001095715 -0.002732984)
(3.362365 -0.0002424467 -0.00397915)
(3.096536 -0.003649747 -0.006150098)
(2.825779 -0.0005530929 -0.003820056)
(1.938917 -0.006408025 -0.009505021)
(1.176988 0.007020659 -0.006141311)
(0.003865862 0.0004157915 -0.004478785)
(0.607429 3.703586e-05 -5.331644e-05)
(1.387241 -7.295183e-06 -0.0002392505)
(1.891505 4.530127e-05 -0.0008070047)
(2.190083 -0.0003471065 -0.00122612)
(2.352115 -0.000106717 -0.002268185)
(2.346871 -0.001290603 -0.003321391)
(2.26537 -0.0007329757 -0.004254162)
(1.93557 -0.004175611 -0.007349999)
(1.567545 -0.001590387 -0.005954882)
(0.7380118 -0.00585298 -0.01665207)
(0.003932538 -5.134509e-05 -0.005579407)
(0.0005428371 -0.001664477 -0.00905527)
(0.2960298 1.692495e-05 -9.568558e-06)
(0.6076191 3.722346e-05 -9.208177e-05)
(0.791152 9.920691e-06 -0.0002524273)
(0.9012293 6.715632e-05 -0.00057671)
(0.951349 -0.0001091495 -0.0009075624)
(0.9623391 4.331723e-05 -0.001530335)
(0.9117118 -0.0005584644 -0.002624488)
(0.8324758 -0.0001296587 -0.003505406)
(0.6407958 -0.001418126 -0.00737591)
(0.3879693 -0.003497664 -0.02029651)
(0.001731581 -0.008893322 -0.007559325)
(0.0006714013 -0.007619912 -0.01094508)
(0.000505335 -0.007764911 -0.008818571)
(0.0005053794 -0.0111468 -0.0009018472)
(0.0004085786 -0.009343578 -0.00179187)
(0.0005382405 -0.008853739 -0.00343179)
(0.00042426 -0.008848817 -0.001696406)
(0.0004478923 -0.005446419 -0.0006414305)
(0.0004768068 -0.005579497 -0.001296723)
(0.0003723593 -0.00576423 -0.002820659)
(0.0004747174 -0.005883087 -0.00122622)
(0.0003912085 -0.006383314 -0.009614178)
(0.0004648024 -0.003977063 -0.0004096631)
(0.0004286219 -0.004109188 -0.0008420972)
(0.0004474483 -0.004204335 -0.002289946)
(0.0003330733 -0.004355389 -0.0008625254)
(0.0004331533 -0.004492351 -0.008560526)
(3.809557e-05 -0.0005401631 -0.00352935)
(0.0004522031 -0.002137588 -0.0003711215)
(0.0004573482 -0.002231658 -0.0007558797)
(0.0004141032 -0.002314623 -0.002116736)
(0.0004241934 -0.002390562 -0.0007685453)
(0.000317917 -0.002504398 -0.007922586)
(4.20647e-05 -0.0002867555 -0.003219955)
(3.264715e-05 -0.0002866194 -0.00410958)
(0.0004638249 -0.0007116413 -0.000348566)
(0.0004502418 -0.0007411377 -0.0007028507)
(0.0004490229 -0.0007662641 -0.001996139)
(0.0004003486 -0.0007867194 -0.000712242)
(0.0004150351 -0.0008205421 -0.007463896)
(3.1812e-05 -9.539441e-05 -0.003006042)
(3.598581e-05 -9.024933e-05 -0.003791942)
(3.098264e-05 -9.886638e-05 -0.00401768)
(0.2907041 0.0003795016 0.0003886964)
(0.6353129 -0.001301027 -0.001341398)
(0.7413815 0.002145785 0.001208206)
(1.007648 -0.006317462 -0.006093149)
(0.8230748 -0.07330238 -0.02698235)
(0.6185052 -0.0004330087 -0.0004684219)
(1.366157 0.001284894 0.0009977712)
(1.958633 -0.002247865 -0.003043571)
(2.06194 0.00427962 0.0005921573)
(2.51419 -0.02032198 -0.007520694)
(1.806936 -0.1731479 0.006631505)
(0.7882891 0.0001866184 0.000171475)
(1.914797 -0.0007101839 -0.001242587)
(2.58317 0.001768313 0.0005681124)
(3.172634 -0.001947217 -0.003745036)
(3.115098 0.005658066 -0.001397858)
(3.524904 -0.02231739 0.001853515)
(2.268995 -0.1751212 0.07940286)
(0.902492 -0.0001120067 -0.0002431169)
(2.178388 0.0003015566 1.645679e-06)
(3.107825 -0.0004548617 -0.002167816)
(3.575954 0.001567466 -0.0008546224)
(4.012893 -0.0008773851 -0.003976768)
(3.71132 0.004378556 -0.004194705)
(3.908137 -0.01655266 0.01347359)
(2.319784 -0.1170968 0.1367814)
(0.9456529 1.103586e-05 -3.580486e-06)
(2.336824 -5.59524e-05 -0.0008011285)
(3.271331 0.0001643144 -0.0007512391)
(3.931659 -9.87411e-05 -0.002982112)
(4.136821 0.0006889323 -0.002702375)
(4.333727 -0.0001326615 -0.003952852)
(3.754753 0.00159579 -0.00703731)
(3.635372 -0.00537528 0.01960686)
(1.957396 -0.03436944 0.1351603)
(0.9477024 1.921238e-05 -0.0001421216)
(2.323164 -4.141654e-05 -0.0003123849)
(3.295715 3.613171e-05 -0.001597644)
(3.874851 -0.0002289927 -0.001840433)
(4.237251 7.496384e-06 -0.003644032)
(4.164375 -0.0008244785 -0.004534736)
(4.08506 -1.425592e-05 -0.003675182)
(3.239951 -0.001544084 -0.009031341)
(2.728189 0.004406362 0.01692322)
(1.061441 0.01994026 0.0336486)
(0.8960463 1.782976e-05 -6.259651e-05)
(2.187354 6.095406e-05 -0.0005631645)
(3.065596 -0.0002132113 -0.0009710714)
(3.639149 -1.259619e-05 -0.002351183)
(3.889904 -0.0008523974 -0.002971398)
(3.972493 -0.0002835601 -0.00413427)
(3.653867 -0.002689914 -0.006086497)
(3.306802 -0.000398473 -0.003262533)
(2.253104 -0.003854242 -0.008863506)
(1.319815 0.005586451 -0.004952502)
(0.004162172 0.000257374 -0.003926836)
(0.79021 3.694812e-05 -7.524354e-05)
(1.884773 -7.918863e-06 -0.0003582977)
(2.622912 2.429001e-05 -0.001106962)
(3.072115 -0.0004396147 -0.001669526)
(3.315091 -0.0002263042 -0.002909538)
(3.311336 -0.001552614 -0.003974642)
(3.179213 -0.0009457017 -0.004585855)
(2.695194 -0.004431464 -0.00726492)
(2.134828 -0.001228936 -0.003740726)
(0.9752374 -0.004337735 -0.0101069)
(0.004856921 1.208175e-05 -0.003925539)
(0.0005485617 -0.0008528077 -0.006685307)
(0.6066205 2.710632e-05 -3.949887e-05)
(1.387148 1.805433e-05 -0.0002586716)
(1.886669 -7.038752e-05 -0.0006684872)
(2.19395 -5.975307e-05 -0.001376949)
(2.338374 -0.0005511805 -0.002052026)
(2.365799 -0.0004808757 -0.003118662)
(2.227509 -0.00195274 -0.004694961)
(1.99368 -0.001747619 -0.005264071)
(1.483717 -0.004926685 -0.008955583)
(0.822319 -0.002306576 -0.01420252)
(0.003120303 -0.0001049598 -0.005246796)
(0.0006861788 -0.001638776 -0.007919816)
(0.0005117062 -0.002217533 -0.007360915)
(0.2958264 2.055395e-05 -1.342904e-05)
(0.60681 2.381154e-05 -8.082866e-05)
(0.7911589 3.467133e-05 -0.0002592188)
(0.8986976 -4.350511e-06 -0.0005115757)
(0.9533787 3.208175e-05 -0.0009232335)
(0.9561251 -0.0001928119 -0.00150154)
(0.9202073 -0.000141717 -0.002341293)
(0.8163817 -0.0008061991 -0.003894634)
(0.6635009 -0.0002096783 -0.006008382)
(0.3628729 -0.004725201 -0.01994999)
(0.001967513 -0.00835831 -0.007111733)
(0.0004860183 -0.007226244 -0.0103151)
(0.0006370972 -0.006983531 -0.007753765)
(0.0004817998 -0.007071777 -0.004952599)
(0.0004733539 -0.01065771 -0.0008607707)
(0.0005061124 -0.008798448 -0.001686453)
(0.0004041929 -0.00840062 -0.003202589)
(0.000520058 -0.007947812 -0.001512973)
(0.0004226584 -0.008378636 -0.01001925)
(0.0004851517 -0.005208991 -0.000613801)
(0.0004508587 -0.005340608 -0.001236689)
(0.0004740111 -0.005433159 -0.002664292)
(0.0003614709 -0.005600373 -0.001148592)
(0.0004765383 -0.005761323 -0.008797167)
(4.121309e-05 -0.0006917945 -0.00362672)
(0.00046235 -0.003829754 -0.0003939855)
(0.000469015 -0.003931341 -0.000806692)
(0.0004269935 -0.004025513 -0.002184168)
(0.0004397254 -0.004109328 -0.0008161177)
(0.0003349717 -0.004276015 -0.008016131)
(4.470664e-05 -0.0004902877 -0.003259835)
(3.426085e-05 -0.0004912522 -0.004183047)
(0.0004696226 -0.002060415 -0.0003579705)
(0.0004565203 -0.002149591 -0.0007271497)
(0.0004560288 -0.002215143 -0.002029394)
(0.0004078516 -0.002290556 -0.0007335231)
(0.0004240246 -0.002363304 -0.007510811)
(3.278039e-05 -0.0002738707 -0.003021684)
(3.725786e-05 -0.0002615507 -0.003816078)
(3.183677e-05 -0.0002831504 -0.004053106)
(0.0004677 -0.0006882498 -0.0003370009)
(0.0004684315 -0.0007144509 -0.0006780068)
(0.0004491183 -0.0007381602 -0.00192078)
(0.0004436486 -0.0007531446 -0.000682996)
(0.0003997803 -0.0007861039 -0.007126352)
(4.406606e-05 -9.013897e-05 -0.002851636)
(2.814766e-05 -8.628804e-05 -0.003561914)
(3.485649e-05 -9.028424e-05 -0.003740314)
(3.046663e-05 -9.628228e-05 -0.003623868)
(0.3022461 -0.0002580762 -0.0002492728)
(0.5971794 0.0006767837 0.0006076335)
(0.8248683 -0.001396509 -0.001544729)
(0.8426155 0.002264532 0.0004331957)
(1.056525 -0.005851874 -0.002356894)
(0.8255905 -0.07284258 0.003979097)
(0.605675 0.0001914306 0.0001770771)
(1.410655 -0.0007041794 -0.00101527)
(1.860182 0.001586516 0.00058298)
(2.267969 -0.002033451 -0.00308079)
(2.203148 0.004953961 -0.001231861)
(2.527995 -0.01952025 0.001890067)
(1.750791 -0.1729874 0.06635)
(0.7960852 -0.0001709265 -0.0002293597)
(1.881138 0.0004245519 5.100479e-05)
(2.656245 -0.0007024602 -0.001986407)
(3.032818 0.002091483 -0.0007541387)
(3.401695 -0.001495177 -0.003784609)
(3.135549 0.006292404 -0.003979518)
(3.354116 -0.02079754 0.01192718)
(2.077889 -0.1693786 0.133583)
(0.8965385 3.037036e-05 6.161402e-07)
(2.196584 -0.0001655438 -0.0007728253)
(3.05934 0.000449394 -0.0006994169)
(3.667448 -0.0003135424 -0.002900054)
(3.850984 0.001869015 -0.00267322)
(4.038972 -0.0004728332 -0.00396874)
(3.498976 0.004593722 -0.006918252)
(3.422565 -0.01433639 0.01891357)
(1.876052 -0.09867608 0.1367861)
(0.9477024 -1.92122e-05 -0.0001421216)
(2.323164 4.141626e-05 -0.0003123848)
(3.295715 -3.613149e-05 -0.001597644)
(3.874851 0.0002289928 -0.001840433)
(4.237251 -7.496386e-06 -0.003644032)
(4.164375 0.0008244785 -0.004534736)
(4.08506 1.425573e-05 -0.003675181)
(3.239951 0.001544084 -0.009031341)
(2.728189 -0.004406362 0.01692322)
(1.061441 -0.01994026 0.0336486)
(0.9451251 6.047284e-06 -6.691419e-05)
(2.327072 1.982415e-05 -0.0005899351)
(3.277755 -8.031631e-05 -0.001025829)
(3.901999 -1.301063e-05 -0.002436888)
(4.17769 -0.0003176469 -0.003036527)
(4.265235 -0.0001209541 -0.004132116)
(3.920761 -0.0009753989 -0.005956664)
(3.534496 -0.0001430792 -0.002990263)
(2.400744 -0.00127004 -0.008696416)
(1.383445 0.001971655 -0.004784752)
(0.004284266 8.583718e-05 -0.00368579)
(0.8959845 2.262012e-05 -8.526855e-05)
(2.182167 -9.02971e-06 -0.0004227056)
(3.070073 -1.396954e-06 -0.001258677)
(3.619805 -0.0003546632 -0.001881402)
(3.917057 -0.0002286176 -0.003161699)
(3.915258 -0.001192826 -0.004126707)
(3.746615 -0.000751444 -0.004451959)
(3.162084 -0.003089555 -0.006787001)
(2.473432 -0.0006166274 -0.002702821)
(1.114248 -0.002252013 -0.008531397)
(0.005356776 1.930657e-05 -0.003414176)
(0.0005493147 -0.000262898 -0.005883404)
(0.7891714 2.856332e-05 -6.006736e-05)
(1.884406 9.36752e-06 -0.0003720225)
(2.616955 -9.273731e-05 -0.0009459509)
(3.076569 -0.0001208472 -0.001843122)
(3.297038 -0.0007054641 -0.002638154)
(3.335807 -0.0006663376 -0.003733879)
(3.129846 -0.002228896 -0.00511562)
(2.77049 -0.001818237 -0.004866964)
(2.028668 -0.004710195 -0.007233315)
(1.082087 -0.001066796 -0.007924048)
(0.003957566 -3.652092e-05 -0.003673653)
(0.0006957707 -0.00085594 -0.005819881)
(0.0005160901 -0.001183006 -0.006347037)
(0.6061857 3.418403e-05 -4.5627e-05)
(1.385344 3.228578e-06 -0.0002372503)
(1.886296 -4.447449e-05 -0.0006672208)
(2.18875 -0.0001762635 -0.001250542)
(2.342227 -0.0002521409 -0.002072232)
(2.351981 -0.0009131268 -0.003054811)
(2.245868 -0.001124919 -0.004153809)
(1.958873 -0.002907178 -0.006039329)
(1.531212 -0.002721414 -0.006706563)
(0.774136 -0.004414537 -0.01448684)
(0.003502604 -8.070835e-05 -0.004927869)
(0.0005038454 -0.001571003 -0.007444522)
(0.0006474425 -0.002120575 -0.006463293)
(0.0004903993 -0.002660881 -0.004000274)