/*--------------------------------*- C++ -*----------------------------------*\
| =========                 |                                                 |
| \\      /  F ield         | OpenFOAM: The Open Source CFD Toolbox           |
|  \\    /   O peration     | Version:  2306                                  |
|   \\  /    A nd           | Website:  www.openfoam.com                      |
|    \\/     M anipulation  |                                                 |
\*---------------------------------------------------------------------------*/
FoamFile
{
    version     2.0;
    format      ascii;
    arch        "LSB;label=32;scalar=64";
    class       volScalarField;
    location    "0.3/air";
    object      X.N2;
}
// * * * * * * * * * * * * * * * * * * * * * * * * * * * * * * * * * * * * * //

dimensions      [0 0 0 0 0 0 0];

internalField   nonuniform List<scalar> 
16000
(
0.7930376
0.7930308
0.7943408
0.7930735
0.7930224
0.7942575
0.7930622
0.7966261
0.7944499
0.7931605
0.7930156
0.7941471
0.7930497
0.7965311
0.79434
0.7931381
0.7989797
0.7967509
0.7947288
0.7933289
0.7930115
0.7940516
0.7930404
0.7964013
0.7942011
0.7931138
0.7988846
0.7966277
0.794586
0.7932862
0.8012853
0.7991062
0.7970613
0.7952317
0.793634
0.7930115
0.7939978
0.7930351
0.7962861
0.7940843
0.7930962
0.7987542
0.7964665
0.7944068
0.7932381
0.8011931
0.7989834
0.796905
0.7950581
0.7935621
0.8035107
0.8014078
0.7994194
0.7976098
0.7960018
0.7941572
0.8249947
0.7930156
0.7939978
0.7930351
0.7962198
0.7940195
0.7930872
0.7986382
0.7963271
0.7942572
0.7932028
0.8010669
0.7988224
0.7967033
0.7948371
0.793474
0.8034225
0.801289
0.7992651
0.7974239
0.7958021
0.7940582
0.8056512
0.8036285
0.8017106
0.7999697
0.7984386
0.7970752
0.7949879
0.8239178
0.8267641
0.8251642
0.7930224
0.7940516
0.7930404
0.7962198
0.7940195
0.7930872
0.7985713
0.7962479
0.7941744
0.7931847
0.8009546
0.7986826
0.7965306
0.7946507
0.7934074
0.8033015
0.8011332
0.7990656
0.7971833
0.7955449
0.7939279
0.8055665
0.8035147
0.8015619
0.7997887
0.7982284
0.7968447
0.794856
0.8077125
0.8057639
0.8039194
0.8022416
0.8007948
0.7995794
0.7985003
0.7962471
0.8217413
0.8257876
0.8240913
0.8278465
0.8269215
0.8255027
0.7930308
0.7941471
0.7930497
0.7962861
0.7940843
0.7930962
0.7985713
0.7962479
0.7941744
0.7931847
0.8008898
0.798603
0.7964332
0.7945467
0.7933725
0.803194
0.8009982
0.7988943
0.7969772
0.7953229
0.7938174
0.8054505
0.8033656
0.8013699
0.7995541
0.797954
0.7965461
0.794674
0.8076312
0.8056548
0.8037772
0.8020681
0.8005936
0.7993479
0.7982315
0.7960515
0.8097018
0.8078209
0.8060427
0.8044294
0.8030357
0.8019199
0.8010562
0.8003278
0.7981205
0.8183826
0.8238186
0.8219287
0.8269261
0.825948
0.8244367
0.8287857
0.827994
0.8272358
0.8260089
0.7930376
0.7942575
0.7930622
0.7964013
0.7942011
0.7931138
0.7986382
0.7963271
0.7942572
0.7932028
0.8008898
0.798603
0.7964332
0.7945467
0.7933725
0.803132
0.8009213
0.7987974
0.796861
0.7951978
0.7937556
0.8053474
0.8032364
0.8012051
0.7993527
0.7977179
0.7962907
0.7945143
0.8075198
0.8055119
0.8035936
0.8018436
0.8003307
0.7990427
0.7978813
0.7957829
0.8096235
0.807716
0.8059063
0.8042636
0.8028439
0.8017025
0.8007988
0.799994
0.7977559
0.8116262
0.8098061
0.8080887
0.8065312
0.8051915
0.8041152
0.8033609
0.8028928
0.8026269
0.8009554
0.8135222
0.820794
0.8186226
0.8250709
0.8239902
0.8222973
0.8279127
0.8270763
0.8262676
0.8249515
0.8297335
0.8289255
0.8282887
0.8277062
0.8266818
0.7943408
0.7930735
0.7965311
0.79434
0.7931381
0.7987542
0.7964665
0.7944068
0.7932381
0.8009546
0.7986826
0.7965306
0.7946507
0.7934074
0.803132
0.8009213
0.7987974
0.796861
0.7951978
0.7937556
0.805288
0.8031628
0.801112
0.7992388
0.7975844
0.7961469
0.7944233
0.8074208
0.805388
0.8034361
0.8016511
0.8001038
0.7987787
0.7975822
0.7955518
0.8095162
0.8075788
0.8057302
0.8040492
0.8025937
0.8014151
0.800457
0.7995648
0.7973157
0.8115506
0.8097051
0.8079576
0.8063722
0.8050084
0.8039088
0.8031224
0.8025828
0.8021393
0.8000895
0.8134918
0.8117269
0.8100639
0.8085582
0.8072612
0.8062266
0.8054939
0.8051331
0.8051337
0.805541
0.8055868
0.8164532
0.8140187
0.8222231
0.8210092
0.8190695
0.8261535
0.8252312
0.824328
0.8228381
0.8289006
0.8280549
0.8273756
0.8267442
0.8256329
0.8307481
0.8298667
0.8292045
0.8287297
0.8283316
0.8276523
0.7966261
0.7944499
0.7931605
0.7988846
0.7966277
0.794586
0.7932862
0.8010669
0.7988224
0.7967033
0.7948371
0.793474
0.803194
0.8009982
0.7988943
0.7969772
0.7953229
0.7938174
0.805288
0.8031628
0.801112
0.7992388
0.7975844
0.7961469
0.7944233
0.8073637
0.8053175
0.803347
0.8015423
0.7999752
0.7986291
0.7974141
0.7954218
0.8094209
0.8074598
0.8055793
0.8038654
0.8023782
0.8011656
0.8001609
0.7992038
0.7969679
0.8114471
0.8095729
0.8077885
0.8061667
0.8047698
0.8036367
0.8028045
0.8021776
0.8015626
0.7993135
0.8134187
0.8116294
0.8099376
0.8084054
0.8070856
0.8060298
0.8052679
0.8048466
0.8046828
0.8046155
0.803117
0.8153034
0.8135892
0.8119758
0.810516
0.80926
0.808253
0.8075475
0.8071857
0.8072738
0.8079035
0.8094774
0.8078961
0.8181404
0.8168858
0.8147585
0.8234541
0.8224237
0.8214115
0.8196885
0.8272223
0.826305
0.8255469
0.8248246
0.823543
0.8299505
0.8290361
0.8283382
0.827822
0.8273757
0.8266123
0.8318068
0.8308757
0.8301328
0.8296222
0.8293163
0.8292342
0.8278523
0.7989797
0.7967509
0.7947288
0.7933289
0.8011931
0.7989834
0.796905
0.7950581
0.7935621
0.8033015
0.8011332
0.7990656
0.7971833
0.7955449
0.7939279
0.8053474
0.8032364
0.8012051
0.7993527
0.7977179
0.7962907
0.7945143
0.8073637
0.8053175
0.803347
0.8015423
0.7999752
0.7986291
0.7974141
0.7954218
0.8093659
0.8073921
0.805494
0.8037616
0.8022562
0.8010238
0.7999934
0.799003
0.7967812
0.811355
0.8094583
0.8076436
0.8059906
0.8045644
0.8034009
0.8025282
0.8018324
0.8011035
0.7987841
0.8133185
0.8115017
0.8097747
0.8082079
0.8068569
0.8057704
0.8049675
0.8044706
0.8041448
0.8037539
0.8018046
0.8152325
0.8134948
0.8118538
0.8103686
0.8090911
0.808064
0.8073319
0.8069138
0.8068531
0.8070387
0.8071725
0.8049966
0.8170654
0.8153978
0.8138299
0.8124122
0.8111919
0.8102138
0.809519
0.8091671
0.8092265
0.8099006
0.8115907
0.8114526
0.8096905
0.8195866
0.8185439
0.8175348
0.8156186
0.8246477
0.8236435
0.8227987
0.8219713
0.8204536
0.8283434
0.8273666
0.8266035
0.8260111
0.8254732
0.8245423
0.8310401
0.8300802
0.8293061
0.8287607
0.8284136
0.828284
0.8268141
0.8329023
0.8319294
0.8311306
0.8305311
0.8301779
0.830163
0.8294203
0.8280541
0.8012853
0.7991062
0.7970613
0.7952317
0.793634
0.8034225
0.801289
0.7992651
0.7974239
0.7958021
0.7940582
0.8054505
0.8033656
0.8013699
0.7995541
0.797954
0.7965461
0.794674
0.8074208
0.805388
0.8034361
0.8016511
0.8001038
0.7987787
0.7975822
0.7955518
0.8093659
0.8073921
0.805494
0.8037616
0.8022562
0.8010238
0.7999934
0.799003
0.7967812
0.811302
0.8093931
0.8075617
0.8058912
0.804448
0.8032671
0.8023712
0.8016392
0.8008557
0.7985197
0.8132294
0.8113911
0.8096351
0.8080387
0.80666
0.8055457
0.8047068
0.8041493
0.8037131
0.8031432
0.8010441
0.8151355
0.8133713
0.8116965
0.8101783
0.8088711
0.8078152
0.8070454
0.8065579
0.8063504
0.806232
0.8058662
0.8034082
0.8169966
0.8153063
0.8137118
0.8122699
0.8110289
0.8100318
0.8093118
0.8089075
0.8088262
0.8090853
0.8094244
0.8087772
0.8066607
0.8187815
0.8171569
0.815631
0.814252
0.813065
0.8121108
0.8114317
0.8110723
0.8111199
0.8117294
0.8133869
0.8134381
0.8129967
0.8111577
0.82096
0.8199673
0.8191485
0.8182954
0.8165402
0.8258783
0.8248279
0.8239974
0.8233205
0.8226665
0.8214909
0.8294955
0.8284815
0.8276509
0.8270424
0.8266174
0.8263946
0.8247481
0.8321634
0.8311648
0.8303388
0.8297089
0.8293208
0.8292648
0.8284712
0.8270177
0.8340185
0.8330205
0.8321744
0.8315122
0.831061
0.83098
0.8303376
0.829608
0.8282576
0.8035107
0.8014078
0.7994194
0.7976098
0.7960018
0.7941572
0.8055665
0.8035147
0.8015619
0.7997887
0.7982284
0.7968447
0.794856
0.8075198
0.8055119
0.8035936
0.8018436
0.8003307
0.7990427
0.7978813
0.7957829
0.8094209
0.8074598
0.8055793
0.8038654
0.8023782
0.8011656
0.8001609
0.7992038
0.7969679
0.811302
0.8093931
0.8075617
0.8058912
0.804448
0.8032671
0.8023712
0.8016392
0.8008557
0.7985197
0.8131781
0.8113282
0.8095562
0.8079432
0.8065487
0.8054182
0.804559
0.8039691
0.8034792
0.802831
0.8006879
0.8150492
0.8132643
0.8115616
0.8100153
0.8086818
0.8075998
0.8067969
0.8062544
0.8059465
0.8056584
0.8050727
0.8025117
0.8169024
0.8151866
0.8135595
0.812086
0.8108168
0.8097923
0.8090367
0.8085675
0.8083487
0.8083254
0.8081952
0.8072397
0.8048937
0.8187147
0.8170682
0.8155165
0.8141142
0.8129074
0.8119351
0.811232
0.8108224
0.8107369
0.8109522
0.8113366
0.8109205
0.8102053
0.8081175
0.820455
0.8188705
0.8173833
0.8160401
0.8148836
0.8139527
0.8132847
0.8129264
0.8129463
0.8135143
0.8150505
0.8151326
0.814879
0.8142686
0.8123955
0.8223482
0.8213223
0.8205377
0.8198561
0.8191171
0.8176491
0.8271263
0.8260507
0.8251648
0.8244901
0.8239684
0.8236132
0.8217042
0.830675
0.8296282
0.8287536
0.828069
0.8276158
0.827479
0.8265844
0.8249556
0.8333048
0.8322836
0.8314133
0.8307246
0.8302428
0.8301267
0.8294402
0.82866
0.8272229
0.8351487
0.8341327
0.8332566
0.8325413
0.8320198
0.8318259
0.8311453
0.8305136
0.8297972
0.8284628
0.8056512
0.8036285
0.8017106
0.7999697
0.7984386
0.7970752
0.7949879
0.8076312
0.8056548
0.8037772
0.8020681
0.8005936
0.7993479
0.7982315
0.7960515
0.8095162
0.8075788
0.8057302
0.8040492
0.8025937
0.8014151
0.800457
0.7995648
0.7973157
0.811355
0.8094583
0.8076436
0.8059906
0.8045644
0.8034009
0.8025282
0.8018324
0.8011035
0.7987841
0.8131781
0.8113282
0.8095562
0.8079432
0.8065487
0.8054182
0.804559
0.8039691
0.8034792
0.802831
0.8006879
0.8149995
0.8132034
0.8114855
0.8099232
0.8085748
0.8074776
0.806656
0.8060845
0.8057274
0.8053646
0.8046904
0.8020997
0.8168187
0.8150829
0.8134291
0.8119285
0.8106342
0.809585
0.8087982
0.8082778
0.8079659
0.8077852
0.8074472
0.8063357
0.8038938
0.8186231
0.816952
0.815369
0.8139362
0.8127023
0.8117038
0.8109668
0.8104956
0.8102801
0.8102286
0.810174
0.8094712
0.8085154
0.8062496
0.8203899
0.8187842
0.8172722
0.8159064
0.8147309
0.8137827
0.8130917
0.8126855
0.8125777
0.8127701
0.8130954
0.812748
0.8122489
0.8114616
0.8093815
0.8220885
0.8205415
0.8190904
0.8177803
0.8166522
0.8157427
0.8150872
0.8147264
0.8147306
0.8152457
0.8166919
0.816713
0.8164928
0.8160628
0.8153511
0.8136167
0.8237339
0.8226946
0.821865
0.8212051
0.8206198
0.8201142
0.8178761
0.8283921
0.8272919
0.8263729
0.8256336
0.8251019
0.8248509
0.8238079
0.8219188
0.831867
0.8308028
0.8298896
0.8291539
0.8286152
0.8284306
0.8276565
0.8267757
0.8251647
0.834458
0.8334209
0.8325231
0.8317841
0.831236
0.8310111
0.8302928
0.8296171
0.8288504
0.8274299
0.8362851
0.8352592
0.8343608
0.8336102
0.8330293
0.8327527
0.8319836
0.8313121
0.8306911
0.8299881
0.8287132
0.8077125
0.8057639
0.8039194
0.8022416
0.8007948
0.7995794
0.7985003
0.7962471
0.8096235
0.807716
0.8059063
0.8042636
0.8028439
0.8017025
0.8007988
0.799994
0.7977559
0.8114471
0.8095729
0.8077885
0.8061667
0.8047698
0.8036367
0.8028045
0.8021776
0.8015626
0.7993135
0.8132294
0.8113911
0.8096351
0.8080387
0.80666
0.8055457
0.8047068
0.8041493
0.8037131
0.8031432
0.8010441
0.8149995
0.8132034
0.8114855
0.8099232
0.8085748
0.8074776
0.806656
0.8060845
0.8057274
0.8053646
0.8046904
0.8020997
0.8167704
0.8150239
0.8133554
0.8118396
0.810531
0.8094674
0.808663
0.8081154
0.8077585
0.8075085
0.8070862
0.8059093
0.8034375
0.8185417
0.8168514
0.8152425
0.8137837
0.8125259
0.8115037
0.810737
0.8102171
0.8099138
0.8097149
0.8094669
0.8086176
0.8075254
0.8051816
0.8203008
0.8186713
0.8171289
0.8157338
0.8145323
0.813559
0.8128355
0.8123702
0.8121383
0.8120772
0.811987
0.8113756
0.8106537
0.8096824
0.807471
0.8220251
0.8204575
0.8189824
0.8176505
0.8165041
0.8155778
0.8149003
0.8144933
0.814375
0.8145299
0.8148197
0.8144387
0.8140003
0.8134145
0.8125574
0.8106355
0.8236847
0.8221728
0.8207554
0.8194763
0.8183745
0.817485
0.8168409
0.8164809
0.8164674
0.8169451
0.8182985
0.8182822
0.8180078
0.8176093
0.8170672
0.8164299
0.8138646
0.8251234
0.8240666
0.8232135
0.8224998
0.8219251
0.8215455
0.8203184
0.8181033
0.8296619
0.8285515
0.8276014
0.8268215
0.826216
0.8259351
0.8250324
0.8240039
0.8221347
0.8330666
0.8319905
0.8310547
0.8302742
0.8296768
0.8293915
0.8285985
0.8278354
0.8269685
0.8253754
0.8356156
0.8345703
0.8336522
0.8328805
0.8322756
0.8319719
0.8311695
0.8304603
0.8297955
0.8290423
0.8276823
0.8374237
0.8363922
0.83548
0.8347024
0.8340807
0.8337338
0.8329037
0.8321426
0.8314803
0.8308702
0.830221
0.8289695
0.8097018
0.8078209
0.8060427
0.8044294
0.8030357
0.8019199
0.8010562
0.8003278
0.7981205
0.8115506
0.8097051
0.8079576
0.8063722
0.8050084
0.8039088
0.8031224
0.8025828
0.8021393
0.8000895
0.8133185
0.8115017
0.8097747
0.8082079
0.8068569
0.8057704
0.8049675
0.8044706
0.8041448
0.8037539
0.8018046
0.8150492
0.8132643
0.8115616
0.8100153
0.8086818
0.8075998
0.8067969
0.8062544
0.8059465
0.8056584
0.8050727
0.8025117
0.8167704
0.8150239
0.8133554
0.8118396
0.810531
0.8094674
0.808663
0.8081154
0.8077585
0.8075085
0.8070862
0.8059093
0.8034375
0.8184948
0.8167941
0.8151711
0.8136977
0.8124261
0.8113903
0.8106068
0.8100613
0.8097154
0.809452
0.8091258
0.8082144
0.8070627
0.8046949
0.8202216
0.8185735
0.8170062
0.815586
0.8143614
0.8133654
0.8126135
0.8121018
0.8117861
0.8115852
0.8113133
0.8105675
0.8097175
0.8086334
0.8063696
0.8219383
0.8203477
0.8188431
0.8174829
0.8163114
0.815361
0.8146522
0.8141884
0.8139512
0.8138634
0.8137581
0.8131298
0.8124885
0.8117326
0.8107356
0.8087293
0.8236229
0.822091
0.8206503
0.8193501
0.8182306
0.817325
0.8166596
0.8162551
0.8161235
0.8162549
0.8164986
0.8161043
0.8156301
0.8150981
0.8144278
0.8136503
0.81089
0.8252458
0.8237669
0.8223812
0.8211309
0.8200538
0.8191831
0.8185501
0.8181907
0.8181647
0.8186055
0.8198861
0.8198262
0.8195205
0.8190699
0.8185555
0.8180646
0.816649
0.8141108
0.8265047
0.8254437
0.8245648
0.8238205
0.8231845
0.8227974
0.821735
0.8205229
0.818331
0.8309327
0.8298159
0.8288496
0.8280321
0.8273786
0.827009
0.8261065
0.825215
0.824201
0.8223519
0.8342668
0.8331861
0.8322338
0.8314252
0.8307767
0.83042
0.8295514
0.8287676
0.8280156
0.8271628
0.8256323
0.8367737
0.8357245
0.8347942
0.8339974
0.8333542
0.832983
0.8321235
0.8313291
0.8306292
0.8299754
0.8292765
0.8279408
0.8385613
0.8375277
0.8366063
0.8358106
0.8351569
0.8347598
0.8338791
0.8330561
0.832303
0.8316499
0.8310886
0.8304592
0.8291646
0.8116262
0.8098061
0.8080887
0.8065312
0.8051915
0.8041152
0.8033609
0.8028928
0.8026269
0.8009554
0.8134187
0.8116294
0.8099376
0.8084054
0.8070856
0.8060298
0.8052679
0.8048466
0.8046828
0.8046155
0.803117
0.8151355
0.8133713
0.8116965
0.8101783
0.8088711
0.8078152
0.8070454
0.8065579
0.8063504
0.806232
0.8058662
0.8034082
0.8168187
0.8150829
0.8134291
0.8119285
0.8106342
0.809585
0.8087982
0.8082778
0.8079659
0.8077852
0.8074472
0.8063357
0.8038938
0.8184948
0.8167941
0.8151711
0.8136977
0.8124261
0.8113903
0.8106068
0.8100613
0.8097154
0.809452
0.8091258
0.8082144
0.8070627
0.8046949
0.820176
0.8185178
0.8169368
0.8155026
0.8142647
0.8132557
0.8124877
0.8119515
0.8115954
0.8113334
0.8109885
0.8101859
0.8092794
0.8081448
0.8058674
0.8218612
0.8202525
0.8187238
0.8173394
0.8161456
0.8151734
0.8144373
0.8139289
0.8136115
0.8133903
0.8131128
0.8123594
0.8116012
0.810739
0.8096545
0.8076277
0.8235383
0.821984
0.8205148
0.8191871
0.8180434
0.8171146
0.816419
0.8159598
0.8157136
0.8156122
0.8154777
0.8148505
0.8141878
0.8135028
0.8127027
0.8118211
0.808985
0.8251855
0.8236871
0.8222788
0.8210081
0.8199139
0.8190276
0.818374
0.8179716
0.8178316
0.8179384
0.8181512
0.8177324
0.8172434
0.8166738
0.8160512
0.8154336
0.8138722
0.8111429
0.8267739
0.825326
0.8239701
0.822747
0.821693
0.8208399
0.8202174
0.8198594
0.819822
0.8202333
0.8214459
0.8213577
0.8210154
0.820536
0.8199695
0.8194938
0.8182671
0.8168668
0.8143555
0.8278774
0.8268139
0.8259234
0.8251475
0.8244752
0.8240139
0.822976
0.8219248
0.8207278
0.8185589
0.8321983
0.8310816
0.8301037
0.8292645
0.8285672
0.8281373
0.8271721
0.8262789
0.8253987
0.8243994
0.8226163
0.8354644
0.8343826
0.8334214
0.8325916
0.8319094
0.8314907
0.8305731
0.8297126
0.8289382
0.8281973
0.8273998
0.8258954
0.8379296
0.8368794
0.8359415
0.8351283
0.8344551
0.834036
0.8331288
0.8322765
0.8314902
0.8307995
0.8301949
0.8295161
0.8281375
0.8396957
0.8386624
0.8377355
0.8369268
0.8362505
0.835813
0.8348998
0.8340255
0.8332097
0.8324647
0.8318568
0.831312
0.8306404
0.829297
0.8134918
0.8117269
0.8100639
0.8085582
0.8072612
0.8062266
0.8054939
0.8051331
0.8051337
0.805541
0.8055868
0.8152325
0.8134948
0.8118538
0.8103686
0.8090911
0.808064
0.8073319
0.8069138
0.8068531
0.8070387
0.8071725
0.8049966
0.8169024
0.8151866
0.8135595
0.812086
0.8108168
0.8097923
0.8090367
0.8085675
0.8083487
0.8083254
0.8081952
0.8072397
0.8048937
0.8185417
0.8168514
0.8152425
0.8137837
0.8125259
0.8115037
0.810737
0.8102171
0.8099138
0.8097149
0.8094669
0.8086176
0.8075254
0.8051816
0.820176
0.8185178
0.8169368
0.8155026
0.8142647
0.8132557
0.8124877
0.8119515
0.8115954
0.8113334
0.8109885
0.8101859
0.8092794
0.8081448
0.8058674
0.8218168
0.8201983
0.8186565
0.8172584
0.8160519
0.8150671
0.8143156
0.8137836
0.8134275
0.8131483
0.8128016
0.8119957
0.811186
0.8102754
0.8091511
0.8071254
0.8234631
0.8218912
0.8203987
0.8190476
0.8178824
0.8169325
0.8162106
0.8157085
0.8153852
0.8151559
0.8148572
0.8141126
0.8133415
0.8125604
0.8116769
0.8107328
0.8078838
0.8251029
0.8235828
0.8221468
0.8208494
0.8197318
0.818823
0.8181403
0.8176851
0.8174345
0.817317
0.8171669
0.8165268
0.8158617
0.8151516
0.814414
0.813698
0.8120418
0.8092396
0.826715
0.8252482
0.8238702
0.8226272
0.8215567
0.8206886
0.8200461
0.8196465
0.8194988
0.8195873
0.8197695
0.8193395
0.8188262
0.818241
0.8175794
0.8169957
0.8156378
0.8140926
0.811394
0.8282708
0.8268522
0.8255243
0.8243267
0.8232945
0.8224581
0.8218457
0.8214892
0.8214423
0.8218267
0.8229817
0.822867
0.8225031
0.8219905
0.821396
0.8208607
0.8196843
0.8184684
0.8170832
0.8145986
0.8292367
0.8281765
0.8272771
0.8264846
0.8257761
0.8252681
0.8241837
0.8231549
0.822115
0.820933
0.8188352
0.8334564
0.8323426
0.83136
0.8305043
0.8297799
0.8292959
0.8282934
0.8273362
0.8264524
0.8255836
0.8246409
0.822887
0.8366569
0.8355768
0.8346107
0.8337677
0.8330592
0.8325975
0.8316378
0.8307274
0.8298751
0.82911
0.8284189
0.8276422
0.8260956
0.8390809
0.8380323
0.8370901
0.8362653
0.8355712
0.8351136
0.8341765
0.8332758
0.8324307
0.8316525
0.8310073
0.8304193
0.8296984
0.8282711
0.8408252
0.8397941
0.8388644
0.8380466
0.8373533
0.8368855
0.8359482
0.8350409
0.8341732
0.8333647
0.8326621
0.8320683
0.8314818
0.8307633
0.8293648
0.8135222
0.8153034
0.8135892
0.8119758
0.810516
0.80926
0.808253
0.8075475
0.8071857
0.8072738
0.8079035
0.8094774
0.8078961
0.8169966
0.8153063
0.8137118
0.8122699
0.8110289
0.8100318
0.8093118
0.8089075
0.8088262
0.8090853
0.8094244
0.8087772
0.8066607
0.8186231
0.816952
0.815369
0.8139362
0.8127023
0.8117038
0.8109668
0.8104956
0.8102801
0.8102286
0.810174
0.8094712
0.8085154
0.8062496
0.8202216
0.8185735
0.8170062
0.815586
0.8143614
0.8133654
0.8126135
0.8121018
0.8117861
0.8115852
0.8113133
0.8105675
0.8097175
0.8086334
0.8063696
0.8218168
0.8201983
0.8186565
0.8172584
0.8160519
0.8150671
0.8143156
0.8137836
0.8134275
0.8131483
0.8128016
0.8119957
0.811186
0.8102754
0.8091511
0.8071254
0.8234197
0.8218385
0.8203331
0.8189688
0.8177914
0.8168293
0.8160926
0.8155678
0.8152073
0.8149223
0.814558
0.8137641
0.8129456
0.8121207
0.8111985
0.8102258
0.8073817
0.8250295
0.8234923
0.8220337
0.8207136
0.8195752
0.8186461
0.8179379
0.8174412
0.8171164
0.8168759
0.8165685
0.8158171
0.8150509
0.8142524
0.8134402
0.8126628
0.8109523
0.808139
0.8266343
0.8251463
0.8237415
0.8224727
0.8213794
0.8204896
0.8198189
0.8193681
0.8191135
0.8189855
0.8188183
0.8181772
0.8174977
0.8167827
0.8160167
0.8153471
0.8139003
0.8122614
0.8094929
0.8282132
0.8267762
0.8254268
0.8242099
0.8231617
0.8223107
0.8216789
0.8212821
0.8211283
0.8212001
0.821359
0.8209171
0.820393
0.8197841
0.8191064
0.818476
0.8171874
0.8158406
0.8143117
0.8116436
0.8297382
0.8283474
0.8270459
0.8258724
0.8248607
0.8240401
0.8234372
0.8230827
0.8230273
0.823388
0.8244908
0.8243568
0.823973
0.8234421
0.822816
0.8222476
0.8210417
0.8198735
0.8186683
0.8172983
0.8148909
0.8305815
0.8295265
0.8286245
0.8278189
0.8270899
0.8265373
0.8254304
0.8243538
0.8233341
0.8223054
0.8211819
0.8191181
0.8347051
0.8335964
0.8326124
0.8317476
0.8310019
0.8304818
0.8294458
0.8284504
0.8275014
0.826627
0.8258087
0.8248881
0.8230932
0.8378425
0.8367661
0.8357982
0.8349463
0.8342202
0.8337237
0.8327392
0.8317861
0.8308829
0.8300388
0.8293195
0.8286455
0.8278266
0.8262317
0.8402263
0.8391809
0.8382371
0.8374045
0.8366947
0.8362086
0.8352493
0.8343182
0.833424
0.8325862
0.8318506
0.8312197
0.8305898
0.829822
0.8283395
0.8419488
0.8409211
0.8399907
0.8391669
0.8384607
0.8379689
0.8370164
0.8360846
0.8351833
0.8343222
0.8335537
0.8328638
0.832229
0.8315969
0.8308261
0.8183826
0.8164532
0.8140187
0.8170654
0.8153978
0.8138299
0.8124122
0.8111919
0.8102138
0.809519
0.8091671
0.8092265
0.8099006
0.8115907
0.8114526
0.8096905
0.8187147
0.8170682
0.8155165
0.8141142
0.8129074
0.8119351
0.811232
0.8108224
0.8107369
0.8109522
0.8113366
0.8109205
0.8102053
0.8081175
0.8203008
0.8186713
0.8171289
0.8157338
0.8145323
0.813559
0.8128355
0.8123702
0.8121383
0.8120772
0.811987
0.8113756
0.8106537
0.8096824
0.807471
0.8218612
0.8202525
0.8187238
0.8173394
0.8161456
0.8151734
0.8144373
0.8139289
0.8136115
0.8133903
0.8131128
0.8123594
0.8116012
0.810739
0.8096545
0.8076277
0.8234197
0.8218385
0.8203331
0.8189688
0.8177914
0.8168293
0.8160926
0.8155678
0.8152073
0.8149223
0.814558
0.8137641
0.8129456
0.8121207
0.8111985
0.8102258
0.8073817
0.8249872
0.8234409
0.8219698
0.820637
0.8194867
0.8185458
0.8178233
0.8173047
0.8169441
0.8166502
0.81628
0.8154821
0.8146716
0.8138329
0.812986
0.8121796
0.8104447
0.8076371
0.8265626
0.825058
0.8236312
0.8223403
0.821227
0.8203174
0.8196222
0.8191313
0.8188049
0.8185583
0.8182399
0.817493
0.816718
0.8159212
0.8150874
0.8143636
0.8128634
0.8111709
0.8083933
0.8281343
0.8266766
0.8253012
0.8240592
0.8229889
0.8221168
0.8214578
0.8210114
0.820754
0.8206164
0.820438
0.8197939
0.8191122
0.8183818
0.8176092
0.8169019
0.8155368
0.8141015
0.81248
0.809745
0.8296819
0.828273
0.8269507
0.8257584
0.8247311
0.8238963
0.8232747
0.822881
0.8227218
0.8227795
0.8229174
0.8224693
0.8219342
0.8213153
0.8206147
0.8199627
0.8186579
0.8173778
0.8160421
0.8145293
0.8119436
0.831178
0.8298131
0.8285367
0.8273859
0.8263936
0.8255879
0.8249942
0.8246417
0.824579
0.8249183
0.8259742
0.8258237
0.8254269
0.8248796
0.824237
0.8236333
0.8224205
0.8212214
0.8200616
0.818867
0.8175571
0.8151902
0.8319107
0.8308627
0.8299606
0.8291486
0.8284032
0.8278228
0.8266931
0.825593
0.8245241
0.8235136
0.8225363
0.8214365
0.8193335
0.8359431
0.8348412
0.8338583
0.832988
0.832229
0.8316796
0.8306262
0.8295966
0.8286084
0.8276675
0.8268395
0.826039
0.8250761
0.8232333
0.8390199
0.8379488
0.8369813
0.836124
0.8353849
0.8348632
0.8338606
0.8328821
0.8319355
0.8310396
0.8302384
0.8295338
0.8288178
0.8279518
0.8263013
0.8413649
0.8403237
0.8393802
0.8385427
0.8378213
0.8373125
0.8363399
0.8353862
0.834461
0.8335735
0.8327759
0.832053
0.8313811
0.8307055
0.8298852
0.8430657
0.8420423
0.8411126
0.840285
0.8395693
0.8390583
0.8380958
0.8371484
0.8362221
0.8353269
0.8345039
0.8337469
0.8330169
0.8323379
0.8316556
0.8217413
0.820794
0.8186226
0.8181404
0.8168858
0.8147585
0.8187815
0.8171569
0.815631
0.814252
0.813065
0.8121108
0.8114317
0.8110723
0.8111199
0.8117294
0.8133869
0.8134381
0.8129967
0.8111577
0.8203899
0.8187842
0.8172722
0.8159064
0.8147309
0.8137827
0.8130917
0.8126855
0.8125777
0.8127701
0.8130954
0.812748
0.8122489
0.8114616
0.8093815
0.8219383
0.8203477
0.8188431
0.8174829
0.8163114
0.815361
0.8146522
0.8141884
0.8139512
0.8138634
0.8137581
0.8131298
0.8124885
0.8117326
0.8107356
0.8087293
0.8234631
0.8218912
0.8203987
0.8190476
0.8178824
0.8169325
0.8162106
0.8157085
0.8153852
0.8151559
0.8148572
0.8141126
0.8133415
0.8125604
0.8116769
0.8107328
0.8078838
0.8249872
0.8234409
0.8219698
0.820637
0.8194867
0.8185458
0.8178233
0.8173047
0.8169441
0.8166502
0.81628
0.8154821
0.8146716
0.8138329
0.812986
0.8121796
0.8104447
0.8076371
0.8265213
0.8250079
0.8235689
0.8222657
0.8211408
0.8202199
0.8195107
0.8189987
0.8186377
0.8183396
0.8179611
0.8171698
0.8163533
0.8155192
0.8146538
0.8139045
0.8123794
0.8106628
0.8078918
0.8280642
0.8265904
0.8251935
0.8239301
0.8228403
0.8219492
0.8212662
0.820781
0.8204541
0.820202
0.8198779
0.8191325
0.8183604
0.8175533
0.8167187
0.8159628
0.8145514
0.8130632
0.8113887
0.8086466
0.8296047
0.8281757
0.8268279
0.8256112
0.8245625
0.8237073
0.8230592
0.8226174
0.8223577
0.8222125
0.8220242
0.8213818
0.8206966
0.8199635
0.819175
0.8184544
0.8170818
0.8157254
0.8143017
0.8126974
0.8100486
0.8311228
0.8297404
0.8284436
0.8272745
0.8262671
0.8254475
0.8248357
0.8244451
0.8242815
0.8243265
0.8244464
0.8239935
0.8234533
0.8228247
0.822115
0.8214363
0.8201365
0.8188386
0.8175669
0.8162422
0.814791
0.8122508
0.8325912
0.8312513
0.8299984
0.8288692
0.8278951
0.8271035
0.8265186
0.8261683
0.826099
0.8264191
0.8274321
0.827268
0.8268607
0.8263039
0.825647
0.8250238
0.8237992
0.8225922
0.8214001
0.8202485
0.819106
0.8178219
0.8154181
0.8332238
0.8321839
0.831284
0.8304684
0.8297138
0.8291106
0.8279729
0.8268492
0.8257559
0.8246948
0.8237312
0.8227725
0.8216302
0.81948
0.8371697
0.8360756
0.8350956
0.8342228
0.8334545
0.8328846
0.831819
0.8307714
0.8297483
0.8287673
0.8278698
0.8270568
0.826214
0.8252037
0.823305
0.8401885
0.8391234
0.8381582
0.8372979
0.8365497
0.8360081
0.8349956
0.8339986
0.833026
0.8320861
0.8312307
0.8304424
0.8296965
0.8289346
0.8280157
0.8424958
0.8414599
0.8405178
0.8396776
0.8389478
0.838421
0.8374398
0.8364724
0.8355242
0.8346051
0.8337558
0.8329697
0.8322067
0.8314904
0.8307645
0.8441753
0.8431569
0.842229
0.8413993
0.8406767
0.8401502
0.8391815
0.8382237
0.8372815
0.8363608
0.835502
0.8346895
0.8338935
0.8331206
0.8323934
0.8239178
0.8238186
0.8219287
0.8222231
0.8210092
0.8190695
0.8195866
0.8185439
0.8175348
0.8156186
0.820455
0.8188705
0.8173833
0.8160401
0.8148836
0.8139527
0.8132847
0.8129264
0.8129463
0.8135143
0.8150505
0.8151326
0.814879
0.8142686
0.8123955
0.8220251
0.8204575
0.8189824
0.8176505
0.8165041
0.8155778
0.8149003
0.8144933
0.814375
0.8145299
0.8148197
0.8144387
0.8140003
0.8134145
0.8125574
0.8106355
0.8235383
0.821984
0.8205148
0.8191871
0.8180434
0.8171146
0.816419
0.8159598
0.8157136
0.8156122
0.8154777
0.8148505
0.8141878
0.8135028
0.8127027
0.8118211
0.808985
0.8250295
0.8234923
0.8220337
0.8207136
0.8195752
0.8186461
0.8179379
0.8174412
0.8171164
0.8168759
0.8165685
0.8158171
0.8150509
0.8142524
0.8134402
0.8126628
0.8109523
0.808139
0.8265213
0.8250079
0.8235689
0.8222657
0.8211408
0.8202199
0.8195107
0.8189987
0.8186377
0.8183396
0.8179611
0.8171698
0.8163533
0.8155192
0.8146538
0.8139045
0.8123794
0.8106628
0.8078918
0.8280238
0.8265414
0.8251327
0.8238573
0.8227563
0.8218541
0.8211578
0.8206521
0.8202917
0.8199899
0.8196079
0.8188203
0.8180087
0.8171668
0.8163032
0.8155245
0.8140915
0.8125785
0.8108802
0.8081458
0.8295361
0.8280914
0.8267227
0.8254852
0.8244175
0.8235438
0.8228726
0.8223931
0.8220661
0.8218099
0.821481
0.8207415
0.8199701
0.8191647
0.8183186
0.8175545
0.816141
0.8147385
0.8132621
0.8116057
0.8089521
0.8310472
0.8296452
0.8283235
0.8271307
0.8261024
0.825263
0.8246255
0.8241882
0.823927
0.8237751
0.8235789
0.822939
0.8222551
0.8215184
0.8207271
0.8199859
0.8186262
0.8172607
0.8159131
0.8145008
0.8129592
0.8103595
0.8325372
0.8311801
0.8299073
0.8287602
0.8277714
0.8269664
0.8263638
0.8259765
0.8258091
0.8258429
0.8259467
0.8254909
0.8249472
0.8243147
0.8235967
0.8229059
0.8216031
0.8203091
0.8190181
0.8177548
0.8164827
0.8150588
0.8124847
0.8339798
0.8326631
0.8314327
0.8303237
0.829367
0.8285887
0.8280122
0.8276641
0.827589
0.8278914
0.8288653
0.8286896
0.8282745
0.8277106
0.8270461
0.8264063
0.8251835
0.8239641
0.8227629
0.8215776
0.8204732
0.8193505
0.8180233
0.815573
0.8345206
0.8334897
0.8325933
0.8317768
0.8310161
0.830398
0.8292554
0.8281232
0.8270056
0.825919
0.8249016
0.8239536
0.8229521
0.8217618
0.8195549
0.8383844
0.8372986
0.8363231
0.8354498
0.8346756
0.8340898
0.8330194
0.8319592
0.8309176
0.829901
0.8289609
0.8280766
0.827222
0.8263327
0.825269
0.8413477
0.8402894
0.8393274
0.8384662
0.8377117
0.8371546
0.8361365
0.8351291
0.8341376
0.8331711
0.8322697
0.831426
0.8305974
0.8298068
0.8289942
0.8436186
0.8425885
0.8416491
0.8408075
0.8400718
0.8395307
0.8385446
0.8375682
0.8366059
0.8356633
0.8347808
0.8339421
0.8331169
0.8323108
0.8315462
0.8452775
0.8442644
0.8433391
0.8425086
0.8417808
0.841242
0.84027
0.8393057
0.8383528
0.8374158
0.83653
0.8356809
0.8348304
0.8339927
0.8331734
0.8249947
0.8257876
0.8240913
0.8250709
0.8239902
0.8222973
0.8234541
0.8224237
0.8214115
0.8196885
0.82096
0.8199673
0.8191485
0.8182954
0.8165402
0.8220885
0.8205415
0.8190904
0.8177803
0.8166522
0.8157427
0.8150872
0.8147264
0.8147306
0.8152457
0.8166919
0.816713
0.8164928
0.8160628
0.8153511
0.8136167
0.8236229
0.822091
0.8206503
0.8193501
0.8182306
0.817325
0.8166596
0.8162551
0.8161235
0.8162549
0.8164986
0.8161043
0.8156301
0.8150981
0.8144278
0.8136503
0.81089
0.8251029
0.8235828
0.8221468
0.8208494
0.8197318
0.818823
0.8181403
0.8176851
0.8174345
0.817317
0.8171669
0.8165268
0.8158617
0.8151516
0.814414
0.813698
0.8120418
0.8092396
0.8265626
0.825058
0.8236312
0.8223403
0.821227
0.8203174
0.8196222
0.8191313
0.8188049
0.8185583
0.8182399
0.817493
0.816718
0.8159212
0.8150874
0.8143636
0.8128634
0.8111709
0.8083933
0.8280238
0.8265414
0.8251327
0.8238573
0.8227563
0.8218541
0.8211578
0.8206521
0.8202917
0.8199899
0.8196079
0.8188203
0.8180087
0.8171668
0.8163032
0.8155245
0.8140915
0.8125785
0.8108802
0.8081458
0.8294966
0.8280435
0.8266633
0.8254141
0.8243356
0.8234511
0.8227669
0.8222675
0.8219081
0.8216039
0.8212191
0.8204391
0.8196302
0.818792
0.8179191
0.8171345
0.8157018
0.8142778
0.8127768
0.8110969
0.8084522
0.83098
0.8295627
0.8282207
0.8270076