/*--------------------------------*- C++ -*----------------------------------*\
| =========                 |                                                 |
| \\      /  F ield         | OpenFOAM: The Open Source CFD Toolbox           |
|  \\    /   O peration     | Version:  2306                                  |
|   \\  /    A nd           | Website:  www.openfoam.com                      |
|    \\/     M anipulation  |                                                 |
\*---------------------------------------------------------------------------*/
FoamFile
{
    version     2.0;
    format      ascii;
    arch        "LSB;label=32;scalar=64";
    class       volScalarField;
    location    "0.3/air";
    object      X.O2;
}
// * * * * * * * * * * * * * * * * * * * * * * * * * * * * * * * * * * * * * //

dimensions      [0 0 0 0 0 0 0];

internalField   nonuniform List<scalar> 
16000
(
0.2069624
0.2069692
0.2056592
0.2069265
0.2069776
0.2057425
0.2069378
0.2033739
0.2055501
0.2068395
0.2069844
0.2058529
0.2069503
0.2034689
0.20566
0.2068619
0.2010203
0.2032491
0.2052712
0.2066711
0.2069885
0.2059484
0.2069596
0.2035987
0.2057989
0.2068862
0.2011154
0.2033723
0.205414
0.2067138
0.1987147
0.2008938
0.2029387
0.2047683
0.206366
0.2069885
0.2060022
0.2069649
0.2037139
0.2059157
0.2069038
0.2012458
0.2035335
0.2055932
0.2067619
0.1988069
0.2010166
0.203095
0.2049419
0.2064379
0.1964893
0.1985922
0.2005806
0.2023902
0.2039982
0.2058428
0.1750053
0.2069844
0.2060022
0.2069649
0.2037802
0.2059805
0.2069128
0.2013618
0.2036729
0.2057428
0.2067972
0.1989331
0.2011776
0.2032967
0.2051629
0.206526
0.1965775
0.198711
0.2007349
0.2025761
0.2041979
0.2059418
0.1943488
0.1963715
0.1982894
0.2000303
0.2015614
0.2029248
0.2050121
0.1760822
0.1732359
0.1748358
0.2069776
0.2059484
0.2069596
0.2037802
0.2059805
0.2069128
0.2014287
0.2037521
0.2058256
0.2068153
0.1990454
0.2013174
0.2034694
0.2053493
0.2065926
0.1966985
0.1988668
0.2009344
0.2028167
0.2044551
0.2060721
0.1944335
0.1964853
0.1984381
0.2002113
0.2017716
0.2031553
0.205144
0.1922875
0.1942361
0.1960806
0.1977584
0.1992052
0.2004206
0.2014997
0.2037529
0.1782587
0.1742124
0.1759087
0.1721535
0.1730785
0.1744973
0.2069692
0.2058529
0.2069503
0.2037139
0.2059157
0.2069038
0.2014287
0.2037521
0.2058256
0.2068153
0.1991102
0.201397
0.2035668
0.2054533
0.2066275
0.196806
0.1990018
0.2011057
0.2030228
0.2046771
0.2061826
0.1945495
0.1966344
0.1986301
0.2004459
0.202046
0.2034539
0.205326
0.1923688
0.1943452
0.1962228
0.1979319
0.1994064
0.2006521
0.2017685
0.2039485
0.1902982
0.1921791
0.1939573
0.1955706
0.1969643
0.1980801
0.1989438
0.1996722
0.2018795
0.1816174
0.1761814
0.1780713
0.1730739
0.174052
0.1755633
0.1712143
0.172006
0.1727642
0.1739911
0.2069624
0.2057425
0.2069378
0.2035987
0.2057989
0.2068862
0.2013618
0.2036729
0.2057428
0.2067972
0.1991102
0.201397
0.2035668
0.2054533
0.2066275
0.196868
0.1990787
0.2012026
0.203139
0.2048022
0.2062444
0.1946526
0.1967636
0.1987949
0.2006473
0.2022821
0.2037093
0.2054857
0.1924802
0.1944881
0.1964064
0.1981564
0.1996693
0.2009573
0.2021187
0.2042171
0.1903765
0.192284
0.1940937
0.1957364
0.1971561
0.1982975
0.1992012
0.200006
0.2022441
0.1883738
0.1901939
0.1919113
0.1934688
0.1948085
0.1958848
0.1966391
0.1971072
0.1973731
0.1990446
0.1864778
0.179206
0.1813774
0.1749291
0.1760098
0.1777027
0.1720873
0.1729237
0.1737324
0.1750485
0.1702665
0.1710745
0.1717113
0.1722938
0.1733182
0.2056592
0.2069265
0.2034689
0.20566
0.2068619
0.2012458
0.2035335
0.2055932
0.2067619
0.1990454
0.2013174
0.2034694
0.2053493
0.2065926
0.196868
0.1990787
0.2012026
0.203139
0.2048022
0.2062444
0.194712
0.1968372
0.198888
0.2007612
0.2024156
0.2038531
0.2055767
0.1925792
0.194612
0.1965639
0.1983489
0.1998962
0.2012213
0.2024178
0.2044482
0.1904838
0.1924212
0.1942698
0.1959508
0.1974063
0.1985849
0.199543
0.2004352
0.2026843
0.1884494
0.1902949
0.1920424
0.1936278
0.1949916
0.1960912
0.1968776
0.1974172
0.1978607
0.1999105
0.1865082
0.1882731
0.1899361
0.1914418
0.1927388
0.1937734
0.1945061
0.1948669
0.1948663
0.194459
0.1944132
0.1835468
0.1859813
0.1777769
0.1789908
0.1809305
0.1738465
0.1747688
0.175672
0.1771619
0.1710994
0.1719451
0.1726244
0.1732558
0.1743671
0.1692519
0.1701333
0.1707955
0.1712703
0.1716684
0.1723477
0.2033739
0.2055501
0.2068395
0.2011154
0.2033723
0.205414
0.2067138
0.1989331
0.2011776
0.2032967
0.2051629
0.206526
0.196806
0.1990018
0.2011057
0.2030228
0.2046771
0.2061826
0.194712
0.1968372
0.198888
0.2007612
0.2024156
0.2038531
0.2055767
0.1926363
0.1946825
0.196653
0.1984577
0.2000248
0.2013709
0.2025859
0.2045782
0.1905791
0.1925402
0.1944207
0.1961346
0.1976218
0.1988344
0.1998391
0.2007962
0.2030321
0.1885529
0.1904271
0.1922115
0.1938333
0.1952302
0.1963633
0.1971955
0.1978224
0.1984374
0.2006865
0.1865813
0.1883706
0.1900624
0.1915946
0.1929144
0.1939702
0.1947321
0.1951534
0.1953172
0.1953845
0.196883
0.1846966
0.1864108
0.1880242
0.189484
0.19074
0.191747
0.1924525
0.1928143
0.1927262
0.1920965
0.1905226
0.1921039
0.1818596
0.1831142
0.1852415
0.1765459
0.1775763
0.1785885
0.1803115
0.1727777
0.173695
0.1744531
0.1751754
0.176457
0.1700495
0.1709639
0.1716618
0.172178
0.1726243
0.1733877
0.1681932
0.1691243
0.1698672
0.1703778
0.1706837
0.1707658
0.1721477
0.2010203
0.2032491
0.2052712
0.2066711
0.1988069
0.2010166
0.203095
0.2049419
0.2064379
0.1966985
0.1988668
0.2009344
0.2028167
0.2044551
0.2060721
0.1946526
0.1967636
0.1987949
0.2006473
0.2022821
0.2037093
0.2054857
0.1926363
0.1946825
0.196653
0.1984577
0.2000248
0.2013709
0.2025859
0.2045782
0.1906341
0.1926079
0.194506
0.1962384
0.1977438
0.1989762
0.2000066
0.200997
0.2032188
0.188645
0.1905417
0.1923564
0.1940094
0.1954356
0.1965991
0.1974718
0.1981676
0.1988965
0.2012159
0.1866815
0.1884983
0.1902253
0.1917921
0.1931431
0.1942296
0.1950325
0.1955294
0.1958552
0.1962461
0.1981954
0.1847675
0.1865052
0.1881462
0.1896314
0.1909089
0.191936
0.1926681
0.1930862
0.1931469
0.1929613
0.1928275
0.1950034
0.1829346
0.1846022
0.1861701
0.1875878
0.1888081
0.1897862
0.190481
0.1908329
0.1907735
0.1900994
0.1884093
0.1885474
0.1903095
0.1804134
0.1814561
0.1824652
0.1843814
0.1753523
0.1763565
0.1772013
0.1780287
0.1795464
0.1716566
0.1726334
0.1733965
0.1739889
0.1745268
0.1754577
0.1689599
0.1699198
0.1706939
0.1712393
0.1715864
0.171716
0.1731859
0.1670977
0.1680706
0.1688694
0.1694689
0.1698221
0.169837
0.1705797
0.1719459
0.1987147
0.2008938
0.2029387
0.2047683
0.206366
0.1965775
0.198711
0.2007349
0.2025761
0.2041979
0.2059418
0.1945495
0.1966344
0.1986301
0.2004459
0.202046
0.2034539
0.205326
0.1925792
0.194612
0.1965639
0.1983489
0.1998962
0.2012213
0.2024178
0.2044482
0.1906341
0.1926079
0.194506
0.1962384
0.1977438
0.1989762
0.2000066
0.200997
0.2032188
0.188698
0.1906069
0.1924383
0.1941088
0.195552
0.1967329
0.1976288
0.1983608
0.1991443
0.2014803
0.1867706
0.1886089
0.1903649
0.1919613
0.19334
0.1944543
0.1952932
0.1958507
0.1962869
0.1968568
0.1989559
0.1848645
0.1866287
0.1883035
0.1898217
0.1911289
0.1921848
0.1929546
0.1934421
0.1936496
0.193768
0.1941338
0.1965918
0.1830034
0.1846937
0.1862882
0.1877301
0.1889711
0.1899682
0.1906882
0.1910925
0.1911738
0.1909147
0.1905756
0.1912228
0.1933393
0.1812185
0.1828431
0.184369
0.185748
0.186935
0.1878892
0.1885683
0.1889277
0.1888801
0.1882706
0.1866131
0.1865619
0.1870033
0.1888423
0.17904
0.1800327
0.1808515
0.1817046
0.1834598
0.1741217
0.1751721
0.1760026
0.1766795
0.1773335
0.1785091
0.1705045
0.1715185
0.1723491
0.1729576
0.1733826
0.1736054
0.1752519
0.1678366
0.1688352
0.1696612
0.1702911
0.1706792
0.1707352
0.1715288
0.1729823
0.1659815
0.1669795
0.1678256
0.1684878
0.168939
0.16902
0.1696624
0.170392
0.1717424
0.1964893
0.1985922
0.2005806
0.2023902
0.2039982
0.2058428
0.1944335
0.1964853
0.1984381
0.2002113
0.2017716
0.2031553
0.205144
0.1924802
0.1944881
0.1964064
0.1981564
0.1996693
0.2009573
0.2021187
0.2042171
0.1905791
0.1925402
0.1944207
0.1961346
0.1976218
0.1988344
0.1998391
0.2007962
0.2030321
0.188698
0.1906069
0.1924383
0.1941088
0.195552
0.1967329
0.1976288
0.1983608
0.1991443
0.2014803
0.1868219
0.1886718
0.1904438
0.1920568
0.1934513
0.1945818
0.195441
0.1960309
0.1965208
0.197169
0.1993121
0.1849508
0.1867357
0.1884384
0.1899847
0.1913182
0.1924002
0.1932031
0.1937456
0.1940535
0.1943416
0.1949273
0.1974883
0.1830976
0.1848134
0.1864405
0.187914
0.1891832
0.1902077
0.1909633
0.1914325
0.1916513
0.1916746
0.1918048
0.1927603
0.1951063
0.1812853
0.1829318
0.1844835
0.1858858
0.1870926
0.1880649
0.188768
0.1891776
0.1892631
0.1890478
0.1886634
0.1890795
0.1897947
0.1918825
0.179545
0.1811295
0.1826167
0.1839599
0.1851164
0.1860473
0.1867153
0.1870736
0.1870537
0.1864857
0.1849495
0.1848674
0.185121
0.1857314
0.1876045
0.1776518
0.1786777
0.1794623
0.1801439
0.1808829
0.1823509
0.1728737
0.1739493
0.1748352
0.1755099
0.1760316
0.1763868
0.1782958
0.169325
0.1703718
0.1712464
0.171931
0.1723842
0.172521
0.1734156
0.1750444
0.1666952
0.1677164
0.1685867
0.1692754
0.1697572
0.1698733
0.1705598
0.17134
0.1727771
0.1648513
0.1658673
0.1667434
0.1674587
0.1679802
0.1681741
0.1688547
0.1694864
0.1702028
0.1715372
0.1943488
0.1963715
0.1982894
0.2000303
0.2015614
0.2029248
0.2050121
0.1923688
0.1943452
0.1962228
0.1979319
0.1994064
0.2006521
0.2017685
0.2039485
0.1904838
0.1924212
0.1942698
0.1959508
0.1974063
0.1985849
0.199543
0.2004352
0.2026843
0.188645
0.1905417
0.1923564
0.1940094
0.1954356
0.1965991
0.1974718
0.1981676
0.1988965
0.2012159
0.1868219
0.1886718
0.1904438
0.1920568
0.1934513
0.1945818
0.195441
0.1960309
0.1965208
0.197169
0.1993121
0.1850005
0.1867966
0.1885145
0.1900768
0.1914252
0.1925224
0.193344
0.1939155
0.1942726
0.1946354
0.1953096
0.1979003
0.1831813
0.1849171
0.1865709
0.1880715
0.1893658
0.190415
0.1912018
0.1917222
0.1920341
0.1922148
0.1925528
0.1936643
0.1961062
0.1813769
0.183048
0.184631
0.1860638
0.1872977
0.1882962
0.1890332
0.1895044
0.1897199
0.1897714
0.189826
0.1905288
0.1914846
0.1937504
0.1796101
0.1812158
0.1827278
0.1840936
0.1852691
0.1862173
0.1869083
0.1873145
0.1874223
0.1872299
0.1869046
0.187252
0.1877511
0.1885384
0.1906185
0.1779115
0.1794585
0.1809096
0.1822197
0.1833478
0.1842573
0.1849128
0.1852736
0.1852694
0.1847543
0.1833081
0.183287
0.1835072
0.1839372
0.1846489
0.1863833
0.1762661
0.1773054
0.178135
0.1787949
0.1793802
0.1798858
0.1821239
0.1716079
0.1727081
0.1736271
0.1743664
0.1748981
0.1751491
0.1761921
0.1780812
0.168133
0.1691972
0.1701104
0.1708461
0.1713848
0.1715694
0.1723435
0.1732243
0.1748353
0.165542
0.1665791
0.1674769
0.1682159
0.168764
0.1689889
0.1697072
0.1703829
0.1711496
0.1725701
0.1637149
0.1647408
0.1656392
0.1663898
0.1669707
0.1672473
0.1680164
0.1686879
0.1693089
0.1700119
0.1712868
0.1922875
0.1942361
0.1960806
0.1977584
0.1992052
0.2004206
0.2014997
0.2037529
0.1903765
0.192284
0.1940937
0.1957364
0.1971561
0.1982975
0.1992012
0.200006
0.2022441
0.1885529
0.1904271
0.1922115
0.1938333
0.1952302
0.1963633
0.1971955
0.1978224
0.1984374
0.2006865
0.1867706
0.1886089
0.1903649
0.1919613
0.19334
0.1944543
0.1952932
0.1958507
0.1962869
0.1968568
0.1989559
0.1850005
0.1867966
0.1885145
0.1900768
0.1914252
0.1925224
0.193344
0.1939155
0.1942726
0.1946354
0.1953096
0.1979003
0.1832296
0.1849761
0.1866446
0.1881604
0.189469
0.1905326
0.191337
0.1918846
0.1922415
0.1924915
0.1929138
0.1940907
0.1965625
0.1814583
0.1831486
0.1847575
0.1862163
0.1874741
0.1884963
0.189263
0.1897829
0.1900862
0.1902851
0.1905331
0.1913824
0.1924746
0.1948184
0.1796992
0.1813287
0.1828711
0.1842662
0.1854677
0.186441
0.1871645
0.1876298
0.1878617
0.1879228
0.188013
0.1886244
0.1893463
0.1903176
0.192529
0.1779749
0.1795425
0.1810176
0.1823495
0.1834959
0.1844222
0.1850997
0.1855067
0.185625
0.1854701
0.1851803
0.1855613
0.1859997
0.1865855
0.1874426
0.1893645
0.1763153
0.1778272
0.1792446
0.1805237
0.1816255
0.182515
0.1831591
0.1835191
0.1835326
0.1830549
0.1817015
0.1817178
0.1819922
0.1823907
0.1829328
0.1835701
0.1861354
0.1748766
0.1759334
0.1767865
0.1775002
0.1780749
0.1784545
0.1796816
0.1818967
0.1703381
0.1714485
0.1723986
0.1731785
0.173784
0.1740649
0.1749676
0.1759961
0.1778653
0.1669334
0.1680095
0.1689453
0.1697258
0.1703232
0.1706085
0.1714015
0.1721646
0.1730315
0.1746246
0.1643844
0.1654297
0.1663478
0.1671195
0.1677244
0.1680281
0.1688305
0.1695397
0.1702045
0.1709577
0.1723177
0.1625763
0.1636078
0.16452
0.1652976
0.1659193
0.1662662
0.1670963
0.1678574
0.1685197
0.1691298
0.169779
0.1710305
0.1902982
0.1921791
0.1939573
0.1955706
0.1969643
0.1980801
0.1989438
0.1996722
0.2018795
0.1884494
0.1902949
0.1920424
0.1936278
0.1949916
0.1960912
0.1968776
0.1974172
0.1978607
0.1999105
0.1866815
0.1884983
0.1902253
0.1917921
0.1931431
0.1942296
0.1950325
0.1955294
0.1958552
0.1962461
0.1981954
0.1849508
0.1867357
0.1884384
0.1899847
0.1913182
0.1924002
0.1932031
0.1937456
0.1940535
0.1943416
0.1949273
0.1974883
0.1832296
0.1849761
0.1866446
0.1881604
0.189469
0.1905326
0.191337
0.1918846
0.1922415
0.1924915
0.1929138
0.1940907
0.1965625
0.1815052
0.1832059
0.1848289
0.1863023
0.1875739
0.1886097
0.1893932
0.1899387
0.1902846
0.190548
0.1908742
0.1917856
0.1929373
0.1953051
0.1797784
0.1814265
0.1829938
0.184414
0.1856386
0.1866346
0.1873865
0.1878982
0.1882139
0.1884148
0.1886867
0.1894325
0.1902825
0.1913666
0.1936304
0.1780617
0.1796523
0.1811569
0.1825171
0.1836886
0.184639
0.1853478
0.1858116
0.1860488
0.1861366
0.1862419
0.1868702
0.1875115
0.1882674
0.1892644
0.1912707
0.1763771
0.177909
0.1793497
0.1806499
0.1817694
0.182675
0.1833404
0.1837449
0.1838765
0.1837451
0.1835014
0.1838957
0.1843699
0.1849019
0.1855722
0.1863497
0.18911
0.1747542
0.1762331
0.1776188
0.1788691
0.1799462
0.1808169
0.1814499
0.1818093
0.1818353
0.1813945
0.1801139
0.1801738
0.1804795
0.1809301
0.1814445
0.1819354
0.183351
0.1858892
0.1734953
0.1745563
0.1754352
0.1761795
0.1768155
0.1772026
0.178265
0.1794771
0.181669
0.1690673
0.1701841
0.1711504
0.1719679
0.1726214
0.172991
0.1738935
0.174785
0.175799
0.1776481
0.1657332
0.1668139
0.1677662
0.1685748
0.1692233
0.16958
0.1704486
0.1712324
0.1719844
0.1728372
0.1743677
0.1632263
0.1642755
0.1652058
0.1660026
0.1666458
0.167017
0.1678765
0.1686709
0.1693708
0.1700246
0.1707235
0.1720592
0.1614387
0.1624723
0.1633937
0.1641894
0.1648431
0.1652402
0.1661209
0.1669439
0.167697
0.1683501
0.1689114
0.1695408
0.1708354
0.1883738
0.1901939
0.1919113
0.1934688
0.1948085
0.1958848
0.1966391
0.1971072
0.1973731
0.1990446
0.1865813
0.1883706
0.1900624
0.1915946
0.1929144
0.1939702
0.1947321
0.1951534
0.1953172
0.1953845
0.196883
0.1848645
0.1866287
0.1883035
0.1898217
0.1911289
0.1921848
0.1929546
0.1934421
0.1936496
0.193768
0.1941338
0.1965918
0.1831813
0.1849171
0.1865709
0.1880715
0.1893658
0.190415
0.1912018
0.1917222
0.1920341
0.1922148
0.1925528
0.1936643
0.1961062
0.1815052
0.1832059
0.1848289
0.1863023
0.1875739
0.1886097
0.1893932
0.1899387
0.1902846
0.190548
0.1908742
0.1917856
0.1929373
0.1953051
0.179824
0.1814822
0.1830632
0.1844974
0.1857353
0.1867443
0.1875123
0.1880485
0.1884046
0.1886666
0.1890115
0.1898141
0.1907206
0.1918552
0.1941326
0.1781388
0.1797475
0.1812762
0.1826606
0.1838544
0.1848266
0.1855627
0.1860711
0.1863885
0.1866097
0.1868872
0.1876406
0.1883988
0.189261
0.1903455
0.1923723
0.1764617
0.178016
0.1794852
0.1808129
0.1819566
0.1828854
0.183581
0.1840402
0.1842864
0.1843878
0.1845223
0.1851495
0.1858122
0.1864972
0.1872973
0.1881789
0.191015
0.1748145
0.1763129
0.1777212
0.1789919
0.1800861
0.1809724
0.181626
0.1820284
0.1821684
0.1820616
0.1818488
0.1822676
0.1827566
0.1833262
0.1839488
0.1845664
0.1861278
0.1888571
0.1732261
0.174674
0.1760299
0.177253
0.178307
0.1791601
0.1797826
0.1801406
0.180178
0.1797667
0.1785541
0.1786423
0.1789846
0.179464
0.1800305
0.1805062
0.1817329
0.1831332
0.1856445
0.1721226
0.1731861
0.1740766
0.1748525
0.1755248
0.1759861
0.177024
0.1780752
0.1792722
0.1814411
0.1678017
0.1689184
0.1698963
0.1707355
0.1714328
0.1718627
0.1728279
0.1737211
0.1746013
0.1756006
0.1773837
0.1645356
0.1656174
0.1665786
0.1674084
0.1680906
0.1685093
0.1694269
0.1702874
0.1710618
0.1718027
0.1726002
0.1741046
0.1620704
0.1631206
0.1640585
0.1648717
0.1655449
0.165964
0.1668712
0.1677235
0.1685098
0.1692005
0.1698051
0.1704839
0.1718625
0.1603043
0.1613376
0.1622645
0.1630732
0.1637495
0.164187
0.1651002
0.1659745
0.1667903
0.1675353
0.1681432
0.168688
0.1693596
0.170703
0.1865082
0.1882731
0.1899361
0.1914418
0.1927388
0.1937734
0.1945061
0.1948669
0.1948663
0.194459
0.1944132
0.1847675
0.1865052
0.1881462
0.1896314
0.1909089
0.191936
0.1926681
0.1930862
0.1931469
0.1929613
0.1928275
0.1950034
0.1830976
0.1848134
0.1864405
0.187914
0.1891832
0.1902077
0.1909633
0.1914325
0.1916513
0.1916746
0.1918048
0.1927603
0.1951063
0.1814583
0.1831486
0.1847575
0.1862163
0.1874741
0.1884963
0.189263
0.1897829
0.1900862
0.1902851
0.1905331
0.1913824
0.1924746
0.1948184
0.179824
0.1814822
0.1830632
0.1844974
0.1857353
0.1867443
0.1875123
0.1880485
0.1884046
0.1886666
0.1890115
0.1898141
0.1907206
0.1918552
0.1941326
0.1781832
0.1798017
0.1813435
0.1827416
0.1839481
0.1849329
0.1856844
0.1862164
0.1865725
0.1868517
0.1871984
0.1880043
0.188814
0.1897246
0.1908489
0.1928746
0.1765369
0.1781088
0.1796013
0.1809524
0.1821176
0.1830675
0.1837894
0.1842915
0.1846148
0.1848441
0.1851428
0.1858874
0.1866585
0.1874396
0.1883231
0.1892672
0.1921162
0.1748971
0.1764172
0.1778532
0.1791506
0.1802682
0.181177
0.1818597
0.1823149
0.1825655
0.182683
0.1828331
0.1834732
0.1841383
0.1848484
0.185586
0.186302
0.1879582
0.1907604
0.173285
0.1747518
0.1761298
0.1773728
0.1784433
0.1793114
0.1799539
0.1803535
0.1805012
0.1804127
0.1802305
0.1806605
0.1811738
0.181759
0.1824206
0.1830043
0.1843622
0.1859074
0.188606
0.1717292
0.1731478
0.1744757
0.1756733
0.1767055
0.1775419
0.1781543
0.1785108
0.1785577
0.1781733
0.1770183
0.177133
0.1774969
0.1780095
0.178604
0.1791393
0.1803157
0.1815316
0.1829168
0.1854014
0.1707633
0.1718235
0.1727229
0.1735154
0.1742239
0.1747319
0.1758163
0.1768451
0.177885
0.179067
0.1811648
0.1665436
0.1676574
0.16864
0.1694957
0.1702201
0.1707041
0.1717066
0.1726638
0.1735476
0.1744164
0.1753591
0.177113
0.1633431
0.1644232
0.1653893
0.1662323
0.1669408
0.1674025
0.1683622
0.1692726
0.1701249
0.17089
0.1715811
0.1723578
0.1739044
0.1609191
0.1619677
0.1629099
0.1637347
0.1644288
0.1648864
0.1658235
0.1667242
0.1675693
0.1683475
0.1689927
0.1695807
0.1703016
0.1717289
0.1591748
0.1602059
0.1611356
0.1619534
0.1626467
0.1631145
0.1640518
0.1649591
0.1658268
0.1666353
0.1673379
0.1679317
0.1685182
0.1692367
0.1706352
0.1864778
0.1846966
0.1864108
0.1880242
0.189484
0.19074
0.191747
0.1924525
0.1928143
0.1927262
0.1920965
0.1905226
0.1921039
0.1830034
0.1846937
0.1862882
0.1877301
0.1889711
0.1899682
0.1906882
0.1910925
0.1911738
0.1909147
0.1905756
0.1912228
0.1933393
0.1813769
0.183048
0.184631
0.1860638
0.1872977
0.1882962
0.1890332
0.1895044
0.1897199
0.1897714
0.189826
0.1905288
0.1914846
0.1937504
0.1797784
0.1814265
0.1829938
0.184414
0.1856386
0.1866346
0.1873865
0.1878982
0.1882139
0.1884148
0.1886867
0.1894325
0.1902825
0.1913666
0.1936304
0.1781832
0.1798017
0.1813435
0.1827416
0.1839481
0.1849329
0.1856844
0.1862164
0.1865725
0.1868517
0.1871984
0.1880043
0.188814
0.1897246
0.1908489
0.1928746
0.1765803
0.1781615
0.1796669
0.1810312
0.1822086
0.1831707
0.1839074
0.1844322
0.1847927
0.1850777
0.185442
0.1862359
0.1870544
0.1878793
0.1888015
0.1897742
0.1926183
0.1749705
0.1765077
0.1779663
0.1792864
0.1804248
0.1813539
0.1820621
0.1825588
0.1828836
0.1831241
0.1834315
0.1841829
0.1849491
0.1857476
0.1865598
0.1873372
0.1890477
0.191861
0.1733657
0.1748537
0.1762585
0.1775273
0.1786206
0.1795104
0.1801811
0.1806319
0.1808865
0.1810145
0.1811817
0.1818228
0.1825023
0.1832173
0.1839833
0.1846529
0.1860997
0.1877386
0.1905071
0.1717868
0.1732238
0.1745732
0.1757901
0.1768383
0.1776893
0.1783211
0.1787179
0.1788717
0.1787999
0.178641
0.1790829
0.179607
0.1802159
0.1808936
0.181524
0.1828126
0.1841594
0.1856883
0.1883564
0.1702618
0.1716526
0.1729541
0.1741276
0.1751393
0.1759599
0.1765628
0.1769173
0.1769727
0.176612
0.1755092
0.1756432
0.176027
0.1765579
0.177184
0.1777524
0.1789583
0.1801265
0.1813317
0.1827017
0.1851091
0.1694185
0.1704735
0.1713755
0.1721811
0.1729101
0.1734627
0.1745696
0.1756462
0.1766659
0.1776946
0.1788181
0.1808819
0.1652949
0.1664036
0.1673876
0.1682524
0.1689981
0.1695182
0.1705542
0.1715496
0.1724986
0.173373
0.1741913
0.1751119
0.1769068
0.1621575
0.1632339
0.1642018
0.1650537
0.1657798
0.1662763
0.1672608
0.1682139
0.1691171
0.1699612
0.1706805
0.1713545
0.1721734
0.1737683
0.1597737
0.1608191
0.1617629
0.1625955
0.1633053
0.1637914
0.1647507
0.1656818
0.166576
0.1674138
0.1681494
0.1687803
0.1694102
0.170178
0.1716605
0.1580512
0.1590789
0.1600093
0.1608331
0.1615393
0.1620311
0.1629836
0.1639154
0.1648167
0.1656778
0.1664463
0.1671362
0.167771
0.1684031
0.1691739
0.1816174
0.1835468
0.1859813
0.1829346
0.1846022
0.1861701
0.1875878
0.1888081
0.1897862
0.190481
0.1908329
0.1907735
0.1900994
0.1884093
0.1885474
0.1903095
0.1812853
0.1829318
0.1844835
0.1858858
0.1870926
0.1880649
0.188768
0.1891776
0.1892631
0.1890478
0.1886634
0.1890795
0.1897947
0.1918825
0.1796992
0.1813287
0.1828711
0.1842662
0.1854677
0.186441
0.1871645
0.1876298
0.1878617
0.1879228
0.188013
0.1886244
0.1893463
0.1903176
0.192529
0.1781388
0.1797475
0.1812762
0.1826606
0.1838544
0.1848266
0.1855627
0.1860711
0.1863885
0.1866097
0.1868872
0.1876406
0.1883988
0.189261
0.1903455
0.1923723
0.1765803
0.1781615
0.1796669
0.1810312
0.1822086
0.1831707
0.1839074
0.1844322
0.1847927
0.1850777
0.185442
0.1862359
0.1870544
0.1878793
0.1888015
0.1897742
0.1926183
0.1750128
0.1765591
0.1780302
0.179363
0.1805133
0.1814542
0.1821767
0.1826953
0.1830559
0.1833498
0.18372
0.1845179
0.1853284
0.1861671
0.187014
0.1878204
0.1895553
0.1923629
0.1734374
0.174942
0.1763688
0.1776597
0.178773
0.1796826
0.1803778
0.1808687
0.1811951
0.1814417
0.1817601
0.182507
0.183282
0.1840788
0.1849126
0.1856364
0.1871366
0.1888291
0.1916067
0.1718657
0.1733234
0.1746988
0.1759408
0.1770111
0.1778832
0.1785422
0.1789886
0.179246
0.1793836
0.179562
0.1802061
0.1808878
0.1816182
0.1823908
0.1830981
0.1844632
0.1858985
0.18752
0.190255
0.1703181
0.171727
0.1730493
0.1742416
0.1752689
0.1761037
0.1767253
0.177119
0.1772782
0.1772205
0.1770826
0.1775307
0.1780658
0.1786847
0.1793853
0.1800373
0.1813421
0.1826222
0.1839579
0.1854707
0.1880564
0.168822
0.1701869
0.1714633
0.1726141
0.1736064
0.1744121
0.1750058
0.1753583
0.175421
0.1750817
0.1740258
0.1741763
0.1745731
0.1751204
0.175763
0.1763667
0.1775795
0.1787786
0.1799384
0.181133
0.1824429
0.1848098
0.1680893
0.1691373
0.1700394
0.1708514
0.1715968
0.1721772
0.1733069
0.174407
0.1754759
0.1764864
0.1774637
0.1785635
0.1806665
0.1640569
0.1651588
0.1661417
0.167012
0.167771
0.1683204
0.1693738
0.1704034
0.1713916
0.1723325
0.1731605
0.173961
0.1749239
0.1767667
0.1609801
0.1620512
0.1630187
0.163876
0.1646151
0.1651368
0.1661394
0.1671179
0.1680645
0.1689604
0.1697616
0.1704662
0.1711822
0.1720482
0.1736987
0.1586351
0.1596763
0.1606198
0.1614573
0.1621787
0.1626875
0.1636601
0.1646138
0.165539
0.1664265
0.1672241
0.167947
0.1686189
0.1692945
0.1701148
0.1569343
0.1579577
0.1588874
0.159715
0.1604307
0.1609417
0.1619042
0.1628516
0.1637779
0.1646731
0.1654961
0.1662531
0.1669831
0.1676621
0.1683444
0.1782587
0.179206
0.1813774
0.1818596
0.1831142
0.1852415
0.1812185
0.1828431
0.184369
0.185748
0.186935
0.1878892
0.1885683
0.1889277
0.1888801
0.1882706
0.1866131
0.1865619
0.1870033
0.1888423
0.1796101
0.1812158
0.1827278
0.1840936
0.1852691
0.1862173
0.1869083
0.1873145
0.1874223
0.1872299
0.1869046
0.187252
0.1877511
0.1885384
0.1906185
0.1780617
0.1796523
0.1811569
0.1825171
0.1836886
0.184639
0.1853478
0.1858116
0.1860488
0.1861366
0.1862419
0.1868702
0.1875115
0.1882674
0.1892644
0.1912707
0.1765369
0.1781088
0.1796013
0.1809524
0.1821176
0.1830675
0.1837894
0.1842915
0.1846148
0.1848441
0.1851428
0.1858874
0.1866585
0.1874396
0.1883231
0.1892672
0.1921162
0.1750128
0.1765591
0.1780302
0.179363
0.1805133
0.1814542
0.1821767
0.1826953
0.1830559
0.1833498
0.18372
0.1845179
0.1853284
0.1861671
0.187014
0.1878204
0.1895553
0.1923629
0.1734787
0.1749921
0.1764311
0.1777343
0.1788592
0.1797801
0.1804893
0.1810013
0.1813623
0.1816604
0.1820389
0.1828302
0.1836467
0.1844808
0.1853462
0.1860955
0.1876206
0.1893372
0.1921082
0.1719358
0.1734096
0.1748065
0.1760699
0.1771597
0.1780508
0.1787338
0.179219
0.1795459
0.179798
0.1801221
0.1808675
0.1816396
0.1824467
0.1832813
0.1840372
0.1854486
0.1869368
0.1886113
0.1913534
0.1703953
0.1718243
0.1731721
0.1743888
0.1754375
0.1762927
0.1769408
0.1773826
0.1776423
0.1777875
0.1779758
0.1786182
0.1793034
0.1800365
0.180825
0.1815456
0.1829182
0.1842746
0.1856983
0.1873026
0.1899514
0.1688772
0.1702596
0.1715564
0.1727255
0.1737329
0.1745525
0.1751643
0.1755549
0.1757185
0.1756735
0.1755536
0.1760065
0.1765467
0.1771753
0.177885
0.1785637
0.1798635
0.1811614
0.1824331
0.1837578
0.185209
0.1877492
0.1674088
0.1687487
0.1700016
0.1711308
0.1721049
0.1728965
0.1734814
0.1738317
0.173901
0.1735809
0.1725679
0.172732
0.1731393
0.1736961
0.174353
0.1749762
0.1762008
0.1774078
0.1785999
0.1797515
0.180894
0.1821781
0.1845819
0.1667762
0.1678161
0.168716
0.1695316
0.1702862
0.1708894
0.1720271
0.1731508
0.1742441
0.1753052
0.1762688
0.1772275
0.1783698
0.18052
0.1628303
0.1639244
0.1649044
0.1657772
0.1665455
0.1671154
0.168181
0.1692286
0.1702517
0.1712327
0.1721302
0.1729432
0.173786
0.1747963
0.176695
0.1598115
0.1608766
0.1618418
0.1627021
0.1634503
0.1639919
0.1650044
0.1660014
0.166974
0.1679139
0.1687693
0.1695576
0.1703035
0.1710654
0.1719843
0.1575042
0.1585401
0.1594822
0.1603224
0.1610522
0.161579
0.1625602
0.1635276
0.1644758
0.1653949
0.1662442
0.1670303
0.1677933
0.1685096
0.1692355
0.1558247
0.1568431
0.157771
0.1586007
0.1593233
0.1598498
0.1608185
0.1617763
0.1627185
0.1636392
0.164498
0.1653105
0.1661065
0.1668794
0.1676066
0.1760822
0.1761814
0.1780713
0.1777769
0.1789908
0.1809305
0.1804134
0.1814561
0.1824652
0.1843814
0.179545
0.1811295
0.1826167
0.1839599
0.1851164
0.1860473
0.1867153
0.1870736
0.1870537
0.1864857
0.1849495
0.1848674
0.185121
0.1857314
0.1876045
0.1779749
0.1795425
0.1810176
0.1823495
0.1834959
0.1844222
0.1850997
0.1855067
0.185625
0.1854701
0.1851803
0.1855613
0.1859997
0.1865855
0.1874426
0.1893645
0.1764617
0.178016
0.1794852
0.1808129
0.1819566
0.1828854
0.183581
0.1840402
0.1842864
0.1843878
0.1845223
0.1851495
0.1858122
0.1864972
0.1872973
0.1881789
0.191015
0.1749705
0.1765077
0.1779663
0.1792864
0.1804248
0.1813539
0.1820621
0.1825588
0.1828836
0.1831241
0.1834315
0.1841829
0.1849491
0.1857476
0.1865598
0.1873372
0.1890477
0.191861
0.1734787
0.1749921
0.1764311
0.1777343
0.1788592
0.1797801
0.1804893
0.1810013
0.1813623
0.1816604
0.1820389
0.1828302
0.1836467
0.1844808
0.1853462
0.1860955
0.1876206
0.1893372
0.1921082
0.1719762
0.1734586
0.1748673
0.1761427
0.1772437
0.1781459
0.1788422
0.1793479
0.1797083
0.1800101
0.1803921
0.1811797
0.1819913
0.1828332
0.1836968
0.1844755
0.1859085
0.1874215
0.1891198
0.1918542
0.1704639
0.1719086
0.1732773
0.1745148
0.1755825
0.1764562
0.1771274
0.1776069
0.1779339
0.1781901
0.178519
0.1792585
0.1800299
0.1808353
0.1816814
0.1824455
0.183859
0.1852615
0.1867379
0.1883943
0.1910479
0.1689528
0.1703548
0.1716765
0.1728693
0.1738976
0.174737
0.1753745
0.1758118
0.176073
0.1762249
0.1764211
0.177061
0.1777449
0.1784816
0.1792729
0.1800141
0.1813738
0.1827393
0.1840869
0.1854992
0.1870408
0.1896405
0.1674628
0.1688199
0.1700927
0.1712398
0.1722286
0.1730336
0.1736362
0.1740235
0.1741909
0.1741571
0.1740533
0.1745091
0.1750528
0.1756853
0.1764033
0.1770941
0.1783969
0.1796909
0.1809819
0.1822452
0.1835173
0.1849412
0.1875153
0.1660202
0.1673369
0.1685673
0.1696763
0.170633
0.1714113
0.1719878
0.1723359
0.172411
0.1721086
0.1711347
0.1713104
0.1717255
0.1722894
0.1729539
0.1735937
0.1748165
0.1760359
0.1772371
0.1784224
0.1795268
0.1806495
0.1819767
0.184427
0.1654794
0.1665103
0.1674067
0.1682232
0.1689839
0.169602
0.1707446
0.1718768
0.1729944
0.174081
0.1750984
0.1760464
0.1770479
0.1782382
0.1804451
0.1616156
0.1627014
0.1636769
0.1645502
0.1653244
0.1659102
0.1669806
0.1680408
0.1690824
0.170099
0.1710391
0.1719234
0.172778
0.1736673
0.174731
0.1586523
0.1597106
0.1606726
0.1615338
0.1622883
0.1628454
0.1638635
0.1648709
0.1658624
0.1668289
0.1677303
0.168574
0.1694026
0.1701932
0.1710058
0.1563814
0.1574115
0.1583509
0.1591925
0.1599282
0.1604693
0.1614554
0.1624318
0.1633941
0.1643367
0.1652192
0.1660579
0.1668831
0.1676892
0.1684538
0.1547225
0.1557356
0.1566609
0.1574914
0.1582192
0.158758
0.15973
0.1606943
0.1616472
0.1625842
0.16347
0.1643191
0.1651696
0.1660073
0.1668266
0.1750053
0.1742124
0.1759087
0.1749291
0.1760098
0.1777027
0.1765459
0.1775763
0.1785885
0.1803115
0.17904
0.1800327
0.1808515
0.1817046
0.1834598
0.1779115
0.1794585
0.1809096
0.1822197
0.1833478
0.1842573
0.1849128
0.1852736
0.1852694
0.1847543
0.1833081
0.183287
0.1835072
0.1839372
0.1846489
0.1863833
0.1763771
0.177909
0.1793497
0.1806499
0.1817694
0.182675
0.1833404
0.1837449
0.1838765
0.1837451
0.1835014
0.1838957
0.1843699
0.1849019
0.1855722
0.1863497
0.18911
0.1748971
0.1764172
0.1778532
0.1791506
0.1802682
0.181177
0.1818597
0.1823149
0.1825655
0.182683
0.1828331
0.1834732
0.1841383
0.1848484
0.185586
0.186302
0.1879582
0.1907604
0.1734374
0.174942
0.1763688
0.1776597
0.178773
0.1796826
0.1803778
0.1808687
0.1811951
0.1814417
0.1817601
0.182507
0.183282
0.1840788
0.1849126
0.1856364
0.1871366
0.1888291
0.1916067
0.1719762
0.1734586
0.1748673
0.1761427
0.1772437
0.1781459
0.1788422
0.1793479
0.1797083
0.1800101
0.1803921
0.1811797
0.1819913
0.1828332
0.1836968
0.1844755
0.1859085
0.1874215
0.1891198
0.1918542
0.1705034
0.1719565
0.1733367
0.1745859
0.1756644
0.1765489
0.1772331
0.1777325
0.1780919
0.1783961
0.1787809
0.1795609
0.1803698
0.181208
0.1820809
0.1828655
0.1842982
0.1857222
0.1872232
0.1889031
0.1915478
0.16902
0.1704373
0.1717793
0.1729924