/*--------------------------------*- C++ -*----------------------------------*\
| =========                 |                                                 |
| \\      /  F ield         | OpenFOAM: The Open Source CFD Toolbox           |
|  \\    /   O peration     | Version:  2306                                  |
|   \\  /    A nd           | Website:  www.openfoam.com                      |
|    \\/     M anipulation  |                                                 |
\*---------------------------------------------------------------------------*/
FoamFile
{
    version     2.0;
    format      ascii;
    arch        "LSB;label=32;scalar=64";
    class       volScalarField;
    location    "0.6/electrolyte";
    object      T;
}
// * * * * * * * * * * * * * * * * * * * * * * * * * * * * * * * * * * * * * //

dimensions      [0 0 0 1 0 0 0];

internalField   nonuniform List<scalar> 
4000
(
1120.714
1120.583
1122.279
1120.719
1120.278
1122.27
1120.587
1123.726
1122.281
1120.723
1119.709
1122.247
1120.283
1123.75
1122.271
1120.592
1125.084
1123.724
1122.282
1120.727
1118.747
1122.198
1119.715
1123.804
1122.247
1120.288
1125.119
1123.748
1122.272
1120.596
1126.393
1125.08
1123.722
1122.283
1120.731
1117.325
1122.104
1118.758
1123.897
1122.197
1119.722
1125.196
1123.801
1122.247
1120.292
1126.43
1125.114
1123.746
1122.273
1120.6
1127.664
1126.387
1125.075
1123.72
1122.284
1115.704
1121.938
1117.348
1124.04
1122.101
1118.769
1125.333
1123.893
1122.196
1119.728
1126.513
1125.191
1123.799
1122.247
1120.297
1127.701
1126.423
1125.109
1123.744
1122.273
1128.898
1127.655
1126.38
1125.071
1123.718
1114.219
1121.67
1115.743
1124.217
1121.931
1117.371
1125.548
1124.032
1122.097
1118.781
1126.66
1125.326
1123.888
1122.194
1119.735
1127.783
1126.506
1125.185
1123.795
1122.247
1128.933
1127.692
1126.416
1125.104
1123.741
1130.095
1128.888
1127.647
1126.373
1125.065
1113.115
1121.357
1114.273
1124.345
1121.662
1115.781
1125.833
1124.203
1121.924
1117.393
1126.894
1125.537
1124.024
1122.094
1118.793
1127.929
1126.651
1125.318
1123.883
1122.193
1129.012
1127.773
1126.498
1125.179
1123.792
1130.128
1128.923
1127.683
1126.409
1125.099
1131.253
1130.084
1128.878
1127.638
1126.366
1112.532
1121.087
1113.181
1124.404
1121.352
1114.327
1126.092
1124.327
1121.655
1115.819
1127.209
1125.817
1124.189
1121.917
1117.416
1128.162
1126.882
1125.526
1124.015
1122.09
1129.153
1127.918
1126.642
1125.311
1123.878
1130.204
1129.002
1127.764
1126.49
1125.173
1131.285
1130.117
1128.913
1127.674
1126.401
1132.372
1131.241
1130.073
1128.868
1127.629
1112.532
1120.932
1112.604
1124.418
1121.085
1113.245
1126.28
1124.385
1121.346
1114.379
1127.508
1126.071
1124.309
1121.647
1115.856
1128.477
1127.191
1125.8
1124.175
1121.909
1129.378
1128.148
1126.869
1125.515
1124.006
1130.338
1129.141
1127.907
1126.632
1125.303
1131.357
1130.192
1128.991
1127.754
1126.482
1132.403
1131.273
1130.106
1128.902
1127.664
1133.451
1132.36
1131.229
1130.061
1128.857
1113.115
1120.932
1112.604
1124.415
1120.932
1112.674
1126.394
1124.398
1121.082
1113.308
1127.737
1126.256
1124.365
1121.341
1114.43
1128.781
1127.485
1126.049
1124.291
1121.639
1129.683
1128.458
1127.173
1125.783
1124.16
1130.553
1129.363
1128.134
1126.856
1125.504
1131.486
1130.326
1129.129
1127.896
1126.623
1132.472
1131.345
1130.18
1128.98
1127.744
1133.48
1132.39
1131.261
1130.094
1128.892
1134.489
1133.438
1132.347
1131.217
1130.05
1114.219
1121.087
1113.181
1124.415
1120.932
1112.674
1126.448
1124.396
1120.931
1112.743
1127.887
1126.37
1124.379
1121.079
1113.37
1129.02
1127.712
1126.232
1124.346
1121.335
1129.979
1128.758
1127.463
1126.028
1124.273
1130.844
1129.664
1128.44
1127.155
1125.766
1131.69
1130.538
1129.349
1128.12
1126.843
1132.594
1131.472
1130.313
1129.117
1127.885
1133.546
1132.459
1131.332
1130.168
1128.968
1134.517
1133.467
1132.377
1131.249
1130.082
1135.487
1134.476
1133.425
1132.334
1131.205
1115.704
1121.357
1114.273
1124.418
1121.085
1113.245
1126.448
1124.396
1120.931
1112.743
1127.96
1126.423
1124.377
1120.93
1112.811
1129.179
1127.861
1126.345
1124.359
1121.076
1130.214
1128.995
1127.687
1126.208
1124.326
1131.129
1129.956
1128.735
1127.44
1126.006
1131.968
1130.825
1129.645
1128.421
1127.137
1132.789
1131.675
1130.523
1129.334
1128.106
1133.663
1132.58
1131.459
1130.3
1129.104
1134.581
1133.533
1132.445
1131.319
1130.156
1135.514
1134.504
1133.454
1132.364
1131.236
1136.444
1135.473
1134.463
1133.412
1132.321
1117.325
1121.67
1115.743
1124.404
1121.352
1114.327
1126.394
1124.398
1121.082
1113.308
1127.96
1126.423
1124.377
1120.93
1112.811
1129.257
1127.933
1126.398
1124.358
1120.929
1130.372
1129.152
1127.835
1126.32
1124.34
1131.356
1130.189
1128.969
1127.662
1126.184
1132.24
1131.106
1129.934
1128.713
1127.417
1133.055
1131.949
1130.806
1129.626
1128.402
1133.85
1132.774
1131.659
1130.507
1129.319
1134.693
1133.649
1132.566
1131.445
1130.286
1135.575
1134.567
1133.519
1132.432
1131.306
1136.47
1135.5
1134.49
1133.441
1132.351
1137.361
1136.43
1135.46
1134.449
1133.398
1118.747
1121.938
1117.348
1124.345
1121.662
1115.781
1126.28
1124.385
1121.346
1114.379
1127.887
1126.37
1124.379
1121.079
1113.37
1129.257
1127.933
1126.398
1124.358
1120.929
1130.45
1129.23
1127.907
1126.372
1124.338
1131.509
1130.346
1129.126
1127.808
1126.295
1132.457
1131.332
1130.165
1128.944
1127.637
1133.315
1132.218
1131.084
1129.911
1128.69
1134.105
1133.036
1131.93
1130.787
1129.607
1134.873
1133.835
1132.758
1131.643
1130.492
1135.684
1134.679
1133.635
1132.552
1131.431
1136.529
1135.561
1134.553
1133.505
1132.418
1137.386
1136.457
1135.487
1134.477
1133.427
1138.238
1137.347
1136.417
1135.446
1134.435
1119.709
1122.104
1118.758
1124.217
1121.931
1117.371
1126.092
1124.327
1121.655
1115.819
1127.737
1126.256
1124.365
1121.341
1114.43
1129.179
1127.861
1126.345
1124.359
1121.076
1130.45
1129.23
1127.907
1126.372
1124.338
1131.585
1130.424
1129.204
1127.88
1126.347
1132.605
1131.484
1130.32
1129.1
1127.782
1133.524
1132.434
1131.308
1130.14
1128.919
1134.354
1133.293
1132.196
1131.062
1129.889
1135.117
1134.086
1133.017
1131.911
1130.768
1135.857
1134.857
1133.819
1132.742
1131.627
1136.634
1135.669
1134.664
1133.62
1132.537
1137.443
1136.515
1135.547
1134.539
1133.491
1138.263
1137.373
1136.443
1135.473
1134.463
1139.075
1138.224
1137.334
1136.403
1135.432
1120.278
1122.198
1119.715
1124.04
1122.101
1118.769
1125.833
1124.203
1121.924
1117.393
1127.508
1126.071
1124.309
1121.647
1115.856
1129.02
1127.712
1126.232
1124.346
1121.335
1130.372
1129.152
1127.835
1126.32
1124.34
1131.585
1130.424
1129.204
1127.88
1126.347
1132.678
1131.56
1130.398
1129.177
1127.853
1133.665
1132.581
1131.459
1130.295
1129.073
1134.555
1133.501
1132.411
1131.284
1130.115
1135.357
1134.333
1133.272
1132.175
1131.04
1136.092
1135.099
1134.067
1132.998
1131.892
1136.802
1135.841
1134.841
1133.803
1132.726
1137.545
1136.62
1135.655
1134.65
1133.606
1138.318
1137.429
1136.501
1135.533
1134.525
1139.1
1138.249
1137.359
1136.429
1135.459
1139.874
1139.062
1138.211
1137.32
1136.389
1120.583
1122.247
1120.283
1123.897
1122.197
1119.722
1125.548
1124.032
1122.097
1118.781
1127.209
1125.817
1124.189
1121.917
1117.416
1128.781
1127.485
1126.049
1124.291
1121.639
1130.214
1128.995
1127.687
1126.208
1124.326
1131.509
1130.346
1129.126
1127.808
1126.295
1132.678
1131.56
1130.398
1129.177
1127.853
1133.736
1132.654
1131.534
1130.372
1129.15
1134.691
1133.642
1132.556
1131.434
1130.269
1135.551
1134.533
1133.478
1132.387
1131.26
1136.324
1135.337
1134.313
1133.251
1132.153
1137.029
1136.074
1135.081
1134.049
1132.979
1137.707
1136.786
1135.825
1134.825
1133.786
1138.417
1137.531
1136.605
1135.64
1134.635
1139.154
1138.304
1137.415
1136.487
1135.519
1139.898
1139.086
1138.235
1137.345
1136.415
1140.635
1139.861
1139.049
1138.197
1137.306
1120.714
1122.27
1120.587
1123.804
1122.247
1120.288
1125.333
1123.893
1122.196
1119.728
1126.894
1125.537
1124.024
1122.094
1118.793
1128.477
1127.191
1125.8
1124.175
1121.909
1129.979
1128.758
1127.463
1126.028
1124.273
1131.356
1130.189
1128.969
1127.662
1126.184
1132.605
1131.484
1130.32
1129.1
1127.782
1133.736
1132.654
1131.534
1130.372
1129.15
1134.76
1133.712
1132.629
1131.509
1130.345
1135.683
1134.669
1133.618
1132.532
1131.409
1136.511
1135.529
1134.511
1133.456
1132.364
1137.253
1136.304
1135.317
1134.292
1133.23
1137.928
1137.011
1136.056
1135.062
1134.03
1138.575
1137.692
1136.77
1135.809
1134.809
1139.25
1138.403
1137.516
1136.59
1135.625
1139.95
1139.14
1138.29
1137.401
1136.473
1140.657
1139.884
1139.072
1138.221
1137.331
1141.357
1140.621
1139.848
1139.035
1138.183
1122.279
1120.719
1123.75
1122.271
1120.592
1125.196
1123.801
1122.247
1120.292
1126.66
1125.326
1123.888
1122.194
1119.735
1128.162
1126.882
1125.526
1124.015
1122.09
1129.683
1128.458
1127.173
1125.783
1124.16
1131.129
1129.956
1128.735
1127.44
1126.006
1132.457
1131.332
1130.165
1128.944
1127.637
1133.665
1132.581
1131.459
1130.295
1129.073
1134.76
1133.712
1132.629
1131.509
1130.345
1135.749
1134.737
1133.689
1132.605
1131.483
1136.638
1135.661
1134.646
1133.595
1132.508
1137.435
1136.49
1135.508
1134.489
1133.433
1138.146
1137.234
1136.284
1135.297
1134.271
1138.789
1137.911
1136.994
1136.038
1135.044
1139.404
1138.559
1137.676
1136.754
1135.793
1140.044
1139.236
1138.388
1137.502
1136.575
1140.709
1139.937
1139.126
1138.276
1137.387
1141.379
1140.644
1139.871
1139.059
1138.208
1142.042
1141.344
1140.608
1139.834
1139.021
1123.726
1122.281
1120.723
1125.119
1123.748
1122.272
1120.596
1126.513
1125.191
1123.799
1122.247
1120.297
1127.929
1126.651
1125.318
1123.883
1122.193
1129.378
1128.148
1126.869
1125.515
1124.006
1130.844
1129.664
1128.44
1127.155
1125.766
1132.24
1131.106
1129.934
1128.713
1127.417
1133.524
1132.434
1131.308
1130.14
1128.919
1134.691
1133.642
1132.556
1131.434
1130.269
1135.749
1134.737
1133.689
1132.605
1131.483
1136.702
1135.726
1134.714
1133.665
1132.58
1137.559
1136.617
1135.639
1134.623
1133.572
1138.322
1137.415
1136.469
1135.487
1134.467
1139.001
1138.127
1137.215
1136.265
1135.276
1139.612
1138.772
1137.893
1136.976
1136.02
1140.194
1139.389
1138.544
1137.661
1136.738
1140.801
1140.031
1139.222
1138.374
1137.487
1141.43
1140.696
1139.923
1139.112
1138.262
1142.064
1141.366
1140.631
1139.857
1139.045
1142.69
1142.029
1141.331
1140.595
1139.821
1125.084
1123.724
1122.282
1120.727
1126.43
1125.114
1123.746
1122.273
1120.6
1127.783
1126.506
1125.185
1123.795
1122.247
1129.153
1127.918
1126.642
1125.311
1123.878
1130.553
1129.363
1128.134
1126.856
1125.504
1131.968
1130.825
1129.645
1128.421
1127.137
1133.315
1132.218
1131.084
1129.911
1128.69
1134.555
1133.501
1132.411
1131.284
1130.115
1135.683
1134.669
1133.618
1132.532
1131.409
1136.702
1135.726
1134.714
1133.665
1132.58
1137.621
1136.681
1135.704
1134.691
1133.641
1138.442
1137.538
1136.596
1135.617
1134.601
1139.173
1138.302
1137.394
1136.449
1135.465
1139.819
1138.983
1138.108
1137.196
1136.245
1140.398
1139.596
1138.755
1137.876
1136.958
1140.948
1140.18
1139.373
1138.529
1137.645
1141.52
1140.787
1140.016
1139.207
1138.359
1142.113
1141.417
1140.682
1139.909
1139.098
1142.712
1142.051
1141.353
1140.618
1139.844
1143.302
1142.678
1142.016
1141.318
1140.582
1126.393
1125.08
1123.722
1122.283
1120.731
1127.701
1126.423
1125.109
1123.744
1122.273
1129.012
1127.773
1126.498
1125.179
1123.792
1130.338
1129.141
1127.907
1126.632
1125.303
1131.69
1130.538
1129.349
1128.12
1126.843
1133.055
1131.949
1130.806
1129.626
1128.402
1134.354
1133.293
1132.196
1131.062
1129.889
1135.551
1134.533
1133.478
1132.387
1131.26
1136.638
1135.661
1134.646
1133.595
1132.508
1137.621
1136.681
1135.704
1134.691
1133.641
1138.503
1137.6
1136.659
1135.682
1134.668
1139.29
1138.422
1137.517
1136.575
1135.595
1139.987
1139.154
1138.283
1137.374
1136.428
1140.6
1139.801
1138.964
1138.089
1137.176
1141.147
1140.382
1139.579
1138.738
1137.858
1141.664
1140.933
1140.165
1139.358
1138.513
1142.202
1141.506
1140.773
1140.002
1139.193
1142.76
1142.101
1141.403
1140.669
1139.896
1143.323
1142.699
1142.038
1141.34
1140.604
1143.877
1143.289
1142.665
1142.004
1141.305
1127.664
1126.387
1125.075
1123.72
1122.284
1128.933
1127.692
1126.416
1125.104
1123.741
1130.204
1129.002
1127.764
1126.49
1125.173
1131.486
1130.326
1129.129
1127.896
1126.623
1132.789
1131.675
1130.523
1129.334
1128.106
1134.105
1133.036
1131.93
1130.787
1129.607
1135.357
1134.333
1133.272
1132.175
1131.04
1136.511
1135.529
1134.511
1133.456
1132.364
1137.559
1136.617
1135.639
1134.623
1133.572
1138.503
1137.6
1136.659
1135.682
1134.668
1139.349
1138.483
1137.579
1136.638
1135.66
1140.101
1139.27
1138.402
1137.497
1136.553
1140.764
1139.968
1139.135
1138.263
1137.354
1141.345
1140.583
1139.783
1138.946
1138.071
1141.859
1141.131
1140.366
1139.562
1138.721
1142.343
1141.649
1140.918
1140.15
1139.343
1142.847
1142.189
1141.493
1140.759
1139.988
1143.371
1142.748
1142.087
1141.39
1140.655
1143.898
1143.311
1142.686
1142.025
1141.327
1144.417
1143.865
1143.277
1142.652
1141.991
1128.898
1127.655
1126.38
1125.071
1123.718
1130.128
1128.923
1127.683
1126.409
1125.099
1131.357
1130.192
1128.991
1127.754
1126.482
1132.594
1131.472
1130.313
1129.117
1127.885
1133.85
1132.774
1131.659
1130.507
1129.319
1135.117
1134.086
1133.017
1131.911
1130.768
1136.324
1135.337
1134.313
1133.251
1132.153
1137.435
1136.49
1135.508
1134.489
1133.433
1138.442
1137.538
1136.596
1135.617
1134.601
1139.349
1138.483
1137.579
1136.638
1135.66
1140.159
1139.329
1138.462
1137.558
1136.616
1140.876
1140.082
1139.251
1138.382
1137.476
1141.505
1140.746
1139.949
1139.115
1138.244
1142.053
1141.328
1140.565
1139.765
1138.928
1142.535
1141.843
1141.115
1140.349
1139.546
1142.986
1142.329
1141.635
1140.904
1140.134
1143.456
1142.834
1142.175
1141.479
1140.745
1143.945
1143.358
1142.735
1142.074
1141.377
1144.438
1143.886
1143.298
1142.674
1142.012
1144.922
1144.405
1143.853
1143.265
1142.64
1130.095
1128.888
1127.647
1126.373
1125.065
1131.285
1130.117
1128.913
1127.674
1126.401
1132.472
1131.345
1130.18
1128.98
1127.744
1133.663
1132.58
1131.459
1130.3
1129.104
1134.873
1133.835
1132.758
1131.643
1130.492
1136.092
1135.099
1134.067
1132.998
1131.892
1137.253
1136.304
1135.317
1134.292
1133.23
1138.322
1137.415
1136.469
1135.487
1134.467
1139.29
1138.422
1137.517
1136.575
1135.595
1140.159
1139.329
1138.462
1137.558
1136.616
1140.933
1140.14
1139.31
1138.442
1137.537
1141.615
1140.858
1140.063
1139.232
1138.362
1142.21
1141.488
1140.728
1139.931
1139.097
1142.725
1142.036
1141.311
1140.548
1139.748
1143.174
1142.519
1141.828
1141.099
1140.333
1143.593
1142.972
1142.315
1141.62
1140.889
1144.029
1143.443
1142.821
1142.162
1141.465
1144.484
1143.933
1143.346
1142.722
1142.061
1144.942
1144.426
1143.874
1143.286
1142.661
1145.392
1144.91
1144.393
1143.841
1143.252
1131.253
1130.084
1128.878
1127.638
1126.366
1132.403
1131.273
1130.106
1128.902
1127.664
1133.546
1132.459
1131.332
1130.168
1128.968
1134.693
1133.649
1132.566
1131.445
1130.286
1135.857
1134.857
1133.819
1132.742
1131.627
1137.029
1136.074
1135.081
1134.049
1132.979
1138.146
1137.234
1136.284
1135.297
1134.271
1139.173
1138.302
1137.394
1136.449
1135.465
1140.101
1139.27
1138.402
1137.497
1136.553
1140.933
1140.14
1139.31
1138.442
1137.537
1141.671
1140.914
1140.121
1139.29
1138.422
1142.318
1141.597
1140.839
1140.044
1139.212
1142.88
1142.193
1141.47
1140.71
1139.913
1143.361
1142.709
1142.02
1141.294
1140.531
1143.778
1143.159
1142.504
1141.812
1141.083
1144.164
1143.579
1142.958
1142.3
1141.606
1144.567
1144.017
1143.43
1142.808
1142.148
1144.988
1144.472
1143.921
1143.333
1142.709
1145.412
1144.931
1144.414
1143.861
1143.273
1145.827
1145.38
1144.898
1144.381
1143.828
1132.372
1131.241
1130.073
1128.868
1127.629
1133.48
1132.39
1131.261
1130.094
1128.892
1134.581
1133.533
1132.445
1131.319
1130.156
1135.684
1134.679
1133.635
1132.552
1131.431
1136.802
1135.841
1134.841
1133.803
1132.726
1137.928
1137.011
1136.056
1135.062
1134.03
1139.001
1138.127
1137.215
1136.265
1135.276
1139.987
1139.154
1138.283
1137.374
1136.428
1140.876
1140.082
1139.251
1138.382
1137.476
1141.671
1140.914
1140.121
1139.29
1138.422
1142.373
1141.653
1140.896
1140.102
1139.271
1142.986
1142.301
1141.579
1140.821
1140.026
1143.514
1142.863
1142.176
1141.453
1140.692
1143.962
1143.345
1142.692
1142.003
1141.277
1144.347
1143.763
1143.144
1142.489
1141.796
1144.7
1144.151
1143.565
1142.944
1142.286
1145.07
1144.555
1144.004
1143.417
1142.794
1145.457
1144.976
1144.46
1143.908
1143.32
1145.847
1145.4
1144.919
1144.402
1143.849
1146.227
1145.815
1145.369
1144.887
1144.369
1133.451
1132.36
1131.229
1130.061
1128.857
1134.517
1133.467
1132.377
1131.249
1130.082
1135.575
1134.567
1133.519
1132.432
1131.306
1136.634
1135.669
1134.664
1133.62
1132.537
1137.707
1136.786
1135.825
1134.825
1133.786
1138.789
1137.911
1136.994
1136.038
1135.044
1139.819
1138.983
1138.108
1137.196
1136.245
1140.764
1139.968
1139.135
1138.263
1137.354
1141.615
1140.858
1140.063
1139.232
1138.362
1142.373
1141.653
1140.896
1140.102
1139.271
1143.04
1142.355
1141.635
1140.877
1140.083
1143.619
1142.969
1142.284
1141.562
1140.803
1144.113
1143.498
1142.846
1142.159
1141.435
1144.529
1143.947
1143.33
1142.676
1141.986
1144.88
1144.332
1143.749
1143.129
1142.473
1145.201
1144.687
1144.137
1143.552
1142.93
1145.538
1145.058
1144.542
1143.991
1143.404
1145.891
1145.445
1144.964
1144.448
1143.896
1146.247
1145.835
1145.389
1144.907
1144.39
1146.594
1146.216
1145.804
1145.357
1144.875
1134.489
1133.438
1132.347
1131.217
1130.05
1135.514
1134.504
1133.454
1132.364
1131.236
1136.529
1135.561
1134.553
1133.505
1132.418
1137.545
1136.62
1135.655
1134.65
1133.606
1138.575
1137.692
1136.77
1135.809
1134.809
1139.612
1138.772
1137.893
1136.976
1136.02
1140.6
1139.801
1138.964
1138.089
1137.176
1141.505
1140.746
1139.949
1139.115
1138.244
1142.318
1141.597
1140.839
1140.044
1139.212
1143.04
1142.355
1141.635
1140.877
1140.083
1143.671
1143.023
1142.338
1141.617
1140.859
1144.216
1143.602
1142.952
1142.266
1141.544
1144.677
1144.097
1143.481
1142.83
1142.142
1145.06
1144.513
1143.932
1143.314
1142.66
1145.379
1144.866
1144.318
1143.734
1143.114
1145.668
1145.188
1144.674
1144.124
1143.538
1145.972
1145.526
1145.046
1144.53
1143.978
1146.291
1145.88
1145.434
1144.952
1144.435
1146.613
1146.236
1145.824
1145.377
1144.895
1146.926
1146.583
1146.205
1145.793
1145.345
1135.487
1134.476
1133.425
1132.334
1131.205
1136.47
1135.5
1134.49
1133.441
1132.351
1137.443
1136.515
1135.547
1134.539
1133.491
1138.417
1137.531
1136.605
1135.64
1134.635
1139.404
1138.559
1137.676
1136.754
1135.793
1140.398
1139.596
1138.755
1137.876
1136.958
1141.345
1140.583
1139.783
1138.946
1138.071
1142.21
1141.488
1140.728
1139.931
1139.097
1142.986
1142.301
1141.579
1140.821
1140.026
1143.671
1143.023
1142.338
1141.617
1140.859
1144.268
1143.655
1143.006
1142.32
1141.599
1144.779
1144.2
1143.586
1142.935
1142.249
1145.207
1144.662
1144.081
1143.465
1142.813
1145.557
1145.045
1144.498
1143.916
1143.298
1145.844
1145.366
1144.852
1144.304
1143.72
1146.1
1145.655
1145.176
1144.661
1144.11
1146.371
1145.96
1145.514
1145.033
1144.517
1146.657
1146.28
1145.868
1145.422
1144.94
1146.945
1146.602
1146.225
1145.812
1145.365
1147.225
1146.915
1146.572
1146.194
1145.781
1136.444
1135.473
1134.463
1133.412
1132.321
1137.386
1136.457
1135.487
1134.477
1133.427
1138.318
1137.429
1136.501
1135.533
1134.525
1139.25
1138.403
1137.516
1136.59
1135.625
1140.194
1139.389
1138.544
1137.661
1136.738
1141.147
1140.382
1139.579
1138.738
1137.858
1142.053
1141.328
1140.565
1139.765
1138.928
1142.88
1142.193
1141.47
1140.71
1139.913
1143.619
1142.969
1142.284
1141.562
1140.803
1144.268
1143.655
1143.006
1142.32
1141.599
1144.831
1144.252
1143.638
1142.988
1142.303
1145.308
1144.763
1144.184
1143.569
1142.918
1145.702
1145.192
1144.646
1144.065
1143.449
1146.02
1145.543
1145.03
1144.483
1143.901
1146.275
1145.831
1145.352
1144.838
1144.289
1146.498
1146.088
1145.643
1145.163
1144.647
1146.736
1146.359
1145.948
1145.502
1145.021
1146.989
1146.646
1146.269
1145.857
1145.41
1147.244
1146.935
1146.591
1146.213
1145.801
1147.49
1147.214
1146.905
1146.561
1146.183
1137.361
1136.43
1135.46
1134.449
1133.398
1138.263
1137.373
1136.443
1135.473
1134.463
1139.154
1138.304
1137.415
1136.487
1135.519
1140.044
1139.236
1138.388
1137.502
1136.575
1140.948
1140.18
1139.373
1138.529
1137.645
1141.859
1141.131
1140.366
1139.562
1138.721
1142.725
1142.036
1141.311
1140.548
1139.748
1143.514
1142.863
1142.176
1141.453
1140.692
1144.216
1143.602
1142.952
1142.266
1141.544
1144.831
1144.252
1143.638
1142.988
1142.303
1145.359
1144.815
1144.236
1143.622
1142.972
1145.802
1145.292
1144.748
1144.168
1143.553
1146.164
1145.687
1145.176
1144.631
1144.049
1146.449
1146.006
1145.528
1145.016
1144.468
1146.671
1146.261
1145.817
1145.338
1144.824
1146.862
1146.486
1146.075
1145.63
1145.15
1147.067
1146.725
1146.348
1145.936
1145.49
1147.287
1146.978
1146.635
1146.257
1145.845
1147.509
1147.233
1146.924
1146.58
1146.202
1147.721
1147.479
1147.204
1146.894
1146.55
1138.238
1137.347
1136.417
1135.446
1134.435
1139.1
1138.249
1137.359
1136.429
1135.459
1139.95
1139.14
1138.29
1137.401
1136.473
1140.801
1140.031
1139.222
1138.374
1137.487
1141.664
1140.933
1140.165
1139.358
1138.513
1142.535
1141.843
1141.115
1140.349
1139.546
1143.361
1142.709
1142.02
1141.294
1140.531
1144.113
1143.498
1142.846
1142.159
1141.435
1144.779
1144.2
1143.586
1142.935
1142.249
1145.359
1144.815
1144.236
1143.622
1142.972
1145.853
1145.343
1144.799
1144.22
1143.605
1146.263
1145.787
1145.277
1144.732
1144.152
1146.591
1146.149
1145.673
1145.161
1144.615
1146.844
1146.435
1145.992
1145.514
1145.001
1147.034
1146.658
1146.248
1145.804
1145.324
1147.193
1146.85
1146.474
1146.063
1145.617
1147.365
1147.056
1146.713
1146.336
1145.924
1147.552
1147.277
1146.967
1146.624
1146.246
1147.74
1147.498
1147.223
1146.913
1146.569
1147.919
1147.711
1147.469
1147.193
1146.883
1139.075
1138.224
1137.334
1136.403
1135.432
1139.898
1139.086
1138.235
1137.345
1136.415
1140.709
1139.937
1139.126
1138.276
1137.387
1141.52
1140.787
1140.016
1139.207
1138.359
1142.343
1141.649
1140.918
1140.15
1139.343
1143.174
1142.519
1141.828
1141.099
1140.333
1143.962
1143.345
1142.692
1142.003
1141.277
1144.677
1144.097
1143.481
1142.83
1142.142
1145.308
1144.763
1144.184
1143.569
1142.918
1145.853
1145.343
1144.799
1144.22
1143.605
1146.313
1145.837
1145.328
1144.783
1144.204
1146.69
1146.248
1145.772
1145.262
1144.716
1146.986
1146.577
1146.135
1145.658
1145.146
1147.205
1146.83
1146.421
1145.977
1145.499
1147.363
1147.021
1146.645
1146.235
1145.79
1147.489
1147.181
1146.838
1146.462
1146.05
1147.629
1147.354
1147.045
1146.702
1146.324
1147.783
1147.541
1147.266
1146.956
1146.613
1147.938
1147.73
1147.488
1147.212
1146.902
1148.083
1147.909
1147.701
1147.459
1147.182
1139.874
1139.062
1138.211
1137.32
1136.389
1140.657
1139.884
1139.072
1138.221
1137.331
1141.43
1140.696
1139.923
1139.112
1138.262
1142.202
1141.506
1140.773
1140.002
1139.193
1142.986
1142.329
1141.635
1140.904
1140.134
1143.778
1143.159
1142.504
1141.812
1141.083
1144.529
1143.947
1143.33
1142.676
1141.986
1145.207
1144.662
1144.081
1143.465
1142.813
1145.802
1145.292
1144.748
1144.168
1143.553
1146.313
1145.837
1145.328
1144.783
1144.204
1146.739
1146.298
1145.822
1145.312
1144.767
1147.083
1146.675
1146.233
1145.757
1145.246
1147.346
1146.972
1146.563
1146.12
1145.643
1147.534
1147.192
1146.817
1146.407
1145.963
1147.659
1147.351
1147.009
1146.632
1146.222
1147.753
1147.478
1147.169
1146.827
1146.449
1147.86
1147.619
1147.343
1147.034
1146.69
1147.981
1147.773
1147.531
1147.255
1146.945
1148.102
1147.928
1147.719
1147.477
1147.201
1148.214
1148.073
1147.899
1147.69
1147.448
1140.635
1139.861
1139.049
1138.197
1137.306
1141.379
1140.644
1139.871
1139.059
1138.208
1142.113
1141.417
1140.682
1139.909
1139.098
1142.847
1142.189
1141.493
1140.759
1139.988
1143.593
1142.972
1142.315
1141.62
1140.889
1144.347
1143.763
1143.144
1142.489
1141.796
1145.06
1144.513
1143.932
1143.314
1142.66
1145.702
1145.192
1144.646
1144.065
1143.449
1146.263
1145.787
1145.277
1144.732
1144.152
1146.739
1146.298
1145.822
1145.312
1144.767
1147.132
1146.725
1146.283
1145.807
1145.297
1147.443
1147.069
1146.661
1146.219
1145.742
1147.674
1147.333
1146.958
1146.549
1146.106
1147.829
1147.521
1147.179
1146.803
1146.394
1147.922
1147.647
1147.338
1146.996
1146.619
1147.983
1147.742
1147.467
1147.158
1146.815
1148.057
1147.849
1147.608
1147.332
1147.023
1148.145
1147.97
1147.762
1147.52
1147.244
1148.233
1148.092
1147.918
1147.709
1147.467
1148.312
1148.205
1148.063
1147.889
1147.68
1141.357
1140.621
1139.848
1139.035
1138.183
1142.064
1141.366
1140.631
1139.857
1139.045
1142.76
1142.101
1141.403
1140.669
1139.896
1143.456
1142.834
1142.175
1141.479
1140.745
1144.164
1143.579
1142.958
1142.3
1141.606
1144.88
1144.332
1143.749
1143.129
1142.473
1145.557
1145.045
1144.498
1143.916
1143.298
1146.164
1145.687
1145.176
1144.631
1144.049
1146.69
1146.248
1145.772
1145.262
1144.716
1147.132
1146.725
1146.283
1145.807
1145.297
1147.492
1147.118
1146.71
1146.268
1145.792
1147.77
1147.429
1147.055
1146.647
1146.204
1147.968
1147.66
1147.319
1146.944
1146.535
1148.09
1147.816
1147.508
1147.166
1146.79
1148.151
1147.91
1147.635
1147.326
1146.983
1148.18
1147.972
1147.731
1147.455
1147.146
1148.221
1148.047
1147.839
1147.597
1147.321
1148.276
1148.135
1147.96
1147.752
1147.51
1148.33
1148.223
1148.082
1147.908
1147.699
1148.376
1148.302
1148.195
1148.054
1147.879
1142.042
1141.344
1140.608
1139.834
1139.021
1142.712
1142.051
1141.353
1140.618
1139.844
1143.371
1142.748
1142.087
1141.39
1140.655
1144.029
1143.443
1142.821
1142.162
1141.465
1144.7
1144.151
1143.565
1142.944
1142.286
1145.379
1144.866
1144.318
1143.734
1143.114
1146.02
1145.543
1145.03
1144.483
1143.901
1146.591
1146.149
1145.673
1145.161
1144.615
1147.083
1146.675
1146.233
1145.757
1145.246
1147.492
1147.118
1146.71
1146.268
1145.792
1147.819
1147.478
1147.104
1146.696
1146.254
1148.064
1147.757
1147.416
1147.041
1146.632
1148.229
1147.955
1147.647
1147.305
1146.93
1148.319
1148.078
1147.803
1147.495
1147.152
1148.347
1148.139
1147.898
1147.622
1147.314
1148.343
1148.169
1147.961
1147.719
1147.444
1148.352
1148.211
1148.036
1147.828
1147.586
1148.373
1148.266
1148.125
1147.95
1147.741
1148.395
1148.321
1148.214
1148.072
1147.897
1148.407
1148.367
1148.293
1148.185
1148.044
1142.69
1142.029
1141.331
1140.595
1139.821
1143.323
1142.699
1142.038
1141.34
1140.604
1143.945
1143.358
1142.735
1142.074
1141.377
1144.567
1144.017
1143.43
1142.808
1142.148
1145.201
1144.687
1144.137
1143.552
1142.93
1145.844
1145.366
1144.852
1144.304
1143.72
1146.449
1146.006
1145.528
1145.016
1144.468
1146.986
1146.577
1146.135
1145.658
1145.146
1147.443
1147.069
1146.661
1146.219
1145.742
1147.819
1147.478
1147.104
1146.696
1146.254
1148.113
1147.805
1147.464
1147.09
1146.682
1148.325
1148.051
1147.743
1147.402
1147.027
1148.457
1148.216
1147.942
1147.634
1147.292
1148.515
1148.307
1148.065
1147.79
1147.482
1148.51
1148.336
1148.127
1147.886
1147.61
1148.474
1148.333
1148.158
1147.95
1147.708
1148.449
1148.342
1148.201
1148.026
1147.817
1148.437
1148.363
1148.256
1148.115
1147.94
1148.426
1148.385
1148.311
1148.204
1148.062
1148.398
1148.357
1148.283
1148.175
1143.302
1142.678
1142.016
1141.318
1140.582
1143.898
1143.311
1142.686
1142.025
1141.327
1144.484
1143.933
1143.346
1142.722
1142.061
1145.07
1144.555
1144.004
1143.417
1142.794
1145.668
1145.188
1144.674
1144.124
1143.538
1146.274
1145.831
1145.352
1144.838
1144.289
1146.844
1146.435
1145.992
1145.514
1145.001
1147.346
1146.972
1146.563
1146.12
1145.643
1147.77
1147.429
1147.055
1146.647
1146.204
1148.113
1147.805
1147.464
1147.09
1146.682
1148.374
1148.099
1147.792
1147.451
1147.076
1148.553
1148.312
1148.037
1147.73
1147.388
1148.653
1148.445
1148.203
1147.929
1147.62
1148.677
1148.503
1148.294
1148.053
1147.778
1148.64
1148.499
1148.324
1148.116
1147.874
1148.571
1148.463
1148.322
1148.147
1147.939
1148.513
1148.439
1148.332
1148.19
1148.015
1148.469
1148.428
1148.353
1148.246
1148.105
1148.417
1148.376
1148.302
1148.194
1148.389
1148.348
1148.273
1143.877
1143.289
1142.665
1142.004
1141.305
1144.438
1143.886
1143.298
1142.674
1142.012
1144.988
1144.472
1143.921
1143.333
1142.709
1145.538
1145.058
1144.542
1143.991
1143.404
1146.1
1145.655
1145.176
1144.661
1144.11
1146.671
1146.261
1145.817
1145.338
1144.824
1147.205
1146.83
1146.421
1145.977
1145.499
1147.674
1147.333
1146.958
1146.549
1146.106
1148.064
1147.757
1147.416
1147.041
1146.632
1148.374
1148.099
1147.792
1147.451
1147.076
1148.601
1148.36
1148.086
1147.778
1147.437
1148.748
1148.54
1148.299
1148.024
1147.716
1148.815
1148.64
1148.432
1148.191
1147.916
1148.807
1148.665
1148.491
1148.282
1148.04
1148.737
1148.629
1148.487
1148.313
1148.104
1148.635
1148.56
1148.453
1148.311
1148.136
1148.545
1148.503
1148.429
1148.322
1148.18
1148.459
1148.418
1148.344
1148.236
1148.407
1148.366
1148.292
1148.379
1148.338
1144.417
1143.865
1143.277
1142.652
1141.991
1144.942
1144.426
1143.874
1143.286
1142.661
1145.457
1144.976
1144.46
1143.908
1143.32
1145.972
1145.526
1145.046
1144.53
1143.978
1146.498
1146.088
1145.643
1145.163
1144.647
1147.034
1146.658
1146.248
1145.804
1145.324
1147.534
1147.192
1146.817
1146.407
1145.963
1147.968
1147.66
1147.319
1146.944
1146.535
1148.325
1148.051
1147.743
1147.402
1147.027
1148.601
1148.36
1148.086
1147.778
1147.437
1148.797
1148.588
1148.347
1148.073
1147.765
1148.911
1148.736
1148.527
1148.286
1148.011
1148.945
1148.803
1148.628
1148.419
1148.178
1148.904
1148.796
1148.654
1148.479
1148.27
1148.801
1148.726
1148.618
1148.476
1148.301
1148.667
1148.624
1148.55
1148.442
1148.3
1148.535
1148.494
1148.419
1148.311
1148.45
1148.408
1148.334
1148.398
1148.357
1148.37
1144.922
1144.405
1143.853
1143.265
1142.64
1145.412
1144.931
1144.414
1143.861
1143.273
1145.891
1145.445
1144.964
1144.448
1143.896
1146.371
1145.96
1145.514
1145.033
1144.517
1146.862
1146.486
1146.075
1145.63
1145.15
1147.363
1147.021
1146.645
1146.235
1145.79
1147.829
1147.521
1147.179
1146.803
1146.394
1148.229
1147.955
1147.647
1147.305