/*--------------------------------*- C++ -*----------------------------------*\
| =========                 |                                                 |
| \\      /  F ield         | OpenFOAM: The Open Source CFD Toolbox           |
|  \\    /   O peration     | Version:  2306                                  |
|   \\  /    A nd           | Website:  www.openfoam.com                      |
|    \\/     M anipulation  |                                                 |
\*---------------------------------------------------------------------------*/
FoamFile
{
    version     2.0;
    format      ascii;
    arch        "LSB;label=32;scalar=64";
    class       volScalarField;
    location    "1.2/interconnect";
    object      T;
}
// * * * * * * * * * * * * * * * * * * * * * * * * * * * * * * * * * * * * * //

dimensions      [0 0 0 1 0 0 0];

internalField   nonuniform List<scalar> 
16000
(
1258.853
1258.851
1260.938
1258.78
1258.846
1260.937
1258.776
1263.683
1260.915
1258.634
1258.84
1260.935
1258.77
1263.683
1260.914
1258.629
1266.498
1263.684
1260.872
1258.422
1258.832
1260.933
1258.761
1263.681
1260.912
1258.618
1266.497
1263.683
1260.87
1258.412
1269.187
1266.507
1263.686
1260.813
1258.153
1258.824
1260.93
1258.75
1263.679
1260.909
1258.603
1266.496
1263.681
1260.867
1258.393
1269.186
1266.506
1263.685
1260.81
1258.134
1271.696
1269.197
1266.525
1263.694
1260.745
1257.931
1258.816
1260.927
1258.739
1263.676
1260.905
1258.585
1266.494
1263.678
1260.862
1258.367
1269.184
1266.503
1263.682
1260.805
1258.099
1271.695
1269.196
1266.523
1263.692
1260.741
1257.899
1274.024
1271.706
1269.219
1266.556
1263.713
1260.696
1257.787
1258.809
1260.924
1258.727
1263.674
1260.901
1258.566
1266.491
1263.674
1260.856
1258.337
1269.182
1266.5
1263.677
1260.798
1258.051
1271.694
1269.194
1266.52
1263.687
1260.732
1257.835
1274.023
1271.705
1269.217
1266.553
1263.71
1260.689
1257.746
1276.183
1274.034
1271.728
1269.255
1266.603
1263.74
1260.669
1257.656
1258.804
1260.921
1258.717
1263.671
1260.896
1258.546
1266.488
1263.671
1260.85
1258.304
1269.18
1266.497
1263.671
1260.789
1258
1271.692
1269.191
1266.515
1263.68
1260.721
1257.742
1274.022
1271.703
1269.214
1266.548
1263.703
1260.675
1257.662
1276.183
1274.033
1271.726
1269.252
1266.6
1263.736
1260.659
1257.606
1278.189
1276.192
1274.053
1271.763
1269.308
1266.654
1263.762
1260.648
1257.545
1258.801
1260.919
1258.71
1263.669
1260.893
1258.528
1266.486
1263.667
1260.843
1258.266
1269.177
1266.493
1263.665
1260.779
1257.964
1271.69
1269.187
1266.509
1263.67
1260.71
1257.623
1274.02
1271.701
1269.209
1266.54
1263.692
1260.656
1257.532
1276.181
1274.031
1271.723
1269.247
1266.593
1263.729
1260.64
1257.503
1278.188
1276.191
1274.052
1271.76
1269.305
1266.651
1263.758
1260.636
1257.488
1280.057
1278.197
1276.209
1274.085
1271.814
1269.363
1266.693
1263.79
1260.638
1257.46
1258.801
1260.918
1258.706
1263.667
1260.89
1258.514
1266.483
1263.664
1260.837
1258.229
1269.174
1266.489
1263.659
1260.767
1257.88
1271.687
1269.184
1266.502
1263.658
1260.701
1274.018
1271.698
1269.203
1266.529
1263.676
1260.635
1257.352
1276.18
1274.029
1271.719
1269.239
1266.582
1263.719
1260.612
1257.343
1278.187
1276.189
1274.049
1271.756
1269.299
1266.646
1263.751
1260.612
1257.371
1280.056
1278.196
1276.208
1274.083
1271.811
1269.361
1266.69
1263.786
1260.624
1257.398
1281.801
1280.064
1278.213
1276.238
1274.132
1271.867
1269.404
1266.736
1263.825
1260.641
1257.404
1258.804
1260.918
1258.706
1263.666
1260.888
1258.507
1266.482
1263.661
1260.832
1258.201
1269.172
1266.486
1263.653
1260.755
1257.797
1271.685
1269.18
1266.496
1263.647
1260.677
1274.016
1271.694
1269.197
1266.516
1263.652
1276.178
1274.026
1271.714
1269.229
1266.564
1263.709
1260.578
1257.115
1278.186
1276.187
1274.045
1271.749
1269.288
1266.639
1263.74
1260.576
1257.188
1280.056
1278.195
1276.206
1274.079
1271.806
1269.357
1266.686
1263.777
1260.596
1257.273
1281.8
1280.063
1278.212
1276.237
1274.13
1271.865
1269.403
1266.734
1263.82
1260.626
1257.341
1283.432
1281.807
1280.078
1278.239
1276.281
1274.18
1271.905
1269.449
1266.783
1263.866
1260.658
1257.379
1258.809
1260.919
1258.71
1263.666
1260.888
1258.507
1266.481
1263.66
1260.829
1258.186
1269.171
1266.484
1263.649
1260.745
1257.734
1271.683
1269.177
1266.49
1263.637
1260.65
1274.014
1271.691
1269.191
1266.504
1263.63
1276.176
1274.023
1271.708
1269.217
1266.534
1278.184
1276.184
1274.041
1271.739
1269.27
1266.631
1263.726
1260.527
1256.93
1280.054
1278.193
1276.202
1274.073
1271.796
1269.351
1266.68
1263.764
1260.553
1257.077
1281.799
1280.062
1278.209
1276.233
1274.125
1271.861
1269.4
1266.73
1263.81
1260.596
1257.211
1283.431
1281.806
1280.077
1278.237
1276.279
1274.179
1271.904
1269.448
1266.781
1263.861
1260.643
1257.316
1284.96
1283.437
1281.82
1280.102
1278.277
1276.324
1274.215
1271.947
1269.497
1266.834
1263.914
1260.691
1257.385
1258.816
1260.921
1258.717
1263.667
1260.89
1258.514
1266.481
1263.66
1260.829
1258.186
1269.17
1266.482
1263.647
1260.74
1257.701
1271.682
1269.175
1266.486
1263.629
1260.627
1274.012
1271.688
1269.186
1266.494
1263.61
1276.174
1274.02
1271.702
1269.205
1266.51
1278.182
1276.182
1274.035
1271.728
1269.24
1280.053
1278.19
1276.198
1274.064
1271.779
1269.345
1266.673
1263.747
1260.492
1256.801
1281.798
1280.06
1278.206
1276.227
1274.116
1271.856
1269.395
1266.724
1263.796
1260.548
1257.011
1283.43
1281.805
1280.075
1278.234
1276.274
1274.175
1271.901
1269.445
1266.777
1263.851
1260.613
1257.187
1284.959
1283.437
1281.819
1280.101
1278.275
1276.322
1274.214
1271.946
1269.496
1266.833
1263.91
1260.677
1257.323
1286.393
1284.965
1283.449
1281.842
1280.137
1278.316
1276.356
1274.253
1271.992
1269.548
1266.89
1263.969
1260.738
1257.42
1258.824
1260.924
1258.727
1263.669
1260.893
1258.528
1266.482
1263.661
1260.832
1258.201
1269.17
1266.482
1263.647
1260.74
1257.701
1271.681
1269.174
1266.484
1263.625
1260.615
1274.011
1271.686
1269.182
1266.487
1263.596
1276.172
1274.017
1271.697
1269.196
1266.493
1278.181
1276.179
1274.03
1271.717
1269.218
1280.051
1278.188
1276.193
1274.054
1271.751
1281.797
1280.058
1278.202
1276.219
1274.101
1271.85
1269.391
1266.716
1263.775
1260.481
1256.73
1283.429
1281.804
1280.073
1278.229
1276.266
1274.171
1271.898
1269.442
1266.772
1263.836
1260.565
1256.989
1284.958
1283.436
1281.817
1280.097
1278.271
1276.319
1274.212
1271.945
1269.494
1266.83
1263.901
1260.648
1257.197
1286.393
1284.964
1283.448
1281.84
1280.135
1278.314
1276.355
1274.253
1271.991
1269.548
1266.889
1263.966
1260.725
1257.358
1287.739
1286.398
1284.976
1283.469
1281.873
1280.172
1278.344
1276.39
1274.294
1272.039
1269.602
1266.949
1264.031
1260.798
1257.482
1258.832
1260.927
1258.739
1263.671
1260.896
1258.546
1266.483
1263.664
1260.837
1258.229
1269.171
1266.484
1263.649
1260.745
1257.734
1271.681
1269.174
1266.484
1263.625
1260.615
1274.01
1271.685
1269.18
1266.484
1263.588
1276.171
1274.015
1271.694
1269.189
1266.481
1278.179
1276.177
1274.026
1271.709
1269.202
1280.05
1278.185
1276.189
1274.044
1271.731
1281.795
1280.056
1278.198
1276.21
1274.076
1283.428
1281.802
1280.069
1278.222
1276.253
1274.166
1271.895
1269.438
1266.763
1263.813
1260.497
1256.715
1284.957
1283.434
1281.815
1280.093
1278.264
1276.315
1274.209
1271.942
1269.492
1266.824
1263.886
1260.603
1257.008
1286.392
1284.963
1283.447
1281.837
1280.131
1278.312
1276.353
1274.251
1271.99
1269.547
1266.887
1263.959
1260.7
1257.236
1287.739
1286.398
1284.975
1283.468
1281.871
1280.17
1278.343
1276.389
1274.293
1272.039
1269.602
1266.949
1264.029
1260.788
1257.421
1289.005
1287.744
1286.408
1284.994
1283.498
1281.905
1280.197
1278.375
1276.426
1274.336
1272.088
1269.658
1267.011
1264.097
1260.87
1258.84
1260.93
1258.75
1263.674
1260.901
1258.566
1266.486
1263.667
1260.843
1258.266
1269.172
1266.486
1263.653
1260.755
1257.797
1271.682
1269.175
1266.486
1263.629
1260.627
1274.01
1271.685
1269.18
1266.484
1263.588
1276.171
1274.014
1271.692
1269.186
1266.475
1278.178
1276.175
1274.023
1271.703
1269.192
1280.048
1278.183
1276.185
1274.037
1271.717
1281.794
1280.054
1278.194
1276.201
1274.057
1283.427
1281.8
1280.065
1278.213
1276.23
1284.956
1283.432
1281.812
1280.086
1278.252
1276.311
1274.206
1271.94
1269.488
1266.816
1263.865
1260.541
1256.751
1286.391
1284.962
1283.444
1281.833
1280.124
1278.308
1276.35
1274.249
1271.989
1269.545
1266.883
1263.947
1260.663
1257.056
1287.739
1286.397
1284.974
1283.465
1281.868
1280.168
1278.342
1276.388
1274.293
1272.039
1269.602
1266.949
1264.025
1260.767
1257.299
1289.005
1287.744
1286.408
1284.993
1283.496
1281.904
1280.196
1278.374
1276.426
1274.336
1272.089
1269.659
1267.012
1264.097
1260.861
1290.194
1289.009
1287.754
1286.425
1285.02
1283.527
1281.928
1280.225
1278.408
1276.464
1274.381
1272.139
1269.715
1267.075
1264.167
1258.846
1260.933
1258.761
1263.676
1260.905
1258.585
1266.488
1263.671
1260.85
1258.304
1269.174
1266.489
1263.659
1260.767
1257.88
1271.683
1269.177
1266.49
1263.637
1260.65
1274.011
1271.686
1269.182
1266.487
1263.596
1276.171
1274.014
1271.692
1269.186
1266.475
1278.178
1276.174
1274.021
1271.7
1269.187
1280.047
1278.182
1276.182
1274.031
1271.708
1281.793
1280.052
1278.191
1276.195
1274.045
1283.425
1281.798
1280.061
1278.205
1276.213
1284.955
1283.431
1281.808
1280.079
1278.231
1286.39
1284.96
1283.441
1281.827
1280.114
1278.304
1276.348
1274.247
1271.987
1269.541
1266.876
1263.929
1260.611
1256.823
1287.738
1286.395
1284.971
1283.461
1281.862
1280.165
1278.339
1276.386
1274.292
1272.038
1269.601
1266.947
1264.018
1260.738
1257.12
1289.004
1287.743
1286.406
1284.99
1283.493
1281.901
1280.195
1278.373
1276.425
1274.336
1272.089
1269.66
1267.014
1264.097
1260.844
1290.194
1289.009
1287.753
1286.424
1285.019
1283.526
1281.927
1280.225
1278.407
1276.464
1274.381
1272.14
1269.717
1267.077
1264.169
1291.313
1290.198
1289.018
1287.769
1286.449
1285.047
1283.548
1281.953
1280.255
1278.442
1276.504
1274.426
1272.191
1269.773
1267.138
1258.851
1260.935
1258.77
1263.679
1260.909
1258.603
1266.491
1263.674
1260.856
1258.337
1269.177
1266.493
1263.665
1260.779
1257.964
1271.685
1269.18
1266.496
1263.647
1260.677
1274.012
1271.688
1269.186
1266.494
1263.61
1276.171
1274.015
1271.694
1269.189
1266.481
1278.178
1276.174
1274.021
1271.7
1269.187
1280.047
1278.181
1276.181
1274.029
1271.703
1281.792
1280.05
1278.188
1276.19
1274.037
1283.424
1281.796
1280.058
1278.199
1276.202
1284.954
1283.429
1281.805
1280.072
1278.216
1286.389
1284.959
1283.438
1281.82
1280.095
1287.737
1286.394
1284.969
1283.456
1281.852
1280.161
1278.337
1276.384
1274.29
1272.036
1269.599
1266.943
1264.007
1260.703
1256.902
1289.003
1287.742
1286.404
1284.987
1283.487
1281.898
1280.193
1278.372
1276.424
1274.336
1272.09
1269.662
1267.016
1264.097
1260.823
1290.194
1289.008
1287.752
1286.422
1285.016
1283.524
1281.926
1280.224
1278.407
1276.464
1274.382
1272.142
1269.721
1267.083
1264.172
1291.313
1290.198
1289.017
1287.768
1286.448
1285.046
1283.547
1281.953
1280.254
1278.442
1276.504
1274.427
1272.193
1269.776
1267.142
1292.364
1291.317
1290.207
1289.032
1287.792
1286.474
1285.067
1283.571
1281.98
1280.286
1278.478
1276.545
1274.472
1272.242
1269.83
1258.853
1260.937
1258.776
1263.681
1260.912
1258.618
1266.494
1263.678
1260.862
1258.367
1269.18
1266.497
1263.671
1260.789
1258
1271.687
1269.184
1266.502
1263.658
1260.701
1274.014
1271.691
1269.191
1266.504
1263.63
1276.172
1274.017
1271.697
1269.196
1266.493
1278.178
1276.175
1274.023
1271.703
1269.192
1280.047
1278.181
1276.181
1274.029
1271.703
1281.791
1280.05
1278.187
1276.188
1274.033
1283.423
1281.795
1280.056
1278.195
1276.195
1284.953
1283.427
1281.802
1280.066
1278.206
1286.388
1284.957
1283.435
1281.814
1280.082
1287.736
1286.392
1284.966
1283.45
1281.835
1289.002
1287.74
1286.402
1284.982
1283.478
1281.895
1280.191
1278.37
1276.423
1274.335
1272.089
1269.662
1267.017
1264.097
1260.806
1290.193
1289.007
1287.75
1286.418
1285.011
1283.521
1281.924
1280.222
1278.406
1276.464
1274.382
1272.144
1269.725
1267.09
1264.181
1291.312
1290.197
1289.016
1287.766
1286.445
1285.044
1283.546
1281.952
1280.254
1278.442
1276.505
1274.429
1272.196
1269.783
1267.151
1292.364
1291.316
1290.206
1289.032
1287.791
1286.473
1285.066
1283.571
1281.98
1280.286
1278.478
1276.546
1274.474
1272.245
1269.834
1293.352
1292.368
1291.325
1290.22
1289.054
1287.815
1286.492
1285.088
1283.596
1282.008
1280.318
1278.514
1276.586
1274.518
1272.292
1260.938
1258.78
1263.683
1260.914
1258.629
1266.496
1263.681
1260.867
1258.393
1269.182
1266.5
1263.677
1260.798
1258.051
1271.69
1269.187
1266.509
1263.67
1260.71
1257.623
1274.016
1271.694
1269.197
1266.516
1263.652
1276.174
1274.02
1271.702
1269.205
1266.51
1278.179
1276.177
1274.026
1271.709
1269.202
1280.047
1278.182
1276.182
1274.031
1271.708
1281.791
1280.05
1278.187
1276.188
1274.033
1283.423
1281.794
1280.055
1278.193
1276.191
1284.952
1283.426
1281.8
1280.063
1278.2
1286.387
1284.956
1283.433
1281.809
1280.072
1287.735
1286.391
1284.963
1283.444
1281.823
1289.001
1287.739
1286.399
1284.976
1283.463
1290.192
1289.005
1287.747
1286.414
1285.003
1283.518
1281.922
1280.221
1278.405
1276.463
1274.382
1272.146
1269.729
1267.099
1264.197
1291.311
1290.196
1289.014
1287.763
1286.441
1285.042
1283.544
1281.951
1280.253
1278.442
1276.506
1274.431
1272.201
1269.792
1267.166
1292.363
1291.316
1290.205
1289.03
1287.788
1286.472
1285.065
1283.57
1281.98
1280.286
1278.479
1276.547
1274.478
1272.252
1269.844
1293.351
1292.367
1291.324
1290.22
1289.053
1287.814
1286.492
1285.088
1283.596
1282.008
1280.318
1278.515
1276.588
1274.521
1272.297
1294.278
1293.355
1292.375
1291.337
1290.24
1289.075
1287.832
1286.512
1285.111
1283.622
1282.038
1280.351
1278.551
1276.627
1274.562
1263.683
1260.915
1258.634
1266.497
1263.683
1260.87
1258.412
1269.184
1266.503
1263.682
1260.805
1258.099
1271.692
1269.191
1266.515
1263.68
1260.721
1257.742
1274.018
1271.698
1269.203
1266.529
1263.676
1260.635
1257.352
1276.176
1274.023
1271.708
1269.217
1266.534
1278.181
1276.179
1274.03
1271.717
1269.218
1280.048
1278.183
1276.185
1274.037
1271.717
1281.792
1280.05
1278.188
1276.19
1274.037
1283.423
1281.794
1280.055
1278.193
1276.191
1284.952
1283.425
1281.799
1280.061
1278.196
1286.386
1284.954
1283.431
1281.806
1280.066
1287.734
1286.389
1284.96
1283.439
1281.814
1289
1287.737
1286.396
1284.971
1283.452
1290.191
1289.004
1287.745
1286.408
1284.988
1291.31
1290.195
1289.012
1287.759
1286.433
1285.039
1283.542
1281.949
1280.252
1278.441
1276.506
1274.433
1272.206
1269.803
1267.19
1292.363
1291.315
1290.203
1289.027
1287.784
1286.469
1285.063
1283.569
1281.979
1280.285
1278.479
1276.55
1274.483
1272.261
1269.86
1293.351
1292.367
1291.323
1290.218
1289.05
1287.812
1286.491
1285.087
1283.595
1282.008
1280.319
1278.517
1276.591
1274.527
1272.306
1294.278
1293.355
1292.375
1291.337
1290.239
1289.075
1287.831
1286.512
1285.11
1283.622
1282.038
1280.352
1278.553
1276.629
1274.567
1295.147
1294.282
1293.362
1292.387
1291.356
1290.261
1289.091
1287.85
1286.533
1285.134
1283.648
1282.068
1280.384
1278.588
1276.666
1266.498
1263.684
1260.872
1258.422
1269.186
1266.506
1263.685
1260.81
1258.134
1271.694
1269.194
1266.52
1263.687
1260.732
1257.835
1274.02
1271.701
1269.209
1266.54
1263.692
1260.656
1257.532
1276.178
1274.026
1271.714
1269.229
1266.564
1263.709
1260.578
1257.115
1278.182
1276.182
1274.035
1271.728
1269.24
1280.05
1278.185
1276.189
1274.044
1271.731
1281.793
1280.052
1278.191
1276.195
1274.045
1283.423
1281.795
1280.056
1278.195
1276.195
1284.952
1283.425
1281.799
1280.061
1278.196
1286.386
1284.954
1283.43
1281.804
1280.064
1287.733
1286.388
1284.959
1283.436
1281.809
1288.999
1287.736
1286.394
1284.966
1283.444
1290.19
1289.003
1287.742
1286.403
1284.978
1291.31
1290.194
1289.01
1287.754
1286.42
1292.362
1291.313
1290.201
1289.023
1287.777
1286.466
1285.062
1283.567
1281.978
1280.285
1278.479
1276.551
1274.487
1272.272
1269.883
1293.35
1292.366
1291.321
1290.215
1289.046
1287.81
1286.489
1285.086
1283.594
1282.008
1280.319
1278.519
1276.595
1274.536
1272.321
1294.278
1293.354
1292.374
1291.335
1290.237
1289.073
1287.83
1286.511
1285.11
1283.622
1282.039
1280.353
1278.556
1276.635
1274.575
1295.147
1294.281
1293.362
1292.387
1291.355
1290.26
1289.091
1287.85
1286.533
1285.134
1283.649
1282.069
1280.386
1278.59
1276.67
1295.96
1295.15
1294.288
1293.374
1292.405
1291.375
1290.276
1289.108
1287.87
1286.555
1285.159
1283.676
1282.098
1280.418
1278.624
1269.187
1266.507
1263.686
1260.813
1258.153
1271.695
1269.196
1266.523
1263.692
1260.741
1257.899
1274.022
1271.703
1269.214
1266.548
1263.703
1260.675
1257.662
1276.18
1274.029
1271.719
1269.239
1266.582
1263.719
1260.612
1257.343
1278.184
1276.184
1274.041
1271.739
1269.27
1266.631
1263.726
1260.527
1256.93
1280.051
1278.188
1276.193
1274.054
1271.751
1281.794
1280.054
1278.194
1276.201
1274.057
1283.424
1281.796
1280.058
1278.199
1276.202
1284.952
1283.426
1281.8
1280.063
1278.2
1286.386
1284.954
1283.43
1281.804
1280.064
1287.733
1286.388
1284.958
1283.434
1281.806
1288.999
1287.735
1286.392
1284.964
1283.439
1290.189
1289.002
1287.74
1286.4
1284.971
1291.309
1290.192
1289.007
1287.749
1286.41
1292.361
1291.312
1290.199
1289.018
1287.764
1293.349
1292.365
1291.319
1290.211
1289.039
1287.808
1286.488
1285.085
1283.593
1282.008
1280.32
1278.52
1276.6
1274.545
1272.343
1294.277
1293.353
1292.372
1291.332
1290.233
1289.071
1287.829
1286.51
1285.109
1283.621
1282.039
1280.355
1278.56
1276.643
1274.589
1295.146
1294.281
1293.361
1292.385
1291.353
1290.259
1289.09
1287.849
1286.532
1285.134
1283.649
1282.07
1280.389
1278.595
1276.678
1295.96
1295.15
1294.288
1293.373
1292.404
1291.375
1290.275
1289.108
1287.869
1286.555
1285.159
1283.677
1282.1
1280.42
1278.627
1296.719
1295.963
1295.157
1294.3
1293.391
1292.423
1291.39
1290.292
1289.127
1287.89
1286.578
1285.184
1283.704
1282.128
1280.45
1271.696
1269.197
1266.525
1263.694
1260.745
1257.931
1274.023
1271.705
1269.217
1266.553
1263.71
1260.689
1257.746
1276.181
1274.031
1271.723
1269.247
1266.593
1263.729
1260.64
1257.503
1278.186
1276.187
1274.045
1271.749
1269.288
1266.639
1263.74
1260.576
1257.188
1280.053
1278.19
1276.198
1274.064
1271.779
1269.345
1266.673
1263.747
1260.492
1256.801
1281.795
1280.056
1278.198
1276.21
1274.076
1283.425
1281.798
1280.061
1278.205
1276.213
1284.953
1283.427
1281.802
1280.066
1278.206
1286.386
1284.954
1283.431
1281.806
1280.066
1287.733
1286.388
1284.958
1283.434
1281.806
1288.998
1287.735
1286.392
1284.962
1283.437
1290.189
1289.001
1287.739
1286.397
1284.966
1291.308
1290.191
1289.006
1287.745
1286.404
1292.36
1291.311
1290.197
1289.014
1287.755
1293.349
1292.363
1291.317
1290.207
1289.028
1294.276
1293.352
1292.37
1291.329
1290.227
1289.069
1287.827
1286.509
1285.108
1283.621
1282.039
1280.356
1278.564
1276.652
1274.609
1295.146
1294.28
1293.359
1292.383
1291.35
1290.257
1289.088
1287.848
1286.532
1285.134
1283.65
1282.072
1280.392
1278.603
1276.691
1295.959
1295.149
1294.287
1293.371
1292.402
1291.373
1290.274
1289.107
1287.869
1286.555
1285.16
1283.678
1282.102
1280.424
1278.634
1296.719
1295.962
1295.156
1294.299
1293.39
1292.423
1291.389
1290.291
1289.126
1287.89
1286.578
1285.185
1283.705
1282.131
1280.453
1297.426
1296.722
1295.969
1295.167
1294.316
1293.408
1292.437
1291.405
1290.309
1289.146
1287.911
1286.601
1285.21
1283.731
1282.158
1274.024
1271.706
1269.219
1266.556
1263.713
1260.696
1257.787
1276.183
1274.033
1271.726
1269.252
1266.6
1263.736
1260.659
1257.606
1278.187
1276.189
1274.049
1271.756
1269.299
1266.646
1263.751
1260.612
1257.371
1280.054
1278.193
1276.202
1274.073
1271.796
1269.351
1266.68
1263.764
1260.553
1257.077
1281.797
1280.058
1278.202
1276.219
1274.101
1271.85
1269.391
1266.716
1263.775
1260.481
1256.73
1283.427
1281.8
1280.065
1278.213
1276.23
1284.954
1283.429
1281.805
1280.072
1278.216
1286.387
1284.956
1283.433
1281.809
1280.072
1287.733
1286.388
1284.959
1283.436
1281.809
1288.998
1287.735
1286.392
1284.962
1283.437
1290.188
1289
1287.738
1286.395
1284.964
1291.307
1290.191
1289.004
1287.743
1286.399
1292.359
1291.31
1290.195
1289.01
1287.749
1293.348
1292.362
1291.315
1290.203
1289.02
1294.275
1293.351
1292.368
1291.325
1290.216
1295.145
1294.279
1293.357
1292.379
1291.344
1290.254
1289.087
1287.847
1286.531
1285.134
1283.65
1282.073
1280.396
1278.611
1276.709
1295.959
1295.148
1294.286
1293.369
1292.399
1291.372
1290.273
1289.106
1287.868
1286.555
1285.16
1283.679
1282.106
1280.431
1278.646
1296.718
1295.962
1295.155
1294.297
1293.388
1292.422
1291.388
1290.291
1289.126
1287.89
1286.578
1285.186
1283.707
1282.135
1280.459
1297.426
1296.721
1295.969
1295.167
1294.315
1293.408
1292.436
1291.404
1290.309
1289.146
1287.912
1286.602
1285.211
1283.733
1282.16
1298.082
1297.429
1296.728
1295.979
1295.183
1294.332
1293.421
1292.451
1291.421
1290.327
1289.166
1287.933
1286.625
1285.235
1283.758
1276.183
1274.034
1271.728
1269.255
1266.603
1263.74
1260.669
1257.656
1278.188
1276.191
1274.052
1271.76
1269.305
1266.651
1263.758
1260.636
1257.488
1280.056
1278.195
1276.206
1274.079
1271.806
1269.357
1266.686
1263.777
1260.596
1257.273
1281.798
1280.06
1278.206
1276.227
1274.116
1271.856
1269.395
1266.724
1263.796
1260.548
1257.011
1283.428
1281.802
1280.069
1278.222
1276.253
1274.166
1271.895
1269.438
1266.763
1263.813
1260.497
1256.715
1284.955
1283.431
1281.808
1280.079
1278.231
1286.388
1284.957
1283.435
1281.814
1280.082
1287.734
1286.389
1284.96
1283.439
1281.814
1288.999
1287.735
1286.392
1284.964
1283.439
1290.188
1289
1287.738
1286.395
1284.964
1291.307
1290.19
1289.003
1287.742
1286.397
1292.359
1291.309
1290.194
1289.008
1287.745
1293.347
1292.361
1291.313
1290.2
1289.014
1294.275
1293.35
1292.366
1291.321
1290.208
1295.144
1294.278
1293.356
1292.375
1291.333
1295.958
1295.147
1294.284
1293.366
1292.393
1291.37
1290.272
1289.105
1287.868
1286.554
1285.16
1283.68
1282.109
1280.438
1278.662
1296.718
1295.961
1295.154
1294.295
1293.385
1292.42
1291.387
1290.29
1289.126
1287.89
1286.579
1285.188
1283.71
1282.141
1280.47
1297.425
1296.721
1295.968
1295.165
1294.313
1293.406
1292.436
1291.404
1290.308
1289.146
1287.912
1286.603
1285.213
1283.737
1282.166
1298.082
1297.428
1296.727
1295.979
1295.182
1294.332
1293.42
1292.451
1291.421
1290.327
1289.166
1287.934
1286.626
1285.237
1283.761
1298.69
1298.085
1297.435
1296.738
1295.994
1295.199
1294.345
1293.435
1292.467
1291.438
1290.346
1289.186
1287.955
1286.648
1285.26
1278.189
1276.192
1274.053
1271.763
1269.308
1266.654
1263.762
1260.648
1257.545
1280.056
1278.196
1276.208
1274.083
1271.811
1269.361
1266.69
1263.786
1260.624
1257.398
1281.799
1280.062
1278.209
1276.233
1274.125
1271.861
1269.4
1266.73
1263.81
1260.596
1257.211
1283.429
1281.804
1280.073
1278.229
1276.266
1274.171
1271.898
1269.442
1266.772
1263.836
1260.565
1256.989
1284.956
1283.432
1281.812
1280.086
1278.252
1276.311
1274.206
1271.94
1269.488
1266.816
1263.865
1260.541
1256.751
1286.389
1284.959
1283.438
1281.82
1280.095
1287.735
1286.391
1284.963
1283.444
1281.823
1288.999
1287.736
1286.394
1284.966
1283.444
1290.189
1289.001
1287.739
1286.397
1284.966
1291.307
1290.19
1289.003
1287.742
1286.397
1292.359
1291.309
1290.193
1289.007
1287.743
1293.347
1292.361
1291.312
1290.197
1289.01
1294.274
1293.349
1292.365
1291.318
1290.203
1295.144
1294.277
1293.354
1292.372
1291.326
1295.957
1295.146
1294.282
1293.362
1292.384
1296.717
1295.96
1295.152
1294.292
1293.379
1292.418
1291.386
1290.289
1289.125
1287.889
1286.579
1285.189
1283.713
1282.148
1280.485
1297.425
1296.72
1295.967
1295.163
1294.31
1293.405
1292.434
1291.403
1290.308
1289.146
1287.912
1286.604
1285.216
1283.743
1282.176
1298.082
1297.428
1296.727
1295.977
1295.18
1294.331
1293.42
1292.451
1291.421
1290.327
1289.166
1287.935
1286.628
1285.241
1283.766
1298.69
1298.085
1297.434
1296.737
1295.994
1295.198
1294.344
1293.434
1292.467
1291.438
1290.346
1289.187
1287.956
1286.65
1285.262
1299.25
1298.693
1298.091
1297.444
1296.752
1296.01
1295.211
1294.358
1293.449
1292.483
1291.456
1290.365
1289.207
1287.977
1286.671
1280.057
1278.197
1276.209
1274.085
1271.814
1269.363
1266.693
1263.79
1260.638
1257.46
1281.8
1280.063
1278.212
1276.237
1274.13
1271.865
1269.403
1266.734
1263.82
1260.626
1257.341
1283.43
1281.805
1280.075
1278.234
1276.274
1274.175
1271.901
1269.445
1266.777
1263.851
1260.613
1257.187
1284.957
1283.434
1281.815
1280.093
1278.264
1276.315
1274.209
1271.942
1269.492
1266.824
1263.886
1260.603
1257.008
1286.39
1284.96
1283.441
1281.827
1280.114
1278.304
1276.348
1274.247
1271.987
1269.541
1266.876
1263.929
1260.611
1256.823
1287.736
1286.392
1284.966
1283.45
1281.835
1289
1287.737
1286.396
1284.971
1283.452
1290.189
1289.002
1287.74
1286.4
1284.971
1291.307
1290.191
1289.004
1287.743
1286.399
1292.359
1291.309
1290.193
1289.007
1287.743
1293.346
1292.36
1291.312
1290.196
1289.008
1294.274
1293.348
1292.364
1291.316
1290.2
1295.143
1294.276
1293.352
1292.369
1291.321
1295.956
1295.145
1294.28
1293.359
1292.377
1296.716
1295.959
1295.151
1294.289
1293.37
1297.424
1296.719
1295.965
1295.16
1294.305
1293.403
1292.433
1291.402
1290.307
1289.145
1287.912
1286.605
1285.219
1283.749
1282.19
1298.081
1297.427
1296.725
1295.975
1295.177
1294.329
1293.419
1292.45
1291.42
1290.327
1289.167
1287.936
1286.631
1285.246
1283.775
1298.69
1298.084
1297.433
1296.736
1295.992
1295.197
1294.343
1293.434
1292.466
1291.438
1290.346
1289.188
1287.958
1286.654
1285.268
1299.25
1298.692
1298.091
1297.444
1296.752
1296.009
1295.21
1294.358
1293.449
1292.483
1291.456
1290.365
1289.208
1287.979
1286.673
1299.763
1299.252
1298.698
1298.1
1297.458
1296.767
1296.021
1295.223
1294.372
1293.465
1292.5
1291.474
1290.384
1289.227
1287.998
1281.801
1280.064
1278.213
1276.238
1274.132
1271.867
1269.404
1266.736
1263.825
1260.641
1257.404
1283.431
1281.806
1280.077
1278.237
1276.279
1274.179
1271.904
1269.448
1266.781
1263.861
1260.643
1257.316
1284.958
1283.436
1281.817
1280.097
1278.271
1276.319
1274.212
1271.945
1269.494
1266.83
1263.901
1260.648
1257.197
1286.391
1284.962
1283.444
1281.833
1280.124
1278.308
1276.35
1274.249
1271.989
1269.545
1266.883
1263.947
1260.663
1257.056
1287.737
1286.394
1284.969
1283.456
1281.852
1280.161
1278.337
1276.384
1274.29
1272.036
1269.599
1266.943
1264.007
1260.703
1256.902
1289.001
1287.739
1286.399
1284.976
1283.463
1290.19
1289.003
1287.742
1286.403
1284.978
1291.308
1290.191
1289.006
1287.745
1286.404
1292.359
1291.309
1290.194
1289.008
1287.745
1293.346
1292.36
1291.312
1290.196
1289.008
1294.273
1293.348
1292.363
1291.315
1290.198
1295.143
1294.275
1293.351
1292.367
1291.318
1295.956
1295.145
1294.279
1293.356
1292.372
1296.716
1295.958
1295.149
1294.285
1293.364
1297.423
1296.718
1295.963
1295.157
1294.296
1298.081
1297.426
1296.724
1295.973
1295.173
1294.327
1293.418
1292.449
1291.419
1290.326
1289.167
1287.937
1286.633
1285.252
1283.788
1298.689
1298.084
1297.432
1296.734
1295.989
1295.196
1294.342
1293.433
1292.466
1291.438
1290.347
1289.189
1287.961
1286.658
1285.276
1299.249
1298.692
1298.09
1297.442
1296.75
1296.008
1295.209
1294.357
1293.449
1292.483
1291.456
1290.366
1289.21
1287.982
1286.678
1299.763
1299.252
1298.698
1298.1
1297.458
1296.767
1296.021
1295.223
1294.372
1293.465
1292.5
1291.474
1290.385
1289.229
1288
1300.23
1299.766
1299.258
1298.707
1298.114
1297.473
1296.778
1296.033
1295.237
1294.386
1293.481
1292.517
1291.492
1290.403
1289.247
1283.432
1281.807
1280.078
1278.239
1276.281
1274.18
1271.905
1269.449
1266.783
1263.866
1260.658
1257.379
1284.959
1283.437
1281.819
1280.101
1278.275
1276.322
1274.214
1271.946
1269.496
1266.833
1263.91
1260.677
1257.323
1286.392
1284.963
1283.447
1281.837
1280.131
1278.312
1276.353
1274.251
1271.99
1269.547
1266.887
1263.959
1260.7
1257.236
1287.738
1286.395
1284.971
1283.461
1281.862
1280.165
1278.339
1276.386
1274.292
1272.038
1269.601
1266.947
1264.018
1260.738
1257.12
1289.002
1287.74
1286.402
1284.982
1283.478
1281.895
1280.191
1278.37
1276.423
1274.335
1272.089
1269.662
1267.017
1264.097
1260.806
1290.191
1289.004
1287.745
1286.408
1284.988
1291.309
1290.192
1289.007
1287.749
1286.41
1292.359
1291.31
1290.195
1289.01
1287.749
1293.347
1292.361
1291.312
1290.197
1289.01
1294.273
1293.348
1292.363
1291.315
1290.198
1295.142
1294.275
1293.35
1292.366
1291.316
1295.955
1295.144
1294.278
1293.354
1292.369
1296.715
1295.957
1295.148
1294.283
1293.359
1297.423
1296.717
1295.962
1295.154
1294.29
1298.08
1297.425
1296.722
1295.969
1295.164
1298.688
1298.083
1297.431
1296.731
1295.984
1295.194
1294.341
1293.432
1292.465
1291.437
1290.347
1289.19
1287.963
1286.664
1285.288
1299.249
1298.691
1298.089
1297.44
1296.747
1296.007
1295.209
1294.356
1293.449
1292.483
1291.457
1290.367
1289.212
1287.986
1286.686
1299.763
1299.252
1298.697
1298.098
1297.456
1296.766
1296.02
1295.223
1294.371
1293.465
1292.5
1291.475
1290.387
1289.232
1288.005
1300.23
1299.765
1299.258
1298.707
1298.113
1297.472
1296.778
1296.033
1295.236
1294.386
1293.481
1292.517
1291.493
1290.405
1289.249
1300.653
1300.233
1299.771
1299.267
1298.721
1298.128
1297.483
1296.79
1296.046
1295.251
1294.402
1293.497
1292.534
1291.51
1290.422
1284.96
1283.437
1281.82
1280.102
1278.277
1276.324
1274.215
1271.947
1269.497
1266.834
1263.914
1260.691
1257.385
1286.393
1284.964
1283.448
1281.84
1280.135
1278.314
1276.355
1274.253
1271.991
1269.548
1266.889
1263.966
1260.725
1257.358
1287.739
1286.397
1284.974
1283.465
1281.868
1280.168
1278.342
1276.388
1274.293
1272.039
1269.602
1266.949
1264.025
1260.767
1257.299
1289.003
1287.742
1286.404
1284.987
1283.487
1281.898
1280.193
1278.372
1276.424
1274.336
1272.09
1269.662
1267.016
1264.097
1260.823
1290.192
1289.005
1287.747
1286.414
1285.003
1283.518
1281.922
1280.221
1278.405
1276.463
1274.382
1272.146
1269.729
1267.099
1264.197
1291.31
1290.194
1289.01
1287.754
1286.42
1292.36
1291.311
1290.197
1289.014
1287.755
1293.347
1292.361
1291.313
1290.2
1289.014
1294.274
1293.348
1292.364
1291.316
1290.2
1295.142
1294.275
1293.35
1292.366
1291.316
1295.955
1295.144
1294.277
1293.353
1292.367
1296.715
1295.957
1295.147
1294.281
1293.356
1297.422
1296.717
1295.96
1295.151
1294.285
1298.08
1297.424
1296.721
1295.966
1295.158
1298.688
1298.082
1297.429
1296.728