/*--------------------------------*- C++ -*----------------------------------*\
| =========                 |                                                 |
| \\      /  F ield         | OpenFOAM: The Open Source CFD Toolbox           |
|  \\    /   O peration     | Version:  2306                                  |
|   \\  /    A nd           | Website:  www.openfoam.com                      |
|    \\/     M anipulation  |                                                 |
\*---------------------------------------------------------------------------*/
FoamFile
{
    version     2.0;
    format      ascii;
    arch        "LSB;label=32;scalar=64";
    class       volVectorField;
    location    "0.3/phiI";
    object      i;
}
// * * * * * * * * * * * * * * * * * * * * * * * * * * * * * * * * * * * * * //

dimensions      [0 -2 0 0 0 1 0];

internalField   nonuniform List<vector> 
12000
(
(21.92415 -3.209404 1432.137)
(22.35022 -11.15078 1444.131)
(42.297 1.051263 1326.198)
(22.34791 -3.689161 4414.225)
(23.20424 -19.88918 1468.344)
(42.92148 1.650109 1334.083)
(22.79041 -12.59906 4450.524)
(36.51562 3.035395 1237.331)
(43.07622 0.7358636 4080.042)
(23.26089 -4.661379 7547.884)
(24.40166 -26.43263 1504.429)
(44.18216 0.6252787 1349.569)
(23.67934 -22.30111 4523.742)
(36.81095 7.700818 1243.46)
(43.72416 0.7152592 4103.825)
(23.73702 -15.53146 7609.364)
(28.95942 4.00456 1166.149)
(37.15581 2.790269 3797.628)
(44.76339 0.09992542 6965.317)
(24.67818 -6.148377 10769.94)
(25.73234 -26.45076 1550.494)
(45.95223 -1.15169 1371.432)
(24.93366 -29.7186 4632.748)
(37.42318 10.41834 1255.34)
(45.03417 -0.8686593 4150.535)
(24.69707 -27.17811 7733.298)
(29.11175 10.72567 1171.261)
(37.46224 6.980476 3816.058)
(45.45934 -1.169621 7005.503)
(25.20585 -20.01563 10858.06)
(23.10712 4.558631 1107.041)
(29.48058 3.800108 3571.086)
(38.55144 2.298186 6470.609)
(47.38532 -0.8716081 9928.969)
(26.62477 -8.186185 14123.99)
(26.746 -15.04689 1599.503)
(47.93133 -3.00741 1396.945)
(26.34653 -30.25372 4771.589)
(38.28802 11.05906 1271.683)
(46.88322 -3.046703 4216.518)
(26.06658 -36.34652 7917.681)
(29.43917 15.39603 1181.091)
(38.09709 9.289421 3851.801)
(46.86992 -3.882448 7084.438)
(26.27478 -34.63378 11035.68)
(23.19266 12.49833 1111.469)
(29.63971 10.12799 3586.425)
(38.88055 5.533888 6501.681)
(48.1549 -4.04959 9986.537)
(27.22311 -26.16098 14240.94)
(18.71114 4.85997 1056.199)
(23.54692 4.381513 3383.033)
(30.6178 3.391024 6073.463)
(40.72323 1.547387 9214.179)
(50.98643 -2.202795 13009.3)
(29.13695 -10.82647 16061.11)
(27.02312 1.886638 1637.389)
(49.47377 -2.139055 1420.641)
(27.46145 -18.52271 4918.696)
(39.27388 8.764673 1289.877)
(48.97379 -4.975799 4293.584)
(27.64435 -37.8887 8152.134)
(29.90618 17.35538 1194.407)
(38.99612 9.677582 3901.032)
(48.87909 -6.873666 7196.036)
(27.82024 -46.47203 11299.92)
(23.3848 18.36265 1119.94)
(29.98077 14.47017 3615.942)
(39.56155 7.019368 6561.969)
(49.71949 -8.489949 10099.65)
(28.4412 -44.85263 14476.72)
(18.75778 13.5025 1060.127)
(23.63719 11.98238 3396.297)
(30.79079 8.93146 6099.277)
(41.08714 3.326064 9258.654)
(51.85697 -7.996674 13085.7)
(29.82681 -34.12459 16193.67)
(15.38475 5.025043 1011.569)
(19.09303 4.702853 3221.501)
(24.50546 4.028075 5743.916)
(32.38735 2.767544 8640.464)
(43.70546 0.5191936 12062.54)
(55.63114 -3.92782 14773.34)
(31.77586 -13.48868 16506.54)
(26.74742 12.33393 1662.053)
(49.94354 1.900792 1436.24)
(27.82771 -0.6153437 5031.719)
(40.09179 5.075198 1305.381)
(50.65026 -3.710886 4365.206)
(28.95996 -25.4521 8399.694)
(30.44937 15.03024 1208.805)
(40.02644 7.416751 3955.964)
(51.19383 -8.954919 7326.537)
(29.64892 -49.53424 11635.78)
(23.66115 21.16099 1131.3)
(30.46771 16.24685 3655.981)
(40.53017 6.892536 6645.131)
(51.97342 -12.73067 10259.71)
(30.22745 -60.35041 14827.61)
(18.87005 20.08098 1067.612)
(23.83872 17.56941 3421.687)
(31.15963 12.61377 6148.985)
(41.8389 3.551403 9344.991)
(53.63267 -14.80921 13235.89)
(31.23808 -58.10031 16460.64)
(15.40937 14.08748 1015.113)
(19.1432 13.04598 3233.249)
(24.60536 10.95215 5766.206)
(32.58161 7.10711 8677.384)
(44.11716 0.3014107 12121.54)
(56.63251 -13.11327 14859.78)
(32.55867 -42.14229 16640.27)
(12.78676 5.106214 971.7529)
(15.72253 4.883262 3079.903)
(19.92366 4.390063 5461.149)
(25.99617 3.489927 8164.611)
(34.81607 1.914212 11303.18)
(47.54772 -0.8127827 13676.2)
(60.52606 -5.660556 15155.07)
(34.54284 -16.17576 16955.78)
(26.32069 12.29511 1676.31)
(49.57945 5.309592 1444.799)
(27.61643 10.77708 5104.626)
(40.41552 2.943397 1314.1)
(51.23669 0.9344803 4412.269)
(29.50092 -5.550552 8588.922)
(30.92352 9.277332 1220.376)
(40.89285 4.106259 4002.949)
(53.13676 -6.886464 7447.988)
(31.26827 -35.99424 11989.92)
(23.98798 18.93807 1143.35)
(31.03548 13.99147 3699.391)
(41.65065 4.688011 6738.17)
(54.62965 -15.05391 10447.16)
(32.39882 -65.48867 15273.69)
(19.03279 23.38717 1077.583)
(24.12845 20.22459 3455.787)
(31.68716 14.0174 6216.529)
(42.91415 2.62952 9464.252)
(56.22178 -20.77423 13448.66)
(33.33603 -78.35117 16857.94)
(15.47562 21.11275 1021.847)
(19.26242 19.38275 3255.65)
(24.82596 15.98302 5808.906)
(32.99303 9.780096 8748.523)
(44.96604 -1.204549 12236.15)
(58.68173 -23.0081 15029.56)
(34.16553 -71.42322 16909)
(12.79694 14.41125 974.9899)
(15.74992 13.67634 3090.49)
(19.98101 12.13653 5480.865)
(26.11084 9.382812 8196.467)
(35.03954 4.609097 11352.13)
(48.02143 -3.618621 13742.83)
(61.66034 -18.24563 15241.95)
(35.42011 -50.22313 17090.82)
(10.74254 5.126853 935.8548)
(13.08961 4.976733 2953.757)
(16.45572 4.601569 5213.544)
(21.21452 3.914241 7756.544)
(28.04114 2.753826 10673.72)
(37.94264 0.8092808 12795.85)
(51.61539 -2.145893 13995.96)
(65.67348 -7.403018 15540.21)
(37.43817 -18.88989 17406.05)
(26.03834 4.928783 1682.775)
(48.96609 5.204343 1449.047)
(27.22974 11.46621 5146.351)
(40.31713 2.559471 1317.712)
(50.95681 4.797336 4437.88)
(29.4144 7.748658 8710.049)
(31.15429 4.154199 1226.068)
(41.25621 2.450138 4029.496)
(53.95243 -1.006163 7527.741)
(32.07244 -13.02954 12259.99)
(24.28476 12.12442 1152.652)
(31.53443 8.586805 3734.468)
(42.61474 2.133931 6818.129)
(56.97652 -11.75905 10621.98)
(34.43171 -50.42084 15743.94)
(19.22771 21.26628 1088.021)
(24.47111 18.08397 3492.057)
(32.305 11.89077 6290.001)
(44.17259 0.4968153 9598.025)
(59.34483 -23.44605 13698.29)
(35.95052 -86.18775 17362.91)
(15.57247 24.73752 1030.776)
(19.43489 22.57081 3285.53)
(25.14296 18.34619 5866.352)
(33.58282 10.60623 8845.346)
(46.18761 -3.228833 12394.72)
(61.70497 -31.22679 15270.29)
(36.57803 -96.4412 17308.71)
(12.83258 21.71193 981.1245)
(15.82157 20.48625 3110.618)
(20.11433 17.98972 5518.489)
(26.3607 13.56355 8257.536)
(35.50945 5.895312 11446.53)
(48.99633 -7.375688 13872.16)
(63.9866 -31.2297 15412.23)
(37.22517 -84.83767 17361.58)
(10.74301 14.54564 938.8402)
(13.10203 14.03638 2963.415)
(16.48871 12.8589 5231.29)
(21.28287 10.7524 7784.7)
(28.1761 7.235161 10715.94)
(38.20403 1.372909 12851.04)
(52.15211 -7.53689 14062.68)
(66.94288 -23.39981 15627.62)
(38.41147 -58.37395 17542.47)
(9.10671 5.110872 903.1744)
(11.01686 5.007434 2840.16)
(13.74573 4.719896 4993.193)
(17.59436 4.173415 7399.417)
(22.98443 3.263796 10134.21)
(30.67205 1.801188 12066.33)
(41.25556 -0.2933348 13064.45)
(55.91017 -3.481677 14318.88)
(71.07367 -9.156813 15926.49)
(40.46109 -21.63249 17854.52)
(26.03834 -4.928779 1682.775)
(48.55114 2.105311 1450.779)
(26.96632 4.670178 5165.125)
(40.06318 2.012065 1318.813)
(50.39608 4.965125 4450.409)
(29.10445 9.875133 8778.787)
(31.16276 1.786195 1227.664)
(41.18567 2.370981 4040.515)
(53.83589 3.78402 7570.884)
(32.17309 3.182465 12432.29)
(24.44917 5.335852 1156.752)
(31.78368 3.862705 3751.888)
(43.05705 1.440761 6863.584)
(58.13804 -3.981352 10736.9)
(35.5933 -23.24525 16102.15)
(19.40914 13.88922 1095.855)
(24.78284 11.58832 3520.219)
(32.85443 7.177443 6349.768)
(45.28573 -0.9102945 9713.548)
(62.24226 -18.47597 13931.74)
(38.51709 -69.13269 17894.59)
(15.68961 22.70158 1040.037)
(19.64096 20.53541 3316.891)
(25.51798 16.36079 5927.668)
(34.27749 8.661912 8951.008)
(47.63526 -5.283833 12573.09)
(65.43206 -34.37719 15553.19)
(39.63769 -106.9547 17816.39)
(12.88538 25.52707 989.2297)
(15.92588 24.00991 3137.335)
(20.3066 20.93753 5568.759)
(26.71953 15.47411 8339.84)
(36.1848 5.918006 11575.24)
(50.4078 -10.84786 14051.31)
(67.44829 -41.71957 15653.86)
(39.95543 -114.6465 17764.14)
(10.75775 21.99712 944.4862)
(13.14202 21.14234 2981.732)
(16.5713 19.23896 5265.057)
(21.43782 15.86699 7838.474)
(28.46616 10.2481 10796.93)
(38.74992 0.8556262 12957.39)
(53.2547 -13.54379 14191.94)
(69.54999 -39.48447 15798.59)
(40.41749 -98.35631 17815.46)
(9.101164 14.56326 905.9483)
(11.01918 14.20038 2849.059)
(13.76266 13.29227 5009.366)
(17.63592 11.61582 7424.743)
(23.0679 8.859314 10171.5)
(30.83337 4.454197 12113.85)
(41.55545 -1.852487 13119.56)
(56.51099 -11.45798 14385.77)
(72.48051 -28.58072 16014.49)
(41.53203 -66.59933 17992.38)
(7.768908 5.071389 873.2241)
(9.357233 4.999915 2736.874)
(11.61008 4.770896 4794.943)
(14.76402 4.329811 7081.765)
(19.15484 3.588495 9662.265)
(25.26033 2.4225 11441.53)
(33.45845 0.853011 12292.53)
(44.75633 -1.394849 13336.03)
(60.43212 -4.821425 14643.18)
(76.72496 -10.92312 16311.61)
(43.60982 -24.40421 16137.82)
(26.32069 -12.29511 1676.31)
(48.55114 -2.10531 1450.779)
(26.96632 -4.670174 5165.125)
(39.87795 0.7793272 1319.017)
(50.00618 2.036004 4455.442)
(28.87707 4.177811 8809.512)
(31.07596 0.812513 1227.548)
(40.94918 1.959881 4043.857)
(53.37607 4.501839 7591.756)
(31.97787 7.487713 12529.71)
(24.48525 1.776148 1157.398)
(31.80402 1.727001 3756.892)
(43.04108 1.985016 6882.573)
(58.26672 2.236768 10798.99)
(35.94758 -3.040043 16330.33)
(19.51619 6.159112 1099.016)
(24.95737 5.146038 3532.789)
(33.14112 3.257256 6379.817)
(45.84791 -0.1276067 9779.645)
(63.87382 -8.086518 14085.46)
(40.13922 -36.48505 18297.93)
(15.80061 15.00927 1046.85)
(19.83235 13.44941 3340.556)
(25.8604 10.49514 5975.64)
(34.90439 4.994152 9037.541)
(48.95252 -5.130879 12727.93)
(69.04058 -27.24568 15818.23)
(42.73716 -87.82162 18349.67)
(12.95017 23.54768 997.5807)
(16.05137 22.05861 3165.111)
(20.53549 19.06524 5621.701)
(27.14431 13.71247 8428.002)
(36.98509 4.202974 11716.21)
(52.10093 -12.83167 14253.34)
(71.7831 -45.36341 15938.26)
(43.46301 -127.8261 18275.25)
(10.78037 25.91345 951.926)
(13.20077 24.86882 3005.957)
(16.69076 22.55777 5309.949)
(21.6605 18.44232 7910.45)
(28.88254 11.52754 10906.31)
(39.53645 -0.1808384 13102.61)
(54.85836 -18.47621 14371.2)
(73.45498 -52.26804 16041.4)
(43.469 -132.988 18221.23)
(9.102592 22.08555 911.1844)
(11.03751 21.47369 2865.901)
(13.81144 20.01028 5040.065)
(17.73527 17.33989 7472.972)
(23.25259 12.95971 10242.78)
(31.17569 5.948528 12204.97)
(42.1782 -4.167159 13225.54)
(57.74309 -19.71667 14515.11)
(75.37248 -47.78104 16186.29)
(43.74182 -111.9882 18267.71)
(7.759492 14.50446 875.8173)
(9.353256 14.24286 2745.136)
(11.61613 13.51601 4809.831)
(14.78787 12.16151 7104.832)
(19.20818 9.916676 9695.79)
(25.36345 6.409326 11483.44)
(33.64649 1.689521 12339.85)
(45.09533 -5.070688 13391.1)
(61.09817 -15.38577 14710.29)
(78.2716 -33.79203 16400.25)
(44.77997 -74.90165 16260.71)
(6.661967 5.016708 845.6181)
(7.999133 4.967661 2642.319)
(9.898074 4.780399 4614.858)
(12.5302 4.411889 6796.104)
(16.15898 3.797214 9242.665)
(21.16053 2.83241 10895.4)
(27.66816 1.587143 11632.04)
(36.40171 -0.09167593 12521.5)
(48.4451 -2.496319 13609.12)
(65.17963 -6.166169 14967)
(82.62375 -12.7027 14739.39)
(46.05483 -26.54789 12364.9)
(26.74742 -12.33394 1662.053)
(48.96609 -5.204342 1449.047)
(27.22974 -11.46622 5146.351)
(39.87795 -0.7793255 1319.017)
(50.00618 -2.036004 4455.442)
(28.87707 -4.177806 8809.512)
(31.00358 0.2529582 1227.177)
(40.77235 0.7711619 4044.461)
(53.0338 1.903965 7600.038)
(31.80421 3.441207 12573.13)
(24.45996 0.4202575 1156.762)
(31.72416 0.8319714 3756.644)
(42.83824 1.854212 6888.38)
(57.95771 3.798954 10828.94)
(35.90755 4.241375 16459.15)
(19.54715 1.894119 1099.172)
(24.99921 1.775777 3534.909)
(33.18518 1.59596 6388.739)
(45.91425 1.379166 9807.547)
(64.33486 0.102412 14168.63)
(40.81991 -11.09734 18553.32)
(15.86825 6.715993 1049.416)
(19.94554 6.026411 3350.235)
(26.05578 4.748258 5997.413)
(35.24836 2.30385 9081.582)
(49.67831 -2.31921 12817.14)
(71.27808 -13.45682 15992.64)
(44.81447 -49.59464 18751.15)
(13.01222 15.67556 1003.633)
(16.1695 14.63414 3185.643)
(20.74744 12.55546 5661.965)
(27.53406 8.798482 8497.529)
(37.71851 1.954491 11832.48)
(53.68276 -10.67253 14429.43)
(76.10291 -36.05382 16205.03)
(47.09564 -106.5234 18811.1)
(10.80903 23.97007 959.5521)
(13.27211 22.97156 3030.964)
(16.83332 20.76923 5356.774)
(21.92453 16.80716 7986.538)
(29.37586 10.05324 11023.94)
(40.47407 -1.627604 13262.09)
(56.79966 -20.40853 14573.87)
(78.40212 -56.424 16327.73)
(47.42776 -148.8331 18736.35)
(9.105883 26.03992 918.0696)
(11.06501 25.31082 2888.113)
(13.88226 23.55777 5080.725)
(17.87801 20.34121 7537.207)
(23.51713 15.01497 10338.39)
(31.66693 6.393704 12328.19)
(43.07728 -6.269976 13370.43)
(59.54152 -26.1252 14694.71)
(79.72603 -62.88534 16430.53)
(47.11823 -151.4821 18676.94)
(7.752096 22.04431 880.704)
(9.357721 21.6007 2760.743)
(11.6417 20.43494 4838.034)
(14.85011 18.28795 7148.652)
(19.33058 14.74043 9759.686)
(25.5868 9.191224 11563.53)
(34.04163 1.674514 12430.43)
(45.79595 -9.179171 13496.83)
(62.46171 -25.9011 14839.82)
(81.45255 -56.12615 16572.99)
(47.19636 -125.7387 16505.89)
(6.650046 14.39514 848.0548)
(7.991066 14.20526 2650.038)
(9.897249 13.6085 4628.67)
(12.54196 12.47673 6817.326)
(16.19233 10.61678 9273.18)
(21.22919 7.718962 10933.03)
(27.79119 3.97933 11673.68)
(36.61689 -1.061732 12568.67)
(48.82387 -8.28486 13664.22)
(65.91208 -19.32344 15034.38)
(84.3125 -39.03624 14818.33)
(47.30153 -81.32182 12457.78)
(5.730734 4.952184 820.051)
(6.874659 4.919242 2555.251)
(8.495399 4.762647 4450.135)
(10.73646 4.447435 6536.739)
(13.79018 3.922013 8865.462)
(17.95123 3.109184 10410.2)
(23.28013 2.0833 11055.29)
(30.20929 0.75695 11825.09)
(39.50218 -1.033745 12752.07)
(52.32074 -3.598636 13882.27)
(70.14947 -7.516677 13516.83)
(87.20894 -14.08092 11302.77)
(47.85833 -28.11927 8774.794)
(27.02312 -1.88665 1637.389)
(49.57945 -5.309592 1444.799)
(27.61643 -10.77709 5104.626)
(40.06318 -2.012063 1318.813)
(50.39608 -4.965124 4450.409)
(29.10445 -9.875135 8778.787)
(31.00358 -0.2529578 1227.177)
(40.77235 -0.7711602 4044.461)
(53.0338 -1.903965 7600.038)
(31.80421 -3.441202 12573.13)
(24.43183 0.05557571 1156.161)
(31.655 0.2677712 3755.568)
(42.67744 0.7551668 6889.446)
(57.68644 1.704688 10840.77)
(35.80651 2.440922 16516.5)
(19.53976 0.2783607 1098.308)
(24.97692 0.4697149 3533.099)
(33.11899 0.8654506 6388.601)
(45.7618 1.684971 9816.271)
(64.22983 2.830627 14208.75)
(40.97946 0.04107712 18696.62)
(15.88916 2.01187 1049.307)
(19.97952 1.922463 3350.841)
(26.10945 1.763741 6001.439)
(35.32856 1.375652 9095.143)
(49.85648 0.5199964 12855.29)
(72.16687 -2.694938 16086.63)
(45.81437 -18.98759 19002.52)
(13.04994 7.044659 1005.788)
(16.24116 6.617709 3193.471)
(20.87346 5.747706 5678.756)
(27.76162 4.114068 8529.641)
(38.14113 0.9531581 11892.42)
(54.62006 -5.22213 14531.33)
(78.94023 -18.82254 16380.05)
(49.62365 -62.59901 19211.43)
(10.83657 16.00698 965.0166)
(13.33956 15.34729 3049.164)
(16.96618 13.87488 5391.652)
(22.1683 11.16721 8044.908)
(29.83093 6.429597 11117.51)
(41.34607 -2.054357 13394.34)
(58.64807 -16.25036 14751.11)
(83.43481 -44.917 16596.71)
(51.59473 -125.269 19275.61)
(9.110925 24.10964 925.0988)
(11.09896 23.44644 2910.92)
(13.96693 21.81939 5122.831)
(18.04686 18.79049 7604.463)
(23.82964 13.68692 10439.9)
(32.24955 5.264495 12461.1)
(44.15407 -7.466335 13529.98)
(61.73407 -28.02785 14898.32)
(85.2908 -67.5758 16719.15)
(51.53181 -170.0012 19196.52)
(7.742623 25.99678 887.1189)
(9.365111 25.48334 2781.282)
(11.67907 24.1127 4875.281)
(14.93945 21.55818 7206.797)
(19.50538 17.29812 9844.97)
(25.90587 10.5577 11671.08)
(34.60863 1.282497 12553.04)
(46.80911 -12.35824 13641.57)
(64.45769 -33.80486 15019.94)
(86.26014 -73.58223 16818.84)
(50.90138 -170.1402 16870.22)
(6.636708 21.91687 852.6392)
(7.986276 21.59224 2664.594)
(9.907819 20.63971 4654.785)
(12.57862 18.85568 6857.559)
(16.27309 15.93171 9331.203)
(21.38159 11.37271 11004.72)
(28.05359 5.454193 11753.1)
(37.06548 -2.578836 12658.79)
(49.60346 -14.18589 13769.8)
(67.40906 -32.1027 15164.19)
(87.78657 -64.52465 14972.02)
(49.87729 -136.3686 12643.05)
(5.717598 14.25187 822.3506)
(6.863913 14.11429 2562.5)
(8.490035 13.61345 4463.03)
(10.74046 12.64576 6556.415)
(13.8098 11.0578 8893.52)
(17.99695 8.619967 10444.41)
(23.3643 5.543751 11092.59)
(30.35251 1.567043 11866.49)
(39.74493 -3.802164 12799.13)
(52.73996 -11.49771 13937.42)
(70.94949 -23.27342 13576.78)
(89.00733 -43.09726 11362.48)
(49.16114 -86.0278 8839.976)
(4.946715 4.885354 796.2859)
(5.928063 4.860203 2474.687)
(7.332498 4.726766 4298.569)
(9.264287 4.451858 6299.597)
(11.8841 3.993353 8523.107)
(15.40843 3.289565 9974.325)
(19.84327 2.428803 10543.43)
(25.51495 1.340553 11217.5)
(32.88418 -0.06879657 12019.77)
(42.75914 -1.973962 12983.07)
(56.38082 -4.702522 12529.26)
(74.02015 -8.564053 10372.42)
(90.59365 -15.09112 8023.025)
(49.06191 -29.15516 5306.72)
(26.746 15.04688 1599.503)
(49.94354 -1.900794 1436.24)
(27.82771 0.6153308 5031.719)
(40.31713 -2.559471 1317.712)
(50.95681 -4.797336 4437.88)
(29.4144 -7.748668 8710.049)
(31.07596 -0.8125126 1227.548)
(40.94918 -1.95988 4043.857)
(53.37607 -4.501838 7591.756)
(31.97787 -7.487715 12529.71)
(24.43183 -0.05557542 1156.161)
(31.655 -0.2677708 3755.568)
(42.67744 -0.7551651 6889.446)
(57.68644 -1.704687 10840.77)
(35.80651 -2.440917 16516.5)
(19.52728 -0.0283047 1097.619)
(24.95006 0.07958471 3531.338)
(33.05607 0.2960051 6386.906)
(45.62488 0.7285145 9817.977)
(64.05443 1.430515 14224.61)
(40.97176 1.147284 18760.11)
(15.88599 0.221494 1048.349)
(19.97341 0.3404643 3348.325)
(26.09323 0.5630991 5998.668)
(35.28301 0.9052921 9095.446)
(49.7722 1.437027 12867.58)
(72.324 1.559554 16131.67)
(46.16736 -4.030133 19141.9)
(13.05965 2.071499 1005.527)
(16.26374 2.054538 3193.242)
(20.91382 1.970503 5680.164)
(27.83352 1.725613 8536.162)
(38.27072 1.041393 11911.61)
(54.94233 -0.6381054 14575.13)
(80.24763 -5.458655 16473.46)
(50.93613 -26.72711 19459.22)
(10.85191 7.190247 966.8754)
(13.3801 6.968885 3055.712)
(17.04634 6.412047 5405.225)
(22.31429 5.298464 8069.787)
(30.10296 3.202938 11161.53)
(41.87084 -0.8611059 13463.12)
(59.7964 -8.147388 14853.94)
(86.86695 -24.19414 16772.63)
(54.56966 -75.5196 19675.37)
(9.115521 16.10435 930.0911)
(11.13073 15.71404 2927.32)
(14.04552 14.68568 5153.697)
(18.20257 12.69609 7655.015)
(24.1175 9.225499 10518.52)
(32.78992 3.295088 12567.43)
(45.1665 -6.086441 13662.82)
(63.85158 -21.87512 15077.04)
(91.03916 -53.8499 16990.76)
(56.23503 -144.0843 19739.88)
(7.732264 24.06645 893.6466)
(9.374547 23.62878 2802.28)
(11.72377 22.40179 4913.636)
(15.04466 20.05271 7267.237)
(19.71053 16.05688 9934.663)
(26.28165 9.602229 11785.59)
(35.28185 0.4836684 12685.6)
(48.02716 -13.32346 13801.43)
(66.90487 -35.70177 15224.78)
(92.44838 -78.83319 17110.04)
(55.77368 -191.3508 17332.75)
(6.618687 25.84159 858.6488)
(7.980307 25.47908 2683.716)
(9.923472 24.37844 4689.197)
(12.63113 22.28674 6910.79)
(16.38793 18.8144 9408.36)
(21.59815 13.34215 11100.53)
(28.42778 6.132298 11859.84)
(37.70928 -3.81317 12780.93)
(50.73237 -18.45367 13914.54)
(69.60548 -41.52383 15345)
(93.05377 -84.36704 15190.85)
(53.83572 -184.5567 12918.31)
(5.700941 21.73071 826.6707)
(6.852841 21.4931 2576.149)
(8.490473 20.69717 4487.371)
(10.76037 19.17959 6593.65)
(13.86171 16.6964 8946.763)
(18.1018 12.88078 10509.44)
(23.54692 8.040422 11163.53)
(30.65439 1.744689 11945.32)
(40.2477 -6.816022 12888.88)
(53.59968 -19.19209 14042.94)
(72.58194 -38.32601 13692.16)
(92.70747 -71.02672 11478.71)
(51.85372 -144.1601 8970.003)
(4.932651 14.09721 798.4638)
(5.915962 13.98708 2481.524)
(7.324101 13.55924 4310.672)
(9.263057 12.7158 6317.957)
(11.89473 11.33206 8549.106)
(15.43826 9.224705 10005.74)
(19.90146 6.64717 10577.27)
(25.61482 3.389235 11254.49)
(33.04791 -0.8296709 12060.96)
(43.02993 -6.534088 13030.05)
(56.84119 -14.71149 12578.28)
(74.87228 -26.33651 10417.81)
(92.47238 -46.07386 8064.898)
(50.40184 -89.13017 5345.639)
(4.275255 4.81155 774.1089)
(5.130483 4.798241 2399.855)
(6.352319 4.678685 4158.423)
(8.041508 4.435135 6081.482)
(10.31643 4.028248 8210.191)
(13.35755 3.407479 9578.989)
(17.11505 2.665265 10084.01)
(21.83634 1.755594 10678.74)
(27.86555 0.6035818 11381.29)
(35.69243 -0.8907517 12215.11)
(46.1708 -2.912984 11710.01)
(59.54803 -5.559707 9619.814)
(76.88131 -9.331956 7363.495)
(92.85414 -15.75584 4848.991)
(49.68924 -29.67601 1797.978)
(25.73234 26.45076 1550.494)
(49.47377 2.139054 1420.641)
(27.46145 18.52271 4918.696)
(40.41552 -2.943397 1314.1)
(51.23669 -0.9344817 4412.269)
(29.50092 5.550539 8588.922)
(31.16276 -1.786195 1227.664)
(41.18567 -2.37098 4040.515)
(53.83589 -3.78402 7570.884)
(32.17309 -3.182475 12432.29)
(24.45996 -0.4202573 1156.762)
(31.72416 -0.831971 3756.644)
(42.83824 -1.85421 6888.38)
(57.95771 -3.798953 10828.94)
(35.90755 -4.241377 16459.15)
(19.52728 0.02830426 1097.619)
(24.95006 -0.07958442 3531.338)
(33.05607 -0.2960046 6386.906)
(45.62488 -0.7285128 9817.977)
(64.05443 -1.430514 14224.61)
(40.97176 -1.147279 18760.11)
(15.87903 -0.06926693 1047.636)
(19.96138 -0.0007808173 3346.294)
(26.06893 0.1260116 5995.829)
(35.22947 0.3355502 9093.259)
(49.6675 0.6869345 12870.17)
(72.27173 1.070304 16149.34)
(46.24961 -0.09871284 19203.09)
(13.05532 0.1770553 1004.537)
(16.26107 0.2883367 3190.423)
(20.91047 0.4602568 5676.172)
(27.82664 0.694144 8532.696)
(38.25329 0.9408282 11912.8)
(54.94561 1.089749 14589.36)
(80.65886 0.3223258 16517.56)
(51.47682 -7.981753 19594.99)
(10.85166 2.065678 966.5258)
(13.39078 2.121501 3054.994)
(17.07255 2.133801 5405.16)
(22.36464 2.025853 8072.499)
(30.20003 1.641545 11171.34)
(42.06439 0.5605443 13485.62)
(60.26051 -1.801261 14898.08)
(88.5846 -8.195455 16865.67)
(56.1886 -34.33014 19919.99)
(9.11539 7.195618 931.7259)
(11.14816 7.129881 2932.945)
(14.09204 6.811457 5165.036)
(18.29604 6.077393 7675.192)
(24.29126 4.644083 10552.82)
(33.12001 1.96106 12618.07)
(45.79419 -2.698186 13732.36)
(65.21081 -11.1011 15180.98)
(95.06203 -29.58086 17167.85)
(59.65372 -88.37428 20139.55)
(7.722034 16.05163 898.2498)
(9.382589 15.83926 2817.238)
(11.76427 15.12599 4941.408)
(15.14053 13.65906 7311.957)
(19.89798 11.04573 10002.77)
(26.62725 6.650305 11874.81)
(35.90903 0.1508188 12792.09)
(49.18216 -10.14962 13935.12)
(69.29441 -27.55663 15405.27)
(98.91615 -62.86517 17384.65)
(61.01565 -162.9902 17816.13)
(6.598115 23.90374 864.7475)
(7.973669 23.62122 2703.199)
(9.941809 22.67139 4724.476)
(12.69238 20.80135 6965.812)
(16.52154 17.61296 9488.928)
(21.85074 12.47833 11201.56)
(28.86779 5.5377 11973.71)
(38.47461 -4.297407 12913.35)
(52.09395 -19.20852 14074.93)
(72.31093 -43.44111 15551.3)
(99.87165 -90.20808 15450.29)
(59.06167 -207.8376 13267.63)
(5.677892 25.61086 832.3271)
(6.837854 25.35726 2594.052)
(8.491543 24.4526 4519.387)
(10.78869 22.6957 6642.8)
(13.93506 19.7826 9017.359)
(18.24989 15.2492 10596.02)
(23.80564 9.424514 11258.4)
(31.08444 1.73301 12051.37)
(40.96942 -8.899922 13010.69)
(54.84612 -24.5635 14187.82)
(74.98176 -49.28935 13852.98)
(98.3291 -92.71288 11644.18)
(55.99788 -195.1234 9163.197)
(4.91347 21.51981 802.5496)
(5.901299 21.33165 2494.38)
(7.317564 20.65479 4333.483)
(9.271487 19.33797 6352.644)
(11.92748 17.1843 8598.353)
(15.51003 13.90212 10065.35)
(20.03056 9.867622 10641.51)
(25.82795 4.740425 11324.75)
(33.38976 -1.941001 12139.26)
(43.58763 -11.04113 13119.5)
(57.78221 -24.20187 12671.99)
(76.6092 -43.1509 10505.15)
(96.3382 -75.79265 8146.411)
(53.17166 -149.2975 5423.27)
(4.260584 13.91942 776.1789)
(5.117338 13.84666 2406.328)
(6.342284 13.46412 4169.833)
(8.036701 12.71776 6098.705)
(10.32088 11.49156 8234.437)
(13.37679 9.635921 9608.07)
(17.15517 7.41668 10115.03)
(21.90716 4.69698 10712.23)
(27.98134 1.253673 11418.01)
(35.87701 -3.212779 12256.13)
(46.4701 -9.25952 11751.73)
(60.04014 -17.20682 9656.962)
(77.77158 -28.58229 7395.309)
(94.78599 -48.03269 4873.917)
(51.04803 -90.68981 1810.999)
(3.703723 4.738645 753.3707)
(4.446915 4.728751 2330.078)
(5.525148 4.62642 4028.324)
(7.009043 4.403787 5879.872)
(9.011398 4.037845 7922.472)
(11.66682 3.482024 9217.872)
(14.90992 2.830083 9667.733)
(18.91123 2.048752 10195.54)
(23.93108 1.089086 10815.56)
(30.33177 -0.1281678 11545.92)
(38.63275 -1.709502 11010.11)
(48.83574 -3.642961 8994.737)
(61.89157 -6.188415 6829.486)
(78.79431 -9.836633 4446.511)
(94.03449 -16.08817 1641.144)
(24.40167 26.43263 1504.429)
(47.93133 3.007411 1396.945)
(26.34653 30.25372 4771.589)
(40.09179 -5.075199 1305.381)
(50.65027 3.710886 4365.206)
(28.95996 25.45209 8399.694)
(31.15429 -4.154198 1226.068)
(41.25621 -2.450138 4029.496)
(53.95243 1.006162 7527.741)
(32.07244 13.02953 12259.99)
(24.48525 -1.776148 1157.398)
(31.80402 -1.727001 3756.892)
(43.04108 -1.985015 6882.573)
(58.26672 -2.236768 10798.99)
(35.94758 3.040033 16330.33)
(19.53976 -0.2783611 1098.308)
(24.97692 -0.4697146 3533.099)
(33.11899 -0.8654502 6388.601)
(45.7618 -1.684969 9816.271)
(64.22983 -2.830626 14208.75)
(40.97946 -0.04107925 18696.62)
(15.87903 0.06926831 1047.636)
(19.96138 0.0007803696 3346.294)
(26.06893 -0.1260113 5995.829)
(35.22947 -0.3355498 9093.259)
(49.6675 -0.6869327 12870.17)
(72.27173 -1.070303 16149.34)
(46.24961 0.098718 19203.09)
(13.04974 -0.09784299 1003.828)
(16.2542 -0.04075272 3188.307)
(20.8994 0.05295872 5672.865)
(27.80623 0.1931464 8528.877)
(38.21247 0.3834983 11910.28)
(54.88219 0.6245968 14592.43)
(80.72515 0.7237831 16534.58)
(51.6458 -1.300211 19654.03)
(10.84456 0.1224342 965.5358)
(13.38657 0.2450294 3052.062)
(17.07104 0.4188813 5400.619)
(22.36561 0.6323918 8067.256)
(30.206 0.8545048 11167.52)
(42.08323 0.9581541 13487.49)
(60.3489 0.7450876 14912.31)
(89.24234 -0.8850827 16908.95)
(56.91154 -11.82226 20052.41)
(9.10774 1.997971 931.3229)
(11.14848 2.119261 2931.935)
(14.10488 2.217486 5164.093)
(18.32803 2.238769 7675.731)
(24.35555 2.071764 10557.5)
(33.24992 1.485809 12629.93)
(46.05152 0.06630652 13755.35)
(65.81476 -2.97315 15225.57)
(97.18224 -10.91142 17260.67)
(61.5734 -41.80875 20381.32)
(7.712094 7.112436 899.7091)
(9.384055 7.146347 2822.164)
(11.7861 7.00566 4951.131)
(15.19648 6.553054 7328.854)
(20.01008 5.583438 10030.72)
(26.8375 3.738954 11914.31)
(36.29819 0.7027929 12843.21)
(49.91374 -4.56225 14005.55)
(70.86474 -14.08889 15510.5)
(103.5264 -34.99061 17563.12)
(64.87536 -101.1772 18170.16)
(6.578183 15.90265 869.0226)
(7.966308 15.80913 2716.972)
(9.956917 15.30897 4749.772)
(12.74644 14.21422 7006.029)
(16.64146 12.221 9549.184)
(22.0799 8.85361 11278.73)
(29.2723 4.076954 12062.73)
(39.19029 -3.009315 13020.19)
(53.3939 -14.25129 14209.71)
(74.97578 -33.30374 15733.84)
(107.0633 -71.97339 15695.16)
(64.71891 -177.5809 13632.6)
(5.651111 23.66142 838.054)
(6.820486 23.48879 2612.241)
(8.49242 22.73623 4552.091)
(10.82073 21.20581 6693.379)
(14.0192 18.59222 9090.669)
(18.42064 14.41972 10686.65)
(24.10632 8.928874 11358.58)
(31.58976 1.486695 12164.77)
(41.8285 -9.086499 13143.15)
(56.35367 -25.13026 14348.95)
(77.94924 -51.25533 14036.74)
(105.6324 -99.0057 11840.3)
(61.483 -219.9224 9408.413)
(4.887021 25.3433 807.894)
(5.880912 25.15553 2511.223)
(7.308661 24.39791 4363.439)
(9.283341 22.89028 6398.347)
(11.97324 20.38926 8663.502)
(15.61056 16.53048 10144.47)
(20.21214 11.72636 10727.05)
(26.12932 5.540512 11418.76)
(33.87648 -2.645677 12244.74)
(44.3885 -13.98389 13241.09)
(59.14802 -30.69409 12800.75)
(79.16587 -55.30721 10626.87)
(102.2195 -98.83053 8262.485)
(57.43857 -202.0931 5538.647)
(4.239666 21.27441 780.0573)
(5.099924 21.1426 2418.483)
(6.331603 20.54276 4191.308)
(8.037094 19.38243 6131.195)
(10.34029 17.48158 8280.29)
(13.42626 14.60374 9663.153)
(17.24688 11.14717 10173.82)
(22.06068 6.889741 10775.72)
(28.22532 1.469655 11487.64)
(36.25938 -5.606353 12333.97)
(47.08354 -15.25778 11831.11)
(61.04388 -28.09078 9727.954)
(79.58499 -46.68855 7456.544)
(98.76131 -78.93017 4922.451)
(53.857 -151.8804 1836.969)
(3.688465 13.74132 755.3438)
(4.433064 13.68149 2336.229)
(5.513832 13.35208 4039.122)
(7.002161 12.67166 5896.102)
(9.011521 11.57072 7945.204)
(11.67866 9.911876 9244.966)
(14.93784 7.965461 9696.397)
(18.96176 5.632654 10226.18)
(24.01469 2.767992 10848.73)
(30.46372 -0.864599 11582.39)
(38.83853 -5.584072 11046.5)
(49.15705 -11.37804 9026.377)
(62.40691 -19.03706 6855.526)
(79.70977 -30.05847 4465.407)
(95.99331 -49.01225 1649.452)
(3.208174 4.658971 733.9065)
(3.864533 4.659724 2264.862)
(4.815227 4.565525 3907.087)
(6.135823 4.366316 5692.775)
(7.907144 4.029483 7656.605)
(10.25585 3.525867 8886.022)
(13.08829 2.944494 9287.813)
(16.54235 2.260906 9758.086)
(20.79765 1.439653 10308.5)
(26.12749 0.4288118 10953.33)
(32.91269 -0.8552155 10400.08)
(40.93215 -2.34661 8460.194)
(50.80928 -4.178582 6385.654)
(63.45939 -6.601293 4120.401)
(79.79566 -10.08778 1502.892)
(23.20424 19.88918 1468.344)
(45.95223 1.151691 1371.432)
(24.93366 29.71861 4632.748)
(39.27388 -8.764673 1289.877)
(48.97379 4.9758 4293.584)
(27.64436 37.8887 8152.134)
(30.92352 -9.277332 1220.376)
(40.89285 -4.106259 4002.949)
(53.13676 6.886464 7447.988)
(31.26827 35.99423 11989.92)
(24.44917 -5.335852 1156.752)
(31.78368 -3.862705 3751.888)
(43.05705 -1.440761 6863.584)
(58.13804 3.98135 10736.9)
(35.5933 23.24523 16102.15)
(19.54715 -1.894119 1099.172)
(24.99921 -1.775777 3534.909)
(33.18518 -1.59596 6388.739)
(45.91425 -1.379165 9807.547)
(64.33486 -0.1024124 14168.63)
(40.81991 11.09733 18553.32)
(15.88599 -0.2214927 1048.349)
(19.97341 -0.3404647 3348.325)
(26.09323 -0.5630988 5998.668)
(35.28301 -0.9052917 9095.446)
(49.7722 -1.437025 12867.58)
(72.324 -1.559553 16131.67)
(46.16736 4.030131 19141.9)
(13.04974 0.09784318 1003.828)