/*--------------------------------*- C++ -*----------------------------------*\
| =========                 |                                                 |
| \\      /  F ield         | OpenFOAM: The Open Source CFD Toolbox           |
|  \\    /   O peration     | Version:  2306                                  |
|   \\  /    A nd           | Website:  www.openfoam.com                      |
|    \\/     M anipulation  |                                                 |
\*---------------------------------------------------------------------------*/
FoamFile
{
    version     2.0;
    format      ascii;
    arch        "LSB;label=32;scalar=64";
    class       volScalarField;
    location    "0.3/phiI";
    object      J;
}
// * * * * * * * * * * * * * * * * * * * * * * * * * * * * * * * * * * * * * //

dimensions      [0 -3 0 0 0 1 0];

internalField   nonuniform List<scalar> 
12000
(
-6.640203e+08
-6.699259e+08
-6.184591e+08
-6.702759e+08
-6.819704e+08
-6.2238e+08
-6.762898e+08
-5.813359e+08
-6.240755e+08
-6.861455e+08
-6.999662e+08
-6.301671e+08
-6.885525e+08
-5.844117e+08
-6.280722e+08
-6.924182e+08
-5.517912e+08
-5.864674e+08
-6.382085e+08
-7.121191e+08
-7.230105e+08
-6.411573e+08
-7.06868e+08
-5.904426e+08
-6.360103e+08
-7.052067e+08
-5.543758e+08
-5.896037e+08
-6.423803e+08
-7.188139e+08
-5.272391e+08
-5.565534e+08
-5.992562e+08
-6.612549e+08
-7.491273e+08
-7.477618e+08
-6.539452e+08
-7.302944e+08
-5.987334e+08
-6.472212e+08
-7.243099e+08
-5.594028e+08
-5.957544e+08
-6.506678e+08
-7.32462e+08
-5.294924e+08
-5.59189e+08
-6.025299e+08
-6.657088e+08
-7.564309e+08
-5.060154e+08
-5.317025e+08
-5.683159e+08
-6.200318e+08
-6.939704e+08
0
-7.673199e+08
-6.658013e+08
-7.55388e+08
-6.079224e+08
-6.602831e+08
-7.487327e+08
-5.662116e+08
-6.042194e+08
-6.623875e+08
-7.528615e+08
-5.338503e+08
-5.643168e+08
-6.089526e+08
-6.745594e+08
-7.713217e+08
-5.080257e+08
-5.340002e+08
-5.710663e+08
-6.235253e+08
-6.988273e+08
0
-4.872882e+08
-5.102241e+08
-5.426394e+08
-5.873605e+08
-6.494235e+08
0
0
-7.804607e+08
-6.73672e+08
-7.751738e+08
-6.156913e+08
-6.724232e+08
-7.748453e+08
-5.735453e+08
-6.136259e+08
-6.760741e+08
-7.789488e+08
-5.396996e+08
-5.712713e+08
-6.178088e+08
-6.870983e+08
-7.93602e+08
-5.118967e+08
-5.384457e+08
-5.764201e+08
-6.303827e+08
-7.084825e+08
0
-4.891117e+08
-5.122738e+08
-5.450364e+08
-5.902935e+08
-6.532288e+08
0
0
-4.70495e+08
-4.912746e+08
-5.204651e+08
-5.602957e+08
-6.142266e+08
0
0
0
-7.882824e+08
-6.781371e+08
-7.88431e+08
-6.200106e+08
-6.804968e+08
-7.953928e+08
-5.793847e+08
-6.216283e+08
-6.888431e+08
-8.06815e+08
-5.458902e+08
-5.787869e+08
-6.276888e+08
-7.01788e+08
-8.221233e+08
-5.170623e+08
-5.44421e+08
-5.836975e+08
-6.398624e+08
-7.221925e+08
0
-4.926101e+08
-5.162222e+08
-5.496765e+08
-5.960068e+08
-6.607033e+08
0
0
-4.721675e+08
-4.931335e+08
-5.226024e+08
-5.628499e+08
-6.174176e+08
0
0
0
-4.552873e+08
-4.742833e+08
-5.009149e+08
-5.369559e+08
-5.851433e+08
0
0
0
0
-7.919035e+08
-6.804596e+08
-7.963022e+08
-6.218233e+08
-6.850692e+08
-8.091227e+08
-5.821796e+08
-6.261206e+08
-6.973593e+08
-8.287035e+08
-5.506312e+08
-5.848246e+08
-6.36164e+08
-7.15559e+08
-8.525899e+08
-5.224684e+08
-5.507683e+08
-5.916009e+08
-6.504908e+08
-7.383151e+08
0
-4.972605e+08
-5.21499e+08
-5.559288e+08
-6.037958e+08
-6.710671e+08
0
0
-4.753662e+08
-4.967014e+08
-5.267223e+08
-5.677987e+08
-6.236388e+08
0
0
0
-4.568361e+08
-4.759881e+08
-5.028523e+08
-5.392317e+08
-5.87919e+08
0
0
0
0
-4.413798e+08
-4.588973e+08
-4.83395e+08
-5.164036e+08
-5.60115e+08
0
0
0
0
0
-7.919035e+08
-6.814495e+08
-7.999401e+08
-6.224084e+08
-6.874378e+08
-8.172535e+08
-5.829384e+08
-6.280298e+08
-7.021819e+08
-8.432913e+08
-5.526469e+08
-5.877691e+08
-6.409817e+08
-7.247771e+08
-8.764876e+08
-5.265043e+08
-5.556809e+08
-5.980237e+08
-6.596959e+08
-7.535124e+08
0
-5.02092e+08
-5.270429e+08
-5.626069e+08
-6.123067e+08
-6.827523e+08
0
0
-4.796065e+08
-5.014514e+08
-5.322422e+08
-5.744881e+08
-6.321494e+08
0
0
0
-4.597894e+08
-4.792498e+08
-5.065736e+08
-5.436225e+08
-5.933022e+08
0
0
0
0
-4.428239e+08
-4.604757e+08
-4.851709e+08
-5.184648e+08
-5.625852e+08
0
0
0
0
0
-4.285835e+08
-4.448277e+08
-4.675382e+08
-4.98005e+08
-5.381156e+08
0
0
0
0
0
1.080273e+09
-7.882824e+08
-6.814495e+08
-7.999401e+08
-6.225393e+08
-6.884429e+08
-8.210047e+08
-5.828657e+08
-6.286597e+08
-7.046737e+08
-8.519085e+08
-5.529265e+08
-5.886137e+08
-6.430683e+08
-7.300032e+08
-8.923773e+08
-5.280724e+08
-5.578275e+08
-6.012308e+08
-6.650032e+08
-7.63727e+08
0
-5.05639e+08
-5.312295e+08
-5.678467e+08
-6.193147e+08
-6.92977e+08
0
0
-4.839893e+08
-5.064057e+08
-5.380751e+08
-5.816819e+08
-6.415124e+08
0
0
0
-4.636965e+08
-4.835801e+08
-5.115406e+08
-5.495251e+08
-6.006059e+08
0
0
0
0
-4.455702e+08
-4.634867e+08
-4.885714e+08
-5.22428e+08
-5.673564e+08
0
0
0
0
0
-4.29938e+08
-4.462991e+08
-4.691816e+08
-4.998929e+08
-5.403503e+08
0
0
0
0
0
1.088486e+09
-4.167471e+08
-4.318831e+08
-4.530448e+08
-4.813686e+08
-5.184522e+08
0
0
0
0
0
9.769324e+08
1.025469e+09
-7.804607e+08
-6.804596e+08
-7.963022e+08
-6.225393e+08
-6.884429e+08
-8.210047e+08
-5.826789e+08
-6.28807e+08
-7.05728e+08
-8.558771e+08
-5.525828e+08
-5.885823e+08
-6.437818e+08
-7.32701e+08
-9.017417e+08
-5.281161e+08
-5.581831e+08
-6.022165e+08
-6.673542e+08
-7.695303e+08
0
-5.069278e+08
-5.329133e+08
-5.702154e+08
-6.229059e+08
-6.989586e+08
0
0
-4.871689e+08
-5.100867e+08
-5.425468e+08
-5.874148e+08
-6.493293e+08
0
0
0
-4.677197e+08
-4.880736e+08
-5.167521e+08
-5.558074e+08
-6.085198e+08
0
0
0
0
-4.491975e+08
-4.674759e+08
-4.930976e+08
-5.277358e+08
-5.737952e+08
0
0
0
0
0
-4.325069e+08
-4.490985e+08
-4.723193e+08
-5.035118e+08
-5.446523e+08
0
0
0
0
0
1.104763e+09
-4.180235e+08
-4.332629e+08
-4.545761e+08
-4.831141e+08
-5.204966e+08
0
0
0
0
0
9.821194e+08
1.032985e+09
-4.057495e+08
-4.199103e+08
-4.397161e+08
-4.661757e+08
-5.006965e+08
0
0
0
0
0
8.858294e+08
9.301713e+08
9.868642e+08
-7.673199e+08
-6.781371e+08
-7.88431e+08
-6.224084e+08
-6.874378e+08
-8.172535e+08
-5.826789e+08
-6.28807e+08
-7.05728e+08
-8.558771e+08
-5.522729e+08
-5.884114e+08
-6.439609e+08
-7.338404e+08
-9.060473e+08
-5.276604e+08
-5.578768e+08
-6.022503e+08
-6.681925e+08
-7.725268e+08
0
-5.068501e+08
-5.330246e+08
-5.706894e+08
-6.240921e+08
-7.01671e+08
0
0
-4.882657e+08
-5.114788e+08
-5.444235e+08
-5.901032e+08
-6.534399e+08
0
0
0
-4.706134e+08
-4.913736e+08
-5.206858e+08
-5.607067e+08
-6.149301e+08
0
0
0
0
-4.52922e+08
-4.715998e+08
-4.978227e+08
-5.333464e+08
-5.807033e+08
0
0
0
0
0
-4.358954e+08
-4.528013e+08
-4.764871e+08
-5.083454e+08
-5.504367e+08
0
0
0
0
0
1.128998e+09
-4.204382e+08
-4.35881e+08
-4.57492e+08
-4.86451e+08
-5.24421e+08
0
0
0
0
0
9.921494e+08
1.047863e+09
-4.069572e+08
-4.212102e+08
-4.411513e+08
-4.67801e+08
-5.025848e+08
0
0
0
0
0
8.896968e+08
9.349452e+08
9.939191e+08
-3.955001e+08
-4.087865e+08
-4.273928e+08
-4.522148e+08
-4.845021e+08
0
0
0
0
0
8.123515e+08
8.456922e+08
8.969673e+08
9.629375e+08
-7.477618e+08
-6.73672e+08
-7.751738e+08
-6.218233e+08
-6.850692e+08
-8.091227e+08
-5.828657e+08
-6.286597e+08
-7.046737e+08
-8.519085e+08
-5.522729e+08
-5.884114e+08
-6.439609e+08
-7.338404e+08
-9.060473e+08
-5.273063e+08
-5.575815e+08
-6.021037e+08
-6.684197e+08
-7.737912e+08
0
-5.063528e+08
-5.326023e+08
-5.704371e+08
-6.242162e+08
-7.026798e+08
0
0
-4.881206e+08
-5.114617e+08
-5.446372e+08
-5.90741e+08
-6.548923e+08
0
0
0
-4.715712e+08
-4.925635e+08
-5.222489e+08
-5.628588e+08
-6.180464e+08
0
0
0
0
-4.555829e+08
-4.746025e+08
-5.013497e+08
-5.376586e+08
-5.861878e+08
0
0
0
0
0
-4.393667e+08
-4.566179e+08
-4.808216e+08
-5.134295e+08
-5.566019e+08
0
0
0
0
0
1.159913e+09
-4.236197e+08
-4.393393e+08
-4.613588e+08
-4.908987e+08
-5.296835e+08
0
0
0
0
0
1.006529e+09
1.069991e+09
-4.092365e+08
-4.236707e+08
-4.438771e+08
-4.708998e+08
-5.061996e+08
0
0
0
0
0
8.970903e+08
9.441674e+08
1.007878e+09
-3.966467e+08
-4.100163e+08
-4.287442e+08
-4.537368e+08
-4.862583e+08
0
0
0
0
0
8.154617e+08
8.492692e+08
9.014621e+08
9.697355e+08
-3.859096e+08
-3.984203e+08
-4.159476e+08
-4.393162e+08
-4.69638e+08
0
0
0
0
0
7.516301e+08
7.772586e+08
8.170194e+08
8.761459e+08
9.523194e+08
-7.230105e+08
-6.658013e+08
-7.55388e+08
-6.200106e+08
-6.804968e+08
-7.953928e+08
-5.829384e+08
-6.280298e+08
-7.021819e+08
-8.432913e+08
-5.525828e+08
-5.885823e+08
-6.437818e+08
-7.32701e+08
-9.017417e+08
-5.273063e+08
-5.575815e+08
-6.021037e+08
-6.684197e+08
-7.737912e+08
0
-5.059883e+08
-5.322615e+08
-5.701618e+08
-6.241027e+08
-7.029727e+08
0
0
-4.876123e+08
-5.109944e+08
-5.442614e+08
-5.905606e+08
-6.551345e+08
0
0
0
-4.713876e+08
-4.924731e+08
-5.223223e+08
-5.632123e+08
-6.188981e+08
0
0
0
0
-4.564342e+08
-4.756451e+08
-5.026931e+08
-5.394645e+08
-5.887062e+08
0
0
0
0
0
-4.418332e+08
-4.593785e+08
-4.840304e+08
-5.172961e+08
-5.614307e+08
0
0
0
0
0
1.192237e+09
-4.268724e+08
-4.428954e+08
-4.653685e+08
-4.955595e+08
-5.352657e+08
0
0
0
0
0
1.023809e+09
1.098184e+09
-4.122367e+08
-4.26917e+08
-4.474869e+08
-4.750233e+08
-5.110372e+08
0
0
0
0
0
9.074904e+08
9.573819e+08
1.028635e+09
-3.988054e+08
-4.123385e+08
-4.313049e+08
-4.566316e+08
-4.896119e+08
0
0
0
0
0
8.213656e+08
8.56101e+08
9.101402e+08
9.83188e+08
-3.87002e+08
-3.995876e+08
-4.172256e+08
-4.407484e+08
-4.71281e+08
0
0
0
0
0
7.542349e+08
7.801465e+08
8.203971e+08
8.804782e+08
9.590365e+08
-3.769251e+08
-3.88721e+08
-4.052854e+08
-4.273449e+08
-4.559194e+08
0
0
0
0
0
7.000253e+08
7.205032e+08
7.52081e+08
7.988926e+08
8.666478e+08
-6.999662e+08
-6.539452e+08
-7.302944e+08
-6.156913e+08
-6.724232e+08
-7.748453e+08
-5.821796e+08
-6.261206e+08
-6.973593e+08
-8.287035e+08
-5.529265e+08
-5.886137e+08
-6.430683e+08
-7.300032e+08
-8.923773e+08
-5.276604e+08
-5.578768e+08
-6.022503e+08
-6.681925e+08
-7.725268e+08
0
-5.059883e+08
-5.322615e+08
-5.701618e+08
-6.241027e+08
-7.029727e+08
0
0
-4.872515e+08
-5.106419e+08
-5.439376e+08
-5.903108e+08
-6.550636e+08
0
0
0
-4.708827e+08
-4.919921e+08
-5.218959e+08
-5.628967e+08
-6.188088e+08
0
0
0
0
-4.562278e+08
-4.755114e+08
-5.026838e+08
-5.396603e+08
-5.892401e+08
0
0
0
0
0
-4.425995e+08
-4.603074e+08
-4.852122e+08
-5.188569e+08
-5.635582e+08
0
0
0
0
0
1.215189e+09
-4.291729e+08
-4.454535e+08
-4.683175e+08
-4.990763e+08
-5.395951e+08
0
0
0
0
0
1.040331e+09
1.127619e+09
-4.152987e+08
-4.302484e+08
-4.512212e+08
-4.793319e+08
-5.161502e+08
0
0
0
0
0
9.195905e+08
9.732526e+08
1.055087e+09
-4.016445e+08
-4.153991e+08
-4.346919e+08
-4.604784e+08
-4.940928e+08
0
0
0
0
0
8.295589e+08
8.657074e+08
9.225743e+08
1.003209e+09
-3.890537e+08
-4.017864e+08
-4.196411e+08
-4.434659e+08
-4.744109e+08
0
0
0
0
0
7.591566e+08
7.856237e+08
8.268445e+08
8.88842e+08
9.723405e+08
-3.779686e+08
-3.898329e+08
-4.064978e+08
-4.286982e+08
-4.574639e+08
0
0
0
0
0
7.022622e+08
7.2293e+08
7.548151e+08
8.021512e+08
8.709192e+08
-3.684723e+08
-3.796351e+08
-3.953124e+08
-4.161991e+08
-4.431994e+08
0
0
0
0
0
6.552714e+08
6.721229e+08
6.980987e+08
7.360785e+08
7.904874e+08
-6.819704e+08
-6.411573e+08
-7.068681e+08
-6.079224e+08
-6.602831e+08
-7.487327e+08
-5.793847e+08
-6.216283e+08
-6.888431e+08
-8.06815e+08
-5.526469e+08
-5.877691e+08
-6.409817e+08
-7.247771e+08
-8.764876e+08
-5.281161e+08
-5.581831e+08
-6.022165e+08
-6.673542e+08
-7.695303e+08
0
-5.063528e+08
-5.326023e+08
-5.704371e+08
-6.242162e+08
-7.026798e+08
0
0
-4.872515e+08
-5.106419e+08
-5.439376e+08
-5.903108e+08
-6.550636e+08
0
0
0
-4.705312e+08
-4.916421e+08
-5.215583e+08
-5.62594e+08
-6.185904e+08
0
0
0
0
-4.557328e+08
-4.750312e+08
-5.022394e+08
-5.392864e+08
-5.889998e+08
0
0
0
0
0
-4.423793e+08
-4.601468e+08
-4.851521e+08
-5.18957e+08
-5.639113e+08
0
0
0
0
0
1.228343e+09
-4.29869e+08
-4.462915e+08
-4.693739e+08
-5.004551e+08
-5.414432e+08
0
0
0
0
0
1.05093e+09
1.148415e+09
-4.174552e+08
-4.326335e+08
-4.539528e+08
-4.825627e+08
-5.200864e+08
0
0
0
0
0
9.305559e+08
9.884147e+08
1.08272e+09
-4.045378e+08
-4.185343e+08
-4.381884e+08
-4.644883e+08
-4.988151e+08
0
0
0
0
0
8.388675e+08
8.768799e+08
9.375107e+08
1.028767e+09
-3.917496e+08
-4.046821e+08
-4.228329e+08
-4.470728e+08
-4.785872e+08
0
0
0
0
0
7.659165e+08
7.932222e+08
8.3591e+08
9.008315e+08
9.921737e+08
-3.799239e+08
-3.919223e+08
-4.087841e+08
-4.3126e+08
-4.603994e+08
0
0
0
0
0
7.064754e+08
7.275111e+08
7.599971e+08
8.083702e+08
8.791688e+08
-3.694722e+08
-3.806969e+08
-3.964666e+08
-4.174821e+08
-4.446574e+08
0
0
0
0
0
6.572285e+08
6.742128e+08
7.004013e+08
7.387192e+08
7.936974e+08
-3.605242e+08
-3.710873e+08
-3.859725e+08
-4.057799e+08
-4.31367e+08
0
0
0
0
0
6.158247e+08
6.300534e+08
6.51988e+08
6.838055e+08
7.285903e+08
-6.699259e+08
-6.301671e+08
-6.885525e+08
-5.987334e+08
-6.472212e+08
-7.243099e+08
-5.735453e+08
-6.136259e+08
-6.760741e+08
-7.789488e+08
-5.506312e+08
-5.848246e+08
-6.36164e+08
-7.15559e+08
-8.525899e+08
-5.280724e+08
-5.578275e+08
-6.012308e+08
-6.650032e+08
-7.63727e+08
0
-5.068501e+08
-5.330246e+08
-5.706894e+08
-6.240921e+08
-7.01671e+08
0
0
-4.876123e+08
-5.109944e+08
-5.442614e+08
-5.905606e+08
-6.551345e+08
0
0
0
-4.705312e+08
-4.916421e+08
-5.215583e+08
-5.62594e+08
-6.185904e+08
0
0
0
0
-4.553928e+08
-4.746895e+08
-5.019027e+08
-5.389669e+08
-5.887223e+08
0
0
0
0
0
-4.418968e+08
-4.596745e+08
-4.847051e+08
-5.185591e+08
-5.636022e+08
0
0
0
0
0
1.234976e+09
-4.296402e+08
-4.461135e+08
-4.692807e+08
-5.00494e+08
-5.416831e+08
0
0
0
0
0
1.056249e+09
1.160267e+09
-4.180923e+08
-4.333961e+08
-4.549082e+08
-4.837992e+08
-5.217251e+08
0
0
0
0
0
9.370451e+08
9.98106e+08
1.102177e+09
-4.065677e+08
-4.207695e+08
-4.407343e+08
-4.674796e+08
-5.024293e+08
0
0
0
0
0
8.469624e+08
8.869982e+08
9.517827e+08
1.05554e+09
-3.944931e+08
-4.076437e+08
-4.26122e+08
-4.508249e+08
-4.829782e+08
0
0
0
0
0
7.73453e+08
8.018514e+08
8.464544e+08
9.152478e+08
1.017572e+09
-3.824911e+08
-3.946714e+08
-4.118026e+08
-4.346568e+08
-4.643117e+08
0
0
0
0
0
7.122142e+08
7.338009e+08
7.671857e+08
8.171172e+08
8.910053e+08
-3.713418e+08
-3.826878e+08
-3.986384e+08
-4.199054e+08
-4.474223e+08
0
0
0
0
0
6.609074e+08
6.781457e+08
7.047452e+08
7.43723e+08
7.998251e+08
-3.614839e+08
-3.721046e+08
-3.870744e+08
-4.070006e+08
-4.32748e+08
0
0
0
0
0
6.17562e+08
6.318865e+08
6.539748e+08
6.860319e+08
7.311913e+08
-3.530264e+08
-3.630503e+08
-3.771885e+08
-3.960272e+08
-4.203153e+08
0
0
0
0
0
5.806333e+08
5.928839e+08
6.118177e+08
6.391073e+08
6.770811e+08
-6.640204e+08
-6.2238e+08
-6.762898e+08
-5.904426e+08
-6.360103e+08
-7.052067e+08
-5.662116e+08
-6.042194e+08
-6.623875e+08
-7.528615e+08
-5.458902e+08
-5.787869e+08
-6.276888e+08
-7.01788e+08
-8.221233e+08
-5.265043e+08
-5.556809e+08
-5.980237e+08
-6.596959e+08
-7.535124e+08
0
-5.069278e+08
-5.329133e+08
-5.702154e+08
-6.229059e+08
-6.989586e+08
0
0
-4.881206e+08
-5.114617e+08
-5.446372e+08
-5.90741e+08
-6.548923e+08
0
0
0
-4.708827e+08
-4.919921e+08
-5.218959e+08
-5.628967e+08
-6.188088e+08
0
0
0
0
-4.553928e+08
-4.746895e+08
-5.019027e+08
-5.389669e+08
-5.887223e+08
0
0
0
0
0
-4.415688e+08
-4.593435e+08
-4.843755e+08
-5.182384e+08
-5.633041e+08
0
0
0
0
0
1.237664e+09
-4.291709e+08
-4.45652e+08
-4.688387e+08
-5.000891e+08
-5.413426e+08
0
0
0
0
0
1.058534e+09
1.166209e+09
-4.17858e+08
-4.332064e+08
-4.547925e+08
-4.837964e+08
-5.218902e+08
0
0
0
0
0
9.398677e+08
1.002948e+09
1.113228e+09
-4.071537e+08
-4.214684e+08
-4.416058e+08
-4.686009e+08
-5.039031e+08
0
0
0
0
0
8.514219e+08
8.929674e+08
9.608752e+08
1.074358e+09
-3.964112e+08
-4.097471e+08
-4.285069e+08
-4.536113e+08
-4.863223e+08
0
0
0
0
0
7.797863e+08
8.093493e+08
8.560026e+08
9.2904e+08
1.044301e+09
-3.850998e+08
-3.97479e+08
-4.149082e+08
-4.381839e+08
-4.684169e+08
0
0
0
0
0
7.185132e+08
7.408095e+08
7.753488e+08
8.27297e+08
9.052618e+08
-3.737943e+08
-3.853051e+08
-4.015028e+08
-4.231156e+08
-4.511035e+08
0
0
0
0
0
6.658846e+08
6.835003e+08
7.107085e+08
7.506655e+08
8.084486e+08
-3.632743e+08
-3.740079e+08
-3.891429e+08
-4.093009e+08
-4.353612e+08
0
0
0
0
0
6.208239e+08
6.353292e+08
6.577113e+08
6.902311e+08
7.361204e+08
-3.539495e+08
-3.640265e+08
-3.782438e+08
-3.971917e+08
-4.216279e+08
0
0
0
0
0
5.821922e+08
5.945147e+08
6.135634e+08
6.410306e+08
6.792746e+08
-3.459424e+08
-3.55469e+08
-3.689313e+08
-3.868596e+08
-4.09978e+08
0
0
0
0
0
5.489485e+08
5.596513e+08
5.762661e+08
6.001278e+08
6.33028e+08
-6.184591e+08
-6.702759e+08
-5.844117e+08
-6.280722e+08
-6.924182e+08
-5.594028e+08
-5.957544e+08
-6.506678e+08
-7.32462e+08
-5.396996e+08
-5.712713e+08
-6.178088e+08
-6.870983e+08
-7.93602e+08
-5.224684e+08
-5.507683e+08
-5.916009e+08
-6.504908e+08
-7.383151e+08
0
-5.05639e+08
-5.312295e+08
-5.678467e+08
-6.193147e+08
-6.92977e+08
0
0
-4.882657e+08
-5.114788e+08
-5.444235e+08
-5.901032e+08
-6.534399e+08
0
0
0
-4.713876e+08
-4.924731e+08
-5.223223e+08
-5.632123e+08
-6.188981e+08
0
0
0
0
-4.557328e+08
-4.750312e+08
-5.022394e+08
-5.392864e+08
-5.889998e+08
0
0
0
0
0
-4.415688e+08
-4.593435e+08
-4.843755e+08
-5.182384e+08
-5.633041e+08
0
0
0
0
0
1.237664e+09
-4.288545e+08
-4.453324e+08
-4.685187e+08
-4.997739e+08
-5.410406e+08
0
0
0
0
0
1.059321e+09
1.168604e+09
-4.174021e+08
-4.327567e+08
-4.54359e+08
-4.833929e+08
-5.215369e+08
0
0
0
0
0
9.408023e+08
1.005016e+09
1.118752e+09
-4.06916e+08
-4.212708e+08
-4.414738e+08
-4.685685e+08
-5.040156e+08
0
0
0
0
0
8.530709e+08
8.955527e+08
9.654032e+08
1.085039e+09
-3.969532e+08
-4.103911e+08
-4.293073e+08
-4.546365e+08
-4.87662e+08
0
0
0
0
0
7.83048e+08
8.13466e+08
8.616163e+08
9.378022e+08
1.06309e+09
-3.869169e+08
-3.99466e+08
-4.171515e+08
-4.407926e+08
-4.7153e+08
0
0
0
0
0
7.236523e+08
7.466921e+08
7.824378e+08
8.365197e+08
9.189301e+08
-3.762832e+08
-3.879742e+08
-4.044455e+08
-4.264438e+08
-4.549593e+08
0
0
0
0
0
6.712768e+08
6.893734e+08
7.173515e+08
7.585517e+08
8.184953e+08
-3.656216e+08
-3.765077e+08
-3.918689e+08
-4.123455e+08
-4.388373e+08
0
0
0
0
0
6.252126e+08
6.399845e+08
6.627976e+08
6.95996e+08
7.42962e+08
-3.556678e+08
-3.658489e+08
-3.802203e+08
-3.993813e+08
-4.241065e+08
0
0
0
0
0
5.851176e+08
5.975742e+08
6.168401e+08
6.446464e+08
6.834115e+08
-3.468322e+08
-3.564078e+08
-3.699435e+08
-3.87974e+08
-4.112291e+08
0
0
0
0
0
5.5036e+08
5.611176e+08
5.778217e+08
6.018193e+08
6.349233e+08
-3.392462e+08
-3.483065e+08
-3.611442e+08
-3.782454e+08
-4.002682e+08
0
0
0
0
0
5.201971e+08
5.296704e+08
5.444301e+08
5.65596e+08
5.945998e+08
-5.813359e+08
-6.240755e+08
-6.861455e+08
-5.543758e+08
-5.896037e+08
-6.423803e+08
-7.188139e+08
-5.338503e+08
-5.643168e+08
-6.089526e+08
-6.745594e+08
-7.713217e+08
-5.170623e+08
-5.44421e+08
-5.836975e+08
-6.398624e+08
-7.221925e+08
0
-5.02092e+08
-5.270429e+08
-5.626069e+08
-6.123067e+08
-6.827523e+08
0
0
-4.871689e+08
-5.100867e+08
-5.425468e+08
-5.874148e+08
-6.493293e+08
0
0
0
-4.715712e+08
-4.925635e+08
-5.222489e+08
-5.628588e+08
-6.180464e+08
0
0
0
0
-4.562278e+08
-4.755114e+08
-5.026838e+08
-5.396603e+08
-5.892401e+08
0
0
0
0
0
-4.418968e+08
-4.596745e+08
-4.847051e+08
-5.185591e+08
-5.636022e+08
0
0
0
0
0
1.234976e+09
-4.288545e+08
-4.453324e+08
-4.685187e+08
-4.997739e+08
-5.410406e+08
0
0
0
0
0
1.059321e+09
1.168604e+09
-4.170967e+08
-4.324481e+08
-4.540495e+08
-4.830861e+08
-5.212385e+08
0
0
0
0
0
9.410064e+08
1.005722e+09
1.120974e+09
-4.064726e+08
-4.20833e+08
-4.410501e+08
-4.681704e+08
-5.036591e+08
0
0
0
0
0
8.533986e+08
8.964017e+08
9.673302e+08
1.090382e+09
-3.967135e+08
-4.101877e+08
-4.291635e+08
-4.545819e+08
-4.877357e+08
0
0
0
0
0
7.840369e+08
8.149791e+08
8.640379e+08
9.421584e+08
1.073777e+09
-3.874191e+08
-4.000624e+08
-4.178905e+08
-4.417363e+08
-4.727574e+08
0
0
0
0
0
7.261312e+08
7.497091e+08
7.863145e+08
8.419224e+08
9.275941e+08
-3.780113e+08
-3.898561e+08
-4.065638e+08
-4.288965e+08
-4.57872e+08
0
0
0
0
0
6.755649e+08
6.941573e+08
7.229219e+08
7.653994e+08
8.276057e+08
-3.680008e+08
-3.790536e+08
-3.946652e+08
-4.154971e+08
-4.424727e+08
0
0
0
0
0
6.299153e+08
6.450236e+08
6.68374e+08
7.024188e+08
7.507389e+08
-3.579197e+08
-3.68241e+08
-3.828229e+08
-4.022769e+08
-4.274005e+08
0
0
0
0
0
5.890356e+08
6.016881e+08
6.212696e+08
6.495684e+08
6.890927e+08
-3.48485e+08
-3.581565e+08
-3.718353e+08
-3.900651e+08
-4.135866e+08
0
0
0
0
0
5.53009e+08
5.638672e+08
5.807383e+08
6.049934e+08
6.384866e+08
-3.401058e+08
-3.492112e+08
-3.621171e+08
-3.793137e+08
-4.014645e+08
0
0
0
0
0
5.214848e+08
5.310006e+08
5.458308e+08
5.671048e+08
5.962674e+08
-3.329103e+08
-3.415363e+08
-3.537888e+08
-3.701252e+08
-3.911501e+08
0
0
0
0
0
4.939373e+08
5.024147e+08
5.156676e+08
5.346443e+08
5.60545e+08
-5.517912e+08
-5.864674e+08
-6.382085e+08
-7.121191e+08
-5.294924e+08
-5.59189e+08
-6.025299e+08
-6.657088e+08
-7.564309e+08
-5.118967e+08
-5.384457e+08
-5.764201e+08
-6.303827e+08
-7.084825e+08
0
-4.972605e+08
-5.21499e+08
-5.559288e+08
-6.037958e+08
-6.710671e+08
0
0
-4.839893e+08
-5.064057e+08
-5.380751e+08
-5.816819e+08
-6.415124e+08
0
0
0
-4.706134e+08
-4.913736e+08
-5.206858e+08
-5.607067e+08
-6.149301e+08
0
0
0
0
-4.564342e+08
-4.756451e+08
-5.026931e+08
-5.394645e+08
-5.887062e+08
0
0
0
0
0
-4.423793e+08
-4.601468e+08
-4.851521e+08
-5.18957e+08
-5.639113e+08
0
0
0
0
0
1.228343e+09
-4.291709e+08
-4.45652e+08
-4.688387e+08
-5.000891e+08
-5.413426e+08
0
0
0
0
0
1.058534e+09
1.166209e+09
-4.170967e+08
-4.324481e+08
-4.540495e+08
-4.830861e+08
-5.212385e+08
0
0
0
0
0
9.410064e+08
1.005722e+09
1.120974e+09
-4.061775e+08
-4.205349e+08
-4.407509e+08
-4.678731e+08
-5.033677e+08
0
0
0
0
0
8.533502e+08
8.965835e+08
9.67986e+08
1.092533e+09
-3.962824e+08
-4.097614e+08
-4.2875e+08
-4.54191e+08
-4.87381e+08
0
0
0
0
0
7.840402e+08
8.152728e+08
8.648282e+08
9.44012e+08
1.079144e+09
-3.871778e+08
-3.998551e+08
-4.177375e+08
-4.416646e+08
-4.728011e+08
0
0
0
0
0
7.267099e+08
7.50614e+08
7.877303e+08
8.442453e+08
9.31901e+08
-3.784794e+08
-3.904097e+08
-4.072496e+08
-4.297695e+08
-4.590039e+08
0
0
0
0
0
6.77507e+08
6.964523e+08
7.257646e+08
7.691271e+08
8.329227e+08
-3.696475e+08
-3.808428e+08
-3.966707e+08
-4.178118e+08
-4.452093e+08
0
0
0
0
0
6.335733e+08
6.490225e+08
6.729096e+08
7.078009e+08
7.574926e+08
-3.601996e+08
-3.706741e+08
-3.854889e+08
-4.052699e+08
-4.308402e+08
0
0
0
0
0
5.931957e+08
6.060919e+08
6.260615e+08
6.549643e+08
6.954249e+08
-3.50649e+08
-3.604509e+08
-3.743248e+08
-3.928279e+08
-4.16717e+08
0
0
0
0
0
5.565432e+08
5.675473e+08
5.846588e+08
6.092839e+08
6.43338e+08
-3.416993e+08
-3.508929e+08
-3.639318e+08
-3.813139e+08
-4.03714e+08
0
0
0
0
0
5.239024e+08
5.33495e+08
5.484559e+08
5.699328e+08
5.993963e+08
-3.337423e+08
-3.424103e+08
-3.54726e+08
-3.711513e+08
-3.922959e+08
0
0
0
0
0
4.951195e+08
5.036302e+08
5.1694e+08
5.360042e+08
5.62033e+08
-3.269044e+08
-3.351307e+08
-3.468377e+08
-3.624581e+08
-3.825601e+08
0
0
0
0
0
4.698248e+08
4.774781e+08
4.894842e+08
5.06656e+08
5.300099e+08
-5.272391e+08
-5.565534e+08
-5.992562e+08
-6.612549e+08
-7.491273e+08
-5.080257e+08
-5.340002e+08
-5.710663e+08
-6.235253e+08
-6.988273e+08
0
-4.926101e+08
-5.162222e+08
-5.496765e+08
-5.960068e+08
-6.607033e+08
0
0
-4.796065e+08
-5.014514e+08
-5.322422e+08
-5.744881e+08
-6.321494e+08
0
0
0
-4.677197e+08
-4.880736e+08
-5.167521e+08
-5.558074e+08
-6.085198e+08
0
0
0
0
-4.555829e+08
-4.746025e+08
-5.013497e+08
-5.376586e+08
-5.861878e+08
0
0
0
0
0
-4.425995e+08
-4.603074e+08
-4.852122e+08
-5.188569e+08
-5.635582e+08
0
0
0
0
0
1.215189e+09
-4.296402e+08
-4.461135e+08
-4.692807e+08
-5.00494e+08
-5.416831e+08
0
0
0
0
0
1.056249e+09
1.160267e+09
-4.174021e+08
-4.327567e+08
-4.54359e+08
-4.833929e+08
-5.215369e+08
0
0
0
0
0
9.408023e+08
1.005016e+09
1.118752e+09
-4.061775e+08
-4.205349e+08
-4.407509e+08
-4.678731e+08
-5.033677e+08
0
0
0
0
0
8.533502e+08
8.965835e+08
9.67986e+08
1.092533e+09
-3.959969e+08
-4.094731e+08
-4.284608e+08
-4.539032e+08
-4.870978e+08
0
0
0
0
0
7.838627e+08
8.152232e+08
8.649949e+08
9.446434e+08
1.081314e+09
-3.867577e+08
-3.994401e+08
-4.173341e+08
-4.412818e+08
-4.724504e+08
0
0
0
0
0
7.265238e+08
7.506074e+08
7.879987e+08
8.450007e+08
9.337391e+08
-3.782378e+08
-3.901989e+08
-4.070897e+08
-4.29684e+08
-4.590237e+08
0
0
0
0
0
6.77821e+08
6.969768e+08
7.266073e+08
7.704798e+08
8.352025e+08
-3.700846e+08
-3.813596e+08
-3.973085e+08
-4.186234e+08
-4.462583e+08
0
0
0
0
0
6.35134e+08
6.50821e+08
6.750719e+08
7.105321e+08
7.611508e+08
-3.617731e+08
-3.723787e+08
-3.87395e+08
-4.074603e+08
-4.334213e+08
0
0
0
0
0
5.963707e+08
6.095087e+08
6.29857e+08
6.593481e+08
7.007288e+08
-3.528378e+08
-3.62782e+08
-3.768716e+08
-3.956797e+08
-4.199811e+08
0
0
0
0
0
5.602668e+08
5.714503e+08
5.888525e+08
6.139244e+08
6.486579e+08
-3.437844e+08
-3.530975e+08
-3.663186e+08
-3.839551e+08
-4.066984e+08
0
0
0
0
0
5.271178e+08
5.368208e+08
5.519681e+08
5.737338e+08
6.036266e+08
-3.352815e+08
-3.440313e+08
-3.564705e+08
-3.730689e+08
-3.944461e+08
0
0
0
0
0
4.973406e+08
5.059108e+08
5.193249e+08
5.385518e+08
5.648219e+08
-3.27711e+08
-3.359764e+08
-3.477426e+08
-3.63446e+08
-3.836599e+08
0
0
0
0
0
4.709158e+08
4.785958e+08
4.906484e+08
5.078923e+08
5.313515e+08
-3.212058e+08
-3.290589e+08
-3.402619e+08
-3.552149e+08
-3.744541e+08
0
0
0
0
0
4.47574e+08
4.545436e+08
4.654984e+08
4.81156e+08
5.023882e+08
-5.060154e+08
-5.317025e+08
-5.683159e+08
-6.200318e+08
-6.939704e+08
0
-4.891117e+08
-5.122738e+08
-5.450364e+08
-5.902935e+08
-6.532288e+08
0
0
-4.753662e+08
-4.967014e+08
-5.267223e+08
-5.677987e+08
-6.236388e+08
0
0
0
-4.636965e+08
-4.835801e+08
-5.115406e+08
-5.495251e+08
-6.006059e+08
0
0
0
0
-4.52922e+08
-4.715998e+08
-4.978227e+08
-5.333464e+08
-5.807033e+08
0
0
0
0
0
-4.418332e+08
-4.593785e+08
-4.840304e+08
-5.172961e+08
-5.614307e+08
0
0
0
0
0
1.192237e+09
-4.29869e+08
-4.462915e+08
-4.693739e+08
-5.004551e+08
-5.414432e+08
0
0
0
0
0
1.05093e+09
1.148415e+09
-4.17858e+08
-4.332064e+08
-4.547925e+08
-4.837964e+08
-5.218902e+08
0
0
0
0
0
9.398677e+08
1.002948e+09
1.113228e+09
-4.064726e+08
-4.20833e+08
-4.410501e+08
-4.681704e+08
-5.036591e+08
0
0
0
0
0
8.533986e+08
8.964017e+08
9.673302e+08
1.090382e+09
-3.959969e+08
-4.094731e+08
-4.284608e+08
-4.539032e+08
-4.870978e+08
0
0
0
0
0
7.838627e+08
8.152232e+08
8.649949e+08
9.446434e+08
1.081314e+09
-3.864809e+08
-3.99161e+08
-4.170541e+08
-4.410031e+08
-4.721757e+08
0
0
0
0
0
7.262751e+08
7.504375e+08
7.879475e+08
8.451591e+08
9.343686e+08
-3.778283e+08
-3.89794e+08
-4.066961e+08
-4.293093e+08
-4.586785e+08
0
0
0
0
0
6.775225e+08
6.967929e+08
7.265915e+08
7.707309e+08
8.359433e+08
-3.698432e+08
-3.81147e+08
-3.971426e+08
-4.18527e+08
-4.462585e+08
0
0
0
0
0
6.352731e+08
6.510988e+08
6.755549e+08
7.11332e+08
7.624696e+08
-3.621826e+08
-3.72862e+08
-3.879914e+08
-4.082167e+08
-4.343981e+08
0
0
0
0
0
5.976518e+08
6.109537e+08
6.315507e+08
6.614237e+08
7.034036e+08
-3.543439e+08
-3.644104e+08
-3.786868e+08
-3.977604e+08
-4.224222e+08
0
0
0
0
0
5.630625e+08
5.744202e+08
5.920989e+08
6.175943e+08
6.529762e+08
-3.45891e+08
-3.553348e+08
-3.687577e+08
-3.866778e+08
-4.098061e+08
0
0
0
0
0
5.304836e+08
5.403204e+08
5.556899e+08
5.777982e+08
6.082024e+08
-3.372945e+08
-3.46155e+08
-3.58763e+08
-3.755997e+08
-3.97297e+08
0
0
0
0
0
5.002872e+08
5.08942e+08
5.225032e+08
5.419599e+08
5.685707e+08
-3.292002e+08
-3.375418e+08
-3.494236e+08
-3.652884e+08
-3.857197e+08
0
0
0
0
0
4.729679e+08
4.806945e+08
4.928317e+08
5.102088e+08
5.338648e+08
-3.219891e+08
-3.298786e+08
-3.411373e+08
-3.561683e+08
-3.755121e+08
0
0
0
0
0
4.48586e+08
4.555767e+08
4.665701e+08
4.822881e+08
5.036084e+08
-3.158101e+08
-3.232979e+08
-3.3403e+08
-3.483651e+08
-3.668002e+08
0
0
0
0
0
4.269689e+08
4.333477e+08
4.434119e+08
4.577775e+08
4.772131e+08
-4.872882e+08
-5.102241e+08
-5.426394e+08
-5.873605e+08
-6.494235e+08
0
0
-4.721675e+08
-4.931335e+08
-5.226024e+08
-5.628499e+08
-6.174176e+08
0
0
0
-4.597894e+08
-4.792498e+08
-5.065736e+08
-5.436225e+08
-5.933022e+08
0
0
0
0
-4.491975e+08
-4.674759e+08
-4.930976e+08
-5.277358e+08
-5.737952e+08
0
0
0
0
0
-4.393667e+08
-4.566179e+08
-4.808216e+08
-5.134295e+08
-5.566019e+08
0
0
0
0
0
1.159913e+09
-4.291729e+08
-4.454535e+08
-4.683175e+08
-4.990763e+08
-5.395951e+08
0
0
0
0
0
1.040331e+09
1.127619e+09
-4.180923e+08
-4.333961e+08
-4.549082e+08
-4.837992e+08
-5.217251e+08
0
0
0
0
0
9.370451e+08
9.98106e+08
1.102177e+09
-4.06916e+08
-4.212708e+08
-4.414738e+08
-4.685685e+08
-5.040156e+08
0
0
0
0
0
8.530709e+08
8.955527e+08
9.654032e+08
1.085039e+09
-3.962824e+08
-4.097614e+08
-4.2875e+08
-4.54191e+08
-4.87381e+08
0
0
0
0
0
7.840402e+08
8.152728e+08
8.648282e+08
9.44012e+08
1.079144e+09
-3.864809e+08
-3.99161e+08
-4.170541e+08
-4.410031e+08
-4.721757e+08
0
0
0
0
0
7.262751e+08
7.504375e+08
7.879475e+08
8.451591e+08
9.343686e+08
-3.775597e+08
-3.895233e+08
-4.064249e+08
-4.290392e+08
-4.584121e+08
0
0
0
0
0
6.772357e+08
6.965559e+08
7.264262e+08
7.706782e+08
8.360988e+08
-3.694438e+08
-3.80752e+08
-3.96758e+08
-4.181606e+08
-4.45919e+08
0
0
0
0
0
6.34909e+08
6.508089e+08
6.753704e+08
7.113081e+08
7.627097e+08
-3.619414e+08
-3.726481e+08
-3.878212e+08
-4.081107e+08
-4.343822e+08
0
0
0
0
0
5.976736e+08
6.110681e+08
6.317998e+08
6.618765e+08
7.041772e+08
-3.547284e+08
-3.64864e+08
-3.792457e+08
-3.984689e+08
-4.233341e+08
0
0
0
0
0
5.641336e+08
5.756058e+08
5.934588e+08
6.192184e+08
6.550057e+08
-3.473364e+08
-3.568933e+08
-3.704912e+08
-3.886584e+08
-4.121235e+08
0
0
0
0
0
5.329757e+08
5.429392e+08
5.585143e+08
5.809385e+08
6.118168e+08
-3.393264e+08
-3.483079e+08
-3.611031e+08
-3.782057e+08
-4.002619e+08
0
0
0
0
0
5.033548e+08
5.121104e+08
5.258444e+08
5.455697e+08
5.725795e+08
-3.311467e+08
-3.395917e+08
-3.516311e+08
-3.677179e+08
-3.884494e+08
0
0
0
0
0
4.756845e+08
4.834767e+08
4.957321e+08
5.132955e+08
5.372273e+08
-3.234326e+08
-3.313929e+08
-3.4276e+08
-3.579425e+08
-3.774897e+08
0
0
0
0
0
4.504918e+08
4.575187e+08
4.685817e+08
4.844105e+08
5.058945e+08
-3.165716e+08
-3.240938e+08
-3.348781e+08
-3.492867e+08
-3.678202e+08
0
0
0
0
0
4.27911e+08
4.343073e+08
4.444037e+08
4.588204e+08
4.783308e+08
-3.106862e+08
-3.178433e+08
-3.281181e+08
-3.418754e+08
-3.595651e+08
0
0
0
0
0
4.078077e+08
4.136916e+08
4.229769e+08
4.362341e+08
4.541243e+08
-4.70495e+08
-4.912746e+08
-5.204651e+08
-5.602957e+08
-6.142266e+08
0
0
0
-4.568361e+08
-4.759881e+08
-5.028523e+08
-5.392317e+08
-5.87919e+08
0
0
0
0
-4.455702e+08
-4.634867e+08