/*--------------------------------*- C++ -*----------------------------------*\
| =========                 |                                                 |
| \\      /  F ield         | OpenFOAM: The Open Source CFD Toolbox           |
|  \\    /   O peration     | Version:  2306                                  |
|   \\  /    A nd           | Website:  www.openfoam.com                      |
|    \\/     M anipulation  |                                                 |
\*---------------------------------------------------------------------------*/
FoamFile
{
    version     2.0;
    format      ascii;
    arch        "LSB;label=32;scalar=64";
    class       volScalarField;
    location    "0.3/phiI";
    object      phi;
}
// * * * * * * * * * * * * * * * * * * * * * * * * * * * * * * * * * * * * * //

dimensions      [1 2 -3 0 0 -1 0];

internalField   nonuniform List<scalar> 
12000
(
1.559415
1.559458
1.556492
1.560179
1.559564
1.556478
1.560228
1.553775
1.557199
1.561769
1.559723
1.55647
1.560347
1.553735
1.557189
1.561831
1.551623
1.554435
1.558668
1.564204
1.559916
1.556469
1.560525
1.553673
1.557189
1.561976
1.551569
1.554398
1.558666
1.564286
1.549914
1.552245
1.555801
1.560914
1.567513
1.560075
1.556485
1.560743
1.553596
1.557201
1.562194
1.55148
1.554342
1.558683
1.564471
1.549853
1.552194
1.55577
1.560925
1.567622
1.548542
1.550504
1.553527
1.557886
1.563963
1.571737
1.560117
1.556509
1.560929
1.553525
1.55723
1.562461
1.551364
1.554274
1.558718
1.564748
1.549747
1.55211
1.555727
1.560968
1.567862
1.548477
1.550446
1.553482
1.557865
1.563992
1.571881
1.547419
1.549105
1.551718
1.555484
1.560715
1.567852
1.576079
1.56005
1.556513
1.56099
1.553479
1.557267
1.562699
1.551248
1.554213
1.558775
1.565091
1.549608
1.552001
1.555676
1.561039
1.56822
1.548362
1.550345
1.553408
1.557842
1.56407
1.572192
1.547352
1.549043
1.551665
1.555447
1.560708
1.567904
1.576259
1.546491
1.547959
1.55026
1.553568
1.558136
1.564319
1.571842
1.58054
1.559952
1.556484
1.560937
1.553457
1.557279
1.5628
1.551164
1.554175
1.558837
1.565408
1.549465
1.551893
1.555635
1.561137
1.568667
1.548209
1.550212
1.553314
1.557818
1.56419
1.572656
1.547231
1.548931
1.551572
1.555389
1.560711
1.568027
1.576641
1.546423
1.547894
1.550202
1.553521
1.55811
1.56433
1.571918
1.580756
1.545714
1.547009
1.549062
1.552018
1.556073
1.561512
1.568009
1.575935
1.585122
1.559886
1.556443
1.560846
1.55344
1.557255
1.562773
1.551125
1.554158
1.558867
1.565571
1.549356
1.551815
1.555614
1.561239
1.569093
1.54805
1.550075
1.553221
1.557807
1.564347
1.573237
1.547071
1.548784
1.551451
1.555317
1.560724
1.568211
1.577211
1.546298
1.547776
1.550098
1.553443
1.558074
1.564368
1.572085
1.58121
1.545646
1.546943
1.549
1.551966
1.556036
1.561502
1.568037
1.576033
1.585374
1.545058
1.546213
1.548066
1.550739
1.554397
1.55926
1.56496
1.571784
1.58013
1.589824
1.559886
1.556415
1.560784
1.553423
1.557216
1.562697
1.551108
1.554143
1.558851
1.565582
1.549304
1.551779
1.555606
1.561294
1.569339
1.547926
1.549971
1.553155
1.557812
1.564503
1.573805
1.546901
1.54863
1.551328
1.555248
1.560754
1.568443
1.577927
1.546133
1.54762
1.549962
1.55334
1.558032
1.564429
1.572334
1.581887
1.54552
1.546822
1.54889
1.551874
1.555976
1.561494
1.568109
1.576247
1.5859
1.54499
1.546147
1.548003
1.550684
1.554353
1.559236
1.564964
1.57183
1.580252
1.590112
1.5445
1.54554
1.547229
1.549672
1.553008
1.557423
1.562508
1.56848
1.575646
1.584429
1.594644
1.559952
1.556415
1.560784
1.553413
1.557188
1.562641
1.551101
1.554127
1.558816
1.565528
1.549285
1.551763
1.555595
1.561292
1.569403
1.547865
1.54992
1.553126
1.557819
1.564593
1.574158
1.546768
1.54851
1.551233
1.555201
1.560794
1.56867
1.578637
1.545958
1.547456
1.549819
1.553236
1.557995
1.564512
1.572642
1.582739
1.545353
1.546661
1.548744
1.551754
1.555899
1.56149
1.568218
1.57656
1.586685
1.544864
1.546024
1.547889
1.550584
1.554279
1.559201
1.564985
1.571937
1.580511
1.590712
1.544432
1.545473
1.547165
1.549614
1.55296
1.55739
1.562497
1.568499
1.57571
1.584575
1.59497
1.544022
1.544966
1.546518
1.548771
1.551843
1.555892
1.560499
1.565816
1.572073
1.579594
1.58883
1.598431
1.56005
1.556443
1.560846
1.553413
1.557188
1.562641
1.551098
1.554116
1.558791
1.565482
1.54928
1.551756
1.55558
1.561264
1.569379
1.547844
1.549902
1.553112
1.557813
1.56461
1.574292
1.546701
1.548451
1.551188
1.555181
1.560822
1.568807
1.579098
1.545819
1.547326
1.549707
1.553158
1.557976
1.5646
1.572939
1.583592
1.545175
1.54649
1.54859
1.551629
1.555823
1.561496
1.568356
1.576944
1.587674
1.544696
1.54586
1.547736
1.550452
1.554181
1.559157
1.56502
1.572093
1.580889
1.591605
1.544307
1.54535
1.547049
1.54951
1.552876
1.557337
1.562486
1.568548
1.575851
1.584879
1.595643
1.543956
1.5449
1.546454
1.548712
1.551792
1.555855
1.560478
1.565818
1.572106
1.579676
1.588999
1.598784
1.543612
1.544473
1.545909
1.548001
1.550854
1.554601
1.558819
1.563626
1.569186
1.575738
1.583628
1.59229
1.601239
1.560117
1.556484
1.560937
1.553423
1.557216
1.562697
1.551098
1.554116
1.558791
1.565482
1.549279
1.551752
1.55557
1.561242
1.569347
1.54784
1.549897
1.553104
1.5578
1.564592
1.574306
1.546678
1.54843
1.55117
1.55517
1.560825
1.568849
1.579298
1.545749
1.547261
1.549652
1.553119
1.557969
1.564655
1.573122
1.584159
1.545033
1.546354
1.548467
1.55153
1.555765
1.561512
1.56849
1.577312
1.58867
1.544517
1.545687
1.547575
1.550313
1.554079
1.559116
1.565068
1.572285
1.58135
1.592731
1.544138
1.545185
1.546893
1.54937
1.552764
1.557268
1.562474
1.568621
1.576055
1.585323
1.596646
1.54383
1.544776
1.546336
1.548604
1.551701
1.55579
1.560446
1.565831
1.572183
1.579851
1.58935
1.599515
1.543546
1.544408
1.545846
1.547942
1.550801
1.55456
1.558791
1.563616
1.5692
1.575786
1.583728
1.592478
1.601614
1.543258
1.544049
1.545385
1.547339
1.550004
1.553499
1.557395
1.561789
1.566806
1.572618
1.579477
1.586803
1.594858
1.60311
1.560075
1.556513
1.56099
1.55344
1.557255
1.562773
1.551101
1.554127
1.558816
1.565528
1.549279
1.551752
1.55557
1.561242
1.569347
1.54784
1.549896
1.553101
1.557791
1.564573
1.574291
1.546675
1.548425
1.551164
1.555163
1.560815
1.568842
1.579351
1.545725
1.547238
1.549631
1.553103
1.557963
1.564669
1.57319
1.584426
1.544961
1.546286
1.548405
1.55148
1.555737
1.561524
1.568572
1.577543
1.589344
1.544374
1.545548
1.547445
1.550202
1.553998
1.559087
1.565119
1.572467
1.58179
1.593872
1.54396
1.54501
1.546727
1.549222
1.552645
1.557197
1.562468
1.568712
1.576301
1.585861
1.597912
1.543663
1.544612
1.546179
1.54846
1.55158
1.555703
1.560405
1.565852
1.572295
1.580104
1.58986
1.600603
1.543422
1.544285
1.545728
1.547833
1.550706
1.554486
1.558745
1.563606
1.569237
1.575892
1.583938
1.592865
1.602386
1.543193
1.543984
1.545322
1.54728
1.549951
1.553455
1.557363
1.561771
1.566807
1.572644
1.579539
1.586917
1.595059
1.603499
1.542952
1.543683
1.544932
1.546766
1.549269
1.552547
1.556173
1.560224
1.564802
1.570037
1.576111
1.582421
1.58916
1.596569
1.604069
1.559916
1.556509
1.560929
1.553457
1.557279
1.5628
1.551108
1.554143
1.558851
1.565582
1.54928
1.551756
1.55558
1.561264
1.569379
1.54784
1.549896
1.553101
1.557791
1.564573
1.574291
1.546675
1.548425
1.551162
1.555158
1.560806
1.568828
1.579352
1.545721
1.547234
1.549625
1.553096
1.557955
1.564663
1.573195
1.584515
1.544937
1.546261
1.548381
1.551459
1.555723
1.561523
1.568599
1.577635
1.589677
1.544302
1.545477
1.547379
1.550144
1.553956
1.559072
1.56515
1.572577
1.582068
1.594653
1.543818
1.54487
1.546594
1.549103
1.55255
1.55714
1.562468
1.568799
1.576531
1.586374
1.599198
1.543486
1.544437
1.546011
1.548307
1.55145
1.555612
1.560364
1.565881
1.572429
1.580405
1.590475
1.601976
1.543256
1.544121
1.54557
1.547686
1.550579
1.554388
1.558684
1.563593
1.569291
1.576042
1.584239
1.593425
1.603536
1.54307
1.543863
1.545204
1.54717
1.549853
1.553376
1.557306
1.561743
1.566817
1.572705
1.579673
1.587154
1.595472
1.604299
1.542888
1.543619
1.544869
1.546707
1.549215
1.552501
1.556138
1.560201
1.564794
1.570049
1.576149
1.582495
1.589284
1.596779
1.604465
1.542688
1.543365
1.544538
1.546267
1.548629
1.551718
1.555113
1.558877
1.56309
1.567859
1.57332
1.578863
1.584607
1.59073
1.597444
1.559723
1.556485
1.560743
1.553479
1.557267
1.562699
1.551125
1.554158
1.558867
1.565571
1.549285
1.551763
1.555595
1.561292
1.569403
1.54784
1.549897
1.553104
1.5578
1.564592
1.574306
1.546675
1.548425
1.551162
1.555158
1.560806
1.568828
1.579352
1.545723
1.547234
1.549625
1.553093
1.55795
1.564655
1.573186
1.584533
1.544934
1.546257
1.548376
1.551453
1.555715
1.561516
1.568596
1.577652
1.589802
1.544278
1.545453
1.547354
1.550121
1.553936
1.559061
1.565155
1.572615
1.582185
1.59505
1.543746
1.544799
1.546526
1.54904
1.552498
1.557108
1.562466
1.568848
1.576669
1.586699
1.600085
1.543345
1.544297
1.545877
1.548183
1.551345
1.555537
1.560331
1.565909
1.572551
1.580683
1.591062
1.603374
1.54308
1.543947
1.545402
1.54753
1.550442
1.554283
1.558619
1.563582
1.569356
1.576219
1.584595
1.594101
1.604988
1.542906
1.5437
1.545047
1.547022
1.549722
1.55327
1.557231
1.561707
1.566833
1.572791
1.579862
1.587492
1.59607
1.60549
1.542767
1.543498
1.544752
1.546596
1.549116
1.552418
1.556074
1.560162
1.564785
1.57008
1.576234
1.58265
1.589541
1.597209
1.605279
1.542625
1.543302
1.544477
1.546208
1.548575
1.551671
1.555075
1.55885
1.563076
1.56786
1.573343
1.578911
1.58469
1.590861
1.597659
1.542458
1.54309
1.544195
1.545831
1.548068
1.550991
1.554185
1.557703
1.561611
1.565993
1.570959
1.575909
1.580908
1.586063
1.591531
1.559564
1.556469
1.560525
1.553525
1.55723
1.562461
1.551164
1.554175
1.558837
1.565408
1.549304
1.551779
1.555606
1.561294
1.569339
1.547844
1.549902
1.553112
1.557813
1.56461
1.574292
1.546675
1.548425
1.551164
1.555163
1.560815
1.568842
1.579351
1.545723
1.547234
1.549625
1.553093
1.55795
1.564655
1.573186
1.584533
1.544935
1.546258
1.548376
1.551451
1.555711
1.561511
1.568589
1.577647
1.589834
1.544276
1.545449
1.547349
1.550114
1.553928
1.559052
1.565149
1.572616
1.582213
1.59521
1.543723
1.544775
1.546501
1.549016
1.552475
1.55709
1.562459
1.56886
1.576719
1.586841
1.600547
1.543274
1.544226
1.545807
1.548118
1.551288
1.555494
1.56031
1.565922
1.572619
1.580849
1.591435
1.604343
1.542941
1.543808
1.545267
1.547403
1.550331
1.554196
1.558565
1.563573
1.569412
1.576377
1.584923
1.594745
1.606468
1.542732
1.543527
1.544879
1.546864
1.549581
1.553156
1.55715
1.56167
1.566852
1.572891
1.580082
1.587891
1.59679
1.606993
1.542604
1.543337
1.544595
1.546448
1.548982
1.552307
1.555989
1.560109
1.564774
1.570124
1.576353
1.582869
1.589907
1.597831
1.60649
1.542505
1.543183
1.54436
1.546098
1.548474
1.551586
1.555007
1.558802
1.563053
1.56787
1.573395
1.579015
1.584861
1.591131
1.598098
1.542396
1.543028
1.544134
1.545773
1.548014
1.550944
1.554146
1.557673
1.561592
1.565987
1.570971
1.57594
1.580963
1.586151
1.591666
1.542261
1.54285
1.543896
1.545449
1.547574
1.55035
1.553368
1.556671
1.560317
1.564375
1.568932
1.573405
1.577833
1.582269
1.586805
1.559458
1.55647
1.560347
1.553596
1.557201
1.562194
1.551248
1.554213
1.558775
1.565091
1.549356
1.551815
1.555614
1.561239
1.569093
1.547865
1.54992
1.553126
1.557819
1.564593
1.574158
1.546678
1.54843
1.55117
1.55517
1.560825
1.568849
1.579298
1.545721
1.547234
1.549625
1.553096
1.557955
1.564663
1.573195
1.584515
1.544935
1.546258
1.548376
1.551451
1.555711
1.561511
1.568589
1.577647
1.589834
1.544278
1.54545
1.547349
1.550113
1.553925
1.559047
1.565142
1.57261
1.582212
1.595258
1.543721
1.544772
1.546496
1.549009
1.552467
1.55708
1.562449
1.568854
1.576724
1.58688
1.600741
1.543252
1.544202
1.545783
1.548092
1.551263
1.555471
1.560294
1.565917
1.572637
1.580911
1.591601
1.604855
1.542871
1.543738
1.545197
1.547337
1.55027
1.554146
1.55853
1.563562
1.569438
1.576464
1.585117
1.595154
1.607498
1.542595
1.54339
1.544745
1.546737
1.549466
1.55306
1.557081
1.561635
1.566867
1.572976
1.580277
1.588256
1.597476
1.608528
1.542433
1.543166
1.544429
1.546291
1.548839
1.552186
1.555897
1.560052
1.564762
1.570173
1.576488
1.583123
1.590337
1.598581
1.60802
1.542345
1.543023
1.544205
1.54595
1.54834
1.55147
1.554914
1.558737
1.563023
1.567884
1.573467
1.579159
1.585102
1.591515
1.598732
1.542278
1.54291
1.544019
1.545663
1.547913
1.550857
1.554074
1.557619
1.561559
1.565981
1.570999
1.576008
1.58108
1.586333
1.591942
1.542199
1.542789
1.543836
1.545391
1.547521
1.550303
1.553328
1.556639
1.560295
1.564364
1.568935
1.573424
1.57787
1.582329
1.586895
1.542089
1.542642
1.543634
1.545113
1.547138
1.549783
1.552643
1.555759
1.559177
1.562956
1.567169
1.571251
1.575223
1.579112
1.582961
1.559415
1.556478
1.560228
1.553673
1.557189
1.561976
1.551364
1.554274
1.558718
1.564748
1.549465
1.551893
1.555635
1.561137
1.568667
1.547926
1.549971
1.553155
1.557812
1.564503
1.573805
1.546701
1.548451
1.551188
1.555181
1.560822
1.568807
1.579098
1.545725
1.547238
1.549631
1.553103
1.557963
1.564669
1.57319
1.584426
1.544934
1.546257
1.548376
1.551453
1.555715
1.561516
1.568596
1.577652
1.589802
1.544278
1.54545
1.547349
1.550113
1.553925
1.559047
1.565142
1.57261
1.582212
1.595258
1.543723
1.544773
1.546497
1.549008
1.552464
1.557075
1.562442
1.568847
1.576718
1.586884
1.600803
1.54325
1.5442
1.545778
1.548086
1.551254
1.555461
1.560282
1.565906
1.572632
1.58092
1.591652
1.605075
1.54285
1.543716
1.545173
1.547312
1.550244
1.554121
1.558509
1.563548
1.569437
1.576489
1.585192
1.59534
1.608045
1.542526
1.543321
1.544676
1.54667
1.549403
1.553006
1.557038
1.56161
1.566867
1.573017
1.580383
1.588473
1.597912
1.609598
1.542297
1.54303
1.544295
1.546163
1.548722
1.552086
1.555818
1.560001
1.564749
1.570212
1.576602
1.583345
1.59073
1.599294
1.609582
1.542175
1.542854
1.544039
1.545793
1.548195
1.551346
1.554814
1.558667
1.56299
1.567899
1.573546
1.579322
1.58538
1.591966
1.599496
1.54212
1.542752
1.543865
1.545516
1.547778
1.550739
1.553976
1.557545
1.561515
1.565973
1.571038
1.576102
1.581243
1.586589
1.592335
1.542082
1.542672
1.543722
1.545282
1.54742
1.550214
1.553253
1.55658
1.560255
1.564347
1.568946
1.573467
1.57795
1.582455
1.587082
1.542029
1.542582
1.543575
1.545057
1.547085
1.549736
1.552602
1.555725
1.559152
1.562941
1.567166
1.571261
1.575247
1.579154
1.583023
1.54194
1.542461
1.543405
1.544817
1.546753
1.549278
1.551999
1.554946
1.558164
1.561702
1.56562
1.569375
1.572975
1.576432
1.579762
1.556492
1.560179
1.553735
1.557189
1.561831
1.55148
1.554342
1.558683
1.564471
1.549608
1.552001
1.555676
1.561039
1.56822
1.54805
1.550075
1.553221
1.557807
1.564347
1.573237
1.546768
1.54851
1.551233
1.555201
1.560794
1.56867
1.578637
1.545749
1.547261
1.549652
1.553119
1.557969
1.564655
1.573122
1.584159
1.544937
1.546261
1.548381
1.551459
1.555723
1.561523
1.568599
1.577635
1.589677
1.544276
1.545449
1.547349
1.550114
1.553928
1.559052
1.565149
1.572616
1.582213
1.59521
1.543723
1.544773
1.546497
1.549008
1.552464
1.557075
1.562442
1.568847
1.576718
1.586884
1.600803
1.543253
1.544202
1.54578
1.548086
1.551252
1.555456
1.560276
1.565899
1.572624
1.580915
1.59166
1.605148
1.542849
1.543714
1.54517
1.547306
1.550236
1.55411
1.558496
1.563535
1.569426
1.576485
1.585205
1.595399
1.608285
1.542506
1.543299
1.544653
1.546646
1.549378
1.55298
1.557013
1.561589
1.566854
1.573019
1.580415
1.588557
1.598112
1.610169
1.54223
1.542963
1.544228
1.546097
1.548659
1.552029
1.555769
1.559965
1.564731
1.570222
1.576657
1.583467
1.590963
1.599748
1.610671
1.542042
1.54272
1.543907
1.545666
1.548077
1.551243
1.554729
1.558604
1.562956
1.567905
1.573609
1.579458
1.585624
1.592377
1.600223
1.541953
1.542585
1.543701
1.54536
1.547633
1.550612
1.553871
1.557465
1.561465
1.565963
1.571078
1.576205
1.581426
1.586883
1.592796
1.541926
1.542516
1.543569
1.545136
1.547285
1.550095
1.553152
1.5565
1.5602
1.564322
1.56896
1.573524
1.578059
1.582629
1.587345
1.541913
1.542467
1.543462
1.544948
1.546984
1.549646
1.552525
1.555663
1.559106
1.562915
1.567164
1.571285
1.5753
1.579241
1.583153
1.541881
1.542402
1.543347
1.54476
1.5467
1.549231
1.551957
1.554911
1.558137
1.561683
1.565612
1.569378
1.57299
1.57646
1.579805
1.541812
1.542304
1.543205
1.544556
1.546409
1.548828
1.551421
1.55422
1.55726
1.560584
1.564246
1.567723
1.571015
1.574121
1.577044
1.553775
1.557199
1.561769
1.551569
1.554398
1.558666
1.564286
1.549747
1.55211
1.555727
1.560968
1.567862
1.548209
1.550212
1.553314
1.557818
1.56419
1.572656
1.546901
1.54863
1.551328
1.555248
1.560754
1.568443
1.577927
1.545819
1.547326
1.549707
1.553158
1.557976
1.5646
1.572939
1.583592
1.544961
1.546286
1.548405
1.55148
1.555737
1.561524
1.568572
1.577543
1.589344
1.544278
1.545453
1.547354
1.550121
1.553936
1.559061
1.565155
1.572615
1.582185
1.59505
1.543721
1.544772
1.546496
1.549009
1.552467
1.55708
1.562449
1.568854
1.576724
1.58688
1.600741
1.543253
1.544202
1.54578
1.548086
1.551252
1.555456
1.560276
1.565899
1.572624
1.580915
1.59166
1.605148
1.542853
1.543716
1.545171
1.547306
1.550234
1.554106
1.55849
1.563527
1.569417
1.576476
1.5852
1.59541
1.608366
1.542507
1.543298
1.54465
1.546641
1.54937
1.552969
1.557
1.561574
1.566839
1.573007
1.580411
1.588573
1.598178
1.610421
1.542211
1.542942
1.544206
1.546073
1.548634
1.552003
1.555743
1.55994
1.564712
1.570212
1.576663
1.583504
1.591054
1.599957
1.611254
1.541976
1.542654
1.543841
1.5456
1.548014
1.551184
1.554677
1.558561
1.562927
1.567897
1.57363
1.579524
1.585757
1.59262
1.600687
1.541821
1.542453
1.543571
1.545234
1.547515
1.550507
1.553781
1.557394
1.561418
1.565947
1.571105
1.576286
1.581579
1.58714
1.593217
1.541761
1.542352
1.543408
1.544981
1.54714
1.549967
1.553042
1.556413
1.560139
1.564294
1.568973
1.573586
1.578179
1.582826
1.587648
1.541759
1.542313
1.543311
1.544803
1.546849
1.549526
1.552422
1.555578
1.559043
1.562879
1.56716
1.571316
1.575372
1.579361
1.583334
1.541766
1.542288
1.543235
1.544653
1.5466
1.549141
1.551879
1.554846
1.558087
1.56165
1.5656
1.569388
1.573023
1.57652
1.579897
1.541753
1.542245
1.543147
1.5445
1.546357
1.548781
1.551379
1.554184
1.557231
1.560564
1.564235
1.567721
1.571022
1.574139
1.577074
1.541701
1.542167
1.543029
1.544325
1.546104
1.548424
1.550904
1.553567
1.556448
1.559583
1.56302
1.566256
1.569286
1.572104
1.5747
1.551623
1.554435
1.558668
1.564204
1.549853
1.552194
1.55577
1.560925
1.567622
1.548362
1.550345
1.553408
1.557842
1.56407
1.572192
1.547071
1.548784
1.551451
1.555317
1.560724
1.568211
1.577211
1.545958
1.547456
1.549819
1.553236
1.557995
1.564512
1.572642
1.582739
1.545033
1.546354
1.548467
1.55153
1.555765
1.561512
1.56849
1.577312
1.58867
1.544302
1.545477
1.547379
1.550144
1.553956
1.559072
1.56515
1.572577
1.582068
1.594653
1.543723
1.544775
1.546501
1.549016
1.552475
1.55709
1.562459
1.56886
1.576719
1.586841
1.600547
1.54325
1.5442
1.545778
1.548086
1.551254
1.555461
1.560282
1.565906
1.572632
1.58092
1.591652
1.605075
1.542853
1.543716
1.545171
1.547306
1.550234
1.554106
1.55849
1.563527
1.569417
1.576476
1.5852
1.59541
1.608366
1.54251
1.543301
1.544652
1.546641
1.549369
1.552965
1.556994
1.561566
1.566829
1.572997
1.580402
1.588569
1.59819
1.610507
1.542212
1.542942
1.544204
1.546069
1.548627
1.551993
1.55573
1.559925
1.564695
1.570195
1.57665
1.583501
1.591072
1.600027
1.611512
1.541958
1.542635
1.54382
1.545578
1.54799
1.551159
1.55465
1.558535
1.562903
1.567878
1.573622
1.579533
1.585797
1.592716
1.6009
1.541758
1.542389
1.543506
1.545169
1.547452
1.550448
1.553727
1.557347
1.561382
1.565926
1.571105
1.576316
1.581652
1.58728
1.593466
1.541632
1.542222
1.543279
1.544856
1.547022
1.549861
1.552949
1.556336
1.560082
1.564263
1.568975
1.573628
1.578274
1.58299
1.587912
1.541596
1.542151
1.543151
1.544649
1.546705
1.549397
1.55231
1.555485
1.558973
1.562837
1.567152
1.571347
1.575448
1.579493
1.583537
1.541614
1.542136
1.543086
1.54451
1.546465
1.54902
1.551773
1.554758
1.558018
1.561605
1.565582
1.569399
1.573067
1.576601
1.580022
1.54164
1.542133
1.543037
1.544394
1.546257
1.548691
1.5513
1.554117
1.557177
1.560525
1.564214
1.567719
1.57104
1.574178
1.577137
1.541644
1.54211
1.542972
1.54427
1.546052
1.548378
1.550862
1.553531
1.556418
1.559561
1.563005
1.566249
1.569288
1.572115
1.57472
1.541606
1.542049
1.542875
1.54412
1.545832
1.548063
1.550437
1.552979
1.555716
1.558683
1.561918
1.564944
1.56775
1.570325
1.572654
1.549914
1.552245
1.555801
1.560914
1.567513
1.548477
1.550446
1.553482
1.557865
1.563992
1.571881
1.547231
1.548931
1.551572
1.555389
1.560711
1.568027
1.576641
1.546133
1.54762
1.549962
1.55334
1.558032
1.564429
1.572334
1.581887
1.545175
1.54649
1.54859
1.551629
1.555823
1.561496
1.568356
1.576944
1.587674
1.544374
1.545548
1.547445
1.550202
1.553998
1.559087
1.565119
1.572467
1.58179
1.593872
1.543746
1.544799
1.546526
1.54904
1.552498
1.557108
1.562466
1.568848
1.576669
1.586699
1.600085
1.543252
1.544202
1.545783
1.548092
1.551263
1.555471
1.560294
1.565917
1.572637
1.580911
1.591601
1.604855
1.542849
1.543714
1.54517
1.547306
1.550236
1.55411
1.558496
1.563535
1.569426
1.576485
1.585205
1.595399
1.608285
1.54251
1.543301
1.544652
1.546641
1.549369
1.552965
1.556994
1.561566
1.566829
1.572997
1.580402
1.588569
1.59819
1.610507
1.542217
1.542946
1.544206
1.54607
1.548626
1.55199
1.555725
1.559917
1.564685
1.570184
1.576639
1.583492
1.591069
1.600041
1.611602
1.54196
1.542636
1.543819
1.545574
1.547984
1.551149
1.554638
1.558519
1.562886
1.567859
1.573604
1.57952
1.585795
1.592736
1.600972
1.541741
1.54237
1.543486
1.545148
1.547429
1.550423
1.553701
1.55732
1.561355
1.565902
1.571087
1.576308
1.581664
1.587323
1.593564
1.54157
1.542159
1.543215
1.544793
1.546961
1.549802
1.552895
1.556287
1.560041
1.564232
1.56896
1.573635
1.57831
1.583068
1.588056
1.541469
1.542023
1.543025
1.544526
1.546589
1.549291
1.552215
1.555405
1.55891
1.562794
1.567136
1.571363
1.575502
1.579596
1.583706
1.541454
1.541976
1.542928
1.544357
1.546322
1.548891
1.551659
1.554661
1.557942
1.561553
1.565559
1.569408
1.573111
1.576687
1.580159
1.54149
1.541983
1.542889
1.544252
1.546124
1.54857
1.551193
1.554026
1.557104
1.560473
1.564186
1.567715
1.571063
1.57423
1.577223
1.541533
1.541999
1.542863
1.544165
1.545953
1.548288
1.550782
1.553462
1.556362
1.559518
1.562979
1.566239
1.569294
1.572138
1.574762
1.541549
1.541993
1.542819
1.544066
1.54578
1.548017
1.550395
1.552942
1.555685
1.558658
1.561901
1.564934
1.567747
1.570329
1.572666
1.541524
1.541947
1.54274
1.543939
1.545588
1.547738
1.550016
1.552446
1.555054
1.557867
1.560924
1.563763
1.566374
1.568741
1.570848
1.548542
1.550504
1.553527
1.557886
1.563963
1.571737
1.547352
1.549043
1.551665
1.555447
1.560708
1.567904
1.576259
1.546298
1.547776
1.550098
1.553443
1.558074
1.564368
1.572085
1.58121
1.545353
1.546661
1.548744
1.551754
1.555899
1.56149
1.568218
1.57656
1.586685
1.544517
1.545687
1.547575
1.550313
1.554079
1.559116
1.565068
1.572285
1.58135
1.592731
1.543818
1.54487
1.546594
1.549103
1.55255
1.55714
1.562468
1.568799
1.576531
1.586374
1.599198
1.543274
1.544226
1.545807
1.548118
1.551288
1.555494
1.56031
1.565922
1.572619
1.580849
1.591435
1.604343
1.54285
1.543716
1.545173
1.547312
1.550244
1.554121
1.558509
1.563548
1.569437
1.576489
1.585192
1.59534
1.608045
1.542507
1.543298
1.54465
1.546641
1.54937
1.552969
1.557
1.561574
1.566839
1.573007
1.580411
1.588573
1.598178
1.610421
1.542217
1.542946
1.544206
1.54607
1.548626
1.55199
1.555725
1.559917
1.564685
1.570184
1.576639
1.583492
1.591069
1.600041
1.611602
1.541965
1.542639
1.543822
1.545576
1.547983
1.551147
1.554633
1.558512
1.562876
1.567848
1.573591
1.579507
1.585785
1.592733
1.600987
1.541743
1.542372
1.543486
1.545145
1.547424
1.550415
1.553689
1.557305
1.561338
1.565882
1.571067
1.576289
1.58165
1.587321
1.593584
1.541554
1.542142
1.543197
1.544773
1.546938
1.549778
1.552869
1.55626
1.560013
1.564205
1.568936
1.573618
1.578304
1.583081
1.5881
1.541408
1.541961
1.542963
1.544464
1.546528
1.549233
1.55216
1.555354
1.558866
1.562758
1.567112
1.571354
1.575514
1.579636
1.583788
1.541328
1.54185
1.542804
1.544236
1.546206
1.548785
1.551564
1.554578
1.557873
1.561502
1.56553
1.569404
1.573137
1.576748
1.580267
1.541332
1.541824
1.542733
1.544101
1.545981
1.548441
1.551078
1.553927
1.557023
1.560413
1.564151
1.567707
1.571084
1.574283
1.577314
1.541384
1.54185
1.542717
1.544024
1.545821
1.548167
1.550675
1.553369
1.556285
1.55946
1.562942
1.566223
1.569301
1.572169
1.574818
1.541439
1.541883
1.542711
1.543962
1.545682
1.547927
1.550315
1.552872
1.555626
1.558612
1.56187
1.564917
1.567744
1.570341
1.572693
1.541468
1.541891
1.542685
1.543886
1.545537
1.547691
1.549974
1.552409
1.555022
1.557842
1.560906
1.563751
1.566367
1.568741
1.570854
1.541455
1.541857
1.542622
1.543779
1.54537
1.547444
1.549635
1.551963
1.554451
1.557128
1.560023
1.562696
1.565134
1.567323
1.56924
1.547419
1.549105
1.551718
1.555484
1.560715
1.567852
1.576079
1.546423
1.547894
1.550202
1.553521
1.55811
1.56433
1.571918
1.580756
1.54552
1.546822
1.54889
1.551874
1.555976
1.561494
1.568109
1.576247
1.5859
1.544696
1.54586
1.547736
1.550452
1.554181
1.559157
1.56502
1.572093
1.580889
1.591605
1.54396
1.54501
1.546727
1.549222
1.552645
1.557197
1.562468
1.568712
1.576301
1.585861
1.597912
1.543345
1.544297
1.545877
1.548183
1.551345
1.555537
1.560331
1.565909
1.572551
1.580683
1.591062
1.603374
1.542871
1.543738
1.545197
1.547337
1.55027
1.554146
1.55853
1.563562
1.569438
1.576464
1.585117
1.595154
1.607498
1.542506
1.543299
1.544653
1.546646
1.549378
1.55298
1.557013
1.561589
1.566854
1.573019
1.580415
1.588557
1.598112
1.610169
1.542212
1.542942
1.544204
1.546069
1.548627
1.551993
1.55573
1.559925
1.564695
1.570195
1.57665
1.583501
1.591072
1.600027
1.611512
1.541965
1.542639
1.543822
1.545576
1.547983
1.551147
1.554633
1.558512
1.562876
1.567848
1.573591
1.579507
1.585785
1.592733
1.600987
1.541748
1.542376
1.543489
1.545147
1.547424
1.550413
1.553685
1.557299
1.561329
1.565871
1.571054
1.576276
1.581637
1.587311
1.593582
1.541557
1.542144
1.543197
1.544771
1.546934
1.54977
1.552858
1.556246
1.559996
1.564186
1.568915
1.573596
1.578284
1.583067
1.588098
1.541393
1.541945
1.542945
1.544445
1.546507
1.549209
1.552135
1.555328
1.558838
1.56273
1.567085
1.57133
1.575497
1.579631
1.583802
1.541269
1.54179
1.542743
1.544175
1.546147
1.548727
1.551509
1.554527
1.557827
1.561462
1.565499
1.569384
1.573132
1.576763
1.580309
1.541208
1.541701
1.542611
1.543981
1.545867
1.548335
1.550982
1.553842
1.556951
1.560356
1.564113
1.567689
1.571089
1.574315
1.577379
1.541228
1.541694
1.542563
1.543875
1.54568
1.548038
1.550559
1.553267
1.5562
1.559394
1.562898
1.566202
1.569304
1.572197
1.574876
1.541293
1.541736
1.542567
1.543822
1.545551
1.547807
1.550207
1.552778
1.555546
1.558549
1.561826
1.564892
1.567738
1.570354
1.572727
1.541359
1.541782
1.542578
1.543783
1.54544
1.547602
1.549894
1.552338
1.554962
1.557793
1.56087
1.563728
1.566357
1.568743
1.570868
1.5414
1.541802
1.542567
1.543726
1.54532
1.547398
1.549593
1.551926
1.554419
1.557102
1.560002
1.562681
1.565125
1.567319
1.569241
1.541396
1.541782
1.542518
1.543637
1.545175
1.547178
1.549289
1.551523
1.553904
1.556453
1.559203
1.561726
1.564013
1.566044
1.567799
1.546491
1.547959
1.55026
1.553568
1.558136
1.564319
1.571842
1.58054
1.545646
1.546943
1.549
1.551966
1.556036
1.561502
1.568037
1.576033
1.585374
1.544864
1.546024
1.547889
1.550584
1.554279
1.559201
1.564985
1.571937
1.580511
1.590712
1.544138
1.545185
1.546893
1.54937
1.552764
1.557268
1.562474
1.568621
1.576055
1.585323
1.596646
1.543486
1.544437
1.546011
1.548307
1.55145
1.555612
1.560364
1.565881
1.572429
1.580405
1.590475
1.601976
1.542941
1.543808
1.545267
1.547403
1.550331
1.554196
1.558565
1.563573
1.569412
1.576377
1.584923
1.594745
1.606468
1.542526
1.543321
1.544676
1.54667
1.549403
1.553006
1.557038
1.56161
1.566867
1.573017
1.580383
1.588473
1.597912
1.609598
1.542211
1.542942
1.544206
1.546073
1.548634
1.552003
1.555743
1.55994
1.564712
1.570212
1.576663
1.583504
1.591054
1.599957
1.611254
1.54196
1.542636
1.543819
1.545574
1.547984
1.551149
1.554638
1.558519
1.562886
1.567859
1.573604
1.57952
1.585795
1.592736
1.600972
1.541748
1.542376
1.543489
1.545147
1.547424
1.550413
1.553685
1.557299
1.561329
1.565871
1.571054
1.576276
1.581637
1.587311
1.593582
1.541562
1.542148
1.543201
1.544773
1.546935
1.549769
1.552855
1.55624
1.559988
1.564175
1.568902
1.573581
1.57827
1.583054
1.588088
1.541396
1.541947
1.542946
1.544444
1.546503
1.549203
1.552126
1.555315
1.558822
1.562711
1.567063
1.571306
1.575474
1.579611
1.583788
1.541254
1.541774
1.542726
1.544157
1.546126
1.548705
1.551485
1.554501
1.5578
1.561434
1.56547
1.569357
1.573108
1.576747
1.580304
1.54115
1.541641
1.542551
1.543922
1.545809
1.548279
1.550928
1.553791
1.556904
1.560314
1.564077
1.567662
1.571073
1.574313
1.577396
1.541107
1.541572
1.542442
1.543757
1.545567
1.547933
1.550463
1.553182
1.556125
1.559333
1.562853
1.566174
1.569294
1.572208
1.574911
1.541139
1.541582
1.542415
1.543675
1.545411
1.547678
1.550091
1.552675
1.555459
1.558479
1.561775
1.56486
1.567727
1.570364
1.572759
1.541215
1.541638
1.542436
1.543645
1.545309
1.547482
1.549786
1.552242
1.55488
1.557726
1.56082
1.563695
1.566341
1.568743
1.570885
1.541292
1.541695
1.542462
1.543624
1.545223
1.547309
1.549513
1.551855
1.554358
1.557051
1.559963
1.562654
1.565109
1.567313
1.569246
1.541342
1.541728
1.542464
1.543585
1.545125
1.547133
1.549247
1.551486
1.553871
1.556426
1.559181
1.56171
1.564001
1.566037
1.567797
1.541346
1.541717
1.542428
1.54351
1.544999
1.546939
1.548974
1.551122
1.553403
1.555838
1.558453
1.560843
1.562992
1.564886
1.5665
1.545714
1.547009
1.549062
1.552018
1.556073
1.561512
1.568009
1.575935
1.585122
1.54499
1.546147
1.548003
1.550684
1.554353
1.559236
1.564964
1.57183
1.580252
1.590112
1.544307
1.54535
1.547049
1.54951
1.552876
1.557337
1.562486
1.568548
1.575851
1.584879
1.595643
1.543663
1.544612
1.546179
1.54846
1.55158
1.555703
1.560405
1.565852
1.572295
1.580104
1.58986
1.600603
1.54308
1.543947
1.545402
1.54753
1.550442
1.554283
1.558619
1.563582
1.569356
1.576219
1.584595
1.594101
1.604988
1.542595
1.54339
1.544745
1.546737
1.549466
1.55306
1.557081
1.561635
1.566867
1.572976
1.580277
1.588256
1.597476
1.608528
1.54223
1.542963
1.544228