/*--------------------------------*- C++ -*----------------------------------*\
| =========                 |                                                 |
| \\      /  F ield         | OpenFOAM: The Open Source CFD Toolbox           |
|  \\    /   O peration     | Version:  2306                                  |
|   \\  /    A nd           | Website:  www.openfoam.com                      |
|    \\/     M anipulation  |                                                 |
\*---------------------------------------------------------------------------*/
FoamFile
{
    version     2.0;
    format      ascii;
    arch        "LSB;label=32;scalar=64";
    class       volScalarField;
    location    "0.3/phiI";
    object      T;
}
// * * * * * * * * * * * * * * * * * * * * * * * * * * * * * * * * * * * * * //

dimensions      [0 0 0 1 0 0 0];

internalField   nonuniform List<scalar> 
12000
(
1049.493
1049.396
1050.667
1049.536
1049.169
1050.66
1049.439
1051.768
1050.705
1049.569
1048.74
1050.642
1049.213
1051.786
1050.698
1049.472
1052.812
1051.8
1050.732
1049.59
1048.002
1050.606
1048.786
1051.827
1050.68
1049.246
1052.838
1051.819
1050.725
1049.493
1053.823
1052.84
1051.823
1050.749
1049.599
1046.887
1050.539
1048.054
1051.899
1050.643
1048.82
1052.898
1051.859
1050.707
1049.267
1053.852
1052.866
1051.841
1050.742
1049.502
1054.808
1053.847
1052.858
1051.836
1050.755
1049.597
1045.606
1050.418
1046.953
1052.012
1050.574
1048.094
1053.003
1051.93
1050.67
1048.844
1053.917
1052.925
1051.882
1050.724
1049.277
1054.837
1053.876
1052.885
1051.854
1050.748
1049.5
1055.768
1054.829
1053.863
1052.868
1051.839
1050.751
1049.594
1044.434
1050.204
1045.69
1052.16
1050.45
1047.007
1053.175
1052.04
1050.598
1048.122
1054.032
1053.03
1051.951
1050.685
1048.854
1054.903
1053.94
1052.944
1051.894
1050.729
1049.274
1055.797
1054.858
1053.891
1052.894
1051.857
1050.743
1049.497
1056.702
1055.787
1054.842
1053.869
1052.868
1051.832
1050.747
1049.592
1043.566
1049.948
1044.535
1052.258
1050.237
1045.761
1053.409
1052.182
1050.471
1047.048
1054.221
1053.198
1052.059
1050.612
1048.138
1055.019
1054.055
1053.047
1051.962
1050.689
1048.853
1055.861
1054.923
1053.955
1052.953
1051.896
1050.723
1049.272
1056.73
1055.815
1054.871
1053.898
1052.894
1051.85
1050.739
1049.495
1057.608
1056.718
1055.797
1054.846
1053.867
1052.859
1051.826
1050.742
1049.589
1043.109
1049.725
1043.679
1052.295
1049.984
1044.622
1053.614
1052.277
1050.259
1045.819
1054.482
1053.427
1052.195
1050.482
1047.075
1055.21
1054.241
1053.213
1052.067
1050.614
1048.14
1055.975
1055.039
1054.069
1053.055
1051.963
1050.683
1048.851
1056.792
1055.879
1054.936
1053.962
1052.952
1051.888
1050.718
1049.27
1057.635
1056.746
1055.825
1054.875
1053.895
1052.885
1051.843
1050.734
1049.492
1058.487
1057.623
1056.727
1055.799
1054.842
1053.856
1052.851
1051.82
1050.737
1049.587
1043.109
1049.598
1043.227
1052.295
1049.765
1043.777
1053.756
1052.313
1050.009
1044.696
1054.722
1053.627
1052.286
1050.27
1045.863
1055.474
1054.496
1053.435
1052.197
1050.481
1047.087
1056.161
1055.227
1054.252
1053.217
1052.064
1050.605
1048.142
1056.903
1055.993
1055.051
1054.074
1053.053
1051.954
1050.677
1048.85
1057.695
1056.808
1055.889
1054.939
1053.958
1052.942
1051.881
1050.713
1049.267
1058.513
1057.65
1056.754
1055.828
1054.87
1053.884
1052.877
1051.837
1050.729
1049.49
1059.336
1058.5
1057.63
1056.728
1055.793
1054.83
1053.847
1052.843
1051.813
1050.733
1049.584
1043.566
1049.598
1043.227
1052.288
1049.639
1043.332
1053.839
1052.314
1049.793
1043.862
1054.901
1053.767
1052.322
1050.022
1044.755
1055.722
1054.732
1053.631
1052.285
1050.268
1045.889
1056.42
1055.486
1054.502
1053.434
1052.189
1050.468
1047.097
1057.083
1056.177
1055.236
1054.254
1053.212
1052.052
1050.597
1048.144
1057.803
1056.918
1056.002
1055.054
1054.07
1053.042
1051.945
1050.67
1048.849
1058.571
1057.71
1056.816
1055.891
1054.934
1053.947
1052.933
1051.874
1050.708
1049.265
1059.361
1058.526
1057.657
1056.755
1055.821
1054.858
1053.875
1052.868
1051.83
1050.724
1049.487
1060.156
1059.348
1058.505
1057.629
1056.72
1055.78
1054.819
1053.837
1052.835
1051.806
1050.727
1049.586
1044.434
1049.725
1043.679
1052.288
1049.639
1043.332
1053.877
1052.307
1049.669
1043.423
1055.015
1053.85
1052.323
1049.809
1043.932
1055.913
1054.909
1053.769
1052.319
1050.023
1044.793
1056.666
1055.73
1054.733
1053.626
1052.273
1050.256
1045.91
1057.334
1056.431
1055.49
1054.498
1053.422
1052.172
1050.458
1047.107
1057.978
1057.097
1056.184
1055.236
1054.247
1053.198
1052.041
1050.589
1048.146
1058.676
1057.817
1056.926
1056.003
1055.047
1054.057
1053.032
1051.937
1050.664
1048.848
1059.418
1058.584
1057.717
1056.816
1055.884
1054.921
1053.937
1052.924
1051.867
1050.702
1049.263
1060.18
1059.373
1058.531
1057.656
1056.747
1055.808
1054.847
1053.865
1052.86
1051.823
1050.719
1049.489
1060.946
1060.166
1059.352
1058.504
1057.621
1056.706
1055.769
1054.808
1053.827
1052.826
1051.799
1050.727
1049.593
1045.606
1049.948
1044.535
1052.295
1049.765
1043.777
1053.877
1052.307
1049.669
1043.423
1055.07
1053.887
1052.316
1049.687
1043.498
1056.037
1055.022
1053.851
1052.321
1049.813
1043.98
1056.857
1055.918
1054.908
1053.761
1052.307
1050.013
1044.825
1057.573
1056.673
1055.73
1054.725
1053.61
1052.253
1050.245
1045.931
1058.22
1057.343
1056.433
1055.485
1054.485
1053.403
1052.156
1050.447
1047.117
1058.845
1057.99
1057.103
1056.183
1055.227
1054.231
1053.185
1052.03
1050.581
1048.149
1059.52
1058.688
1057.823
1056.926
1055.995
1055.034
1054.046
1053.022
1051.928
1050.658
1048.848
1060.236
1059.43
1058.59
1057.716
1056.809
1055.87
1054.91
1053.926
1052.915
1051.859
1050.697
1049.266
1060.97
1060.191
1059.378
1058.53
1057.648
1056.733
1055.796
1054.836
1053.855
1052.851
1051.815
1050.718
1049.496
1061.706
1060.956
1060.17
1059.35
1058.495
1057.607
1056.694
1055.757
1054.797
1053.818
1052.817
1051.796
1050.73
1049.605
1046.887
1050.204
1045.69
1052.295
1049.984
1044.622
1053.839
1052.314
1049.793
1043.862
1055.07
1053.887
1052.316
1049.687
1043.498
1056.098
1055.076
1053.888
1052.314
1049.693
1043.551
1056.983
1056.042
1055.019
1053.842
1052.308
1049.805
1044.02
1057.761
1056.861
1055.916
1054.897
1053.743
1052.285
1050.004
1044.856
1058.452
1057.579
1056.671
1055.721
1054.708
1053.586
1052.235
1050.234
1045.951
1059.079
1058.228
1057.345
1056.427
1055.471
1054.465
1053.386
1052.141
1050.436
1047.127
1059.684
1058.856
1057.994
1057.1
1056.172
1055.211
1054.218
1053.172
1052.019
1050.573
1048.152
1060.335
1059.531
1058.693
1057.822
1056.917
1055.981
1055.021
1054.035
1053.011
1051.919
1050.651
1048.852
1061.024
1060.247
1059.434
1058.588
1057.707
1056.794
1055.858
1054.899
1053.916
1052.906
1051.851
1050.695
1049.274
1061.73
1060.98
1060.195
1059.375
1058.521
1057.633
1056.721
1055.785
1054.825
1053.845
1052.842
1051.812
1050.721
1049.509
1062.437
1061.715
1060.959
1060.168
1059.341
1058.48
1057.594
1056.682
1055.745
1054.787
1053.807
1052.812
1051.797
1050.739
1049.621
1048.002
1050.418
1046.953
1052.258
1050.237
1045.761
1053.756
1052.313
1050.009
1044.696
1055.015
1053.85
1052.323
1049.809
1043.932
1056.098
1055.076
1053.888
1052.314
1049.693
1043.551
1057.045
1056.102
1055.073
1053.879
1052.302
1049.687
1043.595
1057.885
1056.986
1056.038
1055.008
1053.823
1052.286
1049.798
1044.059
1058.635
1057.765
1056.858
1055.905
1054.877
1053.718
1052.266
1049.995
1044.887
1059.305
1058.458
1057.578
1056.662
1055.703
1054.684
1053.566
1052.217
1050.223
1045.971
1059.912
1059.087
1058.229
1057.338
1056.413
1055.45
1054.447
1053.369
1052.126
1050.426
1047.136
1060.496
1059.694
1058.859
1057.991
1057.089
1056.155
1055.197
1054.204
1053.159
1052.007
1050.564
1048.16
1061.121
1060.346
1059.535
1058.691
1057.812
1056.902
1055.968
1055.009
1054.023
1053.001
1051.91
1050.648
1048.862
1061.783
1061.034
1060.25
1059.432
1058.578
1057.692
1056.781
1055.846
1054.887
1053.905
1052.896
1051.847
1050.698
1049.287
1062.46
1061.739
1060.983
1060.192
1059.366
1058.506
1057.62
1056.709
1055.773
1054.814
1053.834
1052.836
1051.813
1050.729
1049.526
1063.137
1062.445
1061.718
1060.956
1060.158
1059.325
1058.467
1057.581
1056.669
1055.733
1054.775
1053.799
1052.81
1051.802
1050.752
1048.74
1050.539
1048.054
1052.16
1050.45
1047.007
1053.614
1052.277
1050.259
1045.819
1054.901
1053.767
1052.322
1050.022
1044.755
1056.037
1055.022
1053.851
1052.321
1049.813
1043.98
1057.045
1056.102
1055.073
1053.879
1052.302
1049.687
1043.595
1057.947
1057.048
1056.098
1055.062
1053.86
1052.28
1049.681
1043.638
1058.757
1057.889
1056.982
1056.025
1054.987
1053.797
1052.268
1049.791
1044.097
1059.483
1058.639
1057.761
1056.846
1055.884
1054.851
1053.696
1052.247
1049.985
1044.916
1060.131
1059.31
1058.455
1057.568
1056.644
1055.679
1054.663
1053.546
1052.199
1050.212
1045.99
1060.717
1059.919
1059.087
1058.222
1057.323
1056.392
1055.432
1054.429
1053.352
1052.11
1050.414
1047.151
1061.278
1060.505
1059.697
1058.855
1057.98
1057.072
1056.141
1055.182
1054.19
1053.146
1051.995
1050.56
1048.174
1061.878
1061.131
1060.349
1059.532
1058.681
1057.796
1056.888
1055.955
1054.996
1054.011
1052.989
1051.904
1050.651
1048.877
1062.512
1061.792
1061.037
1060.247
1059.422
1058.563
1057.679
1056.769
1055.834
1054.876
1053.894
1052.889
1051.847
1050.706
1049.305
1063.16
1062.468
1061.742
1060.98
1060.182
1059.35
1058.493
1057.607
1056.696
1055.761
1054.802
1053.826
1052.834
1051.818
1050.742
1063.809
1063.145
1062.448
1061.714
1060.945
1060.142
1059.312
1058.454
1057.568
1056.657
1055.721
1054.766
1053.796
1052.813
1051.811
1049.169
1050.606
1048.786
1052.012
1050.574
1048.094
1053.409
1052.182
1050.471
1047.048
1054.722
1053.627
1052.286
1050.27
1045.863
1055.913
1054.909
1053.769
1052.319
1050.023
1044.793
1056.983
1056.042
1055.019
1053.842
1052.308
1049.805
1044.02
1057.947
1057.048
1056.098
1055.062
1053.86
1052.28
1049.681
1043.638
1058.818
1057.95
1057.043
1056.085
1055.04
1053.833
1052.262
1049.675
1043.679
1059.603
1058.76
1057.884
1056.969
1056.004
1054.96
1053.774
1052.249
1049.783
1044.133
1060.305
1059.486
1058.635
1057.749
1056.826
1055.858
1054.828
1053.674
1052.228
1049.975
1044.945
1060.931
1060.136
1059.307
1058.445
1057.55
1056.62
1055.658
1054.642
1053.526
1052.181
1050.2
1046.015
1061.494
1060.723
1059.918
1059.079
1058.207
1057.302
1056.373
1055.414
1054.411
1053.334
1052.094
1050.407
1047.172
1062.032
1061.286
1060.507
1059.692
1058.843
1057.962
1057.057
1056.126
1055.167
1054.176
1053.132
1051.987
1050.56
1048.193
1062.606
1061.887
1061.134
1060.345
1059.522
1058.665
1057.783
1056.874
1055.941
1054.984
1053.998
1052.981
1051.903
1050.658
1048.898
1063.212
1062.521
1061.795
1061.034
1060.237
1059.406
1058.55
1057.666
1056.756
1055.821
1054.863
1053.885
1052.887
1051.851
1050.719
1063.831
1063.168
1062.471
1061.738
1060.969
1060.167
1059.337
1058.479
1057.594
1056.683
1055.748
1054.793
1053.822
1052.836
1051.827
1064.45
1063.816
1063.147
1062.444
1061.704
1060.93
1060.129
1059.299
1058.441
1057.556
1056.643
1055.71
1054.76
1053.796
1052.819
1049.396
1050.642
1049.213
1051.899
1050.643
1048.82
1053.175
1052.04
1050.598
1048.122
1054.482
1053.427
1052.195
1050.482
1047.075
1055.722
1054.732
1053.631
1052.285
1050.268
1045.889
1056.857
1055.918
1054.908
1053.761
1052.307
1050.013
1044.825
1057.885
1056.986
1056.038
1055.008
1053.823
1052.286
1049.798
1044.059
1058.818
1057.95
1057.043
1056.085
1055.04
1053.833
1052.262
1049.675
1043.679
1059.662
1058.82
1057.945
1057.03
1056.063
1055.012
1053.811
1052.243
1049.669
1043.72
1060.422
1059.605
1058.755
1057.871
1056.948
1055.977
1054.936
1053.752
1052.23
1049.775
1044.17
1061.101
1060.308
1059.482
1058.623
1057.729
1056.8
1055.835
1054.806
1053.652
1052.209
1049.964
1044.98
1061.704
1060.935
1060.133
1059.297
1058.427
1057.526
1056.599
1055.637
1054.621
1053.505
1052.162
1050.192
1046.045
1062.243
1061.5
1060.722
1059.911
1059.064
1058.186
1057.284
1056.355
1055.395
1054.393
1053.316
1052.081
1050.406
1047.197
1062.756
1062.039
1061.288
1060.502
1059.68
1058.826
1057.947
1057.041
1056.11
1055.152
1054.16
1053.121
1051.983
1050.566
1048.218
1063.304
1062.614
1061.889
1061.13
1060.334
1059.505
1058.651
1057.769
1056.861
1055.928
1054.97
1053.989
1052.977
1051.906
1050.67
1063.882
1063.22
1062.523
1061.791
1061.023
1060.221
1059.393
1058.536
1057.652
1056.743
1055.808
1054.853
1053.881
1052.888
1051.86
1064.473
1063.839
1063.17
1062.467
1061.727
1060.954
1060.153
1059.324
1058.466
1057.581
1056.67
1055.737
1054.787
1053.822
1052.843
1065.063
1064.458
1063.818
1063.143
1062.433
1061.689
1060.917
1060.116
1059.286
1058.428
1057.541
1056.632
1055.704
1054.759
1053.8
1049.493
1050.66
1049.439
1051.827
1050.68
1049.246
1053.003
1051.93
1050.67
1048.844
1054.221
1053.198
1052.059
1050.612
1048.138
1055.474
1054.496
1053.435
1052.197
1050.481
1047.087
1056.666
1055.73
1054.733
1053.626
1052.273
1050.256
1045.91
1057.761
1056.861
1055.916
1054.897
1053.743
1052.285
1050.004
1044.856
1058.757
1057.889
1056.982
1056.025
1054.987
1053.797
1052.268
1049.791
1044.097
1059.662
1058.82
1057.945
1057.03
1056.063
1055.012
1053.811
1052.243
1049.669
1043.72
1060.48
1059.664
1058.815
1057.931
1057.008
1056.035
1054.988
1053.788
1052.224
1049.662
1043.76
1061.216
1060.424
1059.6
1058.743
1057.85
1056.921
1055.953
1054.912
1053.729
1052.21
1049.767
1044.211
1061.871
1061.104
1060.304
1059.471
1058.603
1057.704
1056.778
1055.812
1054.783
1053.63
1052.189
1049.958
1045.018
1062.449
1061.707
1060.932
1060.123
1059.279
1058.404
1057.505
1056.578
1055.615
1054.599
1053.483
1052.146
1050.19
1046.079
1062.964
1062.249
1061.499
1060.715
1059.895
1059.044
1058.168
1057.266
1056.337
1055.377
1054.374
1053.301
1052.073
1050.408
1047.228
1063.452
1062.764
1062.041
1061.283
1060.489
1059.663
1058.81
1057.931
1057.026
1056.095
1055.136
1054.148
1053.115
1051.983
1050.576
1063.973
1063.312
1062.616
1061.885
1061.119
1060.318
1059.491
1058.636
1057.755
1056.847
1055.913
1054.959
1053.983
1052.977
1051.913
1064.523
1063.89
1063.222
1062.519
1061.78
1061.007
1060.208
1059.379
1058.522
1057.639
1056.728
1055.797
1054.847
1053.88
1052.894
1065.085
1064.48
1063.84
1063.166
1062.456
1061.712
1060.941
1060.14
1059.31
1058.453
1057.567
1056.658
1055.73
1054.785
1053.826
1065.646
1065.07
1064.459
1063.814
1063.133
1062.418
1061.675
1060.903
1060.102
1059.272
1058.413
1057.53
1056.624
1055.701
1054.761
1050.667
1049.536
1051.786
1050.698
1049.472
1052.898
1051.859
1050.707
1049.267
1054.032
1053.03
1051.951
1050.685
1048.854
1055.21
1054.241
1053.213
1052.067
1050.614
1048.14
1056.42
1055.486
1054.502
1053.434
1052.189
1050.468
1047.097
1057.573
1056.673
1055.73
1054.725
1053.61
1052.253
1050.245
1045.931
1058.635
1057.765
1056.858
1055.905
1054.877
1053.718
1052.266
1049.995
1044.887
1059.603
1058.76
1057.884
1056.969
1056.004
1054.96
1053.774
1052.249
1049.783
1044.133
1060.48
1059.664
1058.815
1057.931
1057.008
1056.035
1054.988
1053.788
1052.224
1049.662
1043.76
1061.273
1060.482
1059.659
1058.802
1057.91
1056.981
1056.011
1054.964
1053.765
1052.205
1049.655
1043.805
1061.983
1061.218
1060.419
1059.588
1058.722
1057.824
1056.898
1055.929
1054.889
1053.706
1052.19
1049.763
1044.257
1062.613
1061.873
1061.1
1060.293
1059.451
1058.579
1057.682
1056.755
1055.79
1054.76
1053.606
1052.172
1049.957
1045.062
1063.166
1062.452
1061.704
1060.922
1060.105
1059.257
1058.384
1057.485
1056.557
1055.594
1054.577
1053.465
1052.135
1050.192
1046.118
1063.656
1062.969
1062.247
1061.491
1060.699
1059.875
1059.026
1058.15
1057.248
1056.318
1055.357
1054.357
1053.29
1052.07
1050.416
1064.119
1063.459
1062.765
1062.035
1061.27
1060.472
1059.647
1058.795
1057.916
1057.01
1056.078
1055.123
1054.14
1053.112
1051.988
1064.612
1063.98
1063.313
1062.611
1061.874
1061.102
1060.304
1059.477
1058.622
1057.74
1056.832
1055.901
1054.951
1053.981
1052.982
1065.134
1064.53
1063.891
1063.217
1062.508
1061.765
1060.994
1060.194
1059.365
1058.509
1057.624
1056.716
1055.789
1054.844
1053.883
1065.668
1065.092
1064.481
1063.836
1063.156
1062.441
1061.699
1060.927
1060.126
1059.297
1058.438
1057.555
1056.65
1055.727
1054.787
1066.201
1065.653
1065.071
1064.455
1063.803
1063.118
1062.405
1061.662
1060.89
1060.089
1059.258
1058.401
1057.521
1056.62
1055.701
1051.768
1050.705
1049.569
1052.838
1051.819
1050.725
1049.493
1053.917
1052.925
1051.882
1050.724
1049.277
1055.019
1054.055
1053.047
1051.962
1050.689
1048.853
1056.161
1055.227
1054.252
1053.217
1052.064
1050.605
1048.142
1057.334
1056.431
1055.49
1054.498
1053.422
1052.172
1050.458
1047.107
1058.452
1057.579
1056.671
1055.721
1054.708
1053.586
1052.235
1050.234
1045.951
1059.483
1058.639
1057.761
1056.846
1055.884
1054.851
1053.696
1052.247
1049.985
1044.916
1060.422
1059.605
1058.755
1057.871
1056.948
1055.977
1054.936
1053.752
1052.23
1049.775
1044.17
1061.273
1060.482
1059.659
1058.802
1057.91
1056.981
1056.011
1054.964
1053.765
1052.205
1049.655
1043.805
1062.039
1061.274
1060.477
1059.646
1058.781
1057.884
1056.958
1055.987
1054.94
1053.742
1052.185
1049.652
1043.855
1062.723
1061.985
1061.213
1060.407
1059.568
1058.697
1057.801
1056.875
1055.906
1054.865
1053.682
1052.174
1049.763
1044.307
1063.327
1062.615
1061.869
1061.088
1060.274
1059.427
1058.557
1057.66
1056.733
1055.767
1054.736
1053.586
1052.16
1049.961
1045.11
1063.855
1063.169
1062.449
1061.694
1060.905
1060.083
1059.237
1058.364
1057.464
1056.536
1055.572
1054.557
1053.451
1052.129
1050.199
1064.32
1063.661
1062.968
1062.239
1061.476
1060.679
1059.857
1059.008
1058.132
1057.229
1056.299
1055.34
1054.345
1053.283
1052.07
1064.756
1064.125
1063.46
1062.759
1062.023
1061.253
1060.456
1059.632
1058.779
1057.9
1056.993
1056.064
1055.113
1054.135
1053.114
1065.223
1064.619
1063.981
1063.309
1062.6
1061.858
1061.088
1060.29
1059.463
1058.608
1057.725
1056.819
1055.892
1054.947
1053.982
1065.717
1065.141
1064.531
1063.887
1063.207
1062.493
1061.751
1060.98
1060.18
1059.351
1058.494
1057.612
1056.708
1055.785
1054.846
1066.223
1065.675
1065.093
1064.477
1063.826
1063.14
1062.428
1061.685
1060.913
1060.113
1059.282
1058.425
1057.546
1056.646
1055.727
1066.727
1066.208
1065.654
1065.067
1064.444
1063.788
1063.104
1062.391
1061.649
1060.876
1060.074
1059.245
1058.391
1057.515
1056.619
1052.812
1051.8
1050.732
1049.59
1053.852
1052.866
1051.841
1050.742
1049.502
1054.903
1053.94
1052.944
1051.894
1050.729
1049.274
1055.975
1055.039
1054.069
1053.055
1051.963
1050.683
1048.851
1057.083
1056.177
1055.236
1054.254
1053.212
1052.052
1050.597
1048.144
1058.22
1057.343
1056.433
1055.485
1054.485
1053.403
1052.156
1050.447
1047.117
1059.305
1058.458
1057.578
1056.662
1055.703
1054.684
1053.566
1052.217
1050.223
1045.971
1060.305
1059.486
1058.635
1057.749
1056.826
1055.858
1054.828
1053.674
1052.228
1049.975
1044.945
1061.216
1060.424
1059.6
1058.743
1057.85
1056.921
1055.953
1054.912
1053.729
1052.21
1049.767
1044.211
1062.039
1061.274
1060.477
1059.646
1058.781
1057.884
1056.958
1055.987
1054.94
1053.742
1052.185
1049.652
1043.855
1062.778
1062.04
1061.269
1060.464
1059.626
1058.755
1057.861
1056.934
1055.963
1054.916
1053.717
1052.169
1049.653
1043.909
1063.436
1062.725
1061.98
1061.201
1060.388
1059.543
1058.675
1057.779
1056.852
1055.882
1054.84
1053.661
1052.162
1049.768
1044.362
1064.014
1063.329
1062.611
1061.858
1061.07
1060.25
1059.407
1058.536
1057.638
1056.711
1055.742
1054.714
1053.57
1052.153
1049.969
1064.516
1063.858
1063.166
1062.439
1061.678
1060.883
1060.064
1059.217
1058.344
1057.444
1056.514
1055.552
1054.542
1053.441
1052.127
1064.955
1064.324
1063.659
1062.96
1062.225
1061.456
1060.662
1059.84
1058.99
1058.114
1057.209
1056.281
1055.327
1054.336
1053.281
1065.365
1064.763
1064.126
1063.454
1062.747
1062.006
1061.238
1060.441
1059.616
1058.763
1057.883
1056.978
1056.053
1055.107
1054.134
1065.805
1065.23
1064.621
1063.977
1063.297
1062.584
1061.844
1061.074
1060.275
1059.448
1058.592
1057.711
1056.809
1055.887
1054.947
1066.271
1065.724
1065.143
1064.527
1063.876
1063.191
1062.479
1061.737
1060.966
1060.166
1059.336
1058.481
1057.602
1056.703
1055.785
1066.748
1066.229
1065.676
1065.089
1064.466
1063.81
1063.127
1062.414
1061.672
1060.9
1060.098
1059.269
1058.416
1057.54
1056.644
1067.225
1066.733
1066.209
1065.65
1065.056
1064.429
1063.775
1063.091
1062.378
1061.635
1060.862
1060.061
1059.235
1058.385
1057.513
1053.823
1052.84
1051.823
1050.749
1049.599
1054.837
1053.876
1052.885
1051.854
1050.748
1049.5
1055.861
1054.923
1053.955
1052.953
1051.896
1050.723
1049.272
1056.903
1055.993
1055.051
1054.074
1053.053
1051.954
1050.677
1048.85
1057.978
1057.097
1056.184
1055.236
1054.247
1053.198
1052.041
1050.589
1048.146
1059.079
1058.228
1057.345
1056.427
1055.471
1054.465
1053.386
1052.141
1050.436
1047.127
1060.131
1059.31
1058.455
1057.568
1056.644
1055.679
1054.663
1053.546
1052.199
1050.212
1045.99
1061.101
1060.308
1059.482
1058.623
1057.729
1056.8
1055.835
1054.806
1053.652
1052.209
1049.964
1044.98
1061.983
1061.218
1060.419
1059.588
1058.722
1057.824
1056.898
1055.929
1054.889
1053.706
1052.19
1049.763
1044.257
1062.778
1062.04
1061.269
1060.464
1059.626
1058.755
1057.861
1056.934
1055.963
1054.916
1053.717
1052.169
1049.653
1043.909
1063.491
1062.78
1062.035
1061.257
1060.445
1059.601
1058.733
1057.838
1056.911
1055.939
1054.891
1053.696
1052.157
1049.66
1043.967
1064.122
1063.438
1062.72
1061.968
1061.182
1060.364
1059.522
1058.653
1057.756
1056.829
1055.857
1054.817
1053.644
1052.154
1049.778
1064.673
1064.016
1063.325
1062.6
1061.84
1061.047
1060.23
1059.386
1058.515
1057.617
1056.687
1055.721
1054.697
1053.558
1052.15
1065.149
1064.519
1063.855
1063.156
1062.423
1061.656
1060.864
1060.045
1059.198
1058.324
1057.422
1056.494
1055.536
1054.53
1053.435
1065.561
1064.959
1064.323
1063.652
1062.945
1062.205
1061.439
1060.645
1059.822
1058.972
1058.094
1057.192
1056.267
1055.317
1054.332
1065.946
1065.371
1064.763
1064.12
1063.442
1062.729
1061.99
1061.222
1060.425
1059.6
1058.746
1057.867
1056.967
1056.046
1055.105
1066.358
1065.811
1065.231
1064.616
1063.965
1063.282
1062.57
1061.83
1061.06
1060.261
1059.432
1058.578
1057.701
1056.803
1055.886
1066.797
1066.278
1065.725
1065.138
1064.516
1063.861
1063.178
1062.465
1061.724
1060.952
1060.151
1059.323
1058.471
1057.596
1056.701
1067.246
1066.755
1066.23
1065.672
1065.078
1064.452
1063.797
1063.114
1062.401
1061.658
1060.885
1060.084
1059.259
1058.41
1057.538
1067.694
1067.231
1066.734
1066.204
1065.64
1065.042
1064.417
1063.762
1063.078
1062.365
1061.62
1060.848
1060.051
1059.228
1058.382
1054.808
1053.847
1052.858
1051.836
1050.755
1049.597
1055.797
1054.858
1053.891
1052.894
1051.857
1050.743
1049.497
1056.792
1055.879
1054.936
1053.962
1052.952
1051.888
1050.718
1049.27
1057.803
1056.918
1056.002
1055.054
1054.07
1053.042
1051.945
1050.67
1048.849
1058.845
1057.99
1057.103
1056.183
1055.227
1054.231
1053.185
1052.03
1050.581
1048.149
1059.912
1059.087
1058.229
1057.338
1056.413
1055.45
1054.447
1053.369
1052.126
1050.426
1047.136
1060.931
1060.136
1059.307
1058.445
1057.55
1056.62
1055.658
1054.642
1053.526
1052.181
1050.2
1046.015
1061.871
1061.104
1060.304
1059.471
1058.603
1057.704
1056.778
1055.812
1054.783
1053.63
1052.189
1049.958
1045.018
1062.723
1061.985
1061.213
1060.407
1059.568
1058.697
1057.801
1056.875
1055.906
1054.865
1053.682
1052.174
1049.763
1044.307
1063.491
1062.78
1062.035
1061.257
1060.445
1059.601
1058.733
1057.838
1056.911
1055.939
1054.891
1053.696
1052.157
1049.66
1043.967
1064.175
1063.492
1062.775
1062.024
1061.238
1060.42
1059.579
1058.711
1057.815
1056.887
1055.914
1054.868
1053.679
1052.149
1049.67
1064.779
1064.123
1063.433
1062.709
1061.95
1061.159
1060.343
1059.5
1058.631
1057.734
1056.804
1055.834
1054.799
1053.632
1052.151
1065.304
1064.675
1064.012
1063.315
1062.582
1061.817
1061.027
1060.21
1059.365
1058.494
1057.593
1056.665
1055.703
1054.683
1053.551
1065.753
1065.151
1064.516
1063.845
1063.14
1062.402
1061.638
1060.846
1060.025
1059.178
1058.302
1057.402
1056.477
1055.523
1054.523
1066.14
1065.565
1064.957
1064.315
1063.637
1062.926
1062.189
1061.422
1060.628
1059.805
1058.953
1058.076
1057.178
1056.257
1055.312
1066.497
1065.951
1065.372
1064.757
1064.108
1063.425
1062.715
1061.975
1061.207
1060.41
1059.583
1058.731
1057.855
1056.959
1056.043
1066.883
1066.364
1065.812
1065.226
1064.605
1063.95
1063.268
1062.556
1061.815
1061.045
1060.245
1059.418
1058.567
1057.694
1056.8
1067.294
1066.803
1066.279
1065.72
1065.127
1064.501
1063.847
1063.164
1062.452
1061.71
1060.937
1060.137
1059.312
1058.464
1057.593
1067.715
1067.252
1066.756
1066.226
1065.661
1065.064
1064.439
1063.784
1063.101
1062.387
1061.643
1060.871
1060.074
1059.252
1058.406
1068.135
1067.7
1067.232
1066.73
1066.194
1065.625
1065.029
1064.404
1063.749
1063.065
1062.35
1061.607
1060.838
1060.043
1059.224
1055.768
1054.829
1053.863
1052.868
1051.839
1050.751
1049.594
1056.73
1055.815
1054.871
1053.898
1052.894
1051.85
1050.739
1049.495
1057.695
1056.808
1055.889
1054.939
1053.958
1052.942
1051.881
1050.713
1049.267
1058.676
1057.817
1056.926
1056.003
1055.047
1054.057
1053.032
1051.937
1050.664
1048.848
1059.684
1058.856
1057.994
1057.1
1056.172
1055.211
1054.218
1053.172
1052.019
1050.573
1048.152
1060.717
1059.919
1059.087
1058.222
1057.323
1056.392
1055.432
1054.429
1053.352
1052.11
1050.414
1047.151
1061.704
1060.935
1060.133
1059.297
1058.427
1057.526
1056.599
1055.637
1054.621
1053.505
1052.162
1050.192
1046.045
1062.613
1061.873
1061.1
1060.293
1059.451
1058.579
1057.682
1056.755
1055.79
1054.76
1053.606
1052.172
1049.957
1045.062
1063.436
1062.725
1061.98
1061.201
1060.388
1059.543
1058.675
1057.779
1056.852
1055.882
1054.84
1053.661
1052.162
1049.768
1044.362
1064.175
1063.492
1062.775
1062.024
1061.238
1060.42
1059.579
1058.711
1057.815
1056.887
1055.914
1054.868
1053.679
1052.149
1049.67
1064.833
1064.177
1063.487
1062.763
1062.005
1061.214
1060.399
1059.557
1058.689
1057.792
1056.862
1055.89
1054.849
1053.666
1052.146
1065.409
1064.781
1064.119
1063.422
1062.691
1061.927
1061.138
1060.322
1059.479
1058.609
1057.71
1056.781
1055.815
1054.785
1053.624
1065.907
1065.306
1064.671
1064.002
1063.298
1062.561
1061.798
1061.008
1060.19
1059.345
1058.471
1057.572
1056.647
1055.689
1054.674
1066.329
1065.756
1065.148
1064.506
1063.83
1063.12
1062.384
1061.62
1060.827
1060.006
1059.157
1058.282
1057.385
1056.465
1055.515
1066.689
1066.143
1065.564
1064.95
1064.301
1063.619
1062.91
1062.172
1061.405
1060.61
1059.785
1058.935
1058.062
1057.167
1056.25
1067.021
1066.503
1065.952
1065.366
1064.745
1064.091
1063.41
1062.7
1061.96
1061.191
1060.393
1059.567
1058.718
1057.847
1056.954
1067.379
1066.889
1066.365
1065.807
1065.215
1064.589
1063.936
1063.254
1062.542
1061.801
1061.029
1060.23
1059.407
1058.559
1057.69
1067.762
1067.3
1066.804
1066.274
1065.71
1065.113
1064.488
1063.834
1063.151
1062.438
1061.694
1060.923
1060.126
1059.305
1058.46
1068.156
1067.721
1067.253
1066.751
1066.215
1065.647
1065.051
1064.426
1063.771
1063.087
1062.372
1061.63
1060.861
1060.067
1059.248
1068.549
1068.141
1067.701
1067.227
1066.72
1066.18
1065.613
1065.016
1064.391
1063.736
1063.05
1062.337
1061.596
1060.83
1060.039
1056.702
1055.787
1054.842
1053.869
1052.868
1051.832
1050.747
1049.592
1057.635
1056.746
1055.825
1054.875
1053.895
1052.885
1051.843
1050.734
1049.492
1058.571
1057.71
1056.816
1055.891
1054.934
1053.947
1052.933
1051.874
1050.708
1049.265
1059.52
1058.688
1057.823
1056.926
1055.995
1055.034
1054.046
1053.022
1051.928
1050.658
1048.848
1060.496
1059.694
1058.859
1057.991
1057.089
1056.155
1055.197
1054.204
1053.159
1052.007
1050.564
1048.16
1061.494
1060.723
1059.918
1059.079
1058.207
1057.302
1056.373
1055.414
1054.411
1053.334
1052.094
1050.407
1047.172
1062.449
1061.707
1060.932
1060.123
1059.279
1058.404
1057.505
1056.578
1055.615
1054.599
1053.483
1052.146
1050.19
1046.079
1063.327
1062.615
1061.869
1061.088
1060.274
1059.427
1058.557
1057.66
1056.733
1055.767
1054.736
1053.586
1052.16
1049.961
1045.11
1064.122
1063.438
1062.72
1061.968
1061.182
1060.364
1059.522
1058.653
1057.756
1056.829
1055.857
1054.817
1053.644
1052.154
1049.778
1064.833
1064.177
1063.487
1062.763
1062.005
1061.214
1060.399
1059.557
1058.689
1057.792
1056.862
1055.89
1054.849
1053.666
1052.146
1065.462
1064.834
1064.172
1063.476
1062.745
1061.982
1061.194
1060.378
1059.536
1058.667
1057.768
1056.839
1055.871
1054.834
1053.658
1066.011
1065.411
1064.776
1064.108
1063.405
1062.669
1061.907
1061.118
1060.302
1059.458
1058.585
1057.687
1056.762
1055.8
1054.774
1066.482
1065.909
1065.302
1064.661
1063.985
1063.276
1062.542
1061.779
1060.988
1060.17
1059.322
1058.45
1057.554
1056.633
1055.678
1066.878
1066.332
1065.753
1065.139
1064.491
1063.81
1063.102
1062.366
1061.601
1060.808
1059.985
1059.137
1058.266
1057.372
1056.456
1067.211
1066.693
1066.142
1065.556
1064.936
1064.283
1063.602
1062.893
1062.155
1061.388
1060.591
1059.768
1058.921
1058.051
1057.16
1067.516
1067.026
1066.503
1065.946
1065.354
1064.729
1064.077
1063.395
1062.685
1061.945
1061.174
1060.377
1059.555
1058.709
1057.841
1067.847
1067.385
1066.89
1066.36
1065.797
1065.2
1064.576
1063.922
1063.24
1062.528
1061.785
1061.015
1060.219
1059.398
1058.555
1068.203
1067.768
1067.301
1066.799
1066.264
1065.695
1065.1
1064.475
1063.821
1063.137
1062.423
1061.681
1060.912
1060.118
1059.3
1068.569
1068.162
1067.722
1067.249
1066.741
1066.201
1065.634
1065.038
1064.413
1063.758
1063.073
1062.359
1061.619
1060.853
1060.062
1068.934
1068.554
1068.142
1067.697
1067.217
1066.706
1066.168
1065.6
1065.004
1064.378
1063.722
1063.037
1062.326
1061.588
1060.825
1057.608
1056.718
1055.797
1054.846
1053.867
1052.859
1051.826
1050.742
1049.589
1058.513
1057.65
1056.754
1055.828
1054.87
1053.884
1052.877
1051.837
1050.729
1049.49
1059.418
1058.584
1057.717
1056.816
1055.884
1054.921
1053.937
1052.924
1051.867
1050.702
1049.263
1060.335
1059.531
1058.693
1057.822
1056.917
1055.981
1055.021
1054.035
1053.011
1051.919
1050.651
1048.852
1061.278
1060.505
1059.697
1058.855
1057.98
1057.072
1056.141
1055.182
1054.19
1053.146
1051.995
1050.56
1048.174
1062.243
1061.5
1060.722
1059.911
1059.064
1058.186
1057.284
1056.355
1055.395
1054.393
1053.316
1052.081
1050.406