/*--------------------------------*- C++ -*----------------------------------*\
| =========                 |                                                 |
| \\      /  F ield         | OpenFOAM: The Open Source CFD Toolbox           |
|  \\    /   O peration     | Version:  2306                                  |
|   \\  /    A nd           | Website:  www.openfoam.com                      |
|    \\/     M anipulation  |                                                 |
\*---------------------------------------------------------------------------*/
FoamFile
{
    version     2.0;
    format      ascii;
    arch        "LSB;label=32;scalar=64";
    class       volVectorField;
    location    "0.9/phiI";
    object      i;
}
// * * * * * * * * * * * * * * * * * * * * * * * * * * * * * * * * * * * * * //

dimensions      [0 -2 0 0 0 1 0];

internalField   nonuniform List<vector> 
12000
(
(39.45069 2.455926 1642.431)
(39.69688 7.516177 1656.689)
(77.96079 4.917844 1503.715)
(40.00555 1.885589 4966.511)
(40.04637 15.20074 1685.471)
(78.34152 13.47301 1512.811)
(40.27239 5.794581 5009.24)
(69.74852 6.263204 1386.571)
(78.98423 4.55398 4547.16)
(41.12809 0.746781 8359.094)
(40.13263 29.76633 1728.644)
(78.93247 19.55826 1530.678)
(40.66554 12.32254 5095.464)
(69.94825 17.23297 1393.482)
(79.39435 12.39448 4574.421)
(41.43616 2.358063 8430.768)
(56.45679 6.915129 1292.732)
(70.59245 5.986774 4192.233)
(81.05791 3.827417 7651.957)
(42.8341 -0.9813535 11829.41)
(39.31784 54.8524 1784.367)
(79.27819 22.48096 1556.098)
(40.82282 25.81047 5224.781)
(70.32241 24.56741 1406.897)
(80.04677 17.82678 4627.959)
(41.91639 6.579086 8575.371)
(56.55727 19.21191 1298.395)
(70.80591 16.41994 4212.943)
(81.52671 10.24103 7697.687)
(43.20472 -2.856513 11931.4)
(45.84102 7.267938 1214.773)
(57.14399 6.688594 3907.59)
(72.3068 5.43481 7052.718)
(84.20974 2.724785 10823.82)
(45.15042 -3.332916 15417.48)
(36.89391 84.1102 1844.782)
(78.5759 22.46512 1586.165)
(40.11065 50.20687 5391.589)
(70.76665 26.20056 1425.542)
(80.4906 20.26149 4704.175)
(42.21506 17.92132 8792.214)
(56.76968 27.74233 1309.319)
(71.20785 23.28498 4253.145)
(82.30175 14.3681 7787.503)
(43.81702 -2.135304 12137.17)
(45.89157 20.36183 1219.6)
(57.25279 18.54843 3924.562)
(72.54768 14.79648 7087.455)
(84.7676 6.972604 10888.9)
(45.60617 -9.952661 15551.88)
(37.8308 7.420648 1147.846)
(46.42056 7.07484 3670.952)
(58.54192 6.23626 6571.87)
(74.9128 4.597302 9972.084)
(88.48719 1.224558 14096.89)
(48.11646 -6.357101 17305.07)
(33.1108 102.0624 1892.956)
(75.87284 22.03988 1614.751)
(37.81403 79.76666 5572.16)
(71.07899 20.79894 1446.685)
(79.92663 20.119 4794.4)
(41.70659 40.95726 9071.742)
(57.08252 30.04682 1324.311)
(71.6938 24.60904 4309.069)
(82.94104 15.82334 7915.45)
(44.32987 5.955649 12445.76)
(46.01193 29.81996 1228.875)
(57.48177 26.70571 3957.299)
(73.00505 20.72233 7154.898)
(85.72866 9.116222 11016.73)
(46.39816 -13.99522 15823.07)
(37.84905 20.921 1152.06)
(46.47691 19.79772 3685.418)
(58.66736 17.22356 6600.333)
(75.19533 12.33272 10021.5)
(89.16631 2.524689 14182.61)
(48.68177 -19.07995 17455.84)
(31.78592 7.450465 1089.22)
(38.33301 7.252099 3467.7)
(47.60058 6.689285 6171.987)
(60.66691 5.550079 9288.894)
(78.44652 3.458262 12979.95)
(93.95989 -0.7039542 15818.09)
(51.09834 -9.363413 17423.2)
(29.03351 97.19186 1925.375)
(71.30658 23.45838 1634.477)
(34.14472 98.83864 5715.813)
(70.92611 11.417 1465.32)
(77.39069 20.10738 4880.282)
(39.66142 71.14126 9373.784)
(57.45793 24.05967 1340.918)
(72.05998 19.20784 4372.587)
(82.65191 15.42083 8067.092)
(44.12924 26.94407 12843.4)
(46.21465 33.08301 1241.511)
(57.81865 28.78285 4002.271)
(73.57427 21.42289 7248.814)
(86.6642 9.077939 11198.97)
(47.20219 -10.32763 16229.84)
(37.90507 30.97317 1160.135)
(46.60866 28.94353 3713.215)
(58.9294 24.63397 6655.247)
(75.73687 16.83062 10117.47)
(90.38056 1.965031 14351.08)
(49.70498 -29.25398 17760.05)
(31.7834 21.10451 1092.961)
(38.35561 20.42944 3480.327)
(47.66851 18.67131 6196.245)
(60.81763 15.21334 9329.369)
(78.78579 8.981017 13045)
(94.79511 -3.194671 15914.19)
(51.77276 -28.15174 17573.07)
(27.10353 7.395437 1037.059)
(32.22907 7.300821 3289.565)
(39.35635 6.915566 5828.439)
(49.39428 6.104547 8720.914)
(63.5466 4.617259 12084.92)
(82.96069 1.995056 14559.65)
(99.46888 -2.61929 15928.25)
(54.09624 -12.35216 17541.74)
(25.75032 68.60573 1944.656)
(66.16059 23.58701 1646.025)
(30.15091 95.12385 5812.205)
(70.09891 4.939855 1476.627)
(72.97189 22.20744 4939.54)
(36.2159 92.46053 9613.453)
(57.77221 12.23902 1354.916)
(71.96545 10.21932 4428.734)
(80.44655 16.23429 8211.661)
(42.46252 58.09823 13272.49)
(46.50911 27.69583 1255.316)
(58.2234 22.83547 4052.184)
(74.04786 16.01236 7355.699)
(86.7908 8.270588 11415.23)
(47.41927 7.888062 16754)
(38.01651 35.01867 1171.083)
(46.82756 32.0254 3751.117)
(59.31433 26.25141 6730.772)
(76.43252 16.57701 10251.25)
(91.71906 -0.1165014 14591.44)
(50.8835 -31.28148 18216.5)
(31.79614 31.49452 1100.117)
(38.4201 30.21225 3504.526)
(47.82302 27.19202 6242.865)
(61.1299 21.48813 9407.489)
(79.44203 11.53222 13171.41)
(96.33528 -7.236714 16103.04)
(53.02618 -44.42163 17875.43)
(27.08753 21.02323 1040.421)
(32.22995 20.66863 3300.775)
(39.38763 19.44794 5849.609)
(49.4798 16.96262 8755.397)
(63.73177 12.47976 12138.18)
(83.37306 4.673925 14632.55)
(100.4595 -8.873351 16023.7)
(54.87928 -37.16912 17690.74)
(23.4093 7.290453 990.1559)
(27.49979 7.26095 3131)
(33.13272 7.002046 5527.27)
(40.91188 6.405298 8233.062)
(51.82391 5.309975 11341.37)
(67.22121 3.419781 13551.05)
(87.51469 0.5424299 14659.56)
(105.0145 -4.521798 16038.78)
(57.11016 -15.32365 17660.17)
(23.95477 24.59258 1953.566)
(61.90169 17.81833 1652.171)
(26.92026 67.47809 5869.372)
(68.83596 3.142985 1482.065)
(67.93383 22.87924 4974.166)
(32.38566 91.0495 9773.767)
(57.85725 2.556886 1362.665)
(71.18616 4.270045 4462.913)
(76.31818 19.703 8311.411)
(39.35289 82.83929 13612.26)
(46.84844 15.41024 1266.643)
(58.56692 11.36912 4094.414)
(74.06958 7.803975 7450.537)
(85.08368 10.33464 11621.76)
(46.26433 40.38695 17319.12)
(38.20657 30.39757 1182.94)
(47.14102 26.69055 3792.609)
(59.77784 20.37394 6814.799)
(77.06916 11.1389 10403.82)
(92.41023 -1.490536 14877.07)
(51.63695 -16.62681 18804.84)
(31.8413 36.09802 1109.787)
(38.5434 34.10646 3537.365)
(48.07428 29.90725 6306.508)
(61.58787 22.40078 9515.054)
(80.30994 9.96908 13347.83)
(98.19225 -11.96183 16372.68)
(54.57746 -52.11918 18329.24)
(27.07151 31.55216 1046.842)
(32.24931 30.82147 3322.22)
(39.46905 28.69166 5890.19)
(49.66889 24.53299 8821.696)
(64.1125 17.20657 12241.02)
(84.17708 4.717475 14774.19)
(102.324 -16.37456 16211.2)
(56.3619 -59.50073 17991.27)
(23.38517 20.78431 993.2067)
(27.48655 20.63187 3141.075)
(33.14041 19.79832 5546.063)
(40.95634 17.9594 8263.146)
(51.9334 14.64004 11386.72)
(67.45076 8.96928 13610.7)
(87.99973 0.3995705 14731.93)
(106.1597 -14.51252 16133.6)
(58.00134 -46.13321 17808.33)
(20.43581 7.154112 947.6059)
(23.76711 7.16842 2988.347)
(28.3084 6.992441 5259.119)
(34.50635 6.549134 7805.464)
(43.01815 5.712203 10703.07)
(54.9217 4.290614 12713.09)
(70.93286 2.231125 13641.24)
(92.10875 -0.8999398 14759.81)
(110.5966 -6.411828 16149.24)
(60.13999 -18.2782 17778)
(23.95477 -24.59258 1953.566)
(59.53562 6.637085 1654.82)
(25.14975 24.23616 5895.738)
(67.6337 2.355975 1484.297)
(63.74313 17.46653 4992.54)
(29.25764 65.26443 9868.565)
(57.70557 -1.065046 1365.746)
(69.95707 2.836181 4479.408)
(71.49178 21.46698 8369.584)
(35.76764 84.91935 13838.99)
(47.11347 4.27342 1272.533)
(58.67362 2.123657 4117.929)
(73.38535 2.912908 7508.495)
(81.39173 15.89052 11764.27)
(43.60784 69.80026 17765.8)
(38.46237 18.28261 1192.504)
(47.49809 14.72154 3826.793)
(60.17998 9.609236 6886.241)
(77.26713 4.107489 10539.7)
(91.3777 2.272696 15150.4)
(51.13739 17.62599 19438.77)
(31.94513 32.15441 1120.2)
(38.74703 29.54073 3572.998)
(48.42586 24.6688 6376.357)
(62.14077 16.6167 9635.016)
(81.16871 4.474504 13549.46)
(99.60895 -14.0879 16693.53)
(55.8645 -41.00277 18914.56)
(27.0708 36.50851 1055.501)
(32.30363 35.2947 3351.224)
(39.61608 32.27979 5945.322)
(49.96937 26.68572 8912.313)
(64.67009 17.15033 12382.81)
(85.26701 1.455219 14972.01)
(104.697 -23.73605 16479.05)
(58.28426 -72.84679 18442.55)
(23.35124 31.32722 999.0266)
(27.47587 30.94896 3160.319)
(33.17297 29.47657 5582.018)
(41.06349 26.38375 8320.838)
(52.16962 20.91537 11473.96)
(67.91974 11.70274 13725.89)
(88.95065 -2.046267 14872.48)
(108.3471 -25.45089 16319.78)
(59.71214 -74.49391 18107.08)
(20.40679 20.44261 950.3951)
(23.74527 20.42948 2997.489)
(28.30068 19.85046 5276.006)
(34.52437 18.47872 7832.16)
(43.08057 15.93689 10742.61)
(55.06208 11.65921 12763.86)
(71.2065 5.486226 13700.45)
(92.66603 -3.843108 14831.68)
(111.8957 -20.11335 16243.44)
(61.13883 -55.04516 17925.31)
(18.0046 7.000223 908.7436)
(20.76146 7.042544 2858.867)
(24.49783 6.924779 5017.806)
(29.53765 6.585499 7424.795)
(36.36579 5.934186 10143.85)
(45.70195 4.82355 11993.71)
(58.05327 3.27885 12794.42)
(74.68175 1.051008 13731.74)
(96.74284 -2.332378 14860.02)
(116.2151 -8.289736 16259.17)
(63.18548 -21.21614 15944.26)
(25.75032 -68.60572 1944.656)
(59.53562 -6.637088 1654.82)
(25.14975 -24.23617 5895.738)
(66.91782 0.9318496 1485.037)
(61.40973 6.531139 5000.435)
(27.53598 23.53794 9912.197)
(57.46979 -1.363037 1366.566)
(68.77613 2.237094 4486.204)
(67.43436 16.76757 8400.35)
(32.79312 61.9409 13972.79)
(47.24184 -0.7316004 1274.517)
(58.53576 -1.22106 4127.376)
(72.22312 2.211324 7536.583)
(76.88257 19.32167 11847.26)
(40.3526 76.62815 18063.32)
(38.70531 6.490807 1197.264)
(47.77508 3.958437 3844.695)
(60.33012 1.238402 6926.302)
(76.72659 0.8282047 10623.03)
(88.27508 10.68288 15339.03)
(49.05999 53.07109 19938.63)
(32.11138 20.39759 1128.504)
(39.01492 17.70966 3601.857)
(48.81867 13.32679 6434.212)
(62.63222 6.908991 9737.517)
(81.60654 -0.9646264 13729.75)
(99.44114 -8.143639 17001.03)
(56.01529 -4.964645 19544.86)
(27.111 33.09844 1064.785)
(32.41775 31.40572 3382.511)
(39.84696 27.81789 6005.296)
(50.37903 21.58238 9012.02)
(65.34502 11.47542 12541.36)
(86.41201 -4.137895 15198.51)
(106.8355 -26.62449 16798.24)
(60.10222 -65.25162 19025.05)
(23.32077 36.4929 1006.86)
(27.48251 35.79081 3186.286)
(33.24561 33.68638 5630.704)
(41.24662 29.50224 8399.311)
(52.53725 22.29427 11593.35)
(68.60578 10.38742 13884.82)
(90.26137 -7.003993 15068.9)
(111.2336 -35.44358 16585.93)
(62.00392 -93.4705 18555.91)
(20.36157 30.90815 955.7103)
(23.71577 30.78111 3014.93)
(28.30067 29.7437 5308.268)
(34.577 27.43582 7883.261)
(43.22279 23.24506 10818.49)
(55.35904 16.26768 12861.53)
(71.76311 6.241811 13814.73)
(93.76297 -8.761123 14971.17)
(114.4044 -34.46814 16428.35)
(63.0768 -89.40389 18222.33)
(17.97294 20.04189 911.3097)
(20.73438 20.11844 2867.225)
(24.48057 19.72099 5033.126)
(29.53829 18.66591 7448.777)
(36.39788 16.68644 10178.93)
(45.7875 13.34268 12037.98)
(58.22431 8.702103 12844.82)
(74.99919 2.029667 13790.54)
(97.37194 -8.05519 14931.4)
(117.6674 -25.67706 16352.77)
(64.29151 -63.9062 16074.89)
(15.98389 6.837561 873.0478)
(18.30283 6.897579 2740.548)
(21.42701 6.819791 4798.71)
(25.60875 6.555602 7082.255)
(31.20124 6.03317 9646.205)
(38.7338 5.146164 11363.43)
(48.41679 3.941565 12066.96)
(61.2188 2.274436 12876.06)
(78.46786 -0.120859 13822.26)
(101.4167 -3.755212 14959.83)
(121.8693 -10.15588 14589.15)
(65.56044 -23.50336 12239.12)
(29.03351 -97.19185 1925.375)
(61.90169 -17.81833 1652.171)
(26.92026 -67.47808 5869.372)
(66.91782 -0.9318506 1485.037)
(61.40973 -6.531142 5000.435)
(27.53598 -23.53794 9912.197)
(57.30667 -0.5217226 1366.643)
(68.07053 0.9022469 4488.467)
(65.1647 6.321285 8413.528)
(31.14443 22.49089 14034.28)
(47.27466 -1.632999 1274.748)
(58.30798 -1.398906 4129.963)
(71.08401 1.993587 7548.215)
(73.02453 15.70875 11891.05)
(37.58462 57.45283 18238.6)
(38.86891 0.5468196 1198.656)
(47.9102 -0.8202025 3850.83)
(60.21988 -1.546412 6942.603)
(75.665 1.247375 10663.58)
(84.19343 16.3959 15448.76)
(46.2259 66.00747 20270.6)
(32.29099 8.33884 1132.508)
(39.26541 6.244729 3616.328)
(49.11987 3.311933 6464.783)
(62.84847 -0.1308175 9795.365)
(81.26097 -2.042491 13840.69)
(97.09217 3.956196 17213.14)
(54.50981 36.52699 20040.09)
(27.20438 21.74126 1072.131)
(32.59287 19.90524 3407.56)
(40.1393 16.54941 6054.134)
(50.82652 11.18447 9095.064)
(65.95851 3.195289 12677.52)
(87.15865 -7.541747 15401.63)
(107.5262 -18.51155 17104.52)
(60.89876 -27.39507 19652.11)
(23.31745 33.49026 1015.234)
(27.53086 32.43322 3214.177)
(33.38041 29.90099 5683.347)
(41.51907 25.18825 8484.899)
(53.02633 17.35878 11725.09)
(69.43825 4.828524 14062.88)
(91.69131 -12.7105 15294.17)
(114.0905 -39.10661 16903.6)
(64.3503 -89.38537 19135.82)
(20.31144 36.17058 962.8546)
(23.69135 35.84462 3038.421)
(28.32201 34.35417 5351.848)
(34.67752 31.24155 7952.536)
(43.45519 25.71738 10921.83)
(55.8133 16.64035 12995.31)
(72.57687 3.670613 13972.47)
(95.29332 -15.41221 15166.25)
(117.8022 -47.0889 16692.88)
(65.73635 -113.9967 18668.81)
(17.92129 30.37368 916.1951)
(20.6929 30.40977 2883.154)
(24.4599 29.68991 5062.363)
(29.55449 27.91527 7494.615)
(36.47786 24.66155 10246.1)
(45.97491 19.21495 12122.9)
(58.58158 11.65744 12941.7)
(75.64285 0.8219572 13903.93)
(98.61404 -15.42923 15069.89)
(120.4958 -43.42877 16536.46)
(66.45561 -104.2335 16338.22)
(15.95105 19.60948 875.4211)
(18.27284 19.74383 2748.237)
(21.4038 19.47111 4812.715)
(25.59843 18.6472 7104.007)
(31.21329 17.05765 9677.698)
(38.78402 14.38881 11402.68)
(48.52531 10.76936 12110.9)
(61.4203 5.767908 12926.1)
(78.82881 -1.401344 13880.65)
(102.1172 -12.23777 15030.74)
(123.474 -31.20489 14672.17)
(66.74971 -70.80365 12338.33)
(14.28651 6.671833 840.1084)
(16.25843 6.742628 2631.813)
(18.91281 6.692635 4598.437)
(22.43894 6.482329 6771.274)
(27.11192 6.054706 9198.547)
(33.31887 5.32576 10802.48)
(41.13069 4.364103 11429.19)
(51.16285 3.066032 12140.49)
(64.41829 1.277121 12957.72)
(82.29094 -1.284763 13912.46)
(106.1297 -5.168771 13427.69)
(126.2813 -11.61062 11207.86)
(67.31052 -25.18459 8670.103)
(33.1108 -102.0623 1892.956)
(66.16059 -23.58701 1646.025)
(30.15091 -95.12384 5812.205)
(67.6337 -2.355976 1484.297)
(63.74313 -17.46654 4992.54)
(29.25764 -65.26442 9868.565)
(57.30667 0.5217228 1366.643)
(68.07053 -0.9022479 4488.467)
(65.1647 -6.321288 8413.528)
(31.14443 -22.4909 14034.28)
(47.27217 -0.6993304 1274.571)
(58.14854 -0.5248172 4130.255)
(70.39854 0.8413322 7552.109)
(70.85009 6.004008 11909.76)
(36.03408 21.07819 18319.07)
(38.95657 -1.059706 1198.613)
(47.94647 -1.63513 3851.64)
(60.00805 -1.478218 6947.221)
(74.58864 1.616073 10680.46)
(80.60366 14.26768 15506.54)
(43.72134 51.7108 20465.74)
(32.42611 1.781064 1133.548)
(39.43279 0.4928763 3620.656)
(49.26872 -1.009396 6475.483)
(62.78016 -2.057841 9819.188)
(80.33541 -0.08595961 13894.91)
(93.55623 12.62104 17336.25)
(52.09001 55.54375 20367.51)
(27.32296 9.638137 1075.589)
(32.77769 8.137102 3419.729)
(40.40517 5.738819 6078.868)
(51.16481 2.307591 9139.316)
(66.26498 -2.028426 12754.84)
(87.06334 -5.778062 15526.94)
(105.9218 -2.725821 17315.52)
(59.95823 20.16523 20142.83)
(23.35792 22.51722 1021.821)
(27.63112 21.30911 3236.326)
(33.5735 18.90887 5725.722)
(41.84888 14.76678 8554.995)
(53.54876 8.234948 11835.44)
(70.20944 -1.630348 14216.35)
(92.74524 -14.10152 15496.65)
(115.634 -28.83498 17208.84)
(65.78839 -49.67561 19760.02)
(20.27809 33.46993 970.4748)
(23.69469 32.89179 3063.574)
(28.38675 31.09685 5398.764)
(34.84387 27.605 8027.635)
(43.7845 21.59053 11034.87)
(56.40499 11.89871 13143.21)
(73.56626 -1.785763 14149.49)
(97.00701 -21.248 15390.4)
(121.3741 -51.54066 17009.18)
(68.60881 -113.4163 19246.36)
(17.85933 35.65808 922.755)
(20.64786 35.58 2904.58)
(24.44759 34.54713 5101.782)
(29.5982 32.17096 7556.605)
(36.61644 27.9114 10337.29)
(46.27086 20.84691 12238.65)
(59.12194 11.02745 13074.44)
(76.5836 -3.003194 14060.56)
(100.3629 -23.77312 15263.69)
(124.4025 -58.67653 16799.45)
(69.48133 -134.4319 16734.15)
(15.89608 29.77199 879.9356)
(18.22438 29.91587 2762.88)
(21.36977 29.41392 4839.416)
(25.59118 28.03488 7145.534)
(31.25158 25.43058 9737.928)
(38.89923 21.1013 11477.84)
(48.75756 15.21811 12195.12)
(61.83745 7.083045 13022.21)
(79.55896 -4.558678 13993.19)
(103.5036 -22.05274 15168.25)
(126.6207 -52.33529 14835.06)
(69.08946 -115.7743 12538.3)
(14.25338 19.16378 842.3134)
(16.22704 19.33397 2638.925)
(18.88614 19.1486 4611.321)
(22.4216 18.4902 6791.153)
(27.11106 17.18982 9227.1)
(33.34561 14.99699 10837.72)
(41.19891 12.10987 11468.15)
(51.29419 8.216205 12184.11)
(64.65005 2.855798 13007.42)
(82.69513 -4.807763 13970.46)
(106.9012 -16.39195 13490.61)
(128.0045 -35.51346 11270.98)
(68.56094 -75.87342 8739.762)
(12.84878 6.506255 809.5896)
(14.54034 6.583632 2531.422)
(16.8204 6.553071 4414.328)
(19.84036 6.382206 6487.022)
(23.80794 6.024613 8792.249)
(29.02457 5.413483 10297.82)
(35.46365 4.623739 10861.25)
(43.55663 3.587815 11495.22)
(53.94015 2.196732 12214.07)
(67.65154 0.2866518 13039.16)
(86.15055 -2.440995 12490.33)
(109.8119 -6.272198 10322.98)
(129.5339 -12.68037 7943.6)
(68.46645 -26.28973 5192.135)
(36.8939 -84.11019 1844.782)
(71.30658 -23.45839 1634.477)
(34.14472 -98.83862 5715.813)
(68.83596 -3.142985 1482.065)
(67.93383 -22.87925 4974.166)
(32.38566 -91.04949 9773.767)
(57.46979 1.363037 1366.566)
(68.77613 -2.237095 4486.204)
(67.43436 -16.76758 8400.35)
(32.79312 -61.94089 13972.79)
(47.27217 0.6993305 1274.571)
(58.14854 0.5248173 4130.255)
(70.39854 -0.8413332 7552.109)
(70.85009 -6.004011 11909.76)
(36.03408 -21.0782 18319.07)
(38.99188 -0.546606 1198.331)
(47.94542 -0.6922226 3851.164)
(59.85589 -0.5334322 6947.843)
(73.93327 0.7465028 10686.15)
(78.55724 5.572823 15531.19)
(42.29594 19.27197 20555.21)
(32.50758 -0.4033099 1133.368)
(39.52209 -1.046686 3620.624)
(49.31201 -1.646354 6477.102)
(62.59243 -1.608475 9826.151)
(79.34359 1.090987 13917.61)
(90.30849 12.41123 17400.9)
(49.84397 46.06858 20559.34)
(27.41938 2.712746 1076.398)
(32.91515 1.746686 3422.97)
(40.58035 0.3749891 6086.48)
(51.33469 -1.312973 9155.124)
(66.25371 -2.777866 12787.07)
(86.31175 -1.82933 15588.28)
(102.9227 8.885354 17437.5)
(57.94592 45.23711 20465.72)
(23.42872 10.48876 1024.864)
(27.75354 9.467473 3246.826)
(33.769 7.722435 5746.521)
(42.13845 4.950868 8590.844)
(53.93796 0.9095094 11894.74)
(70.63228 -4.512801 14303.93)
(92.89781 -9.508396 15621.78)
(114.7654 -9.363184 17418.76)
(65.40607 3.982903 20246.37)
(20.28062 22.85395 976.4438)
(23.74067 22.13201 3083.427)
(28.50091 20.43532 5436.215)
(35.06455 17.37828 8088.437)
(44.16581 12.3116 11128.01)
(57.02455 4.398534 13267.56)
(74.49479 -6.446598 14302.47)
(98.36686 -20.64644 15592.36)
(123.7652 -39.11794 17313.55)
(70.68467 -71.81688 19868.1)
(17.80685 33.18207 929.7397)
(20.62007 32.92636 2927.466)
(24.46429 31.69001 5144.08)
(29.68793 29.05855 7623.51)
(36.82596 24.46493 10436.43)
(46.6737 16.94108 12365.49)
(59.81589 6.468716 13221.39)
(77.72936 -8.371213 14236.63)
(102.3592 -29.7551 15486.84)
(128.6864 -63.93308 17114.51)
(72.8777 -137.3571 17246.55)
(15.8274 35.02625 885.9924)
(18.16678 35.11629 2782.554)
(21.33491 34.3981 4875.364)
(25.59729 32.57592 7201.589)
(31.3258 29.19838 9819.49)
(39.08689 23.62834 11579.94)
(49.11668 16.01373 12309.94)
(62.46342 5.452918 13153.96)
(80.62602 -9.6371 14148.75)
(105.4699 -32.09039 15360.85)
(131.034 -70.21103 15068.34)
(72.39956 -150.3297 12838.92)
(14.19704 29.13718 846.5043)
(16.17484 29.34914 2652.457)
(18.84407 29.00102 4635.863)
(22.3989 27.9038 6829.069)
(27.12209 25.78663 9281.642)
(33.41233 22.2436 10905.09)
(41.34908 17.57108 11542.69)
(51.57096 11.25315 12267.66)
(65.12667 2.542892 13102.8)
(83.51121 -9.901961 14082.19)
(108.4311 -28.63383 13612.6)
(131.3983 -59.27573 11394.78)
(71.02971 -124.257 8880.163)
(12.81589 18.71475 811.6464)
(14.50848 18.90794 2538.03)
(16.79188 18.78372 4426.243)
(19.81873 18.24678 6505.306)
(23.7986 17.15932 8818.334)
(29.03589 15.3234 10329.76)
(35.50496 12.95324 10896.22)
(43.64272 9.849002 11533.89)
(54.09414 5.682508 12257.39)
(67.91336 -0.03506476 13088.51)
(86.5977 -8.190558 12541.83)
(110.6385 -19.63426 10370.87)
(131.3439 -38.68155 7987.915)
(69.7571 -79.20606 5233.406)
(11.61774 6.342963 781.2166)
(13.08435 6.423983 2438.36)
(15.06032 6.407507 4244.289)
(17.67502 6.265997 6225.721)
(21.09503 5.961289 8420.967)
(25.54926 5.438938 9839.723)
(30.96296 4.777184 10349.98)
(37.63574 3.926947 10920.25)
(46.01163 2.817109 11561.31)
(56.74852 1.333444 12287.48)
(70.91819 -0.6972272 11708.06)
(89.16947 -3.344644 9608.125)
(112.5287 -7.08419 7319.716)
(131.6829 -13.38323 4758.401)
(69.04546 -26.83543 1735.243)
(39.31783 -54.8524 1784.367)
(75.87284 -22.03988 1614.751)
(37.81403 -79.76665 5572.16)
(70.09891 -4.939855 1476.627)
(72.97189 -22.20744 4939.54)
(36.21589 -92.46052 9613.453)
(57.70557 1.065047 1365.746)
(69.95707 -2.836182 4479.408)
(71.49178 -21.46698 8369.584)
(35.76764 -84.91933 13838.99)
(47.27466 1.632999 1274.748)
(58.30798 1.398906 4129.963)
(71.08401 -1.993588 7548.215)
(73.02453 -15.70875 11891.05)
(37.58462 -57.45282 18238.6)
(38.99188 0.5466062 1198.331)
(47.94542 0.6922227 3851.164)
(59.85589 0.5334323 6947.843)
(73.93327 -0.7465038 10686.15)
(78.55724 -5.572826 15531.19)
(42.29594 -19.27197 20555.21)
(32.54417 -0.3462619 1133.045)
(39.55798 -0.5353272 3619.825)
(49.31389 -0.6802683 6476.427)
(62.45126 -0.5496603 9827.22)
(78.72869 0.6139689 13925.3)
(88.42516 5.017955 17428.42)
(48.54122 17.49958 20647.11)
(27.48074 0.1208807 1076.146)
(32.99745 -0.3831906 3422.509)
(40.6731 -1.026474 6086.652)
(51.38875 -1.672864 9157.805)
(66.09868 -1.799514 12796.78)
(85.42769 0.4001256 15614.03)
(100.0105 10.58067 17501.31)
(55.95349 40.5266 20654.23)
(23.49175 3.358897 1025.513)
(27.85151 2.690443 3249.352)
(33.91133 1.669836 5752.256)
(42.3257 0.1815272 8602.195)
(54.13669 -1.748924 11916.35)
(70.69436 -3.735441 14340.7)
(92.31759 -3.569784 15683.02)
(112.2942 5.189673 17539.59)
(63.7945 35.08753 20564.73)
(20.3157 10.97643 979.159)
(23.81444 10.34108 3092.659)
(28.63124 9.117093 5454.154)
(35.27655 7.075745 8118.598)
(44.48804 3.850838 11176.11)
(57.47973 -0.9288559 13334.82)
(75.03346 -7.00228 14390.11)
(98.76498 -13.23306 15717.34)
(123.6238 -15.95594 17522.41)
(70.85405 -12.02314 20350.22)
(17.78395 22.89331 935.1929)
(20.62713 22.50659 2945.448)
(24.52143 21.35381 5177.634)
(29.82347 19.09353 7677.223)
(37.08459 15.27035 10517.2)
(47.12187 9.117117 12470.4)
(60.53256 0.570563 13345.27)
(78.81497 -11.25529 14389.2)
(104.0238 -27.17902 15688.41)
(131.9205 -49.36453 17418.2)
(75.588 -93.82983 17798.13)
(15.76307 32.71618 892.4327)
(18.11902 32.68455 2803.529)
(21.31827 31.83522 4913.842)
(25.63438 29.85772 7261.887)
(31.44974 26.2721 9907.772)
(39.35226 20.40876 11691.13)
(49.59279 12.32039 12435.91)
(63.25933 1.065647 13300.05)
(81.92768 -14.9316 14323.97)
(107.7478 -38.23652 15583.11)
(136.0271 -76.29044 15348.04)
(76.20282 -155.9756 13227.91)
(14.12487 34.328 852.1232)
(16.10993 34.52637 2670.623)
(18.79516 34.03211 4668.868)
(22.37951 32.60296 6880.174)
(27.15331 29.89302 9355.364)
(33.52591 25.3772 10996.38)
(41.5855 19.37972 11643.94)
(51.99285 11.21555 12381.6)
(65.83778 -0.08591036 13233.61)
(84.70394 -16.23421 14236.74)
(110.6137 -40.36773 13783.52)
(136.205 -79.19599 11572.06)
(74.54877 -162.0161 9091.268)
(12.75926 28.48684 815.5525)
(14.45457 28.74479 2550.593)
(16.74523 28.50407 4448.923)
(19.78636 27.61397 6540.148)
(23.79132 25.85309 8868.112)
(29.07044 22.90433 10390.76)
(35.59991 19.08398 10963.03)
(43.82759 14.06969 11607.82)
(54.41512 7.318654 12340.29)
(68.44907 -1.964646 13183.19)
(87.49919 -15.20977 12640.99)
(112.2799 -33.76915 10463.68)
(134.9192 -64.3787 8074.838)
(72.31076 -129.8345 5316.589)
(11.58511 18.26861 783.1419)
(13.05258 18.47624 2444.525)
(15.03098 18.39692 4255.359)
(17.65089 17.95016 6242.626)
(21.08025 17.02358 8444.949)
(25.55021 15.45567 9868.893)
(30.98637 13.47238 10381.67)
(37.69153 10.92585 10954.97)
(46.11548 7.605586 11599.71)
(56.92504 3.167533 12330.5)
(71.20988 -2.905526 11751.9)
(89.64999 -10.83401 9647.354)
(113.3957 -22.02001 7353.354)
(133.5501 -40.76298 4784.636)
(70.35602 -80.85161 1748.886)
(10.55375 6.179959 754.7623)
(11.83705 6.26595 2351.798)
(13.56728 6.259687 4086.613)
(15.8512 6.140816 5984.391)
(18.83092 5.876861 8079.736)
(22.69041 5.422937 9421.033)
(27.31511 4.857791 9885.586)
(32.92725 4.145668 10402.34)
(39.83517 3.235217 10979.33)
(48.49559 2.05179 11627.27)
(59.58767 0.4759411 11034.23)
(73.47596 -1.467 9010.995)
(91.3985 -4.010129 6815.367)
(114.3249 -7.617751 4385.467)
(132.7605 -13.72978 1590.492)
(40.13263 -29.76634 1728.644)
(78.5759 -22.46512 1586.165)
(40.11064 -50.20687 5391.589)
(70.92611 -11.417 1465.32)
(77.39069 -20.10738 4880.282)
(39.66141 -71.14126 9373.784)
(57.85725 -2.556885 1362.665)
(71.18616 -4.270045 4462.913)
(76.31818 -19.70301 8311.411)
(39.35288 -82.83928 13612.26)
(47.24184 0.7316005 1274.517)
(58.53576 1.221061 4127.376)
(72.22312 -2.211324 7536.583)
(76.88257 -19.32168 11847.26)
(40.35259 -76.62814 18063.32)
(38.95657 1.059706 1198.613)
(47.94647 1.63513 3851.64)
(60.00805 1.478218 6947.221)
(74.58864 -1.616074 10680.46)
(80.60366 -14.26769 15506.54)
(43.72134 -51.71079 20465.74)
(32.54417 0.346262 1133.045)
(39.55798 0.5353273 3619.825)
(49.31389 0.6802684 6476.427)
(62.45126 0.5496605 9827.22)
(78.72869 -0.6139699 13925.3)
(88.42516 -5.017958 17428.42)
(48.54122 -17.49959 20647.11)
(27.50935 -0.1807013 1075.81)
(33.03426 -0.3333369 3421.578)
(40.71022 -0.5146667 6085.421)
(51.39511 -0.6651966 9157.026)
(65.97237 -0.5762 12798.45)
(84.86425 0.4386344 15622.78)
(98.28692 4.472112 17528.37)
(54.77091 15.7612 20740.3)
(23.53359 0.4963721 1025.225)
(27.91332 0.1443959 3248.661)
(33.99544 -0.3476497 5751.675)
(42.4238 -1.004287 8602.78)
(54.2055 -1.722413 11920.41)
(70.58122 -2.063741 14351.98)
(91.53927 -0.2891212 15708.71)
(109.711 8.776516 17602.53)
(62.0508 35.08516 20749.93)
(20.35269 3.761494 979.6933)
(23.87857 3.34446 3094.687)
(28.73251 2.63936 5458.643)
(35.4265 1.540522 8127.216)
(44.69198 -0.1024657 11191.78)
(57.71584 -2.33988 13359.65)
(75.16826 -4.700026 14427.06)
(98.35354 -5.306449 15778.45)
(121.6718 1.534802 17642.07)
(69.63657 25.09475 20664.08)
(17.79407 11.20942 937.6429)
(20.66458 10.84645 2953.679)
(24.60131 10.03837 5193.396)
(29.96604 8.570343 7703.24)
(37.31941 6.171295 10557.69)
(47.48663 2.400059 12524.98)
(61.05373 -2.773755 13412.61)
(79.46897 -9.496339 14476.92)
(104.6652 -16.95163 15813.23)
(132.4979 -22.50416 17626.04)
(76.30279 -27.85626 18224.73)
(15.72338 22.72611 897.4482)
(18.09994 22.57718 2819.951)
(21.33452 21.80546 4944.217)
(25.70866 20.15937 7309.99)
(31.61471 17.24611 9979.09)
(39.66023 12.52782 11782.05)
(50.10785 5.931811 12540.33)
(64.07312 -3.250413 13423.52)
(83.17016 -16.05828 14476.24)
(109.7161 -33.70179 15784.4)
(140.1 -59.57891 15617.82)
(79.4059 -110.9443 13646.62)
(14.05337 32.14183 858.0913)
(16.04967 32.25795 2689.962)
(18.75687 31.68617 4704.125)
(22.37989 30.17225 6935.005)
(27.21831 27.35399 9434.89)
(33.6941 22.67454 11095.35)
(41.90651 16.38047 11754.31)
(52.54202 7.725745 12506.75)
(66.73539 -4.313661 13378.91)
(86.16108 -21.47071 14411.2)
(113.1725 -46.697 13980.95)
(141.7488 -85.91229 11784.55)
(78.65113 -169.6652 9364.525)
(12.68518 33.58953 820.7867)
(14.38569 33.86453 2567.447)
(16.68783 33.52605 4479.396)
(19.75065 32.38579 6587.057)
(23.79304 30.16063 8935.297)
(29.13406 26.446 10473.25)
(35.75257 21.58805 11053.55)
(44.11247 15.16353 11708.27)
(54.89944 6.450041 12453.38)
(69.24488 -5.591705 13313.12)
(88.81697 -22.79763 12778.19)
(114.6305 -46.82417 10593.71)
(140.0148 -85.80186 8199.317)
(75.96737 -169.7041 5441.721)
(11.52853 27.83005 786.7956)
(12.9981 28.12123 2456.235)
(14.98193 27.96051 4276.414)
(17.61264 27.22304 6274.816)
(21.06108 25.731 8490.675)
(25.56277 23.22529 9924.552)
(31.04426 20.04712 10442.15)
(37.81447 15.95067 11021.23)
(46.33481 10.59588 11673.06)
(57.28993 3.41321 12412.78)
(71.80429 -6.441207 11835.96)
(90.6178 -19.35655 9722.876)
(115.1188 -37.54748 7418.549)
(137.2447 -67.73181 4836.092)
(72.9517 -132.5896 1776.382)
(10.52214 17.8226 756.5707)
(11.80542 18.04545 2357.569)
(13.53774 17.99976 4096.938)
(15.8257 17.62292 6000.093)
(18.81273 16.81989 8101.902)
(22.68445 15.45846 9447.846)
(27.32627 13.76615 9914.533)
(32.96266 11.63631 10433.8)
(39.90534 8.914285 11013.8)
(48.61708 5.378973 11665.41)
(59.78656 0.6705352 11072.45)
(73.79086 -5.151033 9044.422)
(91.90349 -12.78057 6842.941)
(115.2184 -23.58759 4405.38)
(134.656 -41.78918 1599.155)
(9.63152 6.026894 730.0351)
(10.75847 6.107622 2271.048)
(12.28699 6.112147 3939.9)
(14.3019 6.010945 5760.607)
(16.92077 5.779414 7764.649)
(20.30029 5.379363 9036.163)
(24.30927 4.888778 9460.886)
(29.10562 4.281053 9931.63)
(34.91746 3.518792 10454.78)
(42.06186 2.548376 11038.33)
(51.00824 1.29166 10441.98)
(61.81285 -0.1956071 8496.205)
(75.36587 -2.034303 6393.811)
(92.87309 -4.447569 4083.761)
(115.2272 -7.880717 1465.836)
(40.04637 -15.20075 1685.471)
(79.27819 -22.48095 1556.098)
(40.82281 -25.81048 5224.781)
(71.079 -20.79893 1446.685)
(79.92663 -20.119 4794.4)
(41.70659 -40.95726 9071.742)
(57.77221 -12.23902 1354.916)
(71.96545 -10.21932 4428.734)
(80.44654 -16.23429 8211.661)
(42.46252 -58.09822 13272.49)
(47.11347 -4.27342 1272.533)
(58.67362 -2.123657 4117.929)
(73.38535 -2.912908 7508.495)
(81.39172 -15.89052 11764.27)
(43.60784 -69.80024 17765.8)
(38.86891 -0.5468194 1198.656)
(47.9102 0.8202026 3850.83)
(60.21988 1.546412 6942.603)
(75.665 -1.247375 10663.58)
(84.19342 -16.39591 15448.76)
(46.2259 -66.00746 20270.6)
(32.50758 0.40331 1133.368)
(39.52209 1.046686 3620.624)
(49.31201 1.646354 6477.102)
(62.59243 1.608475 9826.151)
(79.34359 -1.090987 13917.61)
(90.30849 -12.41123 17400.9)
(49.84397 -46.06857 20559.34)
(27.50935 0.1807016 1075.81)
(33.03426 0.3333371 3421.578)
(40.71022 0.5146669 6085.421)
(51.39511 0.6651966 9157.026)
(65.97237 0.5762002 12798.45)
(84.86425 -0.4386355 15622.78)
(98.28692 -4.472115 17528.37)