/*--------------------------------*- C++ -*----------------------------------*\
| =========                 |                                                 |
| \\      /  F ield         | OpenFOAM: The Open Source CFD Toolbox           |
|  \\    /   O peration     | Version:  2306                                  |
|   \\  /    A nd           | Website:  www.openfoam.com                      |
|    \\/     M anipulation  |                                                 |
\*---------------------------------------------------------------------------*/
FoamFile
{
    version     2.0;
    format      ascii;
    arch        "LSB;label=32;scalar=64";
    class       volScalarField;
    location    "0.9/phiI";
    object      J;
}
// * * * * * * * * * * * * * * * * * * * * * * * * * * * * * * * * * * * * * //

dimensions      [0 -3 0 0 0 1 0];

internalField   nonuniform List<scalar> 
12000
(
-8.069308e+08
-8.141652e+08
-7.38515e+08
-8.122904e+08
-8.287817e+08
-7.431546e+08
-8.196308e+08
-6.811573e+08
-7.432006e+08
-8.267753e+08
-8.506933e+08
-7.52287e+08
-8.344588e+08
-6.846908e+08
-7.479111e+08
-8.34375e+08
-6.353944e+08
-6.853358e+08
-7.557299e+08
-8.507952e+08
-8.789667e+08
-7.652735e+08
-8.566735e+08
-6.915713e+08
-7.571851e+08
-8.49728e+08
-6.382932e+08
-6.889232e+08
-7.606058e+08
-8.58819e+08
-5.974723e+08
-6.391919e+08
-6.963665e+08
-7.76418e+08
-8.852059e+08
-9.098128e+08
-7.805848e+08
-8.852833e+08
-7.011358e+08
-7.70381e+08
-8.727272e+08
-6.439056e+08
-6.959113e+08
-7.702099e+08
-8.750347e+08
-5.999447e+08
-6.421344e+08
-7.000775e+08
-7.815605e+08
-8.938418e+08
-5.649772e+08
-6.009645e+08
-6.490992e+08
-7.14498e+08
-8.059315e+08
0
-9.346351e+08
-7.95096e+08
-9.163624e+08
-7.119443e+08
-7.859582e+08
-9.023157e+08
-6.516153e+08
-7.056353e+08
-7.838898e+08
-8.993371e+08
-6.047155e+08
-6.478338e+08
-7.073103e+08
-7.91696e+08
-9.11305e+08
-5.671361e+08
-6.034737e+08
-6.52141e+08
-7.184065e+08
-8.114542e+08
0
-5.365619e+08
-5.682128e+08
-6.099824e+08
-6.653195e+08
-7.402627e+08
0
0
-9.515557e+08
-8.050918e+08
-9.412804e+08
-7.213973e+08
-8.007544e+08
-9.343556e+08
-6.601333e+08
-7.16652e+08
-8.000694e+08
-9.305956e+08
-6.112256e+08
-6.556723e+08
-7.173901e+08
-8.061539e+08
-9.375026e+08
-5.712926e+08
-6.083174e+08
-6.580361e+08
-7.260299e+08
-8.223479e+08
0
-5.384793e+08
-5.704032e+08
-6.125744e+08
-6.68519e+08
-7.444509e+08
0
0
-5.113224e+08
-5.395764e+08
-5.764944e+08
-6.246956e+08
-6.882922e+08
0
0
0
-9.617094e+08
-8.110198e+08
-9.581979e+08
-7.270378e+08
-8.109527e+08
-9.599635e+08
-6.672485e+08
-7.263456e+08
-8.154845e+08
-9.643756e+08
-6.183278e+08
-6.643593e+08
-7.288474e+08
-8.232967e+08
-9.712214e+08
-5.769412e+08
-6.149349e+08
-6.661576e+08
-7.366741e+08
-8.379152e+08
0
-5.421648e+08
-5.746222e+08
-6.175812e+08
-6.747249e+08
-7.526272e+08
0
0
-5.130461e+08
-5.415213e+08
-5.787558e+08
-6.27419e+08
-6.917143e+08
0
0
0
-4.886676e+08
-5.141428e+08
-5.472333e+08
-5.899663e+08
-6.454756e+08
0
0
0
0
-9.664263e+08
-8.142234e+08
-9.683141e+08
-7.297464e+08
-8.169812e+08
-9.772882e+08
-6.710766e+08
-7.321725e+08
-8.26121e+08
-9.913068e+08
-6.241064e+08
-6.716747e+08
-7.389988e+08
-8.396899e+08
-1.00763e+09
-5.830575e+08
-6.22178e+08
-6.751935e+08
-7.488198e+08
-8.56429e+08
0
-5.471603e+08
-5.803625e+08
-6.244334e+08
-6.832924e+08
-7.640687e+08
0
0
-5.163551e+08
-5.452612e+08
-5.831139e+08
-6.326836e+08
-6.983578e+08
0
0
0
-4.902322e+08
-5.158908e+08
-5.492399e+08
-5.923398e+08
-6.483835e+08
0
0
0
0
-4.681508e+08
-4.913157e+08
-5.212592e+08
-5.596566e+08
-6.089477e+08
0
0
0
0
0
-9.664263e+08
-8.156214e+08
-9.730028e+08
-7.308642e+08
-8.202212e+08
-9.876167e+08
-6.725613e+08
-7.349878e+08
-8.323936e+08
-1.009474e+09
-6.270037e+08
-6.756627e+08
-7.451501e+08
-8.510179e+08
-1.036605e+09
-5.879559e+08
-6.281242e+08
-6.828722e+08
-7.596617e+08
-8.742078e+08
0
-5.525443e+08
-5.865983e+08
-6.319647e+08
-6.928678e+08
-7.771798e+08
0
0
-5.208323e+08
-5.503362e+08
-5.89054e+08
-6.399046e+08
-7.075517e+08
0
0
0
-4.932321e+08
-5.192477e+08
-5.531008e+08
-5.969176e+08
-6.540103e+08
0
0
0
0
-4.695816e+08
-4.92902e+08
-5.230616e+08
-5.617607e+08
-6.114781e+08
0
0
0
0
0
-4.494447e+08
-4.706444e+08
-4.979585e+08
-5.327793e+08
-5.771241e+08
0
0
0
0
0
9.75223e+08
-9.617094e+08
-8.156214e+08
-9.730028e+08
-7.312393e+08
-8.216281e+08
-9.923941e+08
-6.729351e+08
-7.361559e+08
-8.3575e+08
-1.020278e+09
-6.279316e+08
-6.772431e+08
-7.48146e+08
-8.576881e+08
-1.056108e+09
-5.902946e+08
-6.311575e+08
-6.871181e+08
-7.662864e+08
-8.865143e+08
0
-5.568142e+08
-5.916388e+08
-6.382107e+08
-7.010842e+08
-7.889743e+08
0
0
-5.256428e+08
-5.558232e+08
-5.955342e+08
-6.478796e+08
-7.17878e+08
0
0
0
-4.972861e+08
-5.237947e+08
-5.583491e+08
-6.031709e+08
-6.617472e+08
0
0
0
0
-4.723223e+08
-4.959446e+08
-5.26525e+08
-5.658122e+08
-6.163635e+08
0
0
0
0
0
-4.507616e+08
-4.720948e+08
-4.995932e+08
-5.346675e+08
-5.793643e+08
0
0
0
0
0
9.831533e+08
-4.32293e+08
-4.51799e+08
-4.768676e+08
-5.086902e+08
-5.489469e+08
0
0
0
0
0
8.894939e+08
9.350846e+08
-9.515557e+08
-8.142234e+08
-9.683141e+08
-7.312393e+08
-8.216281e+08
-9.923941e+08
-6.729582e+08
-7.365499e+08
-8.372015e+08
-1.025268e+09
-6.280028e+08
-6.776652e+08
-7.494003e+08
-8.612457e+08
-1.067686e+09
-5.909291e+08
-6.321681e+08
-6.888424e+08
-7.695424e+08
-8.937549e+08
0
-5.587832e+08
-5.940937e+08
-6.414567e+08
-7.056935e+08
-7.962399e+08
0
0
-5.294334e+08
-5.602151e+08
-6.00828e+08
-6.545656e+08
-7.268265e+08
0
0
0
-5.016326e+08
-5.286951e+08
-5.640471e+08
-6.100265e+08
-6.703371e+08
0
0
0
0
-4.760225e+08
-5.000604e+08
-5.312243e+08
-5.713318e+08
-6.230539e+08
0
0
0
0
0
-4.532814e+08
-4.748737e+08
-5.027306e+08
-5.382986e+08
-5.836821e+08
0
0
0
0
0
9.991471e+08
-4.335114e+08
-4.531335e+08
-4.783615e+08
-5.104012e+08
-5.509547e+08
0
0
0
0
0
8.944939e+08
9.424596e+08
-4.164939e+08
-4.345207e+08
-4.576476e+08
-4.869035e+08
-5.237267e+08
0
0
0
0
0
8.15578e+08
8.550996e+08
9.066894e+08
-9.346351e+08
-8.110198e+08
-9.581979e+08
-7.308642e+08
-8.202212e+08
-9.876167e+08
-6.729582e+08
-7.365499e+08
-8.372015e+08
-1.025268e+09
-6.278935e+08
-6.777077e+08
-7.498275e+08
-8.627793e+08
-1.073026e+09
-5.908638e+08
-6.32282e+08
-6.893334e+08
-7.709213e+08
-8.976081e+08
0
-5.592469e+08
-5.947995e+08
-6.425861e+08
-7.076134e+08
-7.998452e+08
0
0
-5.311362e+08
-5.622844e+08
-6.034628e+08
-6.581069e+08
-7.319171e+08
0
0
0
-5.050424e+08
-5.325915e+08
-5.686571e+08
-6.156913e+08
-6.776185e+08
0
0
0
0
-4.79984e+08
-5.044861e+08
-5.363096e+08
-5.77354e+08
-6.304284e+08
0
0
0
0
0
-4.566812e+08
-4.786293e+08
-5.069817e+08
-5.432361e+08
-5.895794e+08
0
0
0
0
0
1.023297e+09
-4.358405e+08
-4.556879e+08
-4.812255e+08
-5.136877e+08
-5.548196e+08
0
0
0
0
0
9.043014e+08
9.573231e+08
-4.176263e+08
-4.357551e+08
-4.590214e+08
-4.884658e+08
-5.25544e+08
0
0
0
0
0
8.193428e+08
8.597731e+08
9.136933e+08
-4.018812e+08
-4.186062e+08
-4.400324e+08
-4.67064e+08
-5.009445e+08
0
0
0
0
0
7.558442e+08
7.85847e+08
8.305706e+08
8.892001e+08
-9.098128e+08
-8.050918e+08
-9.412804e+08
-7.297464e+08
-8.169812e+08
-9.772882e+08
-6.729351e+08
-7.361559e+08
-8.3575e+08
-1.020278e+09
-6.278935e+08
-6.777077e+08
-7.498275e+08
-8.627793e+08
-1.073026e+09
-5.907025e+08
-6.321902e+08
-6.894026e+08
-7.713967e+08
-8.992653e+08
0
-5.591168e+08
-5.947711e+08
-6.427569e+08
-7.081958e+08
-8.013912e+08
0
0
-5.314903e+08
-5.628098e+08
-6.042688e+08
-6.593937e+08
-7.340906e+08
0
0
0
-5.065432e+08
-5.343818e+08
-5.708813e+08
-6.18574e+08
-6.815466e+08
0
0
0
0
-4.830821e+08
-5.079888e+08
-5.403964e+08
-5.822834e+08
-6.365936e+08
0
0
0
0
0
-4.603173e+08
-4.826612e+08
-5.115711e+08
-5.486054e+08
-5.96049e+08
0
0
0
0
0
1.054813e+09
-4.389813e+08
-4.591375e+08
-4.851022e+08
-5.181502e+08
-5.600884e+08
0
0
0
0
0
9.184251e+08
9.79747e+08
-4.19789e+08
-4.381156e+08
-4.616526e+08
-4.914634e+08
-5.29038e+08
0
0
0
0
0
8.266353e+08
8.689354e+08
9.278058e+08
-4.029379e+08
-4.197532e+08
-4.413025e+08
-4.684997e+08
-5.02602e+08
0
0
0
0
0
7.589092e+08
7.893814e+08
8.350207e+08
8.959977e+08
-3.883191e+08
-4.038878e+08
-4.238131e+08
-4.488934e+08
-4.80221e+08
0
0
0
0
0
7.060122e+08
7.296859e+08
7.645194e+08
8.152554e+08
8.815689e+08
-8.789667e+08
-7.95096e+08
-9.163624e+08
-7.270378e+08
-8.109527e+08
-9.599635e+08
-6.725613e+08
-7.349878e+08
-8.323936e+08
-1.009474e+09
-6.280028e+08
-6.776652e+08
-7.494003e+08
-8.612457e+08
-1.067686e+09
-5.907025e+08
-6.321902e+08
-6.894026e+08
-7.713967e+08
-8.992653e+08
0
-5.589365e+08
-5.946251e+08
-6.426872e+08
-7.082996e+08
-8.019316e+08
0
0
-5.313282e+08
-5.627118e+08
-6.042886e+08
-6.59637e+08
-7.34789e+08
0
0
0
-5.068224e+08
-5.347899e+08
-5.71493e+08
-6.195114e+08
-6.830336e+08
0
0
0
0
-4.844234e+08
-5.095666e+08
-5.423219e+08
-5.847204e+08
-6.397991e+08
0
0
0
0
0
-4.631544e+08
-4.858413e+08
-5.152418e+08
-5.529712e+08
-6.014084e+08
0
0
0
0
0
1.08886e+09
-4.423381e+08
-4.628367e+08
-4.892804e+08
-5.229914e+08
-5.658492e+08
0
0
0
0
0
9.35564e+08
1.00898e+09
-4.227042e+08
-4.413016e+08
-4.652115e+08
-4.955296e+08
-5.337943e+08
0
0
0
0
0
8.369119e+08
8.821221e+08
9.49094e+08
-4.049542e+08
-4.219446e+08
-4.437329e+08
-4.712516e+08
-5.057854e+08
0
0
0
0
0
7.648029e+08
7.962242e+08
8.437428e+08
9.096981e+08
-3.893089e+08
-4.04958e+08
-4.249928e+08
-4.502198e+08
-4.817426e+08
0
0
0
0
0
7.086094e+08
7.325735e+08
7.678938e+08
8.195749e+08
8.883021e+08
-3.756962e+08
-3.902285e+08
-4.088177e+08
-4.321732e+08
-4.612597e+08
0
0
0
0
0
6.631321e+08
6.826959e+08
7.108448e+08
7.510793e+08
8.08341e+08
-8.506933e+08
-7.805848e+08
-8.852833e+08
-7.213973e+08
-8.007544e+08
-9.343556e+08
-6.710766e+08
-7.321725e+08
-8.26121e+08
-9.913068e+08
-6.279316e+08
-6.772431e+08
-7.48146e+08
-8.576881e+08
-1.056108e+09
-5.908638e+08
-6.32282e+08
-6.893334e+08
-7.709213e+08
-8.976081e+08
0
-5.589365e+08
-5.946251e+08
-6.426872e+08
-7.082996e+08
-8.019316e+08
0
0
-5.31143e+08
-5.625448e+08
-6.041612e+08
-6.595944e+08
-7.349359e+08
0
0
0
-5.066451e+08
-5.346559e+08
-5.714365e+08
-6.195914e+08
-6.833665e+08
0
0
0
0
-4.846491e+08
-5.098935e+08
-5.428054e+08
-5.854447e+08
-6.409022e+08
0
0
0
0
0
-4.643662e+08
-4.872511e+08
-5.169391e+08
-5.550826e+08
-6.04122e+08
0
0
0
0
0
1.114581e+09
-4.449529e+08
-4.65747e+08
-4.926103e+08
-5.269089e+08
-5.705905e+08
0
0
0
0
0
9.522633e+08
1.040521e+09
-4.258183e+08
-4.447153e+08
-4.690424e+08
-4.999329e+08
-5.389821e+08
0
0
0
0
0
8.489436e+08
8.981134e+08
9.768513e+08
-4.076712e+08
-4.249009e+08
-4.470181e+08
-4.749814e+08
-5.101143e+08
0
0
0
0
0
7.730021e+08
8.058624e+08
8.562937e+08
9.303784e+08
-3.911954e+08
-4.070005e+08
-4.27248e+08
-4.527598e+08
-4.84662e+08
0
0
0
0
0
7.135798e+08
7.381236e+08
7.744249e+08
8.280413e+08
9.018823e+08
-3.766264e+08
-3.912306e+08
-4.099179e+08
-4.334043e+08
-4.626641e+08
0
0
0
0
0
6.653871e+08
6.851501e+08
7.136082e+08
7.543574e+08
8.126101e+08
-3.639179e+08
-3.775159e+08
-3.949055e+08
-4.167236e+08
-4.438277e+08
0
0
0
0
0
6.254778e+08
6.42156e+08
6.658509e+08
6.988998e+08
7.448894e+08
-8.287817e+08
-7.652735e+08
-8.566735e+08
-7.119443e+08
-7.859582e+08
-9.023157e+08
-6.672485e+08
-7.263456e+08
-8.154845e+08
-9.643756e+08
-6.270037e+08
-6.756627e+08
-7.451501e+08
-8.510179e+08
-1.036605e+09
-5.909291e+08
-6.321681e+08
-6.888424e+08
-7.695424e+08
-8.937549e+08
0
-5.591168e+08
-5.947711e+08
-6.427569e+08
-7.081958e+08
-8.013912e+08
0
0
-5.31143e+08
-5.625448e+08
-6.041612e+08
-6.595944e+08
-7.349359e+08
0
0
0
-5.064616e+08
-5.344824e+08
-5.712855e+08
-6.194863e+08
-6.833564e+08
0
0
0
0
-4.844656e+08
-5.09741e+08
-5.427076e+08
-5.854396e+08
-6.410554e+08
0
0
0
0
0
-4.645524e+08
-4.875194e+08
-5.173327e+08
-5.556643e+08
-6.049876e+08
0
0
0
0
0
1.130815e+09
-4.460572e+08
-4.670202e+08
-4.941267e+08
-5.287704e+08
-5.729429e+08
0
0
0
0
0
9.635071e+08
1.06426e+09
-4.282408e+08
-4.473958e+08
-4.720872e+08
-5.03483e+08
-5.432315e+08
0
0
0
0
0
8.600148e+08
9.136808e+08
1.006811e+09
-4.105725e+08
-4.280666e+08
-4.505511e+08
-4.790151e+08
-5.148275e+08
0
0
0
0
0
7.823919e+08
8.171401e+08
8.715133e+08
9.573806e+08
-3.937372e+08
-4.097551e+08
-4.302949e+08
-4.562001e+08
-4.886287e+08
0
0
0
0
0
7.204357e+08
7.458413e+08
7.836222e+08
8.402275e+08
9.224089e+08
-3.783977e+08
-3.931413e+08
-4.12019e+08
-4.357595e+08
-4.653561e+08
0
0
0
0
0
6.696886e+08
6.89845e+08
7.189177e+08
7.607019e+08
8.209807e+08
-3.647946e+08
-3.784577e+08
-3.959354e+08
-4.17871e+08
-4.4513e+08
0
0
0
0
0
6.274694e+08
6.442925e+08
6.682044e+08
7.015872e+08
7.481269e+08
-3.529018e+08
-3.656549e+08
-3.819613e+08
-4.023978e+08
-4.27734e+08
0
0
0
0
0
5.918938e+08
6.06473e+08
6.269656e+08
6.551264e+08
6.933366e+08
-8.141652e+08
-7.52287e+08
-8.344588e+08
-7.011358e+08
-7.70381e+08
-8.727272e+08
-6.601333e+08
-7.16652e+08
-8.000694e+08
-9.305956e+08
-6.241064e+08
-6.716747e+08
-7.389988e+08
-8.396899e+08
-1.00763e+09
-5.902946e+08
-6.311575e+08
-6.871181e+08
-7.662864e+08
-8.865143e+08
0
-5.592469e+08
-5.947995e+08
-6.425861e+08
-7.076134e+08
-7.998452e+08
0
0
-5.313282e+08
-5.627118e+08
-6.042886e+08
-6.59637e+08
-7.34789e+08
0
0
0
-5.064616e+08
-5.344824e+08
-5.712855e+08
-6.194863e+08
-6.833564e+08
0
0
0
0
-4.84287e+08
-5.095678e+08
-5.425481e+08
-5.853076e+08
-6.409767e+08
0
0
0
0
0
-4.64368e+08
-4.87358e+08
-5.172122e+08
-5.556112e+08
-6.050445e+08
0
0
0
0
0
1.140028e+09
-4.462132e+08
-4.672445e+08
-4.944545e+08
-5.292509e+08
-5.736475e+08
0
0
0
0
0
9.697245e+08
1.079193e+09
-4.29254e+08
-4.485554e+08
-4.734563e+08
-5.051461e+08
-5.45306e+08
0
0
0
0
0
8.668573e+08
9.241334e+08
1.029298e+09
-4.128272e+08
-4.305484e+08
-4.533531e+08
-4.82258e+08
-5.18674e+08
0
0
0
0
0
7.90722e+08
8.275087e+08
8.86328e+08
9.865842e+08
-3.964511e+08
-4.127034e+08
-4.335692e+08
-4.599171e+08
-4.929415e+08
0
0
0
0
0
7.281689e+08
7.546741e+08
7.943818e+08
8.550138e+08
9.492779e+08
-3.807837e+08
-3.957177e+08
-4.148566e+08
-4.38948e+08
-4.690113e+08
0
0
0
0
0
6.755853e+08
6.963176e+08
7.262991e+08
7.696369e+08
8.330363e+08
-3.664618e+08
-3.802513e+08
-3.979e+08
-4.200638e+08
-4.476239e+08
0
0
0
0
0
6.312599e+08
6.483663e+08
6.727051e+08
7.067503e+08
7.543938e+08
-3.5373e+08
-3.665421e+08
-3.829287e+08
-4.03471e+08
-4.289467e+08
0
0
0
0
0
5.936749e+08
6.083645e+08
6.290182e+08
6.574177e+08
6.959907e+08
-3.425781e+08
-3.545619e+08
-3.698872e+08
-3.890753e+08
-4.128226e+08
0
0
0
0
0
5.616009e+08
5.745788e+08
5.926836e+08
6.172643e+08
6.500976e+08
-8.069308e+08
-7.431546e+08
-8.196308e+08
-6.915713e+08
-7.571851e+08
-8.49728e+08
-6.516153e+08
-7.056353e+08
-7.838898e+08
-8.993371e+08
-6.183278e+08
-6.643593e+08
-7.288474e+08
-8.232967e+08
-9.712214e+08
-5.879559e+08
-6.281242e+08
-6.828722e+08
-7.596617e+08
-8.742078e+08
0
-5.587832e+08
-5.940937e+08
-6.414567e+08
-7.056935e+08
-7.962399e+08
0
0
-5.314903e+08
-5.628098e+08
-6.042688e+08
-6.593937e+08
-7.340906e+08
0
0
0
-5.066451e+08
-5.346559e+08
-5.714365e+08
-6.195914e+08
-6.833665e+08
0
0
0
0
-4.84287e+08
-5.095678e+08
-5.425481e+08
-5.853076e+08
-6.409767e+08
0
0
0
0
0
-4.641958e+08
-4.871885e+08
-5.170514e+08
-5.554683e+08
-6.049348e+08
0
0
0
0
0
1.144162e+09
-4.460309e+08
-4.6708e+08
-4.943217e+08
-5.291699e+08
-5.736485e+08
0
0
0
0
0
9.728498e+08
1.087646e+09
-4.293863e+08
-4.487459e+08
-4.737342e+08
-5.055515e+08
-5.45895e+08
0
0
0
0
0
8.701464e+08
9.29899e+08
1.043413e+09
-4.137626e+08
-4.316119e+08
-4.545996e+08
-4.837592e+08
-5.20527e+08
0
0
0
0
0
7.955744e+08
8.339008e+08
8.962488e+08
1.008468e+09
-3.985589e+08
-4.150121e+08
-4.361616e+08
-4.628986e+08
-4.964511e+08
0
0
0
0
0
7.348569e+08
7.625024e+08
8.042699e+08
8.694177e+08
9.784391e+08
-3.833305e+08
-3.984746e+08
-4.179044e+08
-4.423901e+08
-4.729812e+08
0
0
0
0
0
6.821626e+08
7.036137e+08
7.347444e+08
7.800924e+08
8.476818e+08
-3.687074e+08
-3.826691e+08
-4.005528e+08
-4.230313e+08
-4.510084e+08
0
0
0
0
0
6.364316e+08
6.53948e+08
6.789083e+08
7.139277e+08
7.632224e+08
-3.553036e+08
-3.682301e+08
-3.847721e+08
-4.055202e+08
-4.312666e+08
0
0
0
0
0
5.970591e+08
6.119628e+08
6.329309e+08
6.617988e+08
7.0109e+08
-3.433629e+08
-3.554001e+08
-3.707983e+08
-3.900828e+08
-4.139559e+08
0
0
0
0
0
5.632094e+08
5.762739e+08
5.945038e+08
6.192647e+08
6.52361e+08
-3.328894e+08
-3.441669e+08
-3.585979e+08
-3.766541e+08
-3.989654e+08
0
0
0
0
0
5.340312e+08
5.457528e+08
5.61995e+08
5.838556e+08
6.126954e+08
-7.38515e+08
-8.122904e+08
-6.846908e+08
-7.479111e+08
-8.34375e+08
-6.439056e+08
-6.959113e+08
-7.702099e+08
-8.750347e+08
-6.112256e+08
-6.556723e+08
-7.173901e+08
-8.061539e+08
-9.375026e+08
-5.830575e+08
-6.22178e+08
-6.751935e+08
-7.488198e+08
-8.56429e+08
0
-5.568142e+08
-5.916388e+08
-6.382107e+08
-7.010842e+08
-7.889743e+08
0
0
-5.311362e+08
-5.622844e+08
-6.034628e+08
-6.581069e+08
-7.319171e+08
0
0
0
-5.068224e+08
-5.347899e+08
-5.71493e+08
-6.195114e+08
-6.830336e+08
0
0
0
0
-4.844656e+08
-5.09741e+08
-5.427076e+08
-5.854396e+08
-6.410554e+08
0
0
0
0
0
-4.641958e+08
-4.871885e+08
-5.170514e+08
-5.554683e+08
-6.049348e+08
0
0
0
0
0
1.144162e+09
-4.458657e+08
-4.66916e+08
-4.941634e+08
-5.290238e+08
-5.735248e+08
0
0
0
0
0
9.741334e+08
1.091434e+09
-4.292079e+08
-4.485817e+08
-4.735955e+08
-5.054541e+08
-5.458618e+08
0
0
0
0
0
8.715078e+08
9.327921e+08
1.051393e+09
-4.138766e+08
-4.317756e+08
-4.548387e+08
-4.841071e+08
-5.210294e+08
0
0
0
0
0
7.976458e+08
8.369653e+08
9.017105e+08
1.022193e+09
-3.994273e+08
-4.159934e+08
-4.373042e+08
-4.642648e+08
-4.981233e+08
0
0
0
0
0
7.385889e+08
7.670504e+08
8.10348e+08
8.790395e+08
1.00028e+09
-3.853071e+08
-4.006317e+08
-4.203141e+08
-4.45146e+08
-4.762043e+08
0
0
0
0
0
6.877434e+08
7.099165e+08
7.422239e+08
7.897019e+08
8.619691e+08
-3.71104e+08
-3.852555e+08
-4.034012e+08
-4.262327e+08
-4.54681e+08
0
0
0
0
0
6.421506e+08
6.601696e+08
6.858978e+08
7.2214e+08
7.735601e+08
-3.574226e+08
-3.705051e+08
-3.872605e+08
-4.082925e+08
-4.344136e+08
0
0
0
0
0
6.016592e+08
6.168698e+08
6.382901e+08
6.678367e+08
7.081801e+08
-3.44852e+08
-3.569929e+08
-3.725325e+08
-3.920044e+08
-4.16122e+08
0
0
0
0
0
5.662623e+08
5.794934e+08
5.979656e+08
6.230774e+08
6.566889e+08
-3.336345e+08
-3.449609e+08
-3.594582e+08
-3.776024e+08
-4.000285e+08
0
0
0
0
0
5.354953e+08
5.472866e+08
5.636288e+08
5.856314e+08
6.146722e+08
-3.237832e+08
-3.344118e+08
-3.480214e+08
-3.650453e+08
-3.860544e+08
0
0
0
0
0
5.08764e+08
5.194694e+08
5.34219e+08
5.539234e+08
5.79686e+08
-6.811573e+08
-7.432006e+08
-8.267753e+08
-6.382932e+08
-6.889232e+08
-7.606058e+08
-8.58819e+08
-6.047155e+08
-6.478338e+08
-7.073103e+08
-7.91696e+08
-9.11305e+08
-5.769412e+08
-6.149349e+08
-6.661576e+08
-7.366741e+08
-8.379152e+08
0
-5.525443e+08
-5.865983e+08
-6.319647e+08
-6.928678e+08
-7.771798e+08
0
0
-5.294334e+08
-5.602151e+08
-6.00828e+08
-6.545656e+08
-7.268265e+08
0
0
0
-5.065432e+08
-5.343818e+08
-5.708813e+08
-6.18574e+08
-6.815466e+08
0
0
0
0
-4.846491e+08
-5.098935e+08
-5.428054e+08
-5.854447e+08
-6.409022e+08
0
0
0
0
0
-4.64368e+08
-4.87358e+08
-5.172122e+08
-5.556112e+08
-6.050445e+08
0
0
0
0
0
1.140028e+09
-4.458657e+08
-4.66916e+08
-4.941634e+08
-5.290238e+08
-5.735248e+08
0
0
0
0
0
9.741334e+08
1.091434e+09
-4.290498e+08
-4.484239e+08
-4.734415e+08
-5.053089e+08
-5.457327e+08
0
0
0
0
0
8.71962e+08
9.339791e+08
1.054967e+09
-4.137035e+08
-4.316137e+08
-4.54698e+08
-4.840004e+08
-5.209748e+08
0
0
0
0
0
7.983231e+08
8.382304e+08
9.04449e+08
1.029954e+09
-3.995266e+08
-4.161361e+08
-4.375123e+08
-4.645675e+08
-4.985587e+08
0
0
0
0
0
7.400301e+08
7.689853e+08
8.132542e+08
8.843303e+08
1.013987e+09
-3.861162e+08
-4.015423e+08
-4.213679e+08
-4.463979e+08
-4.777256e+08
0
0
0
0
0
6.907557e+08
7.134233e+08
7.465549e+08
7.955897e+08
8.714919e+08
-3.729631e+08
-3.872773e+08
-4.056511e+08
-4.287923e+08
-4.576572e+08
0
0
0
0
0
6.469315e+08
6.654417e+08
6.919298e+08
7.294104e+08
7.830654e+08
-3.596843e+08
-3.729383e+08
-3.899314e+08
-4.112824e+08
-4.378263e+08
0
0
0
0
0
6.067107e+08
6.222919e+08
6.442607e+08
6.746392e+08
7.162951e+08
-3.468572e+08
-3.591392e+08
-3.74873e+08
-3.946033e+08
-4.190596e+08
0
0
0
0
0
5.703996e+08
5.838675e+08
6.02685e+08
6.282991e+08
6.62654e+08
-3.350466e+08
-3.46468e+08
-3.61094e+08
-3.794091e+08
-4.020581e+08
0
0
0
0
0
5.382717e+08
5.501966e+08
5.66731e+08
5.890081e+08
6.184398e+08
-3.244922e+08
-3.351656e+08
-3.48836e+08
-3.659403e+08
-3.870542e+08
0
0
0
0
0
5.101051e+08
5.208681e+08
5.356996e+08
5.555188e+08
5.814415e+08
-3.15214e+08
-3.252438e+08
-3.38098e+08
-3.541738e+08
-3.739954e+08
0
0
0
0
0
4.854712e+08
4.953395e+08
5.088592e+08
5.268095e+08
5.501037e+08
-6.353944e+08
-6.853358e+08
-7.557299e+08
-8.507952e+08
-5.999447e+08
-6.421344e+08
-7.000775e+08
-7.815605e+08
-8.938418e+08
-5.712926e+08
-6.083174e+08
-6.580361e+08
-7.260299e+08
-8.223479e+08
0
-5.471603e+08
-5.803625e+08
-6.244334e+08
-6.832924e+08
-7.640687e+08
0
0
-5.256428e+08
-5.558232e+08
-5.955342e+08
-6.478796e+08
-7.17878e+08
0
0
0
-5.050424e+08
-5.325915e+08
-5.686571e+08
-6.156913e+08
-6.776185e+08
0
0
0
0
-4.844234e+08
-5.095666e+08
-5.423219e+08
-5.847204e+08
-6.397991e+08
0
0
0
0
0
-4.645524e+08
-4.875194e+08
-5.173327e+08
-5.556643e+08
-6.049876e+08
0
0
0
0
0
1.130815e+09
-4.460309e+08
-4.6708e+08
-4.943217e+08
-5.291699e+08
-5.736485e+08
0
0
0
0
0
9.728498e+08
1.087646e+09
-4.290498e+08
-4.484239e+08
-4.734415e+08
-5.053089e+08
-5.457327e+08
0
0
0
0
0
8.71962e+08
9.339791e+08
1.054967e+09
-4.135527e+08
-4.314624e+08
-4.545493e+08
-4.838583e+08
-5.208449e+08
0
0
0
0
0
7.984699e+08
8.386514e+08
9.055725e+08
1.03343e+09
-3.993591e+08
-4.159781e+08
-4.373719e+08
-4.644559e+08
-4.984906e+08
0
0
0
0
0
7.403826e+08
7.696143e+08
8.144513e+08
8.86984e+08
1.021748e+09
-3.862031e+08
-4.01668e+08
-4.215515e+08
-4.466641e+08
-4.781078e+08
0
0
0
0
0
6.918206e+08
7.147712e+08
7.483901e+08
7.983975e+08
8.767253e+08
-3.737198e+08
-3.881254e+08
-4.066284e+08
-4.299462e+08
-4.590504e+08
0
0
0
0
0
6.494434e+08
6.682783e+08
6.952738e+08
7.336042e+08
7.888691e+08
-3.614381e+08
-3.74839e+08
-3.920388e+08
-4.136701e+08
-4.405876e+08
0
0
0
0
0
6.108832e+08
6.268182e+08
6.493144e+08
6.805058e+08
7.234782e+08
-3.489974e+08
-3.614347e+08
-3.773844e+08
-3.974048e+08
-4.222438e+08
0
0
0
0
0
5.74917e+08
5.886668e+08
6.078968e+08
6.341153e+08
6.693756e+08
-3.36948e+08
-3.484987e+08
-3.633012e+08
-3.81852e+08
-4.048097e+08
0
0
0
0
0
5.42025e+08
5.541382e+08
5.709442e+08
5.936108e+08
6.236e+08
-3.258344e+08
-3.365945e+08
-3.503832e+08
-3.676435e+08
-3.889611e+08
0
0
0
0
0
5.126472e+08
5.235193e+08
5.385075e+08
5.585476e+08
5.847795e+08
-3.1589e+08
-3.259609e+08
-3.388711e+08
-3.550208e+08
-3.749382e+08
0
0
0
0
0
4.867064e+08
4.966228e+08
5.10211e+08
5.282565e+08
5.516815e+08
-3.071371e+08
-3.166168e+08
-3.287737e+08
-3.439776e+08
-3.627088e+08
0
0
0
0
0
4.638939e+08
4.730589e+08
4.855476e+08
5.020342e+08
5.232986e+08
-5.974723e+08
-6.391919e+08
-6.963665e+08
-7.76418e+08
-8.852059e+08
-5.671361e+08
-6.034737e+08
-6.52141e+08
-7.184065e+08
-8.114542e+08
0
-5.421648e+08
-5.746222e+08
-6.175812e+08
-6.747249e+08
-7.526272e+08
0
0
-5.208323e+08
-5.503362e+08
-5.89054e+08
-6.399046e+08
-7.075517e+08
0
0
0
-5.016326e+08
-5.286951e+08
-5.640471e+08
-6.100265e+08
-6.703371e+08
0
0
0
0
-4.830821e+08
-5.079888e+08
-5.403964e+08
-5.822834e+08
-6.365936e+08
0
0
0
0
0
-4.643662e+08
-4.872511e+08
-5.169391e+08
-5.550826e+08
-6.04122e+08
0
0
0
0
0
1.114581e+09
-4.462132e+08
-4.672445e+08
-4.944545e+08
-5.292509e+08
-5.736475e+08
0
0
0
0
0
9.697245e+08
1.079193e+09
-4.292079e+08
-4.485817e+08
-4.735955e+08
-5.054541e+08
-5.458618e+08
0
0
0
0
0
8.715078e+08
9.327921e+08
1.051393e+09
-4.135527e+08
-4.314624e+08
-4.545493e+08
-4.838583e+08
-5.208449e+08
0
0
0
0
0
7.984699e+08
8.386514e+08
9.055725e+08
1.03343e+09
-3.992153e+08
-4.158335e+08
-4.37229e+08
-4.643181e+08
-4.983624e+08
0
0
0
0
0
7.40393e+08
7.697489e+08
8.14849e+08
8.880738e+08
1.02523e+09
-3.860415e+08
-4.015145e+08
-4.214132e+08
-4.465503e+08
-4.780314e+08
0
0
0
0
0
6.919959e+08
7.150965e+08
7.489828e+08
7.995523e+08
8.793538e+08
-3.737964e+08
-3.882367e+08
-4.067918e+08
-4.301832e+08
-4.593894e+08
0
0
0
0
0
6.502631e+08
6.692748e+08
6.965518e+08
7.353731e+08
7.916293e+08
-3.621488e+08
-3.756318e+08
-3.929486e+08
-4.147397e+08
-4.418713e+08
0
0
0
0
0
6.130264e+08
6.291881e+08
6.520226e+08
6.837439e+08
7.276034e+08
-3.506564e+08
-3.632272e+08
-3.793644e+08
-3.996395e+08
-4.248171e+08
0
0
0
0
0
5.786117e+08
5.926249e+08
6.12242e+08
6.390337e+08
6.751692e+08
-3.389774e+08
-3.506703e+08
-3.656695e+08
-3.844846e+08
-4.077907e+08
0
0
0
0
0
5.461034e+08
5.584384e+08
5.755644e+08
5.986925e+08
6.293481e+08
-3.276414e+08
-3.385196e+08
-3.524707e+08
-3.69946e+08
-3.915455e+08
0
0
0
0
0
5.160765e+08
5.271016e+08
5.423097e+08
5.626605e+08
5.893297e+08
-3.171679e+08
-3.273188e+08
-3.403375e+08
-3.56631e+08
-3.767346e+08
0
0
0
0
0
4.89047e+08
4.990543e+08
5.127727e+08
5.310004e+08
5.546767e+08
-3.077828e+08
-3.173004e+08
-3.29509e+08
-3.44781e+08
-3.636005e+08
0
0
0
0
0
4.650367e+08
4.742426e+08
4.867895e+08
5.033564e+08
5.247301e+08
-2.995167e+08
-3.084859e+08
-3.200013e+08
-3.344002e+08
-3.52129e+08
0
0
0
0
0
4.438254e+08
4.523875e+08
4.63997e+08
4.792423e+08
4.987977e+08
-5.649772e+08
-6.009645e+08
-6.490992e+08
-7.14498e+08
-8.059315e+08
0
-5.384793e+08
-5.704032e+08
-6.125744e+08
-6.68519e+08
-7.444509e+08
0
0
-5.163551e+08
-5.452612e+08
-5.831139e+08
-6.326836e+08
-6.983578e+08
0
0
0
-4.972861e+08
-5.237947e+08
-5.583491e+08
-6.031709e+08
-6.617472e+08
0
0
0
0
-4.79984e+08
-5.044861e+08
-5.363096e+08
-5.77354e+08
-6.304284e+08
0
0
0
0
0
-4.631544e+08
-4.858413e+08
-5.152418e+08
-5.529712e+08
-6.014084e+08
0
0
0
0
0
1.08886e+09
-4.460572e+08
-4.670202e+08
-4.941267e+08
-5.287704e+08
-5.729429e+08
0
0
0
0
0
9.635071e+08
1.06426e+09
-4.293863e+08
-4.487459e+08
-4.737342e+08
-5.055515e+08
-5.45895e+08
0
0
0
0
0
8.701464e+08
9.29899e+08
1.043413e+09
-4.137035e+08
-4.316137e+08
-4.54698e+08
-4.840004e+08
-5.209748e+08
0
0
0
0
0
7.983231e+08
8.382304e+08
9.04449e+08
1.029954e+09
-3.992153e+08
-4.158335e+08
-4.37229e+08
-4.643181e+08
-4.983624e+08
0
0
0
0
0
7.40393e+08
7.697489e+08
8.14849e+08
8.880738e+08
1.02523e+09
-3.859042e+08
-4.013763e+08
-4.212763e+08
-4.464174e+08
-4.779063e+08
0
0
0
0
0
6.919378e+08
7.151031e+08
7.491079e+08
7.999357e+08
8.804354e+08
-3.736405e+08
-3.880879e+08
-4.066565e+08
-4.300695e+08
-4.593079e+08
0
0
0
0
0
6.503331e+08
6.694338e+08
6.968555e+08
7.359409e+08
7.927635e+08
-3.622174e+08
-3.757311e+08
-3.930949e+08
-4.149524e+08
-4.42175e+08
0
0
0
0
0
6.136752e+08
6.299552e+08
6.529668e+08
6.849735e+08
7.293346e+08
-3.513255e+08
-3.639714e+08
-3.802144e+08
-4.006347e+08
-4.260063e+08
0
0
0
0
0
5.804731e+08
5.946503e+08
6.145073e+08
6.416571e+08
6.783511e+08
-3.405501e+08
-3.523652e+08
-3.675356e+08
-3.865826e+08
-4.101969e+08
0
0
0
0
0
5.494116e+08
5.619497e+08
5.793695e+08
6.029246e+08
6.342051e+08
-3.295701e+08
-3.405783e+08
-3.547101e+08
-3.724269e+08
-3.943444e+08
0
0
0
0
0
5.197877e+08
5.309909e+08
5.464552e+08
5.671694e+08
5.943534e+08
-3.188882e+08
-3.29148e+08
-3.423157e+08
-3.588073e+08
-3.791686e+08
0
0
0
0
0
4.92199e+08
5.023329e+08
5.162328e+08
5.347153e+08
5.587442e+08
-3.090017e+08
-3.18593e+08
-3.309021e+08
-3.463062e+08
-3.652975e+08
0
0
0
0
0
4.672021e+08
4.76485e+08
4.891418e+08
5.058619e+08
5.274448e+08
-3.001345e+08
-3.091387e+08
-3.20702e+08
-3.351639e+08
-3.529741e+08
0
0
0
0
0
4.448869e+08
4.534844e+08
4.651438e+08
4.80458e+08
5.001063e+08
-2.923143e+08
-3.008148e+08
-3.117349e+08
-3.253927e+08
-3.421963e+08
0
0
0
0
0
4.250965e+08
4.33134e+08
4.439802e+08
4.581565e+08
4.76251e+08
-5.365619e+08
-5.682128e+08
-6.099824e+08
-6.653195e+08
-7.402627e+08
0
0
-5.130461e+08
-5.415213e+08
-5.787558e+08
-6.27419e+08
-6.917143e+08
0
0
0
-4.932321e+08
-5.192477e+08
-5.531008e+08
-5.969176e+08
-6.540103e+08
0
0
0
0
-4.760225e+08
-5.000604e+08
-5.312243e+08
-5.713318e+08
-6.230539e+08
0
0
0
0
0
-4.603173e+08
-4.826612e+08
-5.115711e+08
-5.486054e+08
-5.96049e+08
0
0
0
0
0
1.054813e+09
-4.449529e+08
-4.65747e+08
-4.926103e+08
-5.269089e+08
-5.705905e+08
0
0
0
0
0
9.522633e+08
1.040521e+09
-4.29254e+08
-4.485554e+08
-4.734563e+08
-5.051461e+08
-5.45306e+08
0
0
0
0
0
8.668573e+08
9.241334e+08
1.029298e+09
-4.138766e+08
-4.317756e+08
-4.548387e+08
-4.841071e+08
-5.210294e+08
0
0
0
0
0
7.976458e+08
8.369653e+08
9.017105e+08
1.022193e+09
-3.993592e+08
-4.159781e+08
-4.373719e+08
-4.644559e+08
-4.984906e+08
0
0
0
0
0
7.403826e+08
7.696143e+08
8.144513e+08
8.86984e+08
1.021748e+09
-3.859042e+08
-4.013764e+08
-4.212763e+08
-4.464174e+08
-4.779063e+08
0
0
0
0
0
6.919378e+08
7.151031e+08
7.491079e+08
7.999357e+08
8.804354e+08
-3.735095e+08
-3.87956e+08
-4.065255e+08
-4.299419e+08
-4.591867e+08
0
0
0
0
0
6.502382e+08
6.693757e+08
6.968583e+08
7.360589e+08
7.9314e+08
-3.620677e+08
-3.755872e+08
-3.929631e+08
-4.1484e+08
-4.420912e+08
0
0
0
0
0
6.136784e+08
6.30015e+08
6.53112e+08
6.852607e+08
7.298863e+08
-3.513869e+08
-3.640612e+08
-3.803463e+08
-4.008267e+08
-4.262807e+08
0
0
0
0
0
5.809984e+08
5.952574e+08
6.152336e+08
6.42564e+08
6.795504e+08
-3.41182e+08
-3.530655e+08
-3.683332e+08
-3.875119e+08
-4.113027e+08
0
0
0
0
0
5.510505e+08
5.637118e+08
5.813078e+08
6.0512e+08
6.367817e+08
-3.310644e+08
-3.421845e+08
-3.564737e+08
-3.744028e+08
-3.966015e+08
0
0
0
0
0
5.227772e+08
5.341402e+08
5.498352e+08
5.708783e+08
5.985332e+08
-3.207246e+08
-3.311041e+08
-3.444378e+08
-3.611518e+08
-3.818043e+08
0
0
0
0
0
4.955983e+08
5.058779e+08
5.199871e+08
5.387644e+08
5.632032e+08
-3.106425e+08
-3.203343e+08
-3.32781e+08
-3.483676e+08
-3.675965e+08
0
0
0
0
0
4.701141e+08
4.795031e+08
4.923125e+08
5.092454e+08
5.311201e+08
-3.012991e+08
-3.103715e+08
-3.220277e+08
-3.366122e+08
-3.545806e+08
0
0
0
0
0
4.468987e+08
4.55562e+08
4.673156e+08
4.827605e+08
5.025859e+08
-2.929065e+08
-3.014393e+08
-3.124038e+08
-3.261201e+08
-3.429992e+08
0
0
0
0
0
4.260859e+08
4.341542e+08
4.45044e+08
4.5928e+08
4.774546e+08
-2.855051e+08
-2.935649e+08
-3.039372e+08
-3.169072e+08
-3.328588e+08
0
0
0
0
0
4.075638e+08
4.151411e+08
4.253165e+08
4.385577e+08
4.553853e+08
-5.113224e+08
-5.395764e+08
-5.764944e+08
-6.246956e+08
-6.882922e+08
0
0
0
-4.902322e+08
-5.158908e+08
-5.492399e+08
-5.923398e+08
-6.483835e+08
0
0
0
0
-4.723223e+08
-4.959446e+08
-5.26525e+08
-5.658122e+08
-6.163635e+08
0
0