/*--------------------------------*- C++ -*----------------------------------*\
| =========                 |                                                 |
| \\      /  F ield         | OpenFOAM: The Open Source CFD Toolbox           |
|  \\    /   O peration     | Version:  2306                                  |
|   \\  /    A nd           | Website:  www.openfoam.com                      |
|    \\/     M anipulation  |                                                 |
\*---------------------------------------------------------------------------*/
FoamFile
{
    version     2.0;
    format      ascii;
    arch        "LSB;label=32;scalar=64";
    class       volScalarField;
    location    "0.9/phiI";
    object      phi;
}
// * * * * * * * * * * * * * * * * * * * * * * * * * * * * * * * * * * * * * //

dimensions      [1 2 -3 0 0 -1 0];

internalField   nonuniform List<scalar> 
12000
(
1.631087
1.631054
1.625827
1.631963
1.630987
1.625761
1.631938
1.620692
1.626629
1.633736
1.630851
1.625647
1.631886
1.620609
1.626568
1.633726
1.616527
1.621432
1.628252
1.636421
1.63059
1.6255
1.631773
1.620462
1.626463
1.633704
1.616435
1.621352
1.628201
1.636434
1.613164
1.617216
1.622928
1.63071
1.640045
1.63012
1.625347
1.631541
1.620281
1.62633
1.633638
1.616271
1.621213
1.628115
1.636459
1.613068
1.617127
1.622855
1.630673
1.640089
1.610415
1.613812
1.618611
1.625193
1.634025
1.644644
1.629468
1.625201
1.631104
1.620113
1.626193
1.633465
1.616065
1.621041
1.628009
1.636463
1.612893
1.616969
1.622731
1.630617
1.640177
1.610316
1.613718
1.618528
1.625132
1.634008
1.644728
1.60812
1.611027
1.615122
1.620721
1.628246
1.638228
1.649274
1.628759
1.625053
1.630478
1.620004
1.626062
1.633092
1.61587
1.620885
1.627904
1.63638
1.61267
1.616771
1.622579
1.630552
1.640276
1.610136
1.613548
1.618381
1.625029
1.633991
1.644898
1.608021
1.61093
1.615033
1.620647
1.6282
1.638237
1.649399
1.606177
1.608701
1.612264
1.617104
1.623565
1.632116
1.642461
1.653936
1.628172
1.624888
1.629786
1.619961
1.625925
1.632517
1.615744
1.620785
1.627804
1.636103
1.612452
1.616585
1.622445
1.630496
1.640315
1.609903
1.613332
1.618199
1.624907
1.633982
1.645118
1.607839
1.610755
1.614873
1.620519
1.628127
1.638271
1.649649
1.606078
1.608604
1.612172
1.617023
1.623504
1.632089
1.642496
1.654101
1.604507
1.60673
1.609875
1.614135
1.619773
1.627167
1.636012
1.646723
1.65863
1.627844
1.624739
1.62921
1.619938
1.625766
1.631859
1.615707
1.620748
1.627688
1.635605
1.612301
1.616467
1.622366
1.630442
1.640171
1.609669
1.613121
1.618031
1.624808
1.633992
1.645315
1.607601
1.610527
1.614671
1.620361
1.628046
1.638334
1.649991
1.605896
1.608426
1.612005
1.616878
1.623399
1.632053
1.642579
1.654432
1.604409
1.606633
1.609781
1.61405
1.619703
1.627121
1.636004
1.646783
1.658834
1.603055
1.605035
1.607847
1.611649
1.616655
1.623153
1.630792
1.639934
1.651015
1.663355
1.627844
1.624651
1.628886
1.619919
1.62562
1.631303
1.61571
1.620728
1.627541
1.634999
1.612246
1.616434
1.622341
1.630358
1.639777
1.609498
1.612976
1.617928
1.624759
1.634002
1.64534
1.607358
1.6103
1.614475
1.62022
1.627994
1.63843
1.650344
1.605657
1.608193
1.611789
1.616696
1.623274
1.632026
1.642714
1.654894
1.604229
1.606455
1.609611
1.613896
1.619578
1.627047
1.636006
1.646917
1.659245
1.60296
1.604939
1.607753
1.611562
1.616579
1.623096
1.630763
1.639946
1.6511
1.663598
1.601782
1.603561
1.6061
1.609535
1.614038
1.619844
1.626554
1.634442
1.643883
1.655336
1.668111
1.628172
1.624651
1.628886
1.619906
1.625533
1.630989
1.615721
1.62071
1.627402
1.634473
1.612244
1.616438
1.622327
1.63023
1.63924
1.609425
1.612925
1.617903
1.624753
1.633962
1.64508
1.607172
1.610134
1.614342
1.620139
1.627987
1.638522
1.650538
1.60541
1.607955
1.611575
1.616522
1.62317
1.632034
1.642896
1.655403
1.603992
1.60622
1.609388
1.613698
1.619424
1.626965
1.636032
1.647123
1.659827
1.602783
1.604762
1.607582
1.611403
1.616443
1.622997
1.630719
1.639985
1.651283
1.664089
1.601688
1.603467
1.606008
1.609447
1.613959
1.619779
1.62651
1.634428
1.643915
1.655447
1.668394
1.600655
1.602266
1.60458
1.607711
1.611806
1.617059
1.623052
1.629977
1.638116
1.647859
1.659686
1.671858
1.628759
1.624739
1.62921
1.619906
1.625533
1.630989
1.615728
1.620698
1.627317
1.634173
1.612256
1.61645
1.622311
1.6301
1.638755
1.609411
1.612923
1.617911
1.624748
1.63386
1.644633
1.607086
1.610064
1.614297
1.620128
1.628007
1.638539
1.650411
1.605216
1.607774
1.611419
1.616408
1.623121
1.632081
1.643069
1.655764
1.603743
1.605977
1.609162
1.613503
1.619281
1.626909
1.6361
1.647389
1.660491
1.602548
1.604529
1.607357
1.611196
1.616269
1.622879
1.630679
1.640063
1.65156
1.664791
1.601515
1.603293
1.605837
1.609286
1.613815
1.619666
1.626438
1.634415
1.643991
1.655678
1.668963
1.600564
1.602174
1.604489
1.607623
1.611726
1.616991
1.622999
1.629946
1.638118
1.647909
1.659822
1.672172
1.599651
1.60112
1.603243
1.60612
1.609878
1.614679
1.620098
1.62628
1.633421
1.641814
1.651862
1.663117
1.674639
1.629468
1.624888
1.629786
1.619919
1.62562
1.631303
1.615728
1.620698
1.627317
1.634173
1.612266
1.616457
1.6223
1.63002
1.638474
1.609418
1.612936
1.617924
1.624736
1.633744
1.6442
1.607061
1.61005
1.614298
1.620141
1.628014
1.638469
1.650051
1.60512
1.60769
1.611354
1.616373
1.623127
1.632134
1.643143
1.655768
1.603545
1.605788
1.60899
1.613362
1.619192
1.626901
1.636201
1.647644
1.661019
1.602301
1.604284
1.607124
1.610986
1.6161
1.622775
1.63067
1.640191
1.651911
1.665609
1.601283
1.603061
1.605612
1.609075
1.61363
1.619523
1.626355
1.634417
1.64412
1.656026
1.669784
1.600393
1.602003
1.604321
1.607462
1.611579
1.616867
1.622908
1.6299
1.638135
1.648023
1.660103
1.672802
1.599562
1.601031
1.603154
1.606034
1.609797
1.614608
1.62004
1.626239
1.633404
1.641831
1.651931
1.663272
1.674975
1.59875
1.600099
1.602058
1.604719
1.608192
1.612617
1.617568
1.623155
1.629527
1.636887
1.645536
1.655021
1.665664
1.676482
1.63012
1.625053
1.630478
1.619938
1.625766
1.631859
1.615721
1.62071
1.627402
1.634473
1.612266
1.616457
1.6223
1.63002
1.638474
1.609425
1.612945
1.617931
1.624726
1.633669
1.643943
1.607062
1.610057
1.61431
1.620155
1.628008
1.638371
1.64967
1.605088
1.607666
1.611342
1.616377
1.623148
1.632158
1.643106
1.655495
1.603443
1.605693
1.60891
1.613306
1.619171
1.62693
1.636288
1.647774
1.661153
1.602102
1.60409
1.606942
1.610828
1.615981
1.62272
1.630703
1.640346
1.652247
1.666303
1.601039
1.602818
1.605377
1.608857
1.613443
1.619388
1.626291
1.634455
1.644308
1.656461
1.670756
1.600167
1.601776
1.604097
1.60725
1.611387
1.616709
1.622796
1.629852
1.638178
1.648204
1.66052
1.673715
1.599395
1.600863
1.602988
1.605874
1.609648
1.614479
1.619937
1.62617
1.633383
1.641878
1.652081
1.66359
1.67565
1.598663
1.600011
1.601971
1.604634
1.608111
1.612545
1.617506
1.623107
1.629497
1.636883
1.645568
1.655104
1.665833
1.676833
1.597937
1.599182
1.601001
1.603475
1.606703
1.610809
1.61537
1.620472
1.626229
1.632794
1.640375
1.648475
1.657368
1.667354
1.677408
1.63059
1.625201
1.631104
1.619961
1.625925
1.632517
1.61571
1.620728
1.627541
1.634999
1.612256
1.61645
1.622311
1.6301
1.638755
1.609425
1.612945
1.617931
1.624726
1.633669
1.643943
1.607067
1.610064
1.614319
1.620163
1.628
1.638304
1.649437
1.605084
1.607666
1.611349
1.61639
1.623164
1.632159
1.643024
1.655165
1.603405
1.605662
1.608887
1.613296
1.61918
1.626961
1.636328
1.647769
1.660966
1.601996
1.603989
1.606851
1.610755
1.615936
1.622717
1.630756
1.640466
1.652433
1.666566
1.600841
1.602622
1.60519
1.608687
1.613304
1.619297
1.626268
1.634529
1.644517
1.656878
1.671615
1.599926
1.601535
1.603862
1.607028
1.61119
1.616552
1.622695
1.629827
1.638263
1.64845
1.661039
1.674807
1.599173
1.600639
1.602768
1.605662
1.609453
1.614312
1.619806
1.626089
1.63337
1.641963
1.652313
1.664062
1.676631
1.5985
1.599847
1.601808
1.604476
1.607963
1.612412
1.617395
1.623023
1.629451
1.636888
1.645645
1.655283
1.66618
1.677539
1.597853
1.599096
1.600915
1.603391
1.606624
1.610737
1.615306
1.62042
1.626191
1.632776
1.640385
1.64852
1.657462
1.667532
1.677766
1.597201
1.598354
1.60005
1.602362
1.605379
1.60921
1.613439
1.618137
1.623392
1.629321
1.63608
1.643132
1.65066
1.658925
1.668202
1.630851
1.625347
1.631541
1.620004
1.626062
1.633092
1.615707
1.620748
1.627688
1.635605
1.612244
1.616438
1.622327
1.63023
1.63924
1.609418
1.612936
1.617924
1.624736
1.633744
1.6442
1.607067
1.610064
1.614319
1.620163
1.628
1.638304
1.649437
1.605086
1.607671
1.611356
1.616399
1.623172
1.632153
1.642964
1.654955
1.603398
1.605657
1.608887
1.613303
1.619195
1.62698
1.636335
1.647705
1.660686
1.601955
1.603952
1.606821
1.610734
1.61593
1.622732
1.630796
1.640523
1.65246
1.666463
1.600734
1.602518
1.605092
1.608602
1.613239
1.619266
1.626283
1.634605
1.64467
1.657119
1.672007
1.59973
1.60134
1.603673
1.606852
1.611037
1.616437
1.622632
1.629838
1.638377
1.648713
1.661537
1.675795
1.598937
1.600402
1.602534
1.605439
1.60925
1.614141
1.619678
1.62602
1.633384
1.642094
1.652619
1.664646
1.677811
1.598283
1.599628
1.601591
1.604266
1.607766
1.612239
1.617252
1.622919
1.6294
1.63691
1.645771
1.655555
1.666691
1.678564
1.597694
1.598935
1.600755
1.603235
1.606476
1.610603
1.61519
1.620326
1.626128
1.632751
1.640414
1.64862
1.657661
1.667897
1.678486
1.597119
1.598271
1.599967
1.60228
1.6053
1.609138
1.613375
1.618081
1.623349
1.629293
1.636074
1.643151
1.650714
1.659026
1.668385
1.59653
1.597603
1.599192
1.601361
1.604192
1.607784
1.611728
1.616082
1.620918
1.626328
1.63243
1.638679
1.645181
1.65211
1.659706
1.630987
1.6255
1.631773
1.620113
1.626193
1.633465
1.615744
1.620785
1.627804
1.636103
1.612246
1.616434
1.622341
1.630358
1.639777
1.609411
1.612923
1.617911
1.624748
1.63386
1.644633
1.607062
1.610057
1.61431
1.620155
1.628008
1.638371
1.64967
1.605086
1.607671
1.611356
1.616399
1.623172
1.632153
1.642964
1.654955
1.603399
1.60566
1.608891
1.61331
1.619203
1.626988
1.636332
1.647652
1.660498
1.601946
1.603945
1.606816
1.610734
1.615937
1.622748
1.630819
1.640537
1.652412
1.666232
1.600692
1.602478
1.605056
1.608573
1.613221
1.619265
1.626305
1.634655
1.644743
1.657178
1.671987
1.599623
1.601234
1.603571
1.606759
1.61096
1.616385
1.622616
1.62987
1.638477
1.6489
1.661833
1.676286
1.598745
1.600209
1.602345
1.605259
1.609088
1.614009
1.619587
1.625986
1.633428
1.642249
1.652935
1.665208
1.678894
1.598053
1.599395
1.601361
1.604044
1.607561
1.61206
1.617107
1.622821
1.629365
1.636962
1.645949
1.655907
1.667324
1.679801
1.597482
1.598721
1.600542
1.603028
1.606281
1.610427
1.615039
1.620207
1.62605
1.63273
1.64047
1.648778
1.657963
1.668435
1.679534
1.596963
1.598113
1.59981
1.602127
1.605155
1.609004
1.613256
1.617982
1.623273
1.629249
1.636071
1.6432
1.650831
1.659239
1.668759
1.59645
1.597522
1.59911
1.601281
1.604115
1.607712
1.611663
1.616025
1.620871
1.626294
1.632413
1.638681
1.645208
1.65217
1.659812
1.595917
1.59692
1.598412
1.600455
1.603123
1.606503
1.610198
1.614256
1.618736
1.623713
1.629279
1.63489
1.640611
1.646542
1.652838
1.631054
1.625647
1.631886
1.620281
1.62633
1.633638
1.61587
1.620885
1.627904
1.63638
1.612301
1.616467
1.622366
1.630442
1.640171
1.609425
1.612925
1.617903
1.624753
1.633962
1.64508
1.607061
1.61005
1.614298
1.620141
1.628014
1.638469
1.650051
1.605084
1.607666
1.611349
1.61639
1.623164
1.632159
1.643024
1.655165
1.603399
1.60566
1.608891
1.61331
1.619203
1.626988
1.636332
1.647652
1.660498
1.601945
1.603945
1.606818
1.610738
1.615943
1.622757
1.630828
1.640536
1.652367
1.666066
1.600681
1.602468
1.605048
1.608568
1.613222
1.619273
1.626322
1.634681
1.644764
1.657147
1.671803
1.59958
1.601192
1.603532
1.606724
1.610933
1.616371
1.62262
1.629899
1.638537
1.648989
1.661924
1.676331
1.598638
1.600103
1.602242
1.605163
1.609003
1.613943
1.619548
1.625984
1.633478
1.642373
1.653155
1.665547
1.679458
1.597863
1.599205
1.601173
1.603863
1.607394
1.611918
1.616997
1.622754
1.629358
1.637039
1.646144
1.656265
1.667931
1.680946
1.597256
1.598493
1.600316
1.602809
1.606074
1.610243
1.614883
1.620089
1.625981
1.632729
1.640562
1.648992
1.658349
1.669099
1.680799
1.596756
1.597904
1.599602
1.601923
1.604961
1.608827
1.6131
1.617852
1.623178
1.629198
1.63608
1.643284
1.651012
1.65956
1.66931
1.596298
1.597369
1.598957
1.601131
1.603971
1.607579
1.611542
1.61592
1.620787
1.626235
1.632388
1.638696
1.645272
1.652298
1.660031
1.595838
1.59684
1.598333
1.600377
1.603047
1.606433
1.610133
1.614198
1.618687
1.623674
1.629254
1.634881
1.640621
1.646574
1.6529
1.595353
1.596294
1.597701
1.599632
1.602153
1.605347
1.608822
1.612621
1.616795
1.621403
1.626521
1.631615
1.63672
1.641895
1.647225
1.631087
1.625761
1.631938
1.620462
1.626463
1.633704
1.616065
1.621041
1.628009
1.636463
1.612452
1.616585
1.622445
1.630496
1.640315
1.609498
1.612976
1.617928
1.624759
1.634002
1.64534
1.607086
1.610064
1.614297
1.620128
1.628007
1.638539
1.650411
1.605088
1.607666
1.611342
1.616377
1.623148
1.632158
1.643106
1.655495
1.603398
1.605657
1.608887
1.613303
1.619195
1.62698
1.636335
1.647705
1.660686
1.601945
1.603945
1.606818
1.610738
1.615943
1.622757
1.630828
1.640536
1.652367
1.666066
1.60068
1.602468
1.605048
1.60857
1.613225
1.619278
1.626331
1.63469
1.644765
1.657108
1.67166
1.599569
1.601181
1.603521
1.606716
1.610928
1.616371
1.622628
1.629918
1.638566
1.649017
1.661908
1.676185
1.598595
1.60006
1.6022
1.605124
1.60897
1.613919
1.619537
1.625992
1.633514
1.642443
1.65326
1.665662
1.67955
1.597759
1.5991
1.60107
1.603764
1.607304
1.611841
1.616941
1.622727
1.629371
1.637107
1.646291
1.656511
1.668302
1.681559
1.597071
1.598306
1.600131
1.602629
1.605906
1.610094
1.61476
1.619999
1.625938
1.632749
1.640671
1.649219
1.658738
1.669737
1.681975
1.596536
1.597681
1.59938
1.601707
1.604755
1.60864
1.612937
1.61772
1.623085
1.629158
1.636111
1.643405
1.651253
1.659968
1.66999
1.596096
1.597164
1.598753
1.600931
1.60378
1.607402
1.611383
1.615784
1.620679
1.626164
1.632363
1.638728
1.645375
1.652495
1.660362
1.59569
1.59669
1.598183
1.60023
1.602905
1.6063
1.610012
1.614091
1.618597
1.623606
1.629213
1.634871
1.640648
1.646647
1.653034
1.595277
1.596216
1.597624
1.599555
1.602079
1.605277
1.608757
1.612563
1.616744
1.621361
1.626491
1.631597
1.636717
1.641908
1.647259
1.594834
1.595719
1.59705
1.59888
1.60127
1.604296
1.607577
1.611148
1.615054
1.619344
1.624082
1.628745
1.633353
1.637935
1.642539
1.625827
1.631963
1.620609
1.626568
1.633726
1.616271
1.621213
1.628115
1.636459
1.61267
1.616771
1.622579
1.630552
1.640276
1.609669
1.613121
1.618031
1.624808
1.633992
1.645315
1.607172
1.610134
1.614342
1.620139
1.627987
1.638522
1.650538
1.60512
1.60769
1.611354
1.616373
1.623127
1.632134
1.643143
1.655768
1.603405
1.605662
1.608887
1.613296
1.61918
1.626961
1.636328
1.647769
1.660966
1.601946
1.603945
1.606816
1.610734
1.615937
1.622748
1.630819
1.640537
1.652412
1.666232
1.60068
1.602468
1.605048
1.60857
1.613225
1.619278
1.626331
1.63469
1.644765
1.657108
1.67166
1.599568
1.60118
1.603521
1.606716
1.610928
1.616373
1.622633
1.629926
1.638576
1.64902
1.661877
1.676058
1.598584
1.600049
1.602189
1.605113
1.608961
1.613914
1.619537
1.626001
1.633534
1.642474
1.653295
1.665659
1.679431
1.597717
1.599057
1.601027
1.603724
1.607267
1.61181
1.61692
1.62272
1.629384
1.63715
1.646371
1.656629
1.668435
1.681682
1.596969
1.598203
1.600028
1.602529
1.605813
1.610012
1.614693
1.619954
1.625923
1.632776
1.640757
1.649384
1.659003
1.670129
1.682612
1.596355
1.597498
1.599198
1.601529
1.604587
1.608488
1.612805
1.617615
1.623017
1.629139
1.636159
1.64354
1.651504
1.660378
1.670643
1.595881
1.596946
1.598536
1.600718
1.603577
1.607215
1.611217
1.615643
1.62057
1.626097
1.632352
1.638785
1.645519
1.652753
1.660781
1.595492
1.59649
1.597983
1.600033
1.602717
1.606125
1.609852
1.61395
1.61848
1.623519
1.629165
1.634867
1.640697
1.646763
1.653239
1.595132
1.59607
1.597477
1.599411
1.60194
1.605146
1.608637
1.612455
1.61665
1.621286
1.626439
1.63157
1.636718
1.641944
1.647337
1.594759
1.595643
1.596974
1.598805
1.601197
1.604227
1.607512
1.61109
1.615002
1.6193
1.624048
1.628721
1.633341
1.637936
1.642554
1.594354
1.595188
1.596451
1.59819
1.600462
1.603337
1.606443
1.609813
1.613482
1.617495
1.621905
1.626204
1.630401
1.634507
1.638545
1.620692
1.626629
1.633736
1.616435
1.621352
1.628201
1.636434
1.612893
1.616969
1.622731
1.630617
1.640177
1.609903
1.613332
1.618199
1.624907
1.633982
1.645118
1.607358
1.6103
1.614475
1.62022
1.627994
1.63843
1.650344
1.605216
1.607774
1.611419
1.616408
1.623121
1.632081
1.643069
1.655764
1.603443
1.605693
1.60891
1.613306
1.619171
1.62693
1.636288
1.647774
1.661153
1.601955
1.603952
1.606821
1.610734
1.61593
1.622732
1.630796
1.640523
1.65246
1.666463
1.600681
1.602468
1.605048
1.608568
1.613222
1.619273
1.626322
1.634681
1.644764
1.657147
1.671803
1.599568
1.60118
1.603521
1.606716
1.610928
1.616373
1.622633
1.629926
1.638576
1.64902
1.661877
1.676058
1.598582
1.600047
1.602188
1.605112
1.60896
1.613914
1.619539
1.626006
1.633542
1.642485
1.6533
1.665633
1.679317
1.597705
1.599045
1.601015
1.603712
1.607256
1.611801
1.616914
1.62272
1.629394
1.637171
1.646406
1.656669
1.668442
1.681581
1.596928
1.598161
1.599986
1.602488
1.605773
1.609977
1.614665
1.619936
1.62592
1.632795
1.640807
1.649472
1.65913
1.670273
1.68275
1.596255
1.597397
1.599096
1.60143
1.604492
1.608402
1.612731
1.617558
1.622982
1.629136
1.636201
1.64364
1.651682
1.660655
1.671044
1.595704
1.596768
1.598357
1.600543
1.603409
1.607061
1.61108
1.615528
1.620484
1.62605
1.632357
1.638854
1.645672
1.653019
1.6612
1.595282
1.596277
1.597771
1.599825
1.602516
1.605938
1.609683
1.613803
1.61836
1.623433
1.629124
1.634878
1.640773
1.646921
1.653506
1.594939
1.595874
1.597282
1.599219
1.601754
1.604972
1.608477
1.612311
1.616528
1.621189
1.626373
1.63154
1.636729
1.642004
1.64746
1.594618
1.595499
1.596831
1.598663
1.60106
1.604098
1.607393
1.610981
1.614906
1.61922
1.623987
1.628681
1.633323
1.637944
1.642594
1.594281
1.595115
1.596377
1.598116
1.600391
1.603269
1.60638
1.609754
1.61343
1.61745
1.621868
1.626176
1.630382
1.634498
1.638547
1.593909
1.594698
1.595898
1.597554
1.59972
1.602458
1.605407
1.608596
1.612055
1.615824
1.619946
1.623933
1.627784
1.6315
1.635087
1.616527
1.621432
1.628252
1.636421
1.613068
1.617127
1.622855
1.630673
1.640089
1.610136
1.613548
1.618381
1.625029
1.633991
1.644898
1.607601
1.610527
1.614671
1.620361
1.628046
1.638334
1.649991
1.60541
1.607955
1.611575
1.616522
1.62317
1.632034
1.642896
1.655403
1.603545
1.605788
1.60899
1.613362
1.619192
1.626901
1.636201
1.647644
1.661019
1.601996
1.603989
1.606851
1.610755
1.615936
1.622717
1.630756
1.640466
1.652433
1.666566
1.600692
1.602478
1.605056
1.608573
1.613221
1.619265
1.626305
1.634655
1.644743
1.657178
1.671987
1.599569
1.601181
1.603521
1.606716
1.610928
1.616371
1.622628
1.629918
1.638566
1.649017
1.661908
1.676185
1.598582
1.600047
1.602188
1.605112
1.60896
1.613914
1.619539
1.626006
1.633542
1.642485
1.6533
1.665633
1.679317
1.597704
1.599044
1.601014
1.60371
1.607254
1.6118
1.616914
1.622721
1.629398
1.637179
1.646417
1.656676
1.668419
1.681476
1.596917
1.598149
1.599973
1.602475
1.605761
1.609965
1.614655
1.61993
1.62592
1.632805
1.640829
1.649509
1.659173
1.670286
1.682659
1.596215
1.597356
1.599054
1.601388
1.604452
1.608364
1.612698
1.617532
1.622967
1.629137
1.636225
1.643695
1.651775
1.660788
1.671195
1.595607
1.596668
1.598258
1.600444
1.603314
1.606973
1.611001
1.615462
1.620436
1.626026
1.632366
1.638908
1.645783
1.653206
1.661484
1.59511
1.596103
1.597596
1.599653
1.602351
1.605784
1.609544
1.613682
1.618263
1.623367
1.629097
1.634901
1.640858
1.647087
1.653779
1.594733
1.595666
1.597074
1.599014
1.601557
1.604787
1.608307
1.61216
1.6164
1.621089
1.62631
1.631519
1.636757
1.642093
1.647625
1.594429
1.595308
1.596639
1.598475
1.600878
1.603926
1.607233
1.610836
1.614779
1.619115
1.623909
1.628632
1.633307
1.637966
1.64266
1.594142
1.594974
1.596237
1.597978
1.600256
1.603142
1.606261
1.609645
1.613332
1.617366
1.6218
1.626126
1.63035
1.634488
1.63856
1.593838
1.594626
1.595826
1.597483
1.59965
1.602392
1.605345
1.608538
1.612002
1.615777
1.619907
1.623901
1.62776
1.631484
1.635079
1.593495
1.594244
1.595387
1.596968
1.599035
1.60165
1.604457
1.607482
1.610753
1.614304
1.618173
1.621888
1.625444
1.628833
1.632051
1.613164
1.617216
1.622928
1.63071
1.640045
1.610316
1.613718
1.618528
1.625132
1.634008
1.644728
1.607839
1.610755
1.614873
1.620519
1.628127
1.638271
1.649649
1.605657
1.608193
1.611789
1.616696
1.623274
1.632026
1.642714
1.654894
1.603743
1.605977
1.609162
1.613503
1.619281
1.626909
1.6361
1.647389
1.660491
1.602102
1.60409
1.606942
1.610828
1.615981
1.62272
1.630703
1.640346
1.652247
1.666303
1.600734
1.602518
1.605092
1.608602
1.613239
1.619266
1.626283
1.634605
1.64467
1.657119
1.672007
1.59958
1.601192
1.603532
1.606724
1.610933
1.616371
1.62262
1.629899
1.638537
1.648989
1.661924
1.676331
1.598584
1.600049
1.602189
1.605113
1.608961
1.613914
1.619537
1.626001
1.633534
1.642474
1.653295
1.665659
1.679431
1.597704
1.599044
1.601014
1.60371
1.607254
1.6118
1.616914
1.622721
1.629398
1.637179
1.646417
1.656676
1.668419
1.681476
1.596916
1.598148
1.599972
1.602473
1.605758
1.609963
1.614653
1.619929
1.625921
1.632809
1.640837
1.649521
1.659182
1.670266
1.682557
1.596205
1.597345
1.599042
1.601375
1.604439
1.608351
1.612686
1.617522
1.622961
1.629137
1.636235
1.643719
1.651814
1.660834
1.671211
1.595568
1.596628
1.598217
1.600403
1.603273
1.606934
1.610965
1.615431
1.620412
1.626013
1.632371
1.638935
1.645842
1.653303
1.66162
1.595015
1.596006
1.597499
1.599556
1.602257
1.605696
1.609463
1.613611
1.618205
1.623327
1.629084
1.63492
1.64092
1.647205
1.653971
1.594566
1.595496
1.596903
1.598846
1.601394
1.604634
1.608166
1.612035
1.616294
1.621009
1.626262
1.631509
1.636794
1.642188
1.647797
1.594228
1.595105
1.596436
1.598274
1.600684
1.603743
1.607064
1.610683
1.614646
1.619006
1.623831
1.628587
1.633301
1.638004
1.642755
1.593958
1.594787
1.596049
1.597793
1.600077
1.602973
1.606103
1.6095
1.613203
1.617256
1.621713
1.626063
1.630314
1.63448
1.638586
1.593702
1.594489
1.595689
1.597347
1.599518
1.602267
1.605227
1.608429
1.611904
1.615691
1.619835
1.623845
1.627719
1.631459
1.635072
1.593425
1.594173
1.595316
1.596897
1.598967
1.601584
1.604395
1.607424
1.6107
1.614257
1.618132
1.621854
1.625416
1.628812
1.632037
1.593107
1.59382
1.594913
1.596424
1.598402
1.600903
1.603581
1.606457
1.609559
1.612915
1.616559
1.620035
1.623335
1.626447
1.629359
1.610415
1.613812
1.618611
1.625193
1.634025
1.644644
1.608021
1.61093
1.615033
1.620647
1.6282
1.638237
1.649399
1.605896
1.608426
1.612005
1.616878
1.623399
1.632053
1.642579
1.654432
1.603992
1.60622
1.609388
1.613698
1.619424
1.626965
1.636032
1.647123
1.659827
1.602301
1.604284
1.607124
1.610986
1.6161
1.622775
1.63067
1.640191
1.651911
1.665609
1.600841
1.602622
1.60519
1.608687
1.613304
1.619297
1.626268
1.634529
1.644517
1.656878
1.671615
1.599623
1.601234
1.603571
1.606759
1.61096
1.616385
1.622616
1.62987
1.638477
1.6489
1.661833
1.676286
1.598595
1.60006
1.6022
1.605124
1.60897
1.613919
1.619537
1.625992
1.633514
1.642443
1.65326
1.665662
1.67955
1.597705
1.599045
1.601015
1.603712
1.607256
1.611801
1.616914
1.62272
1.629394
1.637171
1.646406
1.656669
1.668442
1.681581
1.596916
1.598148
1.599972
1.602473
1.605758
1.609963
1.614653
1.619929
1.625921
1.632809
1.640837
1.649521
1.659182
1.670266
1.682557
1.596204
1.597344
1.599041
1.601373
1.604436
1.608348
1.612683
1.617519
1.622959
1.629137
1.636238
1.643727
1.651827
1.660844
1.671192
1.595558
1.596618
1.598205
1.600391
1.60326
1.606921
1.610952
1.615419
1.620402
1.626007
1.632371
1.638946
1.645867
1.653344
1.661668
1.594978
1.595967
1.597459
1.599516
1.602216
1.605656
1.609425
1.613577
1.618176
1.623306
1.629075
1.634928
1.640951
1.647266
1.65407
1.594473
1.595402
1.596808
1.598751
1.601301
1.604546
1.608084
1.611961
1.61623
1.62096
1.626232
1.631503
1.63682
1.642256
1.647918
1.594065
1.594939
1.59627
1.59811
1.600524
1.603592
1.606923
1.610556
1.614535
1.618916
1.623767
1.628554
1.633303
1.63805
1.642856
1.593762
1.594589
1.595851
1.597597
1.599887
1.602793
1.605935
1.609346
1.613066
1.61714
1.621624
1.626001
1.630282
1.634484
1.63863
1.593521
1.594306
1.595505
1.597166
1.599342
1.6021
1.605071
1.608284
1.611773
1.615577
1.619741
1.623771
1.627667
1.631431
1.635069
1.593292
1.594039
1.595182
1.596765
1.598838
1.601461
1.604279
1.607316
1.610601
1.614169
1.618057
1.621792
1.625367
1.628776
1.632015
1.593039
1.593751
1.594843
1.596356
1.598335
1.600839
1.60352
1.6064
1.609506
1.612867
1.616517
1.619999
1.623304
1.626422
1.629339
1.592742
1.593424
1.59447
1.595919
1.597815
1.600211
1.60277
1.605512
1.60846
1.61164
1.615082
1.618347
1.621423
1.624296
1.62695
1.60812
1.611027
1.615122
1.620721
1.628246
1.638228
1.649274
1.606078
1.608604
1.612172
1.617023
1.623504
1.632089
1.642496
1.654101
1.604229
1.606455
1.609611
1.613896
1.619578
1.627047
1.636006
1.646917
1.659245
1.602548
1.604529
1.607357
1.611196
1.616269
1.622879
1.630679
1.640063
1.65156
1.664791
1.601039
1.602818
1.605377
1.608857
1.613443
1.619388
1.626291
1.634455
1.644308
1.656461
1.670756
1.59973
1.60134
1.603673
1.606852
1.611037
1.616437
1.622632
1.629838
1.638377
1.648713
1.661537
1.675795
1.598638
1.600103
1.602242
1.605163
1.609003
1.613943
1.619548
1.625984
1.633478
1.642373
1.653155
1.665547
1.679458
1.597717
1.599057
1.601027
1.603724
1.607267
1.61181
1.61692
1.62272
1.629384
1.63715
1.646371
1.656629
1.668435
1.681682
1.596917
1.598149
1.599973
1.602475
1.605761
1.609965
1.614655
1.61993
1.62592
1.632805
1.640829
1.649509
1.659173
1.670286
1.682659
1.596204
1.597344
1.599041
1.601373
1.604436
1.608348
1.612683
1.617519
1.622959
1.629137
1.636238
1.643727
1.651827
1.660844
1.671192
1.595558
1.596617
1.598204
1.600388
1.603258
1.606917
1.610948
1.615415
1.620398
1.626005
1.632371
1.638949
1.645874
1.653356
1.661678
1.594969
1.595958
1.597448
1.599504
1.602203
1.605642
1.609411
1.613562
1.618163
1.623296
1.629069
1.634929
1.640962
1.647292
1.654111
1.594438
1.595365
1.596769
1.598711
1.601261
1.604506
1.608046
1.611925
1.616198
1.620933
1.626214
1.631497
1.63683
1.642288
1.647981
1.593975
1.594848
1.596177
1.598017
1.600433
1.603505
1.60684
1.610479
1.614467
1.61886
1.623726
1.628531
1.633304
1.638081
1.642926
1.593602
1.594427
1.595688
1.597436
1.59973
1.602643
1.605795
1.609218
1.612952
1.617043
1.621549
1.62595
1.63026
1.634494
1.63868
1.593329
1.594112
1.595311
1.596974
1.599156
1.601922
1.604904
1.60813
1.611635
1.615457
1.619643
1.623696
1.627617
1.631408
1.635077
1.593114
1.593859
1.595002
1.596587
1.598665
1.601297
1.604124
1.607172
1.61047
1.614052
1.617958
1.621711
1.625304
1.628732
1.63199
1.592908
1.593619
1.594711
1.596225
1.598208
1.600717
1.603405
1.606293
1.609407
1.612778
1.61644
1.619933
1.623249
1.626378
1.629306
1.592675
1.593356
1.594402
1.595852
1.59775
1.600148
1.60271
1.605456
1.608408
1.611592
1.615039
1.618309
1.62139
1.624267
1.626926
1.592398
1.593051
1.594056
1.595448
1.597269
1.599569
1.602019
1.604637
1.607445
1.610465
1.613725
1.6168
1.619679
1.622344
1.624777
1.606177
1.608701
1.612264
1.617104
1.623565
1.632116
1.642461
1.653936
1.604409
1.606633
1.609781
1.61405
1.619703
1.627121
1.636004
1.646783
1.658834
1.602783
1.604762
1.607582
1.611403
1.616443
1.622997
1.630719
1.639985
1.651283
1.664089
1.601283
1.603061
1.605612
1.609075
1.61363
1.619523
1.626355
1.634417
1.64412
1.656026
1.669784
1.599926
1.601535
1.603862
1.607028
1.61119
1.616552
1.622695
1.629827
1.638263
1.64845
1.661039
1.674807
1.598745
1.600209
1.602345
1.605259
1.609088
1.614009
1.619587
1.625986
1.633428
1.642249
1.652935
1.665208
1.678894
1.597759
1.5991
1.60107
1.603764
1.607304
1.611841
1.616941
1.622727
1.629371
1.637107
1.646291
1.656511
1.668302
1.681559
1.596928
1.598161
1.599986
1.602488
1.605773
1.609977
1.614665
1.619936
1.62592
1.632795
1.640807
1.649472
1.65913
1.670273
1.68275
1.596205
1.597345
1.599042
1.601375
1.604439
1.608351
1.612686
1.617522
1.622961
1.629137
1.636235
1.643719
1.651814
1.660834
1.671211
1.595558
1.596617
1.598204
1.600388
1.603258
1.606917
1.610948
1.615415
1.620398
1.626005
1.632371
1.638949
1.645874
1.653356
1.661678
1.594969
1.595957
1.597447
1.599502
1.6022
1.605639
1.609407
1.613558
1.618158
1.623291
1.629065
1.634928
1.640965
1.647299
1.654123
1.59443
1.595356
1.596759
1.5987
1.601249
1.604493
1.608031
1.61191
1.616183
1.620919
1.626203
1.63149
1.636831
1.6423
1.648006
1.593941
1.594812
1.59614
1.597979
1.600395
1.603466
1.606802
1.610442
1.614432
1.618829
1.623701
1.628515
1.633299
1.638092
1.642959
1.593515
1.594338
1.595598
1.597346
1.599641
1.602557
1.605713
1.609141
1.612882
1.616982
1.621499
1.625916
1.630242
1.634499
1.638713
1.593174
1.593954
1.595153
1.596817
1.599002
1.601775
1.604766
1.608002
1.611518
1.615355
1.61956
1.623633
1.627576
1.631392
1.635091
1.592927
1.59367
1.594812
1.596399
1.598482
1.601122
1.603959
1.607019
1.61033
1.613929
1.617854
1.621626
1.62524
1.62869
1.631972
1.592734
1.593443
1.594536
1.596051
1.598039
1.600556
1.603252
1.60615
1.609276
1.61266
1.616337
1.619846
1.623178
1.626321
1.629266
1.592547
1.593227
1.594273
1.595724
1.597625
1.600029
1.602597
1.605349
1.608309
1.611503
1.61496
1.61824
1.62133
1.624217
1.626884
1.592333
1.592984
1.593989
1.595382
1.597205
1.599507
1.60196
1.604582
1.607393
1.610418
1.613682
1.616762
1.619644
1.622313
1.62475
1.592073
1.592699
1.593666
1.595007
1.596759
1.598971
1.60132
1.603825
1.606504
1.609379
1.612473
1.615378
1.618081
1.620563
1.622805
1.604507
1.60673
1.609875
1.614135
1.619773
1.627167
1.636012
1.646723
1.65863
1.60296
1.604939
1.607753
1.611562
1.616579
1.623096
1.630763
1.639946
1.6511
1.663598
1.601515
1.603293
1.605837
1.609286
1.613815
1.619666
1.626438
1.634415
1.643991
1.655678
1.668963
1.600167
1.601776
1.604097
1.60725
1.611387
1.616709
1.622796
1.629852
1.638178
1.648204
1.66052
1.673715
1.598937
1.600402
1.602534
1.605439
1.60925
1.614141
1.619678
1.62602
1.633384
1.642094
1.652619
1.664646
1.677811
1.597863
1.599205
1.601173
1.603863
1.607394
1.611918
1.616997
1.622754
1.629358
1.637039
1.646144
1.656265
1.667931
1.680946
1.596969
1.598203
1.600028
1.602529