/*--------------------------------*- C++ -*----------------------------------*\
| =========                 |                                                 |
| \\      /  F ield         | OpenFOAM: The Open Source CFD Toolbox           |
|  \\    /   O peration     | Version:  2306                                  |
|   \\  /    A nd           | Website:  www.openfoam.com                      |
|    \\/     M anipulation  |                                                 |
\*---------------------------------------------------------------------------*/
FoamFile
{
    version     2.0;
    format      ascii;
    arch        "LSB;label=32;scalar=64";
    class       volScalarField;
    location    "0.9/phiI";
    object      T;
}
// * * * * * * * * * * * * * * * * * * * * * * * * * * * * * * * * * * * * * //

dimensions      [0 0 0 1 0 0 0];

internalField   nonuniform List<scalar> 
12000
(
1252.026
1251.849
1254.211
1252.109
1251.436
1254.203
1251.932
1256.171
1254.282
1252.176
1250.659
1254.184
1251.521
1256.207
1254.274
1251.999
1257.96
1256.231
1254.338
1252.226
1249.322
1254.145
1250.747
1256.289
1254.255
1251.589
1258.008
1256.267
1254.33
1252.049
1259.657
1258.011
1256.277
1254.379
1252.258
1247.3
1254.074
1249.422
1256.437
1254.215
1250.819
1258.114
1256.349
1254.31
1251.639
1259.705
1258.058
1256.313
1254.37
1252.082
1261.289
1259.7
1258.049
1256.309
1254.403
1252.27
1244.969
1253.938
1247.429
1256.68
1254.14
1249.505
1258.308
1256.495
1254.268
1250.873
1259.814
1258.165
1256.394
1254.349
1251.672
1261.335
1259.748
1258.096
1256.345
1254.394
1252.094
1262.865
1261.326
1259.731
1258.074
1256.326
1254.41
1252.281
1242.833
1253.654
1245.135
1257.011
1253.998
1247.539
1258.627
1256.732
1254.19
1249.57
1260.012
1258.356
1256.538
1254.306
1250.909
1261.44
1259.857
1258.202
1256.425
1254.372
1251.685
1262.909
1261.372
1259.779
1258.12
1256.361
1254.4
1252.104
1264.388
1262.897
1261.351
1259.75
1258.085
1256.327
1254.415
1252.291
1241.248
1253.292
1243.032
1257.274
1253.715
1245.28
1259.074
1257.053
1254.042
1247.629
1260.338
1258.67
1256.77
1254.224
1249.616
1261.629
1260.053
1258.392
1256.567
1254.327
1250.924
1263.007
1261.476
1259.887
1258.225
1256.44
1254.378
1251.696
1264.429
1262.941
1261.397
1259.798
1258.131
1256.362
1254.406
1252.115
1265.856
1264.415
1262.918
1261.365
1259.756
1258.082
1256.328
1254.42
1252.301
1240.412
1252.967
1241.471
1257.428
1253.356
1243.21
1259.482
1257.308
1253.758
1245.406
1260.796
1259.106
1257.079
1254.07
1247.7
1261.942
1260.374
1258.7
1256.792
1254.24
1249.64
1263.186
1261.665
1260.082
1258.413
1256.58
1254.33
1250.938
1264.522
1263.039
1261.501
1259.905
1258.235
1256.44
1254.382
1251.707
1265.895
1264.456
1262.962
1261.411
1259.803
1258.127
1256.363
1254.41
1252.125
1267.269
1265.88
1264.433
1262.928
1261.367
1259.749
1258.079
1256.329
1254.425
1252.311
1240.412
1252.778
1240.647
1257.5
1253.037
1241.672
1259.783
1257.459
1253.404
1243.367
1261.229
1259.506
1257.327
1253.785
1245.51
1262.382
1260.823
1259.124
1257.091
1254.08
1247.745
1263.48
1261.973
1260.398
1258.715
1256.799
1254.24
1249.661
1264.69
1263.217
1261.688
1260.097
1258.42
1256.577
1254.333
1250.952
1265.982
1264.549
1263.06
1261.514
1259.909
1258.23
1256.44
1254.386
1251.719
1267.306
1265.919
1264.474
1262.971
1261.412
1259.796
1258.124
1256.363
1254.415
1252.136
1268.628
1267.291
1265.894
1264.439
1262.927
1261.357
1259.743
1258.075
1256.329
1254.43
1252.321
1241.248
1252.778
1240.647
1257.524
1252.851
1240.861
1259.973
1257.53
1253.09
1241.852
1261.563
1259.802
1257.475
1253.435
1243.502
1262.802
1261.248
1259.516
1257.332
1253.794
1245.582
1263.894
1262.404
1260.836
1259.129
1257.087
1254.073
1247.783
1264.966
1263.507
1261.992
1260.409
1258.717
1256.791
1254.239
1249.682
1266.141
1264.716
1263.236
1261.7
1260.1
1258.413
1256.574
1254.335
1250.966
1267.389
1266.006
1264.566
1263.069
1261.515
1259.902
1258.226
1256.439
1254.389
1251.73
1268.663
1267.327
1265.933
1264.48
1262.97
1261.403
1259.79
1258.12
1256.363
1254.419
1252.146
1269.931
1268.647
1267.302
1265.899
1264.435
1262.915
1261.349
1259.737
1258.072
1256.329
1254.434
1252.337
1242.833
1252.967
1241.471
1257.524
1252.851
1240.861
1260.062
1257.555
1252.907
1241.052
1261.78
1259.989
1257.546
1253.125
1242.009
1263.13
1261.576
1259.808
1257.477
1253.448
1243.6
1264.291
1262.817
1261.253
1259.512
1257.32
1253.786
1245.643
1265.353
1263.913
1262.414
1260.837
1259.119
1257.069
1254.067
1247.821
1266.4
1264.989
1263.523
1261.999
1260.406
1258.704
1256.784
1254.237
1249.704
1267.539
1266.164
1264.732
1263.244
1261.698
1260.09
1258.407
1256.571
1254.337
1250.981
1268.742
1267.41
1266.02
1264.572
1263.066
1261.504
1259.894
1258.221
1256.438
1254.393
1251.742
1269.965
1268.682
1267.339
1265.937
1264.476
1262.957
1261.394
1259.783
1258.117
1256.362
1254.423
1252.162
1271.18
1269.948
1268.656
1267.305
1265.892
1264.422
1262.904
1261.34
1259.73
1258.068
1256.329
1254.444
1252.358
1244.969
1253.292
1243.032
1257.5
1253.037
1241.672
1260.062
1257.555
1252.907
1241.052
1261.887
1260.078
1257.571
1252.946
1241.221
1263.348
1261.791
1259.992
1257.546
1253.143
1242.126
1264.604
1263.141
1261.577
1259.799
1257.462
1253.443
1243.684
1265.727
1264.304
1262.82
1261.246
1259.494
1257.296
1253.779
1245.704
1266.764
1265.369
1263.92
1262.412
1260.824
1259.098
1257.053
1254.061
1247.859
1267.784
1266.421
1265.002
1263.527
1261.993
1260.391
1258.694
1256.776
1254.236
1249.727
1268.884
1267.56
1266.177
1264.737
1263.24
1261.686
1260.081
1258.4
1256.568
1254.339
1250.996
1270.04
1268.76
1267.422
1266.024
1264.567
1263.054
1261.495
1259.887
1258.217
1256.436
1254.396
1251.76
1271.212
1269.982
1268.691
1267.341
1265.931
1264.462
1262.947
1261.385
1259.776
1258.112
1256.362
1254.433
1252.184
1272.375
1271.195
1269.956
1268.657
1267.297
1265.878
1264.41
1262.894
1261.331
1259.723
1258.064
1256.333
1254.458
1252.385
1247.3
1253.654
1245.135
1257.428
1253.356
1243.21
1259.973
1257.53
1253.09
1241.852
1261.887
1260.078
1257.571
1252.946
1241.221
1263.455
1261.897
1260.081
1257.571
1252.966
1241.348
1264.813
1263.356
1261.79
1259.982
1257.531
1253.141
1242.226
1266.022
1264.613
1263.14
1261.565
1259.776
1257.434
1253.438
1243.766
1267.116
1265.738
1264.305
1262.811
1261.226
1259.465
1257.274
1253.772
1245.764
1268.127
1266.778
1265.375
1263.917
1262.398
1260.801
1259.078
1257.038
1254.054
1247.897
1269.117
1267.802
1266.431
1265.003
1263.519
1261.977
1260.378
1258.682
1256.768
1254.235
1249.75
1270.176
1268.902
1267.57
1266.18
1264.731
1263.225
1261.675
1260.071
1258.393
1256.564
1254.34
1251.017
1271.285
1270.057
1268.77
1267.423
1266.017
1264.553
1263.042
1261.485
1259.879
1258.211
1256.434
1254.405
1251.783
1272.406
1271.227
1269.99
1268.692
1267.333
1265.916
1264.45
1262.936
1261.375
1259.769
1258.108
1256.366
1254.447
1252.211
1273.517
1272.389
1271.202
1269.955
1268.648
1267.281
1265.864
1264.398
1262.883
1261.322
1259.716
1258.064
1256.342
1254.478
1252.416
1249.322
1253.938
1247.429
1257.274
1253.715
1245.28
1259.783
1257.459
1253.404
1243.367
1261.78
1259.989
1257.546
1253.125
1242.009
1263.455
1261.897
1260.081
1257.571
1252.966
1241.348
1264.916
1263.463
1261.894
1260.069
1257.556
1252.968
1241.457
1266.22
1264.819
1263.353
1261.775
1259.957
1257.502
1253.14
1242.325
1267.395
1266.03
1264.61
1263.126
1261.54
1259.743
1257.41
1253.433
1243.847
1268.46
1267.126
1265.738
1264.295
1262.79
1261.195
1259.439
1257.253
1253.765
1245.823
1269.442
1268.14
1266.782
1265.37
1263.901
1262.373
1260.78
1259.059
1257.022
1254.048
1247.934
1270.398
1269.133
1267.81
1266.431
1264.993
1263.501
1261.962
1260.364
1258.671
1256.759
1254.233
1249.779
1271.415
1270.192
1268.911
1267.571
1266.171
1264.715
1263.213
1261.663
1260.062
1258.386
1256.56
1254.347
1251.045
1272.476
1271.3
1270.065
1268.77
1267.415
1266.001
1264.54
1263.031
1261.475
1259.871
1258.206
1256.437
1254.418
1251.812
1273.547
1272.42
1271.234
1269.989
1268.683
1267.317
1265.902
1264.437
1262.925
1261.366
1259.761
1258.107
1256.374
1254.466
1252.244
1274.606
1273.529
1272.394
1271.2
1269.945
1268.631
1267.267
1265.851
1264.385
1262.872
1261.312
1259.712
1258.068
1256.356
1254.502
1250.659
1254.074
1249.422
1257.011
1253.998
1247.539
1259.482
1257.308
1253.758
1245.406
1261.563
1259.802
1257.475
1253.435
1243.502
1263.348
1261.791
1259.992
1257.546
1253.143
1242.126
1264.916
1263.463
1261.894
1260.069
1257.556
1252.968
1241.457
1266.319
1264.922
1263.458
1261.879
1260.043
1257.527
1252.968
1241.563
1267.583
1266.226
1264.815
1263.337
1261.748
1259.921
1257.478
1253.138
1242.421
1268.725
1267.402
1266.027
1264.597
1263.101
1261.505
1259.714
1257.386
1253.427
1243.927
1269.758
1268.468
1267.125
1265.727
1264.274
1262.759
1261.169
1259.414
1257.231
1253.757
1245.881
1270.707
1269.453
1268.143
1266.776
1265.353
1263.876
1262.352
1260.76
1259.04
1257.005
1254.042
1247.978
1271.627
1270.412
1269.139
1267.809
1266.419
1264.974
1263.485
1261.947
1260.35
1258.659
1256.75
1254.237
1249.815
1272.601
1271.429
1270.199
1268.91
1267.562
1266.155
1264.701
1263.2
1261.651
1260.051
1258.377
1256.56
1254.359
1251.078
1273.614
1272.489
1271.306
1270.063
1268.761
1267.399
1265.988
1264.527
1263.019
1261.465
1259.862
1258.204
1256.445
1254.437
1251.847
1274.635
1273.559
1272.425
1271.232
1269.979
1268.666
1267.303
1265.889
1264.425
1262.913
1261.356
1259.757
1258.111
1256.387
1254.49
1275.644
1274.618
1273.534
1272.392
1271.19
1269.928
1268.617
1267.253
1265.838
1264.373
1262.86
1261.306
1259.713
1258.077
1256.374
1251.436
1254.145
1250.747
1256.68
1254.14
1249.505
1259.074
1257.053
1254.042
1247.629
1261.229
1259.506
1257.327
1253.785
1245.51
1263.13
1261.576
1259.808
1257.477
1253.448
1243.6
1264.813
1263.356
1261.79
1259.982
1257.531
1253.141
1242.226
1266.319
1264.922
1263.458
1261.879
1260.043
1257.527
1252.968
1241.563
1267.676
1266.323
1264.917
1263.442
1261.85
1260.007
1257.503
1252.968
1241.668
1268.903
1267.588
1266.221
1264.799
1263.309
1261.711
1259.89
1257.453
1253.136
1242.516
1270.01
1268.73
1267.398
1266.013
1264.571
1263.066
1261.475
1259.685
1257.362
1253.422
1244.005
1271.008
1269.765
1268.467
1267.114
1265.705
1264.244
1262.733
1261.142
1259.388
1257.209
1253.749
1245.944
1271.922
1270.717
1269.455
1268.135
1266.759
1265.329
1263.855
1262.331
1260.739
1259.02
1256.989
1254.04
1248.027
1272.804
1271.64
1270.417
1269.136
1267.796
1266.4
1264.958
1263.469
1261.931
1260.336
1258.646
1256.746
1254.246
1249.856
1273.734
1272.614
1271.435
1270.198
1268.9
1267.544
1266.14
1264.687
1263.186
1261.639
1260.04
1258.373
1256.565
1254.376
1251.117
1274.7
1273.626
1272.494
1271.304
1270.053
1268.743
1267.384
1265.974
1264.514
1263.007
1261.453
1259.857
1258.207
1256.457
1254.46
1275.672
1274.646
1273.563
1272.422
1271.221
1269.961
1268.651
1267.289
1265.875
1264.412
1262.901
1261.349
1259.757
1258.12
1256.405
1276.631
1275.654
1274.621
1273.53
1272.381
1271.172
1269.914
1268.602
1267.239
1265.824
1264.359
1262.851
1261.303
1259.718
1258.091
1251.849
1254.184
1251.521
1256.437
1254.215
1250.819
1258.627
1256.732
1254.19
1249.57
1260.796
1259.106
1257.079
1254.07
1247.7
1262.802
1261.248
1259.516
1257.332
1253.794
1245.582
1264.604
1263.141
1261.577
1259.799
1257.462
1253.443
1243.684
1266.22
1264.819
1263.353
1261.775
1259.957
1257.502
1253.14
1242.325
1267.676
1266.323
1264.917
1263.442
1261.85
1260.007
1257.503
1252.968
1241.668
1268.992
1267.68
1266.318
1264.9
1263.413
1261.813
1259.975
1257.478
1252.968
1241.771
1270.18
1268.907
1267.582
1266.205
1264.772
1263.273
1261.679
1259.859
1257.428
1253.133
1242.609
1271.249
1270.015
1268.726
1267.384
1265.988
1264.538
1263.037
1261.445
1259.655
1257.338
1253.415
1244.087
1272.21
1271.015
1269.763
1268.456
1267.092
1265.676
1264.217
1262.706
1261.116
1259.363
1257.187
1253.746
1246.013
1273.087
1271.931
1270.718
1269.447
1268.118
1266.734
1265.307
1263.833
1262.309
1260.718
1259
1256.976
1254.044
1248.082
1273.93
1272.816
1271.644
1270.413
1269.124
1267.776
1266.383
1264.941
1263.452
1261.916
1260.321
1258.637
1256.746
1254.26
1249.904
1274.816
1273.746
1272.619
1271.432
1270.186
1268.882
1267.528
1266.125
1264.672
1263.173
1261.626
1260.033
1258.374
1256.575
1254.398
1275.734
1274.711
1273.63
1272.491
1271.293
1270.036
1268.728
1267.369
1265.96
1264.501
1262.994
1261.446
1259.856
1258.214
1256.473
1276.658
1275.682
1274.65
1273.56
1272.411
1271.204
1269.946
1268.636
1267.274
1265.861
1264.398
1262.892
1261.346
1259.762
1258.133
1277.568
1276.641
1275.657
1274.617
1273.519
1272.363
1271.157
1269.899
1268.587
1267.224
1265.809
1264.349
1262.846
1261.305
1259.727
1252.026
1254.203
1251.932
1256.289
1254.255
1251.589
1258.308
1256.495
1254.268
1250.873
1260.338
1258.67
1256.77
1254.224
1249.616
1262.382
1260.823
1259.124
1257.091
1254.08
1247.745
1264.291
1262.817
1261.253
1259.512
1257.32
1253.786
1245.643
1266.022
1264.613
1263.14
1261.565
1259.776
1257.434
1253.438
1243.766
1267.583
1266.226
1264.815
1263.337
1261.748
1259.921
1257.478
1253.138
1242.421
1268.992
1267.68
1266.318
1264.9
1263.413
1261.813
1259.975
1257.478
1252.968
1241.771
1270.264
1268.995
1267.675
1266.301
1264.872
1263.376
1261.78
1259.944
1257.453
1252.967
1241.872
1271.411
1270.183
1268.902
1267.567
1266.178
1264.737
1263.242
1261.647
1259.828
1257.403
1253.129
1242.706
1272.441
1271.253
1270.01
1268.712
1267.36
1265.955
1264.509
1263.007
1261.415
1259.626
1257.313
1253.414
1244.174
1273.364
1272.216
1271.012
1269.751
1268.434
1267.063
1265.65
1264.191
1262.68
1261.089
1259.336
1257.169
1253.749
1246.086
1274.203
1273.095
1271.931
1270.709
1269.429
1268.094
1266.713
1265.285
1263.811
1262.288
1260.696
1258.983
1256.969
1254.054
1248.142
1275.005
1273.941
1272.819
1271.639
1270.4
1269.103
1267.759
1266.365
1264.923
1263.435
1261.899
1260.309
1258.632
1256.751
1254.279
1275.847
1274.827
1273.75
1272.615
1271.421
1270.168
1268.866
1267.513
1266.109
1264.657
1263.158
1261.616
1260.03
1258.379
1256.589
1276.719
1275.745
1274.715
1273.627
1272.48
1271.275
1270.02
1268.713
1267.354
1265.945
1264.486
1262.984
1261.442
1259.86
1258.226
1277.595
1276.668
1275.685
1274.646
1273.548
1272.393
1271.189
1269.931
1268.621
1267.26
1265.846
1264.387
1262.887
1261.347
1259.771
1278.457
1277.577
1276.643
1275.653
1274.606
1273.501
1272.348
1271.142
1269.883
1268.573
1267.209
1265.797
1264.342
1262.845
1261.311
1254.211
1252.109
1256.207
1254.274
1251.999
1258.114
1256.349
1254.31
1251.639
1260.012
1258.356
1256.538
1254.306
1250.909
1261.942
1260.374
1258.7
1256.792
1254.24
1249.64
1263.894
1262.404
1260.836
1259.129
1257.087
1254.073
1247.783
1265.727
1264.304
1262.82
1261.246
1259.494
1257.296
1253.779
1245.704
1267.395
1266.03
1264.61
1263.126
1261.54
1259.743
1257.41
1253.433
1243.847
1268.903
1267.588
1266.221
1264.799
1263.309
1261.711
1259.89
1257.453
1253.136
1242.516
1270.264
1268.995
1267.675
1266.301
1264.872
1263.376
1261.78
1259.944
1257.453
1252.967
1241.872
1271.493
1270.268
1268.989
1267.658
1266.274
1264.836
1263.344
1261.747
1259.912
1257.427
1252.966
1241.976
1272.597
1271.415
1270.178
1268.887
1267.541
1266.145
1264.706
1263.21
1261.615
1259.797
1257.377
1253.131
1242.807
1273.586
1272.445
1271.249
1269.996
1268.688
1267.328
1265.927
1264.48
1262.977
1261.385
1259.596
1257.292
1253.419
1244.266
1274.469
1273.369
1272.213
1271
1269.73
1268.406
1267.038
1265.625
1264.165
1262.653
1261.061
1259.313
1257.156
1253.756
1246.164
1275.268
1274.21
1273.095
1271.923
1270.692
1269.405
1268.072
1266.691
1265.263
1263.79
1262.265
1260.677
1258.971
1256.966
1254.068
1276.03
1275.015
1273.943
1272.814
1271.625
1270.38
1269.085
1267.741
1266.347
1264.906
1263.417
1261.885
1260.302
1258.632
1256.76
1276.829
1275.857
1274.83
1273.746
1272.603
1271.402
1270.152
1268.85
1267.497
1266.094
1264.641
1263.146
1261.611
1260.031
1258.388
1277.654
1276.729
1275.748
1274.71
1273.615
1272.462
1271.259
1270.005
1268.698
1267.339
1265.93
1264.474
1262.978
1261.442
1259.867
1278.483
1277.604
1276.67
1275.681
1274.634
1273.531
1272.378
1271.173
1269.916
1268.606
1267.244
1265.834
1264.38
1262.886
1261.353
1279.298
1278.465
1277.58
1276.639
1275.641
1274.588
1273.486
1272.332
1271.126
1269.868
1268.556
1267.196
1265.789
1264.339
1262.848
1256.171
1254.282
1252.176
1258.008
1256.267
1254.33
1252.049
1259.814
1258.165
1256.394
1254.349
1251.672
1261.629
1260.053
1258.392
1256.567
1254.327
1250.924
1263.48
1261.973
1260.398
1258.715
1256.799
1254.24
1249.661
1265.353
1263.913
1262.414
1260.837
1259.119
1257.069
1254.067
1247.821
1267.116
1265.738
1264.305
1262.811
1261.226
1259.465
1257.274
1253.772
1245.764
1268.725
1267.402
1266.027
1264.597
1263.101
1261.505
1259.714
1257.386
1253.427
1243.927
1270.18
1268.907
1267.582
1266.205
1264.772
1263.273
1261.679
1259.859
1257.428
1253.133
1242.609
1271.493
1270.268
1268.989
1267.658
1266.274
1264.836
1263.344
1261.747
1259.912
1257.427
1252.966
1241.976
1272.675
1271.495
1270.261
1268.974
1267.632
1266.239
1264.805
1263.311
1261.715
1259.88
1257.401
1252.969
1242.084
1273.736
1272.6
1271.409
1270.163
1268.861
1267.508
1266.115
1264.676
1263.179
1261.583
1259.765
1257.355
1253.138
1242.912
1274.683
1273.589
1272.44
1271.235
1269.973
1268.658
1267.301
1265.899
1264.451
1262.948
1261.353
1259.569
1257.276
1253.428
1244.362
1275.526
1274.474
1273.366
1272.202
1270.98
1269.703
1268.381
1267.013
1265.599
1264.139
1262.625
1261.037
1259.295
1257.148
1253.769
1276.285
1275.275
1274.209
1273.086
1271.905
1270.668
1269.384
1268.051
1266.669
1265.242
1263.766
1262.245
1260.663
1258.964
1256.969
1277.006
1276.039
1275.017
1273.937
1272.8
1271.605
1270.362
1269.067
1267.723
1266.329
1264.887
1263.402
1261.876
1260.299
1258.637
1277.761
1276.838
1275.86
1274.826
1273.733
1272.584
1271.386
1270.135
1268.833
1267.481
1266.077
1264.628
1263.138
1261.609
1260.037
1278.54
1277.663
1276.731
1275.743
1274.698
1273.597
1272.446
1271.244
1269.989
1268.682
1267.323
1265.917
1264.466
1262.976
1261.447
1279.323
1278.491
1277.606
1276.666
1275.669
1274.617
1273.515
1272.363
1271.158
1269.9
1268.59
1267.231
1265.826
1264.377
1262.888
1280.091
1279.306
1278.467
1277.575
1276.627
1275.624
1274.573
1273.471
1272.317
1271.111
1269.851
1268.542
1267.186
1265.784
1264.34
1257.96
1256.231
1254.338
1252.226
1259.705
1258.058
1256.313
1254.37
1252.082
1261.44
1259.857
1258.202
1256.425
1254.372
1251.685
1263.186
1261.665
1260.082
1258.413
1256.58
1254.33
1250.938
1264.966
1263.507
1261.992
1260.409
1258.717
1256.791
1254.239
1249.682
1266.764
1265.369
1263.92
1262.412
1260.824
1259.098
1257.053
1254.061
1247.859
1268.46
1267.126
1265.738
1264.295
1262.79
1261.195
1259.439
1257.253
1253.765
1245.823
1270.01
1268.73
1267.398
1266.013
1264.571
1263.066
1261.475
1259.685
1257.362
1253.422
1244.005
1271.411
1270.183
1268.902
1267.567
1266.178
1264.737
1263.242
1261.647
1259.828
1257.403
1253.129
1242.706
1272.675
1271.495
1270.261
1268.974
1267.632
1266.239
1264.805
1263.311
1261.715
1259.88
1257.401
1252.969
1242.084
1273.812
1272.678
1271.489
1270.246
1268.948
1267.598
1266.209
1264.774
1263.279
1261.682
1259.847
1257.379
1252.978
1242.197
1274.829
1273.739
1272.594
1271.394
1270.138
1268.83
1267.48
1266.086
1264.645
1263.147
1261.55
1259.737
1257.338
1253.15
1243.022
1275.733
1274.686
1273.585
1272.427
1271.212
1269.944
1268.632
1267.274
1265.871
1264.422
1262.917
1261.325
1259.547
1257.265
1253.442
1276.534
1275.53
1274.47
1273.355
1272.181
1270.953
1269.679
1268.357
1266.988
1265.574
1264.111
1262.6
1261.017
1259.282
1257.145
1277.253
1276.291
1275.274
1274.2
1273.069
1271.882
1270.647
1269.363
1268.029
1266.648
1265.218
1263.746
1262.229
1260.653
1258.961
1277.933
1277.014
1276.041
1275.011
1273.923
1272.779
1271.587
1270.344
1269.049
1267.705
1266.31
1264.871
1263.391
1261.87
1260.3
1278.644
1277.769
1276.84
1275.855
1274.813
1273.715
1272.568
1271.369
1270.119
1268.817
1267.463
1266.062
1264.619
1263.134
1261.611
1279.379
1278.549
1277.665
1276.726
1275.731
1274.681
1273.581
1272.43
1271.228
1269.973
1268.665
1267.309
1265.907
1264.462
1262.977
1280.115
1279.331
1278.493
1277.601
1276.654
1275.651
1274.601
1273.5
1272.347
1271.142
1269.884
1268.576
1267.221
1265.821
1264.377
1280.838
1280.099
1279.307
1278.462
1277.563
1276.61
1275.609
1274.558
1273.455
1272.301
1271.094
1269.837
1268.532
1267.18
1265.783
1259.657
1258.011
1256.277
1254.379
1252.258
1261.335
1259.748
1258.096
1256.345
1254.394
1252.094
1263.007
1261.476
1259.887
1258.225
1256.44
1254.378
1251.696
1264.69
1263.217
1261.688
1260.097
1258.42
1256.577
1254.333
1250.952
1266.4
1264.989
1263.523
1261.999
1260.406
1258.704
1256.784
1254.237
1249.704
1268.127
1266.778
1265.375
1263.917
1262.398
1260.801
1259.078
1257.038
1254.054
1247.897
1269.758
1268.468
1267.125
1265.727
1264.274
1262.759
1261.169
1259.414
1257.231
1253.757
1245.881
1271.249
1270.015
1268.726
1267.384
1265.988
1264.538
1263.037
1261.445
1259.655
1257.338
1253.415
1244.087
1272.597
1271.415
1270.178
1268.887
1267.541
1266.145
1264.706
1263.21
1261.615
1259.797
1257.377
1253.131
1242.807
1273.812
1272.678
1271.489
1270.246
1268.948
1267.598
1266.209
1264.774
1263.279
1261.682
1259.847
1257.379
1252.978
1242.197
1274.901
1273.814
1272.672
1271.474
1270.221
1268.916
1267.57
1266.179
1264.743
1263.247
1261.648
1259.818
1257.362
1252.992
1242.314
1275.874
1274.831
1273.733
1272.58
1271.371
1270.108
1268.802
1267.452
1266.057
1264.615
1263.114
1261.52
1259.713
1257.326
1253.167
1276.735
1275.736
1274.681
1273.571
1272.405
1271.184
1269.918
1268.606
1267.247
1265.843
1264.392
1262.888
1261.302
1259.53
1257.259
1277.495
1276.538
1275.526
1274.459
1273.334
1272.155
1270.93
1269.655
1268.333
1266.963
1265.546
1264.086
1262.58
1261.001
1259.273
1278.173
1277.258
1276.289
1275.265
1274.183
1273.046
1271.861
1270.626
1269.341
1268.008
1266.624
1265.197
1263.729
1262.218
1260.648
1278.813
1277.941
1277.015
1276.034
1274.997
1273.903
1272.762
1271.569
1270.325
1269.031
1267.685
1266.293
1264.858
1263.384
1261.869
1279.48
1278.653
1277.771
1276.835
1275.842
1274.795
1273.699
1272.551
1271.352
1270.102
1268.799
1267.448
1266.052
1264.613
1263.134
1280.171
1279.387
1278.55
1277.66
1276.714
1275.713
1274.665
1273.565
1272.414
1271.212
1269.956
1268.65
1267.298
1265.901
1264.462
1280.862
1280.123
1279.332
1278.488
1277.589
1276.636
1275.636
1274.586
1273.484
1272.331
1271.125
1269.869
1268.565
1267.214
1265.819
1281.539
1280.845
1280.1
1279.302
1278.45
1277.546
1276.595
1275.594
1274.542
1273.44
1272.284
1271.079
1269.826
1268.525
1267.178
1261.289
1259.7
1258.049
1256.309
1254.403
1252.27
1262.909
1261.372
1259.779
1258.12
1256.361
1254.4
1252.104
1264.522
1263.039
1261.501
1259.905
1258.235
1256.44
1254.382
1251.707
1266.141
1264.716
1263.236
1261.7
1260.1
1258.413
1256.574
1254.335
1250.966
1267.784
1266.421
1265.002
1263.527
1261.993
1260.391
1258.694
1256.776
1254.236
1249.727
1269.442
1268.14
1266.782
1265.37
1263.901
1262.373
1260.78
1259.059
1257.022
1254.048
1247.934
1271.008
1269.765
1268.467
1267.114
1265.705
1264.244
1262.733
1261.142
1259.388
1257.209
1253.749
1245.944
1272.441
1271.253
1270.01
1268.712
1267.36
1265.955
1264.509
1263.007
1261.415
1259.626
1257.313
1253.414
1244.174
1273.736
1272.6
1271.409
1270.163
1268.861
1267.508
1266.115
1264.676
1263.179
1261.583
1259.765
1257.355
1253.138
1242.912
1274.901
1273.814
1272.672
1271.474
1270.221
1268.916
1267.57
1266.179
1264.743
1263.247
1261.648
1259.818
1257.362
1252.992
1242.314
1275.944
1274.903
1273.808
1272.657
1271.45
1270.19
1268.888
1267.541
1266.15
1264.712
1263.214
1261.617
1259.794
1257.35
1253.01
1276.872
1275.876
1274.825
1273.719
1272.557
1271.341
1270.081
1268.775
1267.424
1266.027
1264.583
1263.084
1261.494
1259.694
1257.32
1277.69
1276.738
1275.731
1274.669
1273.55
1272.377
1271.159
1269.893
1268.579
1267.22
1265.813
1264.364
1262.864
1261.283
1259.518
1278.409
1277.499
1276.534
1275.515
1274.439
1273.309
1272.132
1270.906
1269.631
1268.308
1266.936
1265.521
1264.066
1262.563
1260.991
1279.046
1278.178
1277.257
1276.28
1275.248
1274.16
1273.025
1271.84
1270.605
1269.32
1267.984
1266.603
1265.18
1263.717
1262.211
1279.645
1278.82
1277.942
1277.009
1276.02
1274.977
1273.886
1272.744
1271.551
1270.307
1269.011
1267.667
1266.279
1264.85
1263.38
1280.27
1279.488
1278.654
1277.766
1276.822
1275.824
1274.779
1273.682
1272.535
1271.336
1270.084
1268.783
1267.436
1266.044
1264.611
1280.916
1280.178
1279.388
1278.545
1277.648
1276.697
1275.698
1274.649
1273.549
1272.398
1271.194
1269.94
1268.639
1267.291
1265.899
1281.563
1280.869
1280.124
1279.327
1278.476
1277.572
1276.621
1275.621
1274.57
1273.468
1272.314
1271.11
1269.857
1268.558
1267.212
1282.196
1281.546
1280.846
1280.095
1279.29
1278.434
1277.531
1276.579
1275.578
1274.527
1273.423
1272.269
1271.067
1269.818
1268.521
1262.865
1261.326
1259.731
1258.074
1256.326
1254.41
1252.281
1264.429
1262.941
1261.397
1259.798
1258.131
1256.362
1254.406
1252.115
1265.982
1264.549
1263.06
1261.514
1259.909
1258.23
1256.44
1254.386
1251.719
1267.539
1266.164
1264.732
1263.244
1261.698
1260.09
1258.407
1256.571
1254.337
1250.981
1269.117
1267.802
1266.431
1265.003
1263.519
1261.977
1260.378
1258.682
1256.768
1254.235
1249.75
1270.707
1269.453
1268.143
1266.776
1265.353
1263.876
1262.352
1260.76
1259.04
1257.005
1254.042
1247.978
1272.21
1271.015
1269.763
1268.456
1267.092
1265.676
1264.217
1262.706
1261.116
1259.363
1257.187
1253.746
1246.013
1273.586
1272.445
1271.249
1269.996
1268.688
1267.328
1265.927
1264.48
1262.977
1261.385
1259.596
1257.292
1253.419
1244.266
1274.829
1273.739
1272.594
1271.394
1270.138
1268.83
1267.48
1266.086
1264.645
1263.147
1261.55
1259.737
1257.338
1253.15
1243.022
1275.944
1274.903
1273.808
1272.657
1271.45
1270.19
1268.888
1267.541
1266.15
1264.712
1263.214
1261.617
1259.794
1257.35
1253.01
1276.941
1275.946
1274.897
1273.794
1272.634
1271.42
1270.163
1268.86
1267.512
1266.12
1264.679
1263.183
1261.59
1259.774
1257.343
1277.823
1276.874
1275.87
1274.812
1273.697
1272.529
1271.316
1270.055
1268.748
1267.395
1265.996
1264.553
1263.059
1261.473
1259.68
1278.599
1277.693
1276.733
1275.718
1274.648
1273.523
1272.353
1271.134
1269.867
1268.553
1267.191
1265.786
1264.34
1262.845
1261.268
1279.276
1278.412
1277.495
1276.523
1275.496
1274.415
1273.287
1272.11
1270.883
1269.607
1268.282
1266.912
1265.501
1264.049
1262.551
1279.872
1279.051
1278.176
1277.248
1276.264
1275.225
1274.14
1273.005
1271.82
1270.584
1269.297
1267.963
1266.586
1265.167
1263.709
1280.431
1279.652
1278.82
1277.935
1276.995
1276.001
1274.96
1273.868
1272.726
1271.532
1270.287
1268.993
1267.653
1266.269
1264.845
1281.013
1280.277
1279.489
1278.648
1277.753
1276.804
1275.808
1274.762
1273.666
1272.518
1271.317
1270.067
1268.77
1267.428
1266.041
1281.616
1280.923
1280.179
1279.383
1278.533
1277.631
1276.681
1275.682
1274.633
1273.533
1272.381
1271.178
1269.928
1268.631
1267.288
1282.219
1281.57
1280.87
1280.119
1279.315
1278.459
1277.557
1276.606
1275.605
1274.554
1273.451
1272.298
1271.098
1269.849
1268.553
1282.808
1282.202
1281.547
1280.841
1280.083
1279.274
1278.419
1277.516
1276.564
1275.563
1274.51
1273.407
1272.257
1271.059
1269.813
1264.388
1262.897
1261.351
1259.75
1258.085
1256.327
1254.415
1252.291
1265.895
1264.456
1262.962
1261.411
1259.803
1258.127
1256.363
1254.41
1252.125
1267.389
1266.006
1264.566
1263.069
1261.515
1259.902
1258.226
1256.439
1254.389
1251.73
1268.884
1267.56
1266.177
1264.737
1263.24
1261.686
1260.081
1258.4
1256.568
1254.339
1250.996
1270.398
1269.133
1267.81
1266.431
1264.993
1263.501
1261.962
1260.364
1258.671
1256.759
1254.233
1249.779
1271.922
1270.717
1269.455
1268.135
1266.759
1265.329
1263.855
1262.331
1260.739
1259.02
1256.989
1254.04
1248.027
1273.364
1272.216
1271.012
1269.751
1268.434
1267.063
1265.65
1264.191
1262.68
1261.089
1259.336
1257.169
1253.749
1246.086
1274.683
1273.589
1272.44
1271.235
1269.973
1268.658
1267.301
1265.899
1264.451
1262.948
1261.353
1259.569
1257.276
1253.428
1244.362
1275.874
1274.831
1273.733
1272.58
1271.371
1270.108
1268.802
1267.452
1266.057
1264.615
1263.114
1261.52
1259.713
1257.326
1253.167
1276.941
1275.946
1274.897
1273.794
1272.634
1271.42
1270.163
1268.86
1267.512
1266.12
1264.679
1263.183
1261.59
1259.774
1257.343
1277.89
1276.942
1275.94
1274.884
1273.771
1272.605
1271.394
1270.137
1268.833
1267.484
1266.088
1264.649
1263.156
1261.568
1259.759
1278.729
1277.825
1276.868
1275.857
1274.79
1273.669
1272.504
1271.29
1270.029
1268.721
1267.365
1265.967
1264.528
1263.037
1261.457
1279.462
1278.601
1277.688
1276.721
1275.698
1274.622
1273.5
1272.329
1271.11
1269.842
1268.525
1267.164
1265.763
1264.321
1262.83
1280.097
1279.279
1278.408
1277.484
1276.505
1275.472
1274.393
1273.265
1272.087
1270.86
1269.582
1268.258
1266.891
1265.484
1264.037
1280.653
1279.877
1279.049
1278.168
1277.231
1276.242
1275.206
1274.121
1272.985
1271.799
1270.561
1269.276
1267.945
1266.572
1265.158
1281.171
1280.437
1279.652
1278.814
1277.921
1276.976
1275.984
1274.942
1273.85
1272.708
1271.512
1270.268
1268.978
1267.642
1266.263
1281.711
1281.02
1280.278
1279.484
1278.636
1277.735
1276.788
1275.792
1274.746
1273.649
1272.499
1271.3
1270.054
1268.761
1267.423
1282.271
1281.623
1280.924
1280.174
1279.371
1278.516
1277.615
1276.666
1275.667
1274.617
1273.516
1272.365
1271.166
1269.919
1268.626
1282.83
1282.225
1281.571
1280.865
1280.107
1279.298
1278.444
1277.542
1276.591
1275.59
1274.537
1273.436
1272.286
1271.089
1269.844
1283.376
1282.814
1282.203
1281.542
1280.83
1280.067
1279.259
1278.404
1277.501
1276.549
1275.546
1274.494
1273.395
1272.248
1271.053
1265.856
1264.415
1262.918
1261.365
1259.756
1258.082
1256.328
1254.42
1252.301
1267.306
1265.919
1264.474
1262.971
1261.412
1259.796
1258.124
1256.363
1254.415
1252.136
1268.742
1267.41
1266.02
1264.572
1263.066
1261.504
1259.894
1258.221
1256.438
1254.393
1251.742
1270.176
1268.902
1267.57
1266.18
1264.731
1263.225
1261.675
1260.071
1258.393
1256.564
1254.34
1251.017
1271.627
1270.412
1269.139
1267.809
1266.419
1264.974
1263.485
1261.947
1260.35
1258.659
1256.75
1254.237
1249.815
1273.087
1271.931
1270.718
1269.447
1268.118
1266.734
1265.307
1263.833
1262.309
1260.718
1259
1256.976
1254.044
1248.082
1274.469
1273.369
1272.213
1271
1269.73