/*--------------------------------*- C++ -*----------------------------------*\
| =========                 |                                                 |
| \\      /  F ield         | OpenFOAM: The Open Source CFD Toolbox           |
|  \\    /   O peration     | Version:  2306                                  |
|   \\  /    A nd           | Website:  www.openfoam.com                      |
|    \\/     M anipulation  |                                                 |
\*---------------------------------------------------------------------------*/
FoamFile
{
    version     2.0;
    format      ascii;
    arch        "LSB;label=32;scalar=64";
    class       volVectorField;
    location    "0.6/phiI";
    object      i;
}
// * * * * * * * * * * * * * * * * * * * * * * * * * * * * * * * * * * * * * //

dimensions      [0 -2 0 0 0 1 0];

internalField   nonuniform List<vector> 
12000
(
(32.31949 -0.8373205 1555.167)
(32.70652 -3.216254 1568.931)
(63.5059 3.032957 1429.931)
(32.82043 -1.387893 4722.998)
(33.41811 -5.093282 1596.711)
(64.07088 7.769892 1438.87)
(33.22676 -4.878001 4764.22)
(56.47955 4.812558 1324.809)
(64.42733 2.675408 4341.301)
(33.84628 -2.486193 7980.624)
(34.25233 -3.18704 1638.253)
(65.12914 10.36479 1456.437)
(33.9792 -7.866141 4847.361)
(56.73719 13.01622 1331.658)
(65.01998 6.709676 4368.069)
(34.29112 -8.190772 8049.808)
(45.79604 5.609335 1240.62)
(57.2368 4.538582 4019.699)
(66.31909 1.962222 7332.471)
(35.41305 -4.155243 11323.49)
(34.80754 6.690683 1691.558)
(66.41914 10.70728 1481.379)
(34.87982 -6.980913 4971.632)
(57.2482 18.38931 1344.956)
(66.13616 8.664414 4420.66)
(35.12491 -13.38978 8189.282)
(45.91766 15.4563 1246.251)
(57.50767 12.21031 4040.209)
(66.96693 4.595514 7377.4)
(35.91639 -13.22433 11422.15)
(37.32631 6.028766 1170.664)
(46.41262 5.384104 3761.807)
(58.79753 3.992175 6785.099)
(69.20943 0.8782356 10398.14)
(37.54771 -6.43252 14794.82)
(34.50892 24.70494 1748.792)
(67.41583 9.256652 1510.775)
(35.53067 2.269123 5130.919)
(57.93538 19.67985 1363.386)
(67.51861 8.533753 4495.374)
(36.15736 -14.52934 8397.686)
(46.17414 22.34665 1257.104)
(58.04553 17.12021 4080.025)
(68.19849 5.272606 7465.664)
(36.87368 -21.78128 11621.04)
(37.38763 16.79724 1175.472)
(46.54241 14.79694 3778.667)
(59.0948 10.60319 6819.519)
(69.94113 1.381966 10462.22)
(38.13087 -20.0925 14925.24)
(30.90365 6.2225 1110.492)
(37.84682 5.836459 3547.41)
(47.6852 4.934925 6345.871)
(61.1832 3.161748 9616.778)
(73.14596 -0.6009207 13575.63)
(40.2898 -9.372069 16662.71)
(33.23184 41.59941 1793.774)
(67.324 8.94802 1538.575)
(35.34979 20.61627 5301.559)
(58.63578 15.73922 1384.178)
(68.64535 6.968839 4583.496)
(36.99723 -6.506371 8664.567)
(46.54362 24.58309 1271.929)
(58.77318 18.111 4135.259)
(69.76464 4.193854 7591.145)
(38.10599 -25.9923 11918.23)
(37.52721 24.64888 1184.694)
(46.81519 21.31952 3811.165)
(59.68618 14.58732 6886.348)
(71.3479 0.1146474 10588.12)
(39.25656 -33.2328 15188.2)
(30.93033 17.46527 1114.694)
(37.91385 16.23604 3561.805)
(47.83128 13.48199 6374.165)
(61.52061 8.160329 9665.862)
(73.99209 -3.003983 13660.34)
(40.97601 -28.95963 16809.18)
(26.02451 6.295578 1057.68)
(31.35559 6.05441 3362.986)
(38.9216 5.452953 5980.666)
(49.63035 4.252347 8990.032)
(64.42995 2.028818 12547.59)
(78.19836 -2.510008 15281.99)
(43.07059 -12.29136 16852.5)
(31.50858 46.0162 1823.583)
(65.84337 11.59598 1557.539)
(34.17678 38.60776 5435.187)
(59.0383 8.980294 1402.365)
(68.70971 7.077434 4666.902)
(37.04755 12.53418 8949.851)
(46.97484 20.28587 1288.21)
(59.52603 14.18006 4197.69)
(71.14875 2.395523 7739.313)
(39.23168 -19.81746 12298.7)
(37.7414 27.68681 1197.174)
(47.20847 23.33884 3855.608)
(60.49444 14.97325 6979.166)
(73.19269 -2.412218 10767.27)
(40.7612 -41.63576 15581.28)
(31.00058 25.88436 1122.727)
(38.06472 23.7808 3589.42)
(48.13657 19.26902 6428.71)
(62.19334 10.73433 9761.192)
(75.63787 -6.929451 13826.84)
(42.31911 -48.02271 17104.41)
(26.03114 17.76652 1061.416)
(31.38656 16.97586 3375.568)
(39.00003 15.11685 6004.821)
(49.8012 11.48337 9030.371)
(64.82218 4.826633 12612.45)
(79.19229 -8.666511 15377.09)
(43.85925 -37.76019 16997.98)
(22.21327 6.288859 1010.586)
(26.42413 6.146131 3201.109)
(32.28886 5.719219 5666.547)
(40.56412 4.870258 8469.102)
(52.2759 3.32137 11723.79)
(68.59055 0.5671956 14116.09)
(83.33247 -4.404741 15452.32)
(45.89055 -15.19132 17043.45)
(30.00007 34.75407 1841.066)
(63.6244 13.69848 1568.482)
(32.52899 44.12452 5523.3)
(58.86547 4.603451 1413.217)
(67.3656 10.39971 4723.747)
(36.07761 32.72973 9172.495)
(47.33509 11.24495 1301.726)
(59.98569 7.818717 4252.469)
(71.52035 3.338 7879.746)
(39.63021 0.2991341 12704.93)
(38.01826 23.65391 1210.64)
(47.66899 19.09397 3904.533)
(61.35163 11.0508 7084.318)
(74.96635 -4.575226 10979.08)
(42.2757 -37.97436 16084.59)
(31.11725 29.49356 1133.528)
(38.295 26.64899 3626.835)
(48.57731 20.84839 6503.413)
(63.1241 10.19218 9893.753)
(77.86254 -11.44433 14063.97)
(44.17519 -61.84769 17545.78)
(26.0601 26.51808 1068.539)
(31.4652 25.13101 3399.621)
(39.17338 22.04768 6051.168)
(50.15591 16.14959 9108.169)
(65.606 5.471692 12738.49)
(81.14673 -16.0309 15563.97)
(45.41832 -62.69651 17290.94)
(22.20688 17.82119 1013.949)
(26.43412 17.33214 3212.295)
(32.32837 15.99987 5687.657)
(40.65989 13.41596 8503.533)
(52.48059 8.756497 11777.08)
(69.05363 0.5240783 14188.88)
(84.47332 -14.28292 15546.71)
(46.7811 -46.49711 17187.99)
(19.19296 6.231752 968.1487)
(22.57139 6.154363 3056.752)
(27.24944 5.848126 5390.851)
(33.71485 5.210019 8021.191)
(42.79696 4.075734 11039.59)
(55.66234 2.120839 13181.55)
(72.83173 -0.8828569 14264.82)
(88.5491 -6.285833 15623.63)
(48.74986 -18.07276 17234.53)
(29.14702 12.79571 1849.069)
(61.59552 11.13846 1574.22)
(31.06746 33.73462 5574.717)
(58.25338 3.537716 1418.293)
(65.24556 13.03127 4756.414)
(34.57613 40.43502 9318.629)
(47.45741 3.746759 1308.952)
(59.85982 3.966307 4285.269)
(70.44304 8.015514 7975.408)
(38.96514 23.85663 13021.31)
(38.29747 13.80599 1221.424)
(48.05885 10.41529 3945.332)
(61.92458 5.477118 7176.954)
(75.80129 -2.366348 11180.2)
(43.14647 -16.37037 16621.72)
(31.2842 25.84658 1145.04)
(38.59094 22.68391 3667.309)
(49.09636 16.69693 6585.885)
(64.13975 6.268553 10044.27)
(80.16648 -14.12167 14344.8)
(46.19084 -61.43527 18111.04)
(26.11618 30.52295 1078.072)
(31.59366 28.60106 3432.001)
(39.43583 24.57124 6114.061)
(50.66889 17.05188 9214.867)
(66.70404 3.650337 12913.99)
(83.86183 -23.13045 15830.31)
(47.62309 -81.90117 17728.92)
(22.2084 26.73474 1020.346)
(26.46963 25.85182 3233.624)
(32.42376 23.62702 5728.023)
(40.86747 19.41121 8569.626)
(52.90283 11.8892 11879.91)
(69.98105 -1.327302 14330.29)
(86.73432 -25.05816 15732.04)
(48.55472 -77.25993 17478.77)
(19.17834 17.71789 971.2043)
(22.56773 17.43083 3066.819)
(27.26614 16.4659 5409.617)
(33.76737 14.51682 8051.273)
(42.91642 11.09589 11085.05)
(55.91078 5.238558 13241.33)
(73.36521 -3.741637 14337.05)
(89.83603 -19.85544 15717.36)
(49.74174 -55.1731 17378.16)
(16.75163 6.142672 929.5608)
(19.51706 6.109528 2926.645)
(23.31112 5.886162 5145.002)
(28.51031 5.395495 7628.173)
(35.65257 4.515911 10451.62)
(45.65282 3.051616 12405.39)
(59.11867 0.9300699 13311.43)
(77.15411 -2.321919 14414.46)
(93.84845 -8.153952 15795.08)
(51.64837 -20.93646 17424.72)
(29.14702 -12.79571 1849.069)
(60.42285 4.265179 1576.666)
(30.23663 12.47559 5598.164)
(57.57292 2.738587 1420.287)
(63.27864 10.81108 4773.438)
(33.20519 31.75953 9403.506)
(47.34933 0.7730121 1311.591)
(59.28094 3.254922 4300.653)
(68.51499 11.71084 8030.195)
(37.68272 34.8841 13228.43)
(38.47351 4.745857 1226.705)
(48.20346 3.352177 3967.305)
(61.89124 2.676086 7232.662)
(75.12493 4.381739 11317.23)
(42.89395 11.78951 17039.47)
(31.47619 15.79747 1154.026)
(38.88827 13.16337 3699.892)
(49.5454 8.734071 6655.053)
(64.88446 1.884973 10177.4)
(81.63046 -10.18791 14612.03)
(47.66897 -37.89612 18713.89)
(26.20921 27.24324 1088.144)
(31.77418 25.02665 3466.601)
(39.76998 20.73164 6182.306)
(51.27704 13.02837 9332.988)
(67.93599 -0.2951648 13113.75)
(86.84971 -26.49744 16146.16)
(50.13524 -84.69904 18289.92)
(22.22293 30.98469 1028.876)
(26.53479 29.73875 3262.204)
(32.57578 26.81437 5782.447)
(41.17887 21.40346 8659.449)
(53.51453 11.85563 12021.16)
(71.29537 -4.817932 14527.39)
(89.93609 -34.73196 15996.32)
(51.10556 -101.8068 17913.53)
(19.16207 26.67857 977.0065)
(22.57453 26.13763 3085.974)
(27.31469 24.52175 5445.408)
(33.88824 21.33938 8108.826)
(43.17076 15.81102 11172.39)
(56.42033 6.386458 13356.67)
(74.43518 -8.06877 14477.23)
(92.40157 -34.01538 15901.21)
(51.72855 -91.7184 17666.87)
(16.73197 17.51234 932.3586)
(19.5047 17.36358 2935.794)
(23.31289 16.6523 5161.89)
(28.53719 15.14984 7654.91)
(35.72287 12.49444 10491.33)
(45.8029 8.103979 12456.39)
(59.41056 1.751595 13370.73)
(77.75755 -7.972328 14486.15)
(95.28067 -25.3862 15888.17)
(52.74104 -63.7907 17567.47)
(14.74556 6.035121 894.2419)
(17.04726 6.030759 2808.322)
(20.18668 5.865783 4923.415)
(24.44114 5.478862 7277.78)
(30.22308 4.77868 9935.945)
(38.12942 3.62162 11738.54)
(48.56901 2.036028 12519.06)
(62.6454 -0.2514135 13442.13)
(81.55773 -3.750544 14564.27)
(99.23012 -10.00972 15965.78)
(54.58562 -23.78308 15646.36)
(30.00007 -34.75407 1841.066)
(60.42285 -4.265179 1576.666)
(30.23663 -12.47559 5598.164)
(57.14642 1.069049 1420.912)
(62.13548 4.167321 4780.652)
(32.41707 11.85784 9442.077)
(47.15655 0.06888303 1312.105)
(58.62138 2.633824 4306.706)
(66.66756 10.16894 8058.586)
(36.44714 28.7967 13348.43)
(38.51884 0.5290838 1228.16)
(48.10986 0.6468888 3975.449)
(61.37724 2.680262 7258.903)
(73.48447 9.704131 11395.59)
(41.9075 27.35025 17312.49)
(31.62712 5.960444 1158.128)
(39.0768 4.476418 3716.012)
(49.73444 2.542073 6692.639)
(64.99089 0.6883459 10257.81)
(81.49707 -0.6002093 14794.21)
(47.94616 -3.774269 19181.33)
(26.33173 17.23525 1095.862)
(31.97844 15.27392 3493.757)
(40.10377 11.85786 6237.615)
(51.81621 6.145098 9432.618)
(68.9149 -3.064482 13291.21)
(89.12335 -20.34295 16447.19)
(52.2133 -59.18191 18887.61)
(22.26249 28.00209 1037.83)
(26.63805 26.53167 3292.47)
(32.78355 23.37637 5840.787)
(41.57133 17.74176 8757.219)
(54.24455 7.986867 12178)
(72.80694 -8.820051 14752.19)
(93.6019 -38.79689 16310.17)
(54.10982 -107.7829 18470.61)
(19.14895 31.06383 984.7233)
(22.59633 30.28533 3111.548)
(27.39799 28.16911 5493.438)
(34.07615 24.09049 8186.543)
(43.54912 17.06752 11291.27)
(57.15976 5.128364 13515.27)
(75.9642 -13.22546 14672.77)
(96.08642 -46.25574 16163.57)
(54.62292 -121.5748 18098.59)
(16.70444 26.44084 937.6625)
(19.4928 26.13781 2953.17)
(23.33022 24.94558 5194.031)
(28.60559 22.49897 7705.929)
(35.87855 18.21624 10567.35)
(46.11771 11.16245 12554.31)
(60.00674 0.9316971 13485.04)
(78.96906 -14.75606 14625.16)
(98.14878 -42.90661 16070.62)
(54.93971 -106.0771 17854.2)
(14.72299 17.24597 896.8199)
(17.02951 17.18827 2816.7)
(20.17882 16.65687 4938.761)
(24.45115 15.46966 7301.835)
(30.26389 13.35567 9971.225)
(38.22269 9.887507 11783.06)
(48.7495 5.139073 12569.63)
(62.98045 -1.705887 13500.99)
(82.23072 -12.16975 14635.46)
(100.8068 -30.87726 16058.27)
(55.77856 -72.35227 15772.74)
(13.07349 5.916953 861.7331)
(15.01687 5.932004 2699.999)
(17.65822 5.807548 4721.887)
(21.20952 5.495675 6962.017)
(25.97575 4.923976 9476.374)
(32.41128 3.984315 11153.77)
(40.65907 2.734958 11838.13)
(51.546 1.028573 12633.48)
(66.24258 -1.424074 13573.07)
(86.04212 -5.169261 14713.56)
(104.6931 -11.85372 14340.9)
(56.87021 -25.99156 11991.11)
(31.50858 -46.0162 1823.583)
(61.59552 -11.13846 1574.22)
(31.06746 -33.73462 5574.717)
(57.14642 -1.069048 1420.912)
(62.13548 -4.167321 4780.652)
(32.41707 -11.85784 9442.077)
(47.02048 0.0001370522 1312.03)
(58.20496 1.044036 4308.604)
(65.58109 3.976602 8070.552)
(35.72273 10.93274 13402.86)
(38.49248 -0.5498501 1228.016)
(47.92563 0.05132008 3977.131)
(60.75815 2.420563 7269.272)
(71.81557 9.196826 11436.08)
(40.85458 24.78236 17470.43)
(31.70258 0.9627548 1158.942)
(39.12943 0.4766442 3720.598)
(49.66955 0.3799677 6706.826)
(64.57442 1.790504 10295.88)
(80.24521 6.956577 14898.34)
(47.33932 17.64554 19485.6)
(26.443 7.009837 1099.192)
(32.13718 5.763799 3506.302)
(40.31752 3.917608 6265.323)
(52.07281 1.281277 9487.209)
(69.21131 -2.062974 13398.84)
(89.68744 -7.070837 16652.25)
(53.01027 -19.0789 19348.6)
(22.32953 18.13532 1044.592)
(26.76947 16.79336 3315.786)
(33.01261 14.20943 5886.904)
(41.96087 9.842705 8836.985)
(54.90706 2.565258 12311.07)
(74.0883 -9.51882 14952.54)
(96.67588 -30.43159 16609.62)
(56.78093 -80.24339 19063.66)
(19.15147 28.30915 992.7797)
(22.64395 27.37345 3138.449)
(27.52182 25.09994 5544.465)
(34.32554 20.84841 8270.122)
(44.02145 13.63021 11421.11)
(58.04757 1.431864 13691.79)
(77.75345 -17.30121 14896.22)
(100.4245 -51.02924 16475.63)
(58.11518 -130.704 18652.08)
(16.67329 30.87869 944.7007)
(19.48565 30.43291 2976.304)
(23.36653 28.88568 5237.007)
(28.71655 25.77647 7774.5)
(36.11558 20.36254 10670.19)
(46.58276 11.45444 12687.77)
(60.87302 -1.549303 13642.34)
(80.7113 -21.57759 14819.24)
(102.3133 -57.70847 16331.18)
(58.17518 -141.2151 18283.04)
(14.68865 26.09176 901.6995)
(17.00567 25.94715 2832.586)
(20.17563 25.05816 4967.917)
(24.4845 23.13294 7347.643)
(30.35942 19.73812 10038.59)
(38.42341 14.18508 11868.28)
(49.12432 6.555777 12666.66)
(63.66263 -4.477841 13614.31)
(83.58282 -21.39244 14773.36)
(103.9756 -51.73571 16239.38)
(58.1878 -120.341 16026.43)
(13.04935 16.94324 864.1209)
(14.99594 16.94767 2707.719)
(17.64427 16.54176 4735.939)
(21.2085 15.58347 6983.872)
(25.99704 13.85782 9508.104)
(32.47009 11.04387 11193.31)
(40.77516 7.304667 11882.28)
(51.7567 2.199927 12683.66)
(66.62052 -5.135352 13631.5)
(86.78426 -16.33561 14784.26)
(106.4135 -36.33051 14422.81)
(58.14074 -78.99344 12086.81)
(11.66168 5.793693 831.6741)
(13.32376 5.821441 2600.268)
(15.57778 5.726298 4537.372)
(18.59143 5.468661 6674.879)
(22.59829 4.991598 9062.357)
(27.93549 4.209662 10632.68)
(34.64649 3.196877 11240.93)
(43.24194 1.855595 11938.42)
(54.58386 0.02886452 12748.17)
(69.90982 -2.588358 13703.65)
(90.60625 -6.578567 13217.59)
(108.9452 -13.28627 10999.44)
(58.55233 -27.61103 8490.885)
(33.23185 -41.59941 1793.774)
(63.6244 -13.69848 1568.482)
(32.52899 -44.12453 5523.3)
(57.57292 -2.738586 1420.287)
(63.27864 -10.81108 4773.438)
(33.20519 -31.75953 9403.506)
(47.02048 -0.0001367957 1312.03)
(58.20496 -1.044035 4308.604)
(65.58109 -3.976601 8070.552)
(35.72273 -10.93274 13402.86)
(38.46015 -0.291555 1227.647)
(47.79355 0.00314237 3976.969)
(60.36115 0.9931153 7272.538)
(70.81364 3.688692 11453.1)
(40.21611 9.68056 17542)
(31.7252 -0.5180264 1158.485)
(39.10696 -0.5293437 3720.309)
(49.50213 0.008086243 6709.961)
(64.01588 2.088407 10311.03)
(78.81716 7.86848 14952.08)
(46.52054 19.61651 19660.99)
(26.51067 1.50984 1099.634)
(32.21669 0.9485068 3508.936)
(40.38489 0.3571898 6273.517)
(52.0514 -0.04597009 9508.181)
(68.92687 0.5511868 13450.12)
(88.93396 3.389379 16769.1)
(52.77352 8.164039 19646.55)
(22.40101 7.749821 1047.377)
(26.886 6.858943 3325.974)
(33.18727 5.353275 5908.532)
(42.21323 3.040302 8877.425)
(55.25596 -0.4804496 12384.59)
(74.62937 -5.668225 15074.4)
(97.92477 -13.47671 16813.11)
(58.0881 -34.13187 19518.47)
(19.17766 18.62042 998.7967)
(22.71778 17.75343 3158.873)
(27.67126 15.89511 5584.058)
(34.59266 12.56415 8336.673)
(44.48755 7.049638 11527.79)
(58.86988 -2.118605 13842.21)
(79.33482 -15.95316 15095.9)
(104.2902 -40.46064 16773.74)
(61.37296 -101.0961 19240.99)
(16.65067 28.28921 952.0172)
(19.49472 27.74621 3000.508)
(23.43034 26.10908 5282.352)
(28.87179 22.90686 7847.595)
(36.42205 17.37114 10781.18)
(47.15863 8.281206 12833.88)
(61.91779 -5.090644 13817.79)
(82.77646 -25.74528 15041.51)
(107.3183 -63.20354 16641.64)
(62.15156 -153.4791 18833.27)
(14.64626 30.52613 908.1623)
(16.97953 30.3045 2853.687)
(20.18039 29.17032 5006.79)
(24.54292 26.75251 7408.986)
(30.50822 22.50249 10129.3)
(38.72404 15.53748 11983.68)
(49.67548 5.884999 12798.98)
(64.65492 -8.181726 13770.4)
(85.53689 -29.87955 14966.08)
(108.6164 -69.09666 16498.27)
(61.76201 -160.7376 16405.87)
(13.01103 25.67352 868.634)
(14.96477 25.63806 2722.337)
(17.62777 24.96134 4762.596)
(21.21855 23.41665 7025.417)
(26.05227 20.65953 9568.572)
(32.60071 16.17589 11268.81)
(41.02055 10.19146 11966.7)
(52.19108 1.988677 12779.82)
(67.38809 -9.844873 13743.88)
(88.27603 -27.98108 14921.1)
(109.8812 -60.5064 14583.13)
(60.71293 -131.4024 12278.88)
(11.63703 16.62136 833.8958)
(13.30104 16.6672 2607.42)
(15.56011 16.35243 4550.322)
(18.58326 15.5599 6694.887)
(22.60661 14.12088 9091.175)
(27.97135 11.78177 10668.24)
(34.72316 8.753875 11280.13)
(43.38069 4.744875 11982.21)
(54.82459 -0.7146913 12797.97)
(70.3304 -8.538231 13761.66)
(91.41715 -20.47153 13280.24)
(110.7768 -40.5663 11061.52)
(59.87972 -83.86298 8557.948)
(10.46036 5.670484 803.7758)
(11.89351 5.704827 2508.027)
(13.84138 5.630867 4367.472)
(16.43453 5.414023 6412.01)
(19.85825 5.007228 8685.98)
(24.3711 4.342954 10163.28)
(29.93772 3.501679 10708.68)
(36.9291 2.416094 11328.71)
(45.87814 0.9832035 12038.99)
(57.68231 -0.9634783 12862.63)
(73.64629 -3.744691 12310.53)
(94.16362 -7.674932 10145.01)
(112.0775 -14.3371 7792.066)
(59.66549 -28.67407 5094.122)
(34.50892 -24.70494 1748.792)
(65.84337 -11.59598 1557.539)
(34.17678 -38.60776 5435.187)
(58.25338 -3.537715 1418.293)
(65.24556 -13.03127 4756.414)
(34.57613 -40.43502 9318.629)
(47.15655 -0.06888278 1312.105)
(58.62138 -2.633823 4306.706)
(66.66756 -10.16894 8058.586)
(36.44714 -28.7967 13348.43)
(38.46015 0.2915551 1227.647)
(47.79355 -0.003142114 3976.969)
(60.36115 -0.9931146 7272.538)
(70.81364 -3.688692 11453.1)
(40.21611 -9.680559 17542)
(31.72676 -0.3232027 1157.99)
(39.07631 -0.276803 3719.271)
(49.37782 0.006615019 6709.831)
(63.64785 0.9133912 10315.85)
(77.92915 3.295876 14974.63)
(45.9922 8.070095 19740.25)
(26.5416 -0.3081064 1099.024)
(32.24116 -0.4799293 3507.689)
(40.37025 -0.4967615 6273.346)
(51.90933 -0.06889736 9513.116)
(68.45002 1.621779 13470.72)
(87.81442 6.14532 16829.15)
(52.18191 14.59646 19817.18)
(22.44931 1.948796 1047.587)
(26.95609 1.516522 3327.462)
(33.27513 0.9072518 5913.396)
(42.30315 0.155708 8889.831)
(55.29374 -0.6563068 12413.36)
(74.51437 -1.084677 15132.6)
(97.65722 -0.1195832 16928.35)
(58.21209 -1.097636 19810.2)
(19.21663 8.207717 1001.177)
(22.79307 7.630019 3167.39)
(27.79864 6.542804 5601.652)
(34.79186 4.704102 8368.353)
(44.79294 1.803765 11582.52)
(59.3381 -2.810147 13925.82)
(80.11701 -9.265421 15217.55)
(106.2116 -19.8202 16975.76)
(63.18111 -48.94071 19689.88)
(16.64777 18.78689 957.431)
(19.52631 18.28453 3018.673)
(23.51798 16.97767 5317.028)
(29.04897 14.5059 7904.746)
(36.74157 10.28022 10870.24)
(47.7242 3.386489 12954.5)
(62.89923 -6.79597 13967.78)
(84.65564 -22.37186 15240.68)
(111.9678 -50.43678 16938.67)
(65.99022 -121.7556 19418.56)
(14.60736 28.05398 914.8567)
(16.96236 27.78 2875.667)
(20.2026 26.61441 5047.581)
(24.63149 24.17262 7473.929)
(30.70659 19.89013 10226.35)
(39.10459 12.84623 12108.54)
(50.35448 2.96093 12944.13)
(65.85594 -11.58588 13944.9)
(87.87635 -34.15879 15187.33)
(114.2835 -75.32867 16807.34)
(66.2189 -176.125 16892.83)
(12.96178 30.06573 874.6017)
(14.92665 29.99984 2741.716)
(17.61164 29.15545 4798.051)
(21.24148 27.24635 7080.893)
(26.14096 23.83422 9649.693)
(32.79852 18.26618 11370.57)
(41.38436 10.7523 12081.07)
(52.82783 0.3555465 12911.08)
(68.50565 -14.77319 13898.85)
(90.44062 -38.13642 15112.57)
(114.9951 -80.42658 14812.35)
(64.54925 -175.8712 12566.11)
(11.59695 25.21606 838.0891)
(13.26547 25.25428 2620.943)
(15.53522 24.73189 4574.851)
(18.57793 23.46266 6732.863)
(22.63474 21.17732 9145.998)
(28.05488 17.46938 10735.99)
(34.88858 12.64783 11354.9)
(43.67043 6.233434 12065.86)
(55.31811 -2.541138 12893.32)
(71.18279 -15.17206 13873.16)
(93.04771 -34.52506 13401.42)
(114.4757 -67.31731 11183)
(62.57131 -139.5128 8692.531)
(10.43567 16.29597 805.8508)
(11.87011 16.36476 2514.683)
(13.82149 16.11623 4379.469)
(16.42182 15.4485 6430.444)
(19.85798 14.22239 8712.355)
(24.3915 12.23781 10195.56)
(29.98804 9.725557 10743.92)
(37.02353 6.484806 11367.59)
(46.03942 2.207089 12082.45)
(57.9529 -3.605998 12912.07)
(74.10926 -11.91591 12361.95)
(95.02771 -23.68855 10192.54)
(113.9906 -43.67313 7835.57)
(61.03025 -87.05927 5133.814)
(9.426592 5.546847 777.793)
(10.67588 5.587482 2422.386)
(12.37321 5.527465 4210.305)
(14.63203 5.341586 6169.981)
(17.59737 4.988932 8341.502)
(21.47485 4.41369 9736.561)
(26.18277 3.700141 10229.09)
(31.98282 2.799799 10785.22)
(39.25927 1.64169 11416.78)
(48.56747 0.1174601 12139.44)
(60.84069 -1.948824 11554.55)
(76.56202 -4.645385 9454.356)
(96.78657 -8.479693 7189.331)
(114.1514 -15.02643 4675.081)
(60.22849 -29.19874 1707.716)
(34.80754 -6.690683 1691.558)
(67.324 -8.94802 1538.575)
(35.34979 -20.61627 5301.559)
(58.86547 -4.603451 1413.217)
(67.3656 -10.39971 4723.747)
(36.07761 -32.72974 9172.495)
(47.34933 -0.7730119 1311.591)
(59.28094 -3.254922 4300.653)
(68.51499 -11.71084 8030.195)
(37.68272 -34.8841 13228.43)
(38.49248 0.5498502 1228.016)
(47.92563 -0.05131984 3977.131)
(60.75815 -2.420562 7269.272)
(71.81557 -9.196826 11436.08)
(40.85458 -24.78236 17470.43)
(31.72676 0.3232026 1157.99)
(39.07631 0.276803 3719.271)
(49.37782 -0.006614765 6709.831)
(63.64785 -0.9133905 10315.85)
(77.92915 -3.295875 14974.63)
(45.9922 -8.070094 19740.25)
(26.55178 -0.2759366 1098.48)
(32.24343 -0.3034089 3506.265)
(40.34296 -0.2500202 6271.752)
(51.79669 0.008318343 9513.15)
(68.12096 0.8004763 13477.35)
(87.07224 2.786667 16854.26)
(51.76009 6.50988 19893.95)
(22.47421 -0.1069271 1046.904)
(26.98792 -0.2619335 3325.739)
(33.30348 -0.4112142 5911.588)
(42.30046 -0.4587267 8890.055)
(55.18604 -0.1906926 12420.55)
(74.142 0.9993833 15156.05)
(96.83691 4.462094 16987.13)
(57.84074 9.720495 19976.15)
(19.24562 2.241856 1001.236)
(22.8429 1.967685 3168.154)
(27.87379 1.519257 5604.533)
(34.89263 0.826265 8375.954)
(44.9138 -0.1480121 11599.93)
(59.45215 -1.48435 13958.91)
(80.16764 -2.714607 15275.58)
(106.4178 -3.571224 17089.41)
(63.65667 -10.14303 19975.52)
(16.66207 8.429375 959.4988)
(19.56814 8.110127 3025.95)
(23.60111 7.378584 5331.749)
(29.19314 6.039943 7930.583)
(36.97464 3.782025 10913.28)
(48.09848 0.154406 13016.94)
(63.48583 -5.148544 14051.58)
(85.67552 -12.85564 15362.16)
(114.55 -26.10362 17139.29)
(68.29047 -63.51299 19861.8)
(14.58481 18.73442 919.7712)
(16.96387 18.48763 2892.005)
(20.24513 17.60276 5078.412)
(24.74037 15.77756 7523.985)
(30.92202 12.57558 10302.86)
(39.49236 7.279894 12209.24)
(51.01942 -0.2727834 13064.38)
(66.99596 -11.47004 14094.61)
(90.05135 -28.77922 15386.15)
(119.7095 -60.36657 17103.51)
(70.63318 -142.2374 17410.71)
(12.91246 27.67475 880.7642)
(14.89237 27.58963 2761.827)
(17.60539 26.7565 4835.09)
(21.28377 24.88132 7139.302)
(26.26351 21.50914 9735.901)
(33.05289 15.96442 11479.7)
(41.83875 8.348826 12205.04)
(53.60964 -2.33491 13055.39)
(69.86229 -18.05899 14072.53)
(93.0529 -42.54814 15332.94)
(121.3196 -87.41332 15086.25)
(69.3779 -193.6727 12934.64)
(11.54418 29.54042 843.6259)
(13.21992 29.58052 2638.841)
(15.50564 28.94652 4607.413)
(18.57704 27.40473 6783.453)
(22.68253 24.6149 9219.338)
(28.18278 20.05932 10826.97)
(35.13506 14.06696 11455.72)
(44.09705 6.003908 12179.27)
(56.03998 -5.137515 13023.59)
(72.42492 -21.32788 14027.09)
(95.42159 -46.35315 13571.06)
(119.9557 -89.22152 11356.68)
(66.59974 -186.9681 8893.817)
(10.39493 24.74504 809.762)
(11.83244 24.82686 2527.25)
(13.79138 24.4167 4402.163)
(16.4065 23.3544 6465.384)
(19.8679 21.41868 8762.453)
(24.44302 18.29014 10256.98)
(30.09962 14.31046 10811.01)
(37.22346 9.152295 11441.66)
(46.37319 2.309056 12165.36)
(58.50516 -7.035935 13006.64)
(75.04592 -20.462 12460.73)
(96.7656 -39.61393 10284.47)
(117.8588 -72.31265 7920.684)
(63.80032 -144.8372 5213.454)
(9.402232 15.96704 779.738)
(10.6523 16.05652 2428.604)
(12.3523 15.85242 4221.469)
(14.61645 15.27958 6187.055)
(17.59144 14.21744 8365.794)
(21.48479 12.501 9766.104)
(26.21516 10.37292 10261.09)
(32.04751 7.688453 10820.17)
(39.37133 4.235785 11455.35)
(48.75116 -0.3097304 12182.57)
(61.14097 -6.47519 11598.39)
(77.05779 -14.54646 9493.414)
(97.68958 -26.04969 7222.647)
(116.1181 -45.711 4700.803)
(61.61176 -88.63627 1720.833)
(8.533933 5.426881 753.5327)
(9.627565 5.469047 2342.599)
(11.12207 5.421774 4064.354)
(13.10598 5.258261 5946.103)
(15.705 4.947892 8024.403)
(19.08084 4.442344 9346.007)
(23.12732 3.825543 9793.029)
(28.03369 3.062972 10295.4)
(34.07096 2.10379 10862.06)
(41.63684 0.8733862 11504.81)
(51.30942 -0.7419554 10904.13)
(63.3079 -2.717189 8878.217)
(78.71347 -5.307001 6701.801)
(98.52468 -9.007571 4313.004)
(115.202 -15.366 1566.967)
(34.25233 3.187042 1638.253)
(67.41583 -9.256651 1510.775)
(35.53067 -2.269123 5130.919)
(59.0383 -8.980293 1402.365)
(68.70971 -7.077433 4666.902)
(37.04755 -12.53419 8949.851)
(47.45741 -3.746759 1308.952)
(59.85982 -3.966307 4285.269)
(70.44304 -8.015514 7975.408)
(38.96514 -23.85663 13021.31)
(38.51884 -0.5290837 1228.16)
(48.10986 -0.6468886 3975.449)
(61.37724 -2.680261 7258.903)
(73.48447 -9.704131 11395.59)
(41.9075 -27.35025 17312.49)
(31.7252 0.5180263 1158.485)
(39.10696 0.5293437 3720.309)
(49.50213 -0.008086 6709.961)
(64.01588 -2.088406 10311.03)
(78.81716 -7.868479 14952.08)
(46.52054 -19.61651 19660.99)
(26.55178 0.2759371 1098.48)
(32.24343 0.3034088 3506.265)
(40.34296 0.2500203 6271.752)
(51.79669 -0.008318093 9513.15)
(68.12096 -0.8004756 13477.35)
(87.07224 -2.786666 16854.26)
(51.76009 -6.509879 19893.95)
(22.48369 -0.221419 1046.345)
(26.99836 -0.254142 3324.155)
(33.30722 -0.2662567 5909.335)
(42.2783 -0.2130339 8888.009)
(55.08917 0.005219863 12420.93)
(73.86267 0.648351 15163.61)
(96.2357 2.291651 17011.53)
(57.52187 4.999366 20050.44)
(19.26128 0.03564357 1000.521)
(22.86822 -0.05721905 3166.191)
(27.90759 -0.1758311 5601.889)
(34.92699 -0.3174751 8373.816)
(44.92745 -0.4238586 11600.91)
(59.38858 -0.3716175 13967.48)
(79.89672 0.3812524 15298.9)
(105.8875 2.81824 17146.93)
(63.49877 4.986768 20136.84)
(16.67509 2.395295 959.455)
(19.59815 2.268087 3026.236)
(23.65422 1.996763 5333.362)
(29.27622 1.507037 7935.295)
(37.09327 0.6887282 10924.28)
(48.25945 -0.5798907 13037.27)
(63.67507 -2.32248 14084.93)
(85.88804 -4.338815 15420.04)
(115.2179 -6.966434 17251.39)
(69.1086 -18.97584 20141.45)
(14.5817 8.480864 921.5904)
(16.98042 8.348412 2898.322)
(20.2929 7.905205 5090.995)
(24.8357 6.976633 7545.646)
(31.08947 5.320829 10338.07)
(39.76964 2.542348 12258.43)
(51.46251 -1.507054 13127.06)
(67.70006 -7.496208 14178.6)
(91.30563 -16.43989 15507.51)
(122.9411 -32.32919 17302.83)
(73.41699 -77.85629 17801.48)
(12.87676 18.53033 885.2572)
(14.87351 18.46508 2776.655)
(17.61584 17.8807 4862.812)
(21.34317 16.54799 7183.804)
(26.40174 14.109 9802.922)
(33.31824 10.03702 11566.18)
(42.29485 4.284329 12305.35)
(54.37395 -3.93069 13175.37)
(71.16048 -16.14396 14222.08)
(95.52199 -35.17938 15531.59)
(127.5157 -70.25644 15348.89)
(74.23753 -158.1017 13326.54)
(11.48884 27.20384 849.3281)
(13.17457 27.24852 2657.356)
(15.4806 26.65644 4641.3)
(18.58749 25.18955 6836.479)
(22.7524 22.49794 9296.854)
(28.34948 18.04347 10923.87)
(35.44525 12.06577 11564)
(44.62509 3.875331 12302.44)
(56.92435 -7.610554 13167.15)
(73.93665 -24.51502 14200.08)
(98.30538 -50.91957 13766.52)
(126.7888 -96.78993 11564.14)
(71.70093 -206.5421 9152.156)
(10.34055 28.98459 814.9199)
(11.78291 29.09086 2543.859)
(13.75321 28.60924 4432.237)
(16.38991 27.34188 6511.837)
(19.88786 25.01082 8829.313)
(24.523 21.21214 10339.2)
(30.26643 16.31903 10901.12)
(37.51832 9.902202 11541.6)
(46.8623 1.289222 12277.87)
(59.31174 -10.59774 13135.99)
(76.41197 -27.8499 12597.17)
(99.30136 -52.74038 10413.13)
(123.607 -95.67194 8042.382)
(67.95499 -194.2562 5332.602)
(9.361649 24.26486 783.3992)
(10.61369 24.38227 2440.33)
(12.31941 24.049 4242.563)
(14.59463 23.14356 6219.376)
(17.58917 21.47614 8411.873)
(21.51443 18.78432 9822.213)
(26.28985 15.43169 10321.9)
(32.1869 11.18137 10886.62)
(39.60553 5.687604 11528.76)
(49.12867 -1.583624 12264.78)
(61.75162 -11.49795 11682.2)
(78.05965 -24.58084 9568.422)
(99.50603 -43.34871 7287.076)
(120.0975 -75.58981 4751.119)
(64.42065 -147.4643 1747.141)
(8.510013 15.64653 755.3614)
(9.60419 15.7428 2348.428)
(11.10069 15.57822 4074.785)
(13.08885 15.07446 5961.991)
(15.69531 14.1404 8046.896)
(19.08366 12.63363 9373.211)
(23.14739 10.79631 9822.305)
(28.07797 8.525593 10327.12)
(34.14991 5.669709 10896.72)
(41.76644 2.00592 11543.08)
(51.51539 -2.806619 10942.39)
(63.63116 -8.712228 8911.547)
(79.23324 -16.47856 6729.194)
(99.45321 -27.59836 4332.696)
(117.1951 -46.71466 1575.456)
(7.755285 5.307652 730.8163)
(8.721839 5.353733 2268.07)
(10.04386 5.313675 3928.352)
(11.80369 5.170272 5738.21)
(14.10029 4.891973 7731.144)
(17.07346 4.441857 8986.481)
(20.59769 3.900761 9393.801)
(24.81602 3.242637 9849.919)
(29.924 2.431254 10361.98)
(36.20204 1.413416 10938.9)
(44.06142 0.1109057 10333.07)
(53.45338 -1.412797 8382.121)
(65.12963 -3.282002 6294.88)
(80.13982 -5.741083 4019.932)
(99.40716 -9.267379 1445.078)
(33.41811 5.093283 1596.711)
(66.41914 -10.70728 1481.379)
(34.87982 6.980914 4971.632)
(58.63578 -15.73922 1384.178)
(68.64535 -6.968838 4583.496)
(36.99723 6.506371 8664.567)
(47.33509 -11.24495 1301.726)
(59.98569 -7.818716 4252.469)
(71.52035 -3.337999 7879.746)
(39.63021 -0.2991357 12704.93)
(38.47351 -4.745857 1226.705)
(48.20346 -3.352176 3967.305)
(61.89124 -2.676086 7232.662)
(75.12493 -4.381739 11317.23)
(42.89395 -11.78951 17039.47)
(31.70258 -0.9627548 1158.942)
(39.12943 -0.4766442 3720.598)
(49.66955 -0.3799675 6706.826)
(64.57442 -1.790503 10295.88)
(80.24521 -6.956577 14898.34)
(47.33932 -17.64554 19485.6)
(26.5416 0.3081068 1099.024)
(32.24116 0.4799292 3507.689)
(40.37025 0.4967616 6273.346)
(51.90933 0.0688976 9513.116)
(68.45002 -1.621778 13470.72)
(87.81442 -6.14532 16829.15)
(52.18191 -14.59646 19817.18)
(22.48369 0.2214191 1046.345)
(26.99836 0.2541424 3324.155)