/*--------------------------------*- C++ -*----------------------------------*\
| =========                 |                                                 |
| \\      /  F ield         | OpenFOAM: The Open Source CFD Toolbox           |
|  \\    /   O peration     | Version:  2306                                  |
|   \\  /    A nd           | Website:  www.openfoam.com                      |
|    \\/     M anipulation  |                                                 |
\*---------------------------------------------------------------------------*/
FoamFile
{
    version     2.0;
    format      ascii;
    arch        "LSB;label=32;scalar=64";
    class       volScalarField;
    location    "0.6/phiI";
    object      J;
}
// * * * * * * * * * * * * * * * * * * * * * * * * * * * * * * * * * * * * * //

dimensions      [0 -3 0 0 0 1 0];

internalField   nonuniform List<scalar> 
12000
(
-7.550665e+08
-7.620835e+08
-6.94695e+08
-7.611412e+08
-7.762914e+08
-6.992659e+08
-7.682763e+08
-6.446746e+08
-7.000667e+08
-7.76942e+08
-7.975464e+08
-7.082862e+08
-7.827211e+08
-6.481833e+08
-7.04718e+08
-7.843598e+08
-6.048124e+08
-6.495229e+08
-7.139141e+08
-8.029574e+08
-8.248311e+08
-7.210889e+08
-8.043216e+08
-6.550285e+08
-7.13899e+08
-7.993784e+08
-6.076996e+08
-6.530941e+08
-7.187512e+08
-8.108364e+08
-5.71757e+08
-6.092683e+08
-6.618826e+08
-7.366219e+08
-8.401463e+08
-8.542961e+08
-7.361343e+08
-8.320106e+08
-6.645121e+08
-7.269379e+08
-8.218395e+08
-6.132942e+08
-6.600634e+08
-7.283028e+08
-8.267939e+08
-5.74224e+08
-6.122069e+08
-6.655956e+08
-7.41758e+08
-8.48691e+08
-5.433383e+08
-5.758985e+08
-6.205093e+08
-6.820651e+08
-7.689496e+08
0
-8.777506e+08
-7.503254e+08
-8.618137e+08
-6.751729e+08
-7.422797e+08
-8.506153e+08
-6.209379e+08
-6.697294e+08
-7.418839e+08
-8.506751e+08
-5.78983e+08
-6.179034e+08
-6.728457e+08
-7.51906e+08
-8.660068e+08
-5.454961e+08
-5.784093e+08
-6.235636e+08
-6.860046e+08
-7.745127e+08
0
-5.184057e+08
-5.472141e+08
-5.862498e+08
-6.387959e+08
-7.106881e+08
0
0
-8.935844e+08
-7.60029e+08
-8.854734e+08
-6.844278e+08
-7.567822e+08
-8.815191e+08
-6.293053e+08
-6.806222e+08
-7.578968e+08
-8.812784e+08
-5.854289e+08
-6.256963e+08
-6.829179e+08
-7.663589e+08
-8.919512e+08
-5.49645e+08
-5.832549e+08
-6.294881e+08
-6.937028e+08
-7.855129e+08
0
-5.203253e+08
-5.494099e+08
-5.888585e+08
-6.42034e+08
-7.149488e+08
0
0
-4.961815e+08
-5.220512e+08
-5.568231e+08
-6.030336e+08
-6.646469e+08
0
0
0
-9.030168e+08
-7.657341e+08
-9.013946e+08
-6.898755e+08
-7.667077e+08
-9.05997e+08
-6.361849e+08
-6.901338e+08
-7.730828e+08
-9.141084e+08
-5.92368e+08
-6.342541e+08
-6.943083e+08
-7.834472e+08
-9.252357e+08
-5.552324e+08
-5.898269e+08
-6.376086e+08
-7.044208e+08
-8.012113e+08
0
-5.24007e+08
-5.536339e+08
-5.938963e+08
-6.483203e+08
-7.232825e+08
0
0
-4.979098e+08
-5.240044e+08
-5.591036e+08
-6.057972e+08
-6.681445e+08
0
0
0
-4.76167e+08
-4.996232e+08
-5.310251e+08
-5.723586e+08
-6.266956e+08
0
0
0
0
-9.073794e+08
-7.687969e+08
-9.108519e+08
-6.924306e+08
-7.725268e+08
-9.224223e+08
-6.397611e+08
-6.957749e+08
-7.834928e+08
-9.400664e+08
-5.978716e+08
-6.413489e+08
-7.043263e+08
-7.997189e+08
-9.609427e+08
-5.61181e+08
-5.969268e+08
-6.465652e+08
-7.165935e+08
-8.198344e+08
0
-5.289454e+08
-5.593302e+08
-6.007435e+08
-6.569585e+08
-7.349151e+08
0
0
-5.012175e+08
-5.277521e+08
-5.634936e+08
-6.111391e+08
-6.749414e+08
0
0
0
-4.777383e+08
-5.013815e+08
-5.330527e+08
-5.747728e+08
-6.296771e+08
0
0
0
0
-4.579797e+08
-4.794265e+08
-5.080428e+08
-5.454972e+08
-5.942093e+08
0
0
0
0
0
-9.073794e+08
-7.701291e+08
-9.152175e+08
-6.934498e+08
-7.756351e+08
-9.321543e+08
-6.410292e+08
-6.984384e+08
-7.895859e+08
-9.574444e+08
-6.004637e+08
-6.450912e+08
-7.103215e+08
-8.108973e+08
-9.891433e+08
-5.657844e+08
-6.026134e+08
-6.540652e+08
-7.273864e+08
-8.376503e+08
0
-5.341635e+08
-5.654172e+08
-6.081767e+08
-6.665359e+08
-7.4819e+08
0
0
-5.056414e+08
-5.327861e+08
-5.694267e+08
-6.184194e+08
-6.843085e+08
0
0
0
-4.807396e+08
-5.047481e+08
-5.369463e+08
-5.794247e+08
-6.354467e+08
0
0
0
0
-4.594189e+08
-4.810248e+08
-5.098674e+08
-5.476422e+08
-5.96811e+08
0
0
0
0
0
-4.413467e+08
-4.610746e+08
-4.873562e+08
-5.215906e+08
-5.658105e+08
0
0
0
0
0
9.833134e+08
-9.030168e+08
-7.701291e+08
-9.152175e+08
-6.937788e+08
-7.769807e+08
-9.366391e+08
-6.412524e+08
-6.995076e+08
-7.928284e+08
-9.677189e+08
-6.011222e+08
-6.46456e+08
-7.131806e+08
-8.174363e+08
-1.007989e+09
-5.677905e+08
-6.053486e+08
-6.580895e+08
-7.339092e+08
-8.499205e+08
0
-5.381332e+08
-5.701781e+08
-6.14201e+08
-6.746448e+08
-7.600607e+08
0
0
-5.102903e+08
-5.381251e+08
-5.757992e+08
-6.263688e+08
-6.947542e+08
0
0
0
-4.847449e+08
-5.092568e+08
-5.421878e+08
-5.857295e+08
-6.433344e+08
0
0
0
0
-4.62163e+08
-4.84079e+08
-5.133636e+08
-5.517653e+08
-6.018301e+08
0
0
0
0
0
-4.426732e+08
-4.625382e+08
-4.890141e+08
-5.235196e+08
-5.681199e+08
0
0
0
0
0
9.910841e+08
-4.260511e+08
-4.442919e+08
-4.685666e+08
-5.000904e+08
-5.405722e+08
0
0
0
0
0
8.969838e+08
9.373778e+08
-8.935844e+08
-7.687969e+08
-9.108519e+08
-6.937788e+08
-7.769807e+08
-9.366391e+08
-6.412002e+08
-6.998549e+08
-7.942271e+08
-9.724469e+08
-6.010009e+08
-6.467266e+08
-7.143429e+08
-8.209078e+08
-1.019113e+09
-5.681289e+08
-6.060919e+08
-6.596087e+08
-7.370577e+08
-8.570998e+08
0
-5.397608e+08
-5.723084e+08
-6.171706e+08
-6.790756e+08
-7.673067e+08
0
0
-5.137825e+08
-5.42232e+08
-5.808488e+08
-6.32896e+08
-7.036996e+08
0
0
0
-4.889362e+08
-5.140124e+08
-5.47776e+08
-5.925433e+08
-6.520022e+08
0
0
0
0
-4.658184e+08
-4.881603e+08
-5.180564e+08
-5.57332e+08
-6.086549e+08
0
0
0
0
0
-4.451979e+08
-4.653302e+08
-4.921847e+08
-5.272196e+08
-5.725641e+08
0
0
0
0
0
1.006645e+09
-4.2728e+08
-4.456407e+08
-4.700843e+08
-5.018419e+08
-5.426469e+08
0
0
0
0
0
9.019864e+08
9.445407e+08
-4.119228e+08
-4.288594e+08
-4.5139e+08
-4.805765e+08
-5.179031e+08
0
0
0
0
0
8.219929e+08
8.573923e+08
9.049851e+08
-8.777506e+08
-7.657341e+08
-9.013946e+08
-6.934498e+08
-7.756351e+08
-9.321543e+08
-6.412002e+08
-6.998549e+08
-7.942271e+08
-9.724469e+08
-6.007929e+08
-6.466927e+08
-7.147259e+08
-8.224013e+08
-1.024226e+09
-5.678498e+08
-6.060129e+08
-6.599521e+08
-7.383589e+08
-8.609064e+08
0
-5.399194e+08
-5.727208e+08
-6.180417e+08
-6.808115e+08
-7.708499e+08
0
0
-5.151445e+08
-5.439683e+08
-5.831789e+08
-6.361978e+08
-7.086764e+08
0
0
0
-4.920542e+08
-5.176254e+08
-5.52134e+08
-5.980206e+08
-6.592158e+08
0
0
0
0
-4.696309e+08
-4.924468e+08
-5.230325e+08
-5.633048e+08
-6.160808e+08
0
0
0
0
0
-4.485561e+08
-4.690543e+08
-4.964309e+08
-5.322006e+08
-5.785845e+08
0
0
0
0
0
1.029988e+09
-4.296151e+08
-4.482091e+08
-4.729816e+08
-5.051953e+08
-5.466314e+08
0
0
0
0
0
9.11752e+08
9.588716e+08
-4.130665e+08
-4.301088e+08
-4.52788e+08
-4.821789e+08
-5.197853e+08
0
0
0
0
0
8.257929e+08
8.620286e+08
9.117454e+08
-3.988257e+08
-4.146053e+08
-4.356004e+08
-4.627499e+08
-4.973516e+08
0
0
0
0
0
7.613681e+08
7.875974e+08
8.29246e+08
8.850274e+08
-8.542961e+08
-7.60029e+08
-8.854734e+08
-6.924306e+08
-7.725268e+08
-9.224223e+08
-6.412524e+08
-6.995076e+08
-7.928284e+08
-9.677189e+08
-6.007929e+08
-6.466927e+08
-7.147259e+08
-8.224013e+08
-1.024226e+09
-5.67578e+08
-6.058218e+08
-6.59946e+08
-7.387961e+08
-8.625414e+08
0
-5.395684e+08
-5.724791e+08
-6.180227e+08
-6.81255e+08
-7.72341e+08
0
0
-5.151941e+08
-5.441919e+08
-5.837e+08
-6.37243e+08
-7.106981e+08
0
0
0
-4.932202e+08
-5.190834e+08
-5.540439e+08
-6.006315e+08
-6.629584e+08
0
0
0
0
-4.724448e+08
-4.956721e+08
-5.268669e+08
-5.680345e+08
-6.221397e+08
0
0
0
0
0
-4.520491e+08
-4.729524e+08
-5.009145e+08
-5.375166e+08
-5.850899e+08
0
0
0
0
0
1.06015e+09
-4.32717e+08
-4.516296e+08
-4.768547e+08
-5.096996e+08
-5.520138e+08
0
0
0
0
0
9.257976e+08
9.803488e+08
-4.152359e+08
-4.324838e+08
-4.554522e+08
-4.852414e+08
-5.233934e+08
0
0
0
0
0
8.331243e+08
8.710728e+08
9.252662e+08
-3.998941e+08
-4.157678e+08
-4.368949e+08
-4.642251e+08
-4.990721e+08
0
0
0
0
0
7.644693e+08
7.911354e+08
8.336338e+08
8.915652e+08
-3.866422e+08
-4.013922e+08
-4.210209e+08
-4.46373e+08
-4.785963e+08
0
0
0
0
0
7.109097e+08
7.309691e+08
7.629983e+08
8.116767e+08
8.76391e+08
-8.248311e+08
-7.503254e+08
-8.618137e+08
-6.898755e+08
-7.667077e+08
-9.05997e+08
-6.410292e+08
-6.984384e+08
-7.895859e+08
-9.574444e+08
-6.010009e+08
-6.467266e+08
-7.143429e+08
-8.209078e+08
-1.019113e+09
-5.67578e+08
-6.058218e+08
-6.59946e+08
-7.387961e+08
-8.625414e+08
0
-5.392734e+08
-5.722224e+08
-6.178543e+08
-6.812864e+08
-7.728525e+08
0
0
-5.148111e+08
-5.438738e+08
-5.83509e+08
-6.373027e+08
-7.112717e+08
0
0
0
-4.932002e+08
-5.191905e+08
-5.543619e+08
-6.012984e+08
-6.64229e+08
0
0
0
0
-4.73459e+08
-4.969236e+08
-5.284779e+08
-5.701873e+08
-6.251206e+08
0
0
0
0
0
-4.546099e+08
-4.758623e+08
-5.043372e+08
-5.416786e+08
-5.903235e+08
0
0
0
0
0
1.092307e+09
-4.359357e+08
-4.552e+08
-4.809304e+08
-5.144871e+08
-5.577999e+08
0
0
0
0
0
9.427868e+08
1.00807e+09
-4.181143e+08
-4.356427e+08
-4.590084e+08
-4.893475e+08
-5.282567e+08
0
0
0
0
0
8.434604e+08
8.84073e+08
9.455271e+08
-4.019172e+08
-4.17974e+08
-4.393577e+08
-4.670397e+08
-5.023646e+08
0
0
0
0
0
7.704091e+08
7.97957e+08
8.421902e+08
9.046448e+08
-3.876439e+08
-4.024781e+08
-4.22225e+08
-4.477382e+08
-4.801789e+08
0
0
0
0
0
7.135389e+08
7.338675e+08
7.663558e+08
8.159203e+08
8.828632e+08
-3.752826e+08
-3.891013e+08
-4.075101e+08
-4.312599e+08
-4.613822e+08
0
0
0
0
0
6.676106e+08
6.836953e+08
7.091362e+08
7.475043e+08
8.038118e+08
-7.975464e+08
-7.361343e+08
-8.320106e+08
-6.844278e+08
-7.567822e+08
-8.815191e+08
-6.397611e+08
-6.957749e+08
-7.834928e+08
-9.400664e+08
-6.011222e+08
-6.46456e+08
-7.131806e+08
-8.174363e+08
-1.007989e+09
-5.678498e+08
-6.060129e+08
-6.599521e+08
-7.383589e+08
-8.609064e+08
0
-5.392734e+08
-5.722224e+08
-6.178543e+08
-6.812864e+08
-7.728525e+08
0
0
-5.145112e+08
-5.435922e+08
-5.832714e+08
-6.371632e+08
-7.113514e+08
0
0
0
-4.928056e+08
-5.188368e+08
-5.540877e+08
-6.011725e+08
-6.643879e+08
0
0
0
0
-4.733924e+08
-4.96955e+08
-5.286679e+08
-5.706307e+08
-6.259741e+08
0
0
0
0
0
-4.555028e+08
-4.769534e+08
-5.057251e+08
-5.435031e+08
-5.927952e+08
0
0
0
0
0
1.115837e+09
-4.382816e+08
-4.578475e+08
-4.840178e+08
-5.182019e+08
-5.624054e+08
0
0
0
0
0
9.592484e+08
1.037584e+09
-4.21095e+08
-4.38932e+08
-4.627401e+08
-4.936972e+08
-5.334638e+08
0
0
0
0
0
8.555512e+08
8.997874e+08
9.716853e+08
-4.045988e+08
-4.209047e+08
-4.426406e+08
-4.708077e+08
-5.067944e+08
0
0
0
0
0
7.786742e+08
8.075701e+08
8.544877e+08
9.2426e+08
-3.895371e+08
-4.045351e+08
-4.24512e+08
-4.503387e+08
-4.832026e+08
0
0
0
0
0
7.185498e+08
7.394152e+08
7.728271e+08
8.241957e+08
8.958223e+08
-3.762245e+08
-3.901192e+08
-4.086343e+08
-4.32529e+08
-4.628457e+08
0
0
0
0
0
6.698926e+08
6.861604e+08
7.118934e+08
7.507541e+08
8.080024e+08
-3.646593e+08
-3.776421e+08
-3.949454e+08
-4.172616e+08
-4.455099e+08
0
0
0
0
0
6.296878e+08
6.430227e+08
6.640875e+08
6.953027e+08
7.404253e+08
-7.762914e+08
-7.210889e+08
-8.043216e+08
-6.751729e+08
-7.422797e+08
-8.506153e+08
-6.361849e+08
-6.901338e+08
-7.730828e+08
-9.141084e+08
-6.004637e+08
-6.450912e+08
-7.103215e+08
-8.108973e+08
-9.891433e+08
-5.681289e+08
-6.060919e+08
-6.596087e+08
-7.370577e+08
-8.570998e+08
0
-5.395684e+08
-5.724791e+08
-6.180227e+08
-6.81255e+08
-7.72341e+08
0
0
-5.145112e+08
-5.435922e+08
-5.832714e+08
-6.371632e+08
-7.113514e+08
0
0
0
-4.925092e+08
-5.185487e+08
-5.538226e+08
-6.009584e+08
-6.642838e+08
0
0
0
0
-4.729966e+08
-4.965865e+08
-5.283527e+08
-5.70412e+08
-6.259287e+08
0
0
0
0
0
-4.554039e+08
-4.769329e+08
-5.058303e+08
-5.438031e+08
-5.933981e+08
0
0
0
0
0
1.130017e+09
-4.390749e+08
-4.5881e+08
-4.852315e+08
-5.197799e+08
-5.645097e+08
0
0
0
0
0
9.70106e+08
1.059082e+09
-4.232559e+08
-4.413565e+08
-4.655483e+08
-4.970475e+08
-5.375737e+08
0
0
0
0
0
8.666517e+08
9.150003e+08
9.995509e+08
-4.073705e+08
-4.2395e+08
-4.460772e+08
-4.747882e+08
-5.115221e+08
0
0
0
0
0
7.881243e+08
8.18809e+08
8.693534e+08
9.496267e+08
-3.920443e+08
-4.072649e+08
-4.275567e+08
-4.538153e+08
-4.872646e+08
0
0
0
0
0
7.254559e+08
7.471314e+08
7.81945e+08
8.360937e+08
9.152881e+08
-3.780017e+08
-3.92044e+08
-4.10766e+08
-4.349425e+08
-4.656372e+08
0
0
0
0
0
6.742263e+08
6.908554e+08
7.171689e+08
7.570171e+08
8.161777e+08
-3.655479e+08
-3.785992e+08
-3.95999e+08
-4.184461e+08
-4.468694e+08
0
0
0
0
0
6.31703e+08
6.45168e+08
6.664376e+08
6.979741e+08
7.436314e+08
-3.547122e+08
-3.669262e+08
-3.832338e+08
-4.042501e+08
-4.308197e+08
0
0
0
0
0
5.959333e+08
6.073159e+08
6.252627e+08
6.516117e+08
6.889069e+08
-7.620835e+08
-7.082862e+08
-7.827211e+08
-6.645121e+08
-7.269379e+08
-8.218395e+08
-6.293053e+08
-6.806222e+08
-7.578968e+08
-8.812784e+08
-5.978716e+08
-6.413489e+08
-7.043263e+08
-7.997189e+08
-9.609427e+08
-5.677905e+08
-6.053486e+08
-6.580895e+08
-7.339092e+08
-8.499205e+08
0
-5.399194e+08
-5.727208e+08
-6.180417e+08
-6.808115e+08
-7.708499e+08
0
0
-5.148111e+08
-5.438738e+08
-5.83509e+08
-6.373027e+08
-7.112717e+08
0
0
0
-4.925092e+08
-5.185487e+08
-5.538226e+08
-6.009584e+08
-6.642838e+08
0
0
0
0
-4.727077e+08
-4.963007e+08
-5.280791e+08
-5.701668e+08
-6.257428e+08
0
0
0
0
0
-4.550127e+08
-4.765607e+08
-5.054961e+08
-5.435364e+08
-5.932475e+08
0
0
0
0
0
1.137648e+09
-4.389529e+08
-4.587529e+08
-4.852774e+08
-5.199828e+08
-5.64949e+08
0
0
0
0
0
9.758983e+08
1.071974e+09
-4.239657e+08
-4.422131e+08
-4.666219e+08
-4.98432e+08
-5.394004e+08
0
0
0
0
0
8.734234e+08
9.249996e+08
1.019782e+09
-4.0937e+08
-4.261827e+08
-4.486483e+08
-4.778346e+08
-5.152277e+08
0
0
0
0
0
7.964744e+08
8.291191e+08
8.837453e+08
9.767166e+08
-3.946313e+08
-4.10096e+08
-4.307372e+08
-4.57479e+08
-4.91588e+08
0
0
0
0
0
7.332179e+08
7.55949e+08
7.926042e+08
8.504884e+08
9.405364e+08
-3.80353e+08
-3.945958e+08
-4.136011e+08
-4.381653e+08
-4.693825e+08
0
0
0
0
0
6.801547e+08
6.973233e+08
7.24505e+08
7.658433e+08
8.279411e+08
-3.672211e+08
-3.804057e+08
-3.97993e+08
-4.206945e+08
-4.494583e+08
0
0
0
0
0
6.355201e+08
6.492399e+08
6.709117e+08
7.030849e+08
7.498115e+08
-3.555524e+08
-3.678289e+08
-3.842241e+08
-4.053594e+08
-4.320875e+08
0
0
0
0
0
5.977358e+08
6.092151e+08
6.273119e+08
6.538911e+08
6.91542e+08
-3.453772e+08
-3.568929e+08
-3.722843e+08
-3.921272e+08
-4.171748e+08
0
0
0
0
0
5.655379e+08
5.754646e+08
5.911233e+08
6.139271e+08
6.458008e+08
-7.550665e+08
-6.992659e+08
-7.682763e+08
-6.550285e+08
-7.13899e+08
-7.993784e+08
-6.209379e+08
-6.697294e+08
-7.418839e+08
-8.506751e+08
-5.92368e+08
-6.342541e+08
-6.943083e+08
-7.834472e+08
-9.252357e+08
-5.657844e+08
-6.026134e+08
-6.540652e+08
-7.273864e+08
-8.376503e+08
0
-5.397608e+08
-5.723084e+08
-6.171706e+08
-6.790756e+08
-7.673067e+08
0
0
-5.151941e+08
-5.441919e+08
-5.837e+08
-6.37243e+08
-7.106981e+08
0
0
0
-4.928056e+08
-5.188368e+08
-5.540877e+08
-6.011725e+08
-6.643879e+08
0
0
0
0
-4.727077e+08
-4.963007e+08
-5.280791e+08
-5.701668e+08
-6.257428e+08
0
0
0
0
0
-4.547329e+08
-4.762812e+08
-5.052231e+08
-5.4328e+08
-5.930257e+08
0
0
0
0
0
1.14093e+09
-4.385691e+08
-4.583829e+08
-4.849359e+08
-5.196915e+08
-5.647413e+08
0
0
0
0
0
9.786588e+08
1.078885e+09
-4.238271e+08
-4.421293e+08
-4.66625e+08
-4.985658e+08
-5.397268e+08
0
0
0
0
0
8.766018e+08
9.303143e+08
1.03188e+09
-4.100087e+08
-4.269506e+08
-4.496062e+08
-4.790631e+08
-5.168355e+08
0
0
0
0
0
8.012616e+08
8.353899e+08
8.931753e+08
9.963512e+08
-3.964888e+08
-4.121614e+08
-4.331042e+08
-4.602675e+08
-4.949565e+08
0
0
0
0
0
7.398753e+08
7.637331e+08
8.023796e+08
8.644386e+08
9.676145e+08
-3.82775e+08
-3.972376e+08
-4.165568e+08
-4.415544e+08
-4.733593e+08
0
0
0
0
0
6.867277e+08
7.045883e+08
7.328864e+08
7.761657e+08
8.421944e+08
-3.69433e+08
-3.827984e+08
-4.006423e+08
-4.23694e+08
-4.529279e+08
0
0
0
0
0
6.407108e+08
6.548074e+08
6.770739e+08
7.101924e+08
7.585249e+08
-3.571314e+08
-3.695295e+08
-3.860949e+08
-4.074617e+08
-4.34498e+08
0
0
0
0
0
6.01144e+08
6.128104e+08
6.311996e+08
6.582302e+08
6.965836e+08
-3.461734e+08
-3.577462e+08
-3.73218e+08
-3.931694e+08
-4.183614e+08
0
0
0
0
0
5.671665e+08
5.771672e+08
5.929405e+08
6.159169e+08
6.480495e+08
-3.366024e+08
-3.474772e+08
-3.620344e+08
-3.807979e+08
-4.0447e+08
0
0
0
0
0
5.379155e+08
5.467251e+08
5.60624e+08
5.807631e+08
6.086213e+08
-6.94695e+08
-7.611412e+08
-6.481833e+08
-7.04718e+08
-7.843598e+08
-6.132942e+08
-6.600634e+08
-7.283028e+08
-8.267939e+08
-5.854289e+08
-6.256963e+08
-6.829179e+08
-7.663589e+08
-8.919512e+08
-5.61181e+08
-5.969268e+08
-6.465652e+08
-7.165935e+08
-8.198344e+08
0
-5.381332e+08
-5.701781e+08
-6.14201e+08
-6.746448e+08
-7.600607e+08
0
0
-5.151445e+08
-5.439683e+08
-5.831789e+08
-6.361978e+08
-7.086764e+08
0
0
0
-4.932002e+08
-5.191905e+08
-5.543619e+08
-6.012984e+08
-6.64229e+08
0
0
0
0
-4.729966e+08
-4.965865e+08
-5.283527e+08
-5.70412e+08
-6.259287e+08
0
0
0
0
0
-4.547329e+08
-4.762812e+08
-5.052231e+08
-5.4328e+08
-5.930257e+08
0
0
0
0
0
1.14093e+09
-4.38299e+08
-4.581117e+08
-4.84668e+08
-5.194338e+08
-5.645051e+08
0
0
0
0
0
9.797344e+08
1.081848e+09
-4.234522e+08
-4.417648e+08
-4.662828e+08
-4.982628e+08
-5.394877e+08
0
0
0
0
0
8.77855e+08
9.328381e+08
1.03835e+09
-4.098577e+08
-4.268469e+08
-4.495773e+08
-4.791457e+08
-5.170801e+08
0
0
0
0
0
8.032424e+08
8.383232e+08
8.981741e+08
1.008084e+09
-3.970664e+08
-4.128536e+08
-4.33965e+08
-4.613667e+08
-4.963871e+08
0
0
0
0
0
7.434958e+08
7.681821e+08
8.08306e+08
8.73555e+08
9.872391e+08
-3.845062e+08
-3.991559e+08
-4.187459e+08
-4.441208e+08
-4.764414e+08
0
0
0
0
0
6.922292e+08
7.108123e+08
7.402807e+08
7.856352e+08
8.560339e+08
-3.717079e+08
-3.852713e+08
-4.033995e+08
-4.268421e+08
-4.566042e+08
0
0
0
0
0
6.464021e+08
6.609758e+08
6.83993e+08
7.18314e+08
7.687242e+08
-3.592169e+08
-3.717801e+08
-3.885784e+08
-4.102634e+08
-4.37725e+08
0
0
0
0
0
6.057558e+08
6.176972e+08
6.36514e+08
6.642061e+08
7.035971e+08
-3.476668e+08
-3.593508e+08
-3.749788e+08
-3.95141e+08
-4.206138e+08
0
0
0
0
0
5.702418e+08
5.803846e+08
5.963794e+08
6.196912e+08
6.523302e+08
-3.373587e+08
-3.482858e+08
-3.629168e+08
-3.817801e+08
-4.05584e+08
0
0
0
0
0
5.393989e+08
5.482666e+08
5.622558e+08
5.825294e+08
6.105848e+08
-3.283455e+08
-3.386269e+08
-3.524172e+08
-3.701963e+08
-3.926041e+08
0
0
0
0
0
5.126282e+08
5.205583e+08
5.330649e+08
5.511104e+08
5.758974e+08
-6.446746e+08
-7.000667e+08
-7.76942e+08
-6.076996e+08
-6.530941e+08
-7.187512e+08
-8.108364e+08
-5.78983e+08
-6.179034e+08
-6.728457e+08
-7.51906e+08
-8.660068e+08
-5.552324e+08
-5.898269e+08
-6.376086e+08
-7.044208e+08
-8.012113e+08
0
-5.341635e+08
-5.654172e+08
-6.081767e+08
-6.665359e+08
-7.4819e+08
0
0
-5.137825e+08
-5.42232e+08
-5.808488e+08
-6.32896e+08
-7.036996e+08
0
0
0
-4.932202e+08
-5.190834e+08
-5.540439e+08
-6.006315e+08
-6.629584e+08
0
0
0
0
-4.733924e+08
-4.96955e+08
-5.286679e+08
-5.706307e+08
-6.259741e+08
0
0
0
0
0
-4.550127e+08
-4.765607e+08
-5.054961e+08
-5.435364e+08
-5.932475e+08
0
0
0
0
0
1.137648e+09
-4.38299e+08
-4.581117e+08
-4.84668e+08
-5.194338e+08
-5.645051e+08
0
0
0
0
0
9.797344e+08
1.081848e+09
-4.231919e+08
-4.415026e+08
-4.660221e+08
-4.980085e+08
-5.392478e+08
0
0
0
0
0
8.782447e+08
9.338184e+08
1.041121e+09
-4.094924e+08
-4.264898e+08
-4.492382e+08
-4.788385e+08
-5.168238e+08
0
0
0
0
0
8.038376e+08
8.394746e+08
9.005434e+08
1.01436e+09
-3.969063e+08
-4.127348e+08
-4.339117e+08
-4.614104e+08
-4.965701e+08
0
0
0
0
0
7.448117e+08
7.700154e+08
8.110692e+08
8.783805e+08
9.989817e+08
-3.850302e+08
-3.99783e+08
-4.195238e+08
-4.451112e+08
-4.77725e+08
0
0
0
0
0
6.950834e+08
7.141855e+08
7.444917e+08
7.913566e+08
8.650585e+08
-3.733268e+08
-3.870588e+08
-4.054322e+08
-4.292149e+08
-4.594399e+08
0
0
0
0
0
6.510689e+08
6.661315e+08
6.89915e+08
7.254774e+08
7.780879e+08
-3.613587e+08
-3.741022e+08
-3.911584e+08
-4.131987e+08
-4.411379e+08
0
0
0
0
0
6.107652e+08
6.230506e+08
6.423991e+08
6.709161e+08
7.116153e+08
-3.49638e+08
-3.614724e+08
-3.773139e+08
-3.97766e+08
-4.236261e+08
0
0
0
0
0
5.743863e+08
5.847361e+08
6.010518e+08
6.2485e+08
6.582269e+08
-3.387743e+08
-3.498032e+08
-3.645776e+08
-3.836348e+08
-4.076951e+08
0
0
0
0
0
5.421976e+08
5.511758e+08
5.653381e+08
5.858712e+08
6.143093e+08
-3.290656e+08
-3.393949e+08
-3.532531e+08
-3.71124e+08
-3.936534e+08
0
0
0
0
0
5.139883e+08
5.219649e+08
5.345444e+08
5.52698e+08
5.77641e+08
-3.205672e+08
-3.302993e+08
-3.433792e+08
-3.602526e+08
-3.815064e+08
0
0
0
0
0
4.893366e+08
4.96561e+08
5.079388e+08
5.242942e+08
5.466319e+08
-6.048124e+08
-6.495229e+08
-7.139141e+08
-8.029574e+08
-5.74224e+08
-6.122069e+08
-6.655956e+08
-7.41758e+08
-8.486911e+08
-5.49645e+08
-5.832549e+08
-6.294881e+08
-6.937028e+08
-7.855129e+08
0
-5.289454e+08
-5.593302e+08
-6.007435e+08
-6.569585e+08
-7.349151e+08
0
0
-5.102903e+08
-5.381251e+08
-5.757992e+08
-6.263688e+08
-6.947542e+08
0
0
0
-4.920542e+08
-5.176254e+08
-5.52134e+08
-5.980206e+08
-6.592158e+08
0
0
0
0
-4.73459e+08
-4.969236e+08
-5.284779e+08
-5.701873e+08
-6.251206e+08
0
0
0
0
0
-4.554039e+08
-4.769329e+08
-5.058303e+08
-5.438031e+08
-5.933981e+08
0
0
0
0
0
1.130017e+09
-4.385691e+08
-4.583829e+08
-4.849359e+08
-5.196915e+08
-5.647413e+08
0
0
0
0
0
9.786588e+08
1.078885e+09
-4.231919e+08
-4.415026e+08
-4.660221e+08
-4.980085e+08
-5.392478e+08
0
0
0
0
0
8.782447e+08
9.338184e+08
1.041121e+09
-4.092417e+08
-4.262367e+08
-4.489855e+08
-4.785901e+08
-5.165855e+08
0
0
0
0
0
8.039375e+08
8.398307e+08
9.014625e+08
1.017049e+09
-3.965509e+08
-4.123859e+08
-4.33578e+08
-4.611032e+08
-4.963052e+08
0
0
0
0
0
7.450618e+08
7.705615e+08
8.121504e+08
8.806681e+08
1.005279e+09
-3.848629e+08
-3.996527e+08
-4.194515e+08
-4.451246e+08
-4.778601e+08
0
0
0
0
0
6.959856e+08
7.154041e+08
7.462188e+08
7.940169e+08
8.698345e+08
-3.738041e+08
-3.876288e+08
-4.061387e+08
-4.301124e+08
-4.605995e+08
0
0
0
0
0
6.533892e+08
6.687956e+08
6.931112e+08
7.295402e+08
7.837257e+08
-3.628764e+08
-3.757735e+08
-3.930522e+08
-4.154015e+08
-4.43759e+08
0
0
0
0
0
6.148014e+08
6.274332e+08
6.473118e+08
6.766553e+08
7.186877e+08
-3.516594e+08
-3.636583e+08
-3.797359e+08
-4.005117e+08
-4.268066e+08
0
0
0
0
0
5.788523e+08
5.894583e+08
6.061677e+08
6.305621e+08
6.648498e+08
-3.406412e+08
-3.518082e+08
-3.667783e+08
-3.86102e+08
-4.105159e+08
0
0
0
0
0
5.459561e+08
5.550942e+08
5.695054e+08
5.904114e+08
6.194008e+08
-3.304105e+08
-3.408331e+08
-3.548233e+08
-3.728728e+08
-3.956381e+08
0
0
0
0
0
5.165533e+08
5.246175e+08
5.373357e+08
5.556962e+08
5.809398e+08
-3.212541e+08
-3.310304e+08
-3.441729e+08
-3.611311e+08
-3.824969e+08
0
0
0
0
0
4.905908e+08
4.97853e+08
5.092908e+08
5.25735e+08
5.481996e+08
-3.132298e+08
-3.224546e+08
-3.348764e+08
-3.509109e+08
-3.711028e+08
0
0
0
0
0
4.677754e+08
4.744205e+08
4.848663e+08
4.998258e+08
5.201587e+08
-5.71757e+08
-6.092683e+08
-6.618826e+08
-7.366219e+08
-8.401463e+08
-5.454961e+08
-5.784093e+08
-6.235636e+08
-6.860046e+08
-7.745127e+08
0
-5.24007e+08
-5.536339e+08
-5.938963e+08
-6.483203e+08
-7.232825e+08
0
0
-5.056414e+08
-5.327861e+08
-5.694267e+08
-6.184194e+08
-6.843085e+08
0
0
0
-4.889362e+08
-5.140124e+08
-5.47776e+08
-5.925433e+08
-6.520022e+08
0
0
0
0
-4.724448e+08
-4.956721e+08
-5.268669e+08
-5.680345e+08
-6.221397e+08
0
0
0
0
0
-4.555028e+08
-4.769534e+08
-5.057251e+08
-5.435031e+08
-5.927952e+08
0
0
0
0
0
1.115837e+09
-4.389529e+08
-4.587529e+08
-4.852774e+08
-5.199828e+08
-5.64949e+08
0
0
0
0
0
9.758983e+08
1.071974e+09
-4.234522e+08
-4.417648e+08
-4.662828e+08
-4.982628e+08
-5.394877e+08
0
0
0
0
0
8.77855e+08
9.328381e+08
1.03835e+09
-4.092417e+08
-4.262367e+08
-4.489855e+08
-4.785901e+08
-5.165855e+08
0
0
0
0
0
8.039375e+08
8.398307e+08
9.014625e+08
1.017049e+09
-3.963093e+08
-4.121418e+08
-4.333337e+08
-4.608618e+08
-4.960712e+08
0
0
0
0
0
7.450164e+08
7.706506e+08
8.124836e+08
8.815565e+08
1.007984e+09
-3.845172e+08
-3.993126e+08
-4.191242e+08
-4.448201e+08
-4.775916e+08
0
0
0
0
0
6.96034e+08
7.1563e+08
7.467289e+08
7.950562e+08
8.721037e+08
-3.736317e+08
-3.874893e+08
-4.060515e+08
-4.301016e+08
-4.606968e+08
0
0
0
0
0
6.540184e+08
6.696299e+08
6.942578e+08
7.311986e+08
7.86341e+08
-3.633121e+08
-3.762937e+08
-3.936959e+08
-4.162187e+08
-4.448122e+08
0
0
0
0
0
6.167316e+08
6.296021e+08
6.498383e+08
6.797381e+08
7.226807e+08
-3.530859e+08
-3.652249e+08
-3.815063e+08
-4.025634e+08
-4.292391e+08
0
0
0
0
0
5.823965e+08
5.932558e+08
6.103494e+08
6.353257e+08
6.70512e+08
-3.425531e+08
-3.538709e+08
-3.690576e+08
-3.886784e+08
-4.134893e+08
0
0
0
0
0
5.499786e+08
5.593124e+08
5.740248e+08
5.953811e+08
6.25039e+08
-3.321828e+08
-3.427318e+08
-3.569025e+08
-3.751972e+08
-3.982878e+08
0
0
0
0
0
5.199878e+08
5.281778e+08
5.410938e+08
5.597493e+08
5.854219e+08
-3.225344e+08
-3.323966e+08
-3.456608e+08
-3.627839e+08
-3.843673e+08
0
0
0
0
0
4.929555e+08
5.002885e+08
5.118394e+08
5.284526e+08
5.511603e+08
-3.138864e+08
-3.23152e+08
-3.356317e+08
-3.517446e+08
-3.720402e+08
0
0
0
0
0
4.689374e+08
4.756139e+08
4.861097e+08
5.011435e+08
5.215819e+08
-3.06302e+08
-3.150549e+08
-3.268678e+08
-3.421248e+08
-3.613336e+08
0
0
0
0
0
4.477276e+08
4.538925e+08
4.635529e+08
4.773396e+08
4.959961e+08
-5.433383e+08
-5.758985e+08
-6.205093e+08
-6.820651e+08
-7.689496e+08
0
-5.203253e+08
-5.494099e+08
-5.888585e+08
-6.42034e+08
-7.149488e+08
0
0
-5.012175e+08
-5.277521e+08
-5.634936e+08
-6.111391e+08
-6.749414e+08
0
0
0
-4.847449e+08
-5.092568e+08
-5.421878e+08
-5.857295e+08
-6.433344e+08
0
0
0
0
-4.696309e+08
-4.924468e+08
-5.230325e+08
-5.633048e+08
-6.160808e+08
0
0
0
0
0
-4.546099e+08
-4.758623e+08
-5.043372e+08
-5.416786e+08
-5.903235e+08
0
0
0
0
0
1.092307e+09
-4.390749e+08
-4.5881e+08
-4.852315e+08
-5.197799e+08
-5.645097e+08
0
0
0
0
0
9.70106e+08
1.059082e+09
-4.238271e+08
-4.421293e+08
-4.66625e+08
-4.985658e+08
-5.397268e+08
0
0
0
0
0
8.766018e+08
9.303143e+08
1.03188e+09
-4.094924e+08
-4.264898e+08
-4.492382e+08
-4.788385e+08
-5.168238e+08
0
0
0
0
0
8.038376e+08
8.394746e+08
9.005434e+08
1.01436e+09
-3.963093e+08
-4.121418e+08
-4.333337e+08
-4.608618e+08
-4.960712e+08
0
0
0
0
0
7.450164e+08
7.706506e+08
8.124836e+08
8.815565e+08
1.007984e+09
-3.842843e+08
-3.990772e+08
-4.188881e+08
-4.445861e+08
-4.773633e+08
0
0
0
0
0
6.959082e+08
7.155837e+08
7.468098e+08
7.953761e+08
8.729877e+08
-3.732956e+08
-3.871577e+08
-4.057313e+08
-4.298013e+08
-4.604277e+08
0
0
0
0
0
6.539429e+08
6.696674e+08
6.944646e+08
7.316846e+08
7.873624e+08
-3.631358e+08
-3.761473e+08
-3.935966e+08
-4.161885e+08
-4.448788e+08
0
0
0
0
0
6.17172e+08
6.301819e+08
6.50621e+08
6.808355e+08
7.243025e+08
-3.534846e+08
-3.657007e+08
-3.820953e+08
-4.033101e+08
-4.302005e+08
0
0
0
0
0
5.840318e+08
5.950621e+08
6.124077e+08
6.377621e+08
6.735371e+08
-3.438966e+08
-3.553432e+08
-3.707168e+08
-3.905961e+08
-4.157544e+08
0
0
0
0
0
5.531287e+08
5.626529e+08
5.776529e+08
5.994383e+08
6.297372e+08
-3.339951e+08
-3.446824e+08
-3.590528e+08
-3.776208e+08
-4.010766e+08
0
0
0
0
0
5.236416e+08
5.319841e+08
5.451366e+08
5.641434e+08
5.903284e+08
-3.242202e+08
-3.341988e+08
-3.476292e+08
-3.64979e+08
-3.868623e+08
0
0
0
0
0
4.961137e+08
5.035475e+08
5.152588e+08
5.32111e+08
5.551629e+08
-3.151073e+08
-3.244523e+08
-3.370447e+08
-3.533101e+08
-3.73807e+08
0
0
0
0
0
4.711285e+08
4.778629e+08
4.884528e+08
5.03627e+08
5.242665e+08
-3.069307e+08
-3.157213e+08
-3.27588e+08
-3.429179e+08
-3.622227e+08
0
0
0
0
0
4.488089e+08
4.549999e+08
4.647029e+08
4.785526e+08
4.972983e+08
-2.997628e+08
-3.080684e+08
-3.193145e+08
-3.338516e+08
-3.521494e+08
0
0
0
0
0
4.29023e+08
4.347767e+08
4.437688e+08
4.565523e+08
4.737842e+08
-5.184057e+08
-5.472141e+08
-5.862498e+08
-6.387959e+08
-7.106881e+08
0
0
-4.979098e+08
-5.240044e+08
-5.591036e+08
-6.057972e+08
-6.681445e+08
0
0
0
-4.807396e+08
-5.047481e+08
-5.369463e+08
-5.794247e+08
-6.354467e+08
0
0
0
0
-4.658184e+08
-4.881603e+08
-5.180564e+08
-5.57332e+08
-6.086549e+08
0
0
0
0
0
-4.520491e+08
-4.729524e+08
-5.009145e+08
-5.375166e+08
-5.850899e+08
0
0
0
0
0
1.06015e+09
-4.382816e+08
-4.578475e+08
-4.840178e+08
-5.182019e+08
-5.624054e+08
0
0
0
0
0
9.592484e+08
1.037584e+09
-4.239657e+08
-4.422131e+08
-4.666219e+08
-4.98432e+08
-5.394004e+08
0
0
0
0
0
8.734234e+08
9.249996e+08
1.019782e+09
-4.098577e+08
-4.268469e+08
-4.495773e+08
-4.791457e+08
-5.170801e+08
0
0
0
0
0
8.032424e+08
8.383232e+08
8.981741e+08
1.008084e+09
-3.965509e+08
-4.123859e+08
-4.33578e+08
-4.611032e+08
-4.963052e+08
0
0
0
0
0
7.450618e+08
7.705615e+08
8.121504e+08
8.806681e+08
1.005279e+09
-3.842843e+08
-3.990772e+08
-4.188881e+08
-4.445861e+08
-4.773633e+08
0
0
0
0
0
6.959082e+08
7.155837e+08
7.468098e+08
7.953761e+08
8.729877e+08
-3.730709e+08
-3.869305e+08
-4.055034e+08
-4.295749e+08
-4.602059e+08
0
0
0
0
0
6.537711e+08
6.695455e+08
6.944168e+08
7.317597e+08
7.876774e+08
-3.628089e+08
-3.758244e+08
-3.932837e+08
-4.158934e+08
-4.446113e+08
0
0
0
0
0
6.170177e+08
6.301028e+08
6.506485e+08
6.810277e+08
7.247743e+08
-3.533052e+08
-3.655488e+08
-3.819864e+08
-4.032638e+08
-4.30242e+08
0
0
0
0
0
5.843378e+08
5.954655e+08
6.129491e+08
6.385082e+08
6.746052e+08
-3.442619e+08
-3.557795e+08
-3.712571e+08
-3.912812e+08
-4.166351e+08
0
0
0
0
0
5.54535e+08
5.641848e+08
5.793681e+08
6.01423e+08
6.321257e+08
-3.352634e+08
-3.460689e+08
-3.606119e+08
-3.794177e+08
-4.031931e+08
0
0
0
0
0
5.264701e+08
5.34958e+08
5.483319e+08
5.676657e+08
5.943297e+08
-3.259418e+08
-3.360476e+08
-3.496622e+08
-3.672647e+08
-3.894844e+08
0
0
0
0
0
4.994564e+08
5.070109e+08
5.189116e+08
5.360449e+08
5.595022e+08
-3.167136e+08
-3.261663e+08
-3.389127e+08
-3.553875e+08
-3.761621e+08
0
0
0
0
0
4.740485e+08
4.808649e+08
4.915869e+08
5.069585e+08
5.278807e+08
-3.080972e+08
-3.169612e+08
-3.289326e+08
-3.444041e+08
-3.638954e+08
0
0
0
0
0
4.508483e+08
4.570871e+08
4.668693e+08
4.808377e+08
4.997526e+08
-3.003657e+08
-3.087064e+08
-3.200026e+08
-3.346076e+08
-3.529947e+08
0
0
0
0
0
4.300326e+08
4.358087e+08
4.448371e+08
4.576748e+08
4.749833e+08
-2.935813e+08
-3.014739e+08
-3.121839e+08
-3.260507e+08
-3.435047e+08
0
0
0
0
0
4.115106e+08
4.169162e+08
4.253253e+08
4.372424e+08
4.532441e+08
-4.961815e+08
-5.220512e+08
-5.568231e+08
-6.030336e+08
-6.646469e+08
0
0
0
-4.777383e+08
-5.013815e+08
-5.330527e+08
-5.747728e+08
-6.296771e+08
0
0
0
0
-4.62163e+08
-4.84079e+08
-5.133636e+08
-5.517653e+08