/*--------------------------------*- C++ -*----------------------------------*\
| =========                 |                                                 |
| \\      /  F ield         | OpenFOAM: The Open Source CFD Toolbox           |
|  \\    /   O peration     | Version:  2306                                  |
|   \\  /    A nd           | Website:  www.openfoam.com                      |
|    \\/     M anipulation  |                                                 |
\*---------------------------------------------------------------------------*/
FoamFile
{
    version     2.0;
    format      ascii;
    arch        "LSB;label=32;scalar=64";
    class       volScalarField;
    location    "0.6/phiI";
    object      phi;
}
// * * * * * * * * * * * * * * * * * * * * * * * * * * * * * * * * * * * * * //

dimensions      [1 2 -3 0 0 -1 0];

internalField   nonuniform List<scalar> 
12000
(
1.592758
1.592769
1.588449
1.593587
1.592801
1.588408
1.593606
1.584291
1.589211
1.595277
1.592837
1.588345
1.593652
1.584226
1.589176
1.59531
1.580918
1.584997
1.590764
1.597844
1.592843
1.58827
1.593711
1.584117
1.589122
1.595386
1.580843
1.584937
1.590738
1.597899
1.578184
1.58158
1.586434
1.593122
1.601316
1.592748
1.588202
1.593746
1.583981
1.58906
1.595489
1.580712
1.584834
1.590703
1.59802
1.578104
1.581508
1.586381
1.59311
1.601402
1.575941
1.578809
1.582924
1.588616
1.59631
1.605734
1.592514
1.588147
1.593681
1.583855
1.589008
1.59558
1.580545
1.584708
1.590668
1.59819
1.57796
1.581382
1.586293
1.593104
1.601584
1.575858
1.578731
1.582859
1.588574
1.596318
1.605859
1.574064
1.576534
1.580076
1.584964
1.591563
1.600362
1.610203
1.592193
1.588083
1.593471
1.583771
1.588967
1.595575
1.580384
1.584593
1.590647
1.598367
1.577775
1.581224
1.586187
1.593109
1.601845
1.575708
1.578592
1.582745
1.588507
1.59635
1.60612
1.57398
1.576453
1.580004
1.584908
1.591536
1.600396
1.610367
1.572471
1.574628
1.577735
1.581998
1.587719
1.595308
1.60446
1.614722
1.5919
1.587992
1.593166
1.583735
1.588914
1.595413
1.580275
1.584519
1.590636
1.598454
1.577591
1.581071
1.586093
1.593136
1.602139
1.575513
1.578414
1.582602
1.588431
1.59641
1.6065
1.573827
1.576307
1.579875
1.584811
1.591499
1.600478
1.610706
1.572387
1.574546
1.577659
1.581933
1.587675
1.5953
1.604519
1.614925
1.571102
1.57301
1.575771
1.579556
1.584593
1.591217
1.599092
1.608604
1.619293
1.59173
1.5879
1.592882
1.58371
1.588829
1.595139
1.580234
1.584489
1.590602
1.598363
1.57746
1.580969
1.586039
1.59317
1.602351
1.575315
1.578237
1.582467
1.588371
1.596502
1.606945
1.573626
1.576118
1.57971
1.584692
1.591463
1.60061
1.611203
1.572234
1.574397
1.577522
1.58182
1.587602
1.595301
1.604651
1.615342
1.571019
1.572928
1.575693
1.579486
1.584539
1.591189
1.599104
1.608687
1.619534
1.569912
1.571618
1.574102
1.577503
1.582013
1.587886
1.594749
1.602916
1.612793
1.623914
1.59173
1.587844
1.592716
1.583688
1.58874
1.594874
1.580225
1.584466
1.590529
1.598136
1.577407
1.580932
1.58602
1.593167
1.602357
1.575169
1.578111
1.582379
1.588347
1.596598
1.607319
1.57342
1.575926
1.579547
1.584584
1.59145
1.600786
1.611798
1.572031
1.574201
1.577344
1.581675
1.587516
1.595318
1.604853
1.615955
1.570866
1.572778
1.575552
1.579362
1.584445
1.591147
1.599142
1.608868
1.620028
1.56983
1.571537
1.574023
1.577431
1.581953
1.587846
1.594737
1.602947
1.612901
1.624193
1.568869
1.570408
1.572663
1.575754
1.57984
1.58513
1.591209
1.598316
1.60678
1.617028
1.628586
1.5919
1.587844
1.592716
1.583673
1.588684
1.594715
1.580224
1.584445
1.590446
1.597898
1.577397
1.580924
1.586004
1.593111
1.602194
1.575105
1.578061
1.58235
1.588346
1.596638
1.60745
1.573263
1.575784
1.579433
1.584518
1.591467
1.600963
1.612332
1.571821
1.574
1.577164
1.581534
1.587444
1.595365
1.605114
1.6167
1.570663
1.57258
1.575366
1.579202
1.584328
1.591103
1.599211
1.609141
1.620757
1.569679
1.571387
1.57388
1.577301
1.581846
1.587778
1.594726
1.603022
1.613131
1.624765
1.568788
1.570328
1.572585
1.575681
1.579776
1.585082
1.591182
1.59832
1.60683
1.617161
1.628903
1.567946
1.569346
1.57141
1.574244
1.577983
1.582802
1.588273
1.594563
1.601918
1.610683
1.621308
1.632259
1.592193
1.5879
1.592882
1.583673
1.588684
1.594715
1.580224
1.584431
1.590393
1.597752
1.5774
1.580924
1.585985
1.593038
1.601993
1.575089
1.578052
1.582345
1.588338
1.596606
1.607369
1.57319
1.575722
1.579389
1.584502
1.591491
1.601058
1.612587
1.571658
1.573848
1.577032
1.581438
1.58741
1.595436
1.60537
1.617392
1.570452
1.572374
1.575176
1.579041
1.584218
1.591079
1.599318
1.609485
1.621649
1.569478
1.571189
1.573691
1.577131
1.58171
1.587697
1.594724
1.603143
1.613474
1.625608
1.568639
1.570179
1.572441
1.575548
1.579661
1.584998
1.591141
1.598339
1.606942
1.617439
1.629551
1.567867
1.569266
1.571333
1.574171
1.577917
1.582749
1.588237
1.594549
1.601937
1.610752
1.621466
1.632605
1.567125
1.568406
1.570309
1.572926
1.576376
1.580808
1.585788
1.591444
1.597947
1.605555
1.614627
1.624676
1.634981
1.592514
1.587992
1.593166
1.583688
1.58874
1.594874
1.580224
1.584431
1.590393
1.597752
1.577404
1.580924
1.585971
1.592989
1.601864
1.575092
1.578055
1.582345
1.588322
1.596545
1.607215
1.57317
1.575707
1.579381
1.584501
1.591495
1.601057
1.612586
1.571579
1.573776
1.576975
1.581403
1.58741
1.595492
1.605519
1.61777
1.570286
1.572215
1.575032
1.578924
1.584146
1.591084
1.599442
1.609821
1.622499
1.569267
1.570981
1.573494
1.576957
1.581575
1.587625
1.594747
1.60331
1.613901
1.626647
1.56844
1.569982
1.572251
1.575373
1.579513
1.584892
1.591095
1.598379
1.607115
1.617851
1.630508
1.56772
1.56912
1.571189
1.574037
1.577798
1.582655
1.588176
1.594534
1.601987
1.610901
1.621792
1.633312
1.567048
1.568328
1.570232
1.572853
1.57631
1.580752
1.585746
1.591419
1.597947
1.60559
1.614715
1.624853
1.635349
1.566391
1.567569
1.569333
1.571765
1.57497
1.579078
1.583654
1.588797
1.594641
1.601362
1.609227
1.617733
1.627174
1.636787
1.592748
1.588083
1.593471
1.58371
1.588829
1.595139
1.580224
1.584445
1.590446
1.597898
1.577404
1.580924
1.585971
1.592989
1.601864
1.575096
1.578059
1.582345
1.58831
1.596502
1.607107
1.57317
1.57571
1.579384
1.584502
1.591484
1.601012
1.612479
1.571554
1.573756
1.576961
1.581398
1.587416
1.595511
1.60555
1.617847
1.570203
1.572137
1.574964
1.578873
1.584124
1.591107
1.599531
1.610025
1.622997
1.569101
1.570819
1.573342
1.576826
1.581478
1.587586
1.594792
1.603487
1.614316
1.627654
1.568232
1.569775
1.572052
1.575191
1.579361
1.584791
1.591062
1.598448
1.60734
1.618361
1.631694
1.567525
1.568925
1.571
1.573859
1.577642
1.582533
1.588101
1.594523
1.602069
1.611125
1.622273
1.634357
1.566904
1.568184
1.570091
1.572719
1.576188
1.580651
1.585671
1.59138
1.597957
1.605669
1.6149
1.625217
1.636099
1.566316
1.567493
1.569258
1.571693
1.574903
1.57902
1.583607
1.588765
1.594627
1.601375
1.609277
1.617835
1.627365
1.63717
1.565731
1.56682
1.568463
1.570735
1.573728
1.577559
1.581796
1.58652
1.59183
1.597864
1.604807
1.612121
1.620038
1.628832
1.637698
1.592843
1.588147
1.593681
1.583735
1.588914
1.595413
1.580225
1.584466
1.590529
1.598136
1.5774
1.580924
1.585985
1.593038
1.601993
1.575096
1.578059
1.582345
1.58831
1.596502
1.607107
1.573174
1.575714
1.579388
1.584502
1.591473
1.600975
1.612392
1.571553
1.573756
1.576962
1.581401
1.587419
1.595506
1.605521
1.617784
1.570176
1.572113
1.574944
1.578861
1.584122
1.591122
1.599565
1.610086
1.623152
1.569017
1.570737
1.573268
1.576764
1.581438
1.58758
1.594837
1.603608
1.614573
1.628271
1.568066
1.569611
1.571896
1.575051
1.579247
1.584721
1.591055
1.598534
1.60757
1.618855
1.632856
1.567319
1.56872
1.570801
1.573673
1.577481
1.582411
1.588033
1.594529
1.602184
1.61141
1.622865
1.635657
1.566712
1.567991
1.569902
1.572541
1.576027
1.580519
1.585577
1.591336
1.597981
1.605792
1.615175
1.625751
1.637209
1.566174
1.567351
1.569118
1.571559
1.57478
1.578914
1.583524
1.588711
1.594611
1.60141
1.609386
1.618049
1.627757
1.637948
1.565657
1.566745
1.568389
1.570664
1.573662
1.5775
1.581747
1.586482
1.591808
1.597863
1.604833
1.612183
1.620151
1.629032
1.638087
1.565134
1.566146
1.567683
1.569815
1.572624
1.576214
1.580163
1.584533
1.589406
1.594886
1.601115
1.607524
1.614269
1.621567
1.629668
1.592837
1.588202
1.593746
1.583771
1.588967
1.595575
1.580234
1.584489
1.590602
1.598363
1.577397
1.580924
1.586004
1.593111
1.602194
1.575092
1.578055
1.582345
1.588322
1.596545
1.607215
1.573174
1.575714
1.579388
1.584502
1.591473
1.600975
1.612392
1.571556
1.57376
1.576966
1.581404
1.587419
1.595498
1.60549
1.617718
1.570174
1.572111
1.574944
1.578862
1.584126
1.591127
1.599567
1.610072
1.623133
1.568988
1.57071
1.573244
1.576745
1.581428
1.587584
1.594861
1.603658
1.614664
1.628501
1.567982
1.569528
1.571817
1.574981
1.579194
1.584694
1.591066
1.598601
1.607724
1.619165
1.63359
1.567156
1.568557
1.570643
1.573527
1.577355
1.582321
1.58799
1.594554
1.602309
1.611693
1.623438
1.63694
1.56651
1.567789
1.569705
1.572354
1.57586
1.580384
1.585484
1.5913
1.598025
1.605954
1.615518
1.626407
1.638592
1.565986
1.567162
1.568932
1.571382
1.574618
1.578776
1.583416
1.588643
1.594597
1.601469
1.60955
1.618363
1.62833
1.639101
1.565518
1.566606
1.568252
1.570531
1.573539
1.577392
1.581658
1.586417
1.591774
1.597868
1.604894
1.612315
1.620385
1.629441
1.63888
1.565062
1.566073
1.567611
1.569744
1.572558
1.576155
1.580112
1.584492
1.589378
1.594875
1.601125
1.607561
1.61434
1.621687
1.629872
1.564593
1.565536
1.56698
1.568988
1.571634
1.575015
1.578713
1.582782
1.587287
1.592313
1.597966
1.60368
1.609542
1.615695
1.622338
1.592801
1.58827
1.593711
1.583855
1.589008
1.59558
1.580275
1.584519
1.590636
1.598454
1.577407
1.580932
1.58602
1.593167
1.602357
1.575089
1.578052
1.582345
1.588338
1.596606
1.607369
1.57317
1.57571
1.579384
1.584502
1.591484
1.601012
1.612479
1.571556
1.57376
1.576966
1.581404
1.587419
1.595498
1.60549
1.617718
1.570176
1.572114
1.574947
1.578865
1.584128
1.591127
1.59956
1.610048
1.623085
1.568985
1.570707
1.573241
1.576744
1.581428
1.587588
1.594868
1.603666
1.614666
1.628524
1.567953
1.5695
1.57179
1.574957
1.579176
1.584687
1.591075
1.598634
1.607789
1.619286
1.633894
1.567072
1.568473
1.570562
1.573453
1.577292
1.582278
1.587975
1.594581
1.602399
1.611879
1.623801
1.637765
1.566349
1.567628
1.569547
1.572205
1.575727
1.580279
1.585416
1.591284
1.598082
1.606119
1.615854
1.627041
1.639963
1.565788
1.566963
1.568737
1.571195
1.574447
1.578632
1.583307
1.588579
1.594594
1.601551
1.609757
1.618752
1.629032
1.640538
1.565333
1.56642
1.568069
1.570355
1.573375
1.57725
1.581541
1.586333
1.591732
1.597884
1.604987
1.612511
1.620729
1.63004
1.640054
1.564926
1.565936
1.567476
1.569614
1.572435
1.576046
1.580019
1.584419
1.58933
1.59486
1.601152
1.607641
1.614489
1.621935
1.63029
1.564522
1.565465
1.566909
1.568919
1.571569
1.574956
1.578661
1.582739
1.587255
1.592294
1.597965
1.603699
1.609586
1.615772
1.622461
1.5641
1.564983
1.566344
1.568241
1.570744
1.573938
1.577416
1.581224
1.585416
1.590059
1.59524
1.600397
1.605585
1.610882
1.616413
1.592769
1.588345
1.593652
1.583981
1.58906
1.595489
1.580384
1.584593
1.590647
1.598367
1.57746
1.580969
1.586039
1.59317
1.602351
1.575105
1.578061
1.58235
1.588346
1.596638
1.60745
1.57317
1.575707
1.579381
1.584501
1.591495
1.601057
1.612586
1.571553
1.573756
1.576962
1.581401
1.587419
1.595506
1.605521
1.617784
1.570176
1.572114
1.574947
1.578865
1.584128
1.591127
1.59956
1.610048
1.623085
1.568987
1.570709
1.573244
1.576746
1.58143
1.58759
1.594868
1.603661
1.614648
1.628496
1.567949
1.569496
1.571786
1.574954
1.579174
1.584688
1.59108
1.598643
1.607803
1.619303
1.633958
1.567044
1.568445
1.570534
1.573426
1.57727
1.582263
1.587972
1.594596
1.602441
1.61196
1.623951
1.638126
1.566267
1.567545
1.569466
1.572128
1.575659
1.580225
1.585384
1.591283
1.598126
1.606231
1.616072
1.627446
1.640855
1.56563
1.566804
1.56858
1.571045
1.57431
1.578517
1.583222
1.588534
1.594604
1.60164
1.609963
1.619129
1.629712
1.641967
1.565139
1.566225
1.567876
1.57017
1.573203
1.5771
1.58142
1.586249
1.591697
1.597914
1.605107
1.612754
1.621151
1.630773
1.641518
1.564745
1.565754
1.567296
1.56944
1.572272
1.575901
1.579896
1.584324
1.58927
1.594845
1.601197
1.60776
1.614708
1.622298
1.630902
1.564389
1.56533
1.566776
1.56879
1.571447
1.574846
1.578565
1.58266
1.587198
1.592264
1.597969
1.603743
1.60968
1.615932
1.622716
1.564031
1.564913
1.566275
1.568173
1.570679
1.573879
1.577364
1.581179
1.585381
1.590035
1.59523
1.600404
1.605611
1.61093
1.616493
1.56365
1.564479
1.565765
1.567564
1.569937
1.572966
1.57625
1.579829
1.583749
1.588066
1.592849
1.597552
1.602204
1.60685
1.611556
1.592758
1.588408
1.593606
1.584117
1.589122
1.595386
1.580545
1.584708
1.590668
1.59819
1.577591
1.581071
1.586093
1.593136
1.602139
1.575169
1.578111
1.582379
1.588347
1.596598
1.607319
1.57319
1.575722
1.579389
1.584502
1.591491
1.601058
1.612587
1.571554
1.573756
1.576961
1.581398
1.587416
1.595511
1.60555
1.617847
1.570174
1.572111
1.574944
1.578862
1.584126
1.591127
1.599567
1.610072
1.623133
1.568987
1.570709
1.573244
1.576746
1.58143
1.58759
1.594868
1.603661
1.614648
1.628496
1.567951
1.569498
1.571788
1.574955
1.579175
1.584688
1.591081
1.598644
1.607801
1.619291
1.633948
1.56704
1.56844
1.570529
1.573421
1.577265
1.582259
1.587972
1.594601
1.602453
1.61198
1.623983
1.638222
1.566239
1.567517
1.569437
1.572099
1.575633
1.580204
1.585371
1.591284
1.598147
1.606282
1.616168
1.627618
1.641258
1.565549
1.566723
1.568499
1.570967
1.574238
1.578456
1.583177
1.588513
1.594617
1.601701
1.610097
1.619372
1.630146
1.642903
1.564985
1.566069
1.567722
1.570021
1.573065
1.57698
1.581324
1.586184
1.591675
1.597951
1.605228
1.61299
1.621558
1.631483
1.642976
1.564555
1.565562
1.567106
1.569256
1.5721
1.575748
1.579767
1.584226
1.589211
1.594837
1.60126
1.607911
1.614978
1.622742
1.63165
1.564211
1.565152
1.566599
1.568618
1.571286
1.5747
1.578439
1.582557
1.587124
1.592227
1.59798
1.603812
1.60982
1.616166
1.623088
1.5639
1.564781
1.566144
1.568046
1.570559
1.573769
1.577267
1.581097
1.585317
1.589994
1.595218
1.600423
1.605668
1.611034
1.616658
1.563582
1.56441
1.565697
1.567497
1.569874
1.572907
1.576197
1.579783
1.583711
1.588038
1.592834
1.597549
1.602216
1.60688
1.611607
1.563237
1.564018
1.565238
1.566946
1.569205
1.572083
1.575194
1.57857
1.582252
1.586286
1.59073
1.595054
1.59927
1.603403
1.607486
1.588449
1.593587
1.584226
1.589176
1.59531
1.580712
1.584834
1.590703
1.59802
1.577775
1.581224
1.586187
1.593109
1.601845
1.575315
1.578237
1.582467
1.588371
1.596502
1.606945
1.573263
1.575784
1.579433
1.584518
1.591467
1.600963
1.612332
1.571579
1.573776
1.576975
1.581403
1.58741
1.595492
1.605519
1.61777
1.570176
1.572113
1.574944
1.578861
1.584122
1.591122
1.599565
1.610086
1.623152
1.568985
1.570707
1.573241
1.576744
1.581428
1.587588
1.594868
1.603666
1.614666
1.628524
1.567951
1.569498
1.571788
1.574955
1.579175
1.584688
1.591081
1.598644
1.607801
1.619291
1.633948
1.567042
1.568442
1.570531
1.573422
1.577265
1.582259
1.587972
1.594602
1.602454
1.611979
1.623977
1.638226
1.566236
1.567513
1.569432
1.572094
1.575626
1.580198
1.585367
1.591283
1.598153
1.606296
1.616195
1.627661
1.641378
1.565523
1.566695
1.568471
1.570938
1.57421
1.578431
1.583157
1.588502
1.594621
1.601728
1.610157
1.619481
1.630336
1.643333
1.564906
1.56599
1.567642
1.569943
1.572991
1.576914
1.581271
1.586148
1.591664
1.597976
1.605306
1.613142
1.62182
1.631937
1.643933
1.564404
1.56541
1.566954
1.569109
1.571962
1.575625
1.579663
1.584147
1.589166
1.594838
1.601323
1.608056
1.615237
1.623169
1.632374
1.564025
1.564964
1.566413
1.568437
1.571115
1.574546
1.578305
1.58245
1.587049
1.592193
1.598001
1.603899
1.609992
1.616453
1.623543
1.563726
1.564606
1.56597
1.567877
1.570399
1.573623
1.577138
1.580989
1.585233
1.589942
1.595204
1.600455
1.605753
1.611187
1.6169
1.563454
1.564281
1.565569
1.567372
1.569755
1.572798
1.576099
1.579698
1.583642
1.587989
1.592808
1.59755
1.602247
1.606945
1.611715
1.563171
1.563951
1.565171
1.566881
1.569142
1.572026
1.575142
1.578524
1.582212
1.586255
1.59071
1.595044
1.599273
1.603419
1.607518
1.562858
1.563595
1.564755
1.566383
1.568535
1.57128
1.574235
1.57743
1.5809
1.584685
1.588836
1.592837
1.596692
1.600411
1.604006
1.584291
1.589211
1.595277
1.580843
1.584937
1.590738
1.597899
1.57796
1.581382
1.586293
1.593104
1.601584
1.575513
1.578414
1.582602
1.588431
1.59641
1.6065
1.57342
1.575926
1.579547
1.584584
1.59145
1.600786
1.611798
1.571658
1.573848
1.577032
1.581438
1.58741
1.595436
1.60537
1.617392
1.570203
1.572137
1.574964
1.578873
1.584124
1.591107
1.599531
1.610025
1.622997
1.568988
1.57071
1.573244
1.576745
1.581428
1.587584
1.594861
1.603658
1.614664
1.628501
1.567949
1.569496
1.571786
1.574954
1.579174
1.584688
1.59108
1.598643
1.607803
1.619303
1.633958
1.567042
1.568442
1.570531
1.573422
1.577265
1.582259
1.587972
1.594602
1.602454
1.611979
1.623977
1.638226
1.566238
1.567515
1.569433
1.572094
1.575626
1.580197
1.585365
1.591282
1.598152
1.606297
1.616196
1.627659
1.641392
1.56552
1.566691
1.568466
1.570932
1.574203
1.578423
1.58315
1.588497
1.59462
1.601734
1.610174
1.619511
1.630386
1.643468
1.564881
1.565963
1.567614
1.569914
1.572963
1.576887
1.581247
1.586131
1.591656
1.597984
1.605339
1.61321
1.621937
1.632137
1.644377
1.564328
1.565332
1.566876
1.569031
1.571888
1.575557
1.579605
1.584102
1.58914
1.594838
1.601362
1.608148
1.615402
1.623443
1.632838
1.563878
1.564815
1.566265
1.568292
1.570977
1.574421
1.578196
1.582361
1.586988
1.592168
1.598024
1.603983
1.610156
1.616727
1.62398
1.563544
1.564422
1.565787
1.567699
1.570229
1.573469
1.577001
1.580874
1.585146
1.589889
1.595195
1.600498
1.605859
1.611373
1.617196
1.563283
1.564109
1.565398
1.567206
1.569596
1.572652
1.575969
1.579586
1.583552
1.587924
1.592777
1.597555
1.602293
1.607042
1.611874
1.563044
1.563824
1.565045
1.566758
1.569025
1.571917
1.575043
1.578437
1.58214
1.5862
1.590675
1.595031
1.599284
1.603457
1.607588
1.562792
1.563529
1.564689
1.566319
1.568474
1.571223
1.574182
1.577383
1.580859
1.584653
1.588812
1.592822
1.596688
1.600417
1.604024
1.562507
1.563206
1.564311
1.565866
1.567923
1.570544
1.573359
1.57639
1.579672
1.583237
1.58713
1.590852
1.594403
1.59778
1.600984
1.580918
1.584997
1.590764
1.597844
1.578104
1.581508
1.586381
1.59311
1.601402
1.575708
1.578592
1.582745
1.588507
1.59635
1.60612
1.573626
1.576118
1.57971
1.584692
1.591463
1.60061
1.611203
1.571821
1.574
1.577164
1.581534
1.587444
1.595365
1.605114
1.6167
1.570286
1.572215
1.575032
1.578924
1.584146
1.591084
1.599442
1.609821
1.622499
1.569017
1.570737
1.573268
1.576764
1.581438
1.58758
1.594837
1.603608
1.614573
1.628271
1.567953
1.5695
1.57179
1.574957
1.579176
1.584687
1.591075
1.598634
1.607789
1.619286
1.633894
1.56704
1.56844
1.570529
1.573421
1.577265
1.582259
1.587972
1.594601
1.602453
1.61198
1.623983
1.638222
1.566238
1.567515
1.569433
1.572094
1.575626
1.580197
1.585365
1.591282
1.598152
1.606297
1.616196
1.627659
1.641392
1.565523
1.566694
1.568467
1.570933
1.574203
1.578422
1.583148
1.588495
1.594618
1.601733
1.610176
1.619514
1.630388
1.643489
1.564879
1.56596
1.567609
1.569908
1.572955
1.576878
1.581237
1.586122
1.59165
1.597983
1.605346
1.613229
1.621971
1.632193
1.644519
1.564303
1.565306
1.566849
1.569003
1.571859
1.575528
1.579578
1.584079
1.589123
1.594833
1.601374
1.608185
1.615474
1.623566
1.633044
1.563804
1.564739
1.566188
1.568216
1.570903
1.574352
1.578134
1.582309
1.58695
1.592151
1.598036
1.604033
1.610257
1.616901
1.62426
1.5634
1.564276
1.565642
1.567556
1.570093
1.573343
1.57689
1.58078
1.585074
1.589845
1.59519
1.600539
1.605959
1.611549
1.617477
1.563104
1.563929
1.565219
1.56703
1.569429
1.572498
1.575831
1.579467
1.583456
1.587858
1.592746
1.597566
1.602353
1.60716
1.612068
1.562877
1.563655
1.564877
1.566594
1.568868
1.571772
1.574912
1.578323
1.582044
1.586127
1.59063
1.595016
1.599302
1.603514
1.60769
1.562668
1.563404
1.564565
1.566198
1.568358
1.571115
1.574084
1.577295
1.580784
1.584593
1.58877
1.592799
1.596684
1.600435
1.604065
1.562443
1.563141
1.564247
1.565803
1.567863
1.570488
1.573306
1.576343
1.579631
1.583203
1.587104
1.590834
1.594393
1.597779
1.600992
1.562183
1.562847
1.563902
1.56539
1.56736
1.56987
1.572555
1.57544
1.578551
1.581921
1.585584
1.589063
1.592352
1.595442
1.598326
1.578184
1.58158
1.586434
1.593122
1.601316
1.575858
1.578731
1.582859
1.588574
1.596318
1.605859
1.573827
1.576307
1.579875
1.584811
1.591499
1.600478
1.610706
1.572031
1.574201
1.577344
1.581675
1.587516
1.595318
1.604853
1.615955
1.570452
1.572374
1.575176
1.579041
1.584218
1.591079
1.599318
1.609485
1.621649
1.569101
1.570819
1.573342
1.576826
1.581478
1.587586
1.594792
1.603487
1.614316
1.627654
1.567982
1.569528
1.571817
1.574981
1.579194
1.584694
1.591066
1.598601
1.607724
1.619165
1.63359
1.567044
1.568445
1.570534
1.573426
1.57727
1.582263
1.587972
1.594596
1.602441
1.61196
1.623951
1.638126
1.566236
1.567513
1.569432
1.572094
1.575626
1.580198
1.585367
1.591283
1.598153
1.606296
1.616195
1.627661
1.641378
1.565523
1.566694
1.568467
1.570933
1.574203
1.578422
1.583148
1.588495
1.594618
1.601733
1.610176
1.619514
1.630388
1.643489
1.564882
1.565962
1.567611
1.569908
1.572955
1.576876
1.581234
1.586118
1.591646
1.59798
1.605344
1.61323
1.621975
1.632197
1.644543
1.564302
1.565304
1.566845
1.568998
1.571851
1.575519
1.579568
1.584068
1.589114
1.594826
1.601373
1.608192
1.615495
1.623602
1.633102
1.563781
1.564715
1.566162
1.568188
1.570875
1.574323
1.578106
1.582283
1.586928
1.592136
1.598033
1.604048
1.610297
1.616977
1.624385
1.563328
1.564203
1.565567
1.567481
1.57002
1.573274
1.576826
1.580724
1.585029
1.589816
1.595182
1.600559
1.606016
1.611656
1.617655
1.562964
1.563787
1.565077
1.56689
1.569295
1.572373
1.575717
1.579368
1.583376
1.587801
1.59272
1.597576
1.602407
1.607269
1.61225
1.562702
1.563479
1.564702
1.566422
1.568703
1.571619
1.574774
1.578201
1.581943
1.58605
1.590584
1.595003
1.599327
1.603584
1.607814
1.562504
1.563239
1.564401
1.566037
1.568204
1.570971
1.573953
1.577179
1.580685
1.584513
1.588715
1.592769
1.596681
1.600462
1.604127
1.562321
1.563018
1.564125
1.565684
1.567748
1.570381
1.573208
1.576255
1.579554
1.58314
1.587056
1.590802
1.594377
1.597781
1.601013
1.56212
1.562783
1.563839
1.565328
1.567301
1.569814
1.572503
1.575393
1.578509
1.581885
1.585556
1.589042
1.592337
1.595435
1.598326
1.561882
1.562514
1.563524
1.564951
1.566841
1.569248
1.571817
1.574567
1.577525
1.580717
1.584176
1.58744
1.590501
1.593347
1.595964
1.575941
1.578809
1.582924
1.588616
1.59631
1.605734
1.57398
1.576453
1.580004
1.584908
1.591536
1.600396
1.610367
1.572234
1.574397
1.577522
1.58182
1.587602
1.595301
1.604651
1.615342
1.570663
1.57258
1.575366
1.579202
1.584328
1.591103
1.599211
1.609141
1.620757
1.569267
1.570981
1.573494
1.576957
1.581575
1.587625
1.594747
1.60331
1.613901
1.626647
1.568066
1.569611
1.571896
1.575051
1.579247
1.584721
1.591055
1.598534
1.60757
1.618855
1.632856
1.567072
1.568473
1.570562
1.573453
1.577292
1.582278
1.587975
1.594581
1.602399
1.611879
1.623801
1.637765
1.566239
1.567517
1.569437
1.572099
1.575633
1.580204
1.585371
1.591284
1.598147
1.606282
1.616168
1.627618
1.641258
1.56552
1.566691
1.568466
1.570932
1.574203
1.578423
1.58315
1.588497
1.59462
1.601734
1.610174
1.619511
1.630386
1.643468
1.564882
1.565962
1.567611
1.569908
1.572955
1.576876
1.581234
1.586118
1.591646
1.59798
1.605344
1.61323
1.621975
1.632197
1.644543
1.564305
1.565307
1.566847
1.568998
1.571851
1.575517
1.579564
1.584064
1.589109
1.594821
1.601369
1.608191
1.615496
1.623607
1.633108
1.56378
1.564713
1.566159
1.568183
1.570868
1.574314
1.578096
1.582272
1.586916
1.592125
1.598025
1.604046
1.610305
1.616998
1.624423
1.563307
1.56418
1.565543
1.567455
1.569992
1.573246
1.576797
1.580696
1.585003
1.589795
1.595169
1.600558
1.606033
1.611699
1.617732
1.562894
1.563715
1.565004
1.566818
1.569223
1.572305
1.575653
1.57931
1.583326
1.587763
1.592698
1.597575
1.602433
1.607332
1.61236
1.562565
1.56334
1.564563
1.566285
1.568571
1.571495
1.57466
1.578099
1.581857
1.585984
1.590543
1.594991
1.599349
1.603646
1.607928
1.562332
1.563066
1.564228
1.565868
1.568041
1.57082
1.573814
1.577055
1.580579
1.584429
1.588656
1.592738
1.596681
1.600496
1.604202
1.56216
1.562856
1.563963
1.565525
1.567596
1.570239
1.573077
1.576138
1.579451
1.583055
1.586993
1.590761
1.594358
1.597786
1.601044
1.562
1.562663
1.563719
1.565211
1.567188
1.569708
1.572406
1.575304
1.578431
1.581819
1.585504
1.589004
1.592313
1.595425
1.598331
1.56182
1.562452
1.563463
1.564891
1.566782
1.569193
1.571765
1.57452
1.577483
1.58068
1.584146
1.587417
1.590484
1.593335
1.595958
1.561601
1.562204
1.563174
1.564545
1.566361
1.568674
1.571135
1.573763
1.57658
1.579613
1.582887
1.585961
1.588821
1.591456
1.593846
1.574064
1.576534
1.580076
1.584964
1.591563
1.600362
1.610203
1.572387
1.574546
1.577659
1.581933
1.587675
1.5953
1.604519
1.614925
1.570866
1.572778
1.575552
1.579362
1.584445
1.591147
1.599142
1.608868
1.620028
1.569478
1.571189
1.573691
1.577131
1.58171
1.587697
1.594724
1.603143
1.613474
1.625608
1.568232
1.569775
1.572052
1.575191
1.579361
1.584791
1.591062
1.598448
1.60734
1.618361
1.631694
1.567156
1.568557
1.570643
1.573527
1.577355
1.582321
1.58799
1.594554
1.602309
1.611693
1.623438
1.63694
1.566267
1.567545
1.569466
1.572128
1.575659
1.580225
1.585384
1.591283
1.598126
1.606231
1.616072
1.627446
1.640855
1.565523
1.566695
1.568471
1.570938
1.57421
1.578431
1.583157
1.588502
1.594621
1.601728
1.610157
1.619481
1.630336
1.643333
1.564879
1.56596
1.567609
1.569908
1.572955
1.576878
1.581237
1.586122
1.59165
1.597983
1.605346
1.613229
1.621971
1.632193
1.644519
1.564305
1.565307
1.566847
1.568998
1.571851
1.575517
1.579564
1.584064
1.589109
1.594821
1.601369
1.608191
1.615496
1.623607
1.633108
1.563784
1.564717
1.566161
1.568185
1.570868
1.574312
1.578092
1.582267
1.586911
1.592119
1.59802
1.604042
1.610303
1.617
1.624428
1.563307
1.564179
1.56554
1.567451
1.569986
1.573237
1.576787
1.580684
1.58499
1.589782
1.595157
1.60055
1.606031
1.611707
1.617754
1.562874
1.563694
1.564981
1.566793
1.569196
1.572277
1.575624
1.579281
1.583298
1.587738
1.592679
1.597564
1.602434
1.60735
1.612404
1.562497
1.563271
1.564492
1.566214
1.568501
1.571428
1.574595
1.57804
1.581804
1.58594
1.590511
1.594975
1.599353
1.603676
1.607993
1.562198
1.56293
1.564092
1.565733
1.567911
1.570697
1.5737
1.576952
1.58049
1.584356
1.588605
1.592709
1.596679
1.600525
1.604269
1.561991
1.562686
1.563794
1.565359
1.567436
1.570089
1.572939
1.576013
1.579343
1.582965
1.586925
1.590717
1.59434
1.597794
1.601083
1.561841
1.562503
1.56356
1.565055
1.567038
1.569568
1.572275
1.575186
1.578327
1.581731
1.585434
1.588953
1.592282
1.595414
1.59834
1.561702
1.562333
1.563344
1.564775
1.566671
1.569089
1.571668
1.574431
1.577404
1.580612
1.584091
1.587373
1.590453
1.593316
1.595951
1.561541
1.562143
1.563113
1.564485
1.566303
1.56862
1.571084
1.573716
1.576538
1.579576
1.582856
1.585935
1.588801
1.59144
1.593835
1.56134
1.561917
1.562848
1.564168
1.565916
1.568142
1.570504
1.57302
1.575709
1.578595
1.581704
1.584605
1.587289
1.589738
1.591934
1.572471
1.574628
1.577735
1.581998
1.587719
1.595308
1.60446
1.614722
1.571019
1.572928
1.575693
1.579486
1.584539
1.591189
1.599104
1.608687
1.619534
1.569679
1.571387
1.57388
1.577301
1.581846
1.587778
1.594726
1.603022
1.613131
1.624765
1.56844
1.569982
1.572251
1.575373
1.579513
1.584892
1.591095
1.598379
1.607115
1.617851
1.630508
1.567319
1.56872
1.570801
1.573673
1.577481
1.582411
1.588033
1.594529
1.602184
1.61141
1.622865
1.635657
1.566349
1.567628
1.569547
1.572205
1.575727
1.580279
1.585416
1.591284
1.598082
1.606119
1.615854
1.627041
1.639963
1.565549
1.566723
1.568499
1.570967
1.574238
1.578456
1.583177
1.588513
1.594617
1.601701
1.610097
1.619372
1.630146
1.642903
1.564881
1.565963
1.567614
1.569914
1.572963
1.576887
1.581247
1.586131
1.591656
1.597984
1.605339
1.61321
1.621937
1.632137
1.644377
1.564302
1.565304
1.566845
1.568998
1.571851
1.575519
1.579568
1.584068
1.589114
1.594826
1.601373
1.608192
1.615495
1.623602
1.633102
1.563784
1.564717
1.566161
1.568185
1.570868
1.574312
1.578092
1.582267
1.586911
1.592119
1.59802
1.604042
1.610303
1.617
1.624428
1.563311
1.564183
1.565543
1.567453
1.569986
1.573236
1.576784
1.580679
1.584984
1.589775
1.59515
1.600543
1.606027
1.611705
1.617756
1.562876
1.563694
1.56498
1.566789
1.569191
1.572269
1.575614
1.579269
1.583285
1.587723
1.592664
1.597551
1.602425
1.607349
1.612412
1.562478
1.56325
1.56447
1.566191
1.568475
1.571401
1.574567
1.578011
1.581776
1.585913
1.590487
1.594956
1.599343
1.603678
1.608012
1.562133
1.562863
1.564024
1.565665
1.567843
1.570631
1.573637
1.576892
1.580435
1.584308
1.588566
1.592683
1.596667
1.600533
1.604301
1.561861
1.562553
1.563661
1.565228
1.567308
1.569968
1.572826
1.57591
1.579251
1.582888
1.586865
1.590676
1.59432
1.597799
1.601116
1.561676
1.562336
1.563394
1.564892
1.56688
1.569419
1.572138
1.575061
1.578216
1.581637
1.58536
1.588899
1.592249
1.595402
1.598353
1.561546
1.562176
1.563188
1.564621
1.566523
1.568949
1.571539
1.574313
1.577298
1.580521
1.584016
1.587316
1.590411
1.593291
1.595943
1.561424
1.562026
1.562997
1.564371
1.566193
1.568516
1.570988
1.573628
1.576458
1.579506
1.582798
1.585888
1.588764
1.591414
1.593819
1.56128
1.561857
1.562788
1.564109
1.56586
1.568088
1.570454
1.572973
1.575667
1.578558
1.581672
1.584578
1.587266
1.58972
1.59192
1.561094
1.561648
1.562544
1.563816
1.565502
1.567648
1.569919
1.572331
1.574903
1.577656
1.580612
1.583359
1.585883
1.58817
1.590196
1.571102
1.57301
1.575771
1.579556
1.584593
1.591217
1.599092
1.608604
1.619293
1.56983
1.571537
1.574023
1.577431
1.581953
1.587846
1.594737
1.602947
1.612901
1.624193
1.568639
1.570179
1.572441
1.575548
1.579661
1.584998
1.591141
1.598339
1.606942
1.617439
1.629551
1.567525
1.568925
1.571
1.573859
1.577642
1.582533
1.588101
1.594523
1.602069
1.611125
1.622273
1.634357
1.56651
1.567789
1.569705
1.572354
1.57586
1.580384
1.585484
1.5913
1.598025
1.605954
1.615518
1.626407
1.638592
1.56563
1.566804
1.56858
1.571045
1.57431
1.578517
1.583222
1.588534
1.594604
1.60164
1.609963
1.619129
1.629712