/*--------------------------------*- C++ -*----------------------------------*\
| =========                 |                                                 |
| \\      /  F ield         | OpenFOAM: The Open Source CFD Toolbox           |
|  \\    /   O peration     | Version:  2306                                  |
|   \\  /    A nd           | Website:  www.openfoam.com                      |
|    \\/     M anipulation  |                                                 |
\*---------------------------------------------------------------------------*/
FoamFile
{
    version     2.0;
    format      ascii;
    arch        "LSB;label=32;scalar=64";
    class       volScalarField;
    location    "0.6/phiI";
    object      T;
}
// * * * * * * * * * * * * * * * * * * * * * * * * * * * * * * * * * * * * * //

dimensions      [0 0 0 1 0 0 0];

internalField   nonuniform List<scalar> 
12000
(
1120.54
1120.408
1122.135
1120.603
1120.101
1122.126
1120.471
1123.61
1122.19
1120.652
1119.521
1122.106
1120.165
1123.636
1122.181
1120.521
1124.995
1123.657
1122.232
1120.688
1118.523
1122.063
1119.588
1123.693
1122.16
1120.215
1125.03
1123.683
1122.223
1120.557
1126.326
1125.035
1123.692
1122.261
1120.709
1117.013
1121.984
1118.598
1123.795
1122.117
1119.641
1125.111
1123.74
1122.202
1120.251
1126.363
1125.07
1123.718
1122.253
1120.578
1127.614
1126.36
1125.064
1123.716
1122.278
1120.714
1115.272
1121.839
1117.107
1123.958
1122.035
1118.658
1125.255
1123.84
1122.158
1119.679
1126.449
1125.151
1123.774
1122.231
1120.273
1127.651
1126.398
1125.1
1123.741
1122.269
1120.583
1128.863
1127.644
1126.384
1125.082
1123.727
1122.279
1120.719
1113.678
1121.569
1115.393
1124.175
1121.886
1117.187
1125.492
1123.999
1122.073
1118.704
1126.604
1125.294
1123.873
1122.185
1119.703
1127.736
1126.483
1125.179
1123.797
1122.246
1120.278
1128.899
1127.681
1126.422
1125.118
1123.752
1122.27
1120.587
1130.071
1128.888
1127.664
1126.398
1125.089
1123.726
1122.281
1120.723
1112.496
1121.238
1113.823
1124.326
1121.617
1115.498
1125.818
1124.208
1121.92
1117.251
1126.857
1125.526
1124.028
1122.098
1118.735
1127.889
1126.637
1125.321
1123.894
1122.199
1119.709
1128.98
1127.765
1126.507
1125.196
1123.807
1122.247
1120.283
1130.106
1128.924
1127.701
1126.435
1125.124
1123.75
1122.271
1120.592
1131.24
1130.094
1128.905
1127.674
1126.401
1125.084
1123.724
1122.282
1120.727
1111.874
1120.947
1112.658
1124.393
1121.29
1113.951
1126.107
1124.355
1121.652
1115.587
1127.21
1125.844
1124.229
1121.94
1117.299
1128.139
1126.886
1125.549
1124.045
1122.108
1118.747
1129.126
1127.917
1126.659
1125.337
1123.902
1122.198
1119.715
1130.183
1129.005
1127.785
1126.52
1125.202
1123.804
1122.247
1120.288
1131.272
1130.128
1128.941
1127.711
1126.438
1125.119
1123.748
1122.272
1120.596
1132.366
1131.259
1130.107
1128.912
1127.674
1126.393
1125.08
1123.722
1122.283
1120.731
1111.874
1120.779
1112.044
1124.406
1121.004
1112.802
1126.309
1124.42
1121.329
1114.062
1127.538
1126.126
1124.371
1121.672
1115.658
1128.488
1127.231
1125.859
1124.238
1121.946
1117.325
1129.366
1128.164
1126.904
1125.56
1124.049
1122.104
1118.758
1130.322
1129.151
1127.935
1126.67
1125.34
1123.897
1122.197
1119.722
1131.346
1130.205
1129.021
1127.794
1126.522
1125.196
1123.801
1122.247
1120.292
1132.397
1131.292
1130.142
1128.948
1127.71
1126.43
1125.114
1123.746
1122.273
1120.6
1133.451
1132.384
1131.27
1130.112
1128.909
1127.664
1126.387
1125.075
1123.72
1122.284
1120.735
1112.496
1120.779
1112.044
1124.401
1120.839
1112.197
1126.431
1124.433
1121.047
1112.929
1127.784
1126.326
1124.435
1121.353
1114.154
1128.819
1127.553
1126.135
1124.375
1121.678
1115.704
1129.702
1128.506
1127.242
1125.862
1124.233
1121.938
1117.348
1130.55
1129.388
1128.178
1126.912
1125.559
1124.04
1122.101
1118.769
1131.478
1130.344
1129.166
1127.943
1126.67
1125.333
1123.893
1122.196
1119.728
1132.467
1131.365
1130.218
1129.028
1127.793
1126.513
1125.191
1123.799
1122.247
1120.297
1133.481
1132.415
1131.303
1130.146
1128.945
1127.701
1126.423
1125.109
1123.744
1122.273
1120.604
1134.495
1133.467
1132.393
1131.273
1130.107
1128.898
1127.655
1126.38
1125.071
1123.718
1122.284
1120.744
1113.678
1120.947
1112.658
1124.401
1120.839
1112.197
1126.486
1124.429
1120.885
1112.332
1127.942
1126.446
1124.448
1121.075
1113.037
1129.074
1127.796
1126.331
1124.437
1121.362
1114.219
1130.022
1128.831
1127.557
1126.132
1124.365
1121.67
1115.743
1130.869
1129.717
1128.514
1127.242
1125.853
1124.217
1121.931
1117.371
1131.694
1130.569
1129.4
1128.183
1126.908
1125.548
1124.032
1122.097
1118.781
1132.594
1131.497
1130.356
1129.171
1127.941
1126.66
1125.326
1123.888
1122.194
1119.735
1133.548
1132.485
1131.376
1130.223
1129.024
1127.783
1126.506
1125.185
1123.795
1122.247
1120.302
1134.523
1133.496
1132.424
1131.306
1130.141
1128.933
1127.692
1126.416
1125.104
1123.741
1122.273
1120.614
1135.496
1134.508
1133.475
1132.394
1131.267
1130.095
1128.888
1127.647
1126.373
1125.065
1123.715
1122.289
1120.758
1115.272
1121.238
1113.823
1124.406
1121.004
1112.802
1126.486
1124.429
1120.885
1112.332
1128.018
1126.501
1124.445
1120.916
1112.448
1129.241
1127.952
1126.45
1124.45
1121.089
1113.115
1130.271
1129.083
1127.797
1126.325
1124.426
1121.357
1114.273
1131.174
1130.032
1128.833
1127.551
1126.116
1124.345
1121.662
1115.781
1131.996
1130.882
1129.722
1128.511
1127.23
1125.833
1124.203
1121.924
1117.393
1132.799
1131.711
1130.579
1129.402
1128.177
1126.894
1125.537
1124.024
1122.094
1118.793
1133.669
1132.61
1131.507
1130.359
1129.167
1127.929
1126.651
1125.318
1123.883
1122.193
1119.742
1134.587
1133.563
1132.494
1131.378
1130.217
1129.012
1127.773
1126.498
1125.179
1123.792
1122.247
1120.312
1135.524
1134.537
1133.504
1132.425
1131.299
1130.128
1128.923
1127.683
1126.409
1125.099
1123.738
1122.278
1120.628
1136.456
1135.509
1134.515
1133.474
1132.387
1131.253
1130.084
1128.878
1127.638
1126.366
1125.06
1123.716
1122.299
1120.777
1117.013
1121.569
1115.393
1124.393
1121.29
1113.951
1126.431
1124.433
1121.047
1112.929
1128.018
1126.501
1124.445
1120.916
1112.448
1129.323
1128.027
1126.505
1124.448
1120.932
1112.532
1130.436
1129.248
1127.951
1126.443
1124.439
1121.087
1113.181
1131.414
1130.278
1129.082
1127.787
1126.307
1124.404
1121.352
1114.327
1132.287
1131.183
1130.032
1128.825
1127.533
1126.092
1124.327
1121.655
1115.819
1133.086
1132.008
1130.886
1129.718
1128.498
1127.209
1125.817
1124.189
1121.917
1117.416
1133.865
1132.814
1131.719
1130.579
1129.394
1128.162
1126.882
1125.526
1124.015
1122.09
1118.805
1134.703
1133.684
1132.619
1131.509
1130.353
1129.153
1127.918
1126.642
1125.311
1123.878
1122.191
1119.755
1135.585
1134.601
1133.571
1132.494
1131.372
1130.204
1129.002
1127.764
1126.49
1125.173
1123.788
1122.251
1120.328
1136.483
1135.536
1134.543
1133.504
1132.417
1131.285
1130.117
1128.913
1127.674
1126.401
1125.093
1123.739
1122.287
1120.647
1137.376
1136.468
1135.514
1134.514
1133.466
1132.372
1131.241
1130.073
1128.868
1127.629
1126.358
1125.058
1123.722
1122.313
1120.8
1118.523
1121.839
1117.107
1124.326
1121.617
1115.498
1126.309
1124.42
1121.329
1114.062
1127.942
1126.446
1124.448
1121.075
1113.037
1129.323
1128.027
1126.505
1124.448
1120.932
1112.532
1130.518
1129.329
1128.026
1126.497
1124.437
1120.932
1112.604
1131.574
1130.442
1129.245
1127.94
1126.423
1124.418
1121.085
1113.245
1132.516
1131.42
1130.276
1129.07
1127.766
1126.28
1124.385
1121.346
1114.379
1133.363
1132.294
1131.183
1130.024
1128.807
1127.508
1126.071
1124.309
1121.647
1115.856
1134.138
1133.096
1132.011
1130.881
1129.704
1128.477
1127.191
1125.8
1124.175
1121.909
1117.438
1134.891
1133.878
1132.82
1131.718
1130.57
1129.378
1128.148
1126.869
1125.515
1124.006
1122.086
1118.824
1135.697
1134.716
1133.691
1132.619
1131.501
1130.338
1129.141
1127.907
1126.632
1125.303
1123.872
1122.194
1119.773
1136.543
1135.598
1134.607
1133.57
1132.487
1131.357
1130.192
1128.991
1127.754
1126.482
1125.166
1123.788
1122.259
1120.348
1137.401
1136.494
1135.541
1134.542
1133.495
1132.403
1131.273
1130.106
1128.902
1127.664
1126.393
1125.091
1123.744
1122.301
1120.671
1138.255
1137.386
1136.472
1135.512
1134.505
1133.451
1132.36
1131.229
1130.061
1128.857
1127.619
1126.353
1125.061
1123.732
1122.331
1119.521
1121.984
1118.598
1124.175
1121.886
1117.187
1126.107
1124.355
1121.652
1115.587
1127.784
1126.326
1124.435
1121.353
1114.154
1129.241
1127.952
1126.45
1124.45
1121.089
1113.115
1130.518
1129.329
1128.026
1126.497
1124.437
1120.932
1112.604
1131.653
1130.523
1129.326
1128.014
1126.477
1124.415
1120.932
1112.674
1132.669
1131.578
1130.438
1129.232
1127.918
1126.394
1124.398
1121.082
1113.308
1133.582
1132.521
1131.417
1130.264
1129.049
1127.737
1126.256
1124.365
1121.341
1114.43
1134.403
1133.37
1132.293
1131.173
1130.005
1128.781
1127.485
1126.049
1124.291
1121.639
1115.892
1135.153
1134.147
1133.098
1132.005
1130.866
1129.683
1128.458
1127.173
1125.783
1124.16
1121.901
1117.466
1135.878
1134.903
1133.883
1132.818
1131.707
1130.553
1129.363
1128.134
1126.856
1125.504
1123.997
1122.086
1118.847
1136.65
1135.709
1134.722
1133.689
1132.61
1131.486
1130.326
1129.129
1127.896
1126.623
1125.294
1123.871
1122.202
1119.797
1137.459
1136.554
1135.603
1134.606
1133.562
1132.472
1131.345
1130.18
1128.98
1127.744
1126.473
1125.163
1123.793
1122.273
1120.374
1138.28
1137.412
1136.499
1135.539
1134.533
1133.48
1132.39
1131.261
1130.094
1128.892
1127.654
1126.388
1125.093
1123.754
1122.32
1139.094
1138.264
1137.39
1136.47
1135.502
1134.489
1133.438
1132.347
1131.217
1130.05
1128.846
1127.612
1126.353
1125.067
1123.746
1120.101
1122.063
1119.588
1123.958
1122.035
1118.658
1125.818
1124.208
1121.92
1117.251
1127.538
1126.126
1124.371
1121.672
1115.658
1129.074
1127.796
1126.331
1124.437
1121.362
1114.219
1130.436
1129.248
1127.951
1126.443
1124.439
1121.087
1113.181
1131.653
1130.523
1129.326
1128.014
1126.477
1124.415
1120.932
1112.674
1132.745
1131.657
1130.519
1129.312
1127.991
1126.448
1124.396
1120.931
1112.743
1133.729
1132.673
1131.574
1130.425
1129.209
1127.887
1126.37
1124.379
1121.079
1113.37
1134.613
1133.586
1132.518
1131.405
1130.242
1129.02
1127.712
1126.232
1124.346
1121.335
1114.48
1135.406
1134.409
1133.368
1132.284
1131.154
1129.979
1128.758
1127.463
1126.028
1124.273
1121.631
1115.934
1136.129
1135.161
1134.148
1133.092
1131.99
1130.844
1129.664
1128.44
1127.155
1125.766
1124.145
1121.898
1117.499
1136.825
1135.888
1134.907
1133.88
1132.807
1131.69
1130.538
1129.349
1128.12
1126.843
1125.491
1123.992
1122.091
1118.877
1137.563
1136.661
1135.714
1134.72
1133.68
1132.594
1131.472
1130.313
1129.117
1127.885
1126.612
1125.289
1123.873
1122.214
1119.826
1138.336
1137.47
1136.558
1135.601
1134.596
1133.546
1132.459
1131.332
1130.168
1128.968
1127.733
1126.467
1125.165
1123.801
1122.291
1139.118
1138.289
1137.416
1136.496
1135.53
1134.517
1133.467
1132.377
1131.249
1130.082
1128.88
1127.647
1126.388
1125.099
1123.768
1139.894
1139.103
1138.267
1137.387
1136.46
1135.487
1134.476
1133.425
1132.334
1131.205
1130.037
1128.837
1127.609
1126.356
1125.077
1120.408
1122.106
1120.165
1123.795
1122.117
1119.641
1125.492
1123.999
1122.073
1118.704
1127.21
1125.844
1124.229
1121.94
1117.299
1128.819
1127.553
1126.135
1124.375
1121.678
1115.704
1130.271
1129.083
1127.797
1126.325
1124.426
1121.357
1114.273
1131.574
1130.442
1129.245
1127.94
1126.423
1124.418
1121.085
1113.245
1132.745
1131.657
1130.519
1129.312
1127.991
1126.448
1124.396
1120.931
1112.743
1133.802
1132.749
1131.652
1130.505
1129.288
1127.96
1126.423
1124.377
1120.93
1112.811
1134.754
1133.732
1132.669
1131.561
1130.402
1129.179
1127.861
1126.345
1124.359
1121.076
1113.431
1135.608
1134.617
1133.583
1132.506
1131.383
1130.214
1128.995
1127.687
1126.208
1124.326
1121.328
1114.536
1136.373
1135.411
1134.407
1133.358
1132.265
1131.129
1129.956
1128.735
1127.44
1126.006
1124.254
1121.627
1115.98
1137.066
1136.136
1135.161
1134.141
1133.076
1131.968
1130.825
1129.645
1128.421
1127.137
1125.748
1124.134
1121.9
1117.537
1137.732
1136.834
1135.891
1134.903
1133.868
1132.789
1131.675
1130.523
1129.334
1128.106
1126.829
1125.483
1123.991
1122.101
1118.911
1138.437
1137.574
1136.665
1135.711
1134.71
1133.663
1132.58
1131.459
1130.3
1129.104
1127.872
1126.604
1125.288
1123.88
1122.231
1139.173
1138.345
1137.473
1136.555
1135.591
1134.581
1133.533
1132.445
1131.319
1130.156
1128.956
1127.726
1126.465
1125.17
1123.814
1139.917
1139.127
1138.292
1137.412
1136.486
1135.514
1134.504
1133.454
1132.364
1131.236
1130.07
1128.871
1127.644
1126.391
1125.109
1140.655
1139.902
1139.105
1138.264
1137.376
1136.444
1135.473
1134.463
1133.412
1132.321
1131.191
1130.027
1128.832
1127.61
1126.363
1120.54
1122.126
1120.471
1123.693
1122.16
1120.215
1125.255
1123.84
1122.158
1119.679
1126.857
1125.526
1124.028
1122.098
1118.735
1128.488
1127.231
1125.859
1124.238
1121.946
1117.325
1130.022
1128.831
1127.557
1126.132
1124.365
1121.67
1115.743
1131.414
1130.278
1129.082
1127.787
1126.307
1124.404
1121.352
1114.327
1132.669
1131.578
1130.438
1129.232
1127.918
1126.394
1124.398
1121.082
1113.308
1133.802
1132.749
1131.652
1130.505
1129.288
1127.96
1126.423
1124.377
1120.93
1112.811
1134.824
1133.805
1132.744
1131.638
1130.481
1129.257
1127.933
1126.398
1124.358
1120.929
1112.877
1135.743
1134.757
1133.727
1132.655
1131.538
1130.372
1129.152
1127.835
1126.32
1124.34
1121.072
1113.496
1136.567
1135.611
1134.613
1133.571
1132.484
1131.356
1130.189
1128.969
1127.662
1126.184
1124.306
1121.327
1114.595
1137.302
1136.377
1135.409
1134.396
1133.339
1132.24
1131.106
1129.934
1128.713
1127.417
1125.984
1124.239
1121.628
1116.031
1137.966
1137.073
1136.136
1135.154
1134.126
1133.055
1131.949
1130.806
1129.626
1128.402
1127.117
1125.733
1124.128
1121.907
1117.581
1138.6
1137.741
1136.837
1135.887
1134.891
1133.85
1132.774
1131.659
1130.507
1129.319
1128.091
1126.818
1125.478
1123.994
1122.116
1139.271
1138.446
1137.577
1136.662
1135.7
1134.693
1133.649
1132.566
1131.445
1130.286
1129.091
1127.863
1126.601
1125.292
1123.891
1139.971
1139.182
1138.348
1137.47
1136.545
1135.575
1134.567
1133.519
1132.432
1131.306
1130.143
1128.947
1127.721
1126.467
1125.179
1140.678
1139.926
1139.13
1138.289
1137.402
1136.47
1135.5
1134.49
1133.441
1132.351
1131.222
1130.059
1128.866
1127.645
1126.397
1141.378
1140.663
1139.904
1139.102
1138.253
1137.361
1136.43
1135.46
1134.449
1133.398
1132.307
1131.18
1130.021
1128.831
1127.615
1122.135
1120.603
1123.636
1122.181
1120.521
1125.111
1123.74
1122.202
1120.251
1126.604
1125.294
1123.873
1122.185
1119.703
1128.139
1126.886
1125.549
1124.045
1122.108
1118.747
1129.702
1128.506
1127.242
1125.862
1124.233
1121.938
1117.348
1131.174
1130.032
1128.833
1127.551
1126.116
1124.345
1121.662
1115.781
1132.516
1131.42
1130.276
1129.07
1127.766
1126.28
1124.385
1121.346
1114.379
1133.729
1132.673
1131.574
1130.425
1129.209
1127.887
1126.37
1124.379
1121.079
1113.37
1134.824
1133.805
1132.744
1131.638
1130.481
1129.257
1127.933
1126.398
1124.358
1120.929
1112.877
1135.811
1134.826
1133.799
1132.73
1131.615
1130.45
1129.23
1127.907
1126.372
1124.338
1120.926
1112.948
1136.698
1135.746
1134.752
1133.714
1132.633
1131.509
1130.346
1129.126
1127.808
1126.295
1124.319
1121.073
1113.566
1137.49
1136.57
1135.607
1134.601
1133.55
1132.457
1131.332
1130.165
1128.944
1127.637
1126.159
1124.289
1121.329
1114.659
1138.194
1137.306
1136.375
1135.399
1134.378
1133.315
1132.218
1131.084
1129.911
1128.69
1127.394
1125.964
1124.228
1121.634
1116.087
1138.827
1137.972
1137.073
1136.128
1135.138
1134.105
1133.036
1131.93
1130.787
1129.607
1128.382
1127.101
1125.723
1124.125
1121.918
1139.43
1138.609
1137.743
1136.832
1135.875
1134.873
1133.835
1132.758
1131.643
1130.492
1129.302
1128.078
1126.811
1125.478
1124.002
1140.066
1139.28
1138.449
1137.573
1136.651
1135.684
1134.679
1133.635
1132.552
1131.431
1130.272
1129.08
1127.857
1126.601
1125.299
1140.73
1139.979
1139.184
1138.345
1137.459
1136.529
1135.561
1134.553
1133.505
1132.418
1131.292
1130.132
1128.941
1127.721
1126.473
1141.4
1140.686
1139.928
1139.126
1138.278
1137.386
1136.457
1135.487
1134.477
1133.427
1132.337
1131.211
1130.053
1128.864
1127.649
1142.063
1141.385
1140.665
1139.9
1139.091
1138.238
1137.347
1136.417
1135.446
1134.435
1133.384
1132.295
1131.173
1130.018
1128.833
1123.61
1122.19
1120.652
1125.03
1123.683
1122.223
1120.557
1126.449
1125.151
1123.774
1122.231
1120.273
1127.889
1126.637
1125.321
1123.894
1122.199
1119.709
1129.366
1128.164
1126.904
1125.56
1124.049
1122.104
1118.758
1130.869
1129.717
1128.514
1127.242
1125.853
1124.217
1121.931
1117.371
1132.287
1131.183
1130.032
1128.825
1127.533
1126.092
1124.327
1121.655
1115.819
1133.582
1132.521
1131.417
1130.264
1129.049
1127.737
1126.256
1124.365
1121.341
1114.43
1134.754
1133.732
1132.669
1131.561
1130.402
1129.179
1127.861
1126.345
1124.359
1121.076
1113.431
1135.811
1134.826
1133.799
1132.73
1131.615
1130.45
1129.23
1127.907
1126.372
1124.338
1120.926
1112.948
1136.763
1135.813
1134.821
1133.786
1132.707
1131.585
1130.424
1129.204
1127.88
1126.347
1124.318
1120.929
1113.022
1137.617
1136.7
1135.741
1134.739
1133.693
1132.605
1131.484
1130.32
1129.1
1127.782
1126.269
1124.302
1121.078
1113.639
1138.376
1137.493
1136.566
1135.595
1134.58
1133.524
1132.434
1131.308
1130.14
1128.919
1127.61
1126.137
1124.277
1121.337
1114.727
1139.048
1138.198
1137.303
1136.365
1135.381
1134.354
1133.293
1132.196
1131.062
1129.889
1128.666
1127.373
1125.949
1124.222
1121.644
1139.65
1138.833
1137.971
1137.065
1136.113
1135.117
1134.086
1133.017
1131.911
1130.768
1129.586
1128.364
1127.088
1125.716
1124.128
1140.221
1139.438
1138.61
1137.738
1136.819
1135.857
1134.857
1133.819
1132.742
1131.627
1130.475
1129.289
1128.069
1126.808
1125.481
1140.824
1140.075
1139.282
1138.445
1137.562
1136.634
1135.669
1134.664
1133.62
1132.537
1131.415
1130.259
1129.072
1127.855
1126.605
1141.451
1140.738
1139.981
1139.18
1138.334
1137.443
1136.515
1135.547
1134.539
1133.491
1132.404
1131.28
1130.124
1128.938
1127.724
1142.085
1141.408
1140.688
1139.924
1139.115
1138.263
1137.373
1136.443
1135.473
1134.463
1133.412
1132.325
1131.203
1130.049
1128.866
1142.712
1142.07
1141.387
1140.66
1139.89
1139.075
1138.224
1137.334
1136.403
1135.432
1134.421
1133.371
1132.287
1131.168
1130.018
1124.995
1123.657
1122.232
1120.688
1126.363
1125.07
1123.718
1122.253
1120.578
1127.736
1126.483
1125.179
1123.797
1122.246
1120.278
1129.126
1127.917
1126.659
1125.337
1123.902
1122.198
1119.715
1130.55
1129.388
1128.178
1126.912
1125.559
1124.04
1122.101
1118.769
1131.996
1130.882
1129.722
1128.511
1127.23
1125.833
1124.203
1121.924
1117.393
1133.363
1132.294
1131.183
1130.024
1128.807
1127.508
1126.071
1124.309
1121.647
1115.856
1134.613
1133.586
1132.518
1131.405
1130.242
1129.02
1127.712
1126.232
1124.346
1121.335
1114.48
1135.743
1134.757
1133.727
1132.655
1131.538
1130.372
1129.152
1127.835
1126.32
1124.34
1121.072
1113.496
1136.763
1135.813
1134.821
1133.786
1132.707
1131.585
1130.424
1129.204
1127.88
1126.347
1124.318
1120.929
1113.022
1137.68
1136.765
1135.808
1134.808
1133.764
1132.678
1131.56
1130.398
1129.177
1127.853
1126.32
1124.301
1120.936
1113.101
1138.499
1137.619
1136.696
1135.729
1134.718
1133.665
1132.581
1131.459
1130.295
1129.073
1127.754
1126.246
1124.29
1121.088
1113.717
1139.225
1138.379
1137.488
1136.554
1135.576
1134.555
1133.501
1132.411
1131.284
1130.115
1128.893
1127.587
1126.12
1124.27
1121.349
1139.866
1139.052
1138.195
1137.293
1136.347
1135.357
1134.333
1133.272
1132.175
1131.04
1129.865
1128.644
1127.356
1125.939
1124.221
1140.436
1139.656
1138.832
1137.963
1137.049
1136.092
1135.099
1134.067
1132.998
1131.892
1130.747
1129.568
1128.35
1127.08
1125.714
1140.975
1140.229
1139.439
1138.605
1137.725
1136.802
1135.841
1134.841
1133.803
1132.726
1131.61
1130.46
1129.279
1128.064
1126.809
1141.543
1140.831
1140.076
1139.277
1138.433
1137.545
1136.62
1135.655
1134.65
1133.606
1132.522
1131.402
1130.251
1129.069
1127.857
1142.135
1141.459
1140.74
1139.977
1139.169
1138.318
1137.429
1136.501
1135.533
1134.525
1133.476
1132.391
1131.272
1130.12
1128.94
1142.733
1142.092
1141.409
1140.683
1139.913
1139.1
1138.249
1137.359
1136.429
1135.459
1134.448
1133.399
1132.316
1131.198
1130.049
1143.323
1142.718
1142.072
1141.382
1140.65
1139.874
1139.062
1138.211
1137.32
1136.389
1135.417
1134.408
1133.362
1132.281
1131.167
1126.326
1125.035
1123.692
1122.261
1120.709
1127.651
1126.398
1125.1
1123.741
1122.269
1120.583
1128.98
1127.765
1126.507
1125.196
1123.807
1122.247
1120.283
1130.322
1129.151
1127.935
1126.67
1125.34
1123.897
1122.197
1119.722
1131.694
1130.569
1129.4
1128.183
1126.908
1125.548
1124.032
1122.097
1118.781
1133.086
1132.008
1130.886
1129.718
1128.498
1127.209
1125.817
1124.189
1121.917
1117.416
1134.403
1133.37
1132.293
1131.173
1130.005
1128.781
1127.485
1126.049
1124.291
1121.639
1115.892
1135.608
1134.617
1133.583
1132.506
1131.383
1130.214
1128.995
1127.687
1126.208
1124.326
1121.328
1114.536
1136.698
1135.746
1134.752
1133.714
1132.633
1131.509
1130.346
1129.126
1127.808
1126.295
1124.319
1121.073
1113.566
1137.68
1136.765
1135.808
1134.808
1133.764
1132.678
1131.56
1130.398
1129.177
1127.853
1126.32
1124.301
1120.936
1113.101
1138.561
1137.682
1136.76
1135.795
1134.786
1133.736
1132.654
1131.534
1130.372
1129.15
1127.824
1126.297
1124.289
1120.947
1113.184
1139.345
1138.501
1137.614
1136.683
1135.708
1134.691
1133.642
1132.556
1131.434
1130.269
1129.045
1127.729
1126.227
1124.282
1121.102
1140.038
1139.228
1138.374
1137.477
1136.535
1135.551
1134.533
1133.478
1132.387
1131.26
1130.089
1128.868
1127.567
1126.107
1124.266
1140.646
1139.869
1139.049
1138.185
1137.276
1136.324
1135.337
1134.313
1133.251
1132.153
1131.016
1129.843
1128.626
1127.343
1125.932
1141.184
1140.441
1139.654
1138.824
1137.948
1137.029
1136.074
1135.081
1134.049
1132.979
1131.871
1130.729
1129.554
1128.341
1127.075
1141.691
1140.982
1140.229
1139.433
1138.592
1137.707
1136.786
1135.825
1134.825
1133.786
1132.708
1131.594
1130.449
1129.272
1128.063
1142.225
1141.55
1140.833
1140.072
1139.266
1138.417
1137.531
1136.605
1135.64
1134.635
1133.589
1132.508
1131.392
1130.245
1129.068
1142.782
1142.142
1141.46
1140.735
1139.966
1139.154
1138.304
1137.415
1136.487
1135.519
1134.509
1133.463
1132.381
1131.266
1130.12
1143.345
1142.74
1142.094
1141.405
1140.673
1139.898
1139.086
1138.235
1137.345
1136.415
1135.444
1134.435
1133.39
1132.31
1131.197
1143.899
1143.33
1142.719
1142.067
1141.372
1140.635
1139.861
1139.049
1138.197
1137.306
1136.374
1135.404
1134.397
1133.355
1132.279
1127.614
1126.36
1125.064
1123.716
1122.278
1120.714
1128.899
1127.681
1126.422
1125.118
1123.752
1122.27
1120.587
1130.183
1129.005
1127.785
1126.52
1125.202
1123.804
1122.247
1120.288
1131.478
1130.344
1129.166
1127.943
1126.67
1125.333
1123.893
1122.196
1119.728
1132.799
1131.711
1130.579
1129.402
1128.177
1126.894
1125.537
1124.024
1122.094
1118.793
1134.138
1133.096
1132.011
1130.881
1129.704
1128.477
1127.191
1125.8
1124.175
1121.909
1117.438
1135.406
1134.409
1133.368
1132.284
1131.154
1129.979
1128.758
1127.463
1126.028
1124.273
1121.631
1115.934
1136.567
1135.611
1134.613
1133.571
1132.484
1131.356
1130.189
1128.969
1127.662
1126.184
1124.306
1121.327
1114.595
1137.617
1136.7
1135.741
1134.739
1133.693
1132.605
1131.484
1130.32
1129.1
1127.782
1126.269
1124.302
1121.078
1113.639
1138.561
1137.682
1136.76
1135.795
1134.786
1133.736
1132.654
1131.534
1130.372
1129.15
1127.824
1126.297
1124.289
1120.947
1113.184
1139.405
1138.563
1137.677
1136.748
1135.774
1134.76
1133.712
1132.629
1131.509
1130.345
1129.121
1127.799
1126.278
1124.281
1120.963
1140.155
1139.347
1138.496
1137.602
1136.663
1135.683
1134.669
1133.618
1132.532
1131.409
1130.241
1129.02
1127.708
1126.213
1124.279
1140.815
1140.041
1139.224
1138.363
1137.458
1136.511
1135.529
1134.511
1133.456
1132.364
1131.234
1130.065
1128.848
1127.552
1126.098
1141.39
1140.649
1139.866
1139.039
1138.168
1137.253
1136.304
1135.317
1134.292
1133.23
1132.129
1130.995
1129.825
1128.613
1127.335
1141.896
1141.189
1140.439
1139.646
1138.809
1137.928
1137.011
1136.056
1135.062
1134.03
1132.959
1131.852
1130.714
1129.543
1128.335
1142.37
1141.697
1140.982
1140.224
1139.421
1138.575
1137.692
1136.77
1135.809
1134.809
1133.768
1132.692
1131.583
1130.441
1129.269
1142.871
1142.232
1141.551
1140.828
1140.06
1139.25
1138.403
1137.516
1136.59
1135.625
1134.619
1133.575
1132.497
1131.386
1130.243
1143.393
1142.789
1142.144
1141.456
1140.724
1139.95
1139.14
1138.29
1137.401
1136.473
1135.503
1134.496
1133.453
1132.375
1131.264
1143.92
1143.351
1142.741
1142.089
1141.394
1140.657
1139.884
1139.072
1138.221
1137.331
1136.4
1135.43
1134.424
1133.383
1132.307
1144.439
1143.905
1143.331
1142.715
1142.057
1141.357
1140.621
1139.848
1139.035
1138.183
1137.291
1136.36
1135.393
1134.39
1133.352
1128.863
1127.644
1126.384
1125.082
1123.727
1122.279
1120.719
1130.106
1128.924
1127.701
1126.435
1125.124
1123.75
1122.271
1120.592
1131.346
1130.205
1129.021
1127.794
1126.522
1125.196
1123.801
1122.247
1120.292
1132.594
1131.497
1130.356
1129.171
1127.941
1126.66
1125.326
1123.888
1122.194
1119.735
1133.865
1132.814
1131.719
1130.579
1129.394
1128.162
1126.882
1125.526
1124.015
1122.09
1118.805
1135.153
1134.147
1133.098
1132.005
1130.866
1129.683
1128.458
1127.173
1125.783
1124.16
1121.901
1117.466
1136.373
1135.411
1134.407
1133.358
1132.265
1131.129
1129.956
1128.735
1127.44
1126.006
1124.254
1121.627
1115.98
1137.49
1136.57
1135.607
1134.601
1133.55
1132.457
1131.332
1130.165
1128.944
1127.637
1126.159
1124.289
1121.329
1114.659
1138.499
1137.619
1136.696
1135.729
1134.718
1133.665
1132.581
1131.459
1130.295
1129.073
1127.754
1126.246
1124.29
1121.088
1113.717
1139.405
1138.563
1137.677
1136.748
1135.774
1134.76
1133.712
1132.629
1131.509
1130.345
1129.121
1127.799
1126.278
1124.281
1120.963
1140.214
1139.407
1138.557
1137.664
1136.727
1135.749
1134.737
1133.689
1132.605
1131.483
1130.317
1129.095
1127.777
1126.263
1124.278
1140.929
1140.157
1139.343
1138.485
1137.582
1136.638
1135.661
1134.646
1133.595
1132.508
1131.382
1130.216
1128.998
1127.691
1126.203
1141.555
1140.817
1140.036
1139.213
1138.345
1137.435
1136.49
1135.508
1134.489
1133.433
1132.339
1131.21
1130.045
1128.832
1127.541
1142.097
1141.393
1140.646
1139.856
1139.022
1138.146
1137.234
1136.284
1135.297
1134.271
1133.207
1132.108
1130.977
1129.811
1128.603
1142.571
1141.9
1141.187
1140.432
1139.632
1138.789
1137.911
1136.994
1136.038
1135.044
1134.01
1132.94
1131.837
1130.703
1129.536
1143.013
1142.376
1141.698
1140.977
1140.211
1139.404
1138.559
1137.676
1136.754
1135.793
1134.791
1133.752
1132.68
1131.574
1130.437
1143.48
1142.877
1142.233
1141.547
1140.817
1140.044
1139.236
1138.388
1137.502
1136.575
1135.608
1134.604
1133.564
1132.49
1131.383
1143.967
1143.399
1142.79
1142.139
1141.445
1140.709
1139.937
1139.126
1138.276
1137.387
1136.457
1135.489
1134.485
1133.446
1132.372
1144.459
1143.926
1143.352
1142.737
1142.079
1141.379
1140.644
1139.871
1139.059
1138.208
1137.316
1136.386
1135.42
1134.417
1133.38
1144.943
1144.445
1143.906
1143.326
1142.705
1142.042
1141.344
1140.608
1139.834
1139.021
1138.168
1137.277
1136.35
1135.386
1134.386
1130.071
1128.888
1127.664
1126.398
1125.089
1123.726
1122.281
1120.723
1131.272
1130.128
1128.941
1127.711
1126.438
1125.119
1123.748
1122.272
1120.596
1132.467
1131.365
1130.218
1129.028
1127.793
1126.513
1125.191
1123.799
1122.247
1120.297
1133.669
1132.61
1131.507
1130.359
1129.167
1127.929
1126.651
1125.318
1123.883
1122.193
1119.742
1134.891
1133.878
1132.82
1131.718
1130.57
1129.378
1128.148
1126.869
1125.515
1124.006
1122.086
1118.824
1136.129
1135.161
1134.148
1133.092
1131.99
1130.844
1129.664
1128.44
1127.155
1125.766
1124.145
1121.898
1117.499
1137.302
1136.377
1135.409
1134.396
1133.339
1132.24
1131.106
1129.934
1128.713
1127.417
1125.984
1124.239
1121.628
1116.031
1138.376
1137.493
1136.566
1135.595
1134.58
1133.524
1132.434
1131.308
1130.14
1128.919
1127.61
1126.137
1124.277
1121.337
1114.727
1139.345
1138.501
1137.614
1136.683
1135.708
1134.691
1133.642
1132.556
1131.434
1130.269
1129.045
1127.729
1126.227
1124.282
1121.102
1140.214
1139.407
1138.557
1137.664
1136.727
1135.749
1134.737
1133.689
1132.605
1131.483
1130.317
1129.095
1127.777
1126.263
1124.278
1140.986
1140.215
1139.402
1138.545
1137.645
1136.702
1135.726
1134.714
1133.665
1132.58
1131.456
1130.292
1129.073
1127.76
1126.253
1141.667
1140.931
1140.152
1139.331
1138.466
1137.559
1136.617
1135.639
1134.623
1133.572
1132.482
1131.357
1130.195
1128.981
1127.679
1142.259
1141.557
1140.813
1140.026
1139.195
1138.322
1137.415
1136.469
1135.487
1134.467
1133.409
1132.316
1131.19
1130.029
1128.82
1142.768
1142.1
1141.389
1140.636
1139.84
1139.001
1138.127
1137.215
1136.265
1135.276
1134.249
1133.186
1132.09
1130.962
1129.801
1143.21
1142.575
1141.899
1141.18
1140.417
1139.612
1138.772
1137.893
1136.976
1136.02
1135.024
1133.991
1132.925
1131.826
1130.695
1143.62
1143.019
1142.377
1141.692
1140.964
1140.194
1139.389
1138.544
1137.661
1136.738
1135.775
1134.775
1133.74
1132.67
1131.568
1144.053
1143.486
1142.878
1142.228
1141.535
1140.801
1140.031
1139.222
1138.374
1137.487
1136.559
1135.594
1134.592
1133.556
1132.486
1144.506
1143.974
1143.4
1142.786
1142.128
1141.43
1140.696
1139.923
1139.112
1138.262
1137.371
1136.443
1135.478
1134.477
1133.442
1144.964
1144.465
1143.927
1143.348
1142.726
1142.064
1141.366
1140.631
1139.857
1139.045
1138.192
1137.302
1136.375
1135.412
1134.413
1145.413
1144.949
1144.446
1143.901
1143.316
1142.69
1142.029
1141.331
1140.595
1139.821
1139.006
1138.154
1137.266
1136.342
1135.381
1131.24
1130.094
1128.905
1127.674
1126.401
1125.084
1123.724
1122.282
1120.727
1132.397
1131.292
1130.142
1128.948
1127.71
1126.43
1125.114
1123.746
1122.273
1120.6
1133.548
1132.485
1131.376
1130.223
1129.024
1127.783
1126.506
1125.185
1123.795
1122.247
1120.302
1134.703
1133.684
1132.619
1131.509
1130.353
1129.153
1127.918
1126.642
1125.311
1123.878
1122.191
1119.755
1135.878
1134.903
1133.883
1132.818
1131.707
1130.553
1129.363
1128.134
1126.856
1125.504
1123.997
1122.086
1118.847
1137.066
1136.136
1135.161
1134.141
1133.076
1131.968
1130.825