/*--------------------------------*- C++ -*----------------------------------*\
| =========                 |                                                 |
| \\      /  F ield         | OpenFOAM: The Open Source CFD Toolbox           |
|  \\    /   O peration     | Version:  2306                                  |
|   \\  /    A nd           | Website:  www.openfoam.com                      |
|    \\/     M anipulation  |                                                 |
\*---------------------------------------------------------------------------*/
FoamFile
{
    version     2.0;
    format      ascii;
    arch        "LSB;label=32;scalar=64";
    class       volVectorField;
    location    "1.2/phiEC";
    object      i;
}
// * * * * * * * * * * * * * * * * * * * * * * * * * * * * * * * * * * * * * //

dimensions      [0 -2 0 0 0 1 0];

internalField   nonuniform List<vector> 
20000
(
(40.82322 87.30418 18909.48)
(40.38431 255.3092 18721.58)
(98.01755 82.91509 18079.35)
(125.2034 288.5013 19694.3)
(39.53921 403.0696 18358.12)
(97.00598 242.4691 17900.94)
(123.7436 847.42 19456.64)
(114.3903 77.18847 16920.74)
(299.7318 273.9034 18806.13)
(218.4578 562.6177 21465.27)
(38.35587 516.1715 17845.72)
(95.05864 382.7852 17555.86)
(120.9129 1348.655 18985.96)
(113.2729 225.7202 16754.68)
(296.3752 804.5156 18580.66)
(215.5806 1671.984 21158.84)
(108.4601 71.7408 15764.74)
(348.5328 254.9352 17584.88)
(519.9016 533.8454 20448.09)
(328.6401 901.3632 24502.65)
(36.93971 580.6323 17227.98)
(92.33269 490.1765 17069.4)
(116.9083 1744.118 18298.15)
(111.1223 356.3367 16433.48)
(289.8686 1280.301 18134.17)
(209.8976 2720.057 20516.41)
(107.4402 209.789 15610.4)
(344.8353 748.7883 17375.12)
(513.3111 1586.381 20157.67)
(323.978 2745.142 24245.08)
(95.7805 66.98968 14729.79)
(329.7298 236.9284 16377.23)
(600.1694 496.7133 19087.53)
(775.2801 854.7419 23265.46)
(465.8965 1077.766 28619.82)
(35.43013 586.2001 16566.08)
(89.07129 551.3748 16482.96)
(112.0628 1978.639 17434.36)
(108.1128 456.298 15980.72)
(280.6677 1655.616 17481.8)
(201.6263 3619.376 19487.14)
(105.4776 331.1847 15311.89)
(337.6707 1191.58 16959.75)
(500.3021 2580.514 19548.92)
(314.411 4692.06 23632.93)
(94.89766 195.8954 14585.67)
(326.36 695.8951 16182.31)
(592.9432 1475.989 18817.49)
(764.6452 2602.851 23021.55)
(460.2862 3411.429 28798.55)
(83.11764 62.91238 13831.47)
(290.8722 221.2368 15300.78)
(565.2811 461.5831 17764.17)
(885.3172 795.0136 21668.85)
(1086.663 1021.663 27072.84)
(595.0005 677.3608 31605.39)
(33.98537 530.6238 15932.7)
(85.59527 556.6567 15854.64)
(106.8589 2004.358 16480.53)
(104.5134 513.2581 15434.92)
(269.54 1878.145 16662.63)
(191.2853 4215.873 18031.79)
(102.7317 424.0872 14891.11)
(327.5449 1540.832 16352.89)
(481.3854 3433.253 18573.86)
(299.5627 6713.362 22416.96)
(93.19885 309.2513 14306.94)
(319.8316 1107.398 15796.33)
(578.6898 2400.799 18251.52)
(742.8474 4447.908 22442.09)
(448.065 6376.297 29212.37)
(82.35766 183.9724 13696.13)
(287.9568 649.8063 15118.76)
(558.7109 1371.585 17513.27)
(873.7141 2420.814 21442.16)
(1073.894 3233.114 27241.86)
(591.5588 2022.881 32129.72)
(72.38664 59.38988 13052.62)
(252.3156 207.774 14368.07)
(497.6136 431.0111 16594.06)
(828.4245 738.7108 20148.53)
(1223.555 950.0834 25153.85)
(1373.021 642.9442 29808.39)
(688.6313 419.9695 32831.09)
(32.75642 420.7028 15395.61)
(82.26846 503.8867 15253.37)
(101.8804 1810.32 15574.65)
(100.6777 518.1718 14850.15)
(257.5922 1902.535 15758.16)
(179.905 4305.618 16232.05)
(99.44794 477.0239 14383.87)
(315.3051 1747.884 15590.93)
(457.7571 3998.661 17195.56)
(279.309 8488.81 20040.21)
(90.82213 396.001 13914.02)
(310.6075 1431.96 15232.43)
(557.9856 3193.926 17345.1)
(709.0752 6362.343 21291.56)
(426.7054 10804.81 30034.89)
(80.89528 290.4293 13434.35)
(282.3091 1034.055 14758.35)
(545.7562 2230.939 16987.45)
(849.9651 4136.361 20903.72)
(1046.143 6040.489 27633.46)
(584.6623 3258.614 33345.97)
(71.72614 173.6718 12924.86)
(249.8062 610.2646 14197.13)
(491.9345 1280.74 16359.78)
(817.9014 2249.329 19937.95)
(1209.664 3006.234 25310.84)
(1365.115 1919.499 30303.91)
(686.6245 1208.002 33293.76)
(63.70395 56.30734 12370.94)
(219.72 196.1435 13559.8)
(431.3124 404.7919 15583.44)
(727.0168 689.7831 18818.05)
(1135.441 882.7558 23367.65)
(1525.655 598.307 27645.69)
(1578.085 399.9009 30889.62)
(789.1471 214.6852 33613.52)
(31.86642 269.4027 15008.11)
(79.43816 399.5132 14743.5)
(97.66667 1428.472 14823.37)
(97.00667 469.0527 14290.55)
(246.1612 1718.398 14899.1)
(169.096 3844.935 14625.24)
(95.94904 481.5897 13840.41)
(302.1673 1770.57 14749.66)
(431.7689 4083.725 15491.43)
(254.9841 8817.461 15241.52)
(87.98008 445.4315 13440.38)
(299.4605 1624.369 14524.43)
(532.1531 3719.709 16064)
(663.0973 8043.023 19043.59)
(390.6108 18566.76 31776.31)
(78.84938 371.8995 13065.35)
(274.3302 1337.12 14231.8)
(526.9482 2967.886 16145.36)
(813.2451 5915.862 19834.88)
(997.8013 10230.27 28412.3)
(574.737 3890.316 35680.92)
(70.45518 274.1686 12677.73)
(244.9454 971.1324 13858.64)
(480.7383 2083.173 15868.79)
(796.3775 3843.218 19437.78)
(1179.553 5615.366 25674.67)
(1349.327 3090.396 31453.92)
(682.8025 1785.873 34250.1)
(63.12245 164.6577 12249.8)
(217.5391 576.1046 13398.43)
(426.4255 1202.833 15363.41)
(717.9296 2100.344 18621.41)
(1122.862 2793.093 23513.44)
(1516.965 1785.941 28105.77)
(1573.363 1149.714 31325.65)
(788.3704 603.869 33983.82)
(56.70625 53.57485 11767.25)
(193.3705 185.9652 12852.36)
(375.527 382.1422 14708.45)
(629.4361 647.8388 17673.52)
(992.6158 824.2963 21821.17)
(1405.08 556.0466 25666.16)
(1738.477 372.7457 28609.66)
(1795.163 206.9177 31538.21)
(896.1624 49.66504 34046.4)
(31.40008 92.64911 14805.63)
(77.38809 255.8394 14375.61)
(94.63301 910.5652 14293.32)
(93.88296 371.8991 13816.01)
(236.483 1355.998 14186.57)
(160.1173 2983.372 13391.72)
(92.60023 435.939 13320.35)
(289.5964 1599.228 13950.61)
(407.0761 3647.057 13969.64)
(232.9989 7490.985 12208.85)
(84.95193 449.6947 12932.91)
(287.4975 1645.448 13742.75)
(503.7594 3798.807 14480.22)
(607.9587 8354.36 14506.12)
(326.984 19968.34 7216.259)
(76.40297 418.3219 12620.52)
(264.689 1516.784 13570.7)
(503.4941 3456.399 14955.24)
(763.3682 7477.645 17746.89)
(916.4213 17569.54 30061.57)
(564.3461 1977.222 40018.47)
(68.67707 351.0778 12329.38)
(238.0782 1255.759 13364.11)
(464.4866 2771.304 15082.48)
(763.1305 5496.374 18444.97)
(1127.304 9507.591 26398.55)
(1326.708 3687.155 33662.76)
(677.8653 1827.482 35702.11)
(62.00349 259.9387 12015.51)
(213.3146 916.7744 13078.87)
(416.7915 1956.459 14902.26)
(699.3472 3588.651 18154.36)
(1095.628 5216.887 23851.37)
(1499.675 2874.545 29173.79)
(1564.422 1698.282 32227.74)
(786.8976 850.2691 34678.78)
(56.18804 156.6673 11651.99)
(191.4504 546.21 12699.36)
(371.2798 1135.532 14500.72)
(621.6184 1972.633 17488.82)
(981.7594 2608.112 21957.28)
(1397.176 1659.702 26093.39)
(1733.15 1071.37 29013.93)
(1793.098 581.3736 31884.74)
(896.5324 142.7443 34370.23)
(50.99763 51.1253 11226.71)
(172.14 176.9424 12225.76)
(330.5127 362.3196 13942.58)
(547.8921 611.6066 16683.67)
(858.1889 774.1915 20496.21)
(1224.132 519.2612 23965.42)
(1593.348 346.6241 26549.35)
(1959.682 194.0414 29167.17)
(2022.72 53.36482 31843.22)
(1009.465 -109.1413 34177.49)
(31.40008 -92.64911 14805.63)
(76.31377 87.9858 14183.38)
(93.05039 312.3122 14020.6)
(91.61988 238.1589 13473.6)
(229.5129 864.4024 13683.8)
(153.7709 1874.96 12573.57)
(89.7505 345.6453 12879.33)
(278.9494 1261.989 13287.82)
(386.5495 2830.121 12801.1)
(215.7905 5531.801 10322.21)
(82.05369 407.0673 12447.3)
(276.05 1486.219 13000.29)
(476.7695 3392.742 13065.76)
(558.0575 7099.05 11637.17)
(283.4318 13683.55 5231.247)
(73.79639 422.3258 12143.94)
(254.3426 1536.466 12840.79)
(477.7229 3529.888 13483.97)
(703.6577 7767.063 13532.91)
(773.4898 18896.55 6856.259)
(66.55088 394.9015 11909.46)
(229.7806 1424.493 12743.21)
(444.2241 3227.455 13971.2)
(718.0203 6947.149 16505.64)
(1039.742 16323.64 27931.54)
(1303.144 1873.313 37766.91)
(673.6778 829.6419 37335.4)
(60.43805 332.8566 11685.23)
(207.3463 1185.472 12612.01)
(402.8081 2602.744 14163.74)
(670.6542 5132.29 17227.32)
(1048.46 8832.163 24523.79)
(1475.036 3428.485 31225.66)
(1552.963 1736.235 33598.97)
(785.0504 805.0097 35563.04)
(55.19089 247.3246 11429.06)
(187.7309 869.2036 12396.38)
(362.9069 1846.999 14065.35)
(605.6332 3370.464 17050.14)
(958.2655 4871.348 22272.78)
(1381.475 2671.101 27085.26)
(1723.126 1581.871 29850.72)
(1789.265 817.07 32535.99)
(897.0813 206.6567 34939.57)
(50.53106 149.5042 11116.72)
(170.4288 519.7088 12080.17)
(326.773 1076.631 13745.62)
(541.0977 1862.315 16509.28)
(848.8503 2449.59 20624.03)
(1217.298 1549.885 24364.28)
(1588.449 996.1994 26924.55)
(1957.075 544.8894 29487.34)
(2023.011 151.9332 32142.12)
(1011.181 -289.3052 34533.39)
(46.25941 48.90907 10738.16)
(154.8204 168.8535 11664.59)
(294.262 344.7457 13263.99)
(482.2629 579.8944 15817.17)
(746.7984 730.9098 19351.48)
(1057.078 487.7054 22512.33)
(1385.172 323.7508 24789)
(1787.146 180.8418 27054.32)
(2186.866 52.57493 29401.93)
(2259.61 -91.98187 31851.71)
(1128.74 -306.2379 33975.93)
(31.86642 -269.4027 15008.11)
(76.31377 -87.9858 14183.38)
(93.05039 -312.3122 14020.6)
(90.43373 81.9059 13294.68)
(225.8758 296.486 13425.09)
(150.5012 638.0937 12168.49)
(87.68569 221.3471 12561.12)
(271.2786 804.4931 12820.11)
(372.0304 1778.8 12025.87)
(204.173 3357.016 9223.456)
(79.58729 322.7536 12035.49)
(266.353 1172.819 12384.41)
(454.314 2632.915 11979.47)
(518.9332 5243.542 9851.607)
(254.2381 8954.165 4119.979)
(71.30163 382.2925 11687.87)
(244.4419 1387.783 12147.51)
(453.2208 3152.603 12169.96)
(649.5342 6600.73 10867.86)
(675.2747 12956.09 4979.082)
(64.28549 398.6813 11459.55)
(220.8761 1442.977 12057.69)
(421.9626 3296.074 12597.4)
(664.0611 7216.02 12591.82)
(886.6201 17556.87 6388.604)
(58.56615 374.4061 11287.1)
(200.1347 1344.763 12025.84)
(385.3747 3031.16 13119.99)
(631.7386 6486.95 15416.46)
(969.5802 15162.71 25947.92)
(1449.509 1741.574 35038.57)
(1543.318 787.7664 35142.88)
(783.599 343.9245 36307.56)
(53.79585 316.7043 11114.81)
(182.4762 1123.96 11953.73)
(350.7538 2457.136 13368.11)
(580.9529 4820.287 16179.4)
(917.6015 8247.108 22900.62)
(1359.152 3185.486 28991.03)
(1710.387 1616.443 31123.4)
(1784.579 772.0241 33366.24)
(897.5456 198.6931 35585.68)
(49.63325 236.0167 10903.98)
(167.1141 827.0324 11791.89)
(319.4007 1751.199 13332.81)
(527.2047 3181.995 16095.1)
(828.6435 4575.308 20920.33)
(1203.732 2494.313 25290.35)
(1579.255 1470.657 27701.33)
(1952.317 765.0736 30089.46)
(2023.353 216.7887 32668.26)
(1014.029 -365.1812 35146.33)
(45.83576 143.0234 10632.94)
(153.2796 495.9507 11525.65)
(290.929 1024.412 13076.57)
(476.28 1765.758 15651.81)
(738.6818 2312.658 19472.14)
(1051.196 1455.699 22886.93)
(1380.918 930.4391 25139.24)
(1784.644 507.7207 27351.1)
(2186.514 149.0797 29676.2)
(2262.501 -243.6739 32174.62)
(1132.41 -826.0991 34463.1)
(42.25777 46.88885 10293.19)
(140.4433 161.5348 11157.3)
(264.6885 328.9898 12656.04)
(429.4488 551.7773 15049.07)
(657.4322 693.025 18349.22)
(919.6673 460.4395 21257.7)
(1195.257 304.0886 23287.85)
(1550.282 169.0216 25259.76)
(1984.09 49.8504 27259.34)
(2418.07 -80.22712 29359.43)
(2504.525 -269.5462 31538.95)
(1253.163 -596.316 33311.56)
(32.75642 -420.7028 15395.61)
(77.38809 -255.8394 14375.61)
(94.63301 -910.5652 14293.32)
(90.43373 -81.9059 13294.68)
(225.8758 -296.486 13425.09)
(150.5012 -638.0937 12168.49)
(86.60336 76.12428 12394.83)
(267.2746 275.941 12579.43)
(364.5464 605.3974 11641.99)
(198.3518 1122.468 8717.141)
(77.80016 206.6876 11738.35)
(259.3652 747.6539 11949.81)
(438.4169 1654.929 11258.73)
(492.4821 3182.629 8811.355)
(236.1911 5085.1 3520.065)
(69.17857 303.11 11301.13)
(236.0546 1095.141 11572.44)
(432.8267 2446.595 11160.77)
(607.0151 4876.048 9208.828)
(609.226 8481.758 3927.741)
(62.11728 360.8891 11029.01)
(212.3553 1303.34 11406.57)
(400.7958 2943.78 11370.43)
(615.1144 6132.624 10116.44)
(780.917 12040.91 4645.161)
(56.57169 377.9898 10860.53)
(192.3959 1362.213 11378.66)
(366.222 3095.605 11829.67)
(585.2031 6738.003 11761.93)
(831.9197 16308.3 5941.448)
(52.12768 356.2379 10735.99)
(176.1268 1274.989 11397.96)
(335.6024 2861.595 12382.69)
(547.483 6092.638 14478.5)
(849.6515 14158.24 24230.38)
(1336.085 1618.04 32532.66)
(1699.757 733.1959 32557.04)
(1780.98 329.41 34066.67)
(897.767 85.11576 36046.66)
(48.37717 302.2245 10604.1)
(162.4311 1069.431 11370.7)
(308.6997 2329.699 12671.7)
(505.7548 4550.789 15272.98)
(793.6755 7746.023 21509.98)
(1184.462 2974.589 27069.76)
(1567.614 1502.544 28883.01)
(1946.632 722.1597 30857.84)
(2023.483 205.5496 33266.43)
(1016.975 -302.0782 35816.62)
(45.02056 225.7858 10429.42)
(150.295 789.226 11250.54)
(284.3583 1666.266 12683.77)
(464.0461 3017.035 15259.08)
(721.1193 4319.6 19751.87)
(1039.522 2342.742 23756.69)
(1372.945 1373.522 25864.38)
(1780.108 712.6434 27909.36)
(2185.788 211.379 30159.29)
(2267.293 -307.2428 32730.9)
(1138.624 -1076.577 35319.89)
(41.87047 137.1157 10192.32)
(139.0443 474.4546 11024.39)
(261.6872 977.5943 12477.18)
(424.1161 1680.147 14891.73)
(650.2845 2192.799 18463.63)
(914.554 1374.322 21611.36)
(1191.591 873.9288 23616.77)
(1548.077 474.5066 25536.68)
(1983.515 141.1588 27512.93)
(2419.993 -212.4737 29653.2)
(2511.03 -727.2597 31975.37)
(1259.954 -1633.264 34048.08)
(38.82515 45.03605 9885.372)
(128.2998 154.8632 10695.21)
(240.134 314.7333 12106.29)
(386.3608 526.5668 14360.59)
(585.5777 659.4326 17460.34)
(809.727 436.5725 20159.02)
(1039.752 287.0885 21992.21)
(1336.758 158.7824 23732.39)
(1717.365 46.83469 25450.93)
(2182.246 -72.74566 27207.44)
(2651.293 -241.1941 29019.76)
(2755.227 -528.4063 30790.59)
(1380.837 -1042.757 31935.89)
(33.98537 -530.6238 15932.7)
(79.43816 -399.5132 14743.5)
(97.66667 -1428.472 14823.37)
(91.61988 -238.1589 13473.6)
(229.5129 -864.4024 13683.8)
(153.7709 -1874.96 12573.57)
(86.60336 -76.12428 12394.83)
(267.2746 -275.941 12579.43)
(364.5464 -605.3974 11641.99)
(198.3518 -1122.468 8717.141)
(76.86336 71.08267 11583.08)
(255.7172 256.4462 11726.17)
(430.2177 563.2538 10901.79)
(479.216 1064.257 8331.89)
(227.5514 1650.724 3255.938)
(67.64022 194.1079 11022.07)
(230.0101 698.135 11166.62)
(418.383 1537.837 10491.16)
(578.2203 2959.845 8242.123)
(568.2971 4818.233 3359.975)
(60.27213 286.1396 10663.91)
(205.1368 1028.502 10866.48)
(383.1752 2284.537 10428.11)
(576.6256 4530.403 8575.385)
(709.5583 7884.388 3668.515)
(54.66278 342.1589 10452.34)
(184.9904 1230.39 10763.97)
(348.0108 2764.729 10677.27)
(542.9793 5726.375 9450.541)
(736.6844 11185.47 4322.169)
(50.35031 359.6477 10330.13)
(169.3131 1291.534 10784.34)
(318.9568 2922.435 11164.47)
(507.4628 6328.427 11045.87)
(731.1521 15227.92 5549.311)
(46.87519 339.9507 10242.6)
(156.7725 1213.133 10841.88)
(295.3586 2713.189 11737.34)
(476.6659 5752.05 13667.06)
(735.2554 13298.21 22758.91)
(1164.568 1510.9 30376.71)
(1557.935 681.4621 30214.39)
(1942.357 307.9341 31506.72)
(2023.403 87.32936 33694.1)
(1018.855 -117.0609 36270.27)
(43.88006 289.1238 10142.54)
(146.0783 1020.545 10848.6)
(274.8208 2216.715 12054.71)
(445.1574 4314.9 14479.53)
(690.7277 7313.226 20308.54)
(1022.944 2793.847 25427.96)
(1362.862 1403.241 26967.6)
(1774.733 672.4242 28622.04)
(2184.807 199.1872 30709.03)
(2272.243 -253.8114 33339.5)
(1145.258 -925.2464 36288.99)
(41.1252 216.4597 9997.207)
(136.3342 755.0191 10761.2)
(255.7705 1590.118 12102.32)
(413.2115 2870.769 14518.02)
(634.8182 4095.768 18728.84)
(904.4062 2211.794 22432.5)
(1184.721 1290.095 24297.79)
(1544.086 665.9571 26057.64)
(1982.438 199.7142 27959.71)
(2423.173 -267.762 30159.38)
(2522.048 -948.09 32742.78)
(1271.739 -2191.068 35406.9)
(38.46909 131.6976 9788.482)
(127.0207 454.8592 10567.79)
(237.4087 935.2317 11935.18)
(381.5585 1603.385 14210.43)
(579.2062 2086.518 17569.19)
(805.2241 1303.089 20494.36)
(1036.564 825.0736 22302.74)
(1334.847 445.7556 23992.42)
(1716.786 132.5639 25687.37)
(2183.528 -192.6435 27478.2)
(2656.156 -650.8717 29414.32)
(2767.379 -1447.504 31445.88)
(1392.629 -2921.432 33036.79)
(35.84103 43.32825 9509.66)
(117.8818 148.7443 10271.65)
(219.3889 301.7367 11605.39)
(350.5737 503.7539 13737.76)
(526.9505 629.3108 16663.15)
(721.3918 415.4101 19184.23)
(915.5438 272.2059 20857.4)
(1162.712 149.908 22414.58)
(1479.775 44.05418 23914.8)
(1884.737 -67.41436 25402.94)
(2379.739 -220.9137 26881.29)
(2883.836 -474.7909 28281.72)
(3007.51 -924.838 29386.82)
(1508.07 -1697.214 29484.81)
(35.43013 -586.2001 16566.08)
(82.26846 -503.8867 15253.37)
(101.8804 -1810.32 15574.65)
(93.88296 -371.8991 13816.01)
(236.483 -1355.998 14186.57)
(160.1173 -2983.372 13391.72)
(87.68569 -221.3471 12561.12)
(271.2786 -804.4931 12820.11)
(372.0304 -1778.8 12025.87)
(204.173 -3357.016 9223.456)
(76.86336 -71.08267 11583.08)
(255.7172 -256.4462 11726.17)
(430.2177 -563.2538 10901.79)
(479.216 -1064.257 8331.89)
(227.5514 -1650.724 3255.938)
(66.83382 66.7563 10876.24)
(226.8545 239.4611 10957.79)
(410.9313 523.4059 10159.55)
(563.7626 989.8068 7796.504)
(548.6738 1564.327 3109.94)
(58.93514 183.24 10400.48)
(199.9346 655.6528 10485.34)
(370.6938 1435.974 9802.857)
(550.539 2750.104 7677.382)
(665.2115 4479.577 3140.991)
(53.03831 271.2886 10106.18)
(178.7168 970.9337 10254.08)
(332.8501 2145.576 9792.216)
(509.7658 4230.294 8011.586)
(672.2751 7324.703 3415.026)
(48.64917 325.5554 9941.733)
(162.793 1166.549 10201.51)
(303.1294 2610.06 10076.47)
(471.1483 5378.25 8874.866)
(649.1098 10444.46 4037.311)
(45.27486 343.2047 9855.282)
(150.7001 1228.876 10258.01)
(280.7016 2770.875 10582.23)
(441.8841 5974.656 10426.07)
(633.3944 14302.88 5211.703)
(42.51626 325.2147 9796.702)
(140.9832 1157.679 10343.95)
(262.93 2581.613 11165.62)
(419.541 5453.931 12956.75)
(639.9536 12555.43 21487.66)
(1005.834 1419.099 28533.98)
(1354.491 636.4078 28210.67)
(1770.723 286.6597 29224.11)
(2184.013 84.31304 31102.5)
(2275.396 -98.26058 33751.59)
(1149.635 -368.5302 36972.71)
(40.08253 277.1816 9722.17)
(132.5054 976.3128 10376.68)
(247.1821 2115.416 11501.98)
(396.3746 4105.738 13776.22)
(608.0528 6934.365 19256.66)
(889.9967 2637.712 24010.38)
(1176.037 1318.004 25333.92)
(1539.371 628.3055 26722.77)
(1981.121 187.7938 28468.31)
(2426.444 -221.0525 30713.33)
(2533.812 -815.1367 33610.56)
(1284.818 -1954.901 37073.52)
(37.78394 207.9064 9601.08)
(124.543 723.8365 10315.46)
(232.0359 1521.214 11576.56)
(371.7383 2739.62 13853.78)
(565.4193 3897.283 17821.54)
(796.2875 2097.168 21272.95)
(1030.589 1217.981 22945.69)
(1331.392 625.5924 24481.64)
(1715.718 187.4311 26103.96)
(2185.641 -242.7328 27944.79)
(2664.399 -848.7564 30108.13)
(2788.468 -1942.429 32654.86)
(1413.828 -4102.015 35213.62)
(35.51218 126.7036 9416.444)
(116.7059 436.8872 10149.26)
(216.8972 896.6127 11441.34)
(346.2126 1533.922 13594.1)
(521.2125 1991.215 16767.03)
(717.378 1239.926 19503.31)
(912.736 782.3043 21151.84)
(1161.047 420.8423 22660.07)
(1479.252 124.6803 24136.78)
(1885.692 -178.5239 25655.15)
(2383.321 -596.1973 27244.12)
(2893.119 -1300.845 28872.29)
(3028.608 -2591.531 30362.42)
(1527.391 -4910.99 30976.31)
(33.2173 41.74754 9162.046)
(108.8241 143.1043 9881.401)
(201.5875 289.8164 11146.15)
(320.3271 482.956 13170.08)
(478.236 602.0523 15941.66)
(649.3095 396.4348 18309.65)
(815.7857 259.0104 19850.24)
(1023.924 142.1357 21260.07)
(1286.984 41.59842 22589.82)
(1622.869 -63.19507 23873.12)
(2050.797 -205.3715 25100)
(2574.223 -435.5781 26188.74)
(3111.478 -831.7713 26948.94)
(3253.922 -1504.005 27006.34)
(1628.684 -2534.257 49867.2)
(36.93971 -580.6323 17227.98)
(85.59527 -556.6567 15854.64)
(106.8589 -2004.358 16480.53)
(97.00667 -469.0527 14290.55)
(246.1612 -1718.398 14899.1)
(169.096 -3844.935 14625.24)
(89.7505 -345.6453 12879.33)
(278.9494 -1261.989 13287.82)
(386.5495 -2830.121 12801.1)
(215.7905 -5531.801 10322.21)
(77.80016 -206.6876 11738.35)
(259.3652 -747.6539 11949.81)
(438.4169 -1654.929 11258.73)
(492.4821 -3182.629 8811.355)
(236.1911 -5085.1 3520.065)
(66.83382 -66.7563 10876.24)
(226.8545 -239.4611 10957.79)
(410.9313 -523.4059 10159.55)
(563.7626 -989.8068 7796.504)
(548.6738 -1564.327 3109.94)
(58.2343 63.01866 10262.82)
(197.2186 224.8895 10289.22)
(364.2538 488.7366 9493.208)
(537.4341 919.6802 7263.419)
(643.9119 1454.491 2908.649)
(51.86122 173.7295 9856.414)
(174.1956 618.953 9894.267)
(322.1107 1348.624 9204.975)
(487.2478 2567.929 7173.076)
(632.1923 4161.77 2925.019)
(47.20151 258.124 9612.373)
(157.2695 920.5535 9718.07)
(289.9532 2025.536 9240.886)
(442.5806 3973.088 7523.327)
(593.5869 6839.467 3190.267)
(43.74319 310.671 9484.643)
(144.8893 1109.954 9703.454)
(266.7652 2474.693 9550.605)
(410.323 5077.554 8376.303)
(562.8584 9809.815 3791.516)
(41.06317 328.3277 9426.176)
(135.5154 1172.702 9786.757)
(249.8662 2636.502 10066.48)
(388.9107 5664.998 9883.534)
(551.424 13503.95 4919.653)
(38.83573 311.7819 9390.621)
(127.8788 1107.504 9893.885)
(236.4743 2463.643 10653.5)
(373.5401 5189.583 12327.18)
(563.3346 11905.18 20374.66)
(875.1251 1339.801 26942.89)
(1168.83 597.7494 26501.43)
(1535.864 267.8335 27284.75)
(1980.132 79.38791 28832.48)
(2428.519 -85.53708 31088.55)
(2541.575 -324.7601 34222.61)
(1293.866 -800.7814 38386.37)
(36.82538 266.229 9336.91)
(121.0425 935.9912 9946.819)
(224.237 2023.754 11002.22)
(356.5754 3918.187 13145.84)
(541.5589 6598.39 18323.77)
(783.5974 2501.036 22769.07)
(1023.039 1244.338 23923.9)
(1327.314 590.2098 25106.26)
(1714.44 176.1301 26578.26)
(2187.81 -200.3485 28455.5)
(2673.207 -729.9777 30892.69)
(2811.873 -1733.636 34137.76)
(1438.834 -3904.721 38241.18)
(34.87939 200.0226 9236.147)
(114.428 695.2373 9906.901)
(211.985 1458.4 11097.52)
(337.2946 2620.939 13252.89)
(508.7957 3719.294 17007.85)
(709.412 1995.527 20244.17)
(907.4747 1154.851 21761.47)
(1158.038 590.6283 23121.92)
(1478.292 176.255 24527.91)
(1887.266 -224.9379 26089.78)
(2389.398 -777.5809 27882.17)
(2909.234 -1746.133 29962.04)
(3066.534 -3639.964 32292.44)
(1563.857 -7395.462 34198.81)
(32.91241 122.0812 9072.231)
(107.738 420.3215 9763.651)
(199.2967 861.1921 10988.58)
(316.3397 1470.594 13032.35)
(473.0249 1904.97 16041.04)
(645.6948 1183.291 18614.16)
(813.2831 744.3827 20130.4)
(1022.458 399.0236 21492.84)
(1286.522 117.7281 22799.38)
(1623.645 -167.3528 24109.85)
(2053.621 -554.2777 25437.72)
(2581.188 -1193.524 26731.19)
(3127.625 -2331.193 27826.77)
(3288.381 -4353.121 28323.15)
(1657.945 -7635.433 53203.04)
(30.88827 40.27933 8839.275)
(100.8597 137.8839 9520.316)
(186.1076 278.8286 10722.98)
(294.3636 463.8798 12649.49)
(437.0435 577.2005 15283.81)
(589.3902 379.2638 17517.85)
(734.3751 247.1796 18946.33)
(912.4988 135.2454 20235.05)
(1133.497 39.44039 21428.68)
(1411.324 -59.647 22553.88)
(1764.682 -192.6701 23592.62)
(2213.604 -405.137 24456.59)
(2762.251 -763.3655 24950.13)
(3327.505 -1352.626 24733.94)
(3482.597 -2241.647 45399.04)
(222.843 -514.0105 15708.88)
(38.35587 -516.1715 17845.72)
(89.07129 -551.3748 16482.96)
(112.0628 -1978.639 17434.36)
(100.6777 -518.1718 14850.15)
(257.5922 -1902.535 15758.16)
(179.905 -4305.618 16232.05)
(92.60023 -435.939 13320.35)
(289.5964 -1599.228 13950.61)
(407.0761 -3647.057 13969.64)
(232.9989 -7490.985 12208.85)
(79.58729 -322.7536 12035.49)
(266.353 -1172.819 12384.41)
(454.314 -2632.915 11979.47)
(518.9332 -5243.542 9851.607)
(254.2381 -8954.165 4119.979)
(67.64022 -194.1079 11022.07)
(230.0101 -698.135 11166.62)
(418.383 -1537.837 10491.16)
(578.2203 -2959.845 8242.123)
(568.2971 -4818.233 3359.975)
(58.2343 -63.01866 10262.82)
(197.2186 -224.8895 10289.22)
(364.2538 -488.7366 9493.208)
(537.4341 -919.6802 7263.419)
(643.9119 -1454.491 2908.649)
(51.2442 59.74785 9725.898)
(171.8351 212.3012 9709.115)
(316.5694 459.0059 8914.151)
(475.9335 858.758 6786.539)
(612.9243 1351.331 2709.193)
(46.15255 165.299 9374.725)
(153.2888 586.8358 9376.919)
(280.6197 1273.167 8686.475)
(423.211 2411.782 6735.766)
(559.0171 3886.069 2732.724)
(42.43974 246.3224 9170.339)
(139.9667 875.8916 9243.453)
(255.1634 1920.478 8758.326)
(385.4948 3750.921 7100.262)
(515.1149 6423.776 2995.92)
(39.67242 297.2042 9071.6)
(130.2832 1059.216 9257.536)
(237.4448 2354.679 9084.847)
(361.1173 4814.358 7939.911)
(490.1203 9261.667 3578.76)
(37.50728 314.7663 9035.397)
(122.9139 1121.876 9360.838)
(224.7103 2516.024 9604.553)
(346.2356 5390.419 9402.775)
(485.3598 12804.55 4664.003)
(35.67914 299.4622 9018.46)
(116.8128 1061.765 9483.96)
(214.5134 2356.895 10190.48)
(336.0108 4952.541 11762.94)
(501.692 11328.5 19387.59)
(770.5001 1270.384 25549.69)
(1016.774 564.342 25026.18)
(1324.283 251.5906 25634.04)
(1713.498 74.42825 26917.92)
(2189.181 -77.51363 28801.47)
(2679.024 -290.8989 31446.04)
(2828.062 -710.3043 35305.93)
(1457.679 -1681.38 41143.69)
(33.99407 256.1336 8981.994)
(111.2098 899.0102 9552.818)
(204.8545 1940.191 10546.89)
(323.5246 3748.463 12575.6)
(487.3059 6297.093 17487.13)
(698.0997 2379.838 21667.8)
(900.8253 1179.849 22689)
(1154.489 557.2241 23711.63)
(1477.151 165.6009 24973.24)
(1888.878 -185.6557 26565.54)
(2395.9 -668.8814 28603.74)
(2927.127 -1558.962 31298.98)
(3111.266 -3466.206 34978.7)
(1611.066 -7884.971 39566.53)
(32.32572 192.7254 8898.512)
(105.6342 668.8758 9530.482)
(194.7805 1400.787 10658.34)
(308.1858 2512.74 12705.21)
(461.7484 3558.217 16271.42)
(638.5208 1904.386 19321.18)
(808.5935 1098.874 20710.48)
(1019.808 560.0091 21930.76)
(1285.678 166.4227 23168.63)
(1624.925 -210.8671 24517.82)
(2058.415 -722.9656 26031.65)
(2593.29 -1602.347 27732.27)
(3156.658 -3275.441 29564.12)
(3353.418 -6558.713 31171.84)
(1716.525 -12692.24 61188.96)
(30.60467 117.7877 8752.618)
(99.85276 404.9884 9406.86)
(183.9917 828.5421 10571.38)
(290.6976 1412.509 12517.19)
(432.2788 1826.339 15379.08)
(586.1076 1132.04 17809.16)
(732.1215 710.3825 19213.7)
(911.1922 379.6805 20456.53)
(1133.09 111.6205 21627.37)
(1411.988 -157.9594 22777.35)
(1767.032 -520.0115 23909.55)
(2219.149 -1110.173 24961.31)
(2774.42 -2139.733 25755.91)
(3353.769 -3916.024 25917.1)
(3534.53 -6757.026 48318.51)
(229.0169 -1638.427 16777.73)
(28.80396 38.91154 8538.658)
(93.78942 133.0349 9185.017)
(172.4941 268.6581 10331.37)
(271.7797 446.2953 12169.67)
(401.6688 554.4053 14680.37)
(538.7004 363.6092 16795.7)
(666.6832 236.4745 18127.76)
(821.5572 129.0695 19314.79)
(1010.314 37.52906 20397.33)
(1243.173 -56.55671 21397.3)
(1534.566 -181.8694 22292.84)
(1903.585 -380.1248 22993.11)
(2370.36 -710.0861 23305.79)
(2938.538 -1241.365 22902.18)
(3521.894 -2014.935 41548.14)
(468.583 -452.2716 14280.26)
(264.3304 -821.6087 22484.18)
(39.53921 -403.0696 18358.12)
(92.33269 -490.1765 17069.4)
(116.9083 -1744.118 18298.15)
(104.5134 -513.2581 15434.92)
(269.54 -1878.145 16662.63)
(191.2853 -4215.873 18031.79)
(95.94904 -481.5897 13840.41)
(302.1673 -1770.57 14749.66)
(431.7689 -4083.725 15491.43)
(254.9841 -8817.461 15241.52)
(82.05369 -407.0673 12447.3)
(276.05 -1486.219 13000.29)
(476.7695 -3392.742 13065.76)
(558.0575 -7099.05 11637.17)
(283.4318 -13683.55 5231.247)
(69.17857 -303.11 11301.13)
(236.0546 -1095.141 11572.44)
(432.8267 -2446.595 11160.77)
(607.0151 -4876.048 9208.828)
(609.226 -8481.758 3927.741)
(58.93514 -183.24 10400.48)
(199.9346 -655.6528 10485.34)
(370.6938 -1435.974 9802.857)
(550.539 -2750.104 7677.382)
(665.2115 -4479.577 3140.991)
(51.2442 -59.74785 9725.898)
(171.8351 -212.3012 9709.115)
(316.5694 -459.0059 8914.151)
(475.9335 -858.758 6786.539)
(612.9243 -1351.331 2709.193)
(45.6027 56.84845 9250.541)
(151.2106 201.2848 9201.37)
(275.8038 433.3234 8411.911)
(413.4782 806.5371 6372.718)
(542.3941 1261.811 2531.198)
(41.49527 157.7413 8943.555)
(136.4192 558.364 8918.847)
(246.9452 1207.129 8232.649)
(368.6607 2276.904 6356.705)
(485.385 3649.842 2566.172)
(38.4889 235.6448 8770.92)
(125.8508 835.8522 8818.555)
(227.1044 1827.336 8330.965)
(339.2537 3556.465 6729.962)
(448.6262 6064.732 2827.596)
(36.23583 284.9283 8695.466)
(118.163 1013.308 8854.546)
(213.5248 2247.075 8667.749)
(321.4606 4580.984 7553.286)
(431.3685 8781.837 3392.53)
(34.45785 302.3287 8677.271)
(112.2736 1075.544 8972.92)
(203.8306 2407.006 9186.958)
(311.4199 5144.203 8972.004)
(432.1723 12184.29 4437.407)
(32.93543 288.1067 8675.619)
(107.3211 1019.815 9108.242)
(195.9643 2259.579 9768.651)
(304.8486 4738.028 11252.56)
(451.3979 10811.31 18502.36)
(686.4239 1208.827 24313.71)
(895.3076 535.0968 23734.17)
(1151.851 237.53 24209.9)
(1476.315 69.97203 25292.17)
(1889.896 -71.82738 26887.87)
(2400.2 -266.5841 29112.69)
(2939.51 -638.8842 32352.45)
(3144.967 -1492.935 37556.17)
(1652.618 -3703.285 46839.38)
(31.5049 246.7894 8653.63)
(102.6619 864.9226 9189.822)
(188.2248 1863.547 10129.46)
(295.5953 3593.726 12055.87)
(442.2312 6024.412 16729.94)
(628.3328 2271.155 20679.8)
(802.6665 1122.666 21593.07)
(1016.681 528.339 22489.9)
(1284.676 156.3593 23589.04)
(1626.235 -174.0462 24964.41)
(2063.549 -621.9569 26703.37)
(2606.742 -1430.87 28960.7)
(3190.913 -3120.389 31983.73)
(3437.618 -6997.364 35925.78)
(1802.91 -16545.29 78665.37)
(30.05895 185.9475 8585.008)
(97.90217 644.4757 9182.196)
(179.8204 1347.681 10253.65)
(283.2007 2413.496 12202.97)
(421.9679 3411.357 15599.96)
(579.5925 1821.907 18485.56)
(727.8985 1048.685 19767.28)
(908.8307 532.8632 20873.22)
(1132.345 157.7886 21977.48)
(1413.081 -199.037 23162.48)
(1771.022 -678.302 24466.94)
(2228.789 -1490.591 25892.85)
(2796.317 -3007.091 27351.13)
(3403.364 -5903.088 28478.77)
(3638.537 -11242.59 55329.76)
(242.3761 -3216.975 19337.29)
(28.53943 113.788 8454.943)
(92.85279 390.7463 9075.551)
(170.5323 798.3207 10185.31)
(268.3936 1358.965 12042.39)
(397.288 1754.214 14771.87)
(535.699 1085.315 17074.98)
(664.6368 679.6168 18383.54)
(820.3809 362.3424 19526.15)
(1009.952 106.2107 20586.39)
(1243.757 -149.7777 21609.18)
(1536.589 -490.8696 22592.01)
(1908.217 -1041.67 23466.68)
(2380.072 -1990.539 24055.31)
(2958.335 -3594.529 23987.5)
(3561.19 -6076.032 44161.93)
(479.4124 -1443.096 15212.4)
(274.451 -2677.117 23937.65)
(26.92566 37.63404 8257.946)
(87.46175 128.5176 8872.72)
(160.4074 259.2112 9967.703)
(251.9143 430.0184 11725.59)
(370.8877 533.3921 14124.06)