/*--------------------------------*- C++ -*----------------------------------*\
| =========                 |                                                 |
| \\      /  F ield         | OpenFOAM: The Open Source CFD Toolbox           |
|  \\    /   O peration     | Version:  2306                                  |
|   \\  /    A nd           | Website:  www.openfoam.com                      |
|    \\/     M anipulation  |                                                 |
\*---------------------------------------------------------------------------*/
FoamFile
{
    version     2.0;
    format      ascii;
    arch        "LSB;label=32;scalar=64";
    class       volScalarField;
    location    "1.5/phiI";
    object      phi;
}
// * * * * * * * * * * * * * * * * * * * * * * * * * * * * * * * * * * * * * //

dimensions      [1 2 -3 0 0 -1 0];

internalField   nonuniform List<scalar> 
12000
(
1.628948
1.628856
1.623815
1.629834
1.62867
1.623708
1.629749
1.618646
1.624626
1.631614
1.628369
1.623509
1.629578
1.61853
1.624524
1.631545
1.614368
1.619394
1.626258
1.634305
1.627918
1.623249
1.6293
1.618318
1.624335
1.631404
1.61425
1.619282
1.626165
1.634259
1.610852
1.615066
1.620899
1.628723
1.637934
1.627272
1.622972
1.628879
1.618052
1.624088
1.631172
1.614034
1.619078
1.625995
1.634165
1.610734
1.614951
1.620794
1.628645
1.63792
1.607927
1.611508
1.616469
1.623173
1.632045
1.64254
1.626494
1.622716
1.628264
1.617794
1.623827
1.63081
1.613762
1.618821
1.625776
1.634003
1.610518
1.614741
1.620605
1.628505
1.63789
1.607811
1.611392
1.61636
1.623079
1.631988
1.642567
1.605442
1.608547
1.612826
1.618589
1.626236
1.636258
1.647153
1.625707
1.622494
1.627511
1.617612
1.623587
1.630259
1.613501
1.618575
1.625548
1.633731
1.610242
1.614477
1.620368
1.628328
1.637823
1.607597
1.611181
1.616163
1.622912
1.631888
1.642619
1.605328
1.608433
1.612717
1.61849
1.626158
1.636227
1.64722
1.603296
1.606029
1.609793
1.614819
1.621444
1.630117
1.640479
1.651773
1.625077
1.622284
1.626741
1.617525
1.623376
1.629557
1.613325
1.618403
1.625339
1.633277
1.609973
1.614225
1.620145
1.628149
1.637673
1.607321
1.610912
1.615915
1.622707
1.631768
1.642675
1.605118
1.608223
1.612516
1.61831
1.626021
1.636179
1.647354
1.603185
1.605918
1.609683
1.614717
1.621357
1.63006
1.640474
1.651881
1.601414
1.603855
1.607212
1.611675
1.6175
1.62506
1.634006
1.644706
1.656401
1.62473
1.62211
1.626121
1.617481
1.623172
1.62882
1.613264
1.618323
1.625149
1.63265
1.609786
1.614057
1.619994
1.627987
1.637351
1.607047
1.610651
1.615681
1.622519
1.631657
1.642682
1.604845
1.607953
1.61226
1.618087
1.625858
1.636132
1.647533
1.60298
1.605712
1.609483
1.614531
1.621203
1.629962
1.640477
1.652096
1.601307
1.603747
1.607104
1.611572
1.617409
1.62499
1.633968
1.644727
1.656549
1.599743
1.601948
1.604981
1.608997
1.614208
1.620896
1.628683
1.637902
1.648941
1.661035
1.62473
1.622009
1.625779
1.617453
1.623001
1.62822
1.613261
1.618282
1.624957
1.631965
1.609719
1.614
1.619926
1.62783
1.636828
1.606849
1.61047
1.615529
1.622399
1.63156
1.64253
1.604569
1.607685
1.612014
1.617881
1.625718
1.636109
1.647698
1.602712
1.605444
1.609225
1.614297
1.621014
1.629852
1.640503
1.652397
1.601107
1.603545
1.606906
1.611385
1.617245
1.624867
1.633909
1.644781
1.656846
1.599639
1.601842
1.604876
1.608896
1.614115
1.620819
1.628629
1.637884
1.648988
1.661224
1.598243
1.600254
1.603022
1.60668
1.611399
1.617413
1.624297
1.632312
1.641804
1.653183
1.665676
1.625077
1.622009
1.625779
1.617438
1.622902
1.627887
1.613273
1.618255
1.624793
1.631394
1.609717
1.613999
1.619892
1.627658
1.636211
1.60677
1.610406
1.615481
1.622351
1.631448
1.642141
1.604363
1.607493
1.611846
1.617753
1.625641
1.636096
1.647716
1.602438
1.605173
1.60897
1.614073
1.620846
1.629775
1.640567
1.65272
1.600846
1.603282
1.606648
1.611145
1.617039
1.624722
1.633854
1.644881
1.657269
1.599446
1.601646
1.604681
1.608709
1.613945
1.620681
1.628537
1.637863
1.649093
1.661602
1.598143
1.600152
1.602919
1.60658
1.611306
1.617332
1.624234
1.632275
1.641806
1.653256
1.665905
1.596884
1.598732
1.601281
1.604643
1.608965
1.614438
1.620625
1.627706
1.635949
1.645714
1.657432
1.66933
1.625707
1.62211
1.626121
1.617438
1.622902
1.627887
1.613282
1.61824
1.624697
1.631075
1.609735
1.614011
1.619868
1.627504
1.635681
1.60676
1.610406
1.615483
1.622326
1.631302
1.641612
1.604272
1.607416
1.611788
1.617718
1.62562
1.636042
1.647459
1.602229
1.604973
1.608788
1.613925
1.62075
1.629755
1.640639
1.652907
1.600576
1.603012
1.606389
1.61091
1.616847
1.624602
1.633839
1.645032
1.657749
1.599192
1.601389
1.604427
1.608468
1.613731
1.620512
1.628436
1.637862
1.649266
1.662147
1.597956
1.599961
1.602729
1.606396
1.611135
1.617186
1.624123
1.632214
1.641824
1.653412
1.666364
1.596787
1.598634
1.601182
1.604545
1.608873
1.614356
1.620556
1.627656
1.635927
1.645735
1.65753
1.66959
1.595643
1.597354
1.599716
1.602831
1.606823
1.611856
1.617483
1.623843
1.631121
1.639592
1.649631
1.660779
1.672038
1.626494
1.622284
1.626741
1.617453
1.623001
1.62822
1.613282
1.61824
1.624697
1.631075
1.609748
1.61402
1.619853
1.627412
1.63538
1.606773
1.610424
1.615496
1.622306
1.631162
1.641134
1.604253
1.607407
1.61179
1.617726
1.625608
1.63593
1.647018
1.60213
1.604884
1.608716
1.613877
1.620734
1.629768
1.640643
1.652783
1.600366
1.602807
1.606198
1.610744
1.616725
1.624549
1.633874
1.645188
1.658106
1.598928
1.601123
1.604168
1.608226
1.613522
1.620361
1.628366
1.637909
1.649504
1.662785
1.59771
1.599711
1.602481
1.606156
1.610916
1.617003
1.623991
1.632156
1.641876
1.653657
1.667031
1.596607
1.59845
1.600997
1.604365
1.608703
1.614206
1.620434
1.627572
1.635898
1.645791
1.657737
1.670113
1.59555
1.597259
1.599621
1.602736
1.606733
1.611773
1.617412
1.623786
1.631085
1.639587
1.649672
1.660898
1.672321
1.594502
1.596095
1.598298
1.601202
1.604915
1.60958
1.614752
1.620534
1.627067
1.634542
1.643242
1.652719
1.663262
1.67383
1.627272
1.622494
1.627511
1.617481
1.623172
1.62882
1.613273
1.618255
1.624793
1.631394
1.609748
1.61402
1.619853
1.627412
1.63538
1.606785
1.610437
1.615505
1.622293
1.631076
1.640856
1.604261
1.607421
1.611809
1.617741
1.625594
1.635808
1.646591
1.602103
1.604865
1.608709
1.613883
1.62075
1.629774
1.640564
1.652429
1.600262
1.60271
1.606113
1.610681
1.616692
1.624558
1.633923
1.64525
1.658113
1.59872
1.600917
1.603971
1.608048
1.613379
1.620273
1.628354
1.638
1.649743
1.66331
1.597452
1.599451
1.602224
1.605912
1.610698
1.61683
1.62388
1.632135
1.641985
1.653983
1.667827
1.596369
1.598207
1.600754
1.604129
1.608483
1.614014
1.620282
1.627476
1.635883
1.645898
1.658055
1.670874
1.595376
1.597081
1.599442
1.60256
1.606565
1.611622
1.617282
1.623687
1.631027
1.639589
1.649766
1.661144
1.67289
1.594413
1.596003
1.598206
1.60111
1.604827
1.609498
1.614679
1.620473
1.627023
1.63452
1.643253
1.652776
1.663396
1.674128
1.593447
1.594937
1.597003
1.599724
1.603198
1.60755
1.612342
1.617654
1.623591
1.630298
1.63797
1.646122
1.655011
1.664905
1.674723
1.627918
1.622716
1.628264
1.617525
1.623376
1.629557
1.613261
1.618282
1.624957
1.631965
1.609735
1.614011
1.619868
1.627504
1.635681
1.606785
1.610437
1.615505
1.622293
1.631076
1.640856
1.60427
1.607432
1.611822
1.617751
1.625583
1.63573
1.646336
1.602105
1.604873
1.608723
1.613902
1.620767
1.629767
1.64046
1.652053
1.600229
1.602684
1.606096
1.610676
1.616703
1.624584
1.633946
1.645205
1.657846
1.598613
1.600815
1.603877
1.607971
1.613327
1.620258
1.628387
1.638083
1.649863
1.663449
1.597248
1.599246
1.602025
1.605727
1.610539
1.616716
1.623827
1.632166
1.642132
1.654306
1.668521
1.596119
1.597953
1.600502
1.603886
1.60826
1.613827
1.620143
1.627406
1.635911
1.646068
1.658468
1.671792
1.595145
1.596845
1.599206
1.602329
1.606347
1.611427
1.617118
1.623567
1.630968
1.639617
1.649926
1.661519
1.673722
1.594244
1.595831
1.598033
1.600939
1.604663
1.609347
1.614546
1.620364
1.626946
1.634489
1.643286
1.652899
1.663671
1.674727
1.59336
1.594849
1.596913
1.599635
1.603112
1.60747
1.612269
1.617591
1.623541
1.630266
1.637962
1.646145
1.655078
1.665048
1.675029
1.592466
1.593866
1.595811
1.598373
1.60164
1.605722
1.610191
1.61511
1.620562
1.626655
1.633535
1.640677
1.64826
1.656528
1.665725
1.628369
1.622972
1.628879
1.617612
1.623587
1.630259
1.613264
1.618323
1.625149
1.63265
1.609717
1.613999
1.619892
1.627658
1.636211
1.606773
1.610424
1.615496
1.622306
1.631162
1.641134
1.60427
1.607432
1.611822
1.617751
1.625583
1.63573
1.646336
1.602112
1.604882
1.608734
1.613915
1.620777
1.629759
1.64039
1.651821
1.600228
1.602686
1.606103
1.61069
1.616723
1.624605
1.633946
1.645118
1.657519
1.598577
1.600782
1.603852
1.607955
1.613326
1.620276
1.628424
1.638124
1.649852
1.663267
1.597141
1.599141
1.601926
1.60564
1.610471
1.616679
1.623831
1.632223
1.642251
1.654483
1.668791
1.595919
1.597751
1.600304
1.603698
1.608092
1.613693
1.620058
1.627387
1.635984
1.646271
1.658875
1.672618
1.594903
1.596599
1.59896
1.60209
1.606123
1.611231
1.616961
1.623463
1.630938
1.639693
1.650158
1.661999
1.67473
1.594022
1.595604
1.597804
1.600714
1.604448
1.609151
1.614376
1.620228
1.626858
1.634465
1.643357
1.653101
1.664087
1.675605
1.593198
1.594682
1.596746
1.599469
1.602952
1.607321
1.612135
1.617476
1.623452
1.630212
1.637957
1.646203
1.655224
1.665343
1.675644
1.592382
1.593781
1.595725
1.598287
1.601556
1.605643
1.610118
1.615045
1.620508
1.626615
1.633515
1.640679
1.648293
1.656603
1.665873
1.591548
1.59287
1.594708
1.597129
1.600214
1.604061
1.608251
1.612836
1.617883
1.623476
1.629724
1.636092
1.642687
1.649676
1.657285
1.62867
1.623249
1.6293
1.617794
1.623827
1.63081
1.613325
1.618403
1.625339
1.633277
1.609719
1.614
1.619926
1.62783
1.636828
1.60676
1.610406
1.615483
1.622326
1.631302
1.641612
1.604261
1.607421
1.611809
1.617741
1.625594
1.635808
1.646591
1.602112
1.604882
1.608734
1.613915
1.620777
1.629759
1.64039
1.651821
1.600232
1.602692
1.606112
1.610701
1.616736
1.624616
1.633941
1.645056
1.657311
1.598573
1.600781
1.603854
1.607962
1.61334
1.620298
1.628449
1.638132
1.649782
1.662991
1.597103
1.599105
1.601894
1.605616
1.610458
1.616682
1.623856
1.632271
1.642308
1.654505
1.668694
1.595813
1.597646
1.600202
1.603604
1.608013
1.613638
1.620036
1.62741
1.636066
1.646424
1.65911
1.67299
1.594709
1.596402
1.598764
1.601901
1.60595
1.611085
1.616852
1.623406
1.630952
1.639808
1.650417
1.662472
1.675653
1.593787
1.595365
1.597564
1.600479
1.604226
1.608952
1.614207
1.620101
1.626788
1.634476
1.643481
1.653381
1.664617
1.676672
1.592983
1.594463
1.596524
1.59925
1.602742
1.607127
1.611961
1.617331
1.623344
1.630154
1.637969
1.646307
1.655456
1.665787
1.676544
1.592225
1.59362
1.595563
1.598126
1.6014
1.605497
1.609985
1.614928
1.620412
1.626546
1.633484
1.640695
1.648368
1.656763
1.666177
1.591467
1.592787
1.594625
1.597046
1.600133
1.603984
1.608179
1.612772
1.617827
1.623431
1.629695
1.636081
1.642698
1.649715
1.657364
1.590687
1.591939
1.593682
1.595979
1.598901
1.60254
1.606486
1.610784
1.615487
1.620661
1.626395
1.63215
1.637993
1.644019
1.650383
1.628856
1.623509
1.629578
1.618052
1.624088
1.631172
1.613501
1.618575
1.625548
1.633731
1.609786
1.614057
1.619994
1.627987
1.637351
1.60677
1.610406
1.615481
1.622351
1.631448
1.642141
1.604253
1.607407
1.61179
1.617726
1.625608
1.63593
1.647018
1.602105
1.604873
1.608723
1.613902
1.620767
1.629767
1.64046
1.652053
1.600232
1.602692
1.606112
1.610701
1.616736
1.624616
1.633941
1.645056
1.657311
1.598575
1.600785
1.60386
1.60797
1.613351
1.620311
1.62846
1.638129
1.649727
1.662805
1.597096
1.5991
1.601892
1.605618
1.610466
1.616697
1.623879
1.632299
1.642324
1.654453
1.668467
1.595774
1.597608
1.600167
1.603574
1.607991
1.613629
1.620045
1.627441
1.636124
1.646499
1.659164
1.67296
1.594604
1.596297
1.598661
1.601804
1.605863
1.611016
1.61681
1.623399
1.630994
1.639915
1.650605
1.662751
1.6761
1.593598
1.595172
1.597372
1.600292
1.604051
1.608798
1.614083
1.620017
1.62676
1.634524
1.643639
1.653684
1.665138
1.677659
1.592756
1.594231
1.596292
1.599021
1.602523
1.606926
1.611786
1.617189
1.623247
1.630119
1.63802
1.646469
1.655772
1.66635
1.677641
1.592017
1.593407
1.595348
1.597914
1.601195
1.605305
1.60981
1.614777
1.620291
1.626466
1.633457
1.640736
1.648497
1.657016
1.666635
1.591316
1.592632
1.594468
1.596891
1.599981
1.603841
1.608047
1.612653
1.617726
1.623353
1.629646
1.636068
1.642728
1.649802
1.657531
1.590609
1.591859
1.593602
1.595898
1.598823
1.602465
1.606416
1.61072
1.61543
1.620614
1.62636
1.632129
1.637988
1.644035
1.650425
1.589876
1.591065
1.592723
1.594908
1.597686
1.601139
1.60487
1.608916
1.613322
1.618142
1.623445
1.628703
1.633953
1.639252
1.644684
1.628948
1.623708
1.629749
1.618318
1.624335
1.631404
1.613762
1.618821
1.625776
1.634003
1.609973
1.614225
1.620145
1.628149
1.637673
1.606849
1.61047
1.615529
1.622399
1.63156
1.64253
1.604272
1.607416
1.611788
1.617718
1.62562
1.636042
1.647459
1.602103
1.604865
1.608709
1.613883
1.62075
1.629774
1.640564
1.652429
1.600228
1.602686
1.606103
1.61069
1.616723
1.624605
1.633946
1.645118
1.657519
1.598575
1.600785
1.60386
1.60797
1.613351
1.620311
1.62846
1.638129
1.649727
1.662805
1.597098
1.599103
1.601896
1.605623
1.610473
1.616707
1.623892
1.632311
1.642323
1.654405
1.668304
1.595766
1.597601
1.600161
1.603571
1.607992
1.613636
1.62006
1.627466
1.636155
1.646522
1.659129
1.67277
1.594565
1.596258
1.598623
1.601769
1.605834
1.610997
1.616804
1.623413
1.631033
1.639983
1.650697
1.662832
1.676117
1.593497
1.595069
1.59727
1.600193
1.603959
1.608721
1.614025
1.619987
1.626768
1.634585
1.64377
1.653899
1.665451
1.678156
1.592573
1.594044
1.596104
1.598837
1.602348
1.606769
1.611652
1.617086
1.623188
1.630119
1.638103
1.64666
1.656107
1.666902
1.67866
1.591798
1.593184
1.595123
1.597691
1.60098
1.605106
1.609632
1.614625
1.620175
1.626399
1.633456
1.640817
1.648687
1.657355
1.667214
1.591114
1.592427
1.594261
1.596685
1.599781
1.603653
1.607874
1.612499
1.617597
1.623256
1.629593
1.636066
1.64279
1.649948
1.657794
1.590462
1.591709
1.59345
1.595747
1.598675
1.602326
1.606286
1.610601
1.615326
1.620529
1.6263
1.632096
1.637988
1.644075
1.650518
1.5898
1.590987
1.592645
1.59483
1.597609
1.601066
1.604801
1.608853
1.613265
1.618093
1.623407
1.628676
1.633938
1.639252
1.644702
1.589108
1.590241
1.591823
1.593907
1.596554
1.599841
1.60338
1.607204
1.61135
1.615865
1.620803
1.625648
1.63042
1.635148
1.63988
1.623815
1.629834
1.61853
1.624524
1.631545
1.614034
1.619078
1.625995
1.634165
1.610242
1.614477
1.620368
1.628328
1.637823
1.607047
1.610651
1.615681
1.622519
1.631657
1.642682
1.604363
1.607493
1.611846
1.617753
1.625641
1.636096
1.647716
1.60213
1.604884
1.608716
1.613877
1.620734
1.629768
1.640643
1.652783
1.600229
1.602684
1.606096
1.610676
1.616703
1.624584
1.633946
1.645205
1.657846
1.598573
1.600781
1.603854
1.607962
1.61334
1.620298
1.628449
1.638132
1.649782
1.662991
1.597098
1.599103
1.601896
1.605623
1.610473
1.616707
1.623892
1.632311
1.642323
1.654405
1.668304
1.595767
1.597603
1.600164
1.603574
1.607997
1.613643
1.62007
1.627479
1.636168
1.646524
1.659089
1.672625
1.594557
1.59625
1.598616
1.601764
1.605831
1.610998
1.616812
1.623429
1.63106
1.640018
1.650727
1.66281
1.675957
1.593458
1.59503
1.597231
1.600156
1.603926
1.608694
1.614009
1.619986
1.626787
1.634631
1.643849
1.654004
1.66555
1.678206
1.592474
1.593943
1.596003
1.598738
1.602255
1.606686
1.611584
1.617039
1.62317
1.630143
1.638182
1.64681
1.656342
1.667236
1.679181
1.591621
1.593003
1.594941
1.597511
1.600807
1.604948
1.609492
1.61451
1.620094
1.626364
1.633485
1.640927
1.648902
1.657711
1.667782
1.590903
1.59221
1.594042
1.596468
1.599572
1.603456
1.607694
1.612342
1.617469
1.623168
1.629556
1.636092
1.642894
1.650156
1.658144
1.590268
1.59151
1.593249
1.595548
1.598481
1.602141
1.606115
1.610446
1.615192
1.620422
1.626228
1.632064
1.638004
1.64415
1.650671
1.589658
1.590842
1.592498
1.594684
1.597466
1.60093
1.604674
1.608735
1.61316
1.618004
1.623338
1.62863
1.633917
1.639261
1.644747
1.589035
1.590166
1.591747
1.593831
1.59648
1.59977
1.603313
1.607142
1.611294
1.615815
1.620762
1.625616
1.630398
1.635137
1.639883
1.58838
1.589462
1.590975
1.592967
1.595496
1.598632
1.602
1.605625
1.609542
1.613789
1.618412
1.622909
1.627286
1.631558
1.635745
1.618646
1.624626
1.631614
1.61425
1.619282
1.626165
1.634259
1.610518
1.614741
1.620605
1.628505
1.63789
1.607321
1.610912
1.615915
1.622707
1.631768
1.642675
1.604569
1.607685
1.612014
1.617881
1.625718
1.636109
1.647698
1.602229
1.604973
1.608788
1.613925
1.62075
1.629755
1.640639
1.652907
1.600262
1.60271
1.606113
1.610681
1.616692
1.624558
1.633923
1.64525
1.658113
1.598577
1.600782
1.603852
1.607955
1.613326
1.620276
1.628424
1.638124
1.649852
1.663267
1.597096
1.5991
1.601892
1.605618
1.610466
1.616697
1.623879
1.632299
1.642324
1.654453
1.668467
1.595767
1.597603
1.600164
1.603574
1.607997
1.613643
1.62007
1.627479
1.636168
1.646524
1.659089
1.672625
1.594557
1.596251
1.598617
1.601765
1.605834
1.611002
1.616818
1.623438
1.631072
1.640032
1.650731
1.662776
1.675823
1.593449
1.595021
1.597223
1.600148
1.60392
1.608691
1.61401
1.619993
1.626804
1.634659
1.643887
1.65404
1.665538
1.678064
1.592436
1.593905
1.595964
1.5987
1.602219
1.606655
1.61156
1.617026
1.623173
1.630167
1.638235
1.646897
1.656457
1.667348
1.679247
1.591525
1.592904
1.594841
1.597413
1.600713
1.604862
1.609417
1.614452
1.620058
1.626359
1.633524
1.641021
1.649066
1.657959
1.668127
1.590732
1.592035
1.593865
1.596293
1.599402
1.603298
1.607551
1.612219
1.617374
1.623108
1.629545
1.636143
1.643023
1.650387
1.658511
1.590063
1.591301
1.593038
1.595338
1.598277
1.601949
1.605937
1.610287
1.615057
1.620319
1.626165
1.63205
1.63805
1.64427
1.650889
1.589469
1.59065
1.592304
1.59449
1.597278
1.60075
1.604505
1.608581
1.613024
1.617891
1.623253
1.628577
1.633901
1.639288
1.64483
1.588897
1.590026
1.591605
1.593689
1.596341
1.599638
1.603188
1.607026
1.611189
1.615724
1.620688
1.62556
1.630362
1.635124
1.639896
1.588309
1.58939
1.590901
1.592893
1.595424
1.598563
1.601934
1.605564
1.609486
1.613739
1.61837
1.622874
1.627259
1.63154
1.635736
1.587687
1.588723
1.590173
1.592081
1.594502
1.597502
1.600714
1.604162
1.607874
1.611885
1.616232
1.620429
1.624475
1.628372
1.632126
1.614368
1.619394
1.626258
1.634305
1.610734
1.614951
1.620794
1.628645
1.63792
1.607597
1.611181
1.616163
1.622912
1.631888
1.642619
1.604845
1.607953
1.61226
1.618087
1.625858
1.636132
1.647533
1.602438
1.605173
1.60897
1.614073
1.620846
1.629775
1.640567
1.65272
1.600366
1.602807
1.606198
1.610744
1.616725
1.624549
1.633874
1.645188
1.658106
1.598613
1.600815
1.603877
1.607971
1.613327
1.620258
1.628387
1.638083
1.649863
1.663449
1.597103
1.599105
1.601894
1.605616
1.610458
1.616682
1.623856
1.632271
1.642308
1.654505
1.668694
1.595766
1.597601
1.600161
1.603571
1.607992
1.613636
1.62006
1.627466
1.636155
1.646522
1.659129
1.67277
1.594557
1.596251
1.598617
1.601765
1.605834
1.611002
1.616818
1.623438
1.631072
1.640032
1.650731
1.662776
1.675823
1.59345
1.595022
1.597223
1.600149
1.603921
1.608692
1.614013
1.619999
1.626813
1.634672
1.643902
1.654047
1.665508
1.677939
1.592428
1.593896
1.595955
1.598691
1.60221
1.606648
1.611555
1.617026
1.62318
1.630185
1.638265
1.646939
1.656497
1.667343
1.679114
1.591488
1.592867
1.594803
1.597374
1.600676
1.604827
1.609388
1.61443
1.620048
1.626365
1.633553
1.64108
1.649159
1.65808
1.668245
1.590639
1.59194
1.593769
1.596197
1.599309
1.603211
1.607473
1.612153
1.617324
1.623083
1.629553
1.636193
1.643128
1.65056
1.658765
1.589898
1.591131
1.592867
1.595167
1.598111
1.601792
1.605793
1.61016
1.614952
1.620242
1.626127
1.632059
1.638117
1.644412
1.651128
1.589272
1.590447
1.5921
1.594287
1.597079
1.600562
1.604329
1.608421
1.612884
1.617777
1.623173
1.628535
1.633904
1.639347
1.644957
1.588715
1.589839
1.591417
1.593502
1.596158
1.599462
1.603023
1.606873
1.611051
1.615606
1.620594
1.625492
1.630323
1.635118
1.639929
1.588175
1.589253
1.590764
1.592756
1.595289
1.598434
1.601812
1.60545
1.609382
1.613646
1.618292
1.622811
1.627213
1.63151
1.635727
1.587618
1.588653
1.590101
1.59201
1.594433
1.597435
1.60065
1.604101
1.607818
1.611834
1.616189
1.620392
1.624445
1.628348
1.63211
1.587025
1.58802
1.589411
1.591243
1.593566
1.596441
1.599511
1.602798
1.606327
1.610126
1.614231
1.618167
1.62193
1.625514
1.628915
1.610852
1.615066
1.620899
1.628723
1.637934
1.607811
1.611392
1.61636
1.623079
1.631988
1.642567
1.605118
1.608223
1.612516
1.61831
1.626021
1.636179
1.647354
1.602712
1.605444
1.609225
1.614297
1.621014
1.629852
1.640503
1.652397
1.600576
1.603012
1.606389
1.61091
1.616847
1.624602
1.633839
1.645032
1.657749
1.59872
1.600917
1.603971
1.608048
1.613379
1.620273
1.628354
1.638
1.649743
1.66331
1.597141
1.599141
1.601926
1.60564
1.610471
1.616679
1.623831
1.632223
1.642251
1.654483
1.668791
1.595774
1.597608
1.600167
1.603574
1.607991
1.613629
1.620045
1.627441
1.636124
1.646499
1.659164
1.67296
1.594557
1.59625
1.598616
1.601764
1.605831
1.610998
1.616812
1.623429
1.63106
1.640018
1.650727
1.66281
1.675957
1.59345
1.595022
1.597223
1.600149
1.603921
1.608692
1.614013
1.619999
1.626813
1.634672
1.643902
1.654047
1.665508
1.677939
1.592428
1.593896
1.595955
1.598691
1.60221
1.606648
1.611556
1.617029
1.623185
1.630193
1.638278
1.646953
1.656505
1.667315
1.678994
1.59148
1.592858
1.594794
1.597365
1.600666
1.604818
1.60938
1.614425
1.620048
1.626373
1.633571
1.641111
1.649203
1.658123
1.668243
1.590604
1.591903
1.593731
1.596158
1.599271
1.603175
1.60744
1.612125
1.617305
1.623076
1.629564
1.636227
1.643191
1.650657
1.65889
1.589808
1.591039
1.592773
1.595073
1.598019
1.601705
1.605712
1.610088
1.614894
1.620202
1.626113
1.632077
1.638176
1.644524
1.651306
1.589112
1.590284
1.591934
1.594121
1.596917
1.600408
1.604186
1.608292
1.612773
1.617689
1.623116
1.628514
1.633928
1.639425
1.645105
1.588523
1.589644
1.591219
1.593305
1.595965
1.599278
1.60285
1.606714
1.61091
1.615486
1.620502
1.625431
1.630297
1.635133
1.639994
1.587998
1.589073
1.590582
1.592575
1.595111
1.598264
1.60165
1.605299
1.609245
1.613526
1.618192
1.622733
1.627157
1.631481
1.635726
1.587488
1.58852
1.589968
1.591877
1.594302
1.597309
1.60053
1.603989
1.607715
1.611741
1.616109
1.620325
1.624391
1.628308
1.632084
1.586958
1.587951
1.589342
1.591175
1.593499
1.596376
1.599448
1.602739
1.606272
1.610076
1.614187
1.618129
1.621897
1.625487
1.628893
1.586392
1.587348
1.588687
1.590449
1.592681
1.595441
1.598381
1.601522
1.604885
1.608495
1.612382
1.616089
1.619607
1.622925
1.626033
1.607927
1.611508
1.616469
1.623173
1.632045
1.64254
1.605328
1.608433
1.612717
1.61849
1.626158
1.636227
1.64722
1.60298
1.605712
1.609483
1.614531
1.621203
1.629962
1.640477
1.652096
1.600846
1.603282
1.606648
1.611145
1.617039
1.624722
1.633854
1.644881
1.657269
1.598928
1.601123
1.604168
1.608226
1.613522
1.620361
1.628366
1.637909
1.649504
1.662785
1.597248
1.599246
1.602025
1.605727
1.610539
1.616716
1.623827
1.632166
1.642132
1.654306
1.668521
1.595813
1.597646
1.600202
1.603604
1.608013
1.613638
1.620036
1.62741
1.636066
1.646424
1.65911
1.67299
1.594565
1.596258
1.598623
1.601769
1.605834
1.610997
1.616804
1.623413
1.631033
1.639983
1.650697
1.662832
1.676117
1.593449
1.595021
1.597223
1.600148
1.60392
1.608691
1.61401
1.619993
1.626804
1.634659
1.643887
1.65404
1.665538
1.678064
1.592428
1.593896
1.595955
1.598691
1.60221
1.606648
1.611556
1.617029
1.623185
1.630193
1.638278
1.646953
1.656505
1.667315
1.678994
1.591481
1.592858
1.594794
1.597364
1.600666
1.604817
1.609379
1.614425
1.62005
1.626377
1.633579
1.641123
1.649218
1.658132
1.668216
1.590596
1.591895
1.593722
1.596149
1.59926
1.603164
1.60743
1.612117
1.6173
1.623076
1.629571
1.636246
1.643223
1.650702
1.658934
1.589775
1.591004
1.592736
1.595036
1.597981
1.601668
1.605677
1.610057
1.614868
1.620186
1.626109
1.632091
1.638213
1.64459
1.651405
1.589026
1.590195
1.591844
1.59403
1.596827
1.600322
1.604105
1.608217
1.612709
1.617639
1.623085
1.628508
1.633952
1.63949
1.645221
1.588369
1.589486
1.591059
1.593145
1.595808
1.599128
1.602709
1.606584
1.610794
1.61539
1.620431
1.625389
1.630288
1.635166
1.640078
1.587813
1.588883
1.59039
1.592383
1.594924
1.598084
1.601481
1.605142
1.609102
1.613402
1.618092
1.622658
1.62711
1.631465
1.635746
1.587316
1.588345
1.589791
1.591701
1.594129
1.597143
1.600372
1.603841
1.607579
1.61162
1.616005
1.62024
1.624324
1.628262
1.632059
1.586832
1.587823
1.589213
1.591045
1.593372
1.596253
1.599332
1.602629
1.60617
1.609984
1.614105
1.618058
1.621838
1.625438
1.628856
1.586326
1.587282
1.58862
1.590382
1.592616
1.595378
1.59832
1.601464
1.604831
1.608446
1.612338
1.61605
1.619572
1.622895
1.626007
1.585783
1.586706
1.587996
1.589693
1.591842
1.594496
1.597317
1.600324
1.603535
1.606974
1.610667
1.61417
1.617473
1.620562
1.623423
1.605442
1.608547
1.612826
1.618589
1.626236
1.636258
1.647153
1.603185
1.605918
1.609683
1.614717
1.621357
1.63006
1.640474
1.651881
1.601107
1.603545
1.606906
1.611385
1.617245
1.624867
1.633909
1.644781
1.656846
1.599192
1.601389
1.604427
1.608468
1.613731
1.620512
1.628436
1.637862
1.649266
1.662147
1.597452
1.599451
1.602224
1.605912
1.610698
1.61683
1.62388
1.632135
1.641985
1.653983
1.667827
1.595919
1.597751
1.600304
1.603698
1.608092
1.613693
1.620058
1.627387
1.635984
1.646271
1.658875
1.672618
1.594604
1.596297
1.598661
1.601804
1.605863
1.611016
1.61681
1.623399
1.630994
1.639915
1.650605
1.662751
1.6761
1.593458
1.59503
1.597231
1.600156
1.603926
1.608694
1.614009
1.619986
1.626787
1.634631
1.643849
1.654004
1.66555
1.678206
1.592428
1.593896
1.595955
1.598691
1.60221
1.606648
1.611555
1.617026
1.62318
1.630185
1.638265
1.646939
1.656497
1.667343
1.679114
1.591481
1.592858
1.594794
1.597364
1.600666
1.604817
1.609379
1.614425
1.62005
1.626377
1.633579
1.641123
1.649218
1.658132
1.668216
1.590597
1.591895
1.593722
1.596148
1.599259
1.603163
1.607428
1.612116
1.617299
1.623077
1.629575
1.636254
1.643236
1.650717
1.658944
1.589768
1.590996
1.592728
1.595026
1.597971
1.601657
1.605666
1.610047
1.614859
1.62018
1.626109
1.632099
1.638232
1.644623
1.65145
1.588994
1.590161
1.591808
1.593994
1.59679
1.600285
1.604069
1.608184
1.612679
1.617615
1.623071
1.628507
1.633968
1.639529
1.645288
1.588287
1.5894
1.590972
1.593056
1.59572
1.599043
1.602627
1.606508
1.610727
1.615333
1.620389
1.625365
1.630288
1.635195
1.640146
1.587664
1.588731
1.590235
1.592229
1.594772
1.597938
1.601342
1.605013
1.608985
1.613301
1.618011
1.6226
1.627078
1.631464
1.635784
1.587137
1.588162
1.589606
1.591516
1.593947
1.596969
1.600206
1.603686
1.607437
1.611494
1.615899
1.620154
1.624261
1.628223
1.632048
1.586665
1.587653
1.589041
1.590874
1.593204
1.596092
1.599178
1.602484
1.606035
1.609862
1.613999
1.617968
1.621763
1.625379
1.628813
1.586204
1.587157
1.588494
1.590256
1.592492
1.595258
1.598207
1.601356
1.60473
1.608353
1.612256
1.615978
1.61951
1.622841
1.625962
1.58572
1.586641
1.587931
1.589628
1.591778
1.594434
1.597258
1.600267
1.603482
1.606925
1.610622
1.61413
1.617437
1.62053
1.623394
1.585198
1.586089
1.587335
1.588972
1.591044
1.593599
1.596311
1.599195
1.602268
1.605551
1.609067
1.612388
1.615501
1.618391
1.62104
1.603296
1.606029
1.609793
1.614819
1.621444
1.630117
1.640479
1.651773
1.601307
1.603747
1.607104
1.611572
1.617409
1.62499
1.633968
1.644727
1.656549
1.599446
1.601646
1.604681
1.608709
1.613945
1.620681
1.628537
1.637863
1.649093
1.661602
1.59771
1.599711
1.602481
1.606156
1.610916
1.617003
1.623991
1.632156
1.641876
1.653657
1.667031
1.596119
1.597953
1.600502
1.603886
1.60826
1.613827
1.620143
1.627406
1.635911
1.646068
1.658468
1.671792
1.594709
1.596402
1.598764
1.601901
1.60595
1.611085
1.616852
1.623406
1.630952
1.639808
1.650417
1.662472
1.675653
1.593497
1.595069
1.59727
1.600193
1.603959
1.608721
1.614025
1.619987
1.626768
1.634585
1.64377
1.653899
1.665451
1.678156
1.592436
1.593905
1.595964
1.5987
1.602219
1.606655
1.61156
1.617026
1.623173
1.630167
1.638235
1.646897
1.656457
1.667348
1.679247
1.59148
1.592858
1.594794
1.597365
1.600666
1.604818
1.60938
1.614425
1.620048
1.626373
1.633571
1.641111
1.649203
1.658123
1.668243
1.590597
1.591895
1.593722
1.596148
1.599259
1.603163
1.607428
1.612116
1.617299
1.623077
1.629575
1.636254
1.643236
1.650717
1.658944
1.589769
1.590997
1.592728
1.595026
1.597969
1.601655
1.605664
1.610044
1.614857
1.620179
1.626109
1.632102
1.63824
1.644635
1.651466
1.588988
1.590155
1.5918
1.593985
1.59678
1.600273
1.604057
1.608172
1.612668
1.617606
1.623065
1.628506
1.633976
1.639548
1.645321
1.588256
1.589368
1.590938
1.593021
1.595684
1.599006
1.602591
1.606474
1.610695
1.615305
1.620368
1.625353
1.630289
1.635213
1.640185
1.587585
1.588649
1.590151
1.592143
1.594686
1.597855
1.601262
1.604937
1.608916
1.61324
1.617962
1.622565
1.627061
1.631469
1.635816
1.586993
1.588015
1.589456
1.591366
1.5938
1.596826
1.60007
1.603558
1.60732
1.61139
1.615812
1.620086
1.624214
1.628199
1.632051
1.586491
1.587475
1.588862
1.590695
1.593027
1.595922
1.599016
1.602331
1.605894
1.609736
1.61389
1.617876
1.621689
1.625325
1.628779
1.586042
1.586992
1.588328
1.59009
1.592329
1.595101
1.598056
1.601214
1.604598
1.608232
1.612149
1.615884
1.619429
1.622773
1.625906
1.5856
1.586519
1.587808
1.589506
1.591658
1.594318
1.597147
1.600162
1.603383
1.606834
1.61054
1.614057
1.617372
1.620472
1.623342
1.585136
1.586026
1.587272
1.588909
1.590982
1.593539
1.596253
1.599139
1.602216
1.605503
1.609023
1.612348
1.615464
1.618358
1.621009
1.584633
1.585495
1.5867
1.588283
1.590283
1.592747
1.595357
1.598127
1.601074
1.604214
1.607569
1.610726
1.61367
1.616384
1.61885
1.601414
1.603855
1.607212
1.611675
1.6175
1.62506
1.634006
1.644706
1.656401
1.599639
1.601842
1.604876
1.608896
1.614115
1.620819
1.628629
1.637884
1.648988
1.661224
1.597956
1.599961
1.602729
1.606396
1.611135
1.617186
1.624123
1.632214
1.641824
1.653412
1.666364
1.596369
1.598207
1.600754
1.604129
1.608483
1.614014
1.620282
1.627476
1.635883
1.645898
1.658055
1.670874
1.594903
1.596599
1.59896
1.60209
1.606123
1.611231
1.616961
1.623463
1.630938
1.639693
1.650158
1.661999
1.67473
1.593598
1.595172
1.597372
1.600292
1.604051
1.608798
1.614083
1.620017
1.62676
1.634524
1.643639