/*--------------------------------*- C++ -*----------------------------------*\
| =========                 |                                                 |
| \\      /  F ield         | OpenFOAM: The Open Source CFD Toolbox           |
|  \\    /   O peration     | Version:  2306                                  |
|   \\  /    A nd           | Website:  www.openfoam.com                      |
|    \\/     M anipulation  |                                                 |
\*---------------------------------------------------------------------------*/
FoamFile
{
    version     2.0;
    format      ascii;
    arch        "LSB;label=32;scalar=64";
    class       volScalarField;
    location    "1.5/phiI";
    object      T;
}
// * * * * * * * * * * * * * * * * * * * * * * * * * * * * * * * * * * * * * //

dimensions      [0 0 0 1 0 0 0];

internalField   nonuniform List<scalar> 
12000
(
1220.026
1219.854
1222.13
1220.11
1219.454
1222.121
1219.938
1224.031
1222.202
1220.176
1218.701
1222.1
1219.538
1224.067
1222.193
1220.005
1225.777
1224.093
1222.259
1220.226
1217.407
1222.057
1218.789
1224.145
1222.171
1219.606
1225.824
1224.127
1222.25
1220.055
1227.433
1225.829
1224.14
1222.3
1220.259
1215.451
1221.979
1217.506
1224.288
1222.127
1218.86
1225.929
1224.206
1222.227
1219.657
1227.481
1225.876
1224.174
1222.29
1220.087
1229.021
1227.477
1225.868
1224.172
1222.325
1220.271
1213.195
1221.833
1215.577
1224.521
1222.046
1217.588
1226.121
1224.346
1222.182
1218.914
1227.59
1225.981
1224.252
1222.267
1219.69
1229.068
1227.525
1225.914
1224.207
1222.315
1220.099
1230.551
1229.059
1227.509
1225.894
1224.19
1222.332
1220.281
1211.127
1221.536
1213.357
1224.837
1221.895
1215.685
1226.436
1224.574
1222.097
1217.652
1227.789
1226.17
1224.39
1222.22
1218.95
1229.174
1227.634
1226.019
1224.284
1222.291
1219.703
1230.595
1229.106
1227.557
1225.94
1224.224
1222.322
1220.11
1232.022
1230.583
1229.086
1227.529
1225.906
1224.192
1222.338
1220.292
1209.593
1221.159
1211.321
1225.081
1221.598
1213.499
1226.878
1224.88
1221.94
1215.774
1228.116
1226.481
1224.613
1222.132
1217.698
1229.366
1227.831
1226.206
1224.42
1222.242
1218.965
1230.695
1229.211
1227.665
1226.043
1224.3
1222.297
1219.714
1232.064
1230.627
1229.132
1227.576
1225.951
1224.226
1222.327
1220.12
1233.437
1232.051
1230.605
1229.1
1227.535
1225.903
1224.194
1222.343
1220.302
1208.785
1220.823
1209.81
1225.215
1221.226
1211.495
1227.278
1225.116
1221.643
1213.621
1228.577
1226.911
1224.908
1221.968
1215.844
1229.683
1228.154
1226.511
1224.636
1222.149
1217.721
1230.877
1229.402
1227.861
1226.229
1224.434
1222.246
1218.979
1232.158
1230.727
1229.237
1227.684
1226.054
1224.301
1222.301
1219.725
1233.476
1232.092
1230.649
1229.147
1227.583
1225.949
1224.227
1222.333
1220.131
1234.794
1233.462
1232.069
1230.616
1229.103
1227.53
1225.901
1224.195
1222.349
1220.312
1208.785
1220.628
1209.013
1225.27
1220.895
1210.005
1227.57
1225.248
1221.275
1211.647
1229.011
1227.303
1225.137
1221.672
1213.722
1230.128
1228.604
1226.931
1224.921
1221.98
1215.886
1231.176
1229.715
1228.178
1226.528
1224.644
1222.149
1217.742
1232.329
1230.908
1229.426
1227.877
1226.237
1224.432
1222.249
1218.993
1233.565
1232.187
1230.749
1229.251
1227.69
1226.05
1224.301
1222.306
1219.737
1234.831
1233.501
1232.11
1230.66
1229.149
1227.577
1225.946
1224.228
1222.338
1220.141
1236.093
1234.816
1233.477
1232.077
1230.615
1229.094
1227.524
1225.899
1224.196
1222.354
1220.322
1209.593
1220.628
1209.013
1225.286
1220.703
1209.22
1227.75
1225.303
1220.95
1210.18
1229.342
1227.59
1225.267
1221.308
1211.777
1230.554
1229.03
1227.314
1225.143
1221.683
1213.792
1231.597
1230.151
1228.619
1226.937
1224.918
1221.974
1215.923
1232.61
1231.204
1229.735
1228.19
1226.53
1224.637
1222.149
1217.763
1233.726
1232.357
1230.928
1229.439
1227.881
1226.231
1224.43
1222.251
1219.007
1234.915
1233.59
1232.204
1230.759
1229.253
1227.683
1226.047
1224.301
1222.31
1219.748
1236.128
1234.853
1233.516
1232.118
1230.659
1229.14
1227.571
1225.943
1224.229
1222.342
1220.152
1237.336
1236.112
1234.828
1233.482
1232.073
1230.605
1229.087
1227.519
1225.896
1224.197
1222.359
1220.338
1211.127
1220.823
1209.81
1225.286
1220.703
1209.22
1227.835
1225.319
1220.761
1209.405
1229.558
1227.769
1225.321
1220.988
1210.331
1230.885
1229.357
1227.597
1225.27
1221.323
1211.872
1232.001
1230.569
1229.036
1227.312
1225.134
1221.676
1213.851
1233.005
1231.616
1230.162
1228.621
1226.928
1224.902
1221.969
1215.96
1233.99
1232.634
1231.22
1229.742
1228.188
1226.519
1224.631
1222.148
1217.784
1235.067
1233.75
1232.373
1230.937
1229.439
1227.872
1226.225
1224.428
1222.254
1219.021
1236.208
1234.936
1233.604
1232.211
1230.757
1229.243
1227.676
1226.043
1224.3
1222.314
1219.76
1237.369
1236.148
1234.865
1233.521
1232.115
1230.648
1229.132
1227.565
1225.94
1224.229
1222.347
1220.168
1238.522
1237.353
1236.123
1234.831
1233.476
1232.061
1230.595
1229.079
1227.513
1225.893
1224.197
1222.369
1220.358
1213.195
1221.159
1211.321
1225.27
1220.895
1210.005
1227.835
1225.319
1220.761
1209.405
1229.663
1227.853
1225.337
1220.803
1209.568
1231.104
1229.57
1227.774
1225.324
1221.008
1210.444
1232.318
1230.896
1229.359
1227.59
1225.257
1221.32
1211.953
1233.386
1232.014
1230.573
1229.03
1227.295
1225.111
1221.67
1213.909
1234.36
1233.022
1231.625
1230.161
1228.609
1226.907
1224.887
1221.963
1215.996
1235.316
1234.011
1232.648
1231.225
1229.738
1228.175
1226.509
1224.624
1222.148
1217.806
1236.352
1235.088
1233.763
1232.379
1230.934
1229.427
1227.863
1226.22
1224.425
1222.256
1219.036
1237.445
1236.227
1234.949
1233.609
1232.207
1230.746
1229.234
1227.67
1226.039
1224.3
1222.318
1219.777
1238.554
1237.386
1236.158
1234.868
1233.515
1232.102
1230.638
1229.124
1227.559
1225.937
1224.229
1222.357
1220.189
1239.653
1238.537
1237.361
1236.124
1234.824
1233.462
1232.049
1230.585
1229.071
1227.507
1225.89
1224.202
1222.383
1220.384
1215.451
1221.536
1213.357
1225.215
1221.226
1211.495
1227.75
1225.303
1220.95
1210.18
1229.663
1227.853
1225.337
1220.803
1209.568
1231.212
1229.674
1227.857
1225.341
1220.826
1209.691
1232.53
1231.113
1229.57
1227.765
1225.311
1221.008
1210.54
1233.686
1232.328
1230.896
1229.348
1227.569
1225.232
1221.316
1212.032
1234.718
1233.397
1232.016
1230.565
1229.011
1227.267
1225.091
1221.664
1213.967
1235.664
1234.375
1233.028
1231.621
1230.148
1228.586
1226.889
1224.872
1221.958
1216.033
1236.587
1235.334
1234.022
1232.65
1231.217
1229.722
1228.162
1226.499
1224.616
1222.147
1217.828
1237.582
1236.371
1235.099
1233.767
1232.374
1230.92
1229.417
1227.855
1226.213
1224.422
1222.259
1219.057
1238.626
1237.462
1236.237
1234.951
1233.603
1232.194
1230.735
1229.225
1227.662
1226.034
1224.299
1222.327
1219.8
1239.683
1238.569
1237.395
1236.159
1234.861
1233.501
1232.09
1230.628
1229.115
1227.553
1225.933
1224.233
1222.371
1220.215
1240.73
1239.667
1238.544
1237.361
1236.116
1234.809
1233.45
1232.038
1230.575
1229.062
1227.5
1225.89
1224.212
1222.402
1220.414
1217.407
1221.833
1215.577
1225.081
1221.598
1213.499
1227.57
1225.248
1221.275
1211.647
1229.558
1227.769
1225.321
1220.988
1210.331
1231.212
1229.674
1227.857
1225.341
1220.826
1209.691
1232.635
1231.22
1229.673
1227.847
1225.328
1220.829
1209.795
1233.887
1232.537
1231.111
1229.557
1227.741
1225.285
1221.009
1210.635
1235.002
1233.694
1232.326
1230.883
1229.324
1227.536
1225.21
1221.313
1212.11
1236.002
1234.728
1233.397
1232.007
1230.544
1228.981
1227.243
1225.071
1221.658
1214.024
1236.916
1235.677
1234.379
1233.023
1231.607
1230.124
1228.567
1226.871
1224.857
1221.953
1216.069
1237.805
1236.604
1235.343
1234.022
1232.641
1231.2
1229.708
1228.149
1226.488
1224.609
1222.146
1217.857
1238.757
1237.598
1236.38
1235.1
1233.76
1232.359
1230.908
1229.406
1227.846
1226.207
1224.419
1222.266
1219.084
1239.753
1238.641
1237.47
1236.238
1234.944
1233.588
1232.182
1230.724
1229.216
1227.655
1226.029
1224.302
1222.34
1219.828
1240.759
1239.697
1238.576
1237.394
1236.151
1234.845
1233.488
1232.079
1230.617
1229.107
1227.546
1225.933
1224.242
1222.389
1220.247
1241.753
1240.742
1239.673
1238.543
1237.352
1236.1
1234.796
1233.437
1232.026
1230.564
1229.053
1227.498
1225.895
1224.225
1222.426
1218.701
1221.979
1217.506
1224.837
1221.895
1215.685
1227.278
1225.116
1221.643
1213.621
1229.342
1227.59
1225.267
1221.308
1211.777
1231.104
1229.57
1227.774
1225.324
1221.008
1210.444
1232.635
1231.22
1229.673
1227.847
1225.328
1220.829
1209.795
1233.987
1232.641
1231.217
1229.659
1227.823
1225.302
1220.832
1209.897
1235.193
1233.893
1232.534
1231.096
1229.53
1227.707
1225.262
1221.008
1210.728
1236.27
1235.009
1233.691
1232.313
1230.858
1229.29
1227.509
1225.187
1221.309
1212.186
1237.236
1236.01
1234.728
1233.387
1231.986
1230.515
1228.956
1227.218
1225.05
1221.651
1214.08
1238.117
1236.927
1235.68
1234.374
1233.008
1231.583
1230.104
1228.547
1226.852
1224.842
1221.947
1216.111
1238.969
1237.82
1236.611
1235.342
1234.012
1232.623
1231.185
1229.693
1228.136
1226.477
1224.6
1222.15
1217.891
1239.877
1238.771
1237.606
1236.38
1235.092
1233.744
1232.345
1230.896
1229.395
1227.836
1226.199
1224.42
1222.278
1219.116
1240.825
1239.766
1238.648
1237.47
1236.229
1234.928
1233.575
1232.17
1230.713
1229.206
1227.647
1226.029
1224.31
1222.358
1219.861
1241.782
1240.772
1239.703
1238.575
1237.385
1236.135
1234.832
1233.476
1232.067
1230.607
1229.097
1227.542
1225.937
1224.255
1222.413
1242.725
1241.765
1240.747
1239.67
1238.533
1237.336
1236.086
1234.782
1233.425
1232.015
1230.553
1229.047
1227.499
1225.904
1224.243
1219.454
1222.057
1218.789
1224.521
1222.046
1217.588
1226.878
1224.88
1221.94
1215.774
1229.011
1227.303
1225.137
1221.672
1213.722
1230.885
1229.357
1227.597
1225.27
1221.323
1211.872
1232.53
1231.113
1229.57
1227.765
1225.311
1221.008
1210.54
1233.987
1232.641
1231.217
1229.659
1227.823
1225.302
1220.832
1209.897
1235.287
1233.993
1232.637
1231.201
1229.631
1227.789
1225.279
1220.834
1209.998
1236.451
1235.198
1233.889
1232.518
1231.069
1229.494
1227.678
1225.24
1221.008
1210.819
1237.49
1236.276
1235.005
1233.678
1232.288
1230.825
1229.261
1227.481
1225.165
1221.305
1212.261
1238.42
1237.243
1236.009
1234.717
1233.366
1231.956
1230.489
1228.93
1227.194
1225.03
1221.644
1214.14
1239.266
1238.127
1236.93
1235.673
1234.357
1232.984
1231.562
1230.083
1228.527
1226.833
1224.826
1221.946
1216.159
1240.081
1238.982
1237.825
1236.608
1235.33
1233.993
1232.607
1231.17
1229.679
1228.123
1226.464
1224.597
1222.159
1217.931
1240.945
1239.891
1238.778
1237.605
1236.37
1235.075
1233.729
1232.332
1230.883
1229.383
1227.826
1226.196
1224.425
1222.294
1219.153
1241.845
1240.838
1239.772
1238.647
1237.46
1236.213
1234.914
1233.562
1232.157
1230.702
1229.196
1227.643
1226.032
1224.322
1222.381
1242.753
1241.793
1240.776
1239.701
1238.565
1237.369
1236.121
1234.818
1233.463
1232.055
1230.595
1229.091
1227.543
1225.946
1224.273
1243.647
1242.736
1241.769
1240.744
1239.66
1238.517
1237.321
1236.072
1234.769
1233.412
1232.002
1230.545
1229.045
1227.504
1225.917
1219.854
1222.1
1219.538
1224.288
1222.127
1218.86
1226.436
1224.574
1222.097
1217.652
1228.577
1226.911
1224.908
1221.968
1215.844
1230.554
1229.03
1227.314
1225.143
1221.683
1213.792
1232.318
1230.896
1229.359
1227.59
1225.257
1221.32
1211.953
1233.887
1232.537
1231.111
1229.557
1227.741
1225.285
1221.009
1210.635
1235.287
1233.993
1232.637
1231.201
1229.631
1227.789
1225.279
1220.834
1209.998
1236.541
1235.292
1233.987
1232.621
1231.173
1229.595
1227.759
1225.257
1220.835
1210.097
1237.662
1236.455
1235.193
1233.874
1232.492
1231.033
1229.463
1227.648
1225.216
1221.007
1210.908
1238.662
1237.495
1236.272
1234.992
1233.653
1232.255
1230.796
1229.232
1227.453
1225.142
1221.3
1212.34
1239.555
1238.427
1237.241
1235.998
1234.696
1233.337
1231.931
1230.463
1228.904
1227.169
1225.009
1221.643
1214.206
1240.363
1239.275
1238.128
1236.922
1235.657
1234.333
1232.963
1231.541
1230.062
1228.506
1226.814
1224.815
1221.951
1216.211
1241.14
1240.092
1238.987
1237.822
1236.596
1235.311
1233.976
1232.591
1231.154
1229.664
1228.108
1226.456
1224.597
1222.173
1217.977
1241.96
1240.957
1239.896
1238.775
1237.594
1236.353
1235.06
1233.715
1232.318
1230.87
1229.371
1227.82
1226.197
1224.434
1222.316
1242.814
1241.857
1240.843
1239.77
1238.636
1237.443
1236.199
1234.9
1233.548
1232.144
1230.689
1229.189
1227.642
1226.039
1224.338
1243.673
1242.763
1241.797
1240.773
1239.69
1238.548
1237.354
1236.107
1234.805
1233.45
1232.042
1230.587
1229.089
1227.548
1225.959
1244.518
1243.656
1242.739
1241.765
1240.733
1239.643
1238.502
1237.307
1236.058
1234.755
1233.398
1231.992
1230.541
1229.047
1227.513
1220.026
1222.121
1219.938
1224.145
1222.171
1219.606
1226.121
1224.346
1222.182
1218.914
1228.116
1226.481
1224.613
1222.132
1217.698
1230.128
1228.604
1226.931
1224.921
1221.98
1215.886
1232.001
1230.569
1229.036
1227.312
1225.134
1221.676
1213.851
1233.686
1232.328
1230.896
1229.348
1227.569
1225.232
1221.316
1212.032
1235.193
1233.893
1232.534
1231.096
1229.53
1227.707
1225.262
1221.008
1210.728
1236.541
1235.292
1233.987
1232.621
1231.173
1229.595
1227.759
1225.257
1220.835
1210.097
1237.748
1236.544
1235.286
1233.971
1232.593
1231.137
1229.563
1227.729
1225.234
1220.836
1210.193
1238.826
1237.666
1236.45
1235.178
1233.848
1232.457
1231.003
1229.433
1227.619
1225.193
1221.005
1211.001
1239.786
1238.667
1237.491
1236.259
1234.968
1233.622
1232.227
1230.767
1229.203
1227.425
1225.118
1221.3
1212.424
1240.64
1239.561
1238.425
1237.23
1235.977
1234.668
1233.313
1231.905
1230.437
1228.878
1227.143
1224.992
1221.646
1214.276
1241.41
1240.372
1239.275
1238.12
1236.906
1235.633
1234.312
1232.942
1231.52
1230.041
1228.485
1226.798
1224.808
1221.96
1216.269
1242.147
1241.15
1240.096
1238.983
1237.809
1236.577
1235.294
1233.96
1232.574
1231.138
1229.648
1228.097
1226.452
1224.602
1222.192
1242.925
1241.971
1240.961
1239.893
1238.764
1237.576
1236.337
1235.045
1233.7
1232.304
1230.856
1229.362
1227.817
1226.202
1224.448
1243.732
1242.824
1241.861
1240.839
1239.759
1238.619
1237.429
1236.184
1234.886
1233.535
1232.131
1230.68
1229.186
1227.646
1226.051
1244.544
1243.682
1242.766
1241.793
1240.762
1239.673
1238.533
1237.34
1236.092
1234.791
1233.435
1232.031
1230.582
1229.09
1227.556
1245.342
1244.527
1243.659
1242.735
1241.754
1240.716
1239.628
1238.487
1237.293
1236.044
1234.74
1233.386
1231.986
1230.54
1229.053
1222.13
1220.11
1224.067
1222.193
1220.005
1225.929
1224.206
1222.227
1219.657
1227.789
1226.17
1224.39
1222.22
1218.95
1229.683
1228.154
1226.511
1224.636
1222.149
1217.721
1231.597
1230.151
1228.619
1226.937
1224.918
1221.974
1215.923
1233.386
1232.014
1230.573
1229.03
1227.295
1225.111
1221.67
1213.909
1235.002
1233.694
1232.326
1230.883
1229.324
1227.536
1225.21
1221.313
1212.11
1236.451
1235.198
1233.889
1232.518
1231.069
1229.494
1227.678
1225.24
1221.008
1210.819
1237.748
1236.544
1235.286
1233.971
1232.593
1231.137
1229.563
1227.729
1225.234
1220.836
1210.193
1238.908
1237.751
1236.539
1235.271
1233.944
1232.558
1231.105
1229.532
1227.698
1225.21
1220.837
1210.293
1239.943
1238.829
1237.661
1236.435
1235.152
1233.814
1232.427
1230.972
1229.402
1227.589
1225.169
1221.008
1211.098
1240.861
1239.79
1238.663
1237.478
1236.235
1234.937
1233.594
1232.199
1230.738
1229.173
1227.396
1225.099
1221.306
1212.511
1241.675
1240.645
1239.558
1238.413
1237.21
1235.95
1234.643
1233.287
1231.88
1230.411
1228.851
1227.121
1224.98
1221.654
1214.351
1242.407
1241.418
1240.371
1239.267
1238.103
1236.882
1235.612
1234.291
1232.92
1231.498
1230.019
1228.467
1226.786
1224.806
1221.974
1243.105
1242.157
1241.153
1240.091
1238.97
1237.79
1236.559
1235.277
1233.942
1232.557
1231.12
1229.634
1228.09
1226.452
1224.612
1243.839
1242.935
1241.975
1240.958
1239.881
1238.747
1237.561
1236.322
1235.03
1233.685
1232.289
1230.845
1229.357
1227.818
1226.211
1244.601
1243.742
1242.828
1241.857
1240.828
1239.742
1238.604
1237.414
1236.169
1234.871
1233.52
1232.12
1230.674
1229.186
1227.654
1245.367
1244.553
1243.685
1242.762
1241.782
1240.745
1239.659
1238.519
1237.325
1236.078
1234.776
1233.424
1232.025
1230.581
1229.096
1246.118
1245.35
1244.53
1243.655
1242.724
1241.737
1240.702
1239.614
1238.473
1237.278
1236.028
1234.728
1233.379
1231.983
1230.543
1224.031
1222.202
1220.176
1225.824
1224.127
1222.25
1220.055
1227.59
1225.981
1224.252
1222.267
1219.69
1229.366
1227.831
1226.206
1224.42
1222.242
1218.965
1231.176
1229.715
1228.178
1226.528
1224.644
1222.149
1217.742
1233.005
1231.616
1230.162
1228.621
1226.928
1224.902
1221.969
1215.96
1234.718
1233.397
1232.016
1230.565
1229.011
1227.267
1225.091
1221.664
1213.967
1236.27
1235.009
1233.691
1232.313
1230.858
1229.29
1227.509
1225.187
1221.309
1212.186
1237.662
1236.455
1235.193
1233.874
1232.492
1231.033
1229.463
1227.648
1225.216
1221.007
1210.908
1238.908
1237.751
1236.539
1235.271
1233.944
1232.558
1231.105
1229.532
1227.698
1225.21
1220.837
1210.293
1240.021
1238.911
1237.745
1236.523
1235.245
1233.911
1232.527
1231.074
1229.5
1227.668
1225.186
1220.842
1210.398
1241.011
1239.946
1238.824
1237.646
1236.41
1235.12
1233.786
1232.398
1230.941
1229.37
1227.558
1225.149
1221.016
1211.199
1241.888
1240.865
1239.786
1238.65
1237.455
1236.206
1234.911
1233.567
1232.17
1230.709
1229.143
1227.37
1225.085
1221.315
1212.603
1242.662
1241.68
1240.642
1239.547
1238.393
1237.183
1235.926
1234.619
1233.262
1231.854
1230.384
1228.827
1227.104
1224.973
1221.667
1243.355
1242.414
1241.417
1240.363
1239.25
1238.08
1236.861
1235.591
1234.27
1232.899
1231.476
1230
1228.453
1226.779
1224.808
1244.013
1243.114
1242.159
1241.148
1240.078
1238.95
1237.772
1236.542
1235.259
1233.925
1232.539
1231.106
1229.625
1228.087
1226.457
1244.705
1243.848
1242.938
1241.971
1240.946
1239.863
1238.731
1237.545
1236.306
1235.014
1233.669
1232.276
1230.838
1229.355
1227.824
1245.422
1244.61
1243.744
1242.823
1241.846
1240.811
1239.727
1238.589
1237.399
1236.154
1234.856
1233.507
1232.112
1230.673
1229.19
1246.142
1245.375
1244.555
1243.681
1242.751
1241.765
1240.731
1239.644
1238.504
1237.31
1236.062
1234.763
1233.416
1232.022
1230.584
1246.849
1246.126
1245.352
1244.525
1243.643
1242.707
1241.723
1240.687
1239.599
1238.458
1237.262
1236.015
1234.719
1233.374
1231.984
1225.777
1224.093
1222.259
1220.226
1227.481
1225.876
1224.174
1222.29
1220.087
1229.174
1227.634
1226.019
1224.284
1222.291
1219.703
1230.877
1229.402
1227.861
1226.229
1224.434
1222.246
1218.979
1232.61
1231.204
1229.735
1228.19
1226.53
1224.637
1222.149
1217.763
1234.36
1233.022
1231.625
1230.161
1228.609
1226.907
1224.887
1221.963
1215.996
1236.002
1234.728
1233.397
1232.007
1230.544
1228.981
1227.243
1225.071
1221.658
1214.024
1237.49
1236.276
1235.005
1233.678
1232.288
1230.825
1229.261
1227.481
1225.165
1221.305
1212.261
1238.826
1237.666
1236.45
1235.178
1233.848
1232.457
1231.003
1229.433
1227.619
1225.193
1221.005
1211.001
1240.021
1238.911
1237.745
1236.523
1235.245
1233.911
1232.527
1231.074
1229.5
1227.668
1225.186
1220.842
1210.398
1241.086
1240.023
1238.905
1237.73
1236.498
1235.212
1233.881
1232.497
1231.043
1229.468
1227.637
1225.166
1220.852
1210.506
1242.032
1241.014
1239.94
1238.81
1237.622
1236.38
1235.093
1233.757
1232.368
1230.911
1229.338
1227.531
1225.134
1221.029
1211.304
1242.866
1241.891
1240.86
1239.773
1238.627
1237.426
1236.18
1234.884
1233.539
1232.142
1230.679
1229.115
1227.349
1225.075
1221.33
1243.6
1242.666
1241.677
1240.631
1239.527
1238.367
1237.16
1235.902
1234.594
1233.237
1231.827
1230.36
1228.808
1227.091
1224.97
1244.253
1243.361
1242.413
1241.409
1240.346
1239.227
1238.06
1236.841
1235.57
1234.249
1232.876
1231.456
1229.984
1228.443
1226.777
1244.872
1244.021
1243.115
1242.154
1241.134
1240.058
1238.933
1237.755
1236.524
1235.242
1233.906
1232.523
1231.095
1229.62
1228.088
1245.522
1244.713
1243.851
1242.933
1241.959
1240.928
1239.848
1238.715
1237.529
1236.29
1234.997
1233.655
1232.267
1230.834
1229.357
1246.196
1245.43
1244.612
1243.74
1242.812
1241.828
1240.796
1239.711
1238.574
1237.383
1236.138
1234.842
1233.498
1232.108
1230.674
1246.872
1246.15
1245.377
1244.55
1243.669
1242.734
1241.751
1240.716
1239.629
1238.489
1237.294
1236.048
1234.754
1233.411
1232.022
1247.534
1246.856
1246.128
1245.347
1244.514
1243.627
1242.693
1241.708
1240.672
1239.584
1238.441
1237.248
1236.005
1234.713
1233.373
1227.433
1225.829
1224.14
1222.3
1220.259
1229.068
1227.525
1225.914
1224.207
1222.315
1220.099
1230.695
1229.211
1227.665
1226.043
1224.3
1222.297
1219.714
1232.329
1230.908
1229.426
1227.877
1226.237
1224.432
1222.249
1218.993
1233.99
1232.634
1231.22
1229.742
1228.188
1226.519
1224.631
1222.148
1217.784
1235.664
1234.375
1233.028
1231.621
1230.148
1228.586
1226.889
1224.872
1221.958
1216.033
1237.236
1236.01
1234.728
1233.387
1231.986
1230.515
1228.956
1227.218
1225.05
1221.651
1214.08
1238.662
1237.495
1236.272
1234.992
1233.653
1232.255
1230.796
1229.232
1227.453
1225.142
1221.3
1212.34
1239.943
1238.829
1237.661
1236.435
1235.152
1233.814
1232.427
1230.972
1229.402
1227.589
1225.169
1221.008
1211.098
1241.086
1240.023
1238.905
1237.73
1236.498
1235.212
1233.881
1232.497
1231.043
1229.468
1227.637
1225.166
1220.852
1210.506
1242.104
1241.088
1240.018
1238.89
1237.706
1236.467
1235.184
1233.852
1232.467
1231.011
1229.435
1227.609
1225.151
1220.866
1210.618
1243.005
1242.034
1241.008
1239.926
1238.787
1237.592
1236.353
1235.065
1233.728
1232.338
1230.878
1229.309
1227.508
1225.123
1221.047
1243.797
1242.869
1241.886
1240.847
1239.751
1238.599
1237.401
1236.154
1234.858
1233.512
1232.112
1230.651
1229.092
1227.332
1225.069
1244.49
1243.603
1242.662
1241.666
1240.612
1239.502
1238.344
1237.136
1235.878
1234.57
1233.211
1231.803
1230.339
1228.793
1227.082
1245.105
1244.259
1243.359
1242.404
1241.392
1240.324
1239.208
1238.04
1236.82
1235.549
1234.226
1232.856
1231.44
1229.973
1228.438
1245.685
1244.88
1244.022
1243.109
1242.14
1241.115
1240.041
1238.915
1237.737
1236.507
1235.222
1233.89
1232.511
1231.088
1229.618
1246.293
1245.53
1244.715
1243.846
1242.921
1241.941
1240.912
1239.832
1238.699
1237.513
1236.273
1234.983
1233.645
1232.261
1230.834
1246.924
1246.204
1245.432
1244.607
1243.728
1242.795
1241.813
1240.781
1239.696
1238.558
1237.367
1236.124
1234.832
1233.493
1232.108
1247.557
1246.879
1246.151
1245.372
1244.539
1243.653
1242.719
1241.736
1240.701
1239.613
1238.472
1237.28
1236.038
1234.748
1233.41
1248.175
1247.541
1246.857
1246.123
1245.336
1244.497
1243.612
1242.678
1241.693
1240.657
1239.567
1238.427
1237.237
1235.998
1234.71
1229.021
1227.477
1225.868
1224.172
1222.325
1220.271
1230.595
1229.106
1227.557
1225.94
1224.224
1222.322
1220.11
1232.158
1230.727
1229.237
1227.684
1226.054
1224.301
1222.301
1219.725
1233.726
1232.357
1230.928
1229.439
1227.881
1226.231
1224.43
1222.251
1219.007
1235.316
1234.011
1232.648
1231.225
1229.738
1228.175
1226.509
1224.624
1222.148
1217.806
1236.916
1235.677
1234.379
1233.023
1231.607
1230.124
1228.567
1226.871
1224.857
1221.953
1216.069
1238.42
1237.243
1236.009
1234.717
1233.366
1231.956
1230.489
1228.93
1227.194
1225.03
1221.644
1214.14
1239.786
1238.667
1237.491
1236.259
1234.968
1233.622
1232.227
1230.767
1229.203
1227.425
1225.118
1221.3
1212.424
1241.011
1239.946
1238.824
1237.646
1236.41
1235.12
1233.786
1232.398
1230.941
1229.37
1227.558
1225.149
1221.016
1211.199
1242.104
1241.088
1240.018
1238.89
1237.706
1236.467
1235.184
1233.852
1232.467
1231.011
1229.435
1227.609
1225.151
1220.866
1210.618
1243.075
1242.106
1241.083
1240.003
1238.867
1237.675
1236.44
1235.155
1233.823
1232.436
1230.978
1229.405
1227.585
1225.14
1220.886
1243.931
1243.007
1242.029
1240.995
1239.904
1238.758
1237.566
1236.326
1235.037
1233.699
1232.306
1230.849
1229.284
1227.49
1225.117
1244.681
1243.799
1242.864
1241.874
1240.826
1239.724
1238.575
1237.377
1236.128
1234.831
1233.483
1232.085
1230.627
1229.073
1227.32
1245.334
1244.493
1243.6
1242.652
1241.647
1240.587
1239.48
1238.322
1237.113
1235.854
1234.544
1233.186
1231.782
1230.323
1228.782
1245.91
1245.11
1244.258
1243.351
1242.388
1241.37
1240.304
1239.188
1238.019
1236.799
1235.526
1234.205
1232.839
1231.427
1229.966
1246.451
1245.692
1244.881
1244.016
1243.096
1242.121
1241.098
1240.024
1238.898
1237.719
1236.487
1235.205
1233.877
1232.503
1231.084
1247.019
1246.301
1245.532
1244.71
1243.834
1242.903
1241.925
1240.896
1239.816
1238.683
1237.495
1236.258
1234.971
1233.638
1232.26
1247.608
1246.932
1246.205
1245.427
1244.596
1243.711
1242.78
1241.798
1240.765
1239.68
1238.541
1237.352
1236.113
1234.825
1233.491
1248.197
1247.563
1246.88
1246.146
1245.36
1244.522
1243.638
1242.705
1241.721
1240.685
1239.597
1238.458
1237.269
1236.031
1234.745
1248.773
1248.182
1247.542
1246.852
1246.111
1245.32
1244.483
1243.598
1242.663
1241.678
1240.64
1239.553
1238.416
1237.229
1235.994
1230.551
1229.059
1227.509
1225.894
1224.19
1222.332
1220.281
1232.064
1230.627
1229.132
1227.576
1225.951
1224.226
1222.327
1220.12
1233.565
1232.187
1230.749
1229.251
1227.69
1226.05
1224.301
1222.306
1219.737
1235.067
1233.75
1232.373
1230.937
1229.439
1227.872
1226.225
1224.428
1222.254
1219.021
1236.587
1235.334
1234.022
1232.65
1231.217
1229.722
1228.162
1226.499
1224.616
1222.147
1217.828
1238.117
1236.927
1235.68
1234.374
1233.008
1231.583
1230.104
1228.547
1226.852
1224.842
1221.947
1216.111
1239.555
1238.427
1237.241
1235.998
1234.696
1233.337
1231.931
1230.463
1228.904
1227.169
1225.009
1221.643
1214.206
1240.861
1239.79
1238.663
1237.478
1236.235
1234.937
1233.594
1232.199
1230.738
1229.173
1227.396
1225.099
1221.306
1212.511
1242.032
1241.014
1239.94
1238.81
1237.622
1236.38
1235.093
1233.757
1232.368
1230.911
1229.338
1227.531
1225.134
1221.029
1211.304
1243.075
1242.106
1241.083
1240.003
1238.867
1237.675
1236.44
1235.155
1233.823
1232.436
1230.978
1229.405
1227.585
1225.14
1220.886
1243.998
1243.076
1242.1
1241.069
1239.98
1238.838
1237.649
1236.412
1235.127
1233.793
1232.404
1230.948
1229.379
1227.566
1225.134
1244.81
1243.933
1243.002
1242.016
1240.973
1239.876
1238.733
1237.541
1236.299
1235.009
1233.669
1232.277
1230.823
1229.263
1227.476
1245.518
1244.683
1243.795
1242.852
1241.853
1240.8
1239.701
1238.551
1237.352
1236.103
1234.803
1233.456
1232.061
1230.608
1229.059
1246.131
1245.337
1244.49
1243.589
1242.633
1241.623
1240.565
1239.458
1238.299
1237.09
1235.828
1234.52
1233.166
1231.766
1230.311
1246.669
1245.915
1245.108
1244.249
1243.335
1242.366
1241.351
1240.285
1239.167
1237.999
1236.777
1235.506
1234.188
1232.826
1231.419
1247.172
1246.457
1245.692
1244.874
1244.002
1243.077
1242.104
1241.081
1240.006
1238.88
1237.7
1236.47
1235.192
1233.867
1232.498
1247.699
1247.026
1246.302
1245.527
1244.698
1243.816
1242.888
1241.91
1240.88
1239.799
1238.665
1237.48
1236.246
1234.963
1233.635
1248.247
1247.614
1246.933
1246.2
1245.416
1244.579
1243.697
1242.765
1241.783
1240.75
1239.663
1238.526
1237.34
1236.105
1234.822
1248.795
1248.204
1247.564
1246.875
1246.135
1245.344
1244.508
1243.624
1242.69
1241.706
1240.669
1239.582
1238.446
1237.261
1236.027
1249.329
1248.779
1248.182
1247.537
1246.841
1246.095
1245.306
1244.469
1243.583
1242.648
1241.662
1240.626
1239.541
1238.407
1237.225
1232.022
1230.583
1229.086
1227.529
1225.906
1224.192
1222.338
1220.292
1233.476
1232.092
1230.649
1229.147
1227.583
1225.949
1224.227
1222.333
1220.131
1234.915
1233.59
1232.204
1230.759
1229.253
1227.683
1226.047
1224.301
1222.31
1219.748
1236.352
1235.088
1233.763
1232.379
1230.934
1229.427
1227.863
1226.22
1224.425
1222.256
1219.036
1237.805
1236.604
1235.343
1234.022
1232.641
1231.2
1229.708
1228.149
1226.488
1224.609
1222.146
1217.857
1239.266
1238.127
1236.93
1235.673
1234.357
1232.984
1231.562
1230.083
1228.527
1226.833
1224.826
1221.946
1216.159
1240.64
1239.561
1238.425
1237.23
1235.977
1234.668
1233.313
1231.905
1230.437
1228.878
1227.143
1224.992
1221.646
1214.276
1241.888
1240.865
1239.786
1238.65
1237.455
1236.206
1234.911
1233.567
1232.17
1230.709
1229.143
1227.37
1225.085
1221.315
1212.603
1243.005
1242.034
1241.008
1239.926
1238.787
1237.592
1236.353
1235.065
1233.728
1232.338
1230.878
1229.309
1227.508
1225.123
1221.047
1243.998
1243.076
1242.1
1241.069
1239.98
1238.838
1237.649
1236.412
1235.127
1233.793
1232.404
1230.948
1229.379
1227.566
1225.134
1244.875
1244
1243.071
1242.087
1241.047
1239.952
1238.812
1237.623
1236.385
1235.099
1233.762
1232.374
1230.922
1229.357
1227.552
1245.644
1244.812
1243.927
1242.989
1241.994
1240.946
1239.852
1238.708
1237.515
1236.273
1234.98
1233.64
1232.252
1230.802
1229.247
1246.311
1245.52
1244.678
1243.783
1242.832
1241.828
1240.778
1239.677
1238.527
1237.327
1236.075
1234.776
1233.433
1232.042
1230.593
1246.884
1246.134
1245.333
1244.48
1243.571
1242.61
1241.602
1240.544
1239.435
1238.276
1237.065
1235.805
1234.499
1233.149
1231.753
1247.384
1246.674
1245.913
1245.1
1244.233
1243.314
1242.348
1241.332
1240.265
1239.147
1237.976
1236.756
1235.488
1234.175
1232.817
1247.848
1247.178
1246.458
1245.686
1244.861
1243.984
1243.061
1242.087
1241.064
1239.989
1238.86
1237.682
1236.455
1235.181
1233.861
1248.336
1247.706
1247.027
1246.297
1245.514
1244.681
1243.801
1242.872
1241.894
1240.864
1239.782
1238.649
1237.467
1236.237
1234.959
1248.843
1248.253
1247.615
1246.928
1246.189
1245.399
1244.565
1243.682
1242.75
1241.767
1240.733
1239.648
1238.514
1237.332
1236.101
1249.35
1248.801
1248.204
1247.559
1246.864
1246.119
1245.33
1244.494
1243.609
1242.675
1241.689
1240.654
1239.57
1238.438
1237.256
1249.843
1249.335
1248.78
1248.177
1247.526
1246.825
1246.082
1245.292
1244.454
1243.568
1242.632
1241.647
1240.614
1239.532
1238.402
1233.437
1232.051
1230.605
1229.1
1227.535
1225.903
1224.194
1222.343
1220.302
1234.831
1233.501
1232.11
1230.66
1229.149
1227.577
1225.946
1224.228
1222.338
1220.141
1236.208
1234.936
1233.604
1232.211
1230.757
1229.243
1227.676
1226.043
1224.3
1222.314
1219.76
1237.582
1236.371
1235.099
1233.767
1232.374
1230.92
1229.417
1227.855
1226.213
1224.422
1222.259
1219.057
1238.969
1237.82
1236.611
1235.342
1234.012
1232.623
1231.185
1229.693
1228.136
1226.477
1224.6
1222.15
1217.891
1240.363
1239.275
1238.128
1236.922
1235.657
1234.333
1232.963
1231.541
1230.062
1228.506
1226.814
1224.815
1221.951
1216.211
1241.675
1240.645