/*--------------------------------*- C++ -*----------------------------------*\
| =========                 |                                                 |
| \\      /  F ield         | OpenFOAM: The Open Source CFD Toolbox           |
|  \\    /   O peration     | Version:  2306                                  |
|   \\  /    A nd           | Website:  www.openfoam.com                      |
|    \\/     M anipulation  |                                                 |
\*---------------------------------------------------------------------------*/
FoamFile
{
    version     2.0;
    format      ascii;
    arch        "LSB;label=32;scalar=64";
    class       volScalarField;
    location    "0.6/fuel";
    object      diffSp.H2;
}
// * * * * * * * * * * * * * * * * * * * * * * * * * * * * * * * * * * * * * //

dimensions      [0 2 -1 0 0 0 0];

internalField   nonuniform List<scalar> 
16000
(
9.189558e-05
9.188651e-05
9.209686e-05
9.190623e-05
9.186361e-05
9.209949e-05
9.189734e-05
9.227886e-05
9.210553e-05
9.192897e-05
9.182043e-05
9.210358e-05
9.187482e-05
9.228443e-05
9.210822e-05
9.192043e-05
9.244473e-05
9.228586e-05
9.212437e-05
9.195561e-05
9.173941e-05
9.21095e-05
9.183233e-05
9.229543e-05
9.211242e-05
9.189865e-05
9.245099e-05
9.229145e-05
9.212723e-05
9.194747e-05
9.259971e-05
9.245042e-05
9.230145e-05
9.214653e-05
9.200952e-05
9.162698e-05
9.211028e-05
9.175242e-05
9.231391e-05
9.211849e-05
9.185739e-05
9.246378e-05
9.230249e-05
9.213175e-05
9.192655e-05
9.260596e-05
9.245669e-05
9.230714e-05
9.214959e-05
9.200218e-05
9.274676e-05
9.260437e-05
9.246353e-05
9.231989e-05
9.219157e-05
0.0001380334
9.14788e-05
9.211198e-05
9.164157e-05
9.233636e-05
9.211936e-05
9.177928e-05
9.248562e-05
9.232096e-05
9.213828e-05
9.18867e-05
9.261891e-05
9.246947e-05
9.231836e-05
9.215451e-05
9.198292e-05
9.275276e-05
9.261062e-05
9.246986e-05
9.23257e-05
9.219506e-05
0.0001380227
9.288703e-05
9.275059e-05
9.261554e-05
9.247912e-05
9.235759e-05
0.0001383033
0.0001380425
9.134303e-05
9.208908e-05
9.149519e-05
9.236828e-05
9.212107e-05
9.167077e-05
9.25146e-05
9.234326e-05
9.213964e-05
9.181061e-05
9.264116e-05
9.249125e-05
9.233704e-05
9.216158e-05
9.194571e-05
9.276529e-05
9.262355e-05
9.248275e-05
9.233713e-05
9.220085e-05
0.0001379945
9.289271e-05
9.275659e-05
9.262183e-05
9.248553e-05
9.236369e-05
0.0001383086
0.000138032
9.302129e-05
9.289019e-05
9.276021e-05
9.262891e-05
9.251128e-05
0.0001385497
0.0001383109
0.0001380549
9.124016e-05
9.206144e-05
9.136101e-05
9.238261e-05
9.209836e-05
9.152667e-05
9.255561e-05
9.237486e-05
9.214179e-05
9.170462e-05
9.267164e-05
9.252002e-05
9.235946e-05
9.216356e-05
9.187323e-05
9.27869e-05
9.264572e-05
9.250462e-05
9.235609e-05
9.220919e-05
0.0001379398
9.290463e-05
9.276909e-05
9.263482e-05
9.249855e-05
9.237567e-05
0.0001383175
0.0001380042
9.302665e-05
9.289587e-05
9.276623e-05
9.263526e-05
9.251788e-05
0.0001385589
0.0001383162
0.0001380446
9.31499e-05
9.30239e-05
9.289855e-05
9.277181e-05
9.265679e-05
0.0001387781
0.0001385559
0.0001383212
0.0001380661
9.118583e-05
9.203569e-05
9.125927e-05
9.238968e-05
9.207108e-05
9.139437e-05
9.258301e-05
9.238897e-05
9.211955e-05
9.156291e-05
9.271463e-05
9.25606e-05
9.239103e-05
9.216628e-05
9.177155e-05
9.281695e-05
9.267597e-05
9.253337e-05
9.237872e-05
9.221269e-05
0.0001378328
9.29252e-05
9.279061e-05
9.265704e-05
9.252057e-05
9.239539e-05
0.0001383303
0.0001379503
9.303791e-05
9.290775e-05
9.277878e-05
9.264834e-05
9.253129e-05
0.0001385769
0.0001383251
0.0001380173
9.315495e-05
9.302925e-05
9.290425e-05
9.277788e-05
9.266328e-05
0.000138788
0.0001385651
0.0001383266
0.000138056
9.327316e-05
9.315206e-05
9.303123e-05
9.290873e-05
9.279628e-05
0.0001389947
0.0001387833
0.0001385645
0.0001383304
0.0001380789
9.118583e-05
9.202092e-05
9.120552e-05
9.239057e-05
9.204569e-05
9.129393e-05
9.26028e-05
9.239601e-05
9.209278e-05
9.143256e-05
9.274647e-05
9.258766e-05
9.240511e-05
9.214458e-05
9.163345e-05
9.285925e-05
9.271852e-05
9.257374e-05
9.241034e-05
9.221698e-05
0.0001376825
9.295409e-05
9.282044e-05
9.268719e-05
9.254935e-05
9.241884e-05
0.0001383357
0.0001378445
9.305737e-05
9.292824e-05
9.280031e-05
9.267063e-05
9.255381e-05
0.0001386065
0.0001383379
0.0001379643
9.316559e-05
9.304048e-05
9.291616e-05
9.279049e-05
9.267664e-05
0.0001388081
0.000138583
0.0001383356
0.0001380292
9.327793e-05
9.315709e-05
9.303659e-05
9.291445e-05
9.280246e-05
0.0001390045
0.0001387932
0.0001385736
0.0001383358
0.000138069
9.339127e-05
9.327494e-05
9.315852e-05
9.304021e-05
9.293043e-05
0.0001392026
0.000138999
0.0001387904
0.0001385721
0.000138341
0.0003362972
9.124016e-05
9.202092e-05
9.120552e-05
9.239007e-05
9.203113e-05
9.124082e-05
9.261385e-05
9.239694e-05
9.206782e-05
9.133343e-05
9.277088e-05
9.260727e-05
9.241221e-05
9.211836e-05
9.150577e-05
9.289205e-05
9.274999e-05
9.260059e-05
9.242445e-05
9.219647e-05
0.0001374778
9.299467e-05
9.286233e-05
9.272949e-05
9.25896e-05
9.24512e-05
0.0001383422
0.0001376956
9.308489e-05
9.295692e-05
9.283002e-05
9.270074e-05
9.258308e-05
0.0001386414
0.0001383432
0.0001378599
9.3184e-05
9.305986e-05
9.293664e-05
9.281204e-05
9.269928e-05
0.0001388418
0.0001386124
0.0001383484
0.0001379771
9.3288e-05
9.316771e-05
9.304784e-05
9.29264e-05
9.281528e-05
0.0001390245
0.0001388132
0.0001385915
0.0001383449
0.0001380428
9.339578e-05
9.32797e-05
9.316357e-05
9.30456e-05
9.293625e-05
0.0001392119
0.0001390087
0.0001388003
0.0001385812
0.0001383464
0.0003362755
9.350439e-05
9.339273e-05
9.328068e-05
9.316652e-05
9.305963e-05
0.0001394027
0.0001392062
0.000139005
0.0001387968
0.0001385809
0.0003369171
0.0003363885
9.134303e-05
9.203569e-05
9.125927e-05
9.239007e-05
9.203113e-05
9.124082e-05
9.261891e-05
9.23965e-05
9.205351e-05
9.128099e-05
9.278584e-05
9.261826e-05
9.241325e-05
9.209386e-05
9.140835e-05
9.291775e-05
9.277418e-05
9.26201e-05
9.243164e-05
9.217117e-05
0.0001372884
9.302694e-05
9.289478e-05
9.276069e-05
9.261628e-05
9.246574e-05
0.0001383116
0.0001374927
9.312347e-05
9.299712e-05
9.287165e-05
9.274284e-05
9.262369e-05
0.0001386895
0.0001383493
0.0001377127
9.321015e-05
9.308719e-05
9.29652e-05
9.284169e-05
9.272969e-05
0.0001388854
0.000138647
0.0001383537
0.0001378739
9.330544e-05
9.318603e-05
9.30672e-05
9.294689e-05
9.283709e-05
0.0001390583
0.0001388466
0.0001386208
0.0001383578
0.0001379916
9.340535e-05
9.328974e-05
9.317419e-05
9.305687e-05
9.294836e-05
0.0001392311
0.0001390286
0.0001388202
0.0001385991
0.0001383556
0.0003362169
9.350868e-05
9.339724e-05
9.328545e-05
9.317158e-05
9.306509e-05
0.0001394115
0.0001392154
0.0001390146
0.0001388066
0.00013859
0.0003369306
0.0003363715
9.361267e-05
9.350559e-05
9.339785e-05
9.328784e-05
9.318402e-05
0.0001395956
0.0001394057
0.0001392112
0.0001390103
0.0001388041
0.0003374862
0.0003369876
0.0003365165
9.14788e-05
9.206144e-05
9.136101e-05
9.239057e-05
9.204569e-05
9.129393e-05
9.261891e-05
9.23965e-05
9.205351e-05
9.128099e-05
9.279309e-05
9.26233e-05
9.241287e-05
9.207979e-05
9.135673e-05
9.293403e-05
9.278904e-05
9.263105e-05
9.24328e-05
9.214732e-05
0.0001371439
9.305249e-05
9.292026e-05
9.278471e-05
9.26357e-05
9.247327e-05
0.0001382742
0.0001373053
9.315466e-05
9.302907e-05
9.290382e-05
9.277381e-05
9.265049e-05
0.000138711
0.0001383188
0.0001375118
9.324675e-05
9.312543e-05
9.300515e-05
9.288309e-05
9.277198e-05
0.0001389457
0.0001386944
0.0001383596
0.0001377283
9.333032e-05
9.321201e-05
9.309441e-05
9.297536e-05
9.286693e-05
0.0001391036
0.0001388897
0.000138655
0.000138363
0.0001378899
9.342191e-05
9.330711e-05
9.31925e-05
9.307624e-05
9.296904e-05
0.0001392636
0.0001390622
0.0001388534
0.0001386282
0.0001383686
0.000336102
9.351779e-05
9.340677e-05
9.32955e-05
9.318222e-05
9.307649e-05
0.0001394296
0.0001392344
0.0001390344
0.0001388264
0.0001386078
0.0003369532
0.0003363239
9.361676e-05
9.350987e-05
9.340237e-05
9.329262e-05
9.318915e-05
0.0001396038
0.0001394143
0.0001392204
0.0001390199
0.0001388139
0.000337508
0.000337001
0.0003365065
9.371623e-05
9.361364e-05
9.351018e-05
9.34043e-05
9.330372e-05
0.0001397815
0.0001395981
0.0001394099
0.0001392156
0.0001390164
0.0003380173
0.0003375421
0.0003370851
0.0003366331
9.162698e-05
9.208908e-05
9.149519e-05
9.238968e-05
9.207108e-05
9.139437e-05
9.261385e-05
9.239694e-05
9.206782e-05
9.133343e-05
9.279309e-05
9.26233e-05
9.241287e-05
9.207979e-05
9.135673e-05
9.294204e-05
9.279624e-05
9.263609e-05
9.24325e-05
9.213359e-05
0.0001370673
9.306892e-05
9.293642e-05
9.279949e-05
9.264663e-05
9.247466e-05
0.0001382389
0.0001371621
9.317948e-05
9.305442e-05
9.292912e-05
9.279768e-05
9.267e-05
0.0001387223
0.0001382816
0.0001373262
9.327669e-05
9.315633e-05
9.303684e-05
9.291502e-05
9.280293e-05
0.0001389855
0.0001387154
0.0001383291
0.0001375292
9.336509e-05
9.324832e-05
9.313242e-05
9.301511e-05
9.290843e-05
0.0001391664
0.0001389493
0.0001387019
0.0001383687
0.000137746
9.344564e-05
9.333183e-05
9.321836e-05
9.310335e-05
9.299765e-05
0.0001393081
0.000139107
0.0001388961
0.000138662
0.0001383738
0.0003358679
9.353358e-05
9.342327e-05
9.331283e-05
9.320051e-05
9.309601e-05
0.0001394605
0.0001392668
0.0001390678
0.0001388594
0.0001386368
0.0003369848
0.0003362288
9.362547e-05
9.351895e-05
9.34119e-05
9.330268e-05
9.319989e-05
0.0001396209
0.0001394323
0.0001392394
0.0001390396
0.0001388336
0.0003375503
0.0003370234
0.000336475
9.372015e-05
9.361773e-05
9.351447e-05
9.340882e-05
9.330854e-05
0.0001397891
0.0001396062
0.0001394186
0.0001392248
0.000139026
0.0003380405
0.0003375624
0.0003370992
0.0003366313
9.381521e-05
9.371702e-05
9.361778e-05
9.351601e-05
9.341878e-05
0.0001399604
0.0001397834
0.0001396017
0.0001394137
0.0001392208
0.0003385239
0.0003380607
0.0003376191
0.0003371704
0.0003367531
9.173941e-05
9.211198e-05
9.164157e-05
9.238261e-05
9.209836e-05
9.152667e-05
9.26028e-05
9.239601e-05
9.209278e-05
9.143256e-05
9.278584e-05
9.261826e-05
9.241325e-05
9.209386e-05
9.140835e-05
9.294204e-05
9.279624e-05
9.263609e-05
9.24325e-05
9.213359e-05
0.0001370673
9.307706e-05
9.294438e-05
9.280666e-05
9.265167e-05
9.247449e-05
0.0001382186
0.0001370863
9.319557e-05
9.307073e-05
9.294519e-05
9.281239e-05
9.268099e-05
0.0001387244
0.0001382467
0.0001371845
9.33006e-05
9.318097e-05
9.306201e-05
9.294016e-05
9.282678e-05
0.0001390145
0.0001387265
0.0001382923
0.0001373454
9.339381e-05
9.3278e-05
9.316308e-05
9.304656e-05
9.294028e-05
0.0001392123
0.0001389884
0.0001387224
0.0001383382
0.0001375487
9.347876e-05
9.336634e-05
9.325446e-05
9.314117e-05
9.303742e-05
0.0001393697
0.0001391691
0.0001389551
0.0001387083
0.0001383795
0.0003355304
9.355627e-05
9.344685e-05
9.333744e-05
9.322629e-05
9.312321e-05
0.000139503
0.0001393108
0.0001391122
0.0001389016
0.0001386703
0.0003369957
0.0003360176
9.364056e-05
9.353467e-05
9.342837e-05
9.332e-05
9.32183e-05
0.00013965
0.000139463
0.0001392715
0.0001390727
0.0001388664
0.0003376183
0.000337055
0.0003364092
9.372849e-05
9.36264e-05
9.352355e-05
9.341836e-05
9.331869e-05
0.0001398052
0.0001396231
0.0001394365
0.0001392436
0.0001390456
0.000338087
0.0003376016
0.0003371233
0.0003366191
9.381896e-05
9.372093e-05
9.362187e-05
9.35203e-05
9.342334e-05
0.0001399676
0.0001397911
0.0001396098
0.0001394222
0.0001392299
0.0003385466
0.0003380821
0.0003376383
0.0003371854
0.0003367605
9.39097e-05
9.381583e-05
9.372076e-05
9.362307e-05
9.352928e-05
0.0001401324
0.000139962
0.0001397865
0.0001396048
0.000139418
0.0003390129
0.0003385565
0.0003381217
0.0003376848
0.0003372564
9.182043e-05
9.211028e-05
9.175242e-05
9.236828e-05
9.212107e-05
9.167077e-05
9.258301e-05
9.238897e-05
9.211955e-05
9.156291e-05
9.277088e-05
9.260727e-05
9.241221e-05
9.211836e-05
9.150577e-05
9.293403e-05
9.278904e-05
9.263105e-05
9.24328e-05
9.214732e-05
0.0001371439
9.307706e-05
9.294438e-05
9.280666e-05
9.265167e-05
9.247449e-05
0.0001382186
0.0001370863
9.320358e-05
9.307882e-05
9.295311e-05
9.281953e-05
9.268607e-05
0.0001387242
0.0001382267
0.0001371094
9.331619e-05
9.319696e-05
9.307823e-05
9.295614e-05
9.284146e-05
0.0001390308
0.0001387286
0.0001382578
0.0001372051
9.341679e-05
9.330175e-05
9.318756e-05
9.307157e-05
9.296534e-05
0.0001392478
0.0001390171
0.0001387333
0.0001383017
0.0001373667
9.350633e-05
9.339482e-05
9.328393e-05
9.317161e-05
9.306878e-05
0.000139417
0.0001392144
0.0001389936
0.0001387284
0.000138349
0.0003350683
9.358791e-05
9.347974e-05
9.337177e-05
9.326221e-05
9.316104e-05
0.0001395622
0.0001393718
0.0001391737
0.0001389599
0.0001387162
0.0003370046
0.000335689
9.366233e-05
9.355723e-05
9.345185e-05
9.334452e-05
9.324414e-05
0.0001396905
0.0001395052
0.000139315
0.0001391166
0.0001389082
0.0003376948
0.0003370625
0.0003362311
9.374296e-05
9.364143e-05
9.353924e-05
9.343481e-05
9.33361e-05
0.0001398327
0.0001396521
0.0001394669
0.0001392755
0.0001390785
0.0003381637
0.0003376643
0.0003371589
0.0003365906
9.382697e-05
9.372924e-05
9.363054e-05
9.352938e-05
9.343295e-05
0.0001399827
0.000139807
0.0001396266
0.0001394401
0.0001392487
0.0003385926
0.0003381245
0.0003376749
0.0003372119
0.0003367703
9.391331e-05
9.381958e-05
9.372467e-05
9.362717e-05
9.353361e-05
0.0001401392
0.0001399692
0.0001397941
0.0001396128
0.0001394266
0.0003390344
0.0003385772
0.0003381413
0.0003377027
0.0003372727
9.399981e-05
9.391018e-05
9.381922e-05
9.372559e-05
9.363529e-05
0.0001402977
0.0001401337
0.0001399646
0.0001397892
0.0001396085
0.0003394859
0.0003390362
0.0003386041
0.0003381724
0.0003377504
9.186361e-05
9.21095e-05
9.183233e-05
9.233636e-05
9.211936e-05
9.177928e-05
9.255561e-05
9.237486e-05
9.214179e-05
9.170462e-05
9.274647e-05
9.258766e-05
9.240511e-05
9.214458e-05
9.163345e-05
9.291775e-05
9.277418e-05
9.26201e-05
9.243164e-05
9.217117e-05
0.0001372884
9.306892e-05
9.293642e-05
9.279949e-05
9.264663e-05
9.247466e-05
0.0001382389
0.0001371621
9.320358e-05
9.307882e-05
9.295311e-05
9.281953e-05
9.268607e-05
0.0001387242
0.0001382267
0.0001371094
9.332395e-05
9.320492e-05
9.308628e-05
9.296402e-05
9.28486e-05
0.0001390384
0.0001387285
0.000138238
0.0001371307
9.343183e-05
9.331724e-05
9.320346e-05
9.308769e-05
9.298126e-05
0.0001392696
0.0001390333
0.0001387355
0.0001382676
0.0001372277
9.352844e-05
9.341766e-05
9.330752e-05
9.319594e-05
9.309369e-05
0.0001394543
0.0001392495
0.0001390219
0.0001387392
0.0001383128
0.0003346442
9.361445e-05
9.350711e-05
9.340006e-05
9.329148e-05
9.319137e-05
0.0001396088
0.0001394185
0.0001392184
0.0001389979
0.0001387358
0.0003369294
0.0003352356
9.369265e-05
9.358867e-05
9.348457e-05
9.337869e-05
9.328005e-05
0.0001397468
0.0001395638
0.0001393755
0.0001391775
0.000138966
0.0003377978
0.0003370638
0.0003359047
9.37639e-05
9.366308e-05
9.35617e-05
9.345821e-05
9.336067e-05
0.0001398712
0.0001396922
0.0001395087
0.0001393187
0.000139122
0.0003382594
0.0003377309
0.0003371681
0.0003364611
9.384089e-05
9.374365e-05
9.364554e-05
9.354505e-05
9.344947e-05
0.0001400087
0.0001398343
0.0001396554
0.0001394703
0.0001392804
0.0003386693
0.0003381943
0.0003377341
0.000337254
0.0003367886
9.392103e-05
9.382756e-05
9.373297e-05
9.363584e-05
9.354275e-05
0.0001401536
0.0001399842
0.00013981
0.0001396296
0.0001394443
0.0003390784
0.000338619
0.0003381797
0.0003377367
0.0003373025
9.40033e-05
9.391379e-05
9.382297e-05
9.37295e-05
9.363941e-05
0.0001403042
0.0001401405
0.0001399718
0.0001397967
0.0001396165
0.000339506
0.0003390557
0.0003386228
0.0003381899
0.0003377671
9.408564e-05
9.400017e-05
9.391327e-05
9.382364e-05
9.373687e-05
0.0001404563
0.0001402988
0.000140136
0.0001399668
0.0001397923
0.0003399436
0.0003395011
0.0003390724
0.0003386424
0.0003382226
9.188651e-05
9.210358e-05
9.187482e-05
9.231391e-05
9.211849e-05
9.185739e-05
9.25146e-05
9.234326e-05
9.213964e-05
9.181061e-05
9.271463e-05
9.25606e-05
9.239103e-05
9.216628e-05
9.177155e-05
9.289205e-05
9.274999e-05
9.260059e-05
9.242445e-05
9.219647e-05
0.0001374778
9.305249e-05
9.292026e-05
9.278471e-05
9.26357e-05
9.247327e-05
0.0001382742
0.0001373053
9.319557e-05
9.307073e-05
9.294519e-05
9.281239e-05
9.268099e-05
0.0001387244
0.0001382467
0.0001371845
9.332395e-05
9.320492e-05
9.308628e-05
9.296402e-05
9.28486e-05
0.0001390384
0.0001387285
0.000138238
0.0001371307
9.343933e-05
9.332496e-05
9.321138e-05
9.30957e-05
9.298912e-05
0.0001392803
0.0001390408
0.0001387354
0.000138248
0.000137154
9.354295e-05
9.343261e-05
9.332293e-05
9.321175e-05
9.310975e-05
0.000139478
0.0001392711
0.000139038
0.0001387413
0.000138279
0.0003343208
9.363576e-05
9.352908e-05
9.342277e-05
9.331494e-05
9.32156e-05
0.0001396459
0.0001394554
0.0001392531
0.0001390259
0.0001387464
0.0003368444
0.0003348292
9.371825e-05
9.361502e-05
9.351177e-05
9.34068e-05
9.330922e-05
0.0001397919
0.0001396099
0.0001394217
0.0001392216
0.0001390034
0.00033784
0.0003369798
0.0003354415
9.379305e-05
9.369322e-05
9.359299e-05
9.349078e-05
9.339482e-05
0.0001399246
0.000139748
0.0001395668
0.0001393786
0.0001391823
0.0003383909
0.0003378233
0.0003371683
0.0003361056
9.386109e-05
9.376448e-05
9.36671e-05
9.356744e-05
9.34729e-05
0.0001400454
0.0001398725
0.0001396952
0.0001395117
0.0001393231
0.0003387692
0.0003382786
0.0003377936
0.0003372706
0.000336743
9.393444e-05
9.384142e-05
9.374736e-05
9.365082e-05
9.355848e-05
0.0001401783
0.0001400101
0.0001398371
0.0001396581
0.0001394743
0.0003391522
0.0003386885
0.0003382434
0.0003377931
0.0003373547
9.401074e-05
9.392148e-05
9.383095e-05
9.37378e-05
9.364813e-05
0.0001403178
0.0001401548
0.0001399868
0.0001398125
0.0001396332
0.0003395475
0.0003390955
0.00033866
0.000338224
0.0003377986
9.408901e-05
9.400365e-05
9.391687e-05
9.382739e-05
9.374081e-05
0.0001404625
0.0001403052
0.0001401427
0.0001399739
0.0001397999
0.0003399624
0.0003395195
0.00033909
0.0003386588
0.0003382381
9.416728e-05
9.40859e-05
9.400299e-05
9.391733e-05
9.38341e-05
0.0001406083
0.0001404571
0.0001403007
0.0001401378
0.0001399696
0.000340386
0.0003399521
0.0003395279
0.0003391003
0.0003386801
9.189558e-05
9.209949e-05
9.189734e-05
9.229543e-05
9.211242e-05
9.189865e-05
9.248562e-05
9.232096e-05
9.213828e-05
9.18867e-05
9.267164e-05
9.252002e-05
9.235946e-05
9.216356e-05
9.187323e-05
9.285925e-05
9.271852e-05
9.257374e-05
9.241034e-05
9.221698e-05
0.0001376825
9.302694e-05
9.289478e-05
9.276069e-05
9.261628e-05
9.246574e-05
0.0001383116
0.0001374927
9.317948e-05
9.305442e-05
9.292912e-05
9.279768e-05
9.267e-05
0.0001387223
0.0001382816
0.0001373262
9.331619e-05
9.319696e-05
9.307823e-05
9.295614e-05
9.284146e-05
0.0001390308
0.0001387286
0.0001382578
0.0001372051
9.343933e-05
9.332496e-05
9.321138e-05
9.30957e-05
9.298912e-05
0.0001392803
0.0001390408
0.0001387354
0.000138248
0.000137154
9.355019e-05
9.344008e-05
9.333062e-05
9.321963e-05
9.311773e-05
0.0001394897
0.0001392817
0.0001390455
0.0001387412
0.0001382597
0.0003341495
9.364977e-05
9.354351e-05
9.343764e-05
9.333027e-05
9.323135e-05
0.0001396698
0.0001394789
0.0001392746
0.0001390418
0.0001387485
0.0003367664
0.000334523
9.373883e-05
9.363621e-05
9.353362e-05
9.342939e-05
9.333258e-05
0.000139828
0.0001396466
0.0001394582
0.000139256
0.000139031
0.0003378634
0.0003368942
0.000335041
9.381781e-05
9.371866e-05
9.361919e-05
9.351782e-05
9.342284e-05
0.000139968
0.0001397927
0.0001396124
0.0001394242
0.0001392259
0.0003384748
0.0003378523
0.0003370699
0.0003356155
9.388918e-05
9.379346e-05
9.36971e-05
9.35986e-05
9.350546e-05
0.0001400962
0.0001399255
0.0001397505
0.0001395693
0.0001393825
0.0003389075
0.0003383995
0.000337884
0.0003372614
0.0003363555
9.395397e-05
9.386152e-05
9.37681e-05
9.36723e-05
9.358089e-05
0.0001402132
0.0001400464
0.000139875
0.0001396976
0.0001395154
0.0003392506
0.000338777
0.0003383178
0.0003378473
0.0003373906
9.402371e-05
9.393484e-05
9.384478e-05
9.375216e-05
9.366316e-05
0.0001403413
0.0001401793
0.0001400124
0.0001398394
0.0001396616
0.0003396176
0.0003391624
0.0003387226
0.0003382815
0.0003378535
9.409622e-05
9.401108e-05
9.392455e-05
9.383537e-05
9.374915e-05
0.0001404755
0.0001403188
0.0001401569
0.0001399888
0.0001398156
0.0003400015
0.000339557
0.0003391252
0.0003386912
0.0003382677
9.417054e-05
9.408926e-05
9.400647e-05
9.392093e-05
9.383787e-05
0.0001406142
0.0001404633
0.0001403071
0.0001401446
0.0001399766
0.0003404037
0.0003399693
0.0003395443
0.0003391156
0.0003386942
9.42448e-05
9.416745e-05
9.408848e-05
9.400673e-05
9.392705e-05
0.0001407539
0.000140609
0.0001404588
0.0001403023
0.0001401402
0.0003408132
0.0003403889
0.0003399709
0.0003395471
0.0003391277
9.209686e-05
9.190623e-05
9.228443e-05
9.210822e-05
9.192043e-05
9.246378e-05
9.230249e-05
9.213175e-05
9.192655e-05
9.264116e-05
9.249125e-05
9.233704e-05
9.216158e-05
9.194571e-05
9.281695e-05
9.267597e-05
9.253337e-05
9.237872e-05
9.221269e-05
0.0001378328
9.299467e-05
9.286233e-05
9.272949e-05
9.25896e-05
9.24512e-05
0.0001383422
0.0001376956
9.315466e-05
9.302907e-05
9.290382e-05
9.277381e-05
9.265049e-05
0.000138711
0.0001383188
0.0001375118
9.33006e-05
9.318097e-05
9.306201e-05
9.294016e-05
9.282678e-05
0.0001390145
0.0001387265
0.0001382923
0.0001373454
9.343183e-05
9.331724e-05
9.320346e-05
9.308769e-05
9.298126e-05
0.0001392696
0.0001390333
0.0001387355
0.0001382676
0.0001372277
9.355019e-05
9.344008e-05
9.333062e-05
9.321963e-05
9.311773e-05
0.0001394897
0.0001392817
0.0001390455
0.0001387412
0.0001382597
0.0003341495
9.365678e-05
9.355073e-05
9.344508e-05
9.333792e-05
9.32392e-05
0.0001396817
0.0001394906
0.000139285
0.0001390493
0.0001387485
0.0003367221
0.0003343616
9.37524e-05
9.365016e-05
9.354799e-05
9.344419e-05
9.334785e-05
0.0001398514
0.0001396703
0.0001394816
0.0001392772
0.0001390468
0.0003378685
0.0003368195
0.0003347454
9.383774e-05
9.373913e-05
9.364027e-05
9.353957e-05
9.344533e-05
0.0001400029
0.0001398284
0.0001396488
0.0001394604
0.0001392599
0.0003385381
0.0003378691
0.0003369797
0.0003352118
9.391319e-05
9.381808e-05
9.37224e-05
9.362466e-05
9.353241e-05
0.000140138
0.0001399686
0.0001397948
0.0001396144
0.0001394276
0.0003390065
0.0003384699
0.0003378979
0.000337145
0.0003358065
9.398111e-05
9.388945e-05
9.379696e-05
9.370219e-05
9.361203e-05
0.0001402617
0.0001400969
0.0001399276
0.0001397525
0.0001395726
0.0003393876
0.0003389059
0.0003384371
0.0003379341
0.0003373952
0.0008767057
9.404263e-05
9.395427e-05
9.386479e-05
9.377284e-05
9.368466e-05
0.0001403747
0.000140214
0.0001400485
0.000139877
0.0001397007
0.0003397123
0.0003392501
0.0003388007
0.0003383462
0.0003379065
9.410877e-05
9.402399e-05
9.393789e-05
9.384917e-05
9.376355e-05
0.0001404979
0.0001403421
0.0001401813
0.0001400143
0.0001398423
0.0003400676
0.0003396203
0.000339185
0.0003387462
0.0003383192
9.417753e-05
9.409644e-05
9.401388e-05
9.392861e-05
9.384588e-05
0.0001406267
0.0001404762
0.0001403206
0.0001401587
0.0001399914
0.0003404405
0.0003400045
0.0003395773
0.0003391458
0.0003387213
9.424796e-05
9.41707e-05
9.409183e-05
9.401021e-05
9.393068e-05
0.0001407595
0.0001406149
0.0001404649
0.0001403086
0.0001401469
0.0003408298
0.000340405
0.0003399862
0.0003395612
0.0003391405
9.43183e-05
9.42449e-05
9.416981e-05
9.409193e-05
9.40158e-05
0.000140893
0.0001407544
0.0001406104
0.0001404601
0.0001403043
0.000341225
0.0003408113
0.000340401
0.0003399829
0.0003395657
9.227886e-05
9.210553e-05
9.192897e-05
9.245099e-05
9.229145e-05
9.212723e-05
9.194747e-05
9.261891e-05
9.246947e-05
9.231836e-05
9.215451e-05
9.198292e-05
9.27869e-05
9.264572e-05
9.250462e-05
9.235609e-05
9.220919e-05
0.0001379398
9.295409e-05
9.282044e-05
9.268719e-05
9.254935e-05
9.241884e-05
0.0001383357
0.0001378445
9.312347e-05
9.299712e-05
9.287165e-05
9.274284e-05
9.262369e-05
0.0001386895
0.0001383493
0.0001377127
9.327669e-05
9.315633e-05
9.303684e-05
9.291502e-05
9.280293e-05
0.0001389855
0.0001387154
0.0001383291
0.0001375292
9.341679e-05
9.330175e-05
9.318756e-05
9.307157e-05
9.296534e-05
0.0001392478
0.0001390171
0.0001387333
0.0001383017
0.0001373667
9.354295e-05
9.343261e-05
9.332293e-05
9.321175e-05
9.310975e-05
0.000139478
0.0001392711
0.000139038
0.0001387413
0.000138279
0.0003343208
9.365678e-05
9.355073e-05
9.344508e-05
9.333792e-05
9.32392e-05
0.0001396817
0.0001394906
0.000139285
0.0001390493
0.0001387485
0.0003367221
0.0003343616
9.375919e-05
9.365714e-05
9.355517e-05
9.345159e-05
9.335547e-05
0.0001398632
0.0001396822
0.0001394931
0.0001392876
0.0001390542
0.0003378687
0.000336778
0.000334591
9.385091e-05
9.375265e-05
9.365416e-05
9.355387e-05
9.346008e-05
0.0001400256
0.0001398517
0.0001396724
0.0001394835
0.0001392809
0.0003385747
0.0003378718
0.0003369058
0.0003349216
9.393253e-05
9.383791e-05
9.374278e-05
9.364564e-05
9.355408e-05
0.0001401715
0.0001400031
0.0001398302
0.0001396505
0.0001394635
0.0003390847
0.0003385247
0.0003379064
0.0003370482
0.0003353819
9.400444e-05
9.391333e-05
9.382145e-05
9.372736e-05
9.3638e-05
0.0001403019
0.0001401383
0.0001399703
0.0001397963
0.0001396172
0.0003394909
0.0003389924
0.0003384935
0.0003379325
0.0003372444
0.0008744631
9.406892e-05
9.398127e-05
9.389262e-05
9.380159e-05
9.371453e-05
0.0001404212
0.0001402622
0.0001400986
0.0001399293
0.0001397552
0.0003398447
0.0003393792
0.0003389291
0.0003384654
0.000338017
0.0008797356
0.0008773565
9.412715e-05
9.404282e-05
9.395725e-05
9.386912e-05
9.378424e-05
0.00014053
0.0001403753
0.0001402157
0.0001400501
0.0001398795
0.0003401581
0.0003397053
0.0003392625
0.0003388132
0.0003383749
9.418971e-05
9.410895e-05
9.402676e-05
9.394192e-05
9.385972e-05
0.0001406482
0.0001404985
0.0001403438
0.0001401829
0.0001400168
0.0003405029
0.0003400644
0.0003396337
0.0003391976
0.0003387687
9.425475e-05
9.417767e-05
9.409901e-05
9.401761e-05
9.393838e-05
0.0001407715
0.0001406273
0.0001404778
0.0001403221
0.0001401609
0.0003408645
0.0003404382
0.0003400172
0.0003395893
0.0003391653
9.432137e-05
9.424805e-05
9.417306e-05
9.409529e-05
9.401929e-05
0.0001408984
0.00014076
0.0001406162
0.0001404662
0.0001403106
0.0003412407
0.0003408265
0.0003404153
0.0003399959
0.0003395774
9.438783e-05
9.431832e-05
9.424707e-05
9.417301e-05
9.410041e-05
0.0001410259
0.0001408934
0.0001407556
0.0001406115
0.0001404618
0.0003416214
0.0003412192
0.0003408179
0.0003404069
0.0003399942
9.244473e-05
9.228586e-05
9.212437e-05
9.195561e-05
9.260596e-05
9.245669e-05
9.230714e-05
9.214959e-05
9.200218e-05
9.276529e-05
9.262355e-05
9.248275e-05
9.233713e-05
9.220085e-05
0.0001379945
9.29252e-05
9.279061e-05
9.265704e-05
9.252057e-05
9.239539e-05
0.0001383303
0.0001379503
9.308489e-05
9.295692e-05
9.283002e-05
9.270074e-05
9.258308e-05
0.0001386414
0.0001383432
0.0001378599
9.324675e-05
9.312543e-05
9.300515e-05
9.288309e-05
9.277198e-05
0.0001389457
0.0001386944
0.0001383596
0.0001377283
9.339381e-05
9.3278e-05
9.316308e-05
9.304656e-05
9.294028e-05
0.0001392123
0.0001389884
0.0001387224
0.0001383382
0.0001375487
9.352844e-05
9.341766e-05
9.330752e-05
9.319594e-05
9.309369e-05
0.0001394543
0.0001392495
0.0001390219
0.0001387392
0.0001383128
0.0003346442
9.364977e-05
9.354351e-05
9.343764e-05
9.333027e-05
9.323135e-05
0.0001396698
0.0001394789
0.0001392746
0.0001390418
0.0001387485
0.0003367664
0.000334523
9.375919e-05
9.365714e-05
9.355517e-05
9.345159e-05
9.335547e-05
0.0001398632
0.0001396822
0.0001394931
0.0001392876
0.0001390542
0.0003378687
0.000336778
0.000334591
9.38575e-05
9.375941e-05
9.366111e-05
9.356102e-05
9.346745e-05
0.000140037
0.0001398634
0.0001396841
0.000139495
0.0001392913
0.0003385921
0.0003378716
0.0003368657
0.0003347718
9.394534e-05
9.385103e-05
9.375624e-05
9.365947e-05
9.356832e-05
0.0001401935
0.0001400257
0.0001398534
0.0001396739
0.0001394864
0.0003391337
0.0003385569
0.0003379057
0.0003369734
0.000335091
9.402326e-05
9.393259e-05
9.38412e-05
9.374765e-05
9.365891e-05
0.0001403342
0.0001401716
0.0001400046
0.0001398315
0.000139653
0.0003395738
0.0003390622
0.0003385392
0.0003379325
0.0003371305
0.0008729214
9.409164e-05
9.400448e-05
9.391639e-05
9.382597e-05
9.373963e-05
0.0001404599
0.000140302
0.0001401397
0.0001399715
0.0001397986
0.0003399476
0.0003394715
0.0003390035
0.0003385087
0.0003379888
0.0008791115
0.000875321
9.415266e-05
9.406898e-05
9.398415e-05
9.389686e-05
9.381298e-05
0.0001405746
0.0001404215
0.0001402636
0.0001401
0.0001399315
0.0003402851
0.0003398315
0.0003393924
0.0003389442
0.0003385212
0.0008816607
0.0008800128
0.000877727
9.420759e-05
9.412724e-05
9.404553e-05
9.396121e-05
9.387968e-05
0.000140679
0.0001405304
0.0001403767
0.000140217
0.0001400523
0.0003405893
0.000340146
0.0003397091
0.0003392637
0.000338823
9.426659e-05
9.41898e-05
9.411148e-05
9.403047e-05
9.395172e-05
0.0001407921
0.0001406486
0.0001405
0.0001403451
0.0001401849
0.0003409237
0.0003404947
0.0003400703
0.0003396378
0.0003392086
9.432797e-05
9.425482e-05
9.418001e-05
9.410245e-05
9.402672e-05
0.00014091
0.0001407719
0.0001406286
0.000140479
0.000140324
0.0003412736
0.0003408578
0.0003404444
0.0003400221
0.0003396002
9.439082e-05
9.432139e-05
9.425022e-05
9.417625e-05
9.410378e-05
0.0001410311
0.0001408988
0.0001407612
0.0001406173
0.0001404679
0.0003416363
0.0003412335
0.0003408313
0.000340419
0.0003400049
9.445347e-05
9.43878e-05
9.432032e-05
9.425003e-05
9.418095e-05
0.0001411526
0.0001410262
0.0001408945
0.0001407565
0.000140613
0.0003420025
0.0003416125
0.0003412212
0.0003408187
0.0003404121
9.259971e-05
9.245042e-05
9.230145e-05
9.214653e-05
9.200952e-05
9.275276e-05
9.261062e-05
9.246986e-05
9.23257e-05
9.219506e-05
0.0001380227
9.290463e-05
9.276909e-05
9.263482e-05
9.249855e-05
9.237567e-05
0.0001383175
0.0001380042
9.305737e-05
9.292824e-05
9.280031e-05
9.267063e-05
9.255381e-05
0.0001386065
0.0001383379
0.0001379643
9.321015e-05
9.308719e-05
9.29652e-05
9.284169e-05
9.272969e-05
0.0001388854
0.000138647
0.0001383537
0.0001378739
9.336509e-05
9.324832e-05
9.313242e-05
9.301511e-05
9.290843e-05
0.0001391664
0.0001389493
0.0001387019
0.0001383687
0.000137746
9.350633e-05
9.339482e-05
9.328393e-05
9.317161e-05
9.306878e-05
0.000139417
0.0001392144
0.0001389936
0.0001387284
0.000138349
0.0003350683
9.363576e-05
9.352908e-05
9.342277e-05
9.331494e-05
9.32156e-05
0.0001396459
0.0001394554
0.0001392531
0.0001390259
0.0001387464
0.0003368444
0.0003348292
9.37524e-05
9.365016e-05
9.354799e-05
9.344419e-05
9.334785e-05
0.0001398514
0.0001396703