/*--------------------------------*- C++ -*----------------------------------*\
| =========                 |                                                 |
| \\      /  F ield         | OpenFOAM: The Open Source CFD Toolbox           |
|  \\    /   O peration     | Version:  2306                                  |
|   \\  /    A nd           | Website:  www.openfoam.com                      |
|    \\/     M anipulation  |                                                 |
\*---------------------------------------------------------------------------*/
FoamFile
{
    version     2.0;
    format      ascii;
    arch        "LSB;label=32;scalar=64";
    class       volScalarField;
    location    "0.6/fuel";
    object      eta.fuel;
}
// * * * * * * * * * * * * * * * * * * * * * * * * * * * * * * * * * * * * * //

dimensions      [1 2 -3 0 0 -1 0];

internalField   nonuniform List<scalar> 
16000
(
0.09587586
0.09633681
0.09118551
0.09233809
0.09724385
0.09150902
0.09277148
0.08712426
0.08792463
0.08979455
0.09857192
0.09213207
0.09362362
0.08738434
0.0882296
0.09020974
0.08384778
0.08410429
0.08556514
0.08820864
0.1002198
0.0930135
0.0948707
0.08787976
0.08881644
0.09102594
0.08406876
0.08434991
0.08585743
0.08861448
0.08112159
0.08102417
0.08190915
0.0840753
0.08755819
0.1018938
0.09404675
0.0964172
0.08856792
0.0896462
0.09222102
0.08448641
0.08481735
0.0864196
0.08941275
0.0813153
0.08123316
0.08214467
0.08436045
0.08796328
0.07877005
0.07846263
0.07896541
0.08051109
0.08343551
0
0.1029775
0.09501293
0.09798736
0.08934923
0.09061789
0.09370457
0.08505835
0.08546622
0.0872145
0.09058331
0.08167919
0.08162775
0.08259263
0.08490892
0.08876112
0.07894332
0.07864606
0.07916593
0.08074066
0.0837189
0
0.07669313
0.07625348
0.07651958
0.07764682
0.07989277
0
0
0.1035292
0.09558093
0.09899565
0.09004253
0.09152521
0.09521359
0.08569128
0.08620194
0.08814528
0.09204047
0.08217158
0.08216766
0.0832143
0.08568489
0.08993394
0.07926722
0.07899025
0.07954425
0.08117721
0.08426431
0
0.07685058
0.07641774
0.07669569
0.07784221
0.08012039
0
0
0.07482149
0.0743021
0.07441135
0.07527022
0.07705285
0
0
0
0.1037654
0.09583287
0.09950262
0.09041848
0.09205422
0.09617809
0.08622791
0.08685338
0.08901434
0.09352903
0.08270445
0.0827641
0.0839187
0.08659441
0.09140039
0.07970097
0.07945553
0.08006166
0.08178314
0.08503683
0
0.07714377
0.07672445
0.07702589
0.07821074
0.08055337
0
0
0.07496629
0.07445153
0.07456917
0.07544183
0.07724636
0
0
0
0.07311094
0.07254287
0.0725495
0.07322346
0.07470047
0
0
0
0
0.1038463
0.09591835
0.09971533
0.09055964
0.09228567
0.09665999
0.08649542
0.08720341
0.08951782
0.0944798
0.08313738
0.08326823
0.08454162
0.08744474
0.09290842
0.08016102
0.07995795
0.08063257
0.0824698
0.08594415
0
0.07753281
0.07713469
0.07747194
0.0787147
0.0811547
0
0
0.07523509
0.07472946
0.07486359
0.07576346
0.07761138
0
0
0
0.07324542
0.07268045
0.07269318
0.07337729
0.07487033
0
0
0
0
0.07152884
0.07093408
0.07087084
0.07141686
0.07267698
0
0
0
0
0
0.1038463
0.09593861
0.09978647
0.09058879
0.09236184
0.09686028
0.08657414
0.08733239
0.08973614
0.09495535
0.0833339
0.08351665
0.08487363
0.08793547
0.09387494
0.08051976
0.08036441
0.08111395
0.08307687
0.08679482
0
0.07793802
0.07756867
0.07795281
0.07927051
0.08183677
0
0
0.07558891
0.07509775
0.07525706
0.0761978
0.07811068
0
0
0
0.07349447
0.07293554
0.07296016
0.07366411
0.07518866
0
0
0
0
0.07165471
0.07106199
0.07100323
0.07155694
0.07282918
0
0
0
0
0
0.07005155
0.06944489
0.06933526
0.0697884
0.0708924
0
0
0
0
0
0
0.1037654
0.09593861
0.09978647
0.09058591
0.09237868
0.0969265
0.08657128
0.08735695
0.08980669
0.09515371
0.08337187
0.08358734
0.08499418
0.08814763
0.09436253
0.08066615
0.08054612
0.08134863
0.08339835
0.08728517
0
0.07824177
0.07790521
0.07834044
0.07973842
0.0824403
0
0
0.07595141
0.07548018
0.07567244
0.07666561
0.07866149
0
0
0
0.07381997
0.07327081
0.07331358
0.07404724
0.07561859
0
0
0
0
0.0718874
0.0712986
0.07124845
0.0718171
0.07311296
0
0
0
0
0
0.07017016
0.06956475
0.06945844
0.06991753
0.07103099
0
0
0
0
0
0
0.06866094
0.06805304
0.06791316
0.0682988
0.0692847
0
0
0
0
0
0
0
0.1035292
0.09591835
0.09971533
0.09058591
0.09237868
0.0969265
0.08655509
0.08735275
0.08982162
0.09521966
0.083348
0.08358211
0.08501565
0.08821603
0.09456925
0.08067558
0.08057851
0.08141343
0.08351397
0.08749795
0
0.07835157
0.07803971
0.07851123
0.07996441
0.08275849
0
0
0.07621304
0.0757649
0.07599302
0.07704167
0.07912494
0
0
0
0.07414854
0.07361312
0.07367969
0.07445117
0.07608154
0
0
0
0
0.07218963
0.07160733
0.07157038
0.07216129
0.07349199
0
0
0
0
0
0.07038918
0.06978607
0.06968608
0.07015658
0.07128833
0
0
0
0
0
0
0.06877336
0.06816612
0.06802867
0.068419
0.06941244
0
0
0
0
0
0
0
0.06734351
0.06674144
0.06658314
0.06691907
0.06781462
0
0
0
0
0
0
0
0
0.1029775
0.09583287
0.09950262
0.09058879
0.09236184
0.09686028
0.08655509
0.08735275
0.08982162
0.09521966
0.083323
0.08356555
0.08501065
0.08823048
0.09463952
0.08063711
0.08055353
0.08140644
0.0835338
0.08756759
0
0.07834049
0.07804518
0.07853935
0.08002532
0.08287257
0
0
0.07629537
0.07586491
0.0761186
0.07720521
0.07934711
0
0
0
0.07437729
0.07385816
0.07395061
0.07476171
0.07645309
0
0
0
0
0.07249063
0.0719178
0.07189817
0.07251724
0.0738914
0
0
0
0
0
0.07067208
0.07007301
0.06998273
0.07047017
0.07162875
0
0
0
0
0
0
0.06898076
0.06837466
0.06824177
0.06864099
0.0696489
0
0
0
0
0
0
0
0.06745053
0.06684872
0.06669221
0.06703184
0.06793354
0
0
0
0
0
0
0
0
0.06608895
0.0654974
0.06532887
0.06562832
0.06645329
0
0
0
0
0
0
0
0
0
0.1018938
0.09558093
0.09899565
0.09055964
0.09228567
0.09665999
0.08657128
0.08735695
0.08980669
0.09515371
0.083323
0.08356555
0.08501065
0.08823048
0.09463952
0.080606
0.08052869
0.08138963
0.08352847
0.08758296
0
0.07829166
0.07800637
0.07851342
0.08001716
0.08289214
0
0
0.07626925
0.07585098
0.07612092
0.07723027
0.07940605
0
0
0
0.07443865
0.07393228
0.0740432
0.07488119
0.07661293
0
0
0
0
0.07269318
0.0721319
0.07213113
0.07277935
0.07419766
0
0
0
0
0
0.07095047
0.07035763
0.07028014
0.07078886
0.07198052
0
0
0
0
0
0
0.06924739
0.06864353
0.06851768
0.06893006
0.06995902
0
0
0
0
0
0
0
0.06764793
0.06704643
0.06689317
0.06723975
0.06815314
0
0
0
0
0
0
0
0
0.06619126
0.06559965
0.06543243
0.06573485
0.06656487
0
0
0
0
0
0
0
0
0
0.0648884
0.06431129
0.06413819
0.0644106
0.06517987
0
0
0
0
0
0
0
0
0
0
0.1002198
0.09501293
0.09798736
0.09041848
0.09205422
0.09617809
0.08657414
0.08733239
0.08973614
0.09495535
0.083348
0.08358211
0.08501565
0.08821603
0.09456925
0.080606
0.08052869
0.08138963
0.08352847
0.08758296
0
0.07825627
0.07797573
0.07848864
0.08000017
0.08288694
0
0
0.07621301
0.07580233
0.0760817
0.07720355
0.07939726
0
0
0
0.07440138
0.07390411
0.07402691
0.07488109
0.07663607
0
0
0
0
0.07273826
0.07218626
0.07219895
0.07286674
0.07431374
0
0
0
0
0
0.07113192
0.0705471
0.07048352
0.07101401
0.07223867
0
0
0
0
0
0
0.06950698
0.06890697
0.06879046
0.06921924
0.07027387
0
0
0
0
0
0
0
0.06790062
0.0673001
0.06715191
0.06750872
0.068439
0
0
0
0
0
0
0
0
0.06637996
0.06578802
0.06562311
0.06593102
0.06677055
0
0
0
0
0
0
0
0
0
0.06498656
0.06440914
0.06423697
0.06451179
0.06528529
0
0
0
0
0
0
0
0
0
0
0.06373434
0.06317479
0.06300194
0.06325407
0.0639785
0
0
0
0
0
0
0
0
0
0
0.09857192
0.09404675
0.0964172
0.09004253
0.09152521
0.09521359
0.08649542
0.08720341
0.08951782
0.0944798
0.08337187
0.08358734
0.08499418
0.08814763
0.09436253
0.08063711
0.08055353
0.08140644
0.0835338
0.08756759
0
0.07825627
0.07797573
0.07848864
0.08000017
0.08288694
0
0
0.07617462
0.0757676
0.07605134
0.07717874
0.07938018
0
0
0
0.07433985
0.07384839
0.07397822
0.07484138
0.07660869
0
0
0
0
0.07269268
0.07214753
0.07216901
0.07284854
0.07431192
0
0
0
0
0
0.07116431
0.07058615
0.07053248
0.07107736
0.072323
0
0
0
0
0
0
0.06967129
0.06907664
0.06897032
0.06941565
0.07049539
0
0
0
0
0
0
0
0.06814432
0.06754597
0.06740453
0.06777401
0.06872466
0
0
0
0
0
0
0
0
0.06662065
0.0660287
0.06586741
0.06618335
0.06703655
0
0
0
0
0
0
0
0
0
0.06516767
0.06458941
0.0644188
0.06469802
0.06547938
0
0
0
0
0
0
0
0
0
0
0.06382885
0.06326877
0.06309654
0.06335065
0.06407867
0
0
0
0
0
0
0
0
0
0
0.06262099
0.06208086
0.06191216
0.06214982
0.06283744
0
0
0
0
0
0
0
0
0
0
0.09724385
0.0930135
0.0948707
0.08934923
0.09061789
0.09370457
0.08622791
0.08685338
0.08901434
0.09352903
0.0833339
0.08351665
0.08487363
0.08793547
0.09387494
0.08067558
0.08057851
0.08141343
0.08351397
0.08749795
0
0.07829166
0.07800637
0.07851342
0.08001716
0.08289214
0
0
0.07617462
0.0757676
0.07605134
0.07717874
0.07938018
0
0
0
0.07429938
0.07381078
0.0739439
0.0748111
0.07658376
0
0
0
0
0.0726274
0.07208675
0.07211352
0.07279959
0.07427163
0
0
0
0
0
0.07111256
0.07053955
0.07049243
0.0710459
0.0723033
0
0
0
0
0
0
0.06969377
0.06910378
0.06900469
0.06946072
0.070556
0
0
0
0
0
0
0
0.06829447
0.06769959
0.06756553
0.06794759
0.06891773
0
0
0
0
0
0
0
0
0.06685084
0.06625973
0.06610334
0.06642912
0.0672986
0
0
0
0
0
0
0
0
0
0.06539797
0.0648189
0.06465077
0.0649364
0.06572896
0
0
0
0
0
0
0
0
0
0
0.06400333
0.06344199
0.06327069
0.06352832
0.06426295
0
0
0
0
0
0
0
0
0
0
0.06271221
0.06217142
0.06200309
0.06224236
0.06293304
0
0
0
0
0
0
0
0
0
0
0.06154428
0.06102408
0.06086215
0.06109013
0.06174782
0
0
0
0
0
0
0
0
0
0
0.09633681
0.09213207
0.09362362
0.08856792
0.0896462
0.09222102
0.08569128
0.08620194
0.08814528
0.09204047
0.08313738
0.08326823
0.08454162
0.08744474
0.09290842
0.08066615
0.08054612
0.08134863
0.08339835
0.08728517
0
0.07834049
0.07804518
0.07853935
0.08002532
0.08287257
0
0
0.07621301
0.07580233
0.0760817
0.07720355
0.07939726
0
0
0
0.07429938
0.07381078
0.0739439
0.0748111
0.07658376
0
0
0
0
0.07258554
0.07204715
0.07207641
0.07276543
0.07424123
0
0
0
0
0
0.07104469
0.07047519
0.07043206
0.07099032
0.07225386
0
0
0
0
0
0
0.06963753
0.06905135
0.0689571
0.06941945
0.07052323
0
0
0
0
0
0
0
0.0683091
0.06771745
0.06758856
0.06797854
0.06896035
0
0
0
0
0
0
0
0
0.06698924
0.06640011
0.06624907
0.06658442
0.06746912
0
0
0
0
0
0
0
0
0
0.06561662
0.06503734
0.06487261
0.065166
0.06597172
0
0
0
0
0
0
0
0
0
0
0.06422462
0.06366181
0.06349207
0.06375478
0.06449876
0
0
0
0
0
0
0
0
0
0
0.06288077
0.06233848
0.06217057
0.06241262
0.06310889
0
0
0
0
0
0
0
0
0
0
0.06163255
0.06111158
0.06094985
0.06117912
0.06183943
0
0
0
0
0
0
0
0
0
0
0.0605002
0.06000071
0.05984675
0.06006845
0.06070198
0
0
0
0
0
0
0
0
0
0
0.09587586
0.09150902
0.09277148
0.08787976
0.08881644
0.09102594
0.08505835
0.08546622
0.0872145
0.09058331
0.08270445
0.0827641
0.0839187
0.08659441
0.09140039
0.08051976
0.08036441
0.08111395
0.08307687
0.08679482
0
0.07835157
0.07803971
0.07851123
0.07996441
0.08275849
0
0
0.07626925
0.07585098
0.07612092
0.07723027
0.07940605
0
0
0
0.07433985
0.07384839
0.07397822
0.07484138
0.07660869
0
0
0
0
0.07258554
0.07204715
0.07207641
0.07276543
0.07424123
0
0
0
0
0
0.07100194
0.07043422
0.070393
0.07095344
0.07221963
0
0
0
0
0
0
0.069568
0.06898451
0.06889327
0.06935913
0.07046727
0
0
0
0
0
0
0
0.06824959
0.06766079
0.0675354
0.06792998
0.06891796
0
0
0
0
0
0
0
0
0.06699766
0.06641064
0.06626329
0.06660442
0.06749787
0
0
0
0
0
0
0
0
0
0.06574524
0.06516677
0.06500577
0.06530653
0.06612421
0
0
0
0
0
0
0
0
0
0
0.06443344
0.06386951
0.06370197
0.06397077
0.06472558
0
0
0
0
0
0
0
0
0
0
0.06309409
0.06254994
0.0623828
0.06262884
0.06333295
0
0
0
0
0
0
0
0
0
0
0.06179585
0.06127314
0.0611115
0.06134294
0.06200799
0
0
0
0
0
0
0
0
0
0
0.06058579
0.06008547
0.05993155
0.06015432
0.06079011
0
0
0
0
0
0
0
0
0
0
0.05948571
0.05900703
0.05886245
0.05907981
0.05969346
0
0
0
0
0
0
0
0
0
0
0.09118551
0.09233809
0.08738434
0.0882296
0.09020974
0.08448641
0.08481735
0.0864196
0.08941275
0.08217158
0.08216766
0.0832143
0.08568489
0.08993394
0.08016102
0.07995795
0.08063257
0.0824698
0.08594415
0
0.07824177
0.07790521
0.07834044
0.07973842
0.0824403
0
0
0.07629537
0.07586491
0.0761186
0.07720521
0.07934711
0
0
0
0.07440138
0.07390411
0.07402691
0.07488109
0.07663607
0
0
0
0
0.0726274
0.07208675
0.07211352
0.07279959
0.07427163
0
0
0
0
0
0.07100194
0.07043422
0.070393
0.07095344
0.07221963
0
0
0
0
0
0
0.06952478
0.06894268
0.06885291
0.06932035
0.07043034
0
0
0
0
0
0
0
0.06817906
0.06759236
0.06746919
0.0678663
0.06885733
0
0
0
0
0
0
0
0
0.06693585
0.06635091
0.06620611
0.06655049
0.06744834
0
0
0
0
0
0
0
0
0
0.06574879
0.06517152
0.06501306
0.06531806
0.06614223
0
0
0
0
0
0
0
0
0
0
0.06455401
0.06398984
0.06382475
0.06409915
0.06486351
0
0
0
0
0
0
0
0
0
0
0
0.06329435
0.06274852
0.06258254
0.06283331
0.06354634
0
0
0
0
0
0
0
0
0
0
0.06200215
0.06147721
0.06131582
0.06155033
0.06222196
0
0
0
0
0
0
0
0
0
0
0.06074437
0.06024215
0.06008801
0.06031253
0.06095232
0
0
0
0
0
0
0
0
0
0
0.0595689
0.05908929
0.05894465
0.05916288
0.05977851
0
0
0
0
0
0
0
0
0
0
0.05849701
0.05804023
0.05790571
0.05812082
0.05871732
0
0
0
0
0
0
0
0
0
0
0.08712426
0.08792463
0.08979455
0.08406876
0.08434991
0.08585743
0.08861448
0.08167919
0.08162775
0.08259263
0.08490892
0.08876112
0.07970097
0.07945553
0.08006166
0.08178314
0.08503683
0
0.07793802
0.07756867
0.07795281
0.07927051
0.08183677
0
0
0.07621304
0.0757649
0.07599302
0.07704167
0.07912494
0
0
0
0.07443865
0.07393228
0.0740432
0.07488119
0.07661293
0
0
0
0
0.07269268
0.07214753
0.07216901
0.07284854
0.07431192
0
0
0
0
0
0.07104469
0.07047519
0.07043206
0.07099032
0.07225386
0
0
0
0
0
0
0.06952478
0.06894268
0.06885291
0.06932035
0.07043034
0
0
0
0
0
0
0
0.06813564
0.06755006
0.06742798
0.06782624
0.06881854
0
0
0
0
0
0
0
0
0.06686482
0.06628152
0.06613837
0.0664845
0.06738443
0
0
0
0
0
0
0
0
0
0.06568545
0.06510964
0.06495298
0.06526025
0.06608745
0
0
0
0
0
0
0
0
0
0
0.06455389
0.06399009
0.0638266
0.06410402
0.06487324
0
0
0
0
0
0
0
0
0
0
0
0.06340811
0.06286139
0.06269672
0.06295168
0.06367233
0
0
0
0
0
0
0
0
0
0
0
0
0.06219498
0.06166785
0.06150695
0.06174499
0.062424
0
0
0
0
0
0
0
0
0
0
0.06094442
0.0604397
0.06028535
0.0605123
0.06115759
0
0
0
0
0
0
0
0
0
0
0.05972325
0.05924159
0.0590965
0.05931609
0.0599352
0
0
0
0
0
0
0
0
0
0
0.05857803
0.05812026
0.05798555
0.05820138
0.05879961
0
0
0
0
0
0
0
0
0
0
0.05753217
0.05709674
0.05697392
0.05718806
0.05777021
0
0
0
0
0
0
0
0
0
0
0.08384778
0.08410429
0.08556514
0.08820864
0.0813153
0.08123316
0.08214467
0.08436045
0.08796328
0.07926722
0.07899025
0.07954425
0.08117721
0.08426431
0
0.07753281
0.07713469
0.07747194
0.0787147
0.0811547
0
0
0.07595141
0.07548018
0.07567244
0.07666561
0.07866149
0
0
0
0.07437729
0.07385816
0.07395061
0.07476171
0.07645309
0
0
0
0
0.07273826
0.07218626
0.07219895
0.07286674
0.07431374
0
0
0
0
0
0.07111256
0.07053955
0.07049243
0.0710459
0.0723033
0
0
0
0
0
0
0.069568
0.06898451
0.06889327
0.06935913
0.07046727
0
0
0
0
0
0
0
0.06813563
0.06755006
0.06742798
0.06782624
0.06881854
0
0
0
0
0
0
0
0
0.06682143
0.06623903
0.0660967
0.06644361
0.06734437
0
0
0
0
0
0
0
0
0
0.06561435
0.06503979
0.06488433
0.0651928
0.06602129
0
0
0
0
0
0
0
0
0
0
0.06448973
0.06392681
0.06376449
0.06404344
0.0648147
0
0
0
0
0
0
0
0
0
0
0
0.06340514
0.06285828
0.06269434
0.06295134
0.06367555
0
0
0
0
0
0
0
0
0
0
0
0
0.06230306
0.06177443
0.0616141
0.06185508
0.06254013
0
0
0
0
0
0
0
0
0
0
0
0
0
0.06113074
0.06062348
0.06046899
0.06069867
0.06134998
0
0
0
0
0
0
0
0
0
0
0.05991776
0.05943337
0.0592877
0.05950914
0.06013296
0
0
0
0
0
0
0
0
0
0
0.05872862
0.05826866
0.05813328
0.05835015
0.05895137
0
0
0
0
0
0
0
0
0
0
0.0576112
0.05717476
0.05705164
0.05726634
0.05785002
0
0
0
0
0
0
0
0
0
0
0.05658938
0.05617483
0.05606364
0.05627901
0.05684875
0
0
0
0
0
0
0
0
0
0
0.08112159
0.08102417
0.08190915
0.0840753
0.08755819
0.07894332
0.07864606
0.07916593
0.08074066
0.0837189
0
0.07714377
0.07672445
0.07702589
0.07821074
0.08055337
0
0
0.07558891
0.07509775
0.07525706
0.0761978
0.07811068
0
0
0
0.07414854
0.07361312
0.07367969
0.07445117
0.07608154
0
0
0
0
0.07269318
0.0721319
0.07213113
0.07277935
0.07419766
0
0
0
0
0
0.07116431
0.07058615
0.07053248
0.07107736
0.072323
0
0
0
0
0
0
0.06963753
0.06905135
0.0689571
0.06941945
0.07052323
0
0
0
0
0
0
0
0.06817906
0.06759236
0.06746919
0.0678663
0.06885733
0
0
0
0
0
0
0
0
0.06682143
0.06623903
0.0660967
0.06644361
0.06734437
0
0
0
0
0
0
0
0
0
0.06557116
0.06499732
0.06484246
0.06515146
0.06598044
0
0
0
0
0
0
0
0
0
0
0.06441892
0.06385689
0.0636954
0.0639751
0.06474712
0
0
0
0
0
0
0
0
0
0
0
0.06334064
0.06279428
0.06263094
0.06288884
0.06361432
0
0
0
0
0
0
0
0
0
0
0
0
0.062298
0.06176875
0.06160861
0.06185072
0.06253829
0
0
0
0
0
0
0
0
0
0
0
0
0
0.06123404
0.06072485
0.06057024
0.06080202
0.06145799
0
0
0
0
0
0
0
0
0
0
0
0
0
0
0.06009842
0.05961115
0.05946489
0.0596883
0.06031719
0
0
0
0
0
0
0
0
0
0
0.05891827
0.05845531
0.05831903
0.0585373
0.05914252
0
0
0
0
0
0
0
0
0
0
0.05775835
0.05731968
0.05719569
0.05741114
0.05799743
0
0
0
0
0
0
0
0
0
0
0.05666659
0.05625098
0.05613945
0.05635525
0.05692634
0
0
0
0
0
0
0
0
0
0
0.0556668
0.05527283
0.05517327
0.05539034
0.05595048
0
0
0
0
0
0
0
0
0
0
0.07877005
0.07846263
0.07896541
0.08051109
0.08343551
0
0.07685058
0.07641774
0.07669569
0.07784221
0.08012039
0
0
0.07523509
0.07472946
0.07486359
0.07576346
0.07761138
0
0
0
0.07381997
0.07327081
0.07331358
0.07404724
0.07561859
0
0
0
0
0.07249063
0.0719178
0.07189817
0.07251724
0.0738914
0
0
0
0
0
0.07113192
0.0705471
0.07048352
0.07101401
0.07223867
0
0
0
0
0
0
0.06969377
0.06910378
0.06900469
0.06946072
0.070556
0
0
0
0
0
0
0
0.06824959
0.06766079
0.0675354
0.06792998
0.06891796
0
0
0
0
0
0
0
0
0.06686482
0.06628152
0.06613837
0.0664845
0.06738443
0
0
0
0
0
0
0
0
0
0.06557116
0.06499732
0.06484246
0.06515146
0.06598044
0
0
0
0
0
0
0
0
0
0
0.0643761
0.0638146
0.06365356
0.06393358
0.06470583
0
0
0
0
0
0
0
0
0
0
0
0.06327039
0.06272466
0.06256179
0.0628201
0.0635459
0
0
0
0
0
0
0
0
0
0
0
0
0.06223359
0.06170448
0.06154456
0.061787
0.06247522
0
0
0
0
0
0
0
0
0
0
0
0
0
0.06122747
0.06071731
0.06056238
0.0607947
0.06145224
0
0
0
0
0
0
0
0
0
0
0
0
0
0
0.06019773
0.05970814
0.05956126
0.059786
0.0604186
0
0
0
0
0
0
0
0
0
0
0
0
0
0
0
0.0590941
0.05862788
0.05849058
0.05871026
0.05931967
0
0
0
0
0
0
0
0
0
0
0.05794358
0.05750186
0.05737662
0.05759305
0.05818277
0
0
0
0
0
0
0
0
0
0
0.05681065
0.05639273
0.05628023
0.05649652
0.05706983
0
0
0
0
0
0
0
0
0
0
0.05574233
0.05534729
0.05524733
0.05546475
0.05602606
0
0
0
0
0
0
0
0
0
0
0.05476312
0.05438905
0.05430128
0.05452054
0.0550721
0
0
0
0
0
0
0
0
0
0
0.07669313
0.07625348
0.07651958
0.07764682
0.07989277
0
0
0.07496629
0.07445153
0.07456917
0.07544183
0.07724636
0
0
0
0.07349447
0.07293554
0.07296016
0.07366411
0.07518866
0
0
0
0
0.07218963
0.07160733
0.07157038
0.07216129
0.07349199
0
0
0
0
0
0.07095047
0.07035763
0.07028014
0.07078886
0.07198052
0
0
0
0
0
0
0.06967129
0.06907664
0.06897032
0.06941565
0.07049539
0
0
0
0
0
0
0
0.0683091
0.06771745
0.06758856
0.06797854
0.06896035
0
0
0
0
0
0
0
0
0.06693585
0.06635091
0.06620611
0.06655049
0.06744834
0
0
0
0
0
0
0
0
0
0.06561435
0.06503979
0.06488433
0.0651928
0.06602129
0
0
0
0
0
0
0
0
0
0
0.06437611
0.0638146
0.06365356
0.06393358
0.06470583
0
0
0
0
0
0
0
0
0
0
0
0.06322805
0.06268273
0.06252013
0.0627786
0.06350444
0
0
0
0
0
0
0
0
0
0
0
0
0.0621641
0.0616354
0.06147573
0.06171823
0.06240642
0
0
0
0
0
0
0
0
0
0
0
0
0
0.06116346
0.06065318
0.06049812
0.06073041
0.06138801
0
0
0
0
0
0
0
0
0
0
0
0
0
0
0.06019016
0.05969928
0.05955171
0.05977646
0.06041
0
0
0
0
0
0
0
0
0
0
0
0
0
0
0
0.05919027
0.05872126
0.05858288
0.0588033
0.05941554
0
0
0
0
0
0
0
0
0
0
0
0
0
0
0
0
0.0581151
0.05767002
0.05754329
0.0577606
0.05835383
0
0
0
0
0
0
0
0
0
0
0.05699194
0.05657085
0.05645697
0.0566738
0.05725003
0
0
0
0
0
0
0
0
0
0
0.05588357
0.05548618
0.05538513
0.05560288
0.05616608
0
0
0
0
0
0
0
0
0
0
0.05483713
0.05446196
0.05437374
0.05459325
0.05514587
0
0
0
0
0
0
0
0
0
0
0.0538761
0.05352233
0.05344607
0.05366812
0.05421211
0
0
0
0
0
0
0
0
0
0
0.07482149
0.0743021
0.07441135
0.07527022
0.07705285
0
0
0
0.07324542
0.07268045
0.07269318
0.07337729
0.07487033
0
0
0
0
0.0718874
0.0712986
0.07124845
0.0718171
0.07311296
0
0
0
0
0
0.07067208
0.07007301
0.06998273
0.07047017
0.07162875
0
0
0
0
0
0
0.06950698
0.06890697
0.06879046
0.06921924
0.07027387
0
0
0
0
0
0
0
0.06829447
0.06769959
0.06756553
0.06794759
0.06891773
0
0
0
0
0
0
0
0
0.06699766
0.06641064
0.06626329
0.06660442
0.06749787
0
0
0
0
0
0
0
0
0
0.06568545
0.06510964
0.06495298
0.06526025
0.06608745
0
0
0
0
0
0
0
0
0
0
0.06441893
0.06385689
0.0636954
0.0639751
0.06474712
0
0
0
0
0
0
0
0
0
0
0
0.06322805
0.06268273
0.06252013
0.0627786
0.06350444
0
0
0
0
0
0
0
0
0
0
0
0
0.06212233
0.06159393
0.06143441
0.06167691
0.06236499
0
0
0
0
0
0
0
0
0
0
0
0
0
0.0610949
0.06058486
0.06042983
0.06066196
0.06131921
0
0
0
0
0
0
0
0
0
0
0
0
0
0
0.06012683
0.0596356
0.05948765
0.05971201
0.06034525
0
0
0
0
0
0
0
0
0
0
0
0
0
0
0
0.05918229
0.05871157
0.05857217
0.05879219
0.05940481
0
0
0
0
0
0
0
0
0
0
0
0
0
0
0
0
0.05820858
0.05776058
0.05763225
0.05784977
0.05844515
0
0
0
0
0
0
0
0
0
0
0
0
0
0
0
0
0
0.05715971
0.05673507
0.05661953
0.05683668
0.05741578
0
0
0
0
0
0
0
0
0
0
0.05606133
0.05566069
0.05555806
0.05577614
0.05634174
0
0
0
0
0
0
0
0
0
0
0.05497583
0.05459826
0.05450885
0.05472851
0.05528281
0
0
0
0
0
0
0
0
0
0
0.05394873
0.05359382
0.05351706
0.05373929
0.05428421
0
0
0
0
0
0
0
0
0
0
0.05300526
0.05267054
0.05260657
0.05283157
0.05336907
0
0
0
0
0
0
0
0
0
0
0.07311094
0.07254287
0.0725495
0.07322346
0.07470047
0
0
0
0
0.07165471
0.07106199
0.07100323
0.07155694
0.07282918
0
0
0
0
0
0.07038918
0.06978607
0.06968608
0.07015658
0.07128833
0
0
0
0
0
0
0.06924739
0.06864353
0.06851768
0.06893006
0.06995902
0
0
0
0
0
0
0
0.06814432
0.06754597
0.06740453
0.06777401
0.06872466
0
0
0
0
0
0
0
0
0.06698924
0.06640011
0.06624907
0.06658442
0.06746912
0
0
0
0
0
0
0
0
0
0.0657488
0.06517152
0.06501306
0.06531806
0.06614223
0
0
0
0
0
0
0
0
0
0
0.06448973
0.06392681
0.06376449
0.06404343
0.0648147
0
0
0
0
0
0
0
0
0
0
0
0.06327039
0.06272466
0.0625618
0.0628201
0.0635459
0
0
0
0
0
0
0
0
0
0
0
0
0.06212233
0.06159393
0.06143441
0.06167692
0.06236499
0
0
0
0
0
0
0
0
0
0
0
0
0
0.06105376
0.06054393
0.06038896
0.06062098
0.06127797
0
0
0
0
0
0
0
0
0
0
0
0
0
0
0.06005933
0.05956819
0.05942011
0.05964411
0.06027679
0
0
0
0
0
0
0
0
0
0
0
0
0
0
0
0.05912
0.0586486
0.0585086
0.05872799
0.05933995
0
0
0
0
0
0
0
0
0
0
0
0
0
0
0
0
0.05820046
0.05775063
0.05762084
0.05783762
0.05843294
0
0
0
0
0
0
0
0
0
0
0
0
0
0
0
0
0
0.05725104
0.05682325
0.05670591
0.05692268
0.05750332
0
0
0
0
0
0
0
0
0
0
0
0
0
0
0
0
0
0
0.05622582
0.0558215
0.05571694
0.05593509
0.0565029
0
0
0
0
0
0
0
0
0
0
0.05515043
0.05476953
0.0546784
0.05489812
0.05545451
0
0
0
0
0
0
0
0
0
0
0.05408514
0.05372778
0.05364974
0.05387199
0.05441834
0
0
0
0
0
0
0
0
0
0
0.05307659
0.05274075
0.05267622
0.05290133
0.05343966
0
0
0
0
0
0
0
0
0
0
0.05214956
0.0518333
0.05178075
0.05200987
0.05254149
0
0
0
0
0
0
0
0
0
0
0.07152884
0.07093408
0.07087084
0.07141686
0.07267698
0
0
0
0
0
0.07017016
0.06956475
0.06945844
0.06991753
0.07103099
0
0
0
0
0
0
0.06898076
0.06837466
0.06824177
0.06864099
0.0696489
0
0
0
0
0
0
0
0.06790062
0.0673001
0.06715191
0.06750872
0.068439
0
0
0
0
0
0
0
0
0.06685084
0.06625973
0.06610334
0.06642912
0.0672986
0
0
0
0
0
0
0
0
0
0.06574524
0.06516677
0.06500577
0.06530653
0.06612421
0
0
0
0
0
0
0
0
0
0
0.06455389
0.06399009
0.0638266
0.06410402
0.06487324
0
0
0
0
0
0
0
0
0
0
0
0.06334064
0.06279428
0.06263094
0.06288884
0.06361432
0
0
0
0
0
0
0
0
0
0
0
0
0.0621641
0.0616354
0.06147573
0.06171823
0.06240642
0
0
0
0
0
0
0
0
0
0
0
0
0
0.06105376
0.06054393
0.06038896
0.06062098
0.06127797
0
0
0
0
0
0
0
0
0
0
0
0
0
0
0.06001889
0.05952788
0.05937977
0.05960358
0.06023589
0
0
0
0
0
0
0
0
0
0
0
0
0
0
0
0.05905377
0.05858223
0.05844195
0.05866084
0.05927206
0
0
0
0
0
0
0
0
0
0
0
0
0
0
0
0
0.05813932
0.05768873
0.05755801
0.05777393
0.05836836
0
0
0
0
0
0
0
0
0
0
0
0
0
0
0
0
0
0.05724309
0.05681328
0.05669436
0.05690993
0.05749013
0
0
0
0
0
0
0
0
0
0
0
0
0
0
0
0
0
0
0.05631544
0.05590779
0.05580116
0.05601867
0.05658736
0
0
0
0
0
0
0
0
0
0
0
0
0
0
0
0
0
0
0
0.05531207
0.05492737
0.05483413
0.05505358
0.05561184
0
0
0
0
0
0
0
0
0
0
0.05425697
0.05389616
0.05381627
0.05403836
0.05458646
0
0
0
0
0
0
0
0
0
0
0.05321091
0.05287261
0.05280671
0.05303169
0.05357126
0
0
0
0
0
0
0
0
0
0
0.05221969
0.05190232
0.0518492
0.05207834
0.05261069
0
0
0
0
0
0
0
0
0
0
0.05130922
0.05100969
0.05096831
0.05120106
0.05172836
0
0
0
0
0
0
0
0
0
0
0.07005155
0.06944489
0.06933526
0.0697884
0.0708924
0
0
0
0
0
0
0.06877336
0.06816612
0.06802867
0.068419
0.06941244
0
0
0
0
0
0
0
0.06764793
0.06704643
0.06689317
0.06723975
0.06815314
0
0
0
0
0
0
0
0
0.06662065
0.0660287
0.06586741
0.06618335
0.06703655
0
0
0
0
0
0
0
0
0
0.06561663
0.06503734
0.06487261
0.065166
0.06597172
0
0
0
0
0
0
0
0
0
0
0.06455401
0.06398984
0.06382475
0.06409915
0.06486351
0
0
0
0
0
0
0
0
0
0
0
0.06340514
0.06285828
0.06269435
0.06295134
0.06367555
0
0
0
0
0
0
0
0
0
0
0
0
0.06223359
0.06170448
0.06154456
0.061787
0.06247522
0
0
0
0
0
0
0
0
0
0
0
0
0
0.0610949
0.06058486
0.06042983
0.06066196
0.06131921
0
0
0
0
0
0
0
0
0
0
0
0
0
0
0.06001889
0.05952788
0.05937977
0.05960358
0.06023589
0
0
0
0
0
0
0
0
0
0
0
0
0
0
0
0.0590141
0.05854258
0.05840221
0.05862084
0.05923161
0
0
0
0
0
0
0
0
0
0
0
0
0
0
0
0
0.0580744
0.05762359
0.0574924
0.05770768
0.05830122
0
0
0
0
0
0
0
0
0
0
0
0
0
0
0
0
0
0.05718327
0.05675255
0.05663261
0.05684701
0.0574261
0
0
0
0
0
0
0
0
0
0
0
0
0
0
0
0
0
0
0.05630796
0.05589812
0.05578969
0.05600586
0.05657363
0
0
0
0
0
0
0
0
0
0
0
0
0
0
0
0
0
0
0
0.05540037
0.0550122
0.05491666
0.05513514
0.05569395
0
0
0
0
0
0
0
0
0
0
0
0
0
0
0
0
0
0
0
0
0.0544162
0.05405145
0.05396926
0.05419082
0.05474036
0
0
0
0
0
0
0
0
0
0
0.0533802
0.05303848
0.05297055
0.05319518
0.05373621
0
0
0
0
0
0
0
0
0
0
0.05235205
0.05203226
0.05197774
0.05220661
0.05274
0
0
0
0
0
0
0
0
0
0
0.05137824
0.05107758
0.05103562
0.05126836
0.0517963
0
0
0
0
0
0
0
0
0
0
0.05048202
0.05019997
0.05016838
0.05040485
0.05092776
0
0
0
0
0
0
0
0
0
0
0.06866094
0.06805304
0.06791316
0.0682988
0.0692847
0
0
0
0
0
0
0
0.06745053
0.06684872
0.06669221
0.06703184
0.06793354
0
0
0
0
0
0
0
0
0.06637996
0.06578802
0.06562311
0.06593102
0.06677055
0
0
0
0
0
0
0
0
0
0.06539797
0.0648189
0.06465077
0.0649364
0.06572896
0
0
0
0
0
0
0
0
0
0
0.06443344
0.06386951
0.06370197
0.06397077
0.06472558
0
0
0
0
0
0
0
0
0
0
0.06340811
0.06286139
0.06269672
0.06295167
0.06367232
0
0
0
0
0
0
0
0
0
0
0
0
0.062298
0.06176875
0.06160861
0.06185072
0.06253829
0
0
0
0
0
0
0
0
0
0
0
0
0
0.06116346
0.06065318
0.06049812
0.06073041
0.06138801
0
0
0
0
0
0
0
0
0
0
0
0
0
0
0.06005933
0.05956819
0.05942011
0.05964411
0.06027679
0
0
0
0
0
0
0
0
0
0
0
0
0
0
0
0.0590141
0.05854258
0.05840221
0.05862084
0.05923161
0
0
0
0
0
0
0
0
0
0
0
0
0
0
0
0
0.05803551
0.0575847
0.05745331
0.05766827
0.05826131
0
0
0
0
0
0
0
0
0
0
0
0
0
0
0
0
0
0.05711972
0.05668869
0.05656822
0.05678179
0.05735988
0
0
0
0
0
0
0
0
0
0
0
0
0
0
0
0
0
0
0.05624963
0.05583871
0.05572914
0.05594406
0.0565104
0
0
0
0
0
0
0
0
0
0
0
0
0
0
0
0
0
0
0
0.05539359
0.0550031
0.05490557
0.05512249
0.05568022
0
0
0
0
0
0
0
0
0
0
0
0
0
0
0
0
0
0
0
0
0.0545036
0.05413518
0.0540505
0.05427081
0.05482053
0
0
0
0
0
0
0
0
0
0
0
0
0
0
0
0
0
0
0
0
0.05353732
0.05319162
0.05312119
0.05334504
0.05388718
0
0
0
0
0
0
0
0
0
0
0.05251903
0.05219582
0.05213924
0.05236753
0.05290212
0
0
0
0
0
0
0
0
0
0
0.05150887
0.05120574
0.05116236
0.05139476
0.05192355
0
0
0
0
0
0
0
0
0
0
0.05055
0.05026685
0.05023463
0.05047107
0.05099454
0
0
0
0
0
0
0
0
0
0
0.04967002
0.04940207
0.04938128
0.04962045
0.05013941
0
0
0
0
0
0
0
0
0
0
0.06734351
0.06674144
0.06658314
0.06691907
0.06781462
0
0
0
0
0
0
0
0
0.06619126
0.06559965
0.06543243
0.06573485
0.06656487
0
0
0
0
0
0
0
0
0
0.06516768
0.06458941
0.0644188
0.06469802
0.06547938
0
0
0
0
0
0
0
0
0
0
0.06422462
0.06366181
0.06349207
0.06375478
0.06449876
0
0
0
0
0
0
0
0
0
0
0.06329435
0.06274852
0.06258254
0.06283331
0.06354634
0
0
0
0
0
0
0
0
0
0
0.06230306
0.06177443
0.06161411
0.06185509
0.06254013
0
0
0
0
0
0
0
0
0
0
0
0
0
0.06122747
0.0607173
0.06056238
0.0607947
0.06145224
0
0
0
0
0
0
0
0
0
0
0
0
0
0
0.06012683
0.0596356
0.05948765
0.05971201
0.06034525
0
0
0
0
0
0
0
0
0
0
0
0
0
0
0
0.05905377
0.05858223
0.05844196
0.05866084
0.05927206
0
0
0
0
0
0
0
0
0
0
0
0
0
0
0
0
0.05803551
0.0575847
0.05745331
0.05766827
0.05826131
0
0
0
0
0
0
0
0
0
0
0
0
0
0
0
0
0
0.05708165
0.05665056
0.05652987
0.05674302
0.05732055
0
0
0
0
0
0
0
0
0
0
0
0
0
0
0
0
0
0
0.05618754
0.0557762
0.05566601
0.05588005
0.05644521
0
0
0
0
0
0
0
0
0
0
0
0
0
0
0
0
0
0
0
0.05533684
0.05494518
0.05484636
0.05506189
0.05561812
0
0
0
0
0
0
0
0
0
0
0
0
0
0
0
0
0
0
0
0
0.05449778
0.05412686
0.05404007
0.05425861
0.054807
0
0
0
0
0
0
0
0
0
0
0
0
0
0
0
0
0
0
0
0
0.05362407
0.05327465
0.0532015
0.05342387
0.05396584
0
0
0
0
0
0
0
0
0
0
0
0
0
0
0
0
0
0
0
0
0.05267428
0.05234709
0.05228792
0.05251517
0.05305055
0
0
0
0
0
0
0
0
0
0
0.05167383
0.05136721
0.05132173
0.05155346
0.05208316
0
0
0
0
0
0
0
0
0
0
0.05067896
0.05039343
0.05035971
0.05059575
0.05111997
0
0
0
0
0
0
0
0
0
0
0.04973706
0.04946797
0.04944658
0.04968565
0.05020513
0
0
0
0
0
0
0
0
0
0
0.04887014
0.04861802
0.04860502
0.04884819
0.04936254
0
0
0
0
0
0
0
0
0
0
0.06608895
0.0654974
0.06532887
0.06562832
0.06645329
0
0
0
0
0
0
0
0
0
0.06498656
0.06440914
0.06423697
0.06451179
0.06528529
0
0
0
0
0
0
0
0
0
0
0.06400333
0.06344199
0.06327069
0.06352832
0.06426295
0
0
0
0
0
0
0
0
0
0
0.06309409
0.06254994
0.0623828
0.06262884
0.06333295
0
0
0
0
0
0
0
0
0
0
0.06219498
0.06166785
0.06150695
0.061745
0.06242399
0
0
0
0
0
0
0
0
0
0
0.06123404
0.06072485
0.06057024
0.06080202
0.06145799
0
0
0
0
0
0
0
0
0
0
0
0
0
0
0.06019016
0.05969928
0.05955171
0.05977646
0.06041
0
0
0
0
0
0
0
0
0
0
0
0
0
0
0
0.05912
0.0586486
0.0585086
0.05872799
0.05933995
0
0
0
0
0
0
0
0
0
0
0
0
0
0
0
0
0.0580744
0.0576236
0.0574924
0.05770768
0.05830122
0
0
0
0
0
0
0
0
0
0
0
0
0
0
0
0
0
0.05708165
0.05665056
0.05652987
0.05674302
0.05732055
0
0
0
0
0
0
0
0
0
0
0
0
0
0
0
0
0
0
0.05615032
0.05573886
0.0556284
0.05584201
0.05640653
0
0
0
0
0
0
0
0
0
0
0
0
0
0
0
0
0
0
0
0.05527625