/*--------------------------------*- C++ -*----------------------------------*\
| =========                 |                                                 |
| \\      /  F ield         | OpenFOAM: The Open Source CFD Toolbox           |
|  \\    /   O peration     | Version:  2306                                  |
|   \\  /    A nd           | Website:  www.openfoam.com                      |
|    \\/     M anipulation  |                                                 |
\*---------------------------------------------------------------------------*/
FoamFile
{
    version     2.0;
    format      ascii;
    arch        "LSB;label=32;scalar=64";
    class       volScalarField;
    location    "0.6/fuel";
    object      H2;
}
// * * * * * * * * * * * * * * * * * * * * * * * * * * * * * * * * * * * * * //

dimensions      [0 0 0 0 0 0 0];

internalField   nonuniform List<scalar> 
16000
(
0.6068126
0.6117892
0.5409313
0.607101
0.6219117
0.5441861
0.612084
0.4802952
0.5411495
0.6076644
0.6372996
0.5507636
0.6222199
0.482711
0.5444078
0.6126596
0.4311462
0.4804607
0.5415761
0.6084939
0.6574169
0.5606615
0.6376299
0.4875811
0.5509923
0.6228216
0.4330436
0.4828786
0.5448411
0.6135071
0.3911617
0.4312758
0.4807846
0.5422048
0.6095853
0.6793422
0.5734388
0.6577807
0.4948837
0.5609018
0.6382747
0.436861
0.4877532
0.5514395
0.6237074
0.3926988
0.4331747
0.4832067
0.5454794
0.6146222
0.3580764
0.3912661
0.4315297
0.4812621
0.5430321
0.6106673
0.6962694
0.5872015
0.6797496
0.5042655
0.5736961
0.6584911
0.4425678
0.495063
0.5613715
0.6392238
0.3957863
0.436995
0.4880899
0.5520983
0.6248727
0.3593495
0.3928043
0.4334314
0.4836903
0.5463196
0.6157276
0.330245
0.3581624
0.3914707
0.4319042
0.4818907
0.5438521
0.6115644
0.7072787
0.5978182
0.696704
0.5143152
0.5874805
0.6805453
0.4498701
0.5044553
0.5741993
0.6595368
0.400391
0.4427068
0.4954137
0.5620634
0.6404726
0.3619033
0.3958939
0.4372576
0.4885862
0.5529653
0.626028
0.3313181
0.3594363
0.393011
0.4338101
0.4843269
0.5471523
0.6166443
0.3064982
0.3303172
0.3583311
0.3917728
0.4323974
0.4825138
0.5445318
0.6124569
0.7136428
0.6047762
0.7077281
0.5220317
0.5981093
0.6975525
0.4576569
0.5145186
0.5880261
0.6817173
0.4062642
0.4500163
0.5048269
0.5749405
0.660913
0.3657048
0.4005021
0.4429789
0.4959307
0.562974
0.6417107
0.3334682
0.3619917
0.3961048
0.437645
0.4892396
0.5538247
0.6269866
0.3074156
0.3313908
0.3596066
0.3933161
0.4343087
0.484958
0.5478426
0.6175562
0.2859889
0.3065597
0.3304588
0.3585803
0.3921707
0.4328863
0.4830301
0.5452077
0.6133446
0.7165328
0.6088447
0.7141
0.5270774
0.6050733
0.7086052
0.4636135
0.522242
0.5986786
0.6988021
0.4125049
0.4578125
0.5149169
0.5888304
0.6832605
0.3705412
0.4063805
0.4503028
0.5053748
0.5759162
0.6622779
0.3366638
0.3657958
0.4007198
0.4433803
0.4966112
0.5638766
0.6427399
0.3092523
0.3335422
0.3621651
0.3964161
0.438155
0.4898873
0.5545374
0.6279408
0.2867828
0.3074776
0.3315336
0.359858
0.3937179
0.4348031
0.4854809
0.548529
0.6184633
0.2680905
0.2860419
0.3066804
0.3306681
0.3589086
0.3925653
0.4332912
0.4835432
0.5458796
0.6142274
0.7165328
0.6107103
0.7169935
0.5300262
0.6091447
0.7149923
0.4675
0.5272908
0.605654
0.7098966
0.4172648
0.4637735
0.5226538
0.5995176
0.7004475
0.3756656
0.4126281
0.4581173
0.5155043
0.5898895
0.6847922
0.340721
0.3706362
0.4066087
0.4507253
0.5060961
0.5768836
0.6634185
0.3119786
0.3367398
0.3659743
0.4010413
0.4439088
0.4972859
0.5646263
0.6437663
0.2883709
0.3093152
0.3336874
0.3624212
0.3968262
0.4386607
0.4904242
0.5552463
0.6288903
0.2687845
0.2868362
0.3075992
0.3317446
0.3601892
0.3941163
0.4352125
0.4860007
0.5492115
0.6193656
0.2523295
0.2681367
0.286146
0.3068587
0.3309439
0.3592341
0.392892
0.4336936
0.4840532
0.5465477
0.6184983
0.7136428
0.6107103
0.7169935
0.5313787
0.6110116
0.7178924
0.4697692
0.530241
0.6097312
0.7163057
0.4203653
0.4676617
0.5277084
0.6065098
0.7115967
0.379565
0.417391
0.464087
0.5232612
0.6006224
0.7020806
0.34501
0.3757658
0.4128697
0.4585673
0.5162781
0.5909401
0.686084
0.315434
0.3408001
0.3708225
0.4069455
0.4512818
0.5068113
0.5776906
0.6645619
0.2907256
0.3120431
0.336889
0.3662379
0.4014646
0.4444328
0.4978459
0.5653732
0.6447896
0.2701719
0.2884251
0.3094388
0.333902
0.3627585
0.3972327
0.4390797
0.4909581
0.5559515
0.6298353
0.2529415
0.268831
0.286941
0.3077789
0.3320227
0.3605176
0.3944463
0.4356194
0.4865173
0.54989
0.6237307
0.2383415
0.2523701
0.2682275
0.2863
0.3070939
0.3312174
0.3595037
0.3932165
0.4340935
0.48456
0.5497781
0.6214359
0.7072787
0.6088447
0.7141
0.5313787
0.6110116
0.7178924
0.4708096
0.531594
0.6116005
0.7192155
0.4221742
0.4699316
0.5306613
0.6105953
0.7180347
0.3821014
0.4204925
0.4679784
0.5283243
0.6076366
0.7132841
0.3482675
0.3796674
0.4176385
0.4645496
0.5240611
0.6017184
0.7034585
0.3190799
0.3450932
0.3759624
0.4132265
0.4591601
0.5170455
0.5918236
0.6873909
0.2937058
0.3155009
0.3409554
0.3710977
0.4073891
0.4518336
0.5074075
0.5784981
0.6657081
0.2722271
0.290781
0.3121697
0.3371094
0.3665852
0.4018843
0.4448677
0.4984037
0.5661172
0.6458099
0.2541644
0.270219
0.2885314
0.3096213
0.3341847
0.363093
0.3975695
0.4394962
0.491489
0.5566529
0.6344094
0.2388853
0.2529824
0.2689224
0.287096
0.3080158
0.3322984
0.3607896
0.3947741
0.4360238
0.4870307
0.5531715
0.6267465
0.225841
0.2383775
0.25245
0.2683618
0.286503
0.3073271
0.3314439
0.3597714
0.393539
0.4344907
0.4870102
0.5519931
0.6236621
0.6962694
0.6047762
0.7077281
0.5300262
0.6091447
0.7149923
0.4708096
0.531594
0.6116005
0.7192155
0.4230033
0.4709723
0.5320154
0.6124682
0.7209572
0.3835801
0.4223018
0.4702497
0.531281
0.611733
0.7197506
0.3503838
0.3822043
0.420742
0.4684459
0.5291354
0.6087543
0.7147051
0.3218445
0.3483523
0.3798682
0.418004
0.4651591
0.5248546
0.6026403
0.704853
0.2968454
0.3191501
0.3452566
0.3762529
0.4136967
0.4597481
0.5176905
0.5927148
0.6887134
0.2748252
0.2937633
0.3156325
0.3411849
0.3714604
0.4078291
0.4522936
0.5080039
0.5793062
0.6668569
0.2559745
0.2722753
0.29089
0.3123569
0.3373998
0.3669296
0.4022326
0.4453006
0.4989591
0.5668585
0.650758
0.2399716
0.2542058
0.2703117
0.2886887
0.3098619
0.3344651
0.3633701
0.3979043
0.4399103
0.4920168
0.5600464
0.637622
0.2263276
0.2389216
0.2530628
0.2690575
0.2873005
0.3082508
0.3325267
0.3610598
0.3950998
0.4364255
0.4895129
0.5554294
0.6290429
0.2146015
0.2258732
0.2384483
0.2525682
0.2685388
0.2867044
0.3075202
0.3316688
0.3600374
0.3938593
0.4364106
0.4886864
0.5536686
0.6251581
0.6793422
0.5978182
0.696704
0.5270774
0.6050733
0.7086052
0.4697692
0.530241
0.6097312
0.7163057
0.4230033
0.4709723
0.5320154
0.6124682
0.7209572
0.3842577
0.423131
0.4712909
0.5326367
0.6136106
0.7226857
0.351617
0.3836832
0.4225519
0.470719
0.5320971
0.6128613
0.7211935
0.3236388
0.350469
0.3824064
0.4211103
0.4690616
0.5299398
0.6096928
0.7161405
0.2992228
0.3219159
0.3485187
0.3801648
0.4184856
0.4657636
0.5255216
0.6035705
0.7062643
0.2775583
0.2969055
0.3192882
0.345498
0.3766359
0.4141632
0.4602421
0.5183408
0.5936139
0.6900514
0.2582602
0.274875
0.2938762
0.3158269
0.3414873
0.3718201
0.4081957
0.4527535
0.5086005
0.5801149
0.672458
0.2415782
0.2560168
0.27237
0.291051
0.3126036
0.3376879
0.3672153
0.4025793
0.4457317
0.4995122
0.5704501
0.6544242
0.227299
0.2400082
0.2542872
0.2704487
0.2888961
0.3101006
0.3346974
0.3636455
0.398237
0.440322
0.4945696
0.5624128
0.6401138
0.2150394
0.2263599
0.2389928
0.2531817
0.2692358
0.2875033
0.3084454
0.3327535
0.3613281
0.3954233
0.4383674
0.4912168
0.557144
0.630593
0.2044407
0.2146304
0.2259364
0.2385531
0.2527241
0.2687146
0.2868711
0.307712
0.3318921
0.3603015
0.3954069
0.4377218
0.4899528
0.5547929
0.6259097
0.6574169
0.5872015
0.6797496
0.5220317
0.5981093
0.6975525
0.4675
0.5272908
0.605654
0.7098966
0.4221742
0.4699316
0.5306613
0.6105953
0.7180347
0.3842577
0.423131
0.4712909
0.5326367
0.6136106
0.7226857
0.3521819
0.3843609
0.4233814
0.471761
0.5334549
0.6147436
0.7241382
0.3246838
0.3517022
0.3838856
0.4229212
0.4713373
0.5329064
0.6138077
0.7226489
0.3007646
0.3237105
0.3506362
0.3827048
0.4215956
0.4696723
0.5306149
0.6106384
0.7175905
0.2796256
0.2992839
0.3220563
0.3487647
0.3805559
0.4189634
0.4662717
0.5261943
0.6045093
0.7076925
0.260662
0.2776104
0.2970238
0.3194923
0.3458164
0.3770158
0.414555
0.4607401
0.5189965
0.594521
0.6966376
0.2436052
0.2583039
0.274973
0.2940432
0.3160832
0.3417873
0.3721198
0.4085623
0.4532135
0.5091972
0.584051
0.6772306
0.2287349
0.2416156
0.2560999
0.2725101
0.2912633
0.3128483
0.3379268
0.3674997
0.4029244
0.4461609
0.5021913
0.573069
0.6574494
0.2159134
0.2273317
0.2400803
0.2544077
0.2706294
0.2891019
0.3102983
0.3349282
0.3639191
0.3985677
0.4423123
0.4963448
0.5642371
0.6418263
0.2048369
0.2150685
0.2264235
0.2390982
0.2533386
0.2694127
0.2876711
0.3086386
0.3329787
0.3615947
0.3969868
0.4396981
0.492509
0.5582987
0.6313744
0.1952102
0.2044667
0.2146872
0.2260301
0.2386915
0.2528788
0.26886
0.2870366
0.3079024
0.3321139
0.3615776
0.3964627
0.4387118
0.490802
0.5553574
0.6372996
0.5734388
0.6577807
0.5143152
0.5874805
0.6805453
0.4636135
0.522242
0.5986786
0.6988021
0.4203653
0.4676617
0.5277084
0.6065098
0.7115967
0.3835801
0.4223018
0.4702497
0.531281
0.611733
0.7197506
0.3521819
0.3843609
0.4233814
0.471761
0.5334549
0.6147436
0.7241382
0.3251625
0.3522671
0.3845633
0.423751
0.4723802
0.5342662
0.6156932
0.7256022
0.3016621
0.3247555
0.3518695
0.3841844
0.4234078
0.4719504
0.5335848
0.6147598
0.7241169
0.2809653
0.3008258
0.3238514
0.3508833
0.3830981
0.422077
0.4701848
0.5312947
0.6115909
0.7190551
0.2624768
0.2796785
0.299404
0.3222639
0.3490892
0.3809439
0.4193648
0.4667841
0.5268728
0.6054565
0.7147232
0.245733
0.2607076
0.2777129
0.2971987
0.3197615
0.3461324
0.3773349
0.41495
0.4612421
0.5196577
0.5989732
0.703648
0.2305451
0.2436438
0.2583898
0.275118
0.2942633
0.3163375
0.3420372
0.3724194
0.4089288
0.4536734
0.5121003
0.5872918
0.6818591
0.2172046
0.2287683
0.2416892
0.2562229
0.2726949
0.291474
0.3130513
0.3381646
0.3677827
0.4032679
0.4482391
0.5041376
0.5751974
0.6596707
0.2056274
0.2159427
0.2273961
0.2401871
0.2545666
0.2708087
0.2892723
0.3104947
0.3351575
0.3641911
0.4001664
0.4436939
0.4977112
0.5654843
0.6427018
0.1955704
0.2048631
0.2151256
0.2265177
0.2392374
0.2534942
0.2695591
0.2878378
0.3088305
0.3332024
0.3628827
0.3980569
0.4407064
0.4933785
0.55888
0.1867881
0.1952339
0.2045181
0.2147714
0.2261536
0.2388288
0.2530069
0.2690044
0.2872009
0.3080914
0.3331854
0.3624472
0.3972592
0.4393751
0.491228
0.6219117
0.5606615
0.6376299
0.5042655
0.5736961
0.6584911
0.4576569
0.5145186
0.5880261
0.6817173
0.4172648
0.4637735
0.5226538
0.5995176
0.7004475
0.3821014
0.4204925
0.4679784
0.5283243
0.6076366
0.7132841
0.351617
0.3836832
0.4225519
0.470719
0.5320971
0.6128613
0.7211935
0.3251625
0.3522671
0.3845633
0.423751
0.4723802
0.5342662
0.6156932
0.7256022
0.3020731
0.3252341
0.3524345
0.3848623
0.424238
0.4729943
0.5349459
0.616648
0.7270779
0.2817449
0.3017233
0.3248964
0.3521168
0.3845783
0.4238903
0.4724642
0.534267
0.6157177
0.7255976
0.2636522
0.2810183
0.3009462
0.3240596
0.3512091
0.3834883
0.4224808
0.4707006
0.5319792
0.6125505
0.7262509
0.2473394
0.262523
0.2797824
0.2995816
0.3225377
0.349411
0.3812698
0.4197695
0.4673006
0.5275571
0.6101063
0.7221132
0.2324436
0.2457732
0.2607973
0.2778646
0.2974295
0.3200286
0.3463977
0.3776565
0.415348
0.4617481
0.5229013
0.6034675
0.7124463
0.2188311
0.2305795
0.2437198
0.258517
0.2753093
0.2944818
0.3165493
0.3422871
0.3727189
0.4092952
0.4559106
0.5144782
0.590339
0.6859835
0.2067947
0.2172344
0.2288339
0.2417981
0.2563852
0.2728782
0.2916487
0.3132533
0.3384013
0.3680644
0.4049311
0.449746
0.5057154
0.5767381
0.6608769
0.1962888
0.2056539
0.2160005
0.2274913
0.2403279
0.2547243
0.2709571
0.2894416
0.3106898
0.3353854
0.3655055
0.4012747
0.4447564
0.4986441
0.5661195
0.187117
0.1955942
0.2049147
0.2152102
0.226642
0.2393755
0.2536231
0.2697044
0.2880034
0.309021
0.3342831
0.3637633
0.3988673
0.4413845
0.4938158
0.1790727
0.1868096
0.1952805
0.2045941
0.2148825
0.2262763
0.2389424
0.253134
0.2691478
0.2873641
0.3090047
0.3339151
0.363103
0.3977927
0.4397078
0.6117892
0.5507636
0.6222199
0.4948837
0.5609018
0.6382747
0.4498701
0.5044553
0.5741993
0.6595368
0.4125049
0.4578125
0.5149169
0.5888304
0.6832605
0.379565
0.417391
0.464087
0.5232612
0.6006224
0.7020806
0.3503838
0.3822043
0.420742
0.4684459
0.5291354
0.6087543
0.7147051
0.3246838
0.3517022
0.3838856
0.4229212
0.4713373
0.5329064
0.6138077
0.7226489
0.3020731
0.3252341
0.3524345
0.3848623
0.424238
0.4729943
0.5349459
0.616648
0.7270779
0.2821018
0.3021342
0.3253749
0.3526817
0.3852563
0.424721
0.4735086
0.535629
0.6176081
0.7285653
0.2643359
0.2817978
0.3018435
0.3251046
0.3524428
0.384969
0.4242947
0.4729808
0.5349531
0.6166815
0.7328619
0.2483791
0.2636984
0.2811224
0.3011242
0.3243342
0.3515323
0.3838155
0.4228873
0.4712198
0.5326684
0.6172529
0.733476
0.2338757
0.2473801
0.2626139
0.2799363
0.2998159
0.3228093
0.3496814
0.3815984
0.4201776
0.4678215
0.5309145
0.6147542
0.7310509
0.2205356
0.2324794
0.2458525
0.2609301
0.2780647
0.2976585
0.320253
0.3466651
0.3779806
0.4157493
0.4642303
0.5261563
0.6088827
0.7238247
0.2082643
0.2188619
0.2306471
0.2438322
0.2586847
0.2754991
0.2946637
0.3167611
0.3425368
0.3730184
0.4110774
0.4577397
0.5167053
0.5929788
0.6888301
0.1973493
0.2068216
0.2172933
0.228931
0.2419418
0.2565463
0.2730302
0.2918225
0.3134543
0.3386368
0.3694281
0.4061356
0.4509665
0.5068551
0.5775655
0.1877727
0.1963129
0.205706
0.216086
0.227617
0.2404677
0.2548548
0.2711046
0.2896097
0.3108837
0.3364866
0.3664159
0.4021265
0.4454814
0.4991188
0.1793742
0.1871386
0.195641
0.2049911
0.2153219
0.2267654
0.2394898
0.253751
0.2698488
0.2881678
0.3099416
0.3350214
0.3644299
0.399412
0.4417254
0.1719792
0.1790925
0.1868521
0.1953495
0.2046945
0.2149928
0.2263779
0.2390552
0.2532602
0.2692901
0.2881523
0.3096262
0.3344651
0.3635421
0.3980603
0.6068126
0.5441861
0.612084
0.4875811
0.5509923
0.6228216
0.4425678
0.495063
0.5613715
0.6392238
0.4062642
0.4500163
0.5048269
0.5749405
0.660913
0.3756656
0.4126281
0.4581173
0.5155043
0.5898895
0.6847922
0.3482675
0.3796674
0.4176385
0.4645496
0.5240611
0.6017184
0.7034585
0.3236388
0.350469
0.3824064
0.4211103
0.4690616
0.5299398
0.6096928
0.7161405
0.3016621
0.3247555
0.3518695
0.3841844
0.4234078
0.4719504
0.5335848
0.6147598
0.7241169
0.2821018
0.3021342
0.3253749
0.3526817
0.3852563
0.424721
0.4735086
0.535629
0.6176081
0.7285653
0.2646488
0.2821547
0.3022544
0.3255831
0.3530077
0.3856472
0.4251254
0.4740253
0.5363155
0.6185735
0.7358576
0.2489838
0.264382
0.2819018
0.3020214
0.3253792
0.3527662
0.3852963
0.4247011
0.4735001
0.535643
0.6213983
0.7399201
0.2348022
0.2484199
0.2637894
0.2812764
0.301359
0.3246067
0.3518034
0.3841449
0.4232964
0.4717426
0.5360443
0.6217609
0.7418382
0.2218206
0.2339119
0.2474603
0.2627485
0.2801392
0.3000485
0.3230375
0.349954
0.3819297
0.4205889
0.4703765
0.5342548
0.6201647
0.7417181
0.2098031
0.2205676
0.2325498
0.2459698
0.2611054
0.2782634
0.2978509
0.320479
0.3469345
0.3783073
0.417717
0.466718
0.5300599
0.6156551
0.73933
0.1986835
0.208292
0.2189225
0.2307473
0.2439806
0.2588513
0.2756572
0.2948456
0.3169727
0.3427864
0.3744745
0.412533
0.4594512
0.518628
0.5947579
0.1887402
0.1973737
0.2068747
0.2173805
0.2290592
0.2420845
0.2566798
0.2731815
0.2919955
0.3136543
0.3397768
0.3704149
0.4071106
0.4518475
0.5074664
0.1799751
0.1877946
0.1963602
0.2057833
0.216199
0.2277419
0.2405835
0.2549845
0.2712511
0.2897768
0.3118206
0.3372488
0.3671153
0.4027075
0.4458502
0.1722565
0.179394
0.1871813
0.1957104
0.2050921
0.2154328
0.2268674
0.2396033
0.253878
0.2699921
0.2889618
0.3105701
0.3355801
0.3648778
0.3996858
0.1654359
0.1719974
0.1791314
0.1869151
0.1954407
0.2047942
0.215084
0.2264786
0.2391672
0.2533855
0.2699776
0.2886884
0.3100946
0.3348333
0.3637623
0.5409313
0.607101
0.482711
0.5444078
0.6126596
0.436861
0.4877532
0.5514395
0.6237074
0.400391
0.4427068
0.4954137
0.5620634
0.6404726
0.3705412
0.4063805
0.4503028
0.5053748
0.5759162
0.6622779
0.34501
0.3757658
0.4128697
0.4585673
0.5162781
0.5909401
0.686084
0.3218445
0.3483523
0.3798682
0.418004
0.4651591
0.5248546
0.6026403
0.704853
0.3007646
0.3237105
0.3506362
0.3827048
0.4215956
0.4696723
0.5306149
0.6106384
0.7175905
0.2817449
0.3017233
0.3248964
0.3521168
0.3845783
0.4238903
0.4724642
0.534267
0.6157177
0.7255976
0.2646488
0.2821547
0.3022544
0.3255831
0.3530077
0.3856472
0.4251254
0.4740253
0.5363155
0.6185735
0.7358576
0.2492605
0.264695
0.2822586
0.3024322
0.3258576
0.3533311
0.3859744
0.4255317
0.4745444
0.5370055
0.6232952
0.742835
0.2353409
0.2490244
0.2644729
0.2820556
0.3022561
0.3256516
0.353037
0.3856253
0.4251096
0.4740222
0.5390178
0.6257864
0.7478677
0.2226515
0.2348384
0.2485001
0.263924
0.2814796
0.301592
0.3248352
0.3520762
0.3844763
0.4237081
0.4743022
0.5392687
0.626789
0.7513509
0.2109626
0.2218529
0.2339832
0.247579
0.2629261
0.2803407
0.3002438
0.3232676
0.3502287
0.3822636
0.4226064
0.4729164
0.5381297
0.6264194
0.7542689
0.2000799
0.209832
0.2206307
0.2326542
0.2461247
0.2612795
0.2784303
0.2980447
0.3207068
0.3472061
0.379909
0.4196881
0.4696984
0.5349184
0.6246334
0.7663961
0.189957
0.1987087
0.2083467
0.2190123
0.2308795
0.2441279
0.2589899
0.2758152
0.2950274
0.3171842
0.3440003
0.3756629
0.4138943
0.4609274
0.5199204
0.1808614
0.1887625
0.1974218
0.2069534
0.2174955
0.2291864
0.2422028
0.2568127
0.273332
0.2921676
0.3146225
0.3406011
0.3712132
0.4078141
0.4523198
0.1728091
0.1799951
0.1878377
0.1964303
0.2058853
0.2163111
0.2278452
0.2406985
0.2551134
0.2713967
0.2905842
0.3124686
0.3378341
0.3675921
0.4030029
0.1656918
0.1722747
0.1794331
0.1872446
0.1958021
0.2051923
0.2155245
0.2269688
0.239716
0.2540042
0.2706844
0.2895037
0.3110455
0.3359554
0.3651029
0.1593818
0.1654526
0.1720331
0.179189
0.1869983
0.1955313
0.2048767
0.2151746
0.2265787
0.2392783
0.2539906
0.270445
0.2890923
0.310408
0.3350179
0.4802952
0.5411495
0.6076644
0.4330436
0.4828786
0.5448411
0.6135071
0.3957863
0.436995
0.4880899
0.5520983
0.6248727
0.3657048
0.4005021
0.4429789
0.4959307
0.562974
0.6417107
0.340721
0.3706362
0.4066087
0.4507253
0.5060961
0.5768836
0.6634185
0.3190799
0.3450932
0.3759624
0.4132265
0.4591601
0.5170455
0.5918236
0.6873909
0.2992228
0.3219159
0.3485187
0.3801648
0.4184856
0.4657636
0.5255216
0.6035705
0.7062643
0.2809653
0.3008258
0.3238514
0.3508833
0.3830981
0.422077
0.4701848
0.5312947
0.6115909
0.7190551
0.2643359
0.2817978
0.3018435
0.3251046
0.3524428
0.384969
0.4242947
0.4729808
0.5349531
0.6166815
0.7328619
0.2492605
0.264695
0.2822586
0.3024322
0.3258576
0.3533311
0.3859744
0.4255317
0.4745444
0.5370055
0.6232952
0.742835
0.2355874
0.2493011
0.2647857
0.2824123
0.3026668
0.3261299
0.3536018
0.386303
0.4259398
0.475066
0.5403786
0.6276269
0.7505949
0.2231344
0.235377
0.2491045
0.2646073
0.2822586
0.302489
0.3258797
0.3533092
0.3859559
0.4255202
0.4765755
0.5421477
0.6305521
0.7566989
0.211712
0.2226838
0.2349097
0.2486188
0.2641017
0.2816813
0.3017874
0.3250651
0.3523506
0.3848099
0.4257239
0.4767451
0.5428557
0.6323273
0.7619802
0.2011313
0.2109917
0.2219167
0.2340888
0.2477358
0.2631024
0.2805099
0.3004407
0.3234994
0.3505056
0.383901
0.4246113
0.4758606
0.5425931
0.6335739
0.7714169
0.1912297
0.200106
0.2098888
0.2207242
0.2327921
0.2462784
0.2614256
0.2785983
0.2982399
0.3209364
0.3485375
0.3815132
0.4220486
0.4734016
0.541326
0.6399746
0.781867
0.1819754
0.1899799
0.1987582
0.2084276
0.2191309
0.2310108
0.2442506
0.2591286
0.2759731
0.2952091
0.3182127
0.3449904
0.376774
0.415068
0.4619191
0.1736239
0.1808817
0.1888063
0.1974932
0.2070572
0.2176097
0.2292919
0.2423205
0.2569449
0.2734817
0.2930006
0.315322
0.3412678
0.3717891
0.4081913
0.1662016
0.1728275
0.1800345
0.1879016
0.1965229
0.2059866
0.2164039
0.2279478
0.2408127
0.2552413
0.2721
0.2911423
0.3129661
0.338233
0.3678346
0.1596186
0.1657085
0.1723106
0.179491
0.1873282
0.1958931
0.2052752
0.2156156
0.2270694
0.2398278
0.2546133
0.2711566
0.2899135
0.3113648
0.336144
0.1537647
0.1593972
0.1654855
0.1720861
0.1792652
0.1870809
0.1956062
0.2049586
0.2152646
0.226678
0.2398152
0.2544018
0.270797
0.2893625
0.3105651
0.4311462
0.4804607
0.5415761
0.6084939
0.3926988
0.4331747
0.4832067
0.5454794
0.6146222
0.3619033
0.3958939
0.4372576
0.4885862
0.5529653
0.626028
0.3366638
0.3657958
0.4007198
0.4433803
0.4966112
0.5638766
0.6427399
0.315434
0.3408001
0.3708225
0.4069455
0.4512818
0.5068113
0.5776906
0.6645619
0.2968454
0.3191501
0.3452566
0.3762529
0.4136967
0.4597481
0.5176905
0.5927148
0.6887134
0.2796256
0.2992839
0.3220563
0.3487647
0.3805559
0.4189634
0.4662717
0.5261943
0.6045093
0.7076925
0.2636522
0.2810183
0.3009462
0.3240596
0.3512091
0.3834883
0.4224808
0.4707006
0.5319792
0.6125505
0.7262509
0.2489838
0.264382
0.2819018
0.3020214
0.3253792
0.3527662
0.3852963
0.4247011
0.4735001
0.535643
0.6213983
0.7399201
0.2355874
0.2493011
0.2647857
0.2824123
0.3026668
0.3261299
0.3536018
0.386303
0.4259398
0.475066
0.5403786
0.6276269
0.7505949
0.2233554
0.2356234
0.2493811
0.26492
0.2826151
0.3028995
0.3263578
0.3538736
0.3866331
0.4263497
0.4776156
0.5434643
0.6322755
0.7591339
0.2121475
0.2231667
0.2354481
0.249223
0.2647847
0.28246
0.3026839
0.326109
0.3535828
0.3862881
0.427528
0.4789418
0.5455401
0.6356781
0.7663834
0.2018106
0.2117411
0.2227475
0.2350152
0.2487755
0.2642781
0.2818504
0.301984
0.3252964
0.3526268
0.3864427
0.4276473
0.4794618
0.5467964
0.6383351
0.7758882
0.1921875
0.2011576
0.2110491
0.2220112
0.2342282
0.2478914
0.2632505
0.2806805
0.3006392
0.323733
0.3518635
0.385528
0.4269349
0.4792478
0.5476798
0.6430987
0.7840668
0.1831401
0.1912534
0.2001574
0.2099731
0.2208477
0.232929
0.2464076
0.2615729
0.2787677
0.2984367
0.3220618
0.3498706
0.3834338
0.4249788
0.4782735
0.5522147
0.6492939
0.7935578
0.1746477
0.1819963
0.190025
0.1988316
0.2085346
0.2192486
0.2311201
0.2443732
0.2592671
0.2761309
0.2960924
0.3190513
0.345916
0.3777318
0.4158564
0.1669531
0.1736426
0.1809218
0.1888713
0.1975874
0.2071604
0.2177044
0.2293969
0.2424375
0.2570764
0.2742065
0.2936022
0.3158877
0.3417486
0.3720979
0.1600904
0.1662185
0.1728637
0.180093
0.187986
0.1966148
0.2060704
0.2164961
0.2280498
0.2409261
0.2558597
0.2725859
0.2915706
0.3133051
0.3384358
0.1539845
0.1596341
0.1657416
0.1723639
0.1795675
0.1874112
0.1959684
0.2053575
0.2157061
0.2271694
0.240368
0.2550286
0.2715136
0.2901886
0.3115252
0.1485397
0.153779
0.1594277
0.1655344
0.1721561
0.1793409
0.1871493
0.1956806
0.2050399
0.2153538
0.2271576
0.2401799
0.2547115
0.2710325
0.289498
0.3911617
0.4312758
0.4807846
0.5422048
0.6095853
0.3593495
0.3928043
0.4334314
0.4836903
0.5463196
0.6157276
0.3334682
0.3619917
0.3961048
0.437645
0.4892396
0.5538247
0.6269866
0.3119786
0.3367398
0.3659743
0.4010413
0.4439088
0.4972859
0.5646263
0.6437663
0.2937058
0.3155009
0.3409554
0.3710977
0.4073891
0.4518336
0.5074075
0.5784981
0.6657081
0.2775583
0.2969055
0.3192882
0.345498
0.3766359
0.4141632
0.4602421
0.5183408
0.5936139
0.6900514
0.2624768
0.2796785
0.299404
0.3222639
0.3490892
0.3809439
0.4193648
0.4667841
0.5268728
0.6054565
0.7147232
0.2483791
0.2636984
0.2811224
0.3011242
0.3243342
0.3515323
0.3838155
0.4228873
0.4712198
0.5326684
0.6172529
0.733476
0.2353409
0.2490244
0.2644729
0.2820556
0.3022561
0.3256516
0.353037
0.3856253
0.4251096
0.4740222
0.5390178
0.6257864
0.7478677
0.2233554
0.2356234
0.2493811
0.26492
0.2826151
0.3028995
0.3263578
0.3538736
0.3866331
0.4263497
0.4776156
0.5434643
0.6322755
0.7591339
0.2123467
0.2233876
0.2356944
0.2494995
0.2650972
0.2828164
0.3030942
0.3265867
0.3541466
0.3869647
0.4283531
0.4799461
0.5467701
0.6372268
0.7684336
0.2022053
0.2121765
0.2232302
0.2355534
0.2493794
0.2649608
0.2826287
0.3028799
0.3263394
0.3538576
0.3879126
0.4293881
0.481506
0.5491818
0.6411312
0.7789259
0.1928061
0.2018369
0.2117984
0.2228419
0.2351545
0.2489311
0.264426
0.2820206
0.3021818
0.3255292
0.3539788
0.3880004
0.429786
0.4824437
0.5510601
0.6459762
0.7866418
0.1840162
0.1922114
0.2012096
0.2111342
0.222136
0.2343666
0.2480221
0.2633997
0.2808523
0.3008391
0.3248787
0.3532126
0.3874133
0.4296061
0.4831014
0.5544289
0.6508093
0.79468
0.1757174
0.1831618
0.1913002
0.2002337
0.2100844
0.2209704
0.2330439
0.2465377
0.2617212
0.2789383
0.2994014
0.3231886
0.3514666
0.3858164
0.4288277
0.4865269
0.5587948
0.6568594
0.8026724
0.1678971
0.1746669
0.1820375
0.1900918
0.1989285
0.2086408
0.2193467
0.2312294
0.2444958
0.2594055
0.2768982
0.2968123
0.3198351
0.3467137
0.3783751
0.1607857
0.1669703
0.1736794
0.1809813
0.1889572
0.1976809
0.2072458
0.2177987
0.2295013
0.242554
0.2577129
0.2747296
0.2940887
0.3162957
0.3420063
0.1544223
0.160106
0.1662519
0.1729175
0.1801703
0.1880698
0.1966909
0.2061537
0.2165877
0.228151
0.2414742
0.2562868
0.2729588
0.2918625
0.3134774
0.1487442
0.1539989
0.1596647
0.1657907
0.1724342
0.1796436
0.1874799
0.1960431
0.2054392
0.2157959
0.2276518
0.2407363
0.2553426
0.2717533
0.2903268
0.1436678
0.148553
0.1538073
0.1594729
0.165599
0.1722257
0.1794035
0.1872171
0.1957544
0.2051206
0.2157849
0.2274833
0.2404545
0.2549187
0.2711506
0.3580764
0.3912661
0.4315297
0.4812621
0.5430321
0.6106673
0.3313181
0.3594363
0.393011
0.4338101
0.4843269
0.5471523
0.6166443
0.3092523
0.3335422
0.3621651
0.3964161
0.438155
0.4898873
0.5545374
0.6279408
0.2907256
0.3120431
0.336889
0.3662379
0.4014646
0.4444328
0.4978459
0.5653732
0.6447896
0.2748252
0.2937633
0.3156325
0.3411849
0.3714604
0.4078291
0.4522936
0.5080039
0.5793062
0.6668569
0.260662
0.2776104
0.2970238
0.3194923
0.3458164
0.3770158
0.414555
0.4607401
0.5189965
0.594521
0.6966376
0.2473394
0.262523
0.2797824
0.2995816
0.3225377
0.349411
0.3812698
0.4197695
0.4673006
0.5275571
0.6101063
0.7221132
0.2348022
0.2484199
0.2637894
0.2812764
0.301359
0.3246067
0.3518034
0.3841449
0.4232964
0.4717426
0.5360443
0.6217609
0.7418382
0.2231344
0.235377
0.2491045
0.2646073
0.2822586
0.302489
0.3258797
0.3533092
0.3859559
0.4255202
0.4765755
0.5421477
0.6305521
0.7566989
0.2123467
0.2233876
0.2356944
0.2494995
0.2650972
0.2828164
0.3030942
0.3265867
0.3541466
0.3869647
0.4283531
0.4799461
0.5467701
0.6372268
0.7684336
0.2023859
0.2123757
0.2234511
0.2357996
0.2496557
0.2652732
0.2829848
0.3032898
0.3268166
0.3544208
0.3885847
0.4301838
0.4824425
0.5502851
0.6424565
0.7804384
0.1931655
0.2022316
0.2122337
0.2233244
0.2356924
0.2495347
0.2651082
0.2827982
0.3030767
0.3265709
0.3552014
0.3894172
0.4314038
0.484257
0.5530484
0.6479892
0.7886458
0.1845819
0.1928301
0.2018888
0.2118834
0.2229666
0.2352928
0.2490616
0.2645747
0.2821917
0.3023808
0.3266684
0.3552684
0.3897324
0.4321325
0.4856665
0.5564711
0.6526169
0.7961904
0.1765218
0.1840381
0.1922587
0.2012866
0.2112466
0.2222599
0.2344828
0.2481538
0.2635501
0.2810255
0.3018196
0.3260168
0.3547758
0.3895797
0.4326418
0.4882042
0.5598801
0.6577778
0.8033446
0.1688829
0.1757373
0.1832045
0.1913697
0.2003345
0.2101949
0.2210734
0.2331597
0.2466687
0.2618707
0.2797749
0.3003671
0.3245374
0.3534453
0.3889422
0.4353332
0.4914871
0.5641352
0.6631404
0.8098081
0.1616586
0.1679147
0.1747047
0.1820986
0.1901801
0.1990248
0.2087292
0.2194446
0.2313385
0.2446182
0.2600784
0.2775233
0.2974851
0.3205105
0.3472495
0.1550673
0.1608015
0.1670042
0.173734
0.1810598
0.1890424
0.1977585
0.2073309
0.2178924
0.2296052
0.2431176
0.2581722
0.2751526
0.2944393
0.3165143
0.1491514
0.1544368
0.1601369
0.1663014
0.1729884
0.180247
0.1881392
0.1967665
0.2062364
0.2166786
0.2286402
0.2418526
0.2566144
0.2732128
0.2920108
0.1438585
0.1487575
0.1540272
0.1597101
0.1658556
0.1725041
0.1797064
0.187548
0.1961173
0.2055204
0.2162294
0.2279806
0.2410146
0.2555533
0.2718737
0.1391152
0.1436802
0.1485792
0.1538492
0.1595326
0.1656631
0.1722832
0.1794656
0.1872844
0.1958277
0.2055102
0.2160776
0.2277285
0.2406382
0.2550225
0.330245
0.3581624
0.3914707
0.4319042
0.4818907
0.5438521
0.6115644
0.3074156
0.3313908
0.3596066
0.3933161
0.4343087
0.484958
0.5478426
0.6175562
0.2883709
0.3093152
0.3336874
0.3624212
0.3968262
0.4386607
0.4904242
0.5552463
0.6288903
0.2722271
0.290781
0.3121697
0.3371094
0.3665852
0.4018843
0.4448677
0.4984037
0.5661172
0.6458099
0.2582602
0.274875
0.2938762
0.3158269
0.3414873
0.3718201
0.4081957
0.4527535
0.5086005
0.5801149
0.672458
0.245733
0.2607076
0.2777129
0.2971987
0.3197615
0.3461324
0.3773349
0.41495
0.4612421
0.5196577
0.5989732
0.703648
0.2338757
0.2473801
0.2626139
0.2799363
0.2998159
0.3228093
0.3496814
0.3815984
0.4201776
0.4678215
0.5309145
0.6147542
0.7310509
0.2226515
0.2348384
0.2485001
0.263924
0.2814796
0.301592
0.3248352
0.3520762
0.3844763
0.4237081
0.4743022
0.5392687
0.626789
0.7513509
0.2121475
0.2231667
0.2354481
0.249223
0.2647847
0.28246
0.3026839
0.326109
0.3535828
0.3862881
0.427528
0.4789418
0.5455401
0.6356781
0.7663834
0.2023859
0.2123757
0.2234511
0.2357996
0.2496557
0.2652732
0.2829848
0.3032898
0.3268166
0.3544208
0.3885847
0.4301838
0.4824425
0.5502851
0.6424565
0.7804384
0.1933299
0.2024121
0.2124328
0.2235451
0.2359384
0.2498108
0.2654204
0.283154
0.3034861
0.3270474
0.3557604
0.3900648
0.4321448
0.4850957
0.553992
0.6490101
0.7897096
0.1849105
0.1931893
0.2022833
0.2123184
0.2234488
0.2358304
0.2496648
0.2652564
0.2829685
0.3032745
0.3277024
0.356446
0.3910477
0.4335657
0.4871756
0.5579036
0.6540532
0.7974767
0.1770411
0.1846038
0.1928772
0.2019657
0.2119956
0.2230904
0.2354088
0.2491928
0.2647244
0.282364
0.3033548
0.327755
0.3567023
0.3916321
0.4346666
0.4897512
0.5611752
0.6590007
0.8042953
0.169624
0.1765419
0.1840812
0.1923287
0.2013883
0.2113582
0.222364
0.2346
0.2482866
0.2637016
0.2818746
0.3027936
0.3273356
0.3565713
0.3920396
0.4366558
0.4923124
0.5648071
0.6638175
0.8102767
0.16257
0.1689012
0.1757765
0.183268
0.1914614
0.2004347
0.2102877
0.2211771
0.2332764
0.2468008
0.2626034
0.2806123
0.301523
0.3262089
0.3560389
0.3942164
0.4392274
0.4955017
0.5685698
0.6683042
0.8153107
0.1558768
0.1616749
0.1679495
0.1747607
0.1821794
0.1902677
0.1991049
0.2088176
0.2195425
0.2314476
0.2452134
0.2606266
0.2781075
0.2980648
0.3209641
0.1497513
0.155082
0.1608329
0.1670545
0.1738061
0.1811378
0.1891131
0.1978357
0.2074155
0.2179856
0.2301079