/*--------------------------------*- C++ -*----------------------------------*\
| =========                 |                                                 |
| \\      /  F ield         | OpenFOAM: The Open Source CFD Toolbox           |
|  \\    /   O peration     | Version:  2306                                  |
|   \\  /    A nd           | Website:  www.openfoam.com                      |
|    \\/     M anipulation  |                                                 |
\*---------------------------------------------------------------------------*/
FoamFile
{
    version     2.0;
    format      ascii;
    arch        "LSB;label=32;scalar=64";
    class       volScalarField;
    location    "0.6/fuel";
    object      H2O;
}
// * * * * * * * * * * * * * * * * * * * * * * * * * * * * * * * * * * * * * //

dimensions      [0 0 0 0 0 0 0];

internalField   nonuniform List<scalar> 
16000
(
0.3932356
0.3882586
0.4591151
0.3929472
0.3781352
0.45586
0.3879638
0.519748
0.4588969
0.3923837
0.3627459
0.4492821
0.377827
0.5173321
0.4556383
0.3873881
0.5688937
0.5195825
0.4584702
0.3915541
0.3426266
0.4393834
0.3624156
0.5124617
0.4490533
0.3772252
0.5669962
0.5171645
0.455205
0.3865405
0.608875
0.568764
0.5192586
0.4578415
0.3904626
0.320699
0.4266051
0.3422628
0.5051587
0.4391431
0.3617707
0.5631787
0.5122897
0.4486061
0.3763393
0.6073378
0.5668651
0.5168364
0.4545666
0.3854253
0.6419572
0.6087706
0.5685101
0.5187811
0.4570141
0.3893806
0.3037697
0.4128412
0.3202915
0.4957764
0.4263477
0.3415523
0.5574716
0.5049795
0.4386733
0.3608215
0.6042502
0.5630446
0.5119529
0.4479472
0.3751739
0.6406841
0.6072323
0.5666084
0.5163527
0.4537264
0.3843198
0.6697859
0.6418712
0.6085659
0.5681356
0.5181524
0.456194
0.3884833
0.2927588
0.4022234
0.3033351
0.4857261
0.4125622
0.3194958
0.5501691
0.4955865
0.4258445
0.3405065
0.5996455
0.5573327
0.5046287
0.4379813
0.3595726
0.6381303
0.6041426
0.562782
0.5114565
0.4470802
0.3740185
0.6687128
0.6405973
0.6070256
0.5662297
0.5157161
0.4528936
0.383403
0.6935301
0.6697137
0.6417025
0.6082638
0.5676424
0.5175293
0.4555142
0.3875907
0.2863937
0.3952647
0.2923094
0.478009
0.4019323
0.3024865
0.5423819
0.4855226
0.4120165
0.3183237
0.5937722
0.5500229
0.4952149
0.4251032
0.3391302
0.6343288
0.5995344
0.5570605
0.5041117
0.4370707
0.3583344
0.6665627
0.6380419
0.6039317
0.5623946
0.5108031
0.4462207
0.3730598
0.6926127
0.6686401
0.6404271
0.6067205
0.565731
0.515085
0.4522032
0.382491
0.7140371
0.6934687
0.669572
0.6414533
0.6078659
0.5671535
0.517013
0.4548383
0.386703
0.2835032
0.3911957
0.2859364
0.4729629
0.3949676
0.2914322
0.5364251
0.4777987
0.401363
0.3012368
0.5875313
0.5422264
0.4851244
0.4112121
0.3167803
0.6294924
0.5936558
0.5497364
0.494667
0.4241275
0.3377651
0.6633671
0.6342378
0.5993166
0.5566591
0.5034311
0.436168
0.3573051
0.6907761
0.6664887
0.6378685
0.6036204
0.5618846
0.5101554
0.445508
0.3721056
0.7132433
0.6925508
0.6684972
0.6401757
0.6063187
0.5652367
0.5145621
0.4515168
0.3815838
0.7319334
0.7139841
0.693348
0.6693628
0.641125
0.6074713
0.5667485
0.5164998
0.4541664
0.3858201
0.2835032
0.3893299
0.2830425
0.4700138
0.3908956
0.2850441
0.5325384
0.4727495
0.3943868
0.2901407
0.5827712
0.5362651
0.4773868
0.4005239
0.2995912
0.6243679
0.5874081
0.5419215
0.4845369
0.4101529
0.3152485
0.6593099
0.6293974
0.5934276
0.5493138
0.4939457
0.42316
0.3366244
0.6880499
0.6632911
0.6340593
0.5989952
0.5561306
0.5027564
0.4354183
0.3562786
0.7116552
0.6907132
0.6663435
0.6376124
0.6032104
0.5613789
0.5096185
0.444799
0.3711559
0.7312395
0.7131899
0.6924292
0.6682863
0.6398444
0.6059203
0.5648272
0.5140423
0.4508342
0.3806815
0.7476925
0.7318873
0.71388
0.6931696
0.669087
0.6407995
0.6071446
0.5663461
0.5159898
0.4534983
0.3815488
0.2863937
0.3893299
0.2830425
0.4686613
0.3890286
0.2821435
0.530269
0.4697991
0.3903091
0.2837306
0.5796706
0.5323767
0.4723319
0.3935309
0.2884404
0.6204684
0.582645
0.5359516
0.4767795
0.399419
0.2979579
0.6550209
0.6242677
0.5871665
0.5414716
0.4837631
0.4091022
0.3139566
0.6845945
0.6592308
0.629211
0.5930908
0.5487573
0.4932305
0.422353
0.3354809
0.7093006
0.6879854
0.6631419
0.6337957
0.5985718
0.5556066
0.5021964
0.4346714
0.3552552
0.7298521
0.7116011
0.6905897
0.6661289
0.6372751
0.6028038
0.5609599
0.5090845
0.4440937
0.3702108
0.7470805
0.731193
0.7130851
0.6922495
0.6680082
0.639516
0.6055903
0.5644203
0.5135256
0.4501557
0.3763159
0.7616788
0.7476519
0.7317965
0.7137261
0.6929345
0.6688135
0.6405299
0.60682
0.5659463
0.515483
0.4502676
0.3786109
0.2927588
0.3911957
0.2859364
0.4686613
0.3890286
0.2821435
0.5292285
0.4684459
0.3884396
0.2808202
0.5778617
0.5301067
0.4693788
0.3894449
0.2820014
0.617932
0.5795434
0.5320599
0.471716
0.392404
0.2867528
0.6517635
0.6203661
0.5823975
0.535489
0.4759795
0.3983229
0.2965799
0.6809487
0.6549378
0.6240711
0.5868097
0.5408788
0.4829956
0.4082187
0.3126495
0.7063204
0.6845276
0.6590755
0.6289358
0.5926472
0.5482055
0.4926342
0.4215454
0.3343347
0.727797
0.7092452
0.6878588
0.6629216
0.6334484
0.5981521
0.5551717
0.5016386
0.4339272
0.3542348
0.7458577
0.729805
0.7114947
0.6904071
0.6658462
0.6369406
0.602467
0.5605433
0.5085536
0.4433923
0.3656363
0.761135
0.7470397
0.7311016
0.7129301
0.6920126
0.6677325
0.639244
0.6052625
0.5640159
0.5130122
0.446874
0.3732998
0.7741776
0.7616428
0.747572
0.7316622
0.7135231
0.6927012
0.668587
0.6402622
0.6064976
0.565549
0.5130327
0.4480524
0.3763845
0.3037697
0.3952647
0.2923094
0.4700138
0.3908956
0.2850441
0.5292285
0.4684459
0.3884396
0.2808202
0.5770325
0.5290659
0.4680245
0.3875718
0.2790784
0.6164533
0.5777341
0.5297885
0.468759
0.3883072
0.2802853
0.6496471
0.6178291
0.5792939
0.5315925
0.4709049
0.3912863
0.2853317
0.6781841
0.6516787
0.6201653
0.582032
0.5348794
0.475186
0.397401
0.2951853
0.703181
0.6808784
0.6547744
0.6237806
0.5863394
0.5402907
0.4823506
0.4073275
0.311327
0.725199
0.706263
0.684396
0.6588461
0.6285731
0.5922072
0.5477455
0.4920378
0.4207372
0.3331858
0.7440477
0.7277488
0.7091362
0.6876716
0.6626311
0.633104
0.5978038
0.5547387
0.5010831
0.433186
0.3492862
0.7600488
0.7458163
0.7297124
0.7113374
0.6901665
0.6655658
0.6366635
0.6021322
0.5601292
0.5080258
0.4399986
0.3624234
0.7736911
0.7610988
0.7469593
0.7309665
0.7127256
0.6917776
0.6675042
0.6389738
0.6049368
0.5636141
0.5105299
0.4446158
0.3710032
0.7854156
0.7741455
0.761572
0.7474539
0.7314851
0.7133217
0.6925082
0.6683621
0.6399963
0.6061773
0.5636291
0.5113564
0.4463768
0.3748884
0.320699
0.4022234
0.3033351
0.4729629
0.3949676
0.2914322
0.530269
0.4697991
0.3903091
0.2837306
0.5770325
0.5290659
0.4680245
0.3875718
0.2790784
0.6157756
0.5769048
0.5287473
0.4674032
0.3864294
0.2773497
0.6484139
0.6163501
0.5774839
0.5293192
0.4679429
0.3871787
0.2788423
0.6763897
0.6495619
0.617627
0.5789256
0.5309767
0.4701004
0.3903476
0.2838962
0.7008036
0.6781127
0.6515122
0.6198686
0.5815504
0.5342749
0.474519
0.3964706
0.2937739
0.722466
0.7031208
0.6807404
0.6545329
0.6233976
0.585873
0.5397967
0.4817002
0.4064283
0.3099888
0.7417621
0.7251492
0.7061501
0.6842016
0.6585436
0.6282135
0.5918406
0.5472856
0.4914412
0.4199285
0.3275841
0.7584422
0.7440054
0.7276541
0.7089752
0.6874249
0.6623431
0.6328183
0.5974571
0.5543076
0.50053
0.4295941
0.3456197
0.7727197
0.7600121
0.7457349
0.7295754
0.71113
0.6899278
0.6653335
0.6363881
0.6017995
0.5597176
0.5054729
0.437632
0.3599314
0.7849777
0.7736587
0.7610275
0.7468404
0.7307882
0.7125228
0.691583
0.6672774
0.6387055
0.6046132
0.5616723
0.5088259
0.4429011
0.369453
0.7955751
0.7853868
0.7740822
0.7614672
0.747298
0.7313094
0.713155
0.6923164
0.6681388
0.6397321
0.6046296
0.5623178
0.5100899
0.4452524
0.3741366
0.3426266
0.4128412
0.3202915
0.478009
0.4019323
0.3024865
0.5325384
0.4727495
0.3943868
0.2901407
0.5778617
0.5301067
0.4693788
0.3894449
0.2820014
0.6157756
0.5769048
0.5287473
0.4674032
0.3864294
0.2773497
0.647849
0.6156725
0.5766544
0.5282771
0.466585
0.3852963
0.2758972
0.6753447
0.6483287
0.6161478
0.5771147
0.5287009
0.4671335
0.3862323
0.2773868
0.6992618
0.6763181
0.6493947
0.6173286
0.5784403
0.530366
0.4694252
0.389402
0.2824461
0.7203987
0.7007425
0.6779723
0.6512662
0.6194775
0.5810727
0.5337668
0.4738462
0.3955319
0.2923455
0.7393604
0.7224138
0.7030026
0.6805363
0.6542145
0.6230177
0.5854811
0.5392987
0.4810445
0.4055211
0.303402
0.7564153
0.7417184
0.7250512
0.7059831
0.6839453
0.6582437
0.6279138
0.591474
0.5468256
0.4908445
0.4159921
0.3228112
0.7712839
0.7584048
0.7439223
0.727514
0.7087629
0.6871801
0.6621041
0.6325339
0.597112
0.5538785
0.4978508
0.426975
0.3425943
0.7841038
0.772687
0.75994
0.7456144
0.7293947
0.7109242
0.6897302
0.6651027
0.6361145
0.6014688
0.5577272
0.5036976
0.4358075
0.3582187
0.7951789
0.7849487
0.7735951
0.7609221
0.7466835
0.7306114
0.712355
0.6913898
0.6670522
0.6384389
0.6030497
0.5603415
0.5075336
0.4417463
0.3686715
0.8048043
0.795549
0.78533
0.7739886
0.7613288
0.7471432
0.731164
0.7129895
0.692126
0.667917
0.6384561
0.6035739
0.5613278
0.5092407
0.4446879
0.3627459
0.4266051
0.3422628
0.4857261
0.4125622
0.3194958
0.5364251
0.4777987
0.401363
0.3012368
0.5796706
0.5323767
0.4723319
0.3935309
0.2884404
0.6164533
0.5777341
0.5297885
0.468759
0.3883072
0.2802853
0.647849
0.6156725
0.5766544
0.5282771
0.466585
0.3852963
0.2758972
0.6748661
0.6477638
0.61547
0.5762848
0.5276579
0.4657736
0.3843466
0.274433
0.6983643
0.6752731
0.6481614
0.6158489
0.5766281
0.5280877
0.4664551
0.3852801
0.2759187
0.719059
0.6992006
0.6761772
0.6491476
0.6169353
0.5779589
0.5298535
0.4687454
0.3884494
0.2809814
0.7375456
0.7203458
0.7006224
0.6777647
0.6509418
0.6190896
0.5806712
0.5332544
0.4731677
0.3945845
0.2853142
0.7542876
0.7393148
0.7223113
0.7028276
0.6802671
0.6538986
0.6226986
0.5850862
0.5387967
0.4803833
0.4010686
0.296391
0.7694738
0.7563767
0.7416325
0.7249062
0.705763
0.683691
0.6579937
0.6276141
0.5911075
0.5463657
0.4879412
0.412751
0.3181822
0.7828127
0.7712505
0.7583312
0.7437993
0.7273293
0.7085522
0.6869772
0.6618663
0.6322508
0.5967685
0.5518002
0.4959044
0.4248464
0.3403727
0.7943884
0.7840745
0.7726227
0.7598333
0.7454556
0.7292154
0.7107539
0.6895338
0.6648734
0.6358425
0.5998701
0.5563455
0.5023311
0.4345602
0.3573431
0.8044441
0.7951527
0.7848916
0.773501
0.7607829
0.7465279
0.730465
0.7121883
0.6911979
0.6668285
0.637151
0.6019796
0.5593331
0.5066641
0.4411651
0.8132252
0.8047806
0.7954977
0.7852458
0.773865
0.7611915
0.7470152
0.7310196
0.7128252
0.691937
0.6668455
0.6375864
0.6027773
0.5606645
0.5088146
0.3781352
0.4393834
0.3624156
0.4957764
0.4263477
0.3415523
0.5423819
0.4855226
0.4120165
0.3183237
0.5827712
0.5362651
0.4773868
0.4005239
0.2995912
0.617932
0.5795434
0.5320599
0.471716
0.392404
0.2867528
0.6484139
0.6163501
0.5774839
0.5293192
0.4679429
0.3871787
0.2788423
0.6748661
0.6477638
0.61547
0.5762848
0.5276579
0.4657736
0.3843466
0.274433
0.6979533
0.6747944
0.6475964
0.615171
0.5757978
0.5270438
0.4650938
0.3833917
0.2729572
0.7182795
0.6983031
0.6751322
0.6479141
0.615455
0.5761455
0.5275739
0.4657728
0.3843221
0.2744378
0.7363703
0.7190061
0.6990802
0.675969
0.6488218
0.6165451
0.5775551
0.5293377
0.4680608
0.3874898
0.2737849
0.7526813
0.7374994
0.7202419
0.7004448
0.6774909
0.6506199
0.6187636
0.5802665
0.5327378
0.4724833
0.3899344
0.2779235
0.7675754
0.7542474
0.7392251
0.7221597
0.7025969
0.68
0.6536332
0.622377
0.5846881
0.5382906
0.4771395
0.3965739
0.2875919
0.7811863
0.7694394
0.7563007
0.7415053
0.7247149
0.7055445
0.6834792
0.6577439
0.6273146
0.5907411
0.5441284
0.4855632
0.4097037
0.3140574
0.7932212
0.7827828
0.7711849
0.7582223
0.743637
0.7271459
0.7083775
0.6867751
0.6616296
0.6319692
0.5951053
0.5502932
0.4943265
0.4233056
0.3391664
0.8037257
0.794362
0.7840167
0.7725274
0.7596924
0.7452979
0.7290669
0.7105846
0.6893386
0.6646456
0.6345281
0.5987617
0.555283
0.5013982
0.433925
0.8128963
0.8044203
0.7951011
0.784807
0.7733767
0.7606448
0.746399
0.7303196
0.7120227
0.6910074
0.6657478
0.6362703
0.6011692
0.5586551
0.5062267
0.8209394
0.8132036
0.804734
0.7954216
0.7851347
0.7737423
0.7610779
0.7468881
0.7308762
0.712662
0.6910237
0.6661158
0.6369306
0.6022438
0.5603317
0.3882586
0.4492821
0.377827
0.5051587
0.4391431
0.3617707
0.5501691
0.4955865
0.4258445
0.3405065
0.5875313
0.5422264
0.4851244
0.4112121
0.3167803
0.6204684
0.582645
0.5359516
0.4767795
0.399419
0.2979579
0.6496471
0.6178291
0.5792939
0.5315925
0.4709049
0.3912863
0.2853317
0.6753447
0.6483287
0.6161478
0.5771147
0.5287009
0.4671335
0.3862323
0.2773868
0.6979533
0.6747944
0.6475964
0.615171
0.5757978
0.5270438
0.4650938
0.3833917
0.2729572
0.7179226
0.6978922
0.6746536
0.6473492
0.614777
0.5753148
0.5265295
0.4644107
0.3824315
0.2714697
0.7356866
0.7182266
0.6981828
0.674924
0.6475882
0.6150643
0.5757412
0.5270573
0.4650867
0.3833583
0.2671729
0.7516416
0.736324
0.718902
0.6989022
0.6756944
0.6484986
0.6162179
0.5771486
0.5288184
0.4673716
0.382787
0.2665591
0.7661433
0.7526405
0.7374085
0.7200881
0.7002105
0.6772193
0.6503495
0.618435
0.5798585
0.5322169
0.4691258
0.3852861
0.2689849
0.7794819
0.7675396
0.7541682
0.7390922
0.7219595
0.7023678
0.6797756
0.6533659
0.6220529
0.5842869
0.5358084
0.4738844
0.3911583
0.2762123
0.7917517
0.7811555
0.7693718
0.7561883
0.7413376
0.7245251
0.7053625
0.6832675
0.6574941
0.6270152
0.5889589
0.5422992
0.4833359
0.4070636
0.3112105
0.8026653
0.7931943
0.782724
0.7710878
0.7580786
0.743476
0.7269939
0.7082037
0.6865741
0.6613941
0.6306054
0.5939007
0.5490727
0.4931867
0.4224781
0.8122406
0.8037017
0.7943098
0.7839312
0.7724017
0.7595526
0.7451673
0.7289194
0.7104164
0.6891448
0.6635443
0.6336177
0.5979099
0.554558
0.5009234
0.820638
0.8128747
0.8043735
0.7950246
0.7846953
0.7732533
0.7605305
0.7462711
0.7301752
0.7118583
0.6900869
0.6650095
0.6356037
0.6006245
0.5583141
0.8280318
0.8209197
0.8131611
0.804665
0.7953212
0.7850244
0.7736408
0.7609651
0.7467619
0.7307339
0.7118738
0.6904022
0.6655658
0.6364915
0.6019762
0.3932356
0.45586
0.3879638
0.5124617
0.4490533
0.3772252
0.5574716
0.5049795
0.4386733
0.3608215
0.5937722
0.5500229
0.4952149
0.4251032
0.3391302
0.6243679
0.5874081
0.5419215
0.4845369
0.4101529
0.3152485
0.6517635
0.6203661
0.5823975
0.535489
0.4759795
0.3983229
0.2965799
0.6763897
0.6495619
0.617627
0.5789256
0.5309767
0.4701004
0.3903476
0.2838962
0.6983643
0.6752731
0.6481614
0.6158489
0.5766281
0.5280877
0.4664551
0.3852801
0.2759187
0.7179226
0.6978922
0.6746536
0.6473492
0.614777
0.5753148
0.5265295
0.4644107
0.3824315
0.2714697
0.7353736
0.7178697
0.6977719
0.6744455
0.6470232
0.6143861
0.5749104
0.5260128
0.4637241
0.3814661
0.2641768
0.751037
0.7356404
0.7181226
0.698005
0.6746494
0.6472648
0.614737
0.5753348
0.526538
0.4643968
0.3786411
0.260114
0.7652168
0.7516008
0.7362331
0.718748
0.6986674
0.6754219
0.6482276
0.6158885
0.5767395
0.5282957
0.4639955
0.3782786
0.2581961
0.778197
0.7661071
0.7525604
0.7372739
0.7198851
0.6999779
0.6769911
0.650077
0.6181038
0.5794471
0.5296618
0.4657852
0.3798751
0.2583166
0.7902129
0.7794499
0.7674692
0.7540508
0.7389169
0.7217609
0.7021755
0.6795496
0.6530964
0.6217262
0.5823192
0.5333206
0.4699805
0.3843854
0.2607055
0.8013312
0.791724
0.7810949
0.7692716
0.7560399
0.741171
0.724367
0.7051807
0.6830558
0.6572445
0.6255591
0.5875033
0.5405877
0.4814132
0.4052844
0.8112731
0.8026409
0.7931412
0.7826369
0.7709596
0.757936
0.7433424
0.7268426
0.7080307
0.6863741
0.6602541
0.6296187
0.5929257
0.5481917
0.4925754
0.8200371
0.8122188
0.8036544
0.7942326
0.7838183
0.7722769
0.7594369
0.7450376
0.7287729
0.7102493
0.6882079
0.6627821
0.6329183
0.597329
0.5541892
0.8277546
0.8206182
0.812832
0.8043041
0.7949237
0.7845844
0.7731513
0.7604171
0.7461441
0.7300319
0.7110643
0.6894583
0.6644508
0.6351558
0.6003507
0.8345742
0.8280137
0.8208808
0.8130982
0.8045738
0.7952215
0.7849332
0.77354
0.7608531
0.7466366
0.7300465
0.7113378
0.6899339
0.6651976
0.6362713
0.4591151
0.3929472
0.5173321
0.4556383
0.3873881
0.5631787
0.5122897
0.4486061
0.3763393
0.5996455
0.5573327
0.5046287
0.4379813
0.3595726
0.6294924
0.5936558
0.5497364
0.494667
0.4241275
0.3377651
0.6550209
0.6242677
0.5871665
0.5414716
0.4837631
0.4091022
0.3139566
0.6781841
0.6516787
0.6201653
0.582032
0.5348794
0.475186
0.397401
0.2951853
0.6992618
0.6763181
0.6493947
0.6173286
0.5784403
0.530366
0.4694252
0.389402
0.2824461
0.7182795
0.6983031
0.6751322
0.6479141
0.615455
0.5761455
0.5275739
0.4657728
0.3843221
0.2744378
0.7353736
0.7178697
0.6977719
0.6744455
0.6470232
0.6143861
0.5749104
0.5260128
0.4637241
0.3814661
0.2641768
0.7507602
0.7353275
0.7177658
0.6975942
0.674171
0.6466998
0.6140589
0.5745041
0.5254936
0.4630342
0.376744
0.2571986
0.7646782
0.7509963
0.7355496
0.7179688
0.6977703
0.674377
0.6469939
0.6144081
0.5749263
0.5260159
0.4610217
0.3742526
0.2521656
0.7773661
0.7651807
0.7515206
0.7360985
0.7185448
0.6984344
0.6751934
0.6479548
0.6155571
0.5763278
0.525736
0.460771
0.3732501
0.2486824
0.7890536
0.7781646
0.7660359
0.7524416
0.7370964
0.7196836
0.6997826
0.676761
0.6498022
0.6177699
0.5774296
0.5271219
0.4619101
0.37362
0.2457644
0.7999349
0.7901841
0.7793867
0.7673648
0.753896
0.7387429
0.721594
0.7019817
0.6793218
0.6528249
0.6201245
0.580348
0.5303401
0.4651217
0.3754063
0.2336357
0.8100565
0.801306
0.7916693
0.7810051
0.7691394
0.7558926
0.7410324
0.724209
0.7049989
0.6828443
0.6560307
0.6243707
0.5861419
0.5391115
0.4801207
0.8191509
0.8112509
0.8025928
0.7930625
0.7825218
0.7708324
0.7578177
0.7432095
0.7266921
0.7078586
0.685406
0.6594299
0.6288204
0.5922222
0.5477193
0.827202
0.8200171
0.8121756
0.8035843
0.7941306
0.7837061
0.7721736
0.7593219
0.7449088
0.7286274
0.709442
0.6875599
0.6621969
0.6324415
0.5970335
0.8343183
0.8277364
0.8205791
0.8127687
0.8042124
0.7948235
0.7844927
0.7730499
0.7603044
0.746018
0.7293396
0.7105225
0.6889829
0.6640756
0.6349307
0.8406274
0.8345575
0.827978
0.8208231
0.813015
0.8044832
0.7951391
0.7848426
0.77344
0.760742
0.7460315
0.7295791
0.7109339
0.6896204
0.665013
0.519748
0.4588969
0.3923837
0.5669962
0.5171645
0.455205
0.3865405
0.6042502
0.5630446
0.5119529
0.4479472
0.3751739
0.6343288
0.5995344
0.5570605
0.5041117
0.4370707
0.3583344
0.6593099
0.6293974
0.5934276
0.5493138
0.4939457
0.42316
0.3366244
0.6809487
0.6549378
0.6240711
0.5868097
0.5408788
0.4829956
0.4082187
0.3126495
0.7008036
0.6781127
0.6515122
0.6198686
0.5815504
0.5342749
0.474519
0.3964706
0.2937739
0.719059
0.6992006
0.6761772
0.6491476
0.6169353
0.5779589
0.5298535
0.4687454
0.3884494
0.2809814
0.7356866
0.7182266
0.6981828
0.674924
0.6475882
0.6150643
0.5757412
0.5270573
0.4650867
0.3833583
0.2671729
0.7507602
0.7353275
0.7177658
0.6975942
0.674171
0.6466998
0.6140589
0.5745041
0.5254936
0.4630342
0.376744
0.2571986
0.7644317
0.7507196
0.7352368
0.7176121
0.6973597
0.6738987
0.6464292
0.6137303
0.574096
0.524972
0.4596608
0.3724119
0.249438
0.7768832
0.7646421
0.7509162
0.7354152
0.7177658
0.6975375
0.6741489
0.6467217
0.6140775
0.5745156
0.5234625
0.4578917
0.3694865
0.2433335
0.7883042
0.7773338
0.7651094
0.7514019
0.7359208
0.7183431
0.698239
0.6749635
0.6476803
0.6152236
0.5743119
0.5232929
0.4571837
0.3677113
0.2380519
0.7988836
0.7890244
0.7781008
0.7659303
0.7522849
0.7369201
0.7195144
0.6995857
0.6765292
0.6495253
0.6161325
0.5754247
0.5241776
0.4574465
0.3664648
0.2286141
0.8087839
0.7999088
0.7901272
0.7792932
0.7672269
0.7537422
0.7385968
0.721426
0.7017864
0.6790922
0.6514935
0.6185204
0.5779875
0.5266368
0.4587139
0.3600634
0.218162
0.8180369
0.8100336
0.8012565
0.7915884
0.7808865
0.7690081
0.7557699
0.7408938
0.7240511
0.7048172
0.6818158
0.6550406
0.6232595
0.5849682
0.5381197
0.8263873
0.8191306
0.8112071
0.8025214
0.7929587
0.7824076
0.7707269
0.7577
0.7430773
0.7265424
0.7070256
0.6847065
0.6587632
0.6282445
0.5918451
0.8338086
0.8271836
0.8199777
0.8121117
0.8034917
0.7940293
0.7836133
0.7720709
0.7592077
0.7447808
0.7279241
0.7088839
0.6870624
0.6617979
0.632199
0.8403906
0.8343016
0.8277005
0.8205212
0.8126851
0.8041214
0.7947406
0.7844016
0.7729493
0.7601925
0.7454088
0.7288674
0.7101127
0.6886637
0.663887
0.8462436
0.8406119
0.8345246
0.827925
0.8207469
0.8129324
0.8044083
0.7950572
0.7847526
0.7733407
0.7602052
0.7456203
0.729227
0.7106636
0.6894633
0.5688937
0.5195825
0.4584702
0.3915541
0.6073378
0.5668651
0.5168364
0.4545666
0.3854253
0.6381303
0.6041426
0.562782
0.5114565
0.4470802
0.3740185
0.6633671
0.6342378
0.5993166
0.5566591
0.5034311
0.436168
0.3573051
0.6845945
0.6592308
0.629211
0.5930908
0.5487573
0.4932305
0.422353
0.3354809
0.703181
0.6808784
0.6547744
0.6237806
0.5863394
0.5402907
0.4823506
0.4073275
0.311327
0.7203987
0.7007425
0.6779723
0.6512662
0.6194775
0.5810727
0.5337668
0.4738462
0.3955319
0.2923455
0.7363703
0.7190061
0.6990802
0.675969
0.6488218
0.6165451
0.5775551
0.5293377
0.4680608
0.3874898
0.2737849
0.751037
0.7356404
0.7181226
0.698005
0.6746494
0.6472648
0.614737
0.5753348
0.526538
0.4643968
0.3786411
0.260114
0.7644317
0.7507196
0.7352368
0.7176121
0.6973597
0.6738987
0.6464292
0.6137303
0.574096
0.524972
0.4596608
0.3724119
0.249438
0.7766622
0.7643957
0.7506396
0.7351025
0.7174093
0.697127
0.6736708
0.6461573
0.6134002
0.573686
0.5224224
0.4565749
0.367763
0.2408981
0.7878687
0.7768509
0.764571
0.7507977
0.7352378
0.7175643
0.6973425
0.6739196
0.6464482
0.6137452
0.5725078
0.5210961
0.454499
0.3643601
0.2336479
0.7982042
0.7882751
0.77727
0.7650039
0.7512452
0.7357444
0.718174
0.6980424
0.6747322
0.6474041
0.6135907
0.5723885
0.5205762
0.4532428
0.361703
0.2241419
0.8078261
0.7988572
0.788967
0.7780064
0.7657909
0.7521293
0.736772
0.7193439
0.6993873
0.6762956
0.6481675
0.6145055
0.573101
0.5207903
0.4523594
0.3569389
0.2159618
0.8168723
0.8087602
0.7998573
0.790043
0.7791698
0.76709
0.7536131
0.7384495
0.7212566
0.7015897
0.6779668
0.6501604
0.6165997
0.5750572
0.5217647
0.4478242
0.3507427
0.2064689
0.8253636
0.818016
0.8099885
0.8011831
0.7914814
0.7807688
0.7688988
0.7556473
0.7407553
0.7238933
0.703934
0.6809773
0.654115
0.6223018
0.5841798
0.8330571
0.8263686
0.8190905
0.8111421
0.8024272
0.7928556
0.7823129
0.7706219
0.7575829
0.7429458
0.7258177
0.706424
0.6841408
0.6582824
0.6279357
0.8399188
0.8337916
0.8271474
0.8199192
0.8120273
0.8033997
0.7939455
0.7835211
0.771969
0.7590943
0.7441625
0.7274382
0.7084556
0.6867234
0.6615951
0.8460238
0.8403751
0.8342685
0.8276472
0.8204446
0.8126021
0.8040461
0.7946583
0.7843111
0.7728494
0.7596523
0.7449935
0.7285104
0.7098376
0.6885032
0.8514678
0.8462293
0.8405815
0.8344757
0.827855
0.8206713
0.812864
0.8043339
0.7949759
0.7846634
0.7728611
0.7598405
0.7453106
0.7289915
0.7105282
0.608875
0.568764
0.5192586
0.4578415
0.3904626
0.6406841
0.6072323
0.5666084
0.5163527
0.4537264
0.3843198
0.6665627
0.6380419
0.6039317
0.5623946
0.5108031
0.4462207
0.3730598
0.6880499
0.6632911
0.6340593
0.5989952
0.5561306
0.5027564
0.4354183
0.3562786
0.7063204
0.6845276
0.6590755
0.6289358
0.5926472
0.5482055
0.4926342
0.4215454
0.3343347
0.722466
0.7031208
0.6807404
0.6545329
0.6233976
0.585873
0.5397967
0.4817002
0.4064283
0.3099888
0.7375456
0.7203458
0.7006224
0.6777647
0.6509418
0.6190896
0.5806712
0.5332544
0.4731677
0.3945845
0.2853142
0.7516416
0.736324
0.718902
0.6989022
0.6756944
0.6484986
0.6162179
0.5771486
0.5288184
0.4673716
0.382787
0.2665591
0.7646782
0.7509963
0.7355496
0.7179688
0.6977703
0.674377
0.6469939
0.6144081
0.5749263
0.5260159
0.4610217
0.3742526
0.2521656
0.7766622
0.7643957
0.7506396
0.7351025
0.7174093
0.697127
0.6736708
0.6461573
0.6134002
0.573686
0.5224224
0.4565749
0.367763
0.2408981
0.7876695
0.77663
0.7643247
0.7505213
0.7349253
0.717208
0.6969322
0.6734419
0.6458843
0.6130687
0.5716826
0.5200917
0.453269
0.3628112
0.2315974
0.7978096
0.7878397
0.7767874
0.7644658
0.7506413
0.7350617
0.7173957
0.6971466
0.6736892
0.6461733
0.6121208
0.5706476
0.5185318
0.4508572
0.3589065
0.2211036
0.8072075
0.7981779
0.7882178
0.7771757
0.7648646
0.7510896
0.7355965
0.7180038
0.6978446
0.6744995
0.6460522
0.612033
0.5702498
0.5175941
0.4489788
0.3540609
0.2133864
0.8159963
0.8078022
0.7988053
0.788882
0.7778816
0.7656525
0.7519986
0.7366228
0.719172
0.6991873
0.67515
0.6468184
0.6126201
0.5704297
0.5169365
0.4456098
0.349227
0.2053465
0.8242939
0.8168507
0.8087133
0.7997811
0.7899317
0.7790471
0.7669751
0.753483
0.7383012
0.721086
0.700625
0.67684
0.6485645
0.6142171
0.5712083
0.5135108
0.4412433
0.343176
0.1973524
0.8321132
0.8253444
0.8179748
0.8099217
0.8010862
0.7913753
0.7806707
0.7687896
0.7555248
0.7406168
0.7231261
0.7032141
0.6801935
0.6533173
0.6216584
0.8392236
0.8330399
0.8263318
0.819031
0.8110562
0.8023337
0.7927701
0.7822187
0.7705175
0.7574665
0.7423094
0.7252945
0.7059376
0.6837329
0.6580246
0.8455861
0.8399032
0.8337582
0.8270937
0.8198419
0.8119435
0.8033236
0.7938622
0.7834296
0.7718677
0.7585463
0.7437354
0.7270653
0.7081638
0.6865511
0.8512633
0.8460094
0.8403445
0.8342194
0.8275769
0.8203686
0.8125335
0.8039714
0.7945766
0.7842214
0.7723669
0.7592841
0.7446796
0.7282708
0.7096993
0.8563389
0.8514545
0.846201
0.8405363
0.8344111
0.8277854
0.8206087
0.8127962
0.8042601
0.7948952
0.7842323
0.7725354
0.7595659
0.7451035
0.7288735
0.6419572
0.6087706
0.5685101
0.5187811
0.4570141
0.3893806
0.6687128
0.6405973
0.6070256
0.5662297
0.5157161
0.4528936
0.383403
0.6907761
0.6664887
0.6378685
0.6036204
0.5618846
0.5101554
0.445508
0.3721056
0.7093006
0.6879854
0.6631419
0.6337957
0.5985718
0.5556066
0.5021964
0.4346714
0.3552552
0.725199
0.706263
0.684396
0.6588461
0.6285731
0.5922072
0.5477455
0.4920378
0.4207372
0.3331858
0.7393604
0.7224138
0.7030026
0.6805363
0.6542145
0.6230177
0.5854811
0.5392987
0.4810445
0.4055211
0.303402
0.7526813
0.7374994
0.7202419
0.7004448
0.6774909
0.6506199
0.6187636
0.5802665
0.5327378
0.4724833
0.3899344
0.2779235
0.7652168
0.7516008
0.7362331
0.718748
0.6986674
0.6754219
0.6482276
0.6158885
0.5767395
0.5282957
0.4639955
0.3782786
0.2581961
0.7768832
0.7646421
0.7509162
0.7354152
0.7177658
0.6975375
0.6741489
0.6467217
0.6140775
0.5745156
0.5234625
0.4578917
0.3694865
0.2433335
0.7876695
0.77663
0.7643247
0.7505213
0.7349253
0.717208
0.6969322
0.6734419
0.6458843
0.6130687
0.5716826
0.5200917
0.453269
0.3628112
0.2315974
0.797629
0.7876405
0.7765665
0.7642195
0.750365
0.7347493
0.7170396
0.6967367
0.673212
0.6456101
0.6114486
0.5698519
0.5175953
0.4497538
0.357581
0.2195908
0.8068482
0.7977833
0.7877825
0.7766932
0.7643268
0.750486
0.7349143
0.7172262
0.6969497
0.6734578
0.6448295
0.6106161
0.5686319
0.5157808
0.4469903
0.3520476
0.2113819
0.8154306
0.8071836
0.7981261
0.7881328
0.777051
0.7647263
0.7509591
0.7354478
0.7178326
0.6976456
0.6733602
0.6447626
0.610301
0.5679033
0.5143712
0.4435673
0.3474191
0.2038358
0.8234896
0.8159744
0.807755
0.7987283
0.7887696
0.7777576
0.7655362
0.7518669
0.7364724
0.7189989
0.6982069
0.6740118
0.6452552
0.6104537
0.567394
0.5118333
0.4401579
0.3422574
0.1966802
0.8311274
0.8242741
0.8168079
0.8086439
0.7996803
0.7898212
0.7789441
0.7668593
0.7533519
0.7381517
0.7202494
0.6996593
0.6754913
0.6465857
0.6110913
0.5647024
0.5085501
0.4359022
0.3368939
0.1902152
0.8383507
0.8320956
0.8253066
0.8179137
0.8098334
0.8009899
0.7912868
0.7805728
0.7686804
0.7554024
0.7399439
0.722501
0.7025413
0.6795181
0.6527815
0.8449411
0.8392077
0.833006
0.8262772
0.8189525
0.810971
0.8022561
0.792685
0.7821249
0.7704136
0.7569029
0.74185
0.7248716
0.7055869
0.6835142
0.8508561
0.8455716
0.8398723
0.8337087
0.8270227
0.8197652
0.8118741
0.8032481
0.7937795
0.7833386
0.7713786
0.7581679
0.7434078
0.7268113
0.7080154
0.8561482
0.8512499
0.8459811
0.8402991
0.8341546
0.8275071
0.8203057
0.8124653
0.8038972
0.7944955
0.7837878
0.7720382
0.7590058
0.7444689
0.7281504
0.8608908
0.8563265
0.8514282
0.8461591
0.8404766
0.834347
0.8277279
0.8205465
0.8127288
0.8041868
0.7945057
0.7839397
0.7722902
0.7593822
0.7449997
0.6697859
0.6418712
0.6085659
0.5681356
0.5181524
0.456194
0.3884833
0.6926127
0.6686401
0.6404271
0.6067205
0.565731
0.515085
0.4522032
0.382491
0.7116552
0.6907132
0.6663435
0.6376124
0.6032104
0.5613789
0.5096185
0.444799
0.3711559
0.727797
0.7092452
0.6878588
0.6629216
0.6334484
0.5981521
0.5551717
0.5016386
0.4339272
0.3542348
0.7417621
0.7251492
0.7061501
0.6842016
0.6585436
0.6282135
0.5918406
0.5472856
0.4914412
0.4199285
0.3275841
0.7542876
0.7393148
0.7223113
0.7028276
0.6802671
0.6538986
0.6226986
0.5850862
0.5387967
0.4803833
0.4010686
0.296391
0.7661433
0.7526405
0.7374085
0.7200881
0.7002105
0.6772193
0.6503495
0.618435
0.5798585
0.5322169
0.4691258
0.3852861
0.2689849
0.7773661
0.7651807
0.7515206
0.7360985
0.7185448
0.6984344
0.6751934
0.6479548
0.6155571
0.5763278
0.525736
0.460771
0.3732501
0.2486824
0.7878687
0.7768509
0.764571
0.7507977
0.7352378
0.7175643
0.6973425
0.6739196
0.6464482
0.6137452
0.5725078
0.5210961
0.454499
0.3643601
0.2336479
0.797629
0.7876405
0.7765665
0.7642195
0.750365
0.7347493
0.7170396
0.6967367
0.673212
0.6456101
0.6114486
0.5698519
0.5175953
0.4497538
0.357581
0.2195908
0.8066838
0.7976028
0.7875834
0.7764725
0.7640807
0.7502099
0.7346021
0.7168704
0.6965403
0.6729812
0.6442705
0.6099686
0.5678909
0.5149419
0.4460466
0.3510265
0.2103179
0.8151021
0.8068243
0.7977316
0.7876978
0.7765688
0.7641887
0.750356
0.7347661
0.7170559
0.6967519
0.6723262
0.643585
0.6089856
0.56647
0.512862
0.4421347
0.3459827
0.2025493
0.8229704
0.8154088
0.8071365
0.7980492
0.7880206
0.7769272
0.7646103
0.7508279
0.7352981
0.7176605
0.6966717
0.6722736
0.6433287
0.6084013
0.5653691
0.5102863
0.4388626
0.3410344
0.1957293
0.8303864
0.8234696
0.8159313
0.8076849
0.7986265
0.7886579
0.7776535
0.7654191
0.7517342
0.7363209
0.7181498
0.6972329
0.6726931
0.6434597
0.6079938
0.5633798
0.5077247
0.4352302
0.3362167
0.1897465
0.8374394
0.8311091
0.8242348
0.8167445
0.8085522
0.7995801
0.7897284
0.7788404
0.7667427
0.7532199
0.737419
0.7194121
0.6985035
0.6738198
0.6439922
0.6058169
0.5608079
0.5045351
0.431467
0.3317293
0.1847113
0.8441316
0.8383345
0.8320608
0.8252506
0.817833
0.8097458
0.8009098
0.7911985
0.7804749
0.7685713
0.7548072
0.7393958
0.7219168
0.7019616
0.6790645
0.8502563
0.8449264
0.8391764
0.8329557
0.8262051
0.8188745
0.8109003
0.802179
0.7926004
0.7820317
0.769911
0.7564963
0.7414788
0.7245668