/*--------------------------------*- C++ -*----------------------------------*\
| =========                 |                                                 |
| \\      /  F ield         | OpenFOAM: The Open Source CFD Toolbox           |
|  \\    /   O peration     | Version:  2306                                  |
|   \\  /    A nd           | Website:  www.openfoam.com                      |
|    \\/     M anipulation  |                                                 |
\*---------------------------------------------------------------------------*/
FoamFile
{
    version     2.0;
    format      ascii;
    arch        "LSB;label=32;scalar=64";
    class       volScalarField;
    location    "0.6/fuel";
    object      iDmdtfuel.H2;
}
// * * * * * * * * * * * * * * * * * * * * * * * * * * * * * * * * * * * * * //

dimensions      [1 -3 -1 0 0 0 0];

internalField   nonuniform List<scalar> 
16000
(
-10.08372
-10.16442
-9.211613
-9.595115
-10.32598
-9.264202
-9.669374
-8.455883
-8.788497
-9.250974
-10.56813
-9.366921
-9.81789
-8.496061
-8.837144
-9.320978
-7.845169
-8.086439
-8.488043
-9.039243
-10.88065
-9.514733
-10.04029
-8.573647
-8.932095
-9.460937
-7.878038
-8.123774
-8.534025
-9.106909
-7.337312
-7.517135
-7.822509
-8.300747
-8.948431
-11.21345
-9.693609
-10.32699
-8.683137
-9.068648
-9.670503
-7.941049
-8.195822
-8.623741
-9.242238
-7.365214
-7.547791
-7.857891
-8.345189
-9.015437
-6.901688
-7.042359
-7.281784
-7.656476
-8.217539
-0
-11.45545
-9.867146
-10.6319
-8.81136
-9.233788
-9.940756
-8.028808
-8.29745
-8.752751
-9.445044
-7.418431
-7.606522
-7.926144
-8.431906
-9.149565
-6.92593
-7.068464
-7.310904
-7.690696
-8.261429
-0
-6.52026
-6.634095
-6.830059
-7.132831
-7.581108
-0
-0
-11.59979
-9.981322
-10.85257
-8.92937
-9.393859
-10.22837
-8.129259
-8.4164
-8.908785
-9.707051
-7.491825
-7.688286
-8.022405
-8.556655
-9.350916
-6.971993
-7.118222
-7.366671
-7.756704
-8.34711
-0
-6.54169
-6.656837
-6.854908
-7.161022
-7.614865
-0
-0
-6.18073
-6.275815
-6.440996
-6.695117
-7.064348
-0
-0
-0
-11.67646
-10.04193
-10.98352
-9.001399
-9.49879
-10.43585
-8.218233
-8.525789
-9.060047
-9.986654
-7.574372
-7.781821
-8.135068
-8.707671
-9.611869
-7.035028
-7.186815
-7.444293
-7.849819
-8.470475
-0
-6.582297
-6.700024
-6.902252
-7.215002
-7.679999
-0
-0
-6.199921
-6.295968
-6.462684
-6.719197
-7.09215
-0
-0
-0
-5.874963
-5.956225
-6.099049
-6.317863
-6.63257
-0
-0
-0
-0
-11.70907
-10.07056
-11.05277
-9.035255
-9.554269
-10.5586
-8.269303
-8.592343
-9.158885
-10.18803
-7.645286
-7.864593
-8.238653
-8.854246
-9.891623
-7.104922
-7.263913
-7.533075
-7.958853
-8.620062
-0
-6.637515
-6.759095
-6.967503
-7.290146
-7.771928
-0
-0
-6.236208
-6.334132
-6.503853
-6.76507
-7.145394
-0
-0
-0
-5.892325
-5.974312
-6.118302
-6.338902
-6.65632
-0
-0
-0
-0
-5.59696
-5.667854
-5.793592
-5.986049
-6.260474
-0
-0
-0
-0
-0
-11.70907
-10.08161
-11.08212
-9.048606
-9.580364
-10.62337
-8.290529
-8.623508
-9.210994
-10.30711
-7.683851
-7.911951
-8.301464
-8.949769
-10.09315
-7.163446
-7.330071
-7.611594
-8.059143
-8.765559
-0
-6.69802
-6.824546
-7.040821
-7.37611
-7.879678
-0
-0
-6.285291
-6.386003
-6.560149
-6.828294
-7.219536
-0
-0
-0
-5.925105
-6.008493
-6.154746
-6.37883
-6.701566
-0
-0
-0
-0
-5.612796
-5.684251
-5.810898
-6.004743
-6.281228
-0
-0
-0
-0
-0
-5.342288
-5.40519
-5.517598
-5.689418
-5.933179
-0
-0
-0
-0
-0
-0
-11.67646
-10.08161
-11.08212
-9.052758
-9.590398
-10.65078
-8.296967
-8.635737
-9.235452
-10.36996
-7.697906
-7.931545
-8.330778
-9.000061
-10.21254
-7.193735
-7.365921
-7.656352
-8.119752
-8.860194
-0
-6.747583
-6.879273
-7.103677
-7.452127
-7.978882
-0
-0
-6.338535
-6.442794
-6.622498
-6.899335
-7.304406
-0
-0
-0
-5.969247
-6.054702
-6.204263
-6.433428
-6.76394
-0
-0
-0
-0
-5.642663
-5.715192
-5.84359
-6.040124
-6.320619
-0
-0
-0
-0
-0
-5.356832
-5.420173
-5.53331
-5.706237
-5.951626
-0
-0
-0
-0
-0
-0
-5.107513
-5.164152
-5.265878
-5.421192
-5.64054
-0
-0
-0
-0
-0
-0
-0
-11.59979
-10.07056
-11.05277
-9.052758
-9.590398
-10.65078
-8.298087
-8.639515
-9.244842
-10.39658
-7.700607
-7.937434
-8.34224
-9.023672
-10.27574
-7.20327
-7.378904
-7.674784
-8.147963
-8.910021
-0
-6.772086
-6.907481
-7.137594
-7.495282
-8.038635
-0
-0
-6.381323
-6.489236
-6.674567
-6.960204
-7.37947
-0
-0
-0
-6.016718
-6.104782
-6.258447
-6.493888
-6.834051
-0
-0
-0
-0
-5.682728
-5.756834
-5.887772
-6.088191
-6.37449
-0
-0
-0
-0
-0
-5.384244
-5.448418
-5.562947
-5.738005
-5.986539
-0
-0
-0
-0
-0
-0
-5.120948
-5.177938
-5.280256
-5.436476
-5.657143
-0
-0
-0
-0
-0
-0
-0
-4.889983
-4.941583
-5.034597
-5.176373
-5.375868
-0
-0
-0
-0
-0
-0
-0
-0
-11.45545
-10.04193
-10.98352
-9.048606
-9.580364
-10.62337
-8.298087
-8.639515
-9.244842
-10.39658
-7.700146
-7.938427
-8.345767
-9.032747
-10.30259
-7.203739
-7.381335
-7.680275
-8.158977
-8.933476
-0
-6.778612
-6.916275
-7.14979
-7.512971
-8.066392
-0
-0
-6.401589
-6.512086
-6.701273
-6.992891
-7.421896
-0
-0
-0
-6.05423
-6.144951
-6.30269
-6.544332
-6.894104
-0
-0
-0
-0
-5.725489
-5.801571
-5.935623
-6.140776
-6.434155
-0
-0
-0
-0
-0
-5.420894
-5.486286
-5.60282
-5.780931
-6.033977
-0
-0
-0
-0
-0
-0
-5.14626
-5.203908
-5.307349
-5.465301
-5.688501
-0
-0
-0
-0
-0
-0
-0
-4.902452
-4.954339
-5.047843
-5.190371
-5.39096
-0
-0
-0
-0
-0
-0
-0
-0
-4.687588
-4.735041
-4.820782
-4.951265
-5.134232
-0
-0
-0
-0
-0
-0
-0
-0
-0
-11.21345
-9.981322
-10.85257
-9.035255
-9.554269
-10.5586
-8.296967
-8.635737
-9.235452
-10.36996
-7.700146
-7.938427
-8.345767
-9.032747
-10.30259
-7.202378
-7.380862
-7.681176
-8.162365
-8.942524
-0
-6.777685
-6.916627
-7.152011
-7.518203
-8.077234
-0
-0
-6.406023
-6.518081
-6.709508
-7.004557
-7.439206
-0
-0
-0
-6.071296
-6.163869
-6.324336
-6.570063
-6.926183
-0
-0
-0
-0
-5.75878
-5.836847
-5.973936
-6.183661
-6.483902
-0
-0
-0
-0
-0
-5.459752
-5.526657
-5.645625
-5.827408
-6.085877
-0
-0
-0
-0
-0
-0
-5.180005
-5.238609
-5.343657
-5.504075
-5.730878
-0
-0
-0
-0
-0
-0
-0
-4.925941
-4.97836
-5.072786
-5.216744
-5.419424
-0
-0
-0
-0
-0
-0
-0
-0
-4.699209
-4.746898
-4.833053
-4.964171
-5.148059
-0
-0
-0
-0
-0
-0
-0
-0
-0
-4.498555
-4.542586
-4.622137
-4.743006
-4.91199
-0
-0
-0
-0
-0
-0
-0
-0
-0
-0
-10.88065
-9.867146
-10.6319
-9.001399
-9.49879
-10.43585
-8.290529
-8.623508
-9.210994
-10.30711
-7.700607
-7.937434
-8.34224
-9.023672
-10.27574
-7.202378
-7.380862
-7.681176
-8.162365
-8.942524
-0
-6.775794
-6.915311
-7.151521
-7.519043
-8.080577
-0
-0
-6.404195
-6.517124
-6.709755
-7.006623
-7.444297
-0
-0
-0
-6.074234
-6.167912
-6.32992
-6.577905
-6.937541
-0
-0
-0
-0
-5.773363
-5.852792
-5.991866
-6.204511
-6.509123
-0
-0
-0
-0
-0
-5.489608
-5.558014
-5.67931
-5.864566
-6.128163
-0
-0
-0
-0
-0
-0
-5.215577
-5.275359
-5.382336
-5.545683
-5.77676
-0
-0
-0
-0
-0
-0
-0
-4.957178
-5.010364
-5.106102
-5.25208
-5.457713
-0
-0
-0
-0
-0
-0
-0
-0
-4.721103
-4.769224
-4.856153
-4.988472
-5.17411
-0
-0
-0
-0
-0
-0
-0
-0
-0
-4.509426
-4.553653
-4.633557
-4.754972
-4.924743
-0
-0
-0
-0
-0
-0
-0
-0
-0
-0
-4.321389
-4.362582
-4.43684
-4.549386
-4.706323
-0
-0
-0
-0
-0
-0
-0
-0
-0
-0
-10.56813
-9.693609
-10.32699
-8.92937
-9.393859
-10.22837
-8.269303
-8.592343
-9.158885
-10.18803
-7.697906
-7.931545
-8.330778
-9.000061
-10.21254
-7.203739
-7.381335
-7.680275
-8.158977
-8.933476
-0
-6.775794
-6.915311
-7.151521
-7.519043
-8.080577
-0
-0
-6.401988
-6.515306
-6.708461
-7.006113
-7.4451
-0
-0
-0
-6.071815
-6.166105
-6.328921
-6.57806
-6.939497
-0
-0
-0
-0
-5.775205
-5.855436
-5.995599
-6.209796
-6.516716
-0
-0
-0
-0
-0
-5.50223
-5.57165
-5.694428
-5.881835
-6.148583
-0
-0
-0
-0
-0
-0
-5.242591
-5.303523
-5.412312
-5.578373
-5.813399
-0
-0
-0
-0
-0
-0
-0
-4.989937
-5.044061
-5.141354
-5.289708
-5.498801
-0
-0
-0
-0
-0
-0
-0
-0
-4.750155
-4.798896
-4.886917
-5.020922
-5.209017
-0
-0
-0
-0
-0
-0
-0
-0
-0
-4.529914
-4.574494
-4.655052
-4.777493
-4.948755
-0
-0
-0
-0
-0
-0
-0
-0
-0
-0
-4.331594
-4.37295
-4.44751
-4.560529
-4.718151
-0
-0
-0
-0
-0
-0
-0
-0
-0
-0
-4.15487
-4.193651
-4.263349
-4.368652
-4.515059
-0
-0
-0
-0
-0
-0
-0
-0
-0
-0
-10.32598
-9.514733
-10.04029
-8.81136
-9.233788
-9.940756
-8.218233
-8.525789
-9.060047
-9.986654
-7.683851
-7.911951
-8.301464
-8.949769
-10.09315
-7.20327
-7.378904
-7.674784
-8.147963
-8.910021
-0
-6.777685
-6.916627
-7.152011
-7.518203
-8.077234
-0
-0
-6.401988
-6.515306
-6.708461
-7.006113
-7.4451
-0
-0
-0
-6.069424
-6.163986
-6.327146
-6.576769
-6.938961
-0
-0
-0
-0
-5.7724
-5.853069
-5.993788
-6.208745
-6.516787
-0
-0
-0
-0
-0
-5.503261
-5.573268
-5.696834
-5.885334
-6.153664
-0
-0
-0
-0
-0
-0
-5.253644
-5.315334
-5.425245
-5.592933
-5.830301
-0
-0
-0
-0
-0
-0
-0
-5.014559
-5.069581
-5.168308
-5.318817
-5.531037
-0
-0
-0
-0
-0
-0
-0
-0
-4.780486
-4.829977
-4.91928
-5.055242
-5.246184
-0
-0
-0
-0
-0
-0
-0
-0
-0
-4.557048
-4.602132
-4.683608
-4.807482
-4.980822
-0
-0
-0
-0
-0
-0
-0
-0
-0
-0
-4.350835
-4.392481
-4.467598
-4.581503
-4.740413
-0
-0
-0
-0
-0
-0
-0
-0
-0
-0
-4.164476
-4.203397
-4.273356
-4.379072
-4.526078
-0
-0
-0
-0
-0
-0
-0
-0
-0
-0
-3.998015
-4.034667
-4.100367
-4.199324
-4.336473
-0
-0
-0
-0
-0
-0
-0
-0
-0
-0
-10.16442
-9.366921
-9.81789
-8.683137
-9.068648
-9.670503
-8.129259
-8.4164
-8.908785
-9.707051
-7.645286
-7.864593
-8.238653
-8.854246
-9.891623
-7.193735
-7.365921
-7.656352
-8.119752
-8.860194
-0
-6.778612
-6.916275
-7.14979
-7.512971
-8.066392
-0
-0
-6.404195
-6.517124
-6.709755
-7.006623
-7.444297
-0
-0
-0
-6.069424
-6.163986
-6.327146
-6.576769
-6.938961
-0
-0
-0
-0
-5.769909
-5.850773
-5.991723
-6.206986
-6.51548
-0
-0
-0
-0
-0
-5.50021
-5.570533
-5.694487
-5.883497
-6.152548
-0
-0
-0
-0
-0
-0
-5.254074
-5.316192
-5.426677
-5.595152
-5.833631
-0
-0
-0
-0
-0
-0
-0
-5.024329
-5.079931
-5.179514
-5.331271
-5.54528
-0
-0
-0
-0
-0
-0
-0
-0
-4.803073
-4.85327
-4.943729
-5.081432
-5.274894
-0
-0
-0
-0
-0
-0
-0
-0
-0
-4.585263
-4.630951
-4.713492
-4.839012
-5.014732
-0
-0
-0
-0
-0
-0
-0
-0
-0
-0
-4.376277
-4.418331
-4.494226
-4.609359
-4.770057
-0
-0
-0
-0
-0
-0
-0
-0
-0
-0
-4.182597
-4.221764
-4.2922
-4.398686
-4.546816
-0
-0
-0
-0
-0
-0
-0
-0
-0
-0
-4.00708
-4.043851
-4.109782
-4.209102
-4.346779
-0
-0
-0
-0
-0
-0
-0
-0
-0
-0
-3.849933
-3.884724
-3.946832
-4.040149
-4.169108
-0
-0
-0
-0
-0
-0
-0
-0
-0
-0
-10.08372
-9.264202
-9.669374
-8.573647
-8.932095
-9.460937
-8.028808
-8.29745
-8.752751
-9.445044
-7.574372
-7.781821
-8.135068
-8.707671
-9.611869
-7.163446
-7.330071
-7.611594
-8.059143
-8.765559
-0
-6.772086
-6.907481
-7.137594
-7.495282
-8.038635
-0
-0
-6.406023
-6.518081
-6.709508
-7.004557
-7.439206
-0
-0
-0
-6.071815
-6.166105
-6.328921
-6.57806
-6.939497
-0
-0
-0
-0
-5.769909
-5.850773
-5.991723
-6.206986
-6.51548
-0
-0
-0
-0
-0
-5.497676
-5.568138
-5.692249
-5.881456
-6.15078
-0
-0
-0
-0
-0
-0
-5.250878
-5.313222
-5.423977
-5.592797
-5.831746
-0
-0
-0
-0
-0
-0
-0
-5.024307
-5.080226
-5.180224
-5.332552
-5.547359
-0
-0
-0
-0
-0
-0
-0
-0
-4.811786
-4.862426
-4.953553
-5.092224
-5.287074
-0
-0
-0
-0
-0
-0
-0
-0
-0
-4.606105
-4.652348
-4.735831
-4.862784
-5.040569
-0
-0
-0
-0
-0
-0
-0
-0
-0
-0
-4.402641
-4.445177
-4.521964
-4.638495
-4.801221
-0
-0
-0
-0
-0
-0
-0
-0
-0
-0
-4.206526
-4.246035
-4.317132
-4.42468
-4.574361
-0
-0
-0
-0
-0
-0
-0
-0
-0
-0
-4.024195
-4.061172
-4.127522
-4.227514
-4.36618
-0
-0
-0
-0
-0
-0
-0
-0
-0
-0
-3.858508
-3.893402
-3.955713
-4.049355
-4.178782
-0
-0
-0
-0
-0
-0
-0
-0
-0
-0
-3.709877
-3.742999
-3.801896
-3.890109
-4.011734
-0
-0
-0
-0
-0
-0
-0
-0
-0
-0
-9.211613
-9.595115
-8.496061
-8.837144
-9.320978
-7.941049
-8.195822
-8.623741
-9.242238
-7.491825
-7.688286
-8.022405
-8.556655
-9.350916
-7.104922
-7.263913
-7.533075
-7.958853
-8.620062
-0
-6.747583
-6.879273
-7.103677
-7.452127
-7.978882
-0
-0
-6.401589
-6.512086
-6.701273
-6.992891
-7.421896
-0
-0
-0
-6.074234
-6.167912
-6.32992
-6.577905
-6.937541
-0
-0
-0
-0
-5.7724
-5.853069
-5.993788
-6.208745
-6.516787
-0
-0
-0
-0
-0
-5.497676
-5.568138
-5.692249
-5.881456
-6.15078
-0
-0
-0
-0
-0
-0
-5.248341
-5.310783
-5.421644
-5.590587
-5.829699
-0
-0
-0
-0
-0
-0
-0
-5.021034
-5.077117
-5.177299
-5.329856
-5.544966
-0
-0
-0
-0
-0
-0
-0
-0
-4.811423
-4.862297
-4.95373
-5.092811
-5.288236
-0
-0
-0
-0
-0
-0
-0
-0
-0
-4.613939
-4.660519
-4.744525
-4.872245
-5.05112
-0
-0
-0
-0
-0
-0
-0
-0
-0
-0
-4.42198
-4.464947
-4.542506
-4.660229
-4.824678
-0
-0
-0
-0
-0
-0
-0
-0
-0
-0
-0
-4.231247
-4.271154
-4.343
-4.451743
-4.603167
-0
-0
-0
-0
-0
-0
-0
-0
-0
-0
-4.046768
-4.084029
-4.150954
-4.251869
-4.391891
-0
-0
-0
-0
-0
-0
-0
-0
-0
-0
-3.874711
-3.909781
-3.972459
-4.0667
-4.197
-0
-0
-0
-0
-0
-0
-0
-0
-0
-0
-3.718007
-3.751217
-3.810295
-3.898798
-4.020845
-0
-0
-0
-0
-0
-0
-0
-0
-0
-0
-3.577111
-3.608805
-3.664782
-3.748387
-3.86335
-0
-0
-0
-0
-0
-0
-0
-0
-0
-0
-8.455883
-8.788497
-9.250974
-7.878038
-8.123774
-8.534025
-9.106909
-7.418431
-7.606522
-7.926144
-8.431906
-9.149565
-7.035028
-7.186815
-7.444294
-7.849819
-8.470475
-0
-6.69802
-6.824546
-7.040821
-7.37611
-7.879678
-0
-0
-6.381323
-6.489236
-6.674567
-6.960204
-7.37947
-0
-0
-0
-6.071296
-6.163869
-6.324336
-6.570063
-6.926183
-0
-0
-0
-0
-5.775205
-5.855436
-5.995599
-6.209796
-6.516716
-0
-0
-0
-0
-0
-5.50021
-5.570533
-5.694487
-5.883497
-6.152548
-0
-0
-0
-0
-0
-0
-5.248341
-5.310783
-5.421644
-5.590587
-5.829699
-0
-0
-0
-0
-0
-0
-0
-5.01852
-5.074673
-5.174921
-5.327553
-5.542756
-0
-0
-0
-0
-0
-0
-0
-0
-4.808122
-4.859114
-4.950671
-5.089896
-5.285511
-0
-0
-0
-0
-0
-0
-0
-0
-0
-4.613321
-4.660071
-4.7443
-4.87232
-5.051606
-0
-0
-0
-0
-0
-0
-0
-0
-0
-0
-4.429087
-4.4723
-4.550269
-4.668603
-4.833926
-0
-0
-0
-0
-0
-0
-0
-0
-0
-0
-0
-4.249269
-4.289523
-4.361998
-4.471741
-4.624619
-0
-0
-0
-0
-0
-0
-0
-0
-0
-0
-0
-0
-4.070027
-4.107612
-4.175182
-4.277124
-4.418656
-0
-0
-0
-0
-0
-0
-0
-0
-0
-0
-3.89606
-3.93137
-3.994548
-4.089605
-4.221098
-0
-0
-0
-0
-0
-0
-0
-0
-0
-0
-3.733384
-3.766742
-3.826145
-3.915181
-4.038011
-0
-0
-0
-0
-0
-0
-0
-0
-0
-0
-3.584836
-3.616605
-3.672742
-3.756609
-3.871952
-0
-0
-0
-0
-0
-0
-0
-0
-0
-0
-3.451086
-3.481457
-3.534843
-3.614237
-3.723155
-0
-0
-0
-0
-0
-0
-0
-0
-0
-0
-7.845169
-8.086439
-8.488043
-9.039243
-7.365214
-7.547791
-7.857891
-8.345189
-9.015437
-6.971993
-7.118222
-7.366671
-7.756704
-8.34711
-0
-6.637515
-6.759095
-6.967503
-7.290146
-7.771928
-0
-0
-6.338535
-6.442794
-6.622498
-6.899335
-7.304406
-0
-0
-0
-6.05423
-6.144951
-6.30269
-6.544332
-6.894104
-0
-0
-0
-0
-5.773363
-5.852792
-5.991866
-6.204511
-6.509123
-0
-0
-0
-0
-0
-5.503261
-5.573268
-5.696834
-5.885334
-6.153664
-0
-0
-0
-0
-0
-0
-5.250878
-5.313222
-5.423977
-5.592797
-5.831746
-0
-0
-0
-0
-0
-0
-0
-5.01852
-5.074673
-5.174921
-5.327553
-5.542756
-0
-0
-0
-0
-0
-0
-0
-0
-4.805649
-4.856688
-4.948286
-5.08755
-5.28321
-0
-0
-0
-0
-0
-0
-0
-0
-0
-4.610031
-4.656861
-4.741169
-4.869277
-5.048669
-0
-0
-0
-0
-0
-0
-0
-0
-0
-0
-4.42829
-4.471615
-4.549742
-4.668292
-4.833914
-0
-0
-0
-0
-0
-0
-0
-0
-0
-0
-0
-4.255758
-4.296198
-4.368986
-4.479219
-4.632803
-0
-0
-0
-0
-0
-0
-0
-0
-0
-0
-0
-0
-4.086894
-4.124752
-4.192851
-4.29563
-4.4384
-0
-0
-0
-0
-0
-0
-0
-0
-0
-0
-0
-0
-0
-3.918006
-3.953585
-4.017316
-4.113273
-4.246081
-0
-0
-0
-0
-0
-0
-0
-0
-0
-0
-3.753626
-3.787184
-3.847027
-3.936786
-4.060681
-0
-0
-0
-0
-0
-0
-0
-0
-0
-0
-3.599462
-3.631355
-3.687779
-3.772124
-3.888171
-0
-0
-0
-0
-0
-0
-0
-0
-0
-0
-3.458437
-3.488875
-3.542404
-3.622034
-3.731297
-0
-0
-0
-0
-0
-0
-0
-0
-0
-0
-3.3313
-3.360446
-3.41143
-3.487036
-3.590414
-0
-0
-0
-0
-0
-0
-0
-0
-0
-0
-7.337312
-7.517136
-7.822509
-8.300747
-8.948431
-6.92593
-7.068464
-7.310904
-7.690696
-8.261429
-0
-6.582297
-6.700024
-6.902252
-7.215002
-7.679999
-0
-0
-6.285291
-6.386003
-6.560149
-6.828294
-7.219536
-0
-0
-0
-6.016718
-6.104782
-6.258447
-6.493888
-6.834051
-0
-0
-0
-0
-5.75878
-5.836847
-5.973936
-6.183661
-6.483902
-0
-0
-0
-0
-0
-5.50223
-5.57165
-5.694428
-5.881835
-6.148583
-0
-0
-0
-0
-0
-0
-5.254074
-5.316192
-5.426677
-5.595152
-5.833631
-0
-0
-0
-0
-0
-0
-0
-5.021034
-5.077117
-5.177299
-5.329856
-5.544966
-0
-0
-0
-0
-0
-0
-0
-0
-4.805649
-4.856688
-4.948286
-5.08755
-5.28321
-0
-0
-0
-0
-0
-0
-0
-0
-0
-4.60761
-4.654472
-4.738802
-4.866924
-5.046326
-0
-0
-0
-0
-0
-0
-0
-0
-0
-0
-4.425039
-4.468412
-4.546586
-4.665181
-4.830854
-0
-0
-0
-0
-0
-0
-0
-0
-0
-0
-0
-4.25483
-4.295346
-4.368236
-4.478621
-4.632417
-0
-0
-0
-0
-0
-0
-0
-0
-0
-0
-0
-0
-4.092861
-4.130853
-4.199199
-4.302363
-4.445708
-0
-0
-0
-0
-0
-0
-0
-0
-0
-0
-0
-0
-0
-3.933851
-3.969647
-4.033819
-4.130496
-4.264358
-0
-0
-0
-0
-0
-0
-0
-0
-0
-0
-0
-0
-0
-0
-3.774393
-3.808172
-3.868495
-3.959043
-4.084103
-0
-0
-0
-0
-0
-0
-0
-0
-0
-0
-3.618704
-3.65076
-3.70757
-3.792561
-3.90956
-0
-0
-0
-0
-0
-0
-0
-0
-0
-0
-3.472374
-3.50292
-3.556703
-3.636762
-3.746661
-0
-0
-0
-0
-0
-0
-0
-0
-0
-0
-3.338309
-3.367513
-3.418628
-3.494447
-3.598137
-0
-0
-0
-0
-0
-0
-0
-0
-0
-0
-3.21729
-3.245311
-3.294068
-3.36616
-3.464518
-0
-0
-0
-0
-0
-0
-0
-0
-0
-0
-6.901688
-7.042359
-7.281784
-7.656476
-8.217539
-0
-6.54169
-6.656837
-6.854908
-7.161022
-7.614865
-0
-0
-6.236208
-6.334132
-6.503853
-6.76507
-7.145394
-0
-0
-0
-5.969247
-6.054702
-6.204263
-6.433428
-6.76394
-0
-0
-0
-0
-5.725489
-5.801571
-5.935623
-6.140776
-6.434155
-0
-0
-0
-0
-0
-5.489608
-5.558014
-5.67931
-5.864566
-6.128163
-0
-0
-0
-0
-0
-0
-5.253644
-5.315334
-5.425245
-5.592933
-5.830301
-0
-0
-0
-0
-0
-0
-0
-5.024307
-5.080226
-5.180224
-5.332552
-5.547359
-0
-0
-0
-0
-0
-0
-0
-0
-4.808122
-4.859113
-4.950671
-5.089896
-5.285511
-0
-0
-0
-0
-0
-0
-0
-0
-0
-4.60761
-4.654472
-4.738802
-4.866924
-5.046326
-0
-0
-0
-0
-0
-0
-0
-0
-0
-0
-4.422681
-4.466071
-4.544253
-4.662845
-4.828505
-0
-0
-0
-0
-0
-0
-0
-0
-0
-0
-0
-4.251638
-4.292181
-4.365087
-4.475485
-4.629293
-0
-0
-0
-0
-0
-0
-0
-0
-0
-0
-0
-0
-4.091843
-4.129881
-4.198293
-4.301553
-4.445043
-0
-0
-0
-0
-0
-0
-0
-0
-0
-0
-0
-0
-0
-3.939369
-3.975261
-4.039624
-4.136615
-4.270938
-0
-0
-0
-0
-0
-0
-0
-0
-0
-0
-0
-0
-0
-0
-3.789329
-3.823277
-3.883973
-3.975138
-4.101117
-0
-0
-0
-0
-0
-0
-0
-0
-0
-0
-0
-0
-0
-0
-0
-3.638413
-3.670642
-3.727869
-3.81356
-3.931591
-0
-0
-0
-0
-0
-0
-0
-0
-0
-0
-3.490697
-3.521386
-3.575505
-3.656141
-3.766899
-0
-0
-0
-0
-0
-0
-0
-0
-0
-0
-3.351613
-3.38091
-3.432254
-3.508459
-3.612725
-0
-0
-0
-0
-0
-0
-0
-0
-0
-0
-3.223982
-3.252055
-3.300929
-3.373217
-3.47186
-0
-0
-0
-0
-0
-0
-0
-0
-0
-0
-3.10866
-3.135621
-3.182318
-3.251149
-3.344851
-0
-0
-0
-0
-0
-0
-0
-0
-0
-0
-6.52026
-6.634095
-6.830059
-7.132831
-7.581108
-0
-0
-6.199921
-6.295968
-6.462684
-6.719197
-7.09215
-0
-0
-0
-5.925105
-6.008493
-6.154746
-6.37883
-6.701566
-0
-0
-0
-0
-5.682728
-5.756834
-5.887772
-6.088191
-6.37449
-0
-0
-0
-0
-0
-5.459752
-5.526657
-5.645625
-5.827408
-6.085877
-0
-0
-0
-0
-0
-0
-5.242591
-5.303523
-5.412312
-5.578373
-5.813399
-0
-0
-0
-0
-0
-0
-0
-5.024329
-5.079931
-5.179514
-5.331271
-5.54528
-0
-0
-0
-0
-0
-0
-0
-0
-4.811423
-4.862297
-4.95373
-5.092811
-5.288236
-0
-0
-0
-0
-0
-0
-0
-0
-0
-4.610031
-4.656861
-4.741169
-4.869277
-5.048669
-0
-0
-0
-0
-0
-0
-0
-0
-0
-0
-4.422682
-4.466071
-4.544253
-4.662845
-4.828505
-0
-0
-0
-0
-0
-0
-0
-0
-0
-0
-0
-4.249349
-4.2899
-4.3628
-4.473182
-4.626961
-0
-0
-0
-0
-0
-0
-0
-0
-0
-0
-0
-0
-4.088724
-4.126771
-4.195182
-4.298426
-4.441897
-0
-0
-0
-0
-0
-0
-0
-0
-0
-0
-0
-0
-0
-3.938292
-3.974208
-4.038606
-4.135656
-4.270068
-0
-0
-0
-0
-0
-0
-0
-0
-0
-0
-0
-0
-0
-0
-3.794462
-3.828475
-3.88932
-3.980736
-4.107097
-0
-0
-0
-0
-0
-0
-0
-0
-0
-0
-0
-0
-0
-0
-0
-3.652549
-3.684897
-3.742439
-3.828666
-3.947496
-0
-0
-0
-0
-0
-0
-0
-0
-0
-0
-0
-0
-0
-0
-0
-0
-3.50944
-3.540277
-3.594751
-3.676008
-3.78769
-0
-0
-0
-0
-0
-0
-0
-0
-0
-0
-3.369097
-3.398512
-3.45016
-3.526881
-3.631922
-0
-0
-0
-0
-0
-0
-0
-0
-0
-0
-3.236703
-3.264856
-3.313936
-3.386577
-3.485743
-0
-0
-0
-0
-0
-0
-0
-0
-0
-0
-3.115061
-3.142066
-3.188871
-3.25788
-3.351844
-0
-0
-0
-0
-0
-0
-0
-0
-0
-0
-3.004987
-3.03101
-3.075775
-3.141585
-3.230963
-0
-0
-0
-0
-0
-0
-0
-0
-0
-0
-6.180731
-6.275815
-6.440996
-6.695117
-7.064348
-0
-0
-0
-5.892325
-5.974312
-6.118302
-6.338902
-6.65632
-0
-0
-0
-0
-5.642663
-5.715192
-5.84359
-6.040124
-6.320619
-0
-0
-0
-0
-0
-5.420894
-5.486286
-5.60282
-5.780931
-6.033977
-0
-0
-0
-0
-0
-0
-5.215577
-5.275359
-5.382336
-5.545683
-5.77676
-0
-0
-0
-0
-0
-0
-0
-5.014559
-5.069581
-5.168308
-5.318817
-5.531037
-0
-0
-0
-0
-0
-0
-0
-0
-4.811786
-4.862426
-4.953553
-5.092224
-5.287074
-0
-0
-0
-0
-0
-0
-0
-0
-0
-4.613322
-4.660071
-4.7443
-4.87232
-5.051606
-0
-0
-0
-0
-0
-0
-0
-0
-0
-0
-4.425039
-4.468412
-4.546586
-4.665181
-4.830854
-0
-0
-0
-0
-0
-0
-0
-0
-0
-0
-0
-4.249349
-4.2899
-4.3628
-4.473182
-4.626961
-0
-0
-0
-0
-0
-0
-0
-0
-0
-0
-0
-0
-4.086508
-4.124554
-4.192951
-4.296168
-4.4396
-0
-0
-0
-0
-0
-0
-0
-0
-0
-0
-0
-0
-0
-3.935257
-3.971169
-4.035549
-4.132567
-4.266934
-0
-0
-0
-0
-0
-0
-0
-0
-0
-0
-0
-0
-0
-0
-3.793353
-3.82737
-3.888228
-3.979672
-4.106085
-0
-0
-0
-0
-0
-0
-0
-0
-0
-0
-0
-0
-0
-0
-0
-3.657363
-3.689739
-3.747393
-3.833823
-3.952968
-0
-0
-0
-0
-0
-0
-0
-0
-0
-0
-0
-0
-0
-0
-0
-0
-3.522851
-3.553784
-3.608514
-3.690235
-3.802621
-0
-0
-0
-0
-0
-0
-0
-0
-0
-0
-0
-0
-0
-0
-0
-0
-0
-3.386961
-3.416496
-3.468463
-3.545727
-3.651597
-0
-0
-0
-0
-0
-0
-0
-0
-0
-0
-3.253416
-3.281669
-3.331019
-3.404131
-3.503995
-0
-0
-0
-0
-0
-0
-0
-0
-0
-0
-3.127245
-3.154318
-3.201308
-3.270639
-3.365084
-0
-0
-0
-0
-0
-0
-0
-0
-0
-0
-3.011119
-3.03718
-3.082042
-3.148016
-3.237634
-0
-0
-0
-0
-0
-0
-0
-0
-0
-0
-2.905985
-2.931082
-2.974094
-3.037075
-3.122442
-0
-0
-0
-0
-0
-0
-0
-0
-0
-0
-5.874963
-5.956225
-6.099049
-6.317863
-6.63257
-0
-0
-0
-0
-5.612796
-5.684251
-5.810898
-6.004743
-6.281228
-0
-0
-0
-0
-0
-5.384244
-5.448418
-5.562947
-5.738005
-5.986539
-0
-0
-0
-0
-0
-0
-5.180005
-5.238609
-5.343657
-5.504075
-5.730878
-0
-0
-0
-0
-0
-0
-0
-4.989937
-5.044061
-5.141354
-5.289708
-5.498801
-0
-0
-0
-0
-0
-0
-0
-0
-4.803073
-4.85327
-4.943729
-5.081432
-5.274894
-0
-0
-0
-0
-0
-0
-0
-0
-0
-4.613939
-4.660519
-4.744525
-4.872245
-5.05112
-0
-0
-0
-0
-0
-0
-0
-0
-0
-0
-4.42829
-4.471615
-4.549742
-4.668292
-4.833914
-0
-0
-0
-0
-0
-0
-0
-0
-0
-0
-0
-4.251638
-4.292182
-4.365087
-4.475485
-4.629293
-0
-0
-0
-0
-0
-0
-0
-0
-0
-0
-0
-0
-4.086508
-4.124554
-4.192951
-4.296168
-4.4396
-0
-0
-0
-0
-0
-0
-0
-0
-0
-0
-0
-0
-0
-3.933114
-3.96902
-4.03338
-4.130364
-4.264681
-0
-0
-0
-0
-0
-0
-0
-0
-0
-0
-0
-0
-0
-0
-3.790406
-3.824409
-3.885239
-3.976637
-4.10299
-0
-0
-0
-0
-0
-0
-0
-0
-0
-0
-0
-0
-0
-0
-0
-3.656249
-3.688605
-3.746254
-3.832691
-3.951856
-0
-0
-0
-0
-0
-0
-0
-0
-0
-0
-0
-0
-0
-0
-0
-0
-3.527382
-3.55833
-3.613132
-3.695017
-3.807664
-0
-0
-0
-0
-0
-0
-0
-0
-0
-0
-0
-0
-0
-0
-0
-0
-0
-3.399721
-3.429325
-3.481515
-3.559174
-3.665664
-0
-0
-0
-0
-0
-0
-0
-0
-0
-0
-0
-0
-0
-0
-0
-0
-0
-0
-3.270478
-3.298828
-3.348456
-3.422063
-3.522665
-0
-0
-0
-0
-0
-0
-0
-0
-0
-0
-3.143249
-3.170405
-3.217638
-3.287395
-3.382481
-0
-0
-0
-0
-0
-0
-0
-0
-0
-0
-3.022809
-3.048925
-3.093954
-3.160222
-3.250282
-0
-0
-0
-0
-0
-0
-0
-0
-0
-0
-2.911866
-2.936997
-2.980097
-3.043228
-3.128817
-0
-0
-0
-0
-0
-0
-0
-0
-0
-0
-2.811356
-2.835573
-2.876898
-2.937288
-3.018904
-0
-0
-0
-0
-0
-0
-0
-0
-0
-0
-5.59696
-5.667854
-5.793592
-5.986049
-6.260474
-0
-0
-0
-0
-0
-5.356832
-5.420173
-5.53331
-5.706237
-5.951626
-0
-0
-0
-0
-0
-0
-5.14626
-5.203908
-5.307349
-5.465301
-5.688501
-0
-0
-0
-0
-0
-0
-0
-4.957178
-5.010364
-5.106102
-5.25208
-5.457713
-0
-0
-0
-0
-0
-0
-0
-0
-4.780486
-4.829977
-4.91928
-5.055242
-5.246184
-0
-0
-0
-0
-0
-0
-0
-0
-0
-4.606105
-4.652348
-4.735831
-4.862784
-5.040569
-0
-0
-0
-0
-0
-0
-0
-0
-0
-0
-4.429087
-4.4723
-4.550269
-4.668602
-4.833926
-0
-0
-0
-0
-0
-0
-0
-0
-0
-0
-0
-4.25483
-4.295346
-4.368236
-4.478621
-4.632417
-0
-0
-0
-0
-0
-0
-0
-0
-0
-0
-0
-0
-4.088724
-4.126771
-4.195182
-4.298426
-4.441897
-0
-0
-0
-0
-0
-0
-0
-0
-0
-0
-0
-0
-0
-3.933114
-3.96902
-4.03338
-4.130364
-4.264681
-0
-0
-0
-0
-0
-0
-0
-0
-0
-0
-0
-0
-0
-0
-3.788338
-3.822331
-3.883136
-3.974494
-4.100793
-0
-0
-0
-0
-0
-0
-0
-0
-0
-0
-0
-0
-0
-0
-0
-3.653403
-3.685731
-3.743342
-3.829724
-3.948816
-0
-0
-0
-0
-0
-0
-0
-0
-0
-0
-0
-0
-0
-0
-0
-0
-3.526275
-3.557196
-3.611969
-3.693842
-3.806488
-0
-0
-0
-0
-0
-0
-0
-0
-0
-0
-0
-0
-0
-0
-0
-0
-0
-3.404008
-3.433609
-3.485855
-3.563634
-3.67034
-0
-0
-0
-0
-0
-0
-0
-0
-0
-0
-0
-0
-0
-0
-0
-0
-0
-0
-3.28265
-3.311047
-3.360863
-3.434823
-3.535964
-0
-0
-0
-0
-0
-0
-0
-0
-0
-0
-0
-0
-0
-0
-0
-0
-0
-0
-0
-3.159576
-3.186809
-3.234288
-3.304488
-3.400249
-0
-0
-0
-0
-0
-0
-0
-0
-0
-0
-3.038161
-3.064344
-3.10959
-3.176246
-3.26689
-0
-0
-0
-0
-0
-0
-0
-0
-0
-0
-2.923096
-2.948276
-2.991525
-3.054925
-3.14092
-0
-0
-0
-0
-0
-0
-0
-0
-0
-0
-2.817003
-2.841251
-2.882657
-2.943184
-3.025005
-0
-0
-0
-0
-0
-0
-0
-0
-0
-0
-2.720896
-2.744205
-2.783939
-2.841859
-2.920023
-0
-0
-0
-0
-0
-0
-0
-0
-0
-0
-5.342288
-5.40519
-5.517598
-5.689418
-5.933179
-0
-0
-0
-0
-0
-0
-5.120948
-5.177938
-5.280256
-5.436476
-5.657143
-0
-0
-0
-0
-0
-0
-0
-4.925941
-4.97836
-5.072786
-5.216744
-5.419424
-0
-0
-0
-0
-0
-0
-0
-0
-4.750155
-4.798896
-4.886917
-5.020922
-5.209017
-0
-0
-0
-0
-0
-0
-0
-0
-0
-4.585264
-4.63095
-4.713492
-4.839012
-5.014732
-0
-0
-0
-0
-0
-0
-0
-0
-0
-0
-4.421981
-4.464947
-4.542506
-4.660229
-4.824678
-0
-0
-0
-0
-0
-0
-0
-0
-0
-0
-0
-4.255758
-4.296198
-4.368986
-4.479219
-4.632803
-0
-0
-0
-0
-0
-0
-0
-0
-0
-0
-0
-0
-4.091843
-4.129881
-4.198294
-4.301553
-4.445043
-0
-0
-0
-0
-0
-0
-0
-0
-0
-0
-0
-0
-0
-3.935257
-3.971169
-4.035549
-4.132567
-4.266934
-0
-0
-0
-0
-0
-0
-0
-0
-0
-0
-0
-0
-0
-0
-3.788338
-3.822331
-3.883136
-3.974494
-4.100793
-0
-0
-0
-0
-0
-0
-0
-0
-0
-0
-0
-0
-0
-0
-0
-3.651413
-3.683723
-3.741306
-3.827645
-3.946679
-0
-0
-0
-0
-0
-0
-0
-0
-0
-0
-0
-0
-0
-0
-0
-0
-3.523528
-3.554418
-3.609141
-3.690951
-3.803517
-0
-0
-0
-0
-0
-0
-0
-0
-0
-0
-0
-0
-0
-0
-0
-0
-0
-3.40292
-3.432485
-3.484696
-3.562439
-3.669125
-0
-0
-0
-0
-0
-0
-0
-0
-0
-0
-0
-0
-0
-0
-0
-0
-0
-0
-3.286727
-3.315106
-3.364958
-3.439017
-3.540325
-0
-0
-0
-0
-0
-0
-0
-0
-0
-0
-0
-0
-0
-0
-0
-0
-0
-0
-0
-3.171215
-3.198478
-3.246115
-3.316624
-3.412872
-0
-0
-0
-0
-0
-0
-0
-0
-0
-0
-0
-0
-0
-0
-0
-0
-0
-0
-0
-0
-3.053818
-3.080056
-3.125519
-3.192575
-3.283832
-0
-0
-0
-0
-0
-0
-0
-0
-0
-0
-2.937843
-2.96308
-3.006521
-3.070275
-3.156807
-0
-0
-0
-0
-0
-0
-0
-0
-0
-0
-2.827802
-2.852094
-2.893638
-2.95441
-3.036605
-0
-0
-0
-0
-0
-0
-0
-0
-0
-0
-2.726326
-2.749662
-2.78947
-2.847518
-2.925871
-0
-0
-0
-0
-0
-0
-0
-0
-0
-0
-2.634282
-2.656793
-2.694955
-2.75055
-2.82544
-0
-0
-0
-0
-0
-0
-0
-0
-0
-0
-5.107513
-5.164152
-5.265878
-5.421192
-5.64054
-0
-0
-0
-0
-0
-0
-0
-4.902452
-4.954339
-5.047843
-5.190371
-5.39096
-0
-0
-0
-0
-0
-0
-0
-0
-4.721103
-4.769224
-4.856153
-4.988472
-5.17411
-0
-0
-0
-0
-0
-0
-0
-0
-0
-4.557048
-4.602132
-4.683608
-4.807482
-4.980822
-0
-0
-0
-0
-0
-0
-0
-0
-0
-0
-4.402641
-4.445177
-4.521964
-4.638495
-4.801221
-0
-0
-0
-0
-0
-0
-0
-0
-0
-0
-4.249269
-4.289523
-4.361998
-4.471741
-4.624619
-0
-0
-0
-0
-0
-0
-0
-0
-0
-0
-0
-0
-4.09286
-4.130853
-4.199199
-4.302364
-4.445708
-0
-0
-0
-0
-0
-0
-0
-0
-0
-0
-0
-0
-0
-3.938292
-3.974208
-4.038606
-4.135656
-4.270068
-0
-0
-0
-0
-0
-0
-0
-0
-0
-0
-0
-0
-0
-0
-3.790406
-3.82441
-3.885239
-3.976637
-4.10299
-0
-0
-0
-0
-0
-0
-0
-0
-0
-0
-0
-0
-0
-0
-0
-3.651413
-3.683723
-3.741306
-3.827645
-3.946679
-0
-0
-0
-0
-0
-0
-0
-0
-0
-0
-0
-0
-0
-0
-0
-0
-3.521613
-3.552484
-3.607173
-3.688939
-3.801444
-0
-0
-0
-0
-0
-0
-0
-0
-0
-0
-0
-0
-0
-0
-0
-0
-0
-3.400273
-3.429802
-3.481962
-3.559632
-3.666232
-0
-0
-0
-0
-0
-0
-0
-0
-0
-0
-0
-0
-0
-0
-0
-0
-0
-0
-3.285669
-3.314003
-3.363811
-3.437829
-3.539095
-0
-0
-0
-0
-0
-0
-0
-0
-0
-0
-0
-0
-0
-0
-0
-0
-0
-0
-0
-3.17511
-3.202343
-3.249998
-3.320583
-3.416975
-0
-0
-0
-0
-0
-0
-0
-0
-0
-0
-0
-0
-0
-0
-0
-0
-0
-0
-0
-0
-3.064978
-3.091227
-3.136823
-3.204151
-3.295841
-0
-0
-0
-0
-0
-0
-0
-0
-0
-0
-0
-0
-0
-0
-0
-0
-0
-0
-0
-0
-2.952879
-2.978161
-3.02179
-3.085905
-3.172995
-0
-0
-0
-0
-0
-0
-0
-0
-0
-0
-2.841987
-2.866327
-2.908047
-2.969139
-3.051827
-0
-0
-0
-0
-0
-0
-0
-0
-0
-0
-2.736727
-2.760098
-2.800033
-2.85831
-2.937006
-0
-0
-0
-0
-0
-0
-0
-0
-0
-0
-2.639507
-2.662043
-2.700273
-2.755988
-2.831054
-0
-0
-0
-0
-0
-0
-0
-0
-0
-0
-2.551458
-2.573033
-2.609771
-2.66311
-2.734922
-0
-0
-0
-0
-0
-0
-0
-0
-0
-0
-4.889983
-4.941584
-5.034597
-5.176373
-5.375868
-0
-0
-0
-0
-0
-0
-0
-0
-4.699209
-4.746898
-4.833053
-4.964171
-5.148059
-0
-0
-0
-0
-0
-0
-0
-0
-0
-4.529914
-4.574494
-4.655052
-4.777493
-4.948755
-0
-0
-0
-0
-0
-0
-0
-0
-0
-0
-4.376277
-4.418331
-4.494226
-4.609359
-4.770057
-0
-0
-0
-0
-0
-0
-0
-0
-0
-0
-4.231247
-4.271154
-4.343
-4.451743
-4.603167
-0
-0
-0
-0
-0
-0
-0
-0
-0
-0
-4.086894
-4.124752
-4.192851
-4.29563
-4.4384
-0
-0
-0
-0
-0
-0
-0
-0
-0
-0
-0
-0
-0
-3.939369
-3.975261
-4.039624
-4.136615
-4.270939
-0
-0
-0
-0
-0
-0
-0
-0
-0
-0
-0
-0
-0
-0
-3.793353
-3.82737
-3.888228
-3.979672
-4.106085
-0
-0
-0
-0
-0
-0
-0
-0
-0
-0
-0
-0
-0
-0
-0
-3.653403
-3.685731
-3.743342
-3.829724
-3.948816
-0
-0
-0
-0
-0
-0
-0
-0
-0
-0
-0
-0
-0
-0
-0
-0
-3.521613
-3.552484
-3.607173
-3.688939
-3.801444
-0
-0
-0
-0
-0
-0
-0
-0
-0
-0
-0
-0
-0
-0
-0
-0
-0
-3.398432
-3.42794
-3.480066
-3.557687
-3.664225
-0
-0
-0
-0
-0
-0
-0
-0
-0
-0
-0
-0
-0
-0
-0
-0
-0
-0
-3.283126
-3.311418
-3.36117
-3.435115
-3.536285
-0
-0
-0
-0
-0
-0
-0
-0
-0
-0
-0
-0
-0
-0
-0
-0
-0
-0
-0
-3.17409
-3.201273
-3.248875
-3.31941
-3.415754
-0
-0
-0
-0
-0
-0
-0
-0
-0
-0
-0
-0
-0
-0
-0
-0
-0
-0
-0
-0
-3.068718
-3.094924
-3.140525
-3.207909
-3.299716
-0
-0
-0
-0
-0
-0
-0
-0
-0
-0
-0
-0
-0
-0
-0
-0
-0
-0
-0
-0
-2.9636
-2.988883
-3.032619
-3.096974
-3.184452
-0
-0
-0
-0
-0
-0
-0
-0
-0
-0
-0
-0
-0
-0
-0
-0
-0
-0
-0
-0
-2.856447
-2.880823
-2.922712
-2.984128
-3.067325
-0
-0
-0
-0
-0
-0
-0
-0
-0
-0
-2.750391
-2.773799
-2.813895
-2.872468
-2.951615
-0
-0
-0
-0
-0
-0
-0
-0
-0
-0
-2.649533
-2.672103
-2.710446
-2.766373
-2.84176
-0
-0
-0
-0
-0
-0
-0
-0
-0
-0
-2.556494
-2.578088
-2.614891
-2.66834
-2.740317
-0
-0
-0
-0
-0
-0
-0
-0
-0
-0
-2.472104
-2.492876
-2.528097