/*--------------------------------*- C++ -*----------------------------------*\
| =========                 |                                                 |
| \\      /  F ield         | OpenFOAM: The Open Source CFD Toolbox           |
|  \\    /   O peration     | Version:  2306                                  |
|   \\  /    A nd           | Website:  www.openfoam.com                      |
|    \\/     M anipulation  |                                                 |
\*---------------------------------------------------------------------------*/
FoamFile
{
    version     2.0;
    format      ascii;
    arch        "LSB;label=32;scalar=64";
    class       volScalarField;
    location    "0.6/fuel";
    object      iDmdtfuel.H2O;
}
// * * * * * * * * * * * * * * * * * * * * * * * * * * * * * * * * * * * * * //

dimensions      [1 -3 -1 0 0 0 0];

internalField   nonuniform List<scalar> 
16000
(
90.11241
90.83363
82.3189
85.74604
92.27734
82.78886
86.40965
75.56538
78.53776
82.67066
94.44135
83.7068
87.73686
75.92443
78.97249
83.29623
70.10778
72.26387
75.85278
80.77853
97.23417
85.02771
89.72428
76.61777
79.82102
84.54697
70.40151
72.59751
76.26368
81.38323
65.56935
67.17633
69.90528
74.17902
79.967
100.2082
86.62623
92.28638
77.59622
81.04131
86.41974
70.9646
73.24136
77.06542
82.59258
65.8187
67.45028
70.22146
74.57617
80.56579
61.67643
62.93353
65.07313
68.42154
73.43543
0
102.3708
88.17702
95.0112
78.74207
82.51707
88.83484
71.74885
74.14955
78.21832
84.40494
66.29427
67.97513
70.8314
75.35111
81.76441
61.89307
63.16681
65.33336
68.72734
73.82766
0
58.26782
59.28511
61.03632
63.74202
67.74801
0
0
103.6607
89.19735
96.98318
79.79666
83.94753
91.40511
72.64653
75.21254
79.6127
86.74635
66.95015
68.7058
71.69163
76.46592
83.56378
62.3047
63.61147
65.83171
69.31722
74.59333
0
58.45933
59.48834
61.25838
63.99395
68.04969
0
0
55.23364
56.08336
57.55949
59.83043
63.13003
0
0
0
104.3458
89.73898
98.15345
80.44034
84.88524
93.25917
73.44164
76.19009
80.96444
89.245
67.68782
69.54167
72.69844
77.81547
85.89577
62.86801
64.22444
66.52538
70.14933
75.69578
0
58.82221
59.87427
61.68147
64.47634
68.63175
0
0
55.40514
56.26346
57.7533
60.04562
63.37848
0
0
0
52.50118
53.22737
54.50371
56.45912
59.27148
0
0
0
0
104.6372
89.99481
98.77226
80.74289
85.38102
94.35619
73.89802
76.78485
81.84771
91.0446
68.32154
70.28136
73.62411
79.12532
88.39577
63.49261
64.91342
67.31877
71.1237
77.03255
0
59.31566
60.40216
62.26458
65.14785
69.45326
0
0
55.72942
56.60451
58.1212
60.45555
63.85429
0
0
0
52.65633
53.389
54.67576
56.64713
59.48371
0
0
0
0
50.01682
50.65037
51.77401
53.49389
55.94627
0
0
0
0
0
104.6372
90.09353
99.03453
80.8622
85.61422
94.93496
74.0877
77.06335
82.31337
92.10875
68.66617
70.70457
74.18543
79.97895
90.19673
64.01561
65.50464
68.02045
72.01994
78.33278
0
59.85637
60.98706
62.91978
65.91606
70.41616
0
0
56.16805
57.06805
58.62429
61.02055
64.51686
0
0
0
52.94927
53.69445
55.00144
57.00395
59.88805
0
0
0
0
50.15834
50.79689
51.92867
53.66095
56.13174
0
0
0
0
0
47.74096
48.30308
49.30761
50.84306
53.02142
0
0
0
0
0
0
104.3458
90.09353
99.03453
80.89931
85.70388
95.17991
74.14524
77.17263
82.53194
92.67041
68.79178
70.87967
74.44739
80.42838
91.26359
64.28629
65.82501
68.42043
72.56157
79.17847
0
60.29928
61.47612
63.48149
66.59539
71.3027
0
0
56.64385
57.57555
59.18147
61.6554
65.27528
0
0
0
53.34374
54.1074
55.44394
57.49186
60.44545
0
0
0
0
50.42524
51.0734
52.22082
53.97712
56.48375
0
0
0
0
0
47.87093
48.43698
49.44802
50.99337
53.18627
0
0
0
0
0
0
45.64292
46.14907
47.05814
48.44608
50.40627
0
0
0
0
0
0
0
103.6607
89.99481
98.77226
80.89931
85.70388
95.17991
74.15524
77.20639
82.61585
92.90829
68.81591
70.93229
74.54982
80.63938
91.82841
64.37149
65.94103
68.58514
72.81367
79.62375
0
60.51825
61.7282
63.78459
66.98104
71.83667
0
0
57.02623
57.99058
59.64678
62.19936
65.94609
0
0
0
53.76796
54.55494
55.92815
58.03215
61.072
0
0
0
0
50.78328
51.44553
52.61564
54.40667
56.96516
0
0
0
0
0
48.1159
48.68939
49.71287
51.27726
53.49826
0
0
0
0
0
0
45.76298
46.27227
47.18662
48.58267
50.55464
0
0
0
0
0
0
0
43.69898
44.1601
44.99131
46.25828
48.04105
0
0
0
0
0
0
0
0
102.3708
89.73898
98.15345
80.8622
85.61422
94.93496
74.15524
77.20639
82.61585
92.90829
68.81179
70.94117
74.58134
80.72048
92.06834
64.37568
65.96276
68.63421
72.9121
79.83335
0
60.57657
61.80678
63.89357
67.13911
72.08472
0
0
57.20733
58.19478
59.88544
62.49146
66.32523
0
0
0
54.10318
54.9139
56.32353
58.48295
61.60866
0
0
0
0
51.16541
51.84531
53.04326
54.87659
57.49836
0
0
0
0
0
48.44342
49.02779
50.06919
51.66087
53.92219
0
0
0
0
0
0
45.98917
46.50435
47.42873
48.84026
50.83487
0
0
0
0
0
0
0
43.8104
44.27409
45.10968
46.38337
48.17592
0
0
0
0
0
0
0
0
41.89029
42.31435
43.08057
44.24662
45.88169
0
0
0
0
0
0
0
0
0
100.2082
89.19735
96.98318
80.74289
85.38102
94.35619
74.14524
77.17263
82.53194
92.67041
68.81179
70.94117
74.58134
80.72048
92.06834
64.36352
65.95853
68.64227
72.94237
79.91421
0
60.56829
61.80993
63.91342
67.18587
72.18161
0
0
57.24696
58.24835
59.95903
62.59571
66.47992
0
0
0
54.25569
55.08296
56.51696
58.71289
61.89532
0
0
0
0
51.46292
52.16055
53.38564
55.25983
57.94291
0
0
0
0
0
48.79067
49.38857
50.45171
52.07621
54.386
0
0
0
0
0
0
46.29074
46.81445
47.7532
49.18676
51.21357
0
0
0
0
0
0
0
44.02031
44.48875
45.33258
46.61905
48.43028
0
0
0
0
0
0
0
0
41.99414
42.42031
43.19023
44.36195
46.00525
0
0
0
0
0
0
0
0
0
40.201
40.59449
41.30539
42.38552
43.89564
0
0
0
0
0
0
0
0
0
0
97.23417
88.17702
95.0112
80.44034
84.88524
93.25917
74.0877
77.06335
82.31337
92.10875
68.81591
70.93229
74.54982
80.63938
91.82841
64.36352
65.95853
68.64227
72.94237
79.91421
0
60.55139
61.79817
63.90904
67.19337
72.21148
0
0
57.23062
58.2398
59.96123
62.61418
66.52541
0
0
0
54.28195
55.11909
56.56687
58.78297
61.99683
0
0
0
0
51.59323
52.30305
53.54587
55.44616
58.1683
0
0
0
0
0
49.05748
49.66878
50.75274
52.40827
54.76388
0
0
0
0
0
0
46.60862
47.14286
48.09885
49.55859
51.62359
0
0
0
0
0
0
0
44.29945
44.77475
45.6303
46.93483
48.77246
0
0
0
0
0
0
0
0
42.18979
42.61982
43.39666
44.57911
46.23806
0
0
0
0
0
0
0
0
0
40.29816
40.69339
41.40744
42.49245
44.00961
0
0
0
0
0
0
0
0
0
0
38.61777
38.9859
39.64949
40.65525
42.05771
0
0
0
0
0
0
0
0
0
0
94.44135
86.62623
92.28638
79.79666
83.94753
91.40511
73.89802
76.78485
81.84771
91.0446
68.79178
70.87967
74.44739
80.42838
91.26359
64.37568
65.96276
68.63421
72.9121
79.83335
0
60.55139
61.79817
63.90904
67.19337
72.21148
0
0
57.2109
58.22356
59.94967
62.60962
66.53259
0
0
0
54.26033
55.10294
56.55793
58.78435
62.01431
0
0
0
0
51.6097
52.32667
53.57923
55.49339
58.23616
0
0
0
0
0
49.17027
49.79064
50.88784
52.56259
54.94636
0
0
0
0
0
0
46.85003
47.39454
48.36673
49.85072
51.95101
0
0
0
0
0
0
0
44.59221
45.07588
45.94534
47.27109
49.13963
0
0
0
0
0
0
0
0
42.44941
42.88499
43.67158
44.8691
46.55
0
0
0
0
0
0
0
0
0
40.48124
40.87963
41.59953
42.69372
44.22419
0
0
0
0
0
0
0
0
0
0
38.70897
39.07855
39.74485
40.75484
42.16341
0
0
0
0
0
0
0
0
0
0
37.12969
37.47626
38.09911
39.04014
40.34849
0
0
0
0
0
0
0
0
0
0
92.27734
85.02771
89.72428
78.74207
82.51707
88.83484
73.44164
76.19009
80.96444
89.245
68.66617
70.70457
74.18543
79.97895
90.19673
64.37149
65.94103
68.58514
72.81367
79.62375
0
60.56829
61.80993
63.91342
67.18587
72.18161
0
0
57.2109
58.22356
59.94967
62.60962
66.53259
0
0
0
54.23896
55.08401
56.54208
58.77282
62.00952
0
0
0
0
51.58463
52.30553
53.56305
55.48399
58.23679
0
0
0
0
0
49.17949
49.8051
50.90934
52.59386
54.99176
0
0
0
0
0
0
46.9488
47.50009
48.48231
49.98083
52.10205
0
0
0
0
0
0
0
44.81224
45.30394
46.1862
47.53121
49.4277
0
0
0
0
0
0
0
0
42.72046
43.16273
43.96078
45.1758
46.88214
0
0
0
0
0
0
0
0
0
40.72373
41.12662
41.85472
42.96171
44.51075
0
0
0
0
0
0
0
0
0
0
38.88091
39.25308
39.92436
40.94226
42.36236
0
0
0
0
0
0
0
0
0
0
37.21553
37.56335
38.18853
39.13326
40.44696
0
0
0
0
0
0
0
0
0
0
35.72797
36.0555
36.64263
37.52695
38.75257
0
0
0
0
0
0
0
0
0
0
90.83363
83.7068
87.73686
77.59622
81.04131
86.41974
72.64653
75.21254
79.6127
86.74635
68.32154
70.28136
73.62411
79.12532
88.39577
64.28629
65.82501
68.42043
72.56157
79.17847
0
60.57657
61.80678
63.89357
67.13911
72.08472
0
0
57.23062
58.2398
59.96123
62.61418
66.52541
0
0
0
54.23896
55.08401
56.54208
58.77282
62.00952
0
0
0
0
51.56237
52.285
53.54459
55.46828
58.22511
0
0
0
0
0
49.15222
49.78066
50.88837
52.57744
54.9818
0
0
0
0
0
0
46.95265
47.50776
48.4951
50.00067
52.13182
0
0
0
0
0
0
0
44.89955
45.39643
46.28635
47.64251
49.55499
0
0
0
0
0
0
0
0
42.92231
43.37089
44.17928
45.40984
47.1387
0
0
0
0
0
0
0
0
0
40.97587
41.38415
42.12177
43.24347
44.81379
0
0
0
0
0
0
0
0
0
0
39.10828
39.48409
40.16232
41.1912
42.62727
0
0
0
0
0
0
0
0
0
0
37.37747
37.72748
38.35693
39.30854
40.63229
0
0
0
0
0
0
0
0
0
0
35.80898
36.13758
36.72676
37.61433
38.84467
0
0
0
0
0
0
0
0
0
0
34.40464
34.71555
35.27057
36.1045
37.25693
0
0
0
0
0
0
0
0
0
0
90.11241
82.78886
86.40965
76.61777
79.82102
84.54697
71.74885
74.14955
78.21832
84.40494
67.68782
69.54167
72.69844
77.81547
85.89577
64.01561
65.50464
68.02045
72.01994
78.33278
0
60.51825
61.7282
63.78459
66.98104
71.83667
0
0
57.24696
58.24835
59.95903
62.59571
66.47992
0
0
0
54.26033
55.10294
56.55793
58.78435
62.01431
0
0
0
0
51.56237
52.285
53.54459
55.46828
58.22511
0
0
0
0
0
49.12958
49.75926
50.86837
52.5592
54.966
0
0
0
0
0
0
46.92409
47.48122
48.47098
49.97962
52.11497
0
0
0
0
0
0
0
44.89935
45.39907
46.2927
47.65396
49.57357
0
0
0
0
0
0
0
0
43.00017
43.45271
44.26706
45.50628
47.24754
0
0
0
0
0
0
0
0
0
41.16212
41.57537
42.32141
43.45591
45.04467
0
0
0
0
0
0
0
0
0
0
39.34388
39.724
40.4102
41.45157
42.90576
0
0
0
0
0
0
0
0
0
0
37.59131
37.94438
38.57974
39.54083
40.87844
0
0
0
0
0
0
0
0
0
0
35.96193
36.29236
36.88529
37.77887
39.01804
0
0
0
0
0
0
0
0
0
0
34.48127
34.7931
35.34994
36.18677
37.34338
0
0
0
0
0
0
0
0
0
0
33.15304
33.44904
33.97536
34.76367
35.85057
0
0
0
0
0
0
0
0
0
0
82.3189
85.74604
75.92443
78.97249
83.29623
70.9646
73.24136
77.06542
82.59258
66.95015
68.7058
71.69163
76.46592
83.56378
63.49261
64.91342
67.31877
71.1237
77.03255
0
60.29928
61.47612
63.48149
66.59539
71.3027
0
0
57.20733
58.19478
59.88544
62.49146
66.32523
0
0
0
54.28195
55.11909
56.56687
58.78297
61.99683
0
0
0
0
51.58463
52.30553
53.56305
55.48399
58.23679
0
0
0
0
0
49.12958
49.75926
50.86837
52.5592
54.966
0
0
0
0
0
0
46.90142
47.45942
48.45012
49.95987
52.09668
0
0
0
0
0
0
0
44.8701
45.37129
46.26655
47.62987
49.55219
0
0
0
0
0
0
0
0
42.99692
43.45156
44.26864
45.51153
47.25793
0
0
0
0
0
0
0
0
0
41.23213
41.64839
42.3991
43.54046
45.13896
0
0
0
0
0
0
0
0
0
0
39.5167
39.90067
40.59377
41.64579
43.11538
0
0
0
0
0
0
0
0
0
0
0
37.81223
38.16885
38.8109
39.78268
41.13586
0
0
0
0
0
0
0
0
0
0
36.16365
36.49663
37.0947
37.99652
39.24781
0
0
0
0
0
0
0
0
0
0
34.62607
34.93947
35.49959
36.34176
37.50618
0
0
0
0
0
0
0
0
0
0
33.22569
33.52248
34.05042
34.84132
35.93199
0
0
0
0
0
0
0
0
0
0
31.96659
32.24983
32.75005
33.49718
34.52455
0
0
0
0
0
0
0
0
0
0
75.56538
78.53776
82.67066
70.40151
72.59751
76.26368
81.38323
66.29427
67.97513
70.8314
75.35111
81.76441
62.86801
64.22444
66.52538
70.14933
75.69578
0
59.85637
60.98706
62.91978
65.91606
70.41616
0
0
57.02623
57.99058
59.64678
62.19936
65.94609
0
0
0
54.25569
55.08296
56.51696
58.71289
61.89532
0
0
0
0
51.6097
52.32667
53.57923
55.49339
58.23616
0
0
0
0
0
49.15222
49.78066
50.88837
52.57744
54.9818
0
0
0
0
0
0
46.90142
47.45942
48.45012
49.95987
52.09668
0
0
0
0
0
0
0
44.84764
45.34944
46.2453
47.60929
49.53243
0
0
0
0
0
0
0
0
42.96743
43.42311
44.24131
45.48549
47.23358
0
0
0
0
0
0
0
0
0
41.22661
41.64439
42.39709
43.54113
45.1433
0
0
0
0
0
0
0
0
0
0
39.58021
39.96638
40.66314
41.72062
43.19803
0
0
0
0
0
0
0
0
0
0
0
37.97328
38.33301
38.98067
39.96139
41.32757
0
0
0
0
0
0
0
0
0
0
0
0
36.37149
36.70738
37.31121
38.2222
39.487
0
0
0
0
0
0
0
0
0
0
34.81685
35.1324
35.69698
36.54645
37.72153
0
0
0
0
0
0
0
0
0
0
33.36311
33.66122
34.19206
34.98772
36.08539
0
0
0
0
0
0
0
0
0
0
32.03562
32.31953
32.82119
33.57066
34.60142
0
0
0
0
0
0
0
0
0
0
30.84038
31.11178
31.58886
32.29836
33.2717
0
0
0
0
0
0
0
0
0
0
70.10778
72.26387
75.85278
80.77853
65.8187
67.45028
70.22146
74.57617
80.56579
62.3047
63.61147
65.83171
69.31722
74.59333
0
59.31566
60.40216
62.26458
65.14785
69.45326
0
0
56.64385
57.57555
59.18147
61.6554
65.27529
0
0
0
54.10318
54.9139
56.32353
58.48295
61.60866
0
0
0
0
51.59323
52.30305
53.54587
55.44616
58.1683
0
0
0
0
0
49.17949
49.8051
50.90934
52.59386
54.99176
0
0
0
0
0
0
46.92409
47.48122
48.47098
49.97962
52.11497
0
0
0
0
0
0
0
44.84764
45.34944
46.2453
47.60929
49.53243
0
0
0
0
0
0
0
0
42.94533
43.40144
44.22
45.46452
47.21301
0
0
0
0
0
0
0
0
0
41.1972
41.6157
42.36911
43.51393
45.11706
0
0
0
0
0
0
0
0
0
0
39.57308
39.96026
40.65844
41.71785
43.19791
0
0
0
0
0
0
0
0
0
0
0
38.03127
38.39266
39.04312
40.02821
41.40071
0
0
0
0
0
0
0
0
0
0
0
0
36.52223
36.86055
37.4691
38.38758
39.66344
0
0
0
0
0
0
0
0
0
0
0
0
0
35.01297
35.33093
35.90045
36.75797
37.94479
0
0
0
0
0
0
0
0
0
0
33.544
33.8439
34.37867
35.1808
36.28798
0
0
0
0
0
0
0
0
0
0
32.16633
32.45134
32.95557
33.70931
34.74636
0
0
0
0
0
0
0
0
0
0
30.90607
31.17808
31.65644
32.36804
33.34446
0
0
0
0
0
0
0
0
0
0
29.76992
30.03038
30.486
31.16165
32.08547
0
0
0
0
0
0
0
0
0
0
65.56935
67.17633
69.90528
74.17902
79.967
61.89307
63.16681
65.33336
68.72734
73.82766
0
58.82221
59.87427
61.68147
64.47634
68.63175
0
0
56.16805
57.06805
58.62429
61.02055
64.51686
0
0
0
53.76796
54.55494
55.92815
58.03215
61.072
0
0
0
0
51.46292
52.16055
53.38564
55.25983
57.94291
0
0
0
0
0
49.17027
49.79064
50.88784
52.56259
54.94636
0
0
0
0
0
0
46.95265
47.50776
48.4951
50.00067
52.13182
0
0
0
0
0
0
0
44.8701
45.37129
46.26655
47.62987
49.55219
0
0
0
0
0
0
0
0
42.94533
43.40144
44.22
45.46452
47.21301
0
0
0
0
0
0
0
0
0
41.17557
41.59434
42.34796
43.49291
45.09612
0
0
0
0
0
0
0
0
0
0
39.54404
39.93164
40.63023
41.69005
43.17057
0
0
0
0
0
0
0
0
0
0
0
38.02297
38.38505
39.03642
40.02287
41.39725
0
0
0
0
0
0
0
0
0
0
0
0
36.57555
36.91507
37.52584
38.44776
39.72875
0
0
0
0
0
0
0
0
0
0
0
0
0
35.15457
35.47446
36.04793
36.91187
38.10812
0
0
0
0
0
0
0
0
0
0
0
0
0
0
33.72958
34.03145
34.57052
35.37969
36.49729
0
0
0
0
0
0
0
0
0
0
32.33828
32.62475
33.13242
33.89195
34.9375
0
0
0
0
0
0
0
0
0
0
31.03061
31.30359
31.78421
32.49965
33.48176
0
0
0
0
0
0
0
0
0
0
29.83255
30.09354
30.55032
31.22787
32.15449
0
0
0
0
0
0
0
0
0
0
28.75107
29.00149
29.43719
30.08144
30.96041
0
0
0
0
0
0
0
0
0
0
61.67643
62.93353
65.07313
68.42154
73.43543
0
58.45933
59.48834
61.25838
63.99395
68.04969
0
0
55.72942
56.60451
58.1212
60.45555
63.85429
0
0
0
53.34374
54.1074
55.44394
57.49186
60.44545
0
0
0
0
51.16541
51.84531
53.04326
54.87659
57.49836
0
0
0
0
0
49.05748
49.66878
50.75274
52.40827
54.76388
0
0
0
0
0
0
46.9488
47.50009
48.48231
49.98083
52.10205
0
0
0
0
0
0
0
44.89935
45.39907
46.29269
47.65396
49.57357
0
0
0
0
0
0
0
0
42.96743
43.42311
44.24131
45.48549
47.23358
0
0
0
0
0
0
0
0
0
41.17557
41.59434
42.34796
43.49291
45.09612
0
0
0
0
0
0
0
0
0
0
39.52297
39.91072
40.60938
41.66917
43.14958
0
0
0
0
0
0
0
0
0
0
0
37.99445
38.35677
39.00828
39.99485
41.36933
0
0
0
0
0
0
0
0
0
0
0
0
36.56645
36.90637
37.51774
38.44051
39.7228
0
0
0
0
0
0
0
0
0
0
0
0
0
35.20388
35.52463
36.09981
36.96656
38.16693
0
0
0
0
0
0
0
0
0
0
0
0
0
0
33.86306
34.16644
34.70884
35.52353
36.64933
0
0
0
0
0
0
0
0
0
0
0
0
0
0
0
32.51441
32.80242
33.31382
34.0796
35.13438
0
0
0
0
0
0
0
0
0
0
31.19436
31.4686
31.95224
32.67284
33.66262
0
0
0
0
0
0
0
0
0
0
29.95144
30.21325
30.67208
31.35309
32.28486
0
0
0
0
0
0
0
0
0
0
28.81088
29.06175
29.49851
30.14451
31.02602
0
0
0
0
0
0
0
0
0
0
27.78031
28.02125
28.43855
29.05366
29.89101
0
0
0
0
0
0
0
0
0
0
58.26782
59.28511
61.03632
63.74202
67.74801
0
0
55.40514
56.26346
57.7533
60.04562
63.37848
0
0
0
52.94927
53.69445
55.00144
57.00395
59.88805
0
0
0
0
50.78328
51.44553
52.61564
54.40667
56.96516
0
0
0
0
0
48.79067
49.38857
50.45171
52.07621
54.386
0
0
0
0
0
0
46.85003
47.39454
48.36673
49.85072
51.95101
0
0
0
0
0
0
0
44.89955
45.39643
46.28635
47.64251
49.55499
0
0
0
0
0
0
0
0
42.99692
43.45156
44.26864
45.51153
47.25793
0
0
0
0
0
0
0
0
0
41.1972
41.6157
42.36911
43.51393
45.11706
0
0
0
0
0
0
0
0
0
0
39.52297
39.91072
40.60938
41.66917
43.14958
0
0
0
0
0
0
0
0
0
0
0
37.974
38.33638
38.98785
39.97426
41.3485
0
0
0
0
0
0
0
0
0
0
0
0
36.53859
36.87859
37.48993
38.41257
39.69469
0
0
0
0
0
0
0
0
0
0
0
0
0
35.19426
35.51522
36.09071
36.95799
38.15915
0
0
0
0
0
0
0
0
0
0
0
0
0
0
33.90893
34.21289
34.75662
35.57355
36.70278
0
0
0
0
0
0
0
0
0
0
0
0
0
0
0
32.64074
32.92982
33.44403
34.21459
35.27651
0
0
0
0
0
0
0
0
0
0
0
0
0
0
0
0
31.36185
31.63742
32.12423
32.85037
33.84842
0
0
0
0
0
0
0
0
0
0
30.10769
30.37056
30.83211
31.51771
32.4564
0
0
0
0
0
0
0
0
0
0
28.92456
29.17615
29.61474
30.2639
31.15008
0
0
0
0
0
0
0
0
0
0
27.83751
28.07885
28.49711
29.11381
29.95351
0
0
0
0
0
0
0
0
0
0
26.85385
27.0864
27.48644
28.07454
28.87326
0
0
0
0
0
0
0
0
0
0
55.23365
56.08336
57.55949
59.83043
63.13003
0
0
0
52.65633
53.389
54.67576
56.64713
59.48371
0
0
0
0
50.42524
51.0734
52.22082
53.97712
56.48375
0
0
0
0
0
48.44342
49.02779
50.06919
51.66087
53.92219
0
0
0
0
0
0
46.60862
47.14286
48.09885
49.55859
51.62359
0
0
0
0
0
0
0
44.81224
45.30394
46.1862
47.53121
49.4277
0
0
0
0
0
0
0
0
43.00017
43.45271
44.26706
45.50628
47.24754
0
0
0
0
0
0
0
0
0
41.22661
41.64439
42.39709
43.54113
45.1433
0
0
0
0
0
0
0
0
0
0
39.54404
39.93164
40.63023
41.69005
43.17057
0
0
0
0
0
0
0
0
0
0
0
37.974
38.33638
38.98785
39.97426
41.3485
0
0
0
0
0
0
0
0
0
0
0
0
36.51878
36.85878
37.47
38.39239
39.67416
0
0
0
0
0
0
0
0
0
0
0
0
0
35.16713
35.48806
36.06339
36.93038
38.13114
0
0
0
0
0
0
0
0
0
0
0
0
0
0
33.89902
34.20301
34.74686
35.56404
36.69373
0
0
0
0
0
0
0
0
0
0
0
0
0
0
0
32.68375
32.97308
33.4883
34.26068
35.32541
0
0
0
0
0
0
0
0
0
0
0
0
0
0
0
0
31.4817
31.75813
32.24722
32.97752
33.98185
0
0
0
0
0
0
0
0
0
0
0
0
0
0
0
0
0
30.26733
30.53127
30.99566
31.68613
32.63223
0
0
0
0
0
0
0
0
0
0
29.07391
29.3264
29.76741
30.42077
31.31319
0
0
0
0
0
0
0
0
0
0
27.9464
28.18833
28.60826
29.22783
30.07183
0
0
0
0
0
0
0
0
0
0
26.90864
27.14154
27.54244
28.13201
28.93288
0
0
0
0
0
0
0
0
0
0
25.96913
26.1934
26.57777
27.1406
27.90347
0
0
0
0
0
0
0
0
0
0
52.50118
53.22737
54.50371
56.45912
59.27148
0
0
0
0
50.15834
50.79689
51.92867
53.66095
56.13174
0
0
0
0
0
48.1159
48.68939
49.71287
51.27726
53.49826
0
0
0
0
0
0
46.29074
46.81445
47.7532
49.18676
51.21357
0
0
0
0
0
0
0
44.59221
45.07588
45.94534
47.27109
49.13963
0
0
0
0
0
0
0
0
42.92231
43.37089
44.17928
45.40984
47.1387
0
0
0
0
0
0
0
0
0
41.23213
41.64839
42.3991
43.54046
45.13896
0
0
0
0
0
0
0
0
0
0
39.57309
39.96026
40.65844
41.71785
43.19791
0
0
0
0
0
0
0
0
0
0
0
37.99445
38.35677
39.00828
39.99485
41.36933
0
0
0
0
0
0
0
0
0
0
0
0
36.51878
36.85878
37.47
38.39239
39.67416
0
0
0
0
0
0
0
0
0
0
0
0
0
35.14799
35.46886
36.044
36.9107
38.11101
0
0
0
0
0
0
0
0
0
0
0
0
0
0
33.87269
34.17655
34.72015
35.53692
36.66607
0
0
0
0
0
0
0
0
0
0
0
0
0
0
0
32.6738
32.96295
33.47813
34.25056
35.31547
0
0
0
0
0
0
0
0
0
0
0
0
0
0
0
0
31.52219
31.79875
32.28849
33.02025
34.02691
0
0
0
0
0
0
0
0
0
0
0
0
0
0
0
0
0
30.38136
30.64591
31.1123
31.8063
32.75794
0
0
0
0
0
0
0
0
0
0
0
0
0
0
0
0
0
0
29.22639
29.47973
29.92323
30.58101
31.48004
0
0
0
0
0
0
0
0
0
0
28.08941
28.33209
28.75418
29.37756
30.22729
0
0
0
0
0
0
0
0
0
0
27.01311
27.2465
27.6489
28.2411
29.0459
0
0
0
0
0
0
0
0
0
0
26.02168
26.24626
26.63142
27.19558
27.96045
0
0
0
0
0
0
0
0
0
0
25.12348
25.33989
25.70919
26.24886
26.97821
0
0
0
0
0
0
0
0
0
0
50.01682
50.65037
51.77401
53.49389
55.94627
0
0
0
0
0
47.87093
48.43698
49.44802
50.99337
53.18627
0
0
0
0
0
0
45.98917
46.50435
47.42873
48.84026
50.83487
0
0
0
0
0
0
0
44.29945
44.77475
45.6303
46.93483
48.77246
0
0
0
0
0
0
0
0
42.72046
43.16273
43.96078
45.1758
46.88214
0
0
0
0
0
0
0
0
0
41.16212
41.57537
42.3214
43.45591
45.04467
0
0
0
0
0
0
0
0
0
0
39.58021
39.96638
40.66314
41.72062
43.19803
0
0
0
0
0
0
0
0
0
0
0
38.02297
38.38505
39.03642
40.02287
41.39725
0
0
0
0
0
0
0
0
0
0
0
0
36.53859
36.87859
37.48993
38.41257
39.69469
0
0
0
0
0
0
0
0
0
0
0
0
0
35.14799
35.46886
36.044
36.9107
38.11101
0
0
0
0
0
0
0
0
0
0
0
0
0
0
33.85421
34.15798
34.70136
35.51778
36.64643
0
0
0
0
0
0
0
0
0
0
0
0
0
0
0
32.64837
32.93726
33.4521
34.22404
35.28831
0
0
0
0
0
0
0
0
0
0
0
0
0
0
0
0
31.51229
31.78862
32.2781
33.00975
34.0164
0
0
0
0
0
0
0
0
0
0
0
0
0
0
0
0
0
30.41967
30.6842
31.15109
31.84615
32.79972
0
0
0
0
0
0
0
0
0
0
0
0
0
0
0
0
0
0
29.33516
29.58893
30.03411
30.69504
31.59888
0
0
0
0
0
0
0
0
0
0
0
0
0
0
0
0
0
0
0
28.23532
28.47868
28.90297
29.53031
30.38607
0
0
0
0
0
0
0
0
0
0
27.1503
27.38428
27.78862
28.38429
29.19433
0
0
0
0
0
0
0
0
0
0
26.12203
26.34705
26.73354
27.30011
28.0686
0
0
0
0
0
0
0
0
0
0
25.17394
25.39063
25.76065
26.30155
27.03274
0
0
0
0
0
0
0
0
0
0
24.31509
24.52339
24.87847
25.39607
26.09457
0
0
0
0
0
0
0
0
0
0
47.74096
48.30308
49.30761
50.84306
53.02142
0
0
0
0
0
0
45.76298
46.27227
47.18662
48.58267
50.55464
0
0
0
0
0
0
0
44.02031
44.48875
45.33258
46.61905
48.43028
0
0
0
0
0
0
0
0
42.44941
42.88499
43.67158
44.8691
46.55
0
0
0
0
0
0
0
0
0
40.97587
41.38415
42.12177
43.24347
44.81379
0
0
0
0
0
0
0
0
0
0
39.5167
39.90067
40.59377
41.64579
43.11538
0
0
0
0
0
0
0
0
0
0
0
38.03127
38.39266
39.04312
40.02821
41.40071
0
0
0
0
0
0
0
0
0
0
0
0
36.56645
36.90637
37.51774
38.44051
39.7228
0
0
0
0
0
0
0
0
0
0
0
0
0
35.16713
35.48806
36.06339
36.93038
38.13114
0
0
0
0
0
0
0
0
0
0
0
0
0
0
33.85421
34.15798
34.70136
35.51778
36.64643
0
0
0
0
0
0
0
0
0
0
0
0
0
0
0
32.63058
32.91932
33.43391
34.20547
35.26921
0
0
0
0
0
0
0
0
0
0
0
0
0
0
0
0
31.48775
31.7638
32.25282
32.98392
33.98985
0
0
0
0
0
0
0
0
0
0
0
0
0
0
0
0
0
30.40994
30.67415
31.14073
31.83548
32.78887
0
0
0
0
0
0
0
0
0
0
0
0
0
0
0
0
0
0
29.37159
29.6252
30.0707
30.73252
31.63786
0
0
0
0
0
0
0
0
0
0
0
0
0
0
0
0
0
0
0
28.33933
28.58296
29.00867
29.63877
30.49888
0
0
0
0
0
0
0
0
0
0
0
0
0
0
0
0
0
0
0
0
27.29022
27.5247
27.93097
28.53022
29.34572
0
0
0
0
0
0
0
0
0
0
26.25382
26.47935
26.86755
27.43729
28.21058
0
0
0
0
0
0
0
0
0
0
25.27045
25.48753
25.85878
26.40187
27.1364
0
0
0
0
0
0
0
0
0
0
24.36361
24.57215
24.92789
25.44664
26.14683
0
0
0
0
0
0
0
0
0
0
23.54107
23.74224
24.08327
24.58009
25.24934
0
0
0
0
0
0
0
0
0
0
45.64292
46.14907
47.05814
48.44608
50.40627
0
0
0
0
0
0
0
43.8104
44.27409
45.10968
46.38337
48.17592
0
0
0
0
0
0
0
0
42.18979
42.61982
43.39666
44.57911
46.23806
0
0
0
0
0
0
0
0
0
40.72373
41.12662
41.85472
42.96171
44.51075
0
0
0
0
0
0
0
0
0
0
39.34388
39.724
40.4102
41.45157
42.90576
0
0
0
0
0
0
0
0
0
0
37.97328
38.33301
38.98067
39.96139
41.32757
0
0
0
0
0
0
0
0
0
0
0
0
36.57555
36.91507
37.52584
38.44776
39.72875
0
0
0
0
0
0
0
0
0
0
0
0
0
35.19426
35.51522
36.09071
36.95799
38.15915
0
0
0
0
0
0
0
0
0
0
0
0
0
0
33.87269
34.17656
34.72015
35.53692
36.66607
0
0
0
0
0
0
0
0
0
0
0
0
0
0
0
32.63058
32.91932
33.43391
34.20547
35.26921
0
0
0
0
0
0
0
0
0
0
0
0
0
0
0
0
31.47063
31.74651
32.23524
32.96594
33.97133
0
0
0
0
0
0
0
0
0
0
0
0
0
0
0
0
0
30.38629
30.65018
31.11629
31.81039
32.76301
0
0
0
0
0
0
0
0
0
0
0
0
0
0
0
0
0
0
29.36214
29.61534
30.06045
30.72191
31.62686
0
0
0
0
0
0
0
0
0
0
0
0
0
0
0
0
0
0
0
28.37414
28.61751
29.04337
29.67415
30.53555
0
0
0
0
0
0
0
0
0
0
0
0
0
0
0
0
0
0
0
0
27.38995
27.62452
28.03199
28.63366
29.45304
0
0
0
0
0
0
0
0
0
0
0
0
0
0
0
0
0
0
0
0
26.38819
26.61412
27.004
27.57696
28.35524
0
0
0
0
0
0
0
0
0
0
25.3972
25.61472
25.98755
26.53349
27.27243
0
0
0
0
0
0
0
0
0
0
24.45656
24.66541
25.02229
25.54307
26.24633
0
0
0
0
0
0
0
0
0
0
23.58776
23.78915
24.13079
24.62868
25.29951
0
0
0
0
0
0
0
0
0
0
22.80091
22.99372
23.32202
23.79869
24.44043
0
0
0
0
0
0
0
0
0
0
43.69897
44.1601
44.99131
46.25828
48.04105
0
0
0
0
0
0
0
0
41.99414
42.42031
43.19023
44.36195
46.00525
0
0
0
0
0
0
0
0
0
40.48124
40.87963
41.59953
42.69372
44.22419
0
0
0
0
0
0
0
0
0
0
39.10828
39.4841
40.16232
41.1912
42.62727
0
0
0
0
0
0
0
0
0
0
37.81223
38.16885
38.8109
39.78268
41.13586
0
0
0
0
0
0
0
0
0
0
36.52223
36.86055
37.4691
38.38758
39.66344
0
0
0
0
0
0
0
0
0
0
0
0
0
35.20388
35.52463
36.09981
36.96656
38.16693
0
0
0
0
0
0
0
0
0
0
0
0
0
0
33.89902
34.20301
34.74686
35.56404
36.69373
0
0
0
0
0
0
0
0
0
0
0
0
0
0
0
32.64837
32.93726
33.4521
34.22404
35.28831
0
0
0
0
0
0
0
0
0
0
0
0
0
0
0
0
31.47063
31.74651
32.23524
32.96594
33.97133
0
0
0
0
0
0
0
0
0
0
0
0
0
0
0
0
0
30.36984
30.63354
31.09935
31.79301
32.74508
0
0
0
0
0
0
0
0
0
0
0
0
0
0
0
0
0
0
29.33942
29.59224
30.03685
30.69765
31.60175
0
0
0
0
0
0
0
0
0
0
0
0
0
0
0
0
0
0
0
28.36503
28.60794
29.03334
29.66367
30.52464
0
0
0
0
0
0
0
0
0
0
0
0
0
0
0
0
0
0
0
0
27.42337
27.65756
28.06507
28.66724
29.48767
0
0
0
0
0
0
0
0
0
0
0
0
0
0
0
0
0
0
0
0
26.484
26.70993
27.10078
27.67588
28.45762
0
0
0
0
0
0
0
0
0
0
0
0
0
0
0
0
0
0
0
0
25.52643
25.74427
26.1186
26.66744
27.41093
0
0
0
0
0
0
0
0
0
0
24.57867
24.78785
25.14617
25.6696
26.37689
0
0
0
0
0
0
0
0
0
0
23.67736
23.87905
24.2217
24.72149
25.39518
0
0
0
0
0
0
0
0
0
0
22.84592
23.0389
23.36778
23.84542
24.48864
0
0
0
0
0
0
0
0
0
0
22.09177
22.2774
22.59215
23.05035
23.66563
0
0
0
0
0
0
0
0
0
0
41.89029
42.31435
43.08057
44.24662
45.88169
0
0
0
0
0
0
0
0
0
40.29816
40.69339
41.40744
42.49245
44.00961
0
0
0
0
0
0
0
0
0
0
38.88092
39.25308
39.92436
40.94226
42.36236
0
0
0
0
0
0
0
0
0
0
37.59131
37.94438
38.57974
39.54083
40.87844
0
0
0
0
0
0
0
0
0
0
36.37149
36.70738
37.31121
38.2222
39.487
0
0
0
0
0
0
0
0
0
0
35.15457
35.47446
36.04793
36.91188
38.10812
0
0
0
0
0
0
0
0
0
0
0
0
0
0
33.90893
34.21289
34.75662
35.57355
36.70278
0
0
0
0
0
0
0
0
0
0
0
0
0
0
0
32.6738
32.96295
33.47813
34.25056
35.31547
0
0
0
0
0
0
0
0
0
0
0
0
0
0
0
0
31.48775
31.7638
32.25282
32.98392
33.98985
0
0
0
0
0
0
0
0
0
0
0
0
0
0
0
0
0
30.36984
30.63354
31.09935
31.79301
32.74508
0
0
0
0
0
0
0
0
0
0
0
0
0
0
0
0
0
0
29.32362
29.57623
30.02053
30.6809
31.58441
0
0
0
0
0
0
0
0
0
0
0
0
0
0
0
0
0
0
0
28.34321
28.58573
29.01058
29.64024
30.50036
0
0
0
0
0
0
0
0
0
0
0
0
0
0
0
0
0
0
0
0
27.41469
27.64835
28.05535
28.65699
29.47692
0
0
0
0
0
0
0
0
0
0
0
0
0
0
0
0
0
0
0
0
26.5162
26.74171
27.13246
27.70792
28.49051
0
0
0
0
0
0
0
0
0
0
0
0
0
0
0
0
0
0
0
0
25.61863
25.8364
26.21156
26.76226
27.50886
0
0
0
0
0
0
0
0
0
0
0
0
0
0
0
0
0
0
0
0
24.70316
24.91254
25.27223
25.79831
26.50974
0
0
0
0
0
0
0
0
0
0
23.79508
23.99709
24.34102
24.84326
25.5207
0
0
0
0
0
0
0
0
0
0
22.93244
23.12561
23.45546
23.93484
24.58073
0
0
0
0
0
0
0
0
0
0
22.13516
22.32098
22.63624
23.09536
23.71201
0
0
0
0
0
0
0
0
0
0
21.41494
21.59061
21.89329
22.33257
22.92347
0
0
0
0
0
0
0
0
0
0
40.201
40.59449
41.30539
42.38552
43.89564
0
0
0
0
0
0
0
0
0
0
38.70897
39.07855
39.74485
40.75484
42.16341
0
0
0
0
0
0
0
0
0
0
37.37747
37.72748
38.35693
39.30854
40.63229
0
0
0
0
0
0
0
0
0
0
36.16365
36.49663
37.0947
37.99652
39.24781
0
0
0
0
0
0
0
0
0
0
35.01297
35.33093
35.90045
36.75797
37.94479
0
0
0
0
0
0
0
0
0
0
33.86306
34.16644
34.70884
35.52353
36.64933
0
0
0
0
0
0
0
0
0
0
0
0
0
0
0
32.68376
32.97308
33.4883
34.26068
35.32541
0
0
0
0
0
0
0
0
0
0
0
0
0
0
0
0
31.5123
31.78862
32.2781
33.00975
34.0164
0
0
0
0
0
0
0
0
0
0
0
0
0
0
0
0
0
30.38629
30.65018
31.11629
31.81039
32.76301
0
0
0
0
0
0
0
0
0
0
0
0
0
0
0
0
0
0
29.32362
29.57623
30.02053
30.6809
31.58441
0
0
0
0
0
0
0
0
0
0
0
0
0
0
0
0
0
0
0
28.32805
28.57035
28.99488
29.6241
30.48365
0
0
0
0
0
0
0
0
0
0
0
0
0
0
0
0
0
0
0
0
27.39379
27.62702
28.03347
28.63441
29.45347
0
0
0
0
0
0
0
0
0
0
0
0
0
0
0
0
0
0
0
0
26.50797
26.73294
27.12311
27.69801
28.48001
0
0
0
0
0
0
0
0
0
0
0
0
0
0
0
0
0
0
0
0
25.64975
25.86706
26.24207
26.79297
27.54025
0
0
0
0
0
0
0
0
0
0
0
0
0
0
0
0
0
0
0
0
24.79209
25.00129
25.36169
25.88944
26.60364
0
0
0
0
0
0
0
0
0
0
0
0
0
0
0
0
0
0
0
0
23.91511
24.11732
24.46244
24.96712
25.64838
0
0
0
0
0
0
0
0
0
0
23.04614
23.2395
23.57056
24.05217
24.70156
0
0
0
0
0
0
0
0
0
0
22.21872
22.40478
22.72086
23.18163
23.80075
0
0
0
0
0
0
0
0
0
0
21.45687
21.63265
21.93583
22.37595
22.96815
0
0
0
0
0
0
0
0
0
0
20.76773
20.93465
21.22286
21.64502
22.21149
0
0
0
0
0
0
0
0
0
0
38.61778
38.9859
39.64949
40.65525
42.05771
0
0
0
0
0
0
0
0
0
0
37.21553
37.56335
38.18853
39.13326
40.44696
0
0
0
0
0
0
0
0
0
0
35.96193
36.29236
36.8853
37.77887
39.01804
0
0
0
0
0
0
0
0
0
0
34.81685
35.1324
35.69698
36.54645
37.72153
0
0
0
0
0
0
0
0
0
0
33.72958
34.03145
34.57052
35.37969
36.49729
0
0
0
0
0
0
0
0
0
0
32.64074
32.92982
33.44403
34.21459
35.27651
0
0
0
0
0
0
0
0
0
0
0
0
0
0
0
0
31.52219
31.79875
32.28849
33.02025
34.02691
0
0
0
0
0
0
0
0
0
0
0
0
0
0
0
0
0
30.40994
30.67415
31.14073
31.83548
32.78887
0
0
0
0
0
0
0
0
0
0
0
0
0
0
0
0
0
0
29.33942
29.59224
30.03685
30.69765
31.60175
0
0
0
0
0
0
0
0
0
0
0
0
0
0
0
0
0
0
0
28.32805
28.57035
28.99488
29.6241
30.48365
0
0
0
0
0
0
0
0
0
0
0
0
0
0
0
0
0
0
0
0
27.37925
27.61225
28.01838
28.61887
29.43737
0
0
0
0
0
0
0
0
0
0
0
0
0
0
0
0
0
0
0
0
26.48796
26.7125
27.10209
27.67628
28.4574
0
0
0
0
0
0
0
0
0
0
0
0
0
0
0
0
0
0
0
0
25.64201
25.85875
26.23317
26.78344
27.5301
0
0
0
0
0
0
0
0
0
0
0
0
0
0
0
0
0
0
0
0
24.82228
25.03098
25.39116
25.91904
26.63374
0
0
0
0
0
0
0
0
0
0
0
0
0
0
0
0
0
0
0
0
24.00094
24.203
24.54868
25.05486
25.73864
0
0
0
0
0
0
0
0
0
0
0
0
0
0
0
0
0
0
0
0
23.16213
23.35551
23.6877
24.17152
24.82445
0
0
0
0
0
0
0
0
0
0
22.32856
22.51486
22.83197
23.29486
23.91719
0
0
0
0
0
0
0
0
0
0
21.53776
21.71363
22.01765
22.45924
23.05378
0
0
0
0
0
0
0
0
0
0
20.80821
20.9753
21.26391
21.6869
22.25455
0
0
0
0
0
0
0
0
0
0
20.15597
20.30697
20.58219
20.9852
21.52937
0
0
0
0
0
0
0
0
0
0
37.12969
37.47626
38.09911
39.04014
40.34849
0
0
0
0
0
0
0
0
0
0
35.80898
36.13758
36.72676
37.61433
38.84467
0
0
0
0
0
0
0
0
0
0
34.62607
34.93947
35.49959
36.34176
37.50618
0
0
0
0
0
0
0
0
0
0
33.544
33.8439
34.37867
35.1808
36.28798
0
0
0
0
0
0
0
0
0
0
32.51441
32.80242
33.31382
34.0796
35.13438
0
0
0
0
0
0
0
0
0
0
31.4817
31.75813
32.24722
32.97752
33.98185
0
0
0
0
0
0
0
0
0
0
0
0
0
0
0
0
0
30.41967
30.6842
31.15109
31.84615
32.79972
0
0
0
0
0
0
0
0
0
0
0
0
0
0
0
0
0
0
29.36214
29.61534
30.06045
30.72191
31.62686
0
0
0
0
0
0
0
0
0
0
0
0
0
0
0
0
0
0
0
28.34321