/*--------------------------------*- C++ -*----------------------------------*\
| =========                 |                                                 |
| \\      /  F ield         | OpenFOAM: The Open Source CFD Toolbox           |
|  \\    /   O peration     | Version:  2306                                  |
|   \\  /    A nd           | Website:  www.openfoam.com                      |
|    \\/     M anipulation  |                                                 |
\*---------------------------------------------------------------------------*/
FoamFile
{
    version     2.0;
    format      ascii;
    arch        "LSB;label=32;scalar=64";
    class       volScalarField;
    location    "0.6/fuel";
    object      nernst;
}
// * * * * * * * * * * * * * * * * * * * * * * * * * * * * * * * * * * * * * //

dimensions      [1 2 -3 0 0 -1 0];

internalField   nonuniform List<scalar> 
16000
(
-1.721158
-1.722079
-1.709203
-1.721218
-1.72395
-1.709811
-1.72214
-1.698433
-1.709246
-1.721334
-1.726792
-1.711039
-1.724016
-1.698894
-1.709854
-1.722259
-1.689699
-1.698465
-1.70933
-1.721504
-1.730503
-1.712886
-1.726864
-1.699825
-1.711083
-1.724141
-1.690073
-1.698926
-1.709939
-1.722434
-1.682477
-1.689723
-1.698528
-1.709454
-1.721727
-1.734525
-1.71527
-1.730585
-1.701223
-1.712933
-1.727001
-1.690829
-1.699857
-1.711171
-1.724326
-1.682794
-1.690098
-1.69899
-1.710065
-1.722663
-1.676351
-1.682496
-1.689772
-1.698621
-1.709617
-1.721952
-1.737526
-1.717826
-1.734624
-1.703024
-1.715319
-1.730742
-1.691963
-1.701256
-1.713025
-1.727203
-1.68343
-1.690853
-1.699922
-1.711301
-1.724568
-1.676624
-1.682812
-1.690147
-1.699084
-1.710231
-1.722894
-1.67104
-1.676366
-1.682536
-1.689846
-1.698745
-1.709781
-1.72214
-1.739358
-1.719758
-1.737639
-1.704959
-1.717879
-1.734807
-1.693422
-1.703058
-1.715417
-1.730971
-1.684385
-1.691987
-1.701323
-1.713161
-1.727467
-1.677175
-1.683449
-1.690904
-1.700018
-1.711472
-1.724811
-1.671281
-1.676639
-1.682853
-1.690222
-1.699209
-1.710398
-1.723087
-1.666356
-1.671052
-1.676399
-1.682597
-1.689944
-1.698869
-1.709919
-1.722328
-1.740338
-1.720978
-1.739482
-1.70644
-1.719813
-1.737845
-1.694992
-1.704992
-1.717984
-1.735074
-1.685614
-1.693447
-1.703127
-1.715563
-1.731271
-1.677999
-1.684404
-1.692038
-1.701422
-1.713341
-1.727733
-1.671765
-1.67719
-1.68349
-1.690979
-1.700146
-1.711644
-1.725016
-1.666571
-1.671293
-1.676673
-1.682914
-1.690321
-1.699335
-1.710538
-1.72328
-1.662169
-1.666366
-1.67108
-1.67645
-1.682678
-1.690044
-1.698974
-1.710057
-1.722515
-1.740755
-1.721659
-1.740469
-1.707398
-1.721035
-1.739704
-1.696203
-1.706473
-1.719924
-1.738141
-1.686935
-1.695015
-1.705064
-1.718142
-1.735424
-1.67906
-1.685632
-1.693499
-1.703231
-1.715756
-1.731572
-1.672491
-1.678014
-1.684445
-1.692116
-1.701554
-1.713522
-1.727957
-1.667004
-1.671777
-1.677223
-1.683552
-1.69108
-1.700275
-1.711789
-1.72522
-1.662363
-1.666581
-1.671321
-1.676724
-1.682995
-1.690421
-1.69944
-1.710677
-1.723472
-1.658382
-1.662177
-1.66639
-1.671124
-1.676519
-1.68276
-1.690127
-1.699078
-1.710193
-1.722702
-1.740755
-1.72196
-1.74089
-1.707949
-1.721718
-1.740701
-1.696999
-1.707431
-1.72115
-1.740021
-1.687961
-1.696226
-1.706546
-1.720089
-1.738529
-1.680202
-1.686953
-1.695068
-1.705173
-1.718351
-1.735774
-1.673424
-1.679074
-1.685673
-1.693579
-1.703369
-1.715949
-1.731828
-1.667653
-1.672503
-1.678048
-1.684508
-1.692219
-1.701687
-1.713674
-1.728181
-1.662755
-1.667014
-1.671806
-1.677275
-1.683634
-1.691182
-1.700382
-1.711933
-1.725423
-1.65856
-1.662371
-1.666605
-1.671365
-1.676793
-1.683078
-1.690505
-1.699545
-1.710816
-1.723664
-1.654927
-1.658389
-1.662198
-1.666428
-1.671183
-1.676589
-1.682829
-1.69021
-1.699181
-1.710329
-1.723607
-1.740338
-1.72196
-1.74089
-1.708199
-1.72202
-1.741127
-1.697465
-1.707983
-1.721835
-1.741032
-1.688641
-1.697021
-1.707505
-1.72132
-1.740434
-1.681091
-1.687977
-1.696279
-1.706658
-1.720309
-1.738917
-1.674429
-1.680215
-1.686994
-1.695151
-1.705319
-1.718561
-1.736074
-1.668486
-1.673435
-1.679108
-1.685738
-1.693685
-1.703508
-1.716112
-1.732085
-1.663341
-1.667662
-1.672531
-1.6781
-1.684592
-1.692323
-1.701798
-1.713825
-1.728404
-1.658917
-1.662763
-1.667038
-1.67185
-1.677345
-1.683718
-1.691267
-1.70049
-1.712076
-1.725626
-1.65509
-1.658567
-1.662392
-1.666644
-1.671425
-1.676863
-1.683147
-1.690588
-1.69965
-1.710954
-1.724594
-1.651748
-1.654932
-1.658407
-1.662231
-1.666481
-1.671244
-1.676647
-1.682898
-1.690292
-1.699284
-1.710988
-1.724309
-1.739358
-1.721659
-1.740469
-1.708199
-1.72202
-1.741127
-1.697678
-1.708233
-1.722139
-1.741463
-1.689043
-1.697486
-1.708057
-1.722009
-1.74146
-1.681683
-1.688656
-1.697074
-1.707618
-1.721546
-1.740848
-1.675213
-1.681102
-1.688018
-1.696362
-1.706807
-1.720529
-1.73925
-1.669383
-1.674439
-1.680249
-1.68706
-1.695262
-1.705466
-1.718739
-1.736378
-1.664094
-1.668495
-1.673464
-1.679162
-1.685824
-1.693793
-1.703625
-1.716275
-1.732343
-1.659452
-1.663348
-1.667687
-1.672576
-1.678171
-1.684677
-1.69241
-1.701909
-1.713976
-1.728628
-1.655419
-1.658924
-1.662784
-1.667077
-1.67191
-1.677416
-1.683788
-1.691352
-1.700597
-1.712219
-1.726613
-1.651899
-1.655096
-1.658585
-1.662426
-1.666696
-1.671485
-1.676922
-1.683216
-1.690671
-1.699754
-1.711624
-1.72532
-1.648804
-1.651752
-1.654949
-1.658438
-1.662278
-1.666534
-1.671294
-1.676705
-1.682966
-1.690374
-1.699782
-1.711498
-1.724877
-1.737526
-1.720978
-1.739482
-1.707949
-1.721718
-1.740701
-1.697678
-1.708233
-1.722139
-1.741463
-1.689229
-1.6977
-1.708307
-1.722314
-1.741899
-1.682035
-1.689058
-1.697539
-1.708171
-1.722239
-1.741889
-1.675737
-1.681694
-1.688696
-1.697156
-1.707769
-1.721772
-1.741202
-1.670084
-1.675222
-1.681136
-1.688084
-1.696474
-1.706957
-1.720715
-1.739587
-1.664904
-1.669391
-1.674467
-1.680303
-1.687149
-1.695374
-1.70559
-1.718918
-1.736686
-1.660139
-1.664101
-1.668519
-1.673509
-1.679234
-1.685911
-1.693883
-1.703742
-1.716439
-1.732602
-1.655911
-1.659458
-1.663369
-1.667725
-1.672637
-1.678243
-1.684749
-1.692497
-1.70202
-1.714127
-1.729718
-1.652204
-1.655424
-1.658942
-1.662818
-1.66713
-1.671971
-1.677475
-1.683858
-1.691436
-1.700703
-1.712911
-1.7274
-1.648945
-1.651904
-1.655112
-1.658615
-1.662473
-1.666749
-1.671536
-1.67698
-1.683284
-1.690754
-1.700258
-1.712142
-1.725913
-1.646062
-1.648808
-1.651767
-1.654976
-1.658479
-1.662325
-1.666578
-1.671344
-1.676763
-1.683033
-1.690771
-1.700167
-1.711906
-1.725306
-1.734525
-1.719758
-1.737639
-1.707398
-1.721035
-1.739704
-1.697465
-1.707983
-1.721835
-1.741032
-1.689229
-1.6977
-1.708307
-1.722314
-1.741899
-1.682199
-1.689243
-1.697752
-1.708421
-1.722546
-1.742335
-1.67605
-1.682046
-1.689098
-1.697622
-1.708323
-1.722469
-1.742257
-1.670554
-1.675745
-1.681726
-1.688761
-1.697269
-1.707921
-1.721964
-1.74156
-1.665538
-1.670091
-1.675249
-1.681189
-1.688173
-1.696587
-1.707084
-1.720904
-1.739928
-1.660879
-1.66491
-1.669415
-1.674513
-1.680377
-1.687239
-1.695468
-1.705715
-1.7191
-1.736998
-1.656543
-1.660145
-1.664122
-1.668558
-1.673571
-1.679307
-1.685985
-1.693974
-1.703859
-1.716603
-1.733873
-1.65266
-1.655916
-1.659477
-1.663404
-1.667779
-1.672699
-1.678303
-1.684819
-1.692584
-1.70213
-1.714858
-1.730635
-1.649229
-1.652208
-1.655441
-1.658973
-1.662865
-1.667183
-1.672022
-1.677534
-1.683927
-1.69152
-1.701218
-1.713451
-1.728056
-1.646194
-1.648949
-1.651919
-1.655139
-1.658657
-1.66252
-1.666794
-1.671586
-1.677038
-1.683352
-1.691154
-1.700646
-1.712559
-1.726364
-1.643494
-1.646065
-1.648821
-1.651792
-1.655013
-1.658522
-1.662364
-1.666622
-1.671394
-1.67682
-1.683361
-1.691075
-1.700474
-1.712211
-1.72559
-1.730503
-1.717826
-1.734624
-1.70644
-1.719813
-1.737845
-1.696999
-1.707431
-1.72115
-1.740021
-1.689043
-1.697486
-1.708057
-1.722009
-1.74146
-1.682199
-1.689243
-1.697752
-1.708421
-1.722546
-1.742335
-1.676196
-1.682209
-1.689283
-1.697835
-1.708574
-1.722778
-1.742709
-1.670835
-1.676058
-1.682078
-1.689162
-1.697734
-1.708476
-1.722664
-1.742628
-1.665964
-1.67056
-1.675772
-1.681779
-1.68885
-1.697382
-1.708049
-1.722157
-1.741923
-1.661458
-1.665544
-1.670114
-1.675295
-1.681263
-1.688263
-1.696682
-1.707212
-1.721094
-1.740275
-1.657223
-1.660884
-1.664931
-1.669455
-1.674577
-1.680452
-1.687315
-1.695563
-1.705841
-1.719283
-1.738544
-1.653245
-1.656547
-1.660163
-1.664156
-1.668613
-1.673634
-1.679368
-1.686058
-1.694064
-1.703976
-1.717403
-1.735077
-1.649653
-1.652664
-1.655932
-1.659507
-1.663451
-1.667833
-1.67275
-1.678363
-1.68489
-1.69267
-1.702665
-1.715449
-1.731444
-1.646459
-1.649232
-1.652223
-1.655468
-1.659015
-1.662912
-1.667228
-1.672073
-1.677592
-1.683996
-1.691926
-1.701616
-1.713891
-1.728566
-1.643618
-1.646197
-1.648962
-1.651943
-1.655177
-1.6587
-1.662559
-1.666838
-1.671636
-1.677095
-1.683682
-1.691459
-1.700956
-1.712871
-1.726666
-1.641079
-1.643497
-1.646077
-1.648844
-1.651826
-1.655052
-1.658557
-1.662403
-1.666665
-1.671443
-1.677097
-1.683609
-1.691317
-1.700702
-1.712411
-1.726792
-1.71527
-1.730585
-1.704959
-1.717879
-1.734807
-1.696203
-1.706473
-1.719924
-1.738141
-1.688641
-1.697021
-1.707505
-1.72132
-1.740434
-1.682035
-1.689058
-1.697539
-1.708171
-1.722239
-1.741889
-1.676196
-1.682209
-1.689283
-1.697835
-1.708574
-1.722778
-1.742709
-1.670966
-1.676203
-1.682241
-1.689347
-1.697947
-1.708727
-1.722975
-1.743087
-1.66622
-1.670841
-1.676084
-1.68213
-1.689251
-1.697847
-1.708605
-1.72286
-1.743003
-1.661848
-1.665969
-1.670583
-1.675816
-1.681853
-1.68894
-1.697477
-1.708178
-1.722352
-1.742289
-1.657757
-1.661462
-1.665564
-1.670153
-1.675358
-1.681338
-1.688339
-1.696778
-1.707341
-1.721286
-1.74199
-1.653876
-1.657228
-1.660902
-1.664966
-1.66951
-1.674641
-1.680515
-1.687391
-1.695659
-1.705968
-1.720183
-1.740292
-1.650199
-1.653249
-1.656564
-1.660194
-1.664204
-1.668668
-1.673687
-1.679429
-1.686131
-1.694154
-1.704546
-1.718113
-1.73629
-1.646857
-1.649657
-1.652678
-1.65596
-1.65955
-1.663499
-1.667878
-1.672802
-1.678422
-1.68496
-1.693088
-1.703089
-1.715952
-1.732111
-1.643868
-1.646462
-1.649246
-1.652248
-1.655506
-1.659057
-1.662952
-1.667272
-1.672123
-1.67765
-1.684329
-1.692237
-1.701937
-1.714224
-1.728915
-1.641197
-1.643621
-1.646209
-1.648985
-1.651978
-1.655216
-1.658735
-1.662599
-1.666882
-1.671686
-1.677374
-1.68393
-1.691702
-1.701187
-1.713076
-1.638799
-1.641082
-1.643508
-1.646097
-1.648875
-1.651861
-1.655084
-1.658592
-1.662442
-1.666709
-1.671682
-1.677304
-1.683804
-1.691495
-1.700851
-1.72395
-1.712886
-1.726864
-1.703024
-1.715319
-1.730742
-1.694992
-1.704992
-1.717984
-1.735074
-1.687961
-1.696226
-1.706546
-1.720089
-1.738529
-1.681683
-1.688656
-1.697074
-1.707618
-1.721546
-1.740848
-1.67605
-1.682046
-1.689098
-1.697622
-1.708323
-1.722469
-1.742257
-1.670966
-1.676203
-1.682241
-1.689347
-1.697947
-1.708727
-1.722975
-1.743087
-1.666339
-1.670972
-1.676229
-1.682293
-1.689435
-1.698061
-1.708856
-1.723172
-1.743468
-1.662082
-1.666224
-1.670863
-1.676128
-1.682203
-1.68934
-1.697942
-1.708734
-1.723058
-1.743382
-1.658116
-1.661851
-1.665988
-1.670621
-1.675879
-1.681927
-1.689015
-1.697572
-1.708307
-1.722548
-1.744102
-1.65437
-1.65776
-1.66148
-1.665598
-1.670208
-1.675422
-1.681401
-1.688415
-1.696875
-1.707471
-1.722231
-1.743898
-1.650786
-1.653879
-1.657244
-1.660933
-1.665015
-1.669566
-1.674695
-1.680579
-1.687468
-1.695755
-1.706592
-1.72113
-1.742473
-1.647367
-1.650202
-1.653263
-1.656591
-1.660237
-1.664253
-1.668713
-1.673739
-1.679491
-1.686204
-1.694593
-1.705039
-1.718798
-1.737443
-1.644242
-1.64686
-1.64967
-1.652703
-1.655998
-1.659593
-1.663539
-1.667923
-1.672853
-1.678481
-1.685301
-1.693413
-1.703444
-1.716349
-1.732586
-1.641432
-1.64387
-1.646474
-1.649268
-1.652282
-1.655545
-1.659093
-1.662991
-1.667316
-1.672173
-1.677931
-1.68458
-1.692485
-1.702176
-1.714443
-1.63891
-1.641199
-1.643632
-1.64623
-1.649016
-1.652013
-1.655248
-1.65877
-1.662637
-1.666925
-1.671926
-1.677581
-1.684126
-1.691881
-1.701336
-1.636639
-1.638801
-1.641092
-1.643527
-1.646127
-1.648908
-1.65189
-1.655115
-1.658627
-1.66248
-1.666918
-1.671858
-1.677466
-1.683947
-1.69161
-1.722079
-1.711039
-1.724016
-1.701223
-1.712933
-1.727001
-1.693422
-1.703058
-1.715417
-1.730971
-1.686935
-1.695015
-1.705064
-1.718142
-1.735424
-1.681091
-1.687977
-1.696279
-1.706658
-1.720309
-1.738917
-1.675737
-1.681694
-1.688696
-1.697156
-1.707769
-1.721772
-1.741202
-1.670835
-1.676058
-1.682078
-1.689162
-1.697734
-1.708476
-1.722664
-1.742628
-1.666339
-1.670972
-1.676229
-1.682293
-1.689435
-1.698061
-1.708856
-1.723172
-1.743468
-1.662191
-1.666343
-1.670994
-1.676273
-1.682366
-1.689525
-1.698155
-1.708986
-1.723371
-1.743852
-1.658332
-1.662085
-1.666243
-1.670901
-1.67619
-1.682277
-1.689414
-1.698037
-1.708864
-1.723256
-1.745252
-1.654704
-1.658119
-1.661868
-1.666022
-1.670675
-1.675942
-1.681988
-1.68909
-1.697668
-1.708438
-1.723512
-1.746039
-1.651248
-1.654373
-1.657776
-1.66151
-1.665646
-1.670264
-1.675475
-1.681464
-1.688492
-1.696972
-1.70811
-1.723209
-1.746185
-1.647918
-1.650789
-1.653893
-1.657271
-1.660977
-1.665065
-1.669613
-1.674749
-1.680643
-1.687546
-1.696229
-1.707233
-1.722264
-1.745293
-1.644722
-1.64737
-1.650215
-1.653288
-1.65663
-1.66028
-1.664293
-1.668759
-1.673791
-1.679552
-1.686559
-1.694966
-1.705507
-1.719417
-1.738384
-1.641785
-1.644244
-1.646871
-1.649692
-1.652738
-1.656037
-1.659628
-1.663578
-1.667967
-1.672903
-1.678767
-1.685562
-1.693683
-1.703717
-1.716614
-1.639133
-1.641434
-1.643881
-1.646495
-1.6493
-1.652318
-1.655577
-1.659128
-1.66303
-1.66736
-1.672415
-1.678139
-1.684778
-1.692667
-1.70233
-1.636744
-1.638912
-1.641209
-1.643651
-1.646259
-1.649049
-1.652042
-1.655279
-1.658805
-1.662676
-1.667135
-1.6721
-1.677742
-1.684269
-1.691995
-1.634585
-1.63664
-1.63881
-1.641109
-1.643554
-1.646157
-1.648934
-1.651919
-1.655147
-1.658661
-1.662666
-1.667068
-1.671993
-1.677582
-1.684037
-1.721158
-1.709811
-1.72214
-1.699825
-1.711083
-1.724141
-1.691963
-1.701256
-1.713025
-1.727203
-1.685614
-1.693447
-1.703127
-1.715563
-1.731271
-1.680202
-1.686953
-1.695068
-1.705173
-1.718351
-1.735774
-1.675213
-1.681102
-1.688018
-1.696362
-1.706807
-1.720529
-1.73925
-1.670554
-1.675745
-1.681726
-1.688761
-1.697269
-1.707921
-1.721964
-1.74156
-1.66622
-1.670841
-1.676084
-1.68213
-1.689251
-1.697847
-1.708605
-1.72286
-1.743003
-1.662191
-1.666343
-1.670994
-1.676273
-1.682366
-1.689525
-1.698155
-1.708986
-1.723371
-1.743852
-1.658434
-1.662194
-1.666362
-1.671031
-1.676334
-1.682439
-1.689599
-1.69825
-1.709116
-1.723571
-1.74575
-1.654905
-1.658335
-1.662102
-1.666276
-1.670955
-1.676252
-1.682338
-1.689489
-1.698133
-1.708995
-1.724231
-1.747197
-1.65156
-1.654706
-1.658134
-1.661898
-1.66607
-1.67073
-1.675994
-1.682051
-1.689166
-1.697765
-1.709078
-1.724469
-1.748254
-1.648351
-1.65125
-1.654387
-1.657803
-1.661554
-1.665696
-1.67031
-1.675528
-1.681527
-1.68857
-1.69745
-1.708756
-1.724342
-1.74892
-1.64524
-1.64792
-1.650802
-1.653918
-1.657311
-1.661021
-1.665106
-1.66966
-1.674803
-1.680707
-1.687925
-1.696708
-1.707997
-1.723672
-1.749169
-1.642238
-1.644724
-1.647382
-1.650237
-1.653323
-1.656669
-1.660316
-1.664333
-1.668804
-1.673843
-1.679848
-1.686855
-1.695315
-1.70592
-1.71989
-1.639467
-1.641787
-1.644255
-1.646892
-1.649724
-1.652774
-1.656069
-1.659664
-1.663618
-1.668011
-1.673149
-1.678982
-1.685775
-1.693886
-1.703893
-1.636956
-1.639135
-1.641444
-1.6439
-1.646524
-1.649333
-1.652347
-1.655609
-1.659163
-1.663069
-1.667571
-1.67259
-1.678301
-1.684922
-1.692781
-1.634685
-1.636746
-1.638921
-1.641226
-1.643678
-1.646289
-1.649076
-1.652071
-1.655311
-1.658839
-1.662862
-1.667285
-1.672235
-1.677857
-1.684357
-1.632627
-1.634586
-1.636649
-1.638827
-1.641135
-1.643582
-1.646181
-1.648961
-1.651948
-1.655178
-1.658827
-1.662796
-1.667183
-1.672089
-1.677653
-1.709203
-1.721218
-1.698894
-1.709854
-1.722259
-1.690829
-1.699857
-1.711171
-1.724326
-1.684385
-1.691987
-1.701323
-1.713161
-1.727467
-1.67906
-1.685632
-1.693499
-1.703231
-1.715756
-1.731572
-1.674429
-1.680215
-1.686994
-1.695151
-1.705319
-1.718561
-1.736074
-1.670084
-1.675222
-1.681136
-1.688084
-1.696474
-1.706957
-1.720715
-1.739587
-1.665964
-1.67056
-1.675772
-1.681779
-1.68885
-1.697382
-1.708049
-1.722157
-1.741923
-1.662082
-1.666224
-1.670863
-1.676128
-1.682203
-1.68934
-1.697942
-1.708734
-1.723058
-1.743382
-1.658434
-1.662194
-1.666362
-1.671031
-1.676334
-1.682439
-1.689599
-1.69825
-1.709116
-1.723571
-1.74575
-1.654999
-1.658436
-1.662211
-1.666395
-1.671085
-1.676397
-1.6825
-1.689673
-1.698346
-1.709247
-1.724551
-1.7477
-1.651748
-1.654907
-1.65835
-1.662131
-1.666323
-1.671009
-1.676304
-1.682399
-1.689564
-1.698229
-1.709635
-1.725173
-1.749358
-1.648643
-1.651561
-1.654719
-1.658161
-1.661941
-1.666118
-1.670775
-1.676047
-1.682113
-1.689243
-1.698239
-1.709697
-1.725532
-1.750773
-1.645648
-1.648352
-1.651262
-1.654412
-1.657842
-1.661598
-1.665736
-1.670357
-1.675583
-1.681592
-1.68895
-1.697926
-1.709504
-1.725647
-1.752176
-1.642728
-1.645242
-1.647932
-1.650825
-1.653954
-1.657351
-1.661058
-1.665148
-1.669707
-1.674858
-1.681022
-1.688305
-1.69728
-1.708941
-1.725526
-1.756336
-1.639897
-1.64224
-1.644735
-1.647403
-1.65027
-1.653359
-1.656702
-1.660352
-1.664374
-1.66885
-1.674097
-1.68009
-1.687129
-1.695619
-1.70622
-1.637273
-1.639469
-1.641797
-1.644274
-1.646922
-1.649757
-1.652803
-1.656101
-1.659699
-1.663657
-1.668225
-1.673329
-1.679155
-1.685933
-1.694012
-1.634887
-1.636957
-1.639144
-1.641462
-1.643928
-1.646555
-1.649359
-1.652376
-1.65564
-1.659198
-1.663256
-1.667721
-1.672725
-1.678417
-1.685009
-1.632723
-1.634687
-1.636754
-1.638938
-1.641252
-1.643706
-1.646314
-1.649102
-1.6521
-1.655342
-1.659006
-1.662991
-1.667399
-1.67233
-1.677927
-1.630756
-1.632628
-1.634594
-1.636664
-1.638851
-1.641161
-1.643605
-1.646206
-1.648987
-1.651976
-1.655328
-1.658941
-1.662894
-1.667262
-1.672145
-1.698433
-1.709246
-1.721334
-1.690073
-1.698926
-1.709939
-1.722434
-1.68343
-1.690853
-1.699922
-1.711301
-1.724568
-1.677999
-1.684404
-1.692038
-1.701422
-1.713341
-1.727733
-1.673424
-1.679074
-1.685673
-1.693579
-1.703369
-1.715949
-1.731828
-1.669383
-1.674439
-1.680249
-1.68706
-1.695262
-1.705466
-1.718739
-1.736378
-1.665538
-1.670091
-1.675249
-1.681189
-1.688173
-1.696587
-1.707084
-1.720904
-1.739928
-1.661848
-1.665969
-1.670583
-1.675816
-1.681853
-1.68894
-1.697477
-1.708178
-1.722352
-1.742289
-1.658332
-1.662085
-1.666243
-1.670901
-1.67619
-1.682277
-1.689414
-1.698037
-1.708864
-1.723256
-1.745252
-1.654999
-1.658436
-1.662211
-1.666395
-1.671085
-1.676397
-1.6825
-1.689673
-1.698346
-1.709247
-1.724551
-1.7477
-1.651835
-1.655001
-1.65845
-1.66224
-1.666442
-1.671139
-1.676448
-1.682561
-1.689748
-1.698441
-1.709887
-1.725488
-1.749838
-1.64882
-1.651749
-1.65492
-1.658376
-1.662173
-1.666371
-1.671054
-1.676356
-1.682461
-1.68964
-1.698699
-1.710235
-1.726191
-1.75175
-1.645924
-1.648645
-1.651573
-1.654744
-1.658199
-1.661984
-1.666158
-1.670821
-1.6761
-1.682176
-1.689617
-1.698688
-1.710386
-1.7267
-1.753611
-1.643113
-1.645649
-1.648364
-1.651285
-1.654447
-1.657882
-1.661634
-1.665778
-1.670404
-1.675637
-1.681906
-1.689322
-1.698478
-1.710363
-1.727139
-1.756868
-1.640361
-1.642729
-1.645252
-1.647953
-1.650858
-1.653991
-1.657385
-1.661095
-1.665189
-1.669755
-1.675127
-1.681334
-1.688758
-1.697986
-1.710175
-1.728756
-1.760693
-1.637681
-1.639898
-1.64225
-1.644754
-1.647432
-1.650303
-1.653389
-1.656735
-1.660388
-1.664414
-1.66907
-1.6743
-1.680314
-1.687365
-1.695831
-1.635189
-1.637274
-1.639478
-1.641814
-1.644301
-1.646952
-1.649784
-1.652832
-1.656133
-1.659734
-1.663846
-1.668379
-1.673472
-1.679281
-1.686026
-1.632915
-1.634888
-1.636966
-1.639161
-1.641487
-1.643956
-1.646579
-1.649386
-1.652405
-1.655671
-1.659365
-1.663385
-1.667835
-1.67282
-1.678484
-1.630847
-1.632724
-1.634694
-1.63677
-1.638962
-1.641278
-1.643729
-1.646338
-1.649128
-1.652128
-1.655492
-1.659119
-1.663089
-1.667477
-1.672385
-1.628963
-1.630757
-1.632635
-1.634609
-1.636687
-1.638875
-1.641182
-1.643627
-1.64623
-1.649013
-1.652113
-1.655428
-1.659025
-1.662961
-1.667307
-1.689699
-1.698465
-1.70933
-1.721504
-1.682794
-1.690098
-1.69899
-1.710065
-1.722663
-1.677175
-1.683449
-1.690904
-1.700018
-1.711472
-1.724811
-1.672491
-1.678014
-1.684445
-1.692116
-1.701554
-1.713522
-1.727957
-1.668486
-1.673435
-1.679108
-1.685738
-1.693685
-1.703508
-1.716112
-1.732085
-1.664904
-1.669391
-1.674467
-1.680303
-1.687149
-1.695374
-1.70559
-1.718918
-1.736686
-1.661458
-1.665544
-1.670114
-1.675295
-1.681263
-1.688263
-1.696682
-1.707212
-1.721094
-1.740275
-1.658116
-1.661851
-1.665988
-1.670621
-1.675879
-1.681927
-1.689015
-1.697572
-1.708307
-1.722548
-1.744102
-1.654905
-1.658335
-1.662102
-1.666276
-1.670955
-1.676252
-1.682338
-1.689489
-1.698133
-1.708995
-1.724231
-1.747197
-1.651835
-1.655001
-1.65845
-1.66224
-1.666442
-1.671139
-1.676448
-1.682561
-1.689748
-1.698441
-1.709887
-1.725488
-1.749838
-1.648903
-1.651837
-1.655013
-1.658477
-1.662282
-1.66649
-1.671183
-1.6765
-1.682622
-1.689823
-1.69891
-1.710479
-1.726487
-1.75218
-1.64609
-1.648821
-1.651761
-1.654944
-1.658414
-1.662216
-1.666411
-1.671099
-1.676408
-1.682523
-1.690009
-1.699129
-1.710885
-1.727282
-1.754388
-1.643374
-1.645924
-1.648655
-1.651595
-1.654779
-1.658239
-1.66202
-1.666199
-1.670867
-1.676154
-1.682484
-1.689965
-1.69919
-1.711143
-1.727966
-1.757516
-1.640726
-1.643114
-1.645659
-1.648384
-1.651318
-1.654483
-1.657915
-1.661671
-1.665819
-1.670451
-1.675904
-1.68221
-1.689758
-1.699114
-1.711341
-1.729184
-1.76058
-1.638122
-1.640362
-1.642739
-1.645272
-1.647983
-1.650892
-1.654021
-1.657418
-1.661133
-1.665232
-1.669989
-1.67539
-1.681708
-1.689319
-1.698909
-1.712285
-1.730749
-1.764087
-1.635578
-1.637682
-1.639907
-1.642267
-1.644782
-1.647463
-1.65033
-1.653419
-1.656767
-1.660424
-1.664608
-1.669243
-1.674486
-1.680502
-1.687522
-1.633204
-1.63519
-1.637283
-1.639494
-1.64184
-1.644329
-1.646977
-1.649811
-1.652861
-1.656165
-1.659903
-1.663978
-1.668499
-1.673574
-1.679351
-1.631031
-1.632916
-1.634896
-1.636981
-1.639185
-1.641513
-1.643979
-1.646604
-1.649412
-1.652433
-1.655822
-1.659477
-1.663482
-1.667912
-1.672871
-1.62905
-1.630848
-1.632731
-1.634709
-1.636792
-1.638986
-1.641299
-1.643752
-1.646362
-1.649154
-1.652265
-1.655592
-1.659203
-1.663154
-1.66752
-1.627241
-1.628963
-1.630763
-1.632649
-1.63463
-1.63671
-1.638895
-1.641203
-1.64365
-1.646254
-1.649138
-1.652202
-1.655502
-1.659081
-1.662995
-1.682477
-1.689723
-1.698528
-1.709454
-1.721727
-1.676624
-1.682812
-1.690147
-1.699084
-1.710231
-1.722894
-1.671765
-1.67719
-1.68349
-1.690979
-1.700146
-1.711644
-1.725016
-1.667653
-1.672503
-1.678048
-1.684508
-1.692219
-1.701687
-1.713674
-1.728181
-1.664094
-1.668495
-1.673464
-1.679162
-1.685824
-1.693793
-1.703625
-1.716275
-1.732343
-1.660879
-1.66491
-1.669415
-1.674513
-1.680377
-1.687239
-1.695468
-1.705715
-1.7191
-1.736998
-1.657757
-1.661462
-1.665564
-1.670153
-1.675358
-1.681338
-1.688339
-1.696778
-1.707341
-1.721286
-1.74199
-1.654704
-1.658119
-1.661868
-1.666022
-1.670675
-1.675942
-1.681988
-1.68909
-1.697668
-1.708438
-1.723512
-1.746039
-1.651748
-1.654907
-1.65835
-1.662131
-1.666323
-1.671009
-1.676304
-1.682399
-1.689564
-1.698229
-1.709635
-1.725173
-1.749358
-1.648903
-1.651837
-1.655013
-1.658477
-1.662282
-1.66649
-1.671183
-1.6765
-1.682622
-1.689823
-1.69891
-1.710479
-1.726487
-1.75218
-1.646168
-1.648904
-1.651848
-1.655037
-1.658514
-1.662325
-1.666529
-1.671228
-1.676552
-1.682684
-1.69019
-1.699332
-1.711113
-1.727546
-1.754739
-1.643532
-1.646091
-1.648832
-1.651782
-1.654978
-1.658453
-1.662251
-1.666451
-1.671144
-1.676461
-1.682826
-1.69034
-1.699599
-1.711584
-1.728441
-1.757979
-1.640974
-1.643375
-1.645934
-1.648676
-1.651628
-1.654815
-1.658271
-1.662056
-1.666239
-1.670914
-1.676414
-1.682767
-1.690357
-1.699744
-1.711961
-1.729632
-1.760777
-1.63847
-1.640727
-1.643123
-1.645678
-1.648415
-1.651351
-1.654513
-1.657948
-1.661708
-1.665861
-1.670683
-1.67616
-1.682568
-1.69026
-1.699838
-1.712655
-1.730889
-1.763775
-1.635998
-1.638123
-1.640371
-1.642757
-1.6453
-1.648015
-1.65092
-1.654052
-1.657452
-1.661171
-1.665438
-1.670215
-1.675707
-1.682172
-1.690054
-1.700468
-1.713564
-1.732364
-1.766827
-1.633575
-1.635578
-1.637691
-1.639924
-1.642293
-1.64481
-1.647488
-1.650357
-1.653448
-1.656799
-1.660598
-1.664758
-1.669401
-1.67464
-1.680623
-1.631307
-1.633204
-1.635198
-1.637298
-1.639518
-1.641866
-1.644352
-1.647001
-1.649837
-1.65289
-1.656317
-1.660018
-1.66408
-1.668583
-1.673627
-1.629227
-1.631032
-1.632923
-1.63491
-1.637004
-1.639209
-1.641535
-1.644001
-1.646628
-1.649438
-1.65257
-1.655921
-1.65956
-1.663546
-1.667952
-1.627325
-1.629051
-1.630855
-1.632745
-1.63473
-1.636815
-1.639006
-1.64132
-1.643774
-1.646386
-1.64928
-1.652353
-1.655664
-1.659257
-1.663187
-1.625585
-1.627242
-1.62897
-1.630776
-1.632669
-1.634651
-1.636728
-1.638915
-1.641224
-1.643672
-1.646369
-1.649217
-1.652266
-1.655548
-1.659108
-1.676351
-1.682496
-1.689772
-1.698621
-1.709617
-1.721952
-1.671281
-1.676639
-1.682853
-1.690222
-1.699209
-1.710398
-1.723087
-1.667004
-1.671777
-1.677223
-1.683552
-1.69108
-1.700275
-1.711789
-1.72522
-1.663341
-1.667662
-1.672531
-1.6781
-1.684592
-1.692323
-1.701798
-1.713825
-1.728404
-1.660139
-1.664101
-1.668519
-1.673509
-1.679234
-1.685911
-1.693883
-1.703742
-1.716439
-1.732602
-1.657223
-1.660884
-1.664931
-1.669455
-1.674577
-1.680452
-1.687315
-1.695563
-1.705841
-1.719283
-1.738544
-1.65437
-1.65776
-1.66148
-1.665598
-1.670208
-1.675422
-1.681401
-1.688415
-1.696875
-1.707471
-1.722231
-1.743898
-1.65156
-1.654706
-1.658134
-1.661898
-1.66607
-1.67073
-1.675994
-1.682051
-1.689166
-1.697765
-1.709078
-1.724469
-1.748254
-1.64882
-1.651749
-1.65492
-1.658376
-1.662173
-1.666371
-1.671054
-1.676356
-1.682461
-1.68964
-1.698699
-1.710235
-1.726191
-1.75175
-1.646168
-1.648904
-1.651848
-1.655037
-1.658514
-1.662325
-1.666529
-1.671228
-1.676552
-1.682684
-1.69019
-1.699332
-1.711113
-1.727546
-1.754739
-1.643606
-1.646169
-1.648914
-1.65187
-1.655072
-1.658553
-1.66236
-1.666568
-1.671273
-1.676604
-1.682985
-1.690514
-1.699787
-1.711788
-1.728662
-1.758213
-1.641124
-1.643532
-1.6461
-1.648852
-1.651814
-1.655014
-1.658485
-1.662287
-1.666491
-1.67119
-1.676717
-1.683093
-1.690705
-1.700106
-1.712326
-1.729953
-1.761
-1.638706
-1.640975
-1.643384
-1.645953
-1.648706
-1.65166
-1.654844
-1.658303
-1.662092
-1.66628
-1.671139
-1.676651
-1.683087
-1.690791
-1.700344
-1.713015
-1.731135
-1.763739
-1.63633
-1.638471
-1.640736
-1.643141
-1.645706
-1.648446
-1.651379
-1.654544
-1.657982
-1.661745
-1.666065
-1.670903
-1.676462
-1.682981
-1.690832
-1.700796
-1.713728
-1.732419
-1.766465
-1.633976
-1.635999
-1.638131
-1.640388
-1.642783
-1.645329
-1.64804
-1.650948
-1.654083
-1.657486
-1.661355
-1.665635
-1.670488
-1.6761
-1.68278
-1.691285
-1.701404
-1.714599
-1.733714
-1.769046
-1.631662
-1.633575
-1.635586
-1.637706
-1.639948
-1.64232
-1.644833
-1.647513
-1.650384
-1.653478
-1.656956
-1.660728
-1.664893
-1.669529
-1.674734
-1.629491
-1.631307
-1.633211
-1.635212
-1.637321
-1.639543
-1.641887
-1.644375
-1.647026
-1.649863
-1.653028
-1.656417
-1.660105
-1.664149
-1.668622
-1.627494
-1.629227
-1.631039
-1.632937
-1.634932
-1.637027
-1.639229
-1.641556
-1.644024
-1.646652
-1.649564
-1.652657
-1.655993
-1.659614
-1.663576
-1.625666
-1.627326
-1.629057
-1.630868
-1.632765
-1.634752
-1.636834
-1.639026
-1.641341
-1.643796
-1.646502
-1.649358
-1.652416
-1.65571
-1.659282
-1.623988
-1.625585
-1.627248
-1.628982
-1.630795
-1.632689
-1.634669
-1.636747
-1.638934
-1.641245
-1.643779
-1.64644
-1.649273
-1.652305
-1.655569
-1.67104
-1.676366
-1.682536
-1.689846
-1.698745
-1.709781
-1.72214
-1.666571
-1.671293
-1.676673
-1.682914
-1.690321
-1.699335
-1.710538
-1.72328
-1.662755
-1.667014
-1.671806
-1.677275
-1.683634
-1.691182
-1.700382
-1.711933
-1.725423
-1.659452
-1.663348
-1.667687
-1.672576
-1.678171
-1.684677
-1.69241
-1.701909
-1.713976
-1.728628
-1.656543
-1.660145
-1.664122
-1.668558
-1.673571
-1.679307
-1.685985
-1.693974
-1.703859
-1.716603
-1.733873
-1.653876
-1.657228
-1.660902
-1.664966
-1.66951
-1.674641
-1.680515
-1.687391
-1.695659
-1.705968
-1.720183
-1.740292
-1.651248
-1.654373
-1.657776
-1.66151
-1.665646
-1.670264
-1.675475
-1.681464
-1.688492
-1.696972
-1.70811
-1.723209
-1.746185
-1.648643
-1.651561
-1.654719
-1.658161
-1.661941
-1.666118
-1.670775
-1.676047
-1.682113
-1.689243
-1.698239
-1.709697
-1.725532
-1.750773
-1.64609
-1.648821
-1.651761
-1.654944
-1.658414
-1.662216
-1.666411
-1.671099
-1.676408
-1.682523
-1.690009
-1.699129
-1.710885
-1.727282
-1.754388
-1.643606
-1.646169
-1.648914
-1.65187
-1.655072
-1.658553
-1.66236
-1.666568
-1.671273
-1.676604
-1.682985
-1.690514
-1.699787
-1.711788
-1.728662
-1.758213
-1.641195
-1.643606
-1.646178
-1.648934
-1.651902
-1.655107
-1.658585
-1.662395
-1.666608
-1.671318
-1.676858
-1.683245
-1.690866
-1.700274
-1.712499
-1.730117
-1.761132
-1.63885
-1.641125
-1.643541
-1.646119
-1.648881
-1.651847
-1.655043
-1.658517
-1.662323
-1.666531
-1.671411
-1.676941
-1.683389
-1.691099
-1.700646
-1.713271
-1.731348
-1.763802
-1.636556
-1.638706
-1.640983
-1.643401
-1.645981
-1.648736
-1.651687
-1.654874
-1.658336
-1.662129
-1.666479
-1.671342
-1.67692
-1.683442
-1.691262
-1.701101
-1.713946
-1.732568
-1.766328
-1.634294
-1.63633
-1.638479
-1.640752
-1.643167
-1.645735
-1.648471
-1.651406
-1.654574
-1.658016
-1.661928
-1.666258
-1.671163
-1.676813
-1.683453
-1.69158
-1.701565
-1.714693
-1.733749
-1.768692
-1.632047
-1.633977
-1.636006
-1.638147
-1.640412
-1.64281
-1.645353
-1.648066
-1.650976
-1.654114
-1.657652
-1.661529
-1.665875
-1.670829
-1.676619
-1.683793
-1.692018
-1.70216
-1.715459
-1.734834
-1.770817
-1.629831
-1.631662
-1.633582
-1.635601
-1.637729
-1.639973
-1.642341
-1.644856
-1.647538
-1.650411
-1.65362
-1.657071
-1.660845
-1.665001
-1.669603
-1.627748
-1.629491
-1.631314
-1.633225
-1.635233
-1.637344
-1.639563
-1.641909