/*--------------------------------*- C++ -*----------------------------------*\
| =========                 |                                                 |
| \\      /  F ield         | OpenFOAM: The Open Source CFD Toolbox           |
|  \\    /   O peration     | Version:  2306                                  |
|   \\  /    A nd           | Website:  www.openfoam.com                      |
|    \\/     M anipulation  |                                                 |
\*---------------------------------------------------------------------------*/
FoamFile
{
    version     2.0;
    format      ascii;
    arch        "LSB;label=32;scalar=64";
    class       volScalarField;
    location    "0.6/fuel";
    object      p_rgh;
}
// * * * * * * * * * * * * * * * * * * * * * * * * * * * * * * * * * * * * * //

dimensions      [1 -1 -2 0 0 0 0];

internalField   nonuniform List<scalar> 
16000
(
100519.3
100512.8
100434.9
100502.3
100501.2
100428.5
100495.6
100367.3
100420.8
100465.2
100480.7
100416.5
100483.4
100361.4
100414.1
100458
100315.9
100355.4
100389.8
100422.3
100461.4
100396
100462.2
100350.6
100401.8
100444.7
100310.7
100349.5
100382.9
100414.5
100276.9
100305.8
100329.5
100354
100333.3
100422.9
100375.2
100441.8
100332.3
100380.9
100421.8
100301.1
100338.4
100369.9
100399.9
100272.3
100300.5
100323.3
100346.7
100324.1
100246.1
100268.1
100283.6
100299.5
100279.6
100316.2
100415.6
100338.3
100402.1
100313.3
100359.5
100399.2
100285
100319.8
100348.1
100375
100263.7
100290.8
100311.8
100333
100306.9
100242
100263.4
100278.2
100293
100271.4
100306.8
100221.3
100238.3
100248.8
100257.9
100237
100265.3
100310.8
100409.6
100328.2
100394
100281
100322
100357
100268.1
100300.4
100325.4
100349.9
100249.4
100274.4
100292.6
100310
100278
100234.2
100254.7
100268.1
100281
100256.2
100289.1
100217.5
100234.2
100244
100252.3
100230.1
100257
100301.3
100200.7
100214.3
100221.3
100226.4
100204.5
100225.1
100260.8
100301.7
100408.6
100320.6
100387.5
100271.3
100311.4
100347
100240
100267.7
100286.6
100304.7
100234.3
100257.2
100272.4
100285.9
100247.5
100221.4
100240.3
100251.3
100261
100230.8
100259.4
100210.5
100226.3
100235
100241.8
100216.9
100241.5
100283.5
100197.3
100210.6
100217
100221.5
100198.4
100218
100252.5
100292
100183.4
100194.5
100199.1
100201.5
100179.8
100194.2
100221.3
100253.2
100294
100408.1
100318.2
100386.2
100264.1
100303.6
100339.4
100231.1
100257.7
100275.1
100292.7
100209.6
100228.8
100238.8
100245.5
100196.3
100207.9
100224.9
100233.5
100239.8
100203.8
100227.9
100199
100213.4
100220.2
100224.4
100195.3
100215.7
100253.5
100190.9
100203.5
100209
100212.2
100187.1
100204.7
100236.8
100273.9
100180.3
100191
100195.3
100197.1
100174.6
100188.2
100214.2
100244.8
100284.3
100168.6
100177.8
100180.8
100181.5
100160.4
100170.9
100191
100214.9
100246.8
100284.5
100408.1
100317.1
100385.5
100261.6
100301.1
100337.5
100224.6
100250.4
100266.7
100283.9
100201.5
100219.8
100228.2
100232.9
100180
100185.8
100200
100204.4
100205.2
100160.1
100175.6
100186.7
100199.6
100204.4
100205.9
100172.2
100188.1
100221.7
100180.4
100191.8
100195.7
100196.9
100168.6
100182.8
100210.9
100243.6
100174.5
100184.6
100188
100188.9
100164.7
100176.7
100200.8
100228.9
100266
100165.8
100174.6
100177.3
100177.5
100155.7
100165.6
100184.9
100207.7
100238.3
100274.7
100155.8
100163.5
100165.3
100164.9
100144.7
100152.5
100168.1
100185.5
100209.6
100238.9
100260.5
100408.6
100317.1
100385.5
100260.5
100299.9
100336.6
100222.3
100247.9
100263.9
100281.3
100195.7
100213.2
100220.5
100223.9
100168.5
100178.5
100191.8
100195
100193.9
100145.4
100158.5
100166.9
100177.4
100179
100176.1
100135.4
100143.8
100169
100169.2
100179.4
100181.6
100180.6
100148.7
100159.3
100183.1
100211.2
100164.8
100174
100176.1
100175.3
100148.5
100157.9
100178.8
100202.8
100235.2
100160.4
100168.7
100170.7
100170.1
100146.9
100155.6
100173.4
100194.2
100222.4
100256
100153.2
100160.6
100162.1
100161.3
100140.5
100147.8
100162.7
100179.4
100202.4
100230.3
100250.2
100144.6
100151.1
100152.1
100150.9
100131.7
100137.7
100150
100163.3
100180.9
100202.9
100218.8
100266.1
100409.6
100318.2
100386.2
100260.5
100299.9
100336.6
100221.3
100246.7
100262.6
100280.1
100193.6
100210.8
100217.8
100220.8
100164.4
100173.3
100185.9
100188.2
100185.9
100135.1
100146.4
100160.2
100170.1
100170.5
100166.2
100122.8
100128.7
100151.6
100151.3
100159.5
100159.1
100154.6
100117.3
100122.1
100138.6
100157.7
100154.6
100162.7
100163.4
100160.7
100131.1
100137.7
100155.2
100174.7
100202.4
100151.5
100159
100159.9
100157.9
100132.6
100139.2
100154.5
100172.1
100196
100224.9
100148.2
100155.1
100156.1
100154.5
100132.7
100138.9
100152.7
100167.8
100188.8
100214.2
100230.9
100142.2
100148.4
100149.2
100147.6
100127.9
100133.4
100145.3
100157.9
100174.8
100195.6
100210
100255.9
100134.7
100140.3
100140.7
100138.9
100120.8
100125.4
100135.4
100145.8
100159.3
100175.3
100186.1
100223.5
100256.8
100415.6
100320.6
100387.5
100261.6
100301.1
100337.5
100221.3
100246.7
100262.6
100280.1
100192.6
100209.7
100216.6
100219.4
100162.6
100171.3
100183.7
100185.7
100183
100131.3
100142.1
100155.5
100164.8
100164.5
100159.2
100114
100118.1
100139.4
100145.2
100152.7
100151.5
100145.8
100106.4
100109.2
100123.3
100139.9
100138.2
100144.6
100143.2
100137.7
100103.9
100106.1
100117.8
100129.8
100148.3
100142.1
100148.7
100148.3
100144.8
100117.2
100121.6
100134.2
100148.2
100167.6
100191.4
100140
100146.2
100146.2
100143.5
100119.9
100124.5
100136.3
100148.8
100166.4
100187.5
100198.7
100137.5
100143.4
100143.6
100141.5
100120.8
100125.5
100136.4
100147.8
100163.1
100181.9
100193.5
100236.7
100132.4
100137.8
100137.9
100135.9
100117.3
100121.6
100131.2
100141
100153.9
100169
100178.7
100214.7
100246.5
100125.9
100130.7
100130.6
100128.5
100111.4
100115
100123.3
100131.7
100142.2
100154.4
100160.8
100190
100215.8
100254.9
100422.9
100328.2
100394
100264.1
100303.6
100339.4
100222.3
100247.9
100263.9
100281.3
100192.6
100209.7
100216.6
100219.4
100162.6
100170.4
100182.7
100184.6
100181.7
100129.6
100140.2
100153.7
100162.8
100162.2
100156.6
100110.6
100114.2
100135
100140.9
100147.9
100146
100139.6
100098.9
100100.2
100112.7
100127.5
100132.6
100138.5
100136.3
100129.9
100094.4
100095
100104.9
100114.3
100130.2
100127.1
100132.2
100130
100124.2
100093.3
100094.2
100102.5
100110.6
100122.3
100136.4
100131.3
100136.7
100135.7
100131.6
100106.1
100108.9
100118.6
100128.4
100142.4
100158.8
100163.8
100130
100135.2
100134.6
100131.4
100109.3
100112.6
100121.9
100131.3
100144
100159.4
100166.2
100204.2
100128.1
100133.1
100132.8
100130.3
100110.9
100114.4
100123.3
100132.1
100143.8
100157.3
100164.7
100198.2
100226.8
100123.7
100128.4
100128.1
100125.8
100108.3
100111.5
100119.5
100127.4
100137.5
100148.9
100154.5
100182.6
100206.9
100244.4
100118
100122.1
100121.8
100119.5
100103.3
100106.1
100113.2
100119.9
100128.5
100137.9
100141.8
100164.2
100183.6
100214.1
100252.8
100461.4
100338.3
100402.1
100271.3
100311.4
100347
100224.6
100250.4
100266.7
100283.9
100193.6
100210.8
100217.8
100220.8
100164.4
100170.4
100182.7
100184.6
100181.7
100129.6
100140.2
100152.8
100161.8
100161.2
100155.4
100109.1
100112.4
100133
100139.2
100146.1
100144
100137.2
100096
100096.8
100108.7
100122.9
100128.7
100134.1
100131.4
100124.3
100087.8
100087.4
100095.8
100103.6
100117.5
100121.9
100126.6
100123.8
100117.1
100084.9
100084.6
100091.4
100097.5
100106.7
100117.9
100117.5
100121.6
100119
100113.1
100084.8
100084.8
100091.1
100096.4
100104.5
100113
100107.3
100121.8
100126.4
100124.9
100120.6
100096.9
100098.7
100106.3
100113.5
100123.4
100135.2
100136.7
100169.2
100121.1
100125.5
100124.5
100121
100100.4
100102.8
100110.3
100117.5
100127.2
100138
100141.7
100170.7
100193
100119.7
100124
100123.4
100120.6
100102.4
100105.1
100112.4
100119.4
100128.5
100138.7
100142.6
100168.7
100190.1
100224.6
100116
100120
100119.4
100116.9
100100.4
100103
100109.7
100116.1
100124.2
100133.1
100136.3
100157.9
100176.1
100205.2
100242.2
100110.8
100114.5
100113.9
100111.4
100096.1
100098.4
100104.4
100110.1
100117.1
100124.6
100126.8
100144.8
100158.7
100182.2
100212.4
100480.7
100375.2
100441.8
100281
100322
100357
100231.1
100257.7
100275.1
100292.7
100195.7
100213.2
100220.5
100223.9
100168.5
100171.3
100183.7
100185.7
100183
100131.3
100142.1
100152.8
100161.8
100161.2
100155.4
100109.1
100112.4
100133
100138.4
100145.3
100143
100136.2
100094.7
100095.3
100106.9
100120.9
100127.1
100132.4
100129.5
100122.2
100085.3
100084.4
100092.4
100099.5
100112.8
100118.3
100122.6
100119.3
100112.1
100079.1
100077.9
100083.7
100088.4
100095.9
100105
100112.7
100116.5
100113.3
100106.6
100077.3
100076.3
100081.5
100085.2
100091.4
100097.2
100087.5
100109.1
100112.5
100109.6
100103.7
100077.7
100077.3
100082.1
100085.9
100091.3
100096.9
100090.2
100108.9
100113.5
100117.3
100115.5
100111.1
100089.1
100090.3
100096.4
100101.8
100109.3
100117.3
100117
100141
100156.6
100113.1
100116.9
100115.6
100112.1
100092.8
100094.5
100100.7
100106.4
100113.8
100122
100123
100145.5
100161.6
100189.6
100112.2
100115.9
100115
100112.1
100094.9
100097
100103.2
100108.9
100116.2
100124
100125.9
100145.9
100161.9
100188.3
100222.2
100108.9
100112.4
100111.7
100109
100093.4
100095.5
100101.3
100106.6
100113.3
100120.3
100121.9
100139.3
100152.3
100174.7
100203.4
100104.3
100107.5
100106.7
100104.2
100089.8
100091.6
100096.9
100101.6
100107.5
100113.6
100114.7
100129.4
100140
100157.6
100180.8
100501.2
100396
100462.2
100313.3
100359.5
100399.2
100240
100267.7
100286.6
100304.7
100201.5
100219.8
100228.2
100232.9
100180
100173.3
100185.9
100188.2
100185.9
100135.1
100146.4
100153.7
100162.8
100162.2
100156.6
100110.6
100114.2
100135
100138.4
100145.3
100143
100136.2
100094.7
100095.3
100106.9
100120.9
100126.4
100131.7
100128.6
100121.2
100084.1
100083.1
100090.9
100097.7
100110.8
100116.8
100121
100117.6
100110.2
100076.8
100075.4
100080.7
100085
100091.8
100100.2
100109.3
100112.8
100109.2
100102.1
100072.1
100070.4
100074.8
100077.5
100082.2
100086.3
100073.9
100104.7
100107.7
100104.4
100097.8
100071
100069.7
100073.6
100076.2
100080
100083.6
100073.7
100090.5
100101.7
100104.5
100101.5
100095.7
100071.8
100071
100074.9
100077.5
100081.5
100084.9
100078.3
100091.3
100085.2
100106.1
100109.3
100107.3
100102.9
100082.5
100083.1
100088.1
100092.4
100098.1
100104
100101.9
100120.5
100130.9
100152.3
100106
100109.3
100107.8
100104.2
100086.1
100087.4
100092.6
100097.2
100103.2
100109.3
100109
100126.2
100137.9
100158.8
100185.8
100105.4
100108.6
100107.6
100104.5
100088.4
100090
100095.3
100100.1
100106
100112.2
100112.8
100128.9
100140.2
100160.4
100186.3
100102.5
100105.6
100104.7
100102
100087.3
100089
100094
100098.4
100104
100109.7
100110.4
100124.5
100134.4
100151.1
100173.2
100098.3
100101.2
100100.3
100097.7
100084.1
100085.6
100090.2
100094.3
100099.3
100104.3
100104.7
100117
100125.1
100139
100156.3
100512.8
100416.5
100483.4
100332.3
100380.9
100421.8
100268.1
100300.4
100325.4
100349.9
100209.6
100228.8
100238.8
100245.5
100196.3
100178.5
100191.8
100195
100193.9
100145.4
100158.5
100155.5
100164.8
100164.5
100159.2
100114
100118.1
100139.4
100139.2
100146.1
100144
100137.2
100096
100096.8
100108.7
100122.9
100126.4
100131.7
100128.6
100121.2
100084.1
100083.1
100090.9
100097.7
100110.8
100116.2
100120.3
100116.8
100109.4
100075.8
100074.2
100079.4
100083.4
100089.9
100098.1
100108
100111.3
100107.6
100100.4
100070.1
100068.2
100072.2
100074.5
100078.7
100082.1
100068.7
100101.5
100104.3
100100.6
100093.7
100066.3
100064.5
100067.7
100069.4
100072.3
100074.4
100062.4
100077.8
100097.5
100100
100096.6
100090.3
100065.6
100064.2
100067.3
100068.9
100071.7
100073.6
100064.6
100075.9
100069.3
100095.1
100097.4
100094.4
100088.8
100066.6
100065.7
100068.8
100070.8
100073.6
100075.9
100069.2
100079.2
100072.5
100069
100099.4
100102.2
100100.1
100095.7
100076.7
100077
100081.2
100084.6
100089.1
100093.4
100090.7
100104.9
100112.2
100127.4
100147.3
100099.6
100102.5
100100.8
100097.2
100080.3
100081.2
100085.6
100089.4
100094.3
100099.1
100097.8
100111.7
100119.8
100135.7
100155.8
100099.2
100102.1
100100.8
100097.8
100082.6
100083.9
100088.5
100092.5
100097.5
100102.4
100102.2
100115.4
100123.9
100138.9
100158.7
100096.6
100099.4
100098.4
100095.7
100081.8
100083.1
100087.5
100091.4
100096.1
100100.8
100100.8
100112.7
100120.2
100133.4
100149.8
100092.8
100095.4
100094.4
100091.9
100079
100080.2
100084.3
100087.8
100092.1
100096.3
100096.2
100106.7
100113.2
100124.3
100137.9
100519.3
100428.5
100495.6
100350.6
100401.8
100444.7
100285
100319.8
100348.1
100375
100234.3
100257.2
100272.4
100285.9
100247.5
100185.8
100200
100204.4
100205.2
100160.1
100175.6
100160.2
100170.1
100170.5
100166.2
100122.8
100128.7
100151.6
100140.9
100147.9
100146
100139.6
100098.9
100100.2
100112.7
100127.5
100127.1
100132.4
100129.5
100122.2
100085.3
100084.4
100092.4
100099.5
100112.8
100116.2
100120.3
100116.8
100109.4
100075.8
100074.2
100079.4
100083.4
100089.9
100098.1
100107.4
100110.7
100106.9
100099.6
100069.2
100067.1
100071
100073.1
100077.2
100080.3
100066.4
100100.3
100102.9
100099.2
100092.1
100064.5
100062.4
100065.4
100066.8
100069.3
100070.9
100058.1
100073.2
100094.6
100096.9
100093.2
100086.5
100061.4
100059.4
100062
100063
100065
100065.7
100055.2
100065.4
100058.5
100091.2
100093.3
100089.9
100083.8
100061
100059.5
100062
100063.2
100065.1
100066.1
100057.6
100066.3
100059.4
100056.3
100089.1
100091.1
100088.1
100082.7
100062.1
100061
100063.7
100065.1
100067.4
100068.8
100062.4
100069.9
100063.7
100059.5
100027.5
100093.4
100095.8
100093.6
100089.4
100071.5
100071.6
100075.2
100078
100081.6
100085
100081.8
100093.3
100097.9
100109.3
100123.4
100093.7
100096.3
100094.6
100091
100075.1
100075.7
100079.6
100082.7
100086.8
100090.6
100088.9
100100.3
100106.2
100117.9
100133.1
100093.5
100096.1
100094.8
100091.8
100077.5
100078.5
100082.5
100085.9
100090.1
100094.2
100093.4
100104.5
100111
100122.7
100137.5
100091.2
100093.7
100092.6
100089.9
100076.8
100077.9
100081.8
100085.1
100089.2
100093.1
100092.7
100102.8
100108.9
100119.3
100132.2
100087.8
100090.1
100089.1
100086.5
100074.3
100075.4
100079
100082.1
100085.8
100089.4
100088.9
100098.1
100103.3
100112.4
100123.3
100434.9
100502.3
100361.4
100414.1
100458
100301.1
100338.4
100369.9
100399.9
100249.4
100274.4
100292.6
100310
100278
100207.9
100224.9
100233.5
100239.8
100203.8
100227.9
100166.9
100177.4
100179
100176.1
100135.4
100143.8
100169
100145.2
100152.7
100151.5
100145.8
100106.4
100109.2
100123.3
100139.9
100128.7
100134.1
100131.4
100124.3
100087.8
100087.4
100095.8
100103.6
100117.5
100116.8
100121
100117.6
100110.2
100076.8
100075.4
100080.7
100085
100091.8
100100.2
100107.4
100110.7
100106.9
100099.6
100069.2
100067.1
100071
100073.1
100077.2
100080.3
100066.4
100099.7
100102.3
100098.5
100091.4
100063.6
100061.5
100064.4
100065.7
100067.9
100069.3
100056.1
100071.1
100093.4
100095.6
100091.8
100085
100059.7
100057.6
100060
100060.7
100062.4
100062.7
100051.5
100061.5
100054.8
100088.4
100090.3
100086.7
100080.3
100057.1
100055.2
100057.2
100057.9
100059.1
100059.4
100049.6
100057.5
100050.5
100047.9
100085.5
100087.2
100083.9
100078
100057
100055.4
100057.5
100058.3
100059.7
100060.2
100052.4
100059
100052.8
100049.1
100026.7
100083.7
100085.5
100082.5
100077.2
100058.1
100057
100059.3
100060.4
100062.1
100063.1
100056.9
100063.1
100056.9
100053
100026.4
100026.6
100087.9
100090
100087.8
100083.7
100067
100066.9
100070
100072.3
100075.3
100077.9
100074.6
100084
100087.2
100095.4
100106
100088.4
100090.6
100088.9
100085.4
100070.4
100070.9
100074.3
100076.9
100080.3
100083.5
100081.5
100091.1
100095.4
100104.5
100115.7
100088.3
100090.6
100089.2
100086.3
100072.8
100073.6
100077.1
100080
100083.7
100087.1
100086
100095.5
100100.6
100110
100121.5
100086.3
100088.5
100087.4
100084.7
100072.3
100073.2
100076.7
100079.6
100083.1
100086.5
100085.7
100094.6
100099.4
100108
100118.3
100083.1
100085.2
100084.1
100081.6
100070.1
100070.9
100074.2
100076.9
100080.2
100083.3
100082.6
100090.7
100095
100102.6
100111.6
100367.3
100420.8
100465.2
100310.7
100349.5
100382.9
100414.5
100263.7
100290.8
100311.8
100333
100306.9
100221.4
100240.3
100251.3
100261
100230.8
100259.4
100186.7
100199.6
100204.4
100205.9
100172.2
100188.1
100221.7
100151.3
100159.5
100159.1
100154.6
100117.3
100122.1
100138.6
100157.7
100132.6
100138.5
100136.3
100129.9
100094.4
100095
100104.9
100114.3
100130.2
100118.3
100122.6
100119.3
100112.1
100079.1
100077.9
100083.7
100088.4
100095.9
100105
100108
100111.3
100107.6
100100.4
100070.1
100068.2
100072.2
100074.5
100078.7
100082.1
100068.7
100099.7
100102.3
100098.5
100091.4
100063.6
100061.5
100064.4
100065.7
100067.9
100069.3
100056.1
100071.1
100092.9
100095.1
100091.2
100084.4
100059
100056.8
100059.1
100059.7
100061.2
100061.4
100049.9
100059.7
100053.2
100087.4
100089.2
100085.4
100078.9
100055.6
100053.5
100055.4
100055.8
100056.8
100056.8
100046.5
100054.3
100047.4
100045.3
100082.9
100084.5
100080.9
100074.8
100053.4
100051.5
100053.2
100053.5
100054.4
100054.2
100045.5
100051.6
100045.4
100042.2
100026.5
100080.3
100081.8
100078.5
100073
100053.4
100051.8
100053.6
100054.2
100055.2
100055.4
100048.2
100053.7
100047.7
100044.5
100025.9
100026.5
100078.8
100080.3
100077.4
100072.4
100054.6
100053.4
100055.4
100056.2
100057.6
100058.2
100052.5
100057.5
100051.9
100047.9
100025.9
100025.7
100026.6
100082.9
100084.7
100082.6
100078.6
100062.9
100062.7
100065.4
100067.3
100069.8
100071.9
100068.6
100076.6
100078.7
100085.1
100092.6
100083.4
100085.4
100083.7
100080.3
100066.2
100066.5
100069.5
100071.8
100074.7
100077.3
100075.2
100083.4
100086.7
100093.9
100102.7
100083.5
100085.5
100084.2
100081.3
100068.5
100069.1
100072.3
100074.9
100078
100080.9
100079.6
100087.9
100092
100099.7
100108.9
100081.6
100083.7
100082.5
100079.9
100068.2
100068.9
100072.1
100074.6
100077.7
100080.6
100079.7
100087.4
100091.4
100098.7
100107.1
100078.7
100080.6
100079.5
100077.1
100066.1
100066.9
100069.9
100072.3
100075.2
100077.9
100077.1
100084.2
100087.9
100094.4
100101.9
100315.9
100355.4
100389.8
100422.3
100272.3
100300.5
100323.3
100346.7
100324.1
100234.2
100254.7
100268.1
100281
100256.2
100289.1
100199
100213.4
100220.2
100224.4
100195.3
100215.7
100253.5
100169.2
100179.4
100181.6
100180.6
100148.7
100159.3
100183.1
100211.2
100138.2
100144.6
100143.2
100137.7
100103.9
100106.1
100117.8
100129.8
100148.3
100121.9
100126.6
100123.8
100117.1
100084.9
100084.6
100091.4
100097.5
100106.7
100117.9
100109.3
100112.8
100109.2
100102.1
100072.1
100070.4
100074.8
100077.5
100082.2
100086.3
100073.9
100100.3
100102.9
100099.2
100092.1
100064.5
100062.4
100065.4
100066.8
100069.3
100070.9
100058.1
100073.2
100092.9
100095.1
100091.2
100084.4
100059
100056.8
100059.1
100059.7
100061.2
100061.4
100049.9
100059.7
100053.2
100086.9
100088.6
100084.9
100078.3
100054.9
100052.8
100054.6
100054.9
100055.8
100055.6
100045.1
100052.8
100046
100044.2
100081.9
100083.4
100079.7
100073.6
100052
100050
100051.5
100051.7
100052.4
100051.9
100042.8
100048.8
100042.9
100040.1
100026.5
100077.9
100079.2
100075.8
100070
100050.1
100048.2
100049.7
100049.9
100050.5
100050.1
100042.1
100047.2
100041.5
100038.7
100025.7
100026.5
100075.6
100076.9
100073.7
100068.4
100050.2
100048.7
100050.2
100050.6
100051.4
100051.3
100044.8
100049.3
100043.9
100040.7
100025.5
100025.7
100026.5
100074.3
100075.6
100072.8
100068
100051.3
100050.2
100051.9
100052.6
100053.7
100054.1
100048.8
100053.1
100047.7
100044.1
100025.2
100025.4
100025.7
100026.5
100078.2
100079.9
100077.8
100073.9
100059.2
100058.9
100061.3
100063
100065.1
100066.8
100063.5
100070.4
100071.9
100076.9
100082.7
100078.9
100080.7
100079
100075.7
100062.4
100062.6
100065.3
100067.2
100069.8
100072
100069.7
100076.9
100079.5
100085.4
100092.3
100079
100080.9
100079.5
100076.7
100064.6
100065.1
100068
100070.2
100073
100075.5
100074.1
100081.3
100084.7
100091.2
100098.7
100077.4
100079.2
100078
100075.5
100064.4
100065
100067.8
100070.1
100072.9
100075.4
100074.3
100081.3
100084.6
100090.8
100097.9
100074.6
100076.4
100075.3
100072.9
100062.5
100063.2
100065.9
100068.1
100070.7
100073.1
100072.1
100078.5
100081.6
100087.3
100093.7
100276.9
100305.8
100329.5
100354
100333.3
100242
100263.4
100278.2
100293
100271.4
100306.8
100210.5
100226.3
100235
100241.8
100216.9
100241.5
100283.5
100180.4
100191.8
100195.7
100196.9
100168.6
100182.8
100210.9
100243.6
100154.6
100162.7
100163.4
100160.7
100131.1
100137.7
100155.2
100174.7
100202.4
100127.1
100132.2
100130
100124.2
100093.3
100094.2
100102.5
100110.6
100122.3
100136.4
100112.7
100116.5
100113.3
100106.6
100077.3
100076.3
100081.5
100085.2
100091.4
100097.2
100087.5
100101.5
100104.3
100100.6
100093.7
100066.3
100064.5
100067.7
100069.4
100072.3
100074.4
100062.4
100077.8
100093.4
100095.6
100091.8
100085
100059.7
100057.6
100060
100060.7
100062.4
100062.7
100051.5
100061.5
100054.8
100086.9
100088.6
100084.9
100078.3
100054.9
100052.8
100054.6
100054.9
100055.8
100055.6
100045.1
100052.8
100046
100044.2
100081.4
100082.9
100079.2
100073
100051.4
100049.3
100050.8
100050.9
100051.5
100050.9
100041.6
100047.6
100041.7
100039.2
100026.5
100077
100078.2
100074.7
100068.8
100048.8
100046.8
100048.2
100048.2
100048.6
100048.1
100039.8
100044.8
100039.3
100037
100025.7
100026.4
100073.4
100074.5
100071.1
100065.6
100047.1
100045.3
100046.6
100046.7
100047.1
100046.6
100039.4
100043.6
100038.6
100035.9
100025.4
100025.6
100026.5
100071.3
100072.4
100069.3
100064.3
100047.2
100045.8
100047.1
100047.4
100048
100047.9
100041.8
100045.7
100040.8
100037.9
100024.8
100025.3
100025.7
100026.5
100070.2
100071.3
100068.6
100064
100048.4
100047.3
100048.8
100049.4
100050.3
100050.6
100045.6
100049.3
100044.4
100041
100024.6
100024.7
100025.4
100025.7
100026.5
100074
100075.5
100073.4
100069.6
100055.8
100055.5
100057.6
100059
100060.9
100062.3
100059.1
100065.1
100066.1
100070.2
100074.7
100074.7
100076.3
100074.6
100071.4
100058.9
100058.9
100061.4
100063.1
100065.4
100067.2
100065
100071.3
100073.4
100078.3
100084
100074.8
100076.6
100075.2
100072.4
100061
100061.4
100064
100066
100068.5
100070.7
100069.2
100075.7
100078.4
100084
100090.3
100073.3
100075.1
100073.9
100071.4
100060.8
100061.4
100064
100066
100068.5
100070.7
100069.6
100075.8
100078.6
100084
100090
100070.8
100072.4
100071.3
100069.1
100059.2
100059.7
100062.2
100064.2
100066.6
100068.7
100067.7
100073.5
100076.1
100081.1
100086.6
100246.1
100268.1
100283.6
100299.5
100279.6
100316.2
100217.5
100234.2
100244
100252.3
100230.1
100257
100301.3
100190.9
100203.5
100209
100212.2
100187.1
100204.7
100236.8
100273.9
100164.8
100174
100176.1
100175.3
100148.5
100157.9
100178.8
100202.8
100235.2
100142.1
100148.7
100148.3
100144.8
100117.2
100121.6
100134.2
100148.2
100167.6
100191.4
100117.5
100121.6
100119
100113.1
100084.8
100084.8
100091.1
100096.4
100104.5
100113
100107.3
100104.7
100107.7
100104.4
100097.8
100071
100069.7
100073.6
100076.2
100080
100083.6
100073.7
100090.5
100094.6
100096.9
100093.2
100086.5
100061.4
100059.4
100062
100063
100065
100065.7
100055.2
100065.4
100058.5
100087.4
100089.2
100085.4
100078.9
100055.6
100053.5
100055.4
100055.8
100056.8
100056.8
100046.5
100054.3
100047.4
100045.3
100081.4
100082.9
100079.2
100073
100051.4
100049.3
100050.8
100050.9
100051.5
100050.9
100041.6
100047.6
100041.7
100039.2
100026.5
100076.5
100077.8
100074.2
100068.3
100048.2
100046.2
100047.5
100047.5
100047.8
100047.1
100038.7
100043.7
100038.3
100036.2
100025.7
100026.4
100072.5
100073.5
100070.1
100064.5
100045.9
100044.1
100045.2
100045.1
100045.4
100044.8
100037.3
100041.5
100036.7
100034.4
100025.4
100025.6
100026.5
100069.2
100070.2
100066.9
100061.7
100044.4
100042.7
100043.8
100043.8
100044.1
100043.6
100037
100040.7
100036.1
100033.7
100024.7
100025.3
100025.7
100026.5
100067.3
100068.3
100065.3
100060.5
100044.6
100043.2
100044.4
100044.6
100045.1
100044.9
100039.3
100042.7
100038.2
100035.5
100024.2
100024.6
100025.3
100025.7
100026.5
100066.4
100067.4
100064.7
100060.4
100045.7
100044.7
100046
100046.5
100047.3
100047.4
100042.8
100046
100041.5
100038.4
100023.9
100024.2
100024.7
100025.3
100025.7
100026.5
100070
100071.3
100069.3
100065.7
100052.7
100052.3
100054.3
100055.5
100057.1
100058.3
100055.2
100060.6
100061.3
100064.7
100068.3
100070.7
100072.2
100070.5
100067.5
100055.6
100055.6
100057.9
100059.4
100061.4
100063
100060.8
100066.5
100068.1
100072.3
100077
100070.9
100072.5
100071.2
100068.5
100057.7
100058
100060.4
100062.2
100064.4
100066.3
100064.8
100070.6
100073
100077.8
100083.2
100069.6
100071.2
100070
100067.6
100057.6
100058
100060.4
100062.3
100064.5
100066.5
100065.3
100070.9
100073.4
100078.1
100083.3
100067.2
100068.7
100067.6
100065.4
100056
100056.5
100058.8
100060.6
100062.8
100064.7
100063.6
100068.9
100071.3
100075.6
100080.5
100221.3
100238.3
100248.8
100257.9
100237
100265.3
100310.8
100197.3
100210.6
100217
100221.5
100198.4
100218
100252.5
100292
100174.5
100184.6
100188
100188.9
100164.7
100176.7
100200.8
100228.9
100266
100151.5
100159
100159.9
100157.9
100132.6
100139.2
100154.5
100172.1
100196
100224.9
100131.3
100136.7
100135.7
100131.6
100106.1
100108.9
100118.6
100128.4
100142.4
100158.8
100163.8
100109.1
100112.5
100109.6
100103.7
100077.7
100077.3
100082.1
100085.9
100091.3
100096.9
100090.2
100108.9
100097.5
100100
100096.6
100090.3
100065.6
100064.2
100067.3
100068.9
100071.7
100073.6
100064.6
100075.9
100069.3
100088.4
100090.3
100086.7
100080.3
100057.1
100055.2
100057.2
100057.9
100059.1
100059.4
100049.6
100057.5
100050.5
100047.9
100081.9
100083.4
100079.7
100073.6
100052
100050
100051.5
100051.7
100052.4
100051.9
100042.8
100048.8
100042.9
100040.1
100026.5
100076.5
100077.8
100074.2
100068.3
100048.2
100046.2
100047.5
100047.5
100047.8
100047.1
100038.7
100043.7
100038.3
100036.2
100025.7
100026.4
100072
100073.1
100069.6
100064
100045.4
100043.5
100044.6
100044.4
100044.7
100043.9
100036.4
100040.6
100035.8
100033.7
100025.4
100025.6
100026.5
100068.3
100069.3
100066
100060.7
100043.3
100041.5
100042.5
100042.4
100042.6
100041.9
100035.1
100038.8
100034.4
100032.5
100024.7
100025.3
100025.7
100026.5
100065.3
100066.2
100063.1
100058.1
100041.9
100040.4
100041.3
100041.3
100041.5
100040.9
100034.9
100038.2
100034
100031.9
100024.2
100024.6
100025.3
100025.7
100026.5
100063.7
100064.5
100061.7
100057.1
100042.1
100040.8
100041.9
100042
100042.5
100042.2
100037
100040.1
100036
100033.5
100023.6
100024.1
100024.6
100025.3
100025.7
100026.5
100062.8
100063.7
100061.2
100057
100043.2
100042.2
100043.5
100043.9
100044.5
100044.6
100040.3
100043.2
100039
100036.1
100023.2
100023.5
100024.2
100024.7
100025.3
100025.7
100026.5
100066.3
100067.5
100065.5
100062.1
100049.8
100049.4
100051.2
100052.3
100053.7
100054.7
100051.8
100056.6
100057.1
100060
100063
100067
100068.4
100066.8
100063.8
100052.6
100052.6
100054.6
100056
100057.8
100059.2
100057.1
100062.2
100063.5
100067.2
100071.2
100067.3
100068.8
100067.4
100064.9
100054.6
100054.9
100057.1
100058.7
100060.7
100062.4
100060.9
100066.2
100068.2
100072.4
100077.1
100066
100067.5
100066.3
100064.1
100054.5
100054.9
100057.1
100058.8
100060.9
100062.7
100061.4
100066.6
100068.7
100072.9
100077.5
100063.8
100065.2
100064.2
100062
100053.1
100053.5
100055.7
100057.3
100059.3
100061
100060
100064.8
100066.9
100070.8
100075.1
100200.7
100214.3
100221.3
100226.4
100204.5
100225.1
100260.8
100301.7
100180.3
100191
100195.3
100197.1
100174.6
100188.2
100214.2
100244.8
100284.3
100160.4
100168.7
100170.7
100170.1
100146.9
100155.6
100173.4
100194.2
100222.4
100256
100140
100146.2
100146.2
100143.5
100119.9
100124.5
100136.3
100148.8
100166.4
100187.5
100198.7
100121.8
100126.4
100124.9
100120.6
100096.9
100098.7
100106.3
100113.5
100123.4
100135.2
100136.7
100169.2
100101.7
100104.5
100101.5
100095.7
100071.8
100071
100074.9
100077.5
100081.5
100084.9
100078.3
100091.3
100085.2
100091.2
100093.3
100089.9
100083.8
100061
100059.5
100062
100063.2
100065.1
100066.1
100057.6
100066.3
100059.4
100056.3
100082.9
100084.5
100080.9
100074.8
100053.4
100051.5
100053.2
100053.5
100054.4
100054.2
100045.5
100051.6
100045.4
100042.2
100026.5
100077
100078.2
100074.7
100068.8
100048.8
100046.8
100048.2
100048.2
100048.6
100048.1
100039.8
100044.8
100039.3
100037
100025.7
100026.4
100072
100073.1
100069.6
100064
100045.4
100043.5
100044.6
100044.4
100044.7
100043.9
100036.4
100040.6
100035.8
100033.7
100025.4
100025.6
100026.5
100067.9
100068.8
100065.5
100060.2
100042.8
100041
100042
100041.8
100041.9
100041.2
100034.3
100038
100033.7
100031.9
100024.7
100025.3
100025.6
100026.5
100064.5
100065.3
100062.2
100057.1
100040.9
100039.2
100040.1
100040
100040.1
100039.4
100033.3
100036.5
100032.6
100030.7
100024.2
100024.6
100025.3
100025.7
100026.4
100061.8
100062.5
100059.5
100054.8
100039.7
100038.2
100039.1
100039
100039.1
100038.6
100033.1
100036
100032.2
100030.3
100023.5
100024.1
100024.6
100025.3
100025.7
100026.4
100060.3
100061
100058.3
100053.9
100039.9
100038.6
100039.6
100039.7
100040.1
100039.8
100035
100037.8
100034
100031.8
100023
100023.5
100024.1
100024.6
100025.3
100025.6
100026.5
100059.5
100060.3
100057.9
100053.9
100040.9
100039.9
100041.1
100041.4
100042
100042.1
100038.1
100040.7
100036.8
100034.1
100022.6
100022.9
100023.5
100024.1
100024.6
100025.3
100025.6
100026.5
100062.8
100064
100062
100058.8
100047.1
100046.7
100048.4
100049.4
100050.6
100051.5
100048.7
100053.1
100053.4
100055.9
100058.4
100063.6
100064.8
100063.2
100060.4
100049.8
100049.7
100051.6
100052.9
100054.5
100055.7
100053.7
100058.3
100059.4
100062.6
100066.1
100063.9
100065.2
100063.9
100061.5
100051.7
100051.9
100054
100055.5
100057.3
100058.8
100057.3
100062.1
100063.9
100067.6
100071.7
100062.7
100064.1
100062.9
100060.7
100051.7
100052
100054.1
100055.6
100057.5
100059.1
100057.9
100062.6
100064.5
100068.2
100072.3
100060.6
100061.9
100060.9
100058.8
100050.3
100050.7
100052.7
100054.3
100056.1
100057.7
100056.6
100061.1
100062.9
100066.4
100070.3
100183.4
100194.5
100199.1
100201.5
100179.8