/*--------------------------------*- C++ -*----------------------------------*\
| =========                 |                                                 |
| \\      /  F ield         | OpenFOAM: The Open Source CFD Toolbox           |
|  \\    /   O peration     | Version:  2306                                  |
|   \\  /    A nd           | Website:  www.openfoam.com                      |
|    \\/     M anipulation  |                                                 |
\*---------------------------------------------------------------------------*/
FoamFile
{
    version     2.0;
    format      ascii;
    arch        "LSB;label=32;scalar=64";
    class       volScalarField;
    location    "0.6/fuel";
    object      T;
}
// * * * * * * * * * * * * * * * * * * * * * * * * * * * * * * * * * * * * * //

dimensions      [0 0 0 1 0 0 0];

internalField   nonuniform List<scalar> 
16000
(
1082.503
1082.386
1083.896
1082.51
1082.115
1083.885
1082.394
1085.199
1083.9
1082.522
1081.613
1083.859
1082.124
1085.219
1083.889
1082.406
1086.441
1085.2
1083.908
1082.539
1080.771
1083.805
1081.623
1085.262
1083.863
1082.137
1086.471
1085.22
1083.898
1082.423
1087.649
1086.44
1085.206
1083.921
1082.561
1079.541
1083.702
1080.786
1085.334
1083.808
1081.639
1086.537
1085.262
1083.87
1082.155
1087.681
1086.469
1085.225
1083.91
1082.445
1088.827
1087.645
1086.442
1085.215
1083.938
1082.587
1078.149
1083.523
1079.565
1085.438
1083.702
1080.807
1086.651
1085.332
1083.814
1081.66
1087.754
1086.534
1085.266
1083.882
1082.178
1088.86
1087.677
1086.471
1085.234
1083.927
1082.472
1089.975
1088.821
1087.644
1086.448
1085.228
1083.96
1082.614
1076.878
1083.26
1078.185
1085.559
1083.52
1079.593
1086.825
1085.433
1083.707
1080.832
1087.881
1086.646
1085.335
1083.825
1081.686
1088.933
1087.749
1086.535
1085.274
1083.899
1082.207
1090.007
1088.853
1087.676
1086.476
1085.247
1083.948
1082.5
1091.09
1089.967
1088.818
1087.647
1086.457
1085.246
1083.982
1082.641
1075.933
1082.967
1076.926
1085.638
1083.256
1078.225
1087.05
1085.548
1083.521
1079.627
1088.079
1086.817
1085.432
1083.716
1080.863
1089.062
1087.874
1086.645
1085.341
1083.841
1081.717
1090.078
1088.926
1087.747
1086.539
1085.286
1083.92
1082.236
1091.121
1089.999
1088.85
1087.679
1086.486
1085.264
1083.97
1082.527
1092.171
1091.081
1089.962
1088.819
1087.654
1086.471
1085.264
1084.004
1082.668
1075.434
1082.72
1075.99
1085.664
1082.966
1076.977
1087.253
1085.624
1083.257
1078.27
1088.34
1087.037
1085.542
1083.527
1079.665
1089.264
1088.069
1086.813
1085.435
1083.73
1080.9
1090.204
1089.053
1087.871
1086.648
1085.352
1083.861
1081.75
1091.19
1090.069
1088.922
1087.749
1086.548
1085.303
1083.942
1082.266
1092.201
1091.111
1089.994
1088.851
1087.685
1086.499
1085.281
1083.993
1082.555
1093.217
1092.161
1091.075
1089.961
1088.823
1087.665
1086.486
1085.282
1084.026
1082.696
1075.434
1082.579
1075.496
1085.659
1082.721
1076.05
1087.4
1085.649
1082.968
1077.033
1088.587
1087.235
1085.614
1083.262
1078.319
1089.533
1088.324
1087.027
1085.54
1083.537
1079.709
1090.403
1089.252
1088.062
1086.813
1085.443
1083.748
1080.938
1091.311
1090.194
1089.048
1087.871
1086.655
1085.366
1083.882
1081.782
1092.267
1091.18
1090.064
1088.922
1087.755
1086.561
1085.32
1083.963
1082.295
1093.245
1092.19
1091.105
1089.992
1088.855
1087.696
1086.513
1085.299
1084.015
1082.584
1094.226
1093.206
1092.154
1091.072
1089.963
1088.831
1087.676
1086.5
1085.3
1084.049
1082.831
1075.933
1082.579
1075.496
1085.649
1082.582
1075.561
1087.488
1085.644
1082.726
1076.115
1088.779
1087.38
1085.639
1082.975
1077.093
1089.793
1088.568
1087.222
1085.609
1083.272
1078.373
1090.667
1089.516
1088.313
1087.022
1085.543
1083.553
1079.754
1091.503
1090.389
1089.244
1088.059
1086.816
1085.454
1083.767
1080.976
1092.383
1091.3
1090.187
1089.046
1087.875
1086.666
1085.382
1083.903
1081.816
1093.308
1092.255
1091.173
1090.062
1088.925
1087.764
1086.574
1085.337
1083.985
1082.326
1094.253
1093.234
1092.183
1091.102
1089.994
1088.862
1087.706
1086.527
1085.317
1084.037
1082.723
1095.198
1094.214
1093.197
1092.15
1091.072
1089.969
1088.839
1087.687
1086.514
1085.318
1084.159
1083.089
1076.878
1082.72
1075.99
1085.649
1082.582
1075.561
1087.529
1085.634
1082.588
1075.63
1088.904
1087.467
1085.634
1082.735
1076.183
1090
1088.757
1087.364
1085.632
1082.987
1077.158
1090.926
1089.773
1088.552
1087.212
1085.608
1083.287
1078.428
1091.759
1090.65
1089.504
1088.305
1087.02
1085.55
1083.568
1079.798
1092.567
1091.489
1090.38
1089.239
1088.06
1086.824
1085.466
1083.786
1081.015
1093.42
1092.371
1091.292
1090.183
1089.048
1087.883
1086.677
1085.397
1083.924
1081.85
1094.313
1093.296
1092.247
1091.169
1090.063
1088.932
1087.774
1086.587
1085.353
1084.007
1082.474
1095.224
1094.241
1093.225
1092.178
1091.102
1089.999
1088.87
1087.717
1086.541
1085.334
1084.147
1082.993
1096.132
1095.185
1094.205
1093.192
1092.149
1091.076
1089.975
1088.847
1087.698
1086.528
1085.408
1084.36
1083.36
1078.149
1082.967
1076.926
1085.659
1082.721
1076.05
1087.529
1085.634
1082.588
1075.63
1088.965
1087.507
1085.624
1082.6
1075.703
1090.138
1088.881
1087.45
1085.628
1082.749
1076.257
1091.134
1089.977
1088.739
1087.352
1085.63
1083.003
1077.224
1092.011
1090.906
1089.756
1088.541
1087.207
1085.612
1083.302
1078.482
1092.814
1091.741
1090.637
1089.494
1088.301
1087.022
1085.556
1083.584
1079.843
1093.596
1092.553
1091.478
1090.374
1089.238
1088.065
1086.831
1085.478
1083.805
1081.054
1094.421
1093.407
1092.362
1091.287
1090.183
1089.053
1087.891
1086.688
1085.412
1083.945
1082.017
1095.282
1094.301
1093.287
1092.242
1091.168
1090.067
1088.939
1087.784
1086.6
1085.37
1084.115
1082.772
1096.157
1095.211
1094.232
1093.22
1092.177
1091.106
1090.005
1088.878
1087.728
1086.555
1085.423
1084.348
1083.28
1097.03
1096.12
1095.176
1094.199
1093.19
1092.151
1091.08
1089.981
1088.856
1087.709
1086.601
1085.568
1084.563
1083.641
1079.541
1083.26
1078.185
1085.664
1082.966
1076.977
1087.488
1085.644
1082.726
1076.115
1088.965
1087.507
1085.624
1082.6
1075.703
1090.206
1088.942
1087.49
1085.618
1082.615
1075.781
1091.274
1090.114
1088.862
1087.438
1085.625
1082.768
1076.33
1092.214
1091.111
1089.958
1088.725
1087.344
1085.633
1083.02
1077.288
1093.057
1091.991
1090.889
1089.744
1088.533
1087.205
1085.615
1083.317
1078.536
1093.834
1092.796
1091.727
1090.626
1089.489
1088.301
1087.025
1085.564
1083.6
1079.888
1094.591
1093.581
1092.541
1091.471
1090.371
1089.24
1088.069
1086.839
1085.49
1083.825
1081.247
1095.386
1094.407
1093.397
1092.356
1091.285
1090.186
1089.058
1087.899
1086.699
1085.427
1084.05
1082.363
1096.214
1095.269
1094.291
1093.281
1092.241
1091.171
1090.072
1088.946
1087.793
1086.612
1085.454
1084.316
1083.098
1097.054
1096.144
1095.201
1094.225
1093.217
1092.179
1091.109
1090.011
1088.886
1087.738
1086.625
1085.58
1084.552
1083.581
1097.89
1097.017
1096.11
1095.169
1094.196
1093.191
1092.153
1091.084
1089.987
1088.864
1087.765
1086.727
1085.727
1084.768
1083.93
1080.771
1083.523
1079.565
1085.638
1083.256
1078.225
1087.4
1085.649
1082.968
1077.033
1088.904
1087.467
1085.634
1082.735
1076.183
1090.206
1088.942
1087.49
1085.618
1082.615
1075.781
1091.344
1090.182
1088.922
1087.478
1085.616
1082.635
1075.858
1092.352
1091.25
1090.094
1088.847
1087.429
1085.627
1082.786
1076.402
1093.254
1092.192
1091.092
1089.943
1088.715
1087.341
1085.635
1083.036
1077.352
1094.068
1093.037
1091.974
1090.876
1089.735
1088.529
1087.204
1085.619
1083.332
1078.59
1094.819
1093.816
1092.782
1091.717
1090.62
1089.487
1088.301
1087.027
1085.571
1083.616
1080.106
1095.549
1094.575
1093.57
1092.533
1091.467
1090.371
1089.243
1088.074
1086.846
1085.502
1083.921
1081.65
1096.314
1095.372
1094.397
1093.39
1092.353
1091.286
1090.19
1089.064
1087.906
1086.71
1085.503
1084.249
1082.754
1097.108
1096.2
1095.259
1094.285
1093.278
1092.242
1091.174
1090.077
1088.953
1087.803
1086.678
1085.604
1084.523
1083.446
1097.913
1097.041
1096.134
1095.195
1094.222
1093.218
1092.181
1091.113
1090.016
1088.894
1087.792
1086.747
1085.735
1084.758
1083.892
1098.713
1097.877
1097.006
1096.103
1095.165
1094.196
1093.192
1092.155
1091.088
1089.992
1088.906
1087.862
1086.85
1085.884
1084.973
1081.613
1083.702
1080.786
1085.559
1083.52
1079.593
1087.253
1085.624
1083.257
1078.27
1088.779
1087.38
1085.639
1082.975
1077.093
1090.138
1088.881
1087.45
1085.628
1082.749
1076.257
1091.344
1090.182
1088.922
1087.478
1085.616
1082.635
1075.858
1092.421
1091.32
1090.161
1088.906
1087.469
1085.618
1082.655
1075.935
1093.388
1092.329
1091.23
1090.078
1088.836
1087.425
1085.63
1082.805
1076.474
1094.258
1093.232
1092.173
1091.077
1089.932
1088.709
1087.337
1085.637
1083.053
1077.415
1095.045
1094.048
1093.02
1091.96
1090.866
1089.729
1088.525
1087.202
1085.623
1083.347
1078.847
1095.769
1094.801
1093.801
1092.771
1091.709
1090.617
1089.485
1088.3
1087.03
1085.578
1083.696
1080.51
1096.472
1095.534
1094.563
1093.561
1092.528
1091.466
1090.372
1089.245
1088.078
1086.854
1085.562
1084.111
1082.117
1097.205
1096.299
1095.361
1094.389
1093.386
1092.353
1091.288
1090.193
1089.069
1087.914
1086.765
1085.637
1084.46
1083.189
1097.966
1097.095
1096.19
1095.252
1094.281
1093.279
1092.243
1091.177
1090.082
1088.96
1087.852
1086.789
1085.751
1084.734
1083.811
1098.736
1097.9
1097.03
1096.127
1095.191
1094.222
1093.219
1092.183
1091.116
1090.022
1088.934
1087.884
1086.865
1085.888
1084.966
1099.5
1098.7
1097.866
1096.999
1096.098
1095.164
1094.196
1093.193
1092.158
1091.092
1090.023
1088.978
1087.955
1086.97
1086.04
1082.115
1083.805
1081.623
1085.438
1083.702
1080.807
1087.05
1085.548
1083.521
1079.627
1088.587
1087.235
1085.614
1083.262
1078.319
1090
1088.757
1087.364
1085.632
1082.987
1077.158
1091.274
1090.114
1088.862
1087.438
1085.625
1082.768
1076.33
1092.421
1091.32
1090.161
1088.906
1087.469
1085.618
1082.655
1075.935
1093.455
1092.397
1091.299
1090.145
1088.895
1087.464
1085.621
1082.675
1076.011
1094.387
1093.365
1092.309
1091.214
1090.065
1088.828
1087.42
1085.632
1082.823
1076.545
1095.228
1094.236
1093.213
1092.158
1091.065
1089.924
1088.702
1087.333
1085.64
1083.069
1077.716
1095.988
1095.025
1094.031
1093.006
1091.95
1090.86
1089.724
1088.521
1087.201
1085.627
1083.422
1079.281
1096.685
1095.752
1094.787
1093.79
1092.763
1091.705
1090.613
1089.483
1088.3
1087.033
1085.614
1083.85
1080.924
1097.358
1096.456
1095.521
1094.554
1093.555
1092.526
1091.465
1090.372
1089.247
1088.083
1086.892
1085.671
1084.321
1082.668
1098.06
1097.191
1096.288
1095.352
1094.384
1093.385
1092.353
1091.289
1090.196
1089.074
1087.953
1086.859
1085.772
1084.683
1083.664
1098.787
1097.952
1097.084
1096.182
1095.247
1094.28
1093.279
1092.245
1091.18
1090.086
1088.995
1087.933
1086.896
1085.897
1084.95
1099.522
1098.723
1097.889
1097.023
1096.122
1095.189
1094.221
1093.219
1092.185
1091.12
1090.05
1089.001
1087.972
1086.98
1086.041
1100.25
1099.487
1098.689
1097.858
1096.994
1096.096
1095.163
1094.195
1093.194
1092.16
1091.112
1090.073
1089.046
1088.045
1087.089
1082.386
1083.859
1082.124
1085.334
1083.808
1081.639
1086.825
1085.433
1083.707
1080.832
1088.34
1087.037
1085.542
1083.527
1079.665
1089.793
1088.568
1087.222
1085.609
1083.272
1078.373
1091.134
1089.977
1088.739
1087.352
1085.63
1083.003
1077.224
1092.352
1091.25
1090.094
1088.847
1087.429
1085.627
1082.786
1076.402
1093.455
1092.397
1091.299
1090.145
1088.895
1087.464
1085.621
1082.675
1076.011
1094.452
1093.431
1092.377
1091.282
1090.132
1088.886
1087.459
1085.623
1082.695
1076.086
1095.353
1094.365
1093.345
1092.292
1091.201
1090.056
1088.82
1087.415
1085.634
1082.842
1076.881
1096.165
1095.207
1094.218
1093.198
1092.146
1091.057
1089.917
1088.696
1087.33
1085.642
1083.149
1078.199
1096.896
1095.968
1095.008
1094.018
1092.996
1091.943
1090.853
1089.718
1088.517
1087.2
1085.646
1083.559
1079.683
1097.565
1096.667
1095.737
1094.775
1093.782
1092.758
1091.701
1090.61
1089.481
1088.3
1087.046
1085.682
1084.011
1081.339
1098.209
1097.343
1096.443
1095.511
1094.547
1093.552
1092.524
1091.464
1090.373
1089.249
1088.105
1086.956
1085.784
1084.558
1083.346
1098.879
1098.046
1097.179
1096.28
1095.347
1094.382
1093.384
1092.353
1091.291
1090.199
1089.1
1088.016
1086.947
1085.907
1084.919
1099.572
1098.774
1097.942
1097.076
1096.177
1095.245
1094.279
1093.279
1092.246
1091.183
1090.11
1089.052
1088.009
1087
1086.043
1100.272
1099.509
1098.712
1097.881
1097.018
1096.121
1095.188
1094.221
1093.22
1092.187
1091.138
1090.096
1089.064
1088.057
1087.093
1100.965
1100.237
1099.476
1098.681
1097.853
1096.992
1096.095
1095.162
1094.195
1093.195
1092.172
1091.145
1090.12
1089.111
1088.134
1082.503
1083.885
1082.394
1085.262
1083.863
1082.137
1086.651
1085.332
1083.814
1081.66
1088.079
1086.817
1085.432
1083.716
1080.863
1089.533
1088.324
1087.027
1085.54
1083.537
1079.709
1090.926
1089.773
1088.552
1087.212
1085.608
1083.287
1078.428
1092.214
1091.111
1089.958
1088.725
1087.344
1085.633
1083.02
1077.288
1093.388
1092.329
1091.23
1090.078
1088.836
1087.425
1085.63
1082.805
1076.474
1094.452
1093.431
1092.377
1091.282
1090.132
1088.886
1087.459
1085.623
1082.695
1076.086
1095.416
1094.43
1093.412
1092.36
1091.269
1090.122
1088.878
1087.454
1085.625
1082.715
1076.441
1096.286
1095.332
1094.346
1093.329
1092.28
1091.191
1090.047
1088.813
1087.411
1085.637
1082.931
1077.41
1097.068
1096.144
1095.189
1094.203
1093.186
1092.137
1091.048
1089.909
1088.69
1087.326
1085.655
1083.289
1078.626
1097.77
1096.877
1095.952
1094.995
1094.007
1092.989
1091.936
1090.847
1089.713
1088.513
1087.194
1085.687
1083.696
1080.049
1098.41
1097.548
1096.653
1095.725
1094.766
1093.776
1092.753
1091.697
1090.607
1089.479
1088.3
1087.072
1085.752
1084.175
1081.744
1099.023
1098.193
1097.33
1096.434
1095.505
1094.544
1093.549
1092.522
1091.463
1090.373
1089.26
1088.139
1087.016
1085.902
1084.836
1099.661
1098.864
1098.034
1097.17
1096.274
1095.344
1094.38
1093.383
1092.353
1091.292
1090.214
1089.138
1088.071
1087.032
1086.044
1100.321
1099.558
1098.763
1097.933
1097.07
1096.175
1095.244
1094.278
1093.279
1092.247
1091.197
1090.146
1089.102
1088.081
1087.102
1100.987
1100.259
1099.498
1098.704
1097.876
1097.015
1096.118
1095.187
1094.221
1093.221
1092.197
1091.167
1090.137
1089.123
1088.139
1101.645
1100.952
1100.227
1099.468
1098.676
1097.85
1096.989
1096.093
1095.161
1094.195
1093.2
1092.189
1091.173
1090.164
1089.174
1083.896
1082.51
1085.219
1083.889
1082.406
1086.537
1085.262
1083.87
1082.155
1087.881
1086.646
1085.335
1083.825
1081.686
1089.264
1088.069
1086.813
1085.435
1083.73
1080.9
1090.667
1089.516
1088.313
1087.022
1085.543
1083.553
1079.754
1092.011
1090.906
1089.756
1088.541
1087.207
1085.612
1083.302
1078.482
1093.254
1092.192
1091.092
1089.943
1088.715
1087.341
1085.635
1083.036
1077.352
1094.387
1093.365
1092.309
1091.214
1090.065
1088.828
1087.42
1085.632
1082.823
1076.545
1095.416
1094.43
1093.412
1092.36
1091.269
1090.122
1088.878
1087.454
1085.625
1082.715
1076.441
1096.347
1095.394
1094.41
1093.395
1092.347
1091.259
1090.113
1088.87
1087.449
1085.628
1082.811
1076.996
1097.186
1096.265
1095.313
1094.33
1093.316
1092.27
1091.182
1090.038
1088.805
1087.406
1085.648
1083.082
1077.868
1097.937
1097.048
1096.127
1095.175
1094.191
1093.177
1092.128
1091.04
1089.901
1088.683
1087.31
1085.682
1083.424
1078.996
1098.609
1097.751
1096.861
1095.938
1094.985
1094
1092.981
1091.929
1090.841
1089.708
1088.494
1087.19
1085.729
1083.829
1080.369
1099.219
1098.393
1097.533
1096.641
1095.717
1094.761
1093.771
1092.748
1091.693
1090.604
1089.47
1088.3
1087.097
1085.82
1084.333
1082.515
1099.802
1099.008
1098.18
1097.32
1096.426
1095.5
1094.54
1093.546
1092.52
1091.462
1090.374
1089.271
1088.166
1087.075
1086.033
1100.408
1099.647
1098.853
1098.025
1097.164
1096.27
1095.342
1094.378
1093.382
1092.353
1091.298
1090.233
1089.169
1088.122
1087.115
1101.034
1100.307
1099.547
1098.754
1097.927
1097.068
1096.172
1095.242
1094.277
1093.279
1092.253
1091.215
1090.176
1089.148
1088.15
1101.666
1100.973
1100.248
1099.49
1098.698
1097.873
1097.012
1096.116
1095.185
1094.22
1093.224
1092.21
1091.19
1090.175
1089.18
1102.29
1101.632
1100.942
1100.218
1099.462
1098.672
1097.847
1096.987
1096.091
1095.16
1094.194
1093.204
1092.203
1091.199
1090.206
1085.199
1083.9
1082.522
1086.471
1085.22
1083.898
1082.423
1087.754
1086.534
1085.266
1083.882
1082.178
1089.062
1087.874
1086.645
1085.341
1083.841
1081.717
1090.403
1089.252
1088.062
1086.813
1085.443
1083.748
1080.938
1091.759
1090.65
1089.504
1088.305
1087.02
1085.55
1083.568
1079.798
1093.057
1091.991
1090.889
1089.744
1088.533
1087.205
1085.615
1083.317
1078.536
1094.258
1093.232
1092.173
1091.077
1089.932
1088.709
1087.337
1085.637
1083.053
1077.415
1095.353
1094.365
1093.345
1092.292
1091.201
1090.056
1088.82
1087.415
1085.634
1082.842
1076.881
1096.347
1095.394
1094.41
1093.395
1092.347
1091.259
1090.113
1088.87
1087.449
1085.628
1082.811
1076.996
1097.245
1096.326
1095.375
1094.394
1093.382
1092.337
1091.249
1090.103
1088.862
1087.444
1085.64
1082.969
1077.474
1098.051
1097.165
1096.247
1095.298
1094.318
1093.307
1092.26
1091.172
1090.029
1088.798
1087.385
1085.671
1083.223
1078.258
1098.772
1097.917
1097.031
1096.112
1095.163
1094.183
1093.168
1092.119
1091.032
1089.894
1088.653
1087.287
1085.711
1083.551
1079.308
1099.413
1098.591
1097.735
1096.848
1095.928
1094.977
1093.992
1092.974
1091.922
1090.834
1089.681
1088.466
1087.189
1085.771
1083.954
1080.931
1099.993
1099.202
1098.378
1097.521
1096.632
1095.711
1094.755
1093.765
1092.743
1091.689
1090.587
1089.452
1088.298
1087.119
1085.883
1084.647
1082.974
1100.546
1099.787
1098.995
1098.17
1097.312
1096.422
1095.496
1094.536
1093.543
1092.517
1091.455
1090.368
1089.273
1088.185
1087.131
1101.119
1100.394
1099.635
1098.843
1098.018
1097.16
1096.267
1095.339
1094.376
1093.38
1092.351
1091.3
1090.243
1089.192
1088.168
1101.713
1101.021
1100.296
1099.539
1098.748
1097.924
1097.064
1096.17
1095.24
1094.276
1093.278
1092.258
1091.228
1090.201
1089.191
1102.31
1101.653
1100.963
1100.24
1099.484
1098.695
1097.87
1097.01
1096.114
1095.184
1094.217
1093.225
1092.219
1091.211
1090.211
1102.9
1102.277
1101.622
1100.933
1100.212
1099.458
1098.669
1097.844
1096.984
1096.089
1095.154
1094.188
1093.206
1092.214
1091.224
1086.441
1085.2
1083.908
1082.539
1087.681
1086.469
1085.225
1083.91
1082.445
1088.933
1087.749
1086.535
1085.274
1083.899
1082.207
1090.204
1089.053
1087.871
1086.648
1085.352
1083.861
1081.75
1091.503
1090.389
1089.244
1088.059
1086.816
1085.454
1083.767
1080.976
1092.814
1091.741
1090.637
1089.494
1088.301
1087.022
1085.556
1083.584
1079.843
1094.068
1093.037
1091.974
1090.876
1089.735
1088.529
1087.204
1085.619
1083.332
1078.59
1095.228
1094.236
1093.213
1092.158
1091.065
1089.924
1088.702
1087.333
1085.64
1083.069
1077.716
1096.286
1095.332
1094.346
1093.329
1092.28
1091.191
1090.047
1088.813
1087.411
1085.637
1082.931
1077.41
1097.245
1096.326
1095.375
1094.394
1093.382
1092.337
1091.249
1090.103
1088.862
1087.444
1085.64
1082.969
1077.474
1098.109
1097.224
1096.307
1095.36
1094.381
1093.372
1092.326
1091.239
1090.094
1088.854
1087.421
1085.663
1083.116
1077.878
1098.883
1098.031
1097.147
1096.232
1095.285
1094.308
1093.297
1092.25
1091.163
1090.021
1088.761
1087.353
1085.695
1083.353
1078.582
1099.572
1098.752
1097.901
1097.017
1096.101
1095.154
1094.173
1093.159
1092.111
1091.024
1089.856
1088.606
1087.269
1085.74
1083.669
1079.84
1100.183
1099.395
1098.575
1097.722
1096.837
1095.92
1094.969
1093.984
1092.967
1091.916
1090.803
1089.638
1088.442
1087.189
1085.81
1084.207
1081.537
1100.733
1099.977
1099.188
1098.367
1097.512
1096.626
1095.704
1094.749
1093.76
1092.738
1091.667
1090.557
1089.433
1088.295
1087.138
1086.001
1084.842
1083.235
1101.254
1100.531
1099.774
1098.985
1098.163
1097.307
1096.417
1095.491
1094.532
1093.54
1092.505
1091.435
1090.352
1089.267
1088.197
1101.796
1101.105
1100.382
1099.626
1098.837
1098.014
1097.156
1096.263
1095.336
1094.374
1093.373
1092.34
1091.294
1090.246
1089.211
1102.356
1101.699
1101.01
1100.288
1099.532
1098.744
1097.92
1097.061
1096.167
1095.238
1094.27
1093.27
1092.256
1091.236
1090.223
1102.92
1102.297
1101.642
1100.954
1100.234
1099.48
1098.691
1097.867
1097.007
1096.112
1095.177
1094.208
1093.222
1092.225
1091.229
1103.477
1102.888
1102.267
1101.613
1100.927
1100.209
1099.455
1098.666
1097.841
1096.982
1096.079
1095.14
1094.179
1093.204
1092.223
1087.649
1086.44
1085.206
1083.921
1082.561
1088.86
1087.677
1086.471
1085.234
1083.927
1082.472
1090.078
1088.926
1087.747
1086.539
1085.286
1083.92
1082.236
1091.311
1090.194
1089.048
1087.871
1086.655
1085.366
1083.882
1081.782
1092.567
1091.489
1090.38
1089.239
1088.06
1086.824
1085.466
1083.786
1081.015
1093.834
1092.796
1091.727
1090.626
1089.489
1088.301
1087.025
1085.564
1083.6
1079.888
1095.045
1094.048
1093.02
1091.96
1090.866
1089.729
1088.525
1087.202
1085.623
1083.347
1078.847
1096.165
1095.207
1094.218
1093.198
1092.146
1091.057
1089.917
1088.696
1087.33
1085.642
1083.149
1078.199
1097.186
1096.265
1095.313
1094.33
1093.316
1092.27
1091.182
1090.038
1088.805
1087.406
1085.648
1083.082
1077.868
1098.109
1097.224
1096.307
1095.36
1094.381
1093.372
1092.326
1091.239
1090.094
1088.854
1087.421
1085.663
1083.116
1077.878
1098.939
1098.088
1097.206
1096.292
1095.347
1094.371
1093.362
1092.316
1091.229
1090.084
1088.815
1087.385
1085.686
1083.25
1078.212
1099.681
1098.863
1098.014
1097.132
1096.22
1095.276
1094.298
1093.287
1092.241
1091.153
1089.977
1088.703
1087.326
1085.72
1083.473
1079.13
1100.338
1099.553
1098.736
1097.887
1097.005
1096.092
1095.145
1094.165
1093.151
1092.102
1090.982
1089.796
1088.565
1087.256
1085.769
1083.91
1080.506
1100.919
1100.166
1099.38
1098.562
1097.712
1096.83
1095.912
1094.961
1093.977
1092.96
1091.881
1090.752
1089.601
1088.42
1087.19
1085.893
1084.477
1081.974
1101.437
1100.716
1099.963
1099.176
1098.358
1097.506
1096.619
1095.698
1094.743
1093.754
1092.713
1091.627
1090.526
1089.412
1088.288
1087.163
1086.073
1084.957
1083.431
1101.928
1101.24
1100.518
1099.764
1098.977
1098.157
1097.302
1096.412
1095.487
1094.528
1093.522
1092.473
1091.405
1090.325
1089.247
1102.438
1101.782
1101.094
1100.373
1099.619
1098.832
1098.01
1097.152
1096.26
1095.333
1094.361
1093.351
1092.321
1091.281
1090.244
1102.965
1102.343
1101.688
1101.001
1100.281
1099.528
1098.74
1097.917
1097.058
1096.164
1095.227
1094.252
1093.257
1092.25
1091.241
1103.497
1102.908
1102.287
1101.634
1100.948
1100.23
1099.476
1098.687
1097.864
1097.004
1096.101
1095.159
1094.195
1093.215
1092.229
1104.02
1103.464
1102.877
1102.258
1101.607
1100.923
1100.205
1099.451
1098.662
1097.839
1096.969
1096.057
1095.122
1094.168
1093.202
1088.827
1087.645
1086.442
1085.215
1083.938
1082.587
1090.007
1088.853
1087.676
1086.476
1085.247
1083.948
1082.5
1091.19
1090.069
1088.922
1087.749
1086.548
1085.303
1083.942
1082.266
1092.383
1091.3
1090.187
1089.046
1087.875
1086.666
1085.382
1083.903
1081.816
1093.596
1092.553
1091.478
1090.374
1089.238
1088.065
1086.831
1085.478
1083.805
1081.054
1094.819
1093.816
1092.782
1091.717
1090.62
1089.487
1088.301
1087.027
1085.571
1083.616
1080.106
1095.988
1095.025
1094.031
1093.006
1091.95
1090.86
1089.724
1088.521
1087.201
1085.627
1083.422
1079.281
1097.068
1096.144
1095.189
1094.203
1093.186
1092.137
1091.048
1089.909
1088.69
1087.326
1085.655
1083.289
1078.626
1098.051
1097.165
1096.247
1095.298
1094.318
1093.307
1092.26
1091.172
1090.029
1088.798
1087.385
1085.671
1083.223
1078.258
1098.939
1098.088
1097.206
1096.292
1095.347
1094.371
1093.362
1092.316
1091.229
1090.084
1088.815
1087.385
1085.686
1083.25
1078.212
1099.735
1098.919
1098.071
1097.191
1096.28
1095.337
1094.361
1093.351
1092.306
1091.219
1090.037
1088.753
1087.355
1085.709
1083.372
1078.776
1100.444
1099.662
1098.846
1097.999
1097.121
1096.21
1095.266
1094.288
1093.277
1092.231
1091.106
1089.906
1088.653
1087.305
1085.744
1083.717
1079.836
1101.07
1100.32
1099.537
1098.722
1097.876
1096.997
1096.083
1095.136
1094.156
1093.142
1092.059
1090.915
1089.744
1088.531
1087.246
1085.833
1084.209
1081.042
1101.62
1100.901
1100.151
1099.367
1098.552
1097.704
1096.822
1095.905
1094.954
1093.97
1092.923
1091.824
1090.705
1089.567
1088.401
1087.191
1085.98
1084.67
1082.319
1102.108
1101.421
1100.703
1099.951
1099.167
1098.351
1097.499
1096.613
1095.692
1094.737
1093.726
1092.666
1091.587
1090.493
1089.39
1088.26
1087.176
1086.115
1085.043
1083.603
1102.568
1101.914
1101.227
1100.508
1099.756
1098.972
1098.152
1097.297
1096.407
1095.482
1094.507
1093.481
1092.432
1091.363
1090.284
1103.046
1102.424
1101.771
1101.084
1100.366
1099.614
1098.827
1098.005
1097.148
1096.256
1095.316
1094.33
1093.321
1092.294
1091.262
1103.541
1102.953
1102.332
1101.679
1100.994
1100.277
1099.524
1098.736
1097.913
1097.055
1096.15
1095.202
1094.229
1093.239
1092.241
1104.039
1103.484
1102.897
1102.278
1101.627
1100.944
1100.225
1099.472
1098.684
1097.86
1096.99
1096.076
1095.137
1094.178
1093.207
1104.529
1104.007
1103.454
1102.869
1102.252
1101.603
1100.919
1100.201
1099.447
1098.659
1097.822
1096.941
1096.033
1095.102
1094.155
1089.975
1088.821
1087.644
1086.448
1085.228
1083.96
1082.614
1091.121
1089.999
1088.85
1087.679
1086.486
1085.264
1083.97
1082.527
1092.267
1091.18
1090.064
1088.922
1087.755
1086.561
1085.32
1083.963
1082.295
1093.42
1092.371
1091.292
1090.183
1089.048
1087.883
1086.677
1085.397
1083.924
1081.85
1094.591
1093.581
1092.541
1091.471
1090.371
1089.24
1088.069
1086.839
1085.49
1083.825
1081.247
1095.769
1094.801
1093.801
1092.771
1091.709
1090.617
1089.485
1088.3
1087.03
1085.578
1083.696
1080.51
1096.896
1095.968
1095.008
1094.018
1092.996
1091.943
1090.853
1089.718
1088.517
1087.2
1085.646
1083.559
1079.683
1097.937
1097.048
1096.127
1095.175
1094.191
1093.177
1092.128
1091.04
1089.901
1088.683
1087.31
1085.682
1083.424
1078.996
1098.883
1098.031
1097.147
1096.232
1095.285
1094.308
1093.297
1092.25
1091.163
1090.021
1088.761
1087.353
1085.695
1083.353
1078.582
1099.735
1098.919
1098.071
1097.191
1096.28
1095.337
1094.361
1093.351
1092.306
1091.219
1090.037
1088.753
1087.355
1085.709
1083.372
1078.776
1100.498
1099.716
1098.902
1098.056
1097.179
1096.27
1095.327
1094.351
1093.341
1092.296
1091.169
1089.963
1088.699
1087.331
1085.732
1083.62
1079.505
1101.174
1100.426
1099.645
1098.832
1097.988
1097.111
1096.201
1095.256
1094.279
1093.268
1092.182
1091.03
1089.845
1088.611
1087.289
1085.8
1084.033
1080.429
1101.768
1101.052
1100.304
1099.524
1098.712
1097.867
1096.988
1096.074
1095.127
1094.147
1093.097
1091.988
1090.856
1089.698
1088.502
1087.227
1085.918
1084.445
1081.49
1102.287
1101.603
1100.887
1100.138
1099.357
1098.544
1097.696
1096.814
1095.897
1094.946
1093.931
1092.861
1091.771
1090.663
1089.536
1088.358
1087.19
1086.042
1084.819
1082.621
1102.744
1102.092
1101.408
1100.691
1099.942
1099.161
1098.344
1097.493
1096.606
1095.686
1094.706
1093.673
1092.618
1091.546
1090.46
1089.327
1088.239
1087.183
1086.149
1085.119
1083.769
1103.174
1102.554
1101.901
1101.217
1100.5
1099.75
1098.966
1098.146
1097.291
1096.402
1095.457
1094.458
1093.431
1092.377
1091.304
1103.62
1103.032
1102.413
1101.761
1101.077
1100.361
1099.609
1098.823
1098.001
1097.144
1096.236
1095.278
1094.291
1093.283
1092.261
1104.083
1103.528
1102.942
1102.323
1101.673
1100.99
1100.272
1099.52
1098.732
1097.909
1097.037
1096.118
1095.171
1094.202
1093.218
1104.548
1104.027
1103.473
1102.889
1102.272
1101.623
1100.939
1100.221
1099.468
1098.68
1097.843
1096.959
1096.047
1095.112
1094.16
1105.006
1104.517
1103.997
1103.446
1102.863
1102.248
1101.598
1100.915
1100.197
1099.444
1098.641
1097.79
1096.911
1096.006
1095.081
1091.09
1089.967
1088.818
1087.647
1086.457
1085.246
1083.982
1082.641
1092.201
1091.111
1089.994
1088.851
1087.685
1086.499
1085.281
1083.993
1082.555
1093.308
1092.255
1091.173
1090.062
1088.925
1087.764
1086.574
1085.337
1083.985
1082.326
1094.421
1093.407
1092.362
1091.287
1090.183
1089.053
1087.891
1086.688
1085.412
1083.945
1082.017
1095.549
1094.575
1093.57
1092.533
1091.467
1090.371
1089.243
1088.074
1086.846
1085.502
1083.921
1081.65
1096.685
1095.752
1094.787
1093.79
1092.763
1091.705
1090.613
1089.483
1088.3
1087.033
1085.614
1083.85
1080.924
1097.77
1096.877
1095.952
1094.995
1094.007
1092.989
1091.936
1090.847
1089.713
1088.513
1087.194
1085.687
1083.696
1080.049
1098.772
1097.917
1097.031
1096.112
1095.163
1094.183
1093.168
1092.119
1091.032
1089.894
1088.653
1087.287
1085.711
1083.551
1079.308
1099.681
1098.863
1098.014
1097.132
1096.22
1095.276
1094.298
1093.287
1092.241
1091.153
1089.977
1088.703
1087.326
1085.72
1083.473
1079.13
1100.498
1099.716
1098.902
1098.056
1097.179
1096.27
1095.327
1094.351
1093.341
1092.296
1091.169
1089.963
1088.699
1087.331
1085.732
1083.62
1079.505
1101.227
1100.479
1099.699
1098.888
1098.044
1097.169
1096.26
1095.317
1094.341
1093.331
1092.245
1091.088
1089.897
1088.652
1087.311
1085.784
1083.944
1080.125
1101.871
1101.156
1100.41
1099.631
1098.821
1097.979
1097.102
1096.191
1095.247
1094.269
1093.218
1092.103
1090.963
1089.792
1088.575
1087.257
1085.88
1084.293
1080.942
1102.433
1101.751
1101.037
1100.291
1099.513
1098.703
1097.858
1096.979
1096.065
1095.119
1094.101
1093.024
1091.925
1090.804
1089.659
1088.439
1087.208
1085.987
1084.637
1081.891
1102.92
1102.27
1101.588
1100.874
1100.128
1099.35
1098.536
1097.688
1096.806
1095.889
1094.907
1093.867
1092.805
1091.724
1090.625
1089.465
1088.308
1087.19
1086.091
1084.943
1082.91
1103.347
1102.729
1102.079
1101.397
1100.682
1099.936
1099.154
1098.337
1097.486
1096.6
1095.652
1094.649
1093.62
1092.57
1091.505
1090.374
1089.285
1088.228
1087.191
1086.178
1085.188
1083.939
1103.746
1103.16
1102.541
1101.891
1101.209
1100.494
1099.744
1098.96
1098.14
1097.286
1096.374
1095.403
1094.4
1093.367
1092.305
1104.161
1103.607
1103.021
1102.404
1101.754
1101.072
1100.356
1099.604
1098.818
1097.996
1097.121
1096.192
1095.231
1094.245
1093.239
1104.592
1104.07
1103.517
1102.933
1102.317
1101.668
1100.985
1100.268
1099.515
1098.728
1097.889
1096.999
1096.08
1095.135
1094.171
1105.025
1104.536
1104.016
1103.465
1102.882
1102.267
1101.618
1100.935
1100.217
1099.464
1098.661
1097.808
1096.925
1096.016
1095.086
1105.45
1104.994
1104.507