/*--------------------------------*- C++ -*----------------------------------*\
| =========                 |                                                 |
| \\      /  F ield         | OpenFOAM: The Open Source CFD Toolbox           |
|  \\    /   O peration     | Version:  2306                                  |
|   \\  /    A nd           | Website:  www.openfoam.com                      |
|    \\/     M anipulation  |                                                 |
\*---------------------------------------------------------------------------*/
FoamFile
{
    version     2.0;
    format      ascii;
    arch        "LSB;label=32;scalar=64";
    class       volScalarField;
    location    "0.6/fuel";
    object      X.H2O;
}
// * * * * * * * * * * * * * * * * * * * * * * * * * * * * * * * * * * * * * //

dimensions      [0 0 0 0 0 0 0];

internalField   nonuniform List<scalar> 
16000
(
0.06761806
0.06631184
0.08674507
0.06754187
0.06370862
0.08571169
0.06623503
0.1080224
0.08667548
0.06739323
0.05988356
0.08365378
0.06363048
0.1070935
0.0856417
0.06608519
0.1286669
0.1079585
0.08653953
0.06717478
0.05510952
0.08063126
0.05980315
0.1052432
0.08358293
0.06347808
0.1278025
0.1070293
0.08550497
0.06586502
0.1483565
0.1286077
0.1078336
0.08633955
0.06688811
0.05017803
0.07685599
0.05502543
0.102523
0.08055897
0.05964637
0.126081
0.1051783
0.08344455
0.06325417
0.1475433
0.127743
0.1069038
0.08530386
0.06557611
0.1671076
0.1483011
0.1284917
0.1076497
0.08607695
0.06660477
0.04655059
0.07294088
0.05008894
0.09912092
0.07678137
0.05486149
0.1235505
0.102457
0.0804178
0.05941606
0.1459246
0.126021
0.1050515
0.08324103
0.0629604
0.1663387
0.1474877
0.1276265
0.106719
0.08503979
0.06529056
0.1849869
0.1670555
0.1481926
0.1283209
0.1074081
0.08581727
0.06637044
0.04427041
0.07002242
0.04645944
0.09558719
0.07286307
0.04991519
0.1203858
0.09905311
0.07663564
0.05462067
0.1435457
0.1234896
0.1023281
0.0802102
0.05911393
0.1648084
0.1458685
0.1259035
0.1048649
0.08297381
0.06267006
0.1842572
0.1662864
0.1473788
0.127455
0.1064763
0.08477866
0.06505439
0.2020613
0.1849377
0.1669534
0.1480326
0.1280963
0.107169
0.08560252
0.06613791
0.04297958
0.06815569
0.04417862
0.09294825
0.0699436
0.04628172
0.1170983
0.09551681
0.07271108
0.04965991
0.1405712
0.1203232
0.09892052
0.07642131
0.05430475
0.1625599
0.1434888
0.1233702
0.1021383
0.07993763
0.05881535
0.1828052
0.1647557
0.1457587
0.1257303
0.1046197
0.0827096
0.06242983
0.2013669
0.1842078
0.1661839
0.1472182
0.1272294
0.1062361
0.08456271
0.06482003
0.2183918
0.2020147
0.1848412
0.1668028
0.1478221
0.1278739
0.1069714
0.08538943
0.06590719
0.04239983
0.06708054
0.0428876
0.0912564
0.06807678
0.04399975
0.1146421
0.0928772
0.06978965
0.04602068
0.1374816
0.1170335
0.09537915
0.07248747
0.04932488
0.1597491
0.1405129
0.1202008
0.09872533
0.07613991
0.0539925
0.1806722
0.1625065
0.1433774
0.1231944
0.1018889
0.07966814
0.05856787
0.1999854
0.1827555
0.1646524
0.1455967
0.1255027
0.1043771
0.082491
0.06219134
0.2177295
0.2013201
0.184111
0.1660327
0.1470069
0.1270061
0.1060375
0.08434841
0.06458748
0.2340322
0.2183475
0.2019232
0.1846988
0.1666045
0.1476138
0.1276901
0.1067752
0.08517799
0.06567827
0.04239983
0.06659152
0.04230778
0.09027969
0.06700173
0.04270839
0.1130661
0.09118544
0.06792271
0.04373708
0.1351728
0.1145768
0.09273824
0.06956319
0.04567815
0.15683
0.1374213
0.1169066
0.0951764
0.07219378
0.04899363
0.1780061
0.1596944
0.1403987
0.1200204
0.09846886
0.07586166
0.0537324
0.1979561
0.1806218
0.1624018
0.1432131
0.1229633
0.1016422
0.07944486
0.05832174
0.216412
0.1999383
0.1826579
0.1645
0.1453837
0.1252775
0.1041765
0.08227401
0.06195457
0.2333993
0.217685
0.2012283
0.183968
0.1658338
0.1467978
0.1268215
0.1058404
0.08413577
0.06435674
0.24903
0.23399
0.2182605
0.2017881
0.1845112
0.1664082
0.1474415
0.1275077
0.1065806
0.0849682
0.06457852
0.04297958
0.06659152
0.04230778
0.08983467
0.06651277
0.04212847
0.1121554
0.09020892
0.06684786
0.04244528
0.1336905
0.113001
0.09104667
0.06769611
0.0433925
0.1546483
0.1351121
0.114449
0.09253359
0.0692658
0.04533951
0.1752376
0.1567735
0.1373032
0.1167197
0.09490992
0.07190331
0.04871522
0.1954202
0.1779546
0.1595873
0.1402303
0.1197832
0.09821515
0.07563014
0.05347241
0.2144772
0.1979085
0.180523
0.1622474
0.142997
0.1227346
0.1014378
0.07922289
0.05807698
0.2321406
0.2163673
0.1998458
0.1825139
0.1642995
0.1451728
0.1250911
0.1039773
0.0820586
0.06171954
0.2484243
0.233357
0.2175978
0.2010927
0.1837799
0.1656367
0.1466248
0.1266383
0.1056448
0.08392478
0.06324826
0.2634274
0.2489897
0.2339071
0.218132
0.2016101
0.1843255
0.1662458
0.1472706
0.1273267
0.1063875
0.08395957
0.06382938
0.04427041
0.06708054
0.0428876
0.08983467
0.06651277
0.04212847
0.1117402
0.08976399
0.06635903
0.04186524
0.1328335
0.1120905
0.09007052
0.06662159
0.04210018
0.1532473
0.1336301
0.1128735
0.09084236
0.06739858
0.04305188
0.1731685
0.1545916
0.1349932
0.1142606
0.09226464
0.06897168
0.04505485
0.1927871
0.1751844
0.1566627
0.1371289
0.1164738
0.09464623
0.07165971
0.04843444
0.2120594
0.1953714
0.1778535
0.1594291
0.1400089
0.1195485
0.09800406
0.07539898
0.05321256
0.2302922
0.2144319
0.1978148
0.1803771
0.1620441
0.1427831
0.1225451
0.1012346
0.07900223
0.0578336
0.2472198
0.232098
0.2162794
0.1997093
0.1823243
0.164101
0.1449984
0.1249062
0.1037795
0.0818448
0.06059016
0.2628469
0.2483839
0.2332738
0.2174688
0.2009142
0.1835934
0.1654738
0.1464532
0.1264565
0.1054508
0.08291038
0.06248993
0.2772621
0.2633889
0.2489106
0.2337846
0.2179626
0.2014337
0.1841718
0.1660848
0.1471009
0.1271472
0.1054586
0.08327352
0.06326556
0.04655059
0.06815569
0.04417862
0.09027969
0.06700173
0.04270839
0.1117402
0.08976399
0.06635903
0.04186524
0.1324426
0.1116754
0.0896258
0.06613297
0.04152
0.1524369
0.1327733
0.1119635
0.08986677
0.06632451
0.04175907
0.1718393
0.1531907
0.1335116
0.1126856
0.09057387
0.06710435
0.0427661
0.1908191
0.173115
0.1544802
0.1348179
0.1140129
0.09199853
0.06872497
0.04476771
0.2095493
0.1927368
0.17508
0.1564992
0.1368997
0.1162303
0.09442512
0.07141458
0.04815126
0.2279828
0.2120131
0.1952757
0.1777042
0.159221
0.1397896
0.1193531
0.09779331
0.07516819
0.05295284
0.2454512
0.2302491
0.2143429
0.1976766
0.180185
0.1618429
0.1426059
0.1223567
0.1010326
0.07878289
0.05666236
0.2616928
0.2471792
0.2320143
0.2161496
0.1995294
0.1821366
0.1639367
0.1448252
0.1247225
0.1035832
0.08081657
0.05980505
0.2767052
0.2628083
0.2483045
0.2331509
0.2172989
0.2007372
0.1834393
0.1653121
0.1462829
0.1262762
0.1045173
0.08221803
0.06191655
0.2905683
0.2772253
0.2633132
0.2487935
0.2336231
0.2177948
0.2012879
0.1840194
0.1659249
0.1469327
0.1262829
0.1048273
0.08275754
0.06288857
0.05017803
0.07002242
0.04645944
0.0912564
0.06807678
0.04399975
0.1121554
0.09020892
0.06684786
0.04244528
0.1324426
0.1116754
0.0896258
0.06613297
0.04152
0.1520671
0.1323825
0.1115486
0.08942237
0.06583619
0.04117877
0.1710703
0.1523805
0.1326553
0.1117763
0.08959905
0.06603076
0.04147331
0.1895547
0.1717861
0.1530798
0.1333369
0.1124386
0.09030824
0.06685796
0.04247841
0.2076732
0.1907686
0.1730101
0.1543158
0.1345872
0.1137677
0.09177532
0.06847665
0.0444781
0.2255853
0.2095016
0.192638
0.1749258
0.156284
0.1366726
0.1160262
0.09420263
0.07116789
0.04786567
0.2432416
0.2279387
0.2119223
0.1951343
0.1775077
0.1590149
0.1396072
0.1191581
0.0975829
0.07493778
0.05169731
0.2599982
0.2454101
0.2301644
0.2142115
0.1974945
0.1799948
0.1616761
0.1424297
0.1221694
0.1008318
0.07772667
0.05580415
0.275598
0.261654
0.2470993
0.2318906
0.2159785
0.1993513
0.1819812
0.1637736
0.1446533
0.1245403
0.1026387
0.08010554
0.05920064
0.2900334
0.2766683
0.2627324
0.2481871
0.2329889
0.2171305
0.2005909
0.1832863
0.1651517
0.1461139
0.1254081
0.1038809
0.08169536
0.0615315
0.3033763
0.290533
0.2771528
0.2632013
0.2486392
0.2334629
0.217656
0.2011432
0.1838682
0.1657664
0.1461225
0.125696
0.1043526
0.08241273
0.06269971
0.05510952
0.07294088
0.05008894
0.09294825
0.0699436
0.04628172
0.1130661
0.09118544
0.06792271
0.04373708
0.1328335
0.1120905
0.09007052
0.06662159
0.04210018
0.1520671
0.1323825
0.1115486
0.08942237
0.06583619
0.04117877
0.1707193
0.1520109
0.1322647
0.1113617
0.08915507
0.06554273
0.0408931
0.188823
0.1710173
0.15227
0.1324813
0.1115301
0.08933419
0.06578509
0.04118607
0.2064676
0.1895044
0.1716816
0.152916
0.133107
0.1121941
0.09008581
0.06661038
0.04218879
0.2237933
0.2076252
0.1906693
0.1728551
0.1540993
0.1343587
0.1135619
0.09155066
0.06822671
0.044186
0.240948
0.2255399
0.2094078
0.192492
0.1747227
0.1560708
0.1364822
0.1158208
0.09397874
0.07091963
0.04647347
0.2578813
0.2431997
0.2278522
0.2117879
0.1949481
0.1773131
0.1588435
0.139425
0.1189634
0.09737286
0.07382375
0.05064134
0.2739723
0.2599589
0.2453293
0.2300392
0.2140384
0.1973141
0.1798372
0.1615103
0.1422545
0.1219833
0.09986435
0.07696334
0.05510203
0.28897
0.2755608
0.2615776
0.2469812
0.2317275
0.215809
0.1992039
0.181827
0.1636118
0.1444827
0.1236628
0.1019864
0.07956071
0.05878751
0.3028621
0.289998
0.2765956
0.2626202
0.2480324
0.2328283
0.2169913
0.2004457
0.1831345
0.1649925
0.1453003
0.1248166
0.1034005
0.08134484
0.06133798
0.3157139
0.3033425
0.2904635
0.2770456
0.2630536
0.2484862
0.2333306
0.2175182
0.2009996
0.1837181
0.1650027
0.1455725
0.1252547
0.1040355
0.08224006
0.05988356
0.07685599
0.05502543
0.09558719
0.07286307
0.04991519
0.1146421
0.0928772
0.06978965
0.04602068
0.1336905
0.113001
0.09104667
0.06769611
0.0433925
0.1524369
0.1327733
0.1119635
0.08986677
0.06632451
0.04175907
0.1707193
0.1520109
0.1322647
0.1113617
0.08915507
0.06554273
0.0408931
0.188489
0.1706664
0.1519006
0.132091
0.1111161
0.08889065
0.06529746
0.04060615
0.2057699
0.1887729
0.1709133
0.152107
0.1322523
0.1112865
0.08911269
0.06553855
0.04089733
0.2226418
0.2064199
0.1894056
0.1715273
0.1527005
0.1328794
0.1119894
0.08986229
0.06636161
0.04189725
0.2392337
0.2237478
0.2075311
0.1905227
0.172651
0.1538849
0.134167
0.1133549
0.09132455
0.06797515
0.0427626
0.2556839
0.2409048
0.2254507
0.2092692
0.1922997
0.1745215
0.1558919
0.1362905
0.115614
0.09375344
0.06971013
0.04501589
0.2719417
0.2578412
0.2431171
0.2277243
0.211611
0.1947636
0.1771511
0.1586722
0.1392432
0.1187691
0.09635648
0.07291572
0.04962914
0.2874088
0.2739347
0.2598817
0.2452098
0.2298742
0.2138668
0.1971646
0.1796805
0.1613455
0.1420804
0.1210857
0.09916664
0.07634718
0.05458992
0.3018398
0.2889344
0.2754877
0.2614646
0.2468254
0.2315659
0.2156688
0.1990575
0.1816739
0.1634511
0.1436608
0.1230572
0.1014869
0.0791899
0.058577
0.3152191
0.3028281
0.2899283
0.2764881
0.2624721
0.2478789
0.2326955
0.2168531
0.2003016
0.1829839
0.1642258
0.1447463
0.1243703
0.1030785
0.08116885
0.3276063
0.3156814
0.3032758
0.2903606
0.2769041
0.2629072
0.2483597
0.2331992
0.2173816
0.2008572
0.1829954
0.1644846
0.1451591
0.1249599
0.1038767
0.06370862
0.08063126
0.05980315
0.09912092
0.07678137
0.05486149
0.1170983
0.09551681
0.07271108
0.04965991
0.1351728
0.1145768
0.09273824
0.06956319
0.04567815
0.1532473
0.1336301
0.1128735
0.09084236
0.06739858
0.04305188
0.1710703
0.1523805
0.1326553
0.1117763
0.08959905
0.06603076
0.04147331
0.188489
0.1706664
0.1519006
0.132091
0.1111161
0.08889065
0.06529746
0.04060615
0.2054513
0.188439
0.1705626
0.151738
0.1318626
0.110873
0.08866964
0.06505147
0.04031792
0.2219752
0.2057224
0.1886746
0.1707597
0.1518925
0.1320257
0.1110828
0.0888904
0.06529114
0.0406071
0.238132
0.2225965
0.2063262
0.1892597
0.1713242
0.1524871
0.1326888
0.1117836
0.0896377
0.06611164
0.04047944
0.2540416
0.2391903
0.2236582
0.2073918
0.1903295
0.1724488
0.1537051
0.1339741
0.1131464
0.09109698
0.06674968
0.04129186
0.269834
0.2556426
0.2408196
0.2253187
0.2090864
0.192109
0.1743527
0.1557119
0.1360977
0.1154059
0.09265484
0.06850419
0.04322106
0.2854588
0.2719033
0.2577623
0.2429951
0.2275557
0.2114356
0.1946101
0.1769894
0.1585012
0.1390616
0.1178279
0.09553083
0.07206947
0.04873691
0.3003392
0.2873728
0.2738608
0.2597674
0.2450522
0.2297107
0.2137246
0.1970159
0.1795247
0.1611817
0.1412405
0.1204389
0.09860418
0.07590349
0.05431304
0.3142356
0.3018057
0.2888643
0.2753795
0.2613156
0.246671
0.2314321
0.2155295
0.1989123
0.181522
0.1626769
0.1430939
0.1225935
0.1011471
0.07900157
0.3271299
0.3151865
0.3027612
0.2898252
0.2763462
0.2623253
0.247752
0.2325637
0.216716
0.2001587
0.1822584
0.1637039
0.1443282
0.1240711
0.1029168
0.3390769
0.327575
0.3156173
0.303177
0.2902249
0.2767638
0.2627861
0.2482342
0.2330689
0.217246
0.200171
0.1825051
0.164095
0.1448829
0.1248123
0.06631184
0.08365378
0.06363048
0.102523
0.08055897
0.05964637
0.1203858
0.09905311
0.07663564
0.05462067
0.1374816
0.1170335
0.09537915
0.07248747
0.04932488
0.1546483
0.1351121
0.114449
0.09253359
0.0692658
0.04533951
0.1718393
0.1531907
0.1335116
0.1126856
0.09057387
0.06710435
0.0427661
0.188823
0.1710173
0.15227
0.1324813
0.1115301
0.08933419
0.06578509
0.04118607
0.2054513
0.188439
0.1705626
0.151738
0.1318626
0.110873
0.08866964
0.06505147
0.04031792
0.2216709
0.205404
0.1883409
0.1704094
0.1515239
0.1316364
0.1106698
0.08844797
0.06480476
0.0400284
0.2374942
0.2219301
0.2056291
0.1885293
0.1705575
0.15168
0.1318361
0.1108783
0.08866733
0.06504287
0.03919773
0.2529861
0.2380888
0.2225073
0.2061877
0.1890674
0.1711229
0.1523083
0.1324972
0.1115769
0.08941204
0.06489603
0.03907975
0.2682587
0.2540001
0.2391048
0.2235257
0.2072084
0.190138
0.1722791
0.153524
0.1337799
0.1129367
0.08998729
0.06554011
0.03954702
0.283435
0.2697945
0.2555613
0.2406937
0.2251446
0.2089052
0.1919491
0.1741828
0.1555307
0.1359035
0.1143906
0.09156341
0.06707073
0.04095501
0.2984648
0.2854221
0.2718278
0.2576456
0.2428341
0.2273886
0.2112896
0.1944568
0.1768279
0.1583305
0.138182
0.1170638
0.09476308
0.07134213
0.04812638
0.3127919
0.3003046
0.2873019
0.2737514
0.2596167
0.244896
0.2295751
0.2135833
0.1968682
0.1793699
0.1603911
0.1406356
0.1199176
0.09819964
0.07566601
0.3261829
0.3142028
0.3017384
0.2887605
0.2752368
0.2611679
0.2465432
0.2312994
0.2153913
0.1987681
0.1807896
0.1621432
0.1426598
0.1222781
0.1009746
0.3386178
0.3270985
0.3151223
0.3026622
0.2896891
0.2762055
0.2622038
0.2476261
0.232433
0.21658
0.19947
0.1817647
0.1633101
0.144048
0.1239209
0.3501469
0.3390468
0.3275134
0.3155224
0.3030467
0.2900903
0.2766478
0.262666
0.2481097
0.2329396
0.2165928
0.1997056
0.1821366
0.1638348
0.1447446
0.06761806
0.08571169
0.06623503
0.1052432
0.08358293
0.06347808
0.1235505
0.102457
0.0804178
0.05941606
0.1405712
0.1203232
0.09892052
0.07642131
0.05430475
0.15683
0.1374213
0.1169066
0.0951764
0.07219378
0.04899363
0.1731685
0.1545916
0.1349932
0.1142606
0.09226464
0.06897168
0.04505485
0.1895547
0.1717861
0.1530798
0.1333369
0.1124386
0.09030824
0.06685796
0.04247841
0.2057699
0.1887729
0.1709133
0.152107
0.1322523
0.1112865
0.08911269
0.06553855
0.04089733
0.2216709
0.205404
0.1883409
0.1704094
0.1515239
0.1316364
0.1106698
0.08844797
0.06480476
0.0400284
0.2372029
0.2216259
0.2053109
0.188196
0.1702077
0.1513119
0.1314474
0.1104659
0.08822566
0.06455734
0.03862342
0.252375
0.2374512
0.2218414
0.2054913
0.188338
0.1703572
0.1515022
0.1316458
0.1106731
0.08844347
0.06383704
0.03785101
0.2672463
0.2529449
0.2380038
0.2223755
0.2060052
0.1888769
0.1709544
0.1521286
0.1323047
0.1113691
0.08831348
0.06374502
0.03748888
0.2819224
0.2682191
0.2539185
0.2389785
0.223351
0.2070265
0.1899773
0.1721083
0.1533417
0.1335843
0.1119129
0.08889445
0.06415102
0.03751157
0.2965197
0.2833971
0.2697167
0.255441
0.2405277
0.2249721
0.2087533
0.1917881
0.1740117
0.1553484
0.1349556
0.1133816
0.09026872
0.06530746
0.03796301
0.3109888
0.2984296
0.2853498
0.2717161
0.2574917
0.2426746
0.2272495
0.2111438
0.1943036
0.1766666
0.1575032
0.1374679
0.1163532
0.09410456
0.07085493
0.3247929
0.3127587
0.3002367
0.287197
0.2736071
0.2594673
0.2447666
0.2294404
0.2134427
0.1967213
0.1786224
0.1598218
0.1401479
0.1195426
0.09798328
0.3377054
0.3261514
0.3141382
0.3016388
0.2886236
0.2750952
0.2610456
0.2464164
0.2311676
0.2152542
0.198073
0.1802849
0.1617345
0.1423646
0.122118
0.3497042
0.3385876
0.3270368
0.3150271
0.3025316
0.2895541
0.2760891
0.2620833
0.2475012
0.2323032
0.2159244
0.1990014
0.1813922
0.1630461
0.1439073
0.3608361
0.3501179
0.3389875
0.3274222
0.3153972
0.3029174
0.289979
0.2765327
0.2625468
0.2479861
0.2323164
0.2161499
0.1993558
0.1818904
0.1637045
0.08674507
0.06754187
0.1070935
0.0856417
0.06608519
0.126081
0.1051783
0.08344455
0.06325417
0.1435457
0.1234896
0.1023281
0.0802102
0.05911393
0.1597491
0.1405129
0.1202008
0.09872533
0.07613991
0.0539925
0.1752376
0.1567735
0.1373032
0.1167197
0.09490992
0.07190331
0.04871522
0.1908191
0.173115
0.1544802
0.1348179
0.1140129
0.09199853
0.06872497
0.04476771
0.2064676
0.1895044
0.1716816
0.152916
0.133107
0.1121941
0.09008581
0.06661038
0.04218879
0.2219752
0.2057224
0.1886746
0.1707597
0.1518925
0.1320257
0.1110828
0.0888904
0.06529114
0.0406071
0.2372029
0.2216259
0.2053109
0.188196
0.1702077
0.1513119
0.1314474
0.1104659
0.08822566
0.06455734
0.03862342
0.252096
0.23716
0.2215374
0.2051734
0.1880051
0.1700079
0.1511346
0.1312577
0.1102615
0.0880027
0.06335638
0.03730117
0.2666601
0.252334
0.2373666
0.2217102
0.2053097
0.1881484
0.1701896
0.1513238
0.1314548
0.1104672
0.08735507
0.06272882
0.0363606
0.2809502
0.2672069
0.2528637
0.2378781
0.2222018
0.2058243
0.1887173
0.1707849
0.151948
0.1321112
0.1103569
0.08727465
0.06247747
0.03571597
0.2950659
0.2818844
0.268141
0.2537978
0.2388118
0.2231778
0.2068738
0.1898155
0.1719363
0.1531582
0.1326297
0.1109039
0.08764049
0.06257013
0.03517989
0.3091175
0.2964834
0.2833226
0.2696015
0.2552822
0.2403629
0.2248273
0.2086003
0.191626
0.1738396
0.1544575
0.1340129
0.1121838
0.0886787
0.06301892
0.03298917
0.3230569
0.3109549
0.2983602
0.2852427
0.2715688
0.2573391
0.2425417
0.2271106
0.2109982
0.1941508
0.1758849
0.1568316
0.1368035
0.1157436
0.09366412
0.3363661
0.324761
0.3126934
0.300136
0.2870586
0.2734639
0.2593434
0.2446379
0.2293064
0.213303
0.1960122
0.1780843
0.1593629
0.1397971
0.119342
0.3488246
0.337675
0.3260893
0.3140425
0.3015074
0.2884878
0.2749781
0.2609243
0.2462905
0.2310368
0.2145928
0.1975941
0.1798984
0.1614565
0.1422147
0.3604091
0.3496752
0.3385282
0.3269452
0.3149015
0.3024019
0.2894424
0.2759736
0.2619638
0.2473772
0.2316779
0.2154785
0.1986478
0.1811425
0.1629136
0.3711626
0.3608082
0.3500608
0.3388996
0.3273017
0.3152729
0.3028105
0.2898685
0.2764184
0.2624286
0.2473906
0.2318939
0.2158169
0.1991221
0.1817671
0.1080224
0.08667548
0.06739323
0.1278025
0.1070293
0.08550497
0.06586502
0.1459246
0.126021
0.1050515
0.08324103
0.0629604
0.1625599
0.1434888
0.1233702
0.1021383
0.07993763
0.05881535
0.1780061
0.1596944
0.1403987
0.1200204
0.09846886
0.07586166
0.0537324
0.1927871
0.1751844
0.1566627
0.1371289
0.1164738
0.09464623
0.07165971
0.04843444
0.2076732
0.1907686
0.1730101
0.1543158
0.1345872
0.1137677
0.09177532
0.06847665
0.0444781
0.2226418
0.2064199
0.1894056
0.1715273
0.1527005
0.1328794
0.1119894
0.08986229
0.06636161
0.04189725
0.2374942
0.2219301
0.2056291
0.1885293
0.1705575
0.15168
0.1318361
0.1108783
0.08866733
0.06504287
0.03919773
0.252096
0.23716
0.2215374
0.2051734
0.1880051
0.1700079
0.1511346
0.1312577
0.1102615
0.0880027
0.06335638
0.03730117
0.2663924
0.252055
0.2370757
0.2214066
0.2049923
0.187816
0.1698408
0.1509568
0.1310675
0.1100564
0.08691931
0.06226783
0.03585538
0.2803873
0.2666209
0.2522532
0.2372416
0.2215374
0.2051296
0.1879898
0.1700214
0.1511447
0.1312631
0.1094651
0.08635551
0.06153981
0.03473598
0.2941315
0.2809125
0.2671292
0.2527436
0.2377124
0.2220295
0.2056727
0.1885569
0.1706146
0.1517665
0.1311681
0.1093988
0.08613071
0.06110076
0.03377991
0.3077191
0.2950295
0.2818097
0.2680255
0.2536385
0.2386465
0.2230324
0.2067201
0.1896526
0.1717632
0.1522617
0.1316878
0.1097449
0.0862141
0.0607937
0.03209949
0.3212554
0.3090827
0.2964119
0.2832122
0.2694495
0.2551247
0.2402247
0.2246815
0.2084462
0.1914629
0.1729983
0.153571
0.1328929
0.1107121
0.08661716
0.05923254
0.03027926
0.3346936
0.3230244
0.3108883
0.2982575
0.2851014
0.2714226
0.2572121
0.2424091
0.2269718
0.2108529
0.1934095
0.1752502
0.1562064
0.1362334
0.1153358
0.3475334
0.3363355
0.3246982
0.3125967
0.3000031
0.2869213
0.2733453
0.2592203
0.2445099
0.2291732
0.2126284
0.1955017
0.1776504
0.1590327
0.1396094
0.3595605
0.3487954
0.3376153
0.3259972
0.3139162
0.301377
0.2883755
0.2748618
0.2608038
0.2461655
0.230406
0.2141371
0.1972273
0.1796355
0.1613154
0.3707504
0.3603811
0.349618
0.3384401
0.3268244
0.3147769
0.3022947
0.2893317
0.2758591
0.2618451
0.2467797
0.2312526
0.215142
0.1984108
0.1810171
0.3811433
0.3711357
0.3607532
0.3499762
0.3387836
0.327182
0.3151701
0.3027044
0.2897589
0.2763051
0.2618585
0.2469869
0.2315764
0.2155945
0.1990051
0.1286669
0.1079585
0.08653953
0.06717478
0.1475433
0.127743
0.1069038
0.08530386
0.06557611
0.1648084
0.1458685
0.1259035
0.1048649
0.08297381
0.06267006
0.1806722
0.1625065
0.1433774
0.1231944
0.1018889
0.07966814
0.05856787
0.1954202
0.1779546
0.1595873
0.1402303
0.1197832
0.09821515
0.07563014
0.05347241
0.2095493
0.1927368
0.17508
0.1564992
0.1368997
0.1162303
0.09442512
0.07141458
0.04815126
0.2237933
0.2076252
0.1906693
0.1728551
0.1540993
0.1343587
0.1135619
0.09155066
0.06822671
0.044186
0.238132
0.2225965
0.2063262
0.1892597
0.1713242
0.1524871
0.1326888
0.1117836
0.0896377
0.06611164
0.04047944
0.252375
0.2374512
0.2218414
0.2054913
0.188338
0.1703572
0.1515022
0.1316458
0.1106731
0.08844347
0.06383704
0.03785101
0.2663924
0.252055
0.2370757
0.2214066
0.2049923
0.187816
0.1698408
0.1509568
0.1310675
0.1100564
0.08691931
0.06226783
0.03585538
0.2801303
0.2663533
0.2519745
0.236951
0.2212341
0.2048127
0.1876579
0.1696732
0.1507785
0.1308767
0.1090593
0.08593781
0.06111351
0.03429371
0.2935904
0.2803498
0.2665436
0.2521338
0.2370767
0.221366
0.204979
0.1878305
0.1698525
0.1509649
0.1303298
0.1085439
0.08528261
0.06027751
0.03299134
0.3068202
0.2940953
0.2808381
0.2670143
0.2525852
0.237548
0.2218852
0.2055203
0.1883956
0.1704435
0.1508814
0.1302746
0.1083425
0.08488808
0.05962992
0.0313155
0.3199091
0.3076841
0.2949577
0.2816989
0.267873
0.2534805
0.2385078
0.222886
0.2065654
0.1894886
0.1709171
0.1513766
0.1306049
0.1084254
0.08461154
0.05847999
0.02990141
0.332958
0.321222
0.309014
0.2963059
0.2830665
0.2692987
0.2549925
0.2400856
0.2245348
0.2082912
0.1906654
0.1721606
0.1525169
0.131516
0.1088034
0.08320307
0.05700553
0.02829193
0.3459209
0.3346623
0.3229604
0.3107896
0.2981219
0.2849612
0.2713009
0.2570852
0.2422766
0.2268333
0.210148
0.1928076
0.1746593
0.1556698
0.1358518
0.3583149
0.3475039
0.336275
0.3246052
0.312469
0.2998712
0.2868075
0.2732273
0.2590979
0.2443827
0.22853
0.2121429
0.1950901
0.1773382
0.158856
0.3699313
0.3595323
0.3487378
0.3375267
0.3258757
0.3137908
0.3012691
0.2882639
0.2747464
0.2606842
0.2455629
0.2299715
0.2137881
0.1969779
0.179502
0.3807452
0.3707235
0.360326
0.3495331
0.3383238
0.3267045
0.3146738
0.3021883
0.2892217
0.2757454
0.2612732
0.2463733
0.2309317
0.2149165
0.1982918
0.390794
0.3811174
0.3710827
0.3606716
0.3498644
0.3386684
0.3270831
0.315068
0.3025991
0.2896502
0.2757588
0.2614722
0.2466835
0.2313643
0.2154832
0.1483565
0.1286077
0.1078336
0.08633955
0.06688811
0.1663387
0.1474877
0.1276265
0.106719
0.08503979
0.06529056
0.1828052
0.1647557
0.1457587
0.1257303
0.1046197
0.0827096
0.06242983
0.1979561
0.1806218
0.1624018
0.1432131
0.1229633
0.1016422
0.07944486
0.05832174
0.2120594
0.1953714
0.1778535
0.1594291
0.1400089
0.1195485
0.09800406
0.07539898
0.05321256
0.2255853
0.2095016
0.192638
0.1749258
0.156284
0.1366726
0.1160262
0.09420263
0.07116789
0.04786567
0.2392337
0.2237478
0.2075311
0.1905227
0.172651
0.1538849
0.134167
0.1133549
0.09132455
0.06797515
0.0427626
0.2529861
0.2380888
0.2225073
0.2061877
0.1890674
0.1711229
0.1523083
0.1324972
0.1115769
0.08941204
0.06489603
0.03907975
0.2666601
0.252334
0.2373666
0.2217102
0.2053097
0.1881484
0.1701896
0.1513238
0.1314548
0.1104672
0.08735507
0.06272882
0.0363606
0.2801303
0.2663533
0.2519745
0.236951
0.2212341
0.2048127
0.1876579
0.1696732
0.1507785
0.1308767
0.1090593
0.08593781
0.06111351
0.03429371
0.2933433
0.2800928
0.2662762
0.2518553
0.2367865
0.2210632
0.2046625
0.1874992
0.1695051
0.1505996
0.1299483
0.1081551
0.0848963
0.05989947
0.03262683
0.3062997
0.2935544
0.2802758
0.2664293
0.2519762
0.2369131
0.2212225
0.2048278
0.1876707
0.169683
0.1500894
0.1294713
0.1075539
0.08414291
0.05895319
0.03078728
0.3190438
0.3067855
0.294024
0.280728
0.2668628
0.2524281
0.2374103
0.2217401
0.2053672
0.1882336
0.1696084
0.1500422
0.1292884
0.1071939
0.08355986
0.05779221
0.02946145
0.331661
0.3198756
0.3076153
0.2948515
0.2815528
0.2677217
0.2533479
0.2383681
0.2227387
0.2064096
0.188687
0.1700811
0.1503579
0.1293711
0.1069421
0.0825222
0.05664845
0.02810382
0.3442478
0.3329258
0.321156
0.3089123
0.2961661
0.2829219
0.2691722
0.2548595
0.2399455
0.2243871
0.2075331
0.189871
0.1711639
0.1512203
0.1297294
0.1056392
0.08119251
0.05523662
0.02677724
0.3567594
0.3458908
0.3346007
0.3228654
0.3106593
0.2979873
0.2848445
0.2711794
0.2569585
0.2421444
0.2261614
0.2095756
0.1922471
0.1741519
0.1553105
0.3687291
0.3582864
0.3474457
0.3361855
0.3244824
0.3123423
0.299762
0.2866944
0.2731101
0.2589762
0.2437683
0.2280672
0.2117514
0.194794
0.1771711
0.3799542
0.3699042
0.3594769
0.3486525
0.3374097
0.3257551
0.3136871
0.3011619
0.2881532
0.2746318
0.2601075
0.2451478
0.2296388
0.2135508
0.1968513
0.3904093
0.3807192
0.3706703
0.3602442
0.3494211
0.3382083
0.3266053
0.3145715
0.3020827
0.2891127
0.2751973
0.2608844
0.2460667
0.2307167
0.2148033
0.4001292
0.3907689
0.3810662
0.371004
0.3605639
0.3497534
0.3385732
0.326985
0.3149668
0.3024947
0.289126
0.2753886
0.2611819
0.2464808
0.2312581
0.1671076
0.1483011
0.1284917
0.1076497
0.08607695
0.06660477
0.1842572
0.1662864
0.1473788
0.127455
0.1064763
0.08477866
0.06505439
0.1999854
0.1827555
0.1646524
0.1455967
0.1255027
0.1043771
0.082491
0.06219134
0.2144772
0.1979085
0.180523
0.1622474
0.142997
0.1227346
0.1014378
0.07922289
0.05807698
0.2279828
0.2120131
0.1952757
0.1777042
0.159221
0.1397896
0.1193531
0.09779331
0.07516819
0.05295284
0.240948
0.2255399
0.2094078
0.192492
0.1747227
0.1560708
0.1364822
0.1158208
0.09397874
0.07091963
0.04647347
0.2540416
0.2391903
0.2236582
0.2073918
0.1903295
0.1724488
0.1537051
0.1339741
0.1131464
0.09109698
0.06674968
0.04129186
0.2672463
0.2529449
0.2380038
0.2223755
0.2060052
0.1888769
0.1709544
0.1521286
0.1323047
0.1113691
0.08831348
0.06374502
0.03748888
0.2803873
0.2666209
0.2522532
0.2372416
0.2215374
0.2051296
0.1879898
0.1700214
0.1511447
0.1312631
0.1094651
0.08635551
0.06153981
0.03473598
0.2933433
0.2800928
0.2662762
0.2518553
0.2367865
0.2210632
0.2046625
0.1874992
0.1695051
0.1505996
0.1299483
0.1081551
0.0848963
0.05989947
0.03262683
0.306062
0.2933074
0.280019
0.2661622
0.2516982
0.2366234
0.2209202
0.2045119
0.1873401
0.1693364
0.1497287
0.1291057
0.1071943
0.08380001
0.05863415
0.0305256
0.3185428
0.3062652
0.2934835
0.2801663
0.2662785
0.2518199
0.2367763
0.2210786
0.204676
0.1875102
0.1688573
0.1492833
0.1285474
0.1065009
0.08294616
0.0573141
0.02912074
0.3308274
0.3190104
0.306717
0.2939183
0.2805827
0.2667123
0.2522965
0.2372719
0.2215943
0.2052132
0.1874427
0.1688162
0.1491151
0.128215
0.1059651
0.0818981
0.05622433
0.02785138
0.3429975
0.3316288
0.3198094
0.3075132
0.2947113
0.2814077
0.2675947
0.2532143
0.2382275
0.2225903
0.2056478
0.1878946
0.1691184
0.1491966
0.1279832
0.1050066
0.0808646
0.05502419
0.02666673
0.3551455
0.3442168
0.3328624
0.3210582
0.308778
0.2960273
0.2828006
0.2690448
0.2547256
0.2398045
0.2236647
0.2067776
0.1889254
0.1699374
0.1495374
0.1267653
0.1037782
0.07958891
0.05379378
0.02561201
0.3672278
0.3567305
0.3458315
0.3345094
0.3227401
0.31053
0.2978753
0.284728
0.2710581
0.256832
0.2415027
0.2256158
0.2090424
0.1917657
0.1738121
0.3787932
0.3687017
0.3582304
0.3473595
0.3360673
0.3243605
0.3122373
0.2996534
0.2865819
0.2729935
0.2583884
0.2433262
0.2276939
0.2114696
0.1946355
0.389645
0.379928
0.3698507
0.3593946
0.3485398
0.3372936
0.3256553
0.3135841
0.3010556
0.2880433
0.2740791
0.2597103
0.2448299
0.2294125
0.2134303
0.3997574
0.3903842
0.3806679
0.3705914
0.3601361
0.3493098
0.3381128
0.3265069
0.31447
0.3019779
0.2885868
0.2748247
0.260591
0.2458612
0.2306087
0.4091627
0.400105
0.3907195
0.3809903
0.3709001
0.3604568
0.3496616
0.3384787
0.3268876
0.3148665
0.3019911
0.2887708
0.2751103
0.2609879
0.2463793
0.1849869
0.1670555
0.1481926
0.1283209
0.1074081
0.08581727
0.06637044
0.2013669
0.1842078
0.1661839
0.1472182
0.1272294
0.1062361
0.08456271
0.06482003
0.216412
0.1999383
0.1826579
0.1645
0.1453837
0.1252775
0.1041765
0.08227401
0.06195457
0.2302922
0.2144319
0.1978148
0.1803771
0.1620441
0.1427831
0.1225451
0.1012346
0.07900223
0.0578336
0.2432416
0.2279387
0.2119223
0.1951343
0.1775077
0.1590149
0.1396072
0.1191581
0.0975829
0.07493778
0.05169731
0.2556839
0.2409048
0.2254507
0.2092692
0.1922997
0.1745215
0.1558919
0.1362905
0.115614
0.09375344
0.06971013
0.04501589
0.2682587
0.2540001
0.2391048
0.2235257
0.2072084
0.190138
0.1722791
0.153524
0.1337799
0.1129367
0.08998729
0.06554011
0.03954702
0.2809502
0.2672069
0.2528637
0.2378781
0.2222018
0.2058243
0.1887173
0.1707849
0.151948
0.1321112
0.1103569
0.08727465
0.06247747
0.03571597
0.2935904
0.2803498
0.2665436
0.2521338
0.2370767
0.221366
0.204979
0.1878305
0.1698525
0.1509649
0.1303298
0.1085439
0.08528261
0.06027751
0.03299134
0.306062
0.2933074
0.280019
0.2661622
0.2516982
0.2366234
0.2209202
0.2045119
0.1873401
0.1693364
0.1497287
0.1291057
0.1071943
0.08380001
0.05863415
0.0305256
0.3183139
0.3060276
0.2932366
0.2799098
0.2660118
0.2515423
0.236487
0.2207768
0.2043608
0.1871804
0.1685151
0.1489379
0.1282094
0.1061817
0.08265616
0.05707256
0.0289405
0.3303447
0.3185096
0.3061971
0.2933784
0.2800217
0.2661289
0.2516891
0.236639
0.2209341
0.2045236
0.1867283
0.1680966
0.1484152
0.1275638
0.1053941
0.08146258
0.05588875
0.02763703
0.3421939
0.3307953
0.3189447
0.3066156
0.2937789
0.2804385
0.2665863
0.2521642
0.2371327
0.2214477
0.2044619
0.186692
0.1679404
0.1481054