/*--------------------------------*- C++ -*----------------------------------*\
| =========                 |                                                 |
| \\      /  F ield         | OpenFOAM: The Open Source CFD Toolbox           |
|  \\    /   O peration     | Version:  2306                                  |
|   \\  /    A nd           | Website:  www.openfoam.com                      |
|    \\/     M anipulation  |                                                 |
\*---------------------------------------------------------------------------*/
FoamFile
{
    version     2.0;
    format      ascii;
    arch        "LSB;label=32;scalar=64";
    class       volScalarField;
    location    "0.6/fuel";
    object      X.H2;
}
// * * * * * * * * * * * * * * * * * * * * * * * * * * * * * * * * * * * * * //

dimensions      [0 0 0 0 0 0 0];

internalField   nonuniform List<scalar> 
16000
(
0.9323819
0.9336882
0.9132549
0.9324581
0.9362914
0.9142883
0.933765
0.8919776
0.9133245
0.9326068
0.9401164
0.9163462
0.9363695
0.8929065
0.9143583
0.9339148
0.8713331
0.8920415
0.9134605
0.9328252
0.9448905
0.9193687
0.9401968
0.8947568
0.9164171
0.9365219
0.8721975
0.8929707
0.914495
0.934135
0.8516435
0.8713923
0.8921664
0.9136604
0.9331119
0.949822
0.923144
0.9449746
0.897477
0.919441
0.9403536
0.873919
0.8948217
0.9165554
0.9367458
0.8524567
0.872257
0.8930962
0.9146961
0.9344239
0.8328924
0.8516989
0.8715083
0.8923503
0.9139231
0.9333952
0.9534494
0.9270591
0.9499111
0.9008791
0.9232186
0.9451385
0.8764495
0.897543
0.9195822
0.9405839
0.8540754
0.873979
0.8949485
0.916759
0.9370396
0.8336613
0.8525123
0.8723735
0.893281
0.9149602
0.9347094
0.8150131
0.8329445
0.8518074
0.8716791
0.8925919
0.9141827
0.9336296
0.9557296
0.9299776
0.9535406
0.9044128
0.9271369
0.9500848
0.8796142
0.9009469
0.9233644
0.9453793
0.8564543
0.8765104
0.8976719
0.9197898
0.9408861
0.8351916
0.8541315
0.8740965
0.8951351
0.9170262
0.9373299
0.8157428
0.8337136
0.8526212
0.872545
0.8935237
0.9152213
0.9349456
0.7979387
0.8150623
0.8330466
0.8519674
0.8719037
0.892831
0.9143975
0.9338621
0.9570204
0.9318443
0.9558214
0.9070517
0.9300564
0.9537183
0.8829017
0.9044832
0.9272889
0.9503401
0.8594288
0.8796768
0.9010795
0.9235787
0.9456953
0.8374401
0.8565112
0.8766298
0.8978617
0.9200624
0.9411847
0.8171948
0.8352443
0.8542413
0.8742697
0.8953803
0.9172904
0.9375702
0.7986331
0.8157922
0.8338161
0.8527818
0.8727706
0.8937639
0.9154373
0.93518
0.7816082
0.7979853
0.8151588
0.8331972
0.8521779
0.8721261
0.8930286
0.9146106
0.9340928
0.9576002
0.9329195
0.9571124
0.9087436
0.9319232
0.9560003
0.8853579
0.9071228
0.9302103
0.9539793
0.8625184
0.8829665
0.9046209
0.9275125
0.9506751
0.8402509
0.8594871
0.8797992
0.9012747
0.9238601
0.9460075
0.8193278
0.8374935
0.8566226
0.8768056
0.8981111
0.9203319
0.9414321
0.8000146
0.8172445
0.8353476
0.8544033
0.8744973
0.8956229
0.917509
0.9378087
0.7822705
0.7986799
0.815889
0.8339673
0.8529931
0.8729939
0.8939625
0.9156516
0.9354125
0.7659678
0.7816525
0.7980768
0.8153012
0.8333955
0.8523862
0.8723099
0.8932248
0.914822
0.9343217
0.9576002
0.9334085
0.9576922
0.9097203
0.9329983
0.9572916
0.8869339
0.9088146
0.9320773
0.9562629
0.8648272
0.8854232
0.9072618
0.9304368
0.9543219
0.84317
0.8625787
0.8830934
0.9048236
0.9278062
0.9510064
0.8219939
0.8403056
0.8596013
0.8799796
0.9015311
0.9241383
0.9462676
0.8020439
0.8193782
0.8375982
0.8567869
0.8770367
0.8983578
0.9205551
0.9416783
0.783588
0.8000617
0.8173421
0.8355
0.8546163
0.8747225
0.8958235
0.917726
0.9380454
0.7666007
0.782315
0.7987717
0.816032
0.8341662
0.8532022
0.8731785
0.8941596
0.9158642
0.9356433
0.75097
0.76601
0.7817395
0.7982119
0.8154888
0.8335918
0.8525585
0.8724923
0.8934194
0.9150318
0.9354215
0.9570204
0.9334085
0.9576922
0.9101653
0.9334872
0.9578715
0.8878446
0.9097911
0.9331521
0.9575547
0.8663095
0.886999
0.9089533
0.9323039
0.9566075
0.8453517
0.8648879
0.885551
0.9074664
0.9307342
0.9546605
0.8247624
0.8432265
0.8626968
0.8832803
0.9050901
0.9280967
0.9512848
0.8045798
0.8220454
0.8404127
0.8597697
0.8802168
0.9017849
0.9243699
0.9465276
0.7855228
0.8020915
0.819477
0.8377526
0.857003
0.8772654
0.8985622
0.9207771
0.941923
0.7678594
0.7836327
0.8001542
0.8174861
0.8357005
0.8548272
0.8749089
0.8960227
0.9179414
0.9382805
0.7515757
0.766643
0.7824022
0.7989073
0.8162201
0.8343633
0.8533752
0.8733617
0.8943552
0.9160752
0.9367517
0.7365726
0.7510103
0.7660929
0.781868
0.7983899
0.8156745
0.8337542
0.8527294
0.8726733
0.8936125
0.9160404
0.9361706
0.9557296
0.9329195
0.9571124
0.9101653
0.9334872
0.9578715
0.8882598
0.910236
0.933641
0.9581348
0.8671665
0.8879095
0.9099295
0.9333784
0.9578998
0.8467527
0.8663699
0.8871265
0.9091576
0.9326014
0.9569481
0.8268315
0.8454084
0.8650068
0.8857394
0.9077354
0.9310283
0.9549452
0.8072129
0.8248156
0.8433373
0.8628711
0.8835262
0.9053538
0.9283403
0.9515656
0.7879406
0.8046286
0.8221465
0.8405709
0.8599911
0.8804515
0.9019959
0.924601
0.9467874
0.7697078
0.7855681
0.8021852
0.8196229
0.8379559
0.8572169
0.8774549
0.8987654
0.9209978
0.9421664
0.7527802
0.767902
0.7837206
0.8002907
0.8176757
0.835899
0.8550016
0.8750938
0.8962205
0.9181552
0.9394098
0.7371531
0.7516161
0.7667262
0.7825312
0.7990858
0.8164066
0.8345262
0.8535468
0.8735435
0.8945492
0.9170896
0.9375101
0.7227379
0.7366111
0.7510894
0.7662154
0.7820374
0.7985663
0.8158282
0.8339152
0.8528991
0.8728528
0.8945414
0.9167265
0.9367344
0.9534494
0.9318443
0.9558214
0.9097203
0.9329983
0.9572916
0.8882598
0.910236
0.933641
0.9581348
0.8675574
0.8883246
0.9103742
0.933867
0.95848
0.8475631
0.8672267
0.8880365
0.9101332
0.9336755
0.9582409
0.8281607
0.8468093
0.8664884
0.8873144
0.9094261
0.9328956
0.9572339
0.8091809
0.826885
0.8455198
0.8651821
0.8859871
0.9080015
0.931275
0.9552323
0.7904507
0.8072632
0.82492
0.8435008
0.8631003
0.8837697
0.9055749
0.9285854
0.9518487
0.7720172
0.7879869
0.8047243
0.8222958
0.840779
0.8602104
0.8806469
0.9022067
0.9248318
0.9470472
0.7545488
0.7697509
0.7856571
0.8023234
0.819815
0.8381571
0.8573941
0.8776433
0.8989674
0.9212171
0.9433376
0.7383072
0.7528208
0.7679857
0.7838504
0.8004706
0.8178634
0.8360633
0.8551748
0.8752775
0.8964168
0.9191834
0.940195
0.7232948
0.7371917
0.7516955
0.7668491
0.7827011
0.7992628
0.8165607
0.8346879
0.8537171
0.8737238
0.8954827
0.917782
0.9380834
0.7094317
0.7227747
0.7366868
0.7512065
0.7663769
0.7822052
0.7987121
0.8159806
0.8340751
0.8530673
0.8737171
0.8951727
0.9172425
0.9371114
0.949822
0.9299776
0.9535406
0.9087436
0.9319232
0.9560003
0.8878446
0.9097911
0.9331521
0.9575547
0.8675574
0.8883246
0.9103742
0.933867
0.95848
0.8479329
0.8676175
0.8884514
0.9105776
0.9341638
0.9588212
0.8289297
0.8476195
0.8673447
0.8882237
0.910401
0.9339692
0.9585267
0.8104453
0.8282139
0.8469202
0.8666631
0.8875614
0.9096918
0.933142
0.9575216
0.7923268
0.8092314
0.8269899
0.8456842
0.8654128
0.8862323
0.9082247
0.9315234
0.9555219
0.7744147
0.7904984
0.807362
0.8250742
0.843716
0.8633274
0.8839738
0.9057974
0.9288321
0.9521343
0.7567584
0.7720613
0.7880777
0.8048657
0.8224923
0.8409851
0.8603928
0.8808419
0.9024171
0.9250622
0.9483027
0.7400018
0.7545899
0.7698356
0.7857885
0.8025055
0.8200052
0.8383239
0.8575703
0.8778306
0.8991682
0.9222733
0.9441959
0.724402
0.738346
0.7529007
0.7681094
0.7840215
0.8006487
0.8180188
0.8362264
0.8553467
0.8754597
0.8973613
0.9198945
0.9407994
0.7099666
0.7233317
0.7372676
0.7518129
0.7670111
0.7828695
0.7994091
0.8167137
0.8348483
0.8538861
0.8745919
0.8961191
0.9183046
0.9384685
0.6966237
0.709467
0.7228472
0.7367987
0.7513608
0.7665371
0.782344
0.7988568
0.8161318
0.8342336
0.8538775
0.874304
0.8956474
0.9175873
0.9373003
0.9448905
0.9270591
0.9499111
0.9070517
0.9300564
0.9537183
0.8869339
0.9088146
0.9320773
0.9562629
0.8671665
0.8879095
0.9099295
0.9333784
0.9578998
0.8479329
0.8676175
0.8884514
0.9105776
0.9341638
0.9588212
0.8292807
0.8479891
0.8677353
0.8886383
0.9108449
0.9344573
0.9591069
0.811177
0.8289827
0.84773
0.8675187
0.8884699
0.9106658
0.9342149
0.9588139
0.7935324
0.8104956
0.8283184
0.847084
0.866893
0.8878059
0.9099142
0.9333896
0.9578112
0.7762067
0.7923748
0.8093307
0.8271449
0.8459007
0.8656413
0.8864381
0.9084493
0.9317733
0.955814
0.759052
0.7744601
0.7905922
0.807508
0.8252773
0.8439292
0.8635178
0.8841792
0.9060213
0.9290804
0.9535265
0.7421187
0.7568003
0.7721478
0.7882121
0.8050519
0.8226869
0.8411565
0.860575
0.8810366
0.9026271
0.9261762
0.9493587
0.7260277
0.7400411
0.7546707
0.7699608
0.7859616
0.8026859
0.8201628
0.8384897
0.8577455
0.8780167
0.9001356
0.9230367
0.944898
0.71103
0.7244392
0.7384224
0.7530188
0.7682725
0.784191
0.8007961
0.818173
0.8363882
0.8555173
0.8763372
0.8980136
0.9204393
0.9412125
0.6971379
0.710002
0.7234044
0.7373798
0.7519676
0.7671717
0.7830087
0.7995543
0.8168655
0.8350075
0.8546997
0.8751834
0.8965995
0.9186552
0.938662
0.6842861
0.6966575
0.7095365
0.7229544
0.7369464
0.7515138
0.7666694
0.7824818
0.7990004
0.8162819
0.8349973
0.8544275
0.8747453
0.8959645
0.9177599
0.9401164
0.923144
0.9449746
0.9044128
0.9271369
0.9500848
0.8853579
0.9071228
0.9302103
0.9539793
0.8663095
0.886999
0.9089533
0.9323039
0.9566075
0.8475631
0.8672267
0.8880365
0.9101332
0.9336755
0.9582409
0.8292807
0.8479891
0.8677353
0.8886383
0.9108449
0.9344573
0.9591069
0.811511
0.8293336
0.8480994
0.867909
0.8888839
0.9111094
0.9347025
0.9593938
0.7942301
0.8112271
0.8290867
0.847893
0.8677477
0.8887135
0.9108873
0.9344614
0.9591027
0.7773582
0.7935801
0.8105944
0.8284727
0.8472995
0.8671206
0.8880106
0.9101377
0.9336384
0.9581027
0.7607663
0.7762522
0.7924689
0.8094773
0.827349
0.8461151
0.865833
0.8866451
0.9086754
0.9320249
0.9572374
0.7443161
0.7590952
0.7745493
0.7907308
0.8077003
0.8254785
0.8441081
0.8637095
0.884386
0.9062466
0.9302899
0.9549841
0.7280583
0.7421588
0.7568829
0.7722757
0.788389
0.8052364
0.8228489
0.8413278
0.8607568
0.8812309
0.9036435
0.9270843
0.9503709
0.7125912
0.7260653
0.7401183
0.7547902
0.7701258
0.7861332
0.8028354
0.8203195
0.8386545
0.8579196
0.8789143
0.9008334
0.9236528
0.9454101
0.6981602
0.7110656
0.7245123
0.7385354
0.7531746
0.7684341
0.7843312
0.8009425
0.8183261
0.8365489
0.8563392
0.8769428
0.8985131
0.9208101
0.941423
0.6847809
0.6971719
0.7100717
0.7235119
0.7375279
0.7521211
0.7673045
0.7831469
0.7996984
0.8170161
0.8357742
0.8552537
0.8756297
0.8969215
0.9188312
0.6723937
0.6843186
0.6967242
0.7096394
0.7230959
0.7370928
0.7516403
0.7668008
0.7826184
0.7991428
0.8170046
0.8355154
0.8548409
0.8750401
0.8961233
0.9362914
0.9193687
0.9401968
0.9008791
0.9232186
0.9451385
0.8829017
0.9044832
0.9272889
0.9503401
0.8648272
0.8854232
0.9072618
0.9304368
0.9543219
0.8467527
0.8663699
0.8871265
0.9091576
0.9326014
0.9569481
0.8289297
0.8476195
0.8673447
0.8882237
0.910401
0.9339692
0.9585267
0.811511
0.8293336
0.8480994
0.867909
0.8888839
0.9111094
0.9347025
0.9593938
0.7945487
0.811561
0.8294374
0.848262
0.8681374
0.889127
0.9113304
0.9349485
0.9596821
0.7780248
0.7942776
0.8113254
0.8292403
0.8481075
0.8679743
0.8889172
0.9111096
0.9347089
0.9593929
0.761868
0.7774035
0.7936738
0.8107403
0.8286758
0.8475129
0.8673112
0.8882164
0.9103623
0.9338884
0.9595206
0.7459584
0.7608097
0.7763418
0.7926082
0.8096705
0.8275512
0.8462949
0.8660259
0.8868536
0.908903
0.9332503
0.9587081
0.730166
0.7443574
0.7591804
0.7746813
0.7909136
0.807891
0.8256473
0.8442881
0.8639023
0.8845941
0.9073452
0.9314958
0.9567789
0.7145412
0.7280967
0.7422377
0.7570049
0.7724443
0.7885644
0.8053899
0.8230106
0.8414988
0.8609384
0.8821721
0.9044692
0.9279305
0.9512631
0.6996608
0.7126272
0.7261392
0.7402326
0.7549478
0.7702893
0.7862754
0.8029841
0.8204753
0.8388183
0.8587595
0.8795611
0.9013958
0.9240965
0.945687
0.6857644
0.6981943
0.7111357
0.7246205
0.7386844
0.753329
0.7685679
0.7844705
0.8010877
0.818478
0.8373231
0.8569061
0.8774065
0.8988529
0.9209984
0.6728701
0.6848135
0.6972388
0.7101748
0.7236538
0.7376747
0.752248
0.7674363
0.783284
0.7998413
0.8177416
0.8362961
0.8556718
0.8759289
0.8970832
0.6609231
0.672425
0.6843827
0.696823
0.7097751
0.7232362
0.7372139
0.7517658
0.7669311
0.782754
0.799829
0.8174949
0.835905
0.8551171
0.8751877
0.9336882
0.9163462
0.9363695
0.897477
0.919441
0.9403536
0.8796142
0.9009469
0.9233644
0.9453793
0.8625184
0.8829665
0.9046209
0.9275125
0.9506751
0.8453517
0.8648879
0.885551
0.9074664
0.9307342
0.9546605
0.8281607
0.8468093
0.8664884
0.8873144
0.9094261
0.9328956
0.9572339
0.811177
0.8289827
0.84773
0.8675187
0.8884699
0.9106658
0.9342149
0.9588139
0.7945487
0.811561
0.8294374
0.848262
0.8681374
0.889127
0.9113304
0.9349485
0.9596821
0.7783291
0.794596
0.8116591
0.8295906
0.8484761
0.8683636
0.8893302
0.911552
0.9351952
0.9599716
0.7625058
0.7780699
0.7943709
0.8114707
0.8294425
0.84832
0.8681639
0.8891217
0.9113327
0.9349571
0.9608023
0.7470139
0.7619112
0.7774927
0.7938123
0.8109326
0.8288771
0.8476917
0.8675028
0.8884231
0.910588
0.935104
0.9609203
0.7317413
0.7459999
0.7608952
0.7764743
0.7927916
0.809862
0.8277209
0.846476
0.8662201
0.8870633
0.9100127
0.9344599
0.960453
0.716565
0.7302055
0.7444387
0.7593063
0.7748554
0.7910948
0.8080509
0.8258172
0.8444693
0.8640965
0.8856094
0.9084366
0.9329293
0.959045
0.7015352
0.7145779
0.7281722
0.7423544
0.7571659
0.7726114
0.7887104
0.8055432
0.8231721
0.8416695
0.861818
0.8829362
0.9052369
0.9286579
0.9518736
0.6872081
0.6996954
0.7126981
0.7262486
0.7403833
0.755104
0.7704249
0.7864167
0.8031318
0.8206301
0.8396089
0.8593644
0.8800824
0.9018004
0.924334
0.6738171
0.6857972
0.6982616
0.7112395
0.7247632
0.7388321
0.7534568
0.7687006
0.7846087
0.8012319
0.8192104
0.8378568
0.8573402
0.8777219
0.8990254
0.6613822
0.6729015
0.6848777
0.6973378
0.7103109
0.7237945
0.7377962
0.7523739
0.767567
0.78342
0.80053
0.8182353
0.8366899
0.855952
0.8760791
0.6498531
0.6609532
0.6724866
0.6844776
0.6969533
0.7099097
0.7233522
0.737334
0.7518903
0.7670604
0.7834072
0.8002944
0.8178634
0.8361652
0.8552554
0.9323819
0.9142883
0.933765
0.8947568
0.9164171
0.9365219
0.8764495
0.897543
0.9195822
0.9405839
0.8594288
0.8796768
0.9010795
0.9235787
0.9456953
0.84317
0.8625787
0.8830934
0.9048236
0.9278062
0.9510064
0.8268315
0.8454084
0.8650068
0.8857394
0.9077354
0.9310283
0.9549452
0.8104453
0.8282139
0.8469202
0.8666631
0.8875614
0.9096918
0.933142
0.9575216
0.7942301
0.8112271
0.8290867
0.847893
0.8677477
0.8887135
0.9108873
0.9344614
0.9591027
0.7783291
0.794596
0.8116591
0.8295906
0.8484761
0.8683636
0.8893302
0.911552
0.9351952
0.9599716
0.7627971
0.7783741
0.7946891
0.811804
0.8297923
0.8486881
0.8685526
0.8895341
0.9117743
0.9354427
0.9613766
0.747625
0.7625488
0.7781586
0.7945087
0.811662
0.8296428
0.8484978
0.8683542
0.8893269
0.9115565
0.936163
0.962149
0.7327537
0.7470551
0.7619962
0.7776245
0.7939948
0.8111231
0.8290456
0.8478714
0.8676953
0.8886309
0.9116865
0.936255
0.9625111
0.7180776
0.7317809
0.7460815
0.7610215
0.776649
0.7929735
0.8100227
0.8278917
0.8466583
0.8664157
0.8880871
0.9111055
0.935849
0.9624884
0.7034803
0.7166029
0.7302833
0.744559
0.7594723
0.7750279
0.7912467
0.8082119
0.8259883
0.8446516
0.8650444
0.8866184
0.9097313
0.9346925
0.962037
0.6890112
0.7015704
0.7146502
0.7282839
0.7425083
0.7573254
0.7727505
0.7888562
0.8056964
0.8233334
0.8424968
0.8625321
0.8836468
0.9058954
0.9291451
0.6752071
0.6872413
0.6997633
0.712803
0.7263929
0.7405327
0.7552334
0.7705596
0.7865573
0.8032787
0.8213776
0.8401782
0.8598521
0.8804574
0.9020167
0.6622946
0.6738486
0.6858618
0.6983612
0.7113764
0.7249048
0.7389544
0.7535836
0.7688324
0.7847458
0.801927
0.8197151
0.8382655
0.8576354
0.877882
0.6502958
0.6614124
0.6729632
0.6849729
0.6974684
0.7104459
0.7239109
0.7379167
0.7524988
0.7676968
0.7840756
0.8009986
0.8186078
0.8369539
0.8560927
0.6391639
0.6498821
0.6610125
0.6725778
0.6846028
0.6970826
0.710021
0.7234673
0.7374532
0.7520139
0.7676836
0.7838501
0.8006442
0.8181096
0.8362955
0.9132549
0.9324581
0.8929065
0.9143583
0.9339148
0.873919
0.8948217
0.9165554
0.9367458
0.8564543
0.8765104
0.8976719
0.9197898
0.9408861
0.8402509
0.8594871
0.8797992
0.9012747
0.9238601
0.9460075
0.8247624
0.8432265
0.8626968
0.8832803
0.9050901
0.9280967
0.9512848
0.8091809
0.826885
0.8455198
0.8651821
0.8859871
0.9080015
0.931275
0.9552323
0.7935324
0.8104956
0.8283184
0.847084
0.866893
0.8878059
0.9099142
0.9333896
0.9578112
0.7780248
0.7942776
0.8113254
0.8292403
0.8481075
0.8679743
0.8889172
0.9111096
0.9347089
0.9593929
0.7627971
0.7783741
0.7946891
0.811804
0.8297923
0.8486881
0.8685526
0.8895341
0.9117743
0.9354427
0.9613766
0.747904
0.76284
0.7784626
0.7948266
0.8119949
0.8299921
0.8488654
0.8687423
0.8897385
0.9119973
0.9366436
0.9626988
0.7333399
0.747666
0.7626334
0.7782898
0.7946903
0.8118516
0.8298104
0.8486762
0.8685452
0.8895328
0.9126449
0.9372712
0.9636394
0.7190498
0.7327931
0.7471363
0.7621219
0.7777982
0.7941757
0.8112827
0.8292151
0.848052
0.8678888
0.8896431
0.9127254
0.9375225
0.964284
0.7049341
0.7181156
0.731859
0.7462022
0.7611882
0.7768222
0.7931262
0.8101845
0.8280637
0.8468418
0.8673703
0.8890961
0.9123595
0.9374299
0.9648201
0.6908825
0.7035166
0.7166774
0.7303985
0.7447178
0.7596371
0.7751727
0.7913997
0.808374
0.8261604
0.8455425
0.8659871
0.8878162
0.9113213
0.9369811
0.9670108
0.6769431
0.6890451
0.7016398
0.7147573
0.7284312
0.7426609
0.7574583
0.7728894
0.7890018
0.8058492
0.8241151
0.8431684
0.8631965
0.8842564
0.9063359
0.6636339
0.675239
0.6873066
0.699864
0.7129414
0.7265361
0.7406566
0.7553621
0.7706936
0.786697
0.8039878
0.8219157
0.8406371
0.8602029
0.880658
0.6511754
0.662325
0.6739107
0.6859575
0.6984926
0.7115122
0.7250219
0.7390757
0.7537095
0.7689632
0.7854072
0.8024059
0.8201016
0.8385435
0.8577853
0.6395909
0.6503248
0.6614718
0.6730548
0.6850985
0.6975981
0.7105576
0.7240264
0.7380362
0.7526228
0.7683221
0.7845215
0.8013522
0.8188575
0.8370864
0.6288374
0.6391918
0.6499392
0.6611004
0.6726983
0.6847271
0.6971895
0.7101315
0.7235816
0.7375714
0.7526094
0.7681061
0.7841831
0.8008779
0.8182329
0.8919776
0.9133245
0.9326068
0.8721975
0.8929707
0.914495
0.934135
0.8540754
0.873979
0.8949485
0.916759
0.9370396
0.8374401
0.8565112
0.8766298
0.8978617
0.9200624
0.9411847
0.8219939
0.8403056
0.8596013
0.8799796
0.9015311
0.9241383
0.9462676
0.8072129
0.8248156
0.8433373
0.8628711
0.8835262
0.9053538
0.9283403
0.9515656
0.7923268
0.8092314
0.8269899
0.8456842
0.8654128
0.8862323
0.9082247
0.9315234
0.9555219
0.7773582
0.7935801
0.8105944
0.8284727
0.8472995
0.8671206
0.8880106
0.9101377
0.9336384
0.9581027
0.7625058
0.7780699
0.7943709
0.8114707
0.8294425
0.84832
0.8681639
0.8891217
0.9113327
0.9349571
0.9608023
0.747904
0.76284
0.7784626
0.7948266
0.8119949
0.8299921
0.8488654
0.8687423
0.8897385
0.9119973
0.9366436
0.9626988
0.7336076
0.747945
0.7629243
0.7785934
0.7950077
0.812184
0.8301592
0.8490432
0.8689325
0.8899436
0.9130807
0.9377322
0.9641446
0.7196127
0.7333791
0.7477468
0.7627584
0.7784626
0.7948704
0.8120102
0.8299786
0.8488553
0.8687369
0.8905349
0.9136445
0.9384602
0.965264
0.7058685
0.7190875
0.7328708
0.7472564
0.7622876
0.7779705
0.7943273
0.8114431
0.8293854
0.8482335
0.8688319
0.8906012
0.9138693
0.9388992
0.9662201
0.6922809
0.7049705
0.7181903
0.7319745
0.7463615
0.7613535
0.7769676
0.7932799
0.8103474
0.8282368
0.8477383
0.8683122
0.8902551
0.9137859
0.9392063
0.9679005
0.6787446
0.6909173
0.7035881
0.7167878
0.7305505
0.7448753
0.7597753
0.7753185
0.7915538
0.8085371
0.8270017
0.846429
0.8671071
0.8892879
0.9133828
0.9407675
0.9697207
0.6653064
0.6769756
0.6891117
0.7017425
0.7148986
0.7285774
0.7427879
0.7575909
0.7730282
0.7891471
0.8065905
0.8247498
0.8437936
0.8637666
0.8846642
0.6524666
0.6636645
0.6753018
0.6874033
0.6999969
0.7130787
0.7266547
0.7407797
0.7554901
0.7708268
0.7873716
0.8044983
0.8223496
0.8409673
0.8603906
0.6404395
0.6512046
0.6623847
0.6740028
0.6860838
0.698623
0.7116245
0.7251382
0.7391962
0.7538345
0.769594
0.7858629
0.8027727
0.8203645
0.8386846
0.6292496
0.6396189
0.650382
0.6615599
0.6731756
0.6852231
0.6977053
0.7106683
0.7241409
0.7381549
0.7532203
0.7687474
0.784858
0.8015892
0.8189829
0.6188567
0.6288643
0.6392468
0.6500238
0.6612164
0.672818
0.6848299
0.6972956
0.7102411
0.7236949
0.7381415
0.7530131
0.7684236
0.7844055
0.8009949
0.8713331
0.8920415
0.9134605
0.9328252
0.8524567
0.872257
0.8930962
0.9146961
0.9344239
0.8351916
0.8541315
0.8740965
0.8951351
0.9170262
0.9373299
0.8193278
0.8374935
0.8566226
0.8768056
0.8981111
0.9203319
0.9414321
0.8045798
0.8220454
0.8404127
0.8597697
0.8802168
0.9017849
0.9243699
0.9465276
0.7904507
0.8072632
0.82492
0.8435008
0.8631003
0.8837697
0.9055749
0.9285854
0.9518487
0.7762067
0.7923748
0.8093307
0.8271449
0.8459007
0.8656413
0.8864381
0.9084493
0.9317733
0.955814
0.761868
0.7774035
0.7936738
0.8107403
0.8286758
0.8475129
0.8673112
0.8882164
0.9103623
0.9338884
0.9595206
0.747625
0.7625488
0.7781586
0.7945087
0.811662
0.8296428
0.8484978
0.8683542
0.8893269
0.9115565
0.936163
0.962149
0.7336076
0.747945
0.7629243
0.7785934
0.7950077
0.812184
0.8301592
0.8490432
0.8689325
0.8899436
0.9130807
0.9377322
0.9641446
0.7198697
0.7336467
0.7480255
0.763049
0.7787659
0.7951873
0.8123421
0.8303268
0.8492215
0.8691233
0.8909407
0.9140622
0.9388865
0.9657063
0.7064096
0.7196502
0.7334564
0.7478662
0.7629233
0.778634
0.795021
0.8121695
0.8301475
0.8490351
0.8696702
0.8914561
0.9147174
0.9397225
0.9670087
0.6931798
0.7059047
0.7191619
0.7329857
0.7474148
0.762452
0.7781148
0.7944797
0.8116044
0.8295565
0.8491186
0.8697254
0.8916575
0.9151119
0.9403701
0.9686845
0.6800909
0.6923159
0.7050423
0.7183011
0.732127
0.7465195
0.7614922
0.777114
0.7934346
0.8105114
0.8290829
0.8486234
0.8693951
0.8915746
0.9153885
0.94152
0.9700986
0.667042
0.678778
0.690986
0.7036941
0.7169335
0.7307013
0.7450075
0.7599144
0.7754652
0.7917088
0.8093346
0.8278394
0.8474831
0.868484
0.8911966
0.9167969
0.9429945
0.9717081
0.6540791
0.6653377
0.6770396
0.6892104
0.7018781
0.7150388
0.7286991
0.7429148
0.7577234
0.7731667
0.789852
0.8071924
0.8253407
0.8443302
0.8641482
0.6416851
0.6524961
0.663725
0.6753948
0.687531
0.7001288
0.7131925
0.7267727
0.7409021
0.7556173
0.77147
0.7878571
0.8049099
0.8226618
0.841144
0.6300687
0.6404677
0.6512622
0.6624733
0.6741243
0.6862092
0.6987309
0.7117361
0.7252536
0.7393158
0.7544371
0.7700285
0.7862119
0.8030221
0.820498
0.6192548
0.6292765
0.639674
0.6504669
0.6616762
0.6732955
0.6853262
0.6978117
0.7107783
0.7242546
0.7387268
0.7536267
0.7690683
0.7850835
0.8017082
0.609206
0.6188826
0.6289173
0.6393284
0.6501356
0.6613316
0.6729169
0.684932
0.6974009
0.7103498
0.7242412
0.7385278
0.7533165
0.7686357
0.7845168
0.8516435
0.8713923
0.8921664
0.9136604
0.9331119
0.8336613
0.8525123
0.8723735
0.893281
0.9149602
0.9347094
0.8171948
0.8352443
0.8542413
0.8742697
0.8953803
0.9172904
0.9375702
0.8020439
0.8193782
0.8375982
0.8567869
0.8770367
0.8983578
0.9205551
0.9416783
0.7879406
0.8046286
0.8221465
0.8405709
0.8599911
0.8804515
0.9019959
0.924601
0.9467874
0.7744147
0.7904984
0.807362
0.8250742
0.843716
0.8633274
0.8839738
0.9057974
0.9288321
0.9521343
0.7607663
0.7762522
0.7924689
0.8094773
0.827349
0.8461151
0.865833
0.8866451
0.9086754
0.9320249
0.9572374
0.7470139
0.7619112
0.7774927
0.7938123
0.8109326
0.8288771
0.8476917
0.8675028
0.8884231
0.910588
0.935104
0.9609203
0.7333399
0.747666
0.7626334
0.7782898
0.7946903
0.8118516
0.8298104
0.8486762
0.8685452
0.8895328
0.9126449
0.9372712
0.9636394
0.7198697
0.7336467
0.7480255
0.763049
0.7787659
0.7951873
0.8123421
0.8303268
0.8492215
0.8691233
0.8909407
0.9140622
0.9388865
0.9657063
0.7066567
0.7199072
0.7337238
0.7481447
0.7632135
0.7789368
0.7953375
0.8125008
0.8304949
0.8494004
0.8700517
0.8918449
0.9151037
0.9401005
0.9673732
0.6937003
0.7064456
0.7197242
0.7335707
0.7480238
0.7630869
0.7787775
0.7951722
0.8123293
0.830317
0.8499106
0.8705287
0.8924461
0.9158571
0.9410468
0.9692127
0.6809562
0.6932145
0.705976
0.719272
0.7331372
0.7475719
0.7625897
0.7782599
0.7946328
0.8117664
0.8303916
0.8499578
0.8707116
0.8928061
0.9164401
0.9422078
0.9705386
0.668339
0.6801244
0.6923847
0.7051485
0.7184472
0.7322783
0.7466521
0.7616319
0.7772613
0.7935904
0.811313
0.8299189
0.8496421
0.8706289
0.8930579
0.9174778
0.9433516
0.9718962
0.6557522
0.6670742
0.678844
0.6910877
0.7038339
0.7170781
0.7308278
0.7451405
0.7600545
0.7756129
0.7924669
0.810129
0.8288361
0.8487797
0.8702706
0.8943608
0.9188075
0.9447634
0.9732228
0.6432406
0.6541092
0.6653993
0.6771346
0.6893407
0.7020127
0.7151555
0.7288206
0.7430415
0.7578556
0.7738386
0.7904244
0.8077529
0.8258481
0.8446895
0.6312709
0.6417136
0.6525543
0.6638145
0.6755176
0.6876577
0.700238
0.7133056
0.7268899
0.7410238
0.7562317
0.7719328
0.7882486
0.805206
0.8228289
0.6200458
0.6300958
0.6405231
0.6513475
0.6625903
0.6742449
0.6863129
0.6988381
0.7118468
0.7253682
0.7398925
0.7548522
0.7703612
0.7864492
0.8031487
0.6095907
0.6192808
0.6293297
0.6397558
0.6505789
0.6617917
0.6733947
0.6854285
0.6979173
0.7108873
0.7248027
0.7391156
0.7539333
0.7692833
0.7851967
0.5998708
0.6092311
0.6189338
0.628996
0.6394361
0.6502466
0.6614268
0.673015
0.6850332
0.6975053
0.710874
0.7246114
0.7388181
0.7535192
0.7687419
0.8328924
0.8516989
0.8715083
0.8923503
0.9139231
0.9333952
0.8157428
0.8337136
0.8526212
0.872545
0.8935237
0.9152213
0.9349456
0.8000146
0.8172445
0.8353476
0.8544033
0.8744973
0.8956229
0.917509
0.9378087
0.7855228
0.8020915
0.819477
0.8377526
0.857003
0.8772654
0.8985622
0.9207771
0.941923
0.7720172
0.7879869
0.8047243
0.8222958
0.840779
0.8602104
0.8806469
0.9022067
0.9248318
0.9470472
0.759052
0.7744601
0.7905922
0.807508
0.8252773
0.8439292
0.8635178
0.8841792
0.9060213
0.9290804
0.9535265
0.7459584
0.7608097
0.7763418
0.7926082
0.8096705
0.8275512
0.8462949
0.8660259
0.8868536
0.908903
0.9332503
0.9587081
0.7327537
0.7470551
0.7619962
0.7776245
0.7939948
0.8111231
0.8290456
0.8478714
0.8676953
0.8886309
0.9116865
0.936255
0.9625111
0.7196127
0.7333791
0.7477468
0.7627584
0.7784626
0.7948704
0.8120102
0.8299786
0.8488553
0.8687369
0.8905349
0.9136445
0.9384602
0.965264
0.7066567
0.7199072
0.7337238
0.7481447
0.7632135
0.7789368
0.7953375
0.8125008
0.8304949
0.8494004
0.8700517
0.8918449
0.9151037
0.9401005
0.9673732
0.693938
0.7066926
0.719981
0.7338378
0.7483018
0.7633766
0.7790798
0.7954881
0.8126599
0.8306636
0.8502713
0.8708943
0.8928057
0.9162
0.9413659
0.9694744
0.6814572
0.6937348
0.7065165
0.7198337
0.7337215
0.7481801
0.7632237
0.7789214
0.795324
0.8124898
0.8311427
0.8507167
0.8714526
0.8934991
0.9170538
0.9426859
0.9708793
0.6691726
0.6809896
0.693283
0.7060817
0.7194173
0.7332877
0.7477035
0.7627281
0.7784057
0.7947868
0.8125573
0.8311838
0.8508849
0.871785
0.8940349
0.9181019
0.9437757
0.9721486
0.6570025
0.6683712
0.6801906
0.6924868
0.7052887
0.7185923
0.7324053
0.7467857
0.7617725
0.7774097
0.7943522
0.8121054
0.8308816
0.8508034
0.8720168
0.8949934
0.9191354
0.9449758
0.9733333
0.6448545
0.6557832
0.6671376
0.6789418
0.691222
0.7039727
0.7171994
0.7309552
0.7452744
0.7601955
0.7763353
0.7932224
0.8110746
0.8300626
0.8504626
0.8732347
0.8962218
0.9204111
0.9462062
0.974388
0.6327722
0.6432695
0.6541685
0.6654906
0.6772599
0.68947
0.7021247
0.715272
0.7289419
0.743168
0.7584973
0.7743842
0.7909576
0.8082343
0.8261879
0.6212068
0.6312983
0.6417696
0.6526405
0.6639327
0.6756395
0.6877627
0.7003466
0.7134181
0.7270065
0.7416116
0.7566738
0.7723061
0.7885304
0.8053645
0.610355
0.620072
0.6301493
0.6406054
0.6514602
0.6627064
0.6743447
0.6864159
0.6989444
0.7119567
0.7259209
0.7402897
0.7551701
0.7705875
0.7865697
0.6002426
0.6096158
0.6193321
0.6294086
0.6398639
0.6506902
0.6618872
0.6734931
0.68553
0.6980221
0.7114132
0.7251753
0.739409
0.7541388
0.7693913
0.5908373
0.599895
0.6092805
0.6190097
0.6290999
0.6395432
0.6503384
0.6615213
0.6731124
0.6851335
0.6980089
0.7112292
0.7248897
0.7390121
0.7536207
0.8150131
0.8329445
0.8518074
0.8716791
0.8925919
0.9141827
0.9336296
0.7986331
0.8157922
0.8338161
0.8527818
0.8727706
0.8937639
0.9154373
0.93518
0.783588
0.8000617
0.8173421
0.8355
0.8546163
0.8747225
0.8958235
0.917726
0.9380454
0.7697078
0.7855681
0.8021852
0.8196229
0.8379559
0.8572169
0.8774549
0.8987654
0.9209978
0.9421664
0.7567584
0.7720613
0.7880777
0.8048657
0.8224923
0.8409851
0.8603928
0.8808419
0.9024171
0.9250622
0.9483027
0.7443161
0.7590952
0.7745493
0.7907308
0.8077003
0.8254785
0.8441081
0.8637095
0.884386
0.9062466
0.9302899
0.9549841
0.7317413
0.7459999
0.7608952
0.7764743
0.7927916
0.809862
0.8277209
0.846476
0.8662201
0.8870633
0.9100127
0.9344599
0.960453
0.7190498
0.7327931
0.7471363
0.7621219
0.7777982
0.7941757
0.8112827
0.8292151
0.848052
0.8678888
0.8896431
0.9127254
0.9375225
0.964284
0.7064096
0.7196502
0.7334564
0.7478662
0.7629233
0.778634
0.795021
0.8121695
0.8301475
0.8490351
0.8696702
0.8914561
0.9147174
0.9397225
0.9670087
0.693938
0.7066926
0.719981
0.7338378
0.7483018
0.7633766
0.7790798
0.7954881
0.8126599
0.8306636
0.8502713
0.8708943
0.8928057
0.9162
0.9413659
0.9694744
0.6816861
0.6939724
0.7067634
0.7200902
0.7339882
0.7484577
0.763513
0.7792232
0.7956392
0.8128196
0.8314849
0.8510621
0.8717906
0.8938183
0.9173438
0.9429274
0.9710595
0.6696553
0.6814904
0.6938029
0.7066216
0.7199783
0.7338711
0.7483109
0.763361
0.7790659
0.7954764
0.8132717
0.8319034
0.8515848
0.8724362
0.8946059
0.9185374
0.9441112
0.972363
0.6578061
0.6692047
0.6810553
0.6933844
0.7062211
0.7195615
0.7334137
0.7478358
0.7628673
0.7785523
0.7955381
0.813308
0.8320596
0.8518946
0.8729341
0.8955739
0.9195253
0.9452579
0.9734893
0.6460605
0.6570336
0.6684349
0.6802887
0.6926215
0.705428
0.718714
0.7325331
0.7469201
0.7619142
0.7781354
0.7951056
0.8130186
0.8319798
0.8521102
0.8738289
0.8965286
0.9206111
0.9463604
0.9744639
0.6343299
0.6448843
0.6558443
0.6672318
0.679071
0.6913554
0.7040892
0.7173216
0.7310835
0.7454093
0.7608852
0.7770555
0.7941221
0.8122388
0.831655
0.8532564
0.8749764
0.8977063
0.9217239
0.9473753
0.9752745
0.6226565
0.6328001
0.6433267
0.6542564
0.6656112
0.6773843
0.6895777
0.7022366
0.7153883
0.7290631
0.7437818
0.7590184
0.7748925
0.7914156
0.8085568
0.6114767
0.6212332
0.6313524
0.6418527
0.6527544
0.6640501
0.6757405
0.6878671
0.7004546
0.7135299
0.7275697