/*--------------------------------*- C++ -*----------------------------------*\
| =========                 |                                                 |
| \\      /  F ield         | OpenFOAM: The Open Source CFD Toolbox           |
|  \\    /   O peration     | Version:  2306                                  |
|   \\  /    A nd           | Website:  www.openfoam.com                      |
|    \\/     M anipulation  |                                                 |
\*---------------------------------------------------------------------------*/
FoamFile
{
    version     2.0;
    format      ascii;
    arch        "LSB;label=32;scalar=64";
    class       volVectorField;
    location    "1.2/phiEA";
    object      i;
}
// * * * * * * * * * * * * * * * * * * * * * * * * * * * * * * * * * * * * * //

dimensions      [0 -2 0 0 0 1 0];

internalField   nonuniform List<vector> 
20000
(
(-598.7654 2384.86 1976.897)
(-628.9651 7663.722 2013.383)
(-1196.99 2082.863 1803.946)
(-598.0736 2383.401 5850.434)
(-694.7843 14482.65 2087.161)
(-1248.967 6703.533 1832.524)
(-628.2417 7659.311 5958.749)
(-1111.989 1865.091 1656.706)
(-1195.709 2081.72 5342.758)
(-596.7347 2380.528 9586.95)
(-806.9861 23568.24 2185.616)
(-1362.568 12702.44 1889.869)
(-693.9951 14475.76 6177.779)
(-1149.583 6007.939 1681.059)
(-1247.638 6700.096 5427.811)
(-626.8414 7650.628 9765.188)
(-949.1975 1706.923 1538.756)
(-1110.929 1864.116 4910.055)
(-1193.228 2079.461 8763.231)
(-594.7787 2376.271 13231.73)
(-977.9004 33616.26 2238.416)
(-1557.069 20737.08 1963.737)
(-806.0986 23562.19 6469.707)
(-1232.192 11401.63 1729.829)
(-1361.139 12697.19 5598.521)
(-692.4673 14462.21 10125.67)
(-977.3264 5501.508 1560.371)
(-1148.495 6005.014 4982.632)
(-1245.062 6693.303 8903.616)
(-624.7954 7637.763 13478.7)
(-809.2654 1583.802 1440.899)
(-948.3343 1706.058 4563.116)
(-1108.871 1862.187 8060.259)
(-1189.602 2076.104 12103.68)
(-592.2225 2370.649 15565.89)
(-1202.664 38201.75 2099.475)
(-1854.855 29659.48 1990.322)
(-976.908 33619.71 6623.654)
(-1374.78 18645.37 1791.763)
(-1555.494 20733.07 5818.274)
(-804.3804 23550.41 10605.52)
(-1039.321 10450.47 1603.63)
(-1231.047 11397.2 5128.014)
(-1358.369 12686.82 9185.487)
(-690.2344 14442.15 13978.34)
(-831.7093 5106.709 1460.518)
(-976.4442 5498.913 4627.59)
(-1146.382 5999.22 8180.24)
(-1241.298 6683.206 12298.66)
(-622.1212 7620.764 15857.39)
(-699.8774 1482.484 1356.933)
(-808.5381 1583.017 4275.06)
(-946.6575 1704.344 7496.044)
(-1105.86 1859.317 11140.22)
(-1184.862 2071.661 14245.74)
(-808.4546 3242.895 20471.19)
(-1423.279 34414.03 2023.839)
(-2248.198 33747.96 1840.632)
(-1201.629 38210.34 6201.282)
(-1595.093 26704.98 1808.994)
(-1853.138 29664.41 5895.849)
(-974.9891 33627 10853.61)
(-1146.785 17108.07 1658.138)
(-1373.558 18642.21 5312.569)
(-1552.441 20725.19 9548.158)
(-801.8692 23533.08 14643.11)
(-881.2678 9707.048 1499.776)
(-1038.4 10446.56 4756.66)
(-1228.824 11388.43 8420.692)
(-1354.319 12671.41 12690.34)
(-687.3153 14415.64 16447.39)
(-718.6462 4781.483 1374.984)
(-830.9678 5104.354 4333.615)
(-974.7303 5493.766 7602.742)
(-1143.291 5990.597 11307.07)
(-1236.376 6669.836 14476.23)
(-849.2856 10426.29 20880.52)
(-614.8345 1396.114 1283.316)
(-699.2471 1481.762 4027.721)
(-807.1238 1581.459 7027.168)
(-944.2019 1701.79 10366.4)
(-1101.922 1855.513 13117.89)
(-1618.026 2834.584 18736.25)
(-805.2511 3234.802 18995.21)
(-1603.513 26130.53 2003.947)
(-2634.844 30405.54 1751.225)
(-1422.189 34417.85 5970.315)
(-1888.307 30401.87 1665.408)
(-2246.461 33757.53 5444.045)
(-1199.635 38227.89 10138.19)
(-1313.572 24524.21 1670.618)
(-1593.814 26710.03 5362.869)
(-1849.812 29674.45 9673.35)
(-972.1869 33638.4 14981.94)
(-967.4064 15902.86 1548.995)
(-1145.814 17105.39 4919.253)
(-1371.184 18635.98 8725.883)
(-1547.975 20713.55 13194.36)
(-798.5854 23510.27 17232.6)
(-760.1474 9093.504 1411.109)
(-880.4977 9703.509 4450.824)
(-1036.612 10438.81 7816.443)
(-1225.571 11375.38 11641.63)
(-1349.022 12651 14939.52)
(-938.3355 19730.94 21709.63)
(-631.0203 4504.009 1300.081)
(-718.0044 4779.316 4081.623)
(-829.5254 5099.678 7124.146)
(-972.2199 5486.097 10514.9)
(-1139.247 5979.164 13315.3)
(-1688.406 9127.481 19063.15)
(-845.9253 10401.8 19427.59)
(-547.871 1320.626 1217.691)
(-614.2775 1395.444 3810.727)
(-698.0201 1480.328 6624.231)
(-805.0509 1579.138 9722.929)
(-940.9884 1698.404 12211.77)
(-1505.45 2539.092 17253.82)
(-1612.085 2828.06 17380.41)
(-801.9953 3225.6 19247.2)
(-1728.015 16070.66 2003.798)
(-2951.003 23083.17 1717.996)
(-1602.369 26131.33 5908.024)
(-2177.018 27385.98 1577.894)
(-2633.06 30410.45 5174.182)
(-1420.095 34425.76 9745.302)
(-1536.251 27928.72 1534.529)
(-1887.083 30411.11 4930.293)
(-2243.114 33776.83 8914.376)
(-1196.733 38254.67 13966.64)
(-1101.464 22810.32 1558.587)
(-1312.57 24529.16 4955.695)
(-1591.333 26720.27 8807.145)
(-1844.952 29689.76 13365.7)
(-968.5242 33654.06 17629.84)
(-832.4227 14906.11 1456.239)
(-966.5988 15900.51 4597.751)
(-1143.925 17100.11 8085.657)
(-1367.708 18626.75 12066.45)
(-1542.134 20698.18 15536.12)
(-1090.4 32209.07 22807.49)
(-666.8499 8569.282 1333.641)
(-759.4829 9090.253 4189.53)
(-878.9993 9696.482 7318.359)
(-1033.991 10427.25 10812.51)
(-1221.313 11358.06 13711.39)
(-1842.343 17319.79 19721.3)
(-934.6504 19692.94 20304.37)
(-562.1312 4261.329 1233.368)
(-630.4538 4501.996 3860.81)
(-716.7549 4775.011 6713.557)
(-827.411 5092.706 9857.985)
(-968.934 5475.922 12387.57)
(-1556.484 8183.118 17535.14)
(-1682.22 9107.802 17731.64)
(-842.5018 10373.92 19735.03)
(-494.0083 1253.512 1158.502)
(-547.3717 1319.998 3617.172)
(-613.1923 1394.111 6270.452)
(-696.2202 1478.189 9169.596)
(-802.3366 1576.057 11457.99)
(-1285.8 2324.24 16063.23)
(-1500.515 2533.451 16000.29)
(-1606.046 2820.535 17606.33)
(-798.6876 3215.289 19498.43)
(-1791.156 5404.213 2006.376)
(-3169.577 14194.23 1708.326)
(-1726.833 16070.56 5906.043)
(-2413.201 20783.2 1543.233)
(-2949.16 23084.89 5073.602)
(-1600.175 26133.1 9636.433)
(-1755.379 25156.6 1450.971)
(-2175.817 27390.86 4666.81)
(-2629.63 30420.36 8461.323)
(-1417.053 34437.92 13408.09)
(-1280.787 25983.8 1429.556)
(-1535.307 27937.5 4546.051)
(-1884.715 30429.71 8082.059)
(-2238.237 33806.01 12295.24)
(-1192.95 38290.84 16409.87)
(-945.1283 21390.41 1463.877)
(-1100.637 22815.09 4625.765)
(-1310.623 24539.14 8144.588)
(-1587.699 26735.78 12177.89)
(-1838.596 29710.42 15737.55)
(-1322.904 46177.8 23315.34)
(-729.3435 14053.05 1375.457)
(-831.7286 14904 4324.331)
(-965.0267 15895.86 7561.857)
(-1141.158 17092.27 11187.63)
(-1363.157 18614.53 14214.8)
(-2106.382 28363.38 20566.57)
(-1086.239 32178.42 21454.32)
(-593.7265 8110.272 1264.757)
(-666.2645 8566.267 3961.095)
(-758.1885 9083.795 6892.467)
(-876.8018 9686 10128.62)
(-1030.56 10411.9 12740.11)
(-1668.717 15551.17 18100.7)
(-1835.652 17289.8 18440.58)
(-930.8803 19649.87 20725.39)
(-506.7646 4045.454 1173.238)
(-561.6239 4259.447 3664.02)
(-629.3499 4497.994 6353.491)
(-714.9218 4768.587 9294.058)
(-824.642 5083.451 11617.94)
(-1324.019 7494.807 16314.54)
(-1551.402 8166.121 16304.96)
(-1675.916 9085.074 18007.54)
(-839.0153 10342.67 20041.7)
(-449.7879 1193.062 1104.609)
(-493.556 1252.922 3442.5)
(-546.3981 1318.752 5954.652)
(-611.5992 1392.122 8683.468)
(-693.8623 1475.349 10809.54)
(-1096.378 2156.9 15073.09)
(-1281.775 2319.187 14892.9)
(-1495.5 2526.905 16203.6)
(-1599.91 2812.011 17831.62)
(-795.3281 3203.869 28782.36)
(-1791.156 -5404.213 2006.376)
(-3280.492 4772.807 1706.123)
(-1789.955 5404.11 5913.072)
(-2576.54 12775.77 1531.618)
(-3167.688 14194.7 5044.127)
(-1724.568 16070.46 9630.175)
(-1934.352 19087.95 1417.106)
(-2411.998 20785.05 4562.401)
(-2945.621 23088.37 8291.968)
(-1596.991 26135.94 13250.47)
(-1457.172 23404.96 1350.071)
(-1754.467 25161.3 4294.746)
(-2173.5 27400.69 7641.024)
(-2624.643 30435.35 11657.31)
(-1413.092 34454.41 15739.22)
(-1096.099 24371.64 1341.281)
(-1280.014 25992.14 4237.562)
(-1533.48 27955.16 7458.64)
(-1881.26 30457.76 11156.96)
(-2231.875 33845.17 14456.39)
(-1630.518 52567.26 21411.8)
(-826.9454 20173.56 1381.69)
(-944.4208 21395.01 4346.642)
(-1099.028 22824.72 7607.204)
(-1307.77 24554.24 11268.61)
(-1582.944 26756.65 14346.17)
(-2512.206 40776.61 20822.22)
(-1318.289 46209.96 21896.97)
(-648.902 13305.15 1303.789)
(-728.7337 14051.13 4086.053)
(-830.3759 14899.82 7116.027)
(-962.7203 15888.96 10468.17)
(-1137.532 17081.87 13184.97)
(-1862.816 25510.43 18818.39)
(-2098.97 28342.03 19346.41)
(-1081.968 32145.36 22016.4)
(-535.0486 7701.575 1202.75)
(-593.2029 8107.455 3757.851)
(-665.1232 8560.272 6519.845)
(-756.2888 9074.155 9543.491)
(-873.9232 9672.075 11938.68)
(-1408.32 14256.48 16819.54)
(-1663.337 15525.44 16919.31)
(-1828.803 17255.2 18819.1)
(-927.0253 19601.68 21145.97)
(-461.331 3850.926 1118.516)
(-506.3052 4043.685 3486.547)
(-560.6342 4255.702 6032.359)
(-627.729 4492.02 8799.217)
(-712.5199 4760.055 10957)
(-1126.887 6957.913 15302.26)
(-1319.892 7479.583 15166.43)
(-1546.224 8146.357 16553.6)
(-1669.494 9059.291 18282.78)
(-835.4661 10308.02 29665.76)
(-412.7612 1138.08 1055.175)
(-449.3746 1192.506 3283.37)
(-492.6731 1251.75 5669.461)
(-544.9678 1316.89 8249.27)
(-609.511 1389.481 10239.62)
(-948.1327 2019.141 14221.42)
(-1092.98 2152.283 13972.76)
(-1277.69 2313.299 15079.05)
(-1490.406 2519.451 16406.36)
(-1593.678 2802.489 26314.48)
(-379.756 1536.165 20021.39)
(-1728.015 -16070.66 2003.798)
(-3280.492 -4772.807 1706.123)
(-1789.955 -5404.11 5913.072)
(-2659.452 4295.065 1528.247)
(-3278.579 4772.895 5037.323)
(-1787.653 5403.932 9640.53)
(-2057.934 11731.72 1405.245)
(-2575.328 12776.37 4527.375)
(-3164.062 14195.68 8241.954)
(-1721.281 16070.4 13238.65)
(-1601.08 17757.65 1317.509)
(-1933.449 19089.77 4192.908)
(-2409.678 20788.78 7466.206)
(-2940.479 23093.66 11418.45)
(-1592.847 26139.88 15548.09)
(-1244.577 21953.67 1265.634)
(-1456.431 23409.44 3998.641)
(-1752.706 25170.73 7038.51)
(-2170.125 27415.5 10537.35)
(-2618.147 30455.43 13694.87)
(-1932.172 47276.43 20352.22)
(-957.827 22989.31 1264.956)
(-1095.44 24379.57 3977.922)
(-1278.514 26008.88 6957.547)
(-1530.809 27981.75 10303.57)
(-1876.748 30495.33 13125.72)
(-3051.566 46474.58 18874.52)
(-1625.896 52631.68 19539.39)
(-735.1792 19105.57 1308.963)
(-826.3257 20177.98 4104.265)
(-943.0423 21404.26 7152.179)
(-1096.668 22839.27 10530.61)
(-1304.034 24574.5 13280.71)
(-2163.939 36725.96 18983.74)
(-2504.177 40813.4 19564.99)
(-1313.576 46254.39 22441.32)
(-584.4914 12638.52 1239.387)
(-648.3577 13303.38 3874.533)
(-727.5443 14047.33 6727.199)
(-828.3899 14893.61 9855.421)
(-959.6979 15879.78 12341.58)
(-1554.74 23411.16 17456.21)
(-1857.031 25493.18 17696.36)
(-2091.351 28318.4 19853.35)
(-1077.587 32109.78 22579.9)
(-486.9411 7333.004 1146.376)
(-534.5751 7698.929 3574.792)
(-592.1813 8101.851 6188.072)
(-663.4469 8551.319 9031.24)
(-753.799 9061.341 11252.72)
(-1194.312 13243.96 15762.79)
(-1403.987 14233.51 15717.87)
(-1657.827 15495.52 17261.09)
(-1821.795 17215.97 19197.26)
(-923.0855 19548.34 31464.21)
(-423.3001 3673.922 1068.343)
(-460.9115 3849.256 3324.95)
(-505.4084 4040.163 5742.547)
(-559.1801 4250.11 8357.623)
(-625.6042 4484.084 10376.79)
(-973.6556 6515.465 14433.08)
(-1123.412 6944.001 14223.12)
(-1315.692 7461.808 15394.37)
(-1540.949 8123.821 16801.66)
(-1662.955 9030.448 27054.7)
(-398.7717 4954.284 20771.08)
(-381.2378 1087.673 1009.552)
(-412.3809 1137.553 3137.332)
(-448.5672 1191.399 5409.473)
(-491.3753 1249.999 7856.931)
(-543.0919 1314.417 9730.359)
(-832.8445 1901.671 13472.91)
(-945.1818 2014.87 13181.83)
(-1089.533 2146.886 14145.39)
(-1273.543 2306.574 15264.68)
(-1485.232 2511.092 24203.64)
(-763.6123 1346.008 18293.59)
(-343.2039 1355.869 21600.97)
(-1603.513 -26130.53 2003.947)
(-3169.577 -14194.23 1708.326)
(-1726.833 -16070.56 5906.043)
(-2659.452 -4295.065 1528.247)
(-3278.579 -4772.895 5037.323)
(-1787.653 -5403.932 9640.53)
(-2120.598 3943.695 1401.593)
(-2658.233 4295.2 4517.198)
(-3274.908 4773.079 8230.236)
(-1784.314 5403.696 13251.74)
(-1700.343 10913.32 1305.886)
(-2057.031 11732.35 4157.245)
(-2572.993 12777.58 7407.492)
(-3158.797 14197.17 11347.53)
(-1717.003 16070.41 15531.86)
(-1365.649 16656.24 1234.463)
(-1600.349 17759.42 3900.803)
(-1931.706 19093.45 6868.338)
(-2406.303 20794.4 10291.83)
(-2933.786 23100.77 13409.66)
(-2178.429 35854.95 20027.68)
(-1086.554 20709.46 1192.86)
(-1243.948 21957.95 3750.618)
(-1454.996 23418.43 6558.392)
(-1750.137 25184.91 9713.9)
(-2165.726 27435.3 12387.16)
(-3581.122 41797.32 17718.61)
(-1927.42 47307.12 18203.77)
(-850.9761 21775.55 1197.589)
(-957.2522 22996.87 3753.26)
(-1094.161 24395.48 6535.376)
(-1276.321 26034.09 9617.069)
(-1527.32 28017.34 12127.72)
(-2567.239 41878.1 17141.62)
(-3043.776 46540.37 17238.04)
(-1621.313 52714.99 19486.82)
(-661.8815 18152.82 1243.737)
(-734.6274 19109.82 3889.654)
(-825.1174 20186.87 6756.74)
(-941.0189 21418.23 9905.306)
(-1093.575 22858.77 12415.63)
(-1782.923 33732.38 17575.76)
(-2157.909 36761.9 17834.5)
(-2495.956 40860.95 20060.24)
(-1308.765 46311.15 22991.11)
(-531.7477 12036.82 1180.916)
(-583.9999 12636.89 3684.351)
(-647.2951 13299.88 6381.783)
(-725.7967 14041.65 9320.696)
(-825.7861 14885.35 11623.01)
(-1311.734 21764.4 16341.01)
(-1550.135 23396.31 16411.54)
(-1851.076 25473.83 18154.87)
(-2083.524 28292.39 20361.61)
(-1073.095 32071.56 33794.21)
(-446.6947 6997.408 1094.732)
(-486.5091 7330.508 3408.278)
(-533.6503 7693.663 5889.042)
(-590.6797 8093.478 8574.877)
(-661.2487 8539.413 10651.96)
(-1030.137 12408.02 14858.47)
(-1190.679 13223.01 14727.88)
(-1399.554 14206.68 16031.73)
(-1652.187 15461.39 17602.56)
(-1814.629 17172.05 28558.56)
(-440.415 9466.737 22315.63)
(-390.9292 3511.591 1022.054)
(-422.9143 3672.339 3176.713)
(-460.0917 3845.93 5478.487)
(-504.0897 4034.901 7958.871)
(-557.2728 4242.678 9858.805)
(-854.8612 6137.865 13670.1)
(-970.6414 6502.594 13413.71)
(-1119.877 6927.708 14434.74)
(-1311.417 7441.476 15621.79)
(-1535.58 8098.509 24854.79)
(-796.5382 4347.693 18931.77)
(-359.6742 4399.729 22634.64)
(-354.0014 1041.166 967.229)
(-380.886 1087.173 3002.486)
(-411.6376 1136.505 5170.722)
(-447.3796 1189.746 7499.067)
(-489.6723 1247.672 9270.01)
(-742.0654 1798.975 12804.07)
(-830.2313 1897.686 12487.01)
(-942.1897 2009.866 13343.33)
(-1086.037 2140.709 14317.56)
(-1269.334 2299.014 22514.34)
(-715.0416 1206.906 16814.47)
(-695.7474 1191.166 19720.83)
(-304.5507 1122.697 22566.48)
(-1423.279 -34414.03 2023.839)
(-2951.003 -23083.17 1717.996)
(-1602.369 -26131.33 5908.024)
(-2576.54 -12775.77 1531.618)
(-3167.688 -14194.7 5044.127)
(-1724.568 -16070.46 9630.175)
(-2120.598 -3943.695 1401.593)
(-2658.233 -4295.2 4517.198)
(-3274.908 -4773.079 8230.236)
(-1784.314 -5403.696 13251.74)
(-1750.64 3668.425 1302.224)
(-2119.694 3943.841 4146.272)
(-2655.887 4295.472 7390.413)
(-3269.579 4773.364 11330.73)
(-1779.969 5403.409 15546.41)
(-1449.113 10236.13 1223.228)
(-1699.615 10913.93 3865.898)
(-2055.288 11733.59 6808.763)
(-2569.595 12779.41 10209.32)
(-3151.945 14199.19 13324.71)
(-2348.506 22039.5 19979.7)
(-1191.495 15712.29 1163.05)
(-1365.031 16657.93 3657.005)
(-1598.936 17762.96 6395.064)
(-1929.165 19098.96 9475.273)
(-2401.906 20801.9 12094.77)
(-4013.713 31691.61 17281.28)
(-2173.49 35863.88 17757.5)
(-964.8803 19616.99 1128.769)
(-1086.007 20713.54 3536.681)
(-1242.729 21966.51 6155.792)
(-1452.9 23431.94 9057.143)
(-1746.785 25203.86 11425.32)
(-2963.722 37654.95 16031.49)
(-3573.319 41831.18 15858.61)
(-1922.792 47347.7 17800.28)
(-765.8253 20692.3 1137.293)
(-850.4654 21782.76 3554.829)
(-956.1346 23012.02 6169.743)
(-1092.289 24419.42 9038.255)
(-1273.453 26067.82 11324.55)
(-2089.515 38476.75 15841.43)
(-2561.694 41940.26 15656.18)
(-3036.033 46622.84 17205.06)
(-1616.769 52817.32 19432.26)
(-601.9392 17292.23 1184.61)
(-661.3841 18156.9 3697.069)
(-733.5504 19118.36 6406.338)
(-823.3423 20200.28 9361.552)
(-938.3661 21436.95 11682.36)
(-1495.233 31378.21 16432.78)
(-1778.186 33766.77 16509.14)
(-2151.715 36807.57 18283.14)
(-2487.544 40919.33 20560.38)
(-1303.853 46380.3 34377.78)
(-487.6548 11488.54 1127.409)
(-531.2998 12035.29 3511.592)
(-583.0396 12633.63 6071.001)
(-645.7329 13294.65 8845.397)
(-723.5042 14034.11 10995.69)
(-1128.694 20401.95 15391.04)
(-1307.896 21751.19 15360.69)
(-1545.398 23379.51 16833.18)
(-1844.95 25452.29 18614.61)
(-2075.489 28263.88 30474.46)
(-512.383 15820.41 24364.42)
(-412.4525 6689.457 1047.117)
(-446.2977 6995.046 3255.655)
(-485.6646 7325.538 5616.859)
(-532.2902 7685.791 8163.323)
(-588.7096 8082.34 10116.52)
(-903.6371 11693.57 14066.51)
(-1026.996 12388.66 13881.33)
(-1186.966 13198.46 15019.68)
(-1395.022 14175.96 16345.32)
(-1646.419 15423 26177.4)
(-868.8657 8330.624 20246)
(-396.0437 8588.372 24829.54)
(-362.9656 3361.775 979.1279)
(-390.5724 3510.088 3039.884)
(-422.1598 3669.189 5236.103)
(-458.8857 3840.96 7595.353)
(-502.3593 4027.907 9390.879)
(-761.4671 5807.539 12988.93)
(-852.1948 6125.856 12703.56)
(-967.5773 6487.485 13611.87)
(-1116.282 6909.03 14645.89)
(-1307.068 7418.582 23104.02)
(-739.0991 3901.75 17379.74)
(-724.4109 3871.331 20614.35)
(-317.9602 3662.854 23849.71)
(-330.1724 998.0306 927.8001)
(-353.6744 1040.69 2877.338)
(-380.1978 1086.177 4950.134)
(-410.5436 1134.938 7170.263)
(-445.8205 1187.548 8849.945)
(-669.0564 1707.654 12199.42)
(-739.7178 1795.235 11866.36)
(-827.5826 1893.009 12639.04)
(-939.1564 2004.128 13504.41)
(-1082.492 2133.752 21114.14)
(-612.2551 1105.432 15633.07)
(-658.7562 1069.234 18108.65)
(-623.9195 988.602 20591.77)
(-264.2156 842.577 23329.84)
(-1202.664 -38201.75 2099.475)
(-2634.844 -30405.54 1751.225)
(-1422.189 -34417.85 5970.315)
(-2413.201 -20783.2 1543.233)
(-2949.16 -23084.89 5073.602)
(-1600.175 -26133.1 9636.433)
(-2057.934 -11731.72 1405.245)
(-2575.328 -12776.37 4527.375)
(-3164.062 -14195.68 8241.954)
(-1721.281 -16070.4 13238.65)
(-1750.64 -3668.425 1302.224)
(-2119.694 -3943.841 4146.272)
(-2655.887 -4295.472 7390.413)
(-3269.579 -4773.364 11330.73)
(-1779.969 -5403.408 15546.41)
(-1491.387 3440.731 1219.65)
(-1749.912 3668.572 3854.913)
(-2117.949 3944.134 6790.445)
(-2652.474 4295.883 10185.29)
(-3262.642 4773.751 13304.47)
(-2434.76 7409.985 19990.35)
(-1263.819 9655.932 1152.246)
(-1448.498 10236.72 3623.286)
(-1698.207 10915.15 6336.84)
(-2052.748 11735.46 9391.771)
(-2565.17 12781.84 11996.49)
(-4312.671 19476.18 17147.73)
(-2343.419 22040.91 17660.36)
(-1057.728 14883.59 1100.249)
(-1190.958 15713.92 3447.181)
(-1363.834 16661.33 5999.607)
(-1596.874 17768.28 8828.291)
(-1925.851 19106.33 11141.43)
(-3287.63 28539.46 15591.43)
(-4005.733 31703.88 15328.98)
(-2168.714 35876.68 17211.65)
(-868.0845 18641.95 1071.498)
(-964.3948 19620.88 3348.125)
(-1084.944 20721.71 5808.178)
(-1240.947 21979.38 8505.971)
(-1450.164 23449.98 10657.83)
(-2390.701 34593.41 14790.2)
(-2958.425 37687.56 14349.98)
(-3565.707 41873.69 15517.17)
(-1918.287 47398.13 17395.06)
(-696.2711 19713.52 1082.721)
(-765.3658 20699.19 3377.109)
(-849.4715 21797.21 5846.524)
(-954.4968 23034.81 8536.597)
(-1089.839 24451.45 10647.06)
(-1742.26 35800.32 14794.94)
(-2085.224 38535.21 14468.39)
(-2556.16 42017.48 15626.98)
(-3028.337 46722.09 17170.2)
(-1612.265 52938.83 28169.02)
(-551.8662 16507.58 1130.57)
(-601.4865 17296.16 3522.394)
(-660.4125 18165.11 6091.677)
(-731.9672 19131.23 8879.438)
(-821.0139 20218.23 11044.46)
(-1283.018 29427.11 15464.04)
(-1491.313 31411.01 15433.89)
(-1773.321 33810.11 16921.98)
(-2145.356 36863.02 18736.22)
(-2478.937 40988.6 30757.49)
(-625.6099 23618.75 24890.61)
(-450.1597 10985.11 1078.122)
(-487.2437 11487.11 3353.422)
(-530.424 12032.26 5788.506)
(-581.6268 12628.78 8417.516)
(-643.6824 13287.7 10437.86)
(-988.877 19235.59 14561.75)
(-1125.39 20389.97 14466.19)
(-1303.952 21736.16 15753.1)
(-1540.528 23360.7 17255.95)
(-1838.654 25428.48 27851.55)
(-994.4703 13968.46 21972.01)
(-460.6221 15182 27984.42)
(-382.8821 6405.103 1002.987)
(-412.0855 6687.214 3114.874)
(-445.5211 6990.34 5367.227)
(-484.4218 7318.107 7788.517)
(-530.5049 7675.317 9633.458)
(-804.4878 11067.86 13360.66)
(-900.8642 11675.53 13140.34)
(-1023.787 12365.92 14154.85)
(-1183.172 13170.28 15311.23)
(-1390.389 14141.31 24301.87)
(-792.2489 7487.417 18544.15)
(-787.9136 7578.893 22514.14)
(-347.7992 7326.825 26698.65)
(-338.5044 3222.784 939.1465)
(-362.634 3360.345 2912.936)
(-389.8741 3507.095 5012.24)
(-421.0493 3664.479 7261.5)
(-457.3022 3834.352 8964.131)
(-686.4151 5513.641 12373.57)
(-759.0737 5796.266 12069.77)
(-849.4854 6111.732 12890.22)
(-964.4633 6470.133 13809.59)
(-1112.628 6887.961 21657.25)
(-630.3193 3575.62 16147.11)
(-679.8775 3478.067 18905.29)
(-647.3642 3230.369 21710.55)
(-274.1078 2746.861 24817.7)
(-309.1021 957.847 890.9322)
(-329.8673 997.5767 2760.695)
(-353.0342 1039.742 4745.294)
(-379.1843 1084.689 6866.32)
(-409.1066 1132.855 8463.843)
(-609.1268 1625.387 11647.64)
(-666.9249 1704.128 11305.41)
(-737.339 1790.838 12010.12)
(-824.8985 1887.639 12790.67)
(-936.0821 1997.658 19912.79)
(-522.3779 1026.264 14655.72)
(-566.6545 979.953 16824.29)
(-599.1797 888.2505 18895.08)
(-548.8911 743.6543 21283.27)
(-222.6877 527.5546 16296.54)
(-977.9004 -33616.26 2238.416)
(-2248.198 -33747.96 1840.632)
(-1201.629 -38210.34 6201.282)
(-2177.018 -27385.98 1577.894)
(-2633.06 -30410.45 5174.182)
(-1420.095 -34425.76 9745.302)
(-1934.352 -19087.95 1417.106)
(-2411.998 -20785.05 4562.401)
(-2945.621 -23088.37 8291.968)
(-1596.991 -26135.94 13250.47)
(-1700.343 -10913.32 1305.886)
(-2057.031 -11732.35 4157.245)
(-2572.993 -12777.58 7407.492)
(-3158.797 -14197.17 11347.53)
(-1717.003 -16070.41 15531.86)
(-1491.387 -3440.731 1219.65)
(-1749.912 -3668.572 3854.913)
(-2117.949 -3944.134 6790.445)
(-2652.474 -4295.883 10185.29)
(-3262.642 -4773.751 13304.47)
(-2434.76 -7409.985 19990.35)
(-1300.443 3245.683 1148.786)
(-1490.773 3440.874 3612.56)
(-1748.505 3668.865 6318.537)
(-2115.406 3944.574 9366.11)
(-2648.029 4296.433 11967.87)
(-4464.363 6547.438 17114.46)
(-2429.597 7409.963 17653.56)
(-1121.707 9146.653 1089.877)
(-1263.285 9656.503 3414.769)
(-1447.308 10237.91 5943.405)
(-1696.154 10916.99 8746.775)
(-2049.438 11737.96 11042.15)
(-3511.495 17533 15442.98)
(-4304.52 19479.85 15161.65)
(-2338.511 22043.65 17063.86)
(-951.4371 14144.02 1044.19)
(-1057.252 14885.15 3262.516)
(-1189.917 15717.17 5658.908)
(-1362.086 16666.43 8287.226)
(-1594.184 17775.38 10385.72)
(-2636.336 26213.88 14366.02)
(-3282.381 28551.86 13830.97)
(-3998.007 31719.49 14864.13)
(-2164.1 35893.34 16665.14)
(-789.0873 17760.87 1019.73)
(-867.6483 18645.67 3179.52)
(-963.4516 19628.68 5501.522)
(-1083.39 20733.97 8029.706)
(-1238.619 21996.55 10013.42)
(-1984.803 32186.74 13799.53)
(-2386.663 34624.31 13239.26)
(-2953.245 37727.96 14042.35)
(-3558.287 41924.82 15174.05)
(-1913.908 47458.39 24616.7)
(-638.2056 18820.82 1032.91)
(-695.8536 19720.11 3216.162)
(-764.4706 20713.01 5556.812)
(-848.0137 21818.95 8092.833)
(-952.3529 23065.29 10059.6)
(-1491.057 33581.05 13912.09)
(-1738.733 35855.48 13512.39)
(-2080.94 38607.54 14441.13)
(-2550.638 42109.89 15596.05)
(-3020.688 46838.29 24912.15)
(-782.6938 27208.98 18681.21)
(-509.3077 15786.73 1080.843)
(-551.4511 16511.36 3362.667)
(-600.6016 17304.05 5806.088)
(-658.9831 18177.47 8446.252)
(-729.8892 19148.46 10478.64)
(-1122.552 27754.59 14621.29)
(-1279.656 29458.4 14523.05)
(-1487.289 31452.15 15818.31)
(-1768.327 33862.45 17338.92)
(-2138.83 36928.31 28024.08)
(-1193.247 20915.64 22293.12)
(-569.5592 25112.76 29349.51)
(-417.7933 10519.99 1032.476)
(-449.78 10983.76 3207.657)
(-486.4391 11484.26 5529.706)
(-529.1346 12027.72 8028.374)
(-579.7715 12622.32 9935.486)
(-879.7605 18212.8 13824.32)
(-985.9675 19224.59 13685.7)
(-1121.995 20376.28 14834.33)
(-1299.901 21719.25 16146.57)
(-1535.525 23339.77 25812.97)
(-885.3669 12576.6 20067.67)
(-901.281 13446.84 25238.16)
(-402.5329 14012.42 31362.71)
(-357.0226 6141.18 961.9039)
(-382.5412 6402.969 2984.335)
(-411.3672 6682.746 5136.828)
(-444.3776 6983.302 7444.586)
(-482.7896 7308.217 9193.36)
(-724.9338 10510.64 12723.84)
(-802.0025 11050.94 12480.16)
(-898.0325 11654.29 13398.22)
(-1020.51 12339.76 14428.16)
(-1179.297 13138.43 22760.73)
(-670.3507 6867.946 17206.33)
(-726.954 6819.671 20600.59)
(-699.7077 6481.098 24200.6)
(-296.1214 5583.172 28281.34)
(-316.878 3093.273 901.7706)
(-338.1949 3221.42 2794.646)
(-361.9847 3357.495 4804.422)
(-388.8456 3502.62 6953.003)
(-419.5904 3658.216 8572.059)
(-624.8371 5248.764 11812.31)
(-684.2434 5503.01 11497.35)
(-756.6423 5782.986 12246.38)
(-846.7329 6095.489 13076.47)
(-961.2996 6450.535 20418.29)
(-536.8195 3320.794 15130.57)
(-582.5613 3189.353 17551.56)
(-616.5876 2904.972 19896.19)
(-566.2699 2427.802 22586.84)
(-228.7258 1682.254 17391.32)
(-290.3049 920.2715 856.351)
(-308.8163 957.4134 2651.582)
(-329.2694 996.6725 4554.27)
(-352.0909 1038.325 6583.938)
(-377.8525 1082.71 8106.8)
(-558.9545 1550.55 11140.42)
(-607.175 1622.05 10793.62)
(-664.7654 1699.976 11441.84)
(-734.929 1785.785 12153.5)
(-822.179 1881.577 18858.79)
(-451.6865 961.0167 13818.41)
(-484.0973 910.1654 15764.61)
(-518.4935 814.5233 17545.55)
(-536.9074 668.7894 19520.77)
(-471.5568 467.1737 14866.67)
(-1627.258 2604.128 51708.21)
(-806.9861 -23568.24 2185.616)
(-1854.855 -29659.48 1990.322)
(-976.908 -33619.71 6623.654)
(-1888.307 -30401.87 1665.408)
(-2246.461 -33757.53 5444.045)
(-1199.635 -38227.89 10138.19)
(-1755.379 -25156.6 1450.971)
(-2175.817 -27390.86 4666.81)
(-2629.63 -30420.36 8461.323)
(-1417.053 -34437.92 13408.09)
(-1601.08 -17757.65 1317.509)
(-1933.449 -19089.77 4192.908)
(-2409.678 -20788.78 7466.206)
(-2940.479 -23093.66 11418.45)
(-1592.847 -26139.88 15548.09)
(-1449.113 -10236.13 1223.228)
(-1699.615 -10913.93 3865.898)
(-2055.288 -11733.59 6808.763)
(-2569.595 -12779.41 10209.32)
(-3151.945 -14199.19 13324.71)
(-2348.506 -22039.5 19979.7)
(-1300.443 -3245.683 1148.786)
(-1490.773 -3440.874 3612.56)
(-1748.505 -3668.865 6318.537)
(-2115.406 -3944.574 9366.11)
(-2648.029 -4296.433 11967.87)
(-4464.363 -6547.438 17114.46)
(-2429.597 -7409.963 17653.56)
(-1154.103 3074.491 1086.544)
(-1299.91 3245.821 3404.398)
(-1489.585 3441.16 5925.549)
(-1746.452 3669.304 8721.175)
(-2112.092 3945.16 11011.65)
(-3625.101 5893.067 15399.6)
(-4456.118 6548.189 15117.59)
(-2424.616 7410.257 17041.33)
(-1008.87 8692.181 1034.238)
(-1121.235 9147.201 3231.409)
(-1262.251 9657.643 5604.908)
(-1445.57 10239.68 8208.589)
(-1693.475 10919.44 10288.88)
(-2805.83 16101.47 14217.98)
(-3506.228 17537.06 13654.94)
(-4296.649 19484.63 14653.92)
(-2333.78 22047.72 16467.21)
(-864.7431 13475.74 993.5574)
(-951.0103 14145.51 3097.562)
(-1056.329 14888.26 5358.779)
(-1188.395 15722.05 7820.71)
(-1359.804 16673.22 9753.408)
(-2182.385 24388.17 13394.46)
(-2632.38 26225.86 12744.26)
(-3277.291 28567.26 13412.47)
(-3990.536 31738.41 14398.56)
(-2159.648 35913.8 23319.6)
(-723.169 16957.23 972.5284)
(-788.6914 17764.44 3027.016)
(-866.8 18653.13 5227.08)
(-962.0704 19640.39 7609.25)
(-1081.358 20750.34 9456.293)
(-1695.279 30192.17 12967.55)
(-1981.506 32216 12352.67)
(-2382.712 34662.38 12955.8)
(-2948.18 37776.14 13733.19)
(-3551.059 41984.55 21490.75)
(-934.613 24096.93 15313.92)
(-588.8739 18000.49 987.1271)
(-637.8232 18827.14 3069.176)
(-695.0394 19733.33 5294.246)
(-763.1567 20733.78 7694.814)
(-846.1043 21848.02 9539.695)
(-1302.95 31677.72 13146.44)
(-1488.043 33633.28 12705.99)
(-1735.211 35923.57 13486.73)
(-2076.663 38693.86 14412.27)
(-2545.129 42217.6 22629.45)
(-1470.443 24118.95 16555.46)
(-740.2795 29694.99 18363.77)
(-472.5844 15120.44 1034.831)
(-508.9248 15790.37 3215.619)
(-550.6391 16518.95 5544.774)
(-599.2989 17315.93 8052.874)
(-657.1062 18194.01 9970.035)
(-997.9467 26286.39 13873.71)
(-1119.601 27784.48 13730.93)
(-1276.207 29497.52 14883.85)
(-1483.16 31501.67 16206.56)
(-1763.202 33923.85 25930.15)
(-1034.262 18859.03 20304.01)
(-1093.822 22316.19 26324.44)
(-504.6069 27467.01 35247.86)
(-389.4987 10088.08 990.0112)
(-417.4409 10518.72 3072.601)
(-449.0365 10981.08 5291.065)
(-485.2539 11480.01 7671.69)
(-527.4407 12021.68 9478.418)
(-792.3964 17301.01 13160.16)
(-877.1581 18202.61 12991.9)
(-982.9798 19211.97 14033.01)
(-1118.509 20360.81 15203.48)
(-1295.742 21700.35 24149.91)
(-740.8013 11548.33 18589.55)
(-811.8138 12122.91 23029.46)
(-796.2722 12444.34 28285.34)
(-337.5272 11762.31 34870.56)
(-334.1662 5895.16 923.5149)
(-356.7047 6139.145 2862.758)
(-381.8736 6398.717 4923.069)
(-410.3089 6676.061 7126.997)
(-442.875 6973.933 8789.363)
(-659.7195 10008.05 12143.61)
(-722.6813 10494.69 11884.7)
(-799.4653 11030.98 12724.33)
(-895.1421 11629.82 13655.89)
(-1017.166 12310.16 21445.6)
(-568.8846 6382.597 16109.35)
(-618.1294 6259.53 19100.18)
(-655.6904 5837.745 22127.31)
(-605.06 4948.978 25631.22)
(-241.7943 3305.68 20015.97)
(-297.5876 2972.143 866.72)
(-316.5883 3091.97 2684.018)
(-337.5887 3218.701 4610.672)
(-361.0277 3353.234 6666.48)
(-387.494 3496.668 8209.63)
(-573.3 5007.714 11296.61)
(-622.8495 5238.701 10975.37)
(-682.0376 5490.47 11665.03)
(-754.173 5767.697 12422.61)
(-843.9374 6077.123 19332.71)
(-463.78 3110.554 14261.38)
(-496.8349 2963.318 16438.28)
(-531.639 2665.262 18461.44)
(-549.9131 2185.173 20689.68)
(-482.2434 1491.188 15827.95)
(-1655.903 7847.591 55127.93)
(-273.4069 885.02 823.8249)
(-290.0365 919.8568 2549.197)
(-308.2561 956.5496 4375.484)
(-328.388 995.3206 6320.481)
(-350.8509 1036.441 7774.967)
(-516.2453 1481.932 10671.32)
(-557.1553 1547.383 10323.22)
(-605.198 1618.117 10923.44)
(-662.5781 1695.2 11577.9)
(-732.4879 1780.074 17918.19)
(-396.6275 905.329 13084.55)
(-418.575 852.5771 14858.62)
(-443.7513 756.7957 16434.21)
(-468.2197 613.5973 18119.9)
(-472.6449 420.6881 13632.88)
(-3503.631 2317.678 47241.19)
(-1506.946 1744.635 30537.28)
(-694.7843 -14482.65 2087.161)
(-1557.069 -20737.08 1963.737)
(-806.0986 -23562.19 6469.707)
(-1595.093 -26704.98 1808.994)
(-1853.138 -29664.41 5895.849)
(-974.9891 -33627 10853.61)
(-1536.251 -27928.72 1534.529)
(-1887.083 -30411.11 4930.293)
(-2243.114 -33776.83 8914.376)