/*--------------------------------*- C++ -*----------------------------------*\
| =========                 |                                                 |
| \\      /  F ield         | OpenFOAM: The Open Source CFD Toolbox           |
|  \\    /   O peration     | Version:  2306                                  |
|   \\  /    A nd           | Website:  www.openfoam.com                      |
|    \\/     M anipulation  |                                                 |
\*---------------------------------------------------------------------------*/
FoamFile
{
    version     2.0;
    format      ascii;
    arch        "LSB;label=32;scalar=64";
    class       volScalarField;
    location    "1.2/phiEA";
    object      phi;
}
// * * * * * * * * * * * * * * * * * * * * * * * * * * * * * * * * * * * * * //

dimensions      [1 2 -3 0 0 -1 0];

internalField   nonuniform List<scalar> 
20000
(
-0.004831205
-0.004967483
-0.004489053
-0.004826686
-0.005269132
-0.004608074
-0.004962881
-0.004147211
-0.00448493
-0.004817832
-0.005795063
-0.004872112
-0.005264361
-0.004253787
-0.004603885
-0.004953863
-0.003853631
-0.004143424
-0.004476841
-0.004804773
-0.006615889
-0.005333928
-0.005790067
-0.004490521
-0.004867793
-0.005255011
-0.003951169
-0.004249945
-0.004595668
-0.00494056
-0.003604812
-0.003850114
-0.004135988
-0.0044649
-0.004787588
-0.007715992
-0.006057088
-0.006610772
-0.004905309
-0.005329439
-0.005780275
-0.004168003
-0.004486567
-0.004859316
-0.005241217
-0.003695315
-0.003947603
-0.004242398
-0.004583534
-0.004923054
-0.003391193
-0.003601519
-0.003843201
-0.004125
-0.004449176
-0.004769194
-0.008798846
-0.007028755
-0.007711193
-0.005555971
-0.006052539
-0.006600749
-0.004548339
-0.004901214
-0.005320629
-0.005765826
-0.003896624
-0.004164337
-0.0044788
-0.004846797
-0.005223061
-0.003475907
-0.003691977
-0.003940592
-0.004231247
-0.004567556
-0.004904315
-0.003204882
-0.003388092
-0.00359504
-0.00383298
-0.004110524
-0.004432338
-0.00475347
-0.009682508
-0.007985544
-0.00879422
-0.006431308
-0.007024548
-0.007701818
-0.005145607
-0.005551836
-0.006043612
-0.006585964
-0.004250003
-0.004544549
-0.004893166
-0.005307615
-0.005746805
-0.003664421
-0.003893196
-0.00415713
-0.00446732
-0.004830309
-0.005203623
-0.00328466
-0.003472764
-0.00368541
-0.003930225
-0.004216554
-0.004550446
-0.004888253
-0.003039859
-0.003201949
-0.003381987
-0.003585456
-0.003819506
-0.004095017
-0.004417949
-0.004737535
-0.01029202
-0.008766215
-0.009677928
-0.007293221
-0.007981541
-0.0087852
-0.005949723
-0.006427501
-0.007016312
-0.00768802
-0.004805359
-0.005141788
-0.005543713
-0.006030429
-0.006566504
-0.003995536
-0.004246463
-0.004537095
-0.004881269
-0.00529047
-0.005726437
-0.003462254
-0.003661196
-0.003886451
-0.004146471
-0.004452191
-0.00481265
-0.005186878
-0.003115324
-0.003281688
-0.003466577
-0.003675693
-0.003916558
-0.004200812
-0.004535784
-0.004871935
-0.002891813
-0.003037076
-0.003196172
-0.003372951
-0.003572817
-0.003805067
-0.004081768
-0.004403371
-0.004721391
-0.01060083
-0.009304582
-0.01028744
-0.007996221
-0.008762288
-0.009669004
-0.006741533
-0.007289614
-0.007973717
-0.008771945
-0.00555345
-0.005946215
-0.006420038
-0.007004172
-0.007669894
-0.004516198
-0.004801796
-0.005134279
-0.005531706
-0.006013062
-0.006545667
-0.003774333
-0.003992207
-0.004239494
-0.004526068
-0.004865586
-0.005272104
-0.005708792
-0.003283364
-0.003459206
-0.003654845
-0.003876468
-0.004132416
-0.00443598
-0.00479744
-0.005169782
-0.002963442
-0.003112505
-0.003275835
-0.003457419
-0.003662877
-0.00390191
-0.004187328
-0.004520893
-0.004855362
-0.002757569
-0.002889165
-0.003031592
-0.003187616
-0.003361028
-0.003559267
-0.003792734
-0.00406835
-0.004388605
-0.004705038
-0.01060083
-0.009577314
-0.01059625
-0.008480832
-0.009300677
-0.01027852
-0.007387243
-0.007992693
-0.008754618
-0.009655901
-0.006290147
-0.006738217
-0.007282554
-0.007962201
-0.008754553
-0.005217845
-0.005550183
-0.005939332
-0.006409028
-0.006988208
-0.007650512
-0.004265286
-0.004512852
-0.004794786
-0.005123172
-0.005515878
-0.005994457
-0.006527646
-0.003578768
-0.003771189
-0.003985651
-0.004229179
-0.004511523
-0.004848778
-0.005256193
-0.00569068
-0.003122982
-0.003280473
-0.0034532
-0.003645441
-0.0038633
-0.004117351
-0.004422023
-0.004781915
-0.005152336
-0.002825744
-0.00296076
-0.003106949
-0.003267166
-0.003445334
-0.003649138
-0.003889367
-0.004173637
-0.004505772
-0.004838533
-0.002634791
-0.002755044
-0.002883944
-0.003023465
-0.003176324
-0.003348243
-0.003547695
-0.003780246
-0.004054762
-0.004373651
-0.004531142
-0.01029202
-0.009577314
-0.01059625
-0.008726265
-0.009573414
-0.01058732
-0.007832273
-0.008477332
-0.009293052
-0.01026543
-0.006890877
-0.007384004
-0.007985792
-0.008743335
-0.009638717
-0.005908864
-0.006287061
-0.006731717
-0.007272149
-0.007947072
-0.00873597
-0.004927108
-0.005214779
-0.005543764
-0.005929167
-0.006394537
-0.006971129
-0.007634208
-0.004043658
-0.004262127
-0.004506263
-0.004784409
-0.005108523
-0.005498915
-0.005978358
-0.006509172
-0.003403532
-0.003575788
-0.003764994
-0.003975942
-0.004215567
-0.004495931
-0.004834222
-0.00523986
-0.005672098
-0.002977622
-0.003120233
-0.003274775
-0.003444303
-0.003633031
-0.00384918
-0.004104383
-0.004407781
-0.004766075
-0.005134539
-0.002699824
-0.002823187
-0.002955473
-0.003098716
-0.003255723
-0.003432374
-0.003637373
-0.003876633
-0.004159739
-0.004490422
-0.004659156
-0.002521705
-0.002632379
-0.002750064
-0.002876206
-0.003012736
-0.003164211
-0.003337326
-0.003535979
-0.003767602
-0.004041006
-0.004214679
-0.004179936
-0.009682508
-0.009304582
-0.01028744
-0.008726265
-0.009573414
-0.01058732
-0.008057627
-0.008722772
-0.0095658
-0.01057421
-0.00730487
-0.007829061
-0.008470484
-0.009281838
-0.01024826
-0.00647234
-0.006887865
-0.007377659
-0.007975628
-0.008728519
-0.009620363
-0.005578961
-0.005905971
-0.006281008
-0.006722129
-0.007258468
-0.007930898
-0.008720632
-0.004670515
-0.004924217
-0.005208752
-0.00553428
-0.005915781
-0.006379026
-0.006956751
-0.007617946
-0.003845183
-0.004040666
-0.004255904
-0.004496505
-0.004770716
-0.005092816
-0.005484239
-0.005961849
-0.006490243
-0.003244773
-0.003400699
-0.003569912
-0.003755813
-0.003963125
-0.004200969
-0.00448243
-0.004819284
-0.005223104
-0.005653047
-0.00284473
-0.002975002
-0.003114811
-0.003266329
-0.003432557
-0.003619721
-0.003837028
-0.004091154
-0.004393254
-0.00474992
-0.004943999
-0.002583858
-0.002697383
-0.002818144
-0.002947635
-0.003087846
-0.003243448
-0.003421279
-0.003625432
-0.00386371
-0.004145634
-0.004326846
-0.004292926
-0.002416941
-0.002519398
-0.00262762
-0.00274268
-0.002865986
-0.003001225
-0.003153869
-0.003326273
-0.003524119
-0.003754805
-0.003894799
-0.003893933
-0.00381111
-0.008798846
-0.008766215
-0.009677928
-0.008480832
-0.009300677
-0.01027852
-0.008057627
-0.008722772
-0.0095658
-0.01057421
-0.007514495
-0.008054423
-0.00871594
-0.009554602
-0.01055703
-0.006860648
-0.007301885
-0.007822771
-0.0084604
-0.009267115
-0.01022993
-0.006110506
-0.006469518
-0.00688196
-0.007368305
-0.007962268
-0.008712684
-0.009605338
-0.005287975
-0.005576234
-0.005900291
-0.006272071
-0.006709514
-0.007243836
-0.007917541
-0.00870563
-0.004440836
-0.004667777
-0.004918529
-0.005199841
-0.005521782
-0.005901446
-0.006365967
-0.006942399
-0.00760173
-0.00366544
-0.00384234
-0.004034768
-0.004246683
-0.004483623
-0.00475603
-0.00507923
-0.00546919
-0.005944925
-0.006470854
-0.003099676
-0.003242073
-0.003395111
-0.003561201
-0.003743689
-0.003949375
-0.004188332
-0.004468578
-0.004803963
-0.005205924
-0.005448051
-0.002722368
-0.002842227
-0.002969832
-0.003106772
-0.003255175
-0.003419956
-0.003608267
-0.003824633
-0.004077664
-0.004378443
-0.004576987
-0.004546581
-0.002476436
-0.002581522
-0.002692563
-0.002810665
-0.002937281
-0.003076182
-0.003232939
-0.003410018
-0.003613315
-0.003850597
-0.003995374
-0.003993197
-0.003904668
-0.002319419
-0.00241473
-0.002514843
-0.002620561
-0.002732923
-0.002855018
-0.002991396
-0.0031434
-0.003315087
-0.003512116
-0.003618811
-0.003600147
-0.003557318
-0.00342772
-0.007715992
-0.007985544
-0.00879422
-0.007996221
-0.008762288
-0.009669004
-0.007832273
-0.008477332
-0.009293052
-0.01026543
-0.007514495
-0.008054423
-0.00871594
-0.009554602
-0.01055703
-0.007057262
-0.007511518
-0.00804815
-0.008705879
-0.009539901
-0.01053868
-0.006476806
-0.006857853
-0.007296034
-0.007813498
-0.008447149
-0.009251382
-0.01021496
-0.005791486
-0.006107848
-0.006463981
-0.006873248
-0.007356001
-0.007947982
-0.008699717
-0.009590767
-0.005027601
-0.005285395
-0.005570877
-0.0058919
-0.006260306
-0.006696014
-0.007231749
-0.007904467
-0.008690965
-0.0042329
-0.004438236
-0.004662389
-0.004910114
-0.005188093
-0.005508395
-0.005889378
-0.006352932
-0.006928076
-0.007585559
-0.003501218
-0.003662733
-0.003836733
-0.004026023
-0.004234507
-0.004469802
-0.004743328
-0.005065301
-0.005453767
-0.005927582
-0.006262367
-0.002966113
-0.003097099
-0.003236746
-0.003386823
-0.003549694
-0.00373068
-0.003937473
-0.004175368
-0.004454374
-0.004788259
-0.005021065
-0.005008623
-0.002609043
-0.002719974
-0.002837288
-0.002962163
-0.003096152
-0.003243205
-0.003409113
-0.003596585
-0.003811995
-0.004063912
-0.004219945
-0.004216544
-0.004116348
-0.002376449
-0.002474198
-0.00257691
-0.002685414
-0.002800783
-0.00292617
-0.003066197
-0.003222275
-0.003398592
-0.003601023
-0.00371093
-0.00368925
-0.003639701
-0.003497935
-0.002228271
-0.002317298
-0.002410364
-0.002508083
-0.002611231
-0.002722451
-0.002845653
-0.002981447
-0.003132804
-0.003303766
-0.003384586
-0.00334497
-0.003291177
-0.003207541
-0.003033449
-0.006615889
-0.007028755
-0.007711193
-0.007293221
-0.007981541
-0.0087852
-0.007387243
-0.007992693
-0.008754618
-0.009655901
-0.00730487
-0.007829061
-0.008470484
-0.009281838
-0.01024826
-0.007057262
-0.007511518
-0.00804815
-0.008705879
-0.009539901
-0.01053868
-0.006662273
-0.007054474
-0.007505683
-0.008038902
-0.008692659
-0.009524192
-0.01052371
-0.006138466
-0.006474172
-0.006852367
-0.007287401
-0.007801304
-0.00843298
-0.009238536
-0.01020049
-0.00550609
-0.005788971
-0.006102627
-0.006455805
-0.006861781
-0.007342839
-0.007936282
-0.008687136
-0.009576652
-0.004791927
-0.005025151
-0.005280322
-0.005562958
-0.005880848
-0.00624771
-0.006684863
-0.007219919
-0.007891679
-0.008676638
-0.004042967
-0.004230426
-0.004433117
-0.004654414
-0.004899017
-0.005175505
-0.005497124
-0.005877332
-0.006339922
-0.006913782
-0.00741628
-0.003350088
-0.003498634
-0.003657389
-0.003828417
-0.004014472
-0.004221439
-0.004457849
-0.004730307
-0.005051026
-0.005437963
-0.005741025
-0.005811747
-0.002842442
-0.002963649
-0.003092011
-0.003228843
-0.003375871
-0.003537343
-0.00371942
-0.003925265
-0.004162077
-0.004439818
-0.004619326
-0.004624771
-0.004515237
-0.002503578
-0.00260675
-0.002715248
-0.002829959
-0.002952029
-0.003084753
-0.003232907
-0.003398055
-0.003584676
-0.003799115
-0.003916779
-0.003889986
-0.003826515
-0.003656626
-0.002283005
-0.002374303
-0.002469778
-0.002570065
-0.002675966
-0.002790176
-0.002916659
-0.003056066
-0.003211456
-0.003387002
-0.003470108
-0.003426632
-0.003365198
-0.003269512
-0.003077412
-0.002142789
-0.002226235
-0.002313109
-0.002403884
-0.002499148
-0.002601215
-0.002713511
-0.002836175
-0.002971379
-0.003122082
-0.003183496
-0.003127935
-0.003058001
-0.002970311
-0.002847876
-0.002772793
-0.005795063
-0.006057088
-0.006610772
-0.006431308
-0.007024548
-0.007701818
-0.006741533
-0.007289614
-0.007973717
-0.008771945
-0.006890877
-0.007384004
-0.007985792
-0.008743335
-0.009638717
-0.006860648
-0.007301885
-0.007822771
-0.0084604
-0.009267115
-0.01022993
-0.006662273
-0.007054474
-0.007505683
-0.008038902
-0.008692659
-0.009524192
-0.01052371
-0.006314152
-0.006659648
-0.007049004
-0.007497076
-0.008026742
-0.008678524
-0.009511377
-0.01050925
-0.00583583
-0.006135975
-0.006469001
-0.006844268
-0.007276041
-0.007788259
-0.00842141
-0.009226113
-0.01018652
-0.005247807
-0.005503703
-0.005784028
-0.006094913
-0.006445039
-0.006849509
-0.007332058
-0.007924931
-0.008674943
-0.009562992
-0.004576694
-0.004789596
-0.005020333
-0.00527282
-0.005552523
-0.005869012
-0.006237306
-0.006673948
-0.007208345
-0.007879177
-0.008529782
-0.003868211
-0.004040606
-0.004225549
-0.004425535
-0.004643892
-0.004887121
-0.005164906
-0.005485874
-0.00586531
-0.006326939
-0.006764035
-0.007101353
-0.003210185
-0.003347618
-0.003493532
-0.003649462
-0.003817427
-0.004002072
-0.004210138
-0.004445597
-0.004716964
-0.005036403
-0.005267994
-0.005337114
-0.00528405
-0.002727374
-0.002840082
-0.002958781
-0.00308446
-0.003218396
-0.003364113
-0.003526653
-0.00370787
-0.003912749
-0.004148457
-0.004283259
-0.004257556
-0.004179793
-0.003963199
-0.00240503
-0.002501379
-0.002602221
-0.002708233
-0.002820272
-0.00294115
-0.003074945
-0.003222405
-0.003386783
-0.003572538
-0.003661319
-0.003610749
-0.003533258
-0.003409858
-0.003173637
-0.002195376
-0.002280944
-0.002370061
-0.002463217
-0.002561017
-0.002665821
-0.002781096
-0.002907008
-0.003045787
-0.003200481
-0.003263581
-0.003203782
-0.003125878
-0.003026044
-0.002886807
-0.002798834
-0.002062383
-0.002140832
-0.00222221
-0.002306888
-0.002395315
-0.002489553
-0.002592664
-0.002704462
-0.002826584
-0.002961192
-0.003008181
-0.002941555
-0.002859099
-0.002760118
-0.002640485
-0.002610067
-0.002628076
-0.005269132
-0.005333928
-0.005790067
-0.005555971
-0.006052539
-0.006600749
-0.005949723
-0.006427501
-0.007016312
-0.00768802
-0.006290147
-0.006738217
-0.007282554
-0.007962201
-0.008754553
-0.00647234
-0.006887865
-0.007377659
-0.007975628
-0.008728519
-0.009620363
-0.006476806
-0.006857853
-0.007296034
-0.007813498
-0.008447149
-0.009251382
-0.01021496
-0.006314152
-0.006659648
-0.007049004
-0.007497076
-0.008026742
-0.008678524
-0.009511377
-0.01050925
-0.006002786
-0.006311668
-0.006654492
-0.00704093
-0.007485749
-0.008013733
-0.008666993
-0.009498996
-0.01049531
-0.005561969
-0.005833466
-0.00613108
-0.006461361
-0.006833604
-0.007263884
-0.007777607
-0.008410221
-0.009214113
-0.01017305
-0.005011951
-0.005245536
-0.00549901
-0.005776722
-0.006084751
-0.006433512
-0.006839457
-0.007321598
-0.007913928
-0.008663139
-0.009424358
-0.004378688
-0.004574471
-0.004785008
-0.005013204
-0.00526293
-0.005541344
-0.005859236
-0.006227122
-0.00666327
-0.00719703
-0.007750938
-0.00828633
-0.003706467
-0.003865955
-0.004035952
-0.004218324
-0.004415529
-0.004632609
-0.004877106
-0.005154328
-0.005474646
-0.005853312
-0.006190911
-0.006484454
-0.006804154
-0.00308004
-0.00320782
-0.003342738
-0.00348596
-0.003638983
-0.003805628
-0.003991349
-0.004198554
-0.004433043
-0.004703296
-0.00487914
-0.004900229
-0.004863544
-0.004636818
-0.002619872
-0.002725111
-0.002835419
-0.002951555
-0.003074476
-0.003207178
-0.003353937
-0.00351569
-0.003696031
-0.003899925
-0.004001991
-0.00394826
-0.003851677
-0.003681927
-0.003352885
-0.002312626
-0.002402919
-0.002497035
-0.002595497
-0.002698958
-0.002809869
-0.00293179
-0.003064945
-0.0032117
-0.003375295
-0.003442709
-0.003374878
-0.003280107
-0.003152409
-0.002972141
-0.002851269
-0.002112955
-0.002193395
-0.00227687
-0.002363764
-0.002454541
-0.002551301
-0.002657138
-0.002771883
-0.002897217
-0.003035361
-0.003083625
-0.003012603
-0.002922166
-0.002811251
-0.002675542
-0.002633244
-0.002645523
-0.001986557
-0.0020605
-0.002136962
-0.002216234
-0.002298662
-0.002386113
-0.002481363
-0.002584009
-0.002695305
-0.002816879
-0.002852973
-0.002779122
-0.002688209
-0.002580128
-0.002454005
-0.00242243
-0.002477382
-0.00246742
-0.004967483
-0.004872112
-0.005264361
-0.004905309
-0.005329439
-0.005780275
-0.005145607
-0.005551836
-0.006043612
-0.006585964
-0.00555345
-0.005946215
-0.006420038
-0.007004172
-0.007669894
-0.005908864
-0.006287061
-0.006731717
-0.007272149
-0.007947072
-0.00873597
-0.006110506
-0.006469518
-0.00688196
-0.007368305
-0.007962268
-0.008712684
-0.009605338
-0.006138466
-0.006474172
-0.006852367
-0.007287401
-0.007801304
-0.00843298
-0.009238536
-0.01020049
-0.006002786
-0.006311668
-0.006654492
-0.00704093
-0.007485749
-0.008013733
-0.008666993
-0.009498996
-0.01049531
-0.005721038
-0.00600043
-0.006306788
-0.006646876
-0.007030299
-0.007473628
-0.008003121
-0.008655852
-0.009487049
-0.01048187
-0.005311904
-0.00555972
-0.005828818
-0.006123845
-0.006451297
-0.006822188
-0.007253957
-0.007767306
-0.008399413
-0.009202536
-0.01003679
-0.004794993
-0.005009786
-0.005241068
-0.005492068
-0.005767093
-0.006073866
-0.00642407
-0.006829705
-0.00731146
-0.007903275
-0.008543275
-0.009206844
-0.004195447
-0.004376564
-0.004570093
-0.004778216
-0.005003801
-0.005252331
-0.00553211
-0.005849666
-0.006217159
-0.00665283
-0.007080951
-0.007537629
-0.008086389
-0.00355603
-0.003704308
-0.003861505
-0.004029053
-0.004208786
-0.004404797
-0.00462311
-0.00486711
-0.00514377
-0.005463442
-0.005727613
-0.005936895
-0.006219827
-0.006545949
-0.002958475
-0.003077772
-0.003203146
-0.003335494
-0.003475948
-0.003627729
-0.003795424
-0.003980358
-0.004186685
-0.004420183
-0.004556323
-0.004539072
-0.004469303
-0.004282326
-0.003792472
-0.002519089
-0.002617699
-0.002720638
-0.002828494
-0.002941998
-0.003063753
-0.003197469
-0.003343501
-0.003504452
-0.003683902
-0.003762032
-0.003688757
-0.003572653
-0.003397846
-0.003131532
-0.002929335
-0.002225724
-0.002310597
-0.002398746
-0.002490582
-0.002586605
-0.002688996
-0.00280092
-0.002922246
-0.003054751
-0.003200791
-0.003252428
-0.003172938
-0.003065538
-0.002927271
-0.002752456
-0.002679943
-0.002678565
-0.002035234
-0.002111049
-0.002189478
-0.00227082
-0.002355435
-0.002445222
-0.002542984
-0.002648328
-0.002762538
-0.002887287
-0.002924357
-0.002846071
-0.002747301
-0.002627654
-0.002486192
-0.00244334
-0.002492936
-0.002478141
-0.001914889
-0.001984744
-0.002056776
-0.002131214
-0.002208327
-0.002289825
-0.002378256
-0.002473073
-0.002575252
-0.00268604
-0.002713792
-0.002635396
-0.002539323
-0.002425372
-0.002293512
-0.002251657
-0.00230071
-0.002329402
-0.002297424
-0.004831205
-0.004608074
-0.004962881
-0.004490521
-0.004867793
-0.005255011
-0.004548339
-0.004901214
-0.005320629
-0.005765826
-0.004805359
-0.005141788
-0.005543713
-0.006030429
-0.006566504
-0.005217845
-0.005550183
-0.005939332
-0.006409028
-0.006988208
-0.007650512
-0.005578961
-0.005905971
-0.006281008
-0.006722129
-0.007258468
-0.007930898
-0.008720632
-0.005791486
-0.006107848
-0.006463981
-0.006873248
-0.007356001
-0.007947982
-0.008699717
-0.009590767
-0.00583583
-0.006135975
-0.006469001
-0.006844268
-0.007276041
-0.007788259
-0.00842141
-0.009226113
-0.01018652
-0.005721038
-0.00600043
-0.006306788
-0.006646876
-0.007030299
-0.007473628
-0.008003121
-0.008655852
-0.009487049
-0.01048187
-0.005463779
-0.005718796
-0.005995796
-0.006299576
-0.006636844
-0.007018917
-0.007463739
-0.007992867
-0.008645101
-0.009475536
-0.01034615
-0.005081887
-0.005309759
-0.005555295
-0.005821945
-0.00611431
-0.006440519
-0.006812865
-0.007244355
-0.007757354
-0.008388986
-0.009085431
-0.009827277
-0.004594229
-0.004792924
-0.005005523
-0.005234456
-0.005482915
-0.005756775
-0.006064951
-0.006414909
-0.006820252
-0.007301643
-0.007795098
-0.008354779
-0.009038707
-0.004025035
-0.004193415
-0.004372379
-0.004563609
-0.004769256
-0.004993722
-0.005243576
-0.00552307
-0.005840303
-0.006207418
-0.006545725
-0.006887773
-0.007361926
-0.007940394
-0.003415531
-0.00355396
-0.003700047
-0.003854907
-0.004019943
-0.004198553
-0.004395761
-0.004613629
-0.004857133
-0.005133234
-0.005346054
-0.005492913
-0.00569644
-0.005989373
-0.006370985
-0.002844528
-0.002956299
-0.00307329
-0.003196206
-0.003325913
-0.003465195
-0.003617997
-0.003784966
-0.003969097
-0.004174529
-0.004281913
-0.004238634
-0.004140823
-0.003940751
-0.003524024
-0.003021478
-0.002424322
-0.002517002
-0.002613404
-0.002713994
-0.002819334
-0.002931732
-0.003054473
-0.003187513
-0.003332804
-0.003492938
-0.003553477
-0.003467238
-0.003337701
-0.003152875
-0.002896358
-0.002749548
-0.002721573
-0.002143787
-0.002223773
-0.002306586
-0.002392547
-0.002482046
-0.002577052
-0.002680426
-0.002791796
-0.002912518
-0.003044364
-0.00308412
-0.0029972
-0.002881691
-0.002735542
-0.002556849
-0.002485496
-0.002522407
-0.002497458
-0.001961779
-0.002033399
-0.002107281
-0.00218366
-0.002262815
-0.002346487
-0.002437246
-0.002534546
-0.002639391
-0.00275306
-0.002781564
-0.002698754
-0.002595017
-0.002469915
-0.002323443
-0.002270875
-0.002314751
-0.002338967
-0.002303554
-0.001847017
-0.001913142
-0.001981158
-0.002051243
-0.002123609
-0.002199833
-0.002282281
-0.002370306
-0.002464685
-0.002566392
-0.002587634
-0.002506573
-0.002407657
-0.002290584
-0.002155377
-0.002104076
-0.002138816
-0.002164802
-0.002172122
-0.00212255
-0.004489053
-0.004826686
-0.004253787
-0.004603885
-0.004953863
-0.004168003
-0.004486568
-0.004859316
-0.005241217
-0.004250003
-0.004544549
-0.004893166
-0.005307615
-0.005746805
-0.004516198
-0.004801796
-0.005134279
-0.005531706
-0.006013062
-0.006545667
-0.004927108
-0.005214779
-0.005543764
-0.005929167
-0.006394537
-0.006971129
-0.007634208
-0.005287975
-0.005576234
-0.005900291
-0.006272071
-0.006709514
-0.007243836
-0.007917541
-0.00870563
-0.00550609
-0.005788971
-0.006102627
-0.006455805
-0.006861781
-0.007342839
-0.007936282
-0.008687136
-0.009576652
-0.005561969
-0.005833466
-0.00613108
-0.006461361
-0.006833604
-0.007263884
-0.007777607
-0.008410221
-0.009214113
-0.01017305
-0.005463779
-0.005718796
-0.005995796
-0.006299576
-0.006636844
-0.007018917
-0.007463739
-0.007992867
-0.008645101
-0.009475536
-0.01034615
-0.005227151
-0.005461641
-0.005714385
-0.005988944
-0.006290071
-0.0066261
-0.007009632
-0.007454185
-0.007982972
-0.00863474
-0.009359207
-0.01013872
-0.00486905
-0.005079839
-0.005305538
-0.005548748
-0.005812882
-0.006104095
-0.006431718
-0.006803849
-0.007235081
-0.007747754
-0.008283502
-0.008905077
-0.009668675
-0.004407533
-0.00459225
-0.00478885
-0.004999211
-0.005225734
-0.005473106
-0.005748325
-0.006056301
-0.00640603
-0.006811098
-0.007201956
-0.007624917
-0.008208785
-0.008923474
-0.003865896
-0.004023087
-0.004189409
-0.004366179
-0.004555053
-0.004759648
-0.004985396
-0.005235005
-0.005514227
-0.005831148
-0.006107479
-0.00636746
-0.006728587
-0.007233316
-0.00786135
-0.003283854
-0.003413545
-0.003549875
-0.003693727
-0.003846191
-0.004010167
-0.004189938
-0.004386743
-0.004604167
-0.004847177
-0.005022856
-0.005126895
-0.005270774
-0.005487027
-0.005832929
-0.002737398
-0.002842437
-0.002951996
-0.003066633
-0.003187024
-0.00331562
-0.003455895
-0.003608023
-0.003774251
-0.003957563
-0.004043819
-0.003983113
-0.003866731
-0.003652602
-0.003251573
-0.002831825
-0.002759674
-0.00233498
-0.002422314
-0.002512873
-0.002607022
-0.002705202
-0.002809491
-0.002922848
-0.003044957
-0.003177308
-0.003321845
-0.003369147
-0.003274725
-0.003136946
-0.002945493
-0.002689178
-0.002548385
-0.002560789
-0.002520324
-0.002066354
-0.002141908
-0.002219913
-0.002300625
-0.002384345
-0.002472876
-0.002568835
-0.002671689
-0.002782495
-0.002902606
-0.002933276
-0.002841818
-0.002721717
-0.002571066
-0.002389172
-0.002309632
-0.002341363
-0.002356208
-0.002314215
-0.001892217
-0.001960011
-0.00202977
-0.00210168
-0.00217596
-0.002254215
-0.002338829
-0.002429154
-0.002525987
-0.002630328
-0.00265215
-0.002566736
-0.002460374
-0.002332574
-0.002183438
-0.002121959
-0.002151723
-0.002173437
-0.002177587
-0.002125696
-0.001782626
-0.001845333
-0.001909686
-0.001975828
-0.002043921
-0.002115437
-0.002192582
-0.002274647
-0.002362261
-0.002456199
-0.002472284
-0.002389853
-0.002289709
-0.002171462
-0.002035102
-0.001976943
-0.001998557
-0.002012851
-0.002020133
-0.002009644
-0.00194566
-0.004147211
-0.00448493
-0.004817832
-0.003951169
-0.004249945
-0.004595668
-0.00494056
-0.003896624
-0.004164337
-0.0044788
-0.004846797
-0.005223061
-0.003995536
-0.004246463
-0.004537095
-0.004881269
-0.00529047
-0.005726437
-0.004265286
-0.004512852
-0.004794786
-0.005123172
-0.005515878
-0.005994457
-0.006527646
-0.004670515
-0.004924217
-0.005208752
-0.00553428
-0.005915781
-0.006379026
-0.006956751
-0.007617946
-0.005027601
-0.005285395
-0.005570877
-0.0058919
-0.006260306
-0.006696014
-0.007231749
-0.007904467
-0.008690965
-0.005247807
-0.005503703
-0.005784028
-0.006094913
-0.006445039
-0.006849509
-0.007332058
-0.007924931
-0.008674943
-0.009562992
-0.005311904
-0.00555972
-0.005828818
-0.006123845
-0.006451297
-0.006822188
-0.007253957
-0.007767306
-0.008399413
-0.009202536
-0.01003679
-0.005227151
-0.005461641
-0.005714385
-0.005988944
-0.006290071
-0.0066261
-0.007009632
-0.007454185
-0.007982972
-0.00863474
-0.009359207
-0.01013872
-0.005008201
-0.005225109
-0.005457433
-0.005707859
-0.005979911
-0.006279888
-0.006617334
-0.007000661
-0.007444964
-0.007973437
-0.008530052
-0.00918118
-0.009982643
-0.004671135
-0.00486709
-0.005075804
-0.00529929
-0.005540114
-0.005803171
-0.006095753
-0.006423206
-0.00679514
-0.007226133
-0.007650629
-0.008121006
-0.008768373
-0.009562074
-0.0042332
-0.004405637
-0.00458835
-0.004782815
-0.004990884
-0.005216385
-0.005465071
-0.005740125
-0.006047917
-0.006397432
-0.006718146
-0.007045109
-0.007493064
-0.008108571
-0.008864662
-0.003716763
-0.003864028
-0.004019247
-0.004183471
-0.004357994
-0.004545876
-0.004751712
-0.004977246
-0.00522662
-0.00550558
-0.00573723
-0.005941133
-0.006220549
-0.006612026
-0.007163558
-0.003160069
-0.003281946
-0.003409624
-0.003543814
-0.003685376
-0.003836836
-0.004001937
-0.00418134
-0.004377742
-0.004594725
-0.004742875
-0.004816792
-0.004919491
-0.005077346
-0.005344869
-0.002636414
-0.002735387
-0.002838302
-0.002945602
-0.003057823
-0.003177159
-0.00330672
-0.003446365
-0.003597804
-0.003763277
-0.003833553
-0.003761409
-0.003633411
-0.003410967
-0.003016303
-0.002622809
-0.002594819
-0.00253762
-0.00225056
-0.002333047
-0.002418342
-0.002506737
-0.002598576
-0.002695755
-0.002800974
-0.002913737
-0.003035203
-0.003166854
-0.003204022
-0.003104622
-0.002962471
-0.002768018
-0.002512353
-0.002367484
-0.002376044
-0.002376624
-0.002326082
-0.001993032
-0.002064544
-0.002138192
-0.002214177
-0.002292737
-0.002375532
-0.002464987
-0.002560457
-0.002662783
-0.002773019
-0.002796602
-0.002702613
-0.002580331
-0.002427955
-0.00224508
-0.002158032
-0.002176194
-0.002189005
-0.002187094
-0.002131036
-0.001826227
-0.001890513
-0.001956514
-0.002024375
-0.002094268
-0.002167687
-0.002246855
-0.002331059
-0.002420946
-0.002517307
-0.002533838
-0.002447134
-0.002339774
-0.002211213
-0.002061563
-0.001993717
-0.00201057
-0.002020789
-0.002025062
-0.002012431
-0.001946776
-0.00172144
-0.001781002
-0.001842
-0.001904549
-0.001968774
-0.002036053
-0.002108461
-0.002185244
-0.002266923
-0.002354122
-0.002366065
-0.002283168
-0.002182891
-0.002064816
-0.001928886
-0.001866272
-0.001877649
-0.001880831
-0.001878748
-0.001870429
-0.001844643
-0.001768665
-0.003853631
-0.004143424
-0.004476841
-0.004804773
-0.003695315
-0.003947603
-0.004242398
-0.004583534
-0.004923054
-0.003664421
-0.003893196
-0.00415713
-0.00446732
-0.004830309
-0.005203623
-0.003774333
-0.003992207
-0.004239494
-0.004526068
-0.004865586
-0.005272104
-0.005708792
-0.004043658
-0.004262127
-0.004506263
-0.004784409
-0.005108523
-0.005498915
-0.005978358
-0.006509172
-0.004440836
-0.004667777
-0.004918529
-0.005199841
-0.005521782
-0.005901446
-0.006365967
-0.006942399
-0.00760173
-0.004791927
-0.005025151
-0.005280322
-0.005562958
-0.005880848
-0.00624771
-0.006684863
-0.007219919
-0.007891679
-0.008676638
-0.005011951
-0.005245536
-0.00549901
-0.005776722
-0.006084751
-0.006433512
-0.006839457
-0.007321598
-0.007913928
-0.008663139
-0.009424358
-0.005081887
-0.005309759
-0.005555295
-0.005821945
-0.00611431
-0.006440519
-0.006812865
-0.007244355
-0.007757354
-0.008388986
-0.009085431
-0.009827277
-0.005008201
-0.005225109
-0.005457433
-0.005707859
-0.005979911
-0.006279888
-0.006617334
-0.007000661
-0.007444964
-0.007973437
-0.008530052
-0.00918118
-0.009982643
-0.004804606
-0.005006247
-0.005221087
-0.005451205
-0.005699253
-0.005970231
-0.006271581
-0.006608865
-0.006992004
-0.007436079
-0.007877082
-0.008369812
-0.009047095
-0.009878302
-0.004486333
-0.004669257
-0.004863229
-0.00506983
-0.005291046
-0.005530858
-0.00579524
-0.006087686
-0.006414984
-0.006786737
-0.00713561
-0.007500996
-0.007997814
-0.008676399
-0.009508469
-0.004069837
-0.004231381
-0.004401899
-0.004582571
-0.004774851
-0.004981955
-0.005208727
-0.005457275
-0.005732177
-0.006039798
-0.006310118
-0.006571886
-0.006923575
-0.007402533
-0.008057371
-0.00357658
-0.003714969
-0.003860343
-0.004013553
-0.00417563
-0.004349214
-0.004538295
-0.004743942
-0.004969272
-0.005218422
-0.005416868
-0.005580897
-0.005804039
-0.006112971
-0.006548789
-0.003043398
-0.003158235
-0.003278178
-0.003403804
-0.003535802
-0.003676411
-0.003828961
-0.003993722
-0.004172758
-0.00436876
-0.004495799
-0.004548161
-0.004621794
-0.004738914
-0.004946062
-0.002541005
-0.002634479
-0.002731409
-0.002832155
-0.00293714
-0.003048356
-0.003168628
-0.003297598
-0.0034366
-0.003587338
-0.003645286
-0.003565654
-0.003430946
-0.003204952
-0.00281715
-0.002435998
-0.002406813
-0.002392073
-0.002334317
-0.002170631
-0.002248698
-0.002329223
-0.002412438
-0.002498615
-0.002589499
-0.00268758
-0.00279224
-0.002904399
-0.003025211
-0.003054456
-0.002952288
-0.002808352
-0.002613749
-0.002360656
-0.002211897
-0.002208096
-0.002207447
-0.00219768
-0.002136756
-0.00192348
-0.001991288
-0.002060963
-0.002132667
-0.002206584
-0.002284259
-0.002367951
-0.002456944
-0.002551917
-0.002653709
-0.002671679
-0.002576526
-0.002453721
-0.002301531
-0.0021197
-0.00202756
-0.002033349
-0.002035103
-0.002033638
-0.002017163
-0.001948617
-0.001763523
-0.001824583
-0.00188714
-0.001951314
-0.002017235
-0.002086302
-0.002160606
-0.002239388
-0.002323179
-0.002412622
-0.002424901
-0.002337826
-0.002230564
-0.002102573
-0.001953942
-0.001882096
-0.001888919
-0.001888219
-0.001883278
-0.001872933
-0.001845591
-0.001768142
-0.001663221
-0.001719872