/*--------------------------------*- C++ -*----------------------------------*\
| =========                 |                                                 |
| \\      /  F ield         | OpenFOAM: The Open Source CFD Toolbox           |
|  \\    /   O peration     | Version:  2306                                  |
|   \\  /    A nd           | Website:  www.openfoam.com                      |
|    \\/     M anipulation  |                                                 |
\*---------------------------------------------------------------------------*/
FoamFile
{
    version     2.0;
    format      ascii;
    arch        "LSB;label=32;scalar=64";
    class       volScalarField;
    location    "1.2/phiEA";
    object      T;
}
// * * * * * * * * * * * * * * * * * * * * * * * * * * * * * * * * * * * * * //

dimensions      [0 0 0 1 0 0 0];

internalField   nonuniform List<scalar> 
20000
(
1212.91
1212.743
1214.903
1212.925
1212.359
1214.892
1212.759
1216.706
1214.913
1212.945
1211.649
1214.863
1212.376
1216.736
1214.901
1212.779
1218.367
1216.71
1214.927
1212.97
1210.464
1214.804
1211.669
1216.804
1214.871
1212.398
1218.41
1216.741
1214.914
1212.805
1219.952
1218.368
1216.719
1214.945
1213
1208.737
1214.692
1210.491
1216.921
1214.811
1211.695
1218.504
1216.807
1214.884
1212.425
1219.996
1218.41
1216.749
1214.933
1212.836
1221.481
1219.949
1218.372
1216.732
1214.968
1213.035
1206.785
1214.494
1208.778
1217.097
1214.696
1210.525
1218.67
1216.922
1214.822
1211.726
1220.095
1218.503
1216.815
1214.902
1212.458
1221.524
1219.993
1218.414
1216.762
1214.956
1212.872
1222.96
1221.475
1219.95
1218.381
1216.75
1214.997
1213.072
1205
1214.194
1206.844
1217.316
1214.493
1208.824
1218.928
1217.093
1214.704
1210.564
1220.27
1218.666
1216.927
1214.839
1211.763
1221.62
1220.091
1218.506
1216.826
1214.924
1212.497
1223.001
1221.518
1219.993
1218.422
1216.779
1214.984
1212.909
1224.391
1222.952
1221.473
1219.955
1218.394
1216.772
1215.025
1213.108
1203.672
1213.854
1205.077
1217.492
1214.192
1206.907
1219.268
1217.304
1214.497
1208.876
1220.545
1218.92
1217.094
1214.718
1210.609
1221.791
1220.263
1218.667
1216.936
1214.86
1211.807
1223.093
1221.613
1220.09
1218.513
1216.843
1214.952
1212.536
1224.43
1222.993
1221.515
1219.998
1218.435
1216.801
1215.012
1212.946
1225.771
1224.381
1222.948
1221.475
1219.964
1218.412
1216.795
1215.054
1213.145
1202.97
1213.562
1203.763
1217.596
1213.854
1205.158
1219.588
1217.475
1214.195
1206.976
1220.912
1219.252
1217.298
1214.506
1208.932
1222.061
1220.534
1218.916
1217.099
1214.736
1210.66
1223.256
1221.782
1220.26
1218.671
1216.95
1214.886
1211.851
1224.517
1223.084
1221.61
1220.094
1218.524
1216.863
1214.98
1212.576
1225.808
1224.419
1222.988
1221.517
1220.006
1218.452
1216.823
1215.041
1212.984
1227.1
1225.76
1224.375
1222.947
1221.481
1219.977
1218.429
1216.818
1215.083
1213.181
1202.97
1213.396
1203.068
1217.644
1213.565
1203.857
1219.832
1217.577
1213.859
1205.244
1221.268
1219.566
1217.463
1214.203
1207.049
1222.423
1220.894
1219.24
1217.295
1214.52
1208.995
1223.514
1222.048
1220.527
1218.916
1217.108
1214.76
1210.713
1224.671
1223.245
1221.777
1220.262
1218.68
1216.969
1214.913
1211.896
1225.89
1224.506
1223.078
1221.611
1220.101
1218.54
1216.885
1215.008
1212.616
1227.135
1225.796
1224.413
1222.987
1221.522
1220.019
1218.469
1216.846
1215.07
1213.022
1228.377
1227.087
1225.752
1224.372
1222.95
1221.49
1219.991
1218.447
1216.841
1215.112
1213.36
1203.672
1213.396
1203.068
1217.659
1213.401
1203.17
1219.99
1217.624
1213.573
1203.956
1221.551
1219.807
1217.563
1213.868
1205.334
1222.779
1221.244
1219.549
1217.456
1214.216
1207.128
1223.861
1222.404
1220.88
1219.233
1217.298
1214.539
1209.058
1224.915
1223.499
1222.039
1220.524
1218.92
1217.122
1214.784
1210.766
1226.036
1224.658
1223.238
1221.775
1220.267
1218.694
1216.987
1214.94
1211.941
1227.213
1225.878
1224.498
1223.077
1221.615
1220.113
1218.556
1216.906
1215.036
1212.657
1228.41
1227.122
1225.788
1224.41
1222.99
1221.532
1220.032
1218.486
1216.868
1215.098
1213.207
1229.602
1228.364
1227.078
1225.747
1224.373
1222.957
1221.5
1220.004
1218.465
1216.863
1215.253
1213.702
1205
1213.562
1203.763
1217.659
1213.401
1203.17
1220.066
1217.64
1213.411
1203.276
1221.741
1219.963
1217.609
1213.586
1204.059
1223.065
1221.524
1219.786
1217.553
1213.883
1205.429
1224.203
1222.755
1221.225
1219.536
1217.453
1214.234
1207.207
1225.244
1223.841
1222.389
1220.87
1219.231
1217.305
1214.559
1209.122
1226.268
1224.9
1223.489
1222.034
1220.525
1218.929
1217.136
1214.808
1210.82
1227.352
1226.023
1224.649
1223.234
1221.778
1220.276
1218.707
1217.006
1214.967
1211.988
1228.484
1227.2
1225.869
1224.494
1223.078
1221.623
1220.125
1218.572
1216.927
1215.064
1212.856
1229.633
1228.396
1227.113
1225.783
1224.41
1222.996
1221.541
1220.045
1218.503
1216.89
1215.239
1213.566
1230.774
1229.588
1228.354
1227.073
1225.747
1224.377
1222.964
1221.51
1220.018
1218.483
1216.976
1215.51
1214.062
1206.785
1213.854
1205.077
1217.644
1213.565
1203.857
1220.066
1217.64
1213.411
1203.276
1221.835
1220.038
1217.624
1213.425
1203.385
1223.26
1221.712
1219.94
1217.598
1213.603
1204.166
1224.481
1223.038
1221.502
1219.77
1217.548
1213.902
1205.524
1225.57
1224.179
1222.735
1221.21
1219.528
1217.455
1214.252
1207.286
1226.58
1225.224
1223.825
1222.378
1220.865
1219.233
1217.312
1214.579
1209.186
1227.572
1226.251
1224.888
1223.482
1222.032
1220.53
1218.938
1217.151
1214.833
1210.875
1228.617
1227.337
1226.012
1224.644
1223.234
1221.784
1220.286
1218.721
1217.025
1214.994
1212.213
1229.704
1228.47
1227.19
1225.864
1224.494
1223.084
1221.632
1220.136
1218.588
1216.948
1215.203
1213.255
1230.805
1229.619
1228.386
1227.107
1225.782
1224.414
1223.003
1221.551
1220.058
1218.52
1217
1215.495
1213.949
1231.895
1230.76
1229.577
1228.347
1227.07
1225.749
1224.382
1222.971
1221.52
1220.031
1218.571
1217.175
1215.768
1214.437
1208.737
1214.194
1206.844
1217.596
1213.854
1205.158
1219.99
1217.624
1213.573
1203.956
1221.835
1220.038
1217.624
1213.425
1203.385
1223.357
1221.805
1220.015
1217.614
1213.444
1203.499
1224.67
1223.231
1221.688
1219.923
1217.593
1213.625
1204.274
1225.836
1224.453
1223.015
1221.483
1219.758
1217.547
1213.922
1205.618
1226.89
1225.546
1224.159
1222.719
1221.2
1219.524
1217.457
1214.27
1207.364
1227.868
1226.56
1225.208
1223.813
1222.371
1220.864
1219.234
1217.32
1214.599
1209.25
1228.826
1227.555
1226.238
1224.879
1223.478
1222.035
1220.535
1218.946
1217.165
1214.858
1211.14
1229.831
1228.601
1227.326
1226.005
1224.642
1223.238
1221.79
1220.295
1218.734
1217.043
1215.127
1212.681
1230.873
1229.69
1228.459
1227.183
1225.862
1224.497
1223.09
1221.64
1220.148
1218.604
1217.052
1215.458
1213.692
1231.924
1230.79
1229.608
1228.379
1227.104
1225.784
1224.419
1223.01
1221.56
1220.071
1218.606
1217.194
1215.754
1214.352
1232.965
1231.881
1230.749
1229.569
1228.343
1227.071
1225.752
1224.387
1222.978
1221.53
1220.099
1218.725
1217.371
1216.029
1214.822
1210.464
1214.494
1208.778
1217.492
1214.192
1206.907
1219.832
1217.577
1213.859
1205.244
1221.741
1219.963
1217.609
1213.586
1204.059
1223.357
1221.805
1220.015
1217.614
1213.444
1203.499
1224.765
1223.327
1221.78
1219.996
1217.608
1213.468
1203.613
1226.017
1224.641
1223.206
1221.667
1219.909
1217.592
1213.647
1204.38
1227.143
1225.809
1224.43
1222.996
1221.469
1219.751
1217.547
1213.942
1205.711
1228.164
1226.866
1225.526
1224.142
1222.707
1221.193
1219.52
1217.46
1214.289
1207.442
1229.109
1227.848
1226.543
1225.195
1223.805
1222.368
1220.863
1219.236
1217.327
1214.619
1209.556
1230.031
1228.809
1227.541
1226.229
1224.874
1223.479
1222.037
1220.54
1218.955
1217.179
1214.979
1211.692
1230.994
1229.815
1228.589
1227.318
1226.002
1224.644
1223.242
1221.797
1220.305
1218.747
1217.136
1215.379
1213.212
1231.99
1230.858
1229.678
1228.452
1227.18
1225.863
1224.501
1223.095
1221.648
1220.16
1218.683
1217.234
1215.72
1214.161
1232.993
1231.91
1230.779
1229.6
1228.375
1227.105
1225.787
1224.423
1223.016
1221.569
1220.136
1218.754
1217.385
1216.017
1214.769
1233.985
1232.951
1231.869
1230.741
1229.565
1228.343
1227.072
1225.754
1224.391
1222.985
1221.581
1220.215
1218.874
1217.564
1216.292
1215.044
1211.649
1214.692
1210.491
1217.316
1214.493
1208.824
1219.588
1217.475
1214.195
1206.976
1221.551
1219.807
1217.563
1213.868
1205.334
1223.26
1221.712
1219.94
1217.598
1213.603
1204.166
1224.765
1223.327
1221.78
1219.996
1217.608
1213.468
1203.613
1226.108
1224.735
1223.301
1221.759
1219.982
1217.607
1213.492
1203.726
1227.315
1225.989
1224.616
1223.185
1221.651
1219.9
1217.59
1213.669
1204.485
1228.404
1227.117
1225.786
1224.411
1222.981
1221.459
1219.744
1217.547
1213.962
1205.804
1229.391
1228.14
1226.846
1225.51
1224.13
1222.699
1221.187
1219.516
1217.462
1214.307
1207.809
1230.301
1229.089
1227.831
1226.53
1225.186
1223.8
1222.364
1220.861
1219.238
1217.335
1214.718
1210.123
1231.185
1230.013
1228.795
1227.531
1226.223
1224.873
1223.479
1222.039
1220.545
1218.963
1217.249
1215.217
1212.331
1232.106
1230.978
1229.802
1228.581
1227.313
1226.002
1224.645
1223.245
1221.803
1220.314
1218.813
1217.297
1215.646
1213.802
1233.056
1231.974
1230.846
1229.67
1228.448
1227.18
1225.865
1224.504
1223.101
1221.657
1220.218
1218.816
1217.413
1215.988
1214.654
1234.012
1232.978
1231.898
1230.77
1229.596
1228.375
1227.105
1225.789
1224.427
1223.023
1221.617
1220.246
1218.896
1217.573
1216.283
1215.009
1234.955
1233.97
1232.939
1231.86
1230.735
1229.564
1228.343
1227.073
1225.757
1224.396
1223.021
1221.666
1220.327
1219.019
1217.756
1216.44
1215.116
1212.359
1214.804
1211.669
1217.097
1214.696
1210.525
1219.268
1217.304
1214.497
1208.876
1221.268
1219.566
1217.463
1214.203
1207.049
1223.065
1221.524
1219.786
1217.553
1213.883
1205.429
1224.67
1223.231
1221.688
1219.923
1217.593
1213.625
1204.274
1226.108
1224.735
1223.301
1221.759
1219.982
1217.607
1213.492
1203.726
1227.402
1226.079
1224.71
1223.28
1221.742
1219.973
1217.606
1213.515
1203.838
1228.569
1227.288
1225.965
1224.596
1223.168
1221.64
1219.891
1217.589
1213.691
1204.589
1229.621
1228.379
1227.094
1225.768
1224.396
1222.97
1221.449
1219.736
1217.547
1213.981
1206.238
1230.571
1229.368
1228.12
1226.83
1225.497
1224.121
1222.691
1221.18
1219.512
1217.465
1214.397
1208.428
1231.445
1230.281
1229.072
1227.818
1226.52
1225.181
1223.796
1222.361
1220.86
1219.24
1217.372
1214.909
1210.702
1232.29
1231.168
1229.999
1228.784
1227.524
1226.22
1224.872
1223.479
1222.041
1220.55
1219.006
1217.374
1215.479
1213.084
1233.168
1232.09
1230.965
1229.793
1228.575
1227.312
1226.002
1224.647
1223.249
1221.809
1220.359
1218.921
1217.455
1215.927
1214.446
1234.073
1233.041
1231.962
1230.837
1229.665
1228.446
1227.18
1225.866
1224.507
1223.106
1221.698
1220.314
1218.943
1217.59
1216.262
1214.939
1234.981
1233.997
1232.966
1231.889
1230.765
1229.594
1228.374
1227.106
1225.791
1224.431
1223.056
1221.696
1220.35
1219.034
1217.759
1216.433
1215.087
1235.877
1234.94
1233.958
1232.93
1231.855
1230.733
1229.562
1228.342
1227.074
1225.759
1224.419
1223.08
1221.746
1220.434
1219.163
1217.863
1216.48
1215.202
1212.743
1214.863
1212.376
1216.921
1214.811
1211.695
1218.928
1217.093
1214.704
1210.564
1220.912
1219.252
1217.298
1214.506
1208.932
1222.779
1221.244
1219.549
1217.456
1214.216
1207.128
1224.481
1223.038
1221.502
1219.77
1217.548
1213.902
1205.524
1226.017
1224.641
1223.206
1221.667
1219.909
1217.592
1213.647
1204.38
1227.402
1226.079
1224.71
1223.28
1221.742
1219.973
1217.606
1213.515
1203.838
1228.652
1227.374
1226.055
1224.689
1223.262
1221.73
1219.963
1217.605
1213.539
1203.948
1229.778
1228.543
1227.265
1225.945
1224.579
1223.155
1221.628
1219.882
1217.589
1213.713
1205.076
1230.791
1229.596
1228.357
1227.076
1225.753
1224.385
1222.959
1221.439
1219.729
1217.547
1214.077
1206.935
1231.704
1230.548
1229.348
1228.104
1226.817
1225.488
1224.113
1222.683
1221.174
1219.509
1217.477
1214.565
1209.005
1232.54
1231.425
1230.264
1229.058
1227.808
1226.514
1225.175
1223.791
1222.358
1220.859
1219.249
1217.442
1215.109
1211.284
1233.346
1232.273
1231.153
1229.988
1228.776
1227.52
1226.218
1224.87
1223.479
1222.043
1220.573
1219.073
1217.499
1215.775
1214.006
1234.181
1233.152
1232.077
1230.955
1229.787
1228.573
1227.31
1226.002
1224.648
1223.252
1221.838
1220.43
1219.02
1217.613
1216.223
1214.831
1235.04
1234.057
1233.028
1231.953
1230.831
1229.662
1228.445
1227.179
1225.867
1224.51
1223.134
1221.764
1220.402
1219.064
1217.765
1216.418
1215.029
1235.902
1234.966
1233.985
1232.957
1231.883
1230.762
1229.592
1228.374
1227.107
1225.793
1224.452
1223.109
1221.769
1220.45
1219.169
1217.863
1216.474
1215.179
1236.751
1235.862
1234.928
1233.949
1232.923
1231.852
1230.731
1229.561
1228.342
1227.075
1225.772
1224.455
1223.134
1221.822
1220.539
1219.242
1217.887
1216.525
1215.3
1212.91
1214.892
1212.759
1216.804
1214.871
1212.398
1218.67
1216.922
1214.822
1211.726
1220.545
1218.92
1217.094
1214.718
1210.609
1222.423
1220.894
1219.24
1217.295
1214.52
1208.995
1224.203
1222.755
1221.225
1219.536
1217.453
1214.234
1207.207
1225.836
1224.453
1223.015
1221.483
1219.758
1217.547
1213.922
1205.618
1227.315
1225.989
1224.616
1223.185
1221.651
1219.9
1217.59
1213.669
1204.485
1228.652
1227.374
1226.055
1224.689
1223.262
1221.73
1219.963
1217.605
1213.539
1203.948
1229.858
1228.625
1227.351
1226.034
1224.671
1223.249
1221.717
1219.953
1217.604
1213.563
1204.463
1230.943
1229.753
1228.52
1227.245
1225.928
1224.566
1223.142
1221.616
1219.873
1217.588
1213.819
1205.844
1231.916
1230.767
1229.575
1228.339
1227.061
1225.741
1224.373
1222.948
1221.429
1219.722
1217.547
1214.245
1207.556
1232.789
1231.682
1230.529
1229.332
1228.091
1226.808
1225.479
1224.104
1222.675
1221.167
1219.491
1217.508
1214.733
1209.531
1233.586
1232.52
1231.408
1230.25
1229.048
1227.801
1226.507
1225.169
1223.786
1222.355
1220.853
1219.267
1217.514
1215.313
1211.852
1234.352
1233.328
1232.258
1231.142
1229.979
1228.772
1227.516
1226.215
1224.868
1223.479
1222.053
1220.605
1219.134
1217.63
1216.122
1214.685
1235.144
1234.164
1233.138
1232.066
1230.948
1229.783
1228.57
1227.309
1226.001
1224.649
1223.269
1221.879
1220.49
1219.114
1217.772
1216.395
1214.944
1235.959
1235.025
1234.045
1233.019
1231.946
1230.828
1229.66
1228.444
1227.179
1225.868
1224.526
1223.174
1221.821
1220.484
1219.183
1217.863
1216.462
1215.132
1236.776
1235.887
1234.954
1233.975
1232.951
1231.88
1230.76
1229.591
1228.373
1227.107
1225.804
1224.483
1223.156
1221.838
1220.547
1219.244
1217.886
1216.52
1215.28
1237.579
1236.736
1235.85
1234.919
1233.942
1232.92
1231.849
1230.728
1229.559
1228.341
1227.079
1225.791
1224.488
1223.184
1221.896
1220.597
1219.256
1217.911
1216.575
1215.404
1214.903
1212.925
1216.736
1214.901
1212.779
1218.504
1216.807
1214.884
1212.425
1220.27
1218.666
1216.927
1214.839
1211.763
1222.061
1220.534
1218.916
1217.099
1214.736
1210.66
1223.861
1222.404
1220.88
1219.233
1217.298
1214.539
1209.058
1225.57
1224.179
1222.735
1221.21
1219.528
1217.455
1214.252
1207.286
1227.143
1225.809
1224.43
1222.996
1221.469
1219.751
1217.547
1213.942
1205.711
1228.569
1227.288
1225.965
1224.596
1223.168
1221.64
1219.891
1217.589
1213.691
1204.589
1229.858
1228.625
1227.351
1226.034
1224.671
1223.249
1221.717
1219.953
1217.604
1213.563
1204.463
1231.019
1229.832
1228.602
1227.33
1226.017
1224.658
1223.235
1221.704
1219.943
1217.602
1213.676
1205.271
1232.061
1230.918
1229.731
1228.501
1227.229
1225.916
1224.553
1223.13
1221.604
1219.864
1217.584
1213.999
1206.514
1232.993
1231.892
1230.747
1229.557
1228.325
1227.05
1225.73
1224.362
1222.937
1221.42
1219.688
1217.556
1214.408
1208.098
1233.827
1232.767
1231.663
1230.513
1229.32
1228.082
1226.798
1225.47
1224.095
1222.668
1221.136
1219.467
1217.542
1214.897
1209.997
1234.585
1233.567
1232.503
1231.394
1230.24
1229.04
1227.794
1226.501
1225.164
1223.782
1222.339
1220.841
1219.282
1217.583
1215.511
1235.31
1234.335
1233.313
1232.246
1231.133
1229.974
1228.767
1227.512
1226.212
1224.867
1223.478
1222.059
1220.626
1219.188
1217.77
1216.363
1214.838
1236.06
1235.128
1234.151
1233.128
1232.059
1230.944
1229.78
1228.567
1227.307
1226.001
1224.655
1223.287
1221.91
1220.542
1219.204
1217.862
1216.444
1215.064
1236.831
1235.944
1235.012
1234.035
1233.012
1231.943
1230.825
1229.658
1228.442
1227.179
1225.874
1224.546
1223.206
1221.872
1220.562
1219.248
1217.886
1216.511
1215.242
1237.602
1236.761
1235.875
1234.944
1233.969
1232.947
1231.877
1230.757
1229.589
1228.372
1227.11
1225.817
1224.509
1223.199
1221.903
1220.599
1219.258
1217.91
1216.571
1215.388
1238.36
1237.564
1236.724
1235.841
1234.912
1233.938
1232.916
1231.846
1230.726
1229.558
1228.339
1227.082
1225.805
1224.516
1223.232
1221.936
1220.606
1219.27
1217.936
1216.628
1215.512
1216.706
1214.913
1212.945
1218.41
1216.741
1214.914
1212.805
1220.095
1218.503
1216.815
1214.902
1212.458
1221.791
1220.263
1218.667
1216.936
1214.86
1211.807
1223.514
1222.048
1220.527
1218.916
1217.108
1214.76
1210.713
1225.244
1223.841
1222.389
1220.87
1219.231
1217.305
1214.559
1209.122
1226.89
1225.546
1224.159
1222.719
1221.2
1219.524
1217.457
1214.27
1207.364
1228.404
1227.117
1225.786
1224.411
1222.981
1221.459
1219.744
1217.547
1213.962
1205.804
1229.778
1228.543
1227.265
1225.945
1224.579
1223.155
1221.628
1219.882
1217.589
1213.713
1205.076
1231.019
1229.832
1228.602
1227.33
1226.017
1224.658
1223.235
1221.704
1219.943
1217.602
1213.676
1205.271
1232.134
1230.994
1229.809
1228.582
1227.314
1226.003
1224.644
1223.221
1221.691
1219.934
1217.598
1213.865
1205.971
1233.133
1232.037
1230.896
1229.712
1228.485
1227.217
1225.902
1224.54
1223.117
1221.592
1219.821
1217.583
1214.168
1207.09
1234.023
1232.97
1231.872
1230.729
1229.543
1228.313
1227.038
1225.718
1224.351
1222.926
1221.371
1219.637
1217.569
1214.564
1208.56
1234.817
1233.805
1232.749
1231.647
1230.501
1229.31
1228.072
1226.789
1225.461
1224.087
1222.629
1221.087
1219.449
1217.577
1215.053
1235.536
1234.566
1233.55
1232.49
1231.384
1230.232
1229.033
1227.787
1226.495
1225.158
1223.758
1222.308
1220.827
1219.296
1217.647
1236.221
1235.293
1234.32
1233.302
1232.237
1231.127
1229.969
1228.762
1227.508
1226.208
1224.857
1223.464
1222.053
1220.637
1219.236
1217.858
1216.422
1214.98
1236.929
1236.044
1235.115
1234.14
1233.12
1232.054
1230.939
1229.776
1228.564
1227.305
1225.998
1224.654
1223.294
1221.932
1220.588
1219.253
1217.884
1216.498
1215.186
1237.656
1236.816
1235.931
1235.002
1234.028
1233.008
1231.939
1230.821
1229.655
1228.44
1227.177
1225.877
1224.557
1223.233
1221.919
1220.605
1219.26
1217.91
1216.564
1215.356
1238.383
1237.588
1236.749
1235.865
1234.938
1233.965
1232.943
1231.873
1230.754
1229.587
1228.367
1227.108
1225.825
1224.531
1223.239
1221.939
1220.608
1219.27
1217.935
1216.625
1215.499
1239.097
1238.346
1237.552
1236.715
1235.834
1234.908
1233.934
1232.913
1231.843
1230.724
1229.549
1228.329
1227.081
1225.815
1224.542
1223.257
1221.941
1220.613
1219.282
1217.961
1216.682
1215.621
1218.367
1216.71
1214.927
1212.97
1219.996
1218.41
1216.749
1214.933
1212.836
1221.62
1220.091
1218.506
1216.826
1214.924
1212.497
1223.256
1221.782
1220.26
1218.671
1216.95
1214.886
1211.851
1224.915
1223.499
1222.039
1220.524
1218.92
1217.122
1214.784
1210.766
1226.58
1225.224
1223.825
1222.378
1220.865
1219.233
1217.312
1214.579
1209.186
1228.164
1226.866
1225.526
1224.142
1222.707
1221.193
1219.52
1217.46
1214.289
1207.442
1229.621
1228.379
1227.094
1225.768
1224.396
1222.97
1221.449
1219.736
1217.547
1213.981
1206.238
1230.943
1229.753
1228.52
1227.245
1225.928
1224.566
1223.142
1221.616
1219.873
1217.588
1213.819
1205.844
1232.134
1230.994
1229.809
1228.582
1227.314
1226.003
1224.644
1223.221
1221.691
1219.934
1217.598
1213.865
1205.971
1233.204
1232.11
1230.972
1229.79
1228.567
1227.301
1225.99
1224.63
1223.208
1221.679
1219.887
1217.594
1214.04
1206.57
1234.159
1233.109
1232.016
1230.878
1229.697
1228.473
1227.204
1225.889
1224.527
1223.104
1221.534
1219.755
1217.587
1214.327
1207.574
1235.007
1234.001
1232.95
1231.855
1230.716
1229.532
1228.302
1227.027
1225.707
1224.34
1222.872
1221.296
1219.595
1217.586
1214.709
1235.76
1234.796
1233.787
1232.734
1231.635
1230.491
1229.3
1228.063
1226.779
1225.452
1224.044
1222.566
1221.044
1219.433
1217.612
1236.44
1235.517
1234.549
1233.537
1232.479
1231.376
1230.225
1229.026
1227.78
1226.488
1225.129
1223.715
1222.276
1220.811
1219.303
1237.085
1236.204
1235.279
1234.308
1233.292
1232.231
1231.121
1229.963
1228.757
1227.504
1226.191
1224.827
1223.438
1222.034
1220.634
1219.259
1217.881
1216.482
1215.116
1237.751
1236.913
1236.031
1235.104
1234.132
1233.115
1232.049
1230.935
1229.772
1228.561
1227.295
1225.981
1224.642
1223.292
1221.947
1220.612
1219.263
1217.908
1216.554
1215.31
1238.436
1237.641
1236.803
1235.921
1234.995
1234.023
1233.003
1231.935
1230.818
1229.652
1228.432
1227.165
1225.871
1224.563
1223.255
1221.945
1220.611
1219.272
1217.934
1216.619
1215.473
1239.12
1238.369
1237.576
1236.739
1235.858
1234.933
1233.96
1232.939
1231.87
1230.752
1229.577
1228.353
1227.101
1225.829
1224.55
1223.26
1221.943
1220.614
1219.283
1217.96
1216.68
1215.611
1239.79
1239.083
1238.334
1237.542
1236.708
1235.829
1234.903
1233.93
1232.909
1231.839
1230.71
1229.529
1228.316
1227.077
1225.823
1224.556
1223.259
1221.944
1220.619
1219.294
1217.986
1216.737
1215.73
1219.952
1218.368
1216.719
1214.945
1213
1221.524
1219.993
1218.414
1216.762
1214.956
1212.872
1223.093
1221.613
1220.09
1218.513
1216.843
1214.952
1212.536
1224.671
1223.245
1221.777
1220.262
1218.68
1216.969
1214.913
1211.896
1226.268
1224.9
1223.489
1222.034
1220.525
1218.929
1217.136
1214.808
1210.82
1227.868
1226.56
1225.208
1223.813
1222.371
1220.864
1219.234
1217.32
1214.599
1209.25
1229.391
1228.14
1226.846
1225.51
1224.13
1222.699
1221.187
1219.516
1217.462
1214.307
1207.809
1230.791
1229.596
1228.357
1227.076
1225.753
1224.385
1222.959
1221.439
1219.729
1217.547
1214.077
1206.935
1232.061
1230.918
1229.731
1228.501
1227.229
1225.916
1224.553
1223.13
1221.604
1219.864
1217.584
1213.999
1206.514
1233.204
1232.11
1230.972
1229.79
1228.567
1227.301
1225.99
1224.63
1223.208
1221.679
1219.887
1217.594
1214.04
1206.57
1234.227
1233.18
1232.089
1230.953
1229.775
1228.554
1227.287
1225.976
1224.616
1223.194
1221.617
1219.814
1217.595
1214.203
1207.071
1235.138
1234.136
1233.089
1231.998
1230.863
1229.685
1228.46
1227.191
1225.877
1224.514
1223.041
1221.443
1219.699
1217.595
1214.474
1235.945
1234.986
1233.982
1232.934
1231.842
1230.705
1229.52
1228.29
1227.015
1225.695
1224.283
1222.786
1221.231
1219.56
1217.605
1236.658
1235.74
1234.779
1233.772
1232.721
1231.625
1230.481
1229.29
1228.053
1226.77
1225.406
1223.973
1222.51
1221.005
1219.42
1237.297
1236.421
1235.501
1234.536
1233.526
1232.471
1231.368
1230.217
1229.018
1227.773
1226.455
1225.075
1223.669
1222.242
1220.791
1237.903
1237.068
1236.19
1235.267
1234.299
1233.286
1232.225
1231.115
1229.957
1228.752
1227.481
1226.148
1224.784
1223.397
1221.998
1220.621
1219.266
1217.906
1216.542
1215.249
1238.529
1237.736
1236.9
1236.02
1235.096
1234.127
1233.11
1232.044
1230.931
1229.768
1228.545
1227.265
1225.953
1224.621
1223.282
1221.953
1220.616
1219.274
1217.933
1216.612
1215.434
1239.17
1238.421
1237.628
1236.793
1235.914
1234.99
1234.018
1232.999
1231.931
1230.815
1229.638
1228.408
1227.145
1225.86
1224.565
1223.266
1221.947
1220.617
1219.284
1217.96
1216.676
1215.59
1239.812
1239.105
1238.357
1237.566
1236.732
1235.854
1234.928
1233.956
1232.935
1231.866
1230.737
1229.553
1228.335
1227.091
1225.83
1224.559
1223.262
1221.945
1220.62
1219.295
1217.986
1216.736
1215.722
1240.439
1239.776
1239.071
1238.324
1237.535
1236.703
1235.824
1234.899
1233.926
1232.905
1231.822
1230.682
1229.506
1228.299
1227.071
1225.827
1224.556
1223.26
1221.946
1220.624
1219.306
1218.012
1216.791
1215.836
1221.481
1219.949
1218.372
1216.732
1214.968
1213.035
1223.001
1221.518
1219.993
1218.422
1216.779
1214.984
1212.909
1224.517
1223.084
1221.61
1220.094
1218.524
1216.863
1214.98
1212.576
1226.036
1224.658
1223.238
1221.775
1220.267
1218.694
1216.987
1214.94
1211.941
1227.572
1226.251
1224.888
1223.482
1222.032
1220.53
1218.938
1217.151
1214.833
1210.875
1229.109
1227.848
1226.543
1225.195
1223.805
1222.368
1220.863
1219.236
1217.327
1214.619
1209.556
1230.571
1229.368
1228.12
1226.83
1225.497
1224.121
1222.691
1221.18
1219.512
1217.465
1214.397
1208.428
1231.916
1230.767
1229.575
1228.339
1227.061
1225.741
1224.373
1222.948
1221.429
1219.722
1217.547
1214.245
1207.556
1233.133
1232.037
1230.896
1229.712
1228.485
1227.217
1225.902
1224.54
1223.117
1221.592
1219.821
1217.583
1214.168
1207.09
1234.227
1233.18
1232.089
1230.953
1229.775
1228.554
1227.287
1225.976
1224.616
1223.194
1221.617
1219.814
1217.595
1214.203
1207.071
1235.204
1234.204
1233.159
1232.071
1230.938
1229.762
1228.541
1227.274
1225.963
1224.603
1223.127
1221.519
1219.752
1217.6
1214.352
1236.072
1235.116
1234.116
1233.072
1231.984
1230.852
1229.673
1228.448
1227.178
1225.864
1224.45
1222.941
1221.364
1219.652
1217.606
1236.837
1235.924
1234.967
1233.966
1232.921
1231.831
1230.693
1229.509
1228.279
1227.004
1225.637
1224.192
1222.71
1221.174
1219.531
1237.51
1236.638
1235.723
1234.764
1233.76
1232.712
1231.616
1230.472
1229.281
1228.043
1226.722
1225.33
1223.909
1222.459
1220.97
1238.11
1237.279
1236.405
1235.487
1234.525
1233.518
1232.463
1231.36
1230.209
1229.011
1227.736
1226.393
1225.02
1223.623
1222.205
1238.677
1237.887
1237.054
1236.178
1235.257
1234.292
1233.279
1232.218
1231.109
1229.951
1228.724
1227.428
1226.093
1224.727
1223.336
1221.963
1220.621
1219.276
1217.932
1216.603
1215.382
1239.261
1238.513
1237.723
1236.889
1236.012
1235.09
1234.121
1233.104
1232.039
1230.926
1229.747
1228.504
1227.225
1225.917
1224.592
1223.275
1221.953
1220.62
1219.285
1217.959
1216.671
1215.558
1239.861
1239.156
1238.408
1237.618
1236.785
1235.908
1234.985
1234.013
1232.994
1231.927
1230.796
1229.605
1228.377
1227.121
1225.845
1224.565
1223.266
1221.948
1220.621
1219.295
1217.986
1216.733
1215.707
1240.461
1239.798
1239.093
1238.347
1237.559
1236.727
1235.849
1234.924
1233.951
1232.931
1231.848
1230.704
1229.524
1228.312
1227.077
1225.83
1224.558
1223.261
1221.947
1220.625
1219.306
1218.012
1216.791
1215.831
1241.046
1240.425
1239.764
1239.062
1238.317
1237.53
1236.698
1235.82
1234.894
1233.922
1232.885
1231.787
1230.65
1229.479
1228.28
1227.066
1225.826
1224.554
1223.259
1221.947
1220.629
1219.318
1218.037
1216.845
1215.936
1222.96
1221.475
1219.95
1218.381
1216.75
1214.997
1213.072
1224.43
1222.993
1221.515
1219.998
1218.435
1216.801
1215.012
1212.946
1225.89
1224.506
1223.078
1221.611
1220.101
1218.54
1216.885
1215.008
1212.616
1227.352
1226.023
1224.649
1223.234
1221.778
1220.276
1218.707
1217.006
1214.967
1211.988
1228.826
1227.555
1226.238
1224.879
1223.478
1222.035
1220.535
1218.946
1217.165
1214.858
1211.14
1230.301
1229.089
1227.831
1226.53
1225.186
1223.8
1222.364
1220.861
1219.238
1217.335
1214.718
1210.123
1231.704
1230.548
1229.348
1228.104
1226.817
1225.488
1224.113
1222.683
1221.174
1219.509
1217.477
1214.565
1209.005
1232.993
1231.892
1230.747
1229.557
1228.325
1227.05
1225.73
1224.362
1222.937
1221.42
1219.688
1217.556
1214.408
1208.098
1234.159
1233.109
1232.016
1230.878
1229.697
1228.473
1227.204
1225.889
1224.527
1223.104
1221.534
1219.755
1217.587
1214.327
1207.574
1235.204
1234.204
1233.159
1232.071
1230.938
1229.762
1228.541
1227.274
1225.963
1224.603
1223.127
1221.519
1219.752
1217.6
1214.352
1236.136
1235.182
1234.184
1233.142
1232.056
1230.926
1229.75
1228.528
1227.261
1225.949
1224.535
1223.02
1221.433
1219.7
1217.607
1236.96
1236.05
1235.097
1234.1
1233.058
1231.973
1230.84
1229.66
1228.435
1227.166
1225.799
1224.346
1222.852
1221.296
1219.613
1237.684
1236.816
1235.906
1234.951
1233.953
1232.91
1231.82
1230.682
1229.498
1228.268
1226.945
1225.544
1224.111
1222.644
1221.126
1238.317
1237.49
1236.621
1235.709
1234.752
1233.751
1232.702
1231.606
1230.462
1229.271
1227.994
1226.642
1225.26
1223.85
1222.413
1238.878
1238.092
1237.264
1236.392
1235.477
1234.517
1233.51
1232.455
1231.352
1230.201
1228.971
1227.668
1226.331
1224.964
1223.575
1239.406
1238.66
1237.873
1237.042
1236.169
1235.251
1234.285
1233.272
1232.211
1231.102
1229.92
1228.663
1227.362
1226.022
1224.647
1223.285
1221.959
1220.623
1219.286
1217.958
1216.664
1215.515
1239.95
1239.246
1238.5
1237.712
1236.881
1236.006
1235.084
1234.116
1233.099
1232.034
1230.901
1229.698
1228.454
1227.175
1225.872
1224.574
1223.271
1221.952
1220.623
1219.296
1217.985
1216.73
1215.683
1240.509
1239.847
1239.144
1238.398
1237.611
1236.78
1235.903
1234.979
1234.008
1232.99
1231.905
1230.755
1229.565
1228.341
1227.092
1225.836
1224.562
1223.264
1221.949
1220.626
1219.307
1218.012
1216.79
1215.821
1241.067
1240.447
1239.786
1239.084
1238.34
1237.554
1236.722
1235.844
1234.919
1233.947
1232.91
1231.809
1230.668
1229.492
1228.287
1227.069
1225.828
1224.556
1223.26
1221.948
1220.629
1219.318
1218.037
1216.845
1215.934
1241.611
1241.033
1240.414
1239.755
1239.054
1238.312
1237.525
1236.693
1235.815
1234.89
1233.899
1232.844
1231.749
1230.615
1229.45
1228.27
1227.063
1225.822
1224.551
1223.257
1221.948
1220.633
1219.329
1218.061
1216.895
1216.076
1224.391
1222.952
1221.473
1219.955
1218.394
1216.772
1215.025
1213.108
1225.808
1224.419
1222.988
1221.517
1220.006
1218.452
1216.823
1215.041
1212.984
1227.213
1225.878
1224.498
1223.077
1221.615
1220.113
1218.556
1216.906
1215.036
1212.657
1228.617
1227.337
1226.012
1224.644
1223.234
1221.784
1220.286
1218.721
1217.025
1214.994
1212.213
1230.031
1228.809
1227.541
1226.229
1224.874
1223.479
1222.037
1220.54
1218.955
1217.179
1214.979
1211.692
1231.445
1230.281
1229.072
1227.818
1226.52
1225.181
1223.796
1222.361
1220.86
1219.24
1217.372
1214.909
1210.702
1232.789
1231.682
1230.529
1229.332
1228.091
1226.808
1225.479
1224.104
1222.675
1221.167
1219.491
1217.508
1214.733
1209.531
1234.023
1232.97
1231.872
1230.729
1229.543
1228.313
1227.038
1225.718
1224.351
1222.926
1221.371
1219.637
1217.569
1214.564
1208.56
1235.138
1234.136
1233.089
1231.998
1230.863
1229.685
1228.46
1227.191
1225.877
1224.514
1223.041
1221.443
1219.699
1217.595
1214.474
1236.136
1235.182
1234.184
1233.142
1232.056
1230.926
1229.75