/*--------------------------------*- C++ -*----------------------------------*\
| =========                 |                                                 |
| \\      /  F ield         | OpenFOAM: The Open Source CFD Toolbox           |
|  \\    /   O peration     | Version:  2306                                  |
|   \\  /    A nd           | Website:  www.openfoam.com                      |
|    \\/     M anipulation  |                                                 |
\*---------------------------------------------------------------------------*/
FoamFile
{
    version     2.0;
    format      ascii;
    arch        "LSB;label=32;scalar=64";
    class       volScalarField;
    location    "1.2/electrolyte";
    object      T;
}
// * * * * * * * * * * * * * * * * * * * * * * * * * * * * * * * * * * * * * //

dimensions      [0 0 0 1 0 0 0];

internalField   nonuniform List<scalar> 
4000
(
1268.537
1268.354
1270.76
1268.548
1267.931
1270.751
1268.366
1272.744
1270.766
1268.56
1267.144
1270.729
1267.943
1272.781
1270.757
1268.377
1274.553
1272.745
1270.772
1268.571
1265.817
1270.683
1267.159
1272.864
1270.734
1267.956
1274.601
1272.782
1270.762
1268.389
1276.268
1274.551
1272.747
1270.778
1268.582
1263.857
1270.596
1265.839
1273.009
1270.686
1267.174
1274.709
1272.864
1270.739
1267.968
1276.317
1274.598
1272.783
1270.768
1268.4
1277.918
1276.262
1274.548
1272.748
1270.783
1261.62
1270.433
1263.898
1273.237
1270.595
1265.862
1274.902
1273.007
1270.689
1267.19
1276.428
1274.706
1272.863
1270.743
1267.981
1277.965
1276.311
1274.595
1272.783
1270.773
1279.512
1277.909
1276.256
1274.545
1272.748
1259.569
1270.146
1261.685
1273.535
1270.427
1263.938
1275.21
1273.23
1270.595
1265.886
1276.625
1274.896
1273.004
1270.692
1267.206
1278.071
1276.421
1274.701
1272.863
1270.747
1279.556
1277.956
1276.304
1274.592
1272.784
1281.051
1279.501
1277.901
1276.25
1274.541
1258.044
1269.798
1259.658
1273.78
1270.139
1261.75
1275.625
1273.519
1270.421
1263.979
1276.942
1275.199
1273.223
1270.594
1265.91
1278.262
1276.616
1274.89
1273.001
1270.695
1279.657
1278.062
1276.413
1274.697
1272.862
1281.093
1279.546
1277.947
1276.298
1274.588
1282.535
1281.039
1279.491
1277.892
1276.243
1257.238
1269.492
1258.149
1273.932
1269.794
1259.745
1276.014
1273.758
1270.132
1261.813
1277.374
1275.606
1273.503
1270.415
1264.019
1278.567
1276.929
1275.187
1273.215
1270.593
1279.836
1278.25
1276.607
1274.883
1272.998
1281.188
1279.646
1278.052
1276.406
1274.692
1282.575
1281.081
1279.535
1277.938
1276.291
1283.963
1282.522
1281.027
1279.48
1277.883
1257.238
1269.315
1257.352
1274.009
1269.491
1258.253
1276.31
1273.908
1269.789
1259.83
1277.789
1275.988
1273.736
1270.125
1261.875
1278.983
1277.353
1275.586
1273.487
1270.409
1280.124
1278.552
1276.915
1275.176
1273.206
1281.357
1279.824
1278.239
1276.598
1274.876
1282.664
1281.175
1279.634
1278.042
1276.398
1284.001
1282.562
1281.069
1279.524
1277.929
1285.334
1283.949
1282.509
1281.015
1279.469
1258.044
1269.315
1257.352
1274.038
1269.316
1257.465
1276.5
1273.983
1269.489
1258.355
1278.117
1276.28
1273.883
1269.784
1259.914
1279.389
1277.762
1275.962
1273.714
1270.117
1280.518
1278.962
1277.332
1275.566
1273.471
1281.628
1280.108
1278.537
1276.901
1275.164
1282.824
1281.343
1279.811
1278.227
1276.588
1284.085
1282.65
1281.162
1279.622
1278.032
1285.37
1283.987
1282.548
1281.056
1279.512
1286.649
1285.32
1283.935
1282.495
1281.002
1259.569
1269.492
1258.149
1274.038
1269.316
1257.465
1276.591
1274.012
1269.317
1257.575
1278.334
1276.468
1273.958
1269.487
1258.455
1279.712
1278.086
1276.25
1273.858
1269.778
1280.903
1279.362
1277.735
1275.936
1273.692
1281.998
1280.496
1278.94
1277.31
1275.546
1283.079
1281.611
1280.092
1278.521
1276.887
1284.236
1282.809
1281.329
1279.797
1278.215
1285.45
1284.071
1282.636
1281.149
1279.61
1286.683
1285.355
1283.972
1282.534
1281.043
1287.907
1286.634
1285.305
1283.921
1282.482
1261.62
1269.798
1259.658
1274.009
1269.491
1258.253
1276.591
1274.012
1269.317
1257.575
1278.442
1276.559
1273.987
1269.317
1257.683
1279.93
1278.301
1276.436
1273.932
1269.485
1281.212
1279.682
1278.055
1276.22
1273.833
1282.361
1280.877
1279.335
1277.708
1275.91
1283.428
1281.976
1280.474
1278.918
1277.289
1284.478
1283.062
1281.594
1280.075
1278.505
1285.594
1284.22
1282.793
1281.314
1279.784
1286.759
1285.435
1284.056
1282.622
1281.135
1287.939
1286.668
1285.34
1283.958
1282.521
1289.109
1287.892
1286.619
1285.29
1283.906
1263.857
1270.146
1261.685
1273.932
1269.794
1259.745
1276.5
1273.983
1269.489
1258.355
1278.442
1276.559
1273.987
1269.317
1257.683
1280.038
1278.408
1276.526
1273.961
1269.316
1281.421
1279.897
1278.269
1276.404
1273.906
1282.654
1281.182
1279.651
1278.024
1276.19
1283.771
1282.335
1280.85
1279.307
1277.681
1284.807
1283.406
1281.954
1280.452
1278.896
1285.823
1284.46
1283.044
1281.576
1280.058
1286.896
1285.577
1284.205
1282.778
1281.299
1288.013
1286.744
1285.42
1284.041
1282.608
1289.14
1287.924
1286.652
1285.325
1283.943
1290.256
1289.094
1287.876
1286.603
1285.275
1265.817
1270.433
1263.898
1273.78
1270.139
1261.75
1276.31
1273.908
1269.789
1259.83
1278.334
1276.468
1273.958
1269.487
1258.455
1280.038
1278.408
1276.526
1273.961
1269.316
1281.525
1280.005
1278.374
1276.494
1273.935
1282.852
1281.39
1279.865
1278.236
1276.372
1284.048
1282.625
1281.153
1279.621
1277.993
1285.132
1283.745
1282.309
1280.823
1279.28
1286.136
1284.786
1283.384
1281.932
1280.43
1287.114
1285.805
1284.442
1283.026
1281.559
1288.143
1286.88
1285.561
1284.188
1282.762
1289.21
1287.997
1286.728
1285.404
1284.025
1290.286
1289.125
1287.908
1286.637
1285.31
1291.349
1290.241
1289.078
1287.861
1286.588
1267.144
1270.596
1265.839
1273.535
1270.427
1263.938
1276.014
1273.758
1270.132
1261.813
1278.117
1276.28
1273.883
1269.784
1259.914
1279.93
1278.301
1276.436
1273.932
1269.485
1281.525
1280.005
1278.374
1276.494
1273.935
1282.951
1281.493
1279.972
1278.341
1276.461
1284.236
1282.822
1281.358
1279.833
1278.203
1285.395
1284.02
1282.596
1281.123
1279.59
1286.445
1285.107
1283.72
1282.283
1280.796
1287.413
1286.114
1284.764
1283.362
1281.909
1288.352
1287.096
1285.787
1284.423
1283.008
1289.336
1288.127
1286.863
1285.545
1284.172
1290.354
1289.195
1287.981
1286.712
1285.388
1291.378
1290.271
1289.109
1287.893
1286.621
1292.389
1291.334
1290.225
1289.063
1287.845
1267.931
1270.683
1267.159
1273.237
1270.595
1265.862
1275.625
1273.519
1270.421
1263.979
1277.789
1275.988
1273.736
1270.125
1261.875
1279.712
1278.086
1276.25
1273.858
1269.778
1281.421
1279.897
1278.269
1276.404
1273.906
1282.951
1281.493
1279.972
1278.341
1276.461
1284.33
1282.921
1281.461
1279.939
1278.307
1285.574
1284.207
1282.792
1281.327
1279.801
1286.695
1285.368
1283.992
1282.568
1281.093
1287.707
1286.421
1285.082
1283.694
1282.257
1288.637
1287.391
1286.093
1284.742
1283.339
1289.536
1288.334
1287.078
1285.768
1284.405
1290.474
1289.319
1288.11
1286.846
1285.528
1291.443
1290.338
1289.179
1287.965
1286.696
1292.417
1291.363
1290.255
1289.093
1287.877
1293.377
1292.374
1291.318
1290.21
1289.047
1268.354
1270.729
1267.943
1273.009
1270.686
1267.174
1275.21
1273.23
1270.595
1265.886
1277.374
1275.606
1273.503
1270.415
1264.019
1279.389
1277.762
1275.962
1273.714
1270.117
1281.212
1279.682
1278.055
1276.22
1273.833
1282.852
1281.39
1279.865
1278.236
1276.372
1284.33
1282.921
1281.461
1279.939
1278.307
1285.663
1284.301
1282.89
1281.429
1279.906
1286.865
1285.546
1284.178
1282.762
1281.296
1287.946
1286.669
1285.341
1283.964
1282.539
1288.919
1287.684
1286.396
1285.058
1283.669
1289.809
1288.616
1287.37
1286.071
1284.72
1290.667
1289.518
1288.316
1287.06
1285.749
1291.559
1290.458
1289.303
1288.093
1286.829
1292.48
1291.428
1290.322
1289.162
1287.949
1293.404
1292.402
1291.347
1290.239
1289.077
1294.314
1293.362
1292.359
1291.303
1290.194
1268.537
1270.751
1268.366
1272.864
1270.734
1267.956
1274.902
1273.007
1270.689
1267.19
1276.942
1275.199
1273.223
1270.594
1265.91
1278.983
1277.353
1275.586
1273.487
1270.409
1280.903
1279.362
1277.735
1275.936
1273.692
1282.654
1281.182
1279.651
1278.024
1276.19
1284.236
1282.822
1281.358
1279.833
1278.203
1285.663
1284.301
1282.89
1281.429
1279.906
1286.951
1285.635
1284.271
1282.859
1281.398
1288.109
1286.838
1285.518
1284.149
1282.732
1289.148
1287.921
1286.643
1285.314
1283.937
1290.08
1288.896
1287.66
1286.372
1285.033
1290.93
1289.789
1288.595
1287.349
1286.049
1291.745
1290.649
1289.5
1288.297
1287.041
1292.592
1291.543
1290.441
1289.286
1288.076
1293.465
1292.464
1291.412
1290.306
1289.146
1294.34
1293.389
1292.386
1291.331
1290.223
1295.2
1294.299
1293.347
1292.343
1291.287
1270.76
1268.548
1272.781
1270.757
1268.377
1274.709
1272.864
1270.739
1267.968
1276.625
1274.896
1273.004
1270.692
1267.206
1278.567
1276.929
1275.187
1273.215
1270.593
1280.518
1278.962
1277.332
1275.566
1273.471
1282.361
1280.877
1279.335
1277.708
1275.91
1284.048
1282.625
1281.153
1279.621
1277.993
1285.574
1284.207
1282.792
1281.327
1279.801
1286.951
1285.635
1284.271
1282.859
1281.398
1288.191
1286.924
1285.607
1284.242
1282.829
1289.304
1288.083
1286.811
1285.49
1284.12
1290.3
1289.124
1287.896
1286.617
1285.288
1291.19
1290.058
1288.873
1287.636
1286.347
1291.999
1290.91
1289.768
1288.574
1287.327
1292.772
1291.728
1290.631
1289.482
1288.279
1293.574
1292.576
1291.527
1290.424
1289.269
1294.399
1293.449
1292.449
1291.396
1290.289
1295.226
1294.325
1293.373
1292.371
1291.315
1296.038
1295.186
1294.284
1293.331
1292.327
1272.744
1270.766
1268.56
1274.601
1272.782
1270.762
1268.389
1276.428
1274.706
1272.863
1270.743
1267.981
1278.262
1276.616
1274.89
1273.001
1270.695
1280.124
1278.552
1276.915
1275.176
1273.206
1281.998
1280.496
1278.94
1277.31
1275.546
1283.771
1282.335
1280.85
1279.307
1277.681
1285.395
1284.02
1282.596
1281.123
1279.59
1286.865
1285.546
1284.178
1282.762
1281.296
1288.191
1286.924
1285.607
1284.242
1282.829
1289.383
1288.165
1286.896
1285.578
1284.212
1290.451
1289.279
1288.057
1286.785
1285.462
1291.402
1290.276
1289.099
1287.871
1286.591
1292.25
1291.168
1290.035
1288.85
1287.612
1293.017
1291.979
1290.89
1289.748
1288.553
1293.748
1292.755
1291.71
1290.613
1289.463
1294.504
1293.558
1292.56
1291.51
1290.407
1295.283
1294.384
1293.434
1292.433
1291.379
1296.063
1295.211
1294.31
1293.358
1292.355
1296.827
1296.023
1295.171
1294.269
1293.316
1274.553
1272.745
1270.772
1268.571
1276.317
1274.598
1272.783
1270.768
1268.4
1278.071
1276.421
1274.701
1272.863
1270.747
1279.836
1278.25
1276.607
1274.883
1272.998
1281.628
1280.108
1278.537
1276.901
1275.164
1283.428
1281.976
1280.474
1278.918
1277.289
1285.132
1283.745
1282.309
1280.823
1279.28
1286.695
1285.368
1283.992
1282.568
1281.093
1288.109
1286.838
1285.518
1284.149
1282.732
1289.383
1288.165
1286.896
1285.578
1284.212
1290.526
1289.358
1288.138
1286.869
1285.55
1291.547
1290.426
1289.254
1288.031
1286.758
1292.455
1291.379
1290.253
1289.075
1287.845
1293.26
1292.229
1291.147
1290.013
1288.827
1293.985
1292.998
1291.959
1290.87
1289.727
1294.673
1293.731
1292.737
1291.692
1290.595
1295.386
1294.489
1293.542
1292.543
1291.493
1296.118
1295.268
1294.368
1293.418
1292.417
1296.851
1296.048
1295.196
1294.294
1293.342
1297.569
1296.813
1296.009
1295.156
1294.253
1276.268
1274.551
1272.747
1270.778
1268.582
1277.965
1276.311
1274.595
1272.783
1270.773
1279.657
1278.062
1276.413
1274.697
1272.862
1281.357
1279.824
1278.239
1276.598
1274.876
1283.079
1281.611
1280.092
1278.521
1276.887
1284.807
1283.406
1281.954
1280.452
1278.896
1286.445
1285.107
1283.72
1282.283
1280.796
1287.946
1286.669
1285.341
1283.964
1282.539
1289.304
1288.083
1286.811
1285.49
1284.12
1290.526
1289.358
1288.138
1286.869
1285.55
1291.62
1290.502
1289.332
1288.112
1286.842
1292.595
1291.524
1290.402
1289.229
1288.005
1293.458
1292.433
1291.356
1290.229
1289.051
1294.22
1293.239
1292.208
1291.125
1289.99
1294.903
1293.966
1292.978
1291.94
1290.849
1295.55
1294.657
1293.713
1292.72
1291.674
1296.218
1295.37
1294.473
1293.525
1292.527
1296.906
1296.104
1295.253
1294.353
1293.402
1297.593
1296.837
1296.033
1295.181
1294.279
1298.265
1297.555
1296.799
1295.994
1295.141
1277.918
1276.262
1274.548
1272.748
1270.783
1279.556
1277.956
1276.304
1274.592
1272.784
1281.188
1279.646
1278.052
1276.406
1274.692
1282.824
1281.343
1279.811
1278.227
1276.588
1284.478
1283.062
1281.594
1280.075
1278.505
1286.136
1284.786
1283.384
1281.932
1280.43
1287.707
1286.421
1285.082
1283.694
1282.257
1289.148
1287.921
1286.643
1285.314
1283.937
1290.451
1289.279
1288.057
1286.785
1285.462
1291.62
1290.502
1289.332
1288.112
1286.842
1292.666
1291.597
1290.477
1289.307
1288.086
1293.594
1292.572
1291.5
1290.378
1289.204
1294.413
1293.437
1292.41
1291.334
1290.206
1295.132
1294.2
1293.219
1292.186
1291.103
1295.773
1294.885
1293.947
1292.959
1291.92
1296.378
1295.533
1294.64
1293.696
1292.702
1297.003
1296.203
1295.355
1294.457
1293.509
1297.646
1296.891
1296.089
1295.238
1294.337
1298.288
1297.579
1296.823
1296.019
1295.166
1298.915
1298.251
1297.541
1296.784
1295.979
1279.512
1277.909
1276.256
1274.545
1272.748
1281.093
1279.546
1277.947
1276.298
1274.588
1282.664
1281.175
1279.634
1278.042
1276.398
1284.236
1282.809
1281.329
1279.797
1278.215
1285.823
1284.46
1283.044
1281.576
1280.058
1287.413
1286.114
1284.764
1283.362
1281.909
1288.919
1287.684
1286.396
1285.058
1283.669
1290.3
1289.124
1287.896
1286.617
1285.288
1291.547
1290.426
1289.254
1288.031
1286.758
1292.666
1291.597
1290.477
1289.307
1288.086
1293.663
1292.643
1291.573
1290.453
1289.282
1294.545
1293.572
1292.55
1291.477
1290.354
1295.319
1294.392
1293.415
1292.388
1291.311
1295.996
1295.113
1294.18
1293.198
1292.165
1296.596
1295.756
1294.867
1293.928
1292.94
1297.159
1296.362
1295.517
1294.623
1293.679
1297.741
1296.988
1296.188
1295.339
1294.441
1298.34
1297.632
1296.877
1296.074
1295.222
1298.938
1298.274
1297.565
1296.808
1296.004
1299.52
1298.902
1298.237
1297.527
1296.77
1281.051
1279.501
1277.901
1276.25
1274.541
1282.575
1281.081
1279.535
1277.938
1276.291
1284.085
1282.65
1281.162
1279.622
1278.032
1285.594
1284.22
1282.793
1281.314
1279.784
1287.114
1285.805
1284.442
1283.026
1281.559
1288.637
1287.391
1286.093
1284.742
1283.339
1290.08
1288.896
1287.66
1286.372
1285.033
1291.402
1290.276
1289.099
1287.871
1286.591
1292.595
1291.524
1290.402
1289.229
1288.005
1293.663
1292.643
1291.573
1290.453
1289.282
1294.611
1293.64
1292.62
1291.549
1290.428
1295.447
1294.523
1293.55
1292.527
1291.454
1296.178
1295.299
1294.371
1293.393
1292.366
1296.813
1295.977
1295.093
1294.16
1293.177
1297.371
1296.578
1295.738
1294.848
1293.909
1297.893
1297.143
1296.346
1295.5
1294.606
1298.433
1297.727
1296.973
1296.172
1295.323
1298.989
1298.326
1297.617
1296.862
1296.059
1299.543
1298.924
1298.26
1297.55
1296.793
1300.082
1299.507
1298.888
1298.224
1297.513
1282.535
1281.039
1279.491
1277.892
1276.243
1284.001
1282.562
1281.069
1279.524
1277.929
1285.45
1284.071
1282.636
1281.149
1279.61
1286.896
1285.577
1284.205
1282.778
1281.299
1288.352
1287.096
1285.787
1284.423
1283.008
1289.809
1288.616
1287.37
1286.071
1284.72
1291.19
1290.058
1288.873
1287.636
1286.347
1292.455
1291.379
1290.253
1289.075
1287.845
1293.594
1292.572
1291.5
1290.378
1289.204
1294.611
1293.64
1292.62
1291.549
1290.428
1295.512
1294.59
1293.618
1292.597
1291.526
1296.303
1295.427
1294.502
1293.528
1292.504
1296.99
1296.158
1295.278
1294.35
1293.372
1297.583
1296.794
1295.958
1295.073
1294.14
1298.101
1297.354
1296.561
1295.72
1294.83
1298.582
1297.878
1297.127
1296.33
1295.484
1299.08
1298.419
1297.712
1296.958
1296.157
1299.592
1298.975
1298.312
1297.603
1296.847
1300.103
1299.529
1298.911
1298.246
1297.536
1300.599
1300.069
1299.494
1298.875
1298.21
1283.963
1282.522
1281.027
1279.48
1277.883
1285.37
1283.987
1282.548
1281.056
1279.512
1286.759
1285.435
1284.056
1282.622
1281.135
1288.143
1286.88
1285.561
1284.188
1282.762
1289.536
1288.334
1287.078
1285.768
1284.405
1290.93
1289.789
1288.595
1287.349
1286.049
1292.25
1291.168
1290.035
1288.85
1287.612
1293.458
1292.433
1291.356
1290.229
1289.051
1294.545
1293.572
1292.55
1291.477
1290.354
1295.512
1294.59
1293.618
1292.597
1291.526
1296.366
1295.491
1294.568
1293.596
1292.574
1297.112
1296.283
1295.406
1294.481
1293.506
1297.756
1296.971
1296.139
1295.258
1294.329
1298.308
1297.565
1296.776
1295.939
1295.054
1298.785
1298.084
1297.337
1296.543
1295.702
1299.225
1298.567
1297.863
1297.112
1296.313
1299.682
1299.066
1298.404
1297.697
1296.943
1300.152
1299.579
1298.961
1298.298
1297.589
1300.621
1300.09
1299.516
1298.897
1298.232
1301.074
1300.587
1300.056
1299.481
1298.861
1285.334
1283.949
1282.509
1281.015
1279.469
1286.683
1285.355
1283.972
1282.534
1281.043
1288.013
1286.744
1285.42
1284.041
1282.608
1289.336
1288.127
1286.863
1285.545
1284.172
1290.667
1289.518
1288.316
1287.06
1285.749
1291.999
1290.91
1289.768
1288.574
1287.327
1293.26
1292.229
1291.147
1290.013
1288.827
1294.413
1293.437
1292.41
1291.334
1290.206
1295.447
1294.523
1293.55
1292.527
1291.454
1296.366
1295.491
1294.568
1293.596
1292.574
1297.174
1296.346
1295.47
1294.547
1293.574
1297.876
1297.093
1296.263
1295.385
1294.459
1298.477
1297.738
1296.952
1296.119
1295.238
1298.987
1298.29
1297.547
1296.757
1295.92
1299.424
1298.769
1298.068
1297.32
1296.526
1299.825
1299.211
1298.552
1297.847
1297.096
1300.24
1299.668
1299.052
1298.39
1297.682
1300.669
1300.139
1299.566
1298.947
1298.284
1301.095
1300.608
1300.077
1299.503
1298.883
1301.507
1301.062
1300.574
1300.043
1299.467
1286.649
1285.32
1283.935
1282.495
1281.002
1287.939
1286.668
1285.34
1283.958
1282.521
1289.21
1287.997
1286.728
1285.404
1284.025
1290.474
1289.319
1288.11
1286.846
1285.528
1291.745
1290.649
1289.5
1288.297
1287.041
1293.017
1291.979
1290.89
1289.748
1288.553
1294.22
1293.239
1292.208
1291.125
1289.99
1295.319
1294.392
1293.415
1292.388
1291.311
1296.303
1295.427
1294.502
1293.528
1292.504
1297.174
1296.346
1295.47
1294.547
1293.574
1297.936
1297.154
1296.326
1295.45
1294.525
1298.594
1297.857
1297.073
1296.243
1295.365
1299.154
1298.459
1297.719
1296.933
1296.099
1299.623
1298.97
1298.273
1297.529
1296.739
1300.02
1299.408
1298.752
1298.051
1297.303
1300.38
1299.81
1299.196
1298.537
1297.831
1300.755
1300.227
1299.654
1299.037
1298.375
1301.143
1300.656
1300.126
1299.552
1298.933
1301.528
1301.083
1300.595
1300.064
1299.489
1301.898
1301.495
1301.049
1300.561
1300.03
1287.907
1286.634
1285.305
1283.921
1282.482
1289.14
1287.924
1286.652
1285.325
1283.943
1290.354
1289.195
1287.981
1286.712
1285.388
1291.559
1290.458
1289.303
1288.093
1286.829
1292.772
1291.728
1290.631
1289.482
1288.279
1293.985
1292.998
1291.959
1290.87
1289.727
1295.132
1294.2
1293.219
1292.186
1291.103
1296.178
1295.299
1294.371
1293.393
1292.366
1297.112
1296.283
1295.406
1294.481
1293.506
1297.936
1297.154
1296.326
1295.45
1294.525
1298.653
1297.917
1297.135
1296.305
1295.429
1299.268
1298.576
1297.838
1297.054
1296.223
1299.786
1299.136
1298.441
1297.701
1296.914
1300.215
1299.606
1298.953
1298.255
1297.511
1300.572
1300.004
1299.393
1298.736
1298.034
1300.893
1300.366
1299.796
1299.181
1298.521
1301.227
1300.742
1300.213
1299.64
1299.023
1301.574
1301.13
1300.643
1300.113
1299.538
1301.918
1301.515
1301.07
1300.582
1300.051
1302.248
1301.886
1301.483
1301.037
1300.548
1289.109
1287.892
1286.619
1285.29
1283.906
1290.286
1289.125
1287.908
1286.637
1285.31
1291.443
1290.338
1289.179
1287.965
1286.696
1292.592
1291.543
1290.441
1289.286
1288.076
1293.748
1292.755
1291.71
1290.613
1289.463
1294.903
1293.966
1292.978
1291.94
1290.849
1295.996
1295.113
1294.18
1293.198
1292.165
1296.99
1296.158
1295.278
1294.35
1293.372
1297.876
1297.093
1296.263
1295.385
1294.459
1298.653
1297.917
1297.135
1296.305
1295.429
1299.326
1298.634
1297.898
1297.115
1296.285
1299.898
1299.25
1298.557
1297.819
1297.034
1300.375
1299.769
1299.118
1298.423
1297.682
1300.763
1300.198
1299.59
1298.936
1298.238
1301.081
1300.557
1299.989
1299.377
1298.72
1301.363
1300.879
1300.352
1299.781
1299.166
1301.658
1301.215
1300.729
1300.199
1299.626
1301.964
1301.562
1301.117
1300.63
1300.099
1302.268
1301.906
1301.503
1301.058
1300.569
1302.557
1302.236
1301.874
1301.47
1301.024
1290.256
1289.094
1287.876
1286.603
1285.275
1291.378
1290.271
1289.109
1287.893
1286.621
1292.48
1291.428
1290.322
1289.162
1287.949
1293.574
1292.576
1291.527
1290.424
1289.269
1294.673
1293.731
1292.737
1291.692
1290.595
1295.773
1294.885
1293.947
1292.959
1291.92
1296.813
1295.977
1295.093
1294.16
1293.177
1297.756
1296.971
1296.139
1295.258
1294.329
1298.594
1297.857
1297.073
1296.243
1295.365
1299.326
1298.634
1297.898
1297.115
1296.285
1299.955
1299.308
1298.616
1297.879
1297.095
1300.485
1299.881
1299.232
1298.539
1297.8
1300.921
1300.358
1299.751
1299.101
1298.405
1301.27
1300.747
1300.182
1299.573
1298.919
1301.548
1301.067
1300.542
1299.973
1299.361
1301.791
1301.35
1300.865
1300.338
1299.767
1302.047
1301.645
1301.202
1300.715
1300.186
1302.313
1301.952
1301.55
1301.105
1300.617
1302.576
1302.256
1301.894
1301.491
1301.045
1302.825
1302.545
1302.224
1301.862
1301.458
1291.349
1290.241
1289.078
1287.861
1286.588
1292.417
1291.363
1290.255
1289.093
1287.877
1293.465
1292.464
1291.412
1290.306
1289.146
1294.504
1293.558
1292.56
1291.51
1290.407
1295.55
1294.657
1293.713
1292.72
1291.674
1296.596
1295.756
1294.867
1293.928
1292.94
1297.583
1296.794
1295.958
1295.073
1294.14
1298.477
1297.738
1296.952
1296.119
1295.238
1299.268
1298.576
1297.838
1297.054
1296.223
1299.955
1299.308
1298.616
1297.879
1297.095
1300.541
1299.937
1299.29
1298.597
1297.86
1301.029
1300.468
1299.863
1299.214
1298.521
1301.425
1300.904
1300.341
1299.734
1299.083
1301.734
1301.254
1300.732
1300.166
1299.556
1301.974
1301.534
1301.052
1300.527
1299.958
1302.178
1301.778
1301.336
1300.852
1300.324
1302.394
1302.034
1301.633
1301.189
1300.702
1302.621
1302.301
1301.94
1301.537
1301.092
1302.845
1302.565
1302.244
1301.882
1301.478
1303.054
1302.814
1302.534
1302.212
1301.85
1292.389
1291.334
1290.225
1289.063
1287.845
1293.404
1292.402
1291.347
1290.239
1289.077
1294.399
1293.449
1292.449
1291.396
1290.289
1295.386
1294.489
1293.542
1292.543
1291.493
1296.378
1295.533
1294.64
1293.696
1292.702
1297.371
1296.578
1295.738
1294.848
1293.909
1298.308
1297.565
1296.776
1295.939
1295.054
1299.154
1298.459
1297.719
1296.933
1296.099
1299.898
1299.25
1298.557
1297.819
1297.034
1300.541
1299.937
1299.29
1298.597
1297.86
1301.084
1300.524
1299.92
1299.272
1298.579
1301.532
1301.013
1300.451
1299.846
1299.196
1301.887
1301.409
1300.888
1300.324
1299.717
1302.157
1301.719
1301.239
1300.716
1300.15
1302.359
1301.96
1301.52
1301.037
1300.511
1302.524
1302.166
1301.765
1301.323
1300.838
1302.701
1302.382
1302.022
1301.62
1301.175
1302.889
1302.61
1302.289
1301.928
1301.525
1303.073
1302.833
1302.553
1302.232
1301.87
1303.243
1303.043
1302.803
1302.522
1302.201
1293.377
1292.374
1291.318
1290.21
1289.047
1294.34
1293.389
1292.386
1291.331
1290.223
1295.283
1294.384
1293.434
1292.433
1291.379
1296.218
1295.37
1294.473
1293.525
1292.527
1297.159
1296.362
1295.517
1294.623
1293.679
1298.101
1297.354
1296.561
1295.72
1294.83
1298.987
1298.29
1297.547
1296.757
1295.92
1299.786
1299.136
1298.441
1297.701
1296.914
1300.485
1299.881
1299.232
1298.539
1297.8
1301.084
1300.524
1299.92
1299.272
1298.579
1301.586
1301.067
1300.507
1299.902
1299.254
1301.992
1301.515
1300.996
1300.434
1299.828
1302.308
1301.871
1301.393
1300.872
1300.308
1302.539
1302.142
1301.704
1301.223
1300.7
1302.702
1302.345
1301.946
1301.505
1301.022
1302.83
1302.512
1302.153
1301.752
1301.309
1302.968
1302.69
1302.37
1302.009
1301.607
1303.117
1302.878
1302.598
1302.277
1301.916
1303.262
1303.062
1302.822
1302.542
1302.221
1303.392
1303.232
1303.032
1302.791
1302.511
1294.314
1293.362
1292.359
1291.303
1290.194
1295.226
1294.325
1293.373
1292.371
1291.315
1296.118
1295.268
1294.368
1293.418
1292.417
1297.003
1296.203
1295.355
1294.457
1293.509
1297.893
1297.143
1296.346
1295.5
1294.606
1298.785
1298.084
1297.337
1296.543
1295.702
1299.623
1298.97
1298.273
1297.529
1296.739
1300.375
1299.769
1299.118
1298.423
1297.682
1301.029
1300.468
1299.863
1299.214
1298.521
1301.586
1301.067
1300.507
1299.902
1299.254
1302.046
1301.569
1301.051
1300.49
1299.885
1302.412
1301.976
1301.499
1300.98
1300.417
1302.688
1302.292
1301.856
1301.377
1300.856
1302.881
1302.525
1302.128
1301.689
1301.208
1303.006
1302.689
1302.331
1301.932
1301.491
1303.096
1302.818
1302.499
1302.14
1301.738
1303.195
1302.957
1302.678
1302.358
1301.997
1303.305
1303.106
1302.866
1302.586
1302.265
1303.411
1303.251
1303.051
1302.811
1302.53
1303.503
1303.382
1303.221
1303.021
1302.78
1295.2
1294.299
1293.347
1292.343
1291.287
1296.063
1295.211
1294.31
1293.358
1292.355
1296.906
1296.104
1295.253
1294.353
1293.402
1297.741
1296.988
1296.188
1295.339
1294.441
1298.582
1297.878
1297.127
1296.33
1295.484
1299.424
1298.769
1298.068
1297.32
1296.526
1300.215
1299.606
1298.953
1298.255
1297.511
1300.921
1300.358
1299.751
1299.101
1298.405
1301.532
1301.013
1300.451
1299.846
1299.196
1302.046
1301.569
1301.051
1300.49
1299.885
1302.464
1302.03
1301.553
1301.034
1300.473
1302.791
1302.396
1301.961
1301.483
1300.963
1303.028
1302.673
1302.277
1301.84
1301.361
1303.182
1302.867
1302.51
1302.113
1301.674
1303.269
1302.993
1302.675
1302.317
1301.918
1303.321
1303.083
1302.805
1302.487
1302.127
1303.383
1303.184
1302.945
1302.666
1302.346
1303.454
1303.294
1303.095
1302.855
1302.574
1303.522
1303.401
1303.24
1303.04
1302.799
1303.576
1303.493
1303.371
1303.21
1303.009
1296.038
1295.186
1294.284
1293.331
1292.327
1296.851
1296.048
1295.196
1294.294
1293.342
1297.646
1296.891
1296.089
1295.238
1294.337
1298.433
1297.727
1296.973
1296.172
1295.323
1299.225
1298.567
1297.863
1297.112
1296.313
1300.02
1299.408
1298.752
1298.051
1297.303
1300.763
1300.198
1299.59
1298.936
1298.238
1301.425
1300.904
1300.341
1299.734
1299.083
1301.992
1301.515
1300.996
1300.434
1299.828
1302.464
1302.03
1301.553
1301.034
1300.473
1302.843
1302.449
1302.014
1301.537
1301.018
1303.129
1302.776
1302.381
1301.945
1301.467
1303.328
1303.013
1302.658
1302.262
1301.825
1303.444
1303.168
1302.853
1302.496
1302.098
1303.494
1303.257
1302.98
1302.662
1302.304
1303.508
1303.31
1303.071
1302.793
1302.474
1303.532
1303.372
1303.173
1302.933
1302.654
1303.565
1303.444
1303.283
1303.083
1302.843
1303.594
1303.511
1303.39
1303.229
1303.029
1303.61
1303.565
1303.482
1303.36
1303.199
1296.827
1296.023
1295.171
1294.269
1293.316
1297.593
1296.837
1296.033
1295.181
1294.279
1298.34
1297.632
1296.877
1296.074
1295.222
1299.08
1298.419
1297.712
1296.958
1296.157
1299.825
1299.211
1298.552
1297.847
1297.096
1300.572
1300.004
1299.393
1298.736
1298.034
1301.27
1300.747
1300.182
1299.573
1298.919
1301.887
1301.409
1300.888
1300.324
1299.717
1302.412
1301.976
1301.499
1300.98
1300.417
1302.843
1302.449
1302.014
1301.537
1301.018
1303.181
1302.828
1302.433
1301.998
1301.521
1303.428
1303.115
1302.761
1302.366
1301.929
1303.588
1303.314
1302.999
1302.643
1302.247
1303.667
1303.431
1303.155
1302.838
1302.482
1303.679
1303.481
1303.244
1302.966
1302.648
1303.656
1303.496
1303.298
1303.059
1302.78
1303.641
1303.521
1303.361
1303.161
1302.922
1303.637
1303.554
1303.433
1303.272
1303.072
1303.629
1303.584
1303.501
1303.379
1303.218
1303.6
1303.555
1303.472
1303.35
1297.569
1296.813
1296.009
1295.156
1294.253
1298.288
1297.579
1296.823
1296.019
1295.166
1298.989
1298.326
1297.617
1296.862
1296.059
1299.682
1299.066
1298.404
1297.697
1296.943
1300.38
1299.81
1299.196
1298.537
1297.831
1301.081
1300.557
1299.989
1299.377
1298.72
1301.734
1301.254
1300.732
1300.166
1299.556
1302.308
1301.871
1301.393
1300.872
1300.308
1302.791
1302.396
1301.961
1301.483
1300.963
1303.181
1302.828
1302.433
1301.998
1301.521
1303.48
1303.166
1302.813
1302.418
1301.982
1303.688
1303.414
1303.1
1302.746
1302.35
1303.81
1303.574
1303.299
1302.984
1302.629
1303.85
1303.653
1303.417
1303.141
1302.824
1303.825
1303.666
1303.468
1303.231
1302.953
1303.764
1303.644
1303.485
1303.286
1303.047
1303.713
1303.631
1303.51
1303.349
1303.15
1303.671
1303.627
1303.543
1303.422
1303.261
1303.618
1303.574
1303.49
1303.369
1303.59
1303.545
1303.461
1298.265
1297.555
1296.799
1295.994
1295.141
1298.938
1298.274
1297.565
1296.808
1296.004
1299.592
1298.975
1298.312
1297.603
1296.847
1300.24
1299.668
1299.052
1298.39
1297.682
1300.893
1300.366
1299.796
1299.181
1298.521
1301.548
1301.067
1300.542
1299.973
1299.361
1302.157
1301.719
1301.239
1300.716
1300.15
1302.688
1302.292
1301.856
1301.377
1300.856
1303.129
1302.776
1302.381
1301.945
1301.467
1303.48
1303.166
1302.813
1302.418
1301.982
1303.739
1303.465
1303.151
1302.797
1302.403
1303.909
1303.674
1303.4
1303.085
1302.731
1303.992
1303.796
1303.56
1303.285
1302.97
1303.995
1303.837
1303.64
1303.404
1303.127
1303.933
1303.813
1303.654
1303.456
1303.218
1303.836
1303.753
1303.633
1303.473
1303.274
1303.747
1303.703
1303.62
1303.499
1303.338
1303.661
1303.616
1303.533
1303.411
1303.608
1303.563
1303.48
1303.579
1303.534
1298.915
1298.251
1297.541
1296.784
1295.979
1299.543
1298.924
1298.26
1297.55
1296.793
1300.152
1299.579
1298.961
1298.298
1297.589
1300.755
1300.227
1299.654
1299.037
1298.375
1301.363
1300.879
1300.352
1299.781
1299.166
1301.974
1301.534
1301.052
1300.527
1299.958
1302.539
1302.142
1301.704
1301.223
1300.7
1303.028
1302.673
1302.277
1301.84
1301.361
1303.428
1303.115
1302.761
1302.366
1301.929
1303.739
1303.465
1303.151
1302.797
1302.403
1303.959
1303.724
1303.451
1303.137
1302.782
1304.09
1303.895
1303.66
1303.385
1303.071
1304.136
1303.979
1303.782
1303.547
1303.271
1304.102
1303.983
1303.824
1303.627
1303.39
1304.003
1303.921
1303.801
1303.641
1303.443
1303.869
1303.825
1303.742
1303.621
1303.461
1303.737
1303.692
1303.609
1303.487
1303.65
1303.606
1303.522
1303.598
1303.553
1303.569
1299.52
1298.902
1298.237
1297.527
1296.77
1300.103
1299.529
1298.911
1298.246
1297.536
1300.669
1300.139
1299.566
1298.947
1298.284
1301.227
1300.742
1300.213
1299.64
1299.023
1301.791
1301.35
1300.865
1300.338
1299.767
1302.359
1301.96
1301.52
1301.037
1300.511
1302.881
1302.525
1302.128
1301.689
1301.208
1303.328
1303.013
1302.658
1302.262
1301.825
1303.688