/*--------------------------------*- C++ -*----------------------------------*\
| =========                 |                                                 |
| \\      /  F ield         | OpenFOAM: The Open Source CFD Toolbox           |
|  \\    /   O peration     | Version:  2306                                  |
|   \\  /    A nd           | Website:  www.openfoam.com                      |
|    \\/     M anipulation  |                                                 |
\*---------------------------------------------------------------------------*/
FoamFile
{
    version     2.0;
    format      ascii;
    arch        "LSB;label=32;scalar=64";
    class       volScalarField;
    location    "0.6";
    object      contErrCp;
}
// * * * * * * * * * * * * * * * * * * * * * * * * * * * * * * * * * * * * * //

dimensions      [1 -1 -3 -1 0 0 0];

internalField   nonuniform List<scalar> 
52000
(
0
0
0
0
0
0
0
0
0
0
0
0
0
0
0
0
0
0
0
0
0
0
0
0
0
0
0
0
0
0
0
0
0
0
0
0
0
0
0
0
0
0
0
0
0
0
0
0
0
0
0
0
0
0
0
0
0
0
0
0
0
0
0
0
0
0
0
0
0
0
0
0
0
0
0
0
0
0
0
0
0
0
0
0
0
0
0
0
0
0
0
0
0
0
0
0
0
0
0
0
0
0
0
0
0
0
0
0
0
0
0
0
0
0
0
0
0
0
0
0
0
0
0
0
0
0
0
0
0
0
0
0
0
0
0
0
0
0
0
0
0
0
0
0
0
0
0
0
0
0
0
0
0
0
0
0
0
0
0
0
0
0
0
0
0
0
0
0
0
0
0
0
0
0
0
0
0
0
0
0
0
0
0
0
0
0
0
0
0
0
0
0
0
0
0
0
0
0
0
0
0
0
0
0
0
0
0
0
0
0
0
0
0
0
0
0
0
0
0
0
0
0
0
0
0
0
0
0
0
0
0
0
0
0
0
0
0
0
0
0
0.0002065598
0
0
0
0
0
0
0
0
0
0
0
0
0
0
0
0
0
0
0
0
0
0
0
0
0
0
0
0
0
0
0
0
0
0
0
0
0
0
0
0
0
0
0
0
0
0
0
0
0
0
0
0
0
0
0
0
0
0
0
0
0
0
0
0
0
-0.0005902095
0
0
0
0
0
-0.0001032816
-0.000831254
0
0
0
0
0
0
0
0
0
0
0
0
0
0
0
0
0
0
0
0
0
0
0
0
0
0
0
0
0
0
0
0
0
0
0
0
0
0
0
0
0
0
0
0
0
0
0
0
0
0
0
0
0
0
0
0
0
0
0
0
0
0
0
0
0
0
0
0
0
0
-0.0002867859
0
0
0
0
0
-0.0001184901
0.001949705
0
0
0
0
0
-0.0003544015
0.001054451
0.00103814
0
0
0
0
0
0
0
0
0
0
0
0
0
0
0
0
0
0
0
0
0
0
0
0
0
0
0
0
0
0
0
0
0
0
0
0
0
0
0
0
0
0
0
0
0
0
0
0
0
0
0
0
0
0
0
0
0
0
0
0
0
0
0
0
0
0
0
0
0
0
0
0
0
0
0
0.0007297119
0
0
0
0
0
-0.0005855785
-0.0001191096
0
0
0
0
0
0.0004149905
-0.0003691891
-0.0001551703
0
0
0
0
0
0.0001300075
0.000422438
-0.0009961828
-0.0009937664
0
0
0
0
0
0
0
0
0
0
0
0
0
0
0
0
0
0
0
0
0
0
0
0
0
0
0
0
0
0
0
0
0
0
0
0
0
0
0
0
0
0
0
0
0
0
0
0
0
0
0
0
0
0
0
0
0
0
0
0
0
0
0
0
0
0
0
0
0
0
0
0
0
0
0
0
0
0
0
0
-0.0005614223
0
0
0
0
0
0.0003269864
-0.001302431
0
0
0
0
0
-4.568429e-05
0.001077216
-0.002513812
0
0
0
0
0
0.0001313857
-0.001070075
0.001230078
0.0003535712
0
0
0
0
0
-0.0001972795
0.0004773319
0.0007372183
-0.0004923933
-0.0002086036
0
0
0
0
0
0
0
0
0
0
0
0
0
0
0
0
0
0
0
0
0
0
0
0
0
0
0
0
0
0
0
0
0
0
0
0
0
0
0
0
0
0
0
0
0
0
0
0
0
0
0
0
0
0
0
0
0
0
0
0
0
0
0
0
0
0
0
0
0
0
0
0
0
0
0
0
0
0
0
0
0
0
0
0
0
0.0001825754
0
0
0
0
0
0.0002547422
0.002608989
0
0
0
0
0
-8.00754e-05
-0.0008263147
0.001809831
0
0
0
0
0
0.000332464
0.002383534
-0.001173651
0.000648936
0
0
0
0
0
0.0002916485
-0.001455767
-0.002067056
0.00127562
0.001452951
0
0
0
0
0
0.0002099241
0.0003487635
-0.0004914533
-0.0001428866
0.0003653655
0.0002713257
0
0
0
0
0
0
0
0
0
0
0
0
0
0
0
0
0
0
0
0
0
0
0
0
0
0
0
0
0
0
0
0
0
0
0
0
0
0
0
0
0
0
0
0
0
0
0
0
0
0
0
0
0
0
0
0
0
0
0
0
0
0
0
0
0
0
0
0
0
-9.443133e-07
0
0
0
0
0
0
0
0
0
0
0
0
0
0
0
0
0
0
0
0
-0.0001379999
0
0
0
0
0
-0.0004896008
-0.0004850124
0
0
0
0
0
-0.0001350278
0.0007542023
-0.0007590294
0
0
0
0
0
-0.0001996826
-0.001403868
0.0005684446
-0.001879843
0
0
0
0
0
-8.542528e-05
-0.0008710129
-0.0007053414
0.000934954
0.0002226138
0
0
0
0
0
-0.0005707597
-0.001383743
0.0008041328
-0.0009402219
-0.001883436
-0.001970919
0
0
0
0
0
0.0001637481
-0.0002727692
0.000544345
0.0004650833
-0.0003434814
0.0004433686
0.0006846894
0
0
0
0
0
0
0
0
0
0
0
0
0
0
0
0
0
0
0
0
0
0
0
0
0
0
0
0
0
0
0
0
0
0
0
0
0
0
0
0
0
0
0
0
0
0
0
0
0
0
0
0
0
0
0
0
0
-3.603512e-07
0
0
0
0
0
0
0
0
0
0
0
0
0
0
0
-2.081974e-06
1.565582e-06
0
0
0
0
0
0
0
0
0
0
0
0
0
0
0
0
0
0
0
0
0.000153844
0
0
0
0
0
0.000706938
-0.0006862065
0
0
0
0
0
0.0008955394
-0.001061078
-0.000702164
0
0
0
0
0
0.0001952398
0.0007027794
0.0005232695
-0.0001996179
0
0
0
0
0
0.0002552491
0.0008142138
0.001659005
-0.001816623
0.001556719
0
0
0
0
0
0.00088192
-0.0002813188
0.0003507077
0.001006261
-0.001514646
0.001001618
0
0
0
0
0
-0.0004182659
0.001848827
-0.0005601883
0.001260068
0.001043236
0.0004728399
3.12475e-05
0
0
0
0
0
-0.0002287815
-0.0004521169
0.000232385
-0.0003561415
-0.0001827345
8.731511e-06
-0.0002137616
-0.001346392
0
0
0
0
0
0
0
0
0
0
0
0
0
0
0
0
0
0
0
0
0
0
0
0
0
0
0
0
0
0
0
0
0
0
0
0
0
0
0
0
0
0
0
0
-1.222746e-06
0
0
0
0
0
0
0
0
0
0
0
0
0
0
0
3.326013e-06
3.348761e-06
0
0
0
0
0
0
0
0
0
0
0
0
0
0
0
6.615181e-07
1.901966e-06
-4.259006e-07
0
0
0
0
0
0
0
0
0
0
0
0
0
0
0
0
0
0
0
0
0.0004109967
0
0
0
0
0
-0.00075281
0.000164448
0
0
0
0
0
-0.001869103
2.656288e-05
0.0008741298
0
0
0
0
0
-2.223294e-06
-0.001807392
0.001767569
7.582136e-05
0
0
0
0
0
0.0003153352
3.796311e-05
-0.001169615
0.0007296288
0.0003432893
0
0
0
0
0
-0.0005206563
0.0009256577
0.0009375711
-0.0006515414
0.001861648
-6.635771e-05
0
0
0
0
0
-0.0003124199
-0.0008963336
0.001293852
-0.001356774
-0.002018668
0.0002040391
-0.001468228
0
0
0
0
0
-3.528346e-05
0.001829174
-0.0008303828
0.0001096838
-0.0003516441
-0.0005472603
0.0005029592
0.001916738
0
0
0
0
0
-0.0002933561
0.0002287871
0.0009051999
0.0006389222
-7.117627e-05
-0.0005340095
0.0004631695
0.0004757333
-6.73168e-05
0
0
0
0
0
0
0
0
0
0
0
0
0
0
0
0
0
0
0
0
0
0
0
0
0
0
0
0
0
0
6.361914e-07
0
0
0
0
0
0
0
0
0
0
0
0
0
0
0
4.599084e-07
1.345861e-06
0
0
0
0
0
0
0
0
0
0
0
0
0
0
0
9.354396e-07
2.908253e-06
4.915985e-06
0
0
0
0
0
0
0
0
0
0
0
0
0
0
0
-9.940241e-08
5.118034e-06
6.832182e-07
-1.26929e-06
0
0
0
0
0
0
0
0
0
0
0
0
0
0
0
0
0
0
0
0
-0.0001605597
0
0
0
0
0
0.0002838248
-0.001698712
0
0
0
0
0
-0.0003695017
0.001962247
0.0008654418
0
0
0
0
0
5.687469e-05
0.002936975
0.0001418685
-0.002470286
0
0
0
0
0
1.895752e-05
0.0004115597
0.001979605
0.0004798196
-0.0004987911
0
0
0
0
0
0.0002081939
-0.001712776
-0.001334438
0.0008286679
-0.0004136153
-0.002068176
0
0
0
0
0
2.274704e-05
-0.0002520891
-0.0008090385
-0.0004309989
0.0005640016
-0.0004782921
-0.0001490832
0
0
0
0
0
0.0005870794
-0.0009364772
-0.0001027698
0.0003360955
5.868071e-06
0.001405494
0.0003230869
-0.0001166142
0
0
0
0
0
-0.0002546124
0.0008628558
-0.0008203088
-0.0003363647
-0.0003157512
-0.0007789391
-6.766393e-05
5.340035e-05
-0.0002913728
0
0
0
0
0
-0.0004022017
0.0004309615
0.0004313409
0.0001304476
-0.001352368
0.0004026431
8.929926e-06
-8.938053e-05
-0.0006460697
5.155808e-05
0
0
0
0
0
0
0
0
0
0
0
0
0
0
0
4.478713e-06
0
0
0
0
0
0
0
0
0
0
0
0
0
0
0
9.979614e-07
1.083531e-06
0
0
0
0
0
0
0
0
0
0
0
0
0
0
0
4.042905e-06
3.652463e-07
5.935715e-07
0
0
0
0
0
0
0
0
0
0
0
0
0
0
0
-2.279809e-06
2.076209e-07
1.828543e-06
-1.073073e-05
0
0
0
0
0
0
0
0
0
0
0
0
0
0
0
1.180008e-07
-4.95198e-07
4.216199e-06
4.129331e-06
2.908504e-06
0
0
0
0
0
0
0
0
0
0
0
0
0
0
0
0
0
0
0
0
0
0
0
0
0
-0.0002288847
0.0008703693
0
0
0
0
0
0.0006337591
-0.0006340776
0.0007332036
0
0
0
0
0
-0.0001759762
0.001790224
-0.0008211353
-0.0004510635
0
0
0
0
0
-0.000969734
-0.0006426489
-0.001488362
-0.001777835
0.001139274
0
0
0
0
0
4.466691e-05
0.0007014351
-0.0007521057
-0.002143963
-0.0005849668
0.001987755
0
0
0
0
0
-0.000153101
0.0002932907
0.0009995861
0.000669234
0.0003689478
-0.0007802152
0.002805691
0
0
0
0
0
-0.0004530271
0.001687656
0.001228445
4.995804e-05
-0.0004160138
-0.0003399538
-0.0011082
-0.001077545
0
0
0
0
0
0.0003533807
-0.0006405223
0.001111719
0.0004800627
0.0003351558
0.001118137
-9.14929e-05
-0.0006948334
0.002180067
0
0
0
0
0
0.0001355826
0.0006267423
-0.001026964
-0.002152536
0.001324802
-0.0002146886
0.0007929136
0.002142664
-0.0002333658
0.0004531379
0
0
0
0
0
6.642553e-05
-0.0003004158
-0.0006980444
-4.563274e-05
0.0001907896
0.000550753
-0.0006657699
-0.0007516905
-0.0001428273
0.0007105183
5.509198e-05
0
0
0
0
0
0
0
0
0
0
0
0
0
0
0
-2.621832e-07
-7.607023e-07
0
0
0
0
0
0
0
0
0
0
0
0
0
0
0
1.492495e-06
-3.95878e-06
-1.624365e-07
0
0
0
0
0
0
0
0
0
0
0
0
0
0
0
1.389467e-06
-4.304372e-06
6.999132e-06
2.982532e-06
0
0
0
0
0
0
0
0
0
0
0
0
0
0
0
4.16084e-06
5.222189e-07
-2.037535e-07
-5.664369e-06
1.425563e-06
0
0
0
0
0
0
0
0
0
0
0
0
0
0
0
-3.888776e-07
5.680899e-07
5.188236e-06
-6.790726e-08
-1.050328e-06
-2.562711e-05
0
0
0
0
0
0
0
0
0
0
0
0
0
0
0
0
0
0
0
0
0
0
0
0
0
0
0
0
0
0
-3.542741e-05
-0.0003743401
-0.0003432793
0
0
0
0
0
0.0001784723
-0.001086251
0.0002246701
7.930125e-05
0
0
0
0
0
0.0007729779
0.002024345
-0.0005395839
-0.00122341
0.001028023
0
0
0
0
0
-9.224804e-05
0.001048926
0.0001020244
-0.0003567801
-0.000243123
-0.0004689952
0
0
0
0
0
-0.0003997248
0.0002684
-0.001609661
-0.0001869799
0.001032963
0.001244712
-0.002005539
0
0
0
0
0
0.001095413
-0.0001197413
0.0002775336
0.0003643146
0.001953277
-0.0004113957
0.0007116995
0.0006135373
0
0
0
0
0
0.0001738438
-0.0003986137
-0.00139123
-0.001006032
-0.0002660942
0.0005161649
0.000348599
0.001002965
-0.002727925
0
0
0
0
0
0.0002618892
-0.001383467
-0.001207074
5.040173e-05
-0.0003180902
0.0001266802
-0.0008027641
-0.001570139
0.001051407
-9.350905e-06
0
0
0
0
0
-0.0001260826
0.0005214079
0.0006520536
0.0004147305
0.0006421027
-6.934396e-05
0.000436495
0.002083965
-0.0009872212
-0.0003547977
-0.0001300183
0
0
0
0
0
0.0003447008
-0.000471675
0.001233932
0.0001485948
1.268476e-05
-0.0006195465
-4.010178e-05
0.0003501665
-0.0001534229
-1.589133e-05
-0.000189447
-6.593949e-06
0
0
0
0
0
0
0
0
0
0
0
0
0
0
0
-5.059447e-06
-7.388931e-07
1.998091e-06
0
0
0
0
0
0
0
0
0
0
0
0
0
0
0
1.7e-06
-2.650501e-06
-1.423755e-06
4.267776e-06
0
0
0
0
0
0
0
0
0
0
0
0
0
0
0
-1.749196e-06
1.432521e-06
3.316993e-06
-3.553266e-06
-4.143139e-06
0
0
0
0
0
0
0
0
0
0
0
0
0
0
0
9.753794e-07
2.733204e-08
6.526569e-08
-3.842306e-08
-2.400529e-06
1.127249e-05
0
0
0
0
0
0
0
0
0
0
0
0
0
0
0
-8.23499e-08
2.947529e-07
8.368885e-07
-1.838516e-06
1.648749e-06
-1.45024e-05
-1.059063e-05
0
0
0
0
0
0
0
0
0
0
0
0
0
0
0
0
0
0
0
0
0
0
0
0
0
0
0
0
0
0
0
0
0
0
0
-0.0002431663
-0.0001717345
0.0006090081
-0.0001501714
0
0
0
0
0
-0.0002933913
-0.002367984
-0.001208261
-0.0005639848
0.0007314643
0
0
0
0
0
-0.000281291
0.0004936269
-0.0007398017
0.001594411
0.002419891
-0.00104523
0
0
0
0
0
0.0002436517
2.025521e-06
-0.0005833119
0.000657021
-0.001906104
0.0003354557
0.001169794
0
0
0
0
0
-0.0005348243
0.0002016578
-0.0005720269
-8.843986e-05
-0.001561468
5.185664e-05
0.0002446635
-2.307407e-05
0
0
0
0
0
-0.0005477548
-0.000940864
-0.0006360012
-0.0008387017
0.0003698876
-0.0007262841
-0.0006643072
-0.0007332697
0.001123851
0
0
0
0
0
0.0003772154
0.0003714123
-0.0002712769
0.001158034
2.4733e-05
-0.0005894114
-0.0006303614
-0.0007828
-0.001444372
0.00206323
0
0
0
0
0
-0.0004278934
0.0007406233
0.000768497
-0.0003557333
-1.807078e-05
0.001033813
0.0003084195
-0.001496954
0.0006697588
-9.248013e-06
-0.000625421
0
0
0
0
0
-0.0001707768
0.0009714042
-0.0002210598
2.045826e-05
-0.0008306513
0.0009959517
-0.001628653
-0.001247388
-0.0001770787
0.0002892822
-0.0003616739
1.651169e-06
0
0
0
0
0
4.061487e-08
-7.770717e-05
0.0002862696
-0.001034597
-0.0002477452
0.0001765156
0.0005927778
-0.000162295
0.0003516192
0.0005243773
8.521445e-05
1.990421e-06
1.839498e-06
0
0
0
0
0
0
0
0
0
0
0
0
0
0
0
-8.656639e-07
-8.504143e-07
-1.008598e-06
-1.490556e-06
0
0
0
0
0
0
0
0
0
0
0
0
0
0
0
2.724938e-07
-5.540921e-06
-1.183895e-06
2.550101e-06
-5.877889e-06
0
0
0
0
0
0
0
0
0
0
0
0
0
0
0
1.741663e-06
2.80221e-06
5.235042e-07
4.262696e-07
4.879111e-07
3.59289e-06
0
0
0
0
0
0
0
0
0
0
0
0
0
0
0
1.07666e-06
3.952097e-06
2.69883e-06
-4.497979e-06
2.644624e-07
-1.410217e-05
-4.865473e-05
0
0
0
0
0
0
0
0
0
0
0
0
0
0
0
-5.346085e-07
-2.550964e-06
4.474156e-07
-1.687371e-06
1.780236e-06
-1.2965e-05
-6.174939e-06
3.308065e-05
0
0
0
0
0
0
0
0
0
0
0
0
0
0
0
0
0
0
0
0
0
0
0
0
0
0
0
0
0
0
0
0
0
0
0
0
0
0
0
0
7.497957e-05
0.001032596
0.0001827323
0.0002271329
-0.0007131611
0
0
0
0
0
0.0003544307
-1.078382e-05
0.001929578
0.0009323207
-2.602805e-05
5.476369e-05
0
0
0
0
0
-0.0007742898
0.000607375
0.0001288118
-0.001070103
0.0008954405
-0.002029495
-0.0003731036
0
0
0
0
0
-0.0002849464
-0.0007353018
-0.0004208568
0.000266145
0.00109002
0.0004064378
-0.001171652
-0.000496425
0
0
0
0
0
0.0006542235
0.0008012471
0.0009485478
-8.82878e-05
-0.001133743
0.001635555
0.0002683432
0.001366125
0.001079754
0
0
0
0
0
-0.0009236488
0.0006146478
0.0006111354
-0.0002161199
0.0001301311
0.0002491029
0.001334374
0.0007177681
0.001823171
-0.001787718
0
0
0
0
0
5.806049e-05
-0.002590442
-0.002570339
0.0002046316
-0.0007482963
0.0002297265
-0.0002773924
0.0007589792
0.001869811
0.0006809319
-0.0009718218
0
0
0
0
0
4.170827e-05
0.000545551
0.0004155146
0.001205629
0.0002901908
0.001957449
-0.001438294
-0.000861844
-0.0004565972
-0.0001769034
8.734903e-05
-4.091463e-07
0
0
0
0
0
-3.383803e-05
-0.0007845256
-0.002092141
0.001573579
-2.369567e-06
0.001914828
-0.002175578
0.002282062
0.0005381249
-0.000547558
-6.519184e-05
-1.716198e-06
-6.336385e-07
0
0
0
0
0
-0.0002121442
7.396369e-05
-0.0004473576
8.523892e-05
-0.0002529792
0.0005387417
-0.0009044546
0.0005463431
-0.0002901733
-8.529969e-05
-0.0002550296
-7.693868e-07
3.311747e-06
-3.866226e-06
0
0
0
0
0
0
0
0
0
0
0
0
0
0
0
-5.870014e-08
6.740079e-07
9.282615e-07
-4.060221e-06
-1.065929e-06
0
0
0
0
0
0
0
0
0
0
0
0
0
0
0
-7.763475e-07
8.652574e-07
3.709387e-06
-2.718071e-06
-2.390035e-06
-3.885275e-05
0
0
0
0
0
0
0
0
0
0
0
0
0
0
0
-2.447425e-06
-8.617945e-07
-1.251462e-06
4.773578e-07
-3.252853e-06
-1.584695e-05
3.288724e-06
0
0
0
0
0
0
0
0
0
0
0
0
0
0
0
1.254415e-06
1.248262e-07
-4.780494e-06
2.226465e-06
-3.795439e-06
1.69939e-06
4.895045e-06
-3.982528e-05
0
0
0
0
0
0
0
0
0
0
0
0
0
0
0
-4.676127e-07
1.121838e-06
2.695228e-06
9.248046e-07
-1.204537e-06
6.145464e-06
2.896147e-06
1.722088e-05
-6.416307e-06
0
0
0
0
0
0
0
0
0
0
0
0
0
0
0
0
0
0
0
0
0
0
0
0
0
0
0
0
0
0
0
0
0
0
0
0
0
0
0
0
0
0
0
0
0
-0.0002579132
-0.0002058574
-0.0002536161
-7.351702e-05
-0.0001463404
0.0008478145
0
0
0
0
0
-0.0003550645
0.0002815269
-0.00111853
0.0002390209
-0.001471939
0.000637559
-0.0001323008
0
0
0
0
0
-3.397219e-05
0.001886304
0.0004999177
0.0006982724
-0.0006985061
0.0002409073
0.001241962
0.0009180517
0
0
0
0
0
0.0001447212
0.0003129179
0.001097205
-0.001090889
0.002618145
-0.0009500052
0.001329359
-0.0008961399
9.676049e-05
0
0
0
0
0
0.0002883128
-0.0002522602
-0.001197345
-0.0009648875
0.001093535
-0.0001344644
-0.002596565
0.0001347534
-0.001351159
-0.001291699
0
0
0
0
0
0.0004153867
0.002487564
0.0009329672
-0.0006631192
0.001476413
0.0003839287
0.001074023
-0.001160624
-0.0003609314
-0.001089154
0.0004663798
0
0
0
0
0
-0.0004151102
-0.001244101
0.001392238
0.0002832813
0.001590553
-0.001234623
0.001013349
0.001255204
0.001057428
-0.001334623
4.217436e-05
9.195611e-07
0
0
0
0
0
0.0002912621
0.0007942636
0.0006482115
-0.002235597
0.000535227
-0.0005782379
0.001199572
0.001235097
-0.0003846534
0.0001473713
-0.0003529513
-1.454658e-06
1.214105e-06
0
0
0
0
0
0.0007501772
-0.000480295
7.510541e-05
0.0008002984
-0.001775598
5.976231e-06
0.0001306859
3.779688e-05
-0.001390316
-0.0008702861
0.0001130551
-9.620829e-07
1.023719e-06
6.56902e-06
0
0
0
0
0
-7.711526e-05
-0.0002121622
0.0004182463
-0.0001102376
0.000295792
9.731257e-07
-0.0001982148
0.0001241816
0.0002090765
0.0002214411
0.0001141926
1.385066e-06
-2.033358e-06
-2.04547e-06
3.683009e-06
0
0
0
0
0
0
0
0
0
0
0
0
0
0
0
-9.092165e-07
8.829761e-07
-5.874415e-07
2.21942e-07
1.343081e-06
-1.034874e-05
0
0
0
0
0
0
0
0
0
0
0
0
0
0
0
3.13635e-08
-3.490511e-09
-6.993035e-07
-2.566573e-06
-2.058023e-06
1.936529e-06
1.790394e-05
0
0
0
0
0
0
0
0
0
0
0
0
0
0
0
-1.55255e-06
2.942499e-06
3.338552e-06
4.648255e-07
6.077374e-07
1.015327e-06
1.430772e-05
1.21844e-05
0
0
0
0
0
0
0
0
0
0
0
0
0
0
0
-3.562319e-07
1.659581e-06
2.428789e-07
8.01986e-07
-2.116799e-06
-8.343016e-07
-1.599834e-05
-2.004201e-05
3.076185e-05
0
0
0
0
0
0
0
0
0
0
0
0
0
0
0
1.628873e-06
1.554919e-06
-2.270725e-06
-2.491516e-06
-1.69782e-06
-9.49419e-06
-4.019381e-06
-8.40165e-06
-1.221329e-05
8.884322e-07
0
0
0
0
0
0
0
0
0
0
0
0
0
0
0
0
0
0
0
0
0
0
0
0
0
0
0
0
0
0
0
0
0
0
0
0
0
0
0
0
0
0
0
0
0
0
0
0
0
0
0.0001034927
-0.0004668523
0.0005339181
-0.0003904208
0.0006775909
-0.0003579407
2.012403e-05
0
0
0
0
0
-0.0004981553
0.0003669387
0.0008766706
0.0008991525
0.0003212782
0.0002003929
-0.001649911
0.0004103547
0
0
0
0
0
-0.0001304534
0.001053772
-0.002266963
-0.000216985
-0.001546855
0.001139266
0.0008517065
0.001196886
-0.001631267
0
0
0
0
0
-0.0006085417
0.0002575299
-4.610164e-05
-0.001083744
0.001055138
-0.0008273062
0.002195533
-0.001218169
0.0004398211
0.001350146
0
0
0
0
0
-0.0002146683
-0.0007222398
-0.0008318642
0.001567341
0.001144103
-0.0005541311
-0.0004701031
0.0007288992
-0.0001246325
-0.0004406928
0.0004028757
0
0
0
0
0
0.0002258555
0.0006913665
-0.0009600272
7.391068e-05
-0.001317181
0.0006045944
-0.0008138656
-0.000199218
-0.0003797199
0.0009052401
0.0002791516
-5.951782e-06
0
0
0
0
0
-0.0005615798
0.0004126315
0.0006485906
0.0002430396
-0.0001526269
-0.0018036
0.001971625
0.0002872979
0.0009037649
-0.0004610494
4.390707e-05
-7.7218e-07
4.88299e-06
0
0
0
0
0
-0.0005675349
-0.001217483
0.0004904395
-0.0005330925
0.003031985
-0.001173672
-0.0001614385
-0.0007117659
-2.821222e-06
0.0003860538
-9.31045e-05
1.28429e-06
-2.732182e-06
3.126924e-06
0
0
0
0
0
-0.0001023155
-0.001860577
-2.507468e-05
0.0002256486
-0.001349658
0.001686422
-0.0008187082
-0.000783147
-0.0008723209
9.968485e-05
0.0006834604
-7.982722e-07
1.172031e-06
-1.557231e-06
-9.55673e-07
0
0
0
0
0
-3.631629e-05
0.0003110972
0.0004218827
-0.0004045171
-0.0003238128
-0.0001134963
-0.0002358963
0.0001679311
-0.0004814569
0.0003351323
-0.0002393348
2.32821e-06
-1.681412e-06
-2.777512e-06
-1.142022e-06
2.540974e-05
0
0
0
0
0
0
0
0
0
0
0
0
0
0
0
6.925058e-07
6.010253e-06
3.743127e-07
7.309793e-07
-6.539609e-07
-5.22361e-05
-1.079731e-05
0
0
0
0
0
0
0
0
0
0
0
0
0
0
0
-1.449707e-06
6.463449e-07
-3.037501e-06
-4.251931e-07
-1.495558e-06
-5.185876e-05
-1.496919e-05
1.409439e-05
0
0
0
0
0
0
0
0
0
0
0
0
0
0
0
1.272119e-06
1.458853e-06
-2.856794e-06
1.554749e-06
-1.397076e-06
-1.659674e-05
-2.853108e-05
-2.182235e-06
-3.148091e-05
0
0
0
0
0
0
0
0
0
0
0
0
0
0
0
1.547815e-07
1.324445e-06
-1.92139e-06
-1.265797e-06
-1.061161e-06
5.144527e-06
5.851497e-07
-8.377442e-07
9.145837e-06
-8.800527e-06
0
0
0
0
0
0
0
0
0
0
0
0
0
0
0
1.811108e-06
-2.308196e-06
3.837948e-07
1.035261e-06
-1.304876e-06
6.016053e-06
-5.446116e-06
-2.428996e-05
7.39918e-06
1.732891e-05
-72081.23
0
0
0
0
0
0
0
0
0
0
0
0
0
0
0
0
0
0
0
0
0
0
0
0
0
0
0
0
0
0
0
0
0
0
0
0
0
0
0
0
0
0
0
0
0
0
0
0
0
0
0
0
0
0
0
0.0003293954
-5.754138e-05
-8.985072e-05
-0.0001807735
0.0007608515
3.162068e-05
0.0005490017
-2.276896e-05
0
0
0
0
0
-0.0002580503
5.987961e-05
0.0007500747
-0.0007983481
-0.0009536875
-0.0009092626
-0.001715348
0.0005791126
0.0004842069
0
0
0
0
0
-0.0002008529
-0.002198349
-0.0008957211
0.001726778
0.0005048534
0.001095453
-0.0005319346
0.000973692
-0.0004341477
0.0006368722
0
0
0
0
0
-0.0002584512
0.00100251
-0.0003868206
-6.92757e-05
-0.001052807
-0.0008136381
0.001641534
-0.00204861
0.0001302784
0.001538746
-0.0002383158
0
0
0
0
0
0.0006637812
-0.0009509759
-0.002299305
0.0004114928
0.0005326625
-0.001197105
0.001520931
0.001194855
-0.0007265329
-0.001142444
0.0004684936
-2.730449e-07
0
0
0
0
0
-0.0005448517
-0.001033534
-0.0009629638
0.001544983
-0.0005431797
0.0001403379
-0.001530609
-0.0008059789
0.0002309902
0.001455129
-0.0003925196
-4.569583e-06
3.505723e-06
0
0
0
0
0
-0.0005986228
0.001281429
-0.0006013423
0.00129749
-0.0008142933
-0.001180528
0.001637476
-0.0008234264
0.0001815639
-0.0007377609
-0.0001004513
-1.872784e-06
-2.133056e-06
-4.982678e-08
0
0
0
0
0
-0.0001852463
0.002018695
-0.0003234273
-0.0001675423
6.817733e-05
-0.001459158
0.0006921007
-0.0007054102
0.002225629
0.0005834361
9.99943e-05
3.217303e-07
1.751709e-07
3.25108e-06
-3.016779e-06
0
0
0
0
0
0.0005693433
-0.0009099362
-7.781379e-05
0.002106889
-0.0001000977
0.002067555
-0.0001732703
0.001228959
-0.0008213079
0.0004953622
-0.0001317281
-5.332615e-06
2.59381e-06
2.420674e-06
1.665859e-06
-1.701701e-05
0
0
0
0
0
0.0002326226
-0.0003782417
-0.0002096811
-0.0004609425
-0.0005806562
0.000791298
-0.0001515981
-0.0005775603
-0.0006918165
0.0001904597
-0.0001484102
3.301999e-07
-1.159051e-06
9.544534e-07
-1.397979e-06
1.956991e-05
-2.928689e-05
0
0
0
0
0
0
0
0
0
0
0
0
0
0
0
2.131679e-06
3.071626e-06
-3.725872e-06
-2.421915e-06
6.373541e-07
4.440612e-07
4.807665e-05
3.122491e-06
0
0
0
0
0
0
0
0
0
0
0
0
0
0
0
5.588779e-07
-3.01657e-06
8.526899e-07
-6.757413e-07
-3.695315e-07
2.862235e-06
3.873423e-05
3.643805e-05
1.363519e-06
0
0
0
0
0
0
0
0
0
0
0
0
0
0
0
8.548164e-07
-1.037634e-06
-4.973984e-07
7.618563e-07
-1.107812e-06
-1.513703e-05
2.59349e-06
4.237585e-05
-1.681792e-05
6.560754e-06
0
0
0
0
0
0
0
0
0
0
0
0
0
0
0
7.681712e-08
1.786205e-06
1.269936e-06
-2.742319e-07
-1.009155e-06
-3.098038e-05
-4.573514e-06
-3.280077e-05
1.045174e-05
-3.629264e-06
-72750.18
0
0
0
0
0
0
0
0
0
0
0
0
0
0
0
1.050869e-06
-3.193994e-06
4.500637e-06
1.001691e-06
-2.860285e-06
3.339736e-06
-1.708985e-05
8.494316e-06
2.867902e-05
-2.620072e-07
-66442.49
-72696.47
0
0
0
0
0
0
0
0
0
0
0
0
0
0
0
0
0
0
0
0
0
0
0
0
0
0
0
0
0
0
0
0
0
0
0
0
0
0
0
0
0
0
0
0
0
0
0
0
0
0
0
0
0
0
0
0
0
0
0
0
0.0004029508
-0.0001702764
-0.0002387535
0.0005433563
0.0003321741
-0.0002569699
-0.0003682047
-6.622603e-06
-0.0004308765
0
0
0
0
0
-0.0001835748
0.0008523828
-4.983189e-05
-0.0003710641
-0.001685418
0.0007951197
-0.0001523451
0.0008511483
-0.0007934102
-0.00170289
0
0
0
0
0
-0.0005871079
0.001015222
0.002267298
-0.0004883668
-0.0002340168
0.0008579092
-0.0007318215
-0.000422694
-0.001612544
-0.0008010212
-0.000108695
0
0
0
0
0
0.0001844622
-1.457335e-05
0.002500453
0.0005755409
0.0001193462
0.0001761544
-0.0003058697
-0.001837694
0.001478044
0.0004431424
-0.0003407706
1.579994e-06
0
0
0
0
0
0.0002219387
0.0001132178
0.0001219502
-0.0004312721
-0.002541786
-0.0004257249
0.0005181043
-0.001107259
-0.000606733
-0.001056357
0.0004559821
-6.669787e-06
-5.367675e-07
0
0
0
0
0
0.0002914212
0.001844617
0.0007482383
-0.000733525
-0.0009014973
0.001247369
0.0004561945
0.001141361
-1.560281e-05
-0.0005024798
-0.000429227
3.659038e-07
3.613749e-06
-3.931741e-06
0
0
0
0
0
-0.0007895057
0.001858225
0.001495763
-0.0008970156
-0.0004991662
-0.0005136048
0.001467953
-0.001632809
-0.001454093
0.0001572338
0.000458322
1.789295e-06
9.70585e-07
-1.041092e-06
-1.9904e-06
0
0
0
0
0
-6.606518e-05
-5.154546e-05
0.0006465052
-0.0002228101
0.001360357
-1.939647e-05
0.0002994638
0.0004754906
0.002671462
-0.00141411
-0.0005541823
4.910051e-07
-3.147624e-06
5.387866e-06
-6.098566e-06
-7.852924e-06
0
0
0
0
0
-0.0005659257
-0.0004853098
0.001698774
2.852884e-05
-0.0001568858
-0.0009512212
-0.001140822
0.001921188
-0.0008267324
0.000759853
-0.000538109
1.369379e-06
5.191223e-06
3.451844e-06
-2.485263e-06
-1.504683e-05
2.518205e-05
0
0
0
0
0
-0.0001266526
-0.0003116336
0.0005397478
0.0005342021
-0.0008390414
0.0001903294
-0.0001585454
0.0001212377
0.001028144
-9.215104e-05
-0.000127435
-6.744487e-07
1.994949e-06
-1.377034e-06
9.317789e-07
7.009209e-06
-7.396345e-06
4.238405e-06
0
0
0
0
0
0
0
0
0
0
0
0
0
0
0
7.108994e-07
1.804991e-06
-3.656189e-06
3.308957e-06
2.981157e-06
-8.229211e-06
-1.263233e-05
-1.045915e-05
-1.096313e-05
0
0
0
0
0
0
0
0
0
0
0
0
0
0
0
1.487926e-06
1.5489e-06
-1.302448e-06
-8.164269e-07
6.555227e-07
2.09446e-05
2.359044e-05
-4.18432e-05
-1.753021e-05
-9.277562e-07
0
0
0
0
0
0
0
0
0
0
0
0
0
0
0
1.162146e-06
3.106444e-06
2.291423e-06
3.8187e-06
-2.443566e-06
4.099315e-06
1.95848e-05
8.493432e-06
-3.447076e-05
1.076768e-05
-74103.63
0
0
0
0
0
0
0
0
0
0
0
0
0
0
0
7.368534e-07
-1.037728e-06
2.044679e-06
-2.795035e-06
-1.604686e-06
-2.155052e-06
1.032096e-05
-1.273593e-06
2.90713e-05
-7.246011e-06
-66881.51
-73377.32
0
0
0
0
0
0
0
0
0
0
0
0
0
0
0
1.37659e-07
1.560934e-07
2.046089e-06
-2.831785e-07
1.172352e-06
-3.739705e-06
-1.314732e-05
3.394415e-05
-1.802788e-06
-1.574869e-06
-61775.6
-66988.52
-74275.44
0
0
0
0
0
0
0
0
0
0
0
0
0
0
0
0
0
0
0
0
0
0
0
0
0
0
0
0
0
0
0
0
0
0
0
0
0
0
0
0
0
0
0
0
0
0
0
0
0
0
0
0
0
0
0
0
0
0
0
0
0
0
0
0
0
-5.953798e-06
-0.0003974805
0.0003849415
-0.000757159
0.000251843
-0.0003008728
-0.0004841408
0.0002639483
0.0006006244
0.000863821
0
0
0
0
0
-0.0007584978
-0.001246064
0.001664538
0.0003462152
-0.0004489527
-0.0006948465
-0.0005029807
0.0006136306
-0.0004905755
0.0001907166
0.0006363168
0
0
0
0
0
-0.0008954228
0.00112906
-0.0007286183
-0.001271055
4.146654e-05
0.0002378896
-0.0001198934
-0.0002501272
-0.0008511347
7.991471e-05
-0.000162138
-1.582652e-06
0
0
0
0
0
-0.0003920741
0.0005022856
0.001999447
-0.0005645633
0.002213456
-0.0008125119
4.094026e-05
0.001315563
0.001253097
-0.0001991061
0.0002174213
2.745648e-06
-9.649307e-07
0
0
0
0
0
0.0001247577
-0.001442762
0.001211524
-0.0007490311
0.001209122
0.001345967
-0.000613699
-0.001394044
-0.0007060326
8.234096e-05
0.0004967228
1.949032e-06
3.719117e-06
-4.139801e-06
0
0
0
0
0
0.0009381398
-0.001492503
-0.001909664
0.000583461
0.0006488258
0.001204321
-0.001826806
-0.0006425862
-0.0006952354
0.001058989
0.0003339994
-5.445738e-07
3.250064e-06
2.115943e-06
-1.290119e-06
0
0
0
0
0
6.515127e-05
0.001064486
-0.00357279
-0.0004316691
-0.000543479
0.0003783234
-0.0005354098
-0.0002818532
0.0007716323
0.001739931
-0.0003825843
-1.967511e-06
3.980385e-06
-2.029055e-06
1.821934e-07
-1.998629e-05
0
0
0
0
0
-0.0005584867
-0.001253364
-7.963953e-05
-0.0001496806
-0.0003708608
0.001279787
0.0008679994
-0.0007486908
-0.0004555878
-0.0008768596
0.0001613368
-4.836287e-07
-3.737758e-07
8.059247e-07
3.441536e-06
1.281909e-06
-3.059869e-05
0
0
0
0
0
0.0004684006
0.0007586722
-0.001577371
-0.002551074
0.0004547835
-0.0001312391
-0.0001710884
-0.001436499
-0.002450508
-0.0001979583
-0.0004738807
9.264136e-07
-1.646979e-06
6.460327e-07
2.90389e-07
-1.461783e-05
2.318214e-05
-4.057545e-06
0
0
0
0
0
0.0001143938
-2.834762e-05
0.0003091626
-0.0001452853
-0.0005461464
0.0008508087
-0.000211584
-0.0004286405
-0.0002045192
-0.0001639402
0.0001266849
-4.303819e-06
4.036674e-06
3.856727e-07
4.069225e-06
1.408787e-05
1.680623e-05
-2.68707e-05
-1.234027e-05
0
0
0
0
0
0
0
0
0
0
0
0
0
0
0
-1.02943e-08
-8.027658e-07
-2.223361e-07
2.184441e-06
-2.404662e-06
2.267314e-05
-3.861935e-06
-1.025487e-05
-8.64314e-06
5.525046e-06
0
0
0
0
0
0
0
0
0
0
0
0
0
0
0
-1.057404e-07
-1.28594e-06
1.761118e-06
-6.998483e-06
6.401279e-07
-1.559992e-06
-2.917003e-05
-4.537807e-05
2.88104e-05
8.820383e-06
-76125.37
0
0
0
0
0
0
0
0
0
0
0
0
0
0
0
1.93415e-06
-2.49671e-06
-2.242974e-06
3.074613e-07
4.385406e-07
1.311004e-05
2.227755e-07
-7.287833e-06
-5.569961e-06
2.154314e-05
-67747.65
-74754.68
0
0
0
0
0
0
0
0
0
0
0
0
0
0
0
-3.884287e-07
6.030078e-07
5.723583e-07
3.011707e-07
-1.333613e-06
-1.390546e-05
-1.183425e-05
2.259183e-05
-1.2987e-05
-2.50751e-06
-62113.67
-67435.72
-74984.52
0
0
0
0
0
0
0
0
0
0
0
0
0
0
0
-2.585445e-06
7.795103e-07
1.242907e-06
-8.254334e-07
9.036403e-07
-5.904399e-07
-3.892835e-06
2.140803e-05
-1.915443e-05
-1.250139e-05
-58050.36
-62270.39
-68378.35
-76868.02
0
0
0
0
0
0
0
0
0
0
0
0
0
0
0
0
0
0
0
0
0
0
0
0
0
0
0
0
0
0
0
0
0
0
0
0
0
0
0
0
0
0
0
0
0
0
0
0
0
0
0
0
0
0
0
0
0
0
0
0
0
0
0
0
0
0
0
0
0
0
-4.576813e-05
0.0004352384
-0.001475992
-0.0004496961
0.0009630272
0.0005527025
0.0003162921
0.0002371745
0.0002473391
-0.0004589358
-1.083621e-06
0
0
0
0
0
-0.0003738704
0.0006424854
0.001167978
-0.0002635265
-0.0004061156
-0.001169171
8.512483e-05
-0.0003283856
0.001516811
0.00145445
-0.0002631102
-4.528594e-06
0
0
0
0
0
-1.586426e-05
0.001430724
-0.000816435
0.0004088635
-0.0001410655
0.001447287
0.0005941395
-0.0009458366
-0.0005267997
0.0002914881
0.0004060856
1.945254e-06
-1.567214e-06
0
0
0
0
0
9.622468e-06
0.001291721
-0.0009642589
0.0002236075
-0.001047496
-0.001273027
0.0007926059
-5.605018e-07
0.0003109409
-0.0005540951
4.529512e-05
-2.998949e-06
-9.726354e-07
5.596177e-06
0
0
0
0
0
-0.0001580107
-0.0006193893
0.001975866
-0.0002339129
-0.0005868488
-0.001574395
-0.0001381306
0.0008367374
0.001680058
-0.0004974503
0.0003349637
1.648148e-06
-2.5225e-06
-1.529799e-06
4.632463e-06
0
0
0
0
0
-0.0006506026
0.0001150707
0.001494541
-0.0004377798
0.0003274805
-0.0006956715
0.0008365528
-8.29069e-05
-0.0009886568
0.000158294
-0.0001116579
-2.857491e-06
-3.931828e-06
5.730224e-07
3.967311e-06
1.112572e-05
0
0
0
0
0
0.0002651447
0.0007222146
-0.0006748341
0.002355539
-0.0004061848
0.0001210515
-0.0003649654
0.0004510027
-0.0002091943
0.0001642639
-0.0003484804
-2.625144e-07
1.916742e-07
-3.255154e-07
-5.659904e-06
-1.102066e-05
1.725222e-05
0
0
0
0
0
0.0002873942
0.0008046637
0.003049628
-0.0003028386
-0.0006533359
-1.064443e-05
-3.092593e-05
1.869336e-05
0.0003358084
0.001237903
0.0001701574
2.625122e-06
2.704748e-06
1.442101e-06
-4.33763e-06
7.737472e-06
-3.062723e-05
9.004433e-06
0
0
0
0
0
-0.0006244994
-0.001520371
-0.0007649977
-0.0003390684
0.0006822873
-0.0008579996
0.0002902824
-0.0001229153
0.0006045074
0.0008951365
0.0001231863
1.261449e-06
1.005857e-06
-2.294423e-06
-1.636269e-06
1.191261e-05
-1.57441e-05
-8.10954e-06
-4.956257e-06
0
0
0
0
0
0.0003319609
-1.279768e-05
-6.274037e-06
0.0001404017
-0.0006897334
3.825095e-05
-0.0002605633
0.0002657787
0.0001086977
0.0004991145
-0.0001434018
-1.324369e-06
2.983681e-06
-3.934827e-06
4.112036e-06
4.870464e-06
-1.624443e-05
-1.656007e-05
-1.817334e-06
-3.803279e-06
0
0
0
0
0
0
0
0
0
0
0
0
0
0
0
6.611864e-07
-7.231904e-07
-2.246949e-06
4.845324e-06
6.842672e-07
-3.707263e-06
-3.086472e-05
-1.053134e-05
1.751112e-05
-1.201795e-05
-78712.93
0
0
0
0
0
0
0
0
0
0
0
0
0
0
0
1.070918e-06
-1.677691e-06
9.049246e-07
-1.980141e-06
-2.367951e-06
1.381378e-07
4.207279e-06
-1.094684e-06
3.579002e-05
-2.79082e-06
-68976.59
-76811.44
0
0
0
0
0
0
0
0
0
0
0
0
0
0
0
2.451644e-06
1.315178e-06
-9.199503e-07
-3.045769e-06
-1.64721e-06
3.703352e-07
-9.29815e-06
4.554591e-07
-2.057232e-05
-4.333615e-06
-62773.02
-68318.18
-76419.17
0
0
0
0
0
0
0
0
0
0
0
0
0
0
0
-3.653665e-06
-2.439065e-06
6.961147e-06
-2.711514e-06
1.505105e-06
1.510492e-05
-1.198936e-05