/*--------------------------------*- C++ -*----------------------------------*\
| =========                 |                                                 |
| \\      /  F ield         | OpenFOAM: The Open Source CFD Toolbox           |
|  \\    /   O peration     | Version:  2306                                  |
|   \\  /    A nd           | Website:  www.openfoam.com                      |
|    \\/     M anipulation  |                                                 |
\*---------------------------------------------------------------------------*/
FoamFile
{
    version     2.0;
    format      ascii;
    arch        "LSB;label=32;scalar=64";
    class       volScalarField;
    location    "0.6";
    object      k;
}
// * * * * * * * * * * * * * * * * * * * * * * * * * * * * * * * * * * * * * //

dimensions      [1 1 -3 -1 0 0 0];

internalField   nonuniform List<scalar> 
52000
(
20
20
20
20
20
20
20
20
20
20
20
20
20
20
20
20
20
20
20
20
20
20
20
20
20
20
20
20
20
20
20
20
20
20
20
20
20
20
20
20
20
20
20
20
20
20
20
20
20
20
20
20
20
20
20
20
20
20
20
20
20
20
20
20
20
20
20
20
20
20
20
20
20
20
20
20
20
20
20
20
20
20
20
20
20
20
20
20
20
20
20
20
20
20
20
20
20
20
20
20
20
20
20
20
20
20
20
20
20
20
20
20
20
20
20
20
20
20
20
20
20
20
20
20
20
20
20
20
20
20
20
20
20
20
20
20
20
20
20
20
20
20
20
20
20
20
20
20
20
20
20
20
20
20
20
20
20
20
20
20
20
20
20
20
20
20
20
20
20
20
20
20
20
20
20
20
20
20
20
20
20
20
20
20
20
20
20
20
20
20
20
20
20
20
20
20
20
20
20
20
20
20
20
20
20
20
20
20
20
20
20
20
20
20
20
20
20
20
20
20
20
20
20
20
20
20
20
20
20
20
20
20
20
20
20
20
20
20
20
20
0.07821487
20
20
20
20
20
20
20
20
20
20
20
20
20
20
20
20
20
20
20
20
20
20
20
20
20
20
20
20
20
20
20
20
20
20
20
20
20
20
20
20
20
20
20
20
20
20
20
20
20
20
20
20
20
20
20
20
20
20
20
20
20
20
20
20
20
0.07767037
20
20
20
20
20
0.07885087
0.0776618
20
20
20
20
20
20
20
20
20
20
20
20
20
20
20
20
20
20
20
20
20
20
20
20
20
20
20
20
20
20
20
20
20
20
20
20
20
20
20
20
20
20
20
20
20
20
20
20
20
20
20
20
20
20
20
20
20
20
20
20
20
20
20
20
20
20
20
20
20
20
0.07737551
20
20
20
20
20
0.07869942
0.07634392
20
20
20
20
20
0.07901525
0.07869833
0.07735963
20
20
20
20
20
20
20
20
20
20
20
20
20
20
20
20
20
20
20
20
20
20
20
20
20
20
20
20
20
20
20
20
20
20
20
20
20
20
20
20
20
20
20
20
20
20
20
20
20
20
20
20
20
20
20
20
20
20
20
20
20
20
20
20
20
20
20
20
20
20
20
20
20
20
20
0.07721087
20
20
20
20
20
0.078569
0.07553321
20
20
20
20
20
0.07894581
0.07825168
0.07552111
20
20
20
20
20
0.07915331
0.07894913
0.07856729
0.0771863
20
20
20
20
20
20
20
20
20
20
20
20
20
20
20
20
20
20
20
20
20
20
20
20
20
20
20
20
20
20
20
20
20
20
20
20
20
20
20
20
20
20
20
20
20
20
20
20
20
20
20
20
20
20
20
20
20
20
20
20
20
20
20
20
20
20
20
20
20
20
20
20
20
20
20
20
20
20
20
20
0.07713504
20
20
20
20
20
0.07847344
0.07505225
20
20
20
20
20
0.07888328
0.07786137
0.07430034
20
20
20
20
20
0.07911694
0.07874527
0.077857
0.0750198
20
20
20
20
20
0.07927753
0.07912205
0.07889059
0.07847093
0.07709928
20
20
20
20
20
20
20
20
20
20
20
20
20
20
20
20
20
20
20
20
20
20
20
20
20
20
20
20
20
20
20
20
20
20
20
20
20
20
20
20
20
20
20
20
20
20
20
20
20
20
20
20
20
20
20
20
20
20
20
20
20
20
20
20
20
20
20
20
20
20
20
20
20
20
20
20
20
20
20
20
20
20
20
20
20
0.07713504
20
20
20
20
20
0.078423
0.07482586
20
20
20
20
20
0.07883542
0.07757281
0.07353436
20
20
20
20
20
0.07908457
0.07855902
0.07722462
0.07350557
20
20
20
20
20
0.079256
0.07901842
0.07856209
0.07755961
0.07476077
20
20
20
20
20
0.07939143
0.07926155
0.07909554
0.07884768
0.07841973
0.07708462
20
20
20
20
20
20
20
20
20
20
20
20
20
20
20
20
20
20
20
20
20
20
20
20
20
20
20
20
20
20
20
20
20
20
20
20
20
20
20
20
20
20
20
20
20
20
20
20
20
20
20
20
20
20
20
20
20
20
20
20
20
20
20
20
20
20
20
20
20
0.3553609
20
20
20
20
20
20
20
20
20
20
20
20
20
20
20
20
20
20
20
20
0.07721087
20
20
20
20
20
0.078423
0.07482586
20
20
20
20
20
0.0788094
0.07741972
0.07316161
20
20
20
20
20
0.07905986
0.07841514
0.07675117
0.07251798
20
20
20
20
20
0.07923733
0.07892441
0.07825708
0.07673706
0.07308012
20
20
20
20
20
0.07937711
0.07920265
0.07893057
0.07842083
0.07739313
0.07471412
20
20
20
20
20
0.0794967
0.07938256
0.07924922
0.0790782
0.07882809
0.0784202
0.07714217
20
20
20
20
20
20
20
20
20
20
20
20
20
20
20
20
20
20
20
20
20
20
20
20
20
20
20
20
20
20
20
20
20
20
20
20
20
20
20
20
20
20
20
20
20
20
20
20
20
20
20
20
20
20
20
20
20
0.3553531
20
20
20
20
20
20
20
20
20
20
20
20
20
20
20
0.3554476
0.3554165
20
20
20
20
20
20
20
20
20
20
20
20
20
20
20
20
20
20
20
20
0.07737551
20
20
20
20
20
0.07847344
0.07505225
20
20
20
20
20
0.0788094
0.07741972
0.07316161
20
20
20
20
20
0.07904641
0.07833655
0.07649806
0.07202824
20
20
20
20
20
0.07922332
0.07885184
0.07801876
0.07611449
0.07196288
20
20
20
20
20
0.07936502
0.07915037
0.07877825
0.07801959
0.07645903
0.07300046
20
20
20
20
20
0.07948594
0.07934507
0.07915752
0.07886585
0.07834532
0.07737784
0.07487916
20
20
20
20
20
0.07959461
0.07949108
0.07937673
0.07924324
0.0790742
0.07883714
0.07847478
0.07728438
20
20
20
20
20
20
20
20
20
20
20
20
20
20
20
20
20
20
20
20
20
20
20
20
20
20
20
20
20
20
20
20
20
20
20
20
20
20
20
20
20
20
20
20
0.3553371
20
20
20
20
20
20
20
20
20
20
20
20
20
20
20
0.3554422
0.3554078
20
20
20
20
20
20
20
20
20
20
20
20
20
20
20
0.3555304
0.3554991
0.3554733
20
20
20
20
20
20
20
20
20
20
20
20
20
20
20
20
20
20
20
20
0.07767037
20
20
20
20
20
0.078569
0.07553321
20
20
20
20
20
0.07883542
0.07757281
0.07353436
20
20
20
20
20
0.07904641
0.07833655
0.07649806
0.07202824
20
20
20
20
20
0.07921577
0.0788121
0.07788771
0.07577945
0.07140301
20
20
20
20
20
0.07935612
0.07911071
0.0786591
0.07770302
0.07574727
0.07185649
20
20
20
20
20
0.07947705
0.07931259
0.0790746
0.07866702
0.07788794
0.07642712
0.07326853
20
20
20
20
20
0.07958575
0.07946391
0.07931981
0.07912753
0.07883674
0.07835161
0.07751992
0.0752824
20
20
20
20
20
0.07968609
0.07959053
0.07948815
0.0793758
0.07924595
0.07908657
0.07887678
0.07858243
0.07754831
20
20
20
20
20
20
20
20
20
20
20
20
20
20
20
20
20
20
20
20
20
20
20
20
20
20
20
20
20
20
0.3553106
20
20
20
20
20
20
20
20
20
20
20
20
20
20
20
0.3554314
0.3553891
20
20
20
20
20
20
20
20
20
20
20
20
20
20
20
0.3555258
0.3554937
0.3554639
20
20
20
20
20
20
20
20
20
20
20
20
20
20
20
0.3556074
0.3555762
0.3555513
0.3555315
20
20
20
20
20
20
20
20
20
20
20
20
20
20
20
20
20
20
20
20
0.07821487
20
20
20
20
20
0.07869942
0.07634392
20
20
20
20
20
0.07888328
0.07786137
0.07430034
20
20
20
20
20
0.07905986
0.07841514
0.07675117
0.07251798
20
20
20
20
20
0.07921577
0.0788121
0.07788771
0.07577945
0.07140301
20
20
20
20
20
0.07935139
0.07908923
0.07859334
0.07752793
0.07536263
0.07128177
20
20
20
20
20
0.07947063
0.07928849
0.07901085
0.07850975
0.07752478
0.07570126
0.07220365
20
20
20
20
20
0.07957852
0.07944093
0.07926961
0.07902135
0.07861222
0.07788985
0.07665109
0.07390956
20
20
20
20
20
0.07967831
0.07956868
0.07944786
0.07930568
0.07911926
0.07885213
0.07844445
0.07781179
0.07599395
20
20
20
20
20
0.07977185
0.07968275
0.07958891
0.07948935
0.07938124
0.07925906
0.07911664
0.07894611
0.07874052
0.07803692
20
20
20
20
20
20
20
20
20
20
20
20
20
20
20
0.35526
20
20
20
20
20
20
20
20
20
20
20
20
20
20
20
0.3554154
0.355356
20
20
20
20
20
20
20
20
20
20
20
20
20
20
20
0.3555166
0.355483
0.3554432
20
20
20
20
20
20
20
20
20
20
20
20
20
20
20
0.3556031
0.3555718
0.355546
0.3555215
20
20
20
20
20
20
20
20
20
20
20
20
20
20
20
0.3556791
0.3556477
0.3556226
0.3556044
0.3555911
20
20
20
20
20
20
20
20
20
20
20
20
20
20
20
20
20
20
20
20
20
20
20
20
20
0.07885087
0.0776618
20
20
20
20
20
0.07894581
0.07825168
0.07552111
20
20
20
20
20
0.07908457
0.07855902
0.07722462
0.07350557
20
20
20
20
20
0.07922332
0.07885184
0.07801876
0.07611449
0.07196288
20
20
20
20
20
0.07935139
0.07908923
0.07859334
0.07752793
0.07536263
0.07128177
20
20
20
20
20
0.07946725
0.07927561
0.07897602
0.07842236
0.07732317
0.07530854
0.07167132
20
20
20
20
20
0.07957336
0.07942425
0.07923184
0.07893872
0.0784332
0.07752215
0.07598932
0.07302396
20
20
20
20
20
0.07967202
0.07955051
0.07941319
0.0792429
0.07900166
0.07862892
0.0780323
0.07711326
0.07498254
20
20
20
20
20
0.07976479
0.07966384
0.07955703
0.07944082
0.07930646
0.07913747
0.07891508
0.07861737
0.07823294
0.07717302
20
20
20
20
20
0.07985249
0.07976891
0.0796817
0.07959095
0.07949571
0.07939414
0.07928357
0.07916468
0.07904459
0.07895473
0.3550395
20
20
20
20
20
20
20
20
20
20
20
20
20
20
20
0.3553956
0.3552907
20
20
20
20
20
20
20
20
20
20
20
20
20
20
20
0.3555034
0.3554675
0.3554063
20
20
20
20
20
20
20
20
20
20
20
20
20
20
20
0.3555948
0.3555635
0.3555354
0.3554998
20
20
20
20
20
20
20
20
20
20
20
20
20
20
20
0.3556752
0.3556439
0.3556185
0.3555991
0.3555809
20
20
20
20
20
20
20
20
20
20
20
20
20
20
20
0.3557466
0.3557148
0.3556887
0.3556697
0.3556584
0.6317864
20
20
20
20
20
20
20
20
20
20
20
20
20
20
20
20
20
20
20
20
20
20
20
20
20
20
20
20
20
20
0.07901525
0.07869833
0.07735963
20
20
20
20
20
0.07911694
0.07874527
0.077857
0.0750198
20
20
20
20
20
0.07923733
0.07892441
0.07825708
0.07673706
0.07308012
20
20
20
20
20
0.07935612
0.07911071
0.0786591
0.07770302
0.07574727
0.07185649
20
20
20
20
20
0.07946725
0.07927561
0.07897602
0.07842236
0.07732317
0.07530854
0.07167132
20
20
20
20
20
0.07957067
0.07941546
0.0792115
0.07889324
0.07833326
0.0773177
0.07563186
0.07258643
20
20
20
20
20
0.07966756
0.07953753
0.07938772
0.0791951
0.07890925
0.07845001
0.07770381
0.0765836
0.07435624
20
20
20
20
20
0.07975908
0.07964827
0.07953011
0.0793985
0.07923867
0.07902335
0.07872128
0.07830066
0.07776889
0.0766318
20
20
20
20
20
0.07984594
0.07975183
0.07965436
0.07955318
0.07944527
0.07932498
0.0791843
0.07902315
0.07885613
0.07875464
0.3548093
20
20
20
20
20
0.07992849
0.07984978
0.07976813
0.07968403
0.07959748
0.07950801
0.07941531
0.07932043
0.07923289
0.07918417
0.3554011
0.3551199
20
20
20
20
20
20
20
20
20
20
20
20
20
20
20
0.3554901
0.3554495
0.3553379
20
20
20
20
20
20
20
20
20
20
20
20
20
20
20
0.355583
0.3555524
0.35552
0.3554614
20
20
20
20
20
20
20
20
20
20
20
20
20
20
20
0.3556674
0.3556366
0.3556108
0.3555885
0.3555587
20
20
20
20
20
20
20
20
20
20
20
20
20
20
20
0.3557429
0.3557113
0.3556852
0.3556658
0.355653
0.6317806
20
20
20
20
20
20
20
20
20
20
20
20
20
20
20
0.35581
0.3557782
0.355751
0.3557302
0.3557174
0.6318228
0.6317888
20
20
20
20
20
20
20
20
20
20
20
20
20
20
20
20
20
20
20
20
20
20
20
20
20
20
20
20
20
20
20
20
20
20
20
0.07915331
0.07894913
0.07856729
0.0771863
20
20
20
20
20
0.079256
0.07901842
0.07856209
0.07755961
0.07476077
20
20
20
20
20
0.07936502
0.07915037
0.07877825
0.07801959
0.07645903
0.07300046
20
20
20
20
20
0.07947063
0.07928849
0.07901085
0.07850975
0.07752478
0.07570126
0.07220365
20
20
20
20
20
0.07957067
0.07941546
0.0792115
0.07889324
0.07833326
0.0773177
0.07563186
0.07258643
20
20
20
20
20
0.07966525
0.07953078
0.07937422
0.07916915
0.0788581
0.07834982
0.07752114
0.07629842
0.07405224
20
20
20
20
20
0.07975505
0.07963726
0.0795107
0.07936708
0.07918649
0.0789329
0.07856501
0.07804723
0.0774167
0.07629962
20
20
20
20
20
0.07984065
0.07973783
0.07963155
0.07952092
0.07940076
0.07926132
0.07908907
0.0788821
0.07866263
0.07854962
0.3546305
20
20
20
20
20
0.07992235
0.07983397
0.07974353
0.07965193
0.07955896
0.07946309
0.07936292
0.07925978
0.07917154
0.07914781
0.3553593
0.3549341
20
20
20
20
20
0.08000024
0.07992594
0.07984913
0.07977049
0.0796904
0.07960911
0.07952697
0.07944592
0.07937304
0.07933648
0.3555339
0.3554414
0.3552021
20
20
20
20
20
20
20
20
20
20
20
20
20
20
20
0.3555722
0.3555447
0.3555019
0.3553956
20
20
20
20
20
20
20
20
20
20
20
20
20
20
20
0.3556564
0.3556274
0.3556009
0.3555729
0.3555207
20
20
20
20
20
20
20
20
20
20
20
20
20
20
20
0.3557355
0.3557045
0.3556786
0.3556583
0.3556423
0.631768
20
20
20
20
20
20
20
20
20
20
20
20
20
20
20
0.3558065
0.3557749
0.3557478
0.3557269
0.3557136
0.6318198
0.631783
20
20
20
20
20
20
20
20
20
20
20
20
20
20
20
0.3558698
0.3558383
0.3558104
0.3557878
0.3557723
0.6318545
0.631825
0.6317913
20
20
20
20
20
20
20
20
20
20
20
20
20
20
20
20
20
20
20
20
20
20
20
20
20
20
20
20
20
20
20
20
20
20
20
20
20
20
20
20
0.07927753
0.07912205
0.07889059
0.07847093
0.07709928
20
20
20
20
20
0.07937711
0.07920265
0.07893057
0.07842083
0.07739313
0.07471412
20
20
20
20
20
0.07947705
0.07931259
0.0790746
0.07866702
0.07788794
0.07642712
0.07326853
20
20
20
20
20
0.07957336
0.07942425
0.07923184
0.07893872
0.0784332
0.07752215
0.07598932
0.07302396
20
20
20
20
20
0.07966525
0.07953078
0.07937422
0.07916915
0.0788581
0.07834982
0.07752114
0.07629842
0.07405224
20
20
20
20
20
0.07975297
0.07963157
0.07950055
0.0793503
0.07915797
0.07888257
0.07847724
0.07790617
0.07722726
0.07613942
20
20
20
20
20
0.07983692
0.07972799
0.0796153
0.07949745
0.07936734
0.0792117
0.07901247
0.07876627
0.07850397
0.07838817
0.3545113
20
20
20
20
20
0.07991738
0.07982105
0.07972314
0.07962489
0.07952571
0.07942273
0.07931278
0.07919627
0.0790961
0.07907928
0.3553051
0.3547831
20
20
20
20
20
0.07999445
0.07991113
0.0798264
0.07974174
0.07965802
0.07957578
0.07949569
0.07942132
0.07936397
0.07935925
0.3555392
0.3554064
0.3550524
20
20
20
20
20
0.08006809
0.07999783
0.07992536
0.07985143
0.07977661
0.07970136
0.07962647
0.07955379
0.07948973
0.07945709
0.3556246
0.3555673
0.3554863
0.3552861
20
20
20
20
20
20
20
20
20
20
20
20
20
20
20
0.3556466
0.355623
0.3555943
0.3555538
0.35546
20
20
20
20
20
20
20
20
20
20
20
20
20
20
20
0.3557251
0.3556962
0.355671
0.3556489
0.3556264
0.6317468
20
20
20
20
20
20
20
20
20
20
20
20
20
20
20
0.3557994
0.3557686
0.3557419
0.3557208
0.3557062
0.6318136
0.6317705
20
20
20
20
20
20
20
20
20
20
20
20
20
20
20
0.3558664
0.355835
0.3558074
0.3557848
0.3557691
0.6318523
0.631822
0.6317855
20
20
20
20
20
20
20
20
20
20
20
20
20
20
20
0.3559262
0.3558951
0.355867
0.355843
0.3558249
0.631884
0.6318564
0.6318272
0.6317938
20
20
20
20
20
20
20
20
20
20
20
20
20
20
20
20
20
20
20
20
20
20
20
20
20
20
20
20
20
20
20
20
20
20
20
20
20
20
20
20
20
20
20
20
20
0.07939143
0.07926155
0.07909554
0.07884768
0.07841973
0.07708462
20
20
20
20
20
0.07948594
0.07934507
0.07915752
0.07886585
0.07834532
0.07737784
0.07487916
20
20
20
20
20
0.07957852
0.07944093
0.07926961
0.07902135
0.07861222
0.07788985
0.07665109
0.07390956
20
20
20
20
20
0.07966756
0.07953753
0.07938772
0.0791951
0.07890925
0.07845001
0.07770381
0.0765836
0.07435624
20
20
20
20
20
0.07975297
0.07963157
0.07950055
0.0793503
0.07915797
0.07888257
0.07847724
0.07790617
0.07722726
0.07613942
20
20
20
20
20
0.07983499
0.07972292
0.07960688
0.07948509
0.07934938
0.07918438
0.07896953
0.0787007
0.07841489
0.07830016
0.3544519
20
20
20
20
20
0.07991388
0.07981198
0.07970871
0.07960549
0.07950128
0.07939197
0.07927266
0.07914277
0.07902923
0.07901533
0.3552591
0.3546803
20
20
20
20
20
0.07998976
0.07989902
0.07980761
0.07971769
0.07963048
0.07954647
0.07946597
0.07939261
0.07933891
0.07934635
0.3555279
0.3553623
0.354927
20
20
20
20
20
0.08006261
0.07998386
0.07990407
0.0798249
0.07974772
0.07967379
0.07960488
0.07954451
0.07950224
0.0795009
0.3556456
0.3555706
0.3554555
0.3551662
20
20
20
20
20
0.08013232
0.0800658
0.0799973
0.07992759
0.07985727
0.07978696
0.0797175
0.07965076
0.07959219
0.07956172
0.355698
0.3556536
0.3556038
0.3555339
0.3553713
20
20
20
20
20
20
20
20
20
20
20
20
20
20
20
0.3557157
0.3556928
0.3556681
0.3556412
0.355606
0.631714
20
20
20
20
20
20
20
20
20
20
20
20
20
20
20
0.3557894
0.3557607
0.3557351
0.3557137
0.3556965
0.6318044
0.6317493
20
20
20
20
20
20
20
20
20
20
20
20
20
20
20
0.3558596
0.355829
0.3558018
0.3557793
0.3557632
0.6318481
0.6318158
0.631773
20
20
20
20
20
20
20
20
20
20
20
20
20
20
20
0.3559229
0.3558921
0.3558641
0.3558402
0.3558221
0.6318822
0.6318542
0.6318242
0.6317879
20
20
20
20
20
20
20
20
20
20
20
20
20
20
20
0.3559795
0.3559491
0.355921
0.3558962
0.3558761
0.6319125
0.6318858
0.6318584
0.6318294
0.6317962
20
20
20
20
20
20
20
20
20
20
20
20
20
20
20
20
20
20
20
20
20
20
20
20
20
20
20
20
20
20
20
20
20
20
20
20
20
20
20
20
20
20
20
20
20
20
20
20
20
20
0.0794967
0.07938256
0.07924922
0.0790782
0.07882809
0.0784202
0.07714217
20
20
20
20
20
0.07958575
0.07946391
0.07931981
0.07912753
0.07883674
0.07835161
0.07751992
0.0752824
20
20
20
20
20
0.07967202
0.07955051
0.07941319
0.0792429
0.07900166
0.07862892
0.0780323
0.07711326
0.07498254
20
20
20
20
20
0.07975505
0.07963726
0.0795107
0.07936708
0.07918649
0.0789329
0.07856501
0.07804723
0.0774167
0.07629962
20
20
20
20
20
0.07983499
0.07972292
0.07960688
0.07948509
0.07934938
0.07918438
0.07896953
0.0787007
0.07841489
0.07830016
0.3544519
20
20
20
20
20
0.07991207
0.07980733
0.07970127
0.07959538
0.07948833
0.07937527
0.07925024
0.07911216
0.07899029
0.07897793
0.3552333
0.3546285
20
20
20
20
20
0.07998645
0.07989054
0.07979437
0.07970058
0.07961056
0.07952459
0.07944241
0.07936726
0.07931249
0.07932579
0.3555136
0.3553247
0.3548398
20
20
20
20
20
0.08005816
0.07997243
0.07988649
0.0798028
0.07972337
0.07964991
0.07958453
0.07953095
0.07949888
0.07951022
0.3556508
0.355562
0.3554191
0.3550637
20
20
20
20
20
0.08012712
0.08005257
0.07997721
0.07990273
0.07983064
0.07976251
0.07970036
0.0796478
0.07961236
0.07961153
0.3557236
0.3556697
0.355604
0.3555059
0.3552765
20
20
20
20
20
0.08019317
0.08013015
0.08006531
0.07999944
0.07993315
0.07986708
0.07980209
0.07973992
0.07968548
0.07965611
0.355763
0.3557238
0.3556849
0.3556419
0.3555831
0.6316687
20
20
20
20
20
20
20
20
20
20
20
20
20
20
20
0.3557802
0.3557574
0.3557334
0.35571
0.3556868
0.6317924
0.6317167
20
20
20
20
20
20
20
20
20
20
20
20
20
20
20
0.35585
0.3558214
0.3557955
0.3557732
0.3557559
0.6318424
0.6318066
0.6317519
20
20
20
20
20
20
20
20
20
20
20
20
20
20
20
0.3559164
0.3558862
0.3558588
0.3558352
0.3558169
0.6318788
0.6318501
0.6318181
0.6317755
20
20
20
20
20
20
20
20
20
20
20
20
20
20
20
0.3559763
0.3559461
0.3559182
0.3558935
0.3558735
0.6319109
0.631884
0.6318562
0.6318264
0.6317904
20
20
20
20
20
20
20
20
20
20
20
20
20
20
20
0.35603
0.3560004
0.3559725
0.3559473
0.3559258
0.6319405
0.6319141
0.6318875
0.6318603
0.6318316
0.723849
20
20
20
20
20
20
20
20
20
20
20
20
20
20
20
20
20
20
20
20
20
20
20
20
20
20
20
20
20
20
20
20
20
20
20
20
20
20
20
20
20
20
20
20
20
20
20
20
20
20
20
20
20
20
20
0.07959461
0.07949108
0.07937673
0.07924324
0.0790742
0.07883714
0.07847478
0.07728438
20
20
20
20
20
0.07967831
0.07956868
0.07944786
0.07930568
0.07911926
0.07885213
0.07844445
0.07781179
0.07599395
20
20
20
20
20
0.07975908
0.07964827
0.07953011
0.0793985
0.07923867
0.07902335
0.07872128
0.07830066
0.07776889
0.0766318
20
20
20
20
20
0.07983692
0.07972799
0.0796153
0.07949745
0.07936734
0.0792117
0.07901247
0.07876627
0.07850397
0.07838817
0.3545113
20
20
20
20
20
0.07991207
0.07980733
0.07970127
0.07959538
0.07948833
0.07937527
0.07925024
0.07911216
0.07899029
0.07897793
0.3552333
0.3546285
20
20
20
20
20
0.07998473
0.07988619
0.07978755
0.07969171
0.07960011
0.07951287
0.07942934
0.07935247
0.07929618
0.0793121
0.3555045
0.3553036
0.3547956
20
20
20
20
20
0.08005502
0.07996443
0.07987411
0.07978712
0.0797059
0.07963236
0.07956859
0.07951804
0.07949025
0.07950796
0.3556497
0.355551
0.3553884
0.3549914
20
20
20
20
20
0.08012289
0.08004175
0.07996062
0.07988205
0.07980828
0.07974153
0.07968437
0.07964074
0.07961761
0.07962929
0.3557348
0.3556746
0.3555967
0.3554755
0.3551948
20
20
20
20
20
0.08018823
0.08011759
0.08004628
0.07997597
0.07990819
0.07984455
0.07978713
0.07973925
0.07970749
0.07970548
0.3557888
0.3557437
0.3556956
0.3556387
0.3555569
0.6316211
20
20
20
20
20
0.08025085
0.08019112
0.08012971
0.08006738
0.08000476
0.07994247
0.07988136
0.07982305
0.07977192
0.07974349
0.3558225
0.3557863
0.3557514
0.3557172
0.3556806
0.6317786
0.631672
20
20
20
20
20
20
20
20
20
20
20
20
20
20
20
0.3558408
0.3558179
0.355794
0.3557708
0.3557502
0.6318361
0.6317946
0.6317195
20
20
20
20
20
20
20
20
20
20
20
20
20
20
20
0.3559071
0.3558788
0.3558527
0.3558295
0.3558107
0.6318745
0.6318443
0.6318088
0.6317544
20
20
20
20
20
20
20
20
20
20
20
20
20
20
20
0.35597
0.3559405
0.3559131
0.3558887
0.3558686
0.631908
0.6318806
0.631852
0.6318203
0.631778
20
20
20
20
20
20
20
20
20
20
20
20
20
20
20
0.3560269
0.3559975
0.3559698
0.3559447
0.3559232
0.631939
0.6319125
0.6318857
0.6318582
0.6318286
0.7238447
20
20
20
20
20
20
20
20
20
20
20
20
20
20
20
0.3560778
0.3560491
0.3560217
0.3559963
0.3559739
0.6319678
0.6319419
0.6319157
0.6318893
0.6318623
0.7238754
0.7238506
20
20
20
20
20
20
20
20
20
20
20
20
20
20
20
20
20
20
20
20
20
20
20
20
20
20
20
20
20
20
20
20
20
20
20
20
20
20
20
20
20
20
20
20
20
20
20
20
20
20
20
20
20
20
20
20
20
20
20
20
0.07968609
0.07959053
0.07948815
0.0793758
0.07924595
0.07908657
0.07887678
0.07858243
0.07754831
20
20
20
20
20
0.07976479
0.07966384
0.07955703
0.07944082
0.07930646
0.07913747
0.07891508
0.07861737
0.07823294
0.07717302
20
20
20
20
20
0.07984065
0.07973783
0.07963155
0.07952092
0.07940076
0.07926132
0.07908907
0.0788821
0.07866263
0.07854962
0.3546305
20
20
20
20
20
0.07991388
0.07981198
0.07970871
0.07960549
0.07950128
0.07939197
0.07927266
0.07914277
0.07902923
0.07901533
0.3552591
0.3546803
20
20
20
20
20
0.07998473
0.07988619
0.07978755
0.07969171
0.07960011
0.07951287
0.07942934
0.07935247
0.07929618
0.0793121
0.3555045
0.3553036
0.3547956
20
20
20
20
20
0.08005339
0.07996032
0.07986774
0.07977902
0.0796968
0.07962307
0.07955982
0.0795103
0.07948398
0.07950458
0.3556479
0.3555439
0.3553711
0.3549545
20
20
20
20
20
0.0801199
0.08003416
0.07994894
0.07986741
0.07979232
0.07972626
0.07967197
0.07963328
0.0796164
0.07963455
0.3557389
0.3556744
0.3555879
0.3554504
0.3551365
20
20
20
20
20
0.0801842
0.08010732
0.08003056
0.07995645
0.07988726
0.0798253
0.07977327
0.07973481
0.07971575
0.07972553
0.3558017
0.3557534
0.3556993
0.3556317
0.3555313
0.6315802
20
20
20
20
20
0.08024615
0.08017919
0.08011164
0.08004514
0.07998117
0.07992131
0.07986756
0.07982303
0.07979336
0.07979007
0.3558469
0.3558063
0.3557653
0.3557227
0.3556741
0.6317641
0.6316252
20
20
20
20
20
0.08030555
0.08024892
0.08019072
0.08013171
0.08007248
0.08001365
0.07995603
0.07990111
0.07985289
0.07982531
0.3558783
0.3558438
0.355811
0.3557797
0.3557498
0.6318309
0.6317807
0.6316754
20
20
20
20
20
20
20
20
20
20
20
20
20
20
20
0.3558979
0.3558751
0.3558509
0.3558275
0.3558064
0.6318705
0.631838
0.6317967
0.6317223
20
20
20
20
20
20
20
20
20
20
20
20
20
20
20
0.355961
0.3559333
0.3559071
0.3558833
0.355863
0.6319043
0.6318763
0.6318463
0.631811
0.631757
20
20
20
20
20
20
20
20
20
20
20
20
20
20
20
0.3560208
0.355992
0.3559649
0.35594
0.3559187
0.6319363
0.6319095
0.6318823
0.631854
0.6318225
0.7238354
20
20
20
20
20
20
20
20
20
20
20
20
20
20
20
0.3560748
0.3560463
0.3560191
0.3559938
0.3559715
0.6319663
0.6319404
0.6319141
0.6318875
0.6318601
0.7238731
0.7238463
20
20
20
20
20
20
20
20
20
20
20
20
20
20
20
0.3561232
0.3560955
0.3560687
0.3560434
0.3560205
0.6319943
0.631969
0.6319433
0.6319173
0.631891
0.7238982
0.7238768
0.7238518
20
20
20
20
20
20
20
20
20
20
20
20
20
20
20
20
20
20
20
20
20
20
20
20
20
20
20
20
20
20
20
20
20
20
20
20
20
20
20
20
20
20
20
20
20
20
20
20
20
20
20
20
20
20
20
20
20
20
20
20
20
20
20
20
20
0.07977185
0.07968275
0.07958891
0.07948935
0.07938124
0.07925906
0.07911664
0.07894611
0.07874052
0.07803692
20
20
20
20
20
0.07984594
0.07975183
0.07965436
0.07955318
0.07944527
0.07932498
0.0791843
0.07902315
0.07885613
0.07875464
0.3548093
20
20
20
20
20
0.07991738
0.07982105
0.07972314
0.07962489
0.07952571
0.07942273
0.07931278
0.07919627
0.0790961
0.07907928
0.3553051
0.3547831
20
20
20
20
20
0.07998645
0.07989054
0.07979437
0.07970058
0.07961056
0.07952459
0.07944241
0.07936726
0.07931249
0.07932579
0.3555136
0.3553247
0.3548398
20
20
20
20
20
0.08005339
0.07996032
0.07986774
0.07977902
0.0796968
0.07962307
0.07955982
0.0795103
0.07948398
0.07950458
0.3556479
0.3555439
0.3553711
0.3549545
20
20
20
20
20
0.08011835
0.08003027
0.07994294
0.07985986
0.07978403
0.07971823
0.07966522
0.07962866
0.07961442
0.07963553
0.3557401
0.3556733
0.3555823
0.3554364
0.3551065
20
20
20
20
20
0.08018135
0.08010011
0.0800195
0.07994264
0.07987235
0.07981136
0.07976263
0.07972967
0.07971746
0.07973345
0.3558078
0.3557574
0.3556993
0.3556244
0.3555111
0.6315508
20
20
20
20
20
0.08024232
0.08016942
0.08009671
0.08002663
0.07996139
0.07990327
0.07985486
0.07981957
0.0798022
0.07980994
0.3558597
0.3558174
0.3557729
0.3557246
0.3556669
0.6317507
0.6315848
20
20
20
20
20
0.08030108
0.08023758
0.08017356
0.08011058
0.08005009
0.0799936
0.07994298
0.07990107
0.07987295
0.07986843
0.3559007
0.3558626
0.3558252
0.355788
0.3557504
0.6318262
0.6317662
0.6316292
20
20
20
20
20
0.08035741
0.08030373
0.08024857
0.08019267
0.08013661
0.08008099
0.08002656
0.07997474
0.07992916
0.07990251
0.3559311
0.355898
0.3558662
0.3558362
0.355808
0.6318683
0.6318326
0.6317828
0.6316787
20
20
20
20
20
20
20
20
20
20
20
20
20
20
20
0.355952
0.3559292
0.355905
0.3558811
0.3558593
0.6319012
0.6318722
0.6318399
0.6317989
0.6317251
20
20
20
20
20
20
20
20
20
20
20
20
20
20
20
0.356012
0.355985
0.355959
0.3559348
0.3559133
0.6319329
0.6319059
0.631878
0.6318482
0.6318132
0.7238197
20
20
20
20
20
20
20
20
20
20
20
20
20
20
20
0.3560689
0.356041
0.3560143
0.3559893
0.3559671
0.6319637
0.6319377
0.6319111
0.6318841
0.631856
0.7238685
0.723837
20
20
20
20
20
20
20
20
20
20
20
20
20
20
20
0.3561203
0.3560928
0.3560661
0.356041
0.3560182
0.631993
0.6319676
0.6319418
0.6319157
0.6318892
0.7238966
0.7238745
0.7238475
20
20
20
20
20
20
20
20
20
20
20
20
20
20
20
0.3561663
0.3561396
0.3561135
0.3560886
0.3560656
0.6320202
0.6319955
0.6319703
0.6319447
0.6319188
0.7239196
0.7238995
0.7238779
0.7238527
20
20
20
20
20
20
20
20
20
20
20
20
20
20
20
20
20
20
20
20
20
20
20
20
20
20
20
20
20
20
20
20
20
20
20
20
20
20
20
20
20
20
20
20
20
20
20
20
20
20
20
20
20
20
20
20
20
20
20
20
20
20
20
20
20
20
20
20
20
20
0.07985249
0.07976891
0.0796817
0.07959095
0.07949571
0.07939414
0.07928357
0.07916468
0.07904459
0.07895473
0.3550395
20
20
20
20
20
0.07992235
0.07983397
0.07974353
0.07965193
0.07955896
0.07946309
0.07936292
0.07925978
0.07917154
0.07914781
0.3553593
0.3549341
20
20
20
20
20
0.07998976
0.07989902
0.07980761
0.07971769
0.07963048
0.07954647
0.07946597
0.07939261
0.07933891
0.07934635
0.3555279
0.3553623
0.354927
20
20
20
20
20
0.08005502
0.07996443
0.07987411
0.07978712
0.0797059
0.07963236
0.07956859
0.07951804
0.07949025
0.07950796
0.3556497
0.355551
0.3553884
0.3549914
20
20
20
20
20
0.08011835
0.08003027
0.07994294
0.07985986
0.07978403
0.07971823
0.07966522
0.07962866
0.07961442
0.07963553
0.3557401
0.3556733
0.3555823
0.3554364
0.3551065
20
20
20
20
20
0.08017988
0.08009642
0.08001381
0.07993552
0.07986463
0.07980406
0.07975686
0.07972641
0.07971723
0.07973609
0.3558101
0.3557587
0.3556985
0.3556199
0.3555
0.6315357
20
20
20
20
20
0.0802396
0.08016257
0.08008621
0.08001354
0.07994732
0.07989023
0.07984516
0.07981539
0.07980483
0.07981847
0.3558662
0.3558229
0.3557763
0.3557243
0.3556606
0.6317404
0.6315559
20
20
20
20
20
0.08029742
0.08022829
0.08015937
0.080093
0.08003133
0.07997651
0.07993101
0.07989792
0.07988144
0.07988717
0.3559129
0.3558736
0.3558339
0.3557931
0.3557503
0.6318219
0.631753
0.6315894
20
20
20
20
20
0.08035315
0.08029296
0.08023226
0.0801726
0.08011534
0.08006192
0.08001411
0.0799745
0.07994765
0.07994223
0.3559515
0.3559152
0.3558796
0.355845
0.3558112
0.6318673
0.6318278
0.6317684
0.6316332
20
20
20
20
20
0.08040657
0.0803557
0.08030344
0.08025047
0.0801974
0.08014477
0.08009333
0.08004437
0.08000126
0.07997561
0.3559814
0.3559494
0.3559185
0.355889
0.3558614
0.6319002
0.6318698
0.6318343
0.6317849
0.631682
20
20
20
20
20
20
20
20
20
20
20
20
20
20
20
0.3560031
0.3559807
0.3559566
0.3559324
0.3559098
0.6319302
0.6319027
0.6318738
0.6318418
0.6318011
0.723796
20
20
20
20
20
20
20
20
20
20
20
20
20
20
20
0.3560604
0.3560341
0.3560085
0.3559841
0.3559619
0.6319606
0.6319343
0.6319074
0.6318797
0.6318502
0.7238616
0.7238214
20
20
20
20
20
20
20
20
20
20
20
20
20
20
20
0.3561146
0.3560876
0.3560614
0.3560367
0.3560139
0.6319905
0.631965
0.6319391
0.6319127
0.6318859
0.7238935
0.72387
0.7238382
20
20
20
20
20
20
20
20
20
20
20
20
20
20
20
0.3561635
0.356137
0.3561111
0.3560863
0.3560633
0.6320189
0.6319942
0.6319689
0.6319432
0.6319172
0.7239183
0.7238979
0.7238756
0.7238484
20
20
20
20
20
20
20
20
20
20
20
20
20
20
20
0.3562073
0.3561816
0.3561564
0.356132
0.356109
0.6320452
0.6320213
0.6319967
0.6319716
0.6319462
0.7239403
0.7239207
0.7239004
0.7238786
0.7238532
20
20
20
20
20
20
20
20
20
20
20
20
20
20
20
20
20
20
20
20
20
20
20
20
20
20
20
20
20
20
20
20
20
20
20
20
20
20
20
20
20
20
20
20
20
20
20
20
20
20
20
20
20
20
20
20
20
20
20
20
20
20
20
20
20
20
20
20
20
0.35526
20
20
20
20
20
0.07992849
0.07984978
0.07976813
0.07968403
0.07959748
0.07950801
0.07941531
0.07932043
0.07923289
0.07918417
0.3554011
0.3551199
20
20
20
20
20
0.07999445
0.07991113
0.0798264
0.07974174
0.07965802
0.07957578
0.07949569
0.07942132
0.07936397
0.07935925
0.3555392
0.3554064
0.3550524
20
20
20
20
20
0.08005816
0.07997243
0.07988649
0.0798028
0.07972337
0.07964991
0.07958453
0.07953095
0.07949888
0.07951022
0.3556508
0.355562
0.3554191
0.3550637
20
20
20
20
20
0.0801199
0.08003416
0.07994894
0.07986741
0.07979232
0.07972626
0.07967197
0.07963328
0.0796164
0.07963455
0.3557389
0.3556744
0.3555879
0.3554504
0.3551365
20
20
20
20
20
0.08017988
0.08009642
0.08001381
0.07993552
0.07986463
0.07980406
0.07975686
0.07972641
0.07971723
0.07973609
0.3558101
0.3557587
0.3556985
0.3556199
0.3555
0.6315357
20
20
20
20
20
0.08023819
0.08015905
0.0800808
0.08000679
0.07994003
0.07988341
0.07983992
0.07981272
0.07980524
0.07982163
0.3558689
0.3558251
0.3557775
0.3557237
0.355657
0.6317348
0.6315409
20
20
20
20
20
0.08029483
0.08022177
0.08014938
0.08008057
0.08001797
0.07996418
0.0799219
0.07989413
0.07988419
0.07989547
0.3559192
0.3558794
0.3558386
0.3557957
0.3557495
0.6318185
0.6317428
0.6315609
20
20
20
20
20
0.08034966
0.08028411
0.08021877
0.08015588
0.0800975
0.08004567
0.0800027