/*--------------------------------*- C++ -*----------------------------------*\
| =========                 |                                                 |
| \\      /  F ield         | OpenFOAM: The Open Source CFD Toolbox           |
|  \\    /   O peration     | Version:  2306                                  |
|   \\  /    A nd           | Website:  www.openfoam.com                      |
|    \\/     M anipulation  |                                                 |
\*---------------------------------------------------------------------------*/
FoamFile
{
    version     2.0;
    format      ascii;
    arch        "LSB;label=32;scalar=64";
    class       volScalarField;
    location    "0.6";
    object      rhoCp;
}
// * * * * * * * * * * * * * * * * * * * * * * * * * * * * * * * * * * * * * //

dimensions      [1 -1 -2 -1 0 0 0];

internalField   nonuniform List<scalar> 
52000
(
5346000
5346000
5346000
5346000
5346000
5346000
5346000
5346000
5346000
5346000
5346000
5346000
5346000
5346000
5346000
5346000
5346000
5346000
5346000
5346000
5346000
5346000
5346000
5346000
5346000
5346000
5346000
5346000
5346000
5346000
5346000
5346000
5346000
5346000
5346000
5346000
5346000
5346000
5346000
5346000
5346000
5346000
5346000
5346000
5346000
5346000
5346000
5346000
5346000
5346000
5346000
5346000
5346000
5346000
5346000
5346000
5346000
5346000
5346000
5346000
5346000
5346000
5346000
5346000
5346000
5346000
5346000
5346000
5346000
5346000
5346000
5346000
5346000
5346000
5346000
5346000
5346000
5346000
5346000
5346000
5346000
5346000
5346000
5346000
5346000
5346000
5346000
5346000
5346000
5346000
5346000
5346000
5346000
5346000
5346000
5346000
5346000
5346000
5346000
5346000
5346000
5346000
5346000
5346000
5346000
5346000
5346000
5346000
5346000
5346000
5346000
5346000
5346000
5346000
5346000
5346000
5346000
5346000
5346000
5346000
5346000
5346000
5346000
5346000
5346000
5346000
5346000
5346000
5346000
5346000
5346000
5346000
5346000
5346000
5346000
5346000
5346000
5346000
5346000
5346000
5346000
5346000
5346000
5346000
5346000
5346000
5346000
5346000
5346000
5346000
5346000
5346000
5346000
5346000
5346000
5346000
5346000
5346000
5346000
5346000
5346000
5346000
5346000
5346000
5346000
5346000
5346000
5346000
5346000
5346000
5346000
5346000
5346000
5346000
5346000
5346000
5346000
5346000
5346000
5346000
5346000
5346000
5346000
5346000
5346000
5346000
5346000
5346000
5346000
5346000
5346000
5346000
5346000
5346000
5346000
5346000
5346000
5346000
5346000
5346000
5346000
5346000
5346000
5346000
5346000
5346000
5346000
5346000
5346000
5346000
5346000
5346000
5346000
5346000
5346000
5346000
5346000
5346000
5346000
5346000
5346000
5346000
5346000
5346000
5346000
5346000
5346000
5346000
5346000
5346000
5346000
5346000
5346000
5346000
5346000
5346000
5346000
5346000
5346000
5346000
379.2873
5346000
5346000
5346000
5346000
5346000
5346000
5346000
5346000
5346000
5346000
5346000
5346000
5346000
5346000
5346000
5346000
5346000
5346000
5346000
5346000
5346000
5346000
5346000
5346000
5346000
5346000
5346000
5346000
5346000
5346000
5346000
5346000
5346000
5346000
5346000
5346000
5346000
5346000
5346000
5346000
5346000
5346000
5346000
5346000
5346000
5346000
5346000
5346000
5346000
5346000
5346000
5346000
5346000
5346000
5346000
5346000
5346000
5346000
5346000
5346000
5346000
5346000
5346000
5346000
5346000
382.2303
5346000
5346000
5346000
5346000
5346000
375.8601
382.2773
5346000
5346000
5346000
5346000
5346000
5346000
5346000
5346000
5346000
5346000
5346000
5346000
5346000
5346000
5346000
5346000
5346000
5346000
5346000
5346000
5346000
5346000
5346000
5346000
5346000
5346000
5346000
5346000
5346000
5346000
5346000
5346000
5346000
5346000
5346000
5346000
5346000
5346000
5346000
5346000
5346000
5346000
5346000
5346000
5346000
5346000
5346000
5346000
5346000
5346000
5346000
5346000
5346000
5346000
5346000
5346000
5346000
5346000
5346000
5346000
5346000
5346000
5346000
5346000
5346000
5346000
5346000
5346000
5346000
5346000
383.8404
5346000
5346000
5346000
5346000
5346000
376.6617
389.5645
5346000
5346000
5346000
5346000
5346000
375.0096
376.6695
383.9282
5346000
5346000
5346000
5346000
5346000
5346000
5346000
5346000
5346000
5346000
5346000
5346000
5346000
5346000
5346000
5346000
5346000
5346000
5346000
5346000
5346000
5346000
5346000
5346000
5346000
5346000
5346000
5346000
5346000
5346000
5346000
5346000
5346000
5346000
5346000
5346000
5346000
5346000
5346000
5346000
5346000
5346000
5346000
5346000
5346000
5346000
5346000
5346000
5346000
5346000
5346000
5346000
5346000
5346000
5346000
5346000
5346000
5346000
5346000
5346000
5346000
5346000
5346000
5346000
5346000
5346000
5346000
5346000
5346000
5346000
5346000
5346000
5346000
5346000
5346000
384.7445
5346000
5346000
5346000
5346000
5346000
377.3539
394.1657
5346000
5346000
5346000
5346000
5346000
375.3747
379.0517
394.2355
5346000
5346000
5346000
5346000
5346000
374.2851
375.3594
377.369
384.8809
5346000
5346000
5346000
5346000
5346000
5346000
5346000
5346000
5346000
5346000
5346000
5346000
5346000
5346000
5346000
5346000
5346000
5346000
5346000
5346000
5346000
5346000
5346000
5346000
5346000
5346000
5346000
5346000
5346000
5346000
5346000
5346000
5346000
5346000
5346000
5346000
5346000
5346000
5346000
5346000
5346000
5346000
5346000
5346000
5346000
5346000
5346000
5346000
5346000
5346000
5346000
5346000
5346000
5346000
5346000
5346000
5346000
5346000
5346000
5346000
5346000
5346000
5346000
5346000
5346000
5346000
5346000
5346000
5346000
5346000
5346000
5346000
5346000
5346000
5346000
5346000
5346000
5346000
5346000
5346000
385.1621
5346000
5346000
5346000
5346000
5346000
377.8623
396.9394
5346000
5346000
5346000
5346000
5346000
375.7036
381.1539
401.3394
5346000
5346000
5346000
5346000
5346000
374.4749
376.4362
381.1814
397.1284
5346000
5346000
5346000
5346000
5346000
373.6434
374.4508
375.6718
377.8883
385.3611
5346000
5346000
5346000
5346000
5346000
5346000
5346000
5346000
5346000
5346000
5346000
5346000
5346000
5346000
5346000
5346000
5346000
5346000
5346000
5346000
5346000
5346000
5346000
5346000
5346000
5346000
5346000
5346000
5346000
5346000
5346000
5346000
5346000
5346000
5346000
5346000
5346000
5346000
5346000
5346000
5346000
5346000
5346000
5346000
5346000
5346000
5346000
5346000
5346000
5346000
5346000
5346000
5346000
5346000
5346000
5346000
5346000
5346000
5346000
5346000
5346000
5346000
5346000
5346000
5346000
5346000
5346000
5346000
5346000
5346000
5346000
5346000
5346000
5346000
5346000
5346000
5346000
5346000
5346000
5346000
5346000
5346000
5346000
5346000
5346000
385.1621
5346000
5346000
5346000
5346000
5346000
378.1312
398.2566
5346000
5346000
5346000
5346000
5346000
375.9556
382.7208
405.8342
5346000
5346000
5346000
5346000
5346000
374.6434
377.4242
384.6302
406.0033
5346000
5346000
5346000
5346000
5346000
373.7549
374.9943
377.4121
382.8025
398.637
5346000
5346000
5346000
5346000
5346000
373.0536
373.7286
374.594
375.9048
378.1709
385.444
5346000
5346000
5346000
5346000
5346000
5346000
5346000
5346000
5346000
5346000
5346000
5346000
5346000
5346000
5346000
5346000
5346000
5346000
5346000
5346000
5346000
5346000
5346000
5346000
5346000
5346000
5346000
5346000
5346000
5346000
5346000
5346000
5346000
5346000
5346000
5346000
5346000
5346000
5346000
5346000
5346000
5346000
5346000
5346000
5346000
5346000
5346000
5346000
5346000
5346000
5346000
5346000
5346000
5346000
5346000
5346000
5346000
5346000
5346000
5346000
5346000
5346000
5346000
5346000
5346000
5346000
5346000
5346000
5346000
374.967
5346000
5346000
5346000
5346000
5346000
5346000
5346000
5346000
5346000
5346000
5346000
5346000
5346000
5346000
5346000
5346000
5346000
5346000
5346000
5346000
384.7445
5346000
5346000
5346000
5346000
5346000
378.1312
398.2566
5346000
5346000
5346000
5346000
5346000
376.0927
383.5564
408.021
5346000
5346000
5346000
5346000
5346000
374.772
378.1903
387.2471
411.8015
5346000
5346000
5346000
5346000
5346000
373.851
375.4879
379.0399
387.331
408.4981
5346000
5346000
5346000
5346000
5346000
373.1271
374.0356
375.4607
378.171
383.7204
398.91
5346000
5346000
5346000
5346000
5346000
372.5118
373.1014
373.797
374.6919
376.0181
378.1814
385.1323
5346000
5346000
5346000
5346000
5346000
5346000
5346000
5346000
5346000
5346000
5346000
5346000
5346000
5346000
5346000
5346000
5346000
5346000
5346000
5346000
5346000
5346000
5346000
5346000
5346000
5346000
5346000
5346000
5346000
5346000
5346000
5346000
5346000
5346000
5346000
5346000
5346000
5346000
5346000
5346000
5346000
5346000
5346000
5346000
5346000
5346000
5346000
5346000
5346000
5346000
5346000
5346000
5346000
5346000
5346000
5346000
5346000
375.0148
5346000
5346000
5346000
5346000
5346000
5346000
5346000
5346000
5346000
5346000
5346000
5346000
5346000
5346000
5346000
374.314
374.5527
5346000
5346000
5346000
5346000
5346000
5346000
5346000
5346000
5346000
5346000
5346000
5346000
5346000
5346000
5346000
5346000
5346000
5346000
5346000
5346000
383.8404
5346000
5346000
5346000
5346000
5346000
377.8623
396.9394
5346000
5346000
5346000
5346000
5346000
376.0927
383.5564
408.021
5346000
5346000
5346000
5346000
5346000
374.8419
378.6099
388.6584
414.6856
5346000
5346000
5346000
5346000
5346000
373.923
375.8695
380.32
390.8195
415.0698
5346000
5346000
5346000
5346000
5346000
373.1887
374.3078
376.2634
380.3217
388.8903
408.9637
5346000
5346000
5346000
5346000
5346000
372.5667
373.2956
374.2757
375.8088
378.5837
383.8162
397.9501
5346000
5346000
5346000
5346000
5346000
372.008
372.5425
373.1356
373.8351
374.7232
375.9839
377.907
384.3611
5346000
5346000
5346000
5346000
5346000
5346000
5346000
5346000
5346000
5346000
5346000
5346000
5346000
5346000
5346000
5346000
5346000
5346000
5346000
5346000
5346000
5346000
5346000
5346000
5346000
5346000
5346000
5346000
5346000
5346000
5346000
5346000
5346000
5346000
5346000
5346000
5346000
5346000
5346000
5346000
5346000
5346000
5346000
5346000
375.1138
5346000
5346000
5346000
5346000
5346000
5346000
5346000
5346000
5346000
5346000
5346000
5346000
5346000
5346000
5346000
374.3449
374.6076
5346000
5346000
5346000
5346000
5346000
5346000
5346000
5346000
5346000
5346000
5346000
5346000
5346000
5346000
5346000
373.6993
373.932
374.1326
5346000
5346000
5346000
5346000
5346000
5346000
5346000
5346000
5346000
5346000
5346000
5346000
5346000
5346000
5346000
5346000
5346000
5346000
5346000
5346000
382.2303
5346000
5346000
5346000
5346000
5346000
377.3539
394.1657
5346000
5346000
5346000
5346000
5346000
375.9556
382.7208
405.8342
5346000
5346000
5346000
5346000
5346000
374.8419
378.6099
388.6584
414.6856
5346000
5346000
5346000
5346000
5346000
373.9617
376.0787
381.0271
392.719
418.3808
5346000
5346000
5346000
5346000
5346000
373.2337
374.5143
376.8932
382.0334
392.9096
415.6948
5346000
5346000
5346000
5346000
5346000
372.6115
373.4633
374.7087
376.859
381.041
389.0801
407.392
5346000
5346000
5346000
5346000
5346000
372.0529
372.6825
373.4309
374.4395
375.9725
378.563
383.0549
395.6214
5346000
5346000
5346000
5346000
5346000
371.5387
372.0306
372.5614
373.147
373.8311
374.6723
375.7925
377.3556
382.9361
5346000
5346000
5346000
5346000
5346000
5346000
5346000
5346000
5346000
5346000
5346000
5346000
5346000
5346000
5346000
5346000
5346000
5346000
5346000
5346000
5346000
5346000
5346000
5346000
5346000
5346000
5346000
5346000
5346000
5346000
375.2824
5346000
5346000
5346000
5346000
5346000
5346000
5346000
5346000
5346000
5346000
5346000
5346000
5346000
5346000
5346000
374.4062
374.7263
5346000
5346000
5346000
5346000
5346000
5346000
5346000
5346000
5346000
5346000
5346000
5346000
5346000
5346000
5346000
373.7252
373.9626
374.1931
5346000
5346000
5346000
5346000
5346000
5346000
5346000
5346000
5346000
5346000
5346000
5346000
5346000
5346000
5346000
373.1157
373.3605
373.5466
373.703
5346000
5346000
5346000
5346000
5346000
5346000
5346000
5346000
5346000
5346000
5346000
5346000
5346000
5346000
5346000
5346000
5346000
5346000
5346000
5346000
379.2873
5346000
5346000
5346000
5346000
5346000
376.6617
389.5645
5346000
5346000
5346000
5346000
5346000
375.7036
381.1539
401.3394
5346000
5346000
5346000
5346000
5346000
374.772
378.1903
387.2471
411.8015
5346000
5346000
5346000
5346000
5346000
373.9617
376.0787
381.0271
392.719
418.3808
5346000
5346000
5346000
5346000
5346000
373.2576
374.6262
377.2415
382.9858
395.1113
419.0966
5346000
5346000
5346000
5346000
5346000
372.6436
373.5877
375.0421
377.693
383.0114
393.1821
413.6468
5346000
5346000
5346000
5346000
5346000
372.089
372.8004
373.6911
374.9948
377.1595
381.0428
387.8421
403.6388
5346000
5346000
5346000
5346000
5346000
371.5779
372.1426
372.7695
373.5111
374.4928
375.9049
378.0842
381.4879
391.5699
5346000
5346000
5346000
5346000
5346000
371.099
371.5573
372.0425
372.5616
373.1285
373.7763
374.5326
375.4496
376.5449
380.32
5346000
5346000
5346000
5346000
5346000
5346000
5346000
5346000
5346000
5346000
5346000
5346000
5346000
5346000
5346000
375.6136
5346000
5346000
5346000
5346000
5346000
5346000
5346000
5346000
5346000
5346000
5346000
5346000
5346000
5346000
5346000
374.4982
374.9439
5346000
5346000
5346000
5346000
5346000
5346000
5346000
5346000
5346000
5346000
5346000
5346000
5346000
5346000
5346000
373.7756
374.023
374.3262
5346000
5346000
5346000
5346000
5346000
5346000
5346000
5346000
5346000
5346000
5346000
5346000
5346000
5346000
5346000
373.1388
373.384
373.5771
373.7673
5346000
5346000
5346000
5346000
5346000
5346000
5346000
5346000
5346000
5346000
5346000
5346000
5346000
5346000
5346000
372.5769
372.8175
373.0192
373.1556
373.271
5346000
5346000
5346000
5346000
5346000
5346000
5346000
5346000
5346000
5346000
5346000
5346000
5346000
5346000
5346000
5346000
5346000
5346000
5346000
5346000
5346000
5346000
5346000
5346000
5346000
375.8601
382.2773
5346000
5346000
5346000
5346000
5346000
375.3747
379.0517
394.2355
5346000
5346000
5346000
5346000
5346000
374.6434
377.4242
384.6302
406.0033
5346000
5346000
5346000
5346000
5346000
373.923
375.8695
380.32
390.8195
415.0698
5346000
5346000
5346000
5346000
5346000
373.2576
374.6262
377.2415
382.9858
395.1113
419.0966
5346000
5346000
5346000
5346000
5346000
372.6604
373.6541
375.2243
378.1578
384.1127
395.4323
416.7874
5346000
5346000
5346000
5346000
5346000
372.1145
372.8857
373.8867
375.4277
378.1102
383.0371
391.5571
408.8292
5346000
5346000
5346000
5346000
5346000
371.6091
372.2352
372.9478
373.8367
375.108
377.0839
380.29
385.2991
397.3663
5346000
5346000
5346000
5346000
5346000
371.1345
371.6539
372.2063
372.8122
373.5167
374.4108
375.5903
377.1852
379.2436
385.0127
5346000
5346000
5346000
5346000
5346000
370.6863
371.1155
371.5661
372.038
372.538
373.0747
373.6658
374.3032
374.9594
375.4503
377.2169
5346000
5346000
5346000
5346000
5346000
5346000
5346000
5346000
5346000
5346000
5346000
5346000
5346000
5346000
5346000
374.6022
375.3873
5346000
5346000
5346000
5346000
5346000
5346000
5346000
5346000
5346000
5346000
5346000
5346000
5346000
5346000
5346000
373.8479
374.1109
374.5721
5346000
5346000
5346000
5346000
5346000
5346000
5346000
5346000
5346000
5346000
5346000
5346000
5346000
5346000
5346000
373.1835
373.4283
373.637
373.9087
5346000
5346000
5346000
5346000
5346000
5346000
5346000
5346000
5346000
5346000
5346000
5346000
5346000
5346000
5346000
372.5983
372.8378
373.0409
373.186
373.3369
5346000
5346000
5346000
5346000
5346000
5346000
5346000
5346000
5346000
5346000
5346000
5346000
5346000
5346000
5346000
372.0688
372.3143
372.5173
372.6735
372.766
373.0152
5346000
5346000
5346000
5346000
5346000
5346000
5346000
5346000
5346000
5346000
5346000
5346000
5346000
5346000
5346000
5346000
5346000
5346000
5346000
5346000
5346000
5346000
5346000
5346000
5346000
5346000
5346000
5346000
5346000
5346000
375.0096
376.6695
383.9282
5346000
5346000
5346000
5346000
5346000
374.4749
376.4362
381.1814
397.1284
5346000
5346000
5346000
5346000
5346000
373.851
375.4879
379.0399
387.331
408.4981
5346000
5346000
5346000
5346000
5346000
373.2337
374.5143
376.8932
382.0334
392.9096
415.6948
5346000
5346000
5346000
5346000
5346000
372.6604
373.6541
375.2243
378.1578
384.1127
395.4323
416.7874
5346000
5346000
5346000
5346000
5346000
372.1277
372.9306
373.9921
375.6663
378.6428
384.1537
393.5892
411.397
5346000
5346000
5346000
5346000
5346000
371.631
372.3011
373.0786
374.0847
375.5923
378.0332
382.0636
388.232
401.0267
5346000
5346000
5346000
5346000
5346000
371.1626
371.7329
372.344
373.0301
373.8682
375.007
376.6109
378.869
381.7383
388.0011
5346000
5346000
5346000
5346000
5346000
370.7191
371.2025
371.7061
372.2322
372.7982
373.4331
374.1826
375.0428
375.9467
376.495
378.9387
5346000
5346000
5346000
5346000
5346000
370.2977
370.7015
371.1228
371.5599
372.0132
372.4868
372.9813
373.4949
373.9732
374.2624
374.5041
376.624
5346000
5346000
5346000
5346000
5346000
5346000
5346000
5346000
5346000
5346000
5346000
5346000
5346000
5346000
5346000
373.9051
374.203
375.0409
5346000
5346000
5346000
5346000
5346000
5346000
5346000
5346000
5346000
5346000
5346000
5346000
5346000
5346000
5346000
373.2465
373.4843
373.724
374.1648
5346000
5346000
5346000
5346000
5346000
5346000
5346000
5346000
5346000
5346000
5346000
5346000
5346000
5346000
5346000
372.6397
372.875
373.0807
373.246
373.4811
5346000
5346000
5346000
5346000
5346000
5346000
5346000
5346000
5346000
5346000
5346000
5346000
5346000
5346000
5346000
372.0889
372.3328
372.5353
372.694
372.7963
373.0808
5346000
5346000
5346000
5346000
5346000
5346000
5346000
5346000
5346000
5346000
5346000
5346000
5346000
5346000
5346000
371.5939
371.8364
372.0498
372.2133
372.3303
372.5369
372.983
5346000
5346000
5346000
5346000
5346000
5346000
5346000
5346000
5346000
5346000
5346000
5346000
5346000
5346000
5346000
5346000
5346000
5346000
5346000
5346000
5346000
5346000
5346000
5346000
5346000
5346000
5346000
5346000
5346000
5346000
5346000
5346000
5346000
5346000
5346000
374.2851
375.3594
377.369
384.8809
5346000
5346000
5346000
5346000
5346000
373.7549
374.9943
377.4121
382.8025
398.637
5346000
5346000
5346000
5346000
5346000
373.1887
374.3078
376.2634
380.3217
388.8903
408.9637
5346000
5346000
5346000
5346000
5346000
372.6436
373.5877
375.0421
377.693
383.0114
393.1821
413.6468
5346000
5346000
5346000
5346000
5346000
372.1277
372.9306
373.9921
375.6663
378.6428
384.1537
393.5892
411.397
5346000
5346000
5346000
5346000
5346000
371.6422
372.3354
373.148
374.2194
375.8608
378.5666
383.0559
389.827
402.8081
5346000
5346000
5346000
5346000
5346000
371.1823
371.7885
372.443
373.1917
374.1388
375.4805
377.4372
380.2255
383.6504
389.8549
5346000
5346000
5346000
5346000
5346000
370.7451
371.2732
371.8222
372.3972
373.0273
373.7625
374.6784
375.7812
376.9641
377.572
380.2934
5346000
5346000
5346000
5346000
5346000
370.3284
370.7818
371.2483
371.7243
372.211
372.7181
373.2518
373.8084
374.2892
374.4418
374.7878
378.0006
5346000
5346000
5346000
5346000
5346000
369.9313
370.312
370.708
371.1162
371.5357
371.9653
372.4046
372.8427
373.2465
373.4657
373.5256
374.2169
376.0206
5346000
5346000
5346000
5346000
5346000
5346000
5346000
5346000
5346000
5346000
5346000
5346000
5346000
5346000
5346000
373.2875
373.5027
373.8197
374.6158
5346000
5346000
5346000
5346000
5346000
5346000
5346000
5346000
5346000
5346000
5346000
5346000
5346000
5346000
5346000
372.6976
372.9186
373.128
373.3344
373.7348
5346000
5346000
5346000
5346000
5346000
5346000
5346000
5346000
5346000
5346000
5346000
5346000
5346000
5346000
5346000
372.1278
372.3664
372.5668
372.7312
372.8568
373.2235
5346000
5346000
5346000
5346000
5346000
5346000
5346000
5346000
5346000
5346000
5346000
5346000
5346000
5346000
5346000
371.613
371.8537
372.0658
372.2296
372.3499
372.567
373.0485
5346000
5346000
5346000
5346000
5346000
5346000
5346000
5346000
5346000
5346000
5346000
5346000
5346000
5346000
5346000
371.1465
371.3871
371.6022
371.7816
371.9118
372.1281
372.508
372.9513
5346000
5346000
5346000
5346000
5346000
5346000
5346000
5346000
5346000
5346000
5346000
5346000
5346000
5346000
5346000
5346000
5346000
5346000
5346000
5346000
5346000
5346000
5346000
5346000
5346000
5346000
5346000
5346000
5346000
5346000
5346000
5346000
5346000
5346000
5346000
5346000
5346000
5346000
5346000
5346000
373.6434
374.4508
375.6718
377.8883
385.3611
5346000
5346000
5346000
5346000
5346000
373.1271
374.0356
375.4607
378.171
383.7204
398.91
5346000
5346000
5346000
5346000
5346000
372.6115
373.4633
374.7087
376.859
381.041
389.0801
407.392
5346000
5346000
5346000
5346000
5346000
372.1145
372.8857
373.8867
375.4277
378.1102
383.0371
391.5571
408.8292
5346000
5346000
5346000
5346000
5346000
371.6422
372.3354
373.148
374.2194
375.8608
378.5666
383.0559
389.827
402.8081
5346000
5346000
5346000
5346000
5346000
371.1924
371.8171
372.4948
373.278
374.2869
375.7443
377.9026
380.9841
384.6857
390.7543
5346000
5346000
5346000
5346000
5346000
370.7632
371.3227
371.9046
372.5171
373.199
374.0194
375.0778
376.3894
377.802
378.4248
381.2037
5346000
5346000
5346000
5346000
5346000
370.3527
370.8469
371.3517
371.862
372.381
372.9251
373.5099
374.1364
374.6784
374.791
375.1772
379.1354
5346000
5346000
5346000
5346000
5346000
369.9601
370.3871
370.8237
371.263
371.7013
372.1359
372.5646
372.9676
373.2888
373.3364
373.4586
374.4474
377.1184
5346000
5346000
5346000
5346000
5346000
369.5851
369.9448
370.318
370.7015
371.093
371.4908
371.8909
372.2853
372.6398
372.8409
372.8475
373.2904
373.8969
375.3996
5346000
5346000
5346000
5346000
5346000
5346000
5346000
5346000
5346000
5346000
5346000
5346000
5346000
5346000
5346000
372.7332
372.9138
373.1406
373.4389
374.1484
5346000
5346000
5346000
5346000
5346000
5346000
5346000
5346000
5346000
5346000
5346000
5346000
5346000
5346000
5346000
372.1824
372.4046
372.5993
372.776
372.9482
373.4708
5346000
5346000
5346000
5346000
5346000
5346000
5346000
5346000
5346000
5346000
5346000
5346000
5346000
5346000
5346000
371.6501
371.8851
372.0936
372.2577
372.3864
372.6275
373.1909
5346000
5346000
5346000
5346000
5346000
5346000
5346000
5346000
5346000
5346000
5346000
5346000
5346000
5346000
5346000
371.1648
371.4035
371.6171
371.7959
371.9271
372.1475
372.538
373.0167
5346000
5346000
5346000
5346000
5346000
5346000
5346000
5346000
5346000
5346000
5346000
5346000
5346000
5346000
5346000
370.7257
370.9612
371.1784
371.3646
371.5161
371.7333
372.1024
372.4796
372.919
5346000
5346000
5346000
5346000
5346000
5346000
5346000
5346000
5346000
5346000
5346000
5346000
5346000
5346000
5346000
5346000
5346000
5346000
5346000
5346000
5346000
5346000
5346000
5346000
5346000
5346000
5346000
5346000
5346000
5346000
5346000
5346000
5346000
5346000
5346000
5346000
5346000
5346000
5346000
5346000
5346000
5346000
5346000
5346000
5346000
373.0536
373.7286
374.594
375.9048
378.1709
385.444
5346000
5346000
5346000
5346000
5346000
372.5667
373.2956
374.2757
375.8088
378.5837
383.8162
397.9501
5346000
5346000
5346000
5346000
5346000
372.089
372.8004
373.6911
374.9948
377.1595
381.0428
387.8421
403.6388
5346000
5346000
5346000
5346000
5346000
371.631
372.3011
373.0786
374.0847
375.5923
378.0332
382.0636
388.232
401.0267
5346000
5346000
5346000
5346000
5346000
371.1924
371.8171
372.4948
373.278
374.2869
375.7443
377.9026
380.9841
384.6857
390.7543
5346000
5346000
5346000
5346000
5346000
370.7725
371.3481
371.9473
372.5802
373.2914
374.1609
375.302
376.7344
378.2741
378.8914
381.6591
5346000
5346000
5346000
5346000
5346000
370.3696
370.8923
371.4246
371.9605
372.5055
373.0828
373.7165
374.4129
375.0246
375.1197
375.5129
379.9139
5346000
5346000
5346000
5346000
5346000
369.983
370.4479
370.9187
371.3849
371.8413
372.285
372.7158
373.1129
373.4135
373.3939
373.5268
374.76
378.0529
5346000
5346000
5346000
5346000
5346000
369.6123
370.0155
370.4261
370.8366
371.2402
371.6313
372.0004
372.3303
372.57
372.6031
372.6649
373.2366
374.0953
376.2699
5346000
5346000
5346000
5346000
5346000
369.2576
369.5979
369.9505
370.3118
370.6796
371.051
371.4224
371.7842
372.11
372.2966
372.3039
372.645
373.0332
373.5519
374.7767
5346000
5346000
5346000
5346000
5346000
5346000
5346000
5346000
5346000
5346000
5346000
5346000
5346000
5346000
5346000
372.2164
372.3943
372.5856
372.7979
373.0635
373.8597
5346000
5346000
5346000
5346000
5346000
5346000
5346000
5346000
5346000
5346000
5346000
5346000
5346000
5346000
5346000
371.7022
371.9207
372.1203
372.2863
372.4332
372.7202
373.4373
5346000
5346000
5346000
5346000
5346000
5346000
5346000
5346000
5346000
5346000
5346000
5346000
5346000
5346000
5346000
371.2002
371.4334
371.6427
371.82
371.9539
372.1839
372.5985
373.1587
5346000
5346000
5346000
5346000
5346000
5346000
5346000
5346000
5346000
5346000
5346000
5346000
5346000
5346000
5346000
370.7433
370.9769
371.1926
371.3777
371.5293
371.7483
372.1217
372.5096
372.9843
5346000
5346000
5346000
5346000
5346000
5346000
5346000
5346000
5346000
5346000
5346000
5346000
5346000
5346000
5346000
370.3285
370.5586
370.7741
370.9665
371.1293
371.3576
371.7103
372.0771
372.4507
372.8879
5346000
5346000
5346000
5346000
5346000
5346000
5346000
5346000
5346000
5346000
5346000
5346000
5346000
5346000
5346000
5346000
5346000
5346000
5346000
5346000
5346000
5346000
5346000
5346000
5346000
5346000
5346000
5346000
5346000
5346000
5346000
5346000
5346000
5346000
5346000
5346000
5346000
5346000
5346000
5346000
5346000
5346000
5346000
5346000
5346000
5346000
5346000
5346000
5346000
5346000
372.5118
373.1014
373.797
374.6919
376.0181
378.1814
385.1323
5346000
5346000
5346000
5346000
5346000
372.0529
372.6825
373.4309
374.4395
375.9725
378.563
383.0549
395.6214
5346000
5346000
5346000
5346000
5346000
371.6091
372.2352
372.9478
373.8367
375.108
377.0839
380.29
385.2991
397.3663
5346000
5346000
5346000
5346000
5346000
371.1823
371.7885
372.443
373.1917
374.1388
375.4805
377.4372
380.2255
383.6504
389.8549
5346000
5346000
5346000
5346000
5346000
370.7725
371.3481
371.9473
372.5802
373.2914
374.1609
375.302
376.7344
378.2741
378.8914
381.6591
5346000
5346000
5346000
5346000
5346000
370.3783
370.9156
371.4622
372.0117
372.5715
373.1683
373.8319
374.5714
375.2267
375.3128
375.7025
380.307
5346000
5346000
5346000
5346000
5346000
369.999
370.4902
370.9854
371.4715
371.9422
372.3961
372.8354
373.2414
373.5465
373.4942
373.6234
375.0311
378.706
5346000
5346000
5346000
5346000
5346000
369.6339
370.0727
370.5148
370.9484
371.3635
371.752
372.1026
372.3966
372.5816
372.5454
372.6116
373.2838
374.3484
377.0254
5346000
5346000
5346000
5346000
5346000
369.2833
369.6647
370.0523
370.4381
370.8149
371.1751
371.5086
371.7966
372.0008
372.0288
372.0894
372.4976
373.002
373.7299
375.456
5346000
5346000
5346000
5346000
5346000
368.9475
369.2697
369.6032
369.9445
370.291
370.64
370.9873
371.3249
371.6275
371.8081
371.8205
372.125
372.4265
372.7598
373.201
374.4177
5346000
5346000
5346000
5346000
5346000
5346000
5346000
5346000
5346000
5346000
5346000
5346000
5346000
5346000
5346000
371.7364
371.911
372.0997
372.2807
372.4714
372.8408
373.8232
5346000
5346000
5346000
5346000
5346000
5346000
5346000
5346000
5346000
5346000
5346000
5346000
5346000
5346000
5346000
371.2504
371.4678
371.6671
371.8423
371.9838
372.2328
372.6912
373.4042
5346000
5346000
5346000
5346000
5346000
5346000
5346000
5346000
5346000
5346000
5346000
5346000
5346000
5346000
5346000
370.7774
371.0057
371.217
371.3997
371.5518
371.775
372.158
372.5699
373.1259
5346000
5346000
5346000
5346000
5346000
5346000
5346000
5346000
5346000
5346000
5346000
5346000
5346000
5346000
5346000
370.3453
370.5737
370.7877
370.9789
371.1414
371.3705
371.7252
372.0964
372.4806
372.953
5346000
5346000
5346000
5346000
5346000
5346000
5346000
5346000
5346000
5346000
5346000
5346000
5346000
5346000
5346000
369.9531
370.1766
370.3896
370.5838
370.7568
370.9878
371.337
371.6879
372.0514
372.4229
372.853
5346000
5346000
5346000
5346000
5346000
5346000
5346000
5346000
5346000
5346000
5346000
5346000
5346000
5346000
5346000
5346000
5346000
5346000
5346000
5346000
5346000
5346000
5346000
5346000
5346000
5346000
5346000
5346000
5346000
5346000
5346000
5346000
5346000
5346000
5346000
5346000
5346000
5346000
5346000
5346000
5346000
5346000
5346000
5346000
5346000
5346000
5346000
5346000
5346000
5346000
5346000
5346000
5346000
5346000
5346000
372.008
372.5425
373.1356
373.8351
374.7232
375.9839
377.907
384.3611
5346000
5346000
5346000
5346000
5346000
371.5779
372.1426
372.7695
373.5111
374.4928
375.9049
378.0842
381.4879
391.5699
5346000
5346000
5346000
5346000
5346000
371.1626
371.7329
372.344
373.0301
373.8682
375.007
376.6109
378.869
381.7383
388.0011
5346000
5346000
5346000
5346000
5346000
370.7632
371.3227
371.9046
372.5171
373.199
374.0194
375.0778
376.3894
377.802
378.4248
381.2037
5346000
5346000
5346000
5346000
5346000
370.3783
370.9156
371.4622
372.0117
372.5715
373.1683
373.8319
374.5714
375.2267
375.3128
375.7025
380.307
5346000
5346000
5346000
5346000
5346000
370.0072
370.5119
371.0196
371.5162
371.9951
372.4555
372.9017
373.3165
373.6291
373.5621
373.6866
375.1851
379.0388
5346000
5346000
5346000
5346000
5346000
369.649
370.1125
370.577
371.0274
371.4516
371.8404
372.1824
372.4602
372.6219
372.5505
372.6105
373.3556
374.5667
377.5615
5346000
5346000
5346000
5346000
5346000
369.3039
369.7188
370.1357
370.5424
370.9278
371.2807
371.5882
371.8292
371.968
371.9279
371.9926
372.4457
373.0385
373.9372
376.0513
5346000
5346000
5346000
5346000
5346000
368.9719
369.333
369.6995
370.0634
370.4176
370.7541
371.0623
371.3254
371.5092
371.5436
371.6058
371.952
372.3187
372.754
373.3646
375.0084
5346000
5346000
5346000
5346000
5346000
368.6537
368.959
369.2747
369.5975
369.9248
370.2537
370.5804
370.897
371.1817
371.3558
371.3798
371.6598
371.9338
372.1961
372.4861
372.9885
374.3734
5346000
5346000
5346000
5346000
5346000
5346000
5346000
5346000
5346000
5346000
5346000
5346000
5346000
5346000
5346000
371.2851
371.461
371.6468
371.8285
371.9947
372.2805
372.8121
373.7872
5346000
5346000
5346000
5346000
5346000
5346000
5346000
5346000
5346000
5346000
5346000
5346000
5346000
5346000
5346000
370.8258
371.0392
371.2406
371.4194
371.5748
371.807
372.2071
372.6627
373.3704
5346000
5346000
5346000
5346000
5346000
5346000
5346000
5346000
5346000
5346000
5346000
5346000
5346000
5346000
5346000
370.3781
370.6015
370.8112
370.9998
371.1617
371.3928
371.7519