/*--------------------------------*- C++ -*----------------------------------*\
| =========                 |                                                 |
| \\      /  F ield         | OpenFOAM: The Open Source CFD Toolbox           |
|  \\    /   O peration     | Version:  2306                                  |
|   \\  /    A nd           | Website:  www.openfoam.com                      |
|    \\/     M anipulation  |                                                 |
\*---------------------------------------------------------------------------*/
FoamFile
{
    version     2.0;
    format      ascii;
    arch        "LSB;label=32;scalar=64";
    class       volScalarField;
    location    "0.6";
    object      T;
}
// * * * * * * * * * * * * * * * * * * * * * * * * * * * * * * * * * * * * * //

dimensions      [0 0 0 1 0 0 0];

internalField   nonuniform List<scalar> 
52000
(
1075.868
1075.867
1077.178
1075.822
1075.864
1077.177
1075.82
1078.957
1077.162
1075.731
1075.859
1077.176
1075.816
1078.957
1077.161
1075.728
1080.84
1078.956
1077.131
1075.599
1075.854
1077.174
1075.81
1078.955
1077.159
1075.721
1080.84
1078.955
1077.13
1075.593
1082.685
1080.844
1078.954
1077.089
1075.433
1075.849
1077.171
1075.803
1078.954
1077.157
1075.711
1080.839
1078.953
1077.127
1075.58
1082.684
1080.844
1078.952
1077.087
1075.421
1084.438
1082.691
1080.853
1078.953
1077.041
1075.296
1075.844
1077.169
1075.796
1078.952
1077.154
1075.7
1080.837
1078.951
1077.124
1075.564
1082.683
1080.842
1078.95
1077.083
1075.398
1084.438
1082.69
1080.852
1078.951
1077.037
1075.276
1086.087
1084.445
1082.704
1080.87
1078.959
1077.006
1075.208
1075.84
1077.167
1075.788
1078.95
1077.15
1075.688
1080.835
1078.948
1077.119
1075.544
1082.681
1080.84
1078.946
1077.078
1075.367
1084.437
1082.688
1080.85
1078.948
1077.031
1075.235
1086.086
1084.444
1082.702
1080.868
1078.956
1077
1075.182
1087.63
1086.093
1084.458
1082.725
1080.896
1078.97
1076.986
1075.128
1075.836
1077.165
1075.782
1078.948
1077.147
1075.675
1080.833
1078.946
1077.114
1075.523
1082.68
1080.837
1078.942
1077.071
1075.334
1084.435
1082.686
1080.846
1078.942
1077.022
1075.176
1086.085
1084.443
1082.7
1080.864
1078.951
1076.989
1075.129
1087.63
1086.092
1084.457
1082.723
1080.894
1078.967
1076.978
1075.097
1089.075
1087.636
1086.106
1084.481
1082.758
1080.925
1078.981
1076.97
1075.061
1075.835
1077.163
1075.777
1078.946
1077.144
1075.664
1080.831
1078.943
1077.109
1075.499
1082.678
1080.834
1078.937
1077.063
1075.31
1084.434
1082.684
1080.842
1078.935
1077.013
1075.1
1086.084
1084.441
1082.697
1080.858
1078.943
1076.975
1075.047
1087.629
1086.091
1084.455
1082.72
1080.888
1078.961
1076.964
1075.032
1089.075
1087.635
1086.105
1084.479
1082.756
1080.923
1078.978
1076.961
1075.026
1090.429
1089.08
1087.648
1086.128
1084.514
1082.793
1080.948
1078.996
1076.963
1075.011
1075.835
1077.162
1075.775
1078.945
1077.142
1075.655
1080.829
1078.94
1077.104
1075.477
1082.676
1080.832
1078.933
1077.054
1075.257
1084.432
1082.681
1080.837
1078.926
1077.005
1064.409
1086.083
1084.438
1082.692
1080.85
1078.931
1076.959
1074.933
1087.628
1086.089
1084.452
1082.714
1080.88
1078.953
1076.943
1074.932
1089.074
1087.634
1086.103
1084.476
1082.751
1080.919
1078.971
1076.943
1074.953
1090.428
1089.08
1087.647
1086.126
1084.512
1082.791
1080.946
1078.992
1076.952
1074.973
1091.699
1090.433
1089.092
1087.668
1086.16
1084.549
1082.819
1080.974
1079.016
1076.964
1074.98
1075.836
1077.162
1075.775
1078.944
1077.141
1075.65
1080.828
1078.939
1077.1
1075.459
1082.674
1080.829
1078.928
1077.044
1075.206
1084.43
1082.678
1080.832
1078.917
1076.987
1054.824
1086.081
1084.436
1082.688
1080.841
1078.914
1075.567
1054.67
1087.626
1086.087
1084.448
1082.707
1080.867
1078.943
1076.916
1074.79
1089.073
1087.633
1086.1
1084.471
1082.743
1080.912
1078.96
1076.915
1074.839
1090.428
1089.079
1087.646
1086.123
1084.508
1082.787
1080.942
1078.984
1076.93
1074.895
1091.699
1090.433
1089.091
1087.667
1086.158
1084.548
1082.817
1080.972
1079.011
1076.952
1074.94
1092.893
1091.703
1090.444
1089.11
1087.698
1086.192
1084.575
1082.847
1081.004
1079.041
1076.975
1074.968
1075.84
1077.163
1075.777
1078.944
1077.141
1075.65
1080.827
1078.938
1077.098
1075.449
1082.673
1080.827
1078.925
1077.037
1075.168
1084.429
1082.676
1080.828
1078.909
1076.966
1049.648
1086.079
1084.434
1082.683
1080.832
1078.897
1072.894
1031.613
1087.625
1086.085
1084.444
1082.698
1080.847
1078.311
1072.857
1049.359
1089.071
1087.631
1086.097
1084.464
1082.731
1080.906
1078.947
1076.877
1074.678
1090.427
1089.077
1087.643
1086.118
1084.501
1082.782
1080.935
1078.971
1076.897
1074.773
1091.698
1090.432
1089.089
1087.664
1086.154
1084.545
1082.814
1080.967
1079.002
1076.929
1074.86
1092.893
1091.703
1090.443
1089.109
1087.696
1086.191
1084.574
1082.846
1081.001
1079.036
1076.964
1074.928
1094.017
1092.897
1091.713
1090.461
1089.137
1087.728
1086.216
1084.603
1082.879
1081.037
1079.072
1076.997
1074.975
1075.844
1077.165
1075.782
1078.945
1077.142
1075.655
1080.827
1078.938
1077.098
1075.449
1082.672
1080.827
1078.924
1077.033
1075.147
1084.428
1082.675
1080.825
1078.903
1076.948
1046.763
1086.078
1084.432
1082.68
1080.825
1078.881
1070.597
1017.529
1087.624
1086.083
1084.44
1082.689
1080.83
1077.092
1064.977
1017.312
1089.07
1087.629
1086.093
1084.456
1082.71
1080.563
1077.125
1070.513
1046.308
1090.425
1089.075
1087.64
1086.112
1084.489
1082.777
1080.928
1078.953
1076.85
1074.602
1091.697
1090.431
1089.087
1087.66
1086.147
1084.54
1082.81
1080.96
1078.987
1076.892
1074.736
1092.892
1091.702
1090.442
1089.106
1087.693
1086.188
1084.571
1082.843
1080.996
1079.026
1076.94
1074.848
1094.017
1092.897
1091.712
1090.459
1089.135
1087.727
1086.215
1084.602
1082.878
1081.034
1079.067
1076.986
1074.937
1095.077
1094.021
1092.906
1091.728
1090.485
1089.165
1087.75
1086.243
1084.633
1082.913
1081.073
1079.108
1077.03
1075.001
1075.849
1077.167
1075.788
1078.946
1077.144
1075.664
1080.828
1078.939
1077.1
1075.459
1082.672
1080.827
1078.924
1077.033
1075.147
1084.427
1082.674
1080.824
1078.9
1076.938
1045.435
1086.077
1084.43
1082.677
1080.82
1078.868
1068.916
1009.209
1087.622
1086.081
1084.436
1082.683
1080.816
1076
1058.114
996.2539
1089.069
1087.627
1086.089
1084.448
1082.694
1079.931
1073.531
1058.003
1008.63
1090.424
1089.074
1087.636
1086.105
1084.47
1082.566
1079.993
1076.052
1068.761
1044.76
1091.696
1090.429
1089.084
1087.654
1086.137
1084.536
1082.805
1080.951
1078.965
1076.84
1074.562
1092.891
1091.701
1090.439
1089.102
1087.687
1086.185
1084.568
1082.839
1080.989
1079.01
1076.903
1074.726
1094.016
1092.896
1091.711
1090.457
1089.132
1087.724
1086.214
1084.6
1082.875
1081.03
1079.057
1076.964
1074.858
1095.077
1094.021
1092.905
1091.727
1090.484
1089.164
1087.749
1086.242
1084.633
1082.912
1081.071
1079.104
1077.02
1074.963
1096.077
1095.081
1094.029
1092.92
1091.751
1090.511
1089.185
1087.774
1086.271
1084.666
1082.949
1081.112
1079.149
1077.071
1075.045
1075.854
1077.169
1075.796
1078.948
1077.147
1075.675
1080.829
1078.94
1077.104
1075.477
1082.673
1080.827
1078.925
1077.037
1075.168
1084.427
1082.674
1080.824
1078.9
1076.938
1045.435
1086.077
1084.429
1082.675
1080.817
1078.862
1068.029
1005.302
1087.621
1086.08
1084.434
1082.678
1080.806
1075.167
1053.051
983.2346
1089.068
1087.625
1086.086
1084.442
1082.682
1079.373
1070.258
1046.918
982.7384
1090.423
1089.072
1087.633
1086.098
1084.455
1082.196
1078.173
1070.261
1052.733
1004.141
1091.695
1090.427
1089.081
1087.647
1086.119
1084.39
1082.267
1079.484
1075.228
1067.774
1044.46
1092.89
1091.699
1090.437
1089.097
1087.677
1086.181
1084.565
1082.834
1080.978
1078.987
1076.85
1074.556
1094.016
1092.895
1091.709
1090.454
1089.127
1087.721
1086.211
1084.597
1082.871
1081.022
1079.042
1076.929
1074.74
1095.076
1094.02
1092.904
1091.725
1090.481
1089.161
1087.748
1086.241
1084.631
1082.909
1081.067
1079.096
1077
1074.887
1096.076
1095.08
1094.029
1092.919
1091.75
1090.51
1089.184
1087.774
1086.27
1084.665
1082.948
1081.111
1079.146
1077.062
1075.006
1097.02
1096.08
1095.088
1094.043
1092.941
1091.774
1090.529
1089.207
1087.8
1086.301
1084.7
1082.988
1081.155
1079.195
1077.121
1075.762
1075.859
1077.171
1075.803
1078.95
1077.15
1075.688
1080.831
1078.943
1077.109
1075.499
1082.674
1080.829
1078.928
1077.044
1075.206
1084.428
1082.675
1080.825
1078.903
1076.948
1046.763
1086.077
1084.429
1082.675
1080.817
1078.862
1068.029
1005.302
1087.621
1086.079
1084.433
1082.675
1080.801
1074.714
1050.369
976.9674
1089.067
1087.624
1086.084
1084.437
1082.674
1078.95
1067.733
1038.649
966.2314
1090.422
1089.07
1087.63
1086.092
1084.444
1081.881
1076.528
1064.902
1038.353
975.5762
1091.694
1090.426
1089.078
1087.641
1086.105
1084.148
1081.238
1076.582
1067.707
1049.737
1003.301
1092.889
1091.698
1090.434
1089.091
1087.66
1086.068
1084.217
1082.009
1079.108
1074.781
1067.662
1045.39
1094.015
1092.894
1091.706
1090.449
1089.118
1087.718
1086.208
1084.594
1082.865
1081.01
1079.018
1076.881
1074.581
1095.075
1094.019
1092.902
1091.722
1090.476
1089.158
1087.745
1086.238
1084.628
1082.905
1081.06
1079.082
1076.97
1074.775
1096.076
1095.079
1094.028
1092.917
1091.747
1090.508
1089.183
1087.773
1086.269
1084.664
1082.947
1081.108
1079.14
1077.046
1074.93
1097.02
1096.08
1095.088
1094.042
1092.94
1091.773
1090.529
1089.207
1087.8
1086.301
1084.7
1082.987
1081.154
1079.193
1077.113
1075.71
1097.912
1097.024
1096.087
1095.1
1094.062
1092.963
1091.792
1090.55
1089.231
1087.828
1086.332
1084.736
1083.027
1081.199
1079.243
1077.786
1077.14
1075.864
1077.174
1075.81
1078.952
1077.154
1075.7
1080.833
1078.946
1077.114
1075.523
1082.676
1080.832
1078.933
1077.054
1075.257
1084.429
1082.676
1080.828
1078.909
1076.966
1049.648
1086.077
1084.43
1082.677
1080.82
1078.868
1068.916
1009.209
1087.621
1086.079
1084.433
1082.675
1080.801
1074.714
1050.369
976.9674
1089.066
1087.623
1086.083
1084.435
1082.669
1078.72
1066.355
1034.238
958.1447
1090.421
1089.069
1087.628
1086.088
1084.437
1081.648
1075.261
1060.723
1027.521
957.0556
1091.693
1090.424
1089.075
1087.636
1086.096
1083.949
1080.331
1073.912
1060.663
1033.437
974.2152
1092.888
1091.696
1090.431
1089.085
1087.648
1085.888
1083.567
1080.403
1075.371
1066.28
1049.356
1006.078
1094.014
1092.892
1091.704
1090.443
1089.103
1087.623
1085.953
1084.076
1081.834
1078.932
1074.802
1068.458
1047.751
1095.075
1094.018
1092.9
1091.718
1090.468
1089.155
1087.743
1086.236
1084.625
1082.899
1081.049
1079.062
1076.93
1074.63
1096.075
1095.078
1094.026
1092.914
1091.743
1090.505
1089.181
1087.771
1086.267
1084.662
1082.944
1081.103
1079.131
1077.023
1074.819
1097.02
1096.079
1095.086
1094.04
1092.938
1091.772
1090.527
1089.205
1087.799
1086.3
1084.699
1082.987
1081.153
1079.19
1077.099
1075.594
1097.911
1097.023
1096.087
1095.1
1094.061
1092.962
1091.791
1090.549
1089.23
1087.827
1086.332
1084.736
1083.028
1081.199
1079.243
1077.779
1077.063
1098.753
1097.915
1097.03
1096.099
1095.119
1094.082
1092.979
1091.81
1090.571
1089.256
1087.856
1086.365
1084.772
1083.068
1081.244
1079.836
1079.062
1078.526
1075.867
1077.176
1075.816
1078.954
1077.157
1075.711
1080.835
1078.948
1077.119
1075.544
1082.678
1080.834
1078.937
1077.063
1075.31
1084.43
1082.678
1080.832
1078.917
1076.987
1054.824
1086.078
1084.432
1082.68
1080.825
1078.881
1070.597
1017.529
1087.621
1086.08
1084.434
1082.678
1080.806
1075.167
1053.051
983.2346
1089.066
1087.623
1086.083
1084.435
1082.669
1078.72
1066.355
1034.238
958.1447
1090.421
1089.069
1087.627
1086.086
1084.434
1081.522
1074.568
1058.428
1021.71
947.8923
1091.692
1090.423
1089.073
1087.632
1086.089
1083.805
1079.646
1071.827
1055.121
1021.084
955.2844
1092.887
1091.695
1090.429
1089.08
1087.64
1085.746
1083.011
1078.959
1071.885
1058.259
1032.778
978.6477
1094.013
1092.891
1091.701
1090.438
1089.092
1087.477
1085.486
1083.085
1079.806
1074.755
1066.257
1051.691
1012.928
1095.074
1094.016
1092.898
1091.712
1090.454
1089.072
1087.537
1085.865
1083.993
1081.78
1079.008
1075.32
1070.136
1052.168
1096.074
1095.077
1094.024
1092.91
1091.735
1090.502
1089.179
1087.769
1086.265
1084.658
1082.938
1081.095
1079.116
1076.994
1074.683
1097.019
1096.078
1095.085
1094.037
1092.933
1091.769
1090.525
1089.204
1087.798
1086.298
1084.698
1082.985
1081.151
1079.185
1077.081
1075.368
1097.911
1097.023
1096.086
1095.098
1094.059
1092.96
1091.79
1090.548
1089.23
1087.827
1086.332
1084.736
1083.029
1081.201
1079.242
1077.767
1076.879
1098.753
1097.914
1097.03
1096.098
1095.118
1094.081
1092.978
1091.81
1090.571
1089.255
1087.856
1086.365
1084.773
1083.07
1081.245
1079.84
1079.055
1078.429
1099.548
1098.756
1097.921
1097.041
1096.116
1095.137
1094.097
1092.996
1091.83
1090.594
1089.282
1087.886
1086.398
1084.809
1083.109
1081.767
1080.971
1080.338
1079.925
1075.868
1077.177
1075.82
1078.955
1077.159
1075.721
1080.837
1078.951
1077.124
1075.564
1082.68
1080.837
1078.942
1077.071
1075.334
1084.432
1082.681
1080.837
1078.926
1077.005
1064.409
1086.079
1084.434
1082.683
1080.832
1078.897
1072.894
1031.613
1087.622
1086.081
1084.436
1082.683
1080.816
1076
1058.114
996.2539
1089.067
1087.624
1086.084
1084.437
1082.674
1078.95
1067.733
1038.649
966.2314
1090.421
1089.069
1087.627
1086.086
1084.434
1081.522
1074.568
1058.428
1021.71
947.8923
1091.692
1090.423
1089.072
1087.631
1086.086
1083.729
1079.275
1070.677
1052.061
1014.433
945.8954
1092.887
1091.694
1090.427
1089.077
1087.634
1085.645
1082.6
1077.851
1069.133
1051.909
1020.191
960.9471
1094.012
1092.889
1091.699
1090.434
1089.084
1087.363
1085.097
1082.219
1077.955
1070.82
1058.165
1036.537
989.3735
1095.073
1094.015
1092.895
1091.707
1090.444
1088.944
1087.163
1085.168
1082.771
1079.56
1074.887
1067.717
1056.607
1025.08
1096.074
1095.076
1094.021
1092.905
1091.722
1090.427
1088.999
1087.473
1085.822
1083.99
1081.872
1079.355
1076.313
1072.639
1060.409
1097.018
1096.077
1095.083
1094.033
1092.927
1091.767
1090.523
1089.202
1087.796
1086.296
1084.695
1082.982
1081.147
1079.179
1077.065
1074.734
1097.91
1097.022
1096.084
1095.095
1094.055
1092.958
1091.788
1090.547
1089.228
1087.826
1086.331
1084.736
1083.03
1081.203
1079.243
1077.759
1076.481
1098.752
1097.914
1097.029
1096.096
1095.116
1094.08
1092.977
1091.809
1090.57
1089.255
1087.856
1086.366
1084.775
1083.073
1081.249
1079.851
1079.044
1078.193
1099.547
1098.756
1097.92
1097.04
1096.115
1095.137
1094.096
1092.995
1091.83
1090.594
1089.282
1087.886
1086.399
1084.811
1083.111
1081.774
1080.982
1080.331
1079.813
1100.297
1099.55
1098.762
1097.931
1097.057
1096.133
1095.151
1094.113
1093.014
1091.851
1090.618
1089.309
1087.916
1086.431
1084.845
1083.57
1082.767
1082.104
1081.614
1081.337
1077.178
1075.822
1078.957
1077.161
1075.728
1080.839
1078.953
1077.127
1075.58
1082.681
1080.84
1078.946
1077.078
1075.367
1084.434
1082.684
1080.842
1078.935
1077.013
1075.1
1086.081
1084.436
1082.688
1080.841
1078.914
1075.567
1054.67
1087.624
1086.083
1084.44
1082.689
1080.83
1077.092
1064.977
1017.312
1089.068
1087.625
1086.086
1084.442
1082.682
1079.373
1070.258
1046.918
982.7384
1090.421
1089.069
1087.628
1086.088
1084.437
1081.648
1075.261
1060.723
1027.521
957.0556
1091.692
1090.423
1089.072
1087.631
1086.086
1083.729
1079.275
1070.677
1052.061
1014.433
945.8954
1092.887
1091.694
1090.426
1089.076
1087.631
1085.593
1082.381
1077.246
1067.605
1048.39
1013.407
952.2094
1094.012
1092.889
1091.697
1090.431
1089.079
1087.284
1084.817
1081.57
1076.517
1067.69
1051.741
1025.055
974.4785
1095.072
1094.014
1092.893
1091.704
1090.437
1088.846
1086.858
1084.576
1081.686
1077.51
1070.98
1060.501
1044.418
1007.622
1096.073
1095.075
1094.019
1092.901
1091.713
1090.311
1088.677
1086.924
1084.982
1082.687
1079.745
1075.819
1070.545
1063.751
1045.361
1097.017
1096.076
1095.081
1094.029
1092.915
1091.697
1090.361
1088.947
1087.448
1085.84
1084.084
1082.128
1079.977
1077.768
1076.048
1070.216
1097.91
1097.021
1096.082
1095.092
1094.048
1092.955
1091.786
1090.545
1089.227
1087.824
1086.33
1084.735
1083.03
1081.205
1079.249
1077.83
1075.443
1098.752
1097.913
1097.027
1096.094
1095.112
1094.077
1092.975
1091.807
1090.569
1089.254
1087.856
1086.367
1084.777
1083.077
1081.256
1079.89
1079.045
1077.69
1099.547
1098.755
1097.92
1097.039
1096.113
1095.135
1094.095
1092.994
1091.829
1090.594
1089.282
1087.887
1086.401
1084.815
1083.116
1081.792
1081.012
1080.319
1079.546
1100.297
1099.55
1098.762
1097.931
1097.056
1096.133
1095.15
1094.112
1093.014
1091.851
1090.618
1089.309
1087.917
1086.433
1084.848
1083.578
1082.783
1082.12
1081.607
1081.219
1101.003
1100.3
1099.556
1098.772
1097.947
1097.074
1096.146
1095.166
1094.13
1093.033
1091.873
1090.643
1089.336
1087.946
1086.464
1085.255
1084.454
1083.765
1083.233
1082.891
1082.092
1078.957
1077.162
1075.731
1080.84
1078.955
1077.13
1075.593
1082.683
1080.842
1078.95
1077.083
1075.398
1084.435
1082.686
1080.846
1078.942
1077.022
1075.176
1086.083
1084.438
1082.692
1080.85
1078.931
1076.959
1074.933
1087.625
1086.085
1084.444
1082.698
1080.847
1078.311
1072.857
1049.359
1089.069
1087.627
1086.089
1084.448
1082.694
1079.931
1073.531
1058.003
1008.63
1090.422
1089.07
1087.63
1086.092
1084.444
1081.881
1076.528
1064.902
1038.353
975.5762
1091.692
1090.423
1089.073
1087.632
1086.089
1083.805
1079.646
1071.827
1055.121
1021.084
955.2844
1092.887
1091.694
1090.426
1089.076
1087.631
1085.593
1082.381
1077.246
1067.605
1048.39
1013.407
952.2094
1094.011
1092.888
1091.697
1090.429
1089.077
1087.244
1084.67
1081.221
1075.726
1065.943
1048.176
1018.874
967.206
1095.072
1094.013
1092.892
1091.701
1090.432
1088.78
1086.643
1084.144
1080.863
1075.903
1067.854
1054.766
1035.215
996.8796
1096.072
1095.074
1094.017
1092.897
1091.707
1090.223
1088.417
1086.468
1084.258
1081.517
1077.76
1072.435
1065.014
1055.667
1036.002
1097.017
1096.075
1095.079
1094.025
1092.906
1091.59
1090.07
1088.478
1086.797
1084.968
1082.883
1080.398
1077.51
1074.495
1072.634
1064.738
1097.909
1097.02
1096.08
1095.088
1094.037
1092.89
1091.636
1090.315
1088.93
1087.473
1085.929
1084.287
1082.562
1080.908
1079.878
1078.885
1071.94
1098.751
1097.912
1097.026
1096.091
1095.106
1094.075
1092.974
1091.806
1090.568
1089.253
1087.855
1086.366
1084.778
1083.082
1081.269
1080.089
1079.134
1076.536
1099.546
1098.754
1097.918
1097.037
1096.109
1095.133
1094.093
1092.993
1091.828
1090.593
1089.282
1087.888
1086.404
1084.82
1083.126
1081.844
1081.101
1080.316
1078.997
1100.296
1099.549
1098.761
1097.929
1097.055
1096.131
1095.149
1094.111
1093.013
1091.85
1090.618
1089.31
1087.919
1086.437
1084.854
1083.599
1082.826
1082.164
1081.592
1080.939
1101.003
1100.299
1099.556
1098.771
1097.946
1097.073
1096.146
1095.165
1094.129
1093.033
1091.873
1090.643
1089.337
1087.948
1086.467
1085.263
1084.471
1083.788
1083.253
1082.883
1081.973
1101.668
1101.006
1100.305
1099.566
1098.787
1097.962
1097.086
1096.16
1095.182
1094.148
1093.054
1091.895
1090.668
1089.363
1087.976
1086.829
1086.038
1085.334
1084.759
1084.359
1083.567
1082.173
1080.84
1078.956
1077.131
1075.599
1082.684
1080.844
1078.952
1077.087
1075.421
1084.437
1082.688
1080.85
1078.948
1077.031
1075.235
1086.084
1084.441
1082.697
1080.858
1078.943
1076.975
1075.047
1087.626
1086.087
1084.448
1082.707
1080.867
1078.943
1076.916
1074.79
1089.07
1087.629
1086.093
1084.456
1082.71
1080.563
1077.125
1070.513
1046.308
1090.423
1089.072
1087.633
1086.098
1084.455
1082.196
1078.173
1070.261
1052.733
1004.141
1091.693
1090.424
1089.075
1087.636
1086.096
1083.949
1080.331
1073.912
1060.663
1033.437
974.2152
1092.887
1091.694
1090.427
1089.077
1087.634
1085.645
1082.6
1077.851
1069.133
1051.909
1020.191
960.9471
1094.011
1092.888
1091.697
1090.429
1089.077
1087.244
1084.67
1081.221
1075.726
1065.943
1048.176
1018.874
967.206
1095.071
1094.013
1092.891
1091.7
1090.43
1088.746
1086.532
1083.916
1080.416
1075.014
1066.106
1051.582
1030.274
991.7063
1096.072
1095.073
1094.016
1092.895
1091.702
1090.163
1088.237
1086.143
1083.724
1080.619
1076.19
1069.712
1060.597
1049.549
1030.278
1097.016
1096.074
1095.077
1094.021
1092.9
1091.509
1089.838
1088.094
1086.25
1084.208
1081.788
1078.751
1075.064
1071.148
1069.129
1060.411
1097.908
1097.018
1096.078
1095.084
1094.029
1092.79
1091.367
1089.894
1088.379
1086.811
1085.157
1083.386
1081.522
1079.877
1079.348
1078.132
1067.635
1098.75
1097.911
1097.024
1096.087
1095.096
1094.014
1092.833
1091.593
1090.301
1088.955
1087.555
1086.101
1084.62
1083.23
1082.402
1082.051
1079.644
1073.778
1099.546
1098.753
1097.917
1097.033
1096.104
1095.131
1094.092
1092.992
1091.827
1090.592
1089.281
1087.888
1086.406
1084.826
1083.14
1082.073
1081.413
1080.37
1077.877
1100.296
1099.549
1098.759
1097.927
1097.051
1096.129
1095.148
1094.11
1093.012
1091.85
1090.618
1089.311
1087.921
1086.442
1084.863
1083.653
1082.94
1082.276
1081.577
1080.391
1101.003
1100.299
1099.555
1098.77
1097.944
1097.072
1096.145
1095.165
1094.129
1093.033
1091.873
1090.644
1089.339
1087.951
1086.472
1085.283
1084.517
1083.849
1083.304
1082.865
1081.695
1101.668
1101.006
1100.305
1099.565
1098.786
1097.962
1097.085
1096.16
1095.182
1094.147
1093.054
1091.896
1090.668
1089.365
1087.978
1086.837
1086.055
1085.359
1084.787
1084.381
1083.558
1082.054
1102.293
1101.671
1101.011
1100.314
1099.579
1098.801
1097.974
1097.099
1096.175
1095.199
1094.166
1093.075
1091.918
1090.692
1089.39
1088.303
1087.527
1086.817
1086.209
1085.747
1084.952
1083.638
1082.253
1082.685
1080.844
1078.954
1077.089
1075.433
1084.438
1082.69
1080.852
1078.951
1077.037
1075.276
1086.085
1084.443
1082.7
1080.864
1078.951
1076.989
1075.129
1087.628
1086.089
1084.452
1082.714
1080.88
1078.953
1076.943
1074.932
1089.071
1087.631
1086.097
1084.464
1082.731
1080.906
1078.947
1076.877
1074.678
1090.424
1089.074
1087.636
1086.105
1084.47
1082.566
1079.993
1076.052
1068.761
1044.76
1091.694
1090.426
1089.078
1087.641
1086.105
1084.148
1081.238
1076.582
1067.707
1049.737
1003.301
1092.887
1091.695
1090.429
1089.08
1087.64
1085.746
1083.011
1078.959
1071.885
1058.259
1032.778
978.6477
1094.012
1092.889
1091.697
1090.431
1089.079
1087.284
1084.817
1081.57
1076.517
1067.69
1051.741
1025.055
974.4785
1095.071
1094.013
1092.891
1091.7
1090.43
1088.746
1086.532
1083.916
1080.416
1075.014
1066.106
1051.582
1030.274
991.7063
1096.071
1095.073
1094.015
1092.894
1091.7
1090.133
1088.144
1085.973
1083.439
1080.129
1075.317
1068.184
1058.142
1046.264
1027.522
1097.016
1096.073
1095.076
1094.019
1092.896
1091.454
1089.678
1087.824
1085.856
1083.641
1080.938
1077.429
1073.059
1068.405
1066.363
1057.511
1097.907
1097.018
1096.077
1095.081
1094.024
1092.714
1091.153
1089.552
1087.923
1086.249
1084.473
1082.534
1080.443
1078.607
1078.241
1076.937
1064.04
1098.75
1097.91
1097.022
1096.083
1095.088
1093.92
1092.581
1091.205
1089.809
1088.401
1086.987
1085.573
1084.217
1083.121
1082.911
1082.468
1079.113
1070.4
1099.545
1098.752
1097.915
1097.03
1096.094
1095.073
1093.959
1092.793
1091.58
1090.326
1089.032
1087.706
1086.377
1085.145
1084.396
1084.203
1082.654
1080.576
1075.702
1100.295
1099.548
1098.758
1097.924
1097.046
1096.127
1095.147
1094.109
1093.011
1091.849
1090.617
1089.311
1087.924
1086.448
1084.877
1083.88
1083.307
1082.586
1081.582
1079.379
1101.002
1100.298
1099.554
1098.768
1097.941
1097.07
1096.143
1095.164
1094.128
1093.032
1091.873
1090.644
1089.341
1087.956
1086.481
1085.335
1084.634
1083.994
1083.418
1082.834
1081.163
1101.668
1101.005
1100.304
1099.564
1098.784
1097.96
1097.085
1096.159
1095.181
1094.147
1093.054
1091.897
1090.67
1089.368
1087.983
1086.856
1086.1
1085.423
1084.858
1084.433
1083.538
1081.776
1102.293
1101.67
1101.011
1100.314
1099.579
1098.801
1097.973
1097.099
1096.175
1095.198
1094.167
1093.075
1091.919
1090.694
1089.392
1088.31
1087.543
1086.842
1086.24
1085.779
1084.974
1083.63
1082.135
1102.879
1102.295
1101.676
1101.02
1100.328
1099.594
1098.812
1097.986
1097.113
1096.191
1095.216
1094.186
1093.096
1091.941
1090.717
1089.686
1088.929
1088.222
1087.593
1087.08
1086.267
1085.015
1083.711
1082.334
1084.438
1082.691
1080.853
1078.953
1077.041
1075.296
1086.086
1084.444
1082.702
1080.868
1078.956
1077
1075.182
1087.629
1086.091
1084.455
1082.72
1080.888
1078.961
1076.964
1075.032
1089.073
1087.633
1086.1
1084.471
1082.743
1080.912
1078.96
1076.915
1074.839
1090.425
1089.075
1087.64
1086.112
1084.489
1082.777
1080.928
1078.953
1076.85
1074.602
1091.695
1090.427
1089.081
1087.647
1086.119
1084.39
1082.267
1079.484
1075.228
1067.774
1044.46
1092.888
1091.696
1090.431
1089.085
1087.648
1085.888
1083.567
1080.403
1075.371
1066.28
1049.356
1006.078
1094.012
1092.889
1091.699
1090.434
1089.084
1087.363
1085.097
1082.219
1077.955
1070.82
1058.165
1036.537
989.3735
1095.072
1094.013
1092.892
1091.701
1090.432
1088.78
1086.643
1084.144
1080.863
1075.903
1067.854
1054.766
1035.215
996.8796
1096.071
1095.073
1094.015
1092.894
1091.7
1090.133
1088.144
1085.973
1083.439
1080.129
1075.317
1068.184
1058.142
1046.264
1027.522
1097.015
1096.073
1095.075
1094.018
1092.894
1091.426
1089.596
1087.685
1085.649
1083.337
1080.471
1076.689
1071.925
1066.865
1064.853
1056.063
1097.907
1097.017
1096.075
1095.078
1094.02
1092.663
1091.006
1089.313
1087.6
1085.84
1083.955
1081.855
1079.536
1077.477
1077.186
1075.88
1061.567
1098.749
1097.909
1097.02
1096.08
1095.083
1093.848
1092.382
1090.891
1089.405
1087.94
1086.498
1085.081
1083.752
1082.738
1082.782
1082.344
1078.202
1067.467
1099.544
1098.751
1097.913
1097.026
1096.087
1094.984
1093.722
1092.429
1091.127
1089.833
1088.564
1087.349
1086.244
1085.416
1085.273
1085.002
1083.067
1080.165
1073.075
1100.295
1099.547
1098.756
1097.92
1097.037
1096.073
1095.021
1093.921
1092.78
1091.603
1090.396
1089.167
1087.945
1086.817
1086.113
1085.943
1084.709
1083.388
1081.611
1077.688
1101.002
1100.297
1099.552
1098.765
1097.936
1097.068
1096.142
1095.162
1094.127
1093.031
1091.872
1090.645
1089.343
1087.962
1086.495
1085.55
1085.001
1084.372
1083.68
1082.79
1080.225
1101.667
1101.004
1100.303
1099.562
1098.781
1097.959
1097.083
1096.158
1095.18
1094.147
1093.054
1091.897
1090.672
1089.373
1087.992
1086.905
1086.213
1085.574
1085.01
1084.536
1083.5
1081.246
1102.292
1101.67
1101.01
1100.312
1099.577
1098.8
1097.972
1097.098
1096.174
1095.198
1094.167
1093.076
1091.921
1090.697
1089.397
1088.329
1087.586
1086.906
1086.315
1085.852
1085.025
1083.61
1081.857
1102.879
1102.295
1101.676
1101.019
1100.327
1099.593
1098.812
1097.986
1097.113
1096.191
1095.216
1094.186
1093.097
1091.943
1090.719
1089.693
1088.945
1088.246
1087.623
1087.114
1086.299
1085.037
1083.702
1082.216
1103.427
1102.881
1102.3
1101.684
1101.033
1100.341
1099.604
1098.824
1098
1097.128
1096.207
1095.234
1094.206
1093.117
1091.964
1090.986
1090.251
1089.552
1088.912
1088.363
1087.536
1086.322
1085.078
1083.783
1082.416
1086.087
1084.445
1082.704
1080.87
1078.959
1077.006
1075.208
1087.63
1086.092
1084.457
1082.723
1080.894
1078.967
1076.978
1075.097
1089.074
1087.634
1086.103
1084.476
1082.751
1080.919
1078.971
1076.943
1074.953
1090.427
1089.077
1087.643
1086.118
1084.501
1082.782
1080.935
1078.971
1076.897
1074.773
1091.696
1090.429
1089.084
1087.654
1086.137
1084.536
1082.805
1080.951
1078.965
1076.84
1074.562
1092.889
1091.698
1090.434
1089.091
1087.66
1086.068
1084.217
1082.009
1079.108
1074.781
1067.662
1045.39
1094.013
1092.891
1091.701
1090.438
1089.092
1087.477
1085.486
1083.085
1079.806
1074.755
1066.257
1051.691
1012.928
1095.072
1094.014
1092.893
1091.704
1090.437
1088.846
1086.858
1084.576
1081.686
1077.51
1070.98
1060.501
1044.418
1007.622
1096.072
1095.073
1094.016
1092.895
1091.702
1090.163
1088.237
1086.143
1083.724
1080.619
1076.19
1069.712
1060.597
1049.549
1030.278
1097.015
1096.073
1095.075
1094.018
1092.894
1091.426
1089.596
1087.685
1085.649
1083.337
1080.471
1076.689
1071.925
1066.865
1064.853
1056.063
1097.907
1097.017
1096.075
1095.077
1094.018
1092.637
1090.931
1089.191
1087.433
1085.624
1083.675
1081.476
1079.016
1076.816
1076.563
1075.278
1060.319
1098.749
1097.908
1097.019
1096.078
1095.08
1093.8
1092.244
1090.672
1089.121
1087.61
1086.136
1084.694
1083.34
1082.32
1082.488
1082.082
1077.371
1065.402
1099.544
1098.751
1097.912
1097.024
1096.082
1094.917
1093.534
1092.136
1090.757
1089.426
1088.17
1087.021
1086.045
1085.415
1085.531
1085.284
1083.041
1079.468
1070.734
1100.294
1099.546
1098.754
1097.917
1097.03
1095.988
1094.797
1093.578
1092.356
1091.15
1089.983
1088.888
1087.923
1087.222
1087.092
1086.844
1085.428
1083.738
1081.272
1075.691
1101.001
1100.296
1099.55
1098.762
1097.927
1097.016
1096.023
1094.985
1093.909
1092.801
1091.668
1090.52
1089.381
1088.331
1087.657
1087.472
1086.382
1085.325
1084.196
1082.709
1078.758
1101.667
1101.004
1100.301
1099.559
1098.776
1097.957
1097.082
1096.157
1095.179
1094.146
1093.053
1091.898
1090.674
1089.378
1088.004
1087.104
1086.561
1085.958
1085.345
1084.731
1083.432
1080.316
1102.292
1101.669
1101.009
1100.31
1099.574
1098.798
1097.971
1097.097
1096.174
1095.198
1094.166
1093.076
1091.923
1090.701
1089.405
1088.374
1087.693
1087.052
1086.476
1085.997
1085.118
1083.571
1081.33
1102.878
1102.295
1101.675
1101.018
1100.325
1099.592
1098.811
1097.985
1097.113
1096.19
1095.216
1094.187
1093.098
1091.946
1090.723
1089.71
1088.985
1088.306
1087.698
1087.193
1086.372
1085.088
1083.682
1081.939
1103.427
1102.881
1102.3
1101.684
1101.032
1100.341
1099.604
1098.824
1097.999
1097.128
1096.207
1095.235
1094.206
1093.118
1091.966
1090.992
1090.266
1089.575
1088.942
1088.397
1087.571
1086.354
1085.101
1083.774
1082.297
1103.938
1103.429
1102.886
1102.309
1101.697
1101.046
1100.351
1099.616
1098.837
1098.014
1097.144
1096.224
1095.253
1094.225
1093.137
1092.21
1091.5
1090.814
1090.172
1089.598
1088.767
1087.585
1086.377
1085.141
1083.855
1082.492
1087.63
1086.093
1084.458
1082.725
1080.896
1078.97
1076.986
1075.128
1089.075
1087.635
1086.105
1084.479
1082.756
1080.923
1078.978
1076.961
1075.026
1090.428
1089.079
1087.646
1086.123
1084.508
1082.787
1080.942
1078.984
1076.93
1074.895
1091.697
1090.431
1089.087
1087.66
1086.147
1084.54
1082.81
1080.96
1078.987
1076.892
1074.736
1092.89
1091.699
1090.437
1089.097
1087.677
1086.181
1084.565
1082.834
1080.978
1078.987
1076.85
1074.556
1094.014
1092.892
1091.704
1090.443
1089.103
1087.623
1085.953