/*--------------------------------*- C++ -*----------------------------------*\
| =========                 |                                                 |
| \\      /  F ield         | OpenFOAM: The Open Source CFD Toolbox           |
|  \\    /   O peration     | Version:  2306                                  |
|   \\  /    A nd           | Website:  www.openfoam.com                      |
|    \\/     M anipulation  |                                                 |
\*---------------------------------------------------------------------------*/
FoamFile
{
    version     2.0;
    format      ascii;
    arch        "LSB;label=32;scalar=64";
    class       volScalarField;
    location    "0.6/fuel";
    object      diffSp.H2;
}
// * * * * * * * * * * * * * * * * * * * * * * * * * * * * * * * * * * * * * //

dimensions      [0 2 -1 0 0 0 0];

internalField   nonuniform List<scalar> 
16000
(
9.606002e-05
9.604984e-05
9.628457e-05
9.607176e-05
9.602421e-05
9.628753e-05
9.606177e-05
9.648541e-05
9.629406e-05
9.609673e-05
9.597599e-05
9.629223e-05
9.603657e-05
9.649163e-05
9.629709e-05
9.608713e-05
9.666614e-05
9.649301e-05
9.631462e-05
9.612596e-05
9.58858e-05
9.629917e-05
9.598912e-05
9.650399e-05
9.630191e-05
9.606275e-05
9.667302e-05
9.649926e-05
9.631783e-05
9.611681e-05
9.683362e-05
9.667229e-05
9.650993e-05
9.63388e-05
9.61851e-05
9.576065e-05
9.63009e-05
9.590017e-05
9.652482e-05
9.6309e-05
9.601665e-05
9.668715e-05
9.651165e-05
9.6323e-05
9.609337e-05
9.684041e-05
9.667919e-05
9.651628e-05
9.634222e-05
9.617683e-05
9.699177e-05
9.683863e-05
9.668644e-05
9.652993e-05
9.638795e-05
0.0001442986
9.559614e-05
9.630417e-05
9.577681e-05
9.655052e-05
9.631083e-05
9.59297e-05
9.671131e-05
9.653247e-05
9.633058e-05
9.604883e-05
9.685452e-05
9.66933e-05
9.652886e-05
9.634781e-05
9.615521e-05
9.699823e-05
9.684543e-05
9.66934e-05
9.65364e-05
9.639184e-05
0.0001442866
9.714226e-05
9.699588e-05
9.685065e-05
9.670327e-05
9.657085e-05
0.0001445993
0.0001443086
9.54454e-05
9.628105e-05
9.561433e-05
9.658722e-05
9.631409e-05
9.580895e-05
9.67436e-05
9.655801e-05
9.633293e-05
9.596411e-05
9.687877e-05
9.67174e-05
9.65499e-05
9.635598e-05
9.611357e-05
9.701173e-05
9.685951e-05
9.670763e-05
9.654921e-05
9.639836e-05
0.0001442549
9.714834e-05
9.700234e-05
9.685748e-05
9.671031e-05
9.657763e-05
0.0001446052
0.0001442968
9.728608e-05
9.714564e-05
9.700619e-05
9.686503e-05
9.673801e-05
0.0001448707
0.0001446075
0.0001443222
9.533117e-05
9.625282e-05
9.546538e-05
9.660533e-05
9.629115e-05
9.564902e-05
9.67894e-05
9.659433e-05
9.633666e-05
9.584617e-05
9.69121e-05
9.674945e-05
9.657555e-05
9.635898e-05
9.603283e-05
9.703501e-05
9.688368e-05
9.673182e-05
9.657053e-05
9.64079e-05
0.0001441937
9.716108e-05
9.701581e-05
9.687163e-05
9.672468e-05
9.659101e-05
0.0001446152
0.0001442655
9.729178e-05
9.715171e-05
9.701268e-05
9.687192e-05
9.674527e-05
0.0001448809
0.0001446135
0.0001443106
9.742372e-05
9.728887e-05
9.715458e-05
9.701863e-05
9.689502e-05
0.0001451191
0.0001448774
0.0001446187
0.0001443344
9.527083e-05
9.622629e-05
9.535244e-05
9.661559e-05
9.626328e-05
9.550219e-05
9.682089e-05
9.661218e-05
9.63142e-05
9.568891e-05
9.69592e-05
9.679478e-05
9.661182e-05
9.636331e-05
9.591964e-05
9.706745e-05
9.691675e-05
9.676384e-05
9.659639e-05
9.641252e-05
0.0001440745
9.718307e-05
9.7039e-05
9.689583e-05
9.674902e-05
9.661314e-05
0.0001446298
0.0001442052
9.730376e-05
9.716442e-05
9.70262e-05
9.688616e-05
9.676003e-05
0.000144901
0.0001446235
0.00014428
9.742908e-05
9.729456e-05
9.716067e-05
9.702516e-05
9.690207e-05
0.00014513
0.0001448876
0.0001446247
0.000144323
9.755554e-05
9.742602e-05
9.729668e-05
9.716545e-05
9.704488e-05
0.0001453528
0.0001451246
0.0001448866
0.0001446287
0.0001443485
9.527083e-05
9.621104e-05
9.529275e-05
9.661862e-05
9.623712e-05
9.53907e-05
9.68442e-05
9.662236e-05
9.628686e-05
9.554426e-05
9.699457e-05
9.682588e-05
9.662959e-05
9.634141e-05
9.576639e-05
9.711316e-05
9.696339e-05
9.680893e-05
9.66327e-05
9.641853e-05
0.0001439072
9.721398e-05
9.707119e-05
9.692881e-05
9.678106e-05
9.663986e-05
0.0001446369
0.0001440874
9.732447e-05
9.718632e-05
9.704939e-05
9.691043e-05
9.67849e-05
0.0001449342
0.0001446381
0.0001442207
9.744036e-05
9.730651e-05
9.717341e-05
9.703873e-05
9.69166e-05
0.0001451521
0.0001449076
0.0001446348
0.0001442929
9.756059e-05
9.743136e-05
9.730239e-05
9.717157e-05
9.705153e-05
0.0001453633
0.0001451355
0.0001448968
0.0001446348
0.0001443373
9.768177e-05
9.755743e-05
9.74329e-05
9.730626e-05
9.718867e-05
0.0001455761
0.0001453573
0.0001451323
0.0001448948
0.0001446402
0.0003515723
9.533117e-05
9.621104e-05
9.529275e-05
9.661923e-05
9.622209e-05
9.533175e-05
9.68577e-05
9.662542e-05
9.626114e-05
9.543426e-05
9.702201e-05
9.684897e-05
9.663981e-05
9.631464e-05
9.562472e-05
9.714887e-05
9.699835e-05
9.683978e-05
9.665047e-05
9.639788e-05
0.0001436801
9.725743e-05
9.711647e-05
9.697516e-05
9.6826e-05
9.667693e-05
0.0001446459
0.0001439217
9.735374e-05
9.7217e-05
9.708146e-05
9.694336e-05
9.681744e-05
0.000144974
0.000144645
0.0001441044
9.745988e-05
9.732713e-05
9.71953e-05
9.706196e-05
9.694124e-05
0.0001451893
0.0001449406
0.0001446495
0.0001442346
9.757125e-05
9.744262e-05
9.731435e-05
9.718434e-05
9.706532e-05
0.0001453851
0.0001451575
0.0001449168
0.0001446449
0.0001443079
9.768655e-05
9.756247e-05
9.743825e-05
9.731198e-05
9.719488e-05
0.000145586
0.0001453679
0.0001451431
0.000144905
0.0001446463
0.0003515477
9.780261e-05
9.768332e-05
9.756353e-05
9.74414e-05
9.732698e-05
0.0001457906
0.0001455798
0.0001453637
0.0001451391
0.0001449043
0.0003522617
0.000351672
9.54454e-05
9.622629e-05
9.535244e-05
9.661923e-05
9.622209e-05
9.533175e-05
9.686403e-05
9.662606e-05
9.624636e-05
9.537605e-05
9.703909e-05
9.686238e-05
9.664295e-05
9.62894e-05
9.551663e-05
9.717704e-05
9.702554e-05
9.686273e-05
9.666075e-05
9.637209e-05
0.00014347
9.729213e-05
9.715179e-05
9.700983e-05
9.685665e-05
9.669513e-05
0.0001446152
0.0001436967
9.739481e-05
9.726006e-05
9.712645e-05
9.698949e-05
9.686275e-05
0.0001450291
0.0001446537
0.0001439407
9.74876e-05
9.735619e-05
9.722585e-05
9.709395e-05
9.697448e-05
0.0001452378
0.00014498
0.0001446564
0.0001441198
9.75897e-05
9.746205e-05
9.733495e-05
9.720625e-05
9.708881e-05
0.0001454219
0.0001451944
0.0001449496
0.0001446596
0.0001442507
9.769666e-05
9.75731e-05
9.744951e-05
9.732398e-05
9.720782e-05
0.0001456067
0.0001453895
0.000145165
0.0001449249
0.0001446566
0.000351482
9.780715e-05
9.768809e-05
9.756857e-05
9.744677e-05
9.733278e-05
0.0001457999
0.0001455898
0.0001453742
0.0001451498
0.0001449144
0.0003522767
0.0003516528
9.791822e-05
9.780388e-05
9.768875e-05
9.757112e-05
9.746003e-05
0.000145997
0.0001457937
0.0001455852
0.0001453694
0.0001451469
0.0003528877
0.0003523374
0.0003518121
9.559614e-05
9.625282e-05
9.546538e-05
9.661862e-05
9.623712e-05
9.53907e-05
9.686403e-05
9.662606e-05
9.624636e-05
9.537605e-05
9.704743e-05
9.686868e-05
9.664365e-05
9.627488e-05
9.545935e-05
9.719503e-05
9.704249e-05
9.687608e-05
9.666398e-05
9.634752e-05
0.0001433097
9.731972e-05
9.717972e-05
9.703682e-05
9.687948e-05
9.670573e-05
0.000144577
0.0001434888
9.742808e-05
9.729442e-05
9.716147e-05
9.702389e-05
9.68935e-05
0.000145056
0.0001446229
0.0001437178
9.752642e-05
9.739691e-05
9.726864e-05
9.71387e-05
9.702079e-05
0.0001453051
0.0001450343
0.0001446648
0.0001439579
9.761602e-05
9.748958e-05
9.736389e-05
9.723671e-05
9.7121e-05
0.0001454714
0.0001452423
0.0001449886
0.0001446665
0.0001441375
9.771416e-05
9.759147e-05
9.746892e-05
9.734457e-05
9.722993e-05
0.0001456418
0.000145426
0.0001452017
0.0001449575
0.0001446714
0.0003513534
9.781677e-05
9.769817e-05
9.75792e-05
9.745805e-05
9.734491e-05
0.0001458192
0.0001456103
0.0001453957
0.0001451717
0.0001449343
0.000352302
0.0003515994
9.792254e-05
9.78084e-05
9.769352e-05
9.757617e-05
9.746546e-05
0.0001460057
0.0001458029
0.0001455951
0.0001453798
0.0001451576
0.0003529119
0.0003523523
0.0003518007
9.802875e-05
9.791925e-05
9.780873e-05
9.769557e-05
9.758798e-05
0.0001461958
0.0001459996
0.0001457982
0.0001455899
0.0001453759
0.0003534647
0.0003529468
0.0003524425
0.0003519398
9.576065e-05
9.628105e-05
9.561433e-05
9.661559e-05
9.626328e-05
9.550219e-05
9.68577e-05
9.662542e-05
9.626114e-05
9.543426e-05
9.704743e-05
9.686868e-05
9.664365e-05
9.627488e-05
9.545935e-05
9.720392e-05
9.705077e-05
9.688237e-05
9.666475e-05
9.633335e-05
0.0001432247
9.733754e-05
9.719757e-05
9.705366e-05
9.689278e-05
9.670919e-05
0.0001445406
0.0001433301
9.745466e-05
9.732178e-05
9.71892e-05
9.705071e-05
9.69164e-05
0.0001450718
0.000144585
0.0001435121
9.755823e-05
9.742988e-05
9.730272e-05
9.717346e-05
9.705516e-05
0.0001453507
0.0001450607
0.0001446341
0.0001437371
9.765282e-05
9.75281e-05
9.740437e-05
9.727927e-05
9.716584e-05
0.0001455402
0.0001453088
0.0001450423
0.0001446747
0.0001439775
9.773922e-05
9.761762e-05
9.749634e-05
9.737342e-05
9.726052e-05
0.0001456897
0.000145475
0.0001452492
0.0001449961
0.0001446783
0.0003510932
9.783343e-05
9.77156e-05
9.759755e-05
9.747744e-05
9.736566e-05
0.0001458522
0.0001456451
0.000145432
0.0001452081
0.0001449668
0.0003523379
0.0003514931
9.793173e-05
9.781799e-05
9.77036e-05
9.758682e-05
9.747685e-05
0.0001460239
0.0001458222
0.0001456155
0.0001454012
0.0001451794
0.0003529591
0.0003523774
0.0003517652
9.803288e-05
9.792356e-05
9.781326e-05
9.770035e-05
9.759309e-05
0.0001462039
0.0001460082
0.0001458074
0.0001455997
0.0001453863
0.0003534902
0.0003529693
0.0003524582
0.0003519376
9.813433e-05
9.802957e-05
9.792361e-05
9.781489e-05
9.771091e-05
0.000146387
0.0001461979
0.0001460034
0.0001458021
0.0001455954
0.000354011
0.0003535101
0.0003530288
0.0003525343
0.0003520712
9.58858e-05
9.630417e-05
9.577681e-05
9.660533e-05
9.629115e-05
9.564902e-05
9.68442e-05
9.662236e-05
9.628686e-05
9.554426e-05
9.703909e-05
9.686238e-05
9.664295e-05
9.62894e-05
9.551663e-05
9.720392e-05
9.705077e-05
9.688237e-05
9.666475e-05
9.633335e-05
0.0001432247
9.73464e-05
9.720641e-05
9.706191e-05
9.689906e-05
9.671008e-05
0.0001445197
0.0001432459
9.747194e-05
9.733948e-05
9.720694e-05
9.706746e-05
9.692974e-05
0.000145077
0.000144549
0.000143355
9.758369e-05
9.745625e-05
9.732989e-05
9.720101e-05
9.708193e-05
0.0001453847
0.0001450762
0.0001445965
0.0001435334
9.768324e-05
9.755963e-05
9.743708e-05
9.731309e-05
9.720051e-05
0.0001455912
0.0001453537
0.0001450681
0.0001446439
0.0001437588
9.777423e-05
9.765415e-05
9.753463e-05
9.741369e-05
9.730312e-05
0.0001457563
0.0001455431
0.000145315
0.0001450492
0.0001446864
0.0003507186
9.785739e-05
9.774051e-05
9.762358e-05
9.750477e-05
9.739459e-05
0.0001458978
0.0001456925
0.0001454805
0.0001452551
0.000145005
0.0003523527
0.0003512587
9.794765e-05
9.783459e-05
9.7721e-05
9.760514e-05
9.749636e-05
0.0001460548
0.0001458549
0.0001456501
0.0001454373
0.0001452156
0.0003530354
0.0003524132
0.0003516916
9.804168e-05
9.793272e-05
9.782285e-05
9.771043e-05
9.760382e-05
0.0001462209
0.0001460262
0.0001458265
0.00014562
0.0001454076
0.0003535414
0.000353013
0.0003524849
0.0003519235
9.813829e-05
9.80337e-05
9.792792e-05
9.781942e-05
9.771573e-05
0.0001463947
0.000146206
0.000146012
0.0001458113
0.0001456052
0.0003540356
0.0003535336
0.00035305
0.0003525509
0.0003520792
9.823508e-05
9.813498e-05
9.803351e-05
9.792919e-05
9.782892e-05
0.0001465708
0.0001463887
0.0001462011
0.0001460067
0.0001458068
0.0003545361
0.0003540448
0.0003535745
0.0003530985
0.0003526269
9.597599e-05
9.63009e-05
9.590017e-05
9.658722e-05
9.631409e-05
9.580895e-05
9.682089e-05
9.661218e-05
9.63142e-05
9.568891e-05
9.702201e-05
9.684897e-05
9.663981e-05
9.631464e-05
9.562472e-05
9.719503e-05
9.704249e-05
9.687608e-05
9.666398e-05
9.634752e-05
0.0001433097
9.73464e-05
9.720641e-05
9.706191e-05
9.689906e-05
9.671008e-05
0.0001445197
0.0001432459
9.748055e-05
9.734829e-05
9.721573e-05
9.707567e-05
9.693604e-05
0.0001450784
0.0001445283
0.0001432717
9.760033e-05
9.747342e-05
9.734748e-05
9.721864e-05
9.709865e-05
0.0001454045
0.0001450814
0.000144561
0.0001433779
9.770765e-05
9.758492e-05
9.746328e-05
9.734009e-05
9.722796e-05
0.000145631
0.0001453874
0.0001450835
0.0001446066
0.000143557
9.78034e-05
9.768433e-05
9.756594e-05
9.744617e-05
9.733683e-05
0.0001458078
0.0001455934
0.0001453592
0.0001450745
0.0001446556
0.0003502071
9.78908e-05
9.777527e-05
9.765991e-05
9.754287e-05
9.743487e-05
0.0001459612
0.0001457585
0.0001455479
0.0001453202
0.0001450576
0.0003523669
0.0003508952
9.797062e-05
9.785841e-05
9.77458e-05
9.763109e-05
9.752375e-05
0.0001460979
0.0001459001
0.0001456971
0.0001454853
0.0001452621
0.0003531226
0.000352424
0.0003514943
9.805694e-05
9.794858e-05
9.783941e-05
9.772781e-05
9.762224e-05
0.0001462501
0.000146057
0.0001458591
0.0001456544
0.0001454434
0.000353626
0.0003530833
0.0003525249
0.0003518912
9.814674e-05
9.804247e-05
9.793707e-05
9.782901e-05
9.772589e-05
0.0001464107
0.0001462229
0.0001460299
0.0001458303
0.0001456254
0.0003540856
0.0003535803
0.0003530907
0.0003525802
0.0003520896
9.82389e-05
9.813893e-05
9.803763e-05
9.793351e-05
9.783349e-05
0.000146578
0.0001463963
0.0001462092
0.0001460153
0.0001458159
0.0003545592
0.0003540673
0.0003535959
0.0003531182
0.0003526448
9.833113e-05
9.823559e-05
9.813854e-05
9.803859e-05
9.794208e-05
0.0001467473
0.0001465722
0.0001463915
0.0001462039
0.0001460107
0.0003550429
0.0003545599
0.0003540946
0.0003536277
0.000353168
9.602421e-05
9.629917e-05
9.598912e-05
9.655052e-05
9.631083e-05
9.59297e-05
9.67894e-05
9.659433e-05
9.633666e-05
9.584617e-05
9.699457e-05
9.682588e-05
9.662959e-05
9.634141e-05
9.576639e-05
9.717704e-05
9.702554e-05
9.686273e-05
9.666075e-05
9.637209e-05
0.00014347
9.733754e-05
9.719757e-05
9.705366e-05
9.689278e-05
9.670919e-05
0.0001445406
0.0001433301
9.748055e-05
9.734829e-05
9.721573e-05
9.707567e-05
9.693604e-05
0.0001450784
0.0001445283
0.0001432717
9.760864e-05
9.748199e-05
9.735624e-05
9.722738e-05
9.710684e-05
0.0001454139
0.0001450828
0.0001445405
0.0001432954
9.772365e-05
9.760146e-05
9.748035e-05
9.735758e-05
9.724553e-05
0.0001456559
0.000145407
0.0001450886
0.0001445714
0.000143403
9.782684e-05
9.770859e-05
9.759107e-05
9.747221e-05
9.736372e-05
0.0001458486
0.0001456327
0.0001453925
0.0001450896
0.0001446186
0.0003497377
9.791885e-05
9.780423e-05
9.76899e-05
9.757397e-05
9.746723e-05
0.0001460112
0.0001458094
0.0001455976
0.0001453638
0.0001450824
0.0003522907
0.0003503948
9.800261e-05
9.78916e-05
9.778039e-05
9.766725e-05
9.756185e-05
0.0001461579
0.0001459628
0.0001457625
0.000145552
0.0001453266
0.0003532412
0.00035243
0.0003511345
9.807903e-05
9.797141e-05
9.786313e-05
9.775253e-05
9.764823e-05
0.0001462909
0.0001460997
0.0001459038
0.0001457009
0.000145491
0.0003537326
0.0003531595
0.0003525372
0.0003517481
9.816141e-05
9.805767e-05
9.79529e-05
9.784556e-05
9.774335e-05
0.0001464382
0.0001462518
0.0001460605
0.0001458627
0.0001456595
0.0003541692
0.0003536573
0.0003531568
0.000352627
0.0003521092
9.824703e-05
9.814736e-05
9.804639e-05
9.794266e-05
9.784314e-05
0.0001465932
0.0001464123
0.000146226
0.0001460331
0.0001458348
0.0003546065
0.0003541127
0.0003536381
0.0003531557
0.0003526775
9.83348e-05
9.823939e-05
9.81425e-05
9.804272e-05
9.794643e-05
0.0001467542
0.0001465794
0.0001463991
0.0001462119
0.0001460192
0.0003550644
0.000354581
0.0003541149
0.0003536469
0.0003531862
9.842257e-05
9.833151e-05
9.823883e-05
9.814319e-05
9.805048e-05
0.0001469167
0.0001467484
0.0001465746
0.0001463938
0.0001462073
0.0003555328
0.0003550583
0.0003545977
0.0003541345
0.0003536804
9.604984e-05
9.629223e-05
9.603657e-05
9.652482e-05
9.6309e-05
9.601665e-05
9.67436e-05
9.655801e-05
9.633293e-05
9.596411e-05
9.69592e-05
9.679478e-05
9.661182e-05
9.636331e-05
9.591964e-05
9.714887e-05
9.699835e-05
9.683978e-05
9.665047e-05
9.639788e-05
0.0001436801
9.731972e-05
9.717972e-05
9.703682e-05
9.687948e-05
9.670573e-05
0.000144577
0.0001434888
9.747194e-05
9.733948e-05
9.720694e-05
9.706746e-05
9.692974e-05
0.000145077
0.000144549
0.000143355
9.760864e-05
9.748199e-05
9.735624e-05
9.722738e-05
9.710684e-05
0.0001454139
0.0001450828
0.0001445405
0.0001432954
9.773165e-05
9.760972e-05
9.748887e-05
9.736629e-05
9.725424e-05
0.0001456681
0.0001454164
0.00014509
0.0001445513
0.0001433214
9.784225e-05
9.77245e-05
9.760752e-05
9.748918e-05
9.738114e-05
0.0001458748
0.0001456574
0.0001454119
0.0001450947
0.0001445838
0.0003493797
9.794142e-05
9.782753e-05
9.771401e-05
9.759896e-05
9.749316e-05
0.0001460513
0.0001458498
0.0001456365
0.0001453966
0.0001450972
0.0003522035
0.0003499462
9.802967e-05
9.791947e-05
9.780917e-05
9.769705e-05
9.759283e-05
0.000146206
0.0001460124
0.0001458127
0.000145601
0.0001453696
0.0003532949
0.0003523437
0.0003506248
9.810977e-05
9.800322e-05
9.789617e-05
9.778697e-05
9.768438e-05
0.0001463476
0.0001461592
0.0001459661
0.0001457657
0.0001455571
0.0003538798
0.0003532665
0.0003525423
0.0003513576
9.818271e-05
9.807963e-05
9.797565e-05
9.786919e-05
9.77681e-05
0.0001464769
0.0001462923
0.0001461029
0.000145907
0.0001457056
0.0003542784
0.0003537514
0.0003532249
0.0003526469
0.0003520585
9.826117e-05
9.816197e-05
9.806156e-05
9.795846e-05
9.785975e-05
0.0001466193
0.0001464396
0.0001462548
0.0001460635
0.0001458669
0.0003546861
0.0003541884
0.0003537084
0.0003532183
0.0003527349
9.834266e-05
9.82475e-05
9.815091e-05
9.805147e-05
9.795563e-05
0.0001467686
0.0001465945
0.0001464149
0.0001462286
0.0001460369
0.0003551088
0.0003546238
0.0003541555
0.0003536842
0.0003532208
9.842612e-05
9.833517e-05
9.824263e-05
9.814714e-05
9.805463e-05
0.0001469232
0.0001467553
0.0001465817
0.0001464013
0.0001462152
0.0003555528
0.0003550779
0.0003546166
0.0003541524
0.0003536973
9.850951e-05
9.842284e-05
9.833445e-05
9.824308e-05
9.815419e-05
0.0001470789
0.0001469175
0.0001467505
0.0001465765
0.0001463967
0.0003560059
0.000355541
0.000355086
0.0003546266
0.0003541738
9.606002e-05
9.628753e-05
9.606177e-05
9.650399e-05
9.630191e-05
9.606275e-05
9.671131e-05
9.653247e-05
9.633058e-05
9.604883e-05
9.69121e-05
9.674945e-05
9.657555e-05
9.635898e-05
9.603283e-05
9.711316e-05
9.696339e-05
9.680893e-05
9.66327e-05
9.641853e-05
0.0001439072
9.729213e-05
9.715179e-05
9.700983e-05
9.685665e-05
9.669513e-05
0.0001446152
0.0001436967
9.745466e-05
9.732178e-05
9.71892e-05
9.705071e-05
9.69164e-05
0.0001450718
0.000144585
0.0001435121
9.760033e-05
9.747342e-05
9.734748e-05
9.721864e-05
9.709865e-05
0.0001454045
0.0001450814
0.000144561
0.0001433779
9.773165e-05
9.760972e-05
9.748887e-05
9.736629e-05
9.725424e-05
0.0001456681
0.0001454164
0.00014509
0.0001445513
0.0001433214
9.784996e-05
9.773246e-05
9.761574e-05
9.749766e-05
9.738981e-05
0.0001458878
0.0001456695
0.0001454212
0.0001450961
0.0001445638
0.00034919
9.79563e-05
9.784286e-05
9.772984e-05
9.761532e-05
9.751006e-05
0.0001460772
0.0001458757
0.000145661
0.0001454159
0.0001451023
0.000352123
0.000349608
9.805146e-05
9.794191e-05
9.783235e-05
9.772103e-05
9.761772e-05
0.0001462446
0.000146052
0.0001458528
0.0001456396
0.000145402
0.0003533282
0.0003522556
0.0003501838
9.813593e-05
9.803011e-05
9.792387e-05
9.781558e-05
9.771407e-05
0.0001463937
0.0001462068
0.0001460151
0.0001458154
0.0001456056
0.0003539765
0.0003533055
0.0003524402
0.0003508197
9.821233e-05
9.81102e-05
9.800731e-05
9.790209e-05
9.780252e-05
0.0001465308
0.0001463486
0.0001461618
0.0001459687
0.0001457699
0.0003544303
0.0003538871
0.0003533299
0.0003526422
0.0003516344
9.828176e-05
9.818316e-05
9.808345e-05
9.798113e-05
9.78834e-05
0.0001466562
0.000146478
0.0001462949
0.0001461054
0.0001459109
0.0003547923
0.0003542854
0.0003537915
0.00035328
0.0003527751
9.835632e-05
9.826159e-05
9.816549e-05
9.806662e-05
9.797148e-05
0.0001467934
0.0001466204
0.0001464421
0.0001462572
0.0001460671
0.0003551837
0.0003546959
0.0003542236
0.0003537473
0.0003532811
9.843372e-05
9.8343e-05
9.825073e-05
9.815555e-05
9.806343e-05
0.0001469369
0.0001467696
0.0001465967
0.0001464171
0.0001462319
0.0003555944
0.000355118
0.0003546546
0.0003541875
0.0003537295
9.851294e-05
9.842638e-05
9.833812e-05
9.824688e-05
9.815816e-05
0.0001470851
0.000146924
0.0001467572
0.0001465836
0.0001464042
0.0003560247
0.0003555593
0.0003551035
0.000354643
0.0003541891
9.859203e-05
9.850968e-05
9.842553e-05
9.833837e-05
9.825329e-05
0.0001472341
0.0001470796
0.0001469192
0.0001467521
0.000146579
0.0003564625
0.0003560083
0.0003555603
0.0003551056
0.0003546548
9.628457e-05
9.607176e-05
9.649163e-05
9.629709e-05
9.608713e-05
9.668715e-05
9.651165e-05
9.6323e-05
9.609337e-05
9.687877e-05
9.67174e-05
9.65499e-05
9.635598e-05
9.611357e-05
9.706745e-05
9.691675e-05
9.676384e-05
9.659639e-05
9.641252e-05
0.0001440745
9.725743e-05
9.711647e-05
9.697516e-05
9.6826e-05
9.667693e-05
0.0001446459
0.0001439217
9.742808e-05
9.729442e-05
9.716147e-05
9.702389e-05
9.68935e-05
0.000145056
0.0001446229
0.0001437178
9.758369e-05
9.745625e-05
9.732989e-05
9.720101e-05
9.708193e-05
0.0001453847
0.0001450762
0.0001445965
0.0001435334
9.772365e-05
9.760146e-05
9.748035e-05
9.735758e-05
9.724553e-05
0.0001456559
0.000145407
0.0001450886
0.0001445714
0.000143403
9.784996e-05
9.773246e-05
9.761574e-05
9.749766e-05
9.738981e-05
0.0001458878
0.0001456695
0.0001454212
0.0001450961
0.0001445638
0.00034919
9.796374e-05
9.785054e-05
9.773776e-05
9.76235e-05
9.751851e-05
0.0001460901
0.0001458886
0.000145673
0.0001454251
0.0001451037
0.0003520773
0.0003494297
9.806586e-05
9.795672e-05
9.78476e-05
9.773678e-05
9.763401e-05
0.0001462698
0.0001460778
0.0001458785
0.0001456638
0.0001454211
0.0003533398
0.0003521782
0.000349858
9.815703e-05
9.805179e-05
9.794621e-05
9.783864e-05
9.773795e-05
0.0001464308
0.0001462451
0.0001460544
0.0001458551
0.0001456437
0.0003540508
0.0003533309
0.0003523468
0.0003503763
9.823769e-05
9.813622e-05
9.803406e-05
9.792965e-05
9.783103e-05
0.000146575
0.0001463943
0.000146209
0.0001460172
0.000145819
0.0003545405
0.000353969
0.0003533524
0.0003525205
0.0003510333
9.831037e-05
9.821262e-05
9.811389e-05
9.801268e-05
9.791629e-05
0.0001467075
0.0001465315
0.0001463508
0.000146164
0.0001459721
0.0003549406
0.0003544273
0.0003539258
0.0003533817
0.0003527865
0.0009315741
9.837627e-05
9.828207e-05
9.81866e-05
9.808843e-05
9.799416e-05
0.0001468287
0.000146657
0.0001464802
0.000146297
0.0001461087
0.0003552851
0.0003547908
0.0003543093
0.0003538195
0.0003533404
9.844695e-05
9.835661e-05
9.826478e-05
9.81701e-05
9.807862e-05
0.0001469606
0.0001467942
0.0001466225
0.0001464441
0.0001462602
0.0003556647
0.0003551858
0.000354719
0.0003542474
0.0003537858
9.852031e-05
9.843395e-05
9.834593e-05
9.825498e-05
9.816661e-05
0.0001470982
0.0001469377
0.0001467715
0.0001465985
0.0001464198
0.0003560637
0.0003555968
0.0003551389
0.0003546755
0.0003542185
9.859536e-05
9.851311e-05
9.842907e-05
9.834203e-05
9.825711e-05
0.0001472401
0.0001470857
0.0001469257
0.0001467588
0.000146586
0.0003564802
0.0003560253
0.0003555765
0.0003551207
0.0003546686
9.867022e-05
9.859212e-05
9.851215e-05
9.842914e-05
9.834787e-05
0.0001473825
0.0001472346
0.000147081
0.0001469206
0.0001467542
0.0003569025
0.0003564599
0.0003560205
0.0003555723
0.0003551246
9.648541e-05
9.629406e-05
9.609673e-05
9.667302e-05
9.649926e-05
9.631783e-05
9.611681e-05
9.685452e-05
9.66933e-05
9.652886e-05
9.634781e-05
9.615521e-05
9.703501e-05
9.688368e-05
9.673182e-05
9.657053e-05
9.64079e-05
0.0001441937
9.721398e-05
9.707119e-05
9.692881e-05
9.678106e-05
9.663986e-05
0.0001446369
0.0001440874
9.739481e-05
9.726006e-05
9.712645e-05
9.698949e-05
9.686275e-05
0.0001450291
0.0001446537
0.0001439407
9.755823e-05
9.742988e-05
9.730272e-05
9.717346e-05
9.705516e-05
0.0001453507
0.0001450607
0.0001446341
0.0001437371
9.770765e-05
9.758492e-05
9.746328e-05
9.734009e-05
9.722796e-05
0.000145631
0.0001453874
0.0001450835
0.0001446066
0.000143557
9.784225e-05
9.77245e-05
9.760752e-05
9.748918e-05
9.738114e-05
0.0001458748
0.0001456574
0.0001454119
0.0001450947
0.0001445838
0.0003493797
9.796374e-05
9.785054e-05
9.773776e-05
9.76235e-05
9.751851e-05
0.0001460901
0.0001458886
0.000145673
0.0001454251
0.0001451037
0.0003520773
0.0003494297
9.807307e-05
9.796413e-05
9.785525e-05
9.774467e-05
9.764216e-05
0.0001462824
0.0001460906
0.0001458913
0.0001456757
0.0001454303
0.0003533435
0.0003521352
0.0003496879
9.8171e-05
9.806612e-05
9.796095e-05
9.785383e-05
9.775364e-05
0.0001464551
0.0001462701
0.0001460799
0.0001458805
0.0001456676
0.000354095
0.0003533394
0.0003522698
0.0003500574
9.825817e-05
9.815721e-05
9.805564e-05
9.795188e-05
9.7854e-05
0.0001466106
0.0001464311
0.000146247
0.0001460562
0.0001458583
0.0003546283
0.0003540337
0.0003533682
0.0003524196
0.000350568
9.833502e-05
9.823785e-05
9.813977e-05
9.803929e-05
9.794376e-05
0.00014675
0.0001465754
0.0001463961
0.0001462107
0.0001460202
0.0003550532
0.000354524
0.0003539925
0.0003533875
0.0003526276
0.0009290664
9.840397e-05
9.831054e-05
9.821595e-05
9.811877e-05
9.80257e-05
0.0001468777
0.000146708
0.0001465333
0.0001463525
0.0001461668
0.0003554271
0.0003549308
0.0003544509
0.0003539543
0.0003534692
0.0009349984
0.000932318
9.846632e-05
9.837646e-05
9.828519e-05
9.819114e-05
9.810043e-05
0.0001469944
0.0001468292
0.0001466588
0.0001464819
0.0001462997
0.0003557611
0.0003552769
0.000354803
0.0003543208
0.0003538472
9.853314e-05
9.844713e-05
9.835951e-05
9.8269e-05
9.818119e-05
0.0001471209
0.0001469612
0.000146796
0.0001466241
0.0001464466
0.0003561299
0.0003556606
0.0003551993
0.0003547314
0.0003542697
9.860252e-05
9.852045e-05
9.843663e-05
9.834984e-05
9.826523e-05
0.0001472527
0.0001470988
0.0001469393
0.000146773
0.0001466009
0.0003565169
0.0003560605
0.0003556096
0.0003551508
0.0003546953
9.867346e-05
9.859545e-05
9.851557e-05
9.843267e-05
9.835155e-05
0.0001473882
0.0001472405
0.0001470872
0.000146927
0.0001467609
0.0003569191
0.0003564759
0.0003560356
0.0003555862
0.0003551371
9.874417e-05
9.867024e-05
9.859438e-05
9.851548e-05
9.843801e-05
0.0001475241
0.0001473829
0.0001472359
0.0001470822
0.0001469224
0.0003573259
0.0003568958
0.0003564662
0.000356026
0.0003555835
9.666614e-05
9.649301e-05
9.631462e-05
9.612596e-05
9.684041e-05
9.667919e-05
9.651628e-05
9.634222e-05
9.617683e-05
9.701173e-05
9.685951e-05
9.670763e-05
9.654921e-05
9.639836e-05
0.0001442549
9.718307e-05
9.7039e-05
9.689583e-05
9.674902e-05
9.661314e-05
0.0001446298
0.0001442052
9.735374e-05
9.7217e-05
9.708146e-05
9.694336e-05
9.681744e-05
0.000144974
0.000144645
0.0001441044
9.752642e-05
9.739691e-05
9.726864e-05
9.71387e-05
9.702079e-05
0.0001453051
0.0001450343
0.0001446648
0.0001439579
9.768324e-05
9.755963e-05
9.743708e-05
9.731309e-05
9.720051e-05
0.0001455912
0.0001453537
0.0001450681
0.0001446439
0.0001437588
9.782684e-05
9.770859e-05
9.759107e-05
9.747221e-05
9.736372e-05
0.0001458486
0.0001456327
0.0001453925
0.0001450896
0.0001446186
0.0003497377
9.79563e-05
9.784286e-05
9.772984e-05
9.761532e-05
9.751006e-05
0.0001460772
0.0001458757
0.000145661
0.0001454159
0.0001451023
0.000352123
0.000349608
9.807307e-05
9.796413e-05
9.785525e-05
9.774467e-05
9.764216e-05
0.0001462824
0.0001460906
0.0001458913
0.0001456757
0.0001454303
0.0003533435
0.0003521352
0.0003496879
9.8178e-05
9.807331e-05
9.796834e-05
9.786144e-05
9.77615e-05
0.0001464673
0.0001462826
0.0001460927
0.0001458932
0.0001456795
0.0003541163
0.0003533422
0.0003522281
0.0003498927
9.827175e-05
9.817112e-05
9.806991e-05
9.796656e-05
9.786914e-05
0.000146634
0.0001464552
0.0001462718
0.0001460815
0.0001458835
0.0003546839
0.0003540728
0.0003533726
0.0003523415
0.000350249
9.835493e-05
9.825823e-05
9.816068e-05
9.806078e-05
9.796591e-05
0.0001467843
0.0001466107
0.0001464326
0.0001462484
0.0001460588
0.0003551441
0.0003546025
0.0003540471
0.0003533938
0.0003525078
0.0009273407
9.842797e-05
9.833507e-05
9.824106e-05
9.814453e-05
9.805223e-05
0.0001469187
0.0001467502
0.0001465769
0.0001463974
0.0001462131
0.0003555379
0.0003550317
0.0003545345
0.000354007
0.0003534462
0.0009343214
0.0009300577
9.84932e-05
9.840404e-05
9.831356e-05
9.82204e-05
9.813075e-05
0.0001470415
0.000146878
0.0001467095
0.0001465347
0.0001463549
0.0003558965
0.0003554125
0.0003549442
0.0003544658
0.0003540126
0.0009371635
0.0009353009
0.0009327423
9.855199e-05
9.846641e-05
9.837929e-05
9.828935e-05
9.820223e-05
0.0001471534
0.0001469948
0.0001468308
0.0001466602
0.0001464842
0.0003562216
0.0003557476
0.0003552802
0.000354803
0.0003543291
9.861499e-05
9.853324e-05
9.844978e-05
9.836339e-05
9.827929e-05
0.0001472745
0.0001471213
0.0001469627
0.0001467973
0.0001466263
0.0003565795
0.0003561206
0.0003556662
0.0003552027
0.0003547419
9.868042e-05
9.860258e-05
9.85229e-05
9.844023e-05
9.835938e-05
0.0001474003
0.0001472531
0.0001471002
0.0001469405
0.000146775
0.0003569539
0.0003565091
0.0003560665
0.0003556141
0.0003551615
9.874732e-05
9.867347e-05
9.85977e-05
9.85189e-05
9.844156e-05
0.0001475296
0.0001473885
0.0001472418
0.0001470883
0.0001469288
0.0003573416
0.0003569109
0.0003564804
0.0003560389
0.000355595
9.881393e-05
9.874413e-05
9.867232e-05
9.859747e-05
9.852377e-05
0.0001476591
0.0001475244
0.0001473839
0.0001472368
0.0001470837
0.0003577327
0.0003573158
0.0003568972
0.0003564664
0.0003560309
9.683362e-05
9.667229e-05
9.650993e-05
9.63388e-05
9.61851e-05
9.699823e-05
9.684543e-05
9.66934e-05
9.65364e-05
9.639184e-05
0.0001442866
9.716108e-05
9.701581e-05
9.687163e-05
9.672468e-05
9.659101e-05
0.0001446152
0.0001442655
9.732447e-05
9.718632e-05
9.704939e-05
9.691043e-05
9.67849e-05
0.0001449342
0.0001446381
0.0001442207
9.74876e-05
9.735619e-05
9.722585e-05
9.709395e-05
9.697448e-05
0.0001452378
0.00014498
0.0001446564
0.0001441198
9.765282e-05
9.75281e-05
9.740437e-05
9.727927e-05
9.716584e-05
0.0001455402
0.0001453088
0.0001450423
0.0001446747
0.0001439775
9.78034e-05
9.768433e-05
9.756594e-05
9.744617e-05
9.733683e-05
0.0001458078
0.0001455934
0.0001453592
0.0001450745
0.0001446556
0.0003502071
9.794142e-05
9.782753e-05
9.771401e-05
9.759896e-05
9.749316e-05
0.0001460513
0.0001458498
0.0001456365
0.0001453966
0.0001450972
0.0003522035
0.0003499462
9.806586e-05
9.795672e-05
9.78476e-05
9.773678e-05
9.763401e-05
0.0001462698
0.0001460778
0.0001458785
0.0001456638
0.0001454211