/*--------------------------------*- C++ -*----------------------------------*\
| =========                 |                                                 |
| \\      /  F ield         | OpenFOAM: The Open Source CFD Toolbox           |
|  \\    /   O peration     | Version:  2306                                  |
|   \\  /    A nd           | Website:  www.openfoam.com                      |
|    \\/     M anipulation  |                                                 |
\*---------------------------------------------------------------------------*/
FoamFile
{
    version     2.0;
    format      ascii;
    arch        "LSB;label=32;scalar=64";
    class       volScalarField;
    location    "0.6/fuel";
    object      eta.fuel;
}
// * * * * * * * * * * * * * * * * * * * * * * * * * * * * * * * * * * * * * //

dimensions      [1 2 -3 0 0 -1 0];

internalField   nonuniform List<scalar> 
16000
(
0.1034574
0.1039338
0.09850131
0.09984982
0.1048707
0.09883358
0.1002985
0.09419659
0.09518049
0.09725403
0.106242
0.09947279
0.1011801
0.09446316
0.09549428
0.09768433
0.09071864
0.09112599
0.09277554
0.09563402
0.1079418
0.1003764
0.1024699
0.0949703
0.0960974
0.09852976
0.09094511
0.09137822
0.09307666
0.09605487
0.08781652
0.0878521
0.08889207
0.09125544
0.09496798
0.1096653
0.101434
0.1040676
0.09567407
0.09694948
0.09976711
0.09137255
0.0918576
0.09365515
0.09688216
0.08801515
0.08806668
0.08913426
0.09154939
0.09538803
0.08530665
0.08512122
0.08576017
0.08746783
0.090601
0
0.1107799
0.1024212
0.1056866
0.09647187
0.09794574
0.1013013
0.09195733
0.09252241
0.09447239
0.09809468
0.08838779
0.08847127
0.08959427
0.09211414
0.09621477
0.08548444
0.08530967
0.08596635
0.08770407
0.09089315
0
0.08308388
0.08275945
0.08314987
0.08441897
0.08683637
0
0
0.1113483
0.1030006
0.1067249
0.09717855
0.09887424
0.1028585
0.09260345
0.09327496
0.09542776
0.09960202
0.08889158
0.08902433
0.09023201
0.09291238
0.09742938
0.08581641
0.08566281
0.08635479
0.08815269
0.09145472
0
0.08324554
0.08292833
0.08333106
0.08462004
0.08707064
0
0
0.08107594
0.08066727
0.08089329
0.08188107
0.08381342
0
0
0
0.1115929
0.103258
0.1072479
0.0975611
0.09941476
0.1038524
0.0931503
0.09394007
0.09631789
0.1011383
0.08943598
0.08963427
0.09095338
0.09384628
0.09894576
0.08626061
0.08613973
0.08688549
0.0887747
0.09224931
0
0.08354629
0.08324328
0.08367032
0.08499873
0.08751561
0
0
0.08122473
0.080821
0.08105578
0.08205779
0.08401259
0
0
0
0.07923602
0.07877624
0.07889442
0.07968877
0.08130122
0
0
0
0
0.1116774
0.1033458
0.1074685
0.09770476
0.09965159
0.1043498
0.09342229
0.09429684
0.09683274
0.1021179
0.08987756
0.09014882
0.09159001
0.09471738
0.1005011
0.08673122
0.08665392
0.08747003
0.08947825
0.09318067
0
0.08394515
0.08366419
0.08412814
0.085516
0.08813289
0
0
0.08150073
0.08110664
0.08135854
0.08238851
0.08438773
0
0
0
0.07937427
0.07891789
0.07904245
0.07984728
0.08147617
0
0
0
0
0.07753066
0.0770421
0.07708734
0.07774765
0.07913355
0
0
0
0
0
0.1116774
0.1033669
0.1075429
0.09773457
0.09973003
0.1045576
0.09350209
0.09442837
0.0970563
0.1026086
0.09007759
0.09040181
0.09192871
0.09521914
0.1014961
0.08709778
0.08706916
0.08796186
0.09009884
0.09405156
0
0.0843603
0.08410889
0.08462089
0.0860854
0.08883159
0
0
0.08186394
0.08148493
0.08176279
0.08283466
0.08490025
0
0
0
0.07963017
0.07918031
0.07931723
0.08014248
0.08180358
0
0
0
0
0.07766011
0.07717386
0.07722384
0.07789212
0.07929044
0
0
0
0
0
0.07593527
0.07543327
0.07542944
0.07599303
0.0772157
0
0
0
0
0
0
0.1115929
0.1033669
0.1075429
0.0977318
0.09974773
0.1046268
0.09349895
0.09445359
0.09712902
0.1028142
0.09011595
0.09047356
0.09205173
0.09543631
0.1019985
0.08724721
0.08725435
0.08820105
0.09042679
0.09455246
0
0.08467145
0.0844533
0.0850173
0.08656363
0.08944824
0
0
0.08223605
0.08187743
0.08218897
0.08331432
0.08546448
0
0
0
0.07996466
0.07952512
0.07968075
0.08053643
0.08224525
0
0
0
0
0.07789937
0.07741744
0.07747648
0.07816011
0.07958257
0
0
0
0
0
0.07605729
0.07555679
0.07555651
0.0761263
0.07735867
0
0
0
0
0
0
0.07443106
0.07392658
0.07389043
0.07438315
0.07548298
0
0
0
0
0
0
0
0.1113483
0.1033458
0.1074685
0.0977318
0.09974773
0.1046268
0.09348238
0.0944495
0.09714475
0.102883
0.09009135
0.090468
0.09207381
0.09550673
0.1022123
0.08725674
0.08728706
0.08826681
0.09054469
0.09476989
0
0.08478418
0.08459074
0.08519147
0.08679394
0.0897725
0
0
0.08250496
0.08216953
0.08251737
0.08369904
0.08593795
0
0
0
0.08030254
0.07987712
0.08005697
0.08095114
0.08271993
0
0
0
0
0.07821028
0.07773529
0.07780804
0.07851443
0.07997239
0
0
0
0
0
0.07628258
0.07578478
0.0757912
0.0763728
0.07762385
0
0
0
0
0
0
0.07454669
0.07404312
0.07400964
0.07450726
0.07561486
0
0
0
0
0
0
0
0.07300375
0.07250432
0.07244806
0.07288836
0.07389366
0
0
0
0
0
0
0
0
0.1107799
0.103258
0.1072479
0.09773457
0.09973003
0.1045576
0.09348238
0.0944495
0.09714475
0.102883
0.09006573
0.09045105
0.09206887
0.09552191
0.1022855
0.08721733
0.08726125
0.08825943
0.090565
0.09484136
0
0.08477319
0.08459616
0.08521978
0.08685566
0.08988858
0
0
0.08259032
0.08227231
0.08264577
0.08386581
0.08616413
0
0
0
0.08053852
0.08012938
0.08033521
0.0812694
0.08309991
0
0
0
0
0.0785204
0.07805512
0.07814554
0.07888047
0.08038248
0
0
0
0
0
0.07657383
0.07608053
0.07609705
0.07669605
0.07797437
0
0
0
0
0
0
0.07476009
0.07425804
0.07422949
0.07473634
0.07585876
0
0
0
0
0
0
0
0.07311384
0.07261488
0.07256063
0.07300485
0.0740165
0
0
0
0
0
0
0
0
0.07164165
0.07115307
0.07108535
0.07148692
0.07241821
0
0
0
0
0
0
0
0
0
0.1096653
0.1030006
0.1067249
0.09770476
0.09965159
0.1043498
0.09349895
0.09445359
0.09712902
0.1028142
0.09006573
0.09045105
0.09206887
0.09552191
0.1022855
0.0871855
0.08723574
0.08824217
0.09055967
0.09485737
0
0.08472344
0.0845563
0.08519294
0.08684699
0.08990845
0
0
0.08256445
0.08225829
0.0826479
0.0838909
0.08622366
0
0
0
0.08060311
0.08020633
0.08043042
0.08139154
0.08326275
0
0
0
0
0.07873022
0.07827636
0.07838562
0.0791498
0.08069628
0
0
0
0
0
0.07686111
0.07637429
0.07640383
0.07702443
0.07833616
0
0
0
0
0
0
0.07503475
0.07453538
0.07451427
0.07503464
0.07617852
0
0
0
0
0
0
0
0.07331701
0.07281868
0.07276803
0.07321954
0.07424318
0
0
0
0
0
0
0
0
0.07174692
0.07125845
0.07119223
0.07159697
0.07253351
0
0
0
0
0
0
0
0
0
0.07033634
0.06986185
0.0697895
0.07016228
0.07103497
0
0
0
0
0
0
0
0
0
0
0.1079418
0.1024212
0.1056866
0.0975611
0.09941476
0.1038524
0.09350209
0.09442837
0.0970563
0.1026086
0.09009135
0.090468
0.09207381
0.09550673
0.1022123
0.0871855
0.08723574
0.08824217
0.09055967
0.09485737
0
0.08468733
0.08452487
0.08516744
0.08682949
0.08990315
0
0
0.08250742
0.08220856
0.08260751
0.08386316
0.08621421
0
0
0
0.08056634
0.08017819
0.08041387
0.0813911
0.08328576
0
0
0
0
0.07877877
0.07833372
0.0784561
0.07923965
0.08081484
0
0
0
0
0
0.07704987
0.0765709
0.07661424
0.0772566
0.07860139
0
0
0
0
0
0
0.07530301
0.07480773
0.07479619
0.07533317
0.07650301
0
0
0
0
0
0
0
0.0735775
0.07308048
0.07303529
0.07349741
0.07453826
0
0
0
0
0
0
0
0
0.07194122
0.07145268
0.07138907
0.07179962
0.07274599
0
0
0
0
0
0
0
0
0
0.07043733
0.06996271
0.06989144
0.07026682
0.07114392
0
0
0
0
0
0
0
0
0
0
0.06907974
0.0686228
0.06854998
0.06890195
0.06972747
0
0
0
0
0
0
0
0
0
0
0.106242
0.101434
0.1040676
0.09717855
0.09887424
0.1028585
0.09342229
0.09429684
0.09683274
0.1021179
0.09011595
0.09047356
0.09205173
0.09543631
0.1019985
0.08721733
0.08726125
0.08825943
0.090565
0.09484136
0
0.08468733
0.08452487
0.08516744
0.08682949
0.08990315
0
0
0.08246838
0.08217303
0.08257629
0.08383758
0.08619655
0
0
0
0.08050423
0.08012151
0.08036397
0.08135013
0.08325725
0
0
0
0
0.07873397
0.07829524
0.07842601
0.07922104
0.08081255
0
0
0
0
0
0.07708596
0.07661317
0.07666601
0.07732246
0.07868803
0
0
0
0
0
0
0.07547462
0.07498455
0.07498308
0.0755365
0.07673143
0
0
0
0
0
0
0
0.07382974
0.07333502
0.07329681
0.07377181
0.07483322
0
0
0
0
0
0
0
0
0.07218954
0.07170125
0.07164156
0.0720605
0.07302087
0
0
0
0
0
0
0
0
0
0.07062384
0.07014868
0.0700792
0.07045924
0.0713445
0
0
0
0
0
0
0
0
0
0
0.06917693
0.06871965
0.06864763
0.06900172
0.06983098
0
0
0
0
0
0
0
0
0
0
0.06786702
0.06742833
0.06735934
0.06769571
0.06848332
0
0
0
0
0
0
0
0
0
0
0.1048707
0.1003764
0.1024699
0.09647187
0.09794574
0.1013013
0.0931503
0.09394007
0.09631789
0.1011383
0.09007759
0.09040181
0.09192871
0.09521914
0.1014961
0.08725674
0.08728706
0.08826681
0.09054469
0.09476989
0
0.08472344
0.0845563
0.08519294
0.08684699
0.08990845
0
0
0.08246838
0.08217303
0.08257629
0.08383758
0.08619655
0
0
0
0.08046322
0.08008315
0.08032878
0.08131893
0.08323147
0
0
0
0
0.07866833
0.07823369
0.0783694
0.07917079
0.08077089
0
0
0
0
0
0.07703527
0.07656708
0.076626
0.07729069
0.0786678
0
0
0
0
0
0
0.07550098
0.07501512
0.07502046
0.07558422
0.07679441
0
0
0
0
0
0
0
0.07398727
0.07349578
0.07346484
0.07395231
0.07503311
0
0
0
0
0
0
0
0
0.0724282
0.07194081
0.07188613
0.07231514
0.07329199
0
0
0
0
0
0
0
0
0
0.07086157
0.07038587
0.0703191
0.07070583
0.07160261
0
0
0
0
0
0
0
0
0
0
0.06935661
0.06889836
0.06882754
0.06918535
0.07002147
0
0
0
0
0
0
0
0
0
0
0.06796079
0.06752164
0.06745319
0.06779131
0.06858212
0
0
0
0
0
0
0
0
0
0
0.06669201
0.066274
0.06621033
0.0665363
0.06729236
0
0
0
0
0
0
0
0
0
0
0.1039338
0.09947279
0.1011801
0.09567407
0.09694948
0.09976711
0.09260345
0.09327496
0.09542776
0.09960202
0.08987756
0.09014882
0.09159001
0.09471738
0.1005011
0.08724721
0.08725435
0.08820105
0.09042679
0.09455246
0
0.08477319
0.08459616
0.08521978
0.08685566
0.08988858
0
0
0.08250742
0.08220856
0.08260751
0.08386316
0.08621421
0
0
0
0.08046322
0.08008315
0.08032878
0.08131893
0.08323147
0
0
0
0
0.07862605
0.07819343
0.07833147
0.0791357
0.08073953
0
0
0
0
0
0.07696728
0.07650215
0.07656471
0.0772339
0.07861698
0
0
0
0
0
0
0.07544603
0.07496346
0.07497317
0.07554285
0.07676124
0
0
0
0
0
0
0
0.07400601
0.07351723
0.07349108
0.07398612
0.07507826
0
0
0
0
0
0
0
0
0.07257411
0.07208839
0.07203886
0.07247736
0.07346934
0
0
0
0
0
0
0
0
0
0.07108861
0.07061277
0.07054945
0.07094406
0.07185422
0
0
0
0
0
0
0
0
0
0
0.0695851
0.06912568
0.06905667
0.06941977
0.07026548
0
0
0
0
0
0
0
0
0
0
0.06813432
0.06769397
0.06762621
0.06796737
0.06876395
0
0
0
0
0
0
0
0
0
0
0.06678274
0.0663641
0.06630081
0.06662822
0.06738706
0
0
0
0
0
0
0
0
0
0
0.06555148
0.06515399
0.06509877
0.06541667
0.06614742
0
0
0
0
0
0
0
0
0
0
0.1034574
0.09883358
0.1002985
0.0949703
0.0960974
0.09852976
0.09195733
0.09252241
0.09447239
0.09809468
0.08943598
0.08963427
0.09095338
0.09384628
0.09894576
0.08709778
0.08706916
0.08796186
0.09009884
0.09405156
0
0.08478418
0.08459074
0.08519147
0.08679394
0.0897725
0
0
0.08256445
0.08225829
0.0826479
0.0838909
0.08622366
0
0
0
0.08050423
0.08012151
0.08036397
0.08135013
0.08325725
0
0
0
0
0.07862605
0.07819343
0.07833147
0.0791357
0.08073953
0
0
0
0
0
0.07692423
0.07646066
0.07652493
0.07719614
0.07858177
0
0
0
0
0
0
0.07537656
0.07489628
0.07490862
0.0754815
0.07670399
0
0
0
0
0
0
0
0.07394806
0.07346156
0.07343848
0.07393771
0.07503568
0
0
0
0
0
0
0
0
0.07258693
0.07210274
0.07205646
0.07250042
0.07350084
0
0
0
0
0
0
0
0
0
0.07122485
0.07074952
0.07068967
0.07109147
0.07201354
0
0
0
0
0
0
0
0
0
0
0.06980218
0.06934174
0.069275
0.06964424
0.0705009
0
0
0
0
0
0
0
0
0
0
0.06835462
0.06791269
0.06784597
0.06819136
0.06899596
0
0
0
0
0
0
0
0
0
0
0.06695088
0.06653071
0.06646779
0.06679763
0.06756142
0
0
0
0
0
0
0
0
0
0
0.06563946
0.06524125
0.0651862
0.06550534
0.06623849
0
0
0
0
0
0
0
0
0
0
0.06444204
0.06406537
0.06401911
0.06433283
0.0650415
0
0
0
0
0
0
0
0
0
0
0.09850131
0.09984982
0.09446316
0.09549428
0.09768433
0.09137255
0.0918576
0.09365515
0.09688216
0.08889158
0.08902433
0.09023201
0.09291238
0.09742938
0.08673122
0.08665392
0.08747003
0.08947825
0.09318067
0
0.08467145
0.0844533
0.0850173
0.08656363
0.08944824
0
0
0.08259032
0.08227231
0.08264577
0.08386581
0.08616413
0
0
0
0.08056634
0.08017819
0.08041387
0.0813911
0.08328576
0
0
0
0
0.07866833
0.07823369
0.0783694
0.07917079
0.08077089
0
0
0
0
0
0.07692423
0.07646066
0.07652493
0.07719614
0.07858177
0
0
0
0
0
0
0.07533314
0.07485404
0.07486764
0.07544193
0.07666615
0
0
0
0
0
0
0
0.07387779
0.07339297
0.07337176
0.0738732
0.07497395
0
0
0
0
0
0
0
0
0.07252696
0.07204426
0.07200005
0.0724469
0.07345137
0
0
0
0
0
0
0
0
0
0.07123306
0.07075836
0.07070055
0.07110622
0.07203452
0
0
0
0
0
0
0
0
0
0
0.06993044
0.0694695
0.06940495
0.06977957
0.07064565
0
0
0
0
0
0
0
0
0
0
0
0.06856299
0.0681195
0.06805404
0.06840422
0.06921781
0
0
0
0
0
0
0
0
0
0
0.06716401
0.06674181
0.06667942
0.06701258
0.06778316
0
0
0
0
0
0
0
0
0
0
0.06580277
0.06540285
0.06534778
0.06566892
0.06640629
0
0
0
0
0
0
0
0
0
0
0.06452753
0.06415007
0.06410384
0.06441855
0.06512936
0
0
0
0
0
0
0
0
0
0
0.06336051
0.063005
0.06296859
0.06327934
0.06397065
0
0
0
0
0
0
0
0
0
0
0.09419659
0.09518049
0.09725403
0.09094511
0.09137822
0.09307666
0.09605487
0.08838779
0.08847127
0.08959427
0.09211414
0.09621477
0.08626061
0.08613973
0.08688549
0.0887747
0.09224931
0
0.0843603
0.08410889
0.08462089
0.0860854
0.08883159
0
0
0.08250496
0.08216953
0.08251737
0.08369904
0.08593795
0
0
0
0.08060311
0.08020633
0.08043042
0.08139154
0.08326275
0
0
0
0
0.07873397
0.07829524
0.07842601
0.07922104
0.08081255
0
0
0
0
0
0.07696728
0.07650215
0.07656471
0.0772339
0.07861698
0
0
0
0
0
0
0.07533314
0.07485404
0.07486764
0.07544193
0.07666615
0
0
0
0
0
0
0
0.0738343
0.07335036
0.07333005
0.07383246
0.07493434
0
0
0
0
0
0
0
0
0.07245644
0.07197492
0.07193199
0.07238029
0.07338657
0
0
0
0
0
0
0
0
0
0.07117186
0.07069802
0.07064149
0.07104904
0.07198007
0
0
0
0
0
0
0
0
0
0
0.06993519
0.0694741
0.06941066
0.06978788
0.0706585
0
0
0
0
0
0
0
0
0
0
0
0.06868451
0.06823986
0.0681755
0.06852966
0.06935068
0
0
0
0
0
0
0
0
0
0
0
0
0.0673649
0.06694053
0.06687873
0.06721554
0.06799357
0
0
0
0
0
0
0
0
0
0
0.06600954
0.0656073
0.06555218
0.06587602
0.06661912
0
0
0
0
0
0
0
0
0
0
0.06468649
0.06430718
0.06426067
0.0645769
0.06529143
0
0
0
0
0
0
0
0
0
0
0.06344371
0.06308737
0.0630509
0.06336246
0.06405561
0
0
0
0
0
0
0
0
0
0
0.06230433
0.06196993
0.06194429
0.06225361
0.06292952
0
0
0
0
0
0
0
0
0
0
0.09071864
0.09112599
0.09277554
0.09563402
0.08801515
0.08806668
0.08913426
0.09154939
0.09538803
0.08581641
0.08566281
0.08635479
0.08815269
0.09145472
0
0.08394515
0.08366419
0.08412814
0.085516
0.08813289
0
0
0.08223605
0.08187743
0.08218897
0.08331432
0.08546448
0
0
0
0.08053852
0.08012938
0.08033521
0.0812694
0.08309991
0
0
0
0
0.07877877
0.07833372
0.0784561
0.07923965
0.08081484
0
0
0
0
0
0.07703527
0.07656708
0.076626
0.07729069
0.0786678
0
0
0
0
0
0
0.07537656
0.07489628
0.07490862
0.0754815
0.07670399
0
0
0
0
0
0
0
0.0738343
0.07335036
0.07333005
0.07383246
0.07493434
0
0
0
0
0
0
0
0
0.0724131
0.07193222
0.07188991
0.07233884
0.0733458
0
0
0
0
0
0
0
0
0
0.07110148
0.07062844
0.07057271
0.07098114
0.07191322
0
0
0
0
0
0
0
0
0
0
0.06987341
0.06941264
0.06934986
0.06972817
0.0706005
0
0
0
0
0
0
0
0
0
0
0
0.06868661
0.0682413
0.06817725
0.06853302
0.06935725
0
0
0
0
0
0
0
0
0
0
0
0
0.06748085
0.06705467
0.06699323
0.06733281
0.06811672
0
0
0
0
0
0
0
0
0
0
0
0
0
0.0662039
0.0657991
0.06574387
0.06607054
0.06681979
0
0
0
0
0
0
0
0
0
0
0.06488762
0.06450573
0.06445879
0.06477704
0.06549653
0
0
0
0
0
0
0
0
0
0
0.06359871
0.06324045
0.06320349
0.06351624
0.06421253
0
0
0
0
0
0
0
0
0
0
0.06238543
0.06205016
0.06202438
0.06233438
0.06301191
0
0
0
0
0
0
0
0
0
0
0.06127203
0.06095781
0.06094339
0.06125278
0.06191552
0
0
0
0
0
0
0
0
0
0
0.08781652
0.0878521
0.08889207
0.09125544
0.09496798
0.08548444
0.08530967
0.08596635
0.08770407
0.09089315
0
0.08354629
0.08324328
0.08367032
0.08499873
0.08751561
0
0
0.08186394
0.08148493
0.08176279
0.08283466
0.08490025
0
0
0
0.08030254
0.07987712
0.08005697
0.08095114
0.08271993
0
0
0
0
0.07873022
0.07827636
0.07838562
0.0791498
0.08069628
0
0
0
0
0
0.07708596
0.07661317
0.07666601
0.07732246
0.07868803
0
0
0
0
0
0
0.07544603
0.07496346
0.07497317
0.07554285
0.07676124
0
0
0
0
0
0
0
0.07387779
0.07339297
0.07337176
0.0738732
0.07497395
0
0
0
0
0
0
0
0
0.0724131
0.07193222
0.07188991
0.07233884
0.0733458
0
0
0
0
0
0
0
0
0
0.07105847
0.07058589
0.07053056
0.07093934
0.07187177
0
0
0
0
0
0
0
0
0
0
0.06980354
0.06934322
0.06928087
0.06965959
0.07053241
0
0
0
0
0
0
0
0
0
0
0
0.06862473
0.06817937
0.06811543
0.06847168
0.06929681
0
0
0
0
0
0
0
0
0
0
0
0
0.06748108
0.06705374
0.06699205
0.0673324
0.06811849
0
0
0
0
0
0
0
0
0
0
0
0
0
0.06631519
0.06590812
0.06585252
0.06618113
0.06693492
0
0
0
0
0
0
0
0
0
0
0
0
0
0
0.06507631
0.0646915
0.06464396
0.06496422
0.0656889
0
0
0
0
0
0
0
0
0
0
0.06379474
0.06343377
0.06339604
0.06371033
0.06441078
0
0
0
0
0
0
0
0
0
0
0.06253683
0.06219956
0.06217316
0.06248407
0.06316433
0
0
0
0
0
0
0
0
0
0
0.06135121
0.06103608
0.06102146
0.06133141
0.0619956
0
0
0
0
0
0
0
0
0
0
0.06026164
0.05996732
0.05996369
0.06027416
0.06092586
0
0
0
0
0
0
0
0
0
0
0.08530665
0.08512122
0.08576017
0.08746783
0.090601
0
0.08324554
0.08292833
0.08333106
0.08462004
0.08707064
0
0
0.08150073
0.08110664
0.08135854
0.08238851
0.08438773
0
0
0
0.07996466
0.07952512
0.07968075
0.08053643
0.08224525
0
0
0
0
0.0785204
0.07805512
0.07814554
0.07888047
0.08038248
0
0
0
0
0
0.07704987
0.0765709
0.07661424
0.0772566
0.07860139
0
0
0
0
0
0
0.07550098
0.07501512
0.07502046
0.07558422
0.07679441
0
0
0
0
0
0
0
0.07394806
0.07346156
0.07343848
0.07393771
0.07503568
0
0
0
0
0
0
0
0
0.07245644
0.07197492
0.07193199
0.07238029
0.07338657
0
0
0
0
0
0
0
0
0
0.07105847
0.07058589
0.07053056
0.07093934
0.07187177
0
0
0
0
0
0
0
0
0
0
0.069761
0.06930098
0.06923886
0.06961772
0.07049063
0
0
0
0
0
0
0
0
0
0
0
0.0685556
0.06811044
0.06804661
0.06840292
0.06922809
0
0
0
0
0
0
0
0
0
0
0
0
0.06741952
0.06699177
0.06692983
0.06727012
0.0680565
0
0
0
0
0
0
0
0
0
0
0
0
0
0.06631415
0.06590555
0.06584917
0.06617797
0.06693305
0
0
0
0
0
0
0
0
0
0
0
0
0
0
0.06518376
0.06479627
0.06474784
0.06506921
0.06579748
0
0
0
0
0
0
0
0
0
0
0
0
0
0
0
0.06397842
0.06361433
0.06357554
0.06389125
0.06459593
0
0
0
0
0
0
0
0
0
0
0.06272827
0.06238817
0.0623608
0.0626728
0.06335663
0
0
0
0
0
0
0
0
0
0
0.06149936
0.06118214
0.06116677
0.06147744
0.062144
0
0
0
0
0
0
0
0
0
0
0.06033904
0.0600438
0.0600399
0.06035084
0.06100384
0
0
0
0
0
0
0
0
0
0
0.0592709
0.05899666
0.059004
0.05931563
0.05995788
0
0
0
0
0
0
0
0
0
0
0.08308388
0.08275945
0.08314987
0.08441897
0.08683637
0
0
0.08122473
0.080821
0.08105578
0.08205779
0.08401259
0
0
0
0.07963017
0.07918031
0.07931723
0.08014248
0.08180358
0
0
0
0
0.07821028
0.07773529
0.07780804
0.07851443
0.07997239
0
0
0
0
0
0.07686111
0.07637429
0.07640383
0.07702443
0.07833616
0
0
0
0
0
0
0.07547462
0.07498455
0.07498308
0.0755365
0.07673143
0
0
0
0
0
0
0
0.07400601
0.07351723
0.07349108
0.07398612
0.07507826
0
0
0
0
0
0
0
0
0.07252696
0.07204426
0.07200005
0.0724469
0.07345137
0
0
0
0
0
0
0
0
0
0.07110148
0.07062844
0.07057271
0.07098114
0.07191322
0
0
0
0
0
0
0
0
0
0
0.069761
0.06930098
0.06923886
0.06961772
0.07049063
0
0
0
0
0
0
0
0
0
0
0
0.06851365
0.06806867
0.0680049
0.06836119
0.06918625
0
0
0
0
0
0
0
0
0
0
0
0
0.06735134
0.06692358
0.06686152
0.06720155
0.06798763
0
0
0
0
0
0
0
0
0
0
0
0
0
0.06625326
0.06584395
0.06578698
0.06611536
0.06687019
0
0
0
0
0
0
0
0
0
0
0
0
0
0
0.06518198
0.06479262
0.06474302
0.06506403
0.06579297
0
0
0
0
0
0
0
0
0
0
0
0
0
0
0
0.06408269
0.06371563
0.06367547
0.06399169
0.06469905
0
0
0
0
0
0
0
0
0
0
0
0
0
0
0
0
0.06290751
0.06256413
0.06253541
0.06284828
0.06353563
0
0
0
0
0
0
0
0
0
0
0.06168668
0.0613665
0.06134996
0.06166144
0.06233104
0
0
0
0
0
0
0
0
0
0
0.06048419
0.06018684
0.06018206
0.06049352
0.06114863
0
0
0
0
0
0
0
0
0
0
0.0593467
0.05907148
0.05907851
0.0593905
0.06003393
0
0
0
0
0
0
0
0
0
0
0.05829895
0.05804372
0.05806264
0.05837606
0.05900948
0
0
0
0
0
0
0
0
0
0
0.08107594
0.08066727
0.08089329
0.08188107
0.08381342
0
0
0
0.07937427
0.07891789
0.07904245
0.07984728
0.08147617
0
0
0
0
0.07789937
0.07741744
0.07747648
0.07816011
0.07958257
0
0
0
0
0
0.07657383
0.07608053
0.07609705
0.07669605
0.07797437
0
0
0
0
0
0
0.07530301
0.07480773
0.07479619
0.07533317
0.07650301
0
0
0
0
0
0
0
0.07398727
0.07349578
0.07346484
0.07395231
0.07503311
0
0
0
0
0
0
0
0
0.07258693
0.07210274
0.07205646
0.07250042
0.07350084
0
0
0
0
0
0
0
0
0
0.07117186
0.07069802
0.07064149
0.07104904
0.07198007
0
0
0
0
0
0
0
0
0
0
0.06980354
0.06934322
0.06928087
0.06965959
0.07053241
0
0
0
0
0
0
0
0
0
0
0
0.06851365
0.06806867
0.0680049
0.06836119
0.06918625
0
0
0
0
0
0
0
0
0
0
0
0
0.06731006
0.06688237
0.06682026
0.06716013
0.06794594
0
0
0
0
0
0
0
0
0
0
0
0
0
0.06618624
0.06577671
0.0657194
0.06604731
0.06680153
0
0
0
0
0
0
0
0
0
0
0
0
0
0
0.06512202
0.06473174
0.06468126
0.0650015
0.06572983
0
0
0
0
0
0
0
0
0
0
0
0
0
0
0
0.06408057
0.06371141
0.06366974
0.06398517
0.0646926
0
0
0
0
0
0
0
0
0
0
0
0
0
0
0
0
0.06300911
0.06266258
0.06263214
0.06294497
0.0636343
0
0
0
0
0
0
0
0
0
0
0
0
0
0
0
0
0
0.06186207
0.0615384
0.06152027
0.06183224
0.0625047
0
0
0
0
0
0
0
0
0
0
0.06066775
0.06036742
0.06036126
0.06067326
0.06133102
0
0
0
0
0
0
0
0
0
0
0.05948917
0.05921174
0.05921783
0.05953016
0.06017544
0
0
0
0
0
0
0
0
0
0
0.05837324
0.05811704
0.05813557
0.0584493
0.05908376
0
0
0
0
0
0
0
0
0
0
0.05734542
0.05710775
0.05713757
0.05745385
0.05807959
0
0
0
0
0
0
0
0
0
0
0.07923602
0.07877624
0.07889442
0.07968877
0.08130122
0
0
0
0
0.07766011
0.07717386
0.07722384
0.07789212
0.07929044
0
0
0
0
0
0.07628258
0.07578478
0.0757912
0.0763728
0.07762385
0
0
0
0
0
0
0.07503475
0.07453538
0.07451427
0.07503464
0.07617852
0
0
0
0
0
0
0
0.07382974
0.07333502
0.07329681
0.07377181
0.07483322
0
0
0
0
0
0
0
0
0.07257411
0.07208839
0.07203886
0.07247736
0.07346934
0
0
0
0
0
0
0
0
0
0.07123306
0.07075836
0.07070055
0.07110622
0.07203452
0
0
0
0
0
0
0
0
0
0
0.06987341
0.06941264
0.06934986
0.06972817
0.0706005
0
0
0
0
0
0
0
0
0
0
0
0.0685556
0.06811044
0.06804661
0.06840292
0.06922809
0
0
0
0
0
0
0
0
0
0
0
0
0.06731006
0.06688237
0.06682026
0.06716013
0.06794594
0
0
0
0
0
0
0
0
0
0
0
0
0
0.06614571
0.06573614
0.0656787
0.06600634
0.06676015
0
0
0
0
0
0
0
0
0
0
0
0
0
0
0.06505625
0.06466563
0.06461462
0.0649342
0.06566171
0
0
0
0
0
0
0
0
0
0
0
0
0
0
0
0.06402178
0.0636515
0.06360873
0.06392311
0.06462959
0
0
0
0
0
0
0
0
0
0
0
0
0
0
0
0
0.06300698
0.06265817
0.06262596
0.06293764
0.0636266
0
0
0
0
0
0
0
0
0
0
0
0
0
0
0
0
0
0.06196155
0.06163448
0.06161438
0.06192591
0.06259972
0
0
0
0
0
0
0
0
0
0
0
0
0
0
0
0
0
0
0.06083966
0.0605358
0.06052778
0.06083994
0.06150009
0
0
0
0
0
0
0
0
0
0
0.05966943
0.05938886
0.05939348
0.05970607
0.06035363
0
0
0
0
0
0
0
0
0
0
0.05851322
0.05825484
0.05827226
0.05858623
0.05922229
0
0
0
0
0
0
0
0
0
0
0.05741834
0.05717967
0.05720909
0.05752557
0.05815225
0
0
0
0
0
0
0
0
0
0
0.05640895
0.0561885
0.05622817
0.05654704
0.05716661
0
0
0
0
0
0
0
0
0
0
0.07753066
0.0770421
0.07708734
0.07774765
0.07913355
0
0
0
0
0
0.07605729
0.07555679
0.07555651
0.0761263
0.07735867
0
0
0
0
0
0
0.07476009
0.07425804
0.07422949
0.07473634
0.07585876
0
0
0
0
0
0
0
0.0735775
0.07308048
0.07303529
0.07349741
0.07453826
0
0
0
0
0
0
0
0
0.0724282
0.07194081
0.07188613
0.07231514
0.07329199
0
0
0
0
0
0
0
0
0
0.07122486
0.07074952
0.07068967
0.07109147
0.07201354
0
0
0
0
0
0
0
0
0
0
0.06993519
0.0694741
0.06941066
0.06978788
0.0706585
0
0
0
0
0
0
0
0
0
0
0
0.06862473
0.06817937
0.06811543
0.06847168
0.06929681
0
0
0
0
0
0
0
0
0
0
0
0
0.06735134
0.06692358
0.06686152
0.06720155
0.06798763
0
0
0
0
0
0
0
0
0
0
0
0
0
0.06614571
0.06573614
0.0656787
0.06600634
0.06676015
0
0
0
0
0
0
0
0
0
0
0
0
0
0
0.06501652
0.06462579
0.06457454
0.06489377
0.06562079
0
0
0
0
0
0
0
0
0
0
0
0
0
0
0
0.06395739
0.06358662
0.0635432
0.06385674
0.06456223
0
0
0
0
0
0
0
0
0
0
0
0
0
0
0
0
0.06294953
0.06259945
0.06256596
0.06287638
0.0635641
0
0
0
0
0
0
0
0
0
0
0
0
0
0
0
0
0
0.06195975
0.06163019
0.06160814
0.06191824
0.06259128
0
0
0
0
0
0
0
0
0
0
0
0
0
0
0
0
0
0
0.06093735
0.06063003
0.06061974
0.06093115
0.06159217
0
0
0
0
0
0
0
0
0
0
0
0
0
0
0
0
0
0
0
0.0598384
0.05955407
0.05955672
0.05986913
0.06051867
0
0
0
0
0
0
0
0
0
0
0.05869046
0.05842892
0.05844466
0.05875872
0.05939672
0
0
0
0
0
0
0
0
0
0
0.0575561
0.05731516
0.05734346
0.05765998
0.0582881
0
0
0
0
0
0
0
0
0
0
0.05648058
0.05625915
0.05629835
0.05661739
0.05723778
0
0
0
0
0
0
0
0
0
0
0.05549015
0.05528472
0.05533424
0.05565505
0.05626862
0
0
0
0
0
0
0
0
0
0
0.07593527
0.07543327
0.07542944
0.07599303
0.0772157
0
0
0
0
0
0
0.07454669
0.07404312
0.07400964
0.07450726
0.07561486
0
0
0
0
0
0
0
0.07331701
0.07281868
0.07276803
0.07321954
0.07424318
0
0
0
0
0
0
0
0
0.07218954
0.07170125
0.07164156
0.0720605
0.07302087
0
0
0
0
0
0
0
0
0
0.07108861
0.07061277
0.07054945
0.07094406
0.07185422
0
0
0
0
0
0
0
0
0
0
0.06993044
0.0694695
0.06940495
0.06977957
0.07064565
0
0
0
0
0
0
0
0
0
0
0
0.06868661
0.0682413
0.06817725
0.06853302
0.06935725
0
0
0
0
0
0
0
0
0
0
0
0
0.06741952
0.06699177
0.06692984
0.06727012
0.0680565
0
0
0
0
0
0
0
0
0
0
0
0
0
0.06618624
0.06577671
0.0657194
0.06604731
0.06680153
0
0
0
0
0
0
0
0
0
0
0
0
0
0
0.06501652
0.06462579
0.06457454
0.06489377
0.06562079
0
0
0
0
0
0
0
0
0
0
0
0
0
0
0
0.06391849
0.06354755
0.06350385
0.06381694
0.06452186
0
0
0
0
0
0
0
0
0
0
0
0
0
0
0
0
0.0628866
0.06253592
0.06250165
0.06281113
0.06349769
0
0
0
0
0
0
0
0
0
0
0
0
0
0
0
0
0
0.0619038
0.06157283
0.06154936
0.061858
0.0625296
0
0
0
0
0
0
0
0
0
0
0
0
0
0
0
0
0
0
0.06093603
0.06062619
0.06061373
0.06092351
0.06158346
0
0
0
0
0
0
0
0
0
0
0
0
0
0
0
0
0
0
0
0.05993479
0.05964675
0.05964703
0.05995834
0.06060838
0
0
0
0
0
0
0
0
0
0
0
0
0
0
0
0
0
0
0
0
0.05885683
0.05859147
0.05860497
0.05891867
0.05955822
0
0
0
0
0
0
0
0
0
0
0.05773068
0.05748648
0.05751303
0.05782935
0.05845918
0
0
0
0
0
0
0
0
0
0
0.05661624
0.0563926
0.05643056
0.05674957
0.05737115
0
0
0
0
0
0
0
0
0
0
0.05556057
0.05535416
0.05540321
0.05572411
0.05633844
0
0
0
0
0
0
0
0
0
0
0.05458737
0.05439708
0.05445461
0.05477772
0.05538505
0
0
0
0
0
0
0
0
0
0
0.07443106
0.07392658
0.07389043
0.07438315
0.07548298
0
0
0
0
0
0
0
0.07311385
0.07261488
0.07256063
0.07300485
0.0740165
0
0
0
0
0
0
0
0
0.07194122
0.07145268
0.07138907
0.07179962
0.07274599
0
0
0
0
0
0
0
0
0
0.07086157
0.07038588
0.0703191
0.07070583
0.07160261
0
0
0
0
0
0
0
0
0
0
0.06980218
0.06934174
0.069275
0.06964424
0.0705009
0
0
0
0
0
0
0
0
0
0
0.06868451
0.06823986
0.0681755
0.06852966
0.06935068
0
0
0
0
0
0
0
0
0
0
0
0
0.06748108
0.06705374
0.06699205
0.0673324
0.06811849
0
0
0
0
0
0
0
0
0
0
0
0
0
0.06625326
0.06584395
0.06578698
0.06611536
0.06687019
0
0
0
0
0
0
0
0
0
0
0
0
0
0
0.06505625
0.06466563
0.06461462
0.0649342
0.06566171
0
0
0
0
0
0
0
0
0
0
0
0
0
0
0
0.06391849
0.06354755
0.06350385
0.06381694
0.06452186
0
0
0
0
0
0
0
0
0
0
0
0
0
0
0
0
0.06284858
0.06249767
0.06246305
0.06277204
0.06345794
0
0
0
0
0
0
0
0
0
0
0
0
0
0
0
0
0
0.06184241
0.06151073
0.06148639
0.06179397
0.06246432
0
0
0
0
0
0
0
0
0
0
0
0
0
0
0
0
0
0
0.06088164
0.06057034
0.06055631
0.06086451
0.06152284
0
0
0
0
0
0
0
0
0
0
0
0
0
0
0
0
0
0
0
0.05993431
0.0596435
0.05964156
0.05995099
0.06059974
0
0
0
0
0
0
0
0
0
0
0
0
0
0
0
0
0
0
0
0
0.05895225
0.05868308
0.05869391
0.05900636
0.059646
0
0
0
0
0
0
0
0
0
0
0
0
0
0
0
0
0
0
0
0
0.05789483
0.0576467
0.05767088
0.05798651
0.05861763
0
0
0
0
0
0
0
0
0
0
0.05678831
0.05656148
0.05659754
0.05691624
0.05753917
0
0
0
0
0
0
0
0
0
0
0.0556943
0.05548567
0.05553351
0.05585421
0.05646962
0
0
0
0
0
0
0
0
0
0
0.05465667
0.0544654
0.05452244
0.05484562
0.0554536
0
0
0
0
0
0
0
0
0
0
0.05370154
0.05352405
0.05359001
0.05391395
0.05451578
0
0
0
0
0
0
0
0
0
0
0.07300375
0.07250432
0.07244806
0.07288836
0.07389366
0
0
0
0
0
0
0
0
0.07174692
0.07125845
0.07119223
0.07159697
0.07253351
0
0
0
0
0
0
0
0
0
0.07062384
0.07014868
0.0700792
0.07045924
0.0713445
0
0
0
0
0
0
0
0
0
0
0.0695851
0.06912568
0.06905667
0.06941977
0.07026548
0
0
0
0
0
0
0
0
0
0
0.06856299
0.0681195
0.06805405
0.06840422
0.06921781
0
0
0
0
0
0
0
0
0
0
0.06748085
0.06705467
0.06699323
0.06733281
0.06811672
0
0
0
0
0
0
0
0
0
0
0
0
0
0.06631415
0.06590555
0.06584917
0.06617797
0.06693305
0
0
0
0
0
0
0
0
0
0
0
0
0
0
0.06512202
0.06473174
0.06468126
0.0650015
0.06572983
0
0
0
0
0
0
0
0
0
0
0
0
0
0
0
0.06395738
0.06358661
0.0635432
0.06385674
0.06456223
0
0
0
0
0
0
0
0
0
0
0
0
0
0
0
0
0.06284858
0.06249767
0.06246305
0.06277204
0.06345794
0
0
0
0
0
0
0
0
0
0
0
0
0
0
0
0
0
0.06180529
0.06147334
0.06144859
0.06175563
0.06242529
0
0
0
0
0
0
0
0
0
0
0
0
0
0
0
0
0
0
0.06082177
0.06050976
0.06049477
0.06080181
0.06145879
0
0
0
0
0
0
0
0
0
0
0
0
0
0
0
0
0
0
0
0.05988167
0.05958922
0.05958568
0.05989338
0.06054039
0
0
0
0
0
0
0
0
0
0
0
0
0
0
0
0
0
0
0
0
0.05895279
0.05868076
0.05868911
0.05899962
0.05963771
0
0
0
0
0
0
0
0
0
0
0
0
0
0
0
0
0
0
0
0
0.05798961
0.05773754
0.05775892
0.05807295
0.05870396
0
0
0
0
0
0
0
0
0
0
0
0
0
0
0
0
0
0
0
0
0.05695042
0.05671973
0.05675326
0.05707108
0.0576949
0
0
0
0
0
0
0
0
0
0
0.0558641
0.05565226
0.05569822
0.05601841
0.05663499
0
0
0
0
0
0
0
0
0
0
0.05478862
0.05459513
0.05465091
0.05497389
0.05558275
0
0
0
0
0
0
0
0
0
0
0.05376981
0.05359132
0.05365678
0.05398074
0.05458319
0
0
0
0
0
0
0
0
0
0
0.05283079
0.05266659
0.05273898
0.05306449
0.05365972
0
0
0
0
0
0
0
0
0
0
0.07164166
0.07115307
0.07108535
0.07148692
0.07241821
0
0
0
0
0
0
0
0
0
0.07043733
0.06996271
0.06989144
0.07026682
0.07114392
0
0
0
0
0
0
0
0
0
0
0.06935661
0.06889836
0.06882754
0.06918536
0.07002147
0
0
0
0
0
0
0
0
0
0
0.06835462
0.06791269
0.06784598
0.06819136
0.06899596
0
0
0
0
0
0
0
0
0
0
0.0673649
0.06694053
0.06687873
0.06721554
0.06799357
0
0
0
0
0
0
0
0
0
0
0.06631519
0.06590812
0.06585252
0.06618113
0.06693492
0
0
0
0
0
0
0
0
0
0
0
0
0
0
0.06518197
0.06479262
0.06474302
0.06506403
0.06579297
0
0
0
0
0
0
0
0
0
0
0
0
0
0
0
0.06402178
0.0636515
0.06360873
0.06392311
0.06462959
0
0
0
0
0
0
0
0
0
0
0
0
0
0
0
0
0.06288659
0.06253592
0.06250165
0.06281113
0.06349769
0
0
0
0
0
0
0
0
0
0
0
0
0
0
0
0
0
0.06180529
0.06147334
0.06144859
0.06175563
0.06242529
0
0
0
0
0
0
0
0
0
0
0
0
0
0
0
0
0
0
0.06078555
0.06047324
0.06045781
0.06076426
0.0614205
0
0
0
0
0
0
0
0
0
0
0
0
0
0
0
0
0
0
0
0.05982345
0.05953013
0.05952562
0.05983211