/*--------------------------------*- C++ -*----------------------------------*\
| =========                 |                                                 |
| \\      /  F ield         | OpenFOAM: The Open Source CFD Toolbox           |
|  \\    /   O peration     | Version:  2306                                  |
|   \\  /    A nd           | Website:  www.openfoam.com                      |
|    \\/     M anipulation  |                                                 |
\*---------------------------------------------------------------------------*/
FoamFile
{
    version     2.0;
    format      ascii;
    arch        "LSB;label=32;scalar=64";
    class       volScalarField;
    location    "0.6/fuel";
    object      H2O;
}
// * * * * * * * * * * * * * * * * * * * * * * * * * * * * * * * * * * * * * //

dimensions      [0 0 0 0 0 0 0];

internalField   nonuniform List<scalar> 
16000
(
0.4026761
0.3977411
0.4702198
0.4023926
0.3877035
0.4670416
0.3974514
0.5320423
0.4700073
0.4018384
0.3724451
0.4606204
0.3874006
0.5297091
0.4668258
0.3968852
0.581788
0.5318826
0.4695914
0.4010217
0.3524991
0.4509613
0.3721205
0.5250067
0.4603978
0.3868088
0.5799694
0.5295474
0.4664034
0.3960508
0.6219873
0.5816639
0.5315697
0.468978
0.3999466
0.3307683
0.4384994
0.3521415
0.5179586
0.4507275
0.3714863
0.5763115
0.5248408
0.459962
0.3859368
0.6205227
0.5798439
0.5292306
0.4657807
0.3949525
0.6550623
0.6218879
0.5814205
0.5311081
0.4681704
0.3988804
0.3140128
0.4250886
0.3303678
0.5089096
0.4382492
0.3514427
0.5708454
0.5177858
0.4502702
0.3705519
0.6175817
0.5761831
0.5245157
0.4593197
0.3847889
0.6538551
0.6204223
0.5795978
0.5287631
0.4649608
0.3938631
0.6827525
0.6549808
0.6216929
0.5810611
0.5304999
0.4673695
0.3979962
0.3031339
0.4147613
0.3135856
0.4992259
0.4248175
0.3295848
0.563856
0.5087267
0.4377596
0.3504132
0.6131975
0.5707125
0.5174475
0.4495959
0.3693219
0.6514344
0.6174793
0.5759315
0.5240362
0.4584738
0.3836505
0.6817394
0.653773
0.6202254
0.5792345
0.5281473
0.4641476
0.3929598
0.7062829
0.6826845
0.6548208
0.6214048
0.5805875
0.5298969
0.4667057
0.3971167
0.2968557
0.4080072
0.302692
0.491804
0.4144787
0.3127507
0.5564103
0.4990302
0.4242869
0.3284308
0.6076093
0.5637162
0.5083686
0.4370378
0.3490576
0.6478328
0.6130919
0.5704519
0.5169483
0.448708
0.3681019
0.6797098
0.6513508
0.6172784
0.5755601
0.5234045
0.4576349
0.3827058
0.7054199
0.6816708
0.6536116
0.6199345
0.5787558
0.5275367
0.4634736
0.3920611
0.7265335
0.7062252
0.6825508
0.6545844
0.621025
0.5801178
0.5293972
0.4660456
0.3962419
0.2940081
0.4040657
0.2964061
0.4869611
0.4077189
0.3018289
0.5507252
0.4916017
0.4139254
0.3115202
0.6016776
0.5562617
0.4986466
0.4235042
0.3269103
0.6432536
0.6074988
0.5634422
0.5078401
0.4360871
0.3477125
0.6766948
0.6477467
0.6128846
0.5700673
0.5162909
0.4478274
0.3670877
0.7036925
0.6796401
0.6511865
0.6169818
0.5750707
0.5227781
0.4569393
0.3817656
0.7257891
0.7053617
0.681536
0.6533731
0.6195511
0.578281
0.5270307
0.4628033
0.3911672
0.7441514
0.7264839
0.7061117
0.6823531
0.6542727
0.6206483
0.5797288
0.5289006
0.4653894
0.3953719
0.2940081
0.402261
0.2935551
0.4841362
0.4037746
0.2955281
0.5470237
0.486756
0.4071547
0.3005573
0.5971618
0.5505726
0.4912054
0.4131094
0.309899
0.6384068
0.6015607
0.5559703
0.4980804
0.4224729
0.3254006
0.6728695
0.6431638
0.6072818
0.5630376
0.5071438
0.435144
0.3465884
0.7011297
0.6766233
0.6475776
0.6125785
0.5695605
0.5156388
0.4470961
0.3660763
0.7243003
0.7036334
0.6795031
0.6509437
0.6165907
0.5745853
0.5222588
0.4562474
0.3808299
0.7435025
0.7257391
0.7052474
0.6813367
0.6530587
0.6191708
0.5778877
0.5265278
0.4621369
0.390278
0.7596227
0.7441083
0.7263863
0.7059438
0.6820924
0.6539635
0.6203364
0.5793423
0.528407
0.464737
0.391163
0.2968557
0.402261
0.2935551
0.4828423
0.4019686
0.2926704
0.5448665
0.4839299
0.403205
0.2942346
0.5942264
0.5468694
0.4863543
0.4063227
0.2988821
0.6347255
0.5970421
0.5502731
0.4906205
0.4120342
0.3082893
0.6688298
0.6383122
0.6013311
0.5555399
0.4973342
0.4214495
0.3241272
0.6978835
0.672795
0.6429875
0.6069613
0.5625044
0.5064532
0.4343573
0.3454615
0.7220938
0.7010692
0.6764826
0.6473278
0.612175
0.5690578
0.5150976
0.4463675
0.3650679
0.7422056
0.7242496
0.7035174
0.6793006
0.6506236
0.6162028
0.574183
0.5217425
0.4555591
0.3798987
0.7590519
0.7434591
0.7256409
0.7050783
0.681074
0.6527468
0.6188558
0.5774969
0.526028
0.4614744
0.3859764
0.7733198
0.7595849
0.7440235
0.7262419
0.7057224
0.6818337
0.6537074
0.6200265
0.5789582
0.5279165
0.4615822
0.3882682
0.3031339
0.4040657
0.2964061
0.4828423
0.4019686
0.2926704
0.5438787
0.4826355
0.4013967
0.2913674
0.5925171
0.5447116
0.4835257
0.4023651
0.2925309
0.632336
0.5941058
0.546567
0.4857614
0.4052266
0.2972189
0.6657673
0.6346289
0.5968071
0.5498309
0.4898496
0.4109673
0.306931
0.6944619
0.6687515
0.6381263
0.6009918
0.5549725
0.4965938
0.4205889
0.3228387
0.719303
0.6978207
0.6726487
0.6427269
0.6065388
0.5619755
0.5058774
0.4335701
0.3443319
0.7402852
0.722042
0.7009502
0.6762747
0.6469985
0.6117748
0.5686407
0.5145585
0.4456417
0.3640624
0.7579118
0.7421616
0.72415
0.7033457
0.6790334
0.6503061
0.6158815
0.5737832
0.521229
0.4548745
0.3753912
0.7728138
0.7590139
0.7433738
0.7254955
0.7048552
0.6808132
0.6524885
0.6185429
0.5771086
0.5255312
0.4582704
0.3830045
0.7855328
0.7732864
0.7595105
0.7438979
0.7260514
0.7055026
0.6816195
0.6534531
0.6197187
0.5785766
0.5255454
0.4594193
0.3860743
0.3140128
0.4080072
0.302692
0.4841362
0.4037746
0.2955281
0.5438787
0.4826355
0.4013967
0.2913674
0.5917346
0.5437236
0.4822303
0.4005534
0.2896511
0.6309455
0.5923962
0.544408
0.4829293
0.4012587
0.2908395
0.6637818
0.6322389
0.593869
0.5461203
0.4849802
0.4041389
0.2958181
0.6918722
0.6656877
0.6344392
0.5964598
0.5492479
0.4890846
0.4100698
0.3055563
0.716366
0.6943961
0.6685977
0.6378514
0.6005444
0.5544094
0.4959715
0.4197207
0.3215348
0.7378592
0.7192493
0.6976973
0.6724324
0.6423833
0.6061197
0.5615347
0.5053015
0.4327823
0.3431995
0.7562248
0.7402403
0.72194
0.7007743
0.6760004
0.6466718
0.6114427
0.5682253
0.5140217
0.4449187
0.3591862
0.7718033
0.7578732
0.7420751
0.7240025
0.7031192
0.6787684
0.6500431
0.6155621
0.5733856
0.5207186
0.4515624
0.3722251
0.785081
0.7727801
0.758939
0.7432474
0.7253037
0.7046338
0.6805973
0.6522319
0.618232
0.5767228
0.5231295
0.456066
0.3807414
0.7964913
0.785503
0.7732205
0.7594003
0.7437322
0.7258622
0.7053207
0.6814068
0.6532005
0.6194129
0.5767325
0.5239234
0.4577833
0.3846002
0.3307683
0.4147613
0.3135856
0.4869611
0.4077189
0.3018289
0.5448665
0.4839299
0.403205
0.2942346
0.5917346
0.5437236
0.4822303
0.4005534
0.2896511
0.6303091
0.5916135
0.5434195
0.4816324
0.3994425
0.2879472
0.6626271
0.6308482
0.5921588
0.5439596
0.4821434
0.4001609
0.2894171
0.6901949
0.6637018
0.6320481
0.5935192
0.5455316
0.484205
0.4032256
0.2944031
0.714146
0.6918053
0.665531
0.6341586
0.5960018
0.5486693
0.4884416
0.4091642
0.3041648
0.7353096
0.7163098
0.6942666
0.6683702
0.6374888
0.6001003
0.5539363
0.4953441
0.4188449
0.3202153
0.7540959
0.7378128
0.7191437
0.6975147
0.672147
0.6420423
0.6057704
0.5610938
0.5047255
0.4319941
0.3376783
0.7703095
0.7561855
0.7401519
0.7217891
0.7005422
0.6757283
0.6464007
0.6111122
0.5678118
0.5134872
0.4414151
0.3555715
0.7841794
0.7717693
0.7577974
0.7419471
0.723808
0.7028945
0.6785489
0.6497817
0.6152446
0.5729905
0.5182498
0.4492529
0.369769
0.7960855
0.7850511
0.7727139
0.7588281
0.7430806
0.7251132
0.7044506
0.6803829
0.6519771
0.6179232
0.574858
0.5214812
0.4543921
0.3792138
0.8063794
0.7964646
0.7854444
0.773123
0.7592547
0.7435676
0.7257057
0.7051401
0.6811956
0.6529497
0.6179354
0.5754731
0.522698
0.4566855
0.3838594
0.3524991
0.4250886
0.3303678
0.491804
0.4144787
0.3127507
0.5470237
0.486756
0.4071547
0.3005573
0.5925171
0.5447116
0.4835257
0.4023651
0.2925309
0.6303091
0.5916135
0.5434195
0.4816324
0.3994425
0.2879472
0.6620987
0.6302118
0.591376
0.5429705
0.4808447
0.3983403
0.2865154
0.6892198
0.662547
0.6306572
0.5918081
0.5433687
0.4813637
0.3992402
0.2879823
0.7127093
0.6901277
0.6635445
0.631766
0.5930579
0.5449475
0.4835544
0.4023055
0.2929736
0.7333847
0.714089
0.6916737
0.6652993
0.6337886
0.5955473
0.5481831
0.4877931
0.4082504
0.3027565
0.7518611
0.7352611
0.7161992
0.694075
0.66807
0.6371289
0.5997273
0.5534595
0.4947116
0.4179613
0.31372
0.7684259
0.7540553
0.7377213
0.7189873
0.6972737
0.6718639
0.6417582
0.6054212
0.560653
0.5041493
0.4281571
0.3329676
0.782847
0.7702748
0.7561081
0.740021
0.7215901
0.7003119
0.6755026
0.646131
0.6107831
0.5674002
0.5108981
0.4388606
0.3525871
0.7952759
0.7841491
0.7717023
0.7576851
0.741778
0.7236149
0.7027083
0.6783308
0.6495219
0.6149291
0.5710801
0.5165333
0.4474726
0.3680807
0.8060129
0.7960587
0.7849921
0.7726158
0.7586817
0.742915
0.7249556
0.7042686
0.68017
0.6517239
0.6164309
0.5735803
0.5202312
0.4532649
0.3784437
0.8153464
0.8063553
0.796412
0.7853574
0.7729942
0.7591103
0.7434315
0.7255503
0.7049607
0.6809859
0.6517377
0.6169277
0.5745225
0.5218765
0.4561344
0.3724451
0.4384994
0.3521415
0.4992259
0.4248175
0.3295848
0.5507252
0.4916017
0.4139254
0.3115202
0.5942264
0.5468694
0.4863543
0.4063227
0.2988821
0.6309455
0.5923962
0.544408
0.4829293
0.4012587
0.2908395
0.6620987
0.6302118
0.591376
0.5429705
0.4808447
0.3983403
0.2865154
0.6887738
0.6620186
0.6300207
0.591025
0.5423787
0.4800631
0.3974165
0.285072
0.7118745
0.6891527
0.6623896
0.6303747
0.5913458
0.5427823
0.4807102
0.3983139
0.286535
0.7321398
0.7126522
0.6899957
0.6633119
0.631394
0.5926001
0.5444573
0.4828994
0.4013787
0.2915296
0.7501755
0.7333354
0.7139768
0.6914789
0.6649936
0.6334213
0.5951654
0.5476929
0.487139
0.4073283
0.2958234
0.7664506
0.7518187
0.7351655
0.7160355
0.6938221
0.667772
0.6368267
0.5993514
0.5529788
0.4940737
0.4136242
0.3067906
0.7811685
0.7683901
0.7539753
0.737586
0.7187811
0.6970346
0.671628
0.6414742
0.605072
0.5602122
0.5013462
0.4249979
0.3283932
0.7940802
0.7828162
0.7702064
0.7559935
0.7398483
0.7213925
0.7001208
0.675278
0.6458625
0.6104556
0.5654067
0.5090175
0.4367847
0.3503946
0.8052819
0.7952488
0.7840894
0.771603
0.7575369
0.7416103
0.7234549
0.7025234
0.678114
0.6492638
0.613404
0.5697541
0.5152123
0.4462556
0.3672174
0.8150138
0.8059887
0.7960058
0.7849047
0.7724863
0.7585364
0.742778
0.7247991
0.7040878
0.6799585
0.6505009
0.6154097
0.5726122
0.5193903
0.4526975
0.8235151
0.8153246
0.8063079
0.796334
0.7852426
0.7728663
0.7589907
0.7432963
0.725396
0.7047826
0.6799726
0.6509118
0.6161674
0.5738855
0.5214643
0.3877035
0.4509613
0.3721205
0.5089096
0.4382492
0.3514427
0.5564103
0.4990302
0.4242869
0.3284308
0.5971618
0.5505726
0.4912054
0.4131094
0.309899
0.632336
0.5941058
0.546567
0.4857614
0.4052266
0.2972189
0.6626271
0.6308482
0.5921588
0.5439596
0.4821434
0.4001609
0.2894171
0.6887738
0.6620186
0.6300207
0.591025
0.5423787
0.4800631
0.3974165
0.285072
0.7114927
0.6887067
0.6618613
0.6297381
0.5905623
0.5417915
0.4794084
0.3964877
0.2836172
0.7314167
0.7118174
0.6890207
0.6621569
0.6300022
0.590887
0.542291
0.4800531
0.3973821
0.2850752
0.7490861
0.7320905
0.7125397
0.6898004
0.663005
0.6310248
0.5922162
0.543964
0.4822399
0.400445
0.2844344
0.764962
0.7501326
0.7332386
0.7138106
0.6912219
0.6646902
0.6331128
0.5947805
0.5471986
0.4864794
0.4028019
0.2885221
0.7794098
0.7664133
0.7517353
0.735024
0.7158194
0.693571
0.6675217
0.6365221
0.5989725
0.5524942
0.4909447
0.4092456
0.298079
0.7925749
0.7811367
0.7683195
0.7538569
0.7374073
0.7185763
0.6968354
0.6713921
0.6411903
0.6047229
0.5580682
0.4990508
0.4220273
0.3243126
0.8042029
0.7940526
0.7827554
0.7701052
0.7558422
0.7396769
0.7212286
0.6999308
0.6750545
0.6455953
0.60887
0.5639616
0.5074932
0.4352819
0.3492035
0.8143506
0.8052575
0.7951953
0.784001
0.771472
0.7573897
0.7414713
0.7232961
0.7023397
0.6778987
0.6480161
0.6123468
0.5687345
0.5143104
0.4456358
0.8232119
0.8149919
0.805941
0.7959274
0.7847893
0.7723576
0.7584161
0.7426419
0.7246437
0.7039083
0.6789367
0.6496648
0.6146364
0.5719613
0.5189672
0.8309868
0.8234952
0.8152816
0.8062376
0.796231
0.7851286
0.7727604
0.758872
0.7431621
0.7252428
0.7039222
0.6792827
0.6502891
0.6156583
0.573566
0.3977411
0.4606204
0.3874006
0.5179586
0.4507275
0.3714863
0.563856
0.5087267
0.4377596
0.3504132
0.6016776
0.5562617
0.4986466
0.4235042
0.3269103
0.6347255
0.5970421
0.5502731
0.4906205
0.4120342
0.3082893
0.6637818
0.6322389
0.593869
0.5461203
0.4849802
0.4041389
0.2958181
0.6892198
0.662547
0.6306572
0.5918081
0.5433687
0.4813637
0.3992402
0.2879823
0.7114927
0.6887067
0.6618613
0.6297381
0.5905623
0.5417915
0.4794084
0.3964877
0.2836172
0.7310861
0.7114356
0.6885747
0.6616286
0.6293656
0.5901032
0.5412998
0.4787505
0.3955539
0.2821507
0.7484535
0.7313675
0.7117051
0.6888254
0.6618499
0.6296326
0.5905026
0.5417971
0.4793923
0.3964446
0.2779126
0.7640004
0.7490431
0.7319935
0.7123733
0.6895427
0.6627004
0.6307151
0.5918297
0.5434674
0.4815759
0.3958698
0.2772999
0.7780854
0.7649242
0.7500481
0.7330951
0.7135913
0.6909667
0.6644353
0.6328017
0.5943924
0.5467003
0.4832433
0.3982784
0.2796801
0.7909989
0.7793767
0.7663397
0.7516116
0.7348371
0.7156048
0.6933602
0.6672695
0.6362151
0.5985906
0.5501175
0.4878057
0.4039689
0.2867977
0.8028453
0.7925465
0.781074
0.7682151
0.7537006
0.7372299
0.7184057
0.6966362
0.6711564
0.6409065
0.6030252
0.5563156
0.4969013
0.4194536
0.3214934
0.8133721
0.8041781
0.7939982
0.7826653
0.7699715
0.7556919
0.7395347
0.7210655
0.6997416
0.674832
0.6443017
0.6077218
0.5627913
0.5063923
0.4344749
0.8226075
0.8143285
0.8052093
0.7951161
0.7838843
0.7713418
0.7572679
0.7413333
0.7231383
0.7021571
0.6768579
0.6471521
0.6115344
0.5680389
0.5138515
0.8307093
0.8231919
0.8149487
0.8058704
0.7958239
0.7846746
0.7722512
0.7582967
0.7425068
0.7244894
0.7030413
0.6782388
0.649032
0.6141168
0.5716339
0.8378466
0.8309687
0.8234561
0.8152179
0.8061446
0.7961287
0.7850342
0.7726554
0.7587542
0.7430288
0.7245027
0.7033368
0.6787627
0.6498722
0.615403
0.4026761
0.4670416
0.3974514
0.5250067
0.4603978
0.3868088
0.5708454
0.5177858
0.4502702
0.3705519
0.6076093
0.5637162
0.5083686
0.4370378
0.3490576
0.6384068
0.6015607
0.5559703
0.4980804
0.4224729
0.3254006
0.6657673
0.6346289
0.5968071
0.5498309
0.4898496
0.4109673
0.306931
0.6901949
0.6637018
0.6320481
0.5935192
0.5455316
0.484205
0.4032256
0.2944031
0.7118745
0.6891527
0.6623896
0.6303747
0.5913458
0.5427823
0.4807102
0.3983139
0.286535
0.7310861
0.7114356
0.6885747
0.6616286
0.6293656
0.5901032
0.5412998
0.4787505
0.3955539
0.2821507
0.7481643
0.7310369
0.7113233
0.6883795
0.6613216
0.6289958
0.5897188
0.5408058
0.4780894
0.394615
0.2749605
0.7634423
0.7484107
0.7312706
0.7115387
0.6885678
0.6615452
0.629323
0.5901163
0.5413006
0.4787278
0.3918566
0.2709452
0.7772304
0.7639627
0.7489586
0.7318499
0.7121536
0.6892868
0.662445
0.6304035
0.5914408
0.5429676
0.4783237
0.3914862
0.2690339
0.789813
0.778052
0.7648499
0.7499229
0.7329057
0.7133735
0.6907523
0.6641784
0.6324882
0.5940011
0.5442558
0.4800255
0.3930136
0.269117
0.801425
0.7909693
0.7793114
0.7662308
0.7514484
0.7346515
0.7154247
0.6931477
0.6670154
0.6359057
0.5967178
0.5477364
0.4840418
0.3973685
0.2714082
0.8121415
0.8028198
0.7924904
0.7809812
0.7680771
0.7535454
0.7370821
0.7182352
0.6964372
0.6709208
0.6395263
0.601639
0.5546762
0.4950459
0.4177188
0.821716
0.8133496
0.8041291
0.7939175
0.7825463
0.7698387
0.7555673
0.7393932
0.7209033
0.6995534
0.6737553
0.6433659
0.6067926
0.5619466
0.5058019
0.8301563
0.8225874
0.8142849
0.8051379
0.7950114
0.7837683
0.771234
0.7571468
0.7411962
0.7229815
0.701275
0.6761377
0.6464885
0.6109803
0.5676851
0.8375917
0.8306911
0.8231526
0.8148846
0.805777
0.795721
0.7845797
0.7721455
0.7581781
0.7423726
0.723744
0.7024494
0.6777107
0.6486068
0.6138555
0.8441659
0.8378299
0.8309329
0.8233981
0.8151336
0.8060523
0.796044
0.7849405
0.7725511
0.7586372
0.7423852
0.7239994
0.7028957
0.6784146
0.6496631
0.4702198
0.4023926
0.5297091
0.4668258
0.3968852
0.5763115
0.5248408
0.459962
0.3859368
0.6131975
0.5707125
0.5174475
0.4495959
0.3693219
0.6432536
0.6074988
0.5634422
0.5078401
0.4360871
0.3477125
0.6688298
0.6383122
0.6013311
0.5555399
0.4973342
0.4214495
0.3241272
0.6918722
0.6656877
0.6344392
0.5964598
0.5492479
0.4890846
0.4100698
0.3055563
0.7127093
0.6901277
0.6635445
0.631766
0.5930579
0.5449475
0.4835544
0.4023055
0.2929736
0.7314167
0.7118174
0.6890207
0.6621569
0.6300022
0.590887
0.542291
0.4800531
0.3973821
0.2850752
0.7481643
0.7310369
0.7113233
0.6883795
0.6613216
0.6289958
0.5897188
0.5408058
0.4780894
0.394615
0.2749605
0.7631872
0.7481215
0.7309401
0.7111571
0.688122
0.6610169
0.6286863
0.5893327
0.5403095
0.477425
0.3900228
0.2680736
0.7767342
0.7634046
0.7483262
0.7311272
0.7113192
0.688312
0.66129
0.6290118
0.5897281
0.5408015
0.4754776
0.387592
0.2630925
0.7890476
0.7771969
0.7638883
0.7488334
0.7316603
0.7119354
0.6890722
0.662188
0.6300899
0.5910494
0.5405199
0.4752203
0.3865994
0.259623
0.8003569
0.7897831
0.777986
0.7647396
0.7497576
0.7327175
0.7131906
0.6905363
0.6639194
0.6321722
0.5920823
0.5418274
0.4762946
0.3869289
0.2566807
0.8108549
0.8013984
0.790911
0.7792147
0.7660869
0.7512862
0.7344956
0.7152431
0.6929337
0.6667593
0.6343887
0.5948423
0.5448842
0.4793578
0.3886166
0.2447483
0.8205956
0.8121184
0.8027693
0.7924073
0.7808585
0.7679401
0.7534161
0.7369344
0.7180648
0.6962383
0.6697751
0.6384001
0.6003427
0.5532623
0.4937989
0.8293409
0.8216956
0.8133052
0.8040564
0.7938109
0.7824282
0.7697287
0.7554434
0.7392524
0.7207419
0.6986424
0.6729769
0.6426088
0.6061222
0.5614938
0.8370838
0.8301379
0.8225477
0.8142202
0.8050436
0.7949075
0.7836723
0.771127
0.7570266
0.7410601
0.7222238
0.700665
0.6755848
0.6460361
0.6106986
0.843931
0.837575
0.8306552
0.8230943
0.8148
0.8056842
0.7956359
0.7844855
0.7720406
0.7580604
0.7417247
0.7232354
0.7020017
0.6773561
0.6483931
0.8500054
0.8441506
0.8377971
0.8308798
0.8233213
0.8150499
0.8059759
0.79596
0.7848476
0.7724475
0.7580722
0.7419478
0.7236203
0.7026005
0.6782402
0.5320423
0.4700073
0.4018384
0.5799694
0.5295474
0.4664034
0.3960508
0.6175817
0.5761831
0.5245157
0.4593197
0.3847889
0.6478328
0.6130919
0.5704519
0.5169483
0.448708
0.3681019
0.6728695
0.6431638
0.6072818
0.5630376
0.5071438
0.435144
0.3465884
0.6944619
0.6687515
0.6381263
0.6009918
0.5549725
0.4965938
0.4205889
0.3228387
0.714146
0.6918053
0.665531
0.6341586
0.5960018
0.5486693
0.4884416
0.4091642
0.3041648
0.7321398
0.7126522
0.6899957
0.6633119
0.631394
0.5926001
0.5444573
0.4828994
0.4013787
0.2915296
0.7484535
0.7313675
0.7117051
0.6888254
0.6618499
0.6296326
0.5905026
0.5417971
0.4793923
0.3964446
0.2779126
0.7631872
0.7481215
0.7309401
0.7111571
0.688122
0.6610169
0.6286863
0.5893327
0.5403095
0.477425
0.3900228
0.2680736
0.7765074
0.7631495
0.7480372
0.7307968
0.7109378
0.6878663
0.6607619
0.6283755
0.5889448
0.5398109
0.4741769
0.385814
0.2604078
0.7886036
0.7767008
0.7633304
0.7482012
0.7309378
0.7111013
0.6880978
0.6610336
0.6286991
0.5893378
0.5383607
0.4724667
0.3829639
0.2543603
0.7996678
0.7890178
0.777131
0.7637781
0.748668
0.731472
0.7117525
0.6888564
0.6619293
0.6297744
0.5891331
0.5381861
0.4717704
0.3812197
0.2491014
0.8098879
0.80033
0.7897242
0.7778882
0.7645941
0.7495933
0.7325595
0.7130063
0.6903185
0.6636584
0.6306225
0.5901767
0.5390137
0.4719991
0.379971
0.2398248
0.8194248
0.8108309
0.801346
0.7908245
0.7790869
0.7659439
0.75115
0.7343386
0.7150602
0.692718
0.6655036
0.6328698
0.5925966
0.5413409
0.4731808
0.3737853
0.2295748
0.8283166
0.8205746
0.8120728
0.8026946
0.7922976
0.7807367
0.767826
0.7532868
0.7367868
0.7178945
0.6952711
0.6688408
0.6373473
0.5992252
0.5523125
0.8363353
0.8293223
0.8216552
0.8132394
0.8039604
0.7937051
0.7823302
0.7696192
0.7553201
0.7391124
0.7199606
0.6979842
0.6723474
0.6420627
0.6057628
0.8434631
0.837067
0.8301017
0.8224888
0.8141347
0.8049498
0.7948214
0.783577
0.7710207
0.7569072
0.740402
0.7217002
0.7001968
0.6752079
0.645806
0.8497882
0.8439156
0.837542
0.8306019
0.8230172
0.8147159
0.8056075
0.7955514
0.784392
0.7719364
0.7574917
0.7412827
0.7228508
0.7017011
0.6771778
0.8554169
0.8499912
0.8441204
0.8377484
0.8308097
0.8232451
0.8149807
0.8059001
0.7958766
0.7847553
0.7719475
0.7576883
0.7416183
0.7233666
0.7024525
0.581788
0.5318826
0.4695914
0.4010217
0.6205227
0.5798439
0.5292306
0.4657807
0.3949525
0.6514344
0.6174793
0.5759315
0.5240362
0.4584738
0.3836505
0.6766948
0.6477467
0.6128846
0.5700673
0.5162909
0.4478274
0.3670877
0.6978835
0.672795
0.6429875
0.6069613
0.5625044
0.5064532
0.4343573
0.3454615
0.716366
0.6943961
0.6685977
0.6378514
0.6005444
0.5544094
0.4959715
0.4197207
0.3215348
0.7333847
0.714089
0.6916737
0.6652993
0.6337886
0.5955473
0.5481831
0.4877931
0.4082504
0.3027565
0.7490861
0.7320905
0.7125397
0.6898004
0.663005
0.6310248
0.5922162
0.543964
0.4822399
0.400445
0.2844344
0.7634423
0.7484107
0.7312706
0.7115387
0.6885678
0.6615452
0.629323
0.5901163
0.5413006
0.4787278
0.3918566
0.2709452
0.7765074
0.7631495
0.7480372
0.7307968
0.7109378
0.6878663
0.6607619
0.6283755
0.5889448
0.5398109
0.4741769
0.385814
0.2604078
0.7884007
0.7764741
0.7630754
0.7479123
0.7306076
0.71072
0.6876523
0.6605059
0.6280633
0.5885553
0.5373741
0.4712093
0.3813015
0.2519664
0.7992681
0.7885738
0.7766351
0.7632204
0.7480361
0.7307498
0.7109188
0.6878826
0.6607759
0.6283848
0.5874297
0.5361011
0.4692064
0.3779898
0.2447788
0.8092643
0.799641
0.7889589
0.7770333
0.7636326
0.7485038
0.7313141
0.7115685
0.6886392
0.6616691
0.6282297
0.5873064
0.5355927
0.4679833
0.3753877
0.2354427
0.8185452
0.8098636
0.8002771
0.7896368
0.777759
0.7644494
0.7494554
0.7324003
0.7128205
0.6900991
0.6623786
0.6290835
0.5879692
0.5357784
0.4671062
0.37079
0.2274214
0.8272467
0.819403
0.8107835
0.8012682
0.7907103
0.7789599
0.7658239
0.7510128
0.7341804
0.7148759
0.6916604
0.6642465
0.6310515
0.5898094
0.5366799
0.4627722
0.3648661
0.2180576
0.8353953
0.8282974
0.8205332
0.8120051
0.8025957
0.7921885
0.7806352
0.767712
0.7531577
0.7366393
0.7170666
0.6944827
0.6679674
0.6364398
0.5984746
0.8427736
0.8363182
0.8292854
0.8215954
0.8131525
0.803865
0.7936173
0.7822327
0.7695102
0.7551974
0.7384347
0.7193964
0.697452
0.6718934
0.64177
0.8493558
0.8434476
0.8370338
0.8300479
0.822411
0.8140497
0.8048723
0.7947359
0.7834823
0.7709151
0.7563302
0.7399474
0.7212983
0.6998777
0.6750163
0.8552156
0.849774
0.8438853
0.8374931
0.8305314
0.8229407
0.8146463
0.8055313
0.7954676
0.7842992
0.7714333
0.7571041
0.7409487
0.7225926
0.70155
0.860445
0.8554038
0.8499633
0.8440755
0.837684
0.83074
0.823182
0.8149119
0.8058249
0.7957938
0.7843095
0.7716079
0.7573992
0.7413979
0.7232395
0.6219873
0.5816639
0.5315697
0.468978
0.3999466
0.6538551
0.6204223
0.5795978
0.5287631
0.4649608
0.3938631
0.6797098
0.6513508
0.6172784
0.5755601
0.5234045
0.4576349
0.3827058
0.7011297
0.6766233
0.6475776
0.6125785
0.5695605
0.5156388
0.4470961
0.3660763
0.719303
0.6978207
0.6726487
0.6427269
0.6065388
0.5619755
0.5058774
0.4335701
0.3443319
0.7353096
0.7163098
0.6942666
0.6683702
0.6374888
0.6001003
0.5539363
0.4953441
0.4188449
0.3202153
0.7501755
0.7333354
0.7139768
0.6914789
0.6649936
0.6334213
0.5951654
0.5476929
0.487139
0.4073283
0.2958234
0.7640004
0.7490431
0.7319935
0.7123733
0.6895427
0.6627004
0.6307151
0.5918297
0.5434674
0.4815759
0.3958698
0.2772999
0.7767342
0.7634046
0.7483262
0.7311272
0.7113192
0.688312
0.66129
0.6290118
0.5897281
0.5408015
0.4754776
0.387592
0.2630925
0.7884007
0.7764741
0.7630754
0.7479123
0.7306076
0.71072
0.6876523
0.6605059
0.6280633
0.5885553
0.5373741
0.4712093
0.3813015
0.2519664
0.7990855
0.7883709
0.7764084
0.7629655
0.7477473
0.7304197
0.7105377
0.6874375
0.6602487
0.6277497
0.5866516
0.5351492
0.4680334
0.3764992
0.2427674
0.8089026
0.7992414
0.7885151
0.7765376
0.7630752
0.7478722
0.7305923
0.7107354
0.6876663
0.660517
0.6268485
0.5856638
0.533655
0.4657099
0.3727026
0.2324662
0.8179782
0.8092401
0.7995881
0.7888717
0.7769042
0.763488
0.7483661
0.7311553
0.7113834
0.6884207
0.6603954
0.6267573
0.5852766
0.5327482
0.4638888
0.3680371
0.224902
0.8264433
0.8185232
0.8098158
0.8001986
0.7895214
0.7776306
0.764328
0.7493165
0.7322399
0.7126333
0.6890232
0.6611077
0.627301
0.5854325
0.5320995
0.4606728
0.3634231
0.2169656
0.834414
0.8272268
0.81936
0.8107132
0.8011654
0.7905967
0.7788533
0.765703
0.7508746
0.734021
0.7139722
0.6906017
0.6627418
0.6287961
0.5861487
0.5288507
0.4565479
0.3576332
0.2090348
0.841908
0.8353777
0.8282596
0.8204716
0.8119157
0.8024976
0.7920977
0.7805338
0.767598
0.7530287
0.7359223
0.7163919
0.6937458
0.6672148
0.6358303
0.8487187
0.8427578
0.8362844
0.8292308
0.8215163
0.8130661
0.8037859
0.79353
0.7821358
0.7694018
0.7546037
0.7379455
0.7189403
0.6970683
0.67165
0.8548148
0.8493415
0.843417
0.8369844
0.8299768
0.8223337
0.8139794
0.8047952
0.794651
0.7833882
0.7704049
0.7559317
0.7395986
0.7210245
0.6997155
0.860258
0.8552025
0.849746
0.8438403
0.8374285
0.8304614
0.8228773
0.8145773
0.8054556
0.7953843
0.7838508
0.7710904
0.7568111
0.7407244
0.7224629
0.8651284
0.8604329
0.855378
0.8499219
0.8440162
0.83762
0.8306823
0.8231194
0.8148437
0.8057502
0.795394
0.7840069
0.7713521
0.7572059
0.7412874
0.6550623
0.6218879
0.5814205
0.5311081
0.4681704
0.3988804
0.6817394
0.653773
0.6202254
0.5792345
0.5281473
0.4641476
0.3929598
0.7036925
0.6796401
0.6511865
0.6169818
0.5750707
0.5227781
0.4569393
0.3817656
0.7220938
0.7010692
0.6764826
0.6473278
0.612175
0.5690578
0.5150976
0.4463675
0.3650679
0.7378592
0.7192493
0.6976973
0.6724324
0.6423833
0.6061197
0.5615347
0.5053015
0.4327823
0.3431995
0.7518611
0.7352611
0.7161992
0.694075
0.66807
0.6371289
0.5997273
0.5534595
0.4947116
0.4179613
0.31372
0.764962
0.7501326
0.7332386
0.7138106
0.6912219
0.6646902
0.6331128
0.5947805
0.5471986
0.4864794
0.4028019
0.2885221
0.7772304
0.7639627
0.7489586
0.7318499
0.7121536
0.6892868
0.662445
0.6304035
0.5914408
0.5429676
0.4783237
0.3914862
0.2690339
0.7886036
0.7767008
0.7633304
0.7482012
0.7309378
0.7111013
0.6880978
0.6610336
0.6286991
0.5893378
0.5383607
0.4724667
0.3829639
0.2543603
0.7990855
0.7883709
0.7764084
0.7629655
0.7477473
0.7304197
0.7105377
0.6874375
0.6602487
0.6277497
0.5866516
0.5351492
0.4680334
0.3764992
0.2427674
0.8087374
0.7990588
0.7883123
0.776311
0.7628205
0.7475836
0.7302625
0.7103547
0.6872217
0.6599905
0.6262177
0.584914
0.5327686
0.4646599
0.3714315
0.2309844
0.8176494
0.8088785
0.7991887
0.7884281
0.7764088
0.7629309
0.7477349
0.7304342
0.7105512
0.687449
0.6592512
0.6254269
0.5837521
0.5310331
0.4620008
0.3661141
0.2229415
0.8259256
0.8179562
0.8091923
0.7995097
0.7887564
0.776776
0.7633668
0.7482275
0.7309955
0.7111971
0.6873512
0.6591814
0.6251214
0.5830512
0.5296764
0.4587403
0.3617042
0.215495
0.8336774
0.8264233
0.8184798
0.8097449
0.8000948
0.7894066
0.7775228
0.7642056
0.7491764
0.7320782
0.7117154
0.6879548
0.6596358
0.6252536
0.5825513
0.527272
0.4555249
0.3567683
0.2083881
0.8410048
0.8343958
0.8271876
0.8192961
0.8106202
0.8010633
0.7905013
0.7787458
0.7655811
0.7507354
0.7332396
0.7130677
0.6893345
0.6608764
0.6258374
0.5800137
0.5241942
0.4515043
0.3516283
0.2019349
0.8479192
0.8418919
0.8353431
0.8282034
0.8203903
0.8118268
0.8024158
0.7920069
0.7804325
0.7674842
0.7524014
0.7353381
0.7157614
0.6931109
0.6667093
0.8542245
0.8487042
0.8427268
0.8362343
0.8291585
0.8214377
0.8129944
0.8037072
0.7934431
0.7820393
0.7688774
0.7541754
0.73755
0.7186115
0.6968626
0.8598855
0.8548016
0.8493132
0.8433715
0.8369192
0.8299061
0.8222697
0.8139096
0.8047187
0.7945667
0.7829338
0.7700526
0.755626
0.739361
0.7208854
0.8649541
0.8602458
0.8551765
0.8497045
0.8437807
0.8373642
0.8304035
0.8228144
0.8145087
0.8053805
0.7949822
0.7835454
0.7708313
0.7566144
0.7406117
0.8695002
0.8651171
0.8604089
0.8553396
0.8498671
0.8439573
0.8375671
0.830625
0.8230573
0.814776
0.8053895
0.7951226
0.783779
0.7711811
0.757109
0.6827525
0.6549808
0.6216929
0.5810611
0.5304999
0.4673695
0.3979962
0.7054199
0.6816708
0.6536116
0.6199345
0.5787558
0.5275367
0.4634736
0.3920611
0.7243003
0.7036334
0.6795031
0.6509437
0.6165907
0.5745853
0.5222588
0.4562474
0.3808299
0.7402852
0.722042
0.7009502
0.6762747
0.6469985
0.6117748
0.5686407
0.5145585
0.4456417
0.3640624
0.7540959
0.7378128
0.7191437
0.6975147
0.672147
0.6420423
0.6057704
0.5610938
0.5047255
0.4319941
0.3376783
0.7664506
0.7518187
0.7351655
0.7160355
0.6938221
0.667772
0.6368267
0.5993514
0.5529788
0.4940737
0.4136242
0.3067906
0.7780854
0.7649242
0.7500481
0.7330951
0.7135913
0.6909667
0.6644353
0.6328017
0.5943924
0.5467003
0.4832433
0.3982784
0.2796801
0.7890476
0.7771969
0.7638883
0.7488334
0.7316603
0.7119354
0.6890722
0.662188
0.6300899
0.5910494
0.5405199
0.4752203
0.3865994
0.259623
0.7992681
0.7885738
0.7766351
0.7632204
0.7480361
0.7307498
0.7109188
0.6878826
0.6607759
0.6283848
0.5874297
0.5361011
0.4692064
0.3779898
0.2447788
0.8087374
0.7990588
0.7883123
0.776311
0.7628205
0.7475836
0.7302625
0.7103547
0.6872217
0.6599905
0.6262177
0.584914
0.5327686
0.4646599
0.3714315
0.2309844
0.8174992
0.8087133
0.7990062
0.7882254
0.7761824
0.7626764
0.7474465
0.7301047
0.7101709
0.6870051
0.6587288
0.6248197
0.5830547
0.5302408
0.4611059
0.3651397
0.2219009
0.8256254
0.8176275
0.8088309
0.7991105
0.7883131
0.7762808
0.7628101
0.747597
0.7302753
0.7103661
0.686387
0.6580802
0.6238878
0.5817035
0.5282538
0.4573867
0.3603397
0.2142422
0.8332028
0.8259056
0.8179129
0.8091215
0.7994061
0.7886418
0.7766684
0.7632449
0.7480882
0.7308348
0.7102857
0.6863319
0.6578325
0.6233283
0.5806497
0.5258186
0.4543056
0.3556163
0.2074707
0.8403271
0.833659
0.8263837
0.8184154
0.8096511
0.7999916
0.7893103
0.7774142
0.7640823
0.7490353
0.7312854
0.7108039
0.6867174
0.6579457
0.62293
0.578776
0.5234212
0.4508766
0.3509985
0.2014902
0.8470853
0.8409881
0.8343598
0.8271293
0.8192116
0.8105278
0.8009775
0.7904053
0.7786376
0.7654584
0.7500527
0.7324575
0.7119852
0.6877642
0.6584314
0.6208875
0.5763791
0.5204313
0.4473193
0.3466871
0.1964306
0.8534839
0.8479043
0.84186
0.8352916
0.8281292
0.8203095
0.8117528
0.8023341
0.7919163
0.7803313
0.7669306
0.7518904
0.7347921
0.7152182
0.6926844
0.8593371
0.8542111
0.8486755
0.8426806
0.836168
0.8290867
0.8213725
0.8129232