/*--------------------------------*- C++ -*----------------------------------*\
| =========                 |                                                 |
| \\      /  F ield         | OpenFOAM: The Open Source CFD Toolbox           |
|  \\    /   O peration     | Version:  2306                                  |
|   \\  /    A nd           | Website:  www.openfoam.com                      |
|    \\/     M anipulation  |                                                 |
\*---------------------------------------------------------------------------*/
FoamFile
{
    version     2.0;
    format      ascii;
    arch        "LSB;label=32;scalar=64";
    class       volScalarField;
    location    "0.6/fuel";
    object      iDmdtfuel.H2O;
}
// * * * * * * * * * * * * * * * * * * * * * * * * * * * * * * * * * * * * * //

dimensions      [1 -3 -1 0 0 0 0];

internalField   nonuniform List<scalar> 
16000
(
91.79968
92.52514
83.74016
87.51125
93.97784
84.20719
88.17996
76.7392
80.044
84.48715
96.15708
85.11889
89.51786
77.09396
80.47684
85.11827
71.07942
73.52812
77.41634
82.62394
98.97298
86.43015
91.52291
77.7784
81.32118
86.38054
71.36895
73.85842
77.82597
83.2343
66.36875
68.24145
71.23161
75.77611
81.81768
101.975
88.01622
94.11088
78.74336
82.53485
88.27205
71.92347
74.49527
78.62477
84.45538
66.61421
68.51203
71.54507
76.17228
82.42191
62.32646
63.82809
66.20319
69.78514
75.04186
0
104.1718
89.55303
96.86626
79.87212
84.00191
90.71411
72.69508
75.39273
79.77283
86.2866
67.08202
69.02995
72.1492
76.94485
83.63173
62.5395
64.05822
66.46059
70.08853
75.43308
0
58.78608
60.03099
61.99755
64.91172
69.12426
0
0
105.4955
90.56667
98.87321
80.90843
85.42214
93.31557
73.57732
76.44196
81.16066
88.65477
67.72675
69.75032
73.00043
78.05562
85.44901
62.94408
64.49654
66.95309
70.67323
76.19631
0
58.97421
60.23128
62.21695
65.16112
69.42357
0
0
55.63484
56.6975
58.37296
60.83284
64.31463
0
0
0
106.208
91.10742
100.0769
81.54062
86.35565
95.20429
74.35686
77.40449
82.50425
91.18382
68.45139
70.57351
73.99554
79.39947
87.80613
63.49754
65.10036
67.63797
71.49722
77.29452
0
59.33057
60.61141
62.63464
65.63825
70.00053
0
0
55.80312
56.8748
58.56427
61.04564
64.56063
0
0
0
52.7972
53.72394
55.18579
57.3147
60.29035
0
0
0
0
106.5144
91.36514
100.722
81.83736
86.85182
96.33373
74.80378
77.98991
83.38462
93.01686
69.07291
71.30021
74.90816
80.70183
90.33407
64.11118
65.7786
68.42044
72.46089
78.62516
0
59.81516
61.13118
63.20992
66.30179
70.81399
0
0
56.1213
57.21045
58.92722
61.45073
65.03131
0
0
0
52.94924
53.88289
55.35545
57.50047
60.50028
0
0
0
0
50.21845
51.04089
52.33846
54.21859
56.81937
0
0
0
0
0
106.5144
91.46555
100.9986
81.95435
87.08744
96.93779
74.98871
78.26376
83.85129
94.11216
69.41091
71.71557
75.46143
81.55291
92.16618
64.62479
66.35966
69.11076
73.34494
79.91718
0
60.34648
61.70705
63.85587
67.06
71.76617
0
0
56.55185
57.66666
59.42335
62.00863
65.68607
0
0
0
53.23635
54.18326
55.67649
57.85282
60.89992
0
0
0
0
50.35693
51.1848
52.4908
54.38349
57.00268
0
0
0
0
0
47.85769
48.59802
49.76561
51.45029
53.76435
0
0
0
0
0
0
106.208
91.46555
100.9986
81.99073
87.17895
97.19645
75.04427
78.37125
84.07248
94.69809
69.53376
71.88671
75.7194
82.00341
93.26244
64.89125
66.67457
69.50388
73.87907
80.7597
0
60.78217
62.18837
64.40874
67.72876
72.64035
0
0
57.01952
58.16645
59.97277
62.63505
66.43462
0
0
0
53.62327
54.5895
56.1127
58.33444
61.45042
0
0
0
0
50.61821
51.45639
52.77855
54.69547
57.35038
0
0
0
0
0
47.98467
48.72934
49.90373
51.5985
53.92712
0
0
0
0
0
0
45.68324
46.35769
47.4199
48.9468
51.03219
0
0
0
0
0
0
0
105.4955
91.36514
100.722
81.99073
87.17895
97.19645
75.0536
78.4045
84.15829
94.94912
69.55711
71.9377
75.82034
82.21698
93.85038
64.97548
66.78834
69.66512
74.12744
81.20558
0
60.99878
62.43709
64.70713
68.10805
73.16667
0
0
57.39633
58.5756
60.43141
63.17085
67.09489
0
0
0
54.0402
55.03035
56.59031
58.8677
62.06872
0
0
0
0
50.9691
51.8222
53.1676
55.11933
57.82571
0
0
0
0
0
48.22413
48.97698
50.16432
51.87841
54.23509
0
0
0
0
0
0
45.80033
46.47832
47.54612
49.0813
51.17855
0
0
0
0
0
0
0
43.67034
44.29071
45.2659
46.66249
48.56071
0
0
0
0
0
0
0
0
104.1718
91.10742
100.0769
81.95435
87.08744
96.93779
75.0536
78.4045
84.15829
94.94912
69.55287
71.94602
75.85144
82.29991
94.1029
64.98
66.80943
69.71275
74.22446
81.41742
0
61.05753
62.51498
64.81417
68.26287
73.41083
0
0
57.57652
58.77808
60.66728
63.45865
67.46767
0
0
0
54.37108
55.38488
56.9807
59.31242
62.59733
0
0
0
0
51.34463
52.21601
53.58952
55.58329
58.35208
0
0
0
0
0
48.54476
49.30936
50.51517
52.25679
54.65353
0
0
0
0
0
0
46.02109
46.70568
47.78405
49.33501
51.45495
0
0
0
0
0
0
0
43.77882
44.40212
45.38199
46.78551
48.69359
0
0
0
0
0
0
0
0
41.79873
42.37427
43.27614
44.56323
46.30496
0
0
0
0
0
0
0
0
0
101.975
90.56667
98.87321
81.83736
86.85182
96.33373
75.04427
78.37125
84.07248
94.69809
69.55287
71.94602
75.85144
82.29991
94.1029
64.96825
66.80511
69.7203
74.25432
81.49995
0
61.05048
62.51847
64.83348
68.30824
73.50619
0
0
57.61764
58.83221
60.74035
63.5611
67.61907
0
0
0
54.52375
55.55351
57.17285
59.53988
62.87974
0
0
0
0
51.63872
52.52787
53.92823
55.96206
58.79069
0
0
0
0
0
48.88587
49.6647
50.89259
52.66701
55.11159
0
0
0
0
0
0
46.31594
47.00994
48.10328
49.67655
51.82862
0
0
0
0
0
0
0
43.98338
44.61209
45.60073
47.01736
48.94421
0
0
0
0
0
0
0
0
41.89968
42.47765
43.3835
44.67647
46.42653
0
0
0
0
0
0
0
0
0
40.05251
40.58967
41.42915
42.62258
44.23131
0
0
0
0
0
0
0
0
0
0
98.97298
89.55303
96.86626
81.54062
86.35565
95.20429
74.98871
78.26376
83.85129
94.11216
69.55711
71.9377
75.82034
82.21698
93.85038
64.96825
66.80511
69.7203
74.25432
81.49995
0
61.03443
62.50709
64.82901
68.31526
73.53559
0
0
57.60323
58.82482
60.74292
63.57905
67.66312
0
0
0
54.55232
55.59117
57.2234
59.60953
62.97945
0
0
0
0
51.77
52.67089
54.08835
56.14735
59.01368
0
0
0
0
0
49.14993
49.94234
51.1909
52.99585
55.48514
0
0
0
0
0
0
46.628
47.33327
48.44429
50.04382
52.23373
0
0
0
0
0
0
0
44.25598
44.89234
45.89333
47.32838
49.28162
0
0
0
0
0
0
0
0
42.09007
42.67251
43.58575
44.8898
46.65566
0
0
0
0
0
0
0
0
0
40.14677
40.68601
41.52888
42.72738
44.34326
0
0
0
0
0
0
0
0
0
0
38.4176
38.92225
39.7073
40.81986
42.31373
0
0
0
0
0
0
0
0
0
0
96.15708
88.01622
94.11088
80.90843
85.42214
93.31557
74.80378
77.98991
83.38462
93.01686
69.53376
71.88671
75.7194
82.00341
93.26244
64.98
66.80943
69.71275
74.22446
81.41742
0
61.03443
62.50709
64.82901
68.31526
73.53559
0
0
57.5847
58.80936
60.73171
63.5744
67.66977
0
0
0
54.53317
55.57683
57.21559
59.61127
62.99638
0
0
0
0
51.7894
52.69679
54.12327
56.19527
59.08111
0
0
0
0
0
49.26429
50.06545
51.32678
53.15026
55.66666
0
0
0
0
0
0
46.86714
47.58295
48.71018
50.33362
52.55807
0
0
0
0
0
0
0
44.54321
45.18862
46.20402
47.66048
49.64442
0
0
0
0
0
0
0
0
42.34331
42.93203
43.85559
45.17511
46.96302
0
0
0
0
0
0
0
0
0
40.32464
40.86765
41.7168
42.92478
44.55415
0
0
0
0
0
0
0
0
0
0
38.50591
39.01234
39.80034
40.91729
42.41737
0
0
0
0
0
0
0
0
0
0
36.88337
37.359
38.09682
39.13811
40.53189
0
0
0
0
0
0
0
0
0
0
93.97784
86.43015
91.52291
79.87212
84.00191
90.71411
74.35686
77.40449
82.50425
91.18382
69.41091
71.71557
75.46143
81.55291
92.16618
64.97548
66.78834
69.66512
74.12744
81.20558
0
61.05048
62.51847
64.83348
68.30824
73.50619
0
0
57.5847
58.80936
60.73171
63.5744
67.66977
0
0
0
54.51326
55.55899
57.20046
59.60007
62.99148
0
0
0
0
51.7672
52.67796
54.10881
56.18696
59.08208
0
0
0
0
0
49.2769
50.08276
51.35054
53.18311
55.71277
0
0
0
0
0
0
46.96788
47.69027
48.8272
50.46466
52.70928
0
0
0
0
0
0
0
44.76138
45.41507
46.4434
47.91897
49.93031
0
0
0
0
0
0
0
0
42.60909
43.20514
44.14062
45.47791
47.29119
0
0
0
0
0
0
0
0
0
40.56084
41.10909
41.96697
43.18811
44.83621
0
0
0
0
0
0
0
0
0
0
38.67266
39.18226
39.9757
41.10084
42.61259
0
0
0
0
0
0
0
0
0
0
36.96631
37.44351
38.1839
39.22906
40.62827
0
0
0
0
0
0
0
0
0
0
35.43934
35.89012
36.58541
37.56406
38.86911
0
0
0
0
0
0
0
0
0
0
92.52514
85.11889
89.51786
78.74336
82.53485
88.27205
73.57732
76.44196
81.16066
88.65477
69.07291
71.30021
74.90816
80.70183
90.33407
64.89125
66.67457
69.50388
73.87907
80.7597
0
61.05753
62.51498
64.81417
68.26287
73.41083
0
0
57.60323
58.82482
60.74292
63.57905
67.66312
0
0
0
54.51326
55.55899
57.20046
59.60007
62.99148
0
0
0
0
51.74661
52.65878
54.09139
56.17194
59.07071
0
0
0
0
0
49.25281
50.06101
51.33177
53.16836
55.70387
0
0
0
0
0
0
46.97543
47.70122
48.84279
50.48675
52.74062
0
0
0
0
0
0
0
44.851
45.50969
46.54547
48.03183
50.0586
0
0
0
0
0
0
0
0
42.80943
43.41204
44.35797
45.71078
47.54625
0
0
0
0
0
0
0
0
0
40.8079
41.36218
42.23001
43.46611
45.13553
0
0
0
0
0
0
0
0
0
0
38.89379
39.40778
40.2087
41.34514
42.87301
0
0
0
0
0
0
0
0
0
0
37.12306
37.60302
38.34813
39.40047
40.80985
0
0
0
0
0
0
0
0
0
0
35.51748
35.96959
36.66718
37.64925
38.95911
0
0
0
0
0
0
0
0
0
0
34.07778
34.50589
35.16387
36.08589
37.31234
0
0
0
0
0
0
0
0
0
0
91.79968
84.20719
88.17996
77.7784
81.32118
86.38054
72.69508
75.39273
79.77283
86.2866
68.45139
70.57351
73.99554
79.39947
87.80613
64.62479
66.35966
69.11076
73.34494
79.91718
0
60.99878
62.43709
64.70713
68.10805
73.16667
0
0
57.61764
58.83221
60.74035
63.5611
67.61907
0
0
0
54.53317
55.57683
57.21559
59.61127
62.99638
0
0
0
0
51.74661
52.65878
54.09139
56.17194
59.07071
0
0
0
0
0
49.23199
50.04115
51.31304
53.1511
55.68874
0
0
0
0
0
0
46.95025
47.67767
48.82124
50.46784
52.72542
0
0
0
0
0
0
0
44.85476
45.5159
46.55502
48.04606
50.07943
0
0
0
0
0
0
0
0
42.88989
43.49629
44.44801
45.80925
47.65673
0
0
0
0
0
0
0
0
0
40.9929
41.55242
42.4288
43.6777
45.36537
0
0
0
0
0
0
0
0
0
0
39.12442
39.64337
40.45273
41.60189
43.14791
0
0
0
0
0
0
0
0
0
0
37.3307
37.81443
38.56599
39.62817
41.05154
0
0
0
0
0
0
0
0
0
0
35.66528
36.11973
36.8215
37.80988
39.12873
0
0
0
0
0
0
0
0
0
0
34.15157
34.58084
35.24084
36.16594
37.39667
0
0
0
0
0
0
0
0
0
0
32.79152
33.19917
33.82301
34.69476
35.84997
0
0
0
0
0
0
0
0
0
0
83.74016
87.51125
77.09396
80.47684
85.11827
71.92347
74.49527
78.62477
84.45538
67.72675
69.75032
73.00043
78.05562
85.44901
64.11118
65.7786
68.42044
72.46089
78.62516
0
60.78217
62.18837
64.40874
67.72876
72.64035
0
0
57.57652
58.77808
60.66728
63.45865
67.46767
0
0
0
54.55232
55.59117
57.2234
59.60953
62.97945
0
0
0
0
51.7672
52.67796
54.10881
56.18696
59.08208
0
0
0
0
0
49.23199
50.04115
51.31304
53.1511
55.68874
0
0
0
0
0
0
46.92951
47.65756
48.80184
50.44931
52.7081
0
0
0
0
0
0
0
44.82908
45.4913
46.53173
48.02446
50.06016
0
0
0
0
0
0
0
0
42.89083
43.49895
44.45307
45.81767
47.66989
0
0
0
0
0
0
0
0
0
41.06573
41.62813
42.50902
43.76458
45.46175
0
0
0
0
0
0
0
0
0
0
39.29615
39.81928
40.6357
41.79553
43.3568
0
0
0
0
0
0
0
0
0
0
0
37.54672
38.03464
38.79338
39.86651
41.3055
0
0
0
0
0
0
0
0
0
0
35.86088
36.31849
37.02593
38.02293
39.35407
0
0
0
0
0
0
0
0
0
0
34.29128
34.72258
35.38623
36.31697
37.55568
0
0
0
0
0
0
0
0
0
0
32.86135
33.27003
33.89567
34.77014
35.92922
0
0
0
0
0
0
0
0
0
0
31.57415
31.96333
32.55612
33.38178
34.4733
0
0
0
0
0
0
0
0
0
0
76.7392
80.044
84.48715
71.36895
73.85842
77.82597
83.2343
67.08202
69.02995
72.1492
76.94485
83.63173
63.49754
65.10036
67.63797
71.49722
77.29452
0
60.34648
61.70705
63.85587
67.06
71.76617
0
0
57.39633
58.5756
60.43141
63.17085
67.09489
0
0
0
54.52375
55.55351
57.17285
59.53988
62.87974
0
0
0
0
51.7894
52.69679
54.12327
56.19527
59.08111
0
0
0
0
0
49.25281
50.06101
51.33177
53.16836
55.70387
0
0
0
0
0
0
46.92951
47.65756
48.80184
50.44931
52.7081
0
0
0
0
0
0
0
44.80862
45.47125
46.51209
48.00528
50.04161
0
0
0
0
0
0
0
0
42.86505
43.47385
44.42878
45.7944
47.648
0
0
0
0
0
0
0
0
0
41.06457
41.62816
42.51072
43.76868
45.46926
0
0
0
0
0
0
0
0
0
0
39.36261
39.88787
40.70784
41.87296
43.44183
0
0
0
0
0
0
0
0
0
0
0
37.70681
38.19815
38.96274
40.04487
41.49674
0
0
0
0
0
0
0
0
0
0
0
0
36.06392
36.52501
37.23869
38.24518
39.5899
0
0
0
0
0
0
0
0
0
0
34.47601
34.91003
35.57862
36.51702
37.76658
0
0
0
0
0
0
0
0
0
0
32.99371
33.40416
34.03305
34.91252
36.07878
0
0
0
0
0
0
0
0
0
0
31.64035
32.03046
32.62487
33.45299
34.54797
0
0
0
0
0
0
0
0
0
0
30.42012
30.79242
31.35694
32.14052
33.17362
0
0
0
0
0
0
0
0
0
0
71.07942
73.52812
77.41634
82.62394
66.61421
68.51203
71.54507
76.17228
82.42191
62.94408
64.49654
66.95309
70.67323
76.19631
0
59.81516
61.13118
63.20992
66.30179
70.81399
0
0
57.01952
58.16645
59.97277
62.63505
66.43462
0
0
0
54.37108
55.38488
56.9807
59.31242
62.59733
0
0
0
0
51.77
52.67089
54.08835
56.14735
59.01368
0
0
0
0
0
49.2769
50.08276
51.35054
53.18311
55.71277
0
0
0
0
0
0
46.95025
47.67767
48.82124
50.46784
52.72542
0
0
0
0
0
0
0
44.80862
45.47125
46.51209
48.00528
50.04161
0
0
0
0
0
0
0
0
42.84503
43.45406
44.40917
45.77498
47.62882
0
0
0
0
0
0
0
0
0
41.03898
41.60296
42.48595
43.74445
45.44576
0
0
0
0
0
0
0
0
0
0
39.35993
39.88594
40.70705
41.87385
43.44514
0
0
0
0
0
0
0
0
0
0
0
37.76783
38.2608
39.02813
40.11452
41.57253
0
0
0
0
0
0
0
0
0
0
0
0
36.21381
36.67763
37.39626
38.41037
39.7661
0
0
0
0
0
0
0
0
0
0
0
0
0
34.66742
35.10439
35.77833
36.72509
37.98655
0
0
0
0
0
0
0
0
0
0
33.16861
33.58141
34.21466
35.1009
36.27687
0
0
0
0
0
0
0
0
0
0
31.76598
32.15767
32.75498
33.5876
34.68899
0
0
0
0
0
0
0
0
0
0
30.48299
30.85612
31.42211
32.20793
33.24417
0
0
0
0
0
0
0
0
0
0
29.32491
29.68128
30.21983
30.96496
31.9446
0
0
0
0
0
0
0
0
0
0
66.36875
68.24145
71.23161
75.77611
81.81768
62.5395
64.05822
66.46059
70.08853
75.43308
0
59.33057
60.61141
62.63464
65.63825
70.00053
0
0
56.55185
57.66666
59.42335
62.00863
65.68607
0
0
0
54.0402
55.03035
56.59031
58.8677
62.06872
0
0
0
0
51.63872
52.52787
53.92823
55.96206
58.79069
0
0
0
0
0
49.26429
50.06545
51.32678
53.15026
55.66666
0
0
0
0
0
0
46.97543
47.70122
48.84279
50.48675
52.74062
0
0
0
0
0
0
0
44.82908
45.4913
46.53173
48.02446
50.06016
0
0
0
0
0
0
0
0
42.84503
43.45406
44.40917
45.77498
47.62882
0
0
0
0
0
0
0
0
0
41.01949
41.58357
42.46659
43.72507
45.42634
0
0
0
0
0
0
0
0
0
0
39.33477
39.86093
40.68219
41.84917
43.42073
0
0
0
0
0
0
0
0
0
0
0
37.76405
38.25746
39.0255
40.11303
41.57272
0
0
0
0
0
0
0
0
0
0
0
0
36.27023
36.73521
37.45603
38.47353
39.83428
0
0
0
0
0
0
0
0
0
0
0
0
0
34.80826
35.24745
35.92554
36.87889
38.14979
0
0
0
0
0
0
0
0
0
0
0
0
0
0
33.34958
33.76484
34.40278
35.29634
36.48288
0
0
0
0
0
0
0
0
0
0
31.93192
32.32568
32.92685
33.76552
34.87557
0
0
0
0
0
0
0
0
0
0
30.60246
30.97699
31.54562
32.3355
33.37753
0
0
0
0
0
0
0
0
0
0
29.38472
29.74183
30.28172
31.02889
32.0114
0
0
0
0
0
0
0
0
0
0
28.28411
28.62573
29.13992
29.84965
30.78031
0
0
0
0
0
0
0
0
0
0
62.32646
63.82809
66.20319
69.78514
75.04186
0
58.97421
60.23128
62.21695
65.16112
69.42357
0
0
56.1213
57.21045
58.92722
61.45073
65.03131
0
0
0
53.62327
54.5895
56.1127
58.33444
61.45042
0
0
0
0
51.34463
52.21601
53.58952
55.58329
58.35208
0
0
0
0
0
49.14993
49.94234
51.1909
52.99585
55.48514
0
0
0
0
0
0
46.96788
47.69027
48.8272
50.46466
52.70928
0
0
0
0
0
0
0
44.85476
45.5159
46.55502
48.04606
50.07943
0
0
0
0
0
0
0
0
42.86505
43.47385
44.42878
45.7944
47.648
0
0
0
0
0
0
0
0
0
41.01949
41.58357
42.46659
43.72507
45.42634
0
0
0
0
0
0
0
0
0
0
39.31588
39.84202
40.6632
41.83002
43.40137
0
0
0
0
0
0
0
0
0
0
0
37.73947
38.23286
39.00083
40.08828
41.54789
0
0
0
0
0
0
0
0
0
0
0
0
36.26569
36.73086
37.45209
38.47029
39.83218
0
0
0
0
0
0
0
0
0
0
0
0
0
34.86073
35.30075
35.98052
36.93664
38.21163
0
0
0
0
0
0
0
0
0
0
0
0
0
0
33.48238
33.89942
34.5409
35.44011
36.6349
0
0
0
0
0
0
0
0
0
0
0
0
0
0
0
32.1034
32.49929
33.10456
33.94973
35.06913
0
0
0
0
0
0
0
0
0
0
30.7602
31.13655
31.70866
32.50397
33.55381
0
0
0
0
0
0
0
0
0
0
29.49855
29.85689
30.39916
31.15005
32.13782
0
0
0
0
0
0
0
0
0
0
28.3411
28.6834
29.1988
29.9104
30.84369
0
0
0
0
0
0
0
0
0
0
27.29349
27.62168
28.11329
28.78991
29.67543
0
0
0
0
0
0
0
0
0
0
58.78608
60.03099
61.99755
64.91172
69.12426
0
0
55.80312
56.8748
58.56427
61.04564
64.56063
0
0
0
53.23635
54.18326
55.67649
57.85282
60.89992
0
0
0
0
50.9691
51.8222
53.1676
55.11933
57.82571
0
0
0
0
0
48.88587
49.6647
50.89259
52.66701
55.11159
0
0
0
0
0
0
46.86714
47.58295
48.71018
50.33362
52.55807
0
0
0
0
0
0
0
44.851
45.50969
46.54547
48.03183
50.0586
0
0
0
0
0
0
0
0
42.89083
43.49895
44.45307
45.81767
47.66989
0
0
0
0
0
0
0
0
0
41.03898
41.60296
42.48595
43.74445
45.44576
0
0
0
0
0
0
0
0
0
0
39.31588
39.84202
40.6632
41.83002
43.40137
0
0
0
0
0
0
0
0
0
0
0
37.72121
38.21452
38.98231
40.0695
41.52877
0
0
0
0
0
0
0
0
0
0
0
0
36.24178
36.70681
37.42782
38.44573
39.8073
0
0
0
0
0
0
0
0
0
0
0
0
0
34.85572
35.29572
35.97565
36.93217
38.20784
0
0
0
0
0
0
0
0
0
0
0
0
0
0
33.53146
33.94905
34.59183
35.49326
36.69146
0
0
0
0
0
0
0
0
0
0
0
0
0
0
0
32.229
32.62634
33.2346
34.0847
35.21129
0
0
0
0
0
0
0
0
0
0
0
0
0
0
0
0
30.92304
31.30124
31.87699
32.67808
33.73629
0
0
0
0
0
0
0
0
0
0
29.64879
30.00872
30.55413
31.30996
32.30478
0
0
0
0
0
0
0
0
0
0
28.44971
28.79312
29.31068
30.02566
30.96378
0
0
0
0
0
0
0
0
0
0
27.34789
27.67667
28.1694
28.84773
29.73566
0
0
0
0
0
0
0
0
0
0
26.34986
26.66515
27.13603
27.78195
28.62534
0
0
0
0
0
0
0
0
0
0
55.63484
56.6975
58.37296
60.83284
64.31463
0
0
0
52.94924
53.88289
55.35545
57.50047
60.50028
0
0
0
0
50.61821
51.45639
52.77855
54.69547
57.35038
0
0
0
0
0
48.54476
49.30936
50.51517
52.25679
54.65353
0
0
0
0
0
0
46.628
47.33327
48.44429
50.04381
52.23373
0
0
0
0
0
0
0
44.76138
45.41507
46.4434
47.91897
49.93031
0
0
0
0
0
0
0
0
42.88989
43.49629
44.44801
45.80925
47.65673
0
0
0
0
0
0
0
0
0
41.06457
41.62816
42.51072
43.76868
45.46926
0
0
0
0
0
0
0
0
0
0
39.33477
39.86093
40.68219
41.84917
43.42073
0
0
0
0
0
0
0
0
0
0
0
37.72121
38.21452
38.98231
40.0695
41.52877
0
0
0
0
0
0
0
0
0
0
0
0
36.22419
36.68907
37.40985
38.42742
39.78855
0
0
0
0
0
0
0
0
0
0
0
0
0
34.83258
35.27232
35.95192
36.90801
38.18318
0
0
0
0
0
0
0
0
0
0
0
0
0
0
33.52617
33.9436
34.58633
35.48791
36.6865
0
0
0
0
0
0
0
0
0
0
0
0
0
0
0
32.27514
32.67281
33.28206
34.13397
35.26336
0
0
0
0
0
0
0
0
0
0
0
0
0
0
0
0
31.04213
31.42153
31.99987
32.80524
33.86979
0
0
0
0
0
0
0
0
0
0
0
0
0
0
0
0
0
29.80377
30.16527
30.71393
31.47497
32.4773
0
0
0
0
0
0
0
0
0
0
28.59303
28.93788
29.45825
30.17773
31.1223
0
0
0
0
0
0
0
0
0
0
27.45172
27.78146
28.27616
28.95758
29.84994
0
0
0
0
0
0
0
0
0
0
26.40185
26.71769
27.18958
27.83707
28.68267
0
0
0
0
0
0
0
0
0
0
25.4505
25.75321
26.2044
26.82202
27.62632
0
0
0
0
0
0
0
0
0
0
52.7972
53.72394
55.18579
57.3147
60.29035
0
0
0
0
50.35693
51.1848
52.4908
54.38349
57.00268
0
0
0
0
0
48.22413
48.97698
50.16432
51.87841
54.23509
0
0
0
0
0
0
46.31594
47.00994
48.10328
49.67655
51.82862
0
0
0
0
0
0
0
44.54321
45.18862
46.20402
47.66048
49.64442
0
0
0
0
0
0
0
0
42.80943
43.41204
44.35797
45.71078
47.54625
0
0
0
0
0
0
0
0
0
41.06573
41.62813
42.50902
43.76458
45.46175
0
0
0
0
0
0
0
0
0
0
39.35993
39.88594
40.70705
41.87385
43.44514
0
0
0
0
0
0
0
0
0
0
0
37.73947
38.23286
39.00083
40.08828
41.54789
0
0
0
0
0
0
0
0
0
0
0
0
36.22419
36.68907
37.40985
38.42742
39.78855
0
0
0
0
0
0
0
0
0
0
0
0
0
34.81567
35.2552
35.93452
36.89023
38.1649
0
0
0
0
0
0
0
0
0
0
0
0
0
0
33.50384
33.92094
34.56324
35.46429
36.66225
0
0
0
0
0
0
0
0
0
0
0
0
0
0
0
32.26975
32.66713
33.2762
34.12804
35.25756
0
0
0
0
0
0
0
0
0
0
0
0
0
0
0
0
31.0857
31.46528
32.04435
32.85118
33.91806
0
0
0
0
0
0
0
0
0
0
0
0
0
0
0
0
0
29.91702
30.27945
30.83038
31.59518
32.60311
0
0
0
0
0
0
0
0
0
0
0
0
0
0
0
0
0
0
28.74078
29.08702
29.61027
30.33446
31.28584
0
0
0
0
0
0
0
0
0
0
27.58872
27.91967
28.41695
29.10246
30.00072
0
0
0
0
0
0
0
0
0
0
26.50123
26.81795
27.29161
27.94196
28.79162
0
0
0
0
0
0
0
0
0
0
25.50026
25.80345
26.25558
26.87464
27.681
0
0
0
0
0
0
0
0
0
0
24.59243
24.88331
25.31559
25.90649
26.6747
0
0
0
0
0
0
0
0
0
0
50.21845
51.04089
52.33846
54.21859
56.81937
0
0
0
0
0
47.98467
48.72934
49.90373
51.5985
53.92712
0
0
0
0
0
0
46.02109
46.70568
47.78405
49.33501
51.45495
0
0
0
0
0
0
0
44.25598
44.89234
45.89333
47.32838
49.28162
0
0
0
0
0
0
0
0
42.60909
43.20514
44.14062
45.47791
47.29119
0
0
0
0
0
0
0
0
0
40.9929
41.55242
42.4288
43.6777
45.36537
0
0
0
0
0
0
0
0
0
0
39.36261
39.88787
40.70784
41.87296
43.44183
0
0
0
0
0
0
0
0
0
0
0
37.76405
38.25746
39.0255
40.11303
41.57272
0
0
0
0
0
0
0
0
0
0
0
0
36.24178
36.70681
37.42782
38.44573
39.8073
0
0
0
0
0
0
0
0
0
0
0
0
0
34.81567
35.2552
35.93452
36.89023
38.1649
0
0
0
0
0
0
0
0
0
0
0
0
0
0
33.4876
33.90447
34.54645
35.44708
36.6445
0
0
0
0
0
0
0
0
0
0
0
0
0
0
0
32.24826
32.64526
33.25383
34.10506
35.23387
0
0
0
0
0
0
0
0
0
0
0
0
0
0
0
0
31.08032
31.45953
32.0383
32.84492
33.91173
0
0
0
0
0
0
0
0
0
0
0
0
0
0
0
0
0
29.95837
30.32081
30.87229
31.63827
32.64813
0
0
0
0
0
0
0
0
0
0
0
0
0
0
0
0
0
0
28.84868
29.19571
29.72089
30.44844
31.40482
0
0
0
0
0
0
0
0
0
0
0
0
0
0
0
0
0
0
0
27.72989
28.06199
28.56189
29.25163
30.1561
0
0
0
0
0
0
0
0
0
0
26.63237
26.95019
27.42613
28.08024
28.9353
0
0
0
0
0
0
0
0
0
0
25.59555
25.8995
26.35327
26.97492
27.78503
0
0
0
0
0
0
0
0
0
0
24.64011
24.93145
25.36457
25.95681
26.7269
0
0
0
0
0
0
0
0
0
0
23.77382
24.05269
24.46724
25.03266
25.76688
0
0
0
0
0
0
0
0
0
0
47.85769
48.59802
49.76561
51.45029
53.76435
0
0
0
0
0
0
45.80033
46.47832
47.54612
49.0813
51.17855
0
0
0
0
0
0
0
43.98338
44.61209
45.60073
47.01736
48.94421
0
0
0
0
0
0
0
0
42.34331
42.93203
43.85559
45.17511
46.96302
0
0
0
0
0
0
0
0
0
40.80791
41.36218
42.23001
43.46611
45.13553
0
0
0
0
0
0
0
0
0
0
39.29615
39.81928
40.6357
41.79553
43.3568
0
0
0
0
0
0
0
0
0
0
0
37.76783
38.2608
39.02813
40.11452
41.57253
0
0
0
0
0
0
0
0
0
0
0
0
36.26569
36.73086
37.4521
38.47029
39.83218
0
0
0
0
0
0
0
0
0
0
0
0
0
34.83258
35.27232
35.95192
36.90802
38.18318
0
0
0
0
0
0
0
0
0
0
0
0
0
0
33.4876
33.90447
34.54645
35.44708
36.6445
0
0
0
0
0
0
0
0
0
0
0
0
0
0
0
32.23269
32.62943
33.23767
34.08844
35.21669
0
0
0
0
0
0
0
0
0
0
0
0
0
0
0
0
31.05969
31.43847
32.0167
32.82267
33.88869
0
0
0
0
0
0
0
0
0
0
0
0
0
0
0
0
0
29.95311
30.3151
30.8662
31.63186
32.64151
0
0
0
0
0
0
0
0
0
0
0
0
0
0
0
0
0
0
28.88802
29.235
29.76055
30.48907
31.44706
0
0
0
0
0
0
0
0
0
0
0
0
0
0
0
0
0
0
0
27.83299
28.16565
28.66728
29.35997
30.26894
0
0
0
0
0
0
0
0
0
0
0
0
0
0
0
0
0
0
0
0
26.76748
27.08629
27.56454
28.22254
29.08322
0
0
0
0
0
0
0
0
0
0
25.7213
26.02618
26.48206
27.10711
27.92221
0
0
0
0
0
0
0
0
0
0
24.73155
25.02361
25.45821
26.05286
26.82639
0
0
0
0
0
0
0
0
0
0
23.81956
24.09884
24.51419
25.08084
25.81681
0
0
0
0
0
0
0
0
0
0
22.99199
23.25966
23.65669
24.19826
24.90023
0
0
0
0
0
0
0
0
0
0
45.68324
46.35769
47.4199
48.9468
51.03219
0
0
0
0
0
0
0
43.77882
44.40212
45.38199
46.78551
48.69359
0
0
0
0
0
0
0
0
42.09007
42.67251
43.58575
44.8898
46.65566
0
0
0
0
0
0
0
0
0
40.56084
41.10909
41.96697
43.18811
44.83621
0
0
0
0
0
0
0
0
0
0
39.12442
39.64337
40.45273
41.60189
43.14791
0
0
0
0
0
0
0
0
0
0
37.70681
38.19815
38.96274
40.04487
41.49674
0
0
0
0
0
0
0
0
0
0
0
0
36.27023
36.73521
37.45603
38.47353
39.83428
0
0
0
0
0
0
0
0
0
0
0
0
0
34.85572
35.29572
35.97565
36.93217
38.20784
0
0
0
0
0
0
0
0
0
0
0
0
0
0
33.50384
33.92094
34.56324
35.46429
36.66226
0
0
0
0
0
0
0
0
0
0
0
0
0
0
0
32.23269
32.62943
33.23767
34.08844
35.21669
0
0
0
0
0
0
0
0
0
0
0
0
0
0
0
0
31.04478
31.42328
32.00116
32.80667
33.8721
0
0
0
0
0
0
0
0
0
0
0
0
0
0
0
0
0
29.93336
30.29488
30.8454
31.61037
32.6192
0
0
0
0
0
0
0
0
0
0
0
0
0
0
0
0
0
0
28.88293
29.22945
29.75454
30.48266
31.44032
0
0
0
0
0
0
0
0
0
0
0
0
0
0
0
0
0
0
0
27.87063
28.20308
28.705
29.39844
30.30878
0
0
0
0
0
0
0
0
0
0
0
0
0
0
0
0
0
0
0
0
26.86621
27.18544
27.66512
28.32581
29.19051
0
0
0
0
0
0
0
0
0
0
0
0
0
0
0
0
0
0
0
0
25.85086
26.15656
26.61451
27.24305
28.06334
0
0
0
0
0
0
0
0
0
0
24.85226
25.14518
25.58167
26.17947
26.95754
0
0
0
0
0
0
0
0
0
0
23.90744
24.18736
24.60409
25.17294
25.91212
0
0
0
0
0
0
0
0
0
0
23.03593
23.30397
23.70173
24.24445
24.94804
0
0
0
0
0
0
0
0
0
0
22.2457
22.50171
22.88238
23.40072
24.07252
0
0
0
0
0
0
0
0
0
0
43.67034
44.29071
45.2659
46.66249
48.56071
0
0
0
0
0
0
0
0
41.89968
42.47765
43.3835
44.67647
46.42653
0
0
0
0
0
0
0
0
0
40.32464
40.86765
41.7168
42.92478
44.55415
0
0
0
0
0
0
0
0
0
0
38.89379
39.40778
40.2087
41.34514
42.87301
0
0
0
0
0
0
0
0
0
0
37.54672
38.03464
38.79338
39.86651
41.3055
0
0
0
0
0
0
0
0
0
0
36.21381
36.67763
37.39626
38.41037
39.7661
0
0
0
0
0
0
0
0
0
0
0
0
0
34.86073
35.30075
35.98052
36.93665
38.21163
0
0
0
0
0
0
0
0
0
0
0
0
0
0
33.52617
33.94359
34.58633
35.48791
36.6865
0
0
0
0
0
0
0
0
0
0
0
0
0
0
0
32.24826
32.64525
33.25383
34.10506
35.23387
0
0
0
0
0
0
0
0
0
0
0
0
0
0
0
0
31.04478
31.42328
32.00116
32.80667
33.8721
0
0
0
0
0
0
0
0
0
0
0
0
0
0
0
0
0
29.91909
30.28033
30.83048
31.59498
32.60322
0
0
0
0
0
0
0
0
0
0
0
0
0
0
0
0
0
0
28.86401
29.21007
29.73455
30.46196
31.41877
0
0
0
0
0
0
0
0
0
0
0
0
0
0
0
0
0
0
0
27.86581
28.19771
28.69916
29.39213
30.30206
0
0
0
0
0
0
0
0
0
0
0
0
0
0
0
0
0
0
0
0
26.90235
27.2213
27.70109
28.36242
29.22825
0
0
0
0
0
0
0
0
0
0
0
0
0
0
0
0
0
0
0
0
25.9456
26.25159
26.71079
27.34167
28.16563
0
0
0
0
0
0
0
0
0
0
0
0
0
0
0
0
0
0
0
0
24.97663
25.27031
25.70864
26.30963
27.0924
0
0
0
0
0
0
0
0
0
0
24.02345
24.30415
24.72264
25.29436
26.03776
0
0
0
0
0
0
0
0
0
0
23.12048
23.38909
23.78813
24.33292
25.03945
0
0
0
0
0
0
0
0
0
0
22.28794
22.54429
22.92564
23.44505
24.11836
0
0
0
0
0
0
0
0
0
0
21.53267
21.77769
22.14191
22.63854
23.28121
0
0
0
0
0
0
0
0
0
0
41.79873
42.37427
43.27614
44.56323
46.30496
0
0
0
0
0
0
0
0
0
40.14677
40.68601
41.52888
42.72738
44.34326
0
0
0
0
0
0
0
0
0
0
38.67266
39.18226
39.9757
41.10084
42.61259
0
0
0
0
0
0
0
0
0
0
37.3307
37.81443
38.56599
39.62817
41.05154
0
0
0
0
0
0
0
0
0
0
36.06392
36.52501
37.23869
38.24518
39.5899
0
0
0
0
0
0
0
0
0
0
34.80826
35.24745
35.92554
36.87889
38.14979
0
0
0
0
0
0
0
0
0
0
0
0
0
0
33.53146
33.94905
34.59183
35.49326
36.69146
0
0
0
0
0
0
0
0
0
0
0
0
0
0
0
32.26975
32.66713
33.2762
34.12804
35.25756
0
0
0
0
0
0
0
0
0
0
0
0
0
0
0
0
31.05969
31.43847
32.0167
32.82267
33.88869
0
0
0
0
0
0
0
0
0
0
0
0
0
0
0
0
0
29.91909
30.28033
30.83048
31.59498
32.60322
0
0
0
0
0
0
0
0
0
0
0
0
0
0
0
0
0
0
28.85035
29.19614
29.72025
30.44718
31.4034
0
0
0
0
0
0
0
0
0
0
0
0
0
0
0
0
0
0
0
27.84776
28.17914
28.68001
29.37224
30.28131
0
0
0
0
0
0
0
0
0
0
0
0
0
0
0
0
0
0
0
0
26.89786
27.21623
27.69546
28.3563
29.22164
0
0
0
0
0
0
0
0
0
0
0
0
0
0
0
0
0
0
0
0
25.98041
26.28607
26.74528
27.3766
28.20156
0
0
0
0
0
0
0
0
0
0
0
0
0
0
0
0
0
0
0
0
25.06763
25.36159
25.80098
26.40406
27.1901
0
0
0
0
0
0
0
0
0
0
0
0
0
0
0
0
0
0
0
0
24.14299
24.42436
24.84457
25.41918
26.16691
0
0
0
0
0
0
0
0
0
0
23.23209
23.50142
23.90208
24.44956
25.15997
0
0
0
0
0
0
0
0
0
0
22.36938
22.62625
23.00877
23.5301
24.20618
0
0
0
0
0
0
0
0
0
0
21.57331
21.81866
22.18351
22.68113
23.32522
0
0
0
0
0
0
0
0
0
0
20.85402
21.08547
21.4342
21.9094
22.52485
0
0
0
0
0
0
0
0
0
0
40.05251
40.58967
41.42915
42.62258
44.23131
0
0
0
0
0
0
0
0
0
0
38.50591
39.01234
39.80034
40.91729
42.41737
0
0
0
0
0
0
0
0
0
0
37.12306
37.60302
38.34813
39.40047
40.80986
0
0
0
0
0
0
0
0
0
0
35.86088
36.31849
37.02593
38.02293
39.35407
0
0
0
0
0
0
0
0
0
0
34.66742
35.10439
35.77833
36.72509
37.98655
0
0
0
0
0
0
0
0
0
0
33.48238
33.89942
34.5409
35.44011
36.6349
0
0
0
0
0
0
0
0
0
0
0
0
0
0
0
32.27514
32.67281
33.28206
34.13397
35.26336
0
0
0
0
0
0
0
0
0
0
0
0
0
0
0
0
31.08032
31.45953
32.0383
32.84492
33.91173
0
0
0
0
0
0
0
0
0
0
0
0
0
0
0
0
0
29.93336
30.29488
30.8454
31.61037
32.6192
0
0
0
0
0
0
0
0
0
0
0
0
0
0
0
0
0
0
28.85035
29.19614
29.72025
30.44718
31.4034
0
0
0
0
0
0
0
0
0
0
0
0
0
0
0
0
0
0
0
27.83472
28.1658
28.6663
29.35807
30.26655
0
0
0
0
0
0
0
0
0
0
0
0
0
0
0
0
0
0
0
0
26.88067
27.1985
27.6771
28.33724
29.20171
0
0
0
0
0
0
0
0
0
0
0
0
0
0
0
0
0
0
0
0
25.97626
26.28134
26.73997
27.37071
28.19518
0
0
0
0
0
0
0
0
0
0
0
0
0
0
0
0
0
0
0
0
25.10116
25.39484
25.83418
26.43759
27.22441
0
0
0
0
0
0
0
0
0
0
0
0
0
0
0
0
0
0
0
0
24.23054
24.51211
24.93333
25.5098
26.2605
0
0
0
0
0
0
0
0
0
0
0
0
0
0
0
0
0
0
0
0
23.3471
23.61705
24.01928
24.56947
25.28384
0
0
0
0
0
0
0
0
0
0
22.47692
22.7344
23.11844
23.64225
24.32197
0
0
0
0
0
0
0
0
0
0
21.65179
21.89765
22.26359
22.763
23.40966
0
0
0
0
0
0
0
0
0
0
20.89321
21.1249
21.47424
21.95037
22.56714
0
0
0
0
0
0
0
0
0
0
20.20767
20.4262
20.75723
21.21228
21.80115
0
0
0
0
0
0
0
0
0
0
38.4176
38.92226
39.7073
40.81986
42.31373
0
0
0
0
0
0
0
0
0
0
36.96631
37.44351
38.18391
39.22906
40.62827
0
0
0
0
0
0
0
0
0
0
35.66528
36.11973
36.8215
37.80989
39.12873
0
0
0
0
0
0
0
0
0
0
34.47601
34.91003
35.57862
36.51702
37.76658
0
0
0
0
0
0
0
0
0
0
33.34957
33.76484
34.40278
35.29634
36.48288
0
0
0
0
0
0
0
0
0
0
32.22899
32.62633
33.2346
34.0847
35.21129
0
0
0
0
0
0
0
0
0
0
0
0
0
0
0
0
31.0857
31.46528
32.04435
32.85118
33.91806
0
0
0
0
0
0
0
0
0
0
0
0
0
0
0
0
0
29.95311
30.3151
30.8662
31.63186
32.64151
0
0
0
0
0
0
0
0
0
0
0
0
0
0
0
0
0
0
28.86401
29.21007
29.73455
30.46196
31.41877
0
0
0
0
0
0
0
0
0
0
0
0
0
0
0
0
0
0
0
27.83472
28.1658
28.6663
29.35807
30.26655
0
0
0
0
0
0
0
0
0
0
0
0
0
0
0
0
0
0
0
0
26.86823
27.18576
27.66397
28.32366
29.18756
0
0
0
0
0
0
0
0
0
0
0
0
0
0
0
0
0
0
0
0
25.95987
26.26446
26.72244
27.35244
28.17607
0
0
0
0
0
0
0
0
0
0
0
0
0
0
0
0
0
0
0
0
25.09728
25.39047
25.82923
26.43203
27.21827
0
0
0
0
0
0
0
0
0
0
0
0
0
0
0
0
0
0
0
0
24.26296
24.54418
24.96539
25.5421
26.29344
0
0
0
0
0
0
0
0
0
0
0
0
0
0
0
0
0
0
0
0
23.43142
23.70155
24.10468
24.65662
25.37367
0
0
0
0
0
0
0
0
0
0
0
0
0
0
0
0
0
0
0
0
22.58777
22.84573
23.23124
23.75756
24.441
0
0
0
0
0
0
0
0
0
0
21.75545
22.00192
22.36922
22.87097
23.52102
0
0
0
0
0
0
0
0
0
0
20.96902
21.20108
21.55146
22.02926
22.64843
0
0
0
0
0
0
0
0
0
0
20.24542
20.46425
20.79579
21.25173
21.84183
0
0
0
0
0
0
0
0
0
0
19.59867
19.79792
20.11217
20.54521
21.1091
0
0
0
0
0
0
0
0
0
0
36.88337
37.359
38.09682
39.13811
40.53189
0
0
0
0
0
0
0
0
0
0
35.51748
35.96959
36.66718
37.64925
38.95911
0
0
0
0
0
0
0
0
0
0
34.29128
34.72258
35.38623
36.31697
37.55568
0
0
0
0
0
0
0
0
0
0
33.16861
33.58141
34.21466
35.1009
36.27687
0
0
0
0
0
0
0
0
0
0
32.10339
32.49929
33.10456
33.94973
35.06913
0
0
0
0
0
0
0
0
0
0
31.04213
31.42153
31.99986
32.80524
33.86979
0
0
0
0
0
0
0
0
0
0
0
0
0
0
0
0
0
29.95837
30.3208
30.87229
31.63827
32.64813
0
0
0
0
0
0
0
0
0
0
0
0
0
0
0
0
0
0
28.88292
29.22945
29.75453
30.48266
31.44032
0
0
0
0
0
0
0
0
0
0
0
0
0
0
0
0
0
0
0
27.84776
28.17914
28.68
29.37224