/*--------------------------------*- C++ -*----------------------------------*\
| =========                 |                                                 |
| \\      /  F ield         | OpenFOAM: The Open Source CFD Toolbox           |
|  \\    /   O peration     | Version:  2306                                  |
|   \\  /    A nd           | Website:  www.openfoam.com                      |
|    \\/     M anipulation  |                                                 |
\*---------------------------------------------------------------------------*/
FoamFile
{
    version     2.0;
    format      ascii;
    arch        "LSB;label=32;scalar=64";
    class       volScalarField;
    location    "0.6/fuel";
    object      iDmdtfuel.H2;
}
// * * * * * * * * * * * * * * * * * * * * * * * * * * * * * * * * * * * * * //

dimensions      [1 -3 -1 0 0 0 0];

internalField   nonuniform List<scalar> 
16000
(
-10.27253
-10.35371
-9.370654
-9.792644
-10.51627
-9.422916
-9.867475
-8.587236
-8.957048
-9.454243
-10.76013
-9.524936
-10.01719
-8.626933
-9.005483
-9.524867
-7.953898
-8.227911
-8.663008
-9.245747
-11.07523
-9.671667
-10.24156
-8.703523
-9.099966
-9.666116
-7.986296
-8.264872
-8.708847
-9.314047
-7.426766
-7.636324
-7.970928
-8.479464
-9.155525
-11.41116
-9.849151
-10.53115
-8.811504
-9.235777
-9.877779
-8.048348
-8.336137
-8.798234
-9.450688
-7.454234
-7.666603
-8.006004
-8.523796
-9.223139
-6.974427
-7.142462
-7.408239
-7.809065
-8.397301
-0
-11.65698
-10.02112
-10.83948
-8.937814
-9.399943
-10.15105
-8.134692
-8.436563
-8.926704
-9.655604
-7.506582
-7.724559
-8.073608
-8.610248
-9.358521
-6.998267
-7.168214
-7.437043
-7.843015
-8.441079
-0
-6.578254
-6.717561
-6.937622
-7.263722
-7.735111
-0
-0
-11.80511
-10.13455
-11.06407
-9.053779
-9.55887
-10.44216
-8.233416
-8.553974
-9.082004
-9.920607
-7.578728
-7.805169
-8.168862
-8.734545
-9.561877
-7.04354
-7.217262
-7.492155
-7.908444
-8.526485
-0
-6.599306
-6.739973
-6.962173
-7.291631
-7.768605
-0
-0
-6.225625
-6.344538
-6.532025
-6.807289
-7.196907
-0
-0
-0
-11.88484
-10.19506
-11.19876
-9.124522
-9.663331
-10.65351
-8.320648
-8.661682
-9.232353
-10.20361
-7.659817
-7.897285
-8.280216
-8.884924
-9.825642
-7.105473
-7.284832
-7.568794
-8.00065
-8.649376
-0
-6.639183
-6.782511
-7.008914
-7.345022
-7.833168
-0
-0
-6.244456
-6.364378
-6.553433
-6.831102
-7.224435
-0
-0
-0
-5.908089
-6.011792
-6.175376
-6.413604
-6.746583
-0
-0
-0
-0
-11.91912
-10.2239
-11.27094
-9.157727
-9.718853
-10.77989
-8.370659
-8.727192
-9.330868
-10.40873
-7.729366
-7.978604
-8.382339
-9.03066
-10.10852
-7.17414
-7.360727
-7.656353
-8.108486
-8.798278
-0
-6.693409
-6.840674
-7.073289
-7.419273
-7.924195
-0
-0
-6.28006
-6.401938
-6.594047
-6.876431
-7.277104
-0
-0
-0
-5.925102
-6.029579
-6.19436
-6.434391
-6.770075
-0
-0
-0
-0
-5.619523
-5.711555
-5.856755
-6.067144
-6.358175
-0
-0
-0
-0
-0
-11.91912
-10.23514
-11.3019
-9.170819
-9.745219
-10.84749
-8.391352
-8.757836
-9.383089
-10.5313
-7.767188
-8.025083
-8.444251
-9.125897
-10.31354
-7.231614
-7.425748
-7.733601
-8.207413
-8.942857
-0
-6.752865
-6.905115
-7.145571
-7.504118
-8.030746
-0
-0
-6.32824
-6.452989
-6.649565
-6.938861
-7.350373
-0
-0
-0
-5.95723
-6.063191
-6.230285
-6.47382
-6.814795
-0
-0
-0
-0
-5.635019
-5.727658
-5.873801
-6.085597
-6.378688
-0
-0
-0
-0
-0
-5.35535
-5.438194
-5.568849
-5.757367
-6.016314
-0
-0
-0
-0
-0
-0
-11.88484
-10.23514
-11.3019
-9.17489
-9.75546
-10.87643
-8.39757
-8.769865
-9.407841
-10.59686
-7.780936
-8.044234
-8.473118
-9.176309
-10.43621
-7.261432
-7.460988
-7.777592
-8.267183
-9.037136
-0
-6.801619
-6.958975
-7.207438
-7.578953
-8.128567
-0
-0
-6.380572
-6.508916
-6.711046
-7.008959
-7.434137
-0
-0
-0
-6.000527
-6.108649
-6.279098
-6.527714
-6.876397
-0
-0
-0
-0
-5.664256
-5.75805
-5.906002
-6.120508
-6.417597
-0
-0
-0
-0
-0
-5.369559
-5.452889
-5.584305
-5.773953
-6.034528
-0
-0
-0
-0
-0
-0
-5.112025
-5.187498
-5.30636
-5.477222
-5.710581
-0
-0
-0
-0
-0
-0
-0
-11.80511
-10.2239
-11.27094
-9.17489
-9.75546
-10.87643
-8.398614
-8.773585
-9.417443
-10.62495
-7.783549
-8.04994
-8.484413
-9.200207
-10.502
-7.270857
-7.473719
-7.795635
-8.294975
-9.08703
-0
-6.825859
-6.986807
-7.240829
-7.621396
-8.187464
-0
-0
-6.422738
-6.5547
-6.762369
-7.068916
-7.508022
-0
-0
-0
-6.047182
-6.157981
-6.332543
-6.587387
-6.945586
-0
-0
-0
-0
-5.703521
-5.798985
-5.949537
-6.167938
-6.470786
-0
-0
-0
-0
-0
-5.396355
-5.4806
-5.613465
-5.805275
-6.068991
-0
-0
-0
-0
-0
-0
-5.125128
-5.200996
-5.320484
-5.492274
-5.726959
-0
-0
-0
-0
-0
-0
-0
-4.886779
-4.956199
-5.065325
-5.221605
-5.434019
-0
-0
-0
-0
-0
-0
-0
-0
-11.65698
-10.19506
-11.19876
-9.170819
-9.745219
-10.84749
-8.398614
-8.773585
-9.417443
-10.62495
-7.783074
-8.050871
-8.487893
-9.209488
-10.53026
-7.271363
-7.476079
-7.800965
-8.305832
-9.110735
-0
-6.832432
-6.995523
-7.252806
-7.638721
-8.214786
-0
-0
-6.442901
-6.577358
-6.788763
-7.101121
-7.549737
-0
-0
-0
-6.084208
-6.197654
-6.376229
-6.637152
-7.004738
-0
-0
-0
-0
-5.745543
-5.843052
-5.99675
-6.219857
-6.529688
-0
-0
-0
-0
-0
-5.432234
-5.517794
-5.652725
-5.847616
-6.115815
-0
-0
-0
-0
-0
-0
-5.149832
-5.226438
-5.347109
-5.520664
-5.757889
-0
-0
-0
-0
-0
-0
-0
-4.898918
-4.968667
-5.078315
-5.235371
-5.448888
-0
-0
-0
-0
-0
-0
-0
-0
-4.677343
-4.741746
-4.842668
-4.986695
-5.181597
-0
-0
-0
-0
-0
-0
-0
-0
-0
-11.41116
-10.13455
-11.06407
-9.157727
-9.718853
-10.77989
-8.39757
-8.769865
-9.407841
-10.59686
-7.783074
-8.050871
-8.487893
-9.209488
-10.53026
-7.270048
-7.475595
-7.801809
-8.309174
-9.11997
-0
-6.831643
-6.995914
-7.254966
-7.643798
-8.225456
-0
-0
-6.447503
-6.583415
-6.79694
-7.112586
-7.566679
-0
-0
-0
-6.101292
-6.216524
-6.397731
-6.662605
-7.036341
-0
-0
-0
-0
-5.778453
-5.87795
-6.034653
-6.262241
-6.57877
-0
-0
-0
-0
-0
-5.470405
-5.557557
-5.69496
-5.893521
-6.167072
-0
-0
-0
-0
-0
-0
-5.182825
-5.260485
-5.382831
-5.558883
-5.799703
-0
-0
-0
-0
-0
-0
-0
-4.921808
-4.992162
-5.102793
-5.261316
-5.476933
-0
-0
-0
-0
-0
-0
-0
-0
-4.688639
-4.753315
-4.854681
-4.999367
-5.195201
-0
-0
-0
-0
-0
-0
-0
-0
-0
-4.481938
-4.542047
-4.635986
-4.769533
-4.949552
-0
-0
-0
-0
-0
-0
-0
-0
-0
-0
-11.07523
-10.02112
-10.83948
-9.124522
-9.663331
-10.65351
-8.391352
-8.757836
-9.383089
-10.5313
-7.783549
-8.04994
-8.484413
-9.200207
-10.502
-7.270048
-7.475595
-7.801809
-8.309174
-9.11997
-0
-6.829848
-6.994641
-7.254467
-7.644583
-8.228747
-0
-0
-6.445891
-6.582589
-6.797227
-7.114594
-7.571608
-0
-0
-0
-6.104489
-6.220738
-6.403387
-6.670399
-7.047498
-0
-0
-0
-0
-5.793144
-5.893954
-6.052571
-6.282976
-6.603722
-0
-0
-0
-0
-0
-5.499954
-5.588626
-5.728341
-5.930318
-6.208873
-0
-0
-0
-0
-0
-0
-5.217746
-5.296666
-5.420992
-5.59998
-5.845035
-0
-0
-0
-0
-0
-0
-0
-4.952313
-5.023523
-5.135535
-5.296119
-5.51469
-0
-0
-0
-0
-0
-0
-0
-0
-4.709944
-4.77512
-4.877313
-5.023239
-5.22084
-0
-0
-0
-0
-0
-0
-0
-0
-0
-4.492486
-4.552828
-4.647146
-4.78126
-4.962079
-0
-0
-0
-0
-0
-0
-0
-0
-0
-0
-4.298989
-4.355461
-4.443309
-4.567805
-4.734972
-0
-0
-0
-0
-0
-0
-0
-0
-0
-0
-10.76013
-9.849151
-10.53115
-9.053779
-9.55887
-10.44216
-8.370659
-8.727192
-9.330868
-10.40873
-7.780936
-8.044234
-8.473118
-9.176309
-10.43621
-7.271363
-7.476079
-7.800965
-8.305832
-9.110735
-0
-6.829848
-6.994641
-7.254467
-7.644583
-8.228747
-0
-0
-6.443817
-6.580859
-6.795973
-7.114073
-7.572352
-0
-0
-0
-6.102346
-6.219133
-6.402513
-6.670594
-7.049393
-0
-0
-0
-0
-5.795314
-5.896853
-6.056478
-6.288338
-6.611268
-0
-0
-0
-0
-0
-5.51275
-5.602401
-5.743546
-5.947597
-6.229186
-0
-0
-0
-0
-0
-0
-5.244506
-5.324606
-5.450745
-5.63241
-5.88133
-0
-0
-0
-0
-0
-0
-0
-4.984454
-5.056677
-5.170301
-5.333282
-5.555288
-0
-0
-0
-0
-0
-0
-0
-0
-4.738282
-4.804161
-4.907509
-5.055165
-5.255235
-0
-0
-0
-0
-0
-0
-0
-0
-0
-4.512389
-4.573153
-4.668174
-4.80335
-4.985679
-0
-0
-0
-0
-0
-0
-0
-0
-0
-0
-4.308871
-4.365541
-4.45372
-4.578708
-4.74657
-0
-0
-0
-0
-0
-0
-0
-0
-0
-0
-4.127306
-4.18053
-4.263093
-4.379615
-4.535581
-0
-0
-0
-0
-0
-0
-0
-0
-0
-0
-10.51627
-9.671667
-10.24156
-8.937814
-9.399943
-10.15105
-8.320648
-8.661682
-9.232353
-10.20361
-7.767188
-8.025083
-8.444251
-9.125897
-10.31354
-7.270857
-7.473719
-7.795635
-8.294975
-9.08703
-0
-6.831643
-6.995914
-7.254966
-7.643798
-8.225456
-0
-0
-6.443817
-6.580859
-6.795973
-7.114073
-7.572352
-0
-0
-0
-6.100119
-6.217137
-6.40082
-6.66934
-7.048844
-0
-0
-0
-0
-5.79283
-5.894745
-6.05486
-6.287408
-6.611377
-0
-0
-0
-0
-0
-5.514162
-5.604338
-5.746204
-5.951272
-6.234345
-0
-0
-0
-0
-0
-0
-5.255778
-5.336615
-5.463839
-5.647074
-5.89825
-0
-0
-0
-0
-0
-0
-0
-5.008868
-5.082017
-5.197088
-5.362207
-5.587279
-0
-0
-0
-0
-0
-0
-0
-0
-4.768023
-4.834722
-4.939404
-5.089049
-5.291958
-0
-0
-0
-0
-0
-0
-0
-0
-0
-4.538821
-4.600171
-4.696169
-4.832816
-5.017241
-0
-0
-0
-0
-0
-0
-0
-0
-0
-0
-4.32753
-4.384556
-4.473343
-4.599248
-4.768415
-0
-0
-0
-0
-0
-0
-0
-0
-0
-0
-4.136588
-4.189987
-4.272838
-4.389793
-4.546367
-0
-0
-0
-0
-0
-0
-0
-0
-0
-0
-3.965717
-4.01616
-4.093964
-4.203477
-4.349513
-0
-0
-0
-0
-0
-0
-0
-0
-0
-0
-10.35371
-9.524936
-10.01719
-8.811504
-9.235777
-9.877779
-8.233416
-8.553974
-9.082004
-9.920607
-7.729366
-7.978604
-8.382339
-9.03066
-10.10852
-7.261432
-7.460988
-7.777592
-8.267183
-9.037136
-0
-6.832432
-6.995523
-7.252806
-7.638721
-8.214786
-0
-0
-6.445891
-6.582589
-6.797227
-7.114594
-7.571608
-0
-0
-0
-6.100119
-6.217137
-6.40082
-6.66934
-7.048844
-0
-0
-0
-0
-5.790526
-5.892599
-6.05291
-6.285728
-6.610104
-0
-0
-0
-0
-0
-5.511466
-5.601905
-5.744104
-5.949622
-6.233349
-0
-0
-0
-0
-0
-0
-5.256623
-5.337841
-5.465584
-5.649545
-5.901757
-0
-0
-0
-0
-0
-0
-0
-5.018897
-5.092605
-5.20851
-5.374837
-5.601635
-0
-0
-0
-0
-0
-0
-0
-0
-4.790442
-4.857874
-4.963726
-5.115108
-5.320499
-0
-0
-0
-0
-0
-0
-0
-0
-0
-4.566468
-4.628492
-4.725604
-4.863926
-5.050736
-0
-0
-0
-0
-0
-0
-0
-0
-0
-0
-4.352275
-4.409792
-4.499416
-4.626586
-4.797556
-0
-0
-0
-0
-0
-0
-0
-0
-0
-0
-4.154128
-4.207836
-4.291215
-4.408973
-4.566686
-0
-0
-0
-0
-0
-0
-0
-0
-0
-0
-3.974461
-4.025053
-4.103115
-4.21301
-4.359585
-0
-0
-0
-0
-0
-0
-0
-0
-0
-0
-3.813356
-3.861262
-3.934892
-4.038067
-4.175309
-0
-0
-0
-0
-0
-0
-0
-0
-0
-0
-10.27253
-9.422916
-9.867475
-8.703523
-9.099966
-9.666116
-8.134692
-8.436563
-8.926704
-9.655604
-7.659817
-7.897285
-8.280216
-8.884924
-9.825642
-7.231614
-7.425748
-7.733601
-8.207413
-8.942857
-0
-6.825859
-6.986807
-7.240829
-7.621396
-8.187464
-0
-0
-6.447503
-6.583415
-6.79694
-7.112586
-7.566679
-0
-0
-0
-6.102346
-6.219133
-6.402513
-6.670594
-7.049393
-0
-0
-0
-0
-5.790526
-5.892599
-6.05291
-6.285728
-6.610104
-0
-0
-0
-0
-0
-5.509136
-5.599683
-5.742009
-5.947691
-6.231657
-0
-0
-0
-0
-0
-0
-5.253806
-5.335205
-5.463172
-5.647429
-5.900056
-0
-0
-0
-0
-0
-0
-0
-5.019318
-5.0933
-5.209579
-5.376429
-5.603966
-0
-0
-0
-0
-0
-0
-0
-0
-4.799446
-4.867302
-4.973801
-5.126126
-5.332862
-0
-0
-0
-0
-0
-0
-0
-0
-0
-4.587169
-4.64978
-4.747848
-4.887602
-5.076456
-0
-0
-0
-0
-0
-0
-0
-0
-0
-0
-4.378083
-4.436155
-4.526723
-4.655316
-4.828318
-0
-0
-0
-0
-0
-0
-0
-0
-0
-0
-4.177364
-4.231493
-4.315594
-4.434453
-4.593731
-0
-0
-0
-0
-0
-0
-0
-0
-0
-0
-3.991
-4.041853
-4.120383
-4.230985
-4.378566
-0
-0
-0
-0
-0
-0
-0
-0
-0
-0
-3.821613
-3.86965
-3.943505
-4.047024
-4.184746
-0
-0
-0
-0
-0
-0
-0
-0
-0
-0
-3.669422
-3.715038
-3.784848
-3.882397
-4.011667
-0
-0
-0
-0
-0
-0
-0
-0
-0
-0
-9.370654
-9.792644
-8.626933
-9.005483
-9.524867
-8.048348
-8.336137
-8.798234
-9.450688
-7.578728
-7.805169
-8.168862
-8.734545
-9.561877
-7.17414
-7.360727
-7.656353
-8.108486
-8.798278
-0
-6.801619
-6.958975
-7.207438
-7.578953
-8.128567
-0
-0
-6.442901
-6.577358
-6.788763
-7.101121
-7.549737
-0
-0
-0
-6.104489
-6.220738
-6.403387
-6.670399
-7.047498
-0
-0
-0
-0
-5.79283
-5.894745
-6.05486
-6.287408
-6.611377
-0
-0
-0
-0
-0
-5.509136
-5.599683
-5.742009
-5.947691
-6.231657
-0
-0
-0
-0
-0
-0
-5.251485
-5.332955
-5.461002
-5.645356
-5.898118
-0
-0
-0
-0
-0
-0
-0
-5.016443
-5.090547
-5.206973
-5.374012
-5.60181
-0
-0
-0
-0
-0
-0
-0
-0
-4.799551
-4.8676
-4.974367
-5.127069
-5.334334
-0
-0
-0
-0
-0
-0
-0
-0
-0
-4.595319
-4.658253
-4.756825
-4.897324
-5.08724
-0
-0
-0
-0
-0
-0
-0
-0
-0
-0
-4.3973
-4.455839
-4.547198
-4.676985
-4.851693
-0
-0
-0
-0
-0
-0
-0
-0
-0
-0
-0
-4.201536
-4.256135
-4.341039
-4.461125
-4.62215
-0
-0
-0
-0
-0
-0
-0
-0
-0
-0
-4.012888
-4.064095
-4.143259
-4.254825
-4.403781
-0
-0
-0
-0
-0
-0
-0
-0
-0
-0
-3.837247
-3.88551
-3.959774
-4.063925
-4.202539
-0
-0
-0
-0
-0
-0
-0
-0
-0
-0
-3.677236
-3.722968
-3.792978
-3.890833
-4.020536
-0
-0
-0
-0
-0
-0
-0
-0
-0
-0
-3.533196
-3.576746
-3.64308
-3.735473
-3.857616
-0
-0
-0
-0
-0
-0
-0
-0
-0
-0
-8.587236
-8.957048
-9.454243
-7.986296
-8.264872
-8.708847
-9.314047
-7.506582
-7.724559
-8.073608
-8.610248
-9.358521
-7.105473
-7.284832
-7.568794
-8.00065
-8.649376
-0
-6.752865
-6.905115
-7.145571
-7.504118
-8.030746
-0
-0
-6.422738
-6.5547
-6.762369
-7.068916
-7.508022
-0
-0
-0
-6.101292
-6.216524
-6.397731
-6.662605
-7.036341
-0
-0
-0
-0
-5.795314
-5.896853
-6.056478
-6.288338
-6.611268
-0
-0
-0
-0
-0
-5.511466
-5.601905
-5.744104
-5.949622
-6.233349
-0
-0
-0
-0
-0
-0
-5.251485
-5.332955
-5.461002
-5.645356
-5.898118
-0
-0
-0
-0
-0
-0
-0
-5.014154
-5.088303
-5.204775
-5.371866
-5.599734
-0
-0
-0
-0
-0
-0
-0
-0
-4.796665
-4.864792
-4.971649
-5.124464
-5.331886
-0
-0
-0
-0
-0
-0
-0
-0
-0
-4.595189
-4.658255
-4.757015
-4.897783
-5.08808
-0
-0
-0
-0
-0
-0
-0
-0
-0
-0
-4.404737
-4.463515
-4.55527
-4.685649
-4.861209
-0
-0
-0
-0
-0
-0
-0
-0
-0
-0
-0
-4.219451
-4.274432
-4.359991
-4.481083
-4.64355
-0
-0
-0
-0
-0
-0
-0
-0
-0
-0
-0
-0
-4.035609
-4.087206
-4.167067
-4.279695
-4.430172
-0
-0
-0
-0
-0
-0
-0
-0
-0
-0
-3.857919
-3.906487
-3.981302
-4.086311
-4.226139
-0
-0
-0
-0
-0
-0
-0
-0
-0
-0
-3.692047
-3.737977
-3.808351
-3.906765
-4.037271
-0
-0
-0
-0
-0
-0
-0
-0
-0
-0
-3.540604
-3.584258
-3.650773
-3.743441
-3.865971
-0
-0
-0
-0
-0
-0
-0
-0
-0
-0
-3.404058
-3.445719
-3.50889
-3.596574
-3.71218
-0
-0
-0
-0
-0
-0
-0
-0
-0
-0
-7.953898
-8.227911
-8.663008
-9.245747
-7.454234
-7.666603
-8.006004
-8.523796
-9.223139
-7.04354
-7.217262
-7.492155
-7.908444
-8.526485
-0
-6.693409
-6.840674
-7.073289
-7.419273
-7.924195
-0
-0
-6.380572
-6.508916
-6.711046
-7.008959
-7.434137
-0
-0
-0
-6.084208
-6.197654
-6.376229
-6.637152
-7.004738
-0
-0
-0
-0
-5.793144
-5.893954
-6.052571
-6.282976
-6.603722
-0
-0
-0
-0
-0
-5.514162
-5.604338
-5.746204
-5.951272
-6.234345
-0
-0
-0
-0
-0
-0
-5.253806
-5.335205
-5.463172
-5.647429
-5.900056
-0
-0
-0
-0
-0
-0
-0
-5.014154
-5.088303
-5.204775
-5.371866
-5.599734
-0
-0
-0
-0
-0
-0
-0
-0
-4.794425
-4.862576
-4.969455
-5.122291
-5.329739
-0
-0
-0
-0
-0
-0
-0
-0
-0
-4.592325
-4.655436
-4.754244
-4.895072
-5.085451
-0
-0
-0
-0
-0
-0
-0
-0
-0
-0
-4.404437
-4.463298
-4.555182
-4.685749
-4.861579
-0
-0
-0
-0
-0
-0
-0
-0
-0
-0
-0
-4.226279
-4.281443
-4.367308
-4.488877
-4.652031
-0
-0
-0
-0
-0
-0
-0
-0
-0
-0
-0
-0
-4.052381
-4.104283
-4.1847
-4.29818
-4.449889
-0
-0
-0
-0
-0
-0
-0
-0
-0
-0
-0
-0
-0
-3.879338
-3.928236
-4.003651
-4.109595
-4.250754
-0
-0
-0
-0
-0
-0
-0
-0
-0
-0
-3.711619
-3.757812
-3.828673
-3.927845
-4.059438
-0
-0
-0
-0
-0
-0
-0
-0
-0
-0
-3.554663
-3.598493
-3.665333
-3.758504
-3.881752
-0
-0
-0
-0
-0
-0
-0
-0
-0
-0
-3.411094
-3.452848
-3.516183
-3.604117
-3.720074
-0
-0
-0
-0
-0
-0
-0
-0
-0
-0
-3.281503
-3.321381
-3.381646
-3.465027
-3.57465
-0
-0
-0
-0
-0
-0
-0
-0
-0
-0
-7.426766
-7.636324
-7.970928
-8.479464
-9.155525
-6.998267
-7.168214
-7.437043
-7.843015
-8.441079
-0
-6.639183
-6.782511
-7.008914
-7.345022
-7.833168
-0
-0
-6.32824
-6.452989
-6.649565
-6.938861
-7.350373
-0
-0
-0
-6.047182
-6.157981
-6.332543
-6.587387
-6.945586
-0
-0
-0
-0
-5.778453
-5.87795
-6.034653
-6.262241
-6.57877
-0
-0
-0
-0
-0
-5.51275
-5.602401
-5.743546
-5.947597
-6.229186
-0
-0
-0
-0
-0
-0
-5.256623
-5.337841
-5.465584
-5.649545
-5.901757
-0
-0
-0
-0
-0
-0
-0
-5.016443
-5.090547
-5.206973
-5.374012
-5.60181
-0
-0
-0
-0
-0
-0
-0
-0
-4.794425
-4.862576
-4.969455
-5.122291
-5.329739
-0
-0
-0
-0
-0
-0
-0
-0
-0
-4.590144
-4.653265
-4.752077
-4.892903
-5.083278
-0
-0
-0
-0
-0
-0
-0
-0
-0
-0
-4.401622
-4.460499
-4.5524
-4.682987
-4.858847
-0
-0
-0
-0
-0
-0
-0
-0
-0
-0
-0
-4.225856
-4.281069
-4.367014
-4.48871
-4.652052
-0
-0
-0
-0
-0
-0
-0
-0
-0
-0
-0
-0
-4.058694
-4.110727
-4.191388
-4.305248
-4.457518
-0
-0
-0
-0
-0
-0
-0
-0
-0
-0
-0
-0
-0
-3.895098
-3.944244
-4.020124
-4.126805
-4.269021
-0
-0
-0
-0
-0
-0
-0
-0
-0
-0
-0
-0
-0
-0
-3.731869
-3.778338
-3.849725
-3.949715
-4.08249
-0
-0
-0
-0
-0
-0
-0
-0
-0
-0
-3.573231
-3.617294
-3.684565
-3.778414
-3.902631
-0
-0
-0
-0
-0
-0
-0
-0
-0
-0
-3.424463
-3.466374
-3.530003
-3.618393
-3.734997
-0
-0
-0
-0
-0
-0
-0
-0
-0
-0
-3.288196
-3.328157
-3.388572
-3.472181
-3.582125
-0
-0
-0
-0
-0
-0
-0
-0
-0
-0
-3.165035
-3.203264
-3.260802
-3.340222
-3.444365
-0
-0
-0
-0
-0
-0
-0
-0
-0
-0
-6.974427
-7.142462
-7.408239
-7.809065
-8.397301
-0
-6.599306
-6.739973
-6.962173
-7.291631
-7.768605
-0
-0
-6.28006
-6.401938
-6.594047
-6.876431
-7.277104
-0
-0
-0
-6.000527
-6.108649
-6.279098
-6.527714
-6.876397
-0
-0
-0
-0
-5.745543
-5.843052
-5.99675
-6.219857
-6.529688
-0
-0
-0
-0
-0
-5.499954
-5.588626
-5.728341
-5.930318
-6.208873
-0
-0
-0
-0
-0
-0
-5.255778
-5.336615
-5.463839
-5.647074
-5.89825
-0
-0
-0
-0
-0
-0
-0
-5.019318
-5.0933
-5.209579
-5.376429
-5.603966
-0
-0
-0
-0
-0
-0
-0
-0
-4.796665
-4.864792
-4.971649
-5.124464
-5.331886
-0
-0
-0
-0
-0
-0
-0
-0
-0
-4.590144
-4.653265
-4.752077
-4.892903
-5.083278
-0
-0
-0
-0
-0
-0
-0
-0
-0
-0
-4.399508
-4.458384
-4.550276
-4.680844
-4.85668
-0
-0
-0
-0
-0
-0
-0
-0
-0
-0
-0
-4.223105
-4.278316
-4.364253
-4.48594
-4.649274
-0
-0
-0
-0
-0
-0
-0
-0
-0
-0
-0
-0
-4.058187
-4.11024
-4.190947
-4.304885
-4.457282
-0
-0
-0
-0
-0
-0
-0
-0
-0
-0
-0
-0
-0
-3.90097
-3.950208
-4.026276
-4.133268
-4.275941
-0
-0
-0
-0
-0
-0
-0
-0
-0
-0
-0
-0
-0
-0
-3.74673
-3.793398
-3.86518
-3.965803
-4.099502
-0
-0
-0
-0
-0
-0
-0
-0
-0
-0
-0
-0
-0
-0
-0
-3.59242
-3.636721
-3.704451
-3.799028
-3.924291
-0
-0
-0
-0
-0
-0
-0
-0
-0
-0
-3.442114
-3.484229
-3.548248
-3.637245
-3.754724
-0
-0
-0
-0
-0
-0
-0
-0
-0
-0
-3.300933
-3.341033
-3.401714
-3.485739
-3.596272
-0
-0
-0
-0
-0
-0
-0
-0
-0
-0
-3.171413
-3.209717
-3.267391
-3.34702
-3.451457
-0
-0
-0
-0
-0
-0
-0
-0
-0
-0
-3.054184
-3.090908
-3.145921
-3.221635
-3.320727
-0
-0
-0
-0
-0
-0
-0
-0
-0
-0
-6.578254
-6.717561
-6.937622
-7.263722
-7.735111
-0
-0
-6.244456
-6.364378
-6.553433
-6.831102
-7.224435
-0
-0
-0
-5.95723
-6.063191
-6.230285
-6.47382
-6.814795
-0
-0
-0
-0
-5.703521
-5.798985
-5.949537
-6.167938
-6.470786
-0
-0
-0
-0
-0
-5.470405
-5.557557
-5.69496
-5.893521
-6.167072
-0
-0
-0
-0
-0
-0
-5.244506
-5.324606
-5.450745
-5.63241
-5.88133
-0
-0
-0
-0
-0
-0
-0
-5.018897
-5.092605
-5.20851
-5.374837
-5.601635
-0
-0
-0
-0
-0
-0
-0
-0
-4.799551
-4.8676
-4.974367
-5.127069
-5.334334
-0
-0
-0
-0
-0
-0
-0
-0
-0
-4.592325
-4.655436
-4.754244
-4.895072
-5.085451
-0
-0
-0
-0
-0
-0
-0
-0
-0
-0
-4.399508
-4.458384
-4.550276
-4.680844
-4.85668
-0
-0
-0
-0
-0
-0
-0
-0
-0
-0
-0
-4.221062
-4.276264
-4.362181
-4.483839
-4.647134
-0
-0
-0
-0
-0
-0
-0
-0
-0
-0
-0
-0
-4.055512
-4.107549
-4.188231
-4.302137
-4.454499
-0
-0
-0
-0
-0
-0
-0
-0
-0
-0
-0
-0
-0
-3.900409
-3.949645
-4.025731
-4.132767
-4.275517
-0
-0
-0
-0
-0
-0
-0
-0
-0
-0
-0
-0
-0
-0
-3.752223
-3.798951
-3.870879
-3.971751
-4.105831
-0
-0
-0
-0
-0
-0
-0
-0
-0
-0
-0
-0
-0
-0
-0
-3.606475
-3.650938
-3.719004
-3.814131
-3.940198
-0
-0
-0
-0
-0
-0
-0
-0
-0
-0
-0
-0
-0
-0
-0
-0
-3.460336
-3.502657
-3.567085
-3.656728
-3.775144
-0
-0
-0
-0
-0
-0
-0
-0
-0
-0
-3.317746
-3.358023
-3.419055
-3.503633
-3.614955
-0
-0
-0
-0
-0
-0
-0
-0
-0
-0
-3.183566
-3.221995
-3.279911
-3.359918
-3.464895
-0
-0
-0
-0
-0
-0
-0
-0
-0
-0
-3.060271
-3.097062
-3.152199
-3.228105
-3.327467
-0
-0
-0
-0
-0
-0
-0
-0
-0
-0
-2.94859
-2.983872
-3.036564
-3.108843
-3.20322
-0
-0
-0
-0
-0
-0
-0
-0
-0
-0
-6.225625
-6.344538
-6.532025
-6.807289
-7.196907
-0
-0
-0
-5.925102
-6.029579
-6.19436
-6.434391
-6.770075
-0
-0
-0
-0
-5.664256
-5.75805
-5.906002
-6.120508
-6.417597
-0
-0
-0
-0
-0
-5.432234
-5.517794
-5.652725
-5.847616
-6.115815
-0
-0
-0
-0
-0
-0
-5.217746
-5.296666
-5.420992
-5.59998
-5.845035
-0
-0
-0
-0
-0
-0
-0
-5.008868
-5.082017
-5.197088
-5.362207
-5.587279
-0
-0
-0
-0
-0
-0
-0
-0
-4.799446
-4.867302
-4.973801
-5.126126
-5.332862
-0
-0
-0
-0
-0
-0
-0
-0
-0
-4.595189
-4.658255
-4.757015
-4.897783
-5.08808
-0
-0
-0
-0
-0
-0
-0
-0
-0
-0
-4.401622
-4.460499
-4.5524
-4.682987
-4.858847
-0
-0
-0
-0
-0
-0
-0
-0
-0
-0
-0
-4.221062
-4.276264
-4.362181
-4.483839
-4.647134
-0
-0
-0
-0
-0
-0
-0
-0
-0
-0
-0
-0
-4.053543
-4.105564
-4.18622
-4.300087
-4.452401
-0
-0
-0
-0
-0
-0
-0
-0
-0
-0
-0
-0
-0
-3.89782
-3.947027
-4.023075
-4.130064
-4.272757
-0
-0
-0
-0
-0
-0
-0
-0
-0
-0
-0
-0
-0
-0
-3.751631
-3.798341
-3.870264
-3.971152
-4.105276
-0
-0
-0
-0
-0
-0
-0
-0
-0
-0
-0
-0
-0
-0
-0
-3.611639
-3.656138
-3.724315
-3.819644
-3.946024
-0
-0
-0
-0
-0
-0
-0
-0
-0
-0
-0
-0
-0
-0
-0
-0
-3.473663
-3.516118
-3.580835
-3.670957
-3.790082
-0
-0
-0
-0
-0
-0
-0
-0
-0
-0
-0
-0
-0
-0
-0
-0
-0
-3.335088
-3.375541
-3.436937
-3.522098
-3.63426
-0
-0
-0
-0
-0
-0
-0
-0
-0
-0
-3.199605
-3.238193
-3.296424
-3.376935
-3.482633
-0
-0
-0
-0
-0
-0
-0
-0
-0
-0
-3.07189
-3.108788
-3.164146
-3.240398
-3.340255
-0
-0
-0
-0
-0
-0
-0
-0
-0
-0
-2.954408
-2.989751
-3.042556
-3.115011
-3.209636
-0
-0
-0
-0
-0
-0
-0
-0
-0
-0
-2.84795
-2.881824
-2.932313
-3.001426
-3.091429
-0
-0
-0
-0
-0
-0
-0
-0
-0
-0
-5.908089
-6.011792
-6.175376
-6.413604
-6.746583
-0
-0
-0
-0
-5.635019
-5.727658
-5.873801
-6.085597
-6.378688
-0
-0
-0
-0
-0
-5.396355
-5.4806
-5.613465
-5.805275
-6.068991
-0
-0
-0
-0
-0
-0
-5.182825
-5.260485
-5.382831
-5.558883
-5.799703
-0
-0
-0
-0
-0
-0
-0
-4.984454
-5.056677
-5.170301
-5.333282
-5.555288
-0
-0
-0
-0
-0
-0
-0
-0
-4.790442
-4.857874
-4.963726
-5.115108
-5.320499
-0
-0
-0
-0
-0
-0
-0
-0
-0
-4.595319
-4.658253
-4.756825
-4.897324
-5.08724
-0
-0
-0
-0
-0
-0
-0
-0
-0
-0
-4.404437
-4.463298
-4.555182
-4.685749
-4.861579
-0
-0
-0
-0
-0
-0
-0
-0
-0
-0
-0
-4.223105
-4.278316
-4.364253
-4.48594
-4.649274
-0
-0
-0
-0
-0
-0
-0
-0
-0
-0
-0
-0
-4.053543
-4.105564
-4.18622
-4.300087
-4.452401
-0
-0
-0
-0
-0
-0
-0
-0
-0
-0
-0
-0
-0
-3.895927
-3.945112
-4.021129
-4.128074
-4.270711
-0
-0
-0
-0
-0
-0
-0
-0
-0
-0
-0
-0
-0
-0
-3.749132
-3.795806
-3.86768
-3.968509
-4.102563
-0
-0
-0
-0
-0
-0
-0
-0
-0
-0
-0
-0
-0
-0
-0
-3.611035
-3.655503
-3.723658
-3.818981
-3.945376
-0
-0
-0
-0
-0
-0
-0
-0
-0
-0
-0
-0
-0
-0
-0
-0
-3.478538
-3.521013
-3.585813
-3.676098
-3.795484
-0
-0
-0
-0
-0
-0
-0
-0
-0
-0
-0
-0
-0
-0
-0
-0
-0
-3.347761
-3.388318
-3.449967
-3.53555
-3.648339
-0
-0
-0
-0
-0
-0
-0
-0
-0
-0
-0
-0
-0
-0
-0
-0
-0
-0
-3.216138
-3.254883
-3.313435
-3.394473
-3.500934
-0
-0
-0
-0
-0
-0
-0
-0
-0
-0
-3.08722
-3.124254
-3.179901
-3.25661
-3.357127
-0
-0
-0
-0
-0
-0
-0
-0
-0
-0
-2.965528
-3.000971
-3.053973
-3.126748
-3.221827
-0
-0
-0
-0
-0
-0
-0
-0
-0
-0
-2.853519
-2.887446
-2.938041
-3.007314
-3.097546
-0
-0
-0
-0
-0
-0
-0
-0
-0
-0
-2.751931
-2.784481
-2.832854
-2.898976
-2.98494
-0
-0
-0
-0
-0
-0
-0
-0
-0
-0
-5.619523
-5.711555
-5.856755
-6.067144
-6.358175
-0
-0
-0
-0
-0
-5.369559
-5.452889
-5.584305
-5.773953
-6.034528
-0
-0
-0
-0
-0
-0
-5.149832
-5.226438
-5.347109
-5.520664
-5.757889
-0
-0
-0
-0
-0
-0
-0
-4.952313
-5.023523
-5.135535
-5.296119
-5.51469
-0
-0
-0
-0
-0
-0
-0
-0
-4.768023
-4.834723
-4.939404
-5.089049
-5.291958
-0
-0
-0
-0
-0
-0
-0
-0
-0
-4.587169
-4.64978
-4.747848
-4.887602
-5.076456
-0
-0
-0
-0
-0
-0
-0
-0
-0
-0
-4.404737
-4.463515
-4.55527
-4.685649
-4.861209
-0
-0
-0
-0
-0
-0
-0
-0
-0
-0
-0
-4.225856
-4.281069
-4.367014
-4.48871
-4.652052
-0
-0
-0
-0
-0
-0
-0
-0
-0
-0
-0
-0
-4.055512
-4.107549
-4.188232
-4.302137
-4.454499
-0
-0
-0
-0
-0
-0
-0
-0
-0
-0
-0
-0
-0
-3.895927
-3.945112
-4.021129
-4.128074
-4.270711
-0
-0
-0
-0
-0
-0
-0
-0
-0
-0
-0
-0
-0
-0
-3.747314
-3.793963
-3.865801
-3.966583
-4.100577
-0
-0
-0
-0
-0
-0
-0
-0
-0
-0
-0
-0
-0
-0
-0
-3.60863
-3.653055
-3.721155
-3.816409
-3.942725
-0
-0
-0
-0
-0
-0
-0
-0
-0
-0
-0
-0
-0
-0
-0
-0
-3.477936
-3.52037
-3.585136
-3.675398
-3.794776
-0
-0
-0
-0
-0
-0
-0
-0
-0
-0
-0
-0
-0
-0
-0
-0
-0
-3.352388
-3.392945
-3.454657
-3.540371
-3.653377
-0
-0
-0
-0
-0
-0
-0
-0
-0
-0
-0
-0
-0
-0
-0
-0
-0
-0
-3.228212
-3.267045
-3.325814
-3.407228
-3.514248
-0
-0
-0
-0
-0
-0
-0
-0
-0
-0
-0
-0
-0
-0
-0
-0
-0
-0
-0
-3.103018
-3.14018
-3.19612
-3.273303
-3.374514
-0
-0
-0
-0
-0
-0
-0
-0
-0
-0
-2.980203
-3.015768
-3.069027
-3.142223
-3.237905
-0
-0
-0
-0
-0
-0
-0
-0
-0
-0
-2.864181
-2.898194
-2.948972
-3.018536
-3.109188
-0
-0
-0
-0
-0
-0
-0
-0
-0
-0
-2.757266
-2.789867
-2.838335
-2.904608
-2.990781
-0
-0
-0
-0
-0
-0
-0
-0
-0
-0
-2.660327
-2.691533
-2.737922
-2.801194
-2.883354
-0
-0
-0
-0
-0
-0
-0
-0
-0
-0
-5.35535
-5.438194
-5.568849
-5.757367
-6.016314
-0
-0
-0
-0
-0
-0
-5.125128
-5.200996
-5.320484
-5.492274
-5.726959
-0
-0
-0
-0
-0
-0
-0
-4.921808
-4.992162
-5.102793
-5.261316
-5.476933
-0
-0
-0
-0
-0
-0
-0
-0
-4.738282
-4.804161
-4.907509
-5.055165
-5.255235
-0
-0
-0
-0
-0
-0
-0
-0
-0
-4.566468
-4.628492
-4.725604
-4.863926
-5.050736
-0
-0
-0
-0
-0
-0
-0
-0
-0
-0
-4.397301
-4.455839
-4.547198
-4.676985
-4.851693
-0
-0
-0
-0
-0
-0
-0
-0
-0
-0
-0
-4.226279
-4.281443
-4.367308
-4.488877
-4.652031
-0
-0
-0
-0
-0
-0
-0
-0
-0
-0
-0
-0
-4.058187
-4.11024
-4.190948
-4.304885
-4.457282
-0
-0
-0
-0
-0
-0
-0
-0
-0
-0
-0
-0
-0
-3.89782
-3.947027
-4.023075
-4.130064
-4.272757
-0
-0
-0
-0
-0
-0
-0
-0
-0
-0
-0
-0
-0
-0
-3.747314
-3.793963
-3.865801
-3.966583
-4.100577
-0
-0
-0
-0
-0
-0
-0
-0
-0
-0
-0
-0
-0
-0
-0
-3.606887
-3.651284
-3.719347
-3.81455
-3.940802
-0
-0
-0
-0
-0
-0
-0
-0
-0
-0
-0
-0
-0
-0
-0
-0
-3.475628
-3.518013
-3.582718
-3.672907
-3.792197
-0
-0
-0
-0
-0
-0
-0
-0
-0
-0
-0
-0
-0
-0
-0
-0
-0
-3.3518
-3.392307
-3.453976
-3.539655
-3.652636
-0
-0
-0
-0
-0
-0
-0
-0
-0
-0
-0
-0
-0
-0
-0
-0
-0
-0
-3.232615
-3.271442
-3.330252
-3.411774
-3.518975
-0
-0
-0
-0
-0
-0
-0
-0
-0
-0
-0
-0
-0
-0
-0
-0
-0
-0
-0
-3.114555
-3.15178
-3.207913
-3.285427
-3.387141
-0
-0
-0
-0
-0
-0
-0
-0
-0
-0
-0
-0
-0
-0
-0
-0
-0
-0
-0
-0
-2.995323
-3.030998
-3.084514
-3.158146
-3.254458
-0
-0
-0
-0
-0
-0
-0
-0
-0
-0
-2.878253
-2.91237
-2.963383
-3.033328
-3.124538
-0
-0
-0
-0
-0
-0
-0
-0
-0
-0
-2.767499
-2.800181
-2.848813
-2.915356
-3.001914
-0
-0
-0
-0
-0
-0
-0
-0
-0
-0
-2.665446
-2.696698
-2.743176
-2.806585
-2.888941
-0
-0
-0
-0
-0
-0
-0
-0
-0
-0
-2.572839
-2.602792
-2.647221
-2.707823
-2.786374
-0
-0
-0
-0
-0
-0
-0
-0
-0
-0
-5.112025
-5.187498
-5.30636
-5.477222
-5.710581
-0
-0
-0
-0
-0
-0
-0
-4.898918
-4.968667
-5.078315
-5.235371
-5.448888
-0
-0
-0
-0
-0
-0
-0
-0
-4.709944
-4.77512
-4.877313
-5.023239
-5.22084
-0
-0
-0
-0
-0
-0
-0
-0
-0
-4.538821
-4.600171
-4.696169
-4.832816
-5.017241
-0
-0
-0
-0
-0
-0
-0
-0
-0
-0
-4.378083
-4.436155
-4.526723
-4.655316
-4.828318
-0
-0
-0
-0
-0
-0
-0
-0
-0
-0
-4.219451
-4.274432
-4.359991
-4.481083
-4.64355
-0
-0
-0
-0
-0
-0
-0
-0
-0
-0
-0
-0
-4.058694
-4.110727
-4.191388
-4.305248
-4.457518
-0
-0
-0
-0
-0
-0
-0
-0
-0
-0
-0
-0
-0
-3.900409
-3.949645
-4.025731
-4.132767
-4.275517
-0
-0
-0
-0
-0
-0
-0
-0
-0
-0
-0
-0
-0
-0
-3.749132
-3.795806
-3.86768
-3.968509
-4.102563
-0
-0
-0
-0
-0
-0
-0
-0
-0
-0
-0
-0
-0
-0
-0
-3.606887
-3.651284
-3.719347
-3.81455
-3.940802
-0
-0
-0
-0
-0
-0
-0
-0
-0
-0
-0
-0
-0
-0
-0
-0
-3.473959
-3.516314
-3.580979
-3.671117
-3.79034
-0
-0
-0
-0
-0
-0
-0
-0
-0
-0
-0
-0
-0
-0
-0
-0
-0
-3.349589
-3.390044
-3.451648
-3.537249
-3.650139
-0
-0
-0
-0
-0
-0
-0
-0
-0
-0
-0
-0
-0
-0
-0
-0
-0
-0
-3.232044
-3.270821
-3.329579
-3.411056
-3.51822
-0
-0
-0
-0
-0
-0
-0
-0
-0
-0
-0
-0
-0
-0
-0
-0
-0
-0
-0
-3.118767
-3.155969
-3.212134
-3.289731
-3.3916
-0
-0
-0
-0
-0
-0
-0
-0
-0
-0
-0
-0
-0
-0
-0
-0
-0
-0
-0
-0
-3.00637
-3.042093
-3.09577
-3.169702
-3.266463
-0
-0
-0
-0
-0
-0
-0
-0
-0
-0
-0
-0
-0
-0
-0
-0
-0
-0
-0
-0
-2.892751
-2.92696
-2.978205
-3.04854
-3.140331
-0
-0
-0
-0
-0
-0
-0
-0
-0
-0
-2.781006
-2.813785
-2.862629
-2.929523
-3.016591
-0
-0
-0
-0
-0
-0
-0
-0
-0
-0
-2.675279
-2.706603
-2.753236
-2.816891
-2.899607
-0
-0
-0
-0
-0
-0
-0
-0
-0
-0
-2.577756
-2.60775
-2.65226
-2.712992
-2.791724
-0
-0
-0
-0
-0
-0
-0
-0
-0
-0
-2.489328
-2.517976
-2.560574
-2.618577
-2.693752
-0
-0
-0
-0
-0
-0
-0
-0
-0
-0
-4.886779
-4.956199
-5.065325
-5.221605
-5.434019
-0
-0
-0
-0
-0
-0
-0
-0
-4.688639
-4.753315
-4.854681
-4.999367
-5.195201
-0
-0
-0
-0
-0
-0
-0
-0
-0
-4.51239
-4.573153
-4.668175
-4.80335
-4.985679
-0
-0
-0
-0
-0
-0
-0
-0
-0
-0
-4.352275
-4.409792
-4.499416
-4.626586
-4.797556
-0
-0
-0
-0
-0
-0
-0
-0
-0
-0
-4.201536
-4.256135
-4.341039
-4.461125
-4.62215
-0
-0
-0
-0
-0
-0
-0
-0
-0
-0
-4.052381
-4.104283
-4.1847
-4.29818
-4.449889
-0
-0
-0
-0
-0
-0
-0
-0
-0
-0
-0
-0
-0
-3.90097
-3.950208
-4.026276
-4.133268
-4.275941
-0
-0
-0
-0
-0
-0
-0
-0
-0
-0
-0
-0
-0
-0
-3.751631
-3.798341
-3.870264
-3.971152
-4.105276
-0
-0
-0
-0
-0
-0
-0
-0
-0
-0
-0
-0
-0
-0
-0
-3.60863
-3.653055
-3.721155
-3.816409
-3.942725
-0
-0
-0
-0
-0
-0
-0
-0
-0
-0
-0
-0
-0
-0
-0
-0
-3.473959
-3.516314
-3.580979
-3.671117
-3.79034
-0
-0
-0
-0
-0
-0
-0
-0
-0
-0
-0
-0
-0
-0
-0
-0
-0
-3.347992
-3.388415
-3.449979
-3.535527
-3.648351
-0
-0
-0
-0
-0
-0
-0
-0
-0
-0
-0
-0
-0
-0
-0
-0
-0
-0
-3.229927
-3.268652
-3.327343
-3.40874
-3.515809
-0
-0
-0
-0
-0
-0
-0
-0
-0
-0
-0
-0
-0
-0
-0
-0
-0
-0
-0
-3.118228
-3.155368
-3.21148
-3.289025
-3.390847
-0
-0
-0
-0
-0
-0
-0
-0
-0
-0
-0
-0
-0
-0
-0
-0
-0
-0
-0
-0
-3.010414
-3.046106
-3.099795
-3.173798
-3.270686
-0
-0
-0
-0
-0
-0
-0
-0
-0
-0
-0
-0
-0
-0
-0
-0
-0
-0
-0
-0
-2.903352
-2.937594
-2.988979
-3.059575
-3.151777
-0
-0
-0
-0
-0
-0
-0
-0
-0
-0
-0
-0
-0
-0
-0
-0
-0
-0
-0
-0
-2.794924
-2.827787
-2.876836
-2.944088
-3.031682
-0
-0
-0
-0
-0
-0
-0
-0
-0
-0
-2.688262
-2.719672
-2.766502
-2.830478
-2.913666
-0
-0
-0
-0
-0
-0
-0
-0
-0
-0
-2.587217
-2.617276
-2.661929
-2.722891
-2.801954
-0
-0
-0
-0
-0
-0
-0
-0
-0
-0
-2.494056
-2.522741
-2.565415
-2.623537
-2.698882
-0
-0
-0
-0
-0
-0
-0
-0