/*--------------------------------*- C++ -*----------------------------------*\
| =========                 |                                                 |
| \\      /  F ield         | OpenFOAM: The Open Source CFD Toolbox           |
|  \\    /   O peration     | Version:  2306                                  |
|   \\  /    A nd           | Website:  www.openfoam.com                      |
|    \\/     M anipulation  |                                                 |
\*---------------------------------------------------------------------------*/
FoamFile
{
    version     2.0;
    format      ascii;
    arch        "LSB;label=32;scalar=64";
    class       volScalarField;
    location    "0.6/fuel";
    object      j;
}
// * * * * * * * * * * * * * * * * * * * * * * * * * * * * * * * * * * * * * //

dimensions      [0 -3 0 0 0 1 0];

internalField   nonuniform List<scalar> 
16000
(
9.833134e+08
9.910841e+08
8.969838e+08
9.373778e+08
1.006645e+09
9.019864e+08
9.445407e+08
8.219929e+08
8.573923e+08
9.049851e+08
1.029988e+09
9.11752e+08
9.588716e+08
8.257929e+08
8.620286e+08
9.117454e+08
7.613681e+08
7.875974e+08
8.29246e+08
8.850274e+08
1.06015e+09
9.257976e+08
9.803488e+08
8.331243e+08
8.710728e+08
9.252662e+08
7.644693e+08
7.911354e+08
8.336338e+08
8.915652e+08
7.109097e+08
7.309691e+08
7.629983e+08
8.116767e+08
8.76391e+08
1.092307e+09
9.427868e+08
1.00807e+09
8.434604e+08
8.84073e+08
9.455271e+08
7.704091e+08
7.97957e+08
8.421902e+08
9.046448e+08
7.135389e+08
7.338675e+08
7.663558e+08
8.159203e+08
8.828632e+08
6.676106e+08
6.836953e+08
7.091362e+08
7.475043e+08
8.038118e+08
0
1.115837e+09
9.592484e+08
1.037584e+09
8.555512e+08
8.997874e+08
9.716853e+08
7.786742e+08
8.075701e+08
8.544877e+08
9.2426e+08
7.185498e+08
7.394152e+08
7.728271e+08
8.241957e+08
8.958223e+08
6.698926e+08
6.861604e+08
7.118934e+08
7.507541e+08
8.080024e+08
0
6.296878e+08
6.430227e+08
6.640875e+08
6.953027e+08
7.404253e+08
0
0
1.130017e+09
9.70106e+08
1.059082e+09
8.666517e+08
9.150003e+08
9.995509e+08
7.881243e+08
8.18809e+08
8.693534e+08
9.496267e+08
7.254559e+08
7.471314e+08
7.81945e+08
8.360937e+08
9.152881e+08
6.742263e+08
6.908554e+08
7.171689e+08
7.570171e+08
8.161777e+08
0
6.31703e+08
6.45168e+08
6.664376e+08
6.979741e+08
7.436314e+08
0
0
5.959333e+08
6.073159e+08
6.252627e+08
6.516117e+08
6.889069e+08
0
0
0
1.137648e+09
9.758983e+08
1.071974e+09
8.734234e+08
9.249996e+08
1.019782e+09
7.964744e+08
8.291191e+08
8.837453e+08
9.767166e+08
7.332179e+08
7.55949e+08
7.926042e+08
8.504884e+08
9.405364e+08
6.801547e+08
6.973233e+08
7.24505e+08
7.658433e+08
8.279411e+08
0
6.355201e+08
6.492399e+08
6.709117e+08
7.030849e+08
7.498115e+08
0
0
5.977358e+08
6.092151e+08
6.273119e+08
6.538911e+08
6.91542e+08
0
0
0
5.655379e+08
5.754646e+08
5.911233e+08
6.139271e+08
6.458008e+08
0
0
0
0
1.14093e+09
9.786588e+08
1.078885e+09
8.766018e+08
9.303143e+08
1.03188e+09
8.012616e+08
8.353899e+08
8.931753e+08
9.963512e+08
7.398753e+08
7.637331e+08
8.023796e+08
8.644386e+08
9.676145e+08
6.867277e+08
7.045883e+08
7.328864e+08
7.761657e+08
8.421944e+08
0
6.407108e+08
6.548074e+08
6.770739e+08
7.101924e+08
7.585249e+08
0
0
6.01144e+08
6.128104e+08
6.311996e+08
6.582302e+08
6.965836e+08
0
0
0
5.671665e+08
5.771672e+08
5.929405e+08
6.159169e+08
6.480495e+08
0
0
0
0
5.379155e+08
5.467251e+08
5.60624e+08
5.807631e+08
6.086213e+08
0
0
0
0
0
1.14093e+09
9.797344e+08
1.081848e+09
8.77855e+08
9.328381e+08
1.03835e+09
8.032424e+08
8.383232e+08
8.981741e+08
1.008084e+09
7.434958e+08
7.681821e+08
8.08306e+08
8.73555e+08
9.872391e+08
6.922292e+08
7.108123e+08
7.402807e+08
7.856352e+08
8.560339e+08
0
6.464021e+08
6.609758e+08
6.83993e+08
7.18314e+08
7.687242e+08
0
0
6.057558e+08
6.176972e+08
6.36514e+08
6.642061e+08
7.035971e+08
0
0
0
5.702418e+08
5.803846e+08
5.963794e+08
6.196912e+08
6.523302e+08
0
0
0
0
5.393989e+08
5.482666e+08
5.622558e+08
5.825294e+08
6.105848e+08
0
0
0
0
0
5.126282e+08
5.205583e+08
5.330649e+08
5.511104e+08
5.758974e+08
0
0
0
0
0
0
1.137648e+09
9.797344e+08
1.081848e+09
8.782447e+08
9.338184e+08
1.041121e+09
8.038376e+08
8.394746e+08
9.005434e+08
1.01436e+09
7.448117e+08
7.700154e+08
8.110692e+08
8.783805e+08
9.989817e+08
6.950834e+08
7.141855e+08
7.444917e+08
7.913566e+08
8.650585e+08
0
6.510689e+08
6.661315e+08
6.89915e+08
7.254774e+08
7.780879e+08
0
0
6.107652e+08
6.230506e+08
6.423991e+08
6.709161e+08
7.116153e+08
0
0
0
5.743863e+08
5.847361e+08
6.010518e+08
6.2485e+08
6.582269e+08
0
0
0
0
5.421976e+08
5.511758e+08
5.653381e+08
5.858712e+08
6.143093e+08
0
0
0
0
0
5.139883e+08
5.219649e+08
5.345444e+08
5.52698e+08
5.77641e+08
0
0
0
0
0
0
4.893366e+08
4.96561e+08
5.079388e+08
5.242942e+08
5.466319e+08
0
0
0
0
0
0
0
1.130017e+09
9.786588e+08
1.078885e+09
8.782447e+08
9.338184e+08
1.041121e+09
8.039375e+08
8.398307e+08
9.014625e+08
1.017049e+09
7.450618e+08
7.705615e+08
8.121504e+08
8.806681e+08
1.005279e+09
6.959856e+08
7.154041e+08
7.462188e+08
7.940169e+08
8.698345e+08
0
6.533892e+08
6.687956e+08
6.931112e+08
7.295402e+08
7.837257e+08
0
0
6.148014e+08
6.274332e+08
6.473118e+08
6.766553e+08
7.186877e+08
0
0
0
5.788523e+08
5.894583e+08
6.061677e+08
6.305621e+08
6.648498e+08
0
0
0
0
5.459561e+08
5.550942e+08
5.695054e+08
5.904114e+08
6.194008e+08
0
0
0
0
0
5.165533e+08
5.246175e+08
5.373357e+08
5.556962e+08
5.809398e+08
0
0
0
0
0
0
4.905908e+08
4.97853e+08
5.092908e+08
5.25735e+08
5.481996e+08
0
0
0
0
0
0
0
4.677754e+08
4.744205e+08
4.848663e+08
4.998258e+08
5.201587e+08
0
0
0
0
0
0
0
0
1.115837e+09
9.758983e+08
1.071974e+09
8.77855e+08
9.328381e+08
1.03835e+09
8.039375e+08
8.398307e+08
9.014625e+08
1.017049e+09
7.450164e+08
7.706506e+08
8.124836e+08
8.815565e+08
1.007984e+09
6.96034e+08
7.1563e+08
7.467289e+08
7.950562e+08
8.721037e+08
0
6.540184e+08
6.696299e+08
6.942578e+08
7.311986e+08
7.86341e+08
0
0
6.167316e+08
6.296021e+08
6.498383e+08
6.797381e+08
7.226807e+08
0
0
0
5.823965e+08
5.932558e+08
6.103494e+08
6.353257e+08
6.70512e+08
0
0
0
0
5.499786e+08
5.593124e+08
5.740248e+08
5.953811e+08
6.25039e+08
0
0
0
0
0
5.199878e+08
5.281778e+08
5.410938e+08
5.597493e+08
5.854219e+08
0
0
0
0
0
0
4.929555e+08
5.002885e+08
5.118394e+08
5.284526e+08
5.511603e+08
0
0
0
0
0
0
0
4.689374e+08
4.756139e+08
4.861097e+08
5.011435e+08
5.215819e+08
0
0
0
0
0
0
0
0
4.477276e+08
4.538925e+08
4.635529e+08
4.773396e+08
4.959961e+08
0
0
0
0
0
0
0
0
0
1.092307e+09
9.70106e+08
1.059082e+09
8.766018e+08
9.303143e+08
1.03188e+09
8.038376e+08
8.394746e+08
9.005434e+08
1.01436e+09
7.450164e+08
7.706506e+08
8.124836e+08
8.815565e+08
1.007984e+09
6.959082e+08
7.155837e+08
7.468098e+08
7.953761e+08
8.729877e+08
0
6.539429e+08
6.696674e+08
6.944646e+08
7.316846e+08
7.873624e+08
0
0
6.17172e+08
6.301819e+08
6.50621e+08
6.808355e+08
7.243025e+08
0
0
0
5.840318e+08
5.950621e+08
6.124077e+08
6.377621e+08
6.735371e+08
0
0
0
0
5.531287e+08
5.626529e+08
5.776529e+08
5.994383e+08
6.297372e+08
0
0
0
0
0
5.236416e+08
5.319841e+08
5.451366e+08
5.641434e+08
5.903284e+08
0
0
0
0
0
0
4.961137e+08
5.035475e+08
5.152588e+08
5.32111e+08
5.551629e+08
0
0
0
0
0
0
0
4.711285e+08
4.778629e+08
4.884528e+08
5.03627e+08
5.242665e+08
0
0
0
0
0
0
0
0
4.488089e+08
4.549999e+08
4.647029e+08
4.785526e+08
4.972983e+08
0
0
0
0
0
0
0
0
0
4.29023e+08
4.347767e+08
4.437688e+08
4.565523e+08
4.737842e+08
0
0
0
0
0
0
0
0
0
0
1.06015e+09
9.592484e+08
1.037584e+09
8.734234e+08
9.249996e+08
1.019782e+09
8.032424e+08
8.383232e+08
8.981741e+08
1.008084e+09
7.450618e+08
7.705615e+08
8.121504e+08
8.806681e+08
1.005279e+09
6.959082e+08
7.155837e+08
7.468098e+08
7.953761e+08
8.729877e+08
0
6.537711e+08
6.695455e+08
6.944168e+08
7.317597e+08
7.876774e+08
0
0
6.170177e+08
6.301028e+08
6.506485e+08
6.810277e+08
7.247743e+08
0
0
0
5.843378e+08
5.954655e+08
6.129491e+08
6.385082e+08
6.746052e+08
0
0
0
0
5.54535e+08
5.641848e+08
5.793681e+08
6.01423e+08
6.321257e+08
0
0
0
0
0
5.264701e+08
5.34958e+08
5.483319e+08
5.676657e+08
5.943297e+08
0
0
0
0
0
0
4.994564e+08
5.070109e+08
5.189116e+08
5.360449e+08
5.595022e+08
0
0
0
0
0
0
0
4.740485e+08
4.808649e+08
4.915869e+08
5.069585e+08
5.278807e+08
0
0
0
0
0
0
0
0
4.508483e+08
4.570871e+08
4.668693e+08
4.808377e+08
4.997526e+08
0
0
0
0
0
0
0
0
0
4.300326e+08
4.358087e+08
4.448371e+08
4.576748e+08
4.749833e+08
0
0
0
0
0
0
0
0
0
0
4.115106e+08
4.169162e+08
4.253253e+08
4.372424e+08
4.532441e+08
0
0
0
0
0
0
0
0
0
0
1.029988e+09
9.427868e+08
1.00807e+09
8.666517e+08
9.150003e+08
9.995509e+08
8.012616e+08
8.353899e+08
8.931753e+08
9.963512e+08
7.448117e+08
7.700154e+08
8.110692e+08
8.783805e+08
9.989817e+08
6.96034e+08
7.1563e+08
7.467289e+08
7.950562e+08
8.721037e+08
0
6.537711e+08
6.695455e+08
6.944168e+08
7.317597e+08
7.876774e+08
0
0
6.168192e+08
6.299372e+08
6.505285e+08
6.809779e+08
7.248455e+08
0
0
0
5.841327e+08
5.953119e+08
6.128655e+08
6.385269e+08
6.747865e+08
0
0
0
0
5.547428e+08
5.644623e+08
5.797421e+08
6.019363e+08
6.328481e+08
0
0
0
0
0
5.27695e+08
5.362766e+08
5.497874e+08
5.693197e+08
5.962741e+08
0
0
0
0
0
0
5.020179e+08
5.096853e+08
5.217597e+08
5.391492e+08
5.629764e+08
0
0
0
0
0
0
0
4.771251e+08
4.840384e+08
4.949149e+08
5.105159e+08
5.317668e+08
0
0
0
0
0
0
0
0
4.535609e+08
4.598669e+08
4.697597e+08
4.838937e+08
5.03045e+08
0
0
0
0
0
0
0
0
0
4.319378e+08
4.377543e+08
4.4685e+08
4.597893e+08
4.772423e+08
0
0
0
0
0
0
0
0
0
0
4.124565e+08
4.178811e+08
4.263218e+08
4.38286e+08
4.543542e+08
0
0
0
0
0
0
0
0
0
0
3.950766e+08
4.001714e+08
4.080745e+08
4.192283e+08
4.341578e+08
0
0
0
0
0
0
0
0
0
0
1.006645e+09
9.257976e+08
9.803488e+08
8.555512e+08
8.997874e+08
9.716853e+08
7.964744e+08
8.291191e+08
8.837453e+08
9.767166e+08
7.434958e+08
7.681821e+08
8.08306e+08
8.73555e+08
9.872391e+08
6.959856e+08
7.154041e+08
7.462188e+08
7.940169e+08
8.698345e+08
0
6.539429e+08
6.696674e+08
6.944646e+08
7.316846e+08
7.873624e+08
0
0
6.168192e+08
6.299372e+08
6.505285e+08
6.809779e+08
7.248455e+08
0
0
0
5.839195e+08
5.951208e+08
6.127034e+08
6.384068e+08
6.74734e+08
0
0
0
0
5.54505e+08
5.642606e+08
5.795872e+08
6.018473e+08
6.328584e+08
0
0
0
0
0
5.278301e+08
5.36462e+08
5.500419e+08
5.696715e+08
5.96768e+08
0
0
0
0
0
0
5.03097e+08
5.108349e+08
5.230131e+08
5.405528e+08
5.64596e+08
0
0
0
0
0
0
0
4.794621e+08
4.864641e+08
4.97479e+08
5.132846e+08
5.348291e+08
0
0
0
0
0
0
0
0
4.564078e+08
4.627924e+08
4.728128e+08
4.871372e+08
5.065602e+08
0
0
0
0
0
0
0
0
0
4.34468e+08
4.403405e+08
4.495297e+08
4.6261e+08
4.802636e+08
0
0
0
0
0
0
0
0
0
0
4.142426e+08
4.197013e+08
4.282002e+08
4.402521e+08
4.564453e+08
0
0
0
0
0
0
0
0
0
0
3.959651e+08
4.010766e+08
4.090074e+08
4.202026e+08
4.351903e+08
0
0
0
0
0
0
0
0
0
0
3.796089e+08
3.844374e+08
3.918851e+08
4.023679e+08
4.163469e+08
0
0
0
0
0
0
0
0
0
0
9.910841e+08
9.11752e+08
9.588716e+08
8.434604e+08
8.84073e+08
9.455271e+08
7.881243e+08
8.18809e+08
8.693534e+08
9.496267e+08
7.398753e+08
7.637331e+08
8.023796e+08
8.644386e+08
9.676145e+08
6.950834e+08
7.141855e+08
7.444917e+08
7.913566e+08
8.650585e+08
0
6.540184e+08
6.696299e+08
6.942578e+08
7.311986e+08
7.86341e+08
0
0
6.170177e+08
6.301028e+08
6.506485e+08
6.810277e+08
7.247743e+08
0
0
0
5.839195e+08
5.951208e+08
6.127034e+08
6.384068e+08
6.74734e+08
0
0
0
0
5.542844e+08
5.640551e+08
5.794005e+08
6.016865e+08
6.327366e+08
0
0
0
0
0
5.275721e+08
5.362291e+08
5.498408e+08
5.695135e+08
5.966727e+08
0
0
0
0
0
0
5.031778e+08
5.109522e+08
5.231801e+08
5.407894e+08
5.649318e+08
0
0
0
0
0
0
0
4.80422e+08
4.874776e+08
4.985723e+08
5.144936e+08
5.362033e+08
0
0
0
0
0
0
0
0
4.585537e+08
4.650086e+08
4.751409e+08
4.896316e+08
5.092922e+08
0
0
0
0
0
0
0
0
0
4.371144e+08
4.430515e+08
4.523473e+08
4.655878e+08
4.834698e+08
0
0
0
0
0
0
0
0
0
0
4.166113e+08
4.221169e+08
4.30696e+08
4.42869e+08
4.592347e+08
0
0
0
0
0
0
0
0
0
0
3.976441e+08
4.027852e+08
4.107665e+08
4.220386e+08
4.371353e+08
0
0
0
0
0
0
0
0
0
0
3.804459e+08
3.852887e+08
3.92761e+08
4.032804e+08
4.17311e+08
0
0
0
0
0
0
0
0
0
0
3.650245e+08
3.696102e+08
3.766582e+08
3.865345e+08
3.996716e+08
0
0
0
0
0
0
0
0
0
0
9.833134e+08
9.019864e+08
9.445407e+08
8.331243e+08
8.710728e+08
9.252662e+08
7.786742e+08
8.075701e+08
8.544877e+08
9.2426e+08
7.332179e+08
7.55949e+08
7.926042e+08
8.504884e+08
9.405364e+08
6.922292e+08
7.108123e+08
7.402807e+08
7.856352e+08
8.560339e+08
0
6.533892e+08
6.687956e+08
6.931112e+08
7.295402e+08
7.837257e+08
0
0
6.17172e+08
6.301819e+08
6.50621e+08
6.808355e+08
7.243025e+08
0
0
0
5.841327e+08
5.953119e+08
6.128655e+08
6.385269e+08
6.747865e+08
0
0
0
0
5.542844e+08
5.640551e+08
5.794005e+08
6.016865e+08
6.327366e+08
0
0
0
0
0
5.27349e+08
5.360164e+08
5.496403e+08
5.693287e+08
5.965106e+08
0
0
0
0
0
0
5.029082e+08
5.106999e+08
5.229493e+08
5.405868e+08
5.647689e+08
0
0
0
0
0
0
0
4.804623e+08
4.875441e+08
4.986747e+08
5.14646e+08
5.364264e+08
0
0
0
0
0
0
0
0
4.594156e+08
4.65911e+08
4.761054e+08
4.906864e+08
5.104756e+08
0
0
0
0
0
0
0
0
0
4.39096e+08
4.450893e+08
4.544766e+08
4.678542e+08
4.859318e+08
0
0
0
0
0
0
0
0
0
0
4.190817e+08
4.246404e+08
4.333099e+08
4.456192e+08
4.621793e+08
0
0
0
0
0
0
0
0
0
0
3.998683e+08
4.050497e+08
4.131001e+08
4.244776e+08
4.397241e+08
0
0
0
0
0
0
0
0
0
0
3.820291e+08
3.868969e+08
3.944139e+08
4.05001e+08
4.191279e+08
0
0
0
0
0
0
0
0
0
0
3.658149e+08
3.704131e+08
3.774827e+08
3.873919e+08
4.005749e+08
0
0
0
0
0
0
0
0
0
0
3.512468e+08
3.556133e+08
3.622956e+08
3.716333e+08
3.840074e+08
0
0
0
0
0
0
0
0
0
0
8.969838e+08
9.373778e+08
8.257929e+08
8.620286e+08
9.117454e+08
7.704091e+08
7.97957e+08
8.421902e+08
9.046448e+08
7.254559e+08
7.471314e+08
7.81945e+08
8.360937e+08
9.152881e+08
6.867277e+08
7.045883e+08
7.328864e+08
7.761657e+08
8.421944e+08
0
6.510689e+08
6.661315e+08
6.89915e+08
7.254774e+08
7.780879e+08
0
0
6.167316e+08
6.296021e+08
6.498383e+08
6.797381e+08
7.226807e+08
0
0
0
5.843378e+08
5.954655e+08
6.129491e+08
6.385082e+08
6.746052e+08
0
0
0
0
5.54505e+08
5.642606e+08
5.795872e+08
6.018473e+08
6.328584e+08
0
0
0
0
0
5.27349e+08
5.360164e+08
5.496403e+08
5.693287e+08
5.965106e+08
0
0
0
0
0
0
5.02686e+08
5.104845e+08
5.227415e+08
5.403884e+08
5.645834e+08
0
0
0
0
0
0
0
4.801872e+08
4.872806e+08
4.984252e+08
5.144146e+08
5.3622e+08
0
0
0
0
0
0
0
0
4.594257e+08
4.659395e+08
4.761596e+08
4.907766e+08
5.106166e+08
0
0
0
0
0
0
0
0
0
4.398761e+08
4.459003e+08
4.553359e+08
4.687848e+08
4.869641e+08
0
0
0
0
0
0
0
0
0
0
4.209212e+08
4.265247e+08
4.352698e+08
4.476933e+08
4.644169e+08
0
0
0
0
0
0
0
0
0
0
0
4.021822e+08
4.074085e+08
4.155357e+08
4.270307e+08
4.424444e+08
0
0
0
0
0
0
0
0
0
0
3.841242e+08
3.890259e+08
3.966037e+08
4.072831e+08
4.215416e+08
0
0
0
0
0
0
0
0
0
0
3.673114e+08
3.719313e+08
3.7904e+08
3.890097e+08
4.022781e+08
0
0
0
0
0
0
0
0
0
0
3.519948e+08
3.563723e+08
3.630739e+08
3.724408e+08
3.848563e+08
0
0
0
0
0
0
0
0
0
0
3.382069e+08
3.423756e+08
3.487253e+08
3.575693e+08
3.692612e+08
0
0
0
0
0
0
0
0
0
0
8.219929e+08
8.573923e+08
9.049851e+08
7.644693e+08
7.911354e+08
8.336338e+08
8.915652e+08
7.185498e+08
7.394152e+08
7.728271e+08
8.241957e+08
8.958223e+08
6.801547e+08
6.973233e+08
7.24505e+08
7.658433e+08
8.279411e+08
0
6.464021e+08
6.609758e+08
6.83993e+08
7.18314e+08
7.687242e+08
0
0
6.148014e+08
6.274332e+08
6.473118e+08
6.766553e+08
7.186877e+08
0
0
0
5.840318e+08
5.950621e+08
6.124077e+08
6.377621e+08
6.735371e+08
0
0
0
0
5.547428e+08
5.644623e+08
5.797421e+08
6.019363e+08
6.328481e+08
0
0
0
0
0
5.275721e+08
5.362291e+08
5.498408e+08
5.695135e+08
5.966727e+08
0
0
0
0
0
0
5.02686e+08
5.104845e+08
5.227415e+08
5.403884e+08
5.645834e+08
0
0
0
0
0
0
0
4.799681e+08
4.870658e+08
4.982148e+08
5.142092e+08
5.360213e+08
0
0
0
0
0
0
0
0
4.591495e+08
4.656707e+08
4.758994e+08
4.905272e+08
5.103822e+08
0
0
0
0
0
0
0
0
0
4.398636e+08
4.459005e+08
4.553541e+08
4.688288e+08
4.870445e+08
0
0
0
0
0
0
0
0
0
0
4.21633e+08
4.272594e+08
4.360425e+08
4.485227e+08
4.653277e+08
0
0
0
0
0
0
0
0
0
0
0
4.03897e+08
4.091599e+08
4.173498e+08
4.289411e+08
4.444929e+08
0
0
0
0
0
0
0
0
0
0
0
0
3.862992e+08
3.912381e+08
3.988827e+08
4.096637e+08
4.240677e+08
0
0
0
0
0
0
0
0
0
0
3.692902e+08
3.739393e+08
3.811008e+08
3.911525e+08
4.045372e+08
0
0
0
0
0
0
0
0
0
0
3.534125e+08
3.57809e+08
3.645454e+08
3.739659e+08
3.864582e+08
0
0
0
0
0
0
0
0
0
0
3.38916e+08
3.430946e+08
3.494617e+08
3.583321e+08
3.70061e+08
0
0
0
0
0
0
0
0
0
0
3.258455e+08
3.298334e+08
3.358802e+08
3.442736e+08
3.553396e+08
0
0
0
0
0
0
0
0
0
0
7.613681e+08
7.875974e+08
8.29246e+08
8.850274e+08
7.135389e+08
7.338675e+08
7.663558e+08
8.159203e+08
8.828632e+08
6.742263e+08
6.908554e+08
7.171689e+08
7.570171e+08
8.161777e+08
0
6.407108e+08
6.548074e+08
6.770739e+08
7.101924e+08
7.585249e+08
0
0
6.107652e+08
6.230506e+08
6.423991e+08
6.709161e+08
7.116153e+08
0
0
0
5.823965e+08
5.932558e+08
6.103494e+08
6.353257e+08
6.70512e+08
0
0
0
0
5.54535e+08
5.641848e+08
5.793681e+08
6.01423e+08
6.321257e+08
0
0
0
0
0
5.278301e+08
5.36462e+08
5.500419e+08
5.696715e+08
5.96768e+08
0
0
0
0
0
0
5.029082e+08
5.106999e+08
5.229493e+08
5.405868e+08
5.647689e+08
0
0
0
0
0
0
0
4.799681e+08
4.870658e+08
4.982148e+08
5.142092e+08
5.360213e+08
0
0
0
0
0
0
0
0
4.58935e+08
4.654587e+08
4.756894e+08
4.903192e+08
5.101767e+08
0
0
0
0
0
0
0
0
0
4.395895e+08
4.456306e+08
4.550888e+08
4.685692e+08
4.867928e+08
0
0
0
0
0
0
0
0
0
0
4.216043e+08
4.272387e+08
4.36034e+08
4.485322e+08
4.653632e+08
0
0
0
0
0
0
0
0
0
0
0
4.045506e+08
4.09831e+08
4.180503e+08
4.296872e+08
4.453047e+08
0
0
0
0
0
0
0
0
0
0
0
0
3.879046e+08
3.928728e+08
4.005705e+08
4.114331e+08
4.259551e+08
0
0
0
0
0
0
0
0
0
0
0
0
0
3.713405e+08
3.760211e+08
3.8324e+08
3.933813e+08
4.068934e+08
0
0
0
0
0
0
0
0
0
0
3.55286e+08
3.597076e+08
3.664907e+08
3.759837e+08
3.885801e+08
0
0
0
0
0
0
0
0
0
0
3.402617e+08
3.444573e+08
3.508554e+08
3.59774e+08
3.715715e+08
0
0
0
0
0
0
0
0
0
0
3.265189e+08
3.305157e+08
3.365783e+08
3.449956e+08
3.560953e+08
0
0
0
0
0
0
0
0
0
0
3.141141e+08
3.179313e+08
3.237e+08
3.316815e+08
3.421749e+08
0
0
0
0
0
0
0
0
0
0
7.109097e+08
7.309691e+08
7.629983e+08
8.116767e+08
8.76391e+08
6.698926e+08
6.861604e+08
7.118934e+08
7.507541e+08
8.080024e+08
0
6.355201e+08
6.492399e+08
6.709117e+08
7.030849e+08
7.498115e+08
0
0
6.057558e+08
6.176972e+08
6.36514e+08
6.642061e+08
7.035971e+08
0
0
0
5.788523e+08
5.894583e+08
6.061677e+08
6.305621e+08
6.648498e+08
0
0
0
0
5.531287e+08
5.626529e+08
5.776529e+08
5.994383e+08
6.297372e+08
0
0
0
0
0
5.27695e+08
5.362766e+08
5.497874e+08
5.693197e+08
5.962741e+08
0
0
0
0
0
0
5.031778e+08
5.109522e+08
5.231801e+08
5.407894e+08
5.649318e+08
0
0
0
0
0
0
0
4.801872e+08
4.872806e+08
4.984252e+08
5.144146e+08
5.3622e+08
0
0
0
0
0
0
0
0
4.58935e+08
4.654587e+08
4.756894e+08
4.903192e+08
5.101767e+08
0
0
0
0
0
0
0
0
0
4.393807e+08
4.454229e+08
4.548814e+08
4.683616e+08
4.865848e+08
0
0
0
0
0
0
0
0
0
0
4.213348e+08
4.269708e+08
4.357678e+08
4.482679e+08
4.651017e+08
0
0
0
0
0
0
0
0
0
0
0
4.045101e+08
4.097953e+08
4.180221e+08
4.296712e+08
4.453067e+08
0
0
0
0
0
0
0
0
0
0
0
0
3.88509e+08
3.934896e+08
4.012107e+08
4.121097e+08
4.266854e+08
0
0
0
0
0
0
0
0
0
0
0
0
0
3.728491e+08
3.775535e+08
3.848169e+08
3.950286e+08
4.08642e+08
0
0
0
0
0
0
0
0
0
0
0
0
0
0
3.572244e+08
3.616725e+08
3.685058e+08
3.780772e+08
3.907868e+08
0
0
0
0
0
0
0
0
0
0
3.420392e+08
3.462569e+08
3.526963e+08
3.616798e+08
3.735701e+08
0
0
0
0
0
0
0
0
0
0
3.277986e+08
3.318104e+08
3.379012e+08
3.463621e+08
3.575238e+08
0
0
0
0
0
0
0
0
0
0
3.147548e+08
3.1858e+08
3.24363e+08
3.323664e+08
3.428904e+08
0
0
0
0
0
0
0
0
0
0
3.029656e+08
3.066249e+08
3.121326e+08
3.197349e+08
3.297037e+08
0
0
0
0
0
0
0
0
0
0
6.676106e+08
6.836953e+08
7.091362e+08
7.475043e+08
8.038118e+08
0
6.31703e+08
6.45168e+08
6.664376e+08
6.979741e+08
7.436314e+08
0
0
6.01144e+08
6.128104e+08
6.311996e+08
6.582302e+08
6.965836e+08
0
0
0
5.743863e+08
5.847361e+08
6.010518e+08
6.2485e+08
6.582269e+08
0
0
0
0
5.499786e+08
5.593124e+08
5.740248e+08
5.953811e+08
6.25039e+08
0
0
0
0
0
5.264701e+08
5.34958e+08
5.483319e+08
5.676657e+08
5.943297e+08
0
0
0
0
0
0
5.03097e+08
5.108349e+08
5.230131e+08
5.405528e+08
5.64596e+08
0
0
0
0
0
0
0
4.804623e+08
4.875441e+08
4.986747e+08
5.14646e+08
5.364264e+08
0
0
0
0
0
0
0
0
4.591495e+08
4.656707e+08
4.758994e+08
4.905272e+08
5.103822e+08
0
0
0
0
0
0
0
0
0
4.393807e+08
4.454229e+08
4.548814e+08
4.683616e+08
4.865848e+08
0
0
0
0
0
0
0
0
0
0
4.211325e+08
4.267683e+08
4.355644e+08
4.480628e+08
4.648943e+08
0
0
0
0
0
0
0
0
0
0
0
4.042467e+08
4.095318e+08
4.177578e+08
4.29406e+08
4.450408e+08
0
0
0
0
0
0
0
0
0
0
0
0
3.884604e+08
3.934431e+08
4.011686e+08
4.12075e+08
4.266628e+08
0
0
0
0
0
0
0
0
0
0
0
0
0
3.734111e+08
3.781244e+08
3.854058e+08
3.956473e+08
4.093044e+08
0
0
0
0
0
0
0
0
0
0
0
0
0
0
3.586469e+08
3.631141e+08
3.699853e+08
3.796171e+08
3.924152e+08
0
0
0
0
0
0
0
0
0
0
0
0
0
0
0
3.438759e+08
3.481165e+08
3.545999e+08
3.63653e+08
3.756435e+08
0
0
0
0
0
0
0
0
0
0
3.294883e+08
3.335196e+08
3.396477e+08
3.481667e+08
3.594121e+08
0
0
0
0
0
0
0
0
0
0
3.159741e+08
3.198125e+08
3.25621e+08
3.336641e+08
3.442446e+08
0
0
0
0
0
0
0
0
0
0
3.03576e+08
3.072426e+08
3.127633e+08
3.203856e+08
3.303826e+08
0
0
0
0
0
0
0
0
0
0
2.923545e+08
2.958699e+08
3.011358e+08
3.083834e+08
3.178688e+08
0
0
0
0
0
0
0
0
0
0
6.296878e+08
6.430227e+08
6.640875e+08
6.953027e+08
7.404253e+08
0
0
5.977358e+08
6.092151e+08
6.273119e+08
6.538911e+08
6.91542e+08
0
0
0
5.702418e+08
5.803846e+08
5.963794e+08
6.196912e+08
6.523302e+08
0
0
0
0
5.459561e+08
5.550942e+08
5.695054e+08
5.904114e+08
6.194008e+08
0
0
0
0
0
5.236416e+08
5.319841e+08
5.451366e+08
5.641434e+08
5.903284e+08
0
0
0
0
0
0
5.020179e+08
5.096853e+08
5.217597e+08
5.391492e+08
5.629764e+08
0
0
0
0
0
0
0
4.80422e+08
4.874776e+08
4.985723e+08
5.144936e+08
5.362033e+08
0
0
0
0
0
0
0
0
4.594257e+08
4.659395e+08
4.761596e+08
4.907766e+08
5.106166e+08
0
0
0
0
0
0
0
0
0
4.395895e+08
4.456306e+08
4.550888e+08
4.685692e+08
4.867928e+08
0
0
0
0
0
0
0
0
0
0
4.211325e+08
4.267683e+08
4.355644e+08
4.480628e+08
4.648943e+08
0
0
0
0
0
0
0
0
0
0
0
4.040512e+08
4.093353e+08
4.175595e+08
4.292049e+08
4.448359e+08
0
0
0
0
0
0
0
0
0
0
0
0
3.882043e+08
3.931854e+08
4.009086e+08
4.118119e+08
4.263964e+08
0
0
0
0
0
0
0
0
0
0
0
0
0
3.733574e+08
3.780705e+08
3.853536e+08
3.955994e+08
4.092638e+08
0
0
0
0
0
0
0
0
0
0
0
0
0
0
3.591727e+08
3.636456e+08
3.705308e+08
3.801865e+08
3.93021e+08
0
0
0
0
0
0
0
0
0
0
0
0
0
0
0
3.452213e+08
3.494774e+08
3.559929e+08
3.650987e+08
3.771662e+08
0
0
0
0
0
0
0
0
0
0
0
0
0
0
0
0
3.312325e+08
3.352836e+08
3.414508e+08
3.500317e+08
3.613667e+08
0
0
0
0
0
0
0
0
0
0
3.175834e+08
3.214388e+08
3.272809e+08
3.35377e+08
3.46033e+08
0
0
0
0
0
0
0
0
0
0
3.047394e+08
3.084179e+08
3.139617e+08
3.216203e+08
3.316689e+08
0
0
0
0
0
0
0
0
0
0
2.929373e+08
2.964589e+08
3.017368e+08
3.090028e+08
3.185139e+08
0
0
0
0
0
0
0
0
0
0
2.822468e+08
2.856241e+08
2.90668e+08
2.975867e+08
3.066207e+08
0
0
0
0
0
0
0
0
0
0
5.959333e+08
6.073159e+08
6.252627e+08
6.516117e+08
6.889069e+08
0
0
0
5.671665e+08
5.771672e+08
5.929405e+08
6.159169e+08
6.480495e+08
0
0
0
0
5.421976e+08
5.511758e+08
5.653381e+08
5.858712e+08
6.143093e+08
0
0
0
0
0
5.199878e+08
5.281778e+08
5.410938e+08
5.597493e+08
5.854219e+08
0
0
0
0
0
0
4.994564e+08
5.070109e+08
5.189116e+08
5.360449e+08
5.595022e+08
0
0
0
0
0
0
0
4.794621e+08
4.864641e+08
4.97479e+08
5.132846e+08
5.348291e+08
0
0
0
0
0
0
0
0
4.594156e+08
4.65911e+08
4.761054e+08
4.906864e+08
5.104756e+08
0
0
0
0
0
0
0
0
0
4.398636e+08
4.459005e+08
4.553541e+08
4.688288e+08
4.870445e+08
0
0
0
0
0
0
0
0
0
0
4.213348e+08
4.269708e+08
4.357678e+08
4.482679e+08
4.651017e+08
0
0
0
0
0
0
0
0
0
0
0
4.040512e+08
4.093353e+08
4.175595e+08
4.292049e+08
4.448359e+08
0
0
0
0
0
0
0
0
0
0
0
0
3.880158e+08
3.929954e+08
4.007161e+08
4.116157e+08
4.261955e+08
0
0
0
0
0
0
0
0
0
0
0
0
0
3.731096e+08
3.778198e+08
3.850994e+08
3.953406e+08
4.089996e+08
0
0
0
0
0
0
0
0
0
0
0
0
0
0
3.59116e+08
3.635872e+08
3.704719e+08
3.801292e+08
3.929678e+08
0
0
0
0
0
0
0
0
0
0
0
0
0
0
0
3.457156e+08
3.499752e+08
3.565012e+08
3.656264e+08
3.777239e+08
0
0
0
0
0
0
0
0
0
0
0
0
0
0
0
0
3.325082e+08
3.365721e+08
3.42767e+08
3.513937e+08
3.627967e+08
0
0
0
0
0
0
0
0
0
0
0
0
0
0
0
0
0
3.192435e+08
3.231157e+08
3.289927e+08
3.371445e+08
3.47881e+08
0
0
0
0
0
0
0
0
0
0
3.062746e+08
3.099684e+08
3.155424e+08
3.232491e+08
3.333668e+08
0
0
0
0
0
0
0
0
0
0
2.940494e+08
2.975814e+08
3.028805e+08
3.101795e+08
3.19738e+08
0
0
0
0
0
0
0
0
0
0
2.828037e+08
2.861868e+08
2.912415e+08
2.981771e+08
3.072348e+08
0
0
0
0
0
0
0
0
0
0
2.726133e+08
2.758558e+08
2.806888e+08
2.873044e+08
2.959197e+08
0
0
0
0
0
0
0
0
0
0
5.655379e+08
5.754646e+08
5.911233e+08
6.139271e+08
6.458008e+08
0
0
0
0
5.393989e+08
5.482666e+08
5.622558e+08
5.825294e+08
6.105848e+08
0
0
0
0
0
5.165533e+08
5.246175e+08
5.373357e+08
5.556962e+08
5.809398e+08
0
0
0
0
0
0
4.961137e+08
5.035475e+08
5.152588e+08
5.32111e+08
5.551629e+08
0
0
0
0
0
0
0
4.771251e+08
4.840384e+08
4.949149e+08
5.105159e+08
5.317668e+08
0
0
0
0
0
0
0
0
4.585537e+08
4.650086e+08
4.751409e+08
4.896316e+08
5.092922e+08
0
0
0
0
0
0
0
0
0
4.398761e+08
4.459003e+08
4.553359e+08
4.687848e+08
4.869641e+08
0
0
0
0
0
0
0
0
0
0
4.216043e+08
4.272387e+08
4.36034e+08
4.485322e+08
4.653632e+08
0
0
0
0
0
0
0
0
0
0
0
4.042467e+08
4.095318e+08
4.177578e+08
4.29406e+08
4.450408e+08
0
0
0
0
0
0
0
0
0
0
0
0
3.880158e+08
3.929954e+08
4.007161e+08
4.116157e+08
4.261955e+08
0
0
0
0
0
0
0
0
0
0
0
0
0
3.729284e+08
3.776365e+08
3.849131e+08
3.951502e+08
4.088038e+08
0
0
0
0
0
0
0
0
0
0
0
0
0
0
3.588768e+08
3.633445e+08
3.702245e+08
3.798762e+08
3.927082e+08
0
0
0
0
0
0
0
0
0
0
0
0
0
0
0
3.456578e+08
3.499144e+08
3.564384e+08
3.655629e+08
3.776618e+08
0
0
0
0
0
0
0
0
0
0
0
0
0
0
0
0
3.329749e+08
3.370407e+08
3.432435e+08
3.518858e+08
3.633137e+08
0
0
0
0
0
0
0
0
0
0
0
0
0
0
0
0
0
3.204566e+08
3.243387e+08
3.302399e+08
3.384322e+08
3.492286e+08
0
0
0
0
0
0
0
0
0
0
0
0
0
0
0
0
0
0
3.078572e+08
3.11566e+08
3.171708e+08
3.24928e+08
3.351187e+08
0
0
0
0
0
0
0
0
0
0
2.955169e+08
2.990619e+08
3.043885e+08
3.117313e+08
3.21353e+08
0
0
0
0
0
0
0
0
0
0
2.838682e+08
2.872608e+08
2.923344e+08
2.993006e+08
3.084018e+08
0
0
0
0
0
0
0
0
0
0
2.731464e+08
2.76394e+08
2.81237e+08
2.878681e+08
2.965053e+08
0
0
0
0
0
0
0
0
0
0
2.634221e+08
2.665379e+08
2.711683e+08
2.774977e+08
2.857263e+08
0
0
0
0
0
0
0
0
0
0
5.379155e+08
5.467251e+08
5.60624e+08
5.807631e+08
6.086213e+08
0
0
0
0
0
5.139883e+08
5.219649e+08
5.345444e+08
5.52698e+08
5.77641e+08
0
0
0
0
0
0
4.929555e+08
5.002885e+08
5.118394e+08
5.284526e+08
5.511603e+08
0
0
0
0
0
0
0
4.740485e+08
4.808649e+08
4.915869e+08
5.069585e+08
5.278807e+08
0
0
0
0
0
0
0
0
4.564078e+08
4.627924e+08
4.728128e+08
4.871372e+08
5.065602e+08
0
0
0
0
0
0
0
0
0
4.39096e+08
4.450893e+08
4.544766e+08
4.678542e+08
4.859318e+08
0
0
0
0
0
0
0
0
0
0
4.21633e+08
4.272594e+08
4.360425e+08
4.485227e+08
4.653277e+08
0
0
0
0
0
0
0
0
0
0
0
4.045101e+08
4.097953e+08
4.180221e+08
4.296712e+08
4.453067e+08
0
0
0
0
0
0
0
0
0
0
0
0
3.882043e+08
3.931854e+08
4.009086e+08
4.118119e+08
4.263964e+08
0
0
0
0
0
0
0
0
0
0
0
0
0
3.729284e+08
3.776365e+08
3.849131e+08
3.951502e+08
4.088038e+08
0
0
0
0
0
0
0
0
0
0
0
0
0
0
3.587028e+08
3.631682e+08
3.700447e+08
3.796918e+08
3.92518e+08
0
0
0
0
0
0
0
0
0
0
0
0
0
0
0
3.454276e+08
3.4968e+08
3.561988e+08
3.653168e+08
3.77408e+08
0
0
0
0
0
0
0
0
0
0
0
0
0
0
0
0
3.329172e+08
3.369791e+08
3.431787e+08
3.518188e+08
3.632459e+08
0
0
0
0
0
0
0
0
0
0
0
0
0
0
0
0
0
3.208994e+08
3.247817e+08
3.306889e+08
3.388937e+08
3.497109e+08
0
0
0
0
0
0
0
0
0
0
0
0
0
0
0
0
0
0
3.09013e+08
3.127302e+08
3.183557e+08
3.261489e+08
3.363931e+08
0
0
0
0
0
0
0
0
0
0
0
0
0
0
0
0
0
0
0
2.970291e+08
3.005863e+08
3.059411e+08
3.133292e+08
3.230174e+08
0
0
0
0
0
0
0
0
0
0
2.852729e+08
2.886772e+08
2.937753e+08
3.007819e+08
3.099408e+08
0
0
0
0
0
0
0
0
0
0
2.74167e+08
2.774228e+08
2.822834e+08
2.889422e+08
2.976197e+08
0
0
0
0
0
0
0
0
0
0
2.639328e+08
2.670535e+08
2.716929e+08
2.780367e+08
2.862855e+08
0
0
0
0
0
0
0
0
0
0
2.546535e+08
2.576407e+08
2.620812e+08
2.681377e+08
2.760022e+08
0
0
0
0
0
0
0
0
0
0
5.126282e+08
5.205583e+08
5.330649e+08
5.511104e+08
5.758974e+08
0
0
0
0
0
0
4.905908e+08
4.97853e+08
5.092908e+08
5.25735e+08
5.481996e+08
0
0
0
0
0
0
0
4.711285e+08
4.778629e+08
4.884528e+08
5.03627e+08
5.242665e+08
0
0
0
0
0
0
0
0
4.535609e+08
4.598669e+08
4.697597e+08
4.838937e+08
5.03045e+08
0
0
0
0
0
0
0
0
0
4.371144e+08
4.430515e+08
4.523473e+08
4.655878e+08
4.834698e+08
0
0
0
0
0
0
0
0
0
0
4.209212e+08
4.265247e+08
4.352698e+08
4.476933e+08
4.644169e+08
0
0
0
0
0
0
0
0
0
0
0
4.045506e+08
4.09831e+08
4.180503e+08
4.296872e+08
4.453047e+08
0
0
0
0
0
0
0
0
0
0
0
0
3.884604e+08
3.934431e+08
4.011686e+08
4.12075e+08
4.266628e+08
0
0
0
0
0
0
0
0
0
0
0
0
0
3.731096e+08
3.778198e+08
3.850994e+08
3.953406e+08
4.089996e+08
0
0
0
0
0
0
0
0
0
0
0
0
0
0
3.587028e+08
3.631682e+08
3.700447e+08
3.796918e+08
3.92518e+08
0
0
0
0
0
0
0
0
0
0
0
0
0
0
0
3.452608e+08
3.495106e+08
3.560257e+08
3.651388e+08
3.77224e+08
0
0
0
0
0
0
0
0
0
0
0
0
0
0
0
0
3.326963e+08
3.367535e+08
3.429473e+08
3.515804e+08
3.629991e+08
0
0
0
0
0
0
0
0
0
0
0
0
0
0
0
0
0
3.208431e+08
3.247206e+08
3.306237e+08
3.388251e+08
3.496399e+08
0
0
0
0
0
0
0
0
0
0
0
0
0
0
0
0
0
0
3.094344e+08
3.131511e+08
3.187805e+08
3.26584e+08
3.368456e+08
0
0
0
0
0
0
0
0
0
0
0
0
0
0
0
0
0
0
0
2.981335e+08
3.016967e+08
3.070699e+08
3.144897e+08
3.242261e+08
0
0
0
0
0
0
0
0
0
0
0
0
0
0
0
0
0
0
0
0
2.867202e+08
2.901352e+08
2.952579e+08
3.023061e+08
3.115253e+08
0
0
0
0
0
0
0
0
0
0
2.75514e+08
2.787797e+08
2.836629e+08
2.903582e+08
2.990891e+08
0
0
0
0
0
0
0
0
0
0
2.649123e+08
2.680407e+08
2.726959e+08
2.790656e+08
2.873512e+08
0
0
0
0
0
0
0
0
0
0
2.551435e+08
2.58135e+08
2.62584e+08
2.686537e+08
2.765371e+08
0
0
0
0
0
0
0
0
0
0
2.46279e+08
2.491462e+08
2.53399e+08
2.592e+08
2.667191e+08
0
0
0
0
0
0
0
0
0
0
4.893366e+08
4.96561e+08
5.079388e+08
5.242942e+08
5.466319e+08
0
0
0
0
0
0
0
4.689374e+08
4.756139e+08
4.861097e+08
5.011435e+08
5.215819e+08
0
0
0
0
0
0
0
0
4.508483e+08
4.570871e+08
4.668693e+08
4.808377e+08
4.997526e+08
0
0
0
0
0
0
0
0
0
4.34468e+08
4.403405e+08
4.495297e+08
4.6261e+08
4.802636e+08
0
0
0
0
0
0
0
0
0
0
4.190817e+08
4.246405e+08
4.333099e+08
4.456192e+08
4.621793e+08
0
0
0