/*--------------------------------*- C++ -*----------------------------------*\
| =========                 |                                                 |
| \\      /  F ield         | OpenFOAM: The Open Source CFD Toolbox           |
|  \\    /   O peration     | Version:  2306                                  |
|   \\  /    A nd           | Website:  www.openfoam.com                      |
|    \\/     M anipulation  |                                                 |
\*---------------------------------------------------------------------------*/
FoamFile
{
    version     2.0;
    format      ascii;
    arch        "LSB;label=32;scalar=64";
    class       volScalarField;
    location    "0.6/fuel";
    object      nernst;
}
// * * * * * * * * * * * * * * * * * * * * * * * * * * * * * * * * * * * * * //

dimensions      [1 2 -3 0 0 -1 0];

internalField   nonuniform List<scalar> 
16000
(
-1.736958
-1.737891
-1.724378
-1.73702
-1.739782
-1.72499
-1.737953
-1.713038
-1.724421
-1.737137
-1.742646
-1.726226
-1.739849
-1.713502
-1.725034
-1.738074
-1.703852
-1.71307
-1.724506
-1.73731
-1.746369
-1.728084
-1.742719
-1.714437
-1.726272
-1.739976
-1.704229
-1.713534
-1.725121
-1.738251
-1.696268
-1.703876
-1.713133
-1.724632
-1.737537
-1.750377
-1.730476
-1.746453
-1.715842
-1.728131
-1.742859
-1.704988
-1.71447
-1.72636
-1.740163
-1.696585
-1.704253
-1.713598
-1.725248
-1.738484
-1.68984
-1.696287
-1.703926
-1.713227
-1.724797
-1.737765
-1.75333
-1.733034
-1.750478
-1.717651
-1.730525
-1.746612
-1.706126
-1.715875
-1.728224
-1.743063
-1.697224
-1.705012
-1.714535
-1.726492
-1.740409
-1.690114
-1.696604
-1.704303
-1.713693
-1.725415
-1.738718
-1.684271
-1.689855
-1.696327
-1.704
-1.713352
-1.724963
-1.737957
-1.755103
-1.734959
-1.753446
-1.719594
-1.733087
-1.750664
-1.707593
-1.717685
-1.730624
-1.746844
-1.698183
-1.70615
-1.715942
-1.728361
-1.743331
-1.690666
-1.697243
-1.705062
-1.714632
-1.726664
-1.740656
-1.684513
-1.690129
-1.696644
-1.704378
-1.713818
-1.725584
-1.738915
-1.679363
-1.684283
-1.689888
-1.696388
-1.704099
-1.713477
-1.725103
-1.738148
-1.756032
-1.736168
-1.75523
-1.72108
-1.735014
-1.753654
-1.70917
-1.719627
-1.733192
-1.750934
-1.699416
-1.707616
-1.717754
-1.73077
-1.747148
-1.691493
-1.698201
-1.706202
-1.716042
-1.728542
-1.7436
-1.684998
-1.690681
-1.697283
-1.705138
-1.71476
-1.726838
-1.740864
-1.679579
-1.684525
-1.690162
-1.696705
-1.704477
-1.713945
-1.725726
-1.739111
-1.674976
-1.679373
-1.684311
-1.689939
-1.696469
-1.704199
-1.713583
-1.725242
-1.738338
-1.756421
-1.736839
-1.756167
-1.722042
-1.736224
-1.755455
-1.710388
-1.721113
-1.735124
-1.753954
-1.700744
-1.709192
-1.719698
-1.73335
-1.751287
-1.692557
-1.699434
-1.707668
-1.717857
-1.730964
-1.747452
-1.685726
-1.691507
-1.698242
-1.706279
-1.716174
-1.728725
-1.743827
-1.680013
-1.68501
-1.690714
-1.697345
-1.705239
-1.714889
-1.726984
-1.741071
-1.675171
-1.679588
-1.684553
-1.690213
-1.696787
-1.704578
-1.714052
-1.725867
-1.739307
-1.671011
-1.674984
-1.679397
-1.684355
-1.690008
-1.696551
-1.704283
-1.713688
-1.72538
-1.738528
-1.756421
-1.737134
-1.75656
-1.722596
-1.736897
-1.756403
-1.71119
-1.722074
-1.736339
-1.755776
-1.701776
-1.71041
-1.721185
-1.73529
-1.754345
-1.693703
-1.70076
-1.709245
-1.719807
-1.73356
-1.751641
-1.686662
-1.692571
-1.699475
-1.707748
-1.717996
-1.731158
-1.747711
-1.680662
-1.685737
-1.691541
-1.698305
-1.706382
-1.716307
-1.728878
-1.744054
-1.675564
-1.680022
-1.685038
-1.690766
-1.697428
-1.705341
-1.714998
-1.72713
-1.741278
-1.671189
-1.675179
-1.679612
-1.684597
-1.690283
-1.69687
-1.704662
-1.714158
-1.726007
-1.739501
-1.667392
-1.671017
-1.675005
-1.679435
-1.684414
-1.690078
-1.696621
-1.704366
-1.713792
-1.725518
-1.739449
-1.756032
-1.737134
-1.75656
-1.722846
-1.737193
-1.756801
-1.711661
-1.722628
-1.737014
-1.756737
-1.702461
-1.711211
-1.722147
-1.736509
-1.756192
-1.694597
-1.701791
-1.710462
-1.721295
-1.735509
-1.754737
-1.68767
-1.693716
-1.700802
-1.709327
-1.719952
-1.73377
-1.751944
-1.681498
-1.686673
-1.692605
-1.699539
-1.707854
-1.718135
-1.731322
-1.747971
-1.676151
-1.680671
-1.685766
-1.691593
-1.698389
-1.706487
-1.716419
-1.72903
-1.744282
-1.671547
-1.675571
-1.680046
-1.685082
-1.690836
-1.697512
-1.705427
-1.715106
-1.727274
-1.741484
-1.667556
-1.671195
-1.6752
-1.679651
-1.684656
-1.690353
-1.69694
-1.704746
-1.714263
-1.726147
-1.740447
-1.664064
-1.667397
-1.671036
-1.675039
-1.679487
-1.684475
-1.690136
-1.696689
-1.704449
-1.713896
-1.726185
-1.740168
-1.755103
-1.736839
-1.756167
-1.722846
-1.737193
-1.756801
-1.711877
-1.722879
-1.737312
-1.757141
-1.702867
-1.711681
-1.722701
-1.737187
-1.757169
-1.695193
-1.702475
-1.711263
-1.722259
-1.736734
-1.756609
-1.688457
-1.694608
-1.701831
-1.710544
-1.721444
-1.735729
-1.755073
-1.682398
-1.687679
-1.693749
-1.700867
-1.709438
-1.720099
-1.733948
-1.752251
-1.676905
-1.681506
-1.686701
-1.692658
-1.699625
-1.707962
-1.718252
-1.731487
-1.748233
-1.672083
-1.676158
-1.680696
-1.68581
-1.691664
-1.698474
-1.706574
-1.716531
-1.729183
-1.744508
-1.667885
-1.671553
-1.675592
-1.680085
-1.685143
-1.690906
-1.697582
-1.705512
-1.715214
-1.727419
-1.742486
-1.664216
-1.667561
-1.671214
-1.675234
-1.679703
-1.684717
-1.690412
-1.697009
-1.70483
-1.714368
-1.726824
-1.741191
-1.660981
-1.664068
-1.667414
-1.671065
-1.675085
-1.67954
-1.684525
-1.690194
-1.696758
-1.704531
-1.714399
-1.726704
-1.740753
-1.75333
-1.736168
-1.75523
-1.722596
-1.736897
-1.756403
-1.711877
-1.722879
-1.737312
-1.757141
-1.703054
-1.711897
-1.722952
-1.737486
-1.757581
-1.695548
-1.70288
-1.711732
-1.722813
-1.737416
-1.757602
-1.688984
-1.695203
-1.702514
-1.711344
-1.722409
-1.73696
-1.756967
-1.683101
-1.688466
-1.69464
-1.701896
-1.710656
-1.721594
-1.735915
-1.755413
-1.677718
-1.682405
-1.687707
-1.693803
-1.700955
-1.709549
-1.720222
-1.734128
-1.752563
-1.672771
-1.676912
-1.68153
-1.686746
-1.69273
-1.699712
-1.708052
-1.718369
-1.731651
-1.748496
-1.668378
-1.672089
-1.676179
-1.680734
-1.685871
-1.691736
-1.698545
-1.706661
-1.716642
-1.729335
-1.745614
-1.664521
-1.66789
-1.671571
-1.675626
-1.680137
-1.685204
-1.690966
-1.697652
-1.705597
-1.715321
-1.728118
-1.743292
-1.661123
-1.66422
-1.667577
-1.671244
-1.67528
-1.679756
-1.684767
-1.69047
-1.697077
-1.704912
-1.714876
-1.727352
-1.741801
-1.65811
-1.660985
-1.664082
-1.667441
-1.671107
-1.675132
-1.679584
-1.684575
-1.690252
-1.696825
-1.704931
-1.714789
-1.727122
-1.741197
-1.750377
-1.734959
-1.753446
-1.722042
-1.736224
-1.755455
-1.711661
-1.722628
-1.737014
-1.756737
-1.703054
-1.711897
-1.722952
-1.737486
-1.757581
-1.695714
-1.703068
-1.711948
-1.723065
-1.737717
-1.758021
-1.6893
-1.695558
-1.702919
-1.711814
-1.722964
-1.737646
-1.757973
-1.683574
-1.688992
-1.695235
-1.702578
-1.711456
-1.72256
-1.737151
-1.757329
-1.678355
-1.683108
-1.688492
-1.694693
-1.701984
-1.710768
-1.72172
-1.736104
-1.755758
-1.673513
-1.677724
-1.682429
-1.687753
-1.693877
-1.701045
-1.709643
-1.720347
-1.73431
-1.752879
-1.669012
-1.672777
-1.676933
-1.681569
-1.686807
-1.692803
-1.699785
-1.708142
-1.718486
-1.731816
-1.749783
-1.664977
-1.668383
-1.672107
-1.676213
-1.680787
-1.685933
-1.691796
-1.698616
-1.706748
-1.716753
-1.730073
-1.746553
-1.661407
-1.664525
-1.667907
-1.671601
-1.675672
-1.680191
-1.685255
-1.691024
-1.697721
-1.705681
-1.715839
-1.728667
-1.743968
-1.658242
-1.661126
-1.664234
-1.667604
-1.671285
-1.675327
-1.6798
-1.684818
-1.690528
-1.697146
-1.705315
-1.715269
-1.727778
-1.742269
-1.655421
-1.658112
-1.660998
-1.664107
-1.667478
-1.671149
-1.675171
-1.679628
-1.684625
-1.690309
-1.697154
-1.705238
-1.715101
-1.727436
-1.741495
-1.746369
-1.733034
-1.750478
-1.72108
-1.735014
-1.753654
-1.71119
-1.722074
-1.736339
-1.755776
-1.702867
-1.711681
-1.722701
-1.737187
-1.757169
-1.695714
-1.703068
-1.711948
-1.723065
-1.737717
-1.758021
-1.689446
-1.695723
-1.703106
-1.712029
-1.723216
-1.737949
-1.758399
-1.683857
-1.689307
-1.695589
-1.702982
-1.711925
-1.723116
-1.73784
-1.758348
-1.678783
-1.683579
-1.689018
-1.695287
-1.702666
-1.711568
-1.722686
-1.737344
-1.757695
-1.674095
-1.67836
-1.68313
-1.688537
-1.694767
-1.702074
-1.710862
-1.721847
-1.736294
-1.756108
-1.669695
-1.673518
-1.677745
-1.682468
-1.687816
-1.693951
-1.70112
-1.709737
-1.720473
-1.734494
-1.75444
-1.665564
-1.669016
-1.672795
-1.676967
-1.681623
-1.68687
-1.692864
-1.699858
-1.708233
-1.718603
-1.73262
-1.751013
-1.661832
-1.664981
-1.668399
-1.672137
-1.67626
-1.680841
-1.685984
-1.691855
-1.698687
-1.706834
-1.71729
-1.730672
-1.747386
-1.658508
-1.66141
-1.664539
-1.667934
-1.671643
-1.67572
-1.680235
-1.685305
-1.691083
-1.69779
-1.706089
-1.716242
-1.729116
-1.744498
-1.655545
-1.658245
-1.661139
-1.664259
-1.667642
-1.671328
-1.675367
-1.679844
-1.684868
-1.690585
-1.697476
-1.705623
-1.715584
-1.728099
-1.742586
-1.652892
-1.655423
-1.658124
-1.66102
-1.664141
-1.667517
-1.671185
-1.67521
-1.679672
-1.684675
-1.690587
-1.697404
-1.705483
-1.715334
-1.727643
-1.742646
-1.730476
-1.746453
-1.719594
-1.733087
-1.750664
-1.710388
-1.721113
-1.735124
-1.753954
-1.702461
-1.711211
-1.722147
-1.736509
-1.756192
-1.695548
-1.70288
-1.711732
-1.722813
-1.737416
-1.757602
-1.689446
-1.695723
-1.703106
-1.712029
-1.723216
-1.737949
-1.758399
-1.683989
-1.689453
-1.695753
-1.703169
-1.71214
-1.723368
-1.738145
-1.75878
-1.67904
-1.683862
-1.689332
-1.69564
-1.70307
-1.712037
-1.723243
-1.738036
-1.758726
-1.674487
-1.678787
-1.683601
-1.689062
-1.695359
-1.702755
-1.711662
-1.722814
-1.737538
-1.758064
-1.670231
-1.674099
-1.67838
-1.683169
-1.6886
-1.694841
-1.702149
-1.710957
-1.721975
-1.736486
-1.757837
-1.666197
-1.669699
-1.673536
-1.677779
-1.682523
-1.68788
-1.694014
-1.701196
-1.709833
-1.7206
-1.735396
-1.756216
-1.662379
-1.665568
-1.669032
-1.672825
-1.677015
-1.681678
-1.686922
-1.692925
-1.699931
-1.708323
-1.719174
-1.733338
-1.752256
-1.658906
-1.661835
-1.664995
-1.668426
-1.672179
-1.676308
-1.680886
-1.686035
-1.691915
-1.698757
-1.707253
-1.717717
-1.731183
-1.748077
-1.655795
-1.658511
-1.661423
-1.664563
-1.667971
-1.671686
-1.67576
-1.68028
-1.685356
-1.691141
-1.698124
-1.706402
-1.716567
-1.729458
-1.744865
-1.653009
-1.655547
-1.658256
-1.661161
-1.664293
-1.667681
-1.671363
-1.675406
-1.679888
-1.684917
-1.690864
-1.697726
-1.705869
-1.715819
-1.728311
-1.650504
-1.652894
-1.655434
-1.658144
-1.661051
-1.664176
-1.667548
-1.671219
-1.675249
-1.679715
-1.684914
-1.690795
-1.697602
-1.705664
-1.715487
-1.739782
-1.728084
-1.742719
-1.717651
-1.730525
-1.746612
-1.70917
-1.719627
-1.733192
-1.750934
-1.701776
-1.71041
-1.721185
-1.73529
-1.754345
-1.695193
-1.702475
-1.711263
-1.722259
-1.736734
-1.756609
-1.6893
-1.695558
-1.702919
-1.711814
-1.722964
-1.737646
-1.757973
-1.683989
-1.689453
-1.695753
-1.703169
-1.71214
-1.723368
-1.738145
-1.75878
-1.67916
-1.683994
-1.689478
-1.695805
-1.703257
-1.712252
-1.723496
-1.738342
-1.759164
-1.674722
-1.679044
-1.683883
-1.689375
-1.695712
-1.703158
-1.71213
-1.723371
-1.738233
-1.759108
-1.670592
-1.67449
-1.678806
-1.683639
-1.689123
-1.695433
-1.702829
-1.711756
-1.722943
-1.737734
-1.759891
-1.666694
-1.670234
-1.674116
-1.678413
-1.683223
-1.688663
-1.694903
-1.702225
-1.711053
-1.722105
-1.73743
-1.759771
-1.662969
-1.6662
-1.669714
-1.673567
-1.677828
-1.682578
-1.687933
-1.694077
-1.701273
-1.709929
-1.721222
-1.736346
-1.758428
-1.659419
-1.662382
-1.665582
-1.669059
-1.672868
-1.677063
-1.681723
-1.686974
-1.692986
-1.700004
-1.708761
-1.719669
-1.73403
-1.753442
-1.65617
-1.658909
-1.661848
-1.66502
-1.668464
-1.672222
-1.676347
-1.680931
-1.686086
-1.691974
-1.699098
-1.70758
-1.718075
-1.731588
-1.748577
-1.653245
-1.655798
-1.658522
-1.661445
-1.664598
-1.66801
-1.671721
-1.675799
-1.680323
-1.685405
-1.691422
-1.698377
-1.706652
-1.71681
-1.729685
-1.650615
-1.653011
-1.655558
-1.658277
-1.661193
-1.664328
-1.667712
-1.671398
-1.675444
-1.679932
-1.685158
-1.691072
-1.697924
-1.70605
-1.715973
-1.648241
-1.650505
-1.652903
-1.655453
-1.658174
-1.661084
-1.664205
-1.66758
-1.671254
-1.675287
-1.679924
-1.68509
-1.690958
-1.697746
-1.705781
-1.737891
-1.726226
-1.739849
-1.715842
-1.728131
-1.742859
-1.707593
-1.717685
-1.730624
-1.746844
-1.700744
-1.709192
-1.719698
-1.73335
-1.751287
-1.694597
-1.701791
-1.710462
-1.721295
-1.735509
-1.754737
-1.688984
-1.695203
-1.702514
-1.711344
-1.722409
-1.73696
-1.756967
-1.683857
-1.689307
-1.695589
-1.702982
-1.711925
-1.723116
-1.73784
-1.758348
-1.67916
-1.683994
-1.689478
-1.695805
-1.703257
-1.712252
-1.723496
-1.738342
-1.759164
-1.674832
-1.679164
-1.684015
-1.689521
-1.695876
-1.703345
-1.712345
-1.723624
-1.73854
-1.759552
-1.67081
-1.674725
-1.679062
-1.68392
-1.689436
-1.695785
-1.703232
-1.712224
-1.7235
-1.738431
-1.760992
-1.66703
-1.670594
-1.674506
-1.678839
-1.683692
-1.689186
-1.695494
-1.702904
-1.711851
-1.723072
-1.738695
-1.761853
-1.663433
-1.666696
-1.670249
-1.674146
-1.678461
-1.683278
-1.688716
-1.694966
-1.702301
-1.71115
-1.72274
-1.738407
-1.762083
-1.659972
-1.662972
-1.666214
-1.669742
-1.67361
-1.677877
-1.682625
-1.687987
-1.694141
-1.70135
-1.7104
-1.721861
-1.737483
-1.761281
-1.656652
-1.659421
-1.662395
-1.665606
-1.669098
-1.672911
-1.677103
-1.681768
-1.687027
-1.693046
-1.700358
-1.709134
-1.720137
-1.734657
-1.754422
-1.653599
-1.656172
-1.65892
-1.66187
-1.665054
-1.668503
-1.672258
-1.676387
-1.680975
-1.686137
-1.692259
-1.699359
-1.70785
-1.718351
-1.731862
-1.650839
-1.653247
-1.655808
-1.658543
-1.661477
-1.664633
-1.668042
-1.671756
-1.675838
-1.680367
-1.685647
-1.691631
-1.698576
-1.706836
-1.716967
-1.648346
-1.650616
-1.653021
-1.655577
-1.658306
-1.661225
-1.664357
-1.667744
-1.671432
-1.675483
-1.680142
-1.685333
-1.691234
-1.698068
-1.706166
-1.646089
-1.648242
-1.650514
-1.652921
-1.655479
-1.658203
-1.66111
-1.664234
-1.667611
-1.671288
-1.675473
-1.680074
-1.685225
-1.691075
-1.697838
-1.736958
-1.72499
-1.737953
-1.714437
-1.726272
-1.739976
-1.706126
-1.715875
-1.728224
-1.743063
-1.699416
-1.707616
-1.717754
-1.73077
-1.747148
-1.693703
-1.70076
-1.709245
-1.719807
-1.73356
-1.751641
-1.688457
-1.694608
-1.701831
-1.710544
-1.721444
-1.735729
-1.755073
-1.683574
-1.688992
-1.695235
-1.702578
-1.711456
-1.72256
-1.737151
-1.757329
-1.67904
-1.683862
-1.689332
-1.69564
-1.70307
-1.712037
-1.723243
-1.738036
-1.758726
-1.674832
-1.679164
-1.684015
-1.689521
-1.695876
-1.703345
-1.712345
-1.723624
-1.73854
-1.759552
-1.670911
-1.674835
-1.679182
-1.684052
-1.689582
-1.695949
-1.703418
-1.712439
-1.723753
-1.738739
-1.761464
-1.667232
-1.670812
-1.674741
-1.679095
-1.683973
-1.689498
-1.695846
-1.703306
-1.712319
-1.72363
-1.739402
-1.762963
-1.663747
-1.667031
-1.670609
-1.674536
-1.678886
-1.683747
-1.689238
-1.695555
-1.702979
-1.711947
-1.723707
-1.739651
-1.764089
-1.660407
-1.663435
-1.66671
-1.670276
-1.674189
-1.67851
-1.683324
-1.688769
-1.695029
-1.702378
-1.711624
-1.723381
-1.739539
-1.764838
-1.657173
-1.659973
-1.662984
-1.666239
-1.669781
-1.673654
-1.677918
-1.682672
-1.688041
-1.694205
-1.701727
-1.710877
-1.722622
-1.738892
-1.76519
-1.654054
-1.656654
-1.659432
-1.662417
-1.665641
-1.669137
-1.672947
-1.677143
-1.681814
-1.687079
-1.693342
-1.700653
-1.709482
-1.720551
-1.735138
-1.651173
-1.653601
-1.656183
-1.658941
-1.661902
-1.66509
-1.668535
-1.672293
-1.676426
-1.681019
-1.686382
-1.692474
-1.699572
-1.708054
-1.718529
-1.648559
-1.65084
-1.653257
-1.655827
-1.658572
-1.661509
-1.664662
-1.668074
-1.671791
-1.675876
-1.680578
-1.685822
-1.691793
-1.698721
-1.706951
-1.64619
-1.648347
-1.650625
-1.653038
-1.655604
-1.658336
-1.661252
-1.664386
-1.667775
-1.671467
-1.675669
-1.680291
-1.685468
-1.69135
-1.698157
-1.644037
-1.64609
-1.64825
-1.65053
-1.652946
-1.655507
-1.658228
-1.661136
-1.664262
-1.667642
-1.671454
-1.675602
-1.680189
-1.685322
-1.691147
-1.724378
-1.73702
-1.713502
-1.725034
-1.738074
-1.704988
-1.71447
-1.72636
-1.740163
-1.698183
-1.70615
-1.715942
-1.728361
-1.743331
-1.692557
-1.699434
-1.707668
-1.717857
-1.730964
-1.747452
-1.68767
-1.693716
-1.700802
-1.709327
-1.719952
-1.73377
-1.751944
-1.683101
-1.688466
-1.69464
-1.701896
-1.710656
-1.721594
-1.735915
-1.755413
-1.678783
-1.683579
-1.689018
-1.695287
-1.702666
-1.711568
-1.722686
-1.737344
-1.757695
-1.674722
-1.679044
-1.683883
-1.689375
-1.695712
-1.703158
-1.71213
-1.723371
-1.738233
-1.759108
-1.670911
-1.674835
-1.679182
-1.684052
-1.689582
-1.695949
-1.703418
-1.712439
-1.723753
-1.738739
-1.761464
-1.667327
-1.670913
-1.674851
-1.679214
-1.684104
-1.689644
-1.696009
-1.703491
-1.712533
-1.723882
-1.739716
-1.76344
-1.663936
-1.667233
-1.670826
-1.67477
-1.679142
-1.684027
-1.689549
-1.695906
-1.70338
-1.712414
-1.724264
-1.740342
-1.765144
-1.660701
-1.663748
-1.667044
-1.670635
-1.674578
-1.678934
-1.683792
-1.68929
-1.695617
-1.703054
-1.712416
-1.724319
-1.74071
-1.766623
-1.657583
-1.660408
-1.663447
-1.666734
-1.670314
-1.674232
-1.678551
-1.68337
-1.688823
-1.695092
-1.702754
-1.712095
-1.724122
-1.740841
-1.768107
-1.654546
-1.657174
-1.659985
-1.663007
-1.666274
-1.669821
-1.673691
-1.677959
-1.682719
-1.688096
-1.694518
-1.702104
-1.711444
-1.723561
-1.740745
-1.772335
-1.651605
-1.654055
-1.656664
-1.659453
-1.662449
-1.665677
-1.669169
-1.672983
-1.677183
-1.681859
-1.687331
-1.693583
-1.700926
-1.709784
-1.720851
-1.648877
-1.651175
-1.65361
-1.656201
-1.65897
-1.661935
-1.665119
-1.668567
-1.672328
-1.676465
-1.681233
-1.686561
-1.692647
-1.69973
-1.70818
-1.646392
-1.64856
-1.650849
-1.653274
-1.655854
-1.658602
-1.661536
-1.664691
-1.668105
-1.671826
-1.676063
-1.680727
-1.685957
-1.691909
-1.698808
-1.644133
-1.64619
-1.648356
-1.650642
-1.653063
-1.655632
-1.65836
-1.661278
-1.664414
-1.667806
-1.671633
-1.675798
-1.680405
-1.685563
-1.69142
-1.642076
-1.644038
-1.646097
-1.648265
-1.650554
-1.652972
-1.65553
-1.658252
-1.661163
-1.664291
-1.667792
-1.671567
-1.6757
-1.680268
-1.685378
-1.713038
-1.724421
-1.737137
-1.704229
-1.713534
-1.725121
-1.738251
-1.697224
-1.705012
-1.714535
-1.726492
-1.740409
-1.691493
-1.698201
-1.706202
-1.716042
-1.728542
-1.7436
-1.686662
-1.692571
-1.699475
-1.707748
-1.717996
-1.731158
-1.747711
-1.682398
-1.687679
-1.693749
-1.700867
-1.709438
-1.720099
-1.733948
-1.752251
-1.678355
-1.683108
-1.688492
-1.694693
-1.701984
-1.710768
-1.72172
-1.736104
-1.755758
-1.674487
-1.678787
-1.683601
-1.689062
-1.695359
-1.702755
-1.711662
-1.722814
-1.737538
-1.758064
-1.67081
-1.674725
-1.679062
-1.68392
-1.689436
-1.695785
-1.703232
-1.712224
-1.7235
-1.738431
-1.760992
-1.667327
-1.670913
-1.674851
-1.679214
-1.684104
-1.689644
-1.696009
-1.703491
-1.712533
-1.723882
-1.739716
-1.76344
-1.664025
-1.667328
-1.670927
-1.674879
-1.679261
-1.684158
-1.689694
-1.696069
-1.703565
-1.712628
-1.724516
-1.740649
-1.765599
-1.660879
-1.663937
-1.667246
-1.670852
-1.674812
-1.679189
-1.684071
-1.689601
-1.695967
-1.703454
-1.712878
-1.724855
-1.741355
-1.76755
-1.65786
-1.660702
-1.66376
-1.667068
-1.670673
-1.674621
-1.678974
-1.683837
-1.689342
-1.69568
-1.703424
-1.712858
-1.725
-1.741872
-1.769467
-1.654934
-1.657583
-1.660419
-1.663469
-1.666769
-1.670354
-1.674269
-1.678591
-1.683417
-1.688877
-1.695404
-1.703123
-1.712641
-1.724975
-1.742326
-1.772775
-1.652071
-1.654547
-1.657184
-1.660006
-1.663039
-1.666311
-1.669854
-1.673727
-1.678001
-1.682766
-1.688363
-1.694827
-1.702553
-1.712145
-1.724789
-1.743943
-1.77664
-1.649286
-1.651606
-1.654065
-1.656683
-1.659482
-1.662482
-1.665707
-1.669202
-1.673019
-1.677223
-1.682078
-1.687533
-1.693804
-1.701159
-1.709993
-1.646695
-1.648878
-1.651183
-1.653628
-1.656229
-1.659
-1.661961
-1.665148
-1.668599
-1.672363
-1.676653
-1.681385
-1.686704
-1.692772
-1.699822
-1.644326
-1.646392
-1.648568
-1.650865
-1.6533
-1.655882
-1.658626
-1.661562
-1.66472
-1.668136
-1.671992
-1.676191
-1.680841
-1.686051
-1.691976
-1.642168
-1.644134
-1.646198
-1.648371
-1.650665
-1.653089
-1.655654
-1.658385
-1.661304
-1.664443
-1.667956
-1.671745
-1.675894
-1.680483
-1.685617
-1.640197
-1.642077
-1.644045
-1.646112
-1.648287
-1.650578
-1.652993
-1.655552
-1.658276
-1.661188
-1.664427
-1.667891
-1.671651
-1.675766
-1.680313
-1.703852
-1.71307
-1.724506
-1.73731
-1.696585
-1.704253
-1.713598
-1.725248
-1.738484
-1.690666
-1.697243
-1.705062
-1.714632
-1.726664
-1.740656
-1.685726
-1.691507
-1.698242
-1.706279
-1.716174
-1.728725
-1.743827
-1.681498
-1.686673
-1.692605
-1.699539
-1.707854
-1.718135
-1.731322
-1.747971
-1.677718
-1.682405
-1.687707
-1.693803
-1.700955
-1.709549
-1.720222
-1.734128
-1.752563
-1.674095
-1.67836
-1.68313
-1.688537
-1.694767
-1.702074
-1.710862
-1.721847
-1.736294
-1.756108
-1.670592
-1.67449
-1.678806
-1.683639
-1.689123
-1.695433
-1.702829
-1.711756
-1.722943
-1.737734
-1.759891
-1.667232
-1.670812
-1.674741
-1.679095
-1.683973
-1.689498
-1.695846
-1.703306
-1.712319
-1.72363
-1.739402
-1.762963
-1.664025
-1.667328
-1.670927
-1.674879
-1.679261
-1.684158
-1.689694
-1.696069
-1.703565
-1.712628
-1.724516
-1.740649
-1.765599
-1.660963
-1.664025
-1.66734
-1.670953
-1.674921
-1.679308
-1.684202
-1.689746
-1.69613
-1.70364
-1.713091
-1.725099
-1.741642
-1.767953
-1.658028
-1.66088
-1.663948
-1.667269
-1.670889
-1.674854
-1.679228
-1.684116
-1.689652
-1.696029
-1.703819
-1.7133
-1.725497
-1.742438
-1.770193
-1.655197
-1.657861
-1.660713
-1.663781
-1.667103
-1.670712
-1.674656
-1.679014
-1.683882
-1.689395
-1.695984
-1.703767
-1.713353
-1.725748
-1.743129
-1.773351
-1.652439
-1.654934
-1.657593
-1.660439
-1.663501
-1.666805
-1.670386
-1.674305
-1.678632
-1.683464
-1.689141
-1.695704
-1.703553
-1.713271
-1.725943
-1.744345
-1.776455
-1.64973
-1.652072
-1.654556
-1.657203
-1.660036
-1.663073
-1.666341
-1.669887
-1.673765
-1.678043
-1.682998
-1.688623
-1.695198
-1.70311
-1.713062
-1.726866
-1.745893
-1.779989
-1.647085
-1.649287
-1.651614
-1.654083
-1.656711
-1.659513
-1.662509
-1.665736
-1.669234
-1.673054
-1.677417
-1.68225
-1.687717
-1.693991
-1.701314
-1.644616
-1.646695
-1.648886
-1.6512
-1.653653
-1.656257
-1.659025
-1.661988
-1.665177
-1.66863
-1.672531
-1.676784
-1.681504
-1.686805
-1.692841
-1.642353
-1.644327
-1.6464
-1.648583
-1.650889
-1.653325
-1.655905
-1.658651
-1.661588
-1.664748
-1.668286
-1.672104
-1.676287
-1.680917
-1.686103
-1.640285
-1.642169
-1.644141
-1.646212
-1.648393
-1.650689
-1.65311
-1.655677
-1.658409
-1.66133
-1.664579
-1.668055
-1.671828
-1.675959
-1.680525
-1.638392
-1.640198
-1.642084
-1.644059
-1.646133
-1.64831
-1.650598
-1.653014
-1.655575
-1.6583
-1.661313
-1.664514
-1.667963
-1.671706
-1.6758
-1.696268
-1.703876
-1.713133
-1.724632
-1.737537
-1.690114
-1.696604
-1.704303
-1.713693
-1.725415
-1.738718
-1.684998
-1.690681
-1.697283
-1.705138
-1.71476
-1.726838
-1.740864
-1.680662
-1.685737
-1.691541
-1.698305
-1.706382
-1.716307
-1.728878
-1.744054
-1.676905
-1.681506
-1.686701
-1.692658
-1.699625
-1.707962
-1.718252
-1.731487
-1.748233
-1.673513
-1.677724
-1.682429
-1.687753
-1.693877
-1.701045
-1.709643
-1.720347
-1.73431
-1.752879
-1.670231
-1.674099
-1.67838
-1.683169
-1.6886
-1.694841
-1.702149
-1.710957
-1.721975
-1.736486
-1.757837
-1.66703
-1.670594
-1.674506
-1.678839
-1.683692
-1.689186
-1.695494
-1.702904
-1.711851
-1.723072
-1.738695
-1.761853
-1.663936
-1.667233
-1.670826
-1.67477
-1.679142
-1.684027
-1.689549
-1.695906
-1.70338
-1.712414
-1.724264
-1.740342
-1.765144
-1.660963
-1.664025
-1.66734
-1.670953
-1.674921
-1.679308
-1.684202
-1.689746
-1.69613
-1.70364
-1.713091
-1.725099
-1.741642
-1.767953
-1.658107
-1.660963
-1.664037
-1.667364
-1.67099
-1.674963
-1.679347
-1.684246
-1.689797
-1.696191
-1.704002
-1.713504
-1.725723
-1.742694
-1.770517
-1.655356
-1.658029
-1.66089
-1.66397
-1.667304
-1.670928
-1.674889
-1.679267
-1.684161
-1.689704
-1.696328
-1.704144
-1.713762
-1.726186
-1.743587
-1.773766
-1.652689
-1.655197
-1.65787
-1.660733
-1.663813
-1.667138
-1.670744
-1.674692
-1.679054
-1.683928
-1.689653
-1.696262
-1.704153
-1.713899
-1.726556
-1.74477
-1.776593
-1.65008
-1.652439
-1.654943
-1.657612
-1.660469
-1.663535
-1.666835
-1.670419
-1.674342
-1.678674
-1.683694
-1.689394
-1.696057
-1.70405
-1.713986
-1.727231
-1.746014
-1.77962
-1.647508
-1.64973
-1.65208
-1.654574
-1.657231
-1.660067
-1.6631
-1.666371
-1.669921
-1.673802
-1.678248
-1.683222
-1.688937
-1.695658
-1.703839
-1.714595
-1.728112
-1.747468
-1.782695
-1.644989
-1.647086
-1.649295
-1.651631
-1.654108
-1.656739
-1.659538
-1.662536
-1.665765
-1.669266
-1.673227
-1.677564
-1.682405
-1.687869
-1.694108
-1.642629
-1.644616
-1.646703
-1.648901
-1.651223
-1.653679
-1.656279
-1.659049
-1.662014
-1.665205
-1.668781
-1.672644
-1.676885
-1.681586
-1.686856
-1.640462
-1.642353
-1.644334
-1.646414
-1.648605
-1.650913
-1.653347
-1.655927
-1.658675
-1.661614
-1.664884
-1.668384
-1.672186
-1.67635
-1.680956
-1.638477
-1.640285
-1.642175
-1.644155
-1.646233
-1.648416
-1.650709
-1.653131
-1.655699
-1.658433
-1.661454
-1.664666
-1.668126
-1.671882
-1.675991
-1.636656
-1.638393
-1.640204
-1.642096
-1.644078
-1.646154
-1.648329
-1.650617
-1.653035
-1.655597
-1.658415
-1.661391
-1.664577
-1.668009
-1.671732
-1.68984
-1.696287
-1.703926
-1.713227
-1.724797
-1.737765
-1.684513
-1.690129
-1.696644
-1.704378
-1.713818
-1.725584
-1.738915
-1.680013
-1.68501
-1.690714
-1.697345
-1.705239
-1.714889
-1.726984
-1.741071
-1.676151
-1.680671
-1.685766
-1.691593
-1.698389
-1.706487
-1.716419
-1.72903
-1.744282
-1.672771
-1.676912
-1.68153
-1.686746
-1.69273
-1.699712
-1.708052
-1.718369
-1.731651
-1.748496
-1.669695
-1.673518
-1.677745
-1.682468
-1.687816
-1.693951
-1.70112
-1.709737
-1.720473
-1.734494
-1.75444
-1.666694
-1.670234
-1.674116
-1.678413
-1.683223
-1.688663
-1.694903
-1.702225
-1.711053
-1.722105
-1.73743
-1.759771
-1.663747
-1.667031
-1.670609
-1.674536
-1.678886
-1.683747
-1.689238
-1.695555
-1.702979
-1.711947
-1.723707
-1.739651
-1.764089
-1.660879
-1.663937
-1.667246
-1.670852
-1.674812
-1.679189
-1.684071
-1.689601
-1.695967
-1.703454
-1.712878
-1.724855
-1.741355
-1.76755
-1.658107
-1.660963
-1.664037
-1.667364
-1.67099
-1.674963
-1.679347
-1.684246
-1.689797
-1.696191
-1.704002
-1.713504
-1.725723
-1.742694
-1.770517
-1.655431
-1.658107
-1.660973
-1.664058
-1.667398
-1.671028
-1.674998
-1.679386
-1.684291
-1.689848
-1.696487
-1.704318
-1.713951
-1.726388
-1.7438
-1.773974
-1.65284
-1.655356
-1.658038
-1.66091
-1.664001
-1.667339
-1.670959
-1.674924
-1.679307
-1.684206
-1.689957
-1.69659
-1.704501
-1.71426
-1.726917
-1.745075
-1.776774
-1.650318
-1.652689
-1.655206
-1.657889
-1.660762
-1.663846
-1.667167
-1.670776
-1.674728
-1.679095
-1.684152
-1.689886
-1.696577
-1.704581
-1.71449
-1.727586
-1.746241
-1.779536
-1.647842
-1.65008
-1.652448
-1.654961
-1.65764
-1.6605
-1.663562
-1.666865
-1.670452
-1.674379
-1.678876
-1.683911
-1.689692
-1.696466
-1.704616
-1.714923
-1.728273
-1.747507
-1.782287
-1.645393
-1.647508
-1.649738
-1.652097
-1.6546
-1.65726
-1.660092
-1.663128
-1.666402
-1.669955
-1.673985
-1.678443
-1.683493
-1.689327
-1.696262
-1.705049
-1.715504
-1.729117
-1.748782
-1.784893
-1.642986
-1.644989
-1.647093
-1.64931
-1.651655
-1.654134
-1.656762
-1.659562
-1.662563
-1.665794
-1.669421
-1.673355
-1.677697
-1.682532
-1.68796
-1.640727
-1.64263
-1.644623
-1.646717
-1.648923
-1.651248
-1.6537
-1.656302
-1.659073
-1.66204
-1.665342
-1.66888
-1.67273
-1.676952
-1.681625
-1.638647
-1.640462
-1.64236
-1.644347
-1.646435
-1.648628
-1.650933
-1.653368
-1.655949
-1.658699
-1.661739
-1.66497
-1.668454
-1.672238
-1.676379
-1.636737
-1.638477
-1.640292
-1.642188
-1.644174
-1.646255
-1.648434
-1.650729
-1.653152
-1.655721
-1.658547
-1.661532
-1.664728
-1.668171
-1.671906
-1.634982
-1.636656
-1.638399
-1.640216
-1.642115
-1.644099
-1.646172
-1.648347
-1.650637
-1.653055
-1.655703
-1.658484
-1.661446
-1.664616
-1.668029
-1.684271
-1.689855
-1.696327
-1.704
-1.713352
-1.724963
-1.737957
-1.679579
-1.684525
-1.690162
-1.696705
-1.704477
-1.713945
-1.725726
-1.739111
-1.675564
-1.680022
-1.685038
-1.690766
-1.697428
-1.705341
-1.714998
-1.72713
-1.741278
-1.672083
-1.676158
-1.680696
-1.68581
-1.691664
-1.698474
-1.706574
-1.716531
-1.729183
-1.744508
-1.669012
-1.672777
-1.676933
-1.681569
-1.686807
-1.692803
-1.699785
-1.708142
-1.718486
-1.731816
-1.749783
-1.666197
-1.669699
-1.673536
-1.677779
-1.682523
-1.68788
-1.694014
-1.701196
-1.709833
-1.7206
-1.735396
-1.756216
-1.663433
-1.666696
-1.670249
-1.674146
-1.678461
-1.683278
-1.688716
-1.694966
-1.702301
-1.71115
-1.72274
-1.738407
-1.762083
-1.660701
-1.663748
-1.667044
-1.670635
-1.674578
-1.678934
-1.683792
-1.68929
-1.695617
-1.703054
-1.712416
-1.724319
-1.74071
-1.766623
-1.658028
-1.66088
-1.663948
-1.667269
-1.670889
-1.674854
-1.679228
-1.684116
-1.689652
-1.696029
-1.703819
-1.7133
-1.725497
-1.742438
-1.770193
-1.655431
-1.658107
-1.660973
-1.664058
-1.667398
-1.671028
-1.674998
-1.679386
-1.684291
-1.689848
-1.696487
-1.704318
-1.713951
-1.726388
-1.7438
-1.773974
-1.652912
-1.655431
-1.658116
-1.660993
-1.664089
-1.667433
-1.67106
-1.675032
-1.679425
-1.684335
-1.690099
-1.696743
-1.704663
-1.714429
-1.727088
-1.74523
-1.776884
-1.650463
-1.65284
-1.655365
-1.658056
-1.660939
-1.664033
-1.667367
-1.670991
-1.674959
-1.679347
-1.684425
-1.690177
-1.69688
-1.704889
-1.714791
-1.727838
-1.746439
-1.779563
-1.64807
-1.650318
-1.652697
-1.655223
-1.657916
-1.660792
-1.663872
-1.667197
-1.670809
-1.674764
-1.679291
-1.684351
-1.690151
-1.696927
-1.705045
-1.715228
-1.728486
-1.747639
-1.782109
-1.645713
-1.647842
-1.650088
-1.652464
-1.654987
-1.657668
-1.660525
-1.663589
-1.666895
-1.670486
-1.674559
-1.679066
-1.684168
-1.690039
-1.696933
-1.705346
-1.715667
-1.729209
-1.748804
-1.784499
-1.643373
-1.645393
-1.647516
-1.649754
-1.652121
-1.654627
-1.657284
-1.660118
-1.663156
-1.666433
-1.670119
-1.674157
-1.678679
-1.683831
-1.689842
-1.697256
-1.705761
-1.716237
-1.729951
-1.749873
-1.786653
-1.641069
-1.642986
-1.644996
-1.647107
-1.649333
-1.651679
-1.654156
-1.656784
-1.659587
-1.662589
-1.665935
-1.669534
-1.67347
-1.677803
-1.682603
-1.638901
-1.640727
-1.642636
-1.644637
-1.646738
-1.648946
-1.651268
-1.653721
-1.656324