/*--------------------------------*- C++ -*----------------------------------*\
| =========                 |                                                 |
| \\      /  F ield         | OpenFOAM: The Open Source CFD Toolbox           |
|  \\    /   O peration     | Version:  2306                                  |
|   \\  /    A nd           | Website:  www.openfoam.com                      |
|    \\/     M anipulation  |                                                 |
\*---------------------------------------------------------------------------*/
FoamFile
{
    version     2.0;
    format      ascii;
    arch        "LSB;label=32;scalar=64";
    class       volScalarField;
    location    "0.6/fuel";
    object      T;
}
// * * * * * * * * * * * * * * * * * * * * * * * * * * * * * * * * * * * * * //

dimensions      [0 0 0 1 0 0 0];

internalField   nonuniform List<scalar> 
16000
(
1120.71
1120.579
1122.261
1120.719
1120.278
1122.25
1120.589
1123.694
1122.266
1120.733
1119.718
1122.224
1120.288
1123.717
1122.255
1120.603
1125.042
1123.696
1122.276
1120.752
1118.782
1122.168
1119.731
1123.767
1122.228
1120.303
1125.075
1123.718
1122.264
1120.622
1126.341
1125.04
1123.701
1122.29
1120.775
1117.416
1122.063
1118.8
1123.852
1122.171
1119.749
1125.148
1123.767
1122.237
1120.324
1126.377
1125.073
1123.724
1122.278
1120.646
1127.605
1126.337
1125.042
1123.711
1122.308
1120.804
1115.871
1121.879
1117.444
1123.976
1122.064
1118.824
1125.276
1123.85
1122.179
1119.773
1126.456
1125.145
1123.772
1122.25
1120.35
1127.64
1126.372
1125.075
1123.733
1122.297
1120.676
1128.833
1127.598
1126.336
1125.049
1123.725
1122.331
1120.834
1114.46
1121.609
1115.913
1124.125
1121.876
1117.477
1125.473
1123.971
1122.069
1118.853
1126.595
1125.271
1123.853
1122.191
1119.802
1127.719
1126.451
1125.146
1123.781
1122.268
1120.381
1128.867
1127.633
1126.371
1125.081
1123.747
1122.32
1120.706
1130.026
1128.825
1127.595
1126.34
1125.059
1123.744
1122.355
1120.863
1113.411
1121.307
1114.515
1124.233
1121.605
1115.959
1125.729
1124.114
1121.878
1117.515
1126.813
1125.464
1123.97
1122.079
1118.888
1127.858
1126.588
1125.27
1123.86
1122.208
1119.836
1128.943
1127.711
1126.449
1125.151
1123.794
1122.29
1120.413
1130.058
1128.858
1127.63
1126.374
1125.091
1123.765
1122.343
1120.737
1131.181
1130.016
1128.82
1127.596
1126.347
1125.074
1123.763
1122.379
1120.893
1112.857
1121.051
1113.476
1124.286
1121.305
1114.575
1125.965
1124.218
1121.606
1116.01
1127.101
1125.715
1124.107
1121.885
1117.558
1128.076
1126.802
1125.46
1123.973
1122.094
1118.929
1129.078
1127.848
1126.584
1125.273
1123.871
1122.23
1119.872
1130.131
1128.934
1127.707
1126.451
1125.16
1123.811
1122.314
1120.445
1131.212
1130.048
1128.853
1127.63
1126.381
1125.105
1123.784
1122.367
1120.767
1132.298
1131.17
1130.009
1128.818
1127.6
1126.358
1125.089
1123.783
1122.403
1120.923
1112.857
1120.905
1112.928
1124.299
1121.052
1113.546
1126.141
1124.269
1121.308
1114.638
1127.377
1125.946
1124.208
1121.612
1116.066
1128.367
1127.084
1125.704
1124.105
1121.896
1117.607
1129.289
1128.063
1126.795
1125.459
1123.981
1122.114
1118.97
1130.26
1129.067
1127.843
1126.585
1125.28
1123.886
1122.252
1119.908
1131.282
1130.12
1128.928
1127.707
1126.457
1125.174
1123.829
1122.337
1120.478
1132.328
1131.201
1130.041
1128.852
1127.634
1126.392
1125.119
1123.803
1122.391
1120.798
1133.376
1132.286
1131.162
1130.006
1128.821
1127.609
1126.37
1125.104
1123.802
1122.427
1121.071
1113.411
1120.905
1112.928
1124.298
1120.908
1113.002
1126.25
1124.282
1121.057
1113.619
1127.594
1126.119
1124.257
1121.315
1114.706
1128.651
1127.356
1125.931
1124.202
1121.622
1116.127
1129.573
1128.349
1127.072
1125.698
1124.107
1121.912
1117.657
1130.463
1129.276
1128.055
1126.792
1125.463
1123.993
1122.134
1119.013
1131.405
1130.248
1129.06
1127.841
1126.589
1125.292
1123.902
1122.275
1119.945
1132.394
1131.27
1130.113
1128.926
1127.71
1126.467
1125.187
1123.847
1122.361
1120.511
1133.404
1132.316
1131.193
1130.038
1128.853
1127.642
1126.403
1125.134
1123.822
1122.415
1120.951
1134.413
1133.363
1132.278
1131.158
1130.007
1128.826
1127.617
1126.381
1125.119
1123.821
1122.546
1121.353
1114.46
1121.051
1113.476
1124.298
1120.908
1113.002
1126.302
1124.281
1120.915
1113.081
1127.737
1126.227
1124.27
1121.067
1113.697
1128.878
1127.57
1126.101
1124.249
1121.327
1114.78
1129.851
1128.629
1127.339
1125.92
1124.2
1121.638
1116.188
1130.736
1129.555
1128.336
1127.063
1125.696
1124.114
1121.929
1117.707
1131.599
1130.448
1129.266
1128.049
1126.792
1125.47
1124.006
1122.154
1119.056
1132.512
1131.392
1130.239
1129.056
1127.842
1126.597
1125.303
1123.918
1122.297
1119.982
1133.468
1132.382
1131.261
1130.109
1128.927
1127.717
1126.477
1125.201
1123.865
1122.384
1120.674
1134.441
1133.391
1132.307
1131.188
1130.038
1128.859
1127.65
1126.414
1125.149
1123.841
1122.533
1121.246
1135.411
1134.4
1133.354
1132.272
1131.157
1130.011
1128.832
1127.626
1126.393
1125.134
1123.917
1122.763
1121.65
1115.871
1121.307
1114.515
1124.299
1121.052
1113.546
1126.302
1124.281
1120.915
1113.081
1127.808
1126.279
1124.269
1120.926
1113.164
1129.031
1127.712
1126.209
1124.262
1121.081
1113.78
1130.076
1128.854
1127.551
1126.088
1124.246
1121.344
1114.853
1131.004
1129.83
1128.612
1127.327
1125.914
1124.203
1121.654
1116.249
1131.861
1130.717
1129.54
1128.326
1127.059
1125.698
1124.121
1121.946
1117.757
1132.699
1131.584
1130.437
1129.259
1128.048
1126.797
1125.478
1124.018
1122.175
1119.1
1133.581
1132.499
1131.382
1130.234
1129.055
1127.848
1126.605
1125.315
1123.934
1122.32
1120.166
1134.502
1133.455
1132.372
1131.256
1130.108
1128.931
1127.724
1126.487
1125.214
1123.883
1122.501
1121.001
1135.437
1134.428
1133.382
1132.301
1131.187
1130.042
1128.865
1127.658
1126.425
1125.163
1123.935
1122.75
1121.561
1136.368
1135.398
1134.39
1133.347
1132.27
1131.159
1130.014
1128.839
1127.634
1126.404
1125.21
1124.087
1122.981
1121.958
1117.416
1121.609
1115.913
1124.286
1121.305
1114.575
1126.25
1124.282
1121.057
1113.619
1127.808
1126.279
1124.269
1120.926
1113.164
1129.107
1127.782
1126.26
1124.261
1120.942
1113.252
1130.228
1129.005
1127.692
1126.194
1124.259
1121.1
1113.862
1131.222
1130.052
1128.834
1127.536
1126.079
1124.248
1121.362
1114.926
1132.119
1130.983
1129.812
1128.598
1127.318
1125.912
1124.206
1121.669
1116.31
1132.949
1131.842
1130.702
1129.53
1128.32
1127.058
1125.7
1124.128
1121.963
1117.808
1133.76
1132.683
1131.572
1130.429
1129.256
1128.05
1126.802
1125.486
1124.031
1122.196
1119.313
1134.611
1133.567
1132.488
1131.376
1130.232
1129.058
1127.853
1126.613
1125.326
1123.95
1122.433
1120.547
1135.497
1134.489
1133.445
1132.366
1131.254
1130.111
1128.936
1127.731
1126.497
1125.228
1123.972
1122.717
1121.358
1136.394
1135.424
1134.417
1133.375
1132.298
1131.189
1130.045
1128.87
1127.667
1126.436
1125.237
1124.101
1122.969
1121.891
1137.286
1136.355
1135.387
1134.383
1133.344
1132.27
1131.161
1130.018
1128.845
1127.643
1126.463
1125.343
1124.255
1123.201
1122.274
1118.782
1121.879
1117.444
1124.233
1121.605
1115.959
1126.141
1124.269
1121.308
1114.638
1127.737
1126.227
1124.27
1121.067
1113.697
1129.107
1127.782
1126.26
1124.261
1120.942
1113.252
1130.304
1129.081
1127.761
1126.245
1124.258
1120.963
1113.339
1131.37
1130.203
1128.984
1127.675
1126.184
1124.26
1121.12
1113.944
1132.329
1131.198
1130.032
1128.818
1127.524
1126.074
1124.249
1121.379
1114.998
1133.198
1132.098
1130.965
1129.798
1128.588
1127.313
1125.91
1124.21
1121.685
1116.37
1134.001
1132.931
1131.827
1130.691
1129.523
1128.318
1127.058
1125.703
1124.135
1121.98
1118.051
1134.784
1133.744
1132.67
1131.564
1130.425
1129.256
1128.052
1126.806
1125.494
1124.043
1122.299
1119.758
1135.602
1134.597
1133.556
1132.481
1131.373
1130.233
1129.062
1127.859
1126.621
1125.338
1124.03
1122.647
1120.978
1136.451
1135.483
1134.478
1133.438
1132.363
1131.255
1130.114
1128.941
1127.739
1126.507
1125.296
1124.129
1122.938
1121.741
1137.311
1136.38
1135.413
1134.41
1133.372
1132.299
1131.191
1130.049
1128.876
1127.675
1126.493
1125.365
1124.265
1123.191
1122.232
1138.164
1137.272
1136.344
1135.379
1134.379
1133.344
1132.271
1131.164
1130.022
1128.851
1127.686
1126.564
1125.472
1124.421
1123.422
1119.718
1122.063
1118.8
1124.125
1121.876
1117.477
1125.965
1124.218
1121.606
1116.01
1127.594
1126.119
1124.257
1121.315
1114.706
1129.031
1127.712
1126.209
1124.262
1121.081
1113.78
1130.304
1129.081
1127.761
1126.245
1124.258
1120.963
1113.339
1131.444
1130.278
1129.059
1127.744
1126.234
1124.259
1120.984
1113.426
1132.472
1131.346
1130.182
1128.966
1127.662
1126.178
1124.261
1121.139
1114.025
1133.399
1132.305
1131.179
1130.015
1128.805
1127.517
1126.07
1124.25
1121.396
1115.069
1134.24
1133.176
1132.08
1130.951
1129.787
1128.582
1127.309
1125.908
1124.213
1121.701
1116.658
1135.016
1133.983
1132.915
1131.815
1130.683
1129.519
1128.315
1127.057
1125.705
1124.142
1122.066
1118.501
1135.769
1134.767
1133.731
1132.661
1131.558
1130.424
1129.257
1128.055
1126.811
1125.502
1124.105
1122.502
1120.274
1136.553
1135.587
1134.585
1133.548
1132.476
1131.372
1130.235
1129.065
1127.864
1126.629
1125.395
1124.171
1122.873
1121.457
1137.366
1136.437
1135.472
1134.47
1133.433
1132.363
1131.257
1130.117
1128.946
1127.746
1126.558
1125.413
1124.285
1123.166
1122.142
1138.188
1137.297
1136.369
1135.405
1134.406
1133.371
1132.3
1131.193
1130.053
1128.882
1127.716
1126.589
1125.489
1124.427
1123.415
1139.002
1138.15
1137.261
1136.336
1135.375
1134.378
1133.343
1132.272
1131.166
1130.026
1128.882
1127.761
1126.661
1125.598
1124.586
1120.278
1122.168
1119.731
1123.976
1122.064
1118.824
1125.729
1124.114
1121.878
1117.515
1127.377
1125.946
1124.208
1121.612
1116.066
1128.878
1127.57
1126.101
1124.249
1121.327
1114.78
1130.228
1129.005
1127.692
1126.194
1124.259
1121.1
1113.862
1131.444
1130.278
1129.059
1127.744
1126.234
1124.259
1120.984
1113.426
1132.543
1131.419
1130.257
1129.04
1127.73
1126.228
1124.26
1121.004
1113.511
1133.537
1132.447
1131.325
1130.164
1128.953
1127.653
1126.172
1124.262
1121.158
1114.105
1134.435
1133.377
1132.286
1131.162
1130.003
1128.797
1127.509
1126.065
1124.252
1121.413
1115.407
1135.247
1134.22
1133.159
1132.065
1130.94
1129.78
1128.576
1127.304
1125.906
1124.216
1121.78
1117.144
1135.993
1134.998
1133.967
1132.903
1131.807
1130.679
1129.516
1128.313
1127.057
1125.707
1124.178
1122.23
1118.961
1136.715
1135.752
1134.754
1133.721
1132.655
1131.556
1130.423
1129.257
1128.057
1126.815
1125.54
1124.218
1122.727
1120.882
1137.465
1136.538
1135.575
1134.576
1133.543
1132.475
1131.372
1130.236
1129.068
1127.869
1126.67
1125.492
1124.312
1123.112
1121.979
1138.242
1137.352
1136.426
1135.463
1134.465
1133.432
1132.363
1131.258
1130.12
1128.951
1127.782
1126.642
1125.524
1124.438
1123.398
1139.026
1138.174
1137.286
1136.361
1135.4
1134.404
1133.37
1132.3
1131.195
1130.056
1128.911
1127.786
1126.68
1125.609
1124.588
1139.802
1138.989
1138.139
1137.253
1136.331
1135.373
1134.377
1133.343
1132.273
1131.168
1130.047
1128.933
1127.831
1126.755
1125.722
1120.579
1122.224
1120.288
1123.852
1122.171
1119.749
1125.473
1123.971
1122.069
1118.853
1127.101
1125.715
1124.107
1121.885
1117.558
1128.651
1127.356
1125.931
1124.202
1121.622
1116.127
1130.076
1128.854
1127.551
1126.088
1124.246
1121.344
1114.853
1131.37
1130.203
1128.984
1127.675
1126.184
1124.26
1121.12
1113.944
1132.543
1131.419
1130.257
1129.04
1127.73
1126.228
1124.26
1121.004
1113.511
1133.606
1132.519
1131.398
1130.239
1129.026
1127.721
1126.221
1124.261
1121.025
1113.596
1134.568
1133.514
1132.427
1131.307
1130.15
1128.943
1127.645
1126.166
1124.263
1121.178
1114.483
1135.435
1134.413
1133.357
1132.27
1131.15
1129.994
1128.788
1127.502
1126.06
1124.254
1121.497
1115.951
1136.217
1135.227
1134.202
1133.144
1132.054
1130.933
1129.774
1128.57
1127.299
1125.904
1124.234
1121.925
1117.596
1136.933
1135.975
1134.982
1133.955
1132.894
1131.802
1130.674
1129.512
1128.311
1127.057
1125.72
1124.247
1122.401
1119.424
1137.622
1136.698
1135.739
1134.744
1133.715
1132.652
1131.554
1130.422
1129.257
1128.059
1126.838
1125.605
1124.333
1122.98
1121.629
1138.338
1137.45
1136.526
1135.566
1134.571
1133.54
1132.474
1131.372
1130.237
1129.071
1127.896
1126.733
1125.582
1124.452
1123.364
1139.079
1138.228
1137.34
1136.417
1135.458
1134.463
1133.431
1132.363
1131.259
1130.122
1128.975
1127.84
1126.721
1125.632
1124.591
1139.825
1139.012
1138.163
1137.277
1136.356
1135.398
1134.403
1133.37
1132.301
1131.197
1130.075
1128.958
1127.85
1126.767
1125.727
1140.564
1139.788
1138.977
1138.13
1137.247
1136.328
1135.371
1134.375
1133.343
1132.274
1131.18
1130.079
1128.981
1127.898
1126.847
1120.71
1122.25
1120.589
1123.767
1122.228
1120.303
1125.276
1123.85
1122.179
1119.773
1126.813
1125.464
1123.97
1122.079
1118.888
1128.367
1127.084
1125.704
1124.105
1121.896
1117.607
1129.851
1128.629
1127.339
1125.92
1124.2
1121.638
1116.188
1131.222
1130.052
1128.834
1127.536
1126.079
1124.248
1121.362
1114.926
1132.472
1131.346
1130.182
1128.966
1127.662
1126.178
1124.261
1121.139
1114.025
1133.606
1132.519
1131.398
1130.239
1129.026
1127.721
1126.221
1124.261
1121.025
1113.596
1134.635
1133.582
1132.498
1131.38
1130.224
1129.016
1127.712
1126.215
1124.263
1121.046
1113.996
1135.564
1134.545
1133.494
1132.41
1131.293
1130.14
1128.933
1127.636
1126.161
1124.264
1121.271
1115.079
1136.399
1135.413
1134.394
1133.342
1132.257
1131.14
1129.985
1128.78
1127.495
1126.056
1124.262
1121.644
1116.432
1137.149
1136.197
1135.209
1134.188
1133.133
1132.047
1130.925
1129.767
1128.564
1127.295
1125.895
1124.27
1122.071
1118.007
1137.834
1136.915
1135.96
1134.97
1133.946
1132.889
1131.796
1130.67
1129.508
1128.309
1127.055
1125.743
1124.316
1122.576
1119.874
1138.491
1137.606
1136.685
1135.728
1134.737
1133.711
1132.648
1131.551
1130.42
1129.257
1128.069
1126.87
1125.664
1124.454
1123.277
1139.172
1138.323
1137.438
1136.517
1135.56
1134.568
1133.538
1132.472
1131.372
1130.238
1129.086
1127.934
1126.79
1125.669
1124.594
1139.877
1139.064
1138.216
1137.332
1136.411
1135.455
1134.461
1133.43
1132.362
1131.26
1130.137
1129.011
1127.892
1126.794
1125.737
1140.586
1139.811
1139.001
1138.154
1137.271
1136.353
1135.396
1134.401
1133.369
1132.301
1131.206
1130.103
1129
1127.911
1126.852
1141.287
1140.55
1139.777
1138.969
1138.124
1137.244
1136.325
1135.368
1134.374
1133.342
1132.278
1131.196
1130.108
1129.026
1127.963
1122.261
1120.719
1123.717
1122.255
1120.603
1125.148
1123.767
1122.237
1120.324
1126.595
1125.271
1123.853
1122.191
1119.802
1128.076
1126.802
1125.46
1123.973
1122.094
1118.929
1129.573
1128.349
1127.072
1125.698
1124.107
1121.912
1117.657
1131.004
1129.83
1128.612
1127.327
1125.914
1124.203
1121.654
1116.249
1132.329
1131.198
1130.032
1128.818
1127.524
1126.074
1124.249
1121.379
1114.998
1133.537
1132.447
1131.325
1130.164
1128.953
1127.653
1126.172
1124.262
1121.158
1114.105
1134.635
1133.582
1132.498
1131.38
1130.224
1129.016
1127.712
1126.215
1124.263
1121.046
1113.996
1135.628
1134.612
1133.562
1132.48
1131.366
1130.213
1129.005
1127.702
1126.209
1124.264
1121.145
1114.622
1136.524
1135.541
1134.525
1133.477
1132.396
1131.283
1130.129
1128.923
1127.627
1126.155
1124.271
1121.428
1115.597
1137.326
1136.378
1135.395
1134.378
1133.329
1132.248
1131.131
1129.975
1128.771
1127.488
1126.034
1124.283
1121.786
1116.851
1138.045
1137.13
1136.18
1135.195
1134.177
1133.125
1132.039
1130.918
1129.76
1128.558
1127.273
1125.884
1124.31
1122.212
1118.369
1138.697
1137.816
1136.899
1135.947
1134.961
1133.94
1132.883
1131.791
1130.665
1129.505
1128.297
1127.051
1125.764
1124.384
1122.745
1120.73
1139.321
1138.475
1137.592
1136.674
1135.721
1134.732
1133.707
1132.645
1131.549
1130.419
1129.258
1128.078
1126.895
1125.72
1124.586
1139.968
1139.158
1138.311
1137.428
1136.51
1135.556
1134.564
1133.536
1132.471
1131.372
1130.244
1129.104
1127.964
1126.839
1125.752
1140.637
1139.863
1139.053
1138.207
1137.325
1136.408
1135.452
1134.459
1133.429
1132.362
1131.266
1130.155
1129.041
1127.938
1126.865
1141.309
1140.572
1139.8
1138.992
1138.148
1137.268
1136.35
1135.393
1134.4
1133.369
1132.303
1131.219
1130.126
1129.038
1127.969
1141.974
1141.274
1140.539
1139.768
1138.962
1138.121
1137.241
1136.323
1135.366
1134.373
1133.34
1132.281
1131.209
1130.134
1129.068
1123.694
1122.266
1120.733
1125.075
1123.718
1122.264
1120.622
1126.456
1125.145
1123.772
1122.25
1120.35
1127.858
1126.588
1125.27
1123.86
1122.208
1119.836
1129.289
1128.063
1126.795
1125.459
1123.981
1122.114
1118.97
1130.736
1129.555
1128.336
1127.063
1125.696
1124.114
1121.929
1117.707
1132.119
1130.983
1129.812
1128.598
1127.318
1125.912
1124.206
1121.669
1116.31
1133.399
1132.305
1131.179
1130.015
1128.805
1127.517
1126.07
1124.25
1121.396
1115.069
1134.568
1133.514
1132.427
1131.307
1130.15
1128.943
1127.645
1126.166
1124.263
1121.178
1114.483
1135.628
1134.612
1133.562
1132.48
1131.366
1130.213
1129.005
1127.702
1126.209
1124.264
1121.145
1114.622
1136.586
1135.606
1134.592
1133.545
1132.466
1131.355
1130.202
1128.995
1127.693
1126.203
1124.27
1121.311
1115.163
1137.448
1136.502
1135.522
1134.509
1133.464
1132.386
1131.272
1130.119
1128.913
1127.619
1126.127
1124.285
1121.576
1116.04
1138.217
1137.306
1136.36
1135.38
1134.366
1133.32
1132.238
1131.121
1129.967
1128.763
1127.453
1126.003
1124.307
1121.92
1117.206
1138.903
1138.026
1137.113
1136.166
1135.184
1134.169
1133.117
1132.031
1130.91
1129.753
1128.529
1127.239
1125.878
1124.349
1122.345
1119.003
1139.523
1138.68
1137.801
1136.887
1135.938
1134.954
1133.933
1132.877
1131.786
1130.661
1129.487
1128.276
1127.046
1125.784
1124.446
1123.077
1121.241
1140.114
1139.306
1138.461
1137.582
1136.666
1135.716
1134.727
1133.702
1132.641
1131.546
1130.412
1129.249
1128.078
1126.911
1125.773
1140.726
1139.954
1139.145
1138.301
1137.421
1136.506
1135.552
1134.561
1133.533
1132.469
1131.37
1130.245
1129.113
1127.986
1126.885
1141.359
1140.623
1139.851
1139.043
1138.2
1137.322
1136.405
1135.449
1134.457
1133.427
1132.361
1131.269
1130.166
1129.066
1127.982
1141.995
1141.296
1140.561
1139.791
1138.985
1138.144
1137.264
1136.347
1135.391
1134.398
1133.365
1132.303
1131.227
1130.146
1129.074
1142.623
1141.96
1141.263
1140.53
1139.762
1138.959
1138.117
1137.237
1136.32
1135.364
1134.365
1133.332
1132.281
1131.219
1130.158
1125.042
1123.696
1122.276
1120.752
1126.377
1125.073
1123.724
1122.278
1120.646
1127.719
1126.451
1125.146
1123.781
1122.268
1120.381
1129.078
1127.848
1126.584
1125.273
1123.871
1122.23
1119.872
1130.463
1129.276
1128.055
1126.792
1125.463
1123.993
1122.134
1119.013
1131.861
1130.717
1129.54
1128.326
1127.059
1125.698
1124.121
1121.946
1117.757
1133.198
1132.098
1130.965
1129.798
1128.588
1127.313
1125.91
1124.21
1121.685
1116.37
1134.435
1133.377
1132.286
1131.162
1130.003
1128.797
1127.509
1126.065
1124.252
1121.413
1115.407
1135.564
1134.545
1133.494
1132.41
1131.293
1130.14
1128.933
1127.636
1126.161
1124.264
1121.271
1115.079
1136.586
1135.606
1134.592
1133.545
1132.466
1131.355
1130.202
1128.995
1127.693
1126.203
1124.27
1121.311
1115.163
1137.509
1136.565
1135.586
1134.575
1133.531
1132.456
1131.344
1130.191
1128.984
1127.684
1126.172
1124.284
1121.464
1115.622
1138.335
1137.427
1136.483
1135.506
1134.496
1133.453
1132.375
1131.262
1130.109
1128.903
1127.576
1126.085
1124.303
1121.713
1116.41
1139.071
1138.197
1137.288
1136.345
1135.368
1134.357
1133.31
1132.229
1131.112
1129.958
1128.721
1127.398
1125.978
1124.332
1122.045
1117.814
1139.724
1138.884
1138.009
1137.1
1136.155
1135.176
1134.16
1133.109
1132.023
1130.903
1129.719
1128.481
1127.209
1125.874
1124.386
1122.612
1119.686
1140.311
1139.506
1138.665
1137.789
1136.878
1135.931
1134.947
1133.927
1132.871
1131.78
1130.637
1129.453
1128.254
1127.039
1125.799
1124.561
1123.285
1121.532
1140.869
1140.098
1139.292
1138.451
1137.573
1136.661
1135.71
1134.723
1133.698
1132.638
1131.532
1130.388
1129.23
1128.068
1126.918
1141.447
1140.712
1139.941
1139.135
1138.294
1137.417
1136.502
1135.549
1134.558
1133.531
1132.461
1131.356
1130.237
1129.114
1128.003
1142.044
1141.345
1140.611
1139.842
1139.037
1138.196
1137.318
1136.401
1135.447
1134.455
1133.42
1132.351
1131.265
1130.173
1129.087
1142.644
1141.982
1141.285
1140.552
1139.784
1138.981
1138.14
1137.261
1136.344
1135.389
1134.389
1133.353
1132.298
1131.231
1130.164
1143.236
1142.61
1141.949
1141.254
1140.524
1139.758
1138.955
1138.113
1137.234
1136.317
1135.353
1134.348
1133.321
1132.278
1131.227
1126.341
1125.04
1123.701
1122.29
1120.775
1127.64
1126.372
1125.075
1123.733
1122.297
1120.676
1128.943
1127.711
1126.449
1125.151
1123.794
1122.29
1120.413
1130.26
1129.067
1127.843
1126.585
1125.28
1123.886
1122.252
1119.908
1131.599
1130.448
1129.266
1128.049
1126.792
1125.47
1124.006
1122.154
1119.056
1132.949
1131.842
1130.702
1129.53
1128.32
1127.058
1125.7
1124.128
1121.963
1117.808
1134.24
1133.176
1132.08
1130.951
1129.787
1128.582
1127.309
1125.908
1124.213
1121.701
1116.658
1135.435
1134.413
1133.357
1132.27
1131.15
1129.994
1128.788
1127.502
1126.06
1124.254
1121.497
1115.951
1136.524
1135.541
1134.525
1133.477
1132.396
1131.283
1130.129
1128.923
1127.627
1126.155
1124.271
1121.428
1115.597
1137.509
1136.565
1135.586
1134.575
1133.531
1132.456
1131.344
1130.191
1128.984
1127.684
1126.172
1124.284
1121.464
1115.622
1138.395
1137.487
1136.546
1135.57
1134.562
1133.521
1132.445
1131.333
1130.181
1128.974
1127.638
1126.126
1124.299
1121.604
1116.004
1139.186
1138.315
1137.408
1136.468
1135.494
1134.486
1133.443
1132.365
1131.252
1130.099
1128.854
1127.509
1126.05
1124.321
1121.839
1117.039
1139.888
1139.051
1138.18
1137.274
1136.333
1135.358
1134.347
1133.301
1132.219
1131.103
1129.912
1128.655
1127.351
1125.959
1124.357
1122.299
1118.569
1140.508
1139.705
1138.868
1137.996
1137.089
1136.147
1135.168
1134.152
1133.101
1132.016
1130.866
1129.663
1128.439
1127.184
1125.871
1124.464
1122.899
1120.176
1141.062
1140.294
1139.491
1138.653
1137.779
1136.871
1135.924
1134.941
1133.921
1132.865
1131.753
1130.594
1129.418
1128.23
1127.028
1125.815
1124.631
1123.407
1121.75
1141.587
1140.853
1140.085
1139.281
1138.442
1137.568
1136.655
1135.705
1134.718
1133.694
1132.619
1131.497
1130.355
1129.199
1128.043
1142.13
1141.432
1140.7
1139.931
1139.128
1138.289
1137.412
1136.497
1135.545
1134.555
1133.517
1132.436
1131.334
1130.221
1129.109
1142.692
1142.03
1141.333
1140.602
1139.835
1139.032
1138.192
1137.314
1136.398
1135.444
1134.442
1133.4
1132.335
1131.257
1130.176
1143.257
1142.631
1141.971
1141.276
1140.545
1139.78
1138.977
1138.136
1137.257
1136.341
1135.376
1134.369
1133.337
1132.289
1131.233
1143.813
1143.223
1142.599
1141.941
1141.247
1140.519
1139.754
1138.951
1138.11
1137.231
1136.302
1135.328
1134.328
1133.307
1132.273
1127.605
1126.337
1125.042
1123.711
1122.308
1120.804
1128.867
1127.633
1126.371
1125.081
1123.747
1122.32
1120.706
1130.131
1128.934
1127.707
1126.451
1125.16
1123.811
1122.314
1120.445
1131.405
1130.248
1129.06
1127.841
1126.589
1125.292
1123.902
1122.275
1119.945
1132.699
1131.584
1130.437
1129.259
1128.048
1126.797
1125.478
1124.018
1122.175
1119.1
1134.001
1132.931
1131.827
1130.691
1129.523
1128.318
1127.058
1125.703
1124.135
1121.98
1118.051
1135.247
1134.22
1133.159
1132.065
1130.94
1129.78
1128.576
1127.304
1125.906
1124.216
1121.78
1117.144
1136.399
1135.413
1134.394
1133.342
1132.257
1131.14
1129.985
1128.78
1127.495
1126.056
1124.262
1121.644
1116.432
1137.448
1136.502
1135.522
1134.509
1133.464
1132.386
1131.272
1130.119
1128.913
1127.619
1126.127
1124.285
1121.576
1116.04
1138.395
1137.487
1136.546
1135.57
1134.562
1133.521
1132.445
1131.333
1130.181
1128.974
1127.638
1126.126
1124.299
1121.604
1116.004
1139.244
1138.374
1137.469
1136.53
1135.557
1134.551
1133.51
1132.434
1131.322
1130.17
1128.922
1127.566
1126.086
1124.316
1121.733
1116.652
1140.001
1139.166
1138.297
1137.393
1136.455
1135.484
1134.476
1133.432
1132.355
1131.241
1130.047
1128.777
1127.452
1126.021
1124.341
1122.096
1117.842
1140.669
1139.869
1139.035
1138.166
1137.262
1136.324
1135.349
1134.338
1133.291
1132.21
1131.056
1129.84
1128.597
1127.311
1125.943
1124.414
1122.616
1119.173
1141.255
1140.49
1139.69
1138.855
1137.985
1137.08
1136.138
1135.159
1134.144
1133.093
1131.976
1130.804
1129.612
1128.4
1127.16
1125.863
1124.546
1123.104
1120.562
1141.776
1141.045
1140.28
1139.479
1138.643
1137.772
1136.863
1135.917
1134.934
1133.914
1132.834
1131.702
1130.55
1129.382
1128.203
1126.991
1125.822
1124.673
1123.5
1121.941
1142.268
1141.571
1140.84
1140.074
1139.273
1138.436
1137.562
1136.649
1135.7
1134.713
1133.67
1132.574
1131.452
1130.308
1129.152
1142.777
1142.116
1141.42
1140.69
1139.924
1139.123
1138.284
1137.407
1136.493
1135.541
1134.536
1133.483
1132.403
1131.304
1130.199
1143.304
1142.679
1142.019
1141.324
1140.595
1139.83
1139.028
1138.188
1137.31
1136.394
1135.427
1134.414
1133.374
1132.315
1131.246
1143.834
1143.244
1142.62
1141.962
1141.269
1140.541
1139.776
1138.973
1138.132
1137.254
1136.324
1135.348
1134.344
1133.319
1132.279
1144.354
1143.8
1143.212
1142.59
1141.934
1141.243
1140.515
1139.749
1138.947
1138.106
1137.213
1136.271
1135.301
1134.306
1133.292
1128.833
1127.598
1126.336
1125.049
1123.725
1122.331
1120.834
1130.058
1128.858
1127.63
1126.374
1125.091
1123.765
1122.343
1120.737
1131.282
1130.12
1128.928
1127.707
1126.457
1125.174
1123.829
1122.337
1120.478
1132.512
1131.392
1130.239
1129.056
1127.842
1126.597
1125.303
1123.918
1122.297
1119.982
1133.76
1132.683
1131.572
1130.429
1129.256
1128.05
1126.802
1125.486
1124.031
1122.196
1119.313
1135.016
1133.983
1132.915
1131.815
1130.683
1129.519
1128.315
1127.057
1125.705
1124.142
1122.066
1118.501
1136.217
1135.227
1134.202
1133.144
1132.054
1130.933
1129.774
1128.57
1127.299
1125.904
1124.234
1121.925
1117.596
1137.326
1136.378
1135.395
1134.378
1133.329
1132.248
1131.131
1129.975
1128.771
1127.488
1126.034
1124.283
1121.786
1116.851
1138.335
1137.427
1136.483
1135.506
1134.496
1133.453
1132.375
1131.262
1130.109
1128.903
1127.576
1126.085
1124.303
1121.713
1116.41
1139.244
1138.374
1137.469
1136.53
1135.557
1134.551
1133.51
1132.434
1131.322
1130.17
1128.922
1127.566
1126.086
1124.316
1121.733
1116.652
1140.058
1139.224
1138.356
1137.454
1136.517
1135.547
1134.541
1133.499
1132.423
1131.311
1130.115
1128.839
1127.504
1126.053
1124.333
1121.994
1117.483
1140.779
1139.981
1139.149
1138.282
1137.381
1136.446
1135.473
1134.465
1133.422
1132.344
1131.189
1129.964
1128.709
1127.402
1125.998
1124.387
1122.43
1118.512
1141.413
1140.65
1139.853
1139.021
1138.154
1137.253
1136.314
1135.339
1134.328
1133.282
1132.162
1130.98
1129.776
1128.546
1127.276
1125.913
1124.49
1122.867
1119.674
1141.965
1141.237
1140.474
1139.677
1138.844
1137.977
1137.072
1136.13
1135.151
1134.136
1133.052
1131.91
1130.748
1129.566
1128.366
1127.107
1125.851
1124.604
1123.263
1120.896
1142.454
1141.76
1141.031
1140.268
1139.47
1138.636
1137.765
1136.856
1135.91
1134.927
1133.881
1132.778
1131.651
1130.505
1129.345
1128.132
1126.964
1125.827
1124.706
1123.581
1122.122
1142.912
1142.253
1141.558
1140.829
1140.066
1139.267
1138.43
1137.556
1136.644
1135.694
1134.686
1133.618
1132.519
1131.393
1130.244
1143.388
1142.763
1142.104
1141.41
1140.682
1139.919
1139.118
1138.279
1137.402
1136.488
1135.519
1134.494
1133.44
1132.361
1131.268
1143.88
1143.291
1142.667
1142.009
1141.317
1140.59
1139.825
1139.023
1138.183
1137.306
1136.375
1135.392
1134.379
1133.343
1132.291
1144.375
1143.821
1143.233
1142.611
1141.955
1141.264
1140.536
1139.771
1138.969
1138.128
1137.235
1136.29
1135.316
1134.316
1133.297
1144.86
1144.342
1143.79
1143.204
1142.584
1141.929
1141.238
1140.51
1139.745
1138.942
1138.086
1137.177
1136.238
1135.271
1134.281
1130.026
1128.825
1127.595
1126.34
1125.059
1123.744
1122.355
1120.863
1131.212
1130.048
1128.853
1127.63
1126.381
1125.105
1123.784
1122.367
1120.767
1132.394
1131.27
1130.113
1128.926
1127.71
1126.467
1125.187
1123.847
1122.361
1120.511
1133.581
1132.499
1131.382
1130.234
1129.055
1127.848
1126.605
1125.315
1123.934
1122.32
1120.166
1134.784
1133.744
1132.67
1131.564
1130.425
1129.256
1128.052
1126.806
1125.494
1124.043
1122.299
1119.758
1135.993
1134.998
1133.967
1132.903
1131.807
1130.679
1129.516
1128.313
1127.057
1125.707
1124.178
1122.23
1118.961
1137.149
1136.197
1135.209
1134.188
1133.133
1132.047
1130.925
1129.767
1128.564
1127.295
1125.895
1124.27
1122.071
1118.007
1138.217
1137.306
1136.36
1135.38
1134.366
1133.32
1132.238
1131.121
1129.967
1128.763
1127.453
1126.003
1124.307
1121.92
1117.206
1139.186
1138.315
1137.408
1136.468
1135.494
1134.486
1133.443
1132.365
1131.252
1130.099
1128.854
1127.509
1126.05
1124.321
1121.839
1117.039
1140.058
1139.224
1138.356
1137.454
1136.517
1135.547
1134.541
1133.499
1132.423
1131.311
1130.115
1128.839
1127.504
1126.053
1124.333
1121.994
1117.483
1140.835
1140.038
1139.207
1138.341
1137.441
1136.507
1135.536
1134.53
1133.488
1132.412
1131.256
1130.028
1128.766
1127.45
1126.027
1124.375
1122.337
1118.184
1141.521
1140.76
1139.965
1139.135
1138.27
1137.371
1136.436
1135.463
1134.455
1133.412
1132.291
1131.104
1129.892
1128.65
1127.36
1125.952
1124.457
1122.706
1119.086
1142.12
1141.394
1140.634
1139.839
1139.009
1138.145
1137.243
1136.305
1135.33
1134.319
1133.233
1132.084
1130.913
1129.72
1128.502
1127.203
1125.88
1124.554
1123.071
1120.119
1142.64
1141.948
1141.222
1140.461
1139.666
1138.836
1137.968
1137.064
1136.122
1135.143
1134.094
1132.984
1131.85
1130.696
1129.525
1128.286
1127.047
1125.844
1124.652
1123.396
1121.213
1143.095
1142.438
1141.746
1141.019
1140.258
1139.462
1138.629
1137.758
1136.849
1135.903
1134.892
1133.82
1132.721
1131.599
1130.461
1129.25
1128.084
1126.949
1125.833
1124.736
1123.655
1122.307
1143.521
1142.897
1142.24
1141.548
1140.821
1140.059
1139.26
1138.424
1137.549
1136.638
1135.664
1134.627
1133.555
1132.45
1131.314
1143.962
1143.374
1142.751
1142.094
1141.403
1140.677
1139.913
1139.112
1138.274
1137.397
1136.463
1135.47
1134.444
1133.389
1132.313
1144.42
1143.867
1143.279
1142.658
1142.002
1141.312
1140.585
1139.82
1139.018
1138.179
1137.284
1136.333
1135.35
1134.34
1133.309
1144.88
1144.362
1143.81
1143.224
1142.604
1141.95
1141.259
1140.532
1139.767
1138.964
1138.107
1137.196
1136.253