/*--------------------------------*- C++ -*----------------------------------*\
| =========                 |                                                 |
| \\      /  F ield         | OpenFOAM: The Open Source CFD Toolbox           |
|  \\    /   O peration     | Version:  2306                                  |
|   \\  /    A nd           | Website:  www.openfoam.com                      |
|    \\/     M anipulation  |                                                 |
\*---------------------------------------------------------------------------*/
FoamFile
{
    version     2.0;
    format      ascii;
    arch        "LSB;label=32;scalar=64";
    class       volScalarField;
    location    "0.6/fuel";
    object      X.H2O;
}
// * * * * * * * * * * * * * * * * * * * * * * * * * * * * * * * * * * * * * //

dimensions      [0 0 0 0 0 0 0];

internalField   nonuniform List<scalar> 
16000
(
0.07014508
0.06881592
0.09034763
0.07006824
0.06616725
0.08930415
0.06873846
0.1128664
0.09027754
0.06991818
0.06227613
0.08722639
0.06608846
0.1119318
0.08923367
0.06858721
0.134701
0.1128022
0.09014049
0.06969749
0.0574211
0.08417531
0.06219507
0.1100701
0.08715506
0.06593465
0.1338326
0.1118672
0.08909585
0.0683648
0.1554941
0.1346415
0.1126765
0.08993873
0.06940771
0.05240883
0.0803656
0.05733634
0.1073337
0.08410256
0.06203686
0.1321036
0.1100049
0.08701561
0.06570851
0.1546785
0.1337729
0.111741
0.08889298
0.06807278
0.1752641
0.1554386
0.134525
0.1124913
0.08967363
0.06912116
0.04872732
0.07641708
0.05231902
0.1039121
0.08029052
0.05717094
0.1295623
0.1072674
0.08396035
0.0618043
0.1530549
0.1320433
0.1098774
0.08681036
0.06541162
0.1744938
0.1546227
0.1336559
0.1115549
0.08862642
0.06778402
0.1940845
0.175212
0.1553298
0.1343532
0.1122477
0.08941136
0.06888418
0.04641727
0.07347796
0.04863543
0.1003599
0.07633884
0.05214372
0.1263847
0.1038439
0.08014377
0.05692779
0.1506691
0.1295011
0.1071377
0.08375104
0.06149902
0.172961
0.1529987
0.1319253
0.1096895
0.08654069
0.06511807
0.1933545
0.1744415
0.1545135
0.1334834
0.1113102
0.08836272
0.0675452
0.2120292
0.1940353
0.1751097
0.1551691
0.1341271
0.1120067
0.08919447
0.06864902
0.04511174
0.07160147
0.04632474
0.09771081
0.07339872
0.04845614
0.1230855
0.1002892
0.07618583
0.05188595
0.1476866
0.126322
0.1037107
0.07992778
0.05660861
0.1707092
0.1506121
0.1293813
0.1069466
0.08347607
0.06119719
0.1919022
0.1729083
0.1528885
0.1317512
0.1094424
0.08627393
0.06487519
0.2113356
0.1933052
0.1743389
0.1543522
0.1332564
0.1110681
0.08814464
0.06730821
0.2291653
0.2119827
0.1939388
0.1749587
0.1549577
0.1339033
0.1118074
0.08897924
0.06841569
0.04452609
0.07052264
0.04501901
0.09601543
0.07152215
0.04614427
0.120624
0.0976395
0.07324379
0.04819257
0.1445904
0.1230206
0.1001509
0.07596056
0.05154746
0.1678947
0.1476283
0.1261991
0.1035143
0.079644
0.05629302
0.189769
0.1706558
0.1505004
0.1292046
0.1066954
0.08320408
0.06094702
0.2099557
0.1918525
0.1728049
0.152726
0.1315223
0.1091979
0.08605323
0.06463405
0.2285047
0.2112889
0.1932084
0.1741874
0.15414
0.1330317
0.1108678
0.08792822
0.06707305
0.2455521
0.2291212
0.2118914
0.1937963
0.1747598
0.1547483
0.1337182
0.1116096
0.08876569
0.06818418
0.04452609
0.07003258
0.04443329
0.09503832
0.07044343
0.04483819
0.1190472
0.09594422
0.07136712
0.04587907
0.1422798
0.1205586
0.09749988
0.07301572
0.04784654
0.1649733
0.14453
0.1228933
0.09994695
0.07566451
0.05121267
0.1871032
0.1678401
0.1475138
0.1260178
0.103256
0.07936329
0.05603011
0.2079293
0.1897187
0.170551
0.1503355
0.1289721
0.1064468
0.08297873
0.06069821
0.2271908
0.2099088
0.191755
0.1726522
0.152512
0.1312956
0.1089956
0.08583415
0.06439466
0.2449218
0.2284604
0.2111973
0.1930653
0.1739878
0.1539298
0.1328458
0.1106691
0.08771348
0.06683972
0.2612419
0.2455101
0.2290345
0.2117564
0.1936085
0.1745628
0.1545751
0.1335346
0.1114133
0.0885538
0.06707197
0.04511174
0.07003258
0.04443329
0.09459365
0.06995343
0.04425236
0.1181376
0.0949673
0.07028861
0.04457252
0.1407989
0.118982
0.09580483
0.07113895
0.04553096
0.162793
0.142219
0.1204303
0.09729412
0.07271602
0.04750431
0.1843365
0.1649169
0.1444117
0.1227055
0.09967876
0.07537157
0.05093124
0.2053973
0.1870518
0.1677328
0.1473449
0.1257794
0.1030005
0.07912971
0.0557673
0.2252614
0.2078817
0.1896199
0.1703962
0.1501185
0.128742
0.1062409
0.0827547
0.06045078
0.2436683
0.2271462
0.2098165
0.1916109
0.1724511
0.1523001
0.131108
0.1087948
0.08561667
0.06415703
0.2606396
0.2448797
0.2283734
0.2110618
0.1928769
0.1737901
0.1537559
0.1326614
0.1104719
0.08750041
0.06571878
0.2762813
0.261202
0.2454276
0.2289062
0.2115784
0.1934223
0.1743999
0.1544032
0.1333523
0.1112186
0.08753506
0.06631435
0.04641727
0.07052264
0.04501901
0.09459365
0.06995343
0.04425236
0.1177233
0.09452273
0.06979876
0.04398655
0.139944
0.1180726
0.0948283
0.07006078
0.04422386
0.1613951
0.1407384
0.1188541
0.09559943
0.07083916
0.04518672
0.1822715
0.1627362
0.1420999
0.1202412
0.09702353
0.0724195
0.04721659
0.2027697
0.1842834
0.164806
0.1442369
0.1224584
0.09941326
0.0751259
0.05064739
0.222851
0.2053487
0.1869508
0.1675744
0.1471226
0.1255433
0.1027879
0.0788965
0.05550462
0.2418279
0.2252163
0.2077883
0.189474
0.1701924
0.1499036
0.1285513
0.1060361
0.08253199
0.06020473
0.2594419
0.243626
0.2270587
0.2096801
0.1914211
0.1722519
0.1521248
0.1309218
0.1085955
0.0854008
0.06301512
0.2757049
0.2605995
0.2447969
0.2282448
0.2108833
0.1926901
0.1736265
0.1535834
0.1324784
0.1102763
0.08647595
0.0649519
0.2907116
0.2762431
0.2611233
0.2453056
0.2287372
0.211402
0.1932684
0.1742382
0.1542327
0.1331716
0.1102819
0.08684216
0.06574415
0.04872732
0.07160147
0.04632474
0.09503832
0.07044343
0.04483819
0.1177233
0.09452273
0.06979876
0.04398655
0.1395545
0.1176584
0.09438394
0.06957114
0.04363772
0.1605879
0.1398837
0.1179452
0.09462348
0.06976147
0.0438791
0.1809473
0.1613386
0.1406197
0.1186655
0.09532935
0.07054257
0.04489788
0.2008085
0.1822182
0.1626247
0.1419241
0.1199922
0.09675567
0.07217076
0.04692634
0.2203498
0.2027195
0.1841791
0.1646422
0.1440068
0.1222136
0.09919063
0.07487868
0.05036108
0.2395288
0.2228049
0.2052532
0.1868015
0.1673658
0.1469024
0.1253468
0.1025756
0.07866365
0.05524206
0.2576835
0.241785
0.2251277
0.2076502
0.1892817
0.1699905
0.1497256
0.1283618
0.1058326
0.08231061
0.05902064
0.274559
0.2594016
0.2435427
0.2269292
0.2095003
0.191233
0.1720871
0.1519507
0.130737
0.1083976
0.08436263
0.06222117
0.2901594
0.2756666
0.2605206
0.2446745
0.2280752
0.2107063
0.1925357
0.1734643
0.1534123
0.1322968
0.109335
0.08577678
0.06437204
0.3045702
0.2906752
0.2761681
0.2610069
0.2451446
0.2285695
0.2112561
0.1931156
0.1740778
0.1540636
0.1323014
0.1096453
0.08632105
0.06536289
0.05240883
0.07347796
0.04863543
0.09601543
0.07152215
0.04614427
0.1181376
0.0949673
0.07028861
0.04457252
0.1395545
0.1176584
0.09438394
0.06957114
0.04363772
0.1602199
0.1394943
0.1175312
0.09417945
0.06927213
0.04329281
0.1801824
0.1605316
0.1397655
0.1177572
0.09435419
0.06946538
0.04359026
0.1995506
0.1808942
0.1612276
0.1404445
0.1184174
0.09506202
0.07029421
0.04460708
0.2184829
0.2007581
0.1821133
0.1624601
0.1416926
0.1197457
0.096531
0.07192041
0.04663356
0.2371434
0.2203023
0.202621
0.1840249
0.1644265
0.1437788
0.1220083
0.09896661
0.07462988
0.05007229
0.2554872
0.2394851
0.2227143
0.205112
0.1866048
0.1671591
0.1467192
0.1251507
0.1023637
0.07843119
0.05397267
0.2728766
0.2576427
0.2417008
0.2249966
0.2074682
0.1890912
0.1698233
0.1495486
0.1281734
0.1056303
0.08124453
0.05815256
0.2890617
0.2745205
0.2593222
0.2434195
0.2267585
0.2093221
0.1910774
0.1719235
0.151778
0.1305536
0.1074455
0.08364476
0.06160987
0.3040406
0.2901229
0.2755914
0.2604039
0.2445131
0.227907
0.2105599
0.1923824
0.1733033
0.1532424
0.1314229
0.1086933
0.08524897
0.06398263
0.3178907
0.3045353
0.2906034
0.2760569
0.2608534
0.2449849
0.2284309
0.2111113
0.1929641
0.1739186
0.1532491
0.1317105
0.1091667
0.08597281
0.06517188
0.0574211
0.07641708
0.05231902
0.09771081
0.07339872
0.04845614
0.1190472
0.09594422
0.07136712
0.04587907
0.139944
0.1180726
0.0948283
0.07006078
0.04422386
0.1602199
0.1394943
0.1175312
0.09417945
0.06927213
0.04329281
0.1798336
0.1601637
0.1393764
0.1173437
0.0939106
0.06897634
0.04300406
0.1988239
0.1801295
0.160421
0.139591
0.11751
0.09408767
0.06921776
0.04329991
0.2172854
0.1995005
0.1807898
0.1610636
0.1402139
0.1181716
0.09483817
0.07004465
0.04431432
0.235363
0.2184352
0.2006591
0.1819584
0.1622432
0.1414632
0.119539
0.09630487
0.07166842
0.04633824
0.2532085
0.2370983
0.2202088
0.2024752
0.1838216
0.1642127
0.1435876
0.1218018
0.09874119
0.07437949
0.04866434
0.2707755
0.2554455
0.239399
0.2225804
0.2049259
0.1864099
0.1669871
0.1465362
0.1249548
0.1021521
0.07730717
0.0529036
0.2874501
0.2728377
0.2575624
0.2415761
0.2248238
0.2072877
0.1889333
0.1696569
0.1493726
0.1279861
0.1046553
0.08047407
0.05744197
0.3029879
0.2890249
0.2744447
0.2592048
0.243257
0.2265892
0.2091747
0.1909229
0.171761
0.1516065
0.1296703
0.106788
0.08309468
0.06119195
0.3173823
0.3040056
0.2900509
0.2754799
0.2602499
0.2443529
0.227768
0.2104147
0.1922303
0.1731435
0.1524247
0.1308275
0.1082091
0.084895
0.06378691
0.3307036
0.3178573
0.3044666
0.2904971
0.2759102
0.260701
0.2448529
0.2282933
0.2109677
0.1928138
0.1731522
0.1526964
0.1312663
0.1088469
0.08579842
0.06227613
0.0803656
0.05733634
0.1003599
0.07633884
0.05214372
0.120624
0.0976395
0.07324379
0.04819257
0.1407989
0.118982
0.09580483
0.07113895
0.04553096
0.1605879
0.1398837
0.1179452
0.09462348
0.06976147
0.0438791
0.1798336
0.1601637
0.1393764
0.1173437
0.0939106
0.06897634
0.04300406
0.1984925
0.1797809
0.1600535
0.1392023
0.1170969
0.09364452
0.06872913
0.04271399
0.2165934
0.198774
0.1800256
0.1602578
0.1393614
0.1172652
0.09386478
0.06896928
0.04300802
0.2342208
0.2172379
0.1994019
0.1806356
0.1608477
0.1399854
0.1179659
0.09461324
0.06979389
0.04401959
0.2515077
0.2353177
0.2183414
0.2005127
0.1817542
0.1620283
0.1412708
0.1193308
0.09607728
0.07141479
0.04489897
0.2685956
0.2531655
0.2370095
0.2200706
0.202283
0.1836201
0.1640334
0.1433952
0.1215939
0.09851434
0.07315955
0.04718689
0.2854376
0.2707357
0.2553635
0.2392717
0.2224038
0.2047414
0.1862477
0.1668154
0.1463536
0.1247593
0.1011282
0.07639091
0.05187758
0.3014425
0.287413
0.2727611
0.2574436
0.2414117
0.2246525
0.2071383
0.1887764
0.1694916
0.1491977
0.1270829
0.1039523
0.07985215
0.0569234
0.3163718
0.3029527
0.2889525
0.2743326
0.2590498
0.2430958
0.2264491
0.2090283
0.1907695
0.1715998
0.1507805
0.1290609
0.1062845
0.08272032
0.06097898
0.3302152
0.3173488
0.3039367
0.2899443
0.2753328
0.2600971
0.2442205
0.2276299
0.2102705
0.1920794
0.1723741
0.1518678
0.1303782
0.1078844
0.08471728
0.343037
0.3306716
0.3177914
0.3043648
0.2903567
0.2757646
0.2605751
0.2447219
0.2281568
0.2108252
0.1920895
0.1726322
0.1522808
0.1309695
0.1086868
0.06616725
0.08417531
0.06219507
0.1039121
0.08029052
0.05717094
0.1230855
0.1002892
0.07618583
0.05188595
0.1422798
0.1205586
0.09749988
0.07301572
0.04784654
0.1613951
0.1407384
0.1188541
0.09559943
0.07083916
0.04518672
0.1801824
0.1605316
0.1397655
0.1177572
0.09435419
0.06946538
0.04359026
0.1984925
0.1797809
0.1600535
0.1392023
0.1170969
0.09364452
0.06872913
0.04271399
0.2162778
0.1984427
0.1796772
0.1598906
0.1389731
0.1168526
0.09342213
0.0684812
0.04242261
0.2335607
0.2165461
0.1986759
0.179872
0.1600428
0.1391339
0.1170604
0.0936411
0.06871992
0.04271462
0.2504166
0.2341757
0.2171446
0.1992562
0.1804323
0.1606337
0.1397941
0.1177591
0.09438723
0.06954193
0.04258615
0.2669687
0.2514646
0.2352286
0.2182026
0.2003196
0.1815517
0.161848
0.1410771
0.1191213
0.09584822
0.07017921
0.04340903
0.2833498
0.2685547
0.253081
0.2368781
0.2198883
0.2020924
0.1834511
0.1638529
0.1432015
0.1213847
0.09740812
0.07194288
0.04536458
0.2995128
0.2853996
0.2706575
0.2552422
0.2391037
0.2222287
0.2045879
0.1860857
0.1666439
0.1461712
0.1238127
0.1002967
0.07553687
0.05097215
0.3148885
0.301407
0.2873397
0.2726477
0.2572869
0.2412486
0.2245105
0.2069896
0.1886203
0.1693273
0.1483538
0.1264321
0.1033856
0.07940429
0.0566429
0.3292443
0.3163381
0.3028834
0.2888452
0.2741846
0.2588961
0.2429625
0.2263101
0.208883
0.1906173
0.170823
0.1502108
0.1285942
0.105942
0.08253017
0.3425673
0.330183
0.3172828
0.3038346
0.2898036
0.2751868
0.2599708
0.2440891
0.227493
0.2101275
0.1913525
0.1718504
0.1514476
0.130077
0.1077214
0.3549162
0.3430062
0.3306084
0.3176938
0.3042304
0.2902175
0.2756443
0.2604501
0.2445919
0.2280214
0.2101386
0.1915983
0.1722412
0.1520031
0.1308209
0.06881592
0.08722639
0.06608846
0.1073337
0.08410256
0.06203686
0.1263847
0.1038439
0.08014377
0.05692779
0.1445904
0.1230206
0.1001509
0.07596056
0.05154746
0.162793
0.142219
0.1204303
0.09729412
0.07271602
0.04750431
0.1809473
0.1613386
0.1406197
0.1186655
0.09532935
0.07054257
0.04489788
0.1988239
0.1801295
0.160421
0.139591
0.11751
0.09408767
0.06921776
0.04329991
0.2162778
0.1984427
0.1796772
0.1598906
0.1389731
0.1168526
0.09342213
0.0684812
0.04242261
0.2332597
0.2162307
0.1983448
0.179524
0.1596761
0.1387461
0.1166484
0.09319909
0.06823256
0.04212991
0.2497859
0.2335159
0.2164532
0.1985308
0.1796697
0.1598298
0.1389436
0.1168549
0.09341664
0.0684697
0.04128973
0.2659249
0.2503737
0.2340871
0.2170065
0.1990642
0.1802309
0.1604545
0.1396018
0.1175513
0.09416015
0.0683166
0.04116896
0.2817916
0.2669276
0.2513797
0.2350966
0.2180195
0.2001282
0.1813819
0.1616665
0.1408821
0.1189104
0.09473125
0.06895976
0.0416391
0.297511
0.2833107
0.2684741
0.2529558
0.2367047
0.2197074
0.2019325
0.183281
0.1636713
0.1430066
0.1203637
0.09630927
0.07049628
0.04306092
0.3130363
0.2994765
0.2853249
0.2705417
0.2550821
0.2389371
0.222083
0.2044346
0.185924
0.1664727
0.1452876
0.1230442
0.09952345
0.07480273
0.05035199
0.3278194
0.3148545
0.3013369
0.2872313
0.272498
0.2571314
0.2411135
0.2243694
0.2068418
0.1884652
0.1685342
0.147746
0.1259076
0.102978
0.07916458
0.3416339
0.329212
0.3162717
0.3027807
0.2887037
0.2740377
0.2587689
0.2428301
0.226172
0.2087388
0.1898836
0.1702874
0.1497747
0.1282768
0.1057681
0.3544642
0.3425365
0.3301197
0.3171849
0.3036999
0.2896639
0.2750661
0.2598454
0.2439587
0.2273571
0.2094385
0.1908578
0.1714552
0.1511659
0.1299258
0.3663648
0.3548866
0.3429456
0.3305148
0.317565
0.3040969
0.2901023
0.2755248
0.2603261
0.244463
0.2273689
0.209673
0.191229
0.1719801
0.1518641
0.07014508
0.08930415
0.06873846
0.1100701
0.08715506
0.06593465
0.1295623
0.1072674
0.08396035
0.0618043
0.1476866
0.126322
0.1037107
0.07992778
0.05660861
0.1649733
0.14453
0.1228933
0.09994695
0.07566451
0.05121267
0.1822715
0.1627362
0.1420999
0.1202412
0.09702353
0.0724195
0.04721659
0.1995506
0.1808942
0.1612276
0.1404445
0.1184174
0.09506202
0.07029421
0.04460708
0.2165934
0.198774
0.1800256
0.1602578
0.1393614
0.1172652
0.09386478
0.06896928
0.04300802
0.2332597
0.2162307
0.1983448
0.179524
0.1596761
0.1387461
0.1166484
0.09319909
0.06823256
0.04212991
0.2494983
0.2332149
0.216138
0.1982002
0.1793222
0.1594636
0.1385563
0.1164435
0.09297541
0.06798321
0.04070942
0.2653216
0.2497432
0.2334276
0.2163158
0.1983397
0.1794692
0.1596516
0.1387526
0.1166487
0.0931914
0.06725437
0.03992656
0.2807919
0.265884
0.2502893
0.2339559
0.2168244
0.1988737
0.1800621
0.1602744
0.1394086
0.1173425
0.09305465
0.06715691
0.03955648
0.296017
0.2817524
0.2668467
0.2512541
0.2349226
0.2178379
0.1999676
0.1812109
0.1614837
0.1406859
0.1178813
0.09363173
0.06755942
0.03957254
0.3111151
0.2974736
0.2832337
0.2683546
0.2527906
0.2365327
0.2195557
0.2017715
0.1831098
0.1634884
0.1420547
0.1193493
0.09500582
0.06871628
0.04001645
0.3260401
0.3130016
0.299405
0.2852142
0.2703889
0.2549233
0.2387984
0.2219375
0.2042815
0.1857625
0.1656429
0.1445704
0.1223295
0.09886028
0.07431091
0.3402639
0.3277867
0.3147873
0.3012331
0.2870882
0.2723494
0.2570025
0.2409792
0.224229
0.2066949
0.1877165
0.1679631
0.1472561
0.1255304
0.10276
0.3535661
0.3416029
0.3291483
0.3161733
0.3026451
0.2885631
0.2739162
0.2586426
0.2426987
0.226035
0.2080435
0.1893779
0.1698774
0.149478
0.1281157
0.3659297
0.3544346
0.3424756
0.3300258
0.3170557
0.3035661
0.2895484
0.2749463
0.259721
0.2438293
0.2267023
0.2089697
0.1904846
0.1711903
0.1510245
0.3774046
0.3663364
0.3548283
0.3428556
0.330391
0.317437
0.3039866
0.289988
0.2754063
0.2602031
0.2438415
0.2269265
0.2093231
0.1909823
0.1718493
0.09034763
0.07006824
0.1119318
0.08923367
0.06858721
0.1321036
0.1100049
0.08701561
0.06570851
0.1506691
0.1295011
0.1071377
0.08375104
0.06149902
0.1678947
0.1476283
0.1261991
0.1035143
0.079644
0.05629302
0.1843365
0.1649169
0.1444117
0.1227055
0.09967876
0.07537157
0.05093124
0.2008085
0.1822182
0.1626247
0.1419241
0.1199922
0.09675567
0.07217076
0.04692634
0.2172854
0.1995005
0.1807898
0.1610636
0.1402139
0.1181716
0.09483817
0.07004465
0.04431432
0.2335607
0.2165461
0.1986759
0.179872
0.1600428
0.1391339
0.1170604
0.0936411
0.06871992
0.04271462
0.2494983
0.2332149
0.216138
0.1982002
0.1793222
0.1594636
0.1385563
0.1164435
0.09297541
0.06798321
0.04070942
0.2650464
0.2494557
0.2331269
0.2160009
0.1980095
0.1791221
0.1592859
0.138366
0.1162381
0.09275109
0.06677284
0.03937117
0.280214
0.2652809
0.2496593
0.2332971
0.2161346
0.1981501
0.1793014
0.1594728
0.1385609
0.1164418
0.09209626
0.06613823
0.03841657
0.2950584
0.2807529
0.2658036
0.2501644
0.2337828
0.2166438
0.1987142
0.1798925
0.1600934
0.1392144
0.1163252
0.09201002
0.06588031
0.03775814
0.3096813
0.2959795
0.2816751
0.2667269
0.2510884
0.23475
0.2176856
0.1998059
0.1810387
0.1612998
0.1397275
0.1168675
0.0923705
0.06596586
0.03720388
0.3241947
0.3110793
0.2973999
0.2831195
0.2681969
0.2526267
0.2363884
0.2194029
0.2016095
0.1829374
0.1625951
0.1411082
0.1181451
0.09340493
0.06640523
0.03499405
0.3385533
0.3260068
0.3129331
0.299299
0.2850681
0.2702372
0.2547911
0.23866
0.2217921
0.2041286
0.1849796
0.1649693
0.1439032
0.1217165
0.09841673
0.3522481
0.3402326
0.3277224
0.3146878
0.301096
0.2869461
0.2722264
0.2568744
0.2408456
0.2240895
0.2059857
0.1871775
0.1675027
0.1469037
0.1253286
0.365065
0.3535364
0.3415417
0.3290539
0.3160433
0.3025105
0.2884469
0.2737955
0.2585173
0.2425683
0.2253745
0.2075645
0.1889907
0.1695985
0.1493274
0.3769854
0.3659012
0.3543762
0.3423855
0.3299018
0.3169274
0.3034554
0.2894338
0.2748274
0.2595976
0.2432057
0.226257
0.2086161
0.1902344
0.1710573
0.3880556
0.3773773
0.3662803
0.3547419
0.3427368
0.3302682
0.3173311
0.3038771
0.2898746
0.2752888
0.25961
0.2434202
0.2265939
0.2090893
0.1908588
0.1128664
0.09027754
0.06991818
0.1338326
0.1118672
0.08909585
0.0683648
0.1530549
0.1320433
0.1098774
0.08681036
0.06541162
0.1707092
0.1506121
0.1293813
0.1069466
0.08347607
0.06119719
0.1871032
0.1678401
0.1475138
0.1260178
0.103256
0.07936329
0.05603011
0.2027697
0.1842834
0.164806
0.1442369
0.1224584
0.09941326
0.0751259
0.05064739
0.2184829
0.2007581
0.1821133
0.1624601
0.1416926
0.1197457
0.096531
0.07192041
0.04663356
0.2342208
0.2172379
0.1994019
0.1806356
0.1608477
0.1399854
0.1179659
0.09461324
0.06979389
0.04401959
0.2497859
0.2335159
0.2164532
0.1985308
0.1796697
0.1598298
0.1389436
0.1168549
0.09341664
0.0684697
0.04128973
0.2650464
0.2494557
0.2331269
0.2160009
0.1980095
0.1791221
0.1592859
0.138366
0.1162381
0.09275109
0.06677284
0.03937117
0.2799504
0.2650058
0.2493719
0.2329967
0.2158201
0.1978204
0.1789549
0.1591077
0.1381751
0.1160321
0.09166104
0.06567672
0.03790662
0.2945043
0.2801752
0.2652008
0.2495349
0.2331248
0.2159549
0.1979916
0.1791331
0.1592933
0.1383685
0.1154347
0.09109147
0.06494148
0.03676942
0.3087614
0.2950211
0.280676
0.2656844
0.2499995
0.2336111
0.2164925
0.1985538
0.179722
0.1599115
0.1382677
0.115363
0.09086041
0.06449431
0.03579325
0.3228174
0.3096454
0.2959055
0.2815606
0.2665687
0.2509238
0.2346051
0.2175322
0.199643
0.1808654
0.160401
0.1387824
0.1157033
0.09093623
0.06417547
0.03409956
0.3367792
0.3241604
0.3110087
0.2972907
0.2829688
0.2680404
0.2524891
0.2362431
0.2192492
0.2014464
0.182095
0.1617062
0.1399837
0.1166654
0.09132892
0.06261158
0.03226892
0.3506024
0.3385214
0.3259411
0.3128316
0.2991591
0.284923
0.270111
0.2546591
0.2385217
0.221647
0.2033873
0.184344
0.1643424
0.1433306
0.1213064
0.363796
0.352218
0.3401708
0.3276269
0.3145564
0.30096
0.2868284
0.272104
0.256747
0.2407128
0.2234159
0.2054752
0.1867429
0.1671715
0.1467152
0.3761524
0.3650364
0.3534776
0.341451
0.3289292
0.3159142
0.3023992
0.2883315
0.2736758
0.2583929
0.2419393
0.2249194
0.2071976
0.1887274
0.1694569
0.3876515
0.376958
0.365845
0.3542895
0.3422663
0.3297786
0.3168213
0.3033456
0.28932
0.2747095
0.2590026
0.2427816
0.2259209
0.208379
0.1901088
0.3983364
0.3880293
0.3773233
0.3661972
0.3546276
0.3426187
0.3301666
0.3172261
0.3037685
0.2897621
0.274722
0.2592081
0.2431035
0.2263718
0.2089722
0.134701
0.1128022
0.09014049
0.06969749
0.1546785
0.1337729
0.111741
0.08889298
0.06807278
0.172961
0.1529987
0.1319253
0.1096895
0.08654069
0.06511807
0.189769
0.1706558
0.1505004
0.1292046
0.1066954
0.08320408
0.06094702
0.2053973
0.1870518
0.1677328
0.1473449
0.1257794
0.1030005
0.07912971
0.0557673
0.2203498
0.2027195
0.1841791
0.1646422
0.1440068
0.1222136
0.09919063
0.07487868
0.05036108
0.235363
0.2184352
0.2006591
0.1819584
0.1622432
0.1414632
0.119539
0.09630487
0.07166842
0.04633824
0.2504166
0.2341757
0.2171446
0.1992562
0.1804323
0.1606337
0.1397941
0.1177591
0.09438723
0.06954193
0.04258615
0.2653216
0.2497432
0.2334276
0.2163158
0.1983397
0.1794692
0.1596516
0.1387526
0.1166487
0.0931914
0.06725437
0.03992656
0.2799504
0.2650058
0.2493719
0.2329967
0.2158201
0.1978204
0.1789549
0.1591077
0.1381751
0.1160321
0.09166104
0.06567672
0.03790662
0.2942516
0.2799116
0.2649259
0.2492479
0.2328249
0.2156409
0.1976623
0.1787871
0.158929
0.1379836
0.1150301
0.09067455
0.06451523
0.0363236
0.3082296
0.2944672
0.2800987
0.2650822
0.2493709
0.232954
0.2158045
0.1978324
0.178964
0.1591131
0.1374319
0.1145099
0.09001382
0.06367174
0.03499961
0.3219338
0.3087257
0.2949476
0.2805621
0.2655271
0.2498359
0.2334672
0.2163404
0.1983926
0.1795507
0.1590242
0.1373715
0.1143028
0.08961228
0.06301422
0.03331177
0.3354552
0.322783
0.3095746
0.295796
0.2814093
0.2664116
0.2507858
0.2344592
0.2173777
0.1994791
0.1800183
0.159514
0.137696
0.1143784
0.08932528
0.0618635
0.03188964
0.3488956
0.3367463
0.3240927
0.3109041
0.2971464
0.2828191
0.2679091
0.2523507
0.2360969
0.2190944
0.2006491
0.1812562
0.1606492
0.138601
0.1147461
0.08791819
0.06040137
0.03026129
0.3622117
0.3505717
0.3384583
0.3258438
0.3126975
0.2990202
0.2848023
0.2699849
0.2545272
0.2383836
0.2209432
0.2027855
0.1837523
0.1638042
0.1429474
0.3749299
0.3637671
0.3521586
0.3400791
0.3275008
0.314426
0.3008472
0.2867113
0.2719823
0.2566204
0.2400716
0.2229311
0.2050636
0.1864302
0.1669943
0.3868486
0.3761249
0.3649799
0.3533904
0.3413312
0.3288053
0.3158075
0.3022886
0.2882169
0.2735569
0.2577928
0.241506
0.2245709
0.2069482
0.1885937
0.3979467
0.3876251
0.3769039
0.3657616
0.354175
0.342148
0.3296767
0.316716
0.3032367
0.2892072
0.2741409
0.258598
0.2424616
0.2256957
0.20826
0.4082645
0.3983111
0.3879774
0.3772433
0.3660873
0.3545141
0.3425211
0.3300658
0.317122
0.3036607
0.2892198
0.274338
0.258906
0.242892
0.2262606
0.1554941
0.1346415
0.1126765
0.08993873
0.06940771
0.1744938
0.1546227
0.1336559
0.1115549
0.08862642
0.06778402
0.1919022
0.1729083
0.1528885
0.1317512
0.1094424
0.08627393
0.06487519
0.2079293
0.1897187
0.170551
0.1503355
0.1289721
0.1064468
0.08297873
0.06069821
0.222851
0.2053487
0.1869508
0.1675744
0.1471226
0.1255433
0.1027879
0.0788965
0.05550462
0.2371434
0.2203023
0.202621
0.1840249
0.1644265
0.1437788
0.1220083
0.09896661
0.07462988
0.05007229
0.2515077
0.2353177
0.2183414
0.2005127
0.1817542
0.1620283
0.1412708
0.1193308
0.09607728
0.07141479
0.04489897
0.2659249
0.2503737
0.2340871
0.2170065
0.1990642
0.1802309
0.1604545
0.1396018
0.1175513
0.09416015
0.0683166
0.04116896
0.280214
0.2652809
0.2496593
0.2332971
0.2161346
0.1981501
0.1793014
0.1594728
0.1385609
0.1164418
0.09209626
0.06613823
0.03841657
0.2942516
0.2799116
0.2649259
0.2492479
0.2328249
0.2156409
0.1976623
0.1787871
0.158929
0.1379836
0.1150301
0.09067455
0.06451523
0.0363236
0.307987
0.2942145
0.2798354
0.2648077
0.2490843
0.2326545
0.215491
0.1975038
0.1786188
0.1587497
0.1370518
0.1141224
0.0896287
0.06329454
0.03463296
0.3214229
0.308194
0.2943941
0.2799854
0.2649257
0.2492082
0.2328111
0.2156536
0.1976727
0.1787944
0.1582356
0.136571
0.1135167
0.08886993
0.06234048
0.03278107
0.3346058
0.3218996
0.3086553
0.2948387
0.2804118
0.2653709
0.2496989
0.2333227
0.2161875
0.1982307
0.1787148
0.1581837
0.1363829
0.1131506
0.08827895
0.06118118
0.03144819
0.3476219
0.3354222
0.3227151
0.3094696
0.2956512
0.2812592
0.2662798
0.2506468
0.2343123
0.2172222
0.1986777
0.1791817
0.1584934
0.1364586
0.1128894
0.08724318
0.06004864
0.03007357
0.3605686
0.348864
0.3366813
0.3239923
0.3107658
0.2970031
0.2826936
0.2677769
0.2522113
0.2359496
0.2183376
0.1998548
0.1802582
0.1593489
0.1368068
0.1115897
0.08592926
0.05864668
0.02872368
0.3734038
0.3621822
0.3505111
0.3383648
0.3257151
0.3125643
0.2989046
0.2846817
0.269859
0.2543956
0.2377138
0.2203717
0.202225
0.1832441
0.1634439
0.3856703
0.3749021
0.36371
0.3520705
0.339958
0.3273756
0.3143179
0.3007351
0.2865949
0.2718614
0.2560088
0.2396101
0.2225401
0.2047674
0.1862629
0.3971723
0.3868221
0.3760705
0.364896
0.3532753
0.3412122
0.3287028
0.3157015
0.3021789
0.2881032
0.2729836
0.2573796
0.2411743
0.2243339
0.2068215
0.4078884
0.3979213
0.3875731
0.3768237
0.3656514
0.3540612
0.3420501
0.3295757
0.3166115
0.3031286
0.2886631
0.2737543
0.2582928
0.2422471
0.2255826
0.4178559
0.4082401
0.398261
0.3879003
0.3771375
0.3659781
0.3544203
0.3424243
0.3299658
0.3170186
0.3031411
0.2888523
0.2740493
0.2587042
0.2427861
0.1752641
0.1554386
0.134525
0.1124913
0.08967363
0.06912116
0.1933545
0.1744415
0.1545135
0.1334834
0.1113102
0.08836272
0.0675452
0.2099557
0.1918525
0.1728049
0.152726
0.1315223
0.1091979
0.08605323
0.06463405
0.2252614
0.2078817
0.1896199
0.1703962
0.1501185
0.128742
0.1062409
0.0827547
0.06045078
0.2395288
0.2228049
0.2052532
0.1868015
0.1673658
0.1469024
0.1253468
0.1025756
0.07866365
0.05524206
0.2532085
0.2370983
0.2202088
0.2024752
0.1838216
0.1642127
0.1435876
0.1218018
0.09874119
0.07437949
0.04866434
0.2669687
0.2514646
0.2352286
0.2182026
0.2003196
0.1815517
0.161848
0.1410771
0.1191213
0.09584822
0.07017921
0.04340903
0.2807919
0.265884
0.2502893
0.2339559
0.2168244
0.1988737
0.1800621
0.1602744
0.1394086
0.1173425
0.09305465
0.06715691
0.03955648
0.2945043
0.2801752
0.2652008
0.2495349
0.2331248
0.2159549
0.1979916
0.1791331
0.1592933
0.1383685
0.1154347
0.09109147
0.06494148
0.03676942
0.307987
0.2942145
0.2798354
0.2648077
0.2490843
0.2326545
0.215491
0.1975038
0.1786188
0.1587497
0.1370518
0.1141224
0.0896287
0.06329454
0.03463296
0.3211899
0.3079515
0.2941416
0.2797224
0.2646515
0.248922
0.232512
0.2153406
0.1973447
0.17845
0.1578768
0.1362071
0.1131588
0.08852878
0.06202323
0.03251819
0.3341147
0.3213889
0.308124
0.2942857
0.2798358
0.2647704
0.249072
0.2326676
0.2155021
0.1975123
0.1779679
0.1574283
0.1356452
0.1124612
0.08766966
0.06070749
0.03110637
0.3468047
0.334573
0.3218321
0.3085509
0.2946948
0.2802625
0.2652401
0.2495611
0.2331773
0.2160339
0.1974401
0.1779224
0.1572555
0.1353075
0.1119187
0.08662559
0.0596302
0.02982149
0.3593425
0.3475902
0.3353571
0.3226145
0.309331
0.2955075
0.2811332
0.2661471
0.2505068
0.2341644
0.2164618
0.1978858
0.1782185
0.1573302
0.1350671
0.1109632
0.08560587
0.05843908
0.02861463
0.371821
0.3605382
0.3488016
0.336585
0.3238597
0.3106285
0.2968829
0.2825671
0.2676438
0.2520709
0.2352295
0.2175833
0.1989092
0.1790299
0.157661
0.1338537
0.1097513
0.08434453
0.05721484
0.02753488
0.3841992
0.3733754
0.362124
0.3504213
0.3382413
0.3255874
0.3124535
0.2987892
0.2845613
0.2697333
0.2537569
0.2371699
0.2198393
0.2017436
0.1829038
0.396036
0.3856435
0.3748472
0.3636253
0.3519541
0.3398378
0.3272719
0.3142104
0.3006237
0.2864792
0.2712771
0.2555687
0.2392379
0.2222588
0.2046089
0.4071412
0.3971468
0.3867697
0.3759898
0.3647852
0.3531609
0.3411138
0.3286011
0.3155962
0.30207
0.2875547
0.2725888
0.2570631
0.2409486
0.2242136
0.4174928
0.4078639
0.3978711
0.3874958
0.3767176
0.365542
0.3539671
0.341953
0.3294754
0.3165078
0.3026073
0.2882933
0.2734627
0.2580882
0.2421395
0.4271255
0.4178323
0.4081918
0.3981867
0.3877983
0.3770323
0.3658878
0.3543272
0.3423282
0.3298666
0.3165203
0.3027891
0.2885761
0.2738565
0.2586031
0.1940845
0.175212
0.1553298
0.1343532
0.1122477
0.08941136
0.06888418
0.2113356
0.1933052
0.1743389
0.1543522
0.1332564
0.1110681
0.08814464
0.06730821
0.2271908
0.2099088
0.191755
0.1726522
0.152512
0.1312956
0.1089956
0.08583415
0.06439466
0.2418279
0.2252163
0.2077883
0.189474
0.1701924
0.1499036
0.1285513
0.1060361
0.08253199
0.06020473
0.2554872
0.2394851
0.2227143
0.205112
0.1866048
0.1671591
0.1467192
0.1251507
0.1023637
0.07843119
0.05397267
0.2685956
0.2531655
0.2370095
0.2200706
0.202283
0.1836201
0.1640334
0.1433952
0.1215939
0.09851434
0.07315955
0.04718689
0.2817916
0.2669276
0.2513797
0.2350966
0.2180195
0.2001282
0.1813819
0.1616665
0.1408821
0.1189104
0.09473125
0.06895976
0.0416391
0.2950584
0.2807529
0.2658036
0.2501644
0.2337828
0.2166438
0.1987142
0.1798925
0.1600934
0.1392144
0.1163252
0.09201002
0.06588031
0.03775814
0.3082296
0.2944672
0.2800987
0.2650822
0.2493709
0.232954
0.2158045
0.1978324
0.178964
0.1591131
0.1374319
0.1145099
0.09001382
0.06367174
0.03499961
0.3211899
0.3079515
0.2941416
0.2797224
0.2646515
0.248922
0.232512
0.2153406
0.1973447
0.17845
0.1578768
0.1362071
0.1131588
0.08852878
0.06202323
0.03251819
0.3338907
0.3211559
0.3078817
0.2940335
0.2795732
0.2644966
0.2487863
0.2323691
0.2151898
0.1971851
0.177628
0.1570849
0.1353092
0.1121441
0.08738207
0.06046838
0.03092554
0.3463323
0.334082
0.3213217
0.3080202
0.2941425
0.2796873
0.2646404
0.2489353
0.2325236
0.21535
0.1967307
0.1772071
0.1565596
0.1346604
0.1113525
0.08619512
0.0592994
0.02960737
0.3585559
0.3467732
0.3345082
0.321732
0.308413
0.2945519
0.2801375
0.2651086
0.2494226
0.2330312
0.215284
0.1966903
0.1770467
0.156245
0.1341568