/*--------------------------------*- C++ -*----------------------------------*\
| =========                 |                                                 |
| \\      /  F ield         | OpenFOAM: The Open Source CFD Toolbox           |
|  \\    /   O peration     | Version:  2306                                  |
|   \\  /    A nd           | Website:  www.openfoam.com                      |
|    \\/     M anipulation  |                                                 |
\*---------------------------------------------------------------------------*/
FoamFile
{
    version     2.0;
    format      ascii;
    arch        "LSB;label=32;scalar=64";
    class       volScalarField;
    location    "0.6/fuel";
    object      X.H2;
}
// * * * * * * * * * * * * * * * * * * * * * * * * * * * * * * * * * * * * * //

dimensions      [0 0 0 0 0 0 0];

internalField   nonuniform List<scalar> 
16000
(
0.9298549
0.9311841
0.9096524
0.9299318
0.9338328
0.9106958
0.9312615
0.8871336
0.9097225
0.9300818
0.9377239
0.9127736
0.9339115
0.8880682
0.9107663
0.9314128
0.865299
0.8871978
0.9098595
0.9303025
0.9425789
0.9158247
0.9378049
0.8899299
0.9128449
0.9340653
0.8661674
0.8881328
0.9109041
0.9316352
0.8445059
0.8653585
0.8873235
0.9100613
0.9305923
0.9475912
0.9196344
0.9426637
0.8926663
0.9158974
0.9379631
0.8678964
0.8899951
0.9129844
0.9342915
0.8453215
0.8662271
0.888259
0.911107
0.9319272
0.8247359
0.8445614
0.865475
0.8875087
0.9103264
0.9308788
0.9512727
0.9235829
0.947681
0.8960879
0.9197095
0.9428291
0.8704377
0.8927326
0.9160397
0.9381957
0.8469451
0.8679567
0.8901226
0.9131896
0.9345884
0.8255062
0.8453773
0.8663441
0.8884451
0.9113736
0.932216
0.8059155
0.824788
0.8446702
0.8656468
0.8877523
0.9105886
0.9311158
0.9535827
0.926522
0.9513646
0.8996401
0.9236612
0.9478563
0.8736153
0.8961561
0.9198562
0.9430722
0.8493309
0.8704989
0.8928623
0.916249
0.938501
0.827039
0.8470013
0.8680747
0.8903105
0.9134593
0.9348819
0.8066455
0.8255585
0.8454865
0.8665166
0.8886898
0.9116373
0.9324548
0.7879708
0.8059647
0.8248903
0.8448309
0.8658729
0.8879933
0.9108055
0.931351
0.9548883
0.9283985
0.9536753
0.9022892
0.9266013
0.9515439
0.8769145
0.8997108
0.9238142
0.9481141
0.8523134
0.873678
0.8962893
0.9200722
0.9433914
0.8292908
0.8493879
0.8706187
0.8930534
0.9165239
0.9388028
0.8080978
0.8270917
0.8471115
0.8682488
0.8905576
0.9137261
0.9351248
0.7886644
0.8066948
0.8256611
0.8456478
0.8667436
0.8889319
0.9118554
0.9326918
0.7708347
0.7880173
0.8060612
0.8250413
0.8450423
0.8660967
0.8881926
0.9110208
0.9315843
0.9554739
0.9294774
0.954981
0.9039846
0.9284778
0.9538557
0.879376
0.9023605
0.9267562
0.9518074
0.8554096
0.8769794
0.8998491
0.9240394
0.9484525
0.8321053
0.8523717
0.8738009
0.8964857
0.920356
0.943707
0.810231
0.8293442
0.8494996
0.8707954
0.8933046
0.9167959
0.939053
0.7900443
0.8081475
0.8271951
0.847274
0.8684777
0.8908021
0.9139468
0.935366
0.7714953
0.7887111
0.8067916
0.8258126
0.84586
0.8669683
0.8891322
0.9120718
0.932927
0.7544479
0.7708788
0.7881086
0.8062037
0.8252402
0.8452517
0.8662818
0.8883904
0.9112343
0.9318158
0.9554739
0.9299674
0.9555667
0.9049617
0.9295566
0.9551618
0.8809528
0.9040558
0.9286329
0.9541209
0.8577202
0.8794414
0.9025001
0.9269843
0.9521535
0.8350267
0.85547
0.8771067
0.9000531
0.9243355
0.9487873
0.8128968
0.8321599
0.8524862
0.8739822
0.896744
0.9206367
0.9439699
0.7920707
0.8102813
0.829449
0.8496645
0.8710279
0.8935532
0.9170213
0.9393018
0.7728092
0.7900912
0.808245
0.8273478
0.847488
0.8687044
0.8910044
0.9141659
0.9356053
0.7550782
0.7715396
0.7888027
0.8069347
0.8260122
0.8460702
0.8671542
0.8893309
0.9122865
0.9331603
0.7387581
0.7544899
0.7709655
0.7882436
0.8063915
0.8254372
0.8454249
0.8664654
0.8885867
0.9114462
0.932928
0.9548883
0.9299674
0.9555667
0.9054064
0.9300466
0.9557476
0.8818624
0.9050327
0.9297114
0.9554275
0.8592011
0.881018
0.9041952
0.9288611
0.954469
0.837207
0.857781
0.8795697
0.9027059
0.927284
0.9524957
0.8156635
0.8350831
0.8555883
0.8772945
0.9003212
0.9246284
0.9490688
0.7946027
0.8129482
0.8322672
0.8526551
0.8742206
0.8969995
0.9208703
0.9442327
0.7747386
0.7921183
0.8103801
0.8296038
0.8498815
0.871258
0.8937591
0.9172453
0.9395492
0.7563317
0.7728538
0.7901835
0.8083891
0.8275489
0.8476999
0.868892
0.8912052
0.9143833
0.935843
0.7393604
0.7551203
0.7716266
0.7889382
0.8071231
0.8262099
0.8462441
0.8673386
0.8895281
0.9124996
0.9342812
0.7237187
0.738798
0.7545724
0.7710938
0.7884216
0.8065777
0.8256001
0.8455968
0.8666477
0.8887814
0.9124649
0.9336857
0.9535827
0.9294774
0.954981
0.9054064
0.9300466
0.9557476
0.8822767
0.9054773
0.9302012
0.9560135
0.860056
0.8819274
0.9051717
0.9299392
0.9557761
0.8386049
0.8592616
0.8811459
0.9044006
0.9291608
0.9548133
0.8177285
0.8372638
0.8579001
0.8797588
0.9029765
0.9275805
0.9527834
0.7972303
0.8157166
0.835194
0.8557631
0.8775416
0.9005867
0.9248741
0.9493526
0.777149
0.7946513
0.8130492
0.8324256
0.8528774
0.8744567
0.8972121
0.9211035
0.9444954
0.7581721
0.7747837
0.7922117
0.810526
0.8298076
0.8500964
0.8714487
0.8939639
0.917468
0.9397953
0.7405581
0.756374
0.7729413
0.7903199
0.8085789
0.8277481
0.8478752
0.8690782
0.8914045
0.9145992
0.9369849
0.7242951
0.7394005
0.7552031
0.7717552
0.7891167
0.8073099
0.8263735
0.8464166
0.8675216
0.8897237
0.913524
0.9350481
0.7092884
0.7237569
0.7388767
0.7546944
0.7712628
0.788598
0.8067316
0.8257618
0.8457673
0.8668284
0.8897181
0.9131578
0.9342559
0.9512727
0.9283985
0.9536753
0.9049617
0.9295566
0.9551618
0.8822767
0.9054773
0.9302012
0.9560135
0.8604455
0.8823416
0.9056161
0.9304289
0.9563623
0.8394121
0.8601163
0.8820548
0.9053765
0.9302385
0.9561209
0.8190527
0.8386614
0.8593803
0.8813345
0.9046707
0.9294574
0.9551021
0.7991915
0.8177818
0.8373753
0.8580759
0.8800078
0.9032443
0.9278292
0.9530737
0.7796502
0.7972805
0.8158209
0.8353578
0.8559932
0.8777864
0.9008094
0.9251213
0.9496389
0.7604712
0.7771951
0.7947468
0.8131985
0.8326342
0.8530976
0.8746532
0.8974244
0.9213363
0.9447579
0.7423165
0.758215
0.7748723
0.7923498
0.8107183
0.8300095
0.8502744
0.8716382
0.8941674
0.9176894
0.9409794
0.725441
0.7405984
0.7564573
0.7730708
0.7904997
0.808767
0.8279129
0.8480493
0.869263
0.8916024
0.9156374
0.9377788
0.7098406
0.7243334
0.7394794
0.7553255
0.7719248
0.7892937
0.8074643
0.8265357
0.8465877
0.8677032
0.890665
0.9142232
0.935628
0.6954298
0.7093248
0.7238319
0.7389931
0.7548554
0.7714305
0.7887439
0.8068844
0.8259222
0.8459364
0.8676986
0.8903547
0.913679
0.9346371
0.9475912
0.926522
0.9513646
0.9039846
0.9284778
0.9538557
0.8818624
0.9050327
0.9297114
0.9554275
0.8604455
0.8823416
0.9056161
0.9304289
0.9563623
0.8397801
0.8605057
0.8824688
0.9058205
0.9307279
0.9567072
0.8198176
0.8394684
0.8602345
0.8822428
0.9056458
0.9305346
0.9564097
0.8004494
0.8191058
0.8387724
0.8595555
0.8815826
0.904938
0.9297058
0.9553929
0.7815171
0.7992419
0.8178867
0.8375399
0.8583074
0.8802543
0.903469
0.9280796
0.9533664
0.7628566
0.7796977
0.797379
0.8159751
0.8355735
0.8562212
0.8779917
0.9010334
0.9253701
0.9499277
0.7445128
0.7605149
0.7772857
0.794888
0.8133952
0.8328409
0.8532808
0.8748493
0.8976363
0.9215688
0.9460273
0.7271234
0.7423573
0.7582992
0.7750034
0.7925318
0.8109088
0.8301767
0.8504514
0.8718266
0.8943697
0.9187555
0.9418474
0.7109383
0.7254795
0.7406778
0.7565805
0.7732415
0.7906779
0.8089226
0.8280765
0.848222
0.8694464
0.8925545
0.9163552
0.9383901
0.6959594
0.7098771
0.7244086
0.7395961
0.7554869
0.772093
0.7894401
0.8076176
0.8266967
0.8467576
0.8685771
0.8913067
0.914751
0.9360174
0.6821093
0.6954647
0.7093966
0.7239431
0.7391466
0.7550151
0.7715691
0.7888887
0.8070359
0.8260814
0.8467509
0.8682895
0.8908333
0.9140272
0.9348281
0.9425789
0.9235829
0.947681
0.9022892
0.9266013
0.9515439
0.8809528
0.9040558
0.9286329
0.9541209
0.860056
0.8819274
0.9051717
0.9299392
0.9557761
0.8397801
0.8605057
0.8824688
0.9058205
0.9307279
0.9567072
0.8201664
0.8398363
0.8606236
0.8826563
0.9060894
0.9310237
0.9569959
0.8011761
0.8198705
0.839579
0.860409
0.88249
0.9059123
0.9307822
0.9567001
0.7827146
0.8004995
0.8192102
0.8389364
0.8597861
0.8818284
0.9051618
0.9299553
0.9556857
0.764637
0.7815648
0.7993409
0.8180416
0.8377568
0.8585368
0.880461
0.9036951
0.9283316
0.9536618
0.7467915
0.7629017
0.7797912
0.7975248
0.8161784
0.8357873
0.8564124
0.8781982
0.9012588
0.9256205
0.9513357
0.7292245
0.7445545
0.760601
0.7774196
0.7950741
0.8135901
0.8330129
0.8534638
0.8750452
0.8978479
0.9226928
0.9470964
0.7125499
0.7271623
0.7424376
0.7584239
0.7751762
0.7927123
0.8110667
0.8303431
0.8506274
0.8720139
0.8953447
0.9195259
0.942558
0.6970121
0.7109751
0.7255553
0.7407952
0.756743
0.7734108
0.7908253
0.8090771
0.828239
0.8483935
0.8703297
0.893212
0.9169053
0.938808
0.6826177
0.6959944
0.7099491
0.7245201
0.7397501
0.7556471
0.772232
0.7895853
0.8077697
0.8268565
0.8475753
0.8691725
0.8917909
0.915105
0.9362131
0.6692964
0.6821427
0.6955334
0.7095029
0.7240898
0.739299
0.7551471
0.7717067
0.7890323
0.8071862
0.8268478
0.8473036
0.8687337
0.8911531
0.9142016
0.9377239
0.9196344
0.9426637
0.8996401
0.9236612
0.9478563
0.879376
0.9023605
0.9267562
0.9518074
0.8592011
0.881018
0.9041952
0.9288611
0.954469
0.8394121
0.8601163
0.8820548
0.9053765
0.9302385
0.9561209
0.8201664
0.8398363
0.8606236
0.8826563
0.9060894
0.9310237
0.9569959
0.8015075
0.8202191
0.8399465
0.8607977
0.8829031
0.9063555
0.9312709
0.957286
0.7834066
0.801226
0.8199744
0.8397422
0.8606386
0.8827348
0.9061352
0.9310307
0.956992
0.7657792
0.7827621
0.8005981
0.8193644
0.8391523
0.8600146
0.8820341
0.9053868
0.9302061
0.9559804
0.7484923
0.7646823
0.7816586
0.7994873
0.8182458
0.8379717
0.8587292
0.8806692
0.9039227
0.9285852
0.955101
0.7314044
0.7468345
0.7629905
0.7799294
0.797717
0.8163799
0.8359666
0.8566048
0.8784061
0.9014857
0.9268404
0.9528131
0.7145624
0.7292643
0.7446365
0.7607283
0.7775962
0.7952586
0.8137523
0.8331846
0.8536464
0.8752407
0.8988718
0.9236091
0.9481224
0.6985575
0.712587
0.7272389
0.7425564
0.7585883
0.7753475
0.7928617
0.8112236
0.8305084
0.8508023
0.8729171
0.8960477
0.9201478
0.9430766
0.6836282
0.6970473
0.7110475
0.7256674
0.7409502
0.7569042
0.7735509
0.7909717
0.8092305
0.8284002
0.8492195
0.8709391
0.8937155
0.9172797
0.939021
0.6697848
0.6826512
0.6960633
0.7100557
0.7246672
0.7399029
0.7557795
0.7723701
0.7897295
0.8079206
0.8276259
0.8481322
0.8696218
0.8921156
0.9152827
0.656963
0.6693284
0.6822086
0.6956352
0.7096433
0.7242354
0.7394249
0.7552781
0.7718432
0.7891748
0.8079105
0.8273678
0.8477192
0.8690305
0.8913132
0.9338328
0.9158247
0.9378049
0.8960879
0.9197095
0.9428291
0.8769145
0.8997108
0.9238142
0.9481141
0.8577202
0.8794414
0.9025001
0.9269843
0.9521535
0.8386049
0.8592616
0.8811459
0.9044006
0.9291608
0.9548133
0.8198176
0.8394684
0.8602345
0.8822428
0.9056458
0.9305346
0.9564097
0.8015075
0.8202191
0.8399465
0.8607977
0.8829031
0.9063555
0.9312709
0.957286
0.7837222
0.8015573
0.8203228
0.8401094
0.8610269
0.8831474
0.9065779
0.9315188
0.9575774
0.7664393
0.7834539
0.8013241
0.820128
0.8399572
0.8608661
0.8829396
0.9063589
0.9312801
0.9572854
0.7495834
0.7658243
0.7828554
0.8007438
0.8195677
0.8393663
0.8602059
0.8822409
0.9056128
0.9304581
0.9574138
0.7330313
0.7485354
0.7647714
0.7817974
0.7996804
0.8184483
0.838152
0.8589229
0.8808787
0.9041518
0.9298208
0.956591
0.7166502
0.7314453
0.746919
0.7631219
0.7801117
0.7979076
0.8165489
0.8361471
0.8567985
0.8786153
0.9025919
0.9280571
0.9546354
0.7004872
0.7146004
0.7293425
0.7447578
0.7608963
0.7777713
0.7954121
0.8139143
0.8333561
0.8538288
0.8761873
0.8997033
0.9244631
0.9490278
0.6851115
0.698593
0.7126603
0.7273523
0.7427131
0.7587514
0.7754895
0.7930104
0.8113797
0.8306727
0.8516462
0.8735679
0.8966144
0.9205957
0.9433571
0.6707557
0.6836619
0.6971166
0.7111548
0.7258154
0.7411039
0.7570375
0.7736899
0.791117
0.8093827
0.829177
0.8497892
0.8714058
0.894058
0.9174698
0.6574327
0.669817
0.6827172
0.6961654
0.7101964
0.7248132
0.7400292
0.7559109
0.772507
0.7898725
0.8086475
0.8281496
0.8485524
0.869923
0.8922786
0.6450838
0.6569938
0.6693916
0.6823062
0.6957696
0.7097825
0.7243557
0.7395499
0.7554081
0.7719786
0.7898614
0.8084017
0.8277588
0.8479969
0.8691791
0.9311841
0.9127736
0.9339115
0.8926663
0.9158974
0.9379631
0.8736153
0.8961561
0.9198562
0.9430722
0.8554096
0.8769794
0.8998491
0.9240394
0.9484525
0.837207
0.857781
0.8795697
0.9027059
0.927284
0.9524957
0.8190527
0.8386614
0.8593803
0.8813345
0.9046707
0.9294574
0.9551021
0.8011761
0.8198705
0.839579
0.860409
0.88249
0.9059123
0.9307822
0.9567001
0.7837222
0.8015573
0.8203228
0.8401094
0.8610269
0.8831474
0.9065779
0.9315188
0.9575774
0.7667403
0.7837693
0.8016552
0.820476
0.8403239
0.8612539
0.8833516
0.9068009
0.9317674
0.9578701
0.7502141
0.7664841
0.7835468
0.8014692
0.8203303
0.8401702
0.8610564
0.8831451
0.9065834
0.9315303
0.9587103
0.7340751
0.7496263
0.7659129
0.7829935
0.8009358
0.8197691
0.8395455
0.8603982
0.8824487
0.9058399
0.9316834
0.958831
0.7182084
0.7330724
0.7486203
0.7649034
0.7819805
0.7998718
0.8186181
0.8383335
0.8591179
0.8810896
0.9052687
0.9310402
0.9583609
0.702489
0.7166893
0.7315259
0.7470442
0.7632953
0.7802926
0.7980675
0.816719
0.8363287
0.8569934
0.8796363
0.9036907
0.9295037
0.9569391
0.6869637
0.7005235
0.7146751
0.7294583
0.7449179
0.7610629
0.777917
0.7955654
0.814076
0.8335273
0.8547124
0.8769558
0.9004766
0.9251973
0.949648
0.6721806
0.6851455
0.6986631
0.7127687
0.727502
0.7428686
0.7588865
0.7756306
0.7931582
0.8115348
0.8314658
0.852254
0.8740924
0.897022
0.9208354
0.6583661
0.670788
0.6837283
0.6972193
0.7112963
0.7259623
0.7412311
0.7571699
0.773828
0.7912612
0.8101164
0.8297126
0.8502253
0.8717232
0.8942319
0.6455358
0.6574635
0.6698803
0.6828151
0.6963001
0.7103361
0.7249339
0.7401546
0.7560413
0.7726429
0.7905615
0.8091422
0.8285448
0.8488341
0.8700742
0.6336352
0.6451134
0.6570544
0.6694852
0.682435
0.6959031
0.7098977
0.7244752
0.7396739
0.755537
0.7726311
0.790327
0.808771
0.8280199
0.8481359
0.9298549
0.9106958
0.9312615
0.8899299
0.9128449
0.9340653
0.8704377
0.8927326
0.9160397
0.9381957
0.8523134
0.873678
0.8962893
0.9200722
0.9433914
0.8350267
0.85547
0.8771067
0.9000531
0.9243355
0.9487873
0.8177285
0.8372638
0.8579001
0.8797588
0.9029765
0.9275805
0.9527834
0.8004494
0.8191058
0.8387724
0.8595555
0.8815826
0.904938
0.9297058
0.9553929
0.7834066
0.801226
0.8199744
0.8397422
0.8606386
0.8827348
0.9061352
0.9310307
0.956992
0.7667403
0.7837693
0.8016552
0.820476
0.8403239
0.8612539
0.8833516
0.9068009
0.9317674
0.9578701
0.7505017
0.7667851
0.783862
0.8017998
0.8206778
0.8405364
0.8614437
0.8835565
0.9070246
0.9320168
0.9592906
0.7346784
0.7502568
0.7665724
0.7836842
0.8016603
0.8205308
0.8403484
0.8612474
0.8833513
0.9068086
0.9327456
0.9600734
0.7192081
0.734116
0.7497107
0.7660441
0.7831756
0.8011263
0.8199379
0.8397256
0.8605914
0.8826575
0.9069454
0.9328431
0.9604435
0.703983
0.7182476
0.7331533
0.7487459
0.7650774
0.7821621
0.8000324
0.8187891
0.8385163
0.8593141
0.8821187
0.9063683
0.9324406
0.9604275
0.6888849
0.7025264
0.7167663
0.7316454
0.7472094
0.7634673
0.7804443
0.7982285
0.8168902
0.8365116
0.8579453
0.8806507
0.9049942
0.9312837
0.9599835
0.6739599
0.6869984
0.700595
0.7147858
0.7296111
0.7450767
0.7612016
0.7780625
0.7957185
0.8142375
0.8343571
0.8554296
0.8776705
0.9011397
0.9256891
0.6597361
0.6722133
0.6852127
0.6987669
0.7129118
0.7276506
0.7429975
0.7590208
0.775771
0.7933051
0.8122835
0.8320369
0.8527439
0.8744696
0.89724
0.6464339
0.6583971
0.6708517
0.6838267
0.6973549
0.7114369
0.7260838
0.7413574
0.7573013
0.773965
0.7919565
0.8106221
0.8301226
0.850522
0.8718843
0.6340703
0.6455654
0.6575244
0.6699742
0.6829443
0.6964339
0.7104516
0.7250537
0.740279
0.7561707
0.7732977
0.7910303
0.8095154
0.8288097
0.8489755
0.6225954
0.6336636
0.6451717
0.6571444
0.669609
0.682563
0.6960134
0.710012
0.7245937
0.7397969
0.7561585
0.7730735
0.7906769
0.8090177
0.8281507
0.9096524
0.9299318
0.8880682
0.9107663
0.9314128
0.8678964
0.8899951
0.9129844
0.9342915
0.8493309
0.8704989
0.8928623
0.916249
0.938501
0.8321053
0.8523717
0.8738009
0.8964857
0.920356
0.943707
0.8156635
0.8350831
0.8555883
0.8772945
0.9003212
0.9246284
0.9490688
0.7991915
0.8177818
0.8373753
0.8580759
0.8800078
0.9032443
0.9278292
0.9530737
0.7827146
0.8004995
0.8192102
0.8389364
0.8597861
0.8818284
0.9051618
0.9299553
0.9556857
0.7664393
0.7834539
0.8013241
0.820128
0.8399572
0.8608661
0.8829396
0.9063589
0.9312801
0.9572854
0.7505017
0.7667851
0.783862
0.8017998
0.8206778
0.8405364
0.8614437
0.8835565
0.9070246
0.9320168
0.9592906
0.7349536
0.7505443
0.7668731
0.7839991
0.8019905
0.8208779
0.8407141
0.861634
0.8837619
0.9072489
0.9332272
0.9606288
0.719786
0.7347191
0.7503407
0.7667029
0.7838654
0.8018499
0.8206986
0.8405272
0.8614391
0.8835582
0.9079037
0.9338618
0.9615834
0.7049416
0.7192471
0.7341964
0.7498356
0.7662172
0.7833562
0.8012858
0.8201075
0.8399066
0.8607856
0.8836748
0.90799
0.9341197
0.9622419
0.6903187
0.7040205
0.7183249
0.7332731
0.7489116
0.76525
0.7823144
0.8001941
0.8189613
0.8387002
0.8602725
0.8831325
0.9076295
0.9340341
0.9627961
0.6758053
0.6889207
0.7026001
0.7168805
0.7318031
0.7473733
0.7636116
0.7805971
0.7983905
0.8170626
0.8374049
0.8588918
0.8818549
0.9065951
0.9335948
0.965006
0.6614467
0.6739932
0.6870669
0.700701
0.7149319
0.7297628
0.7452089
0.76134
0.7782079
0.7958714
0.8150204
0.8350307
0.8560968
0.8782835
0.9015833
0.6477519
0.6597674
0.6722776
0.6853122
0.698904
0.7130539
0.7277736
0.7431256
0.7591544
0.7759105
0.7940143
0.8128225
0.8324973
0.8530963
0.8746714
0.634935
0.6464636
0.6584583
0.6709461
0.6839567
0.6974895
0.7115531
0.7262045
0.7414827
0.7574317
0.7746255
0.7924355
0.8110093
0.8304015
0.8506726
0.6230146
0.6340988
0.6456238
0.6576145
0.6700982
0.6830726
0.6965446
0.7105662
0.7251726
0.7404024
0.7567943
0.773743
0.7913839
0.8097656
0.8289427
0.6119444
0.6226227
0.6337197
0.6452581
0.6572632
0.6697318
0.6826689
0.6961229
0.7101254
0.7247112
0.74039
0.7565798
0.7734061
0.7909107
0.8091412
0.8871336
0.9097225
0.9300818
0.8661674
0.8881328
0.9109041
0.9316352
0.8469451
0.8679567
0.8901226
0.9131896
0.9345884
0.8292908
0.8493879
0.8706187
0.8930534
0.9165239
0.9388028
0.8128968
0.8321599
0.8524862
0.8739822
0.896744
0.9206367
0.9439699
0.7972303
0.8157166
0.835194
0.8557631
0.8775416
0.9005867
0.9248741
0.9493526
0.7815171
0.7992419
0.8178867
0.8375399
0.8583074
0.8802543
0.903469
0.9280796
0.9533664
0.7657792
0.7827621
0.8005981
0.8193644
0.8391523
0.8600146
0.8820341
0.9053868
0.9302061
0.9559804
0.7502141
0.7664841
0.7835468
0.8014692
0.8203303
0.8401702
0.8610564
0.8831451
0.9065834
0.9315303
0.9587103
0.7349536
0.7505443
0.7668731
0.7839991
0.8019905
0.8208779
0.8407141
0.861634
0.8837619
0.9072489
0.9332272
0.9606288
0.7200496
0.7349942
0.7506281
0.7670033
0.7841799
0.8021796
0.8210451
0.8408923
0.8618249
0.8839679
0.908339
0.9343233
0.9620934
0.7054957
0.7198248
0.7347992
0.7504651
0.7668752
0.7840451
0.8020084
0.8208669
0.8407067
0.8616315
0.8845653
0.9089085
0.9350585
0.9632306
0.6912386
0.7049789
0.719324
0.7343156
0.7500005
0.7663889
0.7835075
0.8014462
0.820278
0.8400885
0.8617323
0.884637
0.9091396
0.9355057
0.9642067
0.6771826
0.6903546
0.7040945
0.7184394
0.7334313
0.7490762
0.7653949
0.7824678
0.800357
0.8191346
0.839599
0.8612176
0.8842967
0.9090638
0.9358245
0.9659004
0.6632208
0.6758396
0.6889913
0.7027093
0.7170312
0.7319596
0.7475109
0.7637569
0.7807508
0.7985536
0.817905
0.8382938
0.8600163
0.8833346
0.9086711
0.9373884
0.9677311
0.6493976
0.6614786
0.6740589
0.6871684
0.7008409
0.715077
0.729889
0.7453409
0.7614783
0.778353
0.7966127
0.815656
0.8356576
0.8566694
0.8786936
0.636204
0.647782
0.6598292
0.6723731
0.6854436
0.69904
0.7131716
0.727896
0.743253
0.7592872
0.7765841
0.7945248
0.8132571
0.8328285
0.8532848
0.6238476
0.6349636
0.6465224
0.658549
0.6710708
0.6840858
0.6976008
0.7116685
0.7263242
0.7416071
0.7580607
0.7750806
0.7928024
0.8112726
0.8305431
0.6123485
0.623042
0.634155
0.6457105
0.6577337
0.6702214
0.6831787
0.6966544
0.71068
0.7252905
0.7409974
0.7572184
0.7740791
0.791621
0.8098912
0.6016636
0.6119707
0.6226767
0.6338028
0.6453724
0.6573813
0.6698334
0.6827739
0.6962315
0.7102379
0.725278
0.7407919
0.7568965
0.7736282
0.7910278
0.865299
0.8871978
0.9098595
0.9303025
0.8453215
0.8662271
0.888259
0.911107
0.9319272
0.827039
0.8470013
0.8680747
0.8903105
0.9134593
0.9348819
0.810231
0.8293442
0.8494996
0.8707954
0.8933046
0.9167959
0.939053
0.7946027
0.8129482
0.8322672
0.8526551
0.8742206
0.8969995
0.9208703
0.9442327
0.7796502
0.7972805
0.8158209
0.8353578
0.8559932
0.8777864
0.9008094
0.9251213
0.9496389
0.764637
0.7815648
0.7993409
0.8180416
0.8377568
0.8585368
0.880461
0.9036951
0.9283316
0.9536618
0.7495834
0.7658243
0.7828554
0.8007438
0.8195677
0.8393663
0.8602059
0.8822409
0.9056128
0.9304581
0.9574138
0.7346784
0.7502568
0.7665724
0.7836842
0.8016603
0.8205308
0.8403484
0.8612474
0.8833513
0.9068086
0.9327456
0.9600734
0.7200496
0.7349942
0.7506281
0.7670033
0.7841799
0.8021796
0.8210451
0.8408923
0.8618249
0.8839679
0.908339
0.9343233
0.9620934
0.7057484
0.7200884
0.7350741
0.7507521
0.7671751
0.7843591
0.8023377
0.8212129
0.841071
0.8620164
0.8849699
0.9093254
0.9354848
0.9636764
0.6917704
0.7055328
0.7199013
0.7349178
0.7506291
0.767046
0.7841955
0.8021676
0.821036
0.8408869
0.8625681
0.8854901
0.9099862
0.9363283
0.9650004
0.6780662
0.6912743
0.7050524
0.7194379
0.7344729
0.7501641
0.7665328
0.7836596
0.8016074
0.8204493
0.8409758
0.8626285
0.8856972
0.9103877
0.9369858
0.9666882
0.6645448
0.677217
0.6904254
0.704204
0.7185907
0.7335884
0.7492142
0.7655408
0.7826223
0.8005209
0.8199817
0.840486
0.862304
0.8856216
0.9106747
0.9381365
0.9681104
0.6511044
0.6632537
0.6759073
0.6890959
0.7028536
0.7171809
0.7320909
0.7476493
0.7639031
0.7809056
0.7993509
0.8187438
0.8393508
0.861399
0.8852539
0.9120818
0.9395986
0.9697387
0.6377883
0.6494283
0.6615417
0.6741562
0.6873025
0.7009798
0.7151977
0.7300151
0.7454728
0.7616164
0.7790568
0.7972145
0.8162477
0.8361958
0.8570526
0.6250701
0.6362329
0.6478414
0.6599209
0.6724992
0.685574
0.6991528
0.7132887
0.7280177
0.7433796
0.7599284
0.7770689
0.7949364
0.8135698
0.8330057
0.6131514
0.6238751
0.6350201
0.6466096
0.6586688
0.6711947
0.6841925
0.6977114
0.7117831
0.7264431
0.7422072
0.758494
0.7754291
0.7930518
0.8114063
0.6020533
0.6123749
0.6230961
0.6342384
0.645825
0.657852
0.6703233
0.683284
0.6967633
0.7107928
0.7258591
0.741402
0.7575384
0.7743043
0.79174
0.5917355
0.6016889
0.6120226
0.6227567
0.6339127
0.6454859
0.6574789
0.6699342
0.682878
0.6963393
0.7107802
0.725662
0.741094
0.757108
0.7737394
0.8445059
0.8653585
0.8873235
0.9100613
0.9305923
0.8255062
0.8453773
0.8663441
0.8884451
0.9113736
0.932216
0.8080978
0.8270917
0.8471115
0.8682488
0.8905576
0.9137261
0.9351248
0.7920707
0.8102813
0.829449
0.8496645
0.8710279
0.8935532
0.9170213
0.9393018
0.777149
0.7946513
0.8130492
0.8324256
0.8528774
0.8744567
0.8972121
0.9211035
0.9444954
0.7628566
0.7796977
0.797379
0.8159751
0.8355735
0.8562212
0.8779917
0.9010334
0.9253701
0.9499277
0.7484923
0.7646823
0.7816586
0.7994873
0.8182458
0.8379717
0.8587292
0.8806692
0.9039227
0.9285852
0.955101
0.7340751
0.7496263
0.7659129
0.7829935
0.8009358
0.8197691
0.8395455
0.8603982
0.8824487
0.9058399
0.9316834
0.958831
0.719786
0.7347191
0.7503407
0.7667029
0.7838654
0.8018499
0.8206986
0.8405272
0.8614391
0.8835582
0.9079037
0.9338618
0.9615834
0.7057484
0.7200884
0.7350741
0.7507521
0.7671751
0.7843591
0.8023377
0.8212129
0.841071
0.8620164
0.8849699
0.9093254
0.9354848
0.9636764
0.692013
0.7057855
0.7201646
0.7351923
0.7509157
0.7673455
0.784509
0.8024962
0.8213812
0.8412503
0.8629482
0.8858776
0.9103713
0.9367055
0.965367
0.6785771
0.691806
0.7056059
0.7200146
0.7350743
0.7507918
0.7671889
0.7843464
0.8023273
0.8212056
0.8417644
0.863429
0.8864833
0.9111301
0.9376595
0.9672189
0.6653942
0.6781004
0.6913447
0.7051613
0.7195882
0.7346291
0.7503011
0.7666773
0.7838125
0.8017693
0.8212852
0.8418163
0.8636171
0.8868494
0.9117211
0.9388188
0.9685518
0.6523781
0.6645778
0.6772849
0.6905304
0.7043488
0.7187408
0.7337202
0.7493532
0.7656877
0.7827778
0.8013223
0.8208183
0.8415066
0.8635414
0.8871106
0.9127568
0.9399514
0.9699264
0.6394314
0.651136
0.6633187
0.6760077
0.6892342
0.7029969
0.7173064
0.7322231
0.7477887
0.7640504
0.7816624
0.8001452
0.8197418
0.8406511
0.8631932
0.8884103
0.9140707
0.9413533
0.9712763
0.6265962
0.6378178
0.6494889
0.6616352
0.6742849
0.6874357
0.7010954
0.7153183
0.730141
0.7456044
0.7622862
0.7796283
0.797775
0.8167559
0.8365561
0.6143297
0.6250979
0.63629
0.6479295
0.660042
0.6726244
0.6856821
0.6992649
0.7134051
0.7281386
0.7439912
0.7603899
0.7774599
0.7952326
0.8137371
0.6028277
0.6131779
0.6239295
0.635104
0.6467247
0.6587878
0.6712972
0.6842985
0.6978211
0.7118968
0.7270164
0.7426204
0.7588257
0.7756661
0.7931785
0.5921116
0.6020787
0.6124269
0.6231763
0.6343486
0.6459388
0.6579499
0.6704243
0.6833885
0.6968714
0.7113369
0.7262457
0.7417072
0.7577529
0.7744174
0.5821441
0.5917599
0.601739
0.6120997
0.6228625
0.6340219
0.6455797
0.6575757
0.6700342
0.6829814
0.6968589
0.7111477
0.7259507
0.7412958
0.7572139
0.8247359
0.8445614
0.865475
0.8875087
0.9103264
0.9308788
0.8066455
0.8255585
0.8454865
0.8665166
0.8886898
0.9116373
0.9324548
0.7900443
0.8081475
0.8271951
0.847274
0.8684777
0.8908021
0.9139468
0.935366
0.7747386
0.7921183
0.8103801
0.8296038
0.8498815
0.871258
0.8937591
0.9172453
0.9395492
0.7604712
0.7771951
0.7947468
0.8131985
0.8326342
0.8530976
0.8746532
0.8974244
0.9213363
0.9447579
0.7467915
0.7629017
0.7797912
0.7975248
0.8161784
0.8357873
0.8564124
0.8781982
0.9012588
0.9256205
0.9513357
0.7330313
0.7485354
0.7647714
0.7817974
0.7996804
0.8184483
0.838152
0.8589229
0.8808787
0.9041518
0.9298208
0.956591
0.7192081
0.734116
0.7497107
0.7660441
0.7831756
0.8011263
0.8199379
0.8397256
0.8605914
0.8826575
0.9069454
0.9328431
0.9604435
0.7054957
0.7198248
0.7347992
0.7504651
0.7668752
0.7840451
0.8020084
0.8208669
0.8407067
0.8616315
0.8845653
0.9089085
0.9350585
0.9632306
0.692013
0.7057855
0.7201646
0.7351923
0.7509157
0.7673455
0.784509
0.8024962
0.8213812
0.8412503
0.8629482
0.8858776
0.9103713
0.9367055
0.965367
0.6788101
0.6920485
0.7058584
0.7202776
0.7353485
0.751078
0.767488
0.7846594
0.8026553
0.82155
0.8421232
0.8637929
0.8868412
0.9114712
0.9379768
0.9674818
0.6658853
0.6786111
0.691876
0.7057143
0.7201642
0.7352296
0.750928
0.7673324
0.7844979
0.8024877
0.8220321
0.8425717
0.8643548
0.8875388
0.9123303
0.9392925
0.9688936
0.6531953
0.665427
0.6781679
0.6914491
0.7053052
0.7197375
0.7347599
0.7504389
0.7668227
0.7839661
0.8025599
0.8220776
0.8427445
0.8646925
0.8880813
0.9133744
0.9403698
0.9701785
0.6406575
0.6524098
0.6646429
0.6773855
0.690669
0.7044925
0.7188668
0.7338529
0.7494932
0.7658356
0.7835382
0.8021142
0.8217815
0.8426698
0.8649329
0.8890368
0.9143941
0.9415609
0.9713854
0.628179
0.6394618
0.6511984
0.663415
0.6761403
0.6893715
0.7031171
0.7174329
0.7323562
0.7479291
0.7647705
0.7824167
0.8010908
0.8209701
0.842339
0.8661463
0.8902487
0.9156555
0.9427852
0.9724651
0.6158008
0.6266246
0.637876
0.6495787
0.6617587
0.6744126
0.6875465
0.7012108
0.7154387
0.7302667
0.7462431
0.7628301
0.7801607
0.7982564
0.8170962
0.603964
0.6143565
0.6251528
0.6363747
0.6480459
0.6601622
0.6727281
0.6857896
0.6993763
0.7135208
0.7287229
0.7444313
0.7607621
0.7777412
0.7953911
0.5928588
0.6028532
0.6132303
0.6240102
0.6352148
0.6468391
0.6588862
0.6713989
0.6844038
0.69793
0.7124453
0.7274112
0.7429369
0.7590514
0.7757864
0.5825072
0.5921361
0.6021289
0.6125042
0.6232824
0.634458
0.6460329
0.658047
0.6705246
0.6834922
0.6973927
0.7117067
0.7265373
0.7419118
0.7578605
0.5728745
0.5821677
0.5918082
0.6018133
0.6122017
0.6229677
0.6341122
0.6456728
0.6576718
0.6701334
0.6834797
0.6972109
0.7114239
0.7261435
0.7413969
0.8059155
0.824788
0.8446702
0.8656468
0.8877523
0.9105886
0.9311158
0.7886644
0.8066948
0.8256611
0.8456478
0.8667436
0.8889319
0.9118554
0.9326918
0.7728092
0.7900912
0.808245
0.8273478
0.847488
0.8687044
0.8910044
0.9141659
0.9356053
0.7581721
0.7747837
0.7922117
0.810526
0.8298076
0.8500964
0.8714487
0.8939639
0.917468
0.9397953
0.7445128
0.7605149
0.7772857
0.794888
0.8133952
0.8328409
0.8532808
0.8748493
0.8976363
0.9215688
0.9460273
0.7314044
0.7468345
0.7629905
0.7799294
0.797717
0.8163799
0.8359666
0.8566048
0.8784061
0.9014857
0.9268404
0.9528131
0.7182084
0.7330724
0.7486203
0.7649034
0.7819805
0.7998718
0.8186181
0.8383335
0.8591179
0.8810896
0.9052687
0.9310402
0.9583609
0.7049416
0.7192471
0.7341964
0.7498356
0.7662172
0.7833562
0.8012858
0.8201075
0.8399066
0.8607856
0.8836748
0.90799
0.9341197
0.9622419
0.6917704
0.7055328
0.7199013
0.7349178
0.7506291
0.767046
0.7841955
0.8021676
0.821036
0.8408869
0.8625681
0.8854901
0.9099862
0.9363283
0.9650004
0.6788101
0.6920485
0.7058584
0.7202776
0.7353485
0.751078
0.767488
0.7846594
0.8026553
0.82155
0.8421232
0.8637929
0.8868412
0.9114712
0.9379768
0.9674818
0.6661093
0.6788441
0.6921183
0.7059665
0.7204268
0.7355034
0.7512137
0.7676309
0.7848102
0.8028149
0.822372
0.8429151
0.8646908
0.8878559
0.9126179
0.9395316
0.9690745
0.6536677
0.665918
0.6786783
0.6919798
0.7058575
0.7203127
0.7353596
0.7510647
0.7674764
0.78465
0.8032693
0.8227929
0.8434404
0.8653396
0.8886475
0.9138049
0.9407006
0.9703926
0.6414441
0.6532268
0.6654918
0.678268
0.691587
0.7054481
0.7198625
0.7348914
0.7505774
0.7669688
0.784716
0.8033097
0.8229533
0.843755
0.8658432
0.8896106
0.9147782
0.9418367
0.9715398
0.62936
0.6406879
0.6524723
0.6647396
0.6775186
0.6908068
0.7046131
0.7189936
0.7339865
0.7496341
0.7665589
0.78429
0.8030265
0.82288
0.8439784
0.866734
0.8905511
0.915851
0.942934
0.972539
0.6173262
0.6282082
0.6395218
0.651291
0.6635424
0.6762721
0.6894868
0.7032382
0.7175601
0.7324902
0.7486156
0.7654884
0.783315
0.802255
0.8225651
0.8451188
0.8678647
0.8917136
0.9169526
0.9439468
0.9733743
0.6053827
0.6158281
0.6266806
0.6379624
0.6496975
0.6618814
0.674519
0.6876572
0.7013261
0.7155589
0.7308768
0.7467618
0.7633369
0.780618
0.798579
0.5939552
0.6039898
0.6144094
0.6252343
0.6364867
0.6481615
0.6602619
0.6728312
0.6858964
0.6994871