/*--------------------------------*- C++ -*----------------------------------*\
| =========                 |                                                 |
| \\      /  F ield         | OpenFOAM: The Open Source CFD Toolbox           |
|  \\    /   O peration     | Version:  2306                                  |
|   \\  /    A nd           | Website:  www.openfoam.com                      |
|    \\/     M anipulation  |                                                 |
\*---------------------------------------------------------------------------*/
FoamFile
{
    version     2.0;
    format      ascii;
    arch        "LSB;label=32;scalar=64";
    class       volScalarField;
    location    "1.2/electrolyte";
    object      T;
}
// * * * * * * * * * * * * * * * * * * * * * * * * * * * * * * * * * * * * * //

dimensions      [0 0 0 1 0 0 0];

internalField   nonuniform List<scalar> 
4000
(
1212.862
1212.694
1214.879
1212.871
1212.305
1214.869
1212.704
1216.702
1214.884
1212.881
1211.582
1214.844
1212.316
1216.735
1214.874
1212.714
1218.382
1216.704
1214.889
1212.891
1210.361
1214.793
1211.595
1216.808
1214.848
1212.326
1218.427
1216.736
1214.879
1212.724
1219.982
1218.38
1216.704
1214.894
1212.9
1208.561
1214.697
1210.381
1216.936
1214.795
1211.608
1218.526
1216.808
1214.852
1212.337
1220.028
1218.424
1216.737
1214.883
1212.733
1221.523
1219.976
1218.377
1216.705
1214.899
1206.505
1214.522
1208.596
1217.135
1214.696
1210.401
1218.702
1216.933
1214.798
1211.621
1220.131
1218.522
1216.807
1214.856
1212.348
1221.567
1220.022
1218.421
1216.737
1214.887
1223.012
1221.515
1219.971
1218.374
1216.706
1204.622
1214.227
1206.563
1217.391
1214.516
1208.632
1218.983
1217.128
1214.695
1210.422
1220.316
1218.696
1216.931
1214.8
1211.635
1221.668
1220.125
1218.518
1216.807
1214.859
1223.054
1221.559
1220.016
1218.417
1216.737
1224.45
1223.002
1221.507
1219.965
1218.371
1203.221
1213.874
1204.7
1217.593
1214.22
1206.62
1219.36
1217.377
1214.511
1208.667
1220.611
1218.973
1217.121
1214.694
1210.443
1221.848
1220.307
1218.69
1216.928
1214.802
1223.15
1221.659
1220.118
1218.514
1216.806
1224.49
1223.044
1221.551
1220.01
1218.414
1225.835
1224.438
1222.992
1221.499
1219.958
1202.482
1213.567
1203.315
1217.708
1213.871
1204.777
1219.71
1217.573
1214.214
1206.675
1221.012
1219.342
1217.362
1214.505
1208.702
1222.135
1220.599
1218.962
1217.114
1214.693
1223.32
1221.837
1220.299
1218.684
1216.925
1224.58
1223.139
1221.65
1220.111
1218.509
1225.873
1224.478
1223.034
1221.542
1220.003
1227.168
1225.823
1224.427
1222.982
1221.49
1202.482
1213.39
1202.583
1217.758
1213.567
1203.407
1219.971
1217.686
1213.867
1204.853
1221.396
1219.686
1217.553
1214.208
1206.73
1222.527
1220.993
1219.324
1217.347
1214.5
1223.594
1222.121
1220.586
1218.951
1217.106
1224.741
1223.308
1221.826
1220.29
1218.677
1225.958
1224.568
1223.128
1221.641
1220.103
1227.204
1225.861
1224.467
1223.024
1221.533
1228.448
1227.155
1225.811
1224.415
1222.972
1203.221
1213.39
1202.583
1217.774
1213.393
1202.683
1220.137
1217.736
1213.567
1203.497
1221.697
1219.944
1217.664
1213.863
1204.927
1222.908
1221.371
1219.662
1217.533
1214.201
1223.966
1222.507
1220.973
1219.306
1217.332
1224.999
1223.578
1222.107
1220.573
1218.94
1226.11
1224.728
1223.296
1221.815
1220.28
1227.285
1225.945
1224.556
1223.117
1221.631
1228.482
1227.191
1225.848
1224.455
1223.013
1229.675
1228.435
1227.142
1225.798
1224.404
1204.622
1213.567
1203.315
1217.774
1213.393
1202.683
1220.216
1217.751
1213.394
1202.781
1221.895
1220.108
1217.713
1213.566
1203.585
1223.21
1221.668
1219.916
1217.642
1213.859
1224.331
1222.882
1221.346
1219.637
1217.513
1225.351
1223.946
1222.486
1220.953
1219.287
1226.354
1224.983
1223.563
1222.092
1220.559
1227.429
1226.096
1224.714
1223.283
1221.804
1228.559
1227.271
1225.932
1224.543
1223.106
1229.708
1228.468
1227.177
1225.835
1224.443
1230.849
1229.661
1228.421
1227.128
1225.785
1206.505
1213.874
1204.7
1217.758
1213.567
1203.407
1220.216
1217.751
1213.394
1202.781
1221.993
1220.186
1217.729
1213.395
1202.877
1223.413
1221.865
1220.079
1217.69
1213.564
1224.622
1223.181
1221.639
1219.889
1217.619
1225.696
1224.305
1222.857
1221.32
1219.613
1226.686
1225.33
1223.925
1222.466
1220.933
1227.659
1226.337
1224.967
1223.547
1222.077
1228.696
1227.414
1226.082
1224.7
1223.27
1229.781
1228.545
1227.257
1225.919
1224.53
1230.88
1229.693
1228.454
1227.164
1225.822
1231.971
1230.835
1229.647
1228.407
1227.115
1208.561
1214.227
1206.563
1217.708
1213.871
1204.777
1220.137
1217.736
1213.567
1203.497
1221.993
1220.186
1217.729
1213.395
1202.877
1223.513
1221.962
1220.156
1217.706
1213.396
1224.818
1223.382
1221.834
1220.05
1217.667
1225.973
1224.594
1223.153
1221.611
1219.861
1227.013
1225.671
1224.28
1222.831
1221.295
1227.974
1226.666
1225.309
1223.904
1222.445
1228.915
1227.643
1226.321
1224.95
1223.531
1229.911
1228.681
1227.399
1226.067
1224.686
1230.95
1229.766
1228.53
1227.243
1225.905
1232
1230.865
1229.679
1228.44
1227.15
1233.041
1231.956
1230.82
1229.632
1228.392
1210.361
1214.522
1208.596
1217.593
1214.22
1206.62
1219.971
1217.686
1213.867
1204.853
1221.895
1220.108
1217.713
1213.566
1203.585
1223.513
1221.962
1220.156
1217.706
1213.396
1224.916
1223.482
1221.931
1220.127
1217.683
1226.16
1224.789
1223.352
1221.804
1220.02
1227.275
1225.946
1224.566
1223.124
1221.582
1228.283
1226.989
1225.646
1224.255
1222.806
1229.213
1227.953
1226.645
1225.288
1223.883
1230.12
1228.898
1227.626
1226.304
1224.933
1231.075
1229.896
1228.665
1227.384
1226.052
1232.067
1230.935
1229.751
1228.515
1227.229
1233.069
1231.986
1230.851
1229.664
1228.426
1234.06
1233.026
1231.941
1230.805
1229.618
1211.582
1214.697
1210.381
1217.391
1214.516
1208.632
1219.71
1217.573
1214.214
1206.675
1221.697
1219.944
1217.664
1213.863
1204.927
1223.413
1221.865
1220.079
1217.69
1213.564
1224.916
1223.482
1221.931
1220.127
1217.683
1226.254
1224.886
1223.451
1221.899
1220.097
1227.454
1226.132
1224.76
1223.322
1221.773
1228.533
1227.249
1225.919
1224.538
1223.096
1229.508
1228.26
1226.964
1225.622
1224.23
1230.404
1229.193
1227.933
1226.624
1225.267
1231.274
1230.103
1228.881
1227.608
1226.286
1232.187
1231.059
1229.88
1228.65
1227.369
1233.134
1232.052
1230.92
1229.736
1228.501
1234.088
1233.055
1231.971
1230.836
1229.649
1235.03
1234.046
1233.011
1231.927
1230.79
1212.305
1214.793
1211.595
1217.135
1214.696
1210.401
1219.36
1217.377
1214.511
1208.667
1221.396
1219.686
1217.553
1214.208
1206.73
1223.21
1221.668
1219.916
1217.642
1213.859
1224.818
1223.382
1221.834
1220.05
1217.667
1226.254
1224.886
1223.451
1221.899
1220.097
1227.543
1226.225
1224.856
1223.42
1221.868
1228.703
1227.427
1226.104
1224.73
1223.292
1229.746
1228.508
1227.223
1225.892
1224.51
1230.685
1229.485
1228.236
1226.94
1225.597
1231.546
1230.384
1229.173
1227.912
1226.603
1232.378
1231.257
1230.085
1228.863
1227.591
1233.249
1232.172
1231.043
1229.864
1228.634
1234.15
1233.119
1232.037
1230.905
1229.721
1235.057
1234.073
1233.04
1231.956
1230.821
1235.951
1235.016
1234.031
1232.997
1231.912
1212.694
1214.844
1212.316
1216.936
1214.795
1211.608
1218.983
1217.128
1214.695
1210.422
1221.012
1219.342
1217.362
1214.505
1208.702
1222.908
1221.371
1219.662
1217.533
1214.201
1224.622
1223.181
1221.639
1219.889
1217.619
1226.16
1224.789
1223.352
1221.804
1220.02
1227.543
1226.225
1224.856
1223.42
1221.868
1228.788
1227.515
1226.196
1224.826
1223.389
1229.908
1228.676
1227.399
1226.075
1224.701
1230.912
1229.721
1228.482
1227.197
1225.864
1231.815
1230.663
1229.462
1228.213
1226.916
1232.639
1231.526
1230.364
1229.152
1227.891
1233.433
1232.361
1231.24
1230.068
1228.845
1234.261
1233.233
1232.156
1231.027
1229.848
1235.117
1234.135
1233.104
1232.022
1230.889
1235.977
1235.042
1234.058
1233.025
1231.941
1236.824
1235.937
1235.001
1234.016
1232.982
1212.862
1214.869
1212.704
1216.808
1214.848
1212.326
1218.702
1216.933
1214.798
1211.621
1220.611
1218.973
1217.121
1214.694
1210.443
1222.527
1220.993
1219.324
1217.347
1214.5
1224.331
1222.882
1221.346
1219.637
1217.513
1225.973
1224.594
1223.153
1221.611
1219.861
1227.454
1226.132
1224.76
1223.322
1221.773
1228.788
1227.515
1226.196
1224.826
1223.389
1229.989
1228.761
1227.488
1226.167
1224.796
1231.067
1229.882
1228.65
1227.372
1226.047
1232.033
1230.888
1229.696
1228.457
1227.171
1232.897
1231.793
1230.64
1229.439
1228.189
1233.684
1232.62
1231.507
1230.344
1229.131
1234.438
1233.416
1232.344
1231.222
1230.05
1235.224
1234.245
1233.218
1232.14
1231.011
1236.035
1235.102
1234.12
1233.088
1232.007
1236.849
1235.962
1235.027
1234.043
1233.01
1237.651
1236.81
1235.922
1234.986
1234.001
1214.879
1212.871
1216.735
1214.874
1212.714
1218.526
1216.808
1214.852
1212.337
1220.316
1218.696
1216.931
1214.8
1211.635
1222.135
1220.599
1218.962
1217.114
1214.693
1223.966
1222.507
1220.973
1219.306
1217.332
1225.696
1224.305
1222.857
1221.32
1219.613
1227.275
1225.946
1224.566
1223.124
1221.582
1228.703
1227.427
1226.104
1224.73
1223.292
1229.989
1228.761
1227.488
1226.167
1224.796
1231.145
1229.963
1228.734
1227.46
1226.139
1232.181
1231.043
1229.857
1228.624
1227.344
1233.107
1232.01
1230.865
1229.672
1228.431
1233.932
1232.876
1231.771
1230.618
1229.416
1234.68
1233.665
1232.6
1231.487
1230.324
1235.395
1234.422
1233.399
1232.327
1231.205
1236.139
1235.209
1234.23
1233.202
1232.124
1236.906
1236.02
1235.087
1234.105
1233.073
1237.675
1236.835
1235.948
1235.013
1234.028
1238.431
1237.637
1236.796
1235.908
1234.971
1216.702
1214.884
1212.881
1218.427
1216.736
1214.879
1212.724
1220.131
1218.522
1216.807
1214.856
1212.348
1221.848
1220.307
1218.69
1216.928
1214.802
1223.594
1222.121
1220.586
1218.951
1217.106
1225.351
1223.946
1222.486
1220.953
1219.287
1227.013
1225.671
1224.28
1222.831
1221.295
1228.533
1227.249
1225.919
1224.538
1223.096
1229.908
1228.676
1227.399
1226.075
1224.701
1231.145
1229.963
1228.734
1227.46
1226.139
1232.256
1231.12
1229.937
1228.708
1227.432
1233.25
1232.158
1231.018
1229.831
1228.597
1234.134
1233.084
1231.987
1230.841
1229.647
1234.919
1233.911
1232.855
1231.749
1230.595
1235.629
1234.661
1233.646
1232.581
1231.467
1236.304
1235.379
1234.405
1233.382
1232.309
1237.006
1236.124
1235.193
1234.214
1233.186
1237.73
1236.891
1236.005
1235.072
1234.089
1238.455
1237.661
1236.821
1235.933
1234.998
1239.167
1238.417
1237.623
1236.781
1235.893
1218.382
1216.704
1214.889
1212.891
1220.028
1218.424
1216.737
1214.883
1212.733
1221.668
1220.125
1218.518
1216.807
1214.859
1223.32
1221.837
1220.299
1218.684
1216.925
1224.999
1223.578
1222.107
1220.573
1218.94
1226.686
1225.33
1223.925
1222.466
1220.933
1228.283
1226.989
1225.646
1224.255
1222.806
1229.746
1228.508
1227.223
1225.892
1224.51
1231.067
1229.882
1228.65
1227.372
1226.047
1232.256
1231.12
1229.937
1228.708
1227.432
1233.321
1232.232
1231.095
1229.911
1228.681
1234.272
1233.227
1232.134
1230.994
1229.806
1235.114
1234.112
1233.062
1231.963
1230.817
1235.86
1234.899
1233.89
1232.833
1231.728
1236.53
1235.61
1234.643
1233.627
1232.561
1237.167
1236.288
1235.362
1234.388
1233.365
1237.827
1236.991
1236.108
1235.178
1234.198
1238.508
1237.715
1236.877
1235.991
1235.057
1239.19
1238.441
1237.647
1236.806
1235.918
1239.858
1239.153
1238.404
1237.608
1236.767
1219.982
1218.38
1216.704
1214.894
1212.9
1221.567
1220.022
1218.421
1216.737
1214.887
1223.15
1221.659
1220.118
1218.514
1216.806
1224.741
1223.308
1221.826
1220.29
1218.677
1226.354
1224.983
1223.563
1222.092
1220.559
1227.974
1226.666
1225.309
1223.904
1222.445
1229.508
1228.26
1226.964
1225.622
1224.23
1230.912
1229.721
1228.482
1227.197
1225.864
1232.181
1231.043
1229.857
1228.624
1227.344
1233.321
1232.232
1231.095
1229.911
1228.681
1234.341
1233.298
1232.208
1231.07
1229.886
1235.247
1234.249
1233.204
1232.11
1230.969
1236.049
1235.093
1234.09
1233.039
1231.94
1236.755
1235.841
1234.879
1233.87
1232.812
1237.386
1236.513
1235.592
1234.624
1233.607
1237.984
1237.151
1236.272
1235.346
1234.371
1238.603
1237.813
1236.976
1236.093
1235.162
1239.242
1238.494
1237.701
1236.862
1235.976
1239.881
1239.176
1238.427
1237.632
1236.792
1240.506
1239.845
1239.14
1238.39
1237.594
1221.523
1219.976
1218.377
1216.705
1214.899
1223.054
1221.559
1220.016
1218.417
1216.737
1224.58
1223.139
1221.65
1220.111
1218.509
1226.11
1224.728
1223.296
1221.815
1220.28
1227.659
1226.337
1224.967
1223.547
1222.077
1229.213
1227.953
1226.645
1225.288
1223.883
1230.685
1229.485
1228.236
1226.94
1225.597
1232.033
1230.888
1229.696
1228.457
1227.171
1233.25
1232.158
1231.018
1229.831
1228.597
1234.341
1233.298
1232.208
1231.07
1229.886
1235.315
1234.318
1233.275
1232.184
1231.046
1236.178
1235.226
1234.227
1233.181
1232.086
1236.938
1236.028
1235.072
1234.068
1233.017
1237.604
1236.736
1235.821
1234.859
1233.849
1238.197
1237.369
1236.495
1235.574
1234.605
1238.755
1237.968
1237.135
1236.256
1235.329
1239.334
1238.589
1237.798
1236.961
1236.077
1239.931
1239.228
1238.48
1237.687
1236.847
1240.528
1239.867
1239.162
1238.413
1237.618
1241.112
1240.493
1239.832
1239.126
1238.376
1223.012
1221.515
1219.971
1218.374
1216.706
1224.49
1223.044
1221.551
1220.01
1218.414
1225.958
1224.568
1223.128
1221.641
1220.103
1227.429
1226.096
1224.714
1223.283
1221.804
1228.915
1227.643
1226.321
1224.95
1223.531
1230.404
1229.193
1227.933
1226.624
1225.267
1231.815
1230.663
1229.462
1228.213
1226.916
1233.107
1232.01
1230.865
1229.672
1228.431
1234.272
1233.227
1232.134
1230.994
1229.806
1235.315
1234.318
1233.275
1232.184
1231.046
1236.243
1235.293
1234.296
1233.252
1232.16
1237.063
1236.157
1235.204
1234.205
1233.158
1237.782
1236.918
1236.008
1235.051
1234.047
1238.408
1237.585
1236.717
1235.801
1234.839
1238.963
1238.18
1237.351
1236.477
1235.556
1239.483
1238.74
1237.953
1237.119
1236.239
1240.022
1239.32
1238.574
1237.783
1236.946
1240.578
1239.918
1239.214
1238.466
1237.672
1241.133
1240.515
1239.854
1239.149
1238.399
1241.676
1241.099
1240.48
1239.818
1239.112
1224.45
1223.002
1221.507
1219.965
1218.371
1225.873
1224.478
1223.034
1221.542
1220.003
1227.285
1225.945
1224.556
1223.117
1221.631
1228.696
1227.414
1226.082
1224.7
1223.27
1230.12
1228.898
1227.626
1226.304
1224.933
1231.546
1230.384
1229.173
1227.912
1226.603
1232.897
1231.793
1230.64
1229.439
1228.189
1234.134
1233.084
1231.987
1230.841
1229.647
1235.247
1234.249
1233.204
1232.11
1230.969
1236.243
1235.293
1234.296
1233.252
1232.16
1237.126
1236.222
1235.271
1234.274
1233.229
1237.903
1237.043
1236.136
1235.183
1234.183
1238.581
1237.762
1236.898
1235.987
1235.03
1239.169
1238.39
1237.567
1236.698
1235.782
1239.685
1238.946
1238.163
1237.334
1236.459
1240.166
1239.468
1238.725
1237.937
1237.103
1240.666
1240.008
1239.306
1238.56
1237.768
1241.182
1240.564
1239.904
1239.2
1238.451
1241.697
1241.121
1240.502
1239.84
1239.135
1242.198
1241.663
1241.086
1240.467
1239.805
1225.835
1224.438
1222.992
1221.499
1219.958
1227.204
1225.861
1224.467
1223.024
1221.533
1228.559
1227.271
1225.932
1224.543
1223.106
1229.911
1228.681
1227.399
1226.067
1224.686
1231.274
1230.103
1228.881
1227.608
1226.286
1232.639
1231.526
1230.364
1229.152
1227.891
1233.932
1232.876
1231.771
1230.618
1229.416
1235.114
1234.112
1233.062
1231.963
1230.817
1236.178
1235.226
1234.227
1233.181
1232.086
1237.126
1236.222
1235.271
1234.274
1233.229
1237.965
1237.106
1236.201
1235.249
1234.251
1238.7
1237.884
1237.022
1236.115
1235.161
1239.337
1238.563
1237.743
1236.878
1235.967
1239.886
1239.151
1238.372
1237.548
1236.679
1240.364
1239.669
1238.929
1238.146
1237.317
1240.808
1240.152
1239.453
1238.709
1237.921
1241.268
1240.653
1239.994
1239.292
1238.545
1241.744
1241.169
1240.551
1239.89
1239.186
1242.219
1241.684
1241.108
1240.489
1239.827
1242.681
1242.186
1241.651
1241.073
1240.454
1227.168
1225.823
1224.427
1222.982
1221.49
1228.482
1227.191
1225.848
1224.455
1223.013
1229.781
1228.545
1227.257
1225.919
1224.53
1231.075
1229.896
1228.665
1227.384
1226.052
1232.378
1231.257
1230.085
1228.863
1227.591
1233.684
1232.62
1231.507
1230.344
1229.131
1234.919
1233.911
1232.855
1231.749
1230.595
1236.049
1235.093
1234.09
1233.039
1231.94
1237.063
1236.157
1235.204
1234.205
1233.158
1237.965
1237.106
1236.201
1235.249
1234.251
1238.76
1237.945
1237.085
1236.18
1235.228
1239.453
1238.681
1237.864
1237.002
1236.095
1240.05
1239.319
1238.544
1237.724
1236.858
1240.56
1239.869
1239.134
1238.354
1237.53
1241.001
1240.348
1239.652
1238.913
1238.129
1241.407
1240.793
1240.137
1239.438
1238.694
1241.829
1241.255
1240.639
1239.98
1239.277
1242.265
1241.731
1241.156
1240.538
1239.877
1242.701
1242.207
1241.671
1241.095
1240.475
1243.123
1242.668
1242.174
1241.638
1241.06
1228.448
1227.155
1225.811
1224.415
1222.972
1229.708
1228.468
1227.177
1225.835
1224.443
1230.95
1229.766
1228.53
1227.243
1225.905
1232.187
1231.059
1229.88
1228.65
1227.369
1233.433
1232.361
1231.24
1230.068
1228.845
1234.68
1233.665
1232.6
1231.487
1230.324
1235.86
1234.899
1233.89
1232.833
1231.728
1236.938
1236.028
1235.072
1234.068
1233.017
1237.903
1237.043
1236.136
1235.183
1234.183
1238.76
1237.945
1237.085
1236.18
1235.228
1239.512
1238.741
1237.925
1237.065
1236.159
1240.164
1239.435
1238.662
1237.845
1236.982
1240.721
1240.033
1239.301
1238.525
1237.705
1241.193
1240.544
1239.852
1239.116
1238.336
1241.596
1240.985
1240.332
1239.636
1238.896
1241.965
1241.393
1240.779
1240.123
1239.422
1242.349
1241.816
1241.242
1240.625
1239.966
1242.746
1242.253
1241.719
1241.143
1240.524
1243.143
1242.689
1242.194
1241.659
1241.082
1243.526
1243.111
1242.656
1242.161
1241.625
1229.675
1228.435
1227.142
1225.798
1224.404
1230.88
1229.693
1228.454
1227.164
1225.822
1232.067
1230.935
1229.751
1228.515
1227.229
1233.249
1232.172
1231.043
1229.864
1228.634
1234.438
1233.416
1232.344
1231.222
1230.05
1235.629
1234.661
1233.646
1232.581
1231.467
1236.755
1235.841
1234.879
1233.87
1232.812
1237.782
1236.918
1236.008
1235.051
1234.047
1238.7
1237.884
1237.022
1236.115
1235.161
1239.512
1238.741
1237.925
1237.065
1236.159
1240.221
1239.493
1238.721
1237.906
1237.045
1240.832
1240.146
1239.416
1238.643
1237.825
1241.35
1240.704
1240.015
1239.283
1238.507
1241.784
1241.177
1240.527
1239.835
1239.099
1242.15
1241.581
1240.97
1240.316
1239.62
1242.482
1241.951
1241.379
1240.765
1240.108
1242.828
1242.336
1241.803
1241.228
1240.611
1243.188
1242.734
1242.24
1241.706
1241.129
1243.545
1243.131
1242.677
1242.182
1241.646
1243.89
1243.514
1243.099
1242.644
1242.149
1230.849
1229.661
1228.421
1227.128
1225.785
1232
1230.865
1229.679
1228.44
1227.15
1233.134
1232.052
1230.92
1229.736
1228.501
1234.261
1233.233
1232.156
1231.027
1229.848
1235.395
1234.422
1233.399
1232.327
1231.205
1236.53
1235.61
1234.643
1233.627
1232.561
1237.604
1236.736
1235.821
1234.859
1233.849
1238.581
1237.762
1236.898
1235.987
1235.03
1239.453
1238.681
1237.864
1237.002
1236.095
1240.221
1239.493
1238.721
1237.906
1237.045
1240.888
1240.203
1239.474
1238.702
1237.886
1241.459
1240.814
1240.128
1239.398
1238.624
1241.939
1241.334
1240.687
1239.997
1239.265
1242.335
1241.768
1241.16
1240.51
1239.818
1242.664
1242.135
1241.566
1240.954
1240.301
1242.959
1242.469
1241.937
1241.365
1240.75
1243.268
1242.816
1242.323
1241.79
1241.215
1243.589
1243.176
1242.722
1242.228
1241.693
1243.909
1243.534
1243.119
1242.664
1242.169
1244.215
1243.878
1243.502
1243.087
1242.632
1231.971
1230.835
1229.647
1228.407
1227.115
1233.069
1231.986
1230.851
1229.664
1228.426
1234.15
1233.119
1232.037
1230.905
1229.721
1235.224
1234.245
1233.218
1232.14
1231.011
1236.304
1235.379
1234.405
1233.382
1232.309
1237.386
1236.513
1235.592
1234.624
1233.607
1238.408
1237.585
1236.717
1235.801
1234.839
1239.337
1238.563
1237.743
1236.878
1235.967
1240.164
1239.435
1238.662
1237.845
1236.982
1240.888
1240.203
1239.474
1238.702
1237.886
1241.514
1240.87
1240.184
1239.456
1238.683
1242.045
1241.442
1240.797
1240.11
1239.379
1242.486
1241.922
1241.317
1240.67
1239.98
1242.845
1242.319
1241.753
1241.144
1240.494
1243.138
1242.649
1242.121
1241.551
1240.939
1243.397
1242.946
1242.455
1241.924
1241.351
1243.669
1243.256
1242.803
1242.31
1241.776
1243.952
1243.578
1243.164
1242.71
1242.215
1244.234
1243.898
1243.522
1243.107
1242.652
1244.503
1244.204
1243.867
1243.491
1243.075
1233.041
1231.956
1230.82
1229.632
1228.392
1234.088
1233.055
1231.971
1230.836
1229.649
1235.117
1234.135
1233.104
1232.022
1230.889
1236.139
1235.209
1234.23
1233.202
1232.124
1237.167
1236.288
1235.362
1234.388
1233.365
1238.197
1237.369
1236.495
1235.574
1234.605
1239.169
1238.39
1237.567
1236.698
1235.782
1240.05
1239.319
1238.544
1237.724
1236.858
1240.832
1240.146
1239.416
1238.643
1237.825
1241.514
1240.87
1240.184
1239.456
1238.683
1242.099
1241.497
1240.853
1240.166
1239.437
1242.591
1242.028
1241.425
1240.78
1240.092
1242.994
1242.47
1241.906
1241.3
1240.653
1243.316
1242.83
1242.304
1241.737
1241.128
1243.572
1243.124
1242.635
1242.106
1241.536
1243.795
1243.384
1242.933
1242.442
1241.91
1244.03
1243.657
1243.243
1242.79
1242.297
1244.277
1243.941
1243.566
1243.151
1242.697
1244.522
1244.223
1243.886
1243.51
1243.095
1244.753
1244.492
1244.193
1243.855
1243.479
1234.06
1233.026
1231.941
1230.805
1229.618
1235.057
1234.073
1233.04
1231.956
1230.821
1236.035
1235.102
1234.12
1233.088
1232.007
1237.006
1236.124
1235.193
1234.214
1233.186
1237.984
1237.151
1236.272
1235.346
1234.371
1238.963
1238.18
1237.351
1236.477
1235.556
1239.886
1239.151
1238.372
1237.548
1236.679
1240.721
1240.033
1239.301
1238.525
1237.705
1241.459
1240.814
1240.128
1239.398
1238.624
1242.099
1241.497
1240.853
1240.166
1239.437
1242.644
1242.082
1241.479
1240.835
1240.148
1243.097
1242.575
1242.012
1241.408
1240.762
1243.463
1242.979
1242.455
1241.89
1241.284
1243.748
1243.302
1242.815
1242.288
1241.721
1243.968
1243.559
1243.11
1242.621
1242.091
1244.155
1243.783
1243.371
1242.92
1242.428
1244.354
1244.019
1243.645
1243.231
1242.778
1244.564
1244.266
1243.929
1243.554
1243.139
1244.771
1244.511
1244.212
1243.875
1243.498
1244.966
1244.742
1244.481
1244.182
1243.844
1235.03
1234.046
1233.011
1231.927
1230.79
1235.977
1235.042
1234.058
1233.025
1231.941
1236.906
1236.02
1235.087
1234.105
1233.073
1237.827
1236.991
1236.108
1235.178
1234.198
1238.755
1237.968
1237.135
1236.256
1235.329
1239.685
1238.946
1238.163
1237.334
1236.459
1240.56
1239.869
1239.134
1238.354
1237.53
1241.35
1240.704
1240.015
1239.283
1238.507
1242.045
1241.442
1240.797
1240.11
1239.379
1242.644
1242.082
1241.479
1240.835
1240.148
1243.149
1242.627
1242.065
1241.462
1240.818
1243.564
1243.081
1242.559
1241.995
1241.391
1243.893
1243.448
1242.963
1242.439
1241.874
1244.142
1243.734
1243.287
1242.8
1242.273
1244.326
1243.955
1243.545
1243.096
1242.606
1244.477
1244.143
1243.77
1243.358
1242.906
1244.64
1244.343
1244.007
1243.632
1243.219
1244.813
1244.553
1244.255
1243.918
1243.542
1244.984
1244.761
1244.5
1244.201
1243.863
1245.141
1244.955
1244.731
1244.47
1244.17
1235.951
1235.016
1234.031
1232.997
1231.912
1236.849
1235.962
1235.027
1234.043
1233.01
1237.73
1236.891
1236.005
1235.072
1234.089
1238.603
1237.813
1236.976
1236.093
1235.162
1239.483
1238.74
1237.953
1237.119
1236.239
1240.364
1239.669
1238.929
1238.146
1237.317
1241.193
1240.544
1239.852
1239.116
1238.336
1241.939
1241.334
1240.687
1239.997
1239.265
1242.591
1242.028
1241.425
1240.78
1240.092
1243.149
1242.627
1242.065
1241.462
1240.818
1243.615
1243.133
1242.611
1242.049
1241.445
1243.992
1243.549
1243.066
1242.543
1241.979
1244.284
1243.878
1243.433
1242.948
1242.423
1244.497
1244.128
1243.719
1243.272
1242.785
1244.646
1244.313
1243.942
1243.531
1243.082
1244.762
1244.465
1244.131
1243.758
1243.345
1244.888
1244.629
1244.331
1243.995
1243.62
1245.025
1244.802
1244.542
1244.243
1243.906
1245.16
1244.973
1244.75
1244.489
1244.189
1245.281
1245.131
1244.945
1244.721
1244.459
1236.824
1235.937
1235.001
1234.016
1232.982
1237.675
1236.835
1235.948
1235.013
1234.028
1238.508
1237.715
1236.877
1235.991
1235.057
1239.334
1238.589
1237.798
1236.961
1236.077
1240.166
1239.468
1238.725
1237.937
1237.103
1241.001
1240.348
1239.652
1238.913
1238.129
1241.784
1241.177
1240.527
1239.835
1239.099
1242.486
1241.922
1241.317
1240.67
1239.98
1243.097
1242.575
1242.012
1241.408
1240.762
1243.615
1243.133
1242.611
1242.049
1241.445
1244.043
1243.6
1243.117
1242.595
1242.032
1244.382
1243.977
1243.533
1243.05
1242.526
1244.638
1244.27
1243.863
1243.418
1242.932
1244.815
1244.483
1244.114
1243.705
1243.258
1244.928
1244.633
1244.3
1243.928
1243.518
1245.009
1244.75
1244.453
1244.118
1243.745
1245.1
1244.877
1244.617
1244.319
1243.983
1245.201
1245.015
1244.791
1244.531
1244.232
1245.299
1245.149
1244.963
1244.739
1244.477
1245.384
1245.271
1245.121
1244.934
1244.71
1237.651
1236.81
1235.922
1234.986
1234.001
1238.455
1237.661
1236.821
1235.933
1234.998
1239.242
1238.494
1237.701
1236.862
1235.976
1240.022
1239.32
1238.574
1237.783
1236.946
1240.808
1240.152
1239.453
1238.709
1237.921
1241.596
1240.985
1240.332
1239.636
1238.896
1242.335
1241.768
1241.16
1240.51
1239.818
1242.994
1242.47
1241.906
1241.3
1240.653
1243.564
1243.081
1242.559
1241.995
1241.391
1244.043
1243.6
1243.117
1242.595
1242.032
1244.432
1244.028
1243.584
1243.102
1242.579
1244.735
1244.368
1243.962
1243.518
1243.034
1244.954
1244.623
1244.255
1243.848
1243.403
1245.095
1244.801
1244.469
1244.1
1243.691
1245.173
1244.916
1244.62
1244.287
1243.915
1245.219
1244.997
1244.738
1244.441
1244.106
1245.274
1245.089
1244.866
1244.606
1244.308
1245.34
1245.19
1245.004
1244.781
1244.519
1245.402
1245.289
1245.139
1244.952
1244.728
1245.452
1245.374
1245.261
1245.11
1244.923
1238.431
1237.637
1236.796
1235.908
1234.971
1239.19
1238.441
1237.647
1236.806
1235.918
1239.931
1239.228
1238.48
1237.687
1236.847
1240.666
1240.008
1239.306
1238.56
1237.768
1241.407
1240.793
1240.137
1239.438
1238.694
1242.15
1241.581
1240.97
1240.316
1239.62
1242.845
1242.319
1241.753
1241.144
1240.494
1243.463
1242.979
1242.455
1241.89
1241.284
1243.992
1243.549
1243.066
1242.543
1241.979
1244.432
1244.028
1243.584
1243.102
1242.579
1244.784
1244.418
1244.013
1243.569
1243.086
1245.05
1244.72
1244.353
1243.947
1243.503
1245.232
1244.94
1244.609
1244.241
1243.834
1245.338
1245.082
1244.788
1244.456
1244.086
1245.382
1245.161
1244.903
1244.607
1244.274
1245.392
1245.208
1244.986
1244.726
1244.429
1245.413
1245.264
1245.078
1244.855
1244.594
1245.442
1245.329
1245.18
1244.993
1244.769
1245.47
1245.392
1245.279
1245.128
1244.941
1245.484
1245.442
1245.364
1245.25
1245.1
1239.167
1238.417
1237.623
1236.781
1235.893
1239.881
1239.176
1238.427
1237.632
1236.792
1240.578
1239.918
1239.214
1238.466
1237.672
1241.268
1240.653
1239.994
1239.292
1238.545
1241.965
1241.393
1240.779
1240.123
1239.422
1242.664
1242.135
1241.566
1240.954
1240.301
1243.316
1242.83
1242.304
1241.737
1241.128
1243.893
1243.448
1242.963
1242.439
1241.874
1244.382
1243.977
1243.533
1243.05
1242.526
1244.784
1244.418
1244.013
1243.569
1243.086
1245.098
1244.77
1244.403
1243.998
1243.554
1245.328
1245.036
1244.706
1244.339
1243.933
1245.475
1245.219
1244.926
1244.595
1244.227
1245.545
1245.326
1245.069
1244.774
1244.442
1245.554
1245.37
1245.149
1244.89
1244.594
1245.53
1245.381
1245.196
1244.974
1244.714
1245.515
1245.402
1245.253
1245.067
1244.844
1245.51
1245.432
1245.319
1245.169
1244.982
1245.502
1245.46
1245.382
1245.268
1245.118
1245.474
1245.432
1245.354
1245.24
1239.858
1239.153
1238.404
1237.608
1236.767
1240.528
1239.867
1239.162
1238.413
1237.618
1241.182
1240.564
1239.904
1239.2
1238.451
1241.829
1241.255
1240.639
1239.98
1239.277
1242.482
1241.951
1241.379
1240.765
1240.108
1243.138
1242.649
1242.121
1241.551
1240.939
1243.748
1243.302
1242.815
1242.288
1241.721
1244.284
1243.878
1243.433
1242.948
1242.423
1244.735
1244.368
1243.962
1243.518
1243.034
1245.098
1244.77
1244.403
1243.998
1243.554
1245.376
1245.084
1244.755
1244.388
1243.983
1245.569
1245.314
1245.022
1244.692
1244.324
1245.68
1245.461
1245.205
1244.912
1244.581
1245.716
1245.533
1245.313
1245.056
1244.761
1245.69
1245.542
1245.358
1245.136
1244.878
1245.631
1245.519
1245.37
1245.185
1244.962
1245.582
1245.505
1245.392
1245.242
1245.056
1245.542
1245.5
1245.422
1245.309
1245.159
1245.492
1245.45
1245.372
1245.258
1245.465
1245.422
1245.344
1240.506
1239.845
1239.14
1238.39
1237.594
1241.133
1240.515
1239.854
1239.149
1238.399
1241.744
1241.169
1240.551
1239.89
1239.186
1242.349
1241.816
1241.242
1240.625
1239.966
1242.959
1242.469
1241.937
1241.365
1240.75
1243.572
1243.124
1242.635
1242.106
1241.536
1244.142
1243.734
1243.287
1242.8
1242.273
1244.638
1244.27
1243.863
1243.418
1242.932
1245.05
1244.72
1244.353
1243.947
1243.503
1245.376
1245.084
1244.755
1244.388
1243.983
1245.617
1245.362
1245.07
1244.741
1244.374
1245.774
1245.555
1245.3
1245.008
1244.678
1245.85
1245.667
1245.448
1245.192
1244.899
1245.851
1245.704
1245.52
1245.3
1245.043
1245.79
1245.679
1245.53
1245.346
1245.124
1245.698
1245.621
1245.508
1245.359
1245.173
1245.614
1245.572
1245.494
1245.381
1245.231
1245.532
1245.49
1245.412
1245.298
1245.482
1245.44
1245.362
1245.455
1245.412
1241.112
1240.493
1239.832
1239.126
1238.376
1241.697
1241.121
1240.502
1239.84
1239.135
1242.265
1241.731
1241.156
1240.538
1239.877
1242.828
1242.336
1241.803
1241.228
1240.611
1243.397
1242.946
1242.455
1241.924
1241.351
1243.968
1243.559
1243.11
1242.621
1242.091
1244.497
1244.128
1243.719
1243.272
1242.785
1244.954
1244.623
1244.255
1243.848
1243.403
1245.328
1245.036
1244.706
1244.339
1243.933
1245.617
1245.362
1245.07
1244.741
1244.374
1245.821
1245.603
1245.348
1245.056
1244.727
1245.943
1245.761
1245.542
1245.287
1244.994
1245.984
1245.837
1245.654
1245.435
1245.179
1245.951
1245.839
1245.691
1245.508
1245.287
1245.856
1245.779
1245.667
1245.518
1245.334
1245.73
1245.687
1245.61
1245.497
1245.348
1245.604
1245.562
1245.484
1245.371
1245.522
1245.48
1245.402
1245.473
1245.43
1245.445
1241.676
1241.099
1240.48
1239.818
1239.112
1242.219
1241.684
1241.108
1240.489
1239.827
1242.746
1242.253
1241.719
1241.143
1240.524
1243.268
1242.816
1242.323
1241.79
1241.215
1243.795
1243.384
1242.933
1242.442
1241.91
1244.326
1243.955
1243.545
1243.096
1242.606
1244.815
1244.483
1244.114
1243.705
1243.258
1245.232
1244.94
1244.609
1244.241
1243.834
1245.569
1245.314