/*--------------------------------*- C++ -*----------------------------------*\
| =========                 |                                                 |
| \\      /  F ield         | OpenFOAM: The Open Source CFD Toolbox           |
|  \\    /   O peration     | Version:  2306                                  |
|   \\  /    A nd           | Website:  www.openfoam.com                      |
|    \\/     M anipulation  |                                                 |
\*---------------------------------------------------------------------------*/
FoamFile
{
    version     2.0;
    format      ascii;
    arch        "LSB;label=32;scalar=64";
    class       volScalarField;
    location    "1.5";
    object      contErrCp;
}
// * * * * * * * * * * * * * * * * * * * * * * * * * * * * * * * * * * * * * //

dimensions      [1 -1 -3 -1 0 0 0];

internalField   nonuniform List<scalar> 
52000
(
0
0
0
0
0
0
0
0
0
0
0
0
0
0
0
0
0
0
0
0
0
0
0
0
0
0
0
0
0
0
0
0
0
0
0
0
0
0
0
0
0
0
0
0
0
0
0
0
0
0
0
0
0
0
0
0
0
0
0
0
0
0
0
0
0
0
0
0
0
0
0
0
0
0
0
0
0
0
0
0
0
0
0
0
0
0
0
0
0
0
0
0
0
0
0
0
0
0
0
0
0
0
0
0
0
0
0
0
0
0
0
0
0
0
0
0
0
0
0
0
0
0
0
0
0
0
0
0
0
0
0
0
0
0
0
0
0
0
0
0
0
0
0
0
0
0
0
0
0
0
0
0
0
0
0
0
0
0
0
0
0
0
0
0
0
0
0
0
0
0
0
0
0
0
0
0
0
0
0
0
0
0
0
0
0
0
0
0
0
0
0
0
0
0
0
0
0
0
0
0
0
0
0
0
0
0
0
0
0
0
0
0
0
0
0
0
0
0
0
0
0
0
0
0
0
0
0
0
0
0
0
0
0
0
0
0
0
0
0
0
0.0001599249
0
0
0
0
0
0
0
0
0
0
0
0
0
0
0
0
0
0
0
0
0
0
0
0
0
0
0
0
0
0
0
0
0
0
0
0
0
0
0
0
0
0
0
0
0
0
0
0
0
0
0
0
0
0
0
0
0
0
0
0
0
0
0
0
0
-0.0004766105
0
0
0
0
0
0.0002933792
-0.0004428017
0
0
0
0
0
0
0
0
0
0
0
0
0
0
0
0
0
0
0
0
0
0
0
0
0
0
0
0
0
0
0
0
0
0
0
0
0
0
0
0
0
0
0
0
0
0
0
0
0
0
0
0
0
0
0
0
0
0
0
0
0
0
0
0
0
0
0
0
0
0
0.0002186166
0
0
0
0
0
0.0002673799
0.0009845509
0
0
0
0
0
2.762478e-06
-0.0006929517
0.0001994362
0
0
0
0
0
0
0
0
0
0
0
0
0
0
0
0
0
0
0
0
0
0
0
0
0
0
0
0
0
0
0
0
0
0
0
0
0
0
0
0
0
0
0
0
0
0
0
0
0
0
0
0
0
0
0
0
0
0
0
0
0
0
0
0
0
0
0
0
0
0
0
0
0
0
0
-0.0003974493
0
0
0
0
0
-0.0006443381
-0.0005506756
0
0
0
0
0
0.0001674058
0.0001777941
3.688059e-05
0
0
0
0
0
0.0007012305
0.0001337472
-4.913676e-05
-0.0005204722
0
0
0
0
0
0
0
0
0
0
0
0
0
0
0
0
0
0
0
0
0
0
0
0
0
0
0
0
0
0
0
0
0
0
0
0
0
0
0
0
0
0
0
0
0
0
0
0
0
0
0
0
0
0
0
0
0
0
0
0
0
0
0
0
0
0
0
0
0
0
0
0
0
0
0
0
0
0
0
0
-0.00032977
0
0
0
0
0
-5.866167e-05
0.0002700257
0
0
0
0
0
0.0003191743
0.0005717415
0.0001843818
0
0
0
0
0
-0.0007344032
-8.289457e-05
-0.0003140539
0.0009680519
0
0
0
0
0
-0.000186176
-0.000751049
-0.0008509108
-0.0003390222
-0.0005165625
0
0
0
0
0
0
0
0
0
0
0
0
0
0
0
0
0
0
0
0
0
0
0
0
0
0
0
0
0
0
0
0
0
0
0
0
0
0
0
0
0
0
0
0
0
0
0
0
0
0
0
0
0
0
0
0
0
0
0
0
0
0
0
0
0
0
0
0
0
0
0
0
0
0
0
0
0
0
0
0
0
0
0
0
0
-0.0003425756
0
0
0
0
0
0.0001759353
0.0002298507
0
0
0
0
0
7.623675e-06
0.0003391997
-0.0002664612
0
0
0
0
0
-2.291168e-05
-0.00126255
-0.0005138303
-0.000797032
0
0
0
0
0
0.0001437975
0.000258285
0.001232443
0.0005095605
0.001100125
0
0
0
0
0
0.0003100401
0.0006771494
0.0004830078
0.0005335935
-0.000342746
-0.0004435603
0
0
0
0
0
0
0
0
0
0
0
0
0
0
0
0
0
0
0
0
0
0
0
0
0
0
0
0
0
0
0
0
0
0
0
0
0
0
0
0
0
0
0
0
0
0
0
0
0
0
0
0
0
0
0
0
0
0
0
0
0
0
0
0
0
0
0
0
0
4.137227e-07
0
0
0
0
0
0
0
0
0
0
0
0
0
0
0
0
0
0
0
0
0.0002204587
0
0
0
0
0
-0.0002743192
0.001718008
0
0
0
0
0
0.0006859226
-0.0004350124
7.714602e-05
0
0
0
0
0
-0.0006443485
0.0006481206
0.001142049
0.001560052
0
0
0
0
0
0.0001758754
0.0002993334
-0.0003744615
-0.0005111593
-0.001576726
0
0
0
0
0
-0.0005295408
-0.001388754
-7.756962e-05
-0.001019174
-7.697673e-05
0.001198789
0
0
0
0
0
-1.856092e-06
-0.0002954684
0.0003615
-7.175891e-05
-0.0002946184
0.0002908134
0.0003513361
0
0
0
0
0
0
0
0
0
0
0
0
0
0
0
0
0
0
0
0
0
0
0
0
0
0
0
0
0
0
0
0
0
0
0
0
0
0
0
0
0
0
0
0
0
0
0
0
0
0
0
0
0
0
0
0
0
1.140789e-06
0
0
0
0
0
0
0
0
0
0
0
0
0
0
0
-1.350672e-06
-8.128589e-06
0
0
0
0
0
0
0
0
0
0
0
0
0
0
0
0
0
0
0
0
0.0003678262
0
0
0
0
0
-2.720055e-05
-0.0006765478
0
0
0
0
0
-0.0005479074
0.0006380854
-3.6376e-05
0
0
0
0
0
0.0006781193
-0.0004145944
-0.0007820011
-0.001238658
0
0
0
0
0
-4.991365e-06
0.0003398371
-0.0002400269
0.0006732293
-0.001072047
0
0
0
0
0
0.0001341806
0.002469591
-1.565836e-05
0.0004876654
0.0007786253
0.0002798246
0
0
0
0
0
1.250459e-05
0.0007353323
-0.0001898935
0.001171916
0.0008666712
0.0003381718
0.0006904687
0
0
0
0
0
-0.0002264379
0.0001440875
-0.0001059337
-7.058981e-05
0.0008837586
9.436316e-07
0.0002116313
0.0001934334
0
0
0
0
0
0
0
0
0
0
0
0
0
0
0
0
0
0
0
0
0
0
0
0
0
0
0
0
0
0
0
0
0
0
0
0
0
0
0
0
0
0
0
0
-1.722251e-06
0
0
0
0
0
0
0
0
0
0
0
0
0
0
0
4.623918e-06
-9.364071e-08
0
0
0
0
0
0
0
0
0
0
0
0
0
0
0
3.938188e-07
-2.286415e-06
2.192096e-06
0
0
0
0
0
0
0
0
0
0
0
0
0
0
0
0
0
0
0
0
6.513539e-05
0
0
0
0
0
0.0004003159
-0.00103054
0
0
0
0
0
0.000224575
-0.0002502576
-0.0003242727
0
0
0
0
0
-2.612901e-05
-0.001248252
0.0008654756
-6.434964e-05
0
0
0
0
0
1.457974e-05
-0.0004053031
0.001065169
-0.0009624532
0.001973197
0
0
0
0
0
7.984249e-05
-0.001555237
0.0005112244
0.001044592
-0.0008126255
-0.0006492743
0
0
0
0
0
8.160759e-06
0.0008685987
-0.002495372
0.000398123
-0.001518185
0.0002261215
-5.534483e-05
0
0
0
0
0
-1.617393e-05
0.0005967354
-0.0007934192
4.95353e-05
-0.002680425
0.0003703092
-0.0007569573
-0.0004306343
0
0
0
0
0
-8.142675e-05
0.0001227986
-0.0004629436
0.0006664169
0.00034137
1.631948e-05
-0.000711459
0.0002365997
-0.00122211
0
0
0
0
0
0
0
0
0
0
0
0
0
0
0
0
0
0
0
0
0
0
0
0
0
0
0
0
0
0
7.285643e-07
0
0
0
0
0
0
0
0
0
0
0
0
0
0
0
-3.197489e-06
-2.47029e-06
0
0
0
0
0
0
0
0
0
0
0
0
0
0
0
8.183754e-08
-1.625305e-06
-2.391644e-06
0
0
0
0
0
0
0
0
0
0
0
0
0
0
0
-1.31771e-06
-1.338931e-06
-2.928162e-06
4.608735e-07
0
0
0
0
0
0
0
0
0
0
0
0
0
0
0
0
0
0
0
0
-0.0001455118
0
0
0
0
0
-0.001624455
0.0005452739
0
0
0
0
0
-0.0008116573
0.001753749
0.0005614259
0
0
0
0
0
-0.0005671562
0.001898462
-0.001229944
-0.0006168235
0
0
0
0
0
-0.0002944554
0.001066348
-0.001184856
-0.000465242
-0.0003798003
0
0
0
0
0
0.0005247749
0.0001756252
-0.0007770257
-0.001398565
-0.0001813876
-0.0005145399
0
0
0
0
0
0.0002627634
0.0007503339
0.00192805
0.001410707
0.00213183
0.000741216
2.661499e-05
0
0
0
0
0
-0.0001947665
-0.0002188134
-0.001424331
0.0003740468
-0.001074606
0.0004872851
1.554383e-05
0.001175309
0
0
0
0
0
0.0004097138
0.0006351899
-0.0004826638
-0.0002803485
0.0001836738
0.0001043136
-0.0003965249
-0.001018351
0.0001687042
0
0
0
0
0
-6.016132e-05
-0.0001514509
6.364723e-05
0.0002398674
-0.000213912
0.0001344106
6.16735e-05
2.78014e-05
-0.0001324189
0.0003642093
0
0
0
0
0
0
0
0
0
0
0
0
0
0
0
-4.50007e-06
0
0
0
0
0
0
0
0
0
0
0
0
0
0
0
9.741105e-07
-3.708905e-06
0
0
0
0
0
0
0
0
0
0
0
0
0
0
0
-9.840891e-07
-3.599192e-06
-6.089553e-06
0
0
0
0
0
0
0
0
0
0
0
0
0
0
0
9.837899e-07
-9.942549e-07
1.169023e-06
-1.868812e-06
0
0
0
0
0
0
0
0
0
0
0
0
0
0
0
1.017817e-06
-1.337343e-06
9.025345e-07
2.431685e-06
1.719021e-06
0
0
0
0
0
0
0
0
0
0
0
0
0
0
0
0
0
0
0
0
0
0
0
0
0
0.0003852522
4.179263e-05
0
0
0
0
0
0.0007877502
0.0009438924
0.0005470094
0
0
0
0
0
0.0003829784
-0.001240198
-0.00220829
-0.000116019
0
0
0
0
0
-0.0001658009
-1.674416e-05
0.0008822972
0.0001203248
0.00101782
0
0
0
0
0
-0.0001400478
5.706423e-05
-0.001477732
0.0007799281
0.0008709095
0.0003233459
0
0
0
0
0
4.022063e-05
-0.0008834759
-1.804779e-05
-0.001112933
0.0001797527
-0.000549067
0.0009368691
0
0
0
0
0
0.0002039314
-4.185097e-05
4.59947e-05
0.001080837
-7.878589e-05
-0.000483711
-0.0005401279
-0.0006239667
0
0
0
0
0
0.0003856931
-0.001550944
-0.0008385961
0.0009764761
-0.0008134531
0.00164273
0.0004389446
0.00101702
-0.002821345
0
0
0
0
0
-0.0001628673
-0.0002764643
-0.0002438197
-0.0002376838
-0.001360228
-0.001068312
0.000377478
0.001221189
-0.000115874
0.0003853087
0
0
0
0
0
8.733931e-05
0.0001810537
0.0009718413
0.0004004734
-0.0002733844
0.0002207254
-0.001073691
-0.0007988426
0.0006825361
0.0001388468
-0.0001589425
0
0
0
0
0
0
0
0
0
0
0
0
0
0
0
-3.826442e-06
-4.458749e-07
0
0
0
0
0
0
0
0
0
0
0
0
0
0
0
-1.093074e-06
-2.288254e-06
-1.20546e-06
0
0
0
0
0
0
0
0
0
0
0
0
0
0
0
-1.675543e-06
8.472502e-07
-4.746237e-06
3.212277e-06
0
0
0
0
0
0
0
0
0
0
0
0
0
0
0
1.555868e-06
2.286467e-06
-1.399583e-06
1.884169e-07
6.651864e-06
0
0
0
0
0
0
0
0
0
0
0
0
0
0
0
6.002728e-07
-1.686346e-06
1.21557e-06
7.440849e-08
-1.922371e-06
-8.235335e-06
0
0
0
0
0
0
0
0
0
0
0
0
0
0
0
0
0
0
0
0
0
0
0
0
0
0
0
0
0
0
-0.0003435979
0.000151306
-0.0002351745
0
0
0
0
0
-0.0004299643
0.000524278
8.912869e-05
-0.0006756081
0
0
0
0
0
0.0004407145
-0.0002350786
0.0008022575
0.000736961
-0.001159844
0
0
0
0
0
0.0005662618
-0.0001543568
0.0006833265
-0.0006854879
-0.0004368315
-0.001817334
0
0
0
0
0
0.0002964543
-0.0009733931
0.0005275889
0.001505337
-0.0008770757
-0.0003327144
-0.0004796238
0
0
0
0
0
0.0002379984
-0.0003370652
-0.0008217307
-0.000869615
-0.0002479253
-0.001507706
0.0007069155
0.0008767201
0
0
0
0
0
-0.0003897768
3.583405e-05
-0.0001588035
0.001300138
-0.0003282231
-0.0009137579
-0.001279008
-0.0008089113
-0.0003237834
0
0
0
0
0
0.000819244
-0.001553728
0.001545876
0.001239825
0.00131096
4.706584e-05
-0.000192098
-0.0003965563
0.0007276389
0.002089882
0
0
0
0
0
0.0003309684
-0.0007843384
-0.000621586
-0.00102853
0.001105143
0.00192958
0.0008472904
0.0006524914
-0.002864251
0.0005402214
-0.0004570367
0
0
0
0
0
-0.0003468232
-3.248322e-05
0.0009386822
-0.000665612
0.000535989
0.0003059898
-0.0002588246
0.0008784181
0.0004488629
-0.0002562598
8.527602e-07
-3.124876e-06
0
0
0
0
0
0
0
0
0
0
0
0
0
0
0
2.474952e-07
1.705081e-06
2.588368e-06
0
0
0
0
0
0
0
0
0
0
0
0
0
0
0
-2.495025e-06
8.268041e-07
-6.136635e-07
4.677308e-06
0
0
0
0
0
0
0
0
0
0
0
0
0
0
0
-2.03602e-07
2.306147e-06
1.001611e-07
6.076911e-07
8.407796e-07
0
0
0
0
0
0
0
0
0
0
0
0
0
0
0
2.940296e-06
1.38622e-06
3.670979e-06
1.468054e-06
6.109333e-06
9.592482e-06
0
0
0
0
0
0
0
0
0
0
0
0
0
0
0
9.32617e-07
-1.282677e-06
-1.341224e-06
-3.117649e-06
1.65964e-06
-4.359547e-05
1.436787e-05
0
0
0
0
0
0
0
0
0
0
0
0
0
0
0
0
0
0
0
0
0
0
0
0
0
0
0
0
0
0
0
0
0
0
0
0.0002958764
-3.63999e-05
-0.0003778153
0.0001160427
0
0
0
0
0
-0.0005284117
-4.152512e-05
-0.002622696
-0.0001054858
0.0004202071
0
0
0
0
0
-0.0003672368
0.0007444177
-0.001057013
0.0007521117
-0.0002961114
0.001443385
0
0
0
0
0
0.0006102252
-0.0001183403
-0.0004809049
-0.0009248044
2.948859e-05
-0.0001314898
0.0006954246
0
0
0
0
0
-0.0001388398
-0.001007443
0.001544356
-0.001341976
-0.0004185881
0.0004088903
-0.0002411484
0.0002385183
0
0
0
0
0
0.000543599
-0.0003303163
0.001043044
-0.00134339
0.0008429367
0.0008998239
0.001039447
0.001162431
0.002224469
0
0
0
0
0
-0.0005304506
-9.669347e-05
0.0007842496
0.000972077
-0.001271575
0.0003268001
0.001374787
0.0005806244
-9.237202e-05
-0.0004962257
0
0
0
0
0
-0.0002721471
0.0009397781
0.001032584
0.0002875867
-0.0006473585
-0.001631961
0.0008645895
0.0001032126
0.001974932
-0.0008509023
-0.0004484284
0
0
0
0
0
0.0003393534
-0.001356483
-0.00085732
0.0004309445
0.0003864724
-0.001375152
-0.0002784731
0.0005350915
-0.0006312693
0.0008664431
7.837329e-05
2.133041e-06
0
0
0
0
0
9.855755e-05
0.0009223094
-0.0006251752
-0.000319673
-7.238335e-05
-0.0003106196
0.0001206789
-0.0001735146
-0.0006072195
-0.0002269957
-6.29861e-05
3.172542e-07
4.862449e-06
0
0
0
0
0
0
0
0
0
0
0
0
0
0
0
2.00219e-06
-2.949796e-06
-4.457384e-07
-2.921148e-06
0
0
0
0
0
0
0
0
0
0
0
0
0
0
0
-2.429915e-07
-2.436559e-06
1.944461e-06
3.448806e-06
2.884665e-06
0
0
0
0
0
0
0
0
0
0
0
0
0
0
0
2.827725e-07
1.454562e-06
2.654211e-07
9.601032e-07
-6.532311e-07
-7.641754e-06
0
0
0
0
0
0
0
0
0
0
0
0
0
0
0
8.897645e-07
-8.070697e-07
3.950977e-06
-4.384199e-06
-2.920688e-06
2.518079e-05
-1.14499e-05
0
0
0
0
0
0
0
0
0
0
0
0
0
0
0
1.504862e-06
-1.492719e-06
-2.12048e-06
3.407845e-06
4.052146e-07
9.378014e-07
3.962109e-05
5.398546e-06
0
0
0
0
0
0
0
0
0
0
0
0
0
0
0
0
0
0
0
0
0
0
0
0
0
0
0
0
0
0
0
0
0
0
0
0
0
0
0
0
0.000213364
-0.0002434012
0.0006968692
-8.550768e-05
0.001078234
0
0
0
0
0
9.908938e-08
0.0006536995
0.0007854452
0.00116107
0.0002918633
6.451952e-05
0
0
0
0
0
-0.001035627
-0.0003242915
-0.001384827
0.0002551189
0.0001090205
0.0001729386
0.000169577
0
0
0
0
0
0.0001002276
-0.001587701
-0.001458456
0.001038813
0.0007941648
0.0007779702
0.0003581378
-0.0004359399
0
0
0
0
0
-0.0004880295
0.0003665368
0.0006083745
0.0003202172
-0.0001154961
-0.0009426939
-0.0014402
-0.0003039645
-0.001185917
0
0
0
0
0
0.0002449071
0.0006115084
0.0008468205
-0.002170823
5.119548e-06
0.0006919672
-7.575144e-05
-0.0006323861
-0.002262718
-0.002226768
0
0
0
0
0
-0.0006208797
0.001020828
-0.001551878
-0.002643306
-0.001018736
0.001318876
-0.0009361098
-0.001035152
-0.001091947
0.001125708
-5.831661e-05
0
0
0
0
0
0.000467905
0.001376741
-0.000450326
0.002357437
-0.001173721
0.0001573809
0.0004924215
-0.000687804
-0.0007434648
-0.0001705042
-0.0002498428
1.308991e-06
0
0
0
0
0
-0.000474614
3.978815e-05
0.002404998
-0.0007279312
-0.0005441478
-0.0002697715
0.001067287
0.0006085965
0.0004568297
0.0008019783
-0.0002133192
1.250099e-06
8.173994e-08
0
0
0
0
0
0.0001498064
0.0004716241
-0.0006722775
0.0009019951
2.335145e-05
0.0006796517
0.0001685053
0.0001874776
-1.815612e-05
-0.0002090222
-4.112733e-05
-9.399567e-08
1.275018e-06
1.027552e-06
0
0
0
0
0
0
0
0
0
0
0
0
0
0
0
1.930748e-08
5.166419e-06
-6.366743e-07
2.984923e-06
-1.666141e-06
0
0
0
0
0
0
0
0
0
0
0
0
0
0
0
-4.895029e-07
-8.729334e-07
-2.18677e-06
-4.366848e-06
-1.845816e-07
-3.899995e-06
0
0
0
0
0
0
0
0
0
0
0
0
0
0
0
-3.640264e-06
-4.103006e-06
-5.007854e-06
2.846458e-06
8.772552e-07
1.168847e-05
1.443472e-05
0
0
0
0
0
0
0
0
0
0
0
0
0
0
0
-9.442826e-07
-7.034199e-07
-2.131853e-06
-7.933011e-08
2.453601e-07
4.731872e-06
-2.468168e-05
2.030978e-06
0
0
0
0
0
0
0
0
0
0
0
0
0
0
0
-1.895667e-06
-9.184105e-07
-3.688698e-06
-2.423332e-06
-1.756522e-06
1.179371e-06
7.581094e-06
-9.98753e-06
1.041654e-05
0
0
0
0
0
0
0
0
0
0
0
0
0
0
0
0
0
0
0
0
0
0
0
0
0
0
0
0
0
0
0
0
0
0
0
0
0
0
0
0
0
0
0
0
0
-2.947317e-05
-0.0005720148
3.085336e-05
0.0001462981
-0.0002739934
-0.0003595465
0
0
0
0
0
-0.000175372
0.0009603717
0.001090893
0.001014426
-0.000224446
0.0002945455
0.001038298
0
0
0
0
0
-0.0005590065
0.002720704
0.001880196
0.0001303569
-0.0004561452
-0.0005781081
-0.000257071
-0.001041281
0
0
0
0
0
-0.0004917218
0.0006810693
0.0004036994
-0.0002519086
-0.0002933024
0.0001821573
-0.0001925655
-0.001123121
0.0009844396
0
0
0
0
0
-0.000218342
5.987501e-05
-0.002783146
0.0003443944
-0.0009325161
-0.0002629637
-7.195162e-05
0.0009270735
-0.0001991014
0.001754352
0
0
0
0
0
0.0006097576
-0.000906038
0.0004216539
-0.0001772106
0.000271898
-0.0002792975
0.0001216754
0.0004211464
0.00193098
0.0007459426
0.0007240755
0
0
0
0
0
-0.000140445
-0.0001312321
-0.0008194439
-0.001092812
0.001034568
-0.0002595784
-0.001397253
-0.0008932805
0.000408405
0.0002663343
-0.0001230198
2.853011e-07
0
0
0
0
0
0.0004908087
-0.001446453
-0.001643317
-0.0001361501
-0.001201126
-0.001013148
-0.00036273
0.0005527747
-0.000717617
0.0003678704
-6.321608e-05
3.355071e-06
7.177894e-07
0
0
0
0
0
-0.0002910943
-0.0003532121
-2.529898e-05
-0.001233299
0.002695316
-0.001161985
-0.0002989327
-0.0006954491
-0.0008176323
0.001147834
-0.0001379822
1.614672e-06
4.540532e-07
8.751124e-08
0
0
0
0
0
-8.287092e-05
-0.0001106358
-0.0003560931
0.0001757647
0.0004458604
0.0005531611
-0.0007523283
-0.000317947
-0.0002934837
0.0002143033
-1.790085e-05
3.78981e-07
-1.13824e-07
-1.428715e-06
9.05475e-08
0
0
0
0
0
0
0
0
0
0
0
0
0
0
0
3.807674e-07
-2.059221e-06
-1.144098e-07
2.338242e-07
1.434746e-09
-2.386533e-05
0
0
0
0
0
0
0
0
0
0
0
0
0
0
0
-9.387278e-07
-2.041309e-07
-1.895339e-06
-2.658694e-06
2.373865e-06
1.363751e-06
1.867914e-05
0
0
0
0
0
0
0
0
0
0
0
0
0
0
0
-1.296821e-06
3.424747e-06
6.508364e-06
1.853056e-06
2.469898e-06
-1.632227e-05
8.990811e-07
1.024995e-05
0
0
0
0
0
0
0
0
0
0
0
0
0
0
0
2.236593e-06
-9.881698e-07
9.305737e-07
1.181837e-06
4.80895e-07
-1.059436e-05
-4.682024e-06
6.099268e-06
1.181946e-05
0
0
0
0
0
0
0
0
0
0
0
0
0
0
0
-9.205949e-07
6.046575e-07
-2.233214e-06
3.472171e-07
2.675995e-06
2.554919e-06
1.571139e-05
-2.883633e-06
1.259109e-06
9.263711e-06
0
0
0
0
0
0
0
0
0
0
0
0
0
0
0
0
0
0
0
0
0
0
0
0
0
0
0
0
0
0
0
0
0
0
0
0
0
0
0
0
0
0
0
0
0
0
0
0
0
0
-0.0001874818
-4.544682e-05
-0.0002108932
-0.0006981624
-0.0006740958
0.0005972576
-0.0003261163
0
0
0
0
0
0.0009672054
0.0006821376
-0.001897863
0.0002951877
0.0003474753
0.0002921335
-0.0005355474
-0.000334286
0
0
0
0
0
0.0002869159
0.0002317281
-0.0005214668
-0.0004382651
0.001909015
0.0001073479
-0.0004964229
0.0008195394
0.0006813201
0
0
0
0
0
-0.0007250739
0.0004062717
0.0006279682
0.0003167904
0.001947546
0.00022421
0.0001757327
0.0006485422
0.001648916
-0.0006205767
0
0
0
0
0
-0.0001180534
-0.0004811368
0.00144714
0.001496428
0.0004447136
0.0008373148
6.539001e-06
0.0004046919
-0.00140383
0.001269922
-0.0006748693
0
0
0
0
0
-0.0004305887
-0.001227776
0.0002162424
-7.689289e-05
0.0009698597
0.00030203
0.001974605
0.001055452
-8.163554e-05
-0.002808144
-0.0003191049
8.2994e-07
0
0
0
0
0
0.0003052407
0.001127984
0.00148251
0.0002535251
0.0007285453
0.002199779
0.0003545862
-0.0007111933
0.001235117
-0.0006810793
0.0001059325
6.090922e-07
3.150405e-06
0
0
0
0
0
3.347345e-05
-0.000929409
-0.0002790312
0.000131295
-0.002053705
0.001484669
0.0007532047
-0.0001804594
-0.00107297
-0.0006219032
0.0001594031
-6.764713e-07
-5.722486e-06
-7.751501e-07
0
0
0
0
0
0.0007824354
-0.0003233404
0.000136964
0.0003812385
0.0003453496
-0.002431516
0.0004799428
0.0007620699
0.0001202038
0.0002292041
-0.0007809086
-5.413456e-07
-2.137075e-06
1.517613e-07
-1.941796e-06
0
0
0
0
0
0.0001694026
-4.694742e-05
-0.0004373594
0.0007227505
0.0009689627
-0.0001685452
-0.0005627853
-0.0002725749
-0.0003218322
0.0005586127
-3.880733e-05
-2.3069e-06
2.18112e-06
-7.323086e-07
-1.739335e-06
7.961239e-07
0
0
0
0
0
0
0
0
0
0
0
0
0
0
0
3.184829e-06
3.640565e-06
-1.415206e-06
-4.74733e-07
-9.370605e-07
1.696083e-07
7.920264e-06
0
0
0
0
0
0
0
0
0
0
0
0
0
0
0
1.506864e-06
1.48946e-06
-2.863295e-06
5.910387e-07
1.095181e-07
2.24997e-06
1.642628e-05
1.811379e-05
0
0
0
0
0
0
0
0
0
0
0
0
0
0
0
-1.28725e-06
1.908903e-06
-2.923416e-06
-8.474146e-07
-2.148225e-07
5.866888e-06
6.011493e-06
2.444022e-05
5.434533e-06
0
0
0
0
0
0
0
0
0
0
0
0
0
0
0
1.551056e-06
-2.044795e-06
-1.009226e-06
-1.439714e-07
-1.10673e-06
-1.891865e-05
-5.312861e-06
4.200516e-05
-9.497789e-06
-1.435038e-05
0
0
0
0
0
0
0
0
0
0
0
0
0
0
0
8.780575e-07
6.874048e-07
-1.28075e-06
3.762585e-06
-8.748549e-07
-2.750073e-06
2.773918e-05
6.589012e-06
9.911595e-06
1.910603e-05
-79871.45
0
0
0
0
0
0
0
0
0
0
0
0
0
0
0
0
0
0
0
0
0
0
0
0
0
0
0
0
0
0
0
0
0
0
0
0
0
0
0
0
0
0
0
0
0
0
0
0
0
0
0
0
0
0
0
-0.0003760849
8.46662e-05
0.0006356949
0.000172746
-0.0003039118
0.0005055343
-0.0005934572
-4.3927e-05
0
0
0
0
0
5.5013e-05
-0.0006508191
-0.0009689513
0.0001021914
-0.002997913
0.0005268525
-0.0005577307
-0.001072241
-0.0001946992
0
0
0
0
0
0.0002446091
-0.0009548483
-0.001039417
-9.430773e-06
-1.94784e-05
-0.0009251167
0.0004745422
-6.991697e-05
-0.001756493
0.0006503188
0
0
0
0
0
-0.0002495585
0.001878724
-0.0001846646
0.0004086334
-0.0007754755
-0.0007042777
-0.0002736434
-0.0008828991
0.002304248
-0.0008063182
0.0003068426
0
0
0
0
0
0.0005925386
0.001272288
0.001726075
-0.0001719261
-0.001312811
-0.0004567633
-0.000673113
-0.0001953917
-0.001212817
0.002021388
-0.0005283849
8.88442e-06
0
0
0
0
0
-0.0004114048
-0.0002075283
0.0006658034
-0.001014755
8.482711e-05
-0.002133751
0.000315196
-0.001149602
-0.00115408
0.0003393182
0.0003192717
-9.093663e-07
-1.960426e-06
0
0
0
0
0
9.267047e-05
0.0005470666
0.0009795107
1.756997e-05
0.001079714
-0.001226807
-0.0004457067
0.001398368
0.0009364867
-0.0003415883
6.914748e-05
-5.001747e-07
2.915849e-06
-1.462683e-06
0
0
0
0
0
-0.001031545
-0.0006083351
0.001317162
5.828925e-05
-0.0008010331
0.0004015748
0.0004934986
-0.0001743597
-0.0003107778
0.001027188
0.0002917845
1.843357e-06
2.78328e-06
-4.771096e-06
-1.12788e-06
0
0
0
0
0
-0.0008551983
-0.001032464
0.002068322
0.000179883
-0.001656853
-0.001672985
0.0008084814
0.001041334
0.0006267951
-0.0007304733
-0.0003428636
-3.565747e-07
-1.450611e-06
2.604072e-06
4.08417e-06
-1.019883e-05
0
0
0
0
0
-0.0002421207
0.000309549
0.0001563105
-0.000365116
-0.0002501871
-0.0004748241
0.0003687253
0.0006327599
0.001193273
0.0004968129
-0.0003284369
-1.021034e-06
2.248348e-06
-2.346937e-07
1.825079e-07
-1.283379e-05
-5.583168e-07
0
0
0
0
0
0
0
0
0
0
0
0
0
0
0
2.024705e-07
-5.675281e-06
-1.297848e-06
-5.388586e-06
-1.064822e-06
-1.428329e-05
8.657082e-06
2.757599e-05
0
0
0
0
0
0
0
0
0
0
0
0
0
0
0
-9.286273e-07
-3.646116e-07
7.554113e-09
7.439651e-07
3.244472e-07
1.653604e-05
1.883466e-06
1.317229e-05
1.491933e-05
0
0
0
0
0
0
0
0
0
0
0
0
0
0
0
4.647817e-07
1.093751e-06
-1.712732e-06
2.829364e-06
2.691101e-06
-2.553919e-05
-3.820199e-06
-3.871823e-06
2.045607e-06
-2.20685e-05
0
0
0
0
0
0
0
0
0
0
0
0
0
0
0
1.839193e-06
-3.146746e-07
2.853018e-06
-3.725119e-06
-2.894121e-06
-2.479853e-05
1.896895e-05
9.05642e-06
-3.103077e-05
2.427064e-06
-80556.43
0
0
0
0
0
0
0
0
0
0
0
0
0
0
0
-2.455509e-06
-2.973205e-07
-2.007681e-06
3.801759e-07
-4.93363e-07
8.298657e-06
2.564979e-05
-8.620978e-06
-2.032205e-05
-1.844209e-05
-73291
-80459.69
0
0
0
0
0
0
0
0
0
0
0
0
0
0
0
0
0
0
0
0
0
0
0
0
0
0
0
0
0
0
0
0
0
0
0
0
0
0
0
0
0
0
0
0
0
0
0
0
0
0
0
0
0
0
0
0
0
0
0
0
-4.967291e-05
-0.0001435489
0.000667695
-0.0004442913
0.0007213478
8.464688e-05
4.044432e-05
0.0008281035
0.0004873995
0
0
0
0
0
0.0003811265
0.001980143
0.0009000412
0.0004517318
0.0004348751
0.0005461523
-0.002158627
0.00144168
0.0009876327
-0.00106339
0
0
0
0
0
-0.0004924034
-0.001218227
0.0004472609
0.0002855535
-0.0001347922
0.0006825645
0.0005462972
0.0005844382
-0.001884016
0.001782425
-0.0001970287
0
0
0
0
0
3.992336e-06
-0.0004313689
-0.001765037
-2.391399e-05
0.0007407444
0.0001252362
-3.662466e-05
0.0004091606
0.001148649
-0.001941849
-0.0001981691
3.708216e-07
0
0
0
0
0
8.189142e-05
-0.0006197305
-0.002076381
-0.001525444
-0.00085697
0.0001337624
-0.0001619814
6.844328e-05
-0.0002146446
0.000947085
-0.0004187928
3.491985e-06
4.465649e-08
0
0
0
0
0
-0.0006157173
0.0008335233
-0.001120104
-0.001219523
0.0007619732
0.0005895638
0.001137757
-0.0004342433
-0.0001209323
0.0007686219
-0.0001599406
6.097847e-06
-2.258831e-06
-4.358083e-06
0
0
0
0
0
0.0003321173
0.0008526021
-0.0004612359
3.044355e-05
0.0006141952
-0.0001029832
0.001536937
0.0002477345
-0.0004604799
0.001211976
-6.632782e-05
-1.881918e-06
-8.422326e-07
2.75756e-06
8.038124e-08
0
0
0
0
0
0.0003739893
0.0005497938
-0.002215752
-0.001387012
0.0005270466
0.001249587
0.00178887
-0.001809913
-0.0007424638
0.001117951
-0.0002518659
1.542602e-06
2.896697e-06
-3.348863e-06
-3.630883e-06
-2.297767e-05
0
0
0
0
0
0.0002686432
-0.0001069273
-6.994548e-05
0.0001253813
0.0008375775
-0.001069173
-0.0001542546
-0.00108038
-0.002243046
-0.0009141624
5.826755e-05
3.432441e-07
-6.889563e-07
-3.961555e-06
1.512189e-06
-2.39728e-05
1.370886e-05
0
0
0
0
0
-0.0003238987
-6.631943e-05
2.85295e-06
0.0001091359
-0.0002338923
0.0001424063
0.0003661735
0.0004249766
-0.0003859073
-8.726602e-05
1.489311e-05
1.970378e-06
5.614752e-07
1.227437e-06
6.465895e-06
-1.379936e-05
-6.958292e-07
2.622806e-05
0
0
0
0
0
0
0
0
0
0
0
0
0
0
0
2.413991e-06
-1.43635e-06
5.950367e-06
1.688338e-06
-1.871954e-06
-1.226937e-05
2.887816e-05
7.876582e-06
2.794867e-05
0
0
0
0
0
0
0
0
0
0
0
0
0
0
0
-1.022448e-06
1.10094e-06
-5.586503e-07
-1.649195e-06
-1.678553e-06
-1.403033e-07
-9.189787e-06
-7.06842e-06
2.584947e-07
-1.014163e-05
0
0
0
0
0
0
0
0
0
0
0
0
0
0
0
1.479637e-06
-3.905516e-06
-7.831879e-07
1.027197e-06
2.343381e-06
-1.426035e-05
1.168197e-05
3.657441e-06
-4.756399e-06
-2.121889e-05
-81932.7
0
0
0
0
0
0
0
0
0
0
0
0
0
0
0
-1.265039e-06
-1.201878e-06
-3.03908e-06
-8.85826e-07
4.450846e-07
1.267124e-05
2.62086e-05
2.651368e-06
5.041361e-06
1.656471e-05
-73739.26
-81156.33
0
0
0
0
0
0
0
0
0
0
0
0
0
0
0
-7.684849e-07
6.440932e-07
-2.810489e-06
-2.265729e-06
-9.18607e-08
4.229953e-06
-8.164743e-06
-2.261869e-05
-1.903423e-05
1.917165e-05
-67720.07
-73807.34
-82014.15
0
0
0
0
0
0
0
0
0
0
0
0
0
0
0
0
0
0
0
0
0
0
0
0
0
0
0
0
0
0
0
0
0
0
0
0
0
0
0
0
0
0
0
0
0
0
0
0
0
0
0
0
0
0
0
0
0
0
0
0
0
0
0
0
0
4.851886e-05
-0.000623935
0.0002723873
-0.0002752266
0.0001477272
-5.741084e-06
0.0007114974
-0.000224732
-0.0005454569
8.658474e-05
0
0
0
0
0
0.0005108699
-0.0001350558
-0.0019163
-0.00158797
0.0001421423
-0.001545352
-0.0004740441
-0.0007746685
-0.000811717
-0.0004860755
0.0005423218
0
0
0
0
0
0.0003230352
0.0001688049
0.0005614496
0.00121265
0.001096754
-0.001152539
5.289559e-05
0.0004134946
0.0001471303
0.0007612662
-0.0007498248
1.491529e-06
0
0
0
0
0
-0.0004567462
0.0006682281
0.0001114478
0.0008884114
0.0006591405
0.000441019
0.0005085086
8.743392e-05
0.0003129696
0.000273544
0.0002298469
2.876804e-07
-8.505753e-07
0
0
0
0
0
-0.0004848533
-0.002146915
0.000609131
0.001324381
-2.65984e-06
3.3606e-05
3.376316e-05
0.0007098926
-0.0001698088
0.0007912094
-0.0001830997
1.787977e-06
1.551752e-06
3.554014e-07
0
0
0
0
0
3.721389e-05
-0.000692707
0.0003560038
0.001054535
0.001094015
0.000842346
-0.0006095592
-0.0007658025
-0.001120304
-0.001320039
-0.0003209316
3.394214e-06
-3.935074e-06
-5.149313e-06
-1.237212e-07
0
0
0
0
0
-0.00042297
0.0004379018
0.0007070069
0.0001074463
-0.0006859016
0.0003625252
-0.0009815026
-0.0006273556
-9.533536e-05
-0.001209851
-0.0005580123
-1.091868e-07
-2.622771e-06
8.872751e-07
4.893492e-06
-2.595886e-05
0
0
0
0
0
1.038502e-05
-0.000818645
0.0006969553
0.0004715427
-0.0008328249
0.0003294356
0.0001121304
-0.0004238871
0.0009018132
0.0008766295
4.363696e-05
1.04899e-06
-1.053435e-06
3.527341e-06
5.185912e-07
-2.417725e-05
1.881236e-05
0
0
0
0
0
0.0003731351
-0.000122891
0.001473303
0.0006738264
-0.0007035449
-0.0001776001
0.0009443912
-0.001145488
0.0007643936
0.0003254712
0.0003848413
4.094296e-06
-9.866703e-07
-3.033812e-06
-3.500111e-06
9.712472e-06
5.368003e-05
2.783191e-05
0
0
0
0
0
0.0003156895
-0.0002745111
0.000878845
-0.0004097888
0.0003842986
0.0005585693
-1.64444e-05
-0.0004224942
0.0001439331
0.0004137695
-0.0001763451
-1.189593e-06
-2.015514e-07
-2.805216e-07
1.887212e-06
-2.252973e-06
1.095571e-05
1.776766e-05
2.392786e-05
0
0
0
0
0
0
0
0
0
0
0
0
0
0
0
2.020596e-06
-2.947784e-06
-1.164271e-06
9.819725e-08
-4.301902e-07
-1.058734e-05
2.853852e-06
-7.49159e-06
1.361342e-06
-3.417965e-05
0
0
0
0
0
0
0
0
0
0
0
0
0
0
0
-2.69047e-06
1.114788e-06
-3.54499e-06
3.850265e-06
3.117495e-07
6.695179e-06
2.729174e-06
9.61356e-07
5.568358e-06
-2.09704e-07
-83987.27
0
0
0
0
0
0
0
0
0
0
0
0
0
0
0
-1.208229e-06
-2.742667e-06
3.682692e-06
1.794772e-06
-2.05185e-06
-1.432031e-05
3.19722e-05
1.666523e-05
-3.688482e-06
1.518342e-05
-74617.74
-82555.86
0
0
0
0
0
0
0
0
0
0
0
0
0
0
0
-9.995133e-07
1.814655e-06
4.136191e-06
5.00782e-06
-9.781809e-07
9.458216e-06
-9.810882e-06
-2.339421e-05
5.847398e-06
-1.304113e-05
-68064.77
-74263.54
-82738.63
0
0
0
0
0
0
0
0
0
0
0
0
0
0
0
1.746379e-06
-3.069995e-07
-2.363525e-06
1.798517e-06
1.942312e-06
-1.093649e-05
4.230257e-08
9.55038e-07
-1.447098e-06
8.914152e-06
-63246.12
-68182.91
-75159.19
-84582.56
0
0
0
0
0
0
0
0
0
0
0
0
0
0
0
0
0
0
0
0
0
0
0
0
0
0
0
0
0
0
0
0
0
0
0
0
0
0
0
0
0
0
0
0
0
0
0
0
0
0
0
0
0
0
0
0
0
0
0
0
0
0
0
0
0
0
0
0
0
0
-0.0001223429
-0.000126771
0.0005214652
0.0002781746
0.0005126468
0.0001513642
4.78211e-05
0.000518977
4.22487e-05
2.216128e-05
5.627335e-06
0
0
0
0
0
-0.0007843146
-0.0001390509
-0.001727644
1.449179e-05
0.0007342598
0.0009388216
0.001493211
0.0002353361
0.001431423
0.0001493868
0.0001242969
-1.223818e-06
0
0
0
0
0
0.000519866
-0.0002497803
0.000981129
3.66179e-05
-0.001133085
-0.0003853041
0.001737036
0.0001675408
-0.00193887
-0.0001964018
1.447276e-05
4.165854e-07
6.967616e-07
0
0
0
0
0
-7.207076e-05
0.001425607
-0.0009163046
7.614371e-05
0.0006717418
-0.0003824012
-0.0005073002
0.0008429969
0.0009263448
-0.001254242
4.131394e-05
-1.790478e-06
-1.441842e-06
-2.157173e-06
0
0
0
0
0
-0.00025627
0.0003552488
0.0010489
-0.001559364
0.0003382596
-0.001075022
-8.941266e-06
-0.0004222641
-0.0007721826
3.391167e-05
-1.69038e-05
-2.176018e-06
-2.73647e-06
1.245978e-06
-1.506582e-06
0
0
0
0
0
0.000373559
0.0002514022
-0.0001820817
-0.0002513119
0.0007338477
-0.001749051
0.001298918
0.0001425792
-0.0003247297
0.0002090069
0.000377829
4.309622e-07
2.416404e-06
7.825358e-07
-3.189389e-06
-1.746954e-05
0
0
0
0
0
-2.591508e-05
0.001525298
0.0002266569
-0.0001173395
0.0009588937
-0.001987989
0.0001065415
0.0006950143
0.0007360987
0.0008452088
0.0003559036
8.874893e-07
4.108444e-06
-2.460538e-06
-1.199367e-06
3.129515e-05
4.909906e-05
0
0
0
0
0
-0.000922266
7.172973e-05
0.0009625618
-0.001436447
-0.0001734419
0.001459418
-0.0003935103
0.0005671591
0.001548016
-3.484569e-05
-0.0007792213
-4.341473e-08
-5.780057e-07
-6.15469e-07
5.395799e-06
-1.128426e-05
-3.335445e-06
4.463426e-05
0
0
0
0
0
-0.0005144957
0.001406338
-0.001422609
-0.0004729212
-0.001622902
-0.0007872985
1.383596e-05
0.0005681276
0.0004296647
-0.0007986049
-0.0002419343
-9.524488e-08
-3.094201e-06
7.657448e-07
-3.842291e-07
-5.952508e-06
-6.334463e-06
-3.155433e-06
1.496534e-05
0
0
0
0
0
-0.000140422
-0.0004623038
-0.0003769429
-5.296979e-05
0.0004149719
-0.0002636054
0.0001494648
-0.0001410878
0.0002890042
-0.0003115354
-8.579597e-05
-8.074269e-08
8.990178e-06
1.897491e-06
2.440504e-07
-2.240016e-05
1.82068e-05
1.095623e-05
-1.358573e-05
-3.277472e-05
0
0
0
0
0
0
0
0
0
0
0
0
0
0
0
2.123909e-06
1.056891e-07
3.804692e-06
-1.696623e-06
-1.357727e-06
5.631707e-06
-3.113554e-06
2.066824e-05
1.02373e-05
2.964693e-06
-86620.78
0
0
0
0
0
0
0
0
0
0
0
0
0
0
0
-1.244204e-06
5.341016e-06
-2.036844e-06
1.686931e-06
3.861417e-06
1.465761e-05
-8.364044e-06
1.644385e-05
6.172352e-06
-1.648003e-05
-75867.24
-84644.01
0
0
0
0
0
0
0
0
0
0
0
0
0
0
0
-4.593605e-07
2.007356e-07
2.961187e-06
1.750182e-06
5.908796e-07
-2.176067e-05
1.072915e-05
-2.205171e-05
-1.617155e-05
3.068391e-06
-68733.18
-75157.85
-84194.43
0
0
0
0
0
0
0
0
0
0
0
0
0
0
0
2.495738e-08
8.29018e-07
-7.537619e-07
-9.785539e-07
-3.044392e-06
-3.981379e-06
-1.125973e-05
-1.013832e-05
1.096064e-05
-1.457586e-05