/*--------------------------------*- C++ -*----------------------------------*\
| =========                 |                                                 |
| \\      /  F ield         | OpenFOAM: The Open Source CFD Toolbox           |
|  \\    /   O peration     | Version:  2306                                  |
|   \\  /    A nd           | Website:  www.openfoam.com                      |
|    \\/     M anipulation  |                                                 |
\*---------------------------------------------------------------------------*/
FoamFile
{
    version     2.0;
    format      ascii;
    arch        "LSB;label=32;scalar=64";
    class       volScalarField;
    location    "1.5";
    object      k;
}
// * * * * * * * * * * * * * * * * * * * * * * * * * * * * * * * * * * * * * //

dimensions      [1 1 -3 -1 0 0 0];

internalField   nonuniform List<scalar> 
52000
(
20
20
20
20
20
20
20
20
20
20
20
20
20
20
20
20
20
20
20
20
20
20
20
20
20
20
20
20
20
20
20
20
20
20
20
20
20
20
20
20
20
20
20
20
20
20
20
20
20
20
20
20
20
20
20
20
20
20
20
20
20
20
20
20
20
20
20
20
20
20
20
20
20
20
20
20
20
20
20
20
20
20
20
20
20
20
20
20
20
20
20
20
20
20
20
20
20
20
20
20
20
20
20
20
20
20
20
20
20
20
20
20
20
20
20
20
20
20
20
20
20
20
20
20
20
20
20
20
20
20
20
20
20
20
20
20
20
20
20
20
20
20
20
20
20
20
20
20
20
20
20
20
20
20
20
20
20
20
20
20
20
20
20
20
20
20
20
20
20
20
20
20
20
20
20
20
20
20
20
20
20
20
20
20
20
20
20
20
20
20
20
20
20
20
20
20
20
20
20
20
20
20
20
20
20
20
20
20
20
20
20
20
20
20
20
20
20
20
20
20
20
20
20
20
20
20
20
20
20
20
20
20
20
20
20
20
20
20
20
20
0.08280518
20
20
20
20
20
20
20
20
20
20
20
20
20
20
20
20
20
20
20
20
20
20
20
20
20
20
20
20
20
20
20
20
20
20
20
20
20
20
20
20
20
20
20
20
20
20
20
20
20
20
20
20
20
20
20
20
20
20
20
20
20
20
20
20
20
0.08213105
20
20
20
20
20
0.08359425
0.0821198
20
20
20
20
20
20
20
20
20
20
20
20
20
20
20
20
20
20
20
20
20
20
20
20
20
20
20
20
20
20
20
20
20
20
20
20
20
20
20
20
20
20
20
20
20
20
20
20
20
20
20
20
20
20
20
20
20
20
20
20
20
20
20
20
20
20
20
20
20
20
0.08175923
20
20
20
20
20
0.08342294
0.08047459
20
20
20
20
20
0.08380312
0.08342162
0.08173845
20
20
20
20
20
20
20
20
20
20
20
20
20
20
20
20
20
20
20
20
20
20
20
20
20
20
20
20
20
20
20
20
20
20
20
20
20
20
20
20
20
20
20
20
20
20
20
20
20
20
20
20
20
20
20
20
20
20
20
20
20
20
20
20
20
20
20
20
20
20
20
20
20
20
20
0.08154864
20
20
20
20
20
0.08327462
0.07944636
20
20
20
20
20
0.08373167
0.08291595
0.07943032
20
20
20
20
20
0.08397606
0.08373612
0.08327284
0.08151675
20
20
20
20
20
20
20
20
20
20
20
20
20
20
20
20
20
20
20
20
20
20
20
20
20
20
20
20
20
20
20
20
20
20
20
20
20
20
20
20
20
20
20
20
20
20
20
20
20
20
20
20
20
20
20
20
20
20
20
20
20
20
20
20
20
20
20
20
20
20
20
20
20
20
20
20
20
20
20
20
0.08145107
20
20
20
20
20
0.0831655
0.07882897
20
20
20
20
20
0.08366728
0.08247159
0.07787352
20
20
20
20
20
0.08394148
0.08352728
0.08246698
0.07878586
20
20
20
20
20
0.08412993
0.08394802
0.08367708
0.08316323
0.08140492
20
20
20
20
20
20
20
20
20
20
20
20
20
20
20
20
20
20
20
20
20
20
20
20
20
20
20
20
20
20
20
20
20
20
20
20
20
20
20
20
20
20
20
20
20
20
20
20
20
20
20
20
20
20
20
20
20
20
20
20
20
20
20
20
20
20
20
20
20
20
20
20
20
20
20
20
20
20
20
20
20
20
20
20
20
0.08145107
20
20
20
20
20
0.08310764
0.07853662
20
20
20
20
20
0.08361794
0.08214162
0.0768925
20
20
20
20
20
0.08391087
0.08333624
0.08174503
0.07685475
20
20
20
20
20
0.0841105
0.08385091
0.08334089
0.08212746
0.07845051
20
20
20
20
20
0.08426991
0.08411743
0.08392479
0.08363441
0.08310502
0.08138605
20
20
20
20
20
20
20
20
20
20
20
20
20
20
20
20
20
20
20
20
20
20
20
20
20
20
20
20
20
20
20
20
20
20
20
20
20
20
20
20
20
20
20
20
20
20
20
20
20
20
20
20
20
20
20
20
20
20
20
20
20
20
20
20
20
20
20
20
20
0.3586956
20
20
20
20
20
20
20
20
20
20
20
20
20
20
20
20
20
20
20
20
0.08154864
20
20
20
20
20
0.08310764
0.07853662
20
20
20
20
20
0.08359106
0.08196575
0.0764148
20
20
20
20
20
0.08388756
0.08318842
0.08120151
0.07559726
20
20
20
20
20
0.08409384
0.08376304
0.08302819
0.0811859
0.07630878
20
20
20
20
20
0.08425716
0.08406582
0.0837711
0.0831979
0.08193693
0.07838958
20
20
20
20
20
0.08439855
0.08426384
0.08410853
0.08391072
0.08361616
0.08310626
0.08145963
20
20
20
20
20
20
20
20
20
20
20
20
20
20
20
20
20
20
20
20
20
20
20
20
20
20
20
20
20
20
20
20
20
20
20
20
20
20
20
20
20
20
20
20
20
20
20
20
20
20
20
20
20
20
20
20
20
0.3586865
20
20
20
20
20
20
20
20
20
20
20
20
20
20
20
0.3588081
0.3587652
20
20
20
20
20
20
20
20
20
20
20
20
20
20
20
20
20
20
20
20
0.08175923
20
20
20
20
20
0.0831655
0.07882897
20
20
20
20
20
0.08359106
0.08196575
0.0764148
20
20
20
20
20
0.08387488
0.08310751
0.08090972
0.07497278
20
20
20
20
20
0.08408141
0.08369532
0.08278328
0.08046849
0.0748885
20
20
20
20
20
0.08424658
0.08402029
0.08362944
0.0827866
0.08086624
0.07620603
20
20
20
20
20
0.08438889
0.08423194
0.08402922
0.08371395
0.08312313
0.08192043
0.07860193
20
20
20
20
20
0.08451758
0.0843951
0.08426076
0.08410584
0.08390988
0.083628
0.08316987
0.0816404
20
20
20
20
20
20
20
20
20
20
20
20
20
20
20
20
20
20
20
20
20
20
20
20
20
20
20
20
20
20
20
20
20
20
20
20
20
20
20
20
20
20
20
20
0.3586674
20
20
20
20
20
20
20
20
20
20
20
20
20
20
20
0.3588019
0.3587547
20
20
20
20
20
20
20
20
20
20
20
20
20
20
20
0.3589142
0.3588719
0.3588361
20
20
20
20
20
20
20
20
20
20
20
20
20
20
20
20
20
20
20
20
0.08213105
20
20
20
20
20
0.08327462
0.07944636
20
20
20
20
20
0.08361794
0.08214162
0.0768925
20
20
20
20
20
0.08387488
0.08310751
0.08090972
0.07497278
20
20
20
20
20
0.08407474
0.08365827
0.08264833
0.08008065
0.07417452
20
20
20
20
20
0.08423888
0.08398594
0.08351876
0.08246117
0.08004445
0.07475206
20
20
20
20
20
0.08438105
0.0842046
0.08395785
0.0835299
0.08265474
0.08083083
0.07654779
20
20
20
20
20
0.08450951
0.08437197
0.08421336
0.08400702
0.08369133
0.08313371
0.08208548
0.07911793
20
20
20
20
20
0.08462826
0.08451523
0.08439429
0.0842625
0.08411156
0.08392521
0.08367211
0.08329417
0.08197089
20
20
20
20
20
20
20
20
20
20
20
20
20
20
20
20
20
20
20
20
20
20
20
20
20
20
20
20
20
20
0.3586356
20
20
20
20
20
20
20
20
20
20
20
20
20
20
20
0.3587896
0.3587323
20
20
20
20
20
20
20
20
20
20
20
20
20
20
20
0.358909
0.3588658
0.3588246
20
20
20
20
20
20
20
20
20
20
20
20
20
20
20
0.359011
0.3589705
0.3589367
0.3589086
20
20
20
20
20
20
20
20
20
20
20
20
20
20
20
20
20
20
20
20
0.08280518
20
20
20
20
20
0.08342294
0.08047459
20
20
20
20
20
0.08366728
0.08247159
0.07787352
20
20
20
20
20
0.08388756
0.08318842
0.08120151
0.07559726
20
20
20
20
20
0.08407474
0.08365827
0.08264833
0.08008065
0.07417452
20
20
20
20
20
0.0842348
0.08396738
0.08345771
0.08228078
0.07959813
0.07401831
20
20
20
20
20
0.08437545
0.0841845
0.0839032
0.08338441
0.0822816
0.07999278
0.07519317
20
20
20
20
20
0.08450305
0.08435265
0.08417192
0.08391667
0.0834847
0.08266201
0.08109151
0.07736352
20
20
20
20
20
0.08462112
0.0844964
0.08436089
0.08420536
0.08400514
0.08371184
0.08323491
0.08242188
0.08001669
20
20
20
20
20
0.08473151
0.08462636
0.08451529
0.08439758
0.08427044
0.08412733
0.08395822
0.08374787
0.08347626
0.08257094
20
20
20
20
20
20
20
20
20
20
20
20
20
20
20
0.358574
20
20
20
20
20
20
20
20
20
20
20
20
20
20
20
0.3587714
0.358692
20
20
20
20
20
20
20
20
20
20
20
20
20
20
20
0.3588987
0.3588536
0.3587997
20
20
20
20
20
20
20
20
20
20
20
20
20
20
20
0.3590063
0.3589657
0.3589306
0.3588965
20
20
20
20
20
20
20
20
20
20
20
20
20
20
20
0.3591003
0.3590604
0.3590276
0.3590024
0.3589828
20
20
20
20
20
20
20
20
20
20
20
20
20
20
20
20
20
20
20
20
20
20
20
20
20
0.08359425
0.0821198
20
20
20
20
20
0.08373167
0.08291595
0.07943032
20
20
20
20
20
0.08391087
0.08333624
0.08174503
0.07685475
20
20
20
20
20
0.08408141
0.08369532
0.08278328
0.08046849
0.0748885
20
20
20
20
20
0.0842348
0.08396738
0.08345771
0.08228078
0.07959813
0.07401831
20
20
20
20
20
0.08437252
0.08417381
0.08387343
0.08330359
0.08207396
0.07953704
0.07451512
20
20
20
20
20
0.08449848
0.08433876
0.084141
0.08384658
0.08331994
0.08228497
0.08032895
0.07623217
20
20
20
20
20
0.08461543
0.08448091
0.08433245
0.08415458
0.08390652
0.08350827
0.08281606
0.08162555
0.07872497
20
20
20
20
20
0.08472501
0.0846099
0.08448856
0.08435846
0.08421129
0.084028
0.08377883
0.0834204
0.08290526
0.08148225
20
20
20
20
20
0.08482811
0.08472984
0.08462673
0.08451902
0.08440597
0.08428562
0.0841543
0.08400972
0.08385585
0.08372372
0.3582961
20
20
20
20
20
20
20
20
20
20
20
20
20
20
20
0.3587494
0.3586114
20
20
20
20
20
20
20
20
20
20
20
20
20
20
20
0.358884
0.3588361
0.3587545
20
20
20
20
20
20
20
20
20
20
20
20
20
20
20
0.3589971
0.3589564
0.3589185
0.35887
20
20
20
20
20
20
20
20
20
20
20
20
20
20
20
0.3590959
0.3590561
0.359023
0.3589963
0.3589704
20
20
20
20
20
20
20
20
20
20
20
20
20
20
20
0.3591833
0.3591435
0.3591103
0.3590853
0.359069
0.6337293
20
20
20
20
20
20
20
20
20
20
20
20
20
20
20
20
20
20
20
20
20
20
20
20
20
20
20
20
20
20
0.08380312
0.08342162
0.08173845
20
20
20
20
20
0.08394148
0.08352728
0.08246698
0.07878586
20
20
20
20
20
0.08409384
0.08376304
0.08302819
0.0811859
0.07630878
20
20
20
20
20
0.08423888
0.08398594
0.08351876
0.08246117
0.08004445
0.07475206
20
20
20
20
20
0.08437252
0.08417381
0.08387343
0.08330359
0.08207396
0.07953704
0.07451512
20
20
20
20
20
0.0844961
0.0843315
0.08412443
0.08380809
0.08322791
0.08207475
0.079915
0.07567302
20
20
20
20
20
0.08461142
0.08446995
0.08431177
0.08411619
0.08382914
0.08334482
0.08248063
0.08101748
0.07791688
20
20
20
20
20
0.08471983
0.08459646
0.0844662
0.08432468
0.08415793
0.08393446
0.08360501
0.08310188
0.08237856
0.08078956
20
20
20
20
20
0.08482211
0.08471491
0.08460354
0.08448827
0.08436694
0.08423378
0.08407799
0.08389095
0.08367667
0.08350199
0.3580009
20
20
20
20
20
0.08491868
0.08482657
0.08473029
0.08463046
0.08452722
0.08442024
0.08430902
0.08419389
0.08408336
0.08401246
0.3587632
0.3583961
20
20
20
20
20
20
20
20
20
20
20
20
20
20
20
0.3588704
0.3588167
0.3586698
20
20
20
20
20
20
20
20
20
20
20
20
20
20
20
0.3589841
0.3589446
0.3589012
0.3588231
20
20
20
20
20
20
20
20
20
20
20
20
20
20
20
0.3590873
0.3590481
0.3590146
0.3589842
0.3589434
20
20
20
20
20
20
20
20
20
20
20
20
20
20
20
0.3591792
0.3591396
0.3591064
0.359081
0.3590629
0.6337222
20
20
20
20
20
20
20
20
20
20
20
20
20
20
20
0.3592608
0.3592214
0.3591873
0.3591608
0.3591437
0.6337758
0.6337323
20
20
20
20
20
20
20
20
20
20
20
20
20
20
20
20
20
20
20
20
20
20
20
20
20
20
20
20
20
20
20
20
20
20
20
0.08397606
0.08373612
0.08327284
0.08151675
20
20
20
20
20
0.0841105
0.08385091
0.08334089
0.08212746
0.07845051
20
20
20
20
20
0.08424658
0.08402029
0.08362944
0.0827866
0.08086624
0.07620603
20
20
20
20
20
0.08437545
0.0841845
0.0839032
0.08338441
0.0822816
0.07999278
0.07519317
20
20
20
20
20
0.0844961
0.0843315
0.08412443
0.08380809
0.08322791
0.08207475
0.079915
0.07567302
20
20
20
20
20
0.08460934
0.08446427
0.08430089
0.08409545
0.08378636
0.08325317
0.08229352
0.08068851
0.07752376
20
20
20
20
20
0.08471618
0.08458702
0.08445022
0.08429982
0.08411705
0.08386016
0.08346405
0.08284508
0.08197564
0.0803605
20
20
20
20
20
0.08481731
0.08470276
0.08458432
0.08446224
0.08433273
0.08418589
0.08400337
0.08376903
0.08348655
0.08326964
0.3577701
20
20
20
20
20
0.0849131
0.08481278
0.08470933
0.08460402
0.08449727
0.08438813
0.08427475
0.08415617
0.08404551
0.08399289
0.3587172
0.3581587
20
20
20
20
20
0.08500377
0.08491724
0.08482703
0.08473388
0.08463826
0.08454056
0.08444124
0.0843422
0.08425085
0.08419889
0.3589319
0.358812
0.3584989
20
20
20
20
20
20
20
20
20
20
20
20
20
20
20
0.3589732
0.358938
0.3588815
0.3587416
20
20
20
20
20
20
20
20
20
20
20
20
20
20
20
0.3590753
0.3590384
0.3590043
0.3589666
0.3588968
20
20
20
20
20
20
20
20
20
20
20
20
20
20
20
0.3591711
0.3591323
0.3590994
0.359073
0.3590507
0.6337069
20
20
20
20
20
20
20
20
20
20
20
20
20
20
20
0.3592569
0.3592177
0.3591838
0.3591573
0.3591395
0.6337724
0.6337252
20
20
20
20
20
20
20
20
20
20
20
20
20
20
20
0.3593333
0.3592945
0.35926
0.3592317
0.3592119
0.6338158
0.6337785
0.6337353
20
20
20
20
20
20
20
20
20
20
20
20
20
20
20
20
20
20
20
20
20
20
20
20
20
20
20
20
20
20
20
20
20
20
20
20
20
20
20
20
0.08412993
0.08394802
0.08367708
0.08316323
0.08140492
20
20
20
20
20
0.08425716
0.08406582
0.0837711
0.0831979
0.08193693
0.07838958
20
20
20
20
20
0.08438105
0.0842046
0.08395785
0.0835299
0.08265474
0.08083083
0.07654779
20
20
20
20
20
0.08449848
0.08433876
0.084141
0.08384658
0.08331994
0.08228497
0.08032895
0.07623217
20
20
20
20
20
0.08460934
0.08446427
0.08430089
0.08409545
0.08378636
0.08325317
0.08229352
0.08068851
0.07752376
20
20
20
20
20
0.0847143
0.08458217
0.08444191
0.08428663
0.08409478
0.08381877
0.08338462
0.08270152
0.0817579
0.08015244
20
20
20
20
20
0.08481393
0.08469425
0.08457073
0.08444347
0.08430723
0.0841485
0.08394258
0.08366713
0.083328
0.08308465
0.3576155
20
20
20
20
20
0.08490862
0.08480157
0.08469202
0.08458187
0.08447158
0.08435917
0.08424064
0.084112
0.08398731
0.08393099
0.3586551
0.3579645
20
20
20
20
20
0.08499854
0.0849044
0.08480768
0.08471004
0.08461278
0.08451698
0.08442367
0.08433607
0.08426455
0.08424492
0.3589455
0.3587737
0.3583083
20
20
20
20
20
0.0850838
0.08500241
0.0849177
0.08483045
0.08474125
0.08465073
0.08455978
0.08447051
0.08439002
0.08434483
0.3590434
0.3589719
0.3588667
0.3586042
20
20
20
20
20
20
20
20
20
20
20
20
20
20
20
0.3590654
0.3590356
0.3589991
0.3589456
0.3588219
20
20
20
20
20
20
20
20
20
20
20
20
20
20
20
0.3591597
0.3591236
0.3590917
0.3590631
0.3590326
0.6336809
20
20
20
20
20
20
20
20
20
20
20
20
20
20
20
0.3592492
0.3592109
0.3591775
0.3591508
0.3591316
0.6337653
0.6337099
20
20
20
20
20
20
20
20
20
20
20
20
20
20
20
0.3593296
0.359291
0.3592568
0.3592285
0.3592085
0.6338134
0.633775
0.6337282
20
20
20
20
20
20
20
20
20
20
20
20
20
20
20
0.3594014
0.3593634
0.3593288
0.3592992
0.3592766
0.6338524
0.6338182
0.6337812
0.6337383
20
20
20
20
20
20
20
20
20
20
20
20
20
20
20
20
20
20
20
20
20
20
20
20
20
20
20
20
20
20
20
20
20
20
20
20
20
20
20
20
20
20
20
20
20
0.08426991
0.08411743
0.08392479
0.08363441
0.08310502
0.08138605
20
20
20
20
20
0.08438889
0.08423194
0.08402922
0.08371395
0.08312313
0.08192043
0.07860193
20
20
20
20
20
0.08450305
0.08435265
0.08417192
0.08391667
0.0834847
0.08266201
0.08109151
0.07736352
20
20
20
20
20
0.08461142
0.08446995
0.08431177
0.08411619
0.08382914
0.08334482
0.08248063
0.08101748
0.07791688
20
20
20
20
20
0.0847143
0.08458217
0.08444191
0.08428663
0.08409478
0.08381877
0.08338462
0.08270152
0.0817579
0.08015244
20
20
20
20
20
0.08481219
0.08468989
0.08456371
0.08443365
0.08429359
0.08412788
0.08390826
0.08360895
0.08323828
0.08298327
0.3575383
20
20
20
20
20
0.08490546
0.08479373
0.08467983
0.08456609
0.08445284
0.08433707
0.08421262
0.08407269
0.08393196
0.08386928
0.3586016
0.3578317
20
20
20
20
20
0.08499434
0.08489395
0.08479173
0.08469017
0.08459119
0.08449615
0.08440579
0.0843227
0.0842565
0.08424551
0.3589381
0.3587233
0.3581476
20
20
20
20
20
0.0850789
0.0849904
0.08489967
0.08480844
0.08471834
0.08463105
0.08454883
0.08447564
0.08442136
0.08441027
0.3590748
0.3589821
0.3588328
0.3584522
20
20
20
20
20
0.08515917
0.08508253
0.08500286
0.08492094
0.0848374
0.08475293
0.08466852
0.08458634
0.08451265
0.08447085
0.3591325
0.359078
0.3590158
0.3589247
0.3587112
20
20
20
20
20
20
20
20
20
20
20
20
20
20
20
0.3591501
0.3591216
0.3590907
0.3590565
0.3590098
0.6336404
20
20
20
20
20
20
20
20
20
20
20
20
20
20
20
0.3592383
0.3592026
0.3591707
0.3591437
0.3591214
0.6337549
0.633684
20
20
20
20
20
20
20
20
20
20
20
20
20
20
20
0.3593222
0.3592845
0.3592508
0.3592228
0.3592023
0.6338089
0.633768
0.633713
20
20
20
20
20
20
20
20
20
20
20
20
20
20
20
0.3593978
0.3593601
0.3593257
0.3592962
0.3592735
0.6338505
0.6338158
0.6337777
0.6337313
20
20
20
20
20
20
20
20
20
20
20
20
20
20
20
0.3594653
0.3594284
0.359394
0.3593636
0.3593388
0.6338874
0.6338545
0.6338205
0.6337839
0.6337414
20
20
20
20
20
20
20
20
20
20
20
20
20
20
20
20
20
20
20
20
20
20
20
20
20
20
20
20
20
20
20
20
20
20
20
20
20
20
20
20
20
20
20
20
20
20
20
20
20
20
0.08439855
0.08426384
0.08410853
0.08391072
0.08361616
0.08310626
0.08145963
20
20
20
20
20
0.08450951
0.08437197
0.08421336
0.08400702
0.08369133
0.08313371
0.08208548
0.07911793
20
20
20
20
20
0.08461543
0.08448091
0.08433245
0.08415458
0.08390652
0.08350827
0.08281606
0.08162555
0.07872497
20
20
20
20
20
0.08471618
0.08458702
0.08445022
0.08429982
0.08411705
0.08386016
0.08346405
0.08284508
0.08197564
0.0803605
20
20
20
20
20
0.08481219
0.08468989
0.08456371
0.08443365
0.08429359
0.08412788
0.08390826
0.08360895
0.08323828
0.08298327
0.3575383
20
20
20
20
20
0.08490383
0.08478971
0.08467356
0.0845579
0.08444296
0.08432507
0.08419676
0.08404963
0.08389886
0.08383241
0.3585714
0.3577647
20
20
20
20
20
0.08499138
0.08488665
0.08478051
0.08467608
0.08457565
0.08448057
0.084391
0.08430845
0.08424164
0.08423292
0.3589254
0.3586798
0.3580356
20
20
20
20
20
0.08507496
0.08498061
0.0848848
0.08479014
0.08469904
0.0846139
0.08453748
0.08447378
0.08443186
0.0844326
0.3590862
0.358977
0.3587913
0.3583216
20
20
20
20
20
0.08515457
0.08507127
0.08498599
0.08490042
0.08481624
0.08473532
0.08466012
0.08459489
0.08454806
0.08453899
0.3591676
0.3591026
0.3590212
0.3588935
0.3585918
20
20
20
20
20
0.0852302
0.08515798
0.08508298
0.08500594
0.08492752
0.08484838
0.08476954
0.08469301
0.0846245
0.08458449
0.3592107
0.359163
0.3591154
0.3590616
0.3589846
0.6335841
20
20
20
20
20
20
20
20
20
20
20
20
20
20
20
0.3592287
0.3592004
0.3591708
0.3591416
0.3591122
0.6337413
0.6336438
20
20
20
20
20
20
20
20
20
20
20
20
20
20
20
0.3593117
0.3592765
0.3592444
0.3592167
0.359195
0.6338029
0.6337575
0.6336871
20
20
20
20
20
20
20
20
20
20
20
20
20
20
20
0.3593907
0.3593538
0.35932
0.3592909
0.359268
0.6338469
0.6338113
0.6337707
0.633716
20
20
20
20
20
20
20
20
20
20
20
20
20
20
20
0.3594619
0.3594252
0.359391
0.3593607
0.359336
0.6338857
0.6338526
0.6338182
0.6337804
0.6337343
20
20
20
20
20
20
20
20
20
20
20
20
20
20
20
0.3595255
0.3594897
0.3594559
0.3594251
0.3593988
0.6339213
0.6338892
0.6338566
0.6338229
0.6337866
0.7253083
20
20
20
20
20
20
20
20
20
20
20
20
20
20
20
20
20
20
20
20
20
20
20
20
20
20
20
20
20
20
20
20
20
20
20
20
20
20
20
20
20
20
20
20
20
20
20
20
20
20
20
20
20
20
20
0.08451758
0.0843951
0.08426076
0.08410584
0.08390988
0.083628
0.08316987
0.0816404
20
20
20
20
20
0.08462112
0.0844964
0.08436089
0.08420536
0.08400514
0.08371184
0.08323491
0.08242188
0.08001669
20
20
20
20
20
0.08471983
0.08459646
0.0844662
0.08432468
0.08415793
0.08393446
0.08360501
0.08310188
0.08237856
0.08078956
20
20
20
20
20
0.08481393
0.08469425
0.08457073
0.08444347
0.08430723
0.0841485
0.08394258
0.08366713
0.083328
0.08308465
0.3576155
20
20
20
20
20
0.08490383
0.08478971
0.08467356
0.0845579
0.08444296
0.08432507
0.08419676
0.08404963
0.08389886
0.08383241
0.3585714
0.3577647
20
20
20
20
20
0.08498985
0.0848829
0.08477475
0.08466881
0.08456754
0.08447223
0.08438262
0.08429952
0.08423123
0.08422301
0.3589168
0.3586551
0.3579786
20
20
20
20
20
0.08507217
0.08497377
0.08487436
0.08477719
0.08468524
0.08460125
0.08452806
0.08446915
0.08443252
0.08443824
0.3590888
0.3589675
0.3587558
0.3582291
20
20
20
20
20
0.08515086
0.08506209
0.08497207
0.08488336
0.08479846
0.08472006
0.08465137
0.08459698
0.08456428
0.08456769
0.3591848
0.3591129
0.3590168
0.3588589
0.3584883
20
20
20
20
20
0.08522588
0.08514742
0.08506715
0.08498672
0.08490775
0.08483207
0.08476216
0.08470194
0.08465906
0.08464921
0.3592447
0.3591907
0.3591327
0.359062
0.3589553
0.6335245
20
20
20
20
20
0.08529718
0.0852291
0.08515844
0.08508592
0.08501218
0.08493788
0.08486397
0.08479234
0.08472809
0.08468955
0.3592823
0.3592381
0.3591958
0.3591539
0.3591081
0.6337258
0.6335883
20
20
20
20
20
20
20
20
20
20
20
20
20
20
20
0.3593023
0.3592739
0.3592443
0.3592159
0.3591902
0.6337966
0.6337439
0.6336472
20
20
20
20
20
20
20
20
20
20
20
20
20
20
20
0.3593806
0.359346
0.3593138
0.3592852
0.3592619
0.6338425
0.6338052
0.6337602
0.6336903
20
20
20
20
20
20
20
20
20
20
20
20
20
20
20
0.3594551
0.3594191
0.3593856
0.3593556
0.3593309
0.6338825
0.633849
0.6338136
0.6337734
0.6337191
20
20
20
20
20
20
20
20
20
20
20
20
20
20
20
0.3595222
0.3594866
0.359453
0.3594224
0.3593961
0.6339197
0.6338875
0.6338547
0.6338205
0.6337831
0.725303
20
20
20
20
20
20
20
20
20
20
20
20
20
20
20
0.3595822
0.3595477
0.3595146
0.3594839
0.3594566
0.6339542
0.6339229
0.6338911
0.6338587
0.6338253
0.725342
0.7253102
20
20
20
20
20
20
20
20
20
20
20
20
20
20
20
20
20
20
20
20
20
20
20
20
20
20
20
20
20
20
20
20
20
20
20
20
20
20
20
20
20
20
20
20
20
20
20
20
20
20
20
20
20
20
20
20
20
20
20
20
0.08462826
0.08451523
0.08439429
0.0842625
0.08411156
0.08392521
0.08367211
0.08329417
0.08197089
20
20
20
20
20
0.08472501
0.0846099
0.08448856
0.08435846
0.08421129
0.084028
0.08377883
0.0834204
0.08290526
0.08148225
20
20
20
20
20
0.08481731
0.08470276
0.08458432
0.08446224
0.08433273
0.08418589
0.08400337
0.08376903
0.08348655
0.08326964
0.3577701
20
20
20
20
20
0.08490546
0.08479373
0.08467983
0.08456609
0.08445284
0.08433707
0.08421262
0.08407269
0.08393196
0.08386928
0.3586016
0.3578317
20
20
20
20
20
0.08498985
0.0848829
0.08477475
0.08466881
0.08456754
0.08447223
0.08438262
0.08429952
0.08423123
0.08422301
0.3589168
0.3586551
0.3579786
20
20
20
20
20
0.08507073
0.08497027
0.084869
0.08477051
0.08467807
0.08459455
0.08452273
0.08446571
0.08443097
0.08443868
0.3590886
0.3589609
0.3587357
0.3581818
20
20
20
20
20
0.08514823
0.08505567
0.08496228
0.08487129
0.08478577
0.0847089
0.08464414
0.08459586
0.08457028
0.08457956
0.3591925
0.3591159
0.3590094
0.3588301
0.3584142
20
20
20
20
20
0.08522238
0.0851388
0.08505409
0.08497073
0.08489114
0.08481798
0.0847545
0.08470501
0.08467618
0.08467827
0.3592628
0.3592056
0.3591408
0.3590572
0.3589261
0.6334728
20
20
20
20
20
0.08529312
0.08521919
0.08514359
0.08506789
0.08499363
0.08492257
0.08485703
0.08480066
0.08476017
0.0847491
0.3593136
0.3592649
0.3592158
0.3591642
0.3591037
0.6337095
0.6335296
20
20
20
20
20
0.08536036
0.08529618
0.08522958
0.08516127
0.08509186
0.085022
0.08495258
0.08488533
0.0848249
0.0847877
0.3593492
0.3593072
0.3592674
0.3592294
0.3591928
0.633792
0.6337284
0.6335924
20
20
20
20
20
20
20
20
20
20
20
20
20
20
20
0.3593712
0.3593429
0.3593132
0.3592845
0.3592587
0.6338389
0.6337989
0.6337466
0.6336507
20
20
20
20
20
20
20
20
20
20
20
20
20
20
20
0.3594453
0.3594115
0.3593795
0.3593502
0.3593253
0.6338788
0.6338446
0.6338075
0.6337629
0.6336934
20
20
20
20
20
20
20
20
20
20
20
20
20
20
20
0.3595156
0.3594808
0.3594477
0.3594175
0.3593913
0.6339168
0.6338844
0.6338511
0.633816
0.6337761
0.7252917
20
20
20
20
20
20
20
20
20
20
20
20
20
20
20
0.359579
0.3595447
0.3595118
0.3594812
0.359454
0.6339526
0.6339214
0.6338894
0.6338568
0.6338229
0.7253394
0.725305
20
20
20
20
20
20
20
20
20
20
20
20
20
20
20
0.3596358
0.3596025
0.3595703
0.3595399
0.3595122
0.633986
0.6339557
0.6339246
0.633893
0.6338608
0.7253708
0.7253437
0.7253118
20
20
20
20
20
20
20
20
20
20
20
20
20
20
20
20
20
20
20
20
20
20
20
20
20
20
20
20
20
20
20
20
20
20
20
20
20
20
20
20
20
20
20
20
20
20
20
20
20
20
20
20
20
20
20
20
20
20
20
20
20
20
20
20
20
0.08473151
0.08462636
0.08451529
0.08439758
0.08427044
0.08412733
0.08395822
0.08374787
0.08347626
0.08257094
20
20
20
20
20
0.08482211
0.08471491
0.08460354
0.08448827
0.08436694
0.08423378
0.08407799
0.08389095
0.08367667
0.08350199
0.3580009
20
20
20
20
20
0.08490862
0.08480157
0.08469202
0.08458187
0.08447158
0.08435917
0.08424064
0.084112
0.08398731
0.08393099
0.3586551
0.3579645
20
20
20
20
20
0.08499138
0.08488665
0.08478051
0.08467608
0.08457565
0.08448057
0.084391
0.08430845
0.08424164
0.08423292
0.3589254
0.3586798
0.3580356
20
20
20
20
20
0.08507073
0.08497027
0.084869
0.08477051
0.08467807
0.08459455
0.08452273
0.08446571
0.08443097
0.08443868
0.3590886
0.3589609
0.3587357
0.3581818
20
20
20
20
20
0.08514687
0.08505237
0.08495726
0.08486508
0.08477919
0.08470301
0.08464006
0.0845945
0.0845719
0.08458371
0.3591954
0.3591163
0.3590043
0.3588139
0.358376
20
20
20
20
20
0.08521991
0.08513276
0.08504491
0.08495942
0.08487931
0.08480771
0.0847482
0.08470499
0.0846836
0.08469155
0.359272
0.3592128
0.3591436
0.359051
0.3589029
0.6334357
20
20
20
20
20
0.08528982
0.08521108
0.08513132
0.08505287
0.08497804
0.08490936
0.08484988
0.08480367
0.08477643
0.08477649
0.3593308
0.3592804
0.3592277
0.3591696
0.359098
0.6336942
0.6334787
20
20
20
20
20
0.08535654
0.08528687
0.08521564
0.08514433
0.08507443
0.08500757
0.08494591
0.08489278
0.08485421
0.08484195
0.3593775
0.3593317
0.3592868
0.3592422
0.3591966
0.6337881
0.6337121
0.6335346
20
20
20
20
20
0.08541996
0.08535945
0.08529667
0.08523231
0.08516694
0.0851012
0.08503591
0.08497268
0.08491575
0.08487995
0.3594124
0.359372
0.3593335
0.3592971
0.3592631
0.6338379
0.633794
0.6337309
0.6335966
20
20
20
20
20
20
20
20
20
20
20
20
20
20
20
0.3594359
0.3594079
0.3593783
0.3593491
0.3593225
0.6338761
0.6338409
0.6338011
0.6337492
0.6336541
20
20
20
20
20
20
20
20
20
20
20
20
20
20
20
0.3595062
0.3594733
0.3594417
0.3594121
0.3593859
0.6339134
0.6338807
0.6338467
0.6338099
0.6337656
0.7252725
20
20
20
20
20
20
20
20
20
20
20
20
20
20
20
0.3595727
0.359539
0.3595067
0.3594765
0.3594494
0.6339499
0.6339185
0.6338863
0.6338532
0.6338184
0.7253341
0.7252936
20
20
20
20
20
20
20
20
20
20
20
20
20
20
20
0.3596327
0.3595996
0.3595676
0.3595374
0.3595098
0.6339846
0.6339542
0.633923
0.6338913
0.6338589
0.725369
0.7253411
0.7253065
20
20
20
20
20
20
20
20
20
20
20
20
20
20
20
0.3596863
0.3596544
0.3596232
0.3595934
0.3595657
0.6340168
0.6339874
0.6339572
0.6339263
0.6338948
0.7253972
0.7253723
0.725345
0.7253129
20
20
20
20
20
20
20
20
20
20
20
20
20
20
20
20
20
20
20
20
20
20
20
20
20
20
20
20
20
20
20
20
20
20
20
20
20
20
20
20
20
20
20
20
20
20
20
20
20
20
20
20
20
20
20
20
20
20
20
20
20
20
20
20
20
20
20
20
20
20
0.08482811
0.08472984
0.08462673
0.08451902
0.08440597
0.08428562
0.0841543
0.08400972
0.08385585
0.08372372
0.3582961
20
20
20
20
20
0.0849131
0.08481278
0.08470933
0.08460402
0.08449727
0.08438813
0.08427475
0.08415617
0.08404551
0.08399289
0.3587172
0.3581587
20
20
20
20
20
0.08499434
0.08489395
0.08479173
0.08469017
0.08459119
0.08449615
0.08440579
0.0843227
0.0842565
0.08424551
0.3589381
0.3587233
0.3581476
20
20
20
20
20
0.08507217
0.08497377
0.08487436
0.08477719
0.08468524
0.08460125
0.08452806
0.08446915
0.08443252
0.08443824
0.3590888
0.3589675
0.3587558
0.3582291
20
20
20
20
20
0.08514687
0.08505237
0.08495726
0.08486508
0.08477919
0.08470301
0.08464006
0.0845945
0.0845719
0.08458371
0.3591954
0.3591163
0.3590043
0.3588139
0.358376
20
20
20
20
20
0.08521862
0.08512966
0.08504019
0.0849536
0.08487317
0.0848023
0.08474468
0.08470433
0.08468619
0.08469674
0.3592758
0.3592156
0.3591441
0.359047
0.3588901
0.6334165
20
20
20
20
20
0.08528749
0.08520541
0.08512269
0.08504225
0.08496693
0.08489974
0.08484406
0.08480386
0.08478378
0.08478944
0.3593399
0.3592887
0.3592338
0.3591716
0.3590926
0.6336824
0.6334421
20
20
20
20
20
0.08535343
0.08527925
0.08520411
0.08513022
0.08505977
0.08499512
0.0849391
0.08489541
0.08486913
0.0848671
0.3593934
0.3593464
0.3592992
0.3592507
0.359199
0.6337844
0.633697
0.6334845
20
20
20
20
20
0.08541636
0.08535072
0.08528359
0.08521641
0.08515056
0.08508759
0.08502949
0.08497931
0.08494246
0.08492935
0.3594378
0.3593941
0.3593514
0.3593098
0.3592693
0.6338382
0.63379
0.6337147
0.6335397
20
20
20
20
20
0.08547616
0.08541914
0.08535997
0.08529931
0.08523774
0.08517584
0.0851144
0.08505491
0.08500125
0.08496691
0.3594722
0.3594334
0.359396
0.3593603
0.3593269
0.6338763
0.6338396
0.6337961
0.6337335
0.6336007
20
20
20
20
20
20
20
20
20
20
20
20
20
20
20
0.3594969
0.3594694
0.35944
0.3594106
0.3593831
0.6339111
0.6338779
0.6338428
0.6338034
0.6337518
0.7252432
20
20
20
20
20
20
20
20
20
20
20
20
20
20
20
0.3595636
0.3595318
0.3595008
0.3594712
0.3594442
0.6339467
0.6339151
0.6338825
0.6338488
0.6338122
0.7253262
0.7252745
20
20
20
20
20
20
20
20
20
20
20
20
20
20
20
0.3596265
0.3595941
0.3595627
0.3595328
0.3595053
0.633982
0.6339514
0.6339202
0.6338882
0.6338553
0.7253656
0.7253359
0.7252952
20
20
20
20
20
20
20
20
20
20
20
20
20
20
20
0.3596833
0.3596516
0.3596206
0.3595909
0.3595632
0.6340154
0.633986
0.6339557
0.6339247
0.6338931
0.7253958
0.7253705
0.7253424
0.7253076
20
20
20
20
20
20
20
20
20
20
20
20
20
20
20
0.359734
0.3597035
0.3596735
0.3596444
0.3596169
0.6340465
0.6340181
0.6339888
0.6339587
0.633928
0.7254226
0.7253985
0.7253734
0.725346
0.7253135
20
20
20
20
20
20
20
20
20
20
20
20
20
20
20
20
20
20
20
20
20
20
20
20
20
20
20
20
20
20
20
20
20
20
20
20
20
20
20
20
20
20
20
20
20
20
20
20
20
20
20
20
20
20
20
20
20
20
20
20
20
20
20
20
20
20
20
20
20
0.358574
20
20
20
20
20
0.08491868
0.08482657
0.08473029
0.08463046
0.08452722
0.08442024
0.08430902
0.08419389
0.08408336
0.08401246
0.3587632
0.3583961
20
20
20
20
20
0.08499854
0.0849044
0.08480768
0.08471004
0.08461278
0.08451698
0.08442367
0.08433607
0.08426455
0.08424492
0.3589455
0.3587737
0.3583083
20
20
20
20
20
0.08507496
0.08498061
0.0848848
0.08479014
0.08469904
0.0846139
0.08453748
0.08447378
0.08443186
0.0844326
0.3590862
0.358977
0.3587913
0.3583216
20
20
20
20
20
0.08514823
0.08505567
0.08496228
0.08487129
0.08478577
0.0847089
0.08464414
0.08459586
0.08457028
0.08457956
0.3591925
0.3591159
0.3590094
0.3588301
0.3584142
20
20
20
20
20
0.08521862
0.08512966
0.08504019
0.0849536
0.08487317
0.0848023
0.08474468
0.08470433
0.08468619
0.08469674
0.3592758
0.3592156
0.3591441
0.359047
0.3588901
0.6334165
20
20
20
20
20
0.08528627
0.08520249
0.08511825
0.08503677
0.08496117
0.08489468
0.0848408
0.08480338
0.08478649
0.08479468
0.3593438
0.3592923
0.3592364
0.3591721
0.3590893
0.633676
0.6334232
20
20
20
20
20
0.08535123
0.08527391
0.085196
0.08512023
0.08504931
0.08498604
0.08493358
0.0848955
0.08487594
0.08487913
0.3594019
0.3593546
0.3593062
0.3592555
0.3592
0.6337815
0.6336853
0.6334485
20
20
20
20
20
0.08541343
0.08534356
0.08527276
0.08520315
0.08513677
0.08507584
0.08502297