/*--------------------------------*- C++ -*----------------------------------*\
| =========                 |                                                 |
| \\      /  F ield         | OpenFOAM: The Open Source CFD Toolbox           |
|  \\    /   O peration     | Version:  2306                                  |
|   \\  /    A nd           | Website:  www.openfoam.com                      |
|    \\/     M anipulation  |                                                 |
\*---------------------------------------------------------------------------*/
FoamFile
{
    version     2.0;
    format      ascii;
    arch        "LSB;label=32;scalar=64";
    class       volScalarField;
    location    "1.5";
    object      rhoCp;
}
// * * * * * * * * * * * * * * * * * * * * * * * * * * * * * * * * * * * * * //

dimensions      [1 -1 -2 -1 0 0 0];

internalField   nonuniform List<scalar> 
52000
(
5346000
5346000
5346000
5346000
5346000
5346000
5346000
5346000
5346000
5346000
5346000
5346000
5346000
5346000
5346000
5346000
5346000
5346000
5346000
5346000
5346000
5346000
5346000
5346000
5346000
5346000
5346000
5346000
5346000
5346000
5346000
5346000
5346000
5346000
5346000
5346000
5346000
5346000
5346000
5346000
5346000
5346000
5346000
5346000
5346000
5346000
5346000
5346000
5346000
5346000
5346000
5346000
5346000
5346000
5346000
5346000
5346000
5346000
5346000
5346000
5346000
5346000
5346000
5346000
5346000
5346000
5346000
5346000
5346000
5346000
5346000
5346000
5346000
5346000
5346000
5346000
5346000
5346000
5346000
5346000
5346000
5346000
5346000
5346000
5346000
5346000
5346000
5346000
5346000
5346000
5346000
5346000
5346000
5346000
5346000
5346000
5346000
5346000
5346000
5346000
5346000
5346000
5346000
5346000
5346000
5346000
5346000
5346000
5346000
5346000
5346000
5346000
5346000
5346000
5346000
5346000
5346000
5346000
5346000
5346000
5346000
5346000
5346000
5346000
5346000
5346000
5346000
5346000
5346000
5346000
5346000
5346000
5346000
5346000
5346000
5346000
5346000
5346000
5346000
5346000
5346000
5346000
5346000
5346000
5346000
5346000
5346000
5346000
5346000
5346000
5346000
5346000
5346000
5346000
5346000
5346000
5346000
5346000
5346000
5346000
5346000
5346000
5346000
5346000
5346000
5346000
5346000
5346000
5346000
5346000
5346000
5346000
5346000
5346000
5346000
5346000
5346000
5346000
5346000
5346000
5346000
5346000
5346000
5346000
5346000
5346000
5346000
5346000
5346000
5346000
5346000
5346000
5346000
5346000
5346000
5346000
5346000
5346000
5346000
5346000
5346000
5346000
5346000
5346000
5346000
5346000
5346000
5346000
5346000
5346000
5346000
5346000
5346000
5346000
5346000
5346000
5346000
5346000
5346000
5346000
5346000
5346000
5346000
5346000
5346000
5346000
5346000
5346000
5346000
5346000
5346000
5346000
5346000
5346000
5346000
5346000
5346000
5346000
5346000
5346000
355.8892
5346000
5346000
5346000
5346000
5346000
5346000
5346000
5346000
5346000
5346000
5346000
5346000
5346000
5346000
5346000
5346000
5346000
5346000
5346000
5346000
5346000
5346000
5346000
5346000
5346000
5346000
5346000
5346000
5346000
5346000
5346000
5346000
5346000
5346000
5346000
5346000
5346000
5346000
5346000
5346000
5346000
5346000
5346000
5346000
5346000
5346000
5346000
5346000
5346000
5346000
5346000
5346000
5346000
5346000
5346000
5346000
5346000
5346000
5346000
5346000
5346000
5346000
5346000
5346000
5346000
359.1689
5346000
5346000
5346000
5346000
5346000
352.1159
359.225
5346000
5346000
5346000
5346000
5346000
5346000
5346000
5346000
5346000
5346000
5346000
5346000
5346000
5346000
5346000
5346000
5346000
5346000
5346000
5346000
5346000
5346000
5346000
5346000
5346000
5346000
5346000
5346000
5346000
5346000
5346000
5346000
5346000
5346000
5346000
5346000
5346000
5346000
5346000
5346000
5346000
5346000
5346000
5346000
5346000
5346000
5346000
5346000
5346000
5346000
5346000
5346000
5346000
5346000
5346000
5346000
5346000
5346000
5346000
5346000
5346000
5346000
5346000
5346000
5346000
5346000
5346000
5346000
5346000
5346000
360.9985
5346000
5346000
5346000
5346000
5346000
352.9295
367.4463
5346000
5346000
5346000
5346000
5346000
351.143
352.9379
361.1044
5346000
5346000
5346000
5346000
5346000
5346000
5346000
5346000
5346000
5346000
5346000
5346000
5346000
5346000
5346000
5346000
5346000
5346000
5346000
5346000
5346000
5346000
5346000
5346000
5346000
5346000
5346000
5346000
5346000
5346000
5346000
5346000
5346000
5346000
5346000
5346000
5346000
5346000
5346000
5346000
5346000
5346000
5346000
5346000
5346000
5346000
5346000
5346000
5346000
5346000
5346000
5346000
5346000
5346000
5346000
5346000
5346000
5346000
5346000
5346000
5346000
5346000
5346000
5346000
5346000
5346000
5346000
5346000
5346000
5346000
5346000
5346000
5346000
5346000
5346000
362.0415
5346000
5346000
5346000
5346000
5346000
353.6361
372.744
5346000
5346000
5346000
5346000
5346000
351.4791
355.3593
372.8296
5346000
5346000
5346000
5346000
5346000
350.3423
351.4617
353.6509
362.2068
5346000
5346000
5346000
5346000
5346000
5346000
5346000
5346000
5346000
5346000
5346000
5346000
5346000
5346000
5346000
5346000
5346000
5346000
5346000
5346000
5346000
5346000
5346000
5346000
5346000
5346000
5346000
5346000
5346000
5346000
5346000
5346000
5346000
5346000
5346000
5346000
5346000
5346000
5346000
5346000
5346000
5346000
5346000
5346000
5346000
5346000
5346000
5346000
5346000
5346000
5346000
5346000
5346000
5346000
5346000
5346000
5346000
5346000
5346000
5346000
5346000
5346000
5346000
5346000
5346000
5346000
5346000
5346000
5346000
5346000
5346000
5346000
5346000
5346000
5346000
5346000
5346000
5346000
5346000
5346000
362.5263
5346000
5346000
5346000
5346000
5346000
354.1573
375.9864
5346000
5346000
5346000
5346000
5346000
351.7815
357.5094
381.1015
5346000
5346000
5346000
5346000
5346000
350.5034
352.4498
357.5357
376.2201
5346000
5346000
5346000
5346000
5346000
349.64
350.4763
351.7462
354.1814
362.7691
5346000
5346000
5346000
5346000
5346000
5346000
5346000
5346000
5346000
5346000
5346000
5346000
5346000
5346000
5346000
5346000
5346000
5346000
5346000
5346000
5346000
5346000
5346000
5346000
5346000
5346000
5346000
5346000
5346000
5346000
5346000
5346000
5346000
5346000
5346000
5346000
5346000
5346000
5346000
5346000
5346000
5346000
5346000
5346000
5346000
5346000
5346000
5346000
5346000
5346000
5346000
5346000
5346000
5346000
5346000
5346000
5346000
5346000
5346000
5346000
5346000
5346000
5346000
5346000
5346000
5346000
5346000
5346000
5346000
5346000
5346000
5346000
5346000
5346000
5346000
5346000
5346000
5346000
5346000
5346000
5346000
5346000
5346000
5346000
5346000
362.5263
5346000
5346000
5346000
5346000
5346000
354.4342
377.5383
5346000
5346000
5346000
5346000
5346000
352.0132
359.1199
386.4742
5346000
5346000
5346000
5346000
5346000
350.6454
353.3566
361.0757
386.6869
5346000
5346000
5346000
5346000
5346000
349.7297
350.9318
353.3418
359.1993
378.0089
5346000
5346000
5346000
5346000
5346000
349.0011
349.7006
350.5907
351.957
354.4701
362.8719
5346000
5346000
5346000
5346000
5346000
5346000
5346000
5346000
5346000
5346000
5346000
5346000
5346000
5346000
5346000
5346000
5346000
5346000
5346000
5346000
5346000
5346000
5346000
5346000
5346000
5346000
5346000
5346000
5346000
5346000
5346000
5346000
5346000
5346000
5346000
5346000
5346000
5346000
5346000
5346000
5346000
5346000
5346000
5346000
5346000
5346000
5346000
5346000
5346000
5346000
5346000
5346000
5346000
5346000
5346000
5346000
5346000
5346000
5346000
5346000
5346000
5346000
5346000
5346000
5346000
5346000
5346000
5346000
5346000
351.3405
5346000
5346000
5346000
5346000
5346000
5346000
5346000
5346000
5346000
5346000
5346000
5346000
5346000
5346000
5346000
5346000
5346000
5346000
5346000
5346000
362.0415
5346000
5346000
5346000
5346000
5346000
354.4342
377.5383
5346000
5346000
5346000
5346000
5346000
352.1394
359.9832
389.1371
5346000
5346000
5346000
5346000
5346000
350.7534
354.0606
363.7792
393.7707
5346000
5346000
5346000
5346000
5346000
349.8058
351.3441
354.8356
363.8629
389.7412
5346000
5346000
5346000
5346000
5346000
349.0592
349.9408
351.3132
354.0332
360.144
378.3424
5346000
5346000
5346000
5346000
5346000
348.4177
349.0313
349.7473
350.6658
352.0565
354.479
362.5181
5346000
5346000
5346000
5346000
5346000
5346000
5346000
5346000
5346000
5346000
5346000
5346000
5346000
5346000
5346000
5346000
5346000
5346000
5346000
5346000
5346000
5346000
5346000
5346000
5346000
5346000
5346000
5346000
5346000
5346000
5346000
5346000
5346000
5346000
5346000
5346000
5346000
5346000
5346000
5346000
5346000
5346000
5346000
5346000
5346000
5346000
5346000
5346000
5346000
5346000
5346000
5346000
5346000
5346000
5346000
5346000
5346000
351.3886
5346000
5346000
5346000
5346000
5346000
5346000
5346000
5346000
5346000
5346000
5346000
5346000
5346000
5346000
5346000
350.5913
350.8762
5346000
5346000
5346000
5346000
5346000
5346000
5346000
5346000
5346000
5346000
5346000
5346000
5346000
5346000
5346000
5346000
5346000
5346000
5346000
5346000
360.9985
5346000
5346000
5346000
5346000
5346000
354.1573
375.9864
5346000
5346000
5346000
5346000
5346000
352.1394
359.9832
389.1371
5346000
5346000
5346000
5346000
5346000
350.812
354.4468
365.2446
397.3713
5346000
5346000
5346000
5346000
5346000
349.8622
351.6621
356.0125
367.4841
397.867
5346000
5346000
5346000
5346000
5346000
349.1067
350.1521
351.9803
356.007
365.4772
390.3273
5346000
5346000
5346000
5346000
5346000
348.4613
349.1786
350.1171
351.5917
354.4037
360.2386
377.221
5346000
5346000
5346000
5346000
5346000
347.8783
348.4355
349.0504
349.7685
350.683
352.0183
354.1953
361.639
5346000
5346000
5346000
5346000
5346000
5346000
5346000
5346000
5346000
5346000
5346000
5346000
5346000
5346000
5346000
5346000
5346000
5346000
5346000
5346000
5346000
5346000
5346000
5346000
5346000
5346000
5346000
5346000
5346000
5346000
5346000
5346000
5346000
5346000
5346000
5346000
5346000
5346000
5346000
5346000
5346000
5346000
5346000
5346000
351.4886
5346000
5346000
5346000
5346000
5346000
5346000
5346000
5346000
5346000
5346000
5346000
5346000
5346000
5346000
5346000
350.6203
350.9325
5346000
5346000
5346000
5346000
5346000
5346000
5346000
5346000
5346000
5346000
5346000
5346000
5346000
5346000
5346000
349.8871
350.1664
350.4064
5346000
5346000
5346000
5346000
5346000
5346000
5346000
5346000
5346000
5346000
5346000
5346000
5346000
5346000
5346000
5346000
5346000
5346000
5346000
5346000
359.1689
5346000
5346000
5346000
5346000
5346000
353.6361
372.744
5346000
5346000
5346000
5346000
5346000
352.0132
359.1199
386.4742
5346000
5346000
5346000
5346000
5346000
350.812
354.4468
365.2446
397.3713
5346000
5346000
5346000
5346000
5346000
349.8925
351.8363
356.6636
369.467
402.0516
5346000
5346000
5346000
5346000
5346000
349.141
350.3114
352.5028
357.5814
369.6604
398.6706
5346000
5346000
5346000
5346000
5346000
348.4959
349.3041
350.4495
352.4604
356.6565
365.6676
388.4187
5346000
5346000
5346000
5346000
5346000
347.9145
348.5415
349.2697
350.2296
351.7116
354.3703
359.4469
374.5089
5346000
5346000
5346000
5346000
5346000
347.3787
347.891
348.4437
349.0505
349.7544
350.6289
351.8328
353.6292
360.0355
5346000
5346000
5346000
5346000
5346000
5346000
5346000
5346000
5346000
5346000
5346000
5346000
5346000
5346000
5346000
5346000
5346000
5346000
5346000
5346000
5346000
5346000
5346000
5346000
5346000
5346000
5346000
5346000
5346000
5346000
351.661
5346000
5346000
5346000
5346000
5346000
5346000
5346000
5346000
5346000
5346000
5346000
5346000
5346000
5346000
5346000
350.6775
351.0553
5346000
5346000
5346000
5346000
5346000
5346000
5346000
5346000
5346000
5346000
5346000
5346000
5346000
5346000
5346000
349.9105
350.1951
350.4693
5346000
5346000
5346000
5346000
5346000
5346000
5346000
5346000
5346000
5346000
5346000
5346000
5346000
5346000
5346000
349.2336
349.5135
349.7389
349.927
5346000
5346000
5346000
5346000
5346000
5346000
5346000
5346000
5346000
5346000
5346000
5346000
5346000
5346000
5346000
5346000
5346000
5346000
5346000
5346000
355.8892
5346000
5346000
5346000
5346000
5346000
352.9295
367.4463
5346000
5346000
5346000
5346000
5346000
351.7815
357.5094
381.1015
5346000
5346000
5346000
5346000
5346000
350.7534
354.0606
363.7792
393.7707
5346000
5346000
5346000
5346000
5346000
349.8925
351.8363
356.6636
369.467
402.0516
5346000
5346000
5346000
5346000
5346000
349.1591
350.3974
352.7915
358.459
371.9659
402.9756
5346000
5346000
5346000
5346000
5346000
348.5204
349.3961
350.7041
353.1494
358.468
369.9365
396.1157
5346000
5346000
5346000
5346000
5346000
347.9428
348.6293
349.4607
350.651
352.6875
356.6377
364.3733
383.9181
5346000
5346000
5346000
5346000
5346000
347.4105
347.9768
348.5972
349.315
350.2509
351.6323
353.9085
357.829
369.8598
5346000
5346000
5346000
5346000
5346000
346.9133
347.3891
347.895
348.4362
349.0257
349.6979
350.4968
351.5038
352.7982
357.1485
5346000
5346000
5346000
5346000
5346000
5346000
5346000
5346000
5346000
5346000
5346000
5346000
5346000
5346000
5346000
352.011
5346000
5346000
5346000
5346000
5346000
5346000
5346000
5346000
5346000
5346000
5346000
5346000
5346000
5346000
5346000
350.7626
351.2844
5346000
5346000
5346000
5346000
5346000
5346000
5346000
5346000
5346000
5346000
5346000
5346000
5346000
5346000
5346000
349.9556
350.251
350.6088
5346000
5346000
5346000
5346000
5346000
5346000
5346000
5346000
5346000
5346000
5346000
5346000
5346000
5346000
5346000
349.2541
349.5343
349.7673
349.9942
5346000
5346000
5346000
5346000
5346000
5346000
5346000
5346000
5346000
5346000
5346000
5346000
5346000
5346000
5346000
348.6372
348.9076
349.1382
349.306
349.446
5346000
5346000
5346000
5346000
5346000
5346000
5346000
5346000
5346000
5346000
5346000
5346000
5346000
5346000
5346000
5346000
5346000
5346000
5346000
5346000
5346000
5346000
5346000
5346000
5346000
352.1159
359.225
5346000
5346000
5346000
5346000
5346000
351.4791
355.3593
372.8296
5346000
5346000
5346000
5346000
5346000
350.6454
353.3566
361.0757
386.6869
5346000
5346000
5346000
5346000
5346000
349.8622
351.6621
356.0125
367.4841
397.867
5346000
5346000
5346000
5346000
5346000
349.1591
350.3974
352.7915
358.459
371.9659
402.9756
5346000
5346000
5346000
5346000
5346000
348.5331
349.4449
350.8429
353.5331
359.4826
372.2931
400.0671
5346000
5346000
5346000
5346000
5346000
347.9625
348.6921
349.603
350.9782
353.4687
358.4673
368.2292
390.1998
5346000
5346000
5346000
5346000
5346000
347.4352
348.0466
348.727
349.5492
350.7108
352.5927
355.9147
361.7339
376.5996
5346000
5346000
5346000
5346000
5346000
346.9421
347.4638
348.0171
348.616
349.2992
350.1606
351.3384
353.0518
355.522
362.4819
5346000
5346000
5346000
5346000
5346000
346.4789
346.9226
347.3915
347.8851
348.4088
348.9714
349.5938
350.2833
351.0303
351.6726
353.8101
5346000
5346000
5346000
5346000
5346000
5346000
5346000
5346000
5346000
5346000
5346000
5346000
5346000
5346000
5346000
350.8516
351.7654
5346000
5346000
5346000
5346000
5346000
5346000
5346000
5346000
5346000
5346000
5346000
5346000
5346000
5346000
5346000
350.019
350.3311
350.8708
5346000
5346000
5346000
5346000
5346000
5346000
5346000
5346000
5346000
5346000
5346000
5346000
5346000
5346000
5346000
349.2936
349.5723
349.8228
350.1434
5346000
5346000
5346000
5346000
5346000
5346000
5346000
5346000
5346000
5346000
5346000
5346000
5346000
5346000
5346000
348.6561
348.925
349.1568
349.3344
349.5153
5346000
5346000
5346000
5346000
5346000
5346000
5346000
5346000
5346000
5346000
5346000
5346000
5346000
5346000
5346000
348.0819
348.3523
348.5803
348.7589
348.8758
349.1642
5346000
5346000
5346000
5346000
5346000
5346000
5346000
5346000
5346000
5346000
5346000
5346000
5346000
5346000
5346000
5346000
5346000
5346000
5346000
5346000
5346000
5346000
5346000
5346000
5346000
5346000
5346000
5346000
5346000
5346000
351.143
352.9379
361.1044
5346000
5346000
5346000
5346000
5346000
350.5034
352.4498
357.5357
376.2201
5346000
5346000
5346000
5346000
5346000
349.8058
351.3441
354.8356
363.8629
389.7412
5346000
5346000
5346000
5346000
5346000
349.141
350.3114
352.5028
357.5814
369.6604
398.6706
5346000
5346000
5346000
5346000
5346000
348.5331
349.4449
350.8429
353.5331
359.4826
372.2931
400.0671
5346000
5346000
5346000
5346000
5346000
347.9726
348.7248
349.6792
351.158
353.9062
359.4941
370.351
393.3692
5346000
5346000
5346000
5346000
5346000
347.4523
348.0957
348.8211
349.7261
351.0721
353.3667
357.5346
364.7632
380.9213
5346000
5346000
5346000
5346000
5346000
346.9645
347.524
348.1184
348.7703
349.5451
350.596
352.1557
354.5668
358.0636
365.942
5346000
5346000
5346000
5346000
5346000
346.5055
346.9901
347.4969
348.0255
348.5878
349.2104
349.9478
350.8373
351.8691
352.7079
355.7926
5346000
5346000
5346000
5346000
5346000
346.0723
346.4875
346.9243
347.3813
347.8581
348.3581
348.8833
349.4356
349.9722
350.3385
350.6825
353.1526
5346000
5346000
5346000
5346000
5346000
5346000
5346000
5346000
5346000
5346000
5346000
5346000
5346000
5346000
5346000
350.0563
350.4063
351.3826
5346000
5346000
5346000
5346000
5346000
5346000
5346000
5346000
5346000
5346000
5346000
5346000
5346000
5346000
5346000
349.3477
349.6169
349.9019
350.4176
5346000
5346000
5346000
5346000
5346000
5346000
5346000
5346000
5346000
5346000
5346000
5346000
5346000
5346000
5346000
348.6923
348.956
349.1898
349.3901
349.6678
5346000
5346000
5346000
5346000
5346000
5346000
5346000
5346000
5346000
5346000
5346000
5346000
5346000
5346000
5346000
348.0996
348.368
348.5951
348.7762
348.9042
349.2333
5346000
5346000
5346000
5346000
5346000
5346000
5346000
5346000
5346000
5346000
5346000
5346000
5346000
5346000
5346000
347.5671
347.8317
348.0661
348.2495
348.3835
348.6256
349.129
5346000
5346000
5346000
5346000
5346000
5346000
5346000
5346000
5346000
5346000
5346000
5346000
5346000
5346000
5346000
5346000
5346000
5346000
5346000
5346000
5346000
5346000
5346000
5346000
5346000
5346000
5346000
5346000
5346000
5346000
5346000
5346000
5346000
5346000
5346000
350.3423
351.4617
353.6509
362.2068
5346000
5346000
5346000
5346000
5346000
349.7297
350.9318
353.3418
359.1993
378.0089
5346000
5346000
5346000
5346000
5346000
349.1067
350.1521
351.9803
356.007
365.4772
390.3273
5346000
5346000
5346000
5346000
5346000
348.5204
349.3961
350.7041
353.1494
358.468
369.9365
396.1157
5346000
5346000
5346000
5346000
5346000
347.9726
348.7248
349.6792
351.158
353.9062
359.4941
370.351
393.3692
5346000
5346000
5346000
5346000
5346000
347.4611
348.121
348.8705
349.8217
351.272
353.802
358.4436
366.4198
383.0541
5346000
5346000
5346000
5346000
5346000
346.9799
347.566
348.1904
348.8834
349.7334
350.9422
352.8206
355.7958
360.0283
368.1128
5346000
5346000
5346000
5346000
5346000
346.5261
347.0443
347.5835
348.1434
348.7437
349.4303
350.2933
351.4063
352.762
353.8004
357.3662
5346000
5346000
5346000
5346000
5346000
346.0969
346.5496
347.0194
347.5015
347.9945
348.5047
349.0398
349.6079
350.143
350.4164
350.9535
354.7291
5346000
5346000
5346000
5346000
5346000
345.691
346.0804
346.4891
346.9145
347.3557
347.8111
348.2805
348.7543
349.202
349.4736
349.5738
350.3746
352.479
5346000
5346000
5346000
5346000
5346000
5346000
5346000
5346000
5346000
5346000
5346000
5346000
5346000
5346000
5346000
349.3695
349.6096
349.9818
350.9099
5346000
5346000
5346000
5346000
5346000
5346000
5346000
5346000
5346000
5346000
5346000
5346000
5346000
5346000
5346000
348.7418
348.9881
349.2244
349.471
349.9394
5346000
5346000
5346000
5346000
5346000
5346000
5346000
5346000
5346000
5346000
5346000
5346000
5346000
5346000
5346000
348.1335
348.3957
348.6197
348.8063
348.9607
349.3843
5346000
5346000
5346000
5346000
5346000
5346000
5346000
5346000
5346000
5346000
5346000
5346000
5346000
5346000
5346000
347.5839
347.8463
348.0792
348.2625
348.3999
348.6539
349.1979
5346000
5346000
5346000
5346000
5346000
5346000
5346000
5346000
5346000
5346000
5346000
5346000
5346000
5346000
5346000
347.0859
347.346
347.5802
347.7767
347.9226
348.1648
348.5942
349.0943
5346000
5346000
5346000
5346000
5346000
5346000
5346000
5346000
5346000
5346000
5346000
5346000
5346000
5346000
5346000
5346000
5346000
5346000
5346000
5346000
5346000
5346000
5346000
5346000
5346000
5346000
5346000
5346000
5346000
5346000
5346000
5346000
5346000
5346000
5346000
5346000
5346000
5346000
5346000
5346000
349.64
350.4763
351.7462
354.1814
362.7691
5346000
5346000
5346000
5346000
5346000
349.0592
349.9408
351.3132
354.0332
360.144
378.3424
5346000
5346000
5346000
5346000
5346000
348.4959
349.3041
350.4495
352.4604
356.6565
365.6676
388.4187
5346000
5346000
5346000
5346000
5346000
347.9625
348.6921
349.603
350.9782
353.4687
358.4673
368.2292
390.1998
5346000
5346000
5346000
5346000
5346000
347.4611
348.121
348.8705
349.8217
351.272
353.802
358.4436
366.4198
383.0541
5346000
5346000
5346000
5346000
5346000
346.9878
347.5875
348.2277
348.9434
349.8359
351.1353
353.1961
356.4861
361.0977
369.1732
5346000
5346000
5346000
5346000
5346000
346.5403
347.0819
347.6443
348.228
348.8596
349.6018
350.575
351.8829
353.5098
354.6757
358.4291
5346000
5346000
5346000
5346000
5346000
346.116
346.5995
347.097
347.6012
348.1105
348.6357
349.1947
349.8091
350.4083
350.6942
351.3505
356.0402
5346000
5346000
5346000
5346000
5346000
345.7139
346.138
346.5765
347.0225
347.4712
347.9178
348.359
348.7788
349.1318
349.2454
349.4476
350.5915
353.7293
5346000
5346000
5346000
5346000
5346000
345.3328
345.6986
346.0818
346.4798
346.8906
347.3123
347.7411
348.1689
348.5625
348.8036
348.8349
349.3251
350.0292
351.7831
5346000
5346000
5346000
5346000
5346000
5346000
5346000
5346000
5346000
5346000
5346000
5346000
5346000
5346000
5346000
348.7598
348.9588
349.2113
349.5621
350.389
5346000
5346000
5346000
5346000
5346000
5346000
5346000
5346000
5346000
5346000
5346000
5346000
5346000
5346000
5346000
348.18
348.4233
348.6395
348.8382
349.0454
349.6488
5346000
5346000
5346000
5346000
5346000
5346000
5346000
5346000
5346000
5346000
5346000
5346000
5346000
5346000
5346000
347.616
347.8721
348.1004
348.2834
348.4293
348.7106
349.3486
5346000
5346000
5346000
5346000
5346000
5346000
5346000
5346000
5346000
5346000
5346000
5346000
5346000
5346000
5346000
347.1019
347.3599
347.5922
347.7879
347.9345
348.181
348.6224
349.1631
5346000
5346000
5346000
5346000
5346000
5346000
5346000
5346000
5346000
5346000
5346000
5346000
5346000
5346000
5346000
346.6364
346.8893
347.1236
347.3256
347.491
347.7312
348.1371
348.5635
349.059
5346000
5346000
5346000
5346000
5346000
5346000
5346000
5346000
5346000
5346000
5346000
5346000
5346000
5346000
5346000
5346000
5346000
5346000
5346000
5346000
5346000
5346000
5346000
5346000
5346000
5346000
5346000
5346000
5346000
5346000
5346000
5346000
5346000
5346000
5346000
5346000
5346000
5346000
5346000
5346000
5346000
5346000
5346000
5346000
5346000
349.0011
349.7006
350.5907
351.957
354.4701
362.8719
5346000
5346000
5346000
5346000
5346000
348.4613
349.1786
350.1171
351.5917
354.4037
360.2386
377.221
5346000
5346000
5346000
5346000
5346000
347.9428
348.6293
349.4607
350.651
352.6875
356.6377
364.3733
383.9181
5346000
5346000
5346000
5346000
5346000
347.4523
348.0957
348.8211
349.7261
351.0721
353.3667
357.5346
364.7632
380.9213
5346000
5346000
5346000
5346000
5346000
346.9878
347.5875
348.2277
348.9434
349.8359
351.1353
353.1961
356.4861
361.0977
369.1732
5346000
5346000
5346000
5346000
5346000
346.5475
347.1011
347.6756
348.2722
348.9215
349.6963
350.7342
352.1556
353.9344
355.1573
358.9626
5346000
5346000
5346000
5346000
5346000
346.1292
346.634
347.1512
347.6718
348.1947
348.7353
349.3217
349.9886
350.662
350.9754
351.6983
356.9442
5346000
5346000
5346000
5346000
5346000
345.7318
346.1843
346.6478
347.1116
347.568
348.0109
348.438
348.8359
349.1618
349.2304
349.4773
350.9073
354.8026
5346000
5346000
5346000
5346000
5346000
345.3543
345.7524
346.163
346.5792
346.994
347.4007
347.7888
348.1412
348.4106
348.4865
348.5931
349.2199
350.2151
352.7675
5346000
5346000
5346000
5346000
5346000
344.996
345.34
345.7
346.0731
346.4574
346.8503
347.2481
347.6412
348.0025
348.2244
348.2512
348.6225
349.0515
349.6551
351.0835
5346000
5346000
5346000
5346000
5346000
5346000
5346000
5346000
5346000
5346000
5346000
5346000
5346000
5346000
5346000
348.1982
348.3911
348.6008
348.8366
349.1499
350.07
5346000
5346000
5346000
5346000
5346000
5346000
5346000
5346000
5346000
5346000
5346000
5346000
5346000
5346000
5346000
347.6604
347.898
348.1155
348.299
348.4638
348.7971
349.6121
5346000
5346000
5346000
5346000
5346000
5346000
5346000
5346000
5346000
5346000
5346000
5346000
5346000
5346000
5346000
347.1326
347.3844
347.6118
347.8051
347.954
348.2104
348.6791
349.3135
5346000
5346000
5346000
5346000
5346000
5346000
5346000
5346000
5346000
5346000
5346000
5346000
5346000
5346000
5346000
346.6517
346.9026
347.1351
347.3358
347.501
347.7428
348.1532
348.5916
349.1277
5346000
5346000
5346000
5346000
5346000
5346000
5346000
5346000
5346000
5346000
5346000
5346000
5346000
5346000
5346000
346.2149
346.4604
346.6913
346.8982
347.0744
347.3225
347.7067
348.11
348.5321
349.0251
5346000
5346000
5346000
5346000
5346000
5346000
5346000
5346000
5346000
5346000
5346000
5346000
5346000
5346000
5346000
5346000
5346000
5346000
5346000
5346000
5346000
5346000
5346000
5346000
5346000
5346000
5346000
5346000
5346000
5346000
5346000
5346000
5346000
5346000
5346000
5346000
5346000
5346000
5346000
5346000
5346000
5346000
5346000
5346000
5346000
5346000
5346000
5346000
5346000
5346000
348.4177
349.0313
349.7473
350.6658
352.0565
354.479
362.5181
5346000
5346000
5346000
5346000
5346000
347.9145
348.5415
349.2697
350.2296
351.7116
354.3703
359.4469
374.5089
5346000
5346000
5346000
5346000
5346000
347.4352
348.0466
348.727
349.5492
350.7108
352.5927
355.9147
361.7339
376.5996
5346000
5346000
5346000
5346000
5346000
346.9799
347.566
348.1904
348.8834
349.7334
350.9422
352.8206
355.7958
360.0283
368.1128
5346000
5346000
5346000
5346000
5346000
346.5475
347.1011
347.6756
348.2722
348.9215
349.6963
350.7342
352.1556
353.9344
355.1573
358.9626
5346000
5346000
5346000
5346000
5346000
346.136
346.6516
347.1791
347.7084
348.2389
348.7894
349.3937
350.0941
350.8143
351.1444
351.8962
357.4021
5346000
5346000
5346000
5346000
5346000
345.7441
346.2164
346.6975
347.1743
347.6372
348.08
348.5031
348.8978
349.2252
349.2806
349.5499
351.1864
355.5565
5346000
5346000
5346000
5346000
5346000
345.371
345.7956
346.2292
346.6609
347.0801
347.4766
347.8374
348.1448
348.3546
348.3711
348.4986
349.2327
350.4687
353.6294
5346000
5346000
5346000
5346000
5346000
345.0161
345.3903
345.7758
346.1655
346.5527
346.9291
347.2841
347.5979
347.8325
347.8963
347.987
348.4239
348.9774
349.8227
351.845
5346000
5346000
5346000
5346000
5346000
344.679
345.0027
345.3412
345.6918
346.0522
346.42
346.7911
347.1572
347.4925
347.7053
347.7371
348.0647
348.3918
348.7596
349.2741
350.6835
5346000
5346000
5346000
5346000
5346000
5346000
5346000
5346000
5346000
5346000
5346000
5346000
5346000
5346000
5346000
347.6801
347.8691
348.0728
348.2703
348.4817
348.9084
350.03
5346000
5346000
5346000
5346000
5346000
5346000
5346000
5346000
5346000
5346000
5346000
5346000
5346000
5346000
5346000
347.1752
347.4098
347.6256
347.8155
347.9714
348.2477
348.7657
349.576
5346000
5346000
5346000
5346000
5346000
5346000
5346000
5346000
5346000
5346000
5346000
5346000
5346000
5346000
5346000
346.6811
346.9262
347.1538
347.3515
347.5167
347.7623
348.1827
348.6482
349.2777
5346000
5346000
5346000
5346000
5346000
5346000
5346000
5346000
5346000
5346000
5346000
5346000
5346000
5346000
5346000
346.2295
346.4732
346.7023
346.9079
347.0835
347.3323
347.7183
348.1261
348.5602
349.0936
5346000
5346000
5346000
5346000
5346000
5346000
5346000
5346000
5346000
5346000
5346000
5346000
5346000
5346000
5346000
345.8192
346.0563
346.2831
346.4905
346.676
346.9252
347.3008
347.6828
348.0824
348.502
348.9871
5346000
5346000
5346000
5346000
5346000
5346000
5346000
5346000
5346000
5346000
5346000
5346000
5346000
5346000
5346000
5346000
5346000
5346000
5346000
5346000
5346000
5346000
5346000
5346000
5346000
5346000
5346000
5346000
5346000
5346000
5346000
5346000
5346000
5346000
5346000
5346000
5346000
5346000
5346000
5346000
5346000
5346000
5346000
5346000
5346000
5346000
5346000
5346000
5346000
5346000
5346000
5346000
5346000
5346000
5346000
347.8783
348.4355
349.0504
349.7685
350.683
352.0183
354.1953
361.639
5346000
5346000
5346000
5346000
5346000
347.4105
347.9768
348.5972
349.315
350.2509
351.6323
353.9085
357.829
369.8598
5346000
5346000
5346000
5346000
5346000
346.9645
347.524
348.1184
348.7703
349.5451
350.596
352.1557
354.5668
358.0636
365.942
5346000
5346000
5346000
5346000
5346000
346.5403
347.0819
347.6443
348.228
348.8596
349.6018
350.575
351.8829
353.5098
354.6757
358.4291
5346000
5346000
5346000
5346000
5346000
346.136
346.6516
347.1791
347.7084
348.2389
348.7894
349.3937
350.0941
350.8143
351.1444
351.8962
357.4021
5346000
5346000
5346000
5346000
5346000
345.7504
346.2327
346.723
347.2066
347.6732
348.1169
348.54
348.9369
349.2705
349.3224
349.6013
351.3462
355.9418
5346000
5346000
5346000
5346000
5346000
345.3826
345.8255
346.2754
346.7183
347.1412
347.5321
347.8776
348.162
348.3458
348.3367
348.4702
349.2828
350.6918
354.244
5346000
5346000
5346000
5346000
5346000
345.0318
345.4307
345.8376
346.2414
346.6317
346.9962
347.3207
347.5834
347.7505
347.7523
347.8556
348.3355
348.9839
350.0289
352.5184
5346000
5346000
5346000
5346000
5346000
344.6978
345.0498
345.4121
345.7781
346.1409
346.4927
346.8224
347.1124
347.3271
347.3945
347.4825
347.8485
348.2411
348.719
349.4295
351.3418
5346000
5346000
5346000
5346000
5346000
344.3803
344.6852
345.0038
345.3335
345.6721
346.0171
346.3649
346.7072
347.0218
347.2259
347.2696
347.5708
347.8642
348.1477
348.4674
349.0455
350.6346
5346000
5346000
5346000
5346000
5346000
5346000
5346000
5346000
5346000
5346000
5346000
5346000
5346000
5346000
5346000
347.1966
347.386
347.5861
347.7811
347.9618
348.2768
348.8775
349.9906
5346000
5346000
5346000
5346000
5346000
5346000
5346000
5346000
5346000
5346000
5346000
5346000
5346000
5346000
5346000
346.7222
346.9512
347.1677
347.3605
347.5281
347.7823
348.2202
348.735
349.539
5346000
5346000
5346000
5346000
5346000
5346000
5346000
5346000
5346000
5346000
5346000
5346000
5346000
5346000
5346000
346.2577
346.496
346.7205
346.9229
347.0975
347.3479