/*--------------------------------*- C++ -*----------------------------------*\
| =========                 |                                                 |
| \\      /  F ield         | OpenFOAM: The Open Source CFD Toolbox           |
|  \\    /   O peration     | Version:  2306                                  |
|   \\  /    A nd           | Website:  www.openfoam.com                      |
|    \\/     M anipulation  |                                                 |
\*---------------------------------------------------------------------------*/
FoamFile
{
    version     2.0;
    format      ascii;
    arch        "LSB;label=32;scalar=64";
    class       volScalarField;
    location    "1.5";
    object      T;
}
// * * * * * * * * * * * * * * * * * * * * * * * * * * * * * * * * * * * * * //

dimensions      [0 0 0 1 0 0 0];

internalField   nonuniform List<scalar> 
52000
(
1160.804
1160.801
1162.551
1160.742
1160.797
1162.55
1160.739
1164.894
1162.53
1160.62
1160.792
1162.548
1160.734
1164.894
1162.529
1160.616
1167.339
1164.893
1162.492
1160.443
1160.785
1162.546
1160.726
1164.892
1162.527
1160.607
1167.338
1164.892
1162.49
1160.435
1169.702
1167.345
1164.893
1162.438
1160.22
1160.778
1162.543
1160.717
1164.89
1162.524
1160.594
1167.336
1164.89
1162.487
1160.418
1169.701
1167.344
1164.891
1162.436
1160.204
1171.925
1169.71
1167.359
1164.896
1162.377
1160.036
1160.772
1162.54
1160.707
1164.888
1162.52
1160.579
1167.334
1164.888
1162.482
1160.396
1169.7
1167.342
1164.888
1162.431
1160.173
1171.924
1169.709
1167.357
1164.893
1162.372
1160.009
1173.996
1171.934
1169.728
1167.383
1164.907
1162.332
1159.917
1160.766
1162.537
1160.697
1164.885
1162.516
1160.562
1167.332
1164.884
1162.477
1160.371
1169.698
1167.339
1164.884
1162.424
1160.133
1171.923
1169.708
1167.354
1164.889
1162.364
1159.955
1173.996
1171.933
1169.727
1167.38
1164.904
1162.325
1159.882
1175.921
1174.005
1171.952
1169.758
1167.42
1164.926
1162.307
1159.809
1160.761
1162.535
1160.689
1164.883
1162.512
1160.546
1167.329
1164.881
1162.47
1160.343
1169.696
1167.336
1164.879
1162.415
1160.089
1171.921
1169.705
1167.349
1164.882
1162.354
1159.876
1173.995
1171.931
1169.724
1167.375
1164.897
1162.312
1159.811
1175.921
1174.004
1171.951
1169.756
1167.417
1164.922
1162.298
1159.767
1177.711
1175.929
1174.022
1171.983
1169.804
1167.462
1164.942
1162.288
1159.718
1160.759
1162.533
1160.682
1164.881
1162.509
1160.53
1167.327
1164.877
1162.464
1160.311
1169.693
1167.332
1164.873
1162.406
1160.057
1171.919
1169.702
1167.344
1164.873
1162.342
1159.775
1173.993
1171.929
1169.72
1167.368
1164.887
1162.294
1159.702
1175.92
1174.002
1171.948
1169.752
1167.411
1164.915
1162.28
1159.681
1177.711
1175.928
1174.021
1171.98
1169.801
1167.459
1164.938
1162.277
1159.671
1179.378
1177.718
1175.945
1174.05
1172.027
1169.85
1167.493
1164.964
1162.278
1159.65
1160.759
1162.532
1160.679
1164.879
1162.506
1160.519
1167.325
1164.874
1162.458
1160.28
1169.691
1167.329
1164.867
1162.394
1159.987
1171.917
1169.698
1167.338
1164.862
1162.333
1146.45
1173.991
1171.926
1169.714
1167.358
1164.872
1162.274
1159.551
1175.918
1174
1171.944
1169.744
1167.401
1164.905
1162.253
1159.547
1177.71
1175.927
1174.018
1171.976
1169.795
1167.454
1164.93
1162.254
1159.573
1179.377
1177.717
1175.944
1174.049
1172.025
1169.848
1167.491
1164.959
1162.265
1159.598
1180.933
1179.384
1177.733
1175.971
1174.092
1172.073
1169.885
1167.529
1164.992
1162.28
1159.606
1160.761
1162.532
1160.679
1164.878
1162.505
1160.513
1167.323
1164.872
1162.453
1160.256
1169.689
1167.326
1164.862
1162.382
1159.918
1171.915
1169.695
1167.332
1164.851
1162.31
1134.231
1173.989
1171.923
1169.709
1167.347
1164.851
1160.655
1134.022
1175.917
1173.997
1171.939
1169.735
1167.384
1164.894
1162.22
1159.356
1177.708
1175.925
1174.015
1171.97
1169.785
1167.447
1164.918
1162.219
1159.42
1179.377
1177.716
1175.942
1174.045
1172.019
1169.844
1167.486
1164.95
1162.238
1159.494
1180.932
1179.384
1177.732
1175.969
1174.09
1172.071
1169.884
1167.527
1164.986
1162.266
1159.553
1182.386
1180.939
1179.397
1177.756
1176.009
1174.135
1172.107
1169.924
1167.569
1165.026
1162.296
1159.589
1160.766
1162.533
1160.682
1164.878
1162.505
1160.513
1167.323
1164.871
1162.451
1160.244
1169.687
1167.324
1164.858
1162.373
1159.866
1171.913
1169.692
1167.327
1164.841
1162.284
1127.517
1173.987
1171.92
1169.703
1167.336
1164.829
1157.538
1104.429
1175.915
1173.995
1171.934
1169.724
1167.358
1164.221
1157.491
1127.124
1177.707
1175.922
1174.01
1171.961
1169.769
1167.439
1164.903
1162.172
1159.204
1179.375
1177.714
1175.938
1174.039
1172.01
1169.838
1167.479
1164.935
1162.197
1159.33
1180.932
1179.382
1177.729
1175.966
1174.085
1172.068
1169.88
1167.522
1164.976
1162.237
1159.445
1182.386
1180.938
1179.396
1177.754
1176.007
1174.133
1172.106
1169.923
1167.567
1165.02
1162.281
1159.535
1183.746
1182.391
1180.951
1179.419
1177.791
1176.048
1174.166
1172.144
1169.966
1167.613
1165.067
1162.324
1159.597
1160.772
1162.535
1160.689
1164.879
1162.506
1160.519
1167.323
1164.871
1162.451
1160.244
1169.687
1167.322
1164.856
1162.367
1159.838
1171.912
1169.69
1167.323
1164.834
1162.262
1123.722
1173.986
1171.917
1169.698
1167.326
1164.809
1154.848
1086.098
1175.913
1173.992
1171.929
1169.713
1167.336
1162.929
1148.297
1085.801
1177.705
1175.92
1174.006
1171.951
1169.742
1167.098
1162.978
1154.744
1123.106
1179.374
1177.712
1175.934
1174.031
1171.995
1169.832
1167.471
1164.916
1162.139
1159.1
1180.931
1179.381
1177.727
1175.96
1174.077
1172.063
1169.876
1167.515
1164.959
1162.192
1159.278
1182.385
1180.937
1179.395
1177.751
1176.002
1174.13
1172.103
1169.92
1167.562
1165.009
1162.252
1159.428
1183.746
1182.391
1180.95
1179.417
1177.789
1176.046
1174.165
1172.143
1169.964
1167.611
1165.062
1162.311
1159.544
1185.021
1183.751
1182.402
1180.97
1179.45
1177.826
1176.076
1174.2
1172.184
1170.01
1167.661
1165.115
1162.366
1159.629
1160.778
1162.537
1160.697
1164.881
1162.509
1160.53
1167.323
1164.872
1162.453
1160.256
1169.687
1167.322
1164.856
1162.367
1159.838
1171.911
1169.689
1167.321
1164.83
1162.25
1121.966
1173.984
1171.915
1169.695
1167.32
1164.795
1152.871
1075.151
1175.912
1173.99
1171.925
1169.705
1167.319
1161.773
1140.248
1058.285
1177.704
1175.917
1174.001
1171.941
1169.722
1166.48
1159.183
1140.119
1074.357
1179.372
1177.71
1175.93
1174.021
1171.97
1169.629
1166.566
1161.854
1152.682
1121.054
1180.929
1179.379
1177.723
1175.953
1174.063
1172.057
1169.871
1167.505
1164.935
1162.127
1159.044
1182.384
1180.935
1179.392
1177.747
1175.995
1174.126
1172.1
1169.915
1167.554
1164.991
1162.206
1159.263
1183.745
1182.39
1180.948
1179.414
1177.785
1176.043
1174.163
1172.141
1169.962
1167.606
1165.051
1162.283
1159.44
1185.021
1183.751
1182.402
1180.969
1179.448
1177.824
1176.075
1174.199
1172.183
1170.009
1167.66
1165.111
1162.354
1159.578
1186.217
1185.026
1183.761
1182.42
1180.999
1179.482
1177.851
1176.107
1174.236
1172.226
1170.058
1167.713
1165.169
1162.42
1159.685
1160.785
1162.54
1160.707
1164.883
1162.512
1160.546
1167.325
1164.874
1162.458
1160.28
1169.687
1167.324
1164.858
1162.373
1159.866
1171.911
1169.689
1167.321
1164.83
1162.25
1121.966
1173.984
1171.914
1169.693
1167.316
1164.787
1151.824
1069.983
1175.91
1173.988
1171.921
1169.699
1167.308
1160.89
1134.287
1041.091
1177.702
1175.915
1173.997
1171.933
1169.707
1165.94
1155.724
1127.087
1040.414
1179.371
1177.708
1175.926
1174.013
1171.952
1169.287
1164.809
1155.745
1133.914
1068.398
1180.928
1179.377
1177.719
1175.945
1174.04
1171.917
1169.382
1166.094
1160.994
1151.519
1120.649
1182.383
1180.934
1179.389
1177.74
1175.983
1174.121
1172.096
1169.91
1167.543
1164.965
1162.141
1159.035
1183.745
1182.389
1180.946
1179.41
1177.778
1176.039
1174.16
1172.138
1169.958
1167.599
1165.034
1162.24
1159.281
1185.02
1183.75
1182.4
1180.966
1179.445
1177.822
1176.073
1174.198
1172.181
1170.007
1167.656
1165.102
1162.33
1159.476
1186.217
1185.025
1183.761
1182.419
1180.997
1179.481
1177.851
1176.106
1174.236
1172.225
1170.057
1167.712
1165.166
1162.41
1159.634
1187.34
1186.221
1185.035
1183.778
1182.446
1181.028
1179.505
1177.879
1176.14
1174.275
1172.27
1170.108
1167.768
1165.228
1162.484
1160.611
1160.792
1162.543
1160.717
1164.885
1162.516
1160.562
1167.327
1164.877
1162.464
1160.311
1169.689
1167.326
1164.862
1162.382
1159.918
1171.912
1169.69
1167.323
1164.834
1162.262
1123.722
1173.984
1171.914
1169.693
1167.316
1164.787
1151.824
1069.983
1175.91
1173.987
1171.92
1169.696
1167.302
1160.409
1131.115
1032.759
1177.701
1175.914
1173.994
1171.928
1169.697
1165.531
1153.053
1117.318
1018.543
1179.37
1177.706
1175.922
1174.006
1171.938
1169.002
1163.228
1150.083
1116.971
1030.867
1180.927
1179.375
1177.715
1175.937
1174.024
1171.697
1168.455
1163.309
1153.065
1130.376
1067.266
1182.382
1180.932
1179.385
1177.732
1175.962
1174.011
1171.788
1169.173
1165.754
1160.539
1151.392
1121.866
1183.743
1182.387
1180.943
1179.404
1177.767
1176.035
1174.157
1172.135
1169.952
1167.587
1165.008
1162.18
1159.067
1185.02
1183.749
1182.398
1180.962
1179.439
1177.818
1176.071
1174.196
1172.179
1170.004
1167.649
1165.087
1162.293
1159.325
1186.216
1185.025
1183.759
1182.417
1180.994
1179.478
1177.849
1176.105
1174.235
1172.224
1170.056
1167.71
1165.16
1162.389
1159.532
1187.339
1186.221
1185.034
1183.777
1182.445
1181.026
1179.504
1177.879
1176.139
1174.274
1172.27
1170.108
1167.768
1165.227
1162.475
1160.541
1188.393
1187.343
1186.23
1185.05
1183.802
1182.473
1181.049
1179.531
1177.909
1176.175
1174.315
1172.315
1170.159
1167.825
1165.291
1163.337
1162.388
1160.797
1162.546
1160.726
1164.888
1162.52
1160.579
1167.329
1164.881
1162.47
1160.343
1169.691
1167.329
1164.867
1162.394
1159.987
1171.913
1169.692
1167.327
1164.841
1162.284
1127.517
1173.984
1171.915
1169.695
1167.32
1164.795
1152.871
1075.151
1175.91
1173.987
1171.92
1169.696
1167.302
1160.409
1131.115
1032.759
1177.701
1175.913
1173.993
1171.925
1169.692
1165.309
1151.593
1112.088
1007.748
1179.369
1177.704
1175.92
1174.001
1171.93
1168.791
1162.012
1145.659
1104.133
1006.269
1180.926
1179.373
1177.712
1175.931
1174.012
1171.522
1167.646
1160.752
1145.624
1111.148
1029.031
1182.38
1180.93
1179.382
1177.725
1175.947
1173.847
1171.221
1167.745
1162.187
1151.588
1129.938
1070.921
1183.742
1182.385
1180.939
1179.397
1177.748
1175.942
1173.931
1171.688
1169.044
1165.614
1160.586
1152.344
1124.953
1185.019
1183.747
1182.395
1180.957
1179.429
1177.815
1176.068
1174.193
1172.176
1169.999
1167.639
1165.065
1162.244
1159.131
1186.216
1185.023
1183.757
1182.413
1180.988
1179.475
1177.847
1176.103
1174.233
1172.223
1170.054
1167.706
1165.15
1162.361
1159.383
1187.339
1186.22
1185.033
1183.774
1182.442
1181.024
1179.503
1177.878
1176.139
1174.274
1172.27
1170.108
1167.768
1165.224
1162.458
1160.387
1188.393
1187.343
1186.229
1185.049
1183.801
1182.472
1181.048
1179.53
1177.909
1176.174
1174.315
1172.316
1170.16
1167.826
1165.291
1163.329
1162.286
1189.383
1188.397
1187.352
1186.244
1185.073
1183.826
1182.492
1181.072
1179.558
1177.941
1176.211
1174.356
1172.362
1170.211
1167.882
1166.045
1164.971
1164.177
1160.801
1162.548
1160.734
1164.89
1162.524
1160.594
1167.332
1164.884
1162.477
1160.371
1169.693
1167.332
1164.873
1162.406
1160.057
1171.915
1169.695
1167.332
1164.851
1162.31
1134.231
1173.986
1171.917
1169.698
1167.326
1164.809
1154.848
1086.098
1175.91
1173.988
1171.921
1169.699
1167.308
1160.89
1134.287
1041.091
1177.701
1175.913
1173.993
1171.925
1169.692
1165.309
1151.593
1112.088
1007.748
1179.368
1177.704
1175.918
1173.999
1171.926
1168.679
1161.348
1143.224
1097.217
994.0059
1180.925
1179.372
1177.71
1175.926
1174.004
1171.397
1167.038
1158.759
1139.753
1096.482
1003.876
1182.379
1180.928
1179.379
1177.72
1175.936
1173.721
1170.743
1166.469
1158.864
1143.122
1110.384
1034.899
1183.741
1182.383
1180.936
1179.391
1177.735
1175.806
1173.524
1170.842
1167.262
1161.653
1151.617
1132.726
1079.904
1185.017
1183.746
1182.392
1180.95
1179.412
1177.732
1175.883
1173.875
1171.643
1169.029
1165.725
1161.171
1154.337
1130.652
1186.215
1185.022
1183.755
1182.408
1180.979
1179.472
1177.844
1176.101
1174.231
1172.22
1170.049
1167.698
1165.135
1162.326
1159.2
1187.338
1186.219
1185.031
1183.771
1182.437
1181.021
1179.501
1177.876
1176.137
1174.273
1172.269
1170.108
1167.768
1165.221
1162.436
1160.086
1188.393
1187.342
1186.228
1185.047
1183.798
1182.47
1181.047
1179.529
1177.908
1176.174
1174.315
1172.317
1170.162
1167.83
1165.291
1163.314
1162.041
1189.383
1188.397
1187.351
1186.243
1185.071
1183.825
1182.492
1181.072
1179.557
1177.94
1176.211
1174.357
1172.363
1170.213
1167.885
1166.05
1164.963
1164.047
1190.311
1189.386
1188.405
1187.365
1186.265
1185.095
1183.844
1182.514
1181.097
1179.586
1177.973
1176.248
1174.398
1172.409
1170.262
1168.542
1167.486
1166.606
1165.982
1160.804
1162.55
1160.739
1164.892
1162.527
1160.607
1167.334
1164.888
1162.482
1160.396
1169.696
1167.336
1164.879
1162.415
1160.089
1171.917
1169.698
1167.338
1164.862
1162.333
1146.45
1173.987
1171.92
1169.703
1167.336
1164.829
1157.538
1104.429
1175.912
1173.99
1171.925
1169.705
1167.319
1161.773
1140.248
1058.285
1177.701
1175.914
1173.994
1171.928
1169.697
1165.531
1153.053
1117.318
1018.543
1179.368
1177.704
1175.918
1173.999
1171.926
1168.679
1161.348
1143.224
1097.217
994.0059
1180.924
1179.371
1177.709
1175.924
1174.001
1171.331
1166.71
1157.661
1136.504
1088.55
991.3049
1182.379
1180.927
1179.377
1177.716
1175.93
1173.633
1170.395
1165.495
1156.242
1136.398
1095.441
1011.413
1183.74
1182.382
1180.934
1179.386
1177.725
1175.704
1173.191
1170.111
1165.645
1157.924
1143.098
1114.88
1049.025
1185.016
1183.744
1182.389
1180.945
1179.399
1177.613
1175.553
1173.283
1170.622
1167.111
1161.861
1153.245
1138.557
1095.654
1186.214
1185.02
1183.752
1182.402
1180.964
1179.397
1177.682
1175.844
1173.862
1171.674
1169.154
1166.111
1162.277
1157.308
1141.089
1187.337
1186.218
1185.029
1183.767
1182.428
1181.018
1179.499
1177.874
1176.136
1174.271
1172.267
1170.105
1167.765
1165.216
1162.418
1159.243
1188.392
1187.341
1186.226
1185.044
1183.793
1182.467
1181.045
1179.528
1177.907
1176.173
1174.315
1172.318
1170.165
1167.834
1165.295
1163.308
1161.513
1189.382
1188.396
1187.35
1186.241
1185.069
1183.824
1182.49
1181.071
1179.557
1177.94
1176.211
1174.358
1172.366
1170.218
1167.891
1166.067
1164.952
1163.734
1190.311
1189.386
1188.404
1187.364
1186.264
1185.094
1183.844
1182.513
1181.096
1179.586
1177.973
1176.249
1174.399
1172.411
1170.266
1168.552
1167.502
1166.598
1165.833
1191.182
1190.315
1189.393
1188.417
1187.384
1186.286
1185.112
1183.864
1182.536
1181.122
1179.616
1178.007
1176.285
1174.44
1172.454
1170.841
1169.804
1168.925
1168.241
1167.805
1162.551
1160.742
1164.894
1162.529
1160.616
1167.336
1164.89
1162.487
1160.418
1169.698
1167.339
1164.884
1162.424
1160.133
1171.919
1169.702
1167.344
1164.873
1162.342
1159.775
1173.989
1171.923
1169.709
1167.347
1164.851
1160.655
1134.022
1175.913
1173.992
1171.929
1169.713
1167.336
1162.929
1148.297
1085.801
1177.702
1175.915
1173.997
1171.933
1169.707
1165.94
1155.724
1127.087
1040.414
1179.369
1177.704
1175.92
1174.001
1171.93
1168.791
1162.012
1145.659
1104.133
1006.269
1180.924
1179.371
1177.709
1175.924
1174.001
1171.331
1166.71
1157.661
1136.504
1088.55
991.3049
1182.378
1180.927
1179.376
1177.714
1175.926
1173.589
1170.21
1164.965
1154.787
1132.664
1087.349
999.7356
1183.74
1182.381
1180.932
1179.382
1177.719
1175.635
1172.955
1169.569
1164.393
1154.957
1136.309
1101.271
1029.306
1185.016
1183.743
1182.387
1180.94
1179.391
1177.524
1175.29
1172.789
1169.725
1165.346
1158.192
1145.686
1124.246
1072.79
1186.213
1185.019
1183.749
1182.397
1180.952
1179.289
1177.395
1175.374
1173.169
1170.619
1167.369
1162.871
1156.355
1147.001
1121.567
1187.336
1186.216
1185.026
1183.761
1182.414
1180.949
1179.352
1177.651
1175.843
1173.907
1171.797
1169.44
1166.785
1163.909
1161.373
1153.251
1188.391
1187.34
1186.224
1185.04
1183.785
1182.464
1181.043
1179.526
1177.905
1176.172
1174.314
1172.318
1170.167
1167.839
1165.305
1163.41
1160.136
1189.381
1188.395
1187.348
1186.238
1185.064
1183.821
1182.489
1181.069
1179.556
1177.94
1176.211
1174.359
1172.37
1170.225
1167.903
1166.121
1164.959
1163.067
1190.311
1189.385
1188.403
1187.362
1186.261
1185.093
1183.842
1182.512
1181.096
1179.586
1177.974
1176.25
1174.402
1172.416
1170.274
1168.577
1167.545
1166.586
1165.478
1191.182
1190.314
1189.393
1188.416
1187.383
1186.285
1185.111
1183.863
1182.536
1181.122
1179.616
1178.007
1176.287
1174.442
1172.458
1170.851
1169.826
1168.948
1168.232
1167.648
1191.999
1191.186
1190.321
1189.405
1188.435
1187.404
1186.301
1185.13
1183.885
1182.56
1181.149
1179.646
1178.041
1176.323
1174.481
1172.964
1171.947
1171.062
1170.36
1169.877
1168.78
1164.894
1162.53
1160.62
1167.338
1164.892
1162.49
1160.435
1169.7
1167.342
1164.888
1162.431
1160.173
1171.921
1169.705
1167.349
1164.882
1162.354
1159.876
1173.991
1171.926
1169.714
1167.358
1164.872
1162.274
1159.551
1175.915
1173.995
1171.934
1169.724
1167.358
1164.221
1157.491
1127.124
1177.704
1175.917
1174.001
1171.941
1169.722
1166.48
1159.183
1140.119
1074.357
1179.37
1177.706
1175.922
1174.006
1171.938
1169.002
1163.228
1150.083
1116.971
1030.867
1180.925
1179.372
1177.71
1175.926
1174.004
1171.397
1167.038
1158.759
1139.753
1096.482
1003.876
1182.378
1180.927
1179.376
1177.714
1175.926
1173.589
1170.21
1164.965
1154.787
1132.664
1087.349
999.7356
1183.739
1182.38
1180.931
1179.38
1177.716
1175.6
1172.833
1169.279
1163.706
1153.301
1132.531
1093.912
1019.616
1185.015
1183.742
1182.385
1180.937
1179.385
1177.464
1175.106
1172.432
1169.05
1163.965
1155.252
1139.651
1113.373
1058.592
1186.212
1185.018
1183.747
1182.393
1180.944
1179.208
1177.168
1174.989
1172.581
1169.678
1165.7
1159.748
1150.623
1137.547
1109.247
1187.335
1186.215
1185.024
1183.756
1182.404
1180.85
1179.092
1177.244
1175.303
1173.218
1170.877
1168.079
1164.658
1160.709
1157.476
1145.968
1188.39
1187.339
1186.222
1185.035
1183.772
1182.401
1180.907
1179.324
1177.653
1175.89
1174.021
1172.028
1169.911
1167.807
1166.346
1164.846
1155.491
1189.381
1188.394
1187.346
1186.234
1185.057
1183.818
1182.487
1181.068
1179.554
1177.938
1176.211
1174.36
1172.373
1170.233
1167.921
1166.39
1165.092
1161.539
1190.31
1189.384
1188.401
1187.359
1186.257
1185.09
1183.841
1182.511
1181.095
1179.585
1177.974
1176.251
1174.406
1172.424
1170.287
1168.647
1167.667
1166.589
1164.752
1191.182
1190.314
1189.392
1188.415
1187.381
1186.284
1185.11
1183.863
1182.535
1181.122
1179.616
1178.009
1176.29
1174.447
1172.466
1170.879
1169.883
1169.009
1168.217
1167.276
1191.998
1191.185
1190.321
1189.404
1188.434
1187.403
1186.301
1185.129
1183.884
1182.56
1181.15
1179.647
1178.042
1176.325
1174.484
1172.974
1171.969
1171.093
1170.388
1169.867
1168.622
1192.763
1192.002
1191.192
1190.333
1189.422
1188.454
1187.418
1186.318
1185.149
1183.906
1182.584
1181.177
1179.677
1178.074
1176.36
1174.932
1173.937
1173.048
1172.315
1171.791
1170.742
1168.885
1167.339
1164.893
1162.492
1160.443
1169.701
1167.344
1164.891
1162.436
1160.204
1171.923
1169.708
1167.354
1164.889
1162.364
1159.955
1173.993
1171.929
1169.72
1167.368
1164.887
1162.294
1159.702
1175.917
1173.997
1171.939
1169.735
1167.384
1164.894
1162.22
1159.356
1177.705
1175.92
1174.006
1171.951
1169.742
1167.098
1162.978
1154.744
1123.106
1179.371
1177.708
1175.926
1174.013
1171.952
1169.287
1164.809
1155.745
1133.914
1068.398
1180.926
1179.373
1177.712
1175.931
1174.012
1171.522
1167.646
1160.752
1145.624
1111.148
1029.031
1182.379
1180.927
1179.377
1177.716
1175.93
1173.633
1170.395
1165.495
1156.242
1136.398
1095.441
1011.413
1183.739
1182.38
1180.931
1179.38
1177.716
1175.6
1172.833
1169.279
1163.706
1153.301
1132.531
1093.912
1019.616
1185.015
1183.741
1182.384
1180.935
1179.382
1177.434
1175.013
1172.246
1168.686
1163.202
1153.606
1136.29
1107.508
1051.714
1186.211
1185.017
1183.745
1182.39
1180.939
1179.155
1177.012
1174.718
1172.152
1168.961
1164.378
1157.221
1146.012
1130.338
1101.648
1187.335
1186.214
1185.022
1183.752
1182.397
1180.776
1178.887
1176.916
1174.855
1172.625
1170.04
1166.759
1162.49
1157.327
1153.38
1140.192
1188.389
1187.338
1186.22
1185.03
1183.763
1182.308
1180.668
1178.957
1177.19
1175.366
1173.461
1171.433
1169.261
1167.179
1166.121
1164.005
1149.772
1189.38
1188.393
1187.344
1186.23
1185.045
1183.759
1182.361
1180.881
1179.327
1177.698
1175.995
1174.219
1172.395
1170.647
1169.522
1168.997
1165.813
1157.884
1190.309
1189.383
1188.4
1187.356
1186.251
1185.088
1183.839
1182.51
1181.094
1179.584
1177.974
1176.252
1174.41
1172.433
1170.306
1168.948
1168.09
1166.68
1163.271
1191.181
1190.313
1189.39
1188.412
1187.377
1186.281
1185.109
1183.861
1182.534
1181.122
1179.616
1178.01
1176.293
1174.455
1172.479
1170.949
1170.034
1169.164
1168.205
1166.551
1191.998
1191.185
1190.32
1189.403
1188.432
1187.402
1186.3
1185.129
1183.884
1182.56
1181.15
1179.648
1178.045
1176.33
1174.491
1173
1172.029
1171.174
1170.458
1169.847
1168.253
1192.762
1192.001
1191.192
1190.332
1189.421
1188.453
1187.418
1186.318
1185.149
1183.906
1182.585
1181.178
1179.678
1178.077
1176.363
1174.941
1173.959
1173.081
1172.353
1171.821
1170.732
1168.727
1193.476
1192.765
1192.008
1191.203
1190.349
1189.44
1188.467
1187.434
1186.336
1185.169
1183.929
1182.61
1181.205
1179.707
1178.107
1176.762
1175.794
1174.907
1174.145
1173.561
1172.544
1170.835
1168.99
1169.702
1167.345
1164.893
1162.438
1160.22
1171.924
1169.709
1167.357
1164.893
1162.372
1160.009
1173.995
1171.931
1169.724
1167.375
1164.897
1162.312
1159.811
1175.918
1174
1171.944
1169.744
1167.401
1164.905
1162.253
1159.547
1177.707
1175.922
1174.01
1171.961
1169.769
1167.439
1164.903
1162.172
1159.204
1179.372
1177.71
1175.93
1174.021
1171.97
1169.629
1166.566
1161.854
1152.682
1121.054
1180.927
1179.375
1177.715
1175.937
1174.024
1171.697
1168.455
1163.309
1153.065
1130.376
1067.266
1182.379
1180.928
1179.379
1177.72
1175.936
1173.721
1170.743
1166.469
1158.864
1143.122
1110.384
1034.899
1183.74
1182.381
1180.932
1179.382
1177.719
1175.635
1172.955
1169.569
1164.393
1154.957
1136.309
1101.271
1029.306
1185.015
1183.741
1182.384
1180.935
1179.382
1177.434
1175.013
1172.246
1168.686
1163.202
1153.606
1136.29
1107.508
1051.714
1186.211
1185.016
1183.745
1182.388
1180.937
1179.128
1176.932
1174.578
1171.925
1168.571
1163.642
1155.798
1143.438
1126.449
1097.972
1187.334
1186.213
1185.02
1183.75
1182.392
1180.727
1178.747
1176.687
1174.536
1172.188
1169.389
1165.688
1160.679
1154.506
1150.111
1136.31
1188.389
1187.337
1186.218
1185.027
1183.756
1182.24
1180.48
1178.662
1176.812
1174.928
1172.967
1170.851
1168.506
1166.191
1165.114
1162.587
1144.981
1189.379
1188.392
1187.342
1186.226
1185.036
1183.673
1182.138
1180.543
1178.91
1177.254
1175.589
1173.927
1172.32
1170.957
1170.486
1169.684
1165.229
1153.401
1190.309
1189.382
1188.397
1187.351
1186.239
1185.032
1183.721
1182.336
1180.883
1179.368
1177.793
1176.169
1174.526
1172.981
1171.992
1171.717
1169.758
1166.997
1160.393
1191.181
1190.312
1189.389
1188.409
1187.371
1186.279
1185.107
1183.86
1182.533
1181.121
1179.616
1178.011
1176.297
1174.463
1172.498
1171.241
1170.517
1169.588
1168.231
1165.215
1191.998
1191.184
1190.319
1189.4
1188.429
1187.4
1186.298
1185.128
1183.883
1182.559
1181.15
1179.649
1178.048
1176.337
1174.504
1173.067
1172.181
1171.367
1170.616
1169.815
1167.55
1192.762
1192.001
1191.191
1190.33
1189.419
1188.452
1187.417
1186.317
1185.148
1183.906
1182.585
1181.179
1179.68
1178.081
1176.37
1174.966
1174.017
1173.165
1172.446
1171.892
1170.709
1168.358
1193.476
1192.765
1192.007
1191.202
1190.348
1189.439
1188.467
1187.434
1186.336
1185.169
1183.929
1182.61
1181.206
1179.709
1178.11
1176.771
1175.814
1174.939
1174.184
1173.602
1172.574
1170.825
1168.832
1194.142
1193.479
1192.771
1192.018
1191.218
1190.365
1189.453
1188.482
1187.451
1186.355
1185.19
1183.952
1182.636
1181.233
1179.737
1178.468
1177.529
1176.652
1175.871
1175.234
1174.216
1172.624
1170.927
1169.095
1171.925
1169.71
1167.359
1164.896
1162.377
1160.036
1173.996
1171.933
1169.727
1167.38
1164.904
1162.325
1159.882
1175.92
1174.002
1171.948
1169.752
1167.411
1164.915
1162.28
1159.681
1177.708
1175.925
1174.015
1171.97
1169.785
1167.447
1164.918
1162.219
1159.42
1179.374
1177.712
1175.934
1174.031
1171.995
1169.832
1167.471
1164.916
1162.139
1159.1
1180.928
1179.377
1177.719
1175.945
1174.04
1171.917
1169.382
1166.094
1160.994
1151.519
1120.649
1182.38
1180.93
1179.382
1177.725
1175.947
1173.847
1171.221
1167.745
1162.187
1151.588
1129.938
1070.921
1183.74
1182.382
1180.934
1179.386
1177.725
1175.704
1173.191
1170.111
1165.645
1157.924
1143.098
1114.88
1049.025
1185.015
1183.742
1182.385
1180.937
1179.385
1177.464
1175.106
1172.432
1169.05
1163.965
1155.252
1139.651
1113.373
1058.592
1186.211
1185.016
1183.745
1182.388
1180.937
1179.128
1176.932
1174.578
1171.925
1168.571
1163.642
1155.798
1143.438
1126.449
1097.972
1187.334
1186.213
1185.02
1183.748
1182.39
1180.702
1178.677
1176.57
1174.37
1171.954
1169.031
1165.083
1159.646
1152.91
1148.318
1134.368
1188.388
1187.336
1186.216
1185.024
1183.752
1182.194
1180.351
1178.458
1176.546
1174.612
1172.594
1170.375
1167.833
1165.241
1164.075
1161.316
1141.678
1189.378
1188.391
1187.34
1186.222
1185.03
1183.609
1181.963
1180.272
1178.572
1176.889
1175.242
1173.64
1172.125
1170.88
1170.612
1169.678
1164.154
1149.5
1190.308
1189.381
1188.395
1187.347
1186.231
1184.952
1183.513
1182.021
1180.499
1178.97
1177.457
1175.997
1174.656
1173.61
1173.305
1172.847
1170.409
1166.546
1156.913
1191.18
1190.311
1189.387
1188.405
1187.36
1186.227
1184.997
1183.698
1182.337
1180.921
1179.454
1177.949
1176.438
1175.023
1174.106
1173.875
1172.354
1170.681
1168.312
1162.984
1191.997
1191.183
1190.317
1189.397
1188.423
1187.397
1186.297
1185.126
1183.882
1182.558
1181.15
1179.65
1178.051
1176.345
1174.521
1173.338
1172.653
1171.867
1170.978
1169.776
1166.314
1192.762
1192
1191.189
1190.328
1189.416
1188.45
1187.415
1186.316
1185.148
1183.906
1182.585
1181.18
1179.683
1178.087
1176.381
1175.028
1174.16
1173.36
1172.649
1172.036
1170.666
1167.658
1193.476
1192.765
1192.007
1191.2
1190.346
1189.438
1188.466
1187.433
1186.335
1185.169
1183.93
1182.611
1181.209
1179.713
1178.117
1176.793
1175.868
1175.019
1174.282
1173.7
1172.644
1170.801
1168.464
1194.142
1193.479
1192.771
1192.017
1191.217
1190.365
1189.452
1188.482
1187.451
1186.355
1185.191
1183.953
1182.637
1181.235
1179.74
1178.476
1177.549
1176.682
1175.91
1175.278
1174.258
1172.655
1170.917
1168.937
1194.761
1194.145
1193.485
1192.781
1192.033
1191.234
1190.377
1189.466
1188.498
1187.468
1186.374
1185.212
1183.976
1182.661
1181.26
1180.062
1179.156
1178.294
1177.505
1176.829
1175.806
1174.286
1172.705
1171.02
1169.2
1173.996
1171.934
1169.728
1167.383
1164.907
1162.332
1159.917
1175.921
1174.004
1171.951
1169.756
1167.417
1164.922
1162.298
1159.767
1177.71
1175.927
1174.018
1171.976
1169.795
1167.454
1164.93
1162.254
1159.573
1179.375
1177.714
1175.938
1174.039
1172.01
1169.838
1167.479
1164.935
1162.197
1159.33
1180.929
1179.379
1177.723
1175.953
1174.063
1172.057
1169.871
1167.505
1164.935
1162.127
1159.044
1182.382
1180.932
1179.385
1177.732
1175.962
1174.011
1171.788
1169.173
1165.754
1160.539
1151.392
1121.866
1183.741
1182.383
1180.936
1179.391
1177.735
1175.806
1173.524
1170.842
1167.262
1161.653
1151.617
1132.726
1079.904
1185.016
1183.743
1182.387
1180.94
1179.391
1177.524
1175.29
1172.789
1169.725
1165.346
1158.192
1145.686
1124.246
1072.79
1186.211
1185.017
1183.745
1182.39
1180.939
1179.155
1177.012
1174.718
1172.152
1168.961
1164.378
1157.221
1146.012
1130.338
1101.648
1187.334
1186.213
1185.02
1183.748
1182.39
1180.702
1178.677
1176.57
1174.37
1171.954
1169.031
1165.083
1159.646
1152.91
1148.318
1134.368
1188.388
1187.335
1186.216
1185.023
1183.75
1182.171
1180.286
1178.354
1176.409
1174.447
1172.392
1170.105
1167.437
1164.67
1163.447
1160.588
1140.007
1189.378
1188.39
1187.339
1186.22
1185.026
1183.566
1181.844
1180.085
1178.336
1176.631
1174.987
1173.404
1171.907
1170.665
1170.463
1169.461
1163.158
1146.748
1190.307
1189.38
1188.394
1187.344
1186.225
1184.892
1183.35
1181.769
1180.189
1178.645
1177.176
1175.827
1174.669
1173.869
1173.821
1173.321
1170.498
1165.727
1153.807
1191.179
1190.31
1189.385
1188.401
1187.353
1186.152
1184.802
1183.404
1181.98
1180.554
1179.155
1177.823
1176.629
1175.725
1175.463
1175.086
1173.358
1171.226
1167.936
1160.347
1191.996
1191.182
1190.315
1189.393
1188.413
1187.349
1186.194
1184.974
1183.699
1182.371
1181
1179.596
1178.19
1176.875
1176.002
1175.756
1174.425
1173.124
1171.693
1169.705
1164.381
1192.761
1191.999
1191.188
1190.325
1189.411
1188.448
1187.414
1186.315
1185.147
1183.905
1182.585
1181.181
1179.686
1178.094
1176.397
1175.275
1174.601
1173.855
1173.094
1172.311
1170.595
1166.432
1193.475
1192.764
1192.005
1191.198
1190.343
1189.436
1188.465
1187.432
1186.335
1185.169
1183.93
1182.613
1181.211
1179.719
1178.127
1176.85
1176.001
1175.205
1174.49
1173.892
1172.774
1170.758
1167.766
1194.141
1193.478
1192.77
1192.016
1191.215
1190.363
1189.451
1188.481
1187.45
1186.355
1185.191
1183.954
1182.639
1181.239
1179.746
1178.497
1177.599
1176.757
1176.004
1175.38
1174.355
1172.724
1170.894
1168.57
1194.761
1194.144
1193.484
1192.78
1192.032
1191.233
1190.377
1189.466
1188.498
1187.468
1186.375
1185.212
1183.977
1182.663
1181.263
1180.07
1179.175
1178.322
1177.542
1176.871
1175.851
1174.328
1172.735
1171.01
1169.043
1195.335
1194.764
1194.15
1193.494
1192.795
1192.048
1191.245
1190.391
1189.481
1188.514
1187.487
1186.395
1185.234
1184
1182.686
1181.555
1180.684
1179.842
1179.054
1178.352
1177.331
1175.867
1174.356
1172.786
1171.113
1169.299
1175.921
1174.005
1171.952
1169.758
1167.42
1164.926
1162.307
1159.809
1177.711
1175.928
1174.021
1171.98
1169.801
1167.459
1164.938
1162.277
1159.671
1179.377
1177.716
1175.942
1174.045
1172.019
1169.844
1167.486
1164.95
1162.238
1159.494
1180.931
1179.381
1177.727
1175.96
1174.077
1172.063
1169.876
1167.515
1164.959
1162.192
1159.278
1182.383
1180.934
1179.389
1177.74
1175.983
1174.121
1172.096
1169.91
1167.543
1164.965
1162.141
1159.035
1183.742
1182.385
1180.939
1179.397