/*--------------------------------*- C++ -*----------------------------------*\
| =========                 |                                                 |
| \\      /  F ield         | OpenFOAM: The Open Source CFD Toolbox           |
|  \\    /   O peration     | Version:  2306                                  |
|   \\  /    A nd           | Website:  www.openfoam.com                      |
|    \\/     M anipulation  |                                                 |
\*---------------------------------------------------------------------------*/
FoamFile
{
    version     2.0;
    format      ascii;
    arch        "LSB;label=32;scalar=64";
    class       volScalarField;
    location    "1.5/fuel";
    object      diffSp.H2;
}
// * * * * * * * * * * * * * * * * * * * * * * * * * * * * * * * * * * * * * //

dimensions      [0 2 -1 0 0 0 0];

internalField   nonuniform List<scalar> 
16000
(
0.0001069326
0.0001069188
0.0001072197
0.0001069469
0.0001068845
0.0001072233
0.0001069333
0.0001074719
0.0001072313
0.0001069768
0.0001068204
0.000107229
0.0001068996
0.0001074797
0.0001072349
0.0001069637
0.0001076956
0.0001074812
0.0001072559
0.0001070117
0.0001067025
0.0001072377
0.0001068365
0.0001074954
0.0001072408
0.000106931
0.0001077041
0.0001074891
0.0001072598
0.0001069992
0.0001079009
0.0001077031
0.0001075015
0.0001072847
0.000107082
0.0001065386
0.000107241
0.0001067203
0.0001075222
0.0001072497
0.0001068697
0.0001077219
0.0001075048
0.0001072661
0.0001069677
0.0001079093
0.0001077117
0.0001075095
0.0001072889
0.0001070706
0.0001080937
0.0001079071
0.0001077201
0.0001075254
0.0001073432
0.0001606482
0.0001063261
0.0001072468
0.0001065588
0.0001075563
0.0001072531
0.000106756
0.0001077525
0.0001075316
0.0001072756
0.0001069083
0.0001079268
0.0001077295
0.0001075255
0.0001072957
0.0001070414
0.0001081016
0.0001079155
0.0001077288
0.0001075335
0.0001073479
0.0001606315
0.0001082763
0.0001080988
0.0001079216
0.0001077403
0.0001075742
0.0001610355
0.0001606603
0.0001061313
0.0001072213
0.0001063489
0.0001076052
0.0001072588
0.0001065979
0.0001077941
0.0001075654
0.0001072795
0.0001067975
0.0001079571
0.00010776
0.0001075525
0.0001073059
0.0001069856
0.0001081182
0.000107933
0.0001077467
0.0001075498
0.0001073558
0.0001605886
0.0001082836
0.0001081067
0.0001079301
0.0001077491
0.0001075826
0.0001610427
0.0001606439
0.00010845
0.0001082805
0.0001081113
0.0001079389
0.0001077818
0.0001613784
0.0001610454
0.0001606767
0.0001059838
0.0001071893
0.0001061565
0.0001076325
0.0001072335
0.0001063914
0.0001078534
0.0001076138
0.0001072858
0.000106643
0.0001079992
0.0001078013
0.0001075864
0.0001073107
0.0001068798
0.0001081469
0.0001079632
0.0001077773
0.0001075771
0.0001073677
0.0001605067
0.0001082992
0.0001081233
0.0001079476
0.0001077671
0.0001075996
0.0001610549
0.0001606016
0.0001084569
0.0001082879
0.0001081192
0.0001079474
0.0001077908
0.0001613912
0.0001610526
0.0001606606
0.0001086155
0.0001084535
0.0001082914
0.0001081263
0.0001079748
0.000161687
0.0001613864
0.0001610588
0.0001606914
0.0001059058
0.0001071588
0.0001060108
0.0001076498
0.0001072019
0.0001062018
0.0001078961
0.0001076407
0.0001072611
0.00010644
0.0001080589
0.0001078599
0.0001076346
0.0001073176
0.0001067314
0.0001081873
0.000108005
0.0001078186
0.0001076113
0.0001073744
0.0001603505
0.0001083261
0.0001081519
0.0001079778
0.0001077979
0.0001076279
0.0001610731
0.0001605208
0.0001084714
0.0001083034
0.0001081358
0.0001079651
0.0001078093
0.0001614166
0.0001610648
0.000160619
0.0001086219
0.0001084604
0.0001082988
0.0001081343
0.0001079835
0.0001617006
0.0001613992
0.000161066
0.0001606756
0.0001087732
0.0001086184
0.000108463
0.0001083045
0.0001081577
0.0001619744
0.0001616936
0.0001613974
0.0001610707
0.0001607083
0.0001059058
0.0001071411
0.0001059337
0.0001076572
0.0001071718
0.000106058
0.0001079285
0.0001076578
0.0001072301
0.0001062534
0.000108105
0.0001079021
0.0001076614
0.0001072935
0.0001065337
0.0001082444
0.000108064
0.0001078768
0.0001076595
0.0001073834
0.0001601312
0.0001083641
0.000108192
0.0001080195
0.0001078392
0.0001076631
0.0001610833
0.0001603664
0.0001084965
0.0001083302
0.0001081645
0.0001079953
0.0001078407
0.000161459
0.000161083
0.0001605396
0.0001086355
0.0001084749
0.0001083143
0.0001081509
0.0001080015
0.0001617284
0.0001614245
0.0001610784
0.0001606348
0.0001087792
0.0001086248
0.0001084699
0.0001083119
0.0001081659
0.0001619874
0.0001617071
0.0001614101
0.000161078
0.0001606929
0.0001089235
0.0001087757
0.0001086268
0.0001084746
0.0001083324
0.0001622471
0.0001619798
0.0001617027
0.0001614072
0.0001610845
0.0003914285
0.0001059838
0.0001071411
0.0001059337
0.0001076599
0.0001071544
0.000105982
0.000107948
0.0001076652
0.0001072005
0.0001061116
0.0001081412
0.0001079342
0.0001076785
0.0001072632
0.000106351
0.0001082897
0.0001081096
0.0001079186
0.0001076862
0.0001073608
0.0001598383
0.0001084178
0.0001082485
0.0001080782
0.0001078972
0.0001077121
0.0001610967
0.0001601494
0.0001085323
0.000108368
0.0001082044
0.0001080369
0.0001078826
0.0001615115
0.000161093
0.0001603872
0.0001086591
0.0001084999
0.0001083411
0.0001081796
0.0001080322
0.0001617753
0.0001614667
0.0001610966
0.0001605566
0.000108792
0.0001086384
0.0001084844
0.0001083275
0.0001081828
0.0001620144
0.0001617348
0.0001614354
0.0001610905
0.0001606528
0.0001089292
0.0001087817
0.0001086333
0.0001084816
0.00010834
0.0001622593
0.0001619928
0.0001617162
0.0001614199
0.0001610918
0.0003913941
0.0001090667
0.0001089256
0.0001087832
0.0001086372
0.0001084996
0.0001625077
0.0001622516
0.0001619874
0.0001617108
0.0001614185
0.0003923179
0.0003915513
0.0001061313
0.0001071588
0.0001060108
0.0001076599
0.0001071544
0.000105982
0.0001079574
0.000107668
0.0001071835
0.0001060365
0.0001081641
0.0001079535
0.000107686
0.0001072342
0.0001062118
0.0001083259
0.0001081455
0.0001079505
0.0001077033
0.0001073317
0.0001595676
0.0001084612
0.0001082934
0.0001081233
0.0001079387
0.0001077393
0.0001610631
0.0001598594
0.0001085826
0.0001084211
0.0001082605
0.0001080953
0.000107941
0.0001615844
0.0001611059
0.0001601728
0.0001086927
0.0001085354
0.0001083787
0.0001082194
0.0001080742
0.0001618376
0.0001615185
0.0001611066
0.0001604062
0.0001088142
0.0001086619
0.0001085095
0.0001083543
0.0001082118
0.0001620603
0.0001617814
0.0001614774
0.0001611088
0.0001605761
0.0001089413
0.0001087944
0.0001086468
0.0001084961
0.0001083557
0.0001622846
0.0001620196
0.0001617437
0.0001614451
0.0001611044
0.0003913045
0.0001090721
0.0001089313
0.0001087892
0.0001086436
0.0001085066
0.000162519
0.0001622637
0.0001620003
0.0001617242
0.0001614311
0.0003923361
0.0003915238
0.000109203
0.0001090684
0.0001089323
0.0001087924
0.0001086597
0.0001627573
0.0001625113
0.000162258
0.0001619941
0.0001617201
0.0003931104
0.0003924084
0.0003917224
0.0001063261
0.0001071893
0.0001061565
0.0001076572
0.0001071718
0.000106058
0.0001079574
0.000107668
0.0001071835
0.0001060365
0.0001081754
0.0001079628
0.0001076888
0.0001072175
0.000106138
0.0001083492
0.0001081682
0.0001079698
0.0001077108
0.0001073035
0.0001593612
0.0001084959
0.0001083292
0.0001081589
0.0001079704
0.0001077568
0.00016102
0.0001595916
0.0001086237
0.0001084641
0.000108305
0.0001081401
0.0001079826
0.0001616245
0.0001610722
0.0001598859
0.0001087399
0.0001085853
0.0001084315
0.0001082753
0.0001081328
0.0001619245
0.0001615904
0.0001611192
0.0001601942
0.0001088459
0.0001086952
0.0001085448
0.0001083918
0.0001082519
0.0001621227
0.000161843
0.0001615287
0.0001611186
0.0001604279
0.0001089622
0.0001088165
0.0001086703
0.0001085211
0.0001083828
0.0001623279
0.0001620652
0.0001617901
0.0001614868
0.0001611228
0.0003911317
0.0001090835
0.0001089433
0.0001088019
0.0001086572
0.0001085213
0.0001625426
0.0001622889
0.000162027
0.0001617516
0.0001614563
0.0003923669
0.0003914501
0.0001092081
0.0001090738
0.000108938
0.0001087985
0.0001086662
0.0001627678
0.0001625226
0.00016227
0.000162007
0.0001617335
0.0003931406
0.0003924264
0.000391705
0.0001093326
0.0001092044
0.0001090745
0.0001089406
0.0001088128
0.0001629964
0.0001627603
0.0001625167
0.0001622636
0.0001620019
0.0003938284
0.0003931796
0.000392534
0.0003918795
0.0001065386
0.0001072213
0.0001063489
0.0001076498
0.0001072019
0.0001062018
0.000107948
0.0001076652
0.0001072005
0.0001061116
0.0001081754
0.0001079628
0.0001076888
0.0001072175
0.000106138
0.0001083608
0.0001081795
0.0001079791
0.0001077137
0.0001072872
0.0001592518
0.0001085185
0.0001083523
0.0001081815
0.0001079896
0.0001077645
0.0001609783
0.0001593874
0.0001086566
0.0001084985
0.0001083406
0.0001081755
0.0001080143
0.0001616506
0.0001610294
0.0001596209
0.0001087787
0.000108626
0.0001084741
0.0001083194
0.0001081775
0.0001619861
0.0001616298
0.0001610854
0.0001599101
0.0001088903
0.0001087421
0.0001085944
0.0001084444
0.0001083078
0.0001622098
0.0001619288
0.0001615998
0.0001611309
0.0001602185
0.0001089921
0.000108848
0.0001087035
0.0001085563
0.0001084205
0.0001623875
0.000162127
0.000161851
0.0001615376
0.0001611326
0.0003907912
0.0001091033
0.0001089641
0.000108824
0.0001086806
0.0001085465
0.000162583
0.0001623319
0.0001620723
0.0001617976
0.0001614978
0.0003924115
0.0003913063
0.0001092189
0.0001090852
0.00010895
0.0001088112
0.0001086799
0.0001627898
0.0001625461
0.0001622951
0.0001620335
0.0001617608
0.0003932002
0.0003924568
0.0003916544
0.0001093375
0.0001092095
0.0001090798
0.0001089463
0.0001088189
0.0001630062
0.0001627708
0.000162528
0.0001622756
0.0001620147
0.0003938601
0.0003932078
0.0003925527
0.0003918738
0.0001094558
0.0001093338
0.0001092099
0.000109082
0.0001089592
0.0001632253
0.0001629989
0.0001627649
0.0001625214
0.0001622701
0.000394501
0.000393881
0.0003932761
0.0003926436
0.0003920414
0.0001067025
0.0001072468
0.0001065588
0.0001076325
0.0001072335
0.0001063914
0.0001079285
0.0001076578
0.0001072301
0.0001062534
0.0001081641
0.0001079535
0.000107686
0.0001072342
0.0001062118
0.0001083608
0.0001081795
0.0001079791
0.0001077137
0.0001072872
0.0001592518
0.0001085297
0.0001083638
0.0001081927
0.0001079988
0.0001077675
0.0001609542
0.0001592791
0.0001086782
0.0001085209
0.0001083635
0.0001081979
0.0001080335
0.0001616621
0.0001609882
0.0001594189
0.00010881
0.0001086587
0.0001085083
0.0001083547
0.0001082127
0.0001620332
0.0001616554
0.000161043
0.0001596479
0.0001089272
0.0001087806
0.0001086347
0.0001084866
0.0001083518
0.0001622761
0.0001619895
0.0001616384
0.0001610971
0.0001599371
0.0001090341
0.0001088921
0.0001087501
0.0001086056
0.000108473
0.0001624707
0.0001622131
0.0001619359
0.0001616078
0.0001611448
0.0003903023
0.0001091317
0.0001089939
0.0001088553
0.0001087138
0.0001085819
0.0001626391
0.0001623909
0.0001621335
0.000161858
0.0001615481
0.0003924327
0.0003910001
0.0001092377
0.0001091049
0.0001089708
0.0001088332
0.0001087035
0.0001628274
0.0001625862
0.0001623378
0.0001620785
0.0001618065
0.0003932975
0.0003925008
0.0003915524
0.0001093478
0.0001092203
0.0001090912
0.0001089583
0.0001088318
0.0001630267
0.0001627926
0.0001625513
0.0001623005
0.0001620412
0.0003939243
0.0003932627
0.0003925848
0.0003918507
0.0001094604
0.0001093386
0.000109215
0.0001090874
0.000108965
0.0001632345
0.0001630086
0.0001627753
0.0001625326
0.0001622821
0.0003945313
0.0003939101
0.0003933024
0.0003926633
0.0003920488
0.0001095727
0.0001094568
0.0001093387
0.0001092167
0.0001090991
0.0001634443
0.0001632274
0.0001630028
0.0001627688
0.000162527
0.000395143
0.0003945396
0.0003939559
0.0003933576
0.0003927544
0.0001068204
0.000107241
0.0001067203
0.0001076052
0.0001072588
0.0001065979
0.0001078961
0.0001076407
0.0001072611
0.00010644
0.0001081412
0.0001079342
0.0001076785
0.0001072632
0.000106351
0.0001083492
0.0001081682
0.0001079698
0.0001077108
0.0001073035
0.0001593612
0.0001085297
0.0001083638
0.0001081927
0.0001079988
0.0001077675
0.0001609542
0.0001592791
0.000108689
0.0001085321
0.000108375
0.0001082091
0.0001080427
0.0001616666
0.0001609644
0.0001593118
0.0001088305
0.0001086801
0.0001085306
0.0001083775
0.0001082351
0.0001620617
0.0001616669
0.0001610023
0.0001594481
0.0001089568
0.0001088117
0.0001086672
0.0001085206
0.000108387
0.0001623285
0.000162036
0.0001616637
0.000161055
0.0001596777
0.0001090692
0.0001089287
0.0001087883
0.0001086457
0.0001085151
0.0001625361
0.0001622785
0.0001619958
0.0001616457
0.0001611109
0.0003896459
0.0001091715
0.0001090356
0.0001088992
0.0001087601
0.0001086312
0.0001627173
0.0001624732
0.0001622188
0.0001619419
0.0001616176
0.0003924554
0.0003905281
0.0001092648
0.0001091331
0.0001090004
0.0001088645
0.0001087367
0.0001628801
0.0001626417
0.0001623963
0.0001621391
0.0001618663
0.0003934124
0.0003925167
0.0003912943
0.0001093656
0.000109239
0.0001091109
0.0001089791
0.000108854
0.0001630619
0.00016283
0.0001625911
0.0001623429
0.0001620858
0.0003940311
0.0003933519
0.0003926333
0.0003918011
0.0001094702
0.0001093489
0.0001092257
0.0001090988
0.0001089771
0.0001632537
0.000163029
0.000162797
0.0001625558
0.0001623069
0.0003945934
0.0003939685
0.000393353
0.0003926983
0.0003920569
0.0001095771
0.0001094614
0.0001093436
0.0001092218
0.0001091045
0.0001634529
0.0001632365
0.0001630125
0.0001627792
0.0001625381
0.0003951712
0.0003945674
0.0003939824
0.0003933818
0.0003927755
0.0001096836
0.0001095735
0.0001094613
0.000109345
0.0001092325
0.0001636534
0.0001634459
0.0001632307
0.0001630061
0.0001627735
0.0003957592
0.0003951698
0.0003945974
0.0003940175
0.0003934389
0.0001068845
0.0001072377
0.0001068365
0.0001075563
0.0001072531
0.000106756
0.0001078534
0.0001076138
0.0001072858
0.000106643
0.000108105
0.0001079021
0.0001076614
0.0001072935
0.0001065337
0.0001083259
0.0001081455
0.0001079505
0.0001077033
0.0001073317
0.0001595676
0.0001085185
0.0001083523
0.0001081815
0.0001079896
0.0001077645
0.0001609783
0.0001593874
0.000108689
0.0001085321
0.000108375
0.0001082091
0.0001080427
0.0001616666
0.0001609644
0.0001593118
0.0001088408
0.0001086908
0.0001085417
0.0001083889
0.0001082462
0.0001620755
0.0001616713
0.0001609788
0.0001593421
0.0001089764
0.000108832
0.0001086885
0.0001085427
0.0001084097
0.0001623619
0.0001620643
0.0001616751
0.0001610147
0.0001594799
0.0001090974
0.0001089581
0.0001088192
0.000108678
0.0001085489
0.0001625883
0.0001623304
0.0001620418
0.0001616707
0.0001610692
0.0003890437
0.0001092049
0.0001090704
0.0001089355
0.0001087981
0.0001086711
0.0001627798
0.0001625378
0.0001622834
0.0001620009
0.0001616548
0.000392371
0.0003898896
0.0001093026
0.0001091727
0.0001090419
0.0001089081
0.000108783
0.0001629534
0.0001627192
0.0001624778
0.0001622235
0.0001619495
0.0003935697
0.0003925292
0.0003908291
0.0001093915
0.0001092659
0.000109139
0.0001090087
0.0001088852
0.0001631114
0.0001628822
0.0001626462
0.0001624008
0.0001621458
0.0003941681
0.0003934524
0.0003926505
0.0003916121
0.0001094873
0.0001093667
0.0001092444
0.0001091184
0.000108998
0.0001632868
0.000163064
0.0001628342
0.0001625954
0.000162349
0.0003946976
0.0003940655
0.0003934362
0.0003927543
0.0003920729
0.0001095865
0.0001094712
0.0001093538
0.0001092326
0.000109116
0.000163471
0.0001632556
0.0001630328
0.0001628008
0.0001625612
0.0003952294
0.0003946236
0.000394035
0.0003934281
0.0003928142
0.0001096878
0.0001095779
0.0001094659
0.0001093499
0.0001092376
0.0001636616
0.0001634545
0.0001632398
0.0001630158
0.0001627838
0.0003957853
0.0003951956
0.0003946223
0.000394041
0.0003934611
0.0001097886
0.0001096843
0.0001095776
0.000109467
0.0001093596
0.000163853
0.0001636548
0.0001634488
0.0001632335
0.0001630101
0.0003963518
0.0003957761
0.0003952133
0.0003946431
0.0003940783
0.0001069188
0.000107229
0.0001068996
0.0001075222
0.0001072497
0.0001068697
0.0001077941
0.0001075654
0.0001072795
0.0001067975
0.0001080589
0.0001078599
0.0001076346
0.0001073176
0.0001067314
0.0001082897
0.0001081096
0.0001079186
0.0001076862
0.0001073608
0.0001598383
0.0001084959
0.0001083292
0.0001081589
0.0001079704
0.0001077568
0.00016102
0.0001595916
0.0001086782
0.0001085209
0.0001083635
0.0001081979
0.0001080335
0.0001616621
0.0001609882
0.0001594189
0.0001088408
0.0001086908
0.0001085417
0.0001083889
0.0001082462
0.0001620755
0.0001616713
0.0001609788
0.0001593421
0.0001089862
0.0001088423
0.0001086992
0.0001085538
0.000108421
0.0001623784
0.000162078
0.0001616795
0.0001609915
0.000159375
0.000109116
0.0001089776
0.0001088395
0.0001086992
0.000108571
0.0001626221
0.0001623634
0.0001620698
0.0001616819
0.0001610293
0.000388585
0.0001092319
0.0001090984
0.0001089648
0.0001088288
0.0001087033
0.0001628301
0.0001625895
0.0001623347
0.0001620464
0.0001616794
0.0003922726
0.0003893169
0.0001093346
0.0001092059
0.0001090765
0.0001089442
0.0001088209
0.0001630128
0.0001627811
0.0001625417
0.0001622873
0.0001620076
0.0003936515
0.0003924324
0.000390183
0.0001094276
0.0001093036
0.0001091784
0.00010905
0.0001089289
0.0001631804
0.0001629549
0.000162723
0.0001624816
0.0001622295
0.0003943582
0.000393595
0.0003926617
0.0003911109
0.000109512
0.0001093924
0.0001092712
0.0001091465
0.0001090276
0.0001633334
0.0001631131
0.0001628859
0.0001626499
0.0001624064
0.0003948354
0.0003941865
0.0003935255
0.0003927796
0.0003920001
0.0001096029
0.0001094882
0.0001093716
0.0001092513
0.0001091357
0.0001635021
0.0001632885
0.0001630675
0.0001628377
0.0001626005
0.0003953276
0.0003947179
0.0003941228
0.0003935057
0.0003928821
0.0001096968
0.0001095873
0.0001094757
0.0001093601
0.0001092485
0.0001636787
0.0001634725
0.0001632588
0.0001630359
0.0001628053
0.0003958395
0.0003952483
0.0003946724
0.0003940871
0.0003935031
0.0001097926
0.0001096885
0.000109582
0.0001094717
0.0001093644
0.0001638607
0.0001636629
0.0001634573
0.0001632425
0.0001630197
0.0003963761
0.0003958
0.0003952364
0.0003946649
0.0003940988
0.0001098879
0.0001097891
0.000109688
0.0001095829
0.0001094805
0.0001640432
0.0001638541
0.0001636572
0.0001634511
0.0001632369
0.0003969214
0.0003963605
0.0003958078
0.0003952461
0.000394688
0.0001069326
0.0001072233
0.0001069333
0.0001074954
0.0001072408
0.000106931
0.0001077525
0.0001075316
0.0001072756
0.0001069083
0.0001079992
0.0001078013
0.0001075864
0.0001073107
0.0001068798
0.0001082444
0.000108064
0.0001078768
0.0001076595
0.0001073834
0.0001601312
0.0001084612
0.0001082934
0.0001081233
0.0001079387
0.0001077393
0.0001610631
0.0001598594
0.0001086566
0.0001084985
0.0001083406
0.0001081755
0.0001080143
0.0001616506
0.0001610294
0.0001596209
0.0001088305
0.0001086801
0.0001085306
0.0001083775
0.0001082351
0.0001620617
0.0001616669
0.0001610023
0.0001594481
0.0001089862
0.0001088423
0.0001086992
0.0001085538
0.000108421
0.0001623784
0.000162078
0.0001616795
0.0001609915
0.000159375
0.0001091254
0.0001089873
0.0001088496
0.0001087098
0.000108582
0.000162639
0.0001623797
0.0001620833
0.0001616864
0.0001610064
0.0003883419
0.0001092497
0.000109117
0.0001089841
0.0001088489
0.0001087244
0.000162863
0.000162623
0.0001623674
0.0001620741
0.0001616905
0.0003921804
0.0003888853
0.0001093604
0.0001092327
0.0001091044
0.0001089734
0.0001088514
0.0001630607
0.0001628309
0.0001625929
0.000162338
0.0001620525
0.0003937069
0.0003923323
0.0003896231
0.0001094582
0.0001093353
0.0001092114
0.0001090843
0.0001089649
0.0001632367
0.0001630137
0.0001627843
0.0001625447
0.0001622925
0.0003944897
0.0003936581
0.0003925459
0.0003904333
0.0001095466
0.0001094283
0.0001093087
0.0001091857
0.0001090689
0.0001633985
0.0001631815
0.0001629581
0.0001627261
0.0001624865
0.0003950278
0.0003943624
0.0003936656
0.0003927797
0.0003914563
0.0001096266
0.0001095128
0.0001093972
0.000109278
0.0001091638
0.0001635463
0.0001633347
0.0001631162
0.000162889
0.0001626545
0.0003954598
0.0003948404
0.0003942295
0.0003935854
0.0003929303
0.0001097125
0.0001096036
0.0001094927
0.0001093779
0.0001092672
0.0001637081
0.0001635035
0.0001632914
0.0001630705
0.000162842
0.0003959312
0.0003953371
0.0003947569
0.0003941653
0.0003935763
0.0001098013
0.0001096975
0.0001095914
0.0001094814
0.0001093748
0.0001638769
0.0001636799
0.0001634752
0.0001632614
0.0001630398
0.0003964265
0.0003958489
0.000395283
0.0003947081
0.0003941382
0.0001098918
0.0001097932
0.0001096922
0.0001095874
0.0001094852
0.0001640505
0.0001638618
0.0001636653
0.0001634596
0.0001632459
0.0003969441
0.0003963826
0.0003958291
0.0003952661
0.0003947065
0.0001099817
0.0001098883
0.0001097926
0.0001096929
0.0001095955
0.0001642243
0.0001640441
0.0001638562
0.0001636592
0.0001634541
0.0003974683
0.0003969232
0.0003963824
0.0003958298
0.000395278
0.0001072197
0.0001069469
0.0001074797
0.0001072349
0.0001069637
0.0001077219
0.0001075048
0.0001072661
0.0001069677
0.0001079571
0.00010776
0.0001075525
0.0001073059
0.0001069856
0.0001081873
0.000108005
0.0001078186
0.0001076113
0.0001073744
0.0001603505
0.0001084178
0.0001082485
0.0001080782
0.0001078972
0.0001077121
0.0001610967
0.0001601494
0.0001086237
0.0001084641
0.000108305
0.0001081401
0.0001079826
0.0001616245
0.0001610722
0.0001598859
0.00010881
0.0001086587
0.0001085083
0.0001083547
0.0001082127
0.0001620332
0.0001616554
0.000161043
0.0001596479
0.0001089764
0.000108832
0.0001086885
0.0001085427
0.0001084097
0.0001623619
0.0001620643
0.0001616751
0.0001610147
0.0001594799
0.0001091254
0.0001089873
0.0001088496
0.0001087098
0.000108582
0.000162639
0.0001623797
0.0001620833
0.0001616864
0.0001610064
0.0003883419
0.0001092586
0.0001091263
0.0001089938
0.000108859
0.0001087349
0.0001628794
0.0001626398
0.0001623836
0.0001620876
0.000161695
0.0003921278
0.0003886578
0.0001093774
0.0001092504
0.0001091228
0.0001089926
0.0001088715
0.0001630921
0.0001628635
0.0001626261
0.0001623704
0.00016208
0.0003937326
0.0003922435
0.0003892096
0.000109483
0.000109361
0.000109238
0.0001091121
0.0001089939
0.0001632822
0.0001630612
0.0001628336
0.0001625954
0.0001623427
0.0003945926
0.000393703
0.0003924392
0.0003898736
0.000109576
0.0001094588
0.0001093403
0.0001092185
0.0001091031
0.000163452
0.0001632373
0.0001630163
0.0001627867
0.0001625489
0.0003951714
0.0003944751
0.0003937084
0.0003926405
0.0003907047
0.0001096597
0.0001095471
0.000109433
0.0001093153
0.000109203
0.0001636078
0.0001633993
0.0001631841
0.0001629606
0.0001627301
0.0003956448
0.0003950204
0.0003944037
0.0003937226
0.0003929505
0.00108143
0.0001097353
0.0001096272
0.0001095172
0.0001094034
0.0001092939
0.00016375
0.0001635473
0.0001633374
0.0001631187
0.0001628928
0.000396056
0.0003954552
0.0003948649
0.0003942573
0.0003936502
0.0001098164
0.0001097131
0.0001096077
0.0001094984
0.0001093926
0.0001639049
0.0001637092
0.000163506
0.0001632939
0.0001630741
0.0003965121
0.0003959319
0.0003953623
0.0003947818
0.0003942067
0.0001099001
0.0001098018
0.0001097012
0.0001095967
0.000109495
0.0001640659
0.0001638779
0.0001636822
0.0001634774
0.0001632647
0.0003969911
0.0003964282
0.0003958723
0.0003953059
0.0003947423
0.0001099854
0.0001098922
0.0001097966
0.0001096971
0.0001095999
0.0001642312
0.0001640514
0.0001638638
0.0001636672
0.0001634625
0.0003974895
0.0003969438
0.0003964021
0.0003958482
0.0003952948
0.00011007
0.000109982
0.0001098915
0.0001097971
0.0001097046
0.0001643964
0.000164225
0.0001640459
0.0001638579
0.0001636618
0.0003979926
0.0003974644
0.0003969369
0.0003963954
0.000395851
0.0001074719
0.0001072313
0.0001069768
0.0001077041
0.0001074891
0.0001072598
0.0001069992
0.0001079268
0.0001077295
0.0001075255
0.0001072957
0.0001070414
0.0001081469
0.0001079632
0.0001077773
0.0001075771
0.0001073677
0.0001605067
0.0001083641
0.000108192
0.0001080195
0.0001078392
0.0001076631
0.0001610833
0.0001603664
0.0001085826
0.0001084211
0.0001082605
0.0001080953
0.000107941
0.0001615844
0.0001611059
0.0001601728
0.0001087787
0.000108626
0.0001084741
0.0001083194
0.0001081775
0.0001619861
0.0001616298
0.0001610854
0.0001599101
0.0001089568
0.0001088117
0.0001086672
0.0001085206
0.000108387
0.0001623285
0.000162036
0.0001616637
0.000161055
0.0001596777
0.000109116
0.0001089776
0.0001088395
0.0001086992
0.000108571
0.0001626221
0.0001623634
0.0001620698
0.0001616819
0.0001610293
0.000388585
0.0001092586
0.0001091263
0.0001089938
0.000108859
0.0001087349
0.0001628794
0.0001626398
0.0001623836
0.0001620876
0.000161695
0.0003921278
0.0003886578
0.000109386
0.0001092593
0.0001091321
0.0001090022
0.0001088816
0.0001631078
0.0001628798
0.0001626427
0.0001623865
0.0001620933
0.0003937432
0.0003921941
0.0003889934
0.0001094994
0.000109378
0.0001092557
0.0001091305
0.000109013
0.0001633121
0.0001630924
0.0001628659
0.0001626284
0.0001623748
0.000394656
0.0003937239
0.0003923508
0.0003894706
0.0001095998
0.0001094834
0.0001093658
0.000109245
0.0001091308
0.0001634953
0.0001632825
0.0001630634
0.0001628356
0.0001625991
0.0003952871
0.0003945656
0.000393741
0.0003925247
0.0003901212
0.000109688
0.0001095764
0.0001094633
0.0001093467
0.0001092357
0.0001636589
0.0001634524
0.0001632395
0.0001630183
0.0001627901
0.000395788
0.0003951473
0.0003944979
0.0003937452
0.0003927672
0.001078107
0.0001097671
0.0001096601
0.0001095514
0.000109439
0.0001093312
0.0001638085
0.0001636084
0.0001634015
0.0001631862
0.000162964
0.0003962314
0.0003956302
0.0003950448
0.0003944329
0.0003938219
0.00108616
0.001082437
0.0001098383
0.0001097358
0.0001096312
0.0001095228
0.0001094181
0.0001639448
0.0001637508
0.0001635495
0.0001633394
0.0001631219
0.0003966298
0.0003960441
0.0003954667
0.0003948741
0.0003942833
0.0001099146
0.0001098168
0.0001097168
0.0001096129
0.000109512
0.0001640926
0.0001639057
0.0001637113
0.000163508
0.0001632969
0.0003970712
0.0003965057
0.0003959461
0.0003953743
0.0003948048
0.0001099934
0.0001099005
0.0001098052
0.0001097061
0.0001096093
0.0001642459
0.0001640667
0.0001638799
0.0001636841
0.0001634802
0.0003975336
0.0003969864
0.0003964422
0.0003958848
0.0003953273
0.0001100736
0.0001099857
0.0001098954
0.0001098012
0.0001097089
0.0001644031
0.0001642319
0.0001640531
0.0001638655
0.0001636697
0.0003980125
0.0003974837
0.0003969552
0.0003964123
0.0003958662
0.0001101531
0.0001100703
0.0001099849
0.0001098957
0.0001098081
0.0001645599
0.000164397
0.0001642266
0.0001640473
0.0001638601
0.0003984945
0.000397984
0.0003974713
0.0003969425
0.0003964077
0.0001076956
0.0001074812
0.0001072559
0.0001070117
0.0001079093
0.0001077117
0.0001075095
0.0001072889
0.0001070706
0.0001081182
0.000107933
0.0001077467
0.0001075498
0.0001073558
0.0001605886
0.0001083261
0.0001081519
0.0001079778
0.0001077979
0.0001076279
0.0001610731
0.0001605208
0.0001085323
0.000108368
0.0001082044
0.0001080369
0.0001078826
0.0001615115
0.000161093
0.0001603872
0.0001087399
0.0001085853
0.0001084315
0.0001082753
0.0001081328
0.0001619245
0.0001615904
0.0001611192
0.0001601942
0.0001089272
0.0001087806
0.0001086347
0.0001084866
0.0001083518
0.0001622761
0.0001619895
0.0001616384
0.0001610971
0.0001599371
0.0001090974
0.0001089581
0.0001088192
0.000108678
0.0001085489
0.0001625883
0.0001623304
0.0001620418
0.0001616707
0.0001610692
0.0003890437
0.0001092497
0.000109117
0.0001089841
0.0001088489
0.0001087244
0.000162863
0.000162623
0.0001623674
0.0001620741
0.0001616905
0.0003921804
0.0003888853
0.000109386
0.0001092593
0.0001091321
0.0001090022
0.0001088816
0.0001631078
0.0001628798
0.0001626427
0.0001623865
0.0001620933
0.0003937432
0.0003921941
0.0003889934
0.0001095076
0.0001093865
0.0001092645
0.0001091397
0.0001090226
0.0001633271
0.000163108
0.0001628821
0.0001626449
0.0001623907
0.0003946871
0.0003937329
0.0003923028
0.0003892623
0.0001096156
0.0001094997
0.0001093827
0.0001092626
0.0001091491
0.0001635239
0.0001633122
0.0001630943
0.0001628676
0.0001626318
0.0003953615
0.000394622
0.0003937562
0.0003924348
0.0003897204
0.0001097109
0.0001096001
0.0001094878
0.0001093722
0.0001092621
0.0001637001
0.0001634954
0.0001632843
0.000163065
0.0001628386
0.0003959042
0.000395251
0.0003945755
0.0003937657
0.000392629
0.001075812
0.0001097944
0.0001096883
0.0001095805
0.0001094692
0.0001093626
0.0001638573
0.0001636591
0.0001634542
0.000163241
0.0001630211
0.0003963698
0.0003957589
0.0003951557
0.0003945103
0.0003938105
0.001085323
0.001079466
0.0001098689
0.0001097674
0.000109664
0.0001095569
0.0001094537
0.0001640005
0.0001638089
0.0001636103
0.0001634032
0.000163189
0.0003967955
0.0003962116
0.0003956432
0.0003950586
0.0003944978
0.001089121
0.001086536
0.001083018
0.0001099358
0.0001098387
0.0001097394
0.0001096364
0.0001095365
0.0001641307
0.0001639453
0.0001637526
0.0001635512
0.0001633421
0.0003971823
0.0003966121
0.0003960458
0.0003954633
0.0003948783
0.0001100074
0.000109915
0.0001098202
0.0001097217
0.0001096256
0.0001642713
0.0001640931
0.0001639075
0.000163713
0.0001635106
0.0003976089
0.000397059
0.0003965111
0.0003959482
0.000395384
0.0001100814
0.0001099937
0.0001099037
0.0001098098
0.0001097179
0.0001644171
0.0001642465
0.0001640684
0.0001638814
0.0001636865
0.000398054
0.0003975236
0.0003969926
0.0003964462
0.0003958958
0.0001101566
0.0001100739
0.0001099887
0.0001098996
0.0001098122
0.0001645662
0.0001644036
0.0001642334
0.0001640545
0.0001638676
0.0003985132
0.0003980021
0.0003974884
0.0003969582
0.0003964216
0.0001102312
0.0001101533
0.000110073
0.0001099889
0.000109906
0.0001647148
0.0001645603
0.0001643983
0.0001642278
0.0001640492
0.0003989742
0.0003984821
0.0003979853
0.0003974708
0.0003969474
0.0001079009
0.0001077031
0.0001075015
0.0001072847
0.000107082
0.0001081016
0.0001079155
0.0001077288
0.0001075335
0.0001073479
0.0001606315
0.0001082992
0.0001081233
0.0001079476
0.0001077671
0.0001075996
0.0001610549
0.0001606016
0.0001084965
0.0001083302
0.0001081645
0.0001079953
0.0001078407
0.000161459
0.000161083
0.0001605396
0.0001086927
0.0001085354
0.0001083787
0.0001082194
0.0001080742
0.0001618376
0.0001615185
0.0001611066
0.0001604062
0.0001088903
0.0001087421
0.0001085944
0.0001084444
0.0001083078
0.0001622098
0.0001619288
0.0001615998
0.0001611309
0.0001602185
0.0001090692
0.0001089287
0.0001087883
0.0001086457
0.0001085151
0.0001625361
0.0001622785
0.0001619958
0.0001616457
0.0001611109
0.0003896459
0.0001092319
0.0001090984
0.0001089648
0.0001088288
0.0001087033
0.0001628301
0.0001625895
0.0001623347
0.0001620464
0.0001616794
0.0003922726
0.0003893169
0.0001093774
0.0001092504
0.0001091228
0.0001089926
0.0001088715
0.0001630921
0.0001628635
0.0001626261