/*--------------------------------*- C++ -*----------------------------------*\
| =========                 |                                                 |
| \\      /  F ield         | OpenFOAM: The Open Source CFD Toolbox           |
|  \\    /   O peration     | Version:  2306                                  |
|   \\  /    A nd           | Website:  www.openfoam.com                      |
|    \\/     M anipulation  |                                                 |
\*---------------------------------------------------------------------------*/
FoamFile
{
    version     2.0;
    format      ascii;
    arch        "LSB;label=32;scalar=64";
    class       volScalarField;
    location    "1.5/fuel";
    object      eta.fuel;
}
// * * * * * * * * * * * * * * * * * * * * * * * * * * * * * * * * * * * * * //

dimensions      [1 2 -3 0 0 -1 0];

internalField   nonuniform List<scalar> 
16000
(
0.1150624
0.1156685
0.109737
0.1114799
0.1168729
0.1101588
0.1120565
0.1053107
0.1064406
0.1089069
0.1186417
0.1109787
0.113202
0.1056487
0.1068429
0.109464
0.101818
0.1022603
0.1040565
0.1073122
0.1208452
0.1121374
0.1148837
0.1062987
0.1076245
0.1105708
0.1021048
0.1025831
0.1044454
0.1078593
0.0989451
0.09896713
0.1000431
0.1025579
0.1066771
0.1231045
0.1134954
0.1169776
0.1071998
0.1087285
0.1121964
0.1026524
0.1032038
0.1052008
0.1089468
0.09919628
0.09924143
0.1003554
0.1029391
0.1072234
0.09648344
0.09626159
0.09688811
0.09863597
0.1019282
0
0.1246423
0.1147759
0.1191239
0.108222
0.1100211
0.1142221
0.1034016
0.1040636
0.1062676
0.1105459
0.09967335
0.0997649
0.1009555
0.1036798
0.1083103
0.09670794
0.09650211
0.09715353
0.09894189
0.1023074
0
0.09432079
0.09394488
0.09429989
0.09556024
0.09802413
0
0
0.1255052
0.1155662
0.1205777
0.1091375
0.1112384
0.1163016
0.1042319
0.1050376
0.1075162
0.1125429
0.1003195
0.1004805
0.1017864
0.1047261
0.1099118
0.09713252
0.09695862
0.09765986
0.09952975
0.1030445
0
0.09452453
0.09416007
0.09453276
0.09582023
0.09832789
0
0
0.09238101
0.09191024
0.09208571
0.09304142
0.09497048
0
0
0
0.1259341
0.115958
0.1213889
0.1096584
0.1119859
0.1177062
0.1049464
0.1059083
0.1086918
0.1145998
0.1010227
0.1012722
0.102727
0.1059514
0.1119189
0.09770297
0.09757639
0.09835163
0.1003438
0.1040866
0
0.09490847
0.09456674
0.09497456
0.09631613
0.0989117
0
0
0.09256797
0.0921057
0.09229418
0.09326954
0.09522841
0
0
0
0.09061589
0.09008524
0.09014221
0.09088909
0.0924744
0
0
0
0
0.1261078
0.1161254
0.1217895
0.1098805
0.1123543
0.118488
0.1053253
0.1064007
0.1094108
0.1159886
0.101608
0.1019518
0.1035666
0.1071059
0.1139967
0.09831437
0.09824729
0.09911605
0.1012649
0.1053086
0
0.09542085
0.09511255
0.09557199
0.09699344
0.09972034
0
0
0.09291925
0.09247379
0.09268796
0.09370224
0.09572039
0
0
0
0.09078898
0.09026477
0.09033169
0.09109336
0.09270062
0
0
0
0
0.08898954
0.08842412
0.08839937
0.08900137
0.09034435
0
0
0
0
0
0.1261078
0.1161841
0.1219508
0.1099511
0.1125105
0.1188732
0.1054614
0.1066088
0.1097639
0.1167623
0.1018988
0.1023093
0.1040388
0.1078099
0.1154023
0.09880861
0.09880383
0.09977074
0.1020867
0.1064622
0
0.09596292
0.09569622
0.0962198
0.09774136
0.1006358
0
0
0.09338531
0.09296444
0.09321606
0.09428711
0.09639238
0
0
0
0.0911134
0.09060184
0.09068833
0.0914791
0.09312968
0
0
0
0
0.08915094
0.08859049
0.08857351
0.08918709
0.09054686
0
0
0
0
0
0.08747645
0.08689284
0.086813
0.08730934
0.08847796
0
0
0
0
0
0
0.1259341
0.1161841
0.1219508
0.1099659
0.1125647
0.119028
0.1054847
0.1066737
0.1099129
0.1171444
0.101984
0.1024358
0.1042369
0.1081553
0.116189
0.09903937
0.09907774
0.1001127
0.1025466
0.1071645
0
0.09638986
0.09616614
0.09675562
0.09838089
0.1014527
0
0
0.0938728
0.09348224
0.09377976
0.09492065
0.09713433
0
0
0
0.09154164
0.0910485
0.0911633
0.09199612
0.09370957
0
0
0
0
0.08945278
0.08890206
0.0889003
0.08953653
0.09092926
0
0
0
0
0
0.08762785
0.08704811
0.08697449
0.08748008
0.08866207
0
0
0
0
0
0
0.08605688
0.08546725
0.08535029
0.0857696
0.08680619
0
0
0
0
0
0
0
0.1255052
0.1161254
0.1217895
0.1099659
0.1125647
0.119028
0.1054784
0.1066866
0.1099646
0.1172984
0.1019805
0.1024557
0.1042977
0.1083013
0.1165802
0.09909122
0.09915578
0.1002318
0.1027384
0.1075097
0
0.09657749
0.09638299
0.09701685
0.09871255
0.1019079
0
0
0.09424775
0.09388815
0.09423196
0.09544341
0.09776816
0
0
0
0.09198504
0.09151445
0.09166354
0.09254731
0.09433742
0
0
0
0
0.0898494
0.08931279
0.08933292
0.09000163
0.09144171
0
0
0
0
0
0.08791044
0.08733824
0.08727674
0.08780037
0.08900844
0
0
0
0
0
0
0.0861996
0.08561301
0.08550109
0.08592798
0.08697546
0
0
0
0
0
0
0
0.0847156
0.08412863
0.08398797
0.08434993
0.08528563
0
0
0
0
0
0
0
0
0.1246423
0.115958
0.1213889
0.1099511
0.1125105
0.1188732
0.1054784
0.1066866
0.1099646
0.1172984
0.1019627
0.1024486
0.1043093
0.108352
0.1167388
0.09907097
0.09915011
0.1002491
0.1027968
0.1076565
0
0.09660636
0.09642933
0.0970893
0.09882671
0.1020972
0
0
0.09440289
0.09406404
0.09443825
0.09569599
0.09809479
0
0
0
0.09231872
0.09187095
0.09205404
0.09298815
0.09485461
0
0
0
0
0.09025634
0.08973688
0.08978324
0.09049077
0.09198765
0
0
0
0
0
0.08828024
0.08771896
0.08767478
0.08822411
0.08946936
0
0
0
0
0
0
0.08646555
0.08588486
0.08578273
0.08622432
0.08729294
0
0
0
0
0
0
0
0.08485071
0.08426615
0.08412963
0.0844979
0.08544266
0
0
0
0
0
0
0
0
0.08344062
0.08286261
0.08270805
0.08302756
0.08388411
0
0
0
0
0
0
0
0
0
0.1231045
0.1155662
0.1205777
0.1098805
0.1123543
0.118488
0.1054847
0.1066737
0.1099129
0.1171444
0.1019627
0.1024486
0.1043093
0.108352
0.1167388
0.09904625
0.09913198
0.1002413
0.1028077
0.1077079
0
0.09657513
0.09640772
0.09708186
0.09884208
0.1021547
0
0
0.09441509
0.09408852
0.09448016
0.09576433
0.09820608
0
0
0
0.09244869
0.092016
0.09222093
0.09318704
0.09510245
0
0
0
0
0.09055643
0.09005417
0.09012615
0.09087126
0.0924233
0
0
0
0
0
0.08865653
0.08810843
0.08808482
0.08866451
0.08995371
0
0
0
0
0
0
0.08681228
0.08624012
0.08615189
0.08661432
0.08771285
0
0
0
0
0
0
0
0.08510212
0.0845222
0.08439368
0.08477412
0.08573642
0
0
0
0
0
0
0
0
0.083569
0.0829929
0.08284178
0.0831666
0.08403082
0
0
0
0
0
0
0
0
0
0.08222237
0.08165788
0.08149672
0.08178486
0.08257889
0
0
0
0
0
0
0
0
0
0
0.1208452
0.1147759
0.1191239
0.1096584
0.1119859
0.1177062
0.1054614
0.1066088
0.1097639
0.1167623
0.1019805
0.1024557
0.1042977
0.1083013
0.1165802
0.09904625
0.09913198
0.1002413
0.1028077
0.1077079
0
0.09654607
0.09638297
0.09706338
0.09883377
0.1021654
0
0
0.0943763
0.09405644
0.09445732
0.09575543
0.09822026
0
0
0
0.09244845
0.09202464
0.09224182
0.09322556
0.09516809
0
0
0
0
0.09066636
0.09017535
0.09026342
0.09103176
0.09261789
0
0
0
0
0
0.08892881
0.08839382
0.08839001
0.08899852
0.09032945
0
0
0
0
0
0
0.08716242
0.08660049
0.08652863
0.0870154
0.08814888
0
0
0
0
0
0
0
0.0854288
0.08485555
0.08473835
0.08513594
0.0861229
0
0
0
0
0
0
0
0
0.08380761
0.08323516
0.08309064
0.08342567
0.08430466
0
0
0
0
0
0
0
0
0
0.08234477
0.08178178
0.0816235
0.08191617
0.08271677
0
0
0
0
0
0
0
0
0
0
0.08105315
0.08050541
0.08034312
0.08060834
0.08135243
0
0
0
0
0
0
0
0
0
0
0.1186417
0.1134954
0.1169776
0.1091375
0.1112384
0.1163016
0.1053253
0.1064007
0.1094108
0.1159886
0.101984
0.1024358
0.1042369
0.1081553
0.116189
0.09907097
0.09915011
0.1002491
0.1027968
0.1076565
0
0.09654607
0.09638297
0.09706338
0.09883377
0.1021654
0
0
0.0943444
0.09402753
0.09443244
0.0957366
0.09821158
0
0
0
0.09240433
0.09198535
0.09220889
0.0932016
0.09515804
0
0
0
0
0.09065658
0.09017217
0.09026909
0.09104981
0.092654
0
0
0
0
0
0.08902251
0.08849601
0.08850438
0.0891302
0.09048609
0
0
0
0
0
0
0.08741133
0.0868595
0.08680316
0.08731262
0.08847856
0
0
0
0
0
0
0
0.08575639
0.08519111
0.08508712
0.08550454
0.08651999
0
0
0
0
0
0
0
0
0.0841167
0.08354947
0.08341425
0.08376361
0.08466325
0
0
0
0
0
0
0
0
0
0.08257203
0.08201187
0.08185908
0.08216043
0.08297364
0
0
0
0
0
0
0
0
0
0
0.08117018
0.08062362
0.08046375
0.08073287
0.08148266
0
0
0
0
0
0
0
0
0
0
0.07992657
0.07939796
0.07923861
0.0794874
0.08019129
0
0
0
0
0
0
0
0
0
0
0.1168729
0.1121374
0.1148837
0.108222
0.1100211
0.1142221
0.1049464
0.1059083
0.1086918
0.1145998
0.1018988
0.1023093
0.1040388
0.1078099
0.1154023
0.09909122
0.09915578
0.1002318
0.1027384
0.1075097
0
0.09657513
0.09640772
0.09708186
0.09884208
0.1021547
0
0
0.0943444
0.09402753
0.09443244
0.0957366
0.09821158
0
0
0
0.09237053
0.09195371
0.09217999
0.09317649
0.09513884
0
0
0
0
0.09060861
0.09012779
0.09022922
0.09101602
0.09262902
0
0
0
0
0
0.08900531
0.08848377
0.08849872
0.08913347
0.09050201
0
0
0
0
0
0
0.08749166
0.0869463
0.08689931
0.08742205
0.08860679
0
0
0
0
0
0
0
0.08598544
0.08542794
0.08533629
0.08577187
0.08681327
0
0
0
0
0
0
0
0
0.08442468
0.08386364
0.08373916
0.08410494
0.08502819
0
0
0
0
0
0
0
0
0
0.08286559
0.08230949
0.08216438
0.08247782
0.08330859
0
0
0
0
0
0
0
0
0
0
0.08138731
0.08084294
0.08068764
0.08096419
0.08172487
0
0
0
0
0
0
0
0
0
0
0.08003878
0.07951108
0.07935378
0.07960594
0.08031482
0
0
0
0
0
0
0
0
0
0
0.07883741
0.07832954
0.07817627
0.07841361
0.07908494
0
0
0
0
0
0
0
0
0
0
0.1156685
0.1109787
0.113202
0.1071998
0.1087285
0.1121964
0.1042319
0.1050376
0.1075162
0.1125429
0.101608
0.1019518
0.1035666
0.1071059
0.1139967
0.09903937
0.09907774
0.1001127
0.1025466
0.1071645
0
0.09660636
0.09642933
0.0970893
0.09882671
0.1020972
0
0
0.0943763
0.09405644
0.09445732
0.09575543
0.09822026
0
0
0
0.09237053
0.09195371
0.09217999
0.09317649
0.09513884
0
0
0
0
0.09057354
0.09009434
0.09019769
0.09098698
0.09260359
0
0
0
0
0
0.08895454
0.08843572
0.08845396
0.08909294
0.09046734
0
0
0
0
0
0
0.0874686
0.08692703
0.08688498
0.08741434
0.0886082
0
0
0
0
0
0
0
0.0860547
0.08550211
0.08541772
0.08586364
0.0869196
0
0
0
0
0
0
0
0
0.0846367
0.08408164
0.08396703
0.08434758
0.08529193
0
0
0
0
0
0
0
0
0
0.08315639
0.08260505
0.08246874
0.08279591
0.08364657
0
0
0
0
0
0
0
0
0
0
0.08166707
0.08112582
0.08097689
0.08126374
0.08203951
0
0
0
0
0
0
0
0
0
0
0.08024682
0.07972078
0.0795673
0.07982586
0.08054424
0
0
0
0
0
0
0
0
0
0
0.07894526
0.07843808
0.07828654
0.07852682
0.07920254
0
0
0
0
0
0
0
0
0
0
0.07778128
0.07729526
0.07715038
0.07738024
0.07802502
0
0
0
0
0
0
0
0
0
0
0.1150624
0.1101588
0.1120565
0.1062987
0.1076245
0.1105708
0.1034016
0.1040636
0.1062676
0.1105459
0.1010227
0.1012722
0.102727
0.1059514
0.1119189
0.09880861
0.09880383
0.09977074
0.1020867
0.1064622
0
0.09657749
0.09638299
0.09701685
0.09871255
0.1019079
0
0
0.09441509
0.09408852
0.09448016
0.09576433
0.09820608
0
0
0
0.09240433
0.09198535
0.09220889
0.0932016
0.09515804
0
0
0
0
0.09057354
0.09009434
0.09019769
0.09098698
0.09260359
0
0
0
0
0
0.08891864
0.08840106
0.08842067
0.08906134
0.09043804
0
0
0
0
0
0
0.08741581
0.08687633
0.0868367
0.08736908
0.08856691
0
0
0
0
0
0
0
0.08602701
0.08547729
0.08539666
0.08584755
0.08691026
0
0
0
0
0
0
0
0
0.08469668
0.08414532
0.08403637
0.08442508
0.08538091
0
0
0
0
0
0
0
0
0
0.08335369
0.08280692
0.08267854
0.08301782
0.08388592
0
0
0
0
0
0
0
0
0
0
0.08194271
0.08140509
0.08126338
0.0815618
0.0823545
0
0
0
0
0
0
0
0
0
0
0.08051425
0.07999056
0.07984239
0.08010976
0.08084122
0
0
0
0
0
0
0
0
0
0
0.0791451
0.07863916
0.07849082
0.07873664
0.07942069
0
0
0
0
0
0
0
0
0
0
0.07788516
0.07739966
0.07725624
0.07748868
0.07813734
0
0
0
0
0
0
0
0
0
0
0.07675451
0.07629102
0.07615628
0.07638173
0.07700481
0
0
0
0
0
0
0
0
0
0
0.109737
0.1114799
0.1056487
0.1068429
0.109464
0.1026524
0.1032038
0.1052008
0.1089468
0.1003195
0.1004805
0.1017864
0.1047261
0.1099118
0.09831437
0.09824729
0.09911605
0.1012649
0.1053086
0
0.09638986
0.09616614
0.09675562
0.09838089
0.1014527
0
0
0.09440289
0.09406404
0.09443825
0.09569599
0.09809479
0
0
0
0.09244845
0.09202464
0.09224182
0.09322556
0.09516809
0
0
0
0
0.09060861
0.09012779
0.09022922
0.09101602
0.09262902
0
0
0
0
0
0.08891864
0.08840106
0.08842067
0.08906134
0.09043804
0
0
0
0
0
0
0.0873794
0.08684086
0.08680225
0.08733578
0.0885351
0
0
0
0
0
0
0
0.08597278
0.08542466
0.08534584
0.08579889
0.08686435
0
0
0
0
0
0
0
0
0.08466531
0.08411613
0.08401001
0.08440249
0.08536337
0
0
0
0
0
0
0
0
0
0.08340585
0.08286184
0.08273786
0.08308362
0.0839609
0
0
0
0
0
0
0
0
0
0
0.08212721
0.08159301
0.08145769
0.08176613
0.0825734
0
0
0
0
0
0
0
0
0
0
0
0.08077643
0.08025545
0.08011322
0.08039041
0.08113642
0
0
0
0
0
0
0
0
0
0
0.07940144
0.07889723
0.07875331
0.07900674
0.0797022
0
0
0
0
0
0
0
0
0
0
0.07807757
0.07759295
0.07745223
0.07768948
0.0783455
0
0
0
0
0
0
0
0
0
0
0.07685477
0.07639164
0.07625815
0.07648587
0.07711242
0
0
0
0
0
0
0
0
0
0
0.07575407
0.07531339
0.07519006
0.07541354
0.07601882
0
0
0
0
0
0
0
0
0
0
0.1053107
0.1064406
0.1089069
0.1021048
0.1025831
0.1044454
0.1078593
0.09967335
0.0997649
0.1009555
0.1036798
0.1083103
0.09770297
0.09757639
0.09835163
0.1003438
0.1040866
0
0.09596292
0.09569622
0.0962198
0.09774136
0.1006358
0
0
0.09424775
0.09388815
0.09423196
0.09544341
0.09776816
0
0
0
0.09244869
0.092016
0.09222093
0.09318704
0.09510245
0
0
0
0
0.09065658
0.09017217
0.09026909
0.09104981
0.092654
0
0
0
0
0
0.08895454
0.08843572
0.08845396
0.08909294
0.09046734
0
0
0
0
0
0
0.0873794
0.08684086
0.08680225
0.08733578
0.0885351
0
0
0
0
0
0
0
0.08593609
0.0853887
0.08531061
0.08576447
0.08683088
0
0
0
0
0
0
0
0
0.08461012
0.08406214
0.08395736
0.08435138
0.08531416
0
0
0
0
0
0
0
0
0
0.08337157
0.08282918
0.08270733
0.08305592
0.08393702
0
0
0
0
0
0
0
0
0
0
0.08217275
0.08164056
0.08150864
0.08182224
0.0826369
0
0
0
0
0
0
0
0
0
0
0
0.08094974
0.08043126
0.08029417
0.08057969
0.08133797
0
0
0
0
0
0
0
0
0
0
0
0
0.07965162
0.07914937
0.07901034
0.07927215
0.0799802
0
0
0
0
0
0
0
0
0
0
0.07832391
0.0778405
0.07770347
0.07794731
0.07861336
0
0
0
0
0
0
0
0
0
0
0.07704044
0.07657788
0.07644666
0.07667859
0.07731166
0
0
0
0
0
0
0
0
0
0
0.075851
0.07541057
0.0752883
0.07551379
0.07612218
0
0
0
0
0
0
0
0
0
0
0.07477709
0.07435956
0.07424848
0.07447189
0.07506257
0
0
0
0
0
0
0
0
0
0
0.101818
0.1022603
0.1040565
0.1073122
0.09919628
0.09924143
0.1003554
0.1029391
0.1072234
0.09713252
0.09695862
0.09765986
0.09952975
0.1030445
0
0.09542085
0.09511255
0.09557199
0.09699344
0.09972034
0
0
0.0938728
0.09348224
0.09377976
0.09492065
0.09713433
0
0
0
0.09231872
0.09187095
0.09205404
0.09298815
0.09485461
0
0
0
0
0.09066636
0.09017535
0.09026342
0.09103176
0.09261789
0
0
0
0
0
0.08900531
0.08848377
0.08849872
0.08913347
0.09050201
0
0
0
0
0
0
0.08741581
0.08687633
0.0868367
0.08736908
0.08856691
0
0
0
0
0
0
0
0.08593609
0.0853887
0.08531061
0.08576447
0.08683088
0
0
0
0
0
0
0
0
0.08457332
0.08402591
0.08392166
0.08431622
0.0852796
0
0
0
0
0
0
0
0
0
0.08331576
0.08277427
0.08265338
0.08300305
0.08388544
0
0
0
0
0
0
0
0
0
0
0.08213617
0.08160516
0.08147481
0.08179053
0.08260805
0
0
0
0
0
0
0
0
0
0
0
0.08098963
0.08047257
0.08033808
0.08062771
0.08139199
0
0
0
0
0
0
0
0
0
0
0
0
0.07981508
0.07931458
0.07917968
0.07944845
0.08016692
0
0
0
0
0
0
0
0
0
0
0
0
0
0.07856334
0.07808127
0.07794826
0.07819929
0.07887631
0
0
0
0
0
0
0
0
0
0
0.07727773
0.07681595
0.07668779
0.07692546
0.0775674
0
0
0
0
0
0
0
0
0
0
0.07603051
0.07559041
0.07547003
0.07569922
0.07631344
0
0
0
0
0
0
0
0
0
0
0.07487096
0.07445358
0.07434341
0.0745686
0.07516208
0
0
0
0
0
0
0
0
0
0
0.07382145
0.07342685
0.07332887
0.07355364
0.07413229
0
0
0
0
0
0
0
0
0
0
0.0989451
0.09896713
0.1000431
0.1025579
0.1066771
0.09670794
0.09650211
0.09715353
0.09894189
0.1023074
0
0.09490847
0.09456674
0.09497456
0.09631613
0.0989117
0
0
0.09338531
0.09296444
0.09321606
0.09428711
0.09639238
0
0
0
0.09198504
0.09151445
0.09166354
0.09254731
0.09433742
0
0
0
0
0.09055643
0.09005417
0.09012615
0.09087126
0.0924233
0
0
0
0
0
0.08902251
0.08849601
0.08850438
0.0891302
0.09048609
0
0
0
0
0
0
0.0874686
0.08692703
0.08688498
0.08741434
0.0886082
0
0
0
0
0
0
0
0.08597278
0.08542466
0.08534584
0.08579889
0.08686435
0
0
0
0
0
0
0
0
0.08457332
0.08402591
0.08392166
0.08431622
0.0852796
0
0
0
0
0
0
0
0
0
0.083279
0.08273794
0.08261743
0.08296744
0.08385016
0
0
0
0
0
0
0
0
0
0
0.08208001
0.08154967
0.08142
0.08173643
0.08255478
0
0
0
0
0
0
0
0
0
0
0
0.08095125
0.08043501
0.08030166
0.08059284
0.08135924
0
0
0
0
0
0
0
0
0
0
0
0
0.07985018
0.07935058
0.07921765
0.07948968
0.08021302
0
0
0
0
0
0
0
0
0
0
0
0
0
0.07871814
0.07823718
0.07810745
0.07836431
0.07905023
0
0
0
0
0
0
0
0
0
0
0
0
0
0
0.07750752
0.07704653
0.07692167
0.07716552
0.07781708
0
0
0
0
0
0
0
0
0
0
0.07625957
0.0758199
0.07570205
0.07593625
0.07655835
0
0
0
0
0
0
0
0
0
0
0.07504483
0.07462757
0.07451899
0.07474743
0.07534613
0
0
0
0
0
0
0
0
0
0
0.07391255
0.07351797
0.07342077
0.07364713
0.07422831
0
0
0
0
0
0
0
0
0
0
0.07288541
0.07251332
0.0724287
0.07265621
0.0732249
0
0
0
0
0
0
0
0
0
0
0.09648344
0.09626159
0.09688811
0.09863597
0.1019282
0
0.09452453
0.09416007
0.09453276
0.09582023
0.09832789
0
0
0.09291925
0.09247379
0.09268796
0.09370224
0.09572039
0
0
0
0.09154164
0.0910485
0.0911633
0.09199612
0.09370957
0
0
0
0
0.09025634
0.08973688
0.08978324
0.09049077
0.09198765
0
0
0
0
0
0.08892881
0.08839382
0.08839001
0.08899852
0.09032945
0
0
0
0
0
0
0.08749166
0.0869463
0.08689931
0.08742205
0.08860679
0
0
0
0
0
0
0
0.08602701
0.08547729
0.08539666
0.08584755
0.08691026
0
0
0
0
0
0
0
0
0.08461012
0.08406214
0.08395736
0.08435138
0.08531416
0
0
0
0
0
0
0
0
0
0.083279
0.08273794
0.08261743
0.08296744
0.08385016
0
0
0
0
0
0
0
0
0
0
0.0820434
0.08151338
0.08138396
0.08170058
0.08251907
0
0
0
0
0
0
0
0
0
0
0
0.08089496
0.08037922
0.08024631
0.08053792
0.08130479
0
0
0
0
0
0
0
0
0
0
0
0
0.07981043
0.07931134
0.07917919
0.07945232
0.08017721
0
0
0
0
0
0
0
0
0
0
0
0
0
0.07874917
0.07826867
0.07814037
0.07839981
0.07908969
0
0
0
0
0
0
0
0
0
0
0
0
0
0
0.07765466
0.07719426
0.07707195
0.07732069
0.07797989
0
0
0
0
0
0
0
0
0
0
0
0
0
0
0
0.07648066
0.07604136
0.07592616
0.07616569
0.07679626
0
0
0
0
0
0
0
0
0
0
0.07526641
0.07484926
0.07474277
0.07497558
0.07558131
0
0
0
0
0
0
0
0
0
0
0.0740813
0.07368661
0.07359072
0.07381996
0.07440583
0
0
0
0
0
0
0
0
0
0
0.07297394
0.0726018
0.0725178
0.07274674
0.07331772
0
0
0
0
0
0
0
0
0
0
0.07196785
0.07161737
0.07154614
0.07177716
0.07233783
0
0
0
0
0
0
0
0
0
0
0.09432079
0.09394488
0.09429989
0.09556024
0.09802413
0
0
0.09256797
0.0921057
0.09229418
0.09326954
0.09522841
0
0
0
0.0911134
0.09060184
0.09068833
0.0914791
0.09312968
0
0
0
0
0.0898494
0.08931279
0.08933292
0.09000163
0.09144171
0
0
0
0
0
0.08865653
0.08810843
0.08808482
0.08866451
0.08995371
0
0
0
0
0
0
0.08741133
0.0868595
0.08680316
0.08731262
0.08847856
0
0
0
0
0
0
0
0.0860547
0.08550211
0.08541772
0.08586364
0.0869196
0
0
0
0
0
0
0
0
0.08466531
0.08411613
0.08401001
0.08440249
0.08536337
0
0
0
0
0
0
0
0
0
0.08331576
0.08277427
0.08265338
0.08300305
0.08388544
0
0
0
0
0
0
0
0
0
0
0.0820434
0.08151338
0.08138396
0.08170058
0.08251907
0
0
0
0
0
0
0
0
0
0
0
0.08085856
0.08034306
0.08021031
0.080502
0.08126887
0
0
0
0
0
0
0
0
0
0
0
0
0.07975422
0.07925544
0.07912356
0.0793969
0.08012198
0
0
0
0
0
0
0
0
0
0
0
0
0
0.07870841
0.07822817
0.07810033
0.07836051
0.07905148
0
0
0
0
0
0
0
0
0
0
0
0
0
0
0.07768223
0.07722195
0.0771006
0.07735133
0.07801375
0
0
0
0
0
0
0
0
0
0
0
0
0
0
0
0.07662099
0.07618186
0.07606862
0.07631221
0.07694936
0
0
0
0
0
0
0
0
0
0
0
0
0
0
0
0
0.07547965
0.07506247
0.07495812
0.07519552
0.07580873
0
0
0
0
0
0
0
0
0
0
0.0742961
0.07390119
0.07380701
0.07404009
0.07463224
0
0
0
0
0
0
0
0
0
0
0.07313801
0.07276558
0.07268261
0.0729141
0.07348932
0
0
0
0
0
0
0
0
0
0
0.07205401
0.07170341
0.07163269
0.07186495
0.07242773
0
0
0
0
0
0
0
0
0
0
0.07106713
0.070738
0.07067969
0.07091472
0.07146868
0
0
0
0
0
0
0
0
0
0
0.09238101
0.09191024
0.09208571
0.09304142
0.09497048
0
0
0
0.09078898
0.09026477
0.09033169
0.09109336
0.09270062
0
0
0
0
0.08945278
0.08890206
0.0889003
0.08953653
0.09092926
0
0
0
0
0
0.08828024
0.08771896
0.08767478
0.08822411
0.08946936
0
0
0
0
0
0
0.08716242
0.08660049
0.08652863
0.0870154
0.08814888
0
0
0
0
0
0
0
0.08598544
0.08542794
0.08533629
0.08577187
0.08681327
0
0
0
0
0
0
0
0
0.08469668
0.08414532
0.08403637
0.08442508
0.08538091
0
0
0
0
0
0
0
0
0
0.08337157
0.08282918
0.08270733
0.08305592
0.08393702
0
0
0
0
0
0
0
0
0
0
0.08208001
0.08154967
0.08142
0.08173643
0.08255478
0
0
0
0
0
0
0
0
0
0
0
0.08085856
0.08034306
0.08021031
0.080502
0.08126887
0
0
0
0
0
0
0
0
0
0
0
0
0.07971812
0.0792195
0.07908769
0.07936102
0.080086
0
0
0
0
0
0
0
0
0
0
0
0
0
0.07865243
0.07817236
0.07804462
0.07830484
0.07899579
0
0
0
0
0
0
0
0
0
0
0
0
0
0
0.07764075
0.07718052
0.07705937
0.07731053
0.07797368
0
0
0
0
0
0
0
0
0
0
0
0
0
0
0
0.07664561
0.07620631
0.07609365
0.07633874
0.07697848
0
0
0
0
0
0
0
0
0
0
0
0
0
0
0
0
0.07561398
0.07519656
0.07509368
0.07533445
0.07595333
0
0
0
0
0
0
0
0
0
0
0
0
0
0
0
0
0
0.0745023
0.07410699
0.07401446
0.07425151
0.07485028
0
0
0
0
0
0
0
0
0
0
0.07334664
0.07297375
0.07289208
0.07312692
0.0737078
0
0
0
0
0
0
0
0
0
0
0.07221377
0.07186275
0.07179284
0.07202731
0.07259392
0
0
0
0
0
0
0
0
0
0
0.0711511
0.07082179
0.0707639
0.07100004
0.07155588
0
0
0
0
0
0
0
0
0
0
0.07018229
0.06987372
0.06982846
0.07006746
0.07061571
0
0
0
0
0
0
0
0
0
0
0.09061589
0.09008524
0.09014221
0.09088909
0.0924744
0
0
0
0
0.08915094
0.08859049
0.08857351
0.08918709
0.09054686
0
0
0
0
0
0.08791044
0.08733824
0.08727674
0.08780037
0.08900844
0
0
0
0
0
0
0.08681228
0.08624012
0.08615189
0.08661432
0.08771285
0
0
0
0
0
0
0
0.08575639
0.08519111
0.08508712
0.08550454
0.08651999
0
0
0
0
0
0
0
0
0.0846367
0.08408164
0.08396703
0.08434758
0.08529193
0
0
0
0
0
0
0
0
0
0.08340585
0.08286184
0.08273786
0.08308362
0.0839609
0
0
0
0
0
0
0
0
0
0
0.08213617
0.08160516
0.08147481
0.08179053
0.08260805
0
0
0
0
0
0
0
0
0
0
0
0.08089496
0.08037922
0.08024631
0.08053792
0.08130479
0
0
0
0
0
0
0
0
0
0
0
0
0.07971812
0.0792195
0.07908769
0.07936102
0.080086
0
0
0
0
0
0
0
0
0
0
0
0
0
0.07861668
0.0781367
0.07800896
0.0782691
0.07895987
0
0
0
0
0
0
0
0
0
0
0
0
0
0
0.07758511
0.07712495
0.07700376
0.0772548
0.07791776
0
0
0
0
0
0
0
0
0
0
0
0
0
0
0
0.07660366
0.07616423
0.07605158
0.07629683
0.07693697
0
0
0
0
0
0
0
0
0
0
0
0
0
0
0
0
0.07563614
0.07521826
0.07511565
0.07535751
0.07597844
0
0
0
0
0
0
0
0
0
0
0
0
0
0
0
0
0
0.07463135
0.07423543
0.07414389
0.07438375
0.07498741
0
0
0
0
0
0
0
0
0
0
0
0
0
0
0
0
0
0
0.07354647
0.07317289
0.07309242
0.07333066
0.07391743
0
0
0
0
0
0
0
0
0
0
0.07241675
0.07206507
0.07199616
0.0722335
0.07280519
0
0
0
0
0
0
0
0
0
0
0.07130689
0.07097705
0.07091978
0.07115785
0.07171712
0
0
0
0
0
0
0
0
0
0
0.07026424
0.06995543
0.06991051
0.0701505
0.07070047
0
0
0
0
0
0
0
0
0
0
0.06931217
0.06902366
0.06899102
0.06923455
0.06977752
0
0
0
0
0
0
0
0
0
0
0.08898954
0.08842412
0.08839937
0.08900137
0.09034435
0
0
0
0
0
0.08762785
0.08704811
0.08697449
0.08748008
0.08866207
0
0
0
0
0
0
0.08646555
0.08588486
0.08578273
0.08622432
0.08729294
0
0
0
0
0
0
0
0.0854288
0.08485555
0.08473835
0.08513594
0.0861229
0
0
0
0
0
0
0
0
0.08442468
0.08386364
0.08373916
0.08410494
0.08502819
0
0
0
0
0
0
0
0
0
0.08335369
0.08280692
0.08267854
0.08301782
0.08388592
0
0
0
0
0
0
0
0
0
0
0.08217275
0.08164056
0.08150864
0.08182224
0.0826369
0
0
0
0
0
0
0
0
0
0
0
0.08095125
0.08043501
0.08030166
0.08059284
0.08135924
0
0
0
0
0
0
0
0
0
0
0
0
0.07975422
0.07925544
0.07912356
0.0793969
0.08012198
0
0
0
0
0
0
0
0
0
0
0
0
0
0.07861668
0.0781367
0.07800896
0.0782691
0.07895987
0
0
0
0
0
0
0
0
0
0
0
0
0
0
0.07754975
0.07708963
0.0769684
0.07721928
0.07788199
0
0
0
0
0
0
0
0
0
0
0
0
0
0
0
0.07654847
0.07610901
0.07599622
0.07624123
0.07688102
0
0
0
0
0
0
0
0
0
0
0
0
0
0
0
0
0.07559397
0.07517578
0.075073
0.07531482
0.07593587
0
0
0
0
0
0
0
0
0
0
0
0
0
0
0
0
0
0.07465148
0.07425485
0.07416328
0.07440388
0.07500914
0
0
0
0
0
0
0
0
0
0
0
0
0
0
0
0
0
0
0.07367084
0.07329637
0.07321647
0.07345698
0.07404798
0
0
0
0
0
0
0
0
0
0
0
0
0
0
0
0
0
0
0
0.07261081
0.0722582
0.07219013
0.07243033
0.07300724
0
0
0
0
0
0
0
0
0
0
0.07150469
0.07117403
0.07111749
0.07135805
0.07192183
0
0
0
0
0
0
0
0
0
0
0.07041639
0.07010692
0.07006247
0.07030416
0.07085722
0
0
0
0
0
0
0
0
0
0
0.06939224
0.06910345
0.06907107
0.06931548
0.06986002
0
0
0
0
0
0
0
0
0
0
0.06845704
0.06818675
0.06816661
0.06841462
0.06895328
0
0
0
0
0
0
0
0
0
0
0.08747645
0.08689284
0.086813
0.08730934
0.08847796
0
0
0
0
0
0
0.0861996
0.08561301
0.08550109
0.08592798
0.08697546
0
0
0
0
0
0
0
0.08510212
0.0845222
0.08439368
0.08477412
0.08573642
0
0
0
0
0
0
0
0
0.0841167
0.08354947
0.08341425
0.08376361
0.08466325
0
0
0
0
0
0
0
0
0
0.08315639
0.08260505
0.08246874
0.08279591
0.08364657
0
0
0
0
0
0
0
0
0
0
0.08212721
0.08159301
0.08145769
0.08176613
0.0825734
0
0
0
0
0
0
0
0
0
0
0
0.08098963
0.08047257
0.08033808
0.08062771
0.08139199
0
0
0
0
0
0
0
0
0
0
0
0
0.07981043
0.07931134
0.07917919
0.07945232
0.08017721
0
0
0
0
0
0
0
0
0
0
0
0
0
0.07865243
0.07817236
0.07804462
0.07830484
0.07899579
0
0
0
0
0
0
0
0
0
0
0
0
0
0
0.07754975
0.07708963
0.0769684
0.07721928
0.07788199
0
0
0
0
0
0
0
0
0
0
0
0
0
0
0
0.07651354
0.07607407
0.07596119
0.07620599
0.07684548
0
0
0
0
0
0
0
0
0
0
0
0
0
0
0
0
0.07553935
0.07512101
0.075018
0.07525948
0.07588007
0
0
0
0
0
0
0
0
0
0
0
0
0
0
0
0
0
0.07460929
0.07421221
0.07412027
0.07436066
0.07496584
0
0
0
0
0
0
0
0
0
0
0
0
0
0
0
0
0
0
0.0736893
0.07331393
0.07323372
0.07347463
0.07406687
0
0
0
0
0
0
0
0
0
0
0
0
0
0
0
0
0
0
0
0.07273104
0.0723773
0.07230945
0.07255143
0.07313195
0
0
0
0
0
0
0
0
0
0
0
0
0
0
0
0
0
0
0
0
0.07169349
0.07136172
0.07130571
0.07154869
0.07211706
0
0
0
0
0
0
0
0
0
0
0.07060945
0.070299
0.07025505
0.0704989
0.07105601
0
0
0
0
0
0
0
0
0
0
0.06954102
0.06925149
0.06921942
0.06946532
0.07001266
0
0
0
0
0
0
0
0
0
0
0.06853538
0.06826476
0.06824481
0.0684936
0.0690337
0
0
0
0
0
0
0
0
0
0
0.06761581
0.06736336
0.06735421
0.06760694
0.06814166
0
0
0
0
0
0
0
0
0
0
0.08605688
0.08546725
0.08535029
0.0857696
0.08680619
0
0
0
0
0
0
0
0.08485071
0.08426615
0.08412963
0.0844979
0.08544266
0
0
0
0
0
0
0
0
0.08380761
0.08323516
0.08309064
0.08342567
0.08430466
0
0
0
0
0
0
0
0
0
0.08286559
0.08230949
0.08216438
0.08247782
0.08330859
0
0
0
0
0
0
0
0
0
0
0.08194271
0.08140509
0.08126338
0.0815618
0.0823545
0
0
0
0
0
0
0
0
0
0
0.08094974
0.08043126
0.08029417
0.08057969
0.08133797
0
0
0
0
0
0
0
0
0
0
0
0
0.07985018
0.07935058
0.07921765
0.07948968
0.08021302
0
0
0
0
0
0
0
0
0
0
0
0
0
0.07870841
0.07822817
0.07810033
0.07836051
0.07905148
0
0
0
0
0
0
0
0
0
0
0
0
0
0
0.07758511
0.07712495
0.07700376
0.0772548
0.07791776
0
0
0
0
0
0
0
0
0
0
0
0
0
0
0
0.07651354
0.07607407
0.07596119
0.07620599
0.07684548
0
0
0
0
0
0
0
0
0
0
0
0
0
0
0
0
0.07550487
0.07508648
0.07498334
0.07522458
0.07584482
0
0
0
0
0
0
0
0
0
0
0
0
0
0
0
0
0
0.07455532
0.07415799
0.07406572
0.07430569
0.07491033
0
0
0
0
0
0
0
0
0
0
0
0
0
0
0
0
0
0
0.07364727
0.07327132
0.07319059
0.0734311
0.07402307
0
0
0
0
0
0
0
0
0
0
0
0
0
0
0
0
0
0
0
0.07274814
0.07239334
0.07232497
0.07256706
0.07314844
0
0
0
0
0
0
0
0
0
0
0
0
0
0
0
0
0
0
0
0
0.07181004
0.07147693
0.07142086
0.07166523
0.07223666
0
0
0
0
0
0
0
0
0
0
0
0
0
0
0
0
0
0
0
0
0.07079352
0.07048173
0.07043806
0.07068395
0.07124514
0
0
0
0
0
0
0
0
0
0
0.06972974
0.06943909
0.0694073
0.06965508
0.07020607
0
0
0
0
0
0
0
0
0
0
0.06868108
0.06840962
0.06838985
0.06863993
0.06918257
0
0
0
0
0
0
0
0
0
0
0.06769252
0.06743972
0.06743069
0.06768412
0.06822015
0
0
0
0
0
0
0
0
0
0
0.06678955
0.06655245
0.06655424
0.06681054
0.06734194
0
0
0
0
0
0
0
0
0
0
0.0847156
0.08412863
0.08398797
0.08434993
0.08528563
0
0
0
0
0
0
0
0
0.083569
0.0829929
0.08284178
0.0831666
0.08403082
0
0
0
0
0
0
0
0
0
0.08257203
0.08201187
0.08185908
0.08216043
0.08297364
0
0
0
0
0
0
0
0
0
0
0.08166707
0.08112582
0.08097689
0.08126374
0.08203951
0
0
0
0
0
0
0
0
0
0
0.08077643
0.08025545
0.08011322
0.08039041
0.08113642
0
0
0
0
0
0
0
0
0
0
0.07981508
0.07931458
0.07917968
0.07944845
0.08016692
0
0
0
0
0
0
0
0
0
0
0
0
0
0.07874917
0.07826867
0.07814037
0.07839981
0.07908969
0
0
0
0
0
0
0
0
0
0
0
0
0
0
0.07764075
0.07718052
0.07705937
0.07731053
0.07797368
0
0
0
0
0
0
0
0
0
0
0
0
0
0
0
0.07654847
0.07610901
0.07599622
0.07624123
0.07688102
0
0
0
0
0
0
0
0
0
0
0
0
0
0
0
0
0.07550487
0.07508648
0.07498334
0.07522458
0.07584482
0
0
0
0
0
0
0
0
0
0
0
0
0
0
0
0
0
0.07452134
0.07412392
0.07403147
0.07427116
0.07487541
0
0
0
0
0
0
0
0
0
0
0
0
0
0
0
0
0
0
0.07359401
0.07321775
0.07313661
0.07337659
0.07396794
0
0
0
0
0
0
0
0
0
0
0
0
0
0
0
0
0
0
0
0.07270641
0.07235092
0.07228191
0.07252344
0.07310437
0
0
0
0
0
0
0
0
0
0
0
0
0
0
0
0
0
0
0
0
0.07182605
0.07149175
0.07143498
0.07167921
0.07225118
0
0
0
0
0
0
0
0
0
0
0
0
0
0
0
0
0
0
0
0
0.07090683
0.07059352
0.07054954
0.07079647
0.07136025
0
0
0
0
0
0
0
0
0
0
0
0
0
0
0
0
0
0
0
0
0.06990949
0.06961737
0.06958559
0.06983508
0.07038968
0
0
0
0
0
0
0
0
0
0
0.06886583
0.06859311
0.06857344
0.06882511
0.06937106
0
0
0
0
0
0
0
0
0
0
0.06783532
0.06758166
0.06757268
0.06782722
0.06836555
0
0
0
0
0
0
0
0
0
0
0.06686478
0.06662726
0.06662914
0.06688605
0.06741865
0
0
0
0
0
0
0
0
0
0
0.06597694
0.06575515
0.06576573
0.06602588
0.06655318
0
0
0
0
0
0
0
0
0
0
0.08344062
0.08286261
0.08270805
0.08302756
0.08388411
0
0
0
0
0
0
0
0
0
0.08234477
0.08178178
0.0816235
0.08191617
0.08271677
0
0
0
0
0
0
0
0
0
0
0.08138731
0.08084294
0.08068764
0.08096419
0.08172487
0
0
0
0
0
0
0
0
0
0
0.08051425
0.07999056
0.07984239
0.08010976
0.08084122
0
0
0
0
0
0
0
0
0
0
0.07965162
0.07914937
0.07901034
0.07927215
0.0799802
0
0
0
0
0
0
0
0
0
0
0.07871814
0.07823718
0.07810745
0.07836431
0.07905023
0
0
0
0
0
0
0
0
0
0
0
0
0
0
0.07768223
0.07722195
0.0771006
0.07735133
0.07801375
0
0
0
0
0
0
0
0
0
0
0
0
0
0
0
0.07660366
0.07616423
0.07605158
0.07629683
0.07693697
0
0
0
0
0
0
0
0
0
0
0
0
0
0
0
0
0.07553935
0.07512101
0.075018
0.07525948
0.07588007
0
0
0
0
0
0
0
0
0
0
0
0
0
0
0
0
0
0.07452134
0.07412392
0.07403147
0.07427116
0.07487541
0
0
0
0
0
0
0
0
0
0
0
0
0
0
0
0
0
0
0.07356054
0.07318415
0.0731028
0.07334247
0.07393341
0
0
0
0
0
0
0
0
0
0
0
0
0
0
0
0
0
0
0
0.07265392
0.07229805
0.07222857
0.0724695
0.07304972
0
0
0
0
0
0
0
0
0
0
0
0
0
0
0
0
0
0
0
0
0.07178474
0.07144967
0.07139215
0.0716357
0.07220706
0
0
0
0
0
0
0
0
0
0
0
0
0
0
0
0
0
0
0
0
0.07092202
0.07060736
0.07056253
0.07080913
0.07137319
0
0
0
0
0
0
0
0
0
0
0
0
0
0
0
0
0
0
0
0