/*--------------------------------*- C++ -*----------------------------------*\
| =========                 |                                                 |
| \\      /  F ield         | OpenFOAM: The Open Source CFD Toolbox           |
|  \\    /   O peration     | Version:  2306                                  |
|   \\  /    A nd           | Website:  www.openfoam.com                      |
|    \\/     M anipulation  |                                                 |
\*---------------------------------------------------------------------------*/
FoamFile
{
    version     2.0;
    format      ascii;
    arch        "LSB;label=32;scalar=64";
    class       volScalarField;
    location    "1.5/fuel";
    object      H2O;
}
// * * * * * * * * * * * * * * * * * * * * * * * * * * * * * * * * * * * * * //

dimensions      [0 0 0 0 0 0 0];

internalField   nonuniform List<scalar> 
16000
(
0.3930561
0.3882992
0.4620359
0.3927864
0.3786333
0.4589968
0.3880235
0.5254955
0.4618338
0.392258
0.3639606
0.4528616
0.3783449
0.5232687
0.4587916
0.3874834
0.5766364
0.5253436
0.4614375
0.3914778
0.3448229
0.4436423
0.3636511
0.5187834
0.4526499
0.3777799
0.5748997
0.5231148
0.4583891
0.3866861
0.6179771
0.5765182
0.5250453
0.460852
0.3904493
0.3240509
0.4317677
0.3444814
0.5120657
0.4434199
0.363045
0.5714084
0.5186255
0.4522345
0.376946
0.616577
0.5747802
0.5228128
0.4577946
0.3856349
0.6519948
0.6178824
0.576286
0.5246044
0.46008
0.3894281
0.3081598
0.4190255
0.3236678
0.5034519
0.4315297
0.3438126
0.5661944
0.5119014
0.4429839
0.3621504
0.6137669
0.5712862
0.5183156
0.4516211
0.3758467
0.6508397
0.6164814
0.5745454
0.5223663
0.4570107
0.3845913
0.6804788
0.6519171
0.6176961
0.5759425
0.5240228
0.4593135
0.3885815
0.2979346
0.409271
0.3077507
0.494255
0.4187677
0.3229172
0.5595341
0.503278
0.431063
0.3428253
0.6095797
0.5660678
0.5115788
0.4423399
0.3609711
0.6485241
0.6136693
0.5710461
0.5178576
0.4508123
0.3747552
0.6795083
0.6507613
0.6162933
0.5741982
0.5217774
0.4562324
0.383726
0.7046892
0.6804138
0.6517642
0.6174205
0.5754892
0.5234454
0.4586783
0.3877394
0.2920826
0.4029331
0.2975111
0.4872413
0.4090023
0.3069494
0.5524532
0.494069
0.418262
0.3218089
0.6042476
0.559401
0.5029365
0.4303735
0.3415235
0.6450803
0.6094791
0.5658192
0.511102
0.4414907
0.3598
0.6775649
0.6484443
0.6134774
0.5706911
0.5172534
0.4500093
0.3738496
0.7038617
0.6794428
0.6506071
0.616015
0.57374
0.5211928
0.4555874
0.3828652
0.7255314
0.704634
0.6802859
0.6515379
0.6170568
0.5750393
0.5229671
0.4580468
0.3869019
0.2894438
0.3992561
0.2916512
0.4826895
0.4026591
0.2966818
0.5470712
0.4870491
0.4084752
0.3057663
0.5985979
0.5523119
0.4937035
0.4175146
0.3203466
0.6407054
0.6041422
0.5591396
0.5024318
0.4294642
0.3402305
0.6746789
0.6449981
0.6092811
0.5654515
0.5104732
0.4406477
0.3588265
0.702206
0.6774983
0.6482872
0.6131936
0.5702226
0.5166536
0.4493435
0.3729484
0.724817
0.7038061
0.6793139
0.6503788
0.6156478
0.5732851
0.5207084
0.4549461
0.3820091
0.7436705
0.725484
0.7045254
0.6800965
0.6512391
0.6166956
0.5746666
0.5224917
0.457419
0.3860691
0.2894438
0.3975792
0.2890089
0.4800471
0.3989795
0.2908067
0.5435844
0.4824949
0.4021218
0.2954577
0.5943153
0.5469261
0.4866719
0.4076964
0.3042053
0.6360826
0.5984864
0.552034
0.4931632
0.4165286
0.3188932
0.67102
0.6406197
0.603935
0.5587529
0.5017661
0.4285613
0.33915
0.6997504
0.6746106
0.6448366
0.6089883
0.5649664
0.5098489
0.4399476
0.3578559
0.7233887
0.7021496
0.6773673
0.6480548
0.612819
0.5697575
0.5161564
0.4486812
0.3720515
0.7430472
0.7247693
0.7036967
0.679123
0.6500774
0.6152831
0.5729084
0.520227
0.4543085
0.3811576
0.7596059
0.7436292
0.7253905
0.7043644
0.6798464
0.6509424
0.6163966
0.5742963
0.5220194
0.456795
0.3820406
0.2920826
0.3975792
0.2890089
0.4788406
0.3973014
0.2881577
0.5415612
0.4798513
0.398437
0.2895605
0.5915449
0.5434378
0.4821127
0.401328
0.2938429
0.6325861
0.5942013
0.5466407
0.4861141
0.4066689
0.3026538
0.6671623
0.6359923
0.5982673
0.5516229
0.4924501
0.4155491
0.3176673
0.6966422
0.6709489
0.6404512
0.6036284
0.5582427
0.501105
0.4278082
0.3380668
0.7212725
0.6996926
0.674476
0.6445974
0.6086017
0.5644848
0.5093306
0.4392501
0.3568881
0.7418018
0.7233402
0.7020385
0.6771732
0.6477479
0.6124471
0.5693722
0.5156621
0.4480225
0.371159
0.7590572
0.7430057
0.7246752
0.7035346
0.6788709
0.649778
0.6149812
0.572534
0.5197486
0.4536747
0.3770388
0.7737201
0.7595697
0.7435479
0.7252519
0.7041518
0.679598
0.6506967
0.6160995
0.5739285
0.5215499
0.4537776
0.3792712
0.2979346
0.3992561
0.2916512
0.4788406
0.3973014
0.2881577
0.5406374
0.4786444
0.3967568
0.2869015
0.5899383
0.5414141
0.4794669
0.3976358
0.2879167
0.6303273
0.5914301
0.5431498
0.4815476
0.4002808
0.2922381
0.6642498
0.632494
0.593977
0.5462186
0.4853779
0.4056482
0.3013449
0.6933711
0.6670875
0.6358146
0.5979428
0.5510801
0.4917418
0.4147255
0.3164268
0.7185976
0.6965822
0.6708089
0.6402016
0.6032237
0.5577361
0.500554
0.4270547
0.3369809
0.7399583
0.7212229
0.6995787
0.6742767
0.6442816
0.608218
0.5640851
0.5088146
0.4385553
0.3559231
0.7579613
0.7417598
0.7232448
0.7018738
0.6769169
0.6474432
0.6121389
0.5689891
0.5151707
0.4473674
0.3668394
0.7732332
0.7590208
0.7429239
0.7245357
0.7033204
0.6786205
0.6495302
0.6146812
0.5721621
0.5192731
0.4506098
0.3741942
0.786311
0.773688
0.7594983
0.7434273
0.7250689
0.7039407
0.6793924
0.6504527
0.6158044
0.573563
0.5192809
0.4517098
0.3771727
0.3081598
0.4029331
0.2975111
0.4800471
0.3989795
0.2908067
0.5406374
0.4786444
0.3967568
0.2869015
0.589205
0.5404901
0.4782591
0.3959523
0.2852447
0.6290183
0.5898233
0.541125
0.4788987
0.3965788
0.2862831
0.6623703
0.6302347
0.5912042
0.5427237
0.4808021
0.3992406
0.2908867
0.6909052
0.6641737
0.6323128
0.5936451
0.5456614
0.4846468
0.4047899
0.3000202
0.7157868
0.6933082
0.6669404
0.6355515
0.5975144
0.5505411
0.4911466
0.4138947
0.3151716
0.7376309
0.7185462
0.696464
0.6706016
0.6398722
0.6028219
0.5573139
0.5000028
0.4263006
0.3358924
0.7563404
0.7399153
0.7211252
0.69941
0.6740136
0.6439681
0.6078995
0.5636872
0.5083007
0.4378633
0.3512439
0.7722612
0.7579244
0.7416768
0.7231033
0.7016564
0.6766624
0.6471908
0.6118327
0.5686083
0.5146821
0.4441984
0.3638056
0.7858759
0.7732009
0.7589489
0.7428025
0.7243514
0.7031077
0.6784132
0.6492841
0.6143832
0.5717925
0.5169748
0.448502
0.3720283
0.7976143
0.7862824
0.7736248
0.7593924
0.743268
0.724887
0.7037659
0.6791882
0.6502104
0.6155113
0.5717969
0.5177295
0.450146
0.3757628
0.3240509
0.409271
0.3077507
0.4826895
0.4026591
0.2966818
0.5415612
0.4798513
0.398437
0.2895605
0.589205
0.5404901
0.4782591
0.3959523
0.2852447
0.6284208
0.5890898
0.5402007
0.4776896
0.3948911
0.2835981
0.6612817
0.6289256
0.589597
0.5406975
0.478149
0.395529
0.2849096
0.6893155
0.6622939
0.6300525
0.59087
0.5421614
0.4800616
0.3983673
0.2895218
0.7136707
0.6908413
0.6640239
0.6320443
0.5932069
0.5451079
0.4840322
0.4039238
0.2986796
0.7351884
0.7157331
0.6931842
0.6667224
0.635204
0.5970888
0.5500882
0.4905466
0.4130567
0.3139014
0.7542961
0.7375864
0.718445
0.6962888
0.6703278
0.639545
0.602487
0.5568916
0.4994515
0.4255461
0.3305853
0.7708244
0.7563027
0.7398306
0.7209804
0.6991871
0.6737523
0.643708
0.6075826
0.5632911
0.5077891
0.4345103
0.3477736
0.7850077
0.7722286
0.7578517
0.7415539
0.7229164
0.7014404
0.6764516
0.64694
0.6115283
0.5682298
0.5123192
0.4419895
0.3614515
0.7972231
0.7858472
0.7731374
0.7588424
0.7426422
0.7241683
0.7029316
0.6782074
0.6490396
0.6140871
0.5700066
0.5153979
0.4469018
0.3705662
0.8078189
0.7975886
0.786226
0.773531
0.7592524
0.7431097
0.7247365
0.7035923
0.6789854
0.6499698
0.6140952
0.5705913
0.5165575
0.4490968
0.3750543
0.3448229
0.4190255
0.3236678
0.4872413
0.4090023
0.3069494
0.5435844
0.4824949
0.4021218
0.2954577
0.5899383
0.5414141
0.4794669
0.3976358
0.2879167
0.6284208
0.5890898
0.5402007
0.4776896
0.3948911
0.2835981
0.660785
0.6283281
0.5888634
0.5397726
0.4769383
0.3938371
0.2822147
0.6883952
0.6612053
0.6287431
0.5892621
0.5401332
0.4774045
0.3946488
0.2835244
0.7123076
0.6892514
0.6621435
0.6297827
0.5904288
0.5416029
0.4794403
0.3974878
0.2881432
0.7333516
0.7136162
0.6907153
0.6638019
0.6316898
0.5927715
0.5446428
0.4834125
0.40305
0.2973228
0.7521531
0.7351419
0.7156271
0.6930004
0.6664343
0.6348587
0.5967314
0.5496317
0.4899416
0.4122113
0.3076488
0.769014
0.7542572
0.7374987
0.718295
0.6960574
0.6700558
0.6392724
0.6021522
0.5564695
0.4989002
0.4218739
0.3260517
0.7837252
0.7707912
0.7562285
0.7397049
0.7207891
0.6989657
0.6735355
0.6434491
0.6072671
0.5628968
0.5053111
0.4320661
0.3449059
0.7964429
0.7849787
0.7721642
0.7577438
0.7413914
0.7227306
0.7012615
0.6762421
0.6466907
0.6112259
0.5663999
0.510677
0.4402868
0.359833
0.8074654
0.7971974
0.7857905
0.773043
0.7587015
0.7424829
0.7240167
0.7027567
0.6780029
0.6487967
0.6126567
0.5687833
0.5142024
0.4458243
0.3698292
0.8170783
0.8077958
0.7975381
0.7861424
0.773407
0.7591132
0.7429787
0.7245871
0.70342
0.678784
0.6488072
0.6131296
0.5696813
0.5157719
0.4485702
0.3639606
0.4317677
0.3444814
0.494255
0.4187677
0.3229172
0.5470712
0.4870491
0.4084752
0.3057663
0.5915449
0.5434378
0.4821127
0.401328
0.2938429
0.6290183
0.5898233
0.541125
0.4788987
0.3965788
0.2862831
0.660785
0.6283281
0.5888634
0.5397726
0.4769383
0.3938371
0.2822147
0.6879754
0.6607086
0.6281456
0.5885283
0.5392077
0.4761921
0.392954
0.2808206
0.7115188
0.6883311
0.6610548
0.628473
0.58882
0.5395728
0.4767806
0.3937635
0.2821274
0.7321692
0.7122529
0.689125
0.6619207
0.6294263
0.5899906
0.5411344
0.4788148
0.3966019
0.2867509
0.7505431
0.7333045
0.7135086
0.6905285
0.6635087
0.6313375
0.5924058
0.544174
0.4827876
0.4021684
0.2906444
0.7671181
0.7521125
0.7350502
0.7154699
0.6927575
0.6661481
0.6345687
0.5963711
0.5491716
0.4893317
0.4080621
0.3009712
0.7821104
0.7689797
0.7541804
0.7373687
0.7180967
0.6958276
0.6698292
0.6389998
0.6018175
0.5560473
0.496218
0.4188505
0.3216435
0.7952909
0.7836956
0.7707255
0.7561183
0.7395388
0.7205991
0.6987821
0.6733198
0.6431914
0.6069531
0.5609875
0.5035117
0.4300794
0.3427973
0.8067603
0.7964169
0.7849214
0.7720687
0.7576012
0.7412299
0.7225769
0.7010838
0.676034
0.6464431
0.6097638
0.5651303
0.5094132
0.4391229
0.3590052
0.8167571
0.8074421
0.7971465
0.7857064
0.7729183
0.7585616
0.742351
0.7238662
0.702583
0.6777999
0.6476235
0.6116781
0.5678565
0.5133981
0.4452819
0.8255182
0.8170573
0.8077502
0.797463
0.7860317
0.7732837
0.7589981
0.7428486
0.7244387
0.7032488
0.6778114
0.6480152
0.6124011
0.5690716
0.5153778
0.3786333
0.4436423
0.3636511
0.5034519
0.4315297
0.3438126
0.5524532
0.494069
0.418262
0.3218089
0.5943153
0.5469261
0.4866719
0.4076964
0.3042053
0.6303273
0.5914301
0.5431498
0.4815476
0.4002808
0.2922381
0.6612817
0.6289256
0.589597
0.5406975
0.478149
0.395529
0.2849096
0.6879754
0.6607086
0.6281456
0.5885283
0.5392077
0.4761921
0.392954
0.2808206
0.711159
0.6879113
0.6605582
0.6278755
0.5880859
0.5386466
0.4755672
0.3920662
0.2794156
0.7314853
0.7114642
0.6882048
0.660832
0.6281163
0.5883809
0.5391034
0.4761533
0.3928729
0.2807186
0.7495073
0.7321221
0.7121452
0.6889377
0.6616264
0.6290724
0.589623
0.5406628
0.4781851
0.3957096
0.2799106
0.7656949
0.750502
0.7332116
0.7133491
0.6902817
0.6632174
0.6310417
0.5920371
0.5437013
0.4821575
0.3978417
0.2836152
0.7804208
0.7670823
0.7520324
0.7349143
0.7152622
0.6925162
0.6659078
0.6342765
0.5960081
0.5487079
0.4863398
0.4038745
0.2925706
0.7938414
0.7820799
0.768912
0.7540666
0.7371968
0.7178997
0.6956361
0.6696028
0.6387274
0.6014829
0.5539942
0.4940222
0.416007
0.3177066
0.8057198
0.7952644
0.7836372
0.7706282
0.7559727
0.7393738
0.7204414
0.6985994
0.6731051
0.642935
0.605433
0.5596036
0.5020532
0.4286411
0.3416508
0.8161169
0.8067368
0.7963655
0.7848363
0.7719425
0.7574594
0.7410962
0.7224241
0.7009073
0.6758272
0.6452461
0.6087506
0.5641541
0.5085505
0.4385301
0.8252251
0.8167361
0.8073963
0.797071
0.7855952
0.7727944
0.7584457
0.74222
0.7237168
0.7024106
0.676819
0.6468216
0.6109372
0.5672334
0.5129935
0.8332427
0.8254991
0.8170159
0.8076824
0.7973636
0.7859218
0.7731818
0.7588838
0.7427195
0.7242914
0.7024224
0.6771492
0.647418
0.6119133
0.5687658
0.3882992
0.4528616
0.3783449
0.5120657
0.4434199
0.363045
0.5595341
0.503278
0.431063
0.3428253
0.5985979
0.5523119
0.4937035
0.4175146
0.3203466
0.6325861
0.5942013
0.5466407
0.4861141
0.4066689
0.3026538
0.6623703
0.6302347
0.5912042
0.5427237
0.4808021
0.3992406
0.2908867
0.6883952
0.6612053
0.6287431
0.5892621
0.5401332
0.4774045
0.3946488
0.2835244
0.711159
0.6879113
0.6605582
0.6278755
0.5880859
0.5386466
0.4755672
0.3920662
0.2794156
0.7311734
0.7111045
0.687785
0.6603353
0.6275187
0.5876465
0.5381768
0.4749393
0.3911738
0.2779996
0.7489084
0.7314382
0.7113565
0.6880175
0.6605376
0.627762
0.5880131
0.5386315
0.4755227
0.3919772
0.2738077
0.7647798
0.7494662
0.732029
0.7119854
0.6886903
0.6613341
0.6287755
0.5892531
0.5401882
0.4775513
0.3913382
0.2730436
0.7791534
0.7656587
0.7504208
0.7330737
0.7131383
0.6900364
0.6629727
0.6307434
0.5916655
0.5432247
0.4790664
0.3935237
0.2751073
0.792326
0.780389
0.7670117
0.7519135
0.7347345
0.7150558
0.6923135
0.6656656
0.633982
0.5956421
0.5464334
0.4833399
0.3988289
0.2816902
0.8044114
0.7938141
0.7820197
0.7688115
0.7539161
0.737026
0.7177356
0.6954447
0.6693764
0.6384551
0.5998555
0.5523163
0.4919659
0.4135428
0.3149838
0.8151724
0.8056959
0.7952121
0.7835505
0.7704994
0.755828
0.7392369
0.7202846
0.6984176
0.6728915
0.6416939
0.6043325
0.5584829
0.5009998
0.4278684
0.8246411
0.8160956
0.8066905
0.7962892
0.7847238
0.7718171
0.7573421
0.7409634
0.7222723
0.7007319
0.6748279
0.6444174
0.607972
0.5634881
0.5081115
0.8329743
0.825206
0.8166945
0.8073281
0.7969712
0.7854846
0.7726918
0.7583307
0.74209
0.7235684
0.7015776
0.6761491
0.6462147
0.6104393
0.5669201
0.840339
0.8332252
0.8254614
0.8169545
0.8075927
0.7972649
0.7858308
0.7730805
0.7587704
0.7425913
0.72358
0.7018601
0.6766502
0.6470182
0.6116688
0.3930561
0.4589968
0.3880235
0.5187834
0.4526499
0.3777799
0.5661944
0.5119014
0.4429839
0.3621504
0.6042476
0.559401
0.5029365
0.4303735
0.3415235
0.6360826
0.5984864
0.552034
0.4931632
0.4165286
0.3188932
0.6642498
0.632494
0.593977
0.5462186
0.4853779
0.4056482
0.3013449
0.6893155
0.6622939
0.6300525
0.59087
0.5421614
0.4800616
0.3983673
0.2895218
0.7115188
0.6883311
0.6610548
0.628473
0.58882
0.5395728
0.4767806
0.3937635
0.2821274
0.7311734
0.7111045
0.687785
0.6603353
0.6275187
0.5876465
0.5381768
0.4749393
0.3911738
0.2779996
0.7486354
0.7311264
0.7109968
0.6875979
0.660041
0.6271644
0.5872787
0.537705
0.4743085
0.3902768
0.2710587
0.7642509
0.7488673
0.7313453
0.7111969
0.6877702
0.6602452
0.6274653
0.5876435
0.5381572
0.4748887
0.3875945
0.2670995
0.7783389
0.7647436
0.749385
0.731891
0.7117743
0.6884444
0.6610889
0.6284769
0.5888809
0.5397106
0.4744473
0.387159
0.2650972
0.79119
0.7791213
0.7655872
0.7503005
0.7328915
0.7129289
0.6898304
0.662726
0.6304428
0.5912909
0.5408876
0.4759973
0.3885039
0.2649514
0.8030443
0.7922976
0.7803263
0.7669069
0.7517563
0.7345558
0.7148825
0.6921093
0.6654216
0.6336853
0.5938477
0.5441554
0.4797438
0.3925197
0.2668538
0.8139853
0.8043868
0.7937602
0.7819303
0.7686786
0.7537666
0.7368838
0.7175716
0.6952534
0.6691501
0.6371309
0.5985268
0.5507465
0.490191
0.4118812
0.8237799
0.8151507
0.8056487
0.7951344
0.7834359
0.7703715
0.755708
0.7391007
0.7201286
0.6982368
0.6718576
0.6407961
0.6034417
0.557674
0.5004347
0.8324394
0.8246217
0.8160536
0.8066217
0.7961882
0.7846119
0.7717132
0.7572255
0.7408315
0.7221216
0.6998843
0.6741366
0.6437808
0.6074411
0.5631494
0.8400922
0.8329567
0.8251681
0.8166327
0.807238
0.796872
0.7853931
0.7725899
0.7582165
0.741961
0.7228518
0.7010091
0.6756422
0.645807
0.610189
0.8468804
0.840323
0.8331907
0.8254053
0.8168731
0.8075036
0.7971832
0.7857404
0.77298
0.7586577
0.7419721
0.7230962
0.7014364
0.6763162
0.6468178
0.4620359
0.3927864
0.5232687
0.4587916
0.3874834
0.5714084
0.5186255
0.4522345
0.376946
0.6095797
0.5660678
0.5115788
0.4423399
0.3609711
0.6407054
0.6041422
0.5591396
0.5024318
0.4294642
0.3402305
0.6671623
0.6359923
0.5982673
0.5516229
0.4924501
0.4155491
0.3176673
0.6909052
0.6641737
0.6323128
0.5936451
0.5456614
0.4846468
0.4047899
0.3000202
0.7123076
0.6892514
0.6621435
0.6297827
0.5904288
0.5416029
0.4794403
0.3974878
0.2881432
0.7314853
0.7114642
0.6882048
0.660832
0.6281163
0.5883809
0.5391034
0.4761533
0.3928729
0.2807186
0.7486354
0.7311264
0.7109968
0.6875979
0.660041
0.6271644
0.5872787
0.537705
0.4743085
0.3902768
0.2710587
0.7640097
0.7485943
0.7310335
0.7108373
0.6873506
0.6597487
0.6268678
0.5869094
0.537231
0.4736746
0.3858903
0.264426
0.7778682
0.7642147
0.7487863
0.7312075
0.7109859
0.6875244
0.6600003
0.6271672
0.587272
0.5376805
0.471788
0.383531
0.2595507
0.7904602
0.7783068
0.7646722
0.7492646
0.7317087
0.7115644
0.6882383
0.6608423
0.6281764
0.5885064
0.5373722
0.4714914
0.3825082
0.2560611
0.8020202
0.7911613
0.7790579
0.7654812
0.7501413
0.7327104
0.7127529
0.6896228
0.6624775
0.6301399
0.589454
0.5385686
0.4724427
0.3827094
0.2530086
0.8127458
0.8030188
0.7922415
0.7802331
0.7667682
0.7516001
0.7344058
0.7147078
0.6919036
0.6651757
0.6322301
0.5920511
0.5414272
0.4752699
0.3841583
0.2417351
0.8226981
0.8139631
0.8043382
0.7936802
0.7818121
0.7685465
0.753642
0.7367416
0.7174077
0.6950622
0.6680499
0.6360503
0.5972842
0.5493927
0.4889977
0.831651
0.8237602
0.815108
0.8055787
0.7950316
0.7833219
0.7702654
0.7555886
0.7389653
0.7199733
0.6973613
0.6711102
0.6400697
0.602799
0.5572403
0.8396006
0.8324217
0.8245835
0.8159912
0.8065306
0.7960879
0.7845194
0.7716101
0.7571097
0.7407004
0.7213931
0.6992983
0.6736057
0.6433468
0.6071711
0.8466527
0.8400761
0.8329221
0.8251118
0.816551
0.8071484
0.7967898
0.7853022
0.7724888
0.7581032
0.7413375
0.7223629
0.7005791
0.6753018
0.6456021
0.8529291
0.8468656
0.8402913
0.8331395
0.8253312
0.8167922
0.8074298
0.7971021
0.7856508
0.7728802
0.7581138
0.7415513
0.7227318
0.7011529
0.6761487
0.5254955
0.4618338
0.392258
0.5748997
0.5231148
0.4583891
0.3866861
0.6137669
0.5712862
0.5183156
0.4516211
0.3758467
0.6450803
0.6094791
0.5658192
0.511102
0.4414907
0.3598
0.67102
0.6406197
0.603935
0.5587529
0.5017661
0.4285613
0.33915
0.6933711
0.6670875
0.6358146
0.5979428
0.5510801
0.4917418
0.4147255
0.3164268
0.7136707
0.6908413
0.6640239
0.6320443
0.5932069
0.5451079
0.4840322
0.4039238
0.2986796
0.7321692
0.7122529
0.689125
0.6619207
0.6294263
0.5899906
0.5411344
0.4788148
0.3966019
0.2867509
0.7489084
0.7314382
0.7113565
0.6880175
0.6605376
0.627762
0.5880131
0.5386315
0.4755227
0.3919772
0.2738077
0.7640097
0.7485943
0.7310335
0.7108373
0.6873506
0.6597487
0.6268678
0.5869094
0.537231
0.4736746
0.3858903
0.264426
0.7776537
0.7639736
0.7485134
0.7308958
0.7106265
0.687105
0.659504
0.62657
0.5865384
0.5367549
0.4705766
0.3818809
0.2570559
0.7900386
0.7778362
0.7641434
0.7486661
0.7310253
0.7107763
0.6873187
0.6597543
0.6268676
0.5868988
0.5353496
0.4689225
0.3791307
0.2511685
0.8013625
0.7904315
0.7782434
0.7645661
0.7491054
0.7315274
0.7113885
0.6880309
0.6605941
0.627874
0.586673
0.5351466
0.468211
0.3773972
0.2459718
0.8118177
0.8019944
0.7911046
0.7789637
0.7653409
0.7499831
0.7325583
0.7125756
0.6894136
0.662227
0.6286544
0.5876315
0.5358844
0.468355
0.3760931
0.2371945
0.8215691
0.8127227
0.8029683
0.7921581
0.7801099
0.7666304
0.7514689
0.7342546
0.7145319
0.6916962
0.66397
0.6307732
0.5898998
0.5380383
0.4693724
0.3703079
0.2277706
0.830661
0.8226778
0.8139191
0.8042661
0.7935743
0.7816945
0.7684365
0.7535175
0.7365995
0.717244
0.6941327
0.6671526
0.6350399
0.5962128
0.5484829
0.8388761
0.831633
0.8237213
0.8150445
0.805486
0.7949294
0.7832274
0.7701598
0.7554698
0.7388305
0.719222
0.6967288
0.6705056
0.6395456
0.6024544
0.8461993
0.8395843
0.8323867
0.8245267
0.8159086
0.8064401
0.7960048
0.7844274
0.7715076
0.7569947
0.7400672
0.7208896
0.6988484
0.6732439
0.6431262
0.8527185
0.8466379
0.8400443
0.8328706
0.8250373
0.8164697
0.8070743
0.7967083
0.7852121
0.7723884
0.7575557
0.7409124
0.7219932
0.7002903
0.6751308
0.8585383
0.8529155
0.8468364
0.8402442
0.8330716
0.8252574
0.8167252
0.8073566
0.7970216
0.7855618
0.7723985
0.7577442
0.7412344
0.722488
0.7010108
0.5766364
0.5253436
0.4614375
0.3914778
0.616577
0.5747802
0.5228128
0.4577946
0.3856349
0.6485241
0.6136693
0.5710461
0.5178576
0.4508123
0.3747552
0.6746789
0.6449981
0.6092811
0.5654515
0.5104732
0.4406477
0.3588265
0.6966422
0.6709489
0.6404512
0.6036284
0.5582427
0.501105
0.4278082
0.3380668
0.7157868
0.6933082
0.6669404
0.6355515
0.5975144
0.5505411
0.4911466
0.4138947
0.3151716
0.7333516
0.7136162
0.6907153
0.6638019
0.6316898
0.5927715
0.5446428
0.4834125
0.40305
0.2973228
0.7495073
0.7321221
0.7121452
0.6889377
0.6616264
0.6290724
0.589623
0.5406628
0.4781851
0.3957096
0.2799106
0.7642509
0.7488673
0.7313453
0.7111969
0.6877702
0.6602452
0.6274653
0.5876435
0.5381572
0.4748887
0.3875945
0.2670995
0.7776537
0.7639736
0.7485134
0.7308958
0.7106265
0.687105
0.659504
0.62657
0.5865384
0.5367549
0.4705766
0.3818809
0.2570559
0.7898464
0.7776217
0.7639024
0.7483933
0.7307138
0.710417
0.6868994
0.6592583
0.6262709
0.5861658
0.5344283
0.4677532
0.377592
0.2489522
0.8009827
0.79001
0.7777729
0.7640376
0.7485071
0.7308443
0.7106008
0.6871119
0.6595071
0.6265666
0.5850739
0.5331966
0.4658258
0.3744109
0.2419833
0.811222
0.8013368
0.7903749
0.7781493
0.7644259
0.7489471
0.7313754
0.7112116
0.6878223
0.6603445
0.6263941
0.5849282
0.5326773
0.4646157
0.3718667
0.233172
0.8207241
0.8117944
0.8019434
0.7910204
0.7788391
0.7652014
0.7498502
0.732405
0.712397
0.6892028
0.6609988
0.6271805
0.585522
0.532801
0.463705
0.3675677
0.2257948
0.8296284
0.8215481
0.8126771
0.8028933
0.7920478
0.7799874
0.7665146
0.7513367
0.7341023
0.7143546
0.6906798
0.6627628
0.6290289
0.5872296
0.533581
0.4596563
0.3621883
0.2171844
0.8379667
0.8306425
0.8226379
0.8138538
0.8041707
0.793469
0.7815966
0.7683266
0.7533931
0.7364576
0.7164476
0.6933748
0.6663135
0.6341688
0.5954929
0.8455313
0.8388596
0.8315974
0.8236635
0.8149605
0.8053939
0.7948447
0.7831334
0.7700548
0.7553517
0.7381783
0.7186794
0.6962173
0.6700696
0.6392647
0.852299
0.8461844
0.8395522
0.8323348
0.8244514
0.8158265
0.8063651
0.7959223
0.7843361
0.7714059
0.7564391
0.7396298
0.7205032
0.6985418
0.67306
0.8583429
0.8527048
0.8466086
0.839997
0.8328024
0.8249632
0.8164024
0.8070007
0.7966273
0.7851225
0.7719037
0.7571825
0.740591
0.721745
0.7001452
0.8637537
0.8585257
0.8528885
0.846793
0.8401819
0.8330041
0.8251964
0.8166588
0.8072839
0.7969417
0.785132
0.7720713
0.757466
0.7410223
0.7223658
0.6179771
0.5765182
0.5250453
0.460852
0.3904493
0.6508397
0.6164814
0.5745454
0.5223663
0.4570107
0.3845913
0.6775649
0.6484443
0.6134774
0.5706911
0.5172534
0.4500093
0.3738496
0.6997504
0.6746106
0.6448366
0.6089883
0.5649664
0.5098489
0.4399476
0.3578559
0.7185976
0.6965822
0.6708089
0.6402016
0.6032237
0.5577361
0.500554
0.4270547
0.3369809
0.7351884
0.7157331
0.6931842
0.6667224
0.635204
0.5970888
0.5500882
0.4905466
0.4130567
0.3139014
0.7505431
0.7333045
0.7135086
0.6905285
0.6635087
0.6313375
0.5924058
0.544174
0.4827876
0.4021684
0.2906444
0.7647798
0.7494662
0.732029
0.7119854
0.6886903
0.6613341
0.6287755
0.5892531
0.5401882
0.4775513
0.3913382
0.2730436
0.7778682
0.7642147
0.7487863
0.7312075
0.7109859
0.6875244
0.6600003
0.6271672
0.587272
0.5376805
0.471788
0.383531
0.2595507
0.7898464
0.7776217
0.7639024
0.7483933
0.7307138
0.710417
0.6868994
0.6592583
0.6262709
0.5861658
0.5344283
0.4677532
0.377592
0.2489522
0.8008095
0.7898179
0.7775585
0.7637967
0.7482345
0.7305329
0.7102418
0.6866931
0.6590117
0.6259706
0.5843456
0.532309
0.4647382
0.3730377
0.2401335
0.8108779
0.8009569
0.7899535
0.777679
0.7638976
0.7483491
0.7306927
0.7104245
0.6869042
0.6592587
0.6250951
0.5833885
0.53087
0.4625111
0.3694043
0.2304469
0.8201819
0.8111987
0.8012858
0.7902908
0.7780248
0.7642865
0.7488145
0.7312225
0.7110336
0.6876124
0.6591226
0.6249856
0.5829922
0.5299728
0.4607354
0.3650601
0.2234916
0.8288559
0.8207029
0.8117483
0.8018676
0.790909
0.7787152
0.7650843
0.7497163
0.7322505
0.7122169
0.6881692
0.6597801
0.6254745
0.5831001
0.5292988
0.4577338
0.3608788
0.2161902
0.8370187
0.8296092
0.8215066
0.8126092
0.802794
0.7919382
0.7798845
0.766398
0.7512035
0.7339488
0.7134853
0.6896621
0.6613175
0.6268648
0.5837225
0.5262598
0.4539919
0.3556237
0.2088934
0.8446932
0.8379498
0.830606
0.8225785
0.8137674
0.8040759
0.7933813
0.7814988
0.7682167
0.7532688
0.7357673
0.7157985
0.6926662
0.6655903
0.6335835
0.8516812
0.8455161
0.838827
0.8315446
0.8235871
0.814877
0.8053175
0.7947604
0.7830398
0.7699504
0.75478
0.7377074
0.7182407
0.6958484
0.6698358
0.8579538
0.8522852
0.8461548
0.8395045
0.832266
0.8243766
0.8157585
0.8062907
0.7958404
0.7842454
0.7709142
0.7560554
0.7392942
0.72024
0.698386
0.8635719
0.8583302
0.8526777
0.846565
0.8399344
0.8327346
0.8249019
0.8163356
0.8069276
0.796547
0.7846902
0.7715734
0.7569004
0.7403753
0.7216203
0.8686148
0.863742
0.8585007
0.8528484
0.8467356
0.8401198
0.8329483
0.8251358
0.8165929
0.8072118
0.7965559
0.7848402
0.7718249
0.7572798
0.7409161
0.6519948
0.6178824
0.576286
0.5246044
0.46008
0.3894281
0.6795083
0.6507613
0.6162933
0.5741982
0.5217774
0.4562324
0.383726
0.702206
0.6774983
0.6482872
0.6131936
0.5702226
0.5166536
0.4493435
0.3729484
0.7212725
0.6996926
0.674476
0.6445974
0.6086017
0.5644848
0.5093306
0.4392501
0.3568881
0.7376309
0.7185462
0.696464
0.6706016
0.6398722
0.6028219
0.5573139
0.5000028
0.4263006
0.3358924
0.7521531
0.7351419
0.7156271
0.6930004
0.6664343
0.6348587
0.5967314
0.5496317
0.4899416
0.4122113
0.3076488
0.7656949
0.750502
0.7332116
0.7133491
0.6902817
0.6632174
0.6310417
0.5920371
0.5437013
0.4821575
0.3978417
0.2836152
0.7783389
0.7647436
0.749385
0.731891
0.7117743
0.6884444
0.6610889
0.6284769
0.5888809
0.5397106
0.4744473
0.387159
0.2650972
0.7900386
0.7778362
0.7641434
0.7486661
0.7310253
0.7107763
0.6873187
0.6597543
0.6268676
0.5868988
0.5353496
0.4689225
0.3791307
0.2511685
0.8008095
0.7898179
0.7775585
0.7637967
0.7482345
0.7305329
0.7102418
0.6866931
0.6590117
0.6259706
0.5843456
0.532309
0.4647382
0.3730377
0.2401335
0.8107212
0.8007839
0.7897614
0.7774647
0.7636569
0.7480766
0.7303816
0.7100658
0.6864859
0.658764
0.6245035
0.5826877
0.5300459
0.4615421
0.368242
0.2290925
0.8198688
0.8108547
0.8009062
0.7898695
0.7775548
0.7637584
0.7482169
0.7305405
0.7102473
0.6866956
0.6580448
0.6237361
0.581567
0.5283806
0.4590015
0.3633129
0.2217029
0.8283603
0.8201608
0.8111527
0.8012102
0.7901795
0.777901
0.7641696
0.748681
0.7310688
0.7108545
0.6865853
0.6579597
0.6234227
0.5808724
0.5270566
0.4559709
0.3593235
0.2148543
0.8363097
0.8288365
0.8206611
0.8116798
0.8017674
0.7907982
0.7786112
0.7649663
0.7495814
0.7320949
0.7113343
0.6871435
0.6583694
0.6235165
0.580352
0.5248102
0.4530616
0.3548481
0.2083113
0.8438198
0.8370011
0.8295713
0.8214449
0.8125194
0.8026953
0.7918461
0.7797808
0.7662806
0.7510693
0.7331966
0.712615
0.6884436
0.6595251
0.6240255
0.5779741
0.5220131
0.4494164
0.350183
0.2023661
0.8509064
0.8446777
0.8379163
0.8305517
0.8224999
0.8136815
0.8039969
0.7932937
0.7814011
0.7681069
0.7526646
0.7352048
0.7151916
0.6920554
0.6651043
0.8573808
0.8516672
0.8454861
0.8387785
0.8314747
0.823511
0.8148078
0.8052415
0.7946766
0.7829468
0.7694449
0.7543673
0.7373268
0.7179243
0.6956507
0.86321
0.857941
0.8522579
0.8461108
0.8394413
0.8321975
0.8243147
0.815691
0.8062168
0.795759
0.7838072
0.7705748
0.755761
0.7390656
0.7201062
0.8684453
0.8635601
0.8583051
0.8526374
0.8465073
0.8398721
0.8326785
0.8248411
0.8162694
0.8068551
0.796159
0.7843957
0.7713237
0.7567111
0.7402669
0.8731558
0.8686039
0.8637187
0.8584635
0.8527952
0.8466784
0.8400685
0.8328928
0.8250757
0.8165274
0.8068635
0.796294
0.7846205
0.7716601
0.7571866
0.6804788
0.6519171
0.6176961
0.5759425
0.5240228
0.4593135
0.3885815
0.7038617
0.6794428
0.6506071
0.616015
0.57374
0.5211928
0.4555874
0.3828652
0.7233887
0.7021496
0.6773673
0.6480548
0.612819
0.5697575
0.5161564
0.4486812
0.3720515
0.7399583
0.7212229
0.6995787
0.6742767
0.6442816
0.608218
0.5640851
0.5088146
0.4385553
0.3559231
0.7542961
0.7375864
0.718445
0.6962888
0.6703278
0.639545
0.602487
0.5568916
0.4994515
0.4255461
0.3305853
0.7671181
0.7521125
0.7350502
0.7154699
0.6927575
0.6661481
0.6345687
0.5963711
0.5491716
0.4893317
0.4080621
0.3009712
0.7791534
0.7656587
0.7504208
0.7330737
0.7131383
0.6900364
0.6629727
0.6307434
0.5916655
0.5432247
0.4790664
0.3935237
0.2751073
0.7904602
0.7783068
0.7646722
0.7492646
0.7317087
0.7115644
0.6882383
0.6608423
0.6281764
0.5885064
0.5373722
0.4714914
0.3825082
0.2560611
0.8009827
0.79001
0.7777729
0.7640376
0.7485071
0.7308443
0.7106008
0.6871119
0.6595071
0.6265666
0.5850739
0.5331966
0.4658258
0.3744109
0.2419833
0.8107212
0.8007839
0.7897614
0.7774647
0.7636569
0.7480766
0.7303816
0.7100658
0.6864859
0.658764
0.6245035
0.5826877
0.5300459
0.4615421
0.368242
0.2290925
0.8197262
0.810698
0.8007332
0.7896776
0.7773406
0.7635179
0.7479446
0.7302297
0.7098891
0.6862778
0.6575541
0.6231674
0.580917
0.5276474
0.4581817
0.3624289
0.2207547
0.8280742
0.8198478
0.8108088
0.8008307
0.7897585
0.7774313
0.763642
0.748084
0.7303875
0.7100694
0.6856758
0.6569237
0.6222671
0.5796182
0.5257464
0.4547387
0.3580912
0.2137177
0.8358551
0.828341
0.820119
0.8110843
0.8011101
0.7900688
0.7777972
0.764052
0.7485468
0.7309141
0.7099782
0.6856077
0.6566691
0.6217117
0.578588
0.5234802
0.4519557
0.3538158
0.2074856
0.8431669
0.836292
0.8287983
0.8205988
0.8115892
0.8016677
0.7907051
0.7785064
0.7648474
0.7494455
0.731332
0.7104583
0.6859562
0.6567508
0.6212963
0.5768346
0.5213077
0.4488513
0.3496254
0.2019714
0.8500992
0.8438037
0.8369664
0.829515
0.8213632
0.81243
0.8026124
0.7917533
0.7796764
0.7661622
0.7504116
0.7324433
0.7115729
0.686933
0.6571754
0.6193792
0.5746516
0.5185916
0.445627
0.3457083
0.1972996
0.8566624
0.850892
0.8446469
0.8378666
0.8304799
0.8224217
0.81361
0.803918
0.7932062
0.7813034
0.7675734
0.7521722
0.7346789
0.7146685
0.6916449
0.8626772
0.8573678
0.8516395
0.8454415
0.8387143
0.8314052
0.823448
0.8147389
0.8051659
0.7945932
0.7824967
0.7690803
0.7540338