/*--------------------------------*- C++ -*----------------------------------*\
| =========                 |                                                 |
| \\      /  F ield         | OpenFOAM: The Open Source CFD Toolbox           |
|  \\    /   O peration     | Version:  2306                                  |
|   \\  /    A nd           | Website:  www.openfoam.com                      |
|    \\/     M anipulation  |                                                 |
\*---------------------------------------------------------------------------*/
FoamFile
{
    version     2.0;
    format      ascii;
    arch        "LSB;label=32;scalar=64";
    class       volScalarField;
    location    "1.5/fuel";
    object      iDmdtfuel.H2O;
}
// * * * * * * * * * * * * * * * * * * * * * * * * * * * * * * * * * * * * * //

dimensions      [1 -3 -1 0 0 0 0];

internalField   nonuniform List<scalar> 
16000
(
87.04111
87.81078
79.47741
83.36419
89.36677
79.96779
84.08066
73.08074
76.3128
80.76672
91.71326
80.93279
85.52819
73.45144
76.77152
81.44767
67.95448
70.32796
74.05884
79.17172
94.76799
82.31961
87.70904
74.17199
77.67379
82.82319
68.25634
70.67615
74.49591
79.83295
63.69557
65.51699
68.35565
72.65534
78.48794
98.06747
83.99632
90.5449
75.18482
78.96958
84.89516
68.83883
71.35268
75.35542
81.16898
63.95119
65.80146
68.68822
73.07977
79.14313
60.03671
61.50947
63.76334
67.11577
72.03108
0
100.5746
85.62852
93.60392
76.36515
80.53492
87.58964
69.64692
72.30305
76.58948
83.1827
64.44208
66.35019
69.33426
73.91446
80.46787
60.25841
61.75104
64.03564
67.43895
72.4507
0
56.82669
58.05844
59.93182
62.65399
66.55197
0
0
102.1715
86.73323
95.92019
77.44872
82.05723
90.49701
70.56762
73.40974
78.08001
85.80488
65.11725
67.11101
70.24151
75.11313
82.46722
60.68269
62.21479
64.56075
68.06673
73.2762
0
57.02229
58.26847
60.16349
62.91885
66.87123
0
0
53.96406
55.02424
56.6273
58.92938
62.14303
0
0
0
103.0851
87.35124
97.39102
78.1196
83.08479
92.69288
71.38156
74.42468
79.5293
88.6398
65.87483
67.97715
71.29765
76.56168
85.07712
61.26264
62.85225
65.28858
68.94836
74.46237
0
57.39568
58.67028
60.60813
63.42958
67.4915
0
0
54.1388
55.20996
56.82907
59.15495
62.40465
0
0
0
51.38188
52.31303
53.7177
55.71494
58.46391
0
0
0
0
103.4975
87.66616
98.23067
78.44441
83.65835
94.08464
71.85486
75.05145
80.50514
90.7778
66.52732
68.74199
72.26572
77.97117
87.90854
61.90619
63.56693
66.1168
69.97484
75.89751
0
57.90368
59.2192
61.21909
64.13741
68.36284
0
0
54.47168
55.56435
57.21498
59.58782
62.90917
0
0
0
51.53953
52.47928
53.8964
55.91158
58.68675
0
0
0
0
49.03066
49.8629
51.11424
52.88261
55.28897
0
0
0
0
0
103.4975
87.79722
98.60934
78.58026
83.9502
94.87836
72.05681
75.35408
81.04892
92.13204
66.88997
69.18551
72.86184
78.91806
90.04308
62.44986
64.18167
66.84754
70.91578
77.296
0
58.4626
59.82778
61.9037
64.94284
69.37796
0
0
54.92291
56.04623
57.74198
60.18253
63.6085
0
0
0
51.83934
52.79585
54.23729
56.28763
59.11441
0
0
0
0
49.17399
50.01316
51.27443
53.05693
55.48329
0
0
0
0
0
46.87409
47.62805
48.75841
50.34643
52.49121
0
0
0
0
0
0
103.0851
87.79722
98.60934
78.6263
84.07156
95.23616
72.1225
75.4803
81.32546
92.90448
67.02898
69.37403
73.14892
79.4452
91.39597
62.74179
64.5223
67.26988
71.49341
78.23365
0
58.92777
60.34117
62.49195
65.65317
70.30893
0
0
55.41596
56.57593
58.32591
60.84881
64.40449
0
0
0
52.2445
53.22473
54.70066
56.80108
59.70201
0
0
0
0
49.4462
50.29881
51.5794
53.38942
55.85491
0
0
0
0
0
47.00524
47.76489
48.90339
50.50283
52.66353
0
0
0
0
0
0
44.88386
45.57484
46.60689
48.04978
49.98554
0
0
0
0
0
0
0
102.1715
87.66616
98.23067
78.6263
84.07156
95.23616
72.13662
75.52297
81.44047
93.25282
67.06185
69.43494
73.26839
79.71341
92.16868
62.84372
64.6522
67.44865
71.77092
78.75546
0
59.17078
60.61592
62.81669
66.06218
70.87862
0
0
55.82136
57.01609
58.81789
61.42087
65.10641
0
0
0
52.68471
53.69293
55.20967
57.36985
60.3604
0
0
0
0
49.81311
50.68461
51.99238
53.84127
56.36234
0
0
0
0
0
47.25404
48.02467
49.17893
50.80053
52.99221
0
0
0
0
0
0
45.00452
45.70025
46.73908
48.19144
50.1402
0
0
0
0
0
0
0
43.03774
43.67706
44.62789
45.95078
47.71601
0
0
0
0
0
0
0
0
100.5746
87.35124
97.39102
78.58026
83.9502
94.87836
72.13662
75.52297
81.44047
93.25282
67.06201
69.44782
73.30871
79.82508
92.51756
62.85908
64.68242
67.50601
71.88628
79.02137
0
59.24886
60.7112
62.93978
66.23455
71.1517
0
0
56.02834
57.24523
59.08012
61.73533
65.5089
0
0
0
53.04302
54.07726
55.63206
57.84858
60.92539
0
0
0
0
50.20983
51.10339
52.44293
54.33748
56.92443
0
0
0
0
0
47.58865
48.37464
49.55093
51.2036
53.43889
0
0
0
0
0
0
45.23319
45.93807
46.98999
48.46063
50.43459
0
0
0
0
0
0
0
43.14926
43.79261
44.74918
46.08005
47.85615
0
0
0
0
0
0
0
0
41.31787
41.9141
42.79663
44.01873
45.64127
0
0
0
0
0
0
0
0
0
98.06747
86.73323
95.92019
78.44441
83.65835
94.08464
72.1225
75.4803
81.32546
92.90448
67.06201
69.44782
73.30871
79.82508
92.51756
62.85245
64.68221
67.51795
71.92518
79.13229
0
59.25408
60.725
62.96792
66.2895
71.26515
0
0
56.08986
57.3182
59.17034
61.85376
65.67774
0
0
0
53.22236
54.27273
55.851
58.10257
61.23448
0
0
0
0
50.52997
51.44367
52.81223
54.74878
57.39719
0
0
0
0
0
47.94895
48.75269
49.95445
51.64317
53.9294
0
0
0
0
0
0
45.54015
46.25774
47.32786
48.824
50.83319
0
0
0
0
0
0
0
43.36045
44.01151
44.97914
46.32537
48.12245
0
0
0
0
0
0
0
0
41.42136
42.02104
42.90851
44.13742
45.76919
0
0
0
0
0
0
0
0
0
39.70966
40.2694
41.09363
42.22967
43.73103
0
0
0
0
0
0
0
0
0
0
94.76799
85.62852
93.60392
78.1196
83.08479
92.69288
72.05681
75.35408
81.04892
92.13204
67.06185
69.43494
73.26839
79.71341
92.16868
62.85245
64.68221
67.51795
71.92518
79.13229
0
59.24395
60.71839
62.96735
66.30076
71.30344
0
0
56.08876
57.32248
59.18284
61.88033
65.73122
0
0
0
53.27187
54.33023
55.92003
58.18919
61.35006
0
0
0
0
50.68741
51.61331
52.99921
54.96092
57.6467
0
0
0
0
0
48.23751
49.05721
50.28183
52.00303
54.3356
0
0
0
0
0
0
45.86945
46.60161
47.69258
49.21801
51.26785
0
0
0
0
0
0
0
43.64346
44.30519
45.28812
46.65565
48.4819
0
0
0
0
0
0
0
0
41.61721
42.22349
43.12041
44.36242
46.01196
0
0
0
0
0
0
0
0
0
39.80604
40.36877
41.19728
42.33923
43.84853
0
0
0
0
0
0
0
0
0
0
38.20105
38.72943
39.50322
40.56481
41.96168
0
0
0
0
0
0
0
0
0
0
91.71326
83.99632
90.5449
77.44872
82.05723
90.49701
71.85486
75.05145
80.50514
90.7778
67.02898
69.37403
73.14892
79.4452
91.39597
62.85908
64.68242
67.50601
71.88628
79.02137
0
59.24395
60.71839
62.96735
66.30076
71.30344
0
0
56.07674
57.31256
59.17615
61.87943
65.74203
0
0
0
53.26666
54.32855
55.92346
58.20062
61.37549
0
0
0
0
50.72784
51.65954
53.05354
55.0271
57.731
0
0
0
0
0
48.37721
49.20634
50.44426
52.18429
54.54396
0
0
0
0
0
0
46.13147
46.87652
47.9859
49.53725
51.62332
0
0
0
0
0
0
0
43.94607
44.61994
45.62025
47.01205
48.87163
0
0
0
0
0
0
0
0
41.87927
42.49463
43.40458
44.66469
46.3388
0
0
0
0
0
0
0
0
0
39.98835
40.55676
41.39345
42.54671
44.07126
0
0
0
0
0
0
0
0
0
0
38.29109
38.82208
39.59962
40.66637
42.07017
0
0
0
0
0
0
0
0
0
0
36.78189
37.28298
38.0126
39.009
40.3147
0
0
0
0
0
0
0
0
0
0
89.36677
82.31961
87.70904
76.36515
80.53492
87.58964
71.38156
74.42468
79.5293
88.6398
66.88997
69.18551
72.86184
78.91806
90.04308
62.84372
64.6522
67.44865
71.77092
78.75546
0
59.25408
60.725
62.96792
66.2895
71.26515
0
0
56.07674
57.31256
59.17615
61.87943
65.74203
0
0
0
53.25364
54.31683
55.9136
58.19377
61.37426
0
0
0
0
50.71985
51.65399
53.0513
55.02975
57.74152
0
0
0
0
0
48.41061
49.24407
50.48791
52.2363
54.60821
0
0
0
0
0
0
46.25649
47.00901
48.12884
49.6948
51.80135
0
0
0
0
0
0
0
44.18547
44.86992
45.88535
47.29828
49.18706
0
0
0
0
0
0
0
0
42.15869
42.78428
43.70892
44.98947
46.69144
0
0
0
0
0
0
0
0
0
40.23195
40.80816
41.65608
42.82489
44.37047
0
0
0
0
0
0
0
0
0
0
38.46135
38.99729
39.78196
40.85858
42.27562
0
0
0
0
0
0
0
0
0
0
36.86625
37.36964
38.10257
39.10353
40.4153
0
0
0
0
0
0
0
0
0
0
35.44357
35.92063
36.61118
37.54991
38.77517
0
0
0
0
0
0
0
0
0
0
87.81078
80.93279
85.52819
75.18482
78.96958
84.89516
70.56762
73.40974
78.08001
85.80488
66.52732
68.74199
72.26572
77.97117
87.90854
62.74179
64.5223
67.26988
71.49341
78.23365
0
59.24886
60.7112
62.93978
66.23455
71.1517
0
0
56.08876
57.32248
59.18284
61.88033
65.73122
0
0
0
53.25364
54.31683
55.9136
58.19377
61.37426
0
0
0
0
50.70634
51.64131
53.03971
55.01982
57.73443
0
0
0
0
0
48.40074
49.2359
50.48197
52.23348
54.61014
0
0
0
0
0
0
46.28434
47.04015
48.16441
49.73651
51.85173
0
0
0
0
0
0
0
44.29822
44.98865
46.01246
47.437
49.34183
0
0
0
0
0
0
0
0
42.37861
43.01298
43.95022
45.24834
46.97434
0
0
0
0
0
0
0
0
0
40.49103
41.07595
41.93643
43.1227
44.69195
0
0
0
0
0
0
0
0
0
0
38.68858
39.23127
40.0257
41.11584
42.55109
0
0
0
0
0
0
0
0
0
0
37.02572
37.53346
38.27266
39.28229
40.60569
0
0
0
0
0
0
0
0
0
0
35.52282
36.00192
36.69541
37.63818
38.86883
0
0
0
0
0
0
0
0
0
0
34.17873
34.63441
35.29005
36.17731
37.33095
0
0
0
0
0
0
0
0
0
0
87.04111
79.96779
84.08066
74.17199
77.67379
82.82319
69.64692
72.30305
76.58948
83.1827
65.87483
67.97715
71.29765
76.56168
85.07712
62.44986
64.18167
66.84754
70.91578
77.296
0
59.17078
60.61592
62.81669
66.06218
70.87862
0
0
56.08986
57.3182
59.17034
61.85376
65.67774
0
0
0
53.26666
54.32855
55.92346
58.20062
61.37549
0
0
0
0
50.70634
51.64131
53.03971
55.01982
57.73443
0
0
0
0
0
48.38705
49.22275
50.46947
52.2219
54.60003
0
0
0
0
0
0
46.2732
47.03021
48.15599
49.73014
51.84832
0
0
0
0
0
0
0
44.32163
45.01457
46.04177
47.47093
49.38216
0
0
0
0
0
0
0
0
42.48096
43.12018
44.06423
45.37178
47.11064
0
0
0
0
0
0
0
0
0
40.69401
41.28631
42.15742
43.3585
44.94789
0
0
0
0
0
0
0
0
0
0
38.92968
39.47987
40.28515
41.39036
42.84596
0
0
0
0
0
0
0
0
0
0
37.23833
37.75197
38.49973
39.52121
40.86052
0
0
0
0
0
0
0
0
0
0
35.67258
36.15553
36.85458
37.80503
39.04595
0
0
0
0
0
0
0
0
0
0
34.25334
34.71084
35.36911
36.25999
37.41843
0
0
0
0
0
0
0
0
0
0
32.981
33.41743
34.04164
34.88259
35.97197
0
0
0
0
0
0
0
0
0
0
79.47741
83.36419
73.45144
76.77152
81.44767
68.83883
71.35268
75.35542
81.16898
65.11725
67.11101
70.24151
75.11313
82.46722
61.90619
63.56693
66.1168
69.97484
75.89751
0
58.92777
60.34117
62.49195
65.65317
70.30893
0
0
56.02834
57.24523
59.08012
61.73533
65.5089
0
0
0
53.27187
54.33023
55.92003
58.18919
61.35006
0
0
0
0
50.71985
51.65399
53.0513
55.02975
57.74152
0
0
0
0
0
48.38705
49.22275
50.46947
52.2219
54.60003
0
0
0
0
0
0
46.25953
47.01688
48.14303
49.71767
51.8366
0
0
0
0
0
0
0
44.30965
45.00343
46.03167
47.46218
49.3753
0
0
0
0
0
0
0
0
42.50077
43.14194
44.0886
45.39969
47.14339
0
0
0
0
0
0
0
0
0
40.78746
41.38374
42.26046
43.46928
45.0692
0
0
0
0
0
0
0
0
0
0
39.11782
39.67427
40.48862
41.60645
43.07916
0
0
0
0
0
0
0
0
0
0
0
37.46344
37.98359
38.74081
39.77542
41.13241
0
0
0
0
0
0
0
0
0
0
35.87205
36.36021
37.06682
38.02774
39.28268
0
0
0
0
0
0
0
0
0
0
34.39433
34.85525
35.51849
36.41622
37.5838
0
0
0
0
0
0
0
0
0
0
33.0514
33.48947
34.11605
34.96024
36.05393
0
0
0
0
0
0
0
0
0
0
31.84487
32.2638
32.85947
33.65846
34.68976
0
0
0
0
0
0
0
0
0
0
73.08074
76.3128
80.76672
68.25634
70.67615
74.49591
79.83295
64.44208
66.35019
69.33426
73.91446
80.46787
61.26264
62.85225
65.28858
68.94836
74.46237
0
58.4626
59.82778
61.9037
64.94284
69.37796
0
0
55.82136
57.01609
58.81789
61.42087
65.10641
0
0
0
53.22236
54.27273
55.851
58.10257
61.23448
0
0
0
0
50.72784
51.65954
53.05354
55.0271
57.731
0
0
0
0
0
48.40074
49.2359
50.48197
52.23348
54.61014
0
0
0
0
0
0
46.25953
47.01688
48.14303
49.71767
51.8366
0
0
0
0
0
0
0
44.29613
44.99011
46.01854
47.44928
49.36272
0
0
0
0
0
0
0
0
42.48826
43.13
44.07735
45.38933
47.13423
0
0
0
0
0
0
0
0
0
40.80433
41.40212
42.28087
43.49243
45.09608
0
0
0
0
0
0
0
0
0
0
39.20357
39.76332
40.58234
41.70663
43.18807
0
0
0
0
0
0
0
0
0
0
0
37.63847
38.16398
38.92901
39.9745
41.3462
0
0
0
0
0
0
0
0
0
0
0
0
36.08286
36.57671
37.29163
38.2641
39.53454
0
0
0
0
0
0
0
0
0
0
34.58195
35.04749
35.71746
36.6245
37.80453
0
0
0
0
0
0
0
0
0
0
33.18443
33.62556
34.25659
35.10694
36.20882
0
0
0
0
0
0
0
0
0
0
31.91142
32.33183
32.92964
33.73157
34.76676
0
0
0
0
0
0
0
0
0
0
30.76537
31.16838
31.73792
32.49864
33.47714
0
0
0
0
0
0
0
0
0
0
67.95448
70.32796
74.05884
79.17172
63.95119
65.80146
68.68822
73.07977
79.14313
60.68269
62.21479
64.56075
68.06673
73.2762
0
57.90368
59.2192
61.21909
64.13741
68.36284
0
0
55.41596
56.57593
58.32591
60.84881
64.40449
0
0
0
53.04302
54.07726
55.63206
57.84858
60.92539
0
0
0
0
50.68741
51.61331
52.99921
54.96092
57.6467
0
0
0
0
0
48.41061
49.24407
50.48791
52.2363
54.60821
0
0
0
0
0
0
46.2732
47.03021
48.15599
49.73014
51.84832
0
0
0
0
0
0
0
44.29613
44.99011
46.01854
47.44928
49.36272
0
0
0
0
0
0
0
0
42.47499
43.11683
44.06424
45.37627
47.12124
0
0
0
0
0
0
0
0
0
40.79153
41.38969
42.26887
43.48099
45.08537
0
0
0
0
0
0
0
0
0
0
39.21803
39.77894
40.59954
41.72597
43.21032
0
0
0
0
0
0
0
0
0
0
0
37.71753
38.24579
39.01474
40.06566
41.4447
0
0
0
0
0
0
0
0
0
0
0
0
36.24625
36.74472
37.46643
38.44835
39.73156
0
0
0
0
0
0
0
0
0
0
0
0
0
34.7799
35.25045
35.92778
36.84503
38.03877
0
0
0
0
0
0
0
0
0
0
33.36131
33.80656
34.44362
35.3023
36.4153
0
0
0
0
0
0
0
0
0
0
32.03719
32.46036
33.06219
33.86967
34.91223
0
0
0
0
0
0
0
0
0
0
30.82839
31.23275
31.80425
32.56763
33.54966
0
0
0
0
0
0
0
0
0
0
29.73828
30.12653
30.67215
31.39774
32.32795
0
0
0
0
0
0
0
0
0
0
63.69557
65.51699
68.35565
72.65534
78.48794
60.25841
61.75104
64.03564
67.43895
72.4507
0
57.39568
58.67028
60.60813
63.42958
67.4915
0
0
54.92291
56.04623
57.74198
60.18253
63.6085
0
0
0
52.68471
53.69293
55.20967
57.36985
60.3604
0
0
0
0
50.52997
51.44367
52.81223
54.74878
57.39719
0
0
0
0
0
48.37721
49.20634
50.44426
52.18429
54.54396
0
0
0
0
0
0
46.28434
47.04015
48.16441
49.73651
51.85173
0
0
0
0
0
0
0
44.30965
45.00343
46.03167
47.46218
49.3753
0
0
0
0
0
0
0
0
42.47499
43.11683
44.06424
45.37627
47.12124
0
0
0
0
0
0
0
0
0
40.77855
41.37674
42.2559
43.46795
45.07225
0
0
0
0
0
0
0
0
0
0
39.20509
39.76624
40.58709
41.71383
43.19858
0
0
0
0
0
0
0
0
0
0
0
37.72996
38.25914
39.02933
40.08193
41.46325
0
0
0
0
0
0
0
0
0
0
0
0
36.31944
36.82022
37.54525
38.53179
39.82123
0
0
0
0
0
0
0
0
0
0
0
0
0
34.93289
35.40745
36.09071
37.01626
38.22117
0
0
0
0
0
0
0
0
0
0
0
0
0
0
33.54766
33.99733
34.64094
35.50873
36.63392
0
0
0
0
0
0
0
0
0
0
32.2043
32.63117
33.23841
34.05339
35.10596
0
0
0
0
0
0
0
0
0
0
30.94752
31.35437
31.92952
32.69793
33.68663
0
0
0
0
0
0
0
0
0
0
29.79808
30.18754
30.73494
31.46297
32.3964
0
0
0
0
0
0
0
0
0
0
28.75988
29.13433
29.65774
30.35105
31.23687
0
0
0
0
0
0
0
0
0
0
60.03671
61.50947
63.76334
67.11577
72.03108
0
57.02229
58.26847
60.16349
62.91885
66.87123
0
0
54.47168
55.56435
57.21498
59.58782
62.90917
0
0
0
52.2445
53.22473
54.70066
56.80108
59.70201
0
0
0
0
50.20983
51.10339
52.44293
54.33748
56.92443
0
0
0
0
0
48.23751
49.05721
50.28183
52.00303
54.3356
0
0
0
0
0
0
46.25649
47.00901
48.12884
49.6948
51.80135
0
0
0
0
0
0
0
44.32163
45.01457
46.04177
47.47093
49.38216
0
0
0
0
0
0
0
0
42.48826
43.13
44.07735
45.38933
47.13423
0
0
0
0
0
0
0
0
0
40.77855
41.37674
42.2559
43.46795
45.07225
0
0
0
0
0
0
0
0
0
0
39.19246
39.75357
40.57434
41.70093
43.18549
0
0
0
0
0
0
0
0
0
0
0
37.71702
38.24632
39.01662
40.06936
41.45085
0
0
0
0
0
0
0
0
0
0
0
0
36.3302
36.83167
37.55768
38.54555
39.83679
0
0
0
0
0
0
0
0
0
0
0
0
0
35.00092
35.47741
36.16351
37.09302
38.30327
0
0
0
0
0
0
0
0
0
0
0
0
0
0
33.69131
34.14449
34.79331
35.66842
36.80348
0
0
0
0
0
0
0
0
0
0
0
0
0
0
0
32.38011
32.81093
33.42402
34.24716
35.31065
0
0
0
0
0
0
0
0
0
0
31.10572
31.51589
32.09594
32.87113
33.86887
0
0
0
0
0
0
0
0
0
0
29.91115
30.30285
30.85357
31.58618
32.52566
0
0
0
0
0
0
0
0
0
0
28.81672
29.19227
29.71731
30.41285
31.3016
0
0
0
0
0
0
0
0
0
0
27.82702
28.1883
28.69099
29.35434
30.19927
0
0
0
0
0
0
0
0
0
0
56.82669
58.05844
59.93182
62.65399
66.55197
0
0
54.1388
55.20996
56.82907
59.15495
62.40465
0
0
0
51.83934
52.79585
54.23729
56.28763
59.11441
0
0
0
0
49.81311
50.68461
51.99238
53.84127
56.36234
0
0
0
0
0
47.94895
48.75269
49.95445
51.64317
53.9294
0
0
0
0
0
0
46.13147
46.87652
47.9859
49.53725
51.62332
0
0
0
0
0
0
0
44.29822
44.98865
46.01246
47.437
49.34183
0
0
0
0
0
0
0
0
42.50077
43.14194
44.0886
45.39969
47.14339
0
0
0
0
0
0
0
0
0
40.79153
41.38969
42.26887
43.48099
45.08537
0
0
0
0
0
0
0
0
0
0
39.19246
39.75357
40.57434
41.70093
43.18549
0
0
0
0
0
0
0
0
0
0
0
37.70475
38.23398
39.00415
40.05668
41.43791
0
0
0
0
0
0
0
0
0
0
0
0
36.31736
36.81885
37.54487
38.53274
39.82399
0
0
0
0
0
0
0
0
0
0
0
0
0
35.01029
35.4873
36.17414
37.10471
38.31639
0
0
0
0
0
0
0
0
0
0
0
0
0
0
33.75477
34.20958
34.86082
35.73935
36.87903
0
0
0
0
0
0
0
0
0
0
0
0
0
0
0
32.51535
32.94925
33.56696
34.39659
35.46884
0
0
0
0
0
0
0
0
0
0
0
0
0
0
0
0
31.27195
31.68565
32.27096
33.0535
34.06106
0
0
0
0
0
0
0
0
0
0
30.06121
30.45588
31.01105
31.74982
32.6975
0
0
0
0
0
0
0
0
0
0
28.92421
29.3018
29.82984
30.52957
31.42386
0
0
0
0
0
0
0
0
0
0
27.88113
28.24342
28.74759
29.41298
30.2606
0
0
0
0
0
0
0
0
0
0
26.93658
27.28553
27.76861
28.40401
29.21099
0
0
0
0
0
0
0
0
0
0
53.96406
55.02424
56.6273
58.92938
62.14303
0
0
0
51.53953
52.47928
53.8964
55.91158
58.68675
0
0
0
0
49.4462
50.29881
51.5794
53.38942
55.85491
0
0
0
0
0
47.58865
48.37464
49.55093
51.2036
53.43889
0
0
0
0
0
0
45.86945
46.60161
47.69258
49.21801
51.26785
0
0
0
0
0
0
0
44.18547
44.86992
45.88535
47.29828
49.18706
0
0
0
0
0
0
0
0
42.48096
43.12018
44.06423
45.37178
47.11064
0
0
0
0
0
0
0
0
0
40.80433
41.40212
42.28087
43.49243
45.09608
0
0
0
0
0
0
0
0
0
0
39.20509
39.76624
40.58709
41.71383
43.19858
0
0
0
0
0
0
0
0
0
0
0
37.70475
38.23398
39.00415
40.05668
41.43791
0
0
0
0
0
0
0
0
0
0
0
0
36.30547
36.80685
37.53271
38.52035
39.81128
0
0
0
0
0
0
0
0
0
0
0
0
0
34.99762
35.47458
36.16135
37.09182
38.30339
0
0
0
0
0
0
0
0
0
0
0
0
0
0
33.76297
34.21816
34.86997
35.74932
36.89014
0
0
0
0
0
0
0
0
0
0
0
0
0
0
0
32.57473
33.01002
33.62982
34.4624
35.53866
0
0
0
0
0
0
0
0
0
0
0
0
0
0
0
0
31.39958
31.81598
32.40541
33.19374
34.20912
0
0
0
0
0
0
0
0
0
0
0
0
0
0
0
0
0
30.21872
30.61653
31.17645
31.92187
32.87843
0
0
0
0
0
0
0
0
0
0
29.06681
29.44708
29.97915
30.68449
31.58625
0
0
0
0
0
0
0
0
0
0
27.98348
28.34763
28.85455
29.52375
30.37645
0
0
0
0
0
0
0
0
0
0
26.98815
27.33803
27.82247
28.45975
29.2692
0
0
0
0
0
0
0
0
0
0
26.08594
26.42308
26.88781
27.49688
28.26849
0
0
0
0
0
0
0
0
0
0
51.38188
52.31303
53.7177
55.71494
58.46391
0
0
0
0
49.17399
50.01316
51.27443
53.05693
55.48329
0
0
0
0
0
47.25404
48.02467
49.17893
50.80053
52.99221
0
0
0
0
0
0
45.54015
46.25774
47.32786
48.824
50.83319
0
0
0
0
0
0
0
43.94607
44.61994
45.62025
47.01205
48.87163
0
0
0
0
0
0
0
0
42.37861
43.01298
43.95022
45.24834
46.97434
0
0
0
0
0
0
0
0
0
40.78746
41.38374
42.26046
43.46928
45.0692
0
0
0
0
0
0
0
0
0
0
39.21803
39.77894
40.59954
41.72597
43.21032
0
0
0
0
0
0
0
0
0
0
0
37.71702
38.24632
39.01662
40.06936
41.45085
0
0
0
0
0
0
0
0
0
0
0
0
36.30547
36.80685
37.53271
38.52035
39.81128
0
0
0
0
0
0
0
0
0
0
0
0
0
34.98611
35.46295
36.14952
37.07974
38.29097
0
0
0
0
0
0
0
0
0
0
0
0
0
0
33.75052
34.20562
34.85729
35.73646
36.87708
0
0
0
0
0
0
0
0
0
0
0
0
0
0
0
32.58194
33.0175
33.63773
34.47095
35.54811
0
0
0
0
0
0
0
0
0
0
0
0
0
0
0
0
31.45534
31.8729
32.46414
33.25505
34.27393
0
0
0
0
0
0
0
0
0
0
0
0
0
0
0
0
0
30.33946
30.73965
31.30322
32.05385
33.01742
0
0
0
0
0
0
0
0
0
0
0
0
0
0
0
0
0
0
29.21634
29.59944
30.13578
30.84715
31.75698
0
0
0
0
0
0
0
0
0
0
28.11921
28.4858
28.99639
29.6707
30.53023
0
0
0
0
0
0
0
0
0
0
27.08575
27.43734
27.92431
28.56508
29.37917
0
0
0
0
0
0
0
0
0
0
26.13517
26.47316
26.93916
27.54995
28.32383
0
0
0
0
0
0
0
0
0
0
25.27265
25.59853
26.04583
26.63029
27.36864
0
0
0
0
0
0
0
0
0
0
49.03066
49.8629
51.11424
52.88261
55.28897
0
0
0
0
0
47.00524
47.76489
48.90339
50.50283
52.66353
0
0
0
0
0
0
45.23319
45.93807
46.98999
48.46063
50.43459
0
0
0
0
0
0
0
43.64346
44.30519
45.28812
46.65565
48.4819
0
0
0
0
0
0
0
0
42.15869
42.78428
43.70892
44.98947
46.69144
0
0
0
0
0
0
0
0
0
40.69401
41.28631
42.15742
43.3585
44.94789
0
0
0
0
0
0
0
0
0
0
39.20357
39.76332
40.58234
41.70663
43.18807
0
0
0
0
0
0
0
0
0
0
0
37.72996
38.25914
39.02933
40.08193
41.46325
0
0
0
0
0
0
0
0
0
0
0
0
36.31736
36.81885
37.54487
38.53274
39.82399
0
0
0
0
0
0
0
0
0
0
0
0
0
34.98611
35.46295
36.14952
37.07974
38.29097
0
0
0
0
0
0
0
0
0
0
0
0
0
0
33.73939
34.19435
34.84582
35.72471
36.86497
0
0
0
0
0
0
0
0
0
0
0
0
0
0
0
32.56975
33.00518
33.62523
34.45822
35.5351
0
0
0
0
0
0
0
0
0
0
0
0
0
0
0
0
31.46173
31.87946
32.47102
33.26242
34.282
0
0
0
0
0
0
0
0
0
0
0
0
0
0
0
0
0
30.39199
30.79315
31.35827
32.11116
33.07781
0
0
0
0
0
0
0
0
0
0
0
0
0
0
0
0
0
0
29.33082
29.71602
30.25562
30.97166
31.88782
0
0
0
0
0
0
0
0
0
0
0
0
0
0
0
0
0
0
0
28.26141
28.63056
29.14503
29.8248
30.69167
0
0
0
0
0
0
0
0
0
0
27.21514
27.56896
28.05928
28.70474
29.52506
0
0
0
0
0
0
0
0
0
0
26.22839
26.56793
27.03626
27.65027
28.42842
0
0
0
0
0
0
0
0
0
0
25.3197
25.64637
26.09483
26.68089
27.42135
0
0
0
0
0
0
0
0
0
0
24.49505
24.80957
25.24036
25.80154
26.50883
0
0
0
0
0
0
0
0
0
0
46.87409
47.62805
48.75841
50.34643
52.49121
0
0
0
0
0
0
45.00452
45.70025
46.73908
48.19144
50.1402
0
0
0
0
0
0
0
43.36045
44.01151
44.97914
46.32537
48.12245
0
0
0
0
0
0
0
0
41.87927
42.49463
43.40458
44.66469
46.3388
0
0
0
0
0
0
0
0
0
40.49103
41.07595
41.93643
43.1227
44.69195
0
0
0
0
0
0
0
0
0
0
39.11782
39.67427
40.48862
41.60645
43.07916
0
0
0
0
0
0
0
0
0
0
0
37.71753
38.24579
39.01474
40.06566
41.4447
0
0
0
0
0
0
0
0
0
0
0
0
36.3302
36.83167
37.55768
38.54555
39.83679
0
0
0
0
0
0
0
0
0
0
0
0
0
34.99762
35.47458
36.16135
37.09182
38.30339
0
0
0
0
0
0
0
0
0
0
0
0
0
0
33.73939
34.19435
34.84582
35.72471
36.86497
0
0
0
0
0
0
0
0
0
0
0
0
0
0
0
32.559
32.99428
33.61411
34.44681
35.52332
0
0
0
0
0
0
0
0
0
0
0
0
0
0
0
0
31.44985
31.8674
32.45874
33.24987
34.26913
0
0
0
0
0
0
0
0
0
0
0
0
0
0
0
0
0
30.3977
30.79894
31.36428
32.11754
33.08475
0
0
0
0
0
0
0
0
0
0
0
0
0
0
0
0
0
0
29.38043
29.76645
30.30739
31.0254
31.94429
0
0
0
0
0
0
0
0
0
0
0
0
0
0
0
0
0
0
0
28.37016
28.74118
29.25858
29.94256
30.81514
0
0
0
0
0
0
0
0
0
0
0
0
0
0
0
0
0
0
0
0
27.35059
27.70673
28.2006
28.85104
29.67805
0
0
0
0
0
0
0
0
0
0
26.35192
26.6935
27.1649
27.78323
28.5671
0
0
0
0
0
0
0
0
0
0
25.40885
25.73694
26.18755
26.77659
27.52098
0
0
0
0
0
0
0
0
0
0
24.54009
24.85532
25.28719
25.84985
26.55909
0
0
0
0
0
0
0
0
0
0
23.75113
24.05467
24.46921
25.00841
25.6864
0
0
0
0
0
0
0
0
0
0
44.88386
45.57484
46.60689
48.04978
49.98554
0
0
0
0
0
0
0
43.14926
43.79261
44.74918
46.08005
47.85615
0
0
0
0
0
0
0
0
41.61721
42.22349
43.12041
44.36242
46.01196
0
0
0
0
0
0
0
0
0
40.23195
40.80816
41.65608
42.82489
44.37047
0
0
0
0
0
0
0
0
0
0
38.92968
39.47987
40.28515
41.39036
42.84596
0
0
0
0
0
0
0
0
0
0
37.63847
38.16398
38.92901
39.9745
41.3462
0
0
0
0
0
0
0
0
0
0
0
0
36.31944
36.82022
37.54525
38.53179
39.82123
0
0
0
0
0
0
0
0
0
0
0
0
0
35.01029
35.4873
36.17414
37.10471
38.31639
0
0
0
0
0
0
0
0
0
0
0
0
0
0
33.75052
34.20562
34.85729
35.73646
36.87708
0
0
0
0
0
0
0
0
0
0
0
0
0
0
0
32.559
32.99428
33.61411
34.44681
35.52332
0
0
0
0
0
0
0
0
0
0
0
0
0
0
0
0
31.43947
31.85686
32.44798
33.23882
34.2577
0
0
0
0
0
0
0
0
0
0
0
0
0
0
0
0
0
30.38614
30.78717
31.35226
32.10522
33.07207
0
0
0
0
0
0
0
0
0
0
0
0
0
0
0
0
0
0
29.38558
29.77162
30.31268
31.03095
31.95027
0
0
0
0
0
0
0
0
0
0
0
0
0
0
0
0
0
0
0
28.41716
28.78886
29.30743
29.99312
30.86811
0
0
0
0
0
0
0
0
0
0
0
0
0
0
0
0
0
0
0
0
27.4541
27.81191
28.30842
28.96266
29.79484
0
0
0
0
0
0
0
0
0
0
0
0
0
0
0
0
0
0
0
0
26.48116
26.82483
27.29948
27.92237
28.71237
0
0
0
0
0
0
0
0
0
0
25.52695
25.85691
26.31035
26.90335
27.65303
0
0
0
0
0
0
0
0
0
0
24.62546
24.94201
25.37586
25.94126
26.65415
0
0
0
0
0
0
0
0
0
0
23.79427
24.09849
24.51403
25.0546
25.7344
0
0
0
0
0
0
0
0
0
0
23.03998
23.33195
23.73094
24.24878
24.89917
0
0
0
0
0
0
0
0
0
0
43.03774
43.67706
44.62789
45.95078
47.71601
0
0
0
0
0
0
0
0
41.42136
42.02104
42.90851
44.13742
45.76919
0
0
0
0
0
0
0
0
0
39.98835
40.55676
41.39345
42.54671
44.07126
0
0
0
0
0
0
0
0
0
0
38.68858
39.23127
40.0257
41.11584
42.55109
0
0
0
0
0
0
0
0
0
0
37.46344
37.98359
38.74081
39.77542
41.13241
0
0
0
0
0
0
0
0
0
0
36.24625
36.74472
37.46643
38.44835
39.73156
0
0
0
0
0
0
0
0
0
0
0
0
0
35.00092
35.47741
36.16351
37.09302
38.30327
0
0
0
0
0
0
0
0
0
0
0
0
0
0
33.76297
34.21816
34.86997
35.74932
36.89014
0
0
0
0
0
0
0
0
0
0
0
0
0
0
0
32.56975
33.00518
33.62523
34.45822
35.5351
0
0
0
0
0
0
0
0
0
0
0
0
0
0
0
0
31.43947
31.85686
32.44798
33.23882
34.2577
0
0
0
0
0
0
0
0
0
0
0
0
0
0
0
0
0
30.37614
30.777
31.34186
32.09452
33.06101
0
0
0
0
0
0
0
0
0
0
0
0
0
0
0
0
0
0
29.37436
29.76017
30.30096
31.0189
31.93783
0
0
0
0
0
0
0
0
0
0
0
0
0
0
0
0
0
0
0
28.42183
28.79351
29.31213
29.998
30.87329
0
0
0
0
0
0
0
0
0
0
0
0
0
0
0
0
0
0
0
0
27.49871
27.85711
28.35463
29.01039
29.84469
0
0
0
0
0
0
0
0
0
0
0
0
0
0
0
0
0
0
0
0
26.57985
26.92501
27.40206
28.02841
28.82312
0
0
0
0
0
0
0
0
0
0
0
0
0
0
0
0
0
0
0
0
25.65045
25.98232
26.43871
27.03592
27.79122
0
0
0
0
0
0
0
0
0
0
24.73853
25.05678
25.49325
26.06231
26.78008
0
0
0
0
0
0
0
0
0
0
23.87611
24.18156
24.59892
25.14204
25.82521
0
0
0
0
0
0
0
0
0
0
23.08137
23.37396
23.77388
24.293
24.94507
0
0
0
0
0
0
0
0
0
0
22.36008
22.64061
23.02376
23.52128
24.14505
0
0
0
0
0
0
0
0
0
0
41.31787
41.9141
42.79663
44.01873
45.64127
0
0
0
0
0
0
0
0
0
39.80604
40.36877
41.19728
42.33923
43.84853
0
0
0
0
0
0
0
0
0
0
38.46135
38.99729
39.78196
40.85858
42.27562
0
0
0
0
0
0
0
0
0
0
37.23833
37.75197
38.49973
39.52121
40.86052
0
0
0
0
0
0
0
0
0
0
36.08286
36.57671
37.29163
38.2641
39.53454
0
0
0
0
0
0
0
0
0
0
34.93289
35.40745
36.09071
37.01626
38.22117
0
0
0
0
0
0
0
0
0
0
0
0
0
0
33.75477
34.20958
34.86082
35.73935
36.87903
0
0
0
0
0
0
0
0
0
0
0
0
0
0
0
32.58194
33.0175
33.63773
34.47095
35.54811
0
0
0
0
0
0
0
0
0
0
0
0
0
0
0
0
31.44985
31.8674
32.45874
33.24987
34.26913
0
0
0
0
0
0
0
0
0
0
0
0
0
0
0
0
0
30.37614
30.777
31.34186
32.09452
33.06101
0
0
0
0
0
0
0
0
0
0
0
0
0
0
0
0
0
0
29.36473
29.75036
30.29091
31.00855
31.92712
0
0
0
0
0
0
0
0
0
0
0
0
0
0
0
0
0
0
0
28.41097
28.7824
29.30072
29.98624
30.86112
0
0
0
0
0
0
0
0
0
0
0
0
0
0
0
0
0
0
0
0
27.50299
27.86132
28.35885
29.01471
29.84922
0
0
0
0
0
0
0
0
0
0
0
0
0
0
0
0
0
0
0
0
26.62232
26.96796
27.44589
28.07359
28.87018
0
0
0
0
0
0
0
0
0
0
0
0
0
0
0
0
0
0
0
0
25.7447
26.07791
26.53647
27.13684
27.89645
0
0
0
0
0
0
0
0
0
0
0
0
0
0
0
0
0
0
0
0
24.85671
25.1767
25.61588
26.1888
26.91176
0
0
0
0
0
0
0
0
0
0
23.98449
24.29153
24.71129
25.2578
25.94548
0
0
0
0
0
0
0
0
0
0
23.15995
23.45364
23.85527
24.37675
25.03195
0
0
0
0
0
0
0
0
0
0
22.39982
22.68094
23.06495
23.56366
24.18899
0
0
0
0
0
0
0
0
0
0
21.71238
21.9792
22.34693
22.82417
23.4227
0
0
0
0
0
0
0
0
0
0
39.70966
40.2694
41.09363
42.22967
43.73103
0
0
0
0
0
0
0
0
0
0
38.29109
38.82208
39.59962
40.66637
42.07017
0
0
0
0
0
0
0
0
0
0
37.02572
37.53346
38.27266
39.28229
40.60569
0
0
0
0
0
0
0
0
0
0
35.87205
36.36021
37.06682
38.02774
39.28268
0
0
0
0
0
0
0
0
0
0
34.7799
35.25045
35.92778
36.84503
38.03877
0
0
0
0
0
0
0
0
0
0
33.69131
34.14449
34.79331
35.66842
36.80348
0
0
0
0
0
0
0
0
0
0
0
0
0
0
0
32.57473
33.01002
33.62982
34.4624
35.53866
0
0
0
0
0
0
0
0
0
0
0
0
0
0
0
0
31.46173
31.87946
32.47102
33.26242
34.282
0
0
0
0
0
0
0
0
0
0
0
0
0
0
0
0
0
30.38614
30.78717
31.35226
32.10522
33.07207
0
0
0
0
0
0
0
0
0
0
0
0
0
0
0
0
0
0
29.36473
29.75036
30.29091
31.00855
31.92712
0
0
0
0
0
0
0
0
0
0
0
0
0
0
0
0
0
0
0
28.4017
28.77294
29.29103
29.97625
30.85077
0
0
0
0
0
0
0
0
0
0
0
0
0
0
0
0
0
0
0
0
27.49248
27.85056
28.34777
29.00327
29.83737
0
0
0
0
0
0
0
0
0
0
0
0
0
0
0
0
0
0
0
0
26.62628
26.97181
27.44971
28.07745
28.87418
0
0
0
0
0
0
0
0
0
0
0
0
0
0
0
0
0
0
0
0
25.78521
26.11883
26.57815
27.17972
27.94101
0
0
0
0
0
0
0
0
0
0
0
0
0
0
0
0
0
0
0
0
24.94689
25.26806
25.70922
26.28503
27.01193
0
0
0
0
0
0
0
0
0
0
0
0
0
0
0
0
0
0
0
0
24.09771
24.40636
24.82861
25.37869
26.07116
0
0
0
0
0
0
0
0
0
0
23.26399
23.55911
23.96299
24.4876
25.14698
0
0
0
0
0
0
0
0
0
0
22.47532
22.75749
23.14306
23.64399
24.27223
0
0
0
0
0
0
0
0
0
0
21.75061
22.01795
22.38649
22.86483
23.46482
0
0
0
0
0
0
0
0
0
0
21.0959
21.34874
21.69909
22.15675
22.7304
0
0
0
0
0
0
0
0
0
0
38.20105
38.72943
39.50322
40.56481
41.96168
0
0
0
0
0
0
0
0
0
0
36.86625
37.36964
38.10257
39.10353
40.4153
0
0
0
0
0
0
0
0
0
0
35.67258
36.15553
36.85458
37.80503
39.04595
0
0
0
0
0
0
0
0
0
0
34.58195
35.04749
35.71746
36.6245
37.80453
0
0
0
0
0
0
0
0
0
0
33.54766
33.99733
34.64094
35.50873
36.63392
0
0
0
0
0
0
0
0
0
0
32.51535
32.94925
33.56696
34.39659
35.46884
0
0
0
0
0
0
0
0
0
0
0
0
0
0
0
0
31.45534
31.8729
32.46414
33.25505
34.27393
0
0
0
0
0
0
0
0
0
0
0
0
0
0
0
0
0
30.3977
30.79894
31.36428
32.11754
33.08475
0
0
0
0
0
0
0
0
0
0
0
0
0
0
0
0
0
0
29.37436
29.76017
30.30096
31.0189
31.93783
0
0
0
0
0
0
0
0
0
0
0
0
0
0
0
0
0
0
0
28.4017
28.77294
29.29103
29.97625
30.85077
0
0
0
0
0
0
0
0
0
0
0
0
0
0
0
0
0
0
0
0
27.48355
27.84145
28.33843
28.99363
29.82736
0
0
0
0
0
0
0
0
0
0
0
0
0
0
0
0
0
0
0
0
26.61613
26.9614
27.43898
28.06635
28.86265
0
0
0
0
0
0
0
0
0
0
0
0
0
0
0
0
0
0
0
0
25.78891
26.12239
26.58164
27.1832
27.94457
0
0
0
0
0
0
0
0
0
0
0
0
0
0
0
0
0
0
0
0
24.98563
25.30712
25.74895
26.32581
27.05423
0
0
0
0
0
0
0
0
0
0
0
0
0
0
0
0
0
0
0
0
24.18409
24.49384
24.91788
25.4706
26.16668
0
0
0
0
0
0
0
0
0
0
0
0
0
0
0
0
0
0
0
0
23.37265
23.6692
24.07541
24.6033
25.26712
0
0
0
0
0
0
0
0
0
0
22.57526
22.8588
23.24642
23.75027
24.38239
0
0
0
0
0
0
0
0
0
0
21.82328
22.09154
22.46157
22.94194
23.54466
0
0
0
0
0
0
0
0
0
0
21.13266
21.38603
21.73711
22.19581
22.77082
0
0
0
0
0
0
0
0
0
0
20.51586
20.74828
21.08127
21.5177
22.06748
0
0
0
0
0
0
0
0
0
0
36.78189
37.28298
38.0126
39.009
40.3147
0
0
0
0
0
0
0
0
0
0
35.52282
36.00192
36.69541
37.63818
38.86883
0
0
0
0
0
0
0
0
0
0
34.39433
34.85525
35.51849
36.41622
37.5838
0
0
0
0
0
0
0
0
0
0
33.36131
33.80656
34.44362
35.3023
36.4153
0
0
0
0
0
0
0
0
0
0
32.38011
32.81093
33.42402
34.24716
35.31065
0
0
0
0
0
0
0
0
0
0
31.39958
31.81598
32.40541
33.19374
34.20912
0
0
0
0
0
0
0
0
0
0
0
0
0
0
0
0
0
30.39199
30.79315
31.35827
32.11116
33.07781
0
0
0
0
0
0
0
0
0
0
0
0
0
0
0
0
0
0
29.38558
29.77162
30.31268
31.03095
31.95027
0
0
0
0
0
0
0
0
0
0
0
0
0
0
0
0
0
0
0
28.41097