/*--------------------------------*- C++ -*----------------------------------*\
| =========                 |                                                 |
| \\      /  F ield         | OpenFOAM: The Open Source CFD Toolbox           |
|  \\    /   O peration     | Version:  2306                                  |
|   \\  /    A nd           | Website:  www.openfoam.com                      |
|    \\/     M anipulation  |                                                 |
\*---------------------------------------------------------------------------*/
FoamFile
{
    version     2.0;
    format      ascii;
    arch        "LSB;label=32;scalar=64";
    class       volScalarField;
    location    "1.5/fuel";
    object      iDmdtfuel.H2;
}
// * * * * * * * * * * * * * * * * * * * * * * * * * * * * * * * * * * * * * //

dimensions      [1 -3 -1 0 0 0 0];

internalField   nonuniform List<scalar> 
16000
(
-9.740036
-9.826162
-8.893646
-9.328582
-10.00028
-8.94852
-9.408756
-8.177848
-8.53952
-9.037921
-10.26286
-9.056505
-9.570738
-8.219329
-8.590852
-9.114121
-7.604212
-7.869808
-8.287299
-8.859438
-10.60469
-9.211692
-9.814778
-8.299961
-8.691818
-9.268044
-7.63799
-7.908771
-8.336208
-8.93343
-7.127633
-7.331453
-7.649103
-8.130245
-8.782922
-10.9739
-9.399318
-10.13211
-8.413297
-8.836818
-9.4999
-7.703172
-7.984475
-8.432389
-9.082935
-7.156237
-7.363286
-7.686319
-8.177739
-8.856238
-6.718201
-6.883005
-7.135217
-7.510359
-8.06039
-0
-11.25446
-9.581965
-10.47442
-8.545379
-9.011983
-9.801416
-7.793598
-8.090823
-8.570482
-9.308273
-7.211169
-7.424689
-7.758611
-8.271143
-9.004479
-6.743009
-6.910037
-7.165687
-7.546523
-8.107346
-0
-6.358994
-6.496829
-6.706463
-7.011079
-7.447269
-0
-0
-11.43315
-9.705583
-10.73362
-8.666632
-9.182331
-10.12676
-7.896626
-8.214663
-8.737274
-9.601699
-7.286721
-7.509826
-7.860133
-8.405275
-9.228209
-6.790487
-6.961931
-7.224448
-7.616773
-8.199721
-0
-6.380883
-6.520332
-6.732388
-7.040717
-7.482994
-0
-0
-6.038662
-6.157298
-6.336682
-6.594289
-6.953902
-0
-0
-0
-11.53538
-9.774739
-10.89821
-8.741705
-9.297317
-10.37248
-7.987707
-8.328238
-8.899452
-9.918932
-7.371496
-7.606749
-7.978317
-8.56737
-9.520261
-6.855385
-7.033264
-7.305893
-7.715428
-8.332455
-0
-6.422665
-6.565295
-6.782143
-7.097868
-7.552403
-0
-0
-6.058216
-6.178081
-6.359261
-6.619531
-6.983177
-0
-0
-0
-5.749712
-5.853909
-6.011094
-6.234588
-6.542202
-0
-0
-0
-0
-11.58153
-9.809979
-10.99216
-8.778051
-9.361499
-10.52822
-8.040671
-8.398373
-9.00865
-10.15818
-7.44451
-7.692336
-8.086647
-8.725095
-9.837102
-6.927399
-7.113238
-7.398572
-7.830293
-8.493049
-0
-6.479511
-6.62672
-6.850511
-7.177076
-7.649908
-0
-0
-6.095466
-6.217737
-6.402445
-6.667969
-7.039634
-0
-0
-0
-5.767353
-5.872513
-6.031091
-6.256592
-6.567139
-0
-0
-0
-0
-5.486607
-5.579736
-5.719763
-5.917647
-6.186921
-0
-0
-0
-0
-0
-11.58153
-9.824645
-11.03454
-8.793253
-9.394157
-10.61704
-8.063269
-8.432239
-9.0695
-10.30972
-7.485091
-7.741966
-8.153353
-8.831054
-10.07596
-6.988236
-7.182029
-7.480343
-7.935585
-8.649542
-0
-6.542056
-6.694821
-6.92712
-7.267204
-7.763501
-0
-0
-6.145958
-6.27166
-6.461417
-6.734519
-7.11789
-0
-0
-0
-5.800902
-5.907938
-6.069237
-6.298673
-6.614994
-0
-0
-0
-0
-5.502646
-5.59655
-5.737689
-5.937153
-6.208666
-0
-0
-0
-0
-0
-5.245283
-5.329653
-5.456142
-5.633843
-5.873848
-0
-0
-0
-0
-0
-0
-11.53538
-9.824645
-11.03454
-8.798405
-9.407738
-10.65707
-8.07062
-8.446363
-9.100445
-10.39616
-7.500647
-7.763062
-8.185477
-8.890041
-10.22735
-7.020903
-7.220146
-7.527604
-8.000223
-8.754467
-0
-6.594108
-6.752271
-6.992946
-7.346691
-7.867678
-0
-0
-6.201132
-6.330934
-6.52676
-6.809076
-7.206962
-0
-0
-0
-5.84624
-5.95593
-6.121088
-6.356129
-6.680748
-0
-0
-0
-0
-5.533106
-5.628515
-5.771815
-5.974359
-6.250251
-0
-0
-0
-0
-0
-5.259959
-5.344965
-5.472365
-5.651345
-5.893131
-0
-0
-0
-0
-0
-0
-5.022573
-5.099895
-5.215383
-5.376845
-5.593459
-0
-0
-0
-0
-0
-0
-0
-11.43315
-9.809979
-10.99216
-8.798405
-9.407738
-10.65707
-8.072199
-8.451137
-9.113315
-10.43514
-7.504325
-7.769877
-8.198847
-8.920055
-10.31382
-7.032309
-7.234681
-7.547609
-8.031278
-8.812859
-0
-6.621302
-6.783016
-7.029285
-7.39246
-7.931427
-0
-0
-6.246496
-6.380189
-6.581813
-6.873091
-7.285508
-0
-0
-0
-5.8955
-6.008322
-6.178048
-6.419775
-6.754422
-0
-0
-0
-0
-5.574164
-5.671686
-5.818028
-6.024922
-6.307033
-0
-0
-0
-0
-0
-5.2878
-5.374036
-5.503198
-5.684658
-5.929911
-0
-0
-0
-0
-0
-0
-5.036075
-5.113929
-5.230176
-5.392696
-5.610766
-0
-0
-0
-0
-0
-0
-0
-4.81599
-4.887531
-4.99393
-5.141964
-5.339496
-0
-0
-0
-0
-0
-0
-0
-0
-11.25446
-9.774739
-10.89821
-8.793253
-9.394157
-10.61704
-8.072199
-8.451137
-9.113315
-10.43514
-7.504343
-7.771318
-8.203358
-8.93255
-10.35286
-7.034028
-7.238063
-7.554028
-8.044186
-8.842614
-0
-6.630039
-6.793677
-7.043059
-7.411749
-7.961986
-0
-0
-6.269658
-6.40583
-6.611157
-6.908279
-7.330548
-0
-0
-0
-5.935596
-6.051329
-6.225314
-6.473346
-6.817645
-0
-0
-0
-0
-5.618558
-5.718548
-5.868446
-6.080448
-6.369932
-0
-0
-0
-0
-0
-5.325244
-5.413198
-5.544826
-5.729762
-5.979895
-0
-0
-0
-0
-0
-0
-5.061665
-5.140541
-5.258252
-5.42282
-5.643709
-0
-0
-0
-0
-0
-0
-0
-4.828469
-4.90046
-5.007503
-5.156429
-5.355177
-0
-0
-0
-0
-0
-0
-0
-0
-4.623534
-4.690253
-4.789009
-4.925764
-5.107329
-0
-0
-0
-0
-0
-0
-0
-0
-0
-10.9739
-9.705583
-10.73362
-8.778051
-9.361499
-10.52822
-8.07062
-8.446363
-9.100445
-10.39616
-7.504343
-7.771318
-8.203358
-8.93255
-10.35286
-7.033286
-7.238039
-7.555363
-8.048539
-8.855026
-0
-6.630624
-6.795222
-7.046208
-7.417898
-7.974681
-0
-0
-6.276543
-6.413995
-6.621252
-6.921531
-7.349441
-0
-0
-0
-5.955665
-6.073203
-6.249813
-6.501767
-6.852233
-0
-0
-0
-0
-5.654381
-5.756626
-5.90977
-6.126474
-6.422834
-0
-0
-0
-0
-0
-5.365561
-5.455501
-5.589981
-5.778951
-6.034784
-0
-0
-0
-0
-0
-0
-5.096014
-5.176313
-5.296061
-5.463482
-5.688313
-0
-0
-0
-0
-0
-0
-0
-4.852102
-4.924957
-5.033236
-5.183881
-5.384976
-0
-0
-0
-0
-0
-0
-0
-0
-4.635114
-4.70222
-4.801528
-4.939046
-5.121644
-0
-0
-0
-0
-0
-0
-0
-0
-0
-4.443573
-4.506208
-4.598441
-4.725566
-4.89357
-0
-0
-0
-0
-0
-0
-0
-0
-0
-0
-10.60469
-9.581965
-10.47442
-8.741705
-9.297317
-10.37248
-8.063269
-8.432239
-9.0695
-10.30972
-7.504325
-7.769877
-8.198847
-8.920055
-10.31382
-7.033286
-7.238039
-7.555363
-8.048539
-8.855026
-0
-6.62949
-6.794482
-7.046144
-7.419158
-7.978966
-0
-0
-6.27642
-6.414475
-6.622651
-6.924505
-7.355425
-0
-0
-0
-5.961205
-6.079636
-6.257539
-6.511461
-6.865167
-0
-0
-0
-0
-5.671999
-5.775609
-5.930693
-6.150212
-6.450755
-0
-0
-0
-0
-0
-5.397853
-5.489578
-5.626615
-5.81922
-6.080238
-0
-0
-0
-0
-0
-0
-5.132863
-5.214792
-5.336874
-5.507572
-5.736952
-0
-0
-0
-0
-0
-0
-0
-4.88377
-4.95782
-5.067811
-5.22084
-5.4252
-0
-0
-0
-0
-0
-0
-0
-0
-4.657031
-4.724875
-4.825241
-4.964224
-5.148809
-0
-0
-0
-0
-0
-0
-0
-0
-0
-4.454358
-4.517328
-4.610039
-4.737825
-4.906718
-0
-0
-0
-0
-0
-0
-0
-0
-0
-0
-4.274757
-4.333883
-4.420471
-4.539265
-4.695578
-0
-0
-0
-0
-0
-0
-0
-0
-0
-0
-10.26286
-9.399318
-10.13211
-8.666632
-9.182331
-10.12676
-8.040671
-8.398373
-9.00865
-10.15818
-7.500647
-7.763062
-8.185477
-8.890041
-10.22735
-7.034028
-7.238063
-7.554028
-8.044186
-8.842614
-0
-6.62949
-6.794482
-7.046144
-7.419158
-7.978966
-0
-0
-6.275075
-6.413364
-6.621903
-6.924404
-7.356635
-0
-0
-0
-5.960621
-6.079449
-6.257922
-6.512739
-6.868013
-0
-0
-0
-0
-5.676524
-5.780783
-5.936774
-6.157617
-6.460188
-0
-0
-0
-0
-0
-5.413484
-5.506266
-5.644791
-5.839503
-6.103553
-0
-0
-0
-0
-0
-0
-5.162183
-5.245555
-5.369696
-5.543295
-5.776729
-0
-0
-0
-0
-0
-0
-0
-4.917634
-4.993041
-5.104977
-5.260721
-5.468811
-0
-0
-0
-0
-0
-0
-0
-0
-4.686356
-4.755215
-4.857039
-4.998048
-5.185383
-0
-0
-0
-0
-0
-0
-0
-0
-0
-4.474758
-4.538365
-4.631991
-4.761042
-4.931642
-0
-0
-0
-0
-0
-0
-0
-0
-0
-0
-4.284833
-4.344251
-4.431259
-4.55063
-4.707717
-0
-0
-0
-0
-0
-0
-0
-0
-0
-0
-4.11595
-4.172023
-4.253669
-4.365168
-4.511277
-0
-0
-0
-0
-0
-0
-0
-0
-0
-0
-10.00028
-9.211692
-9.814778
-8.545379
-9.011983
-9.801416
-7.987707
-8.328238
-8.899452
-9.918932
-7.485091
-7.741966
-8.153353
-8.831054
-10.07596
-7.032309
-7.234681
-7.547609
-8.031278
-8.812859
-0
-6.630624
-6.795222
-7.046208
-7.417898
-7.974681
-0
-0
-6.275075
-6.413364
-6.621903
-6.924404
-7.356635
-0
-0
-0
-5.959164
-6.078138
-6.256818
-6.511973
-6.867875
-0
-0
-0
-0
-5.67563
-5.780162
-5.936522
-6.157914
-6.461366
-0
-0
-0
-0
-0
-5.417222
-5.510488
-5.649675
-5.845323
-6.110743
-0
-0
-0
-0
-0
-0
-5.176173
-5.260381
-5.385691
-5.560925
-5.796651
-0
-0
-0
-0
-0
-0
-0
-4.944423
-5.021013
-5.134641
-5.292751
-5.504109
-0
-0
-0
-0
-0
-0
-0
-0
-4.717623
-4.787627
-4.891095
-5.034391
-5.224844
-0
-0
-0
-0
-0
-0
-0
-0
-0
-4.502018
-4.566496
-4.661379
-4.792172
-4.965125
-0
-0
-0
-0
-0
-0
-0
-0
-0
-0
-4.303885
-4.363857
-4.451663
-4.572138
-4.730707
-0
-0
-0
-0
-0
-0
-0
-0
-0
-0
-4.12539
-4.181721
-4.263736
-4.375745
-4.522535
-0
-0
-0
-0
-0
-0
-0
-0
-0
-0
-3.966191
-4.019575
-4.096848
-4.201894
-4.339002
-0
-0
-0
-0
-0
-0
-0
-0
-0
-0
-9.826162
-9.056505
-9.570738
-8.413297
-8.836818
-9.4999
-7.896626
-8.214663
-8.737274
-9.601699
-7.44451
-7.692336
-8.086647
-8.725095
-9.837102
-7.020903
-7.220146
-7.527604
-8.000223
-8.754467
-0
-6.630039
-6.793677
-7.043059
-7.411749
-7.961986
-0
-0
-6.27642
-6.414475
-6.622651
-6.924505
-7.355425
-0
-0
-0
-5.959164
-6.078138
-6.256818
-6.511973
-6.867875
-0
-0
-0
-0
-5.674118
-5.778743
-5.935226
-6.156804
-6.460572
-0
-0
-0
-0
-0
-5.416118
-5.509574
-5.649011
-5.845007
-6.110959
-0
-0
-0
-0
-0
-0
-5.17929
-5.263866
-5.389672
-5.565593
-5.802289
-0
-0
-0
-0
-0
-0
-0
-4.95704
-5.034299
-5.148866
-5.308274
-5.521427
-0
-0
-0
-0
-0
-0
-0
-0
-4.742232
-4.813219
-4.918097
-5.06336
-5.256502
-0
-0
-0
-0
-0
-0
-0
-0
-0
-4.531009
-4.596463
-4.692751
-4.825497
-5.001098
-0
-0
-0
-0
-0
-0
-0
-0
-0
-0
-4.329312
-4.39004
-4.478938
-4.600926
-4.761533
-0
-0
-0
-0
-0
-0
-0
-0
-0
-0
-4.143235
-4.200052
-4.28277
-4.395749
-4.543839
-0
-0
-0
-0
-0
-0
-0
-0
-0
-0
-3.975058
-4.028671
-4.106273
-4.211771
-4.349482
-0
-0
-0
-0
-0
-0
-0
-0
-0
-0
-3.824653
-3.875644
-3.949011
-4.048297
-4.177391
-0
-0
-0
-0
-0
-0
-0
-0
-0
-0
-9.740036
-8.94852
-9.408756
-8.299961
-8.691818
-9.268044
-7.793598
-8.090823
-8.570482
-9.308273
-7.371496
-7.606749
-7.978317
-8.56737
-9.520261
-6.988236
-7.182029
-7.480343
-7.935585
-8.649542
-0
-6.621302
-6.783016
-7.029285
-7.39246
-7.931427
-0
-0
-6.276543
-6.413995
-6.621252
-6.921531
-7.349441
-0
-0
-0
-5.960621
-6.079449
-6.257922
-6.512739
-6.868013
-0
-0
-0
-0
-5.674118
-5.778743
-5.935226
-6.156804
-6.460572
-0
-0
-0
-0
-0
-5.414586
-5.508102
-5.647612
-5.843711
-6.109828
-0
-0
-0
-0
-0
-0
-5.178043
-5.262753
-5.388729
-5.56488
-5.801908
-0
-0
-0
-0
-0
-0
-0
-4.959659
-5.0372
-5.152146
-5.312071
-5.52594
-0
-0
-0
-0
-0
-0
-0
-0
-4.753685
-4.825215
-4.930856
-5.077173
-5.271754
-0
-0
-0
-0
-0
-0
-0
-0
-0
-4.553723
-4.620003
-4.717481
-4.851883
-5.029738
-0
-0
-0
-0
-0
-0
-0
-0
-0
-0
-4.356291
-4.417859
-4.507971
-4.631646
-4.794529
-0
-0
-0
-0
-0
-0
-0
-0
-0
-0
-4.167026
-4.224504
-4.308179
-4.422484
-4.572355
-0
-0
-0
-0
-0
-0
-0
-0
-0
-0
-3.991817
-4.04586
-4.124085
-4.230442
-4.369302
-0
-0
-0
-0
-0
-0
-0
-0
-0
-0
-3.833002
-3.884197
-3.957859
-4.057549
-4.187181
-0
-0
-0
-0
-0
-0
-0
-0
-0
-0
-3.690625
-3.739463
-3.809313
-3.903416
-4.025319
-0
-0
-0
-0
-0
-0
-0
-0
-0
-0
-8.893646
-9.328582
-8.21933
-8.590852
-9.114121
-7.703172
-7.984475
-8.432389
-9.082935
-7.286721
-7.509826
-7.860133
-8.405275
-9.228209
-6.927399
-7.113238
-7.398572
-7.830293
-8.493049
-0
-6.594108
-6.752271
-6.992946
-7.346691
-7.867678
-0
-0
-6.269658
-6.40583
-6.611157
-6.908279
-7.330548
-0
-0
-0
-5.961205
-6.079636
-6.257539
-6.511461
-6.865167
-0
-0
-0
-0
-5.67563
-5.780162
-5.936522
-6.157914
-6.461366
-0
-0
-0
-0
-0
-5.414586
-5.508102
-5.647612
-5.843711
-6.109828
-0
-0
-0
-0
-0
-0
-5.176513
-5.261261
-5.38728
-5.563485
-5.800596
-0
-0
-0
-0
-0
-0
-0
-4.958318
-5.035954
-5.151015
-5.311092
-5.525173
-0
-0
-0
-0
-0
-0
-0
-0
-4.755902
-4.82765
-4.933583
-5.080296
-5.275418
-0
-0
-0
-0
-0
-0
-0
-0
-0
-4.56418
-4.630905
-4.729011
-4.86428
-5.043313
-0
-0
-0
-0
-0
-0
-0
-0
-0
-0
-4.377344
-4.439612
-4.530739
-4.655827
-4.820625
-0
-0
-0
-0
-0
-0
-0
-0
-0
-0
-0
-4.192217
-4.250423
-4.335157
-4.450931
-4.602781
-0
-0
-0
-0
-0
-0
-0
-0
-0
-0
-4.014138
-4.068763
-4.147834
-4.255363
-4.395793
-0
-0
-0
-0
-0
-0
-0
-0
-0
-0
-3.848779
-3.900357
-3.974574
-4.075031
-4.205686
-0
-0
-0
-0
-0
-0
-0
-0
-0
-0
-3.698502
-3.747524
-3.817639
-3.912105
-4.034491
-0
-0
-0
-0
-0
-0
-0
-0
-0
-0
-3.56349
-3.610369
-3.677025
-3.766434
-3.881838
-0
-0
-0
-0
-0
-0
-0
-0
-0
-0
-8.177848
-8.53952
-9.037921
-7.63799
-7.908771
-8.336208
-8.93343
-7.211169
-7.424689
-7.758611
-8.271143
-9.004479
-6.855385
-7.033264
-7.305893
-7.715428
-8.332455
-0
-6.542056
-6.694821
-6.92712
-7.267204
-7.763501
-0
-0
-6.246496
-6.380189
-6.581813
-6.873091
-7.285508
-0
-0
-0
-5.955665
-6.073203
-6.249813
-6.501767
-6.852233
-0
-0
-0
-0
-5.676524
-5.780783
-5.936774
-6.157617
-6.460188
-0
-0
-0
-0
-0
-5.416118
-5.509574
-5.649011
-5.845007
-6.110959
-0
-0
-0
-0
-0
-0
-5.176513
-5.261261
-5.38728
-5.563485
-5.800596
-0
-0
-0
-0
-0
-0
-0
-4.956805
-5.034463
-5.149546
-5.309648
-5.523765
-0
-0
-0
-0
-0
-0
-0
-0
-4.754502
-4.826314
-4.932324
-5.079136
-5.274393
-0
-0
-0
-0
-0
-0
-0
-0
-0
-4.566068
-4.632961
-4.731294
-4.866871
-5.046321
-0
-0
-0
-0
-0
-0
-0
-0
-0
-0
-4.386941
-4.449577
-4.541227
-4.667036
-4.832812
-0
-0
-0
-0
-0
-0
-0
-0
-0
-0
-0
-4.211803
-4.270609
-4.356217
-4.473208
-4.626704
-0
-0
-0
-0
-0
-0
-0
-0
-0
-0
-0
-0
-4.037728
-4.092991
-4.172991
-4.281812
-4.423976
-0
-0
-0
-0
-0
-0
-0
-0
-0
-0
-3.869774
-3.921869
-3.996839
-4.098338
-4.230386
-0
-0
-0
-0
-0
-0
-0
-0
-0
-0
-3.713389
-3.762752
-3.833366
-3.928521
-4.051823
-0
-0
-0
-0
-0
-0
-0
-0
-0
-0
-3.570937
-3.617982
-3.684878
-3.774615
-3.890455
-0
-0
-0
-0
-0
-0
-0
-0
-0
-0
-3.442692
-3.48779
-3.551523
-3.636649
-3.746144
-0
-0
-0
-0
-0
-0
-0
-0
-0
-0
-7.604212
-7.869808
-8.287299
-8.859438
-7.156237
-7.363286
-7.686319
-8.177739
-8.856238
-6.790487
-6.961931
-7.224448
-7.616773
-8.199721
-0
-6.479511
-6.62672
-6.850511
-7.177076
-7.649908
-0
-0
-6.201132
-6.330934
-6.52676
-6.809076
-7.206962
-0
-0
-0
-5.935596
-6.051329
-6.225314
-6.473346
-6.817645
-0
-0
-0
-0
-5.671999
-5.775609
-5.930693
-6.150212
-6.450755
-0
-0
-0
-0
-0
-5.417222
-5.510488
-5.649675
-5.845323
-6.110743
-0
-0
-0
-0
-0
-0
-5.178043
-5.262753
-5.388729
-5.56488
-5.801908
-0
-0
-0
-0
-0
-0
-0
-4.956805
-5.034463
-5.149546
-5.309648
-5.523765
-0
-0
-0
-0
-0
-0
-0
-0
-4.753017
-4.82484
-4.930857
-5.077675
-5.27294
-0
-0
-0
-0
-0
-0
-0
-0
-0
-4.564635
-4.63157
-4.729953
-4.86559
-5.045123
-0
-0
-0
-0
-0
-0
-0
-0
-0
-0
-4.388558
-4.451325
-4.543151
-4.669201
-4.835301
-0
-0
-0
-0
-0
-0
-0
-0
-0
-0
-0
-4.22065
-4.279763
-4.36581
-4.48341
-4.637727
-0
-0
-0
-0
-0
-0
-0
-0
-0
-0
-0
-0
-4.056011
-4.111791
-4.192551
-4.30243
-4.446023
-0
-0
-0
-0
-0
-0
-0
-0
-0
-0
-0
-0
-0
-3.891925
-3.94458
-4.020374
-4.123016
-4.256597
-0
-0
-0
-0
-0
-0
-0
-0
-0
-0
-3.733183
-3.783006
-3.854294
-3.950382
-4.074929
-0
-0
-0
-0
-0
-0
-0
-0
-0
-0
-3.585011
-3.632365
-3.69971
-3.790068
-3.906733
-0
-0
-0
-0
-0
-0
-0
-0
-0
-0
-3.449745
-3.494993
-3.558944
-3.644369
-3.754259
-0
-0
-0
-0
-0
-0
-0
-0
-0
-0
-3.32776
-3.371205
-3.432261
-3.513456
-3.617548
-0
-0
-0
-0
-0
-0
-0
-0
-0
-0
-7.127633
-7.331453
-7.649103
-8.130245
-8.782922
-6.743009
-6.910037
-7.165687
-7.546523
-8.107346
-0
-6.422665
-6.565295
-6.782143
-7.097868
-7.552403
-0
-0
-6.145958
-6.27166
-6.461417
-6.734519
-7.11789
-0
-0
-0
-5.8955
-6.008322
-6.178048
-6.419775
-6.754422
-0
-0
-0
-0
-5.654381
-5.756626
-5.90977
-6.126474
-6.422834
-0
-0
-0
-0
-0
-5.413484
-5.506266
-5.644791
-5.839503
-6.103553
-0
-0
-0
-0
-0
-0
-5.17929
-5.263866
-5.389672
-5.565593
-5.802289
-0
-0
-0
-0
-0
-0
-0
-4.958318
-5.035954
-5.151015
-5.311092
-5.525173
-0
-0
-0
-0
-0
-0
-0
-0
-4.753017
-4.82484
-4.930857
-5.077675
-5.27294
-0
-0
-0
-0
-0
-0
-0
-0
-0
-4.563183
-4.630121
-4.728501
-4.864131
-5.043654
-0
-0
-0
-0
-0
-0
-0
-0
-0
-0
-4.387111
-4.449903
-4.541758
-4.667842
-4.833988
-0
-0
-0
-0
-0
-0
-0
-0
-0
-0
-0
-4.222041
-4.281257
-4.367442
-4.48523
-4.639802
-0
-0
-0
-0
-0
-0
-0
-0
-0
-0
-0
-0
-4.064202
-4.120239
-4.201372
-4.311767
-4.456057
-0
-0
-0
-0
-0
-0
-0
-0
-0
-0
-0
-0
-0
-3.909045
-3.962149
-4.038606
-4.142177
-4.277009
-0
-0
-0
-0
-0
-0
-0
-0
-0
-0
-0
-0
-0
-0
-3.754035
-3.804354
-3.876374
-3.973482
-4.099393
-0
-0
-0
-0
-0
-0
-0
-0
-0
-0
-3.603711
-3.651478
-3.71943
-3.810627
-3.928411
-0
-0
-0
-0
-0
-0
-0
-0
-0
-0
-3.463076
-3.508603
-3.572962
-3.658949
-3.769586
-0
-0
-0
-0
-0
-0
-0
-0
-0
-0
-3.334452
-3.378033
-3.439288
-3.520755
-3.625207
-0
-0
-0
-0
-0
-0
-0
-0
-0
-0
-3.218276
-3.260176
-3.318748
-3.39633
-3.495454
-0
-0
-0
-0
-0
-0
-0
-0
-0
-0
-6.718201
-6.883005
-7.135217
-7.510359
-8.06039
-0
-6.380883
-6.520332
-6.732388
-7.040717
-7.482994
-0
-0
-6.095466
-6.217737
-6.402445
-6.667969
-7.039634
-0
-0
-0
-5.84624
-5.95593
-6.121088
-6.356129
-6.680748
-0
-0
-0
-0
-5.618558
-5.718548
-5.868446
-6.080448
-6.369932
-0
-0
-0
-0
-0
-5.397853
-5.489578
-5.626615
-5.81922
-6.080238
-0
-0
-0
-0
-0
-0
-5.176173
-5.260381
-5.385691
-5.560925
-5.796651
-0
-0
-0
-0
-0
-0
-0
-4.959659
-5.0372
-5.152146
-5.312071
-5.52594
-0
-0
-0
-0
-0
-0
-0
-0
-4.754502
-4.826314
-4.932324
-5.079136
-5.274393
-0
-0
-0
-0
-0
-0
-0
-0
-0
-4.563183
-4.630121
-4.728501
-4.864131
-5.043654
-0
-0
-0
-0
-0
-0
-0
-0
-0
-0
-4.385697
-4.448486
-4.540331
-4.666399
-4.832523
-0
-0
-0
-0
-0
-0
-0
-0
-0
-0
-0
-4.220593
-4.279822
-4.36602
-4.483823
-4.638414
-0
-0
-0
-0
-0
-0
-0
-0
-0
-0
-0
-0
-4.065406
-4.121521
-4.202762
-4.313306
-4.457798
-0
-0
-0
-0
-0
-0
-0
-0
-0
-0
-0
-0
-0
-3.916657
-3.969977
-4.046752
-4.150766
-4.286196
-0
-0
-0
-0
-0
-0
-0
-0
-0
-0
-0
-0
-0
-0
-3.77011
-3.820821
-3.893425
-3.991352
-4.118367
-0
-0
-0
-0
-0
-0
-0
-0
-0
-0
-0
-0
-0
-0
-0
-3.623384
-3.671594
-3.7402
-3.83231
-3.951317
-0
-0
-0
-0
-0
-0
-0
-0
-0
-0
-3.480778
-3.526677
-3.591585
-3.678331
-3.789979
-0
-0
-0
-0
-0
-0
-0
-0
-0
-0
-3.347104
-3.390936
-3.452562
-3.534542
-3.639672
-0
-0
-0
-0
-0
-0
-0
-0
-0
-0
-3.224636
-3.26666
-3.325413
-3.403245
-3.502697
-0
-0
-0
-0
-0
-0
-0
-0
-0
-0
-3.113887
-3.154315
-3.210567
-3.284797
-3.379345
-0
-0
-0
-0
-0
-0
-0
-0
-0
-0
-6.358994
-6.496829
-6.706463
-7.011079
-7.447269
-0
-0
-6.058216
-6.178081
-6.359261
-6.619531
-6.983177
-0
-0
-0
-5.800902
-5.907938
-6.069237
-6.298673
-6.614994
-0
-0
-0
-0
-5.574164
-5.671686
-5.818028
-6.024922
-6.307033
-0
-0
-0
-0
-0
-5.365561
-5.455501
-5.589981
-5.778951
-6.034784
-0
-0
-0
-0
-0
-0
-5.162183
-5.245555
-5.369696
-5.543295
-5.776729
-0
-0
-0
-0
-0
-0
-0
-4.95704
-5.034299
-5.148866
-5.308274
-5.521427
-0
-0
-0
-0
-0
-0
-0
-0
-4.755902
-4.82765
-4.933583
-5.080296
-5.275418
-0
-0
-0
-0
-0
-0
-0
-0
-0
-4.564635
-4.63157
-4.729953
-4.86559
-5.045123
-0
-0
-0
-0
-0
-0
-0
-0
-0
-0
-4.385697
-4.448486
-4.540331
-4.666399
-4.832523
-0
-0
-0
-0
-0
-0
-0
-0
-0
-0
-0
-4.21922
-4.278441
-4.364625
-4.482405
-4.636966
-0
-0
-0
-0
-0
-0
-0
-0
-0
-0
-0
-0
-4.063969
-4.120087
-4.201329
-4.311874
-4.456366
-0
-0
-0
-0
-0
-0
-0
-0
-0
-0
-0
-0
-0
-3.917706
-3.971083
-4.047942
-4.152074
-4.287663
-0
-0
-0
-0
-0
-0
-0
-0
-0
-0
-0
-0
-0
-0
-3.777211
-3.828105
-3.90098
-3.999289
-4.12682
-0
-0
-0
-0
-0
-0
-0
-0
-0
-0
-0
-0
-0
-0
-0
-3.638518
-3.687072
-3.756195
-3.849032
-3.969018
-0
-0
-0
-0
-0
-0
-0
-0
-0
-0
-0
-0
-0
-0
-0
-0
-3.499379
-3.545673
-3.611171
-3.698737
-3.811486
-0
-0
-0
-0
-0
-0
-0
-0
-0
-0
-3.363896
-3.408061
-3.470184
-3.552854
-3.658901
-0
-0
-0
-0
-0
-0
-0
-0
-0
-0
-3.236664
-3.278916
-3.338005
-3.416306
-3.516378
-0
-0
-0
-0
-0
-0
-0
-0
-0
-0
-3.119941
-3.160482
-3.2169
-3.291358
-3.386209
-0
-0
-0
-0
-0
-0
-0
-0
-0
-0
-3.014245
-3.053293
-3.10735
-3.178453
-3.268755
-0
-0
-0
-0
-0
-0
-0
-0
-0
-0
-6.038662
-6.157298
-6.336682
-6.594289
-6.953902
-0
-0
-0
-5.767353
-5.872513
-6.031091
-6.256592
-6.567139
-0
-0
-0
-0
-5.533106
-5.628515
-5.771815
-5.974359
-6.250251
-0
-0
-0
-0
-0
-5.325244
-5.413198
-5.544826
-5.729762
-5.979895
-0
-0
-0
-0
-0
-0
-5.132863
-5.214792
-5.336874
-5.507572
-5.736952
-0
-0
-0
-0
-0
-0
-0
-4.944423
-5.021013
-5.134641
-5.292751
-5.504109
-0
-0
-0
-0
-0
-0
-0
-0
-4.753685
-4.825215
-4.930856
-5.077173
-5.271754
-0
-0
-0
-0
-0
-0
-0
-0
-0
-4.566068
-4.632961
-4.731294
-4.866871
-5.046321
-0
-0
-0
-0
-0
-0
-0
-0
-0
-0
-4.387111
-4.449903
-4.541758
-4.667842
-4.833988
-0
-0
-0
-0
-0
-0
-0
-0
-0
-0
-0
-4.21922
-4.278441
-4.364625
-4.482405
-4.636966
-0
-0
-0
-0
-0
-0
-0
-0
-0
-0
-0
-0
-4.062638
-4.118744
-4.199969
-4.310487
-4.454944
-0
-0
-0
-0
-0
-0
-0
-0
-0
-0
-0
-0
-0
-3.916288
-3.969661
-4.046511
-4.150632
-4.286209
-0
-0
-0
-0
-0
-0
-0
-0
-0
-0
-0
-0
-0
-0
-3.778128
-3.829065
-3.902004
-4.000404
-4.128064
-0
-0
-0
-0
-0
-0
-0
-0
-0
-0
-0
-0
-0
-0
-0
-3.645163
-3.693873
-3.763229
-3.856396
-3.976831
-0
-0
-0
-0
-0
-0
-0
-0
-0
-0
-0
-0
-0
-0
-0
-0
-3.513662
-3.560258
-3.626216
-3.714431
-3.828054
-0
-0
-0
-0
-0
-0
-0
-0
-0
-0
-0
-0
-0
-0
-0
-0
-0
-3.381521
-3.426038
-3.488693
-3.572106
-3.679147
-0
-0
-0
-0
-0
-0
-0
-0
-0
-0
-3.252621
-3.295174
-3.354713
-3.433642
-3.534551
-0
-0
-0
-0
-0
-0
-0
-0
-0
-0
-3.131395
-3.172144
-3.228869
-3.303753
-3.399172
-0
-0
-0
-0
-0
-0
-0
-0
-0
-0
-3.020015
-3.059168
-3.113378
-3.18469
-3.275269
-0
-0
-0
-0
-0
-0
-0
-0
-0
-0
-2.919057
-2.956783
-3.008788
-3.076944
-3.163288
-0
-0
-0
-0
-0
-0
-0
-0
-0
-0
-5.749712
-5.853909
-6.011094
-6.234588
-6.542202
-0
-0
-0
-0
-5.502646
-5.59655
-5.737689
-5.937153
-6.208666
-0
-0
-0
-0
-0
-5.2878
-5.374036
-5.503198
-5.684658
-5.929911
-0
-0
-0
-0
-0
-0
-5.096014
-5.176313
-5.296061
-5.463482
-5.688313
-0
-0
-0
-0
-0
-0
-0
-4.917634
-4.993041
-5.104977
-5.260721
-5.468811
-0
-0
-0
-0
-0
-0
-0
-0
-4.742232
-4.813219
-4.918097
-5.06336
-5.256502
-0
-0
-0
-0
-0
-0
-0
-0
-0
-4.56418
-4.630905
-4.729011
-4.86428
-5.043313
-0
-0
-0
-0
-0
-0
-0
-0
-0
-0
-4.388558
-4.451325
-4.543151
-4.669201
-4.835301
-0
-0
-0
-0
-0
-0
-0
-0
-0
-0
-0
-4.220593
-4.279822
-4.36602
-4.483823
-4.638414
-0
-0
-0
-0
-0
-0
-0
-0
-0
-0
-0
-0
-4.062638
-4.118744
-4.199969
-4.310487
-4.454944
-0
-0
-0
-0
-0
-0
-0
-0
-0
-0
-0
-0
-0
-3.915
-3.968359
-4.045187
-4.14928
-4.284818
-0
-0
-0
-0
-0
-0
-0
-0
-0
-0
-0
-0
-0
-0
-3.776736
-3.827662
-3.900585
-3.998965
-4.126602
-0
-0
-0
-0
-0
-0
-0
-0
-0
-0
-0
-0
-0
-0
-0
-3.645969
-3.69471
-3.764115
-3.857353
-3.977889
-0
-0
-0
-0
-0
-0
-0
-0
-0
-0
-0
-0
-0
-0
-0
-0
-3.519901
-3.566627
-3.632788
-3.721292
-3.835306
-0
-0
-0
-0
-0
-0
-0
-0
-0
-0
-0
-0
-0
-0
-0
-0
-0
-3.395033
-3.439815
-3.502879
-3.586876
-3.694701
-0
-0
-0
-0
-0
-0
-0
-0
-0
-0
-0
-0
-0
-0
-0
-0
-0
-0
-3.269353
-3.312223
-3.37224
-3.451844
-3.553655
-0
-0
-0
-0
-0
-0
-0
-0
-0
-0
-3.146583
-3.187605
-3.244741
-3.320197
-3.41638
-0
-0
-0
-0
-0
-0
-0
-0
-0
-0
-3.030938
-3.070281
-3.124773
-3.196477
-3.287575
-0
-0
-0
-0
-0
-0
-0
-0
-0
-0
-2.924566
-2.962388
-3.014533
-3.082883
-3.169481
-0
-0
-0
-0
-0
-0
-0
-0
-0
-0
-2.828049
-2.864515
-2.914569
-2.979971
-3.062594
-0
-0
-0
-0
-0
-0
-0
-0
-0
-0
-5.486607
-5.579736
-5.719763
-5.917647
-6.186921
-0
-0
-0
-0
-0
-5.259959
-5.344965
-5.472365
-5.651345
-5.893131
-0
-0
-0
-0
-0
-0
-5.061665
-5.140541
-5.258252
-5.42282
-5.643709
-0
-0
-0
-0
-0
-0
-0
-4.88377
-4.95782
-5.067811
-5.22084
-5.4252
-0
-0
-0
-0
-0
-0
-0
-0
-4.717623
-4.787627
-4.891095
-5.034391
-5.224844
-0
-0
-0
-0
-0
-0
-0
-0
-0
-4.553723
-4.620003
-4.717481
-4.851883
-5.029738
-0
-0
-0
-0
-0
-0
-0
-0
-0
-0
-4.386941
-4.449577
-4.541227
-4.667036
-4.832812
-0
-0
-0
-0
-0
-0
-0
-0
-0
-0
-0
-4.222041
-4.281257
-4.367442
-4.48523
-4.639802
-0
-0
-0
-0
-0
-0
-0
-0
-0
-0
-0
-0
-4.063969
-4.120087
-4.201329
-4.311874
-4.456366
-0
-0
-0
-0
-0
-0
-0
-0
-0
-0
-0
-0
-0
-3.915
-3.968359
-4.045187
-4.14928
-4.284818
-0
-0
-0
-0
-0
-0
-0
-0
-0
-0
-0
-0
-0
-0
-3.77549
-3.826401
-3.899301
-3.99765
-4.125248
-0
-0
-0
-0
-0
-0
-0
-0
-0
-0
-0
-0
-0
-0
-0
-3.644606
-3.693331
-3.762715
-3.855928
-3.976432
-0
-0
-0
-0
-0
-0
-0
-0
-0
-0
-0
-0
-0
-0
-0
-0
-3.520616
-3.567361
-3.633558
-3.722116
-3.836209
-0
-0
-0
-0
-0
-0
-0
-0
-0
-0
-0
-0
-0
-0
-0
-0
-0
-3.40091
-3.445801
-3.509039
-3.593289
-3.701459
-0
-0
-0
-0
-0
-0
-0
-0
-0
-0
-0
-0
-0
-0
-0
-0
-0
-0
-3.282164
-3.325268
-3.385651
-3.465777
-3.568297
-0
-0
-0
-0
-0
-0
-0
-0
-0
-0
-0
-0
-0
-0
-0
-0
-0
-0
-0
-3.162495
-3.203804
-3.261374
-3.337441
-3.434446
-0
-0
-0
-0
-0
-0
-0
-0
-0
-0
-3.045416
-3.085009
-3.139877
-3.212105
-3.3039
-0
-0
-0
-0
-0
-0
-0
-0
-0
-0
-2.934997
-2.972993
-3.025399
-3.094109
-3.181185
-0
-0
-0
-0
-0
-0
-0
-0
-0
-0
-2.833314
-2.869868
-2.920052
-2.985633
-3.068491
-0
-0
-0
-0
-0
-0
-0
-0
-0
-0
-2.741034
-2.776229
-2.824435
-2.887232
-2.966379
-0
-0
-0
-0
-0
-0
-0
-0
-0
-0
-5.245283
-5.329653
-5.456142
-5.633843
-5.873848
-0
-0
-0
-0
-0
-0
-5.036075
-5.113929
-5.230176
-5.392696
-5.610766
-0
-0
-0
-0
-0
-0
-0
-4.852102
-4.924957
-5.033236
-5.183881
-5.384976
-0
-0
-0
-0
-0
-0
-0
-0
-4.686356
-4.755215
-4.857039
-4.998048
-5.185383
-0
-0
-0
-0
-0
-0
-0
-0
-0
-4.531009
-4.596463
-4.692751
-4.825497
-5.001098
-0
-0
-0
-0
-0
-0
-0
-0
-0
-0
-4.377344
-4.439612
-4.530739
-4.655827
-4.820625
-0
-0
-0
-0
-0
-0
-0
-0
-0
-0
-0
-4.22065
-4.279763
-4.36581
-4.48341
-4.637727
-0
-0
-0
-0
-0
-0
-0
-0
-0
-0
-0
-0
-4.065406
-4.121521
-4.202762
-4.313306
-4.457798
-0
-0
-0
-0
-0
-0
-0
-0
-0
-0
-0
-0
-0
-3.916288
-3.969661
-4.046511
-4.150632
-4.286209
-0
-0
-0
-0
-0
-0
-0
-0
-0
-0
-0
-0
-0
-0
-3.77549
-3.826401
-3.899301
-3.99765
-4.125248
-0
-0
-0
-0
-0
-0
-0
-0
-0
-0
-0
-0
-0
-0
-0
-3.643403
-3.692111
-3.761471
-3.854652
-3.975115
-0
-0
-0
-0
-0
-0
-0
-0
-0
-0
-0
-0
-0
-0
-0
-0
-3.519286
-3.566011
-3.632183
-3.720712
-3.834768
-0
-0
-0
-0
-0
-0
-0
-0
-0
-0
-0
-0
-0
-0
-0
-0
-0
-3.40155
-3.446449
-3.509712
-3.594003
-3.702235
-0
-0
-0
-0
-0
-0
-0
-0
-0
-0
-0
-0
-0
-0
-0
-0
-0
-0
-3.287716
-3.330912
-3.391444
-3.471791
-3.574615
-0
-0
-0
-0
-0
-0
-0
-0
-0
-0
-0
-0
-0
-0
-0
-0
-0
-0
-0
-3.174665
-3.216182
-3.274081
-3.350618
-3.448262
-0
-0
-0
-0
-0
-0
-0
-0
-0
-0
-0
-0
-0
-0
-0
-0
-0
-0
-0
-0
-3.060574
-3.100426
-3.15569
-3.228476
-3.321019
-0
-0
-0
-0
-0
-0
-0
-0
-0
-0
-2.94882
-2.987044
-3.039795
-3.108986
-3.196703
-0
-0
-0
-0
-0
-0
-0
-0
-0
-0
-2.84329
-2.880004
-2.930428
-2.996341
-3.079641
-0
-0
-0
-0
-0
-0
-0
-0
-0
-0
-2.746074
-2.781349
-2.829676
-2.892638
-2.972004
-0
-0
-0
-0
-0
-0
-0
-0
-0
-0
-2.657788
-2.691755
-2.738142
-2.79848
-2.874348
-0
-0
-0
-0
-0
-0
-0
-0
-0
-0
-5.022573
-5.099895
-5.215383
-5.376845
-5.593459
-0
-0
-0
-0
-0
-0
-0
-4.828469
-4.90046
-5.007503
-5.156429
-5.355177
-0
-0
-0
-0
-0
-0
-0
-0
-4.657031
-4.724875
-4.825241
-4.964224
-5.148809
-0
-0
-0
-0
-0
-0
-0
-0
-0
-4.502018
-4.566496
-4.661379
-4.792172
-4.965125
-0
-0
-0
-0
-0
-0
-0
-0
-0
-0
-4.356291
-4.417859
-4.507971
-4.631646
-4.794529
-0
-0
-0
-0
-0
-0
-0
-0
-0
-0
-4.211803
-4.270609
-4.356217
-4.473208
-4.626704
-0
-0
-0
-0
-0
-0
-0
-0
-0
-0
-0
-0
-4.064202
-4.120239
-4.201372
-4.311767
-4.456057
-0
-0
-0
-0
-0
-0
-0
-0
-0
-0
-0
-0
-0
-3.917706
-3.971083
-4.047942
-4.152074
-4.287663
-0
-0
-0
-0
-0
-0
-0
-0
-0
-0
-0
-0
-0
-0
-3.776736
-3.827662
-3.900585
-3.998965
-4.126602
-0
-0
-0
-0
-0
-0
-0
-0
-0
-0
-0
-0
-0
-0
-0
-3.643403
-3.692111
-3.761471
-3.854652
-3.975115
-0
-0
-0
-0
-0
-0
-0
-0
-0
-0
-0
-0
-0
-0
-0
-0
-3.518126
-3.564832
-3.630979
-3.719475
-3.83349
-0
-0
-0
-0
-0
-0
-0
-0
-0
-0
-0
-0
-0
-0
-0
-0
-0
-3.400256
-3.445133
-3.508366
-3.592624
-3.700816
-0
-0
-0
-0
-0
-0
-0
-0
-0
-0
-0
-0
-0
-0
-0
-0
-0
-0
-3.288292
-3.33149
-3.392036
-3.472412
-3.575285
-0
-0
-0
-0
-0
-0
-0
-0
-0
-0
-0
-0
-0
-0
-0
-0
-0
-0
-0
-3.179924
-3.221518
-3.279546
-3.356277
-3.454189
-0
-0
-0
-0
-0
-0
-0
-0
-0
-0
-0
-0
-0
-0
-0
-0
-0
-0
-0
-0
-3.072156
-3.112196
-3.167756
-3.240967
-3.334089
-0
-0
-0
-0
-0
-0
-0
-0
-0
-0
-0
-0
-0
-0
-0
-0
-0
-0
-0
-0
-2.963283
-3.00174
-3.054854
-3.124557
-3.212959
-0
-0
-0
-0
-0
-0
-0
-0
-0
-0
-2.856505
-2.893429
-2.944169
-3.010527
-3.094416
-0
-0
-0
-0
-0
-0
-0
-0
-0
-0
-2.755627
-2.791049
-2.839598
-2.902867
-2.982641
-0
-0
-0
-0
-0
-0
-0
-0
-0
-0
-2.662616
-2.696659
-2.743157
-2.803649
-2.879719
-0
-0
-0
-0
-0
-0
-0
-0
-0
-0
-2.578209
-2.610882
-2.655529
-2.713476
-2.786256
-0
-0
-0
-0
-0
-0
-0
-0
-0
-0
-4.81599
-4.887531
-4.99393
-5.141964
-5.339496
-0
-0
-0
-0
-0
-0
-0
-0
-4.635114
-4.70222
-4.801528
-4.939046
-5.121644
-0
-0
-0
-0
-0
-0
-0
-0
-0
-4.474758
-4.538365
-4.631991
-4.761042
-4.931642
-0
-0
-0
-0
-0
-0
-0
-0
-0
-0
-4.329312
-4.39004
-4.478938
-4.600926
-4.761533
-0
-0
-0
-0
-0
-0
-0
-0
-0
-0
-4.192217
-4.250423
-4.335157
-4.450931
-4.602781
-0
-0
-0
-0
-0
-0
-0
-0
-0
-0
-4.056011
-4.111791
-4.192551
-4.30243
-4.446023
-0
-0
-0
-0
-0
-0
-0
-0
-0
-0
-0
-0
-0
-3.916657
-3.969977
-4.046752
-4.150766
-4.286196
-0
-0
-0
-0
-0
-0
-0
-0
-0
-0
-0
-0
-0
-0
-3.778128
-3.829065
-3.902004
-4.000404
-4.128064
-0
-0
-0
-0
-0
-0
-0
-0
-0
-0
-0
-0
-0
-0
-0
-3.644606
-3.693331
-3.762715
-3.855928
-3.976432
-0
-0
-0
-0
-0
-0
-0
-0
-0
-0
-0
-0
-0
-0
-0
-0
-3.518126
-3.564832
-3.630979
-3.719475
-3.83349
-0
-0
-0
-0
-0
-0
-0
-0
-0
-0
-0
-0
-0
-0
-0
-0
-0
-3.399138
-3.443994
-3.507202
-3.591427
-3.699578
-0
-0
-0
-0
-0
-0
-0
-0
-0
-0
-0
-0
-0
-0
-0
-0
-0
-0
-3.287037
-3.330209
-3.390724
-3.471063
-3.573893
-0
-0
-0
-0
-0
-0
-0
-0
-0
-0
-0
-0
-0
-0
-0
-0
-0
-0
-0
-3.180447
-3.222038
-3.280073
-3.356822
-3.454769
-0
-0
-0
-0
-0
-0
-0
-0
-0
-0
-0
-0
-0
-0
-0
-0
-0
-0
-0
-0
-3.077148
-3.117254
-3.172927
-3.246308
-3.339667
-0
-0
-0
-0
-0
-0
-0
-0
-0
-0
-0
-0
-0
-0
-0
-0
-0
-0
-0
-0
-2.974326
-3.01295
-3.066333
-3.136423
-3.225351
-0
-0
-0
-0
-0
-0
-0
-0
-0
-0
-0
-0
-0
-0
-0
-0
-0
-0
-0
-0
-2.870325
-2.907462
-2.958533
-3.025362
-3.109881
-0
-0
-0
-0
-0
-0
-0
-0
-0
-0
-2.76828
-2.803893
-2.852734
-2.916413
-2.996732
-0
-0
-0
-0
-0
-0
-0
-0
-0
-0
-2.671774
-2.705954
-2.752657
-2.813433
-2.889881
-0
-0
-0
-0
-0
-0
-0
-0
-0
-0
-2.582841
-2.615583
-2.660334
-2.718424
-2.791392
-0
-0
-0
-0