/*--------------------------------*- C++ -*----------------------------------*\
| =========                 |                                                 |
| \\      /  F ield         | OpenFOAM: The Open Source CFD Toolbox           |
|  \\    /   O peration     | Version:  2306                                  |
|   \\  /    A nd           | Website:  www.openfoam.com                      |
|    \\/     M anipulation  |                                                 |
\*---------------------------------------------------------------------------*/
FoamFile
{
    version     2.0;
    format      ascii;
    arch        "LSB;label=32;scalar=64";
    class       volScalarField;
    location    "1.5/fuel";
    object      nernst;
}
// * * * * * * * * * * * * * * * * * * * * * * * * * * * * * * * * * * * * * //

dimensions      [1 2 -3 0 0 -1 0];

internalField   nonuniform List<scalar> 
16000
(
-1.785523
-1.786493
-1.771611
-1.785589
-1.788457
-1.77225
-1.786562
-1.759044
-1.771658
-1.785716
-1.791417
-1.773539
-1.78853
-1.759529
-1.772297
-1.786691
-1.748872
-1.759078
-1.771749
-1.7859
-1.795233
-1.775475
-1.791497
-1.760508
-1.773588
-1.788667
-1.749267
-1.759564
-1.772389
-1.78688
-1.740482
-1.748898
-1.759146
-1.771881
-1.786141
-1.799281
-1.777963
-1.795326
-1.761981
-1.775525
-1.791647
-1.750063
-1.760543
-1.773682
-1.788867
-1.740815
-1.749293
-1.759631
-1.772524
-1.787128
-1.733376
-1.740502
-1.74895
-1.759245
-1.772056
-1.786384
-1.802167
-1.780616
-1.799393
-1.763881
-1.778016
-1.795498
-1.751261
-1.762016
-1.775624
-1.791866
-1.741487
-1.750089
-1.760612
-1.773821
-1.789129
-1.733664
-1.740835
-1.749345
-1.759732
-1.772701
-1.787377
-1.727218
-1.733391
-1.740545
-1.749029
-1.759376
-1.772231
-1.786588
-1.803812
-1.782591
-1.802296
-1.765925
-1.780671
-1.799596
-1.752808
-1.763916
-1.778121
-1.795747
-1.742497
-1.751287
-1.762087
-1.775769
-1.792152
-1.734245
-1.741507
-1.750142
-1.760714
-1.774003
-1.789392
-1.727473
-1.733679
-1.740878
-1.749424
-1.759864
-1.772879
-1.787587
-1.721788
-1.727231
-1.733426
-1.740609
-1.749132
-1.759508
-1.77238
-1.786792
-1.80462
-1.783813
-1.803956
-1.767489
-1.782649
-1.802525
-1.754478
-1.765959
-1.780783
-1.799887
-1.743802
-1.752833
-1.763989
-1.778275
-1.796072
-1.735118
-1.742516
-1.75134
-1.762192
-1.77596
-1.79244
-1.727984
-1.73426
-1.74155
-1.750222
-1.760849
-1.774187
-1.789614
-1.722015
-1.727485
-1.733714
-1.740942
-1.749529
-1.759997
-1.77303
-1.787797
-1.716928
-1.721798
-1.72726
-1.73348
-1.740694
-1.749237
-1.75962
-1.772527
-1.786995
-1.804937
-1.78448
-1.804774
-1.7685
-1.783873
-1.804204
-1.755774
-1.767522
-1.782765
-1.802851
-1.745212
-1.754502
-1.766033
-1.780949
-1.800267
-1.736245
-1.74382
-1.752887
-1.764097
-1.778479
-1.796399
-1.728754
-1.735133
-1.742559
-1.751422
-1.762331
-1.776153
-1.792684
-1.722473
-1.727997
-1.734295
-1.741614
-1.750328
-1.760985
-1.774342
-1.789836
-1.717134
-1.722025
-1.727514
-1.733768
-1.741028
-1.749634
-1.76011
-1.773179
-1.788006
-1.712528
-1.716936
-1.721823
-1.727306
-1.733552
-1.74078
-1.749326
-1.75973
-1.772674
-1.787198
-1.804937
-1.784769
-1.805097
-1.769082
-1.784543
-1.805035
-1.75663
-1.768533
-1.783993
-1.804554
-1.746314
-1.755795
-1.767596
-1.782939
-1.803272
-1.737465
-1.745229
-1.754556
-1.766146
-1.781169
-1.800648
-1.729746
-1.736259
-1.743863
-1.75297
-1.764242
-1.778685
-1.796678
-1.723161
-1.728765
-1.735168
-1.742625
-1.75153
-1.762471
-1.776315
-1.792927
-1.717549
-1.722483
-1.728026
-1.734349
-1.741701
-1.750435
-1.7611
-1.774496
-1.790057
-1.712716
-1.717142
-1.72205
-1.72756
-1.733841
-1.741115
-1.749723
-1.760222
-1.773328
-1.788213
-1.708504
-1.712534
-1.716958
-1.721863
-1.727368
-1.733625
-1.740853
-1.749414
-1.759841
-1.772819
-1.788179
-1.80462
-1.784769
-1.805097
-1.769345
-1.784833
-1.805364
-1.757133
-1.769114
-1.784665
-1.8054
-1.747049
-1.756649
-1.768607
-1.784172
-1.805005
-1.73842
-1.746328
-1.755848
-1.76771
-1.783169
-1.803696
-1.730821
-1.737477
-1.745271
-1.754641
-1.766298
-1.781391
-1.800975
-1.724048
-1.729757
-1.736294
-1.743929
-1.753081
-1.764388
-1.778858
-1.796957
-1.718171
-1.72317
-1.728795
-1.735222
-1.742713
-1.751639
-1.762589
-1.776477
-1.793171
-1.713095
-1.717556
-1.722508
-1.728072
-1.734422
-1.741789
-1.750525
-1.761214
-1.774649
-1.790278
-1.708678
-1.712723
-1.717164
-1.72209
-1.727623
-1.733914
-1.741188
-1.749812
-1.760333
-1.773476
-1.789222
-1.704794
-1.708509
-1.712553
-1.716993
-1.721917
-1.727432
-1.733687
-1.740926
-1.749501
-1.75995
-1.773526
-1.788961
-1.803812
-1.78448
-1.804774
-1.769345
-1.784833
-1.805364
-1.757365
-1.769377
-1.784957
-1.805737
-1.747486
-1.757152
-1.769189
-1.784847
-1.80587
-1.739061
-1.747062
-1.756701
-1.768722
-1.784408
-1.805457
-1.731663
-1.738431
-1.746369
-1.755933
-1.767865
-1.7834
-1.80406
-1.725008
-1.73083
-1.737511
-1.745339
-1.754755
-1.76645
-1.781578
-1.801307
-1.718974
-1.724057
-1.729786
-1.736349
-1.744019
-1.753194
-1.764511
-1.779031
-1.797239
-1.713664
-1.718178
-1.723195
-1.728841
-1.735296
-1.742802
-1.751731
-1.762706
-1.776638
-1.793414
-1.709027
-1.713101
-1.717578
-1.722548
-1.728135
-1.734497
-1.741863
-1.750615
-1.761327
-1.774802
-1.791349
-1.704955
-1.708683
-1.712742
-1.717199
-1.722145
-1.727686
-1.733976
-1.741261
-1.7499
-1.760444
-1.774193
-1.790032
-1.701349
-1.704798
-1.708526
-1.712585
-1.717041
-1.721973
-1.727485
-1.733748
-1.740997
-1.749588
-1.760481
-1.774085
-1.789603
-1.802167
-1.783813
-1.803956
-1.769082
-1.784543
-1.805035
-1.757365
-1.769377
-1.784957
-1.805737
-1.747688
-1.757384
-1.769452
-1.785141
-1.806215
-1.739445
-1.747498
-1.757204
-1.769304
-1.785088
-1.80634
-1.732231
-1.73907
-1.747101
-1.756785
-1.768877
-1.784646
-1.805846
-1.725763
-1.731671
-1.738463
-1.746435
-1.756048
-1.76802
-1.783596
-1.804429
-1.719842
-1.725015
-1.730858
-1.737567
-1.745431
-1.754871
-1.766579
-1.781768
-1.801643
-1.714397
-1.71898
-1.724081
-1.729833
-1.736424
-1.74411
-1.753288
-1.764634
-1.779205
-1.797521
-1.709551
-1.71367
-1.7182
-1.723235
-1.728905
-1.735372
-1.742877
-1.751823
-1.762823
-1.776799
-1.794599
-1.705279
-1.709032
-1.71312
-1.717613
-1.722603
-1.728199
-1.734559
-1.741936
-1.750704
-1.76144
-1.775542
-1.792229
-1.701499
-1.704959
-1.7087
-1.712773
-1.717248
-1.722201
-1.72774
-1.734037
-1.741333
-1.749987
-1.760979
-1.774761
-1.790704
-1.698131
-1.701353
-1.704813
-1.708554
-1.712628
-1.717091
-1.722019
-1.727538
-1.733809
-1.741069
-1.750008
-1.760898
-1.774538
-1.790099
-1.799281
-1.782591
-1.802296
-1.7685
-1.783873
-1.804204
-1.757133
-1.769114
-1.784665
-1.8054
-1.747688
-1.757384
-1.769452
-1.785141
-1.806215
-1.739623
-1.7477
-1.757435
-1.769568
-1.785383
-1.806694
-1.732571
-1.739453
-1.747537
-1.757287
-1.76946
-1.785329
-1.806745
-1.726271
-1.732237
-1.739102
-1.747166
-1.756899
-1.769033
-1.784847
-1.80624
-1.720525
-1.725768
-1.731698
-1.738518
-1.746527
-1.756164
-1.768151
-1.783794
-1.804802
-1.715191
-1.719848
-1.725039
-1.730905
-1.737643
-1.745524
-1.754969
-1.766709
-1.781959
-1.801983
-1.710227
-1.714403
-1.719002
-1.724122
-1.729897
-1.7365
-1.744187
-1.753382
-1.764756
-1.779379
-1.798905
-1.705765
-1.709556
-1.713689
-1.718235
-1.723291
-1.728969
-1.735434
-1.742952
-1.751914
-1.76294
-1.777579
-1.795629
-1.701802
-1.705283
-1.709049
-1.713152
-1.717662
-1.722659
-1.728253
-1.734621
-1.742009
-1.750793
-1.761986
-1.776133
-1.792976
-1.698272
-1.701503
-1.704974
-1.708728
-1.712816
-1.717297
-1.722247
-1.727792
-1.734098
-1.741405
-1.75041
-1.7614
-1.775223
-1.791227
-1.695108
-1.698133
-1.701366
-1.704839
-1.708594
-1.712673
-1.717132
-1.722066
-1.72759
-1.733869
-1.741415
-1.750336
-1.761235
-1.774883
-1.790443
-1.795233
-1.780616
-1.799393
-1.767489
-1.782649
-1.802525
-1.75663
-1.768533
-1.783993
-1.804554
-1.747486
-1.757152
-1.769189
-1.784847
-1.80587
-1.739623
-1.7477
-1.757435
-1.769568
-1.785383
-1.806694
-1.73273
-1.739631
-1.747739
-1.757517
-1.769724
-1.785627
-1.807107
-1.726577
-1.732577
-1.739483
-1.747601
-1.757401
-1.769617
-1.785534
-1.807154
-1.720987
-1.726276
-1.732263
-1.739155
-1.747257
-1.757015
-1.769164
-1.785049
-1.806637
-1.715816
-1.72053
-1.725791
-1.731744
-1.738593
-1.746619
-1.756261
-1.768283
-1.783994
-1.80518
-1.710958
-1.715195
-1.719869
-1.72508
-1.73097
-1.737721
-1.745602
-1.755067
-1.76684
-1.782153
-1.803665
-1.706392
-1.710231
-1.714421
-1.719037
-1.724178
-1.729963
-1.736564
-1.744263
-1.753477
-1.764879
-1.780228
-1.800255
-1.702255
-1.705769
-1.709572
-1.71372
-1.718284
-1.723347
-1.729023
-1.735497
-1.743026
-1.752004
-1.763505
-1.778222
-1.796553
-1.698555
-1.701805
-1.705298
-1.709077
-1.713195
-1.717712
-1.722706
-1.728306
-1.734682
-1.742082
-1.751221
-1.762416
-1.776619
-1.793572
-1.695241
-1.698274
-1.701516
-1.705
-1.708767
-1.712861
-1.717338
-1.722293
-1.727845
-1.734159
-1.741752
-1.750739
-1.761739
-1.775575
-1.791595
-1.692255
-1.69511
-1.698145
-1.701389
-1.704875
-1.708634
-1.712709
-1.717173
-1.722111
-1.727642
-1.734161
-1.74168
-1.750598
-1.761488
-1.775117
-1.791417
-1.777963
-1.795326
-1.765925
-1.780671
-1.799596
-1.755774
-1.767522
-1.782765
-1.802851
-1.747049
-1.756649
-1.768607
-1.784172
-1.805005
-1.739445
-1.747498
-1.757204
-1.769304
-1.785088
-1.80634
-1.73273
-1.739631
-1.747739
-1.757517
-1.769724
-1.785627
-1.807107
-1.72672
-1.732736
-1.739661
-1.747803
-1.757631
-1.769881
-1.785833
-1.807523
-1.721265
-1.726581
-1.732602
-1.739536
-1.747691
-1.757516
-1.769748
-1.785739
-1.807566
-1.716238
-1.72099
-1.726298
-1.732308
-1.739229
-1.747348
-1.757111
-1.769297
-1.785253
-1.807039
-1.711534
-1.715819
-1.720549
-1.725831
-1.731808
-1.73867
-1.746696
-1.756359
-1.768416
-1.784196
-1.807048
-1.707071
-1.710961
-1.715213
-1.719904
-1.725137
-1.731037
-1.737786
-1.74568
-1.755166
-1.766973
-1.783102
-1.8056
-1.70284
-1.706395
-1.710247
-1.714453
-1.719087
-1.724235
-1.730017
-1.736628
-1.744339
-1.753571
-1.765477
-1.780994
-1.801626
-1.698981
-1.702258
-1.705784
-1.7096
-1.713764
-1.718335
-1.723394
-1.729077
-1.735559
-1.743099
-1.752443
-1.763958
-1.778773
-1.797332
-1.695508
-1.698558
-1.701818
-1.705324
-1.709116
-1.71324
-1.717753
-1.722752
-1.728359
-1.734743
-1.742432
-1.751553
-1.762764
-1.776994
-1.793999
-1.692381
-1.695243
-1.698286
-1.701539
-1.705036
-1.708808
-1.712898
-1.717379
-1.722339
-1.727897
-1.734452
-1.742018
-1.751001
-1.761994
-1.775814
-1.689553
-1.692257
-1.695121
-1.698167
-1.701422
-1.704912
-1.708667
-1.712746
-1.717214
-1.722157
-1.727893
-1.734381
-1.741891
-1.750794
-1.761658
-1.788457
-1.775475
-1.791497
-1.763881
-1.778016
-1.795498
-1.754478
-1.765959
-1.780783
-1.799887
-1.746314
-1.755795
-1.767596
-1.782939
-1.803272
-1.739061
-1.747062
-1.756701
-1.768722
-1.784408
-1.805457
-1.732571
-1.739453
-1.747537
-1.757287
-1.76946
-1.785329
-1.806745
-1.72672
-1.732736
-1.739661
-1.747803
-1.757631
-1.769881
-1.785833
-1.807523
-1.721395
-1.726724
-1.73276
-1.739713
-1.747892
-1.757746
-1.770013
-1.78604
-1.807943
-1.716493
-1.721267
-1.726602
-1.732646
-1.739609
-1.747781
-1.757611
-1.76988
-1.785946
-1.807982
-1.711924
-1.71624
-1.721009
-1.726336
-1.732371
-1.739305
-1.747424
-1.757208
-1.76943
-1.785459
-1.809017
-1.707605
-1.711536
-1.715836
-1.720584
-1.725887
-1.731874
-1.738734
-1.746774
-1.756458
-1.76855
-1.785187
-1.809155
-1.703473
-1.707073
-1.710977
-1.715245
-1.719954
-1.725195
-1.731092
-1.737851
-1.745759
-1.755266
-1.767621
-1.784107
-1.808
-1.699529
-1.702843
-1.70641
-1.710275
-1.714497
-1.719137
-1.724282
-1.730071
-1.736691
-1.744415
-1.754029
-1.765997
-1.781734
-1.802949
-1.695908
-1.698983
-1.702272
-1.705809
-1.70964
-1.713809
-1.718376
-1.723441
-1.72913
-1.73562
-1.743456
-1.752787
-1.764337
-1.779214
-1.797914
-1.692633
-1.69551
-1.69857
-1.701842
-1.70536
-1.709157
-1.713277
-1.717795
-1.722798
-1.728411
-1.735038
-1.742699
-1.751819
-1.763026
-1.777248
-1.689672
-1.692383
-1.695254
-1.698308
-1.701573
-1.705073
-1.708841
-1.712935
-1.71742
-1.722385
-1.728149
-1.734671
-1.742228
-1.751197
-1.762164
-1.686983
-1.689554
-1.692267
-1.695141
-1.698197
-1.701456
-1.704942
-1.7087
-1.712782
-1.717254
-1.722376
-1.728078
-1.734554
-1.742046
-1.750923
-1.786493
-1.773539
-1.78853
-1.761981
-1.775525
-1.791647
-1.752808
-1.763916
-1.778121
-1.795747
-1.745212
-1.754502
-1.766033
-1.780949
-1.800267
-1.73842
-1.746328
-1.755848
-1.76771
-1.783169
-1.803696
-1.732231
-1.73907
-1.747101
-1.756785
-1.768877
-1.784646
-1.805846
-1.726577
-1.732577
-1.739483
-1.747601
-1.757401
-1.769617
-1.785534
-1.807154
-1.721395
-1.726724
-1.73276
-1.739713
-1.747892
-1.757746
-1.770013
-1.78604
-1.807943
-1.716612
-1.721397
-1.726745
-1.732804
-1.739787
-1.747982
-1.757842
-1.770145
-1.786249
-1.808366
-1.712159
-1.716495
-1.721285
-1.72664
-1.732708
-1.739684
-1.747856
-1.757707
-1.770013
-1.786154
-1.810027
-1.707967
-1.711925
-1.716257
-1.721042
-1.726391
-1.732435
-1.739367
-1.7475
-1.757306
-1.769564
-1.786468
-1.811163
-1.703973
-1.707607
-1.711551
-1.715867
-1.720633
-1.725944
-1.731928
-1.738798
-1.746853
-1.756558
-1.769209
-1.786218
-1.811659
-1.700123
-1.703475
-1.707087
-1.711005
-1.71529
-1.720006
-1.725243
-1.731148
-1.737917
-1.745839
-1.755755
-1.768287
-1.785308
-1.811081
-1.696425
-1.699531
-1.702856
-1.706435
-1.710315
-1.714542
-1.719179
-1.724329
-1.730126
-1.736754
-1.744784
-1.754417
-1.766488
-1.782408
-1.804065
-1.693012
-1.69591
-1.698995
-1.702295
-1.705846
-1.709681
-1.713846
-1.718417
-1.723487
-1.729183
-1.735919
-1.74373
-1.753072
-1.764631
-1.779519
-1.689911
-1.692635
-1.695521
-1.698591
-1.701875
-1.705397
-1.70919
-1.713314
-1.717835
-1.722844
-1.728664
-1.735257
-1.74291
-1.752016
-1.763198
-1.687096
-1.689673
-1.692393
-1.695273
-1.698338
-1.701607
-1.705103
-1.708874
-1.712971
-1.71746
-1.722605
-1.728333
-1.734843
-1.742382
-1.751324
-1.684531
-1.686984
-1.689563
-1.692286
-1.695169
-1.698229
-1.701484
-1.704972
-1.708733
-1.712818
-1.717448
-1.722534
-1.728222
-1.734679
-1.742146
-1.785523
-1.77225
-1.786562
-1.760508
-1.773588
-1.788667
-1.751261
-1.762016
-1.775624
-1.791866
-1.743802
-1.752833
-1.763989
-1.778275
-1.796072
-1.737465
-1.745229
-1.754556
-1.766146
-1.781169
-1.800648
-1.731663
-1.738431
-1.746369
-1.755933
-1.767865
-1.7834
-1.80406
-1.726271
-1.732237
-1.739102
-1.747166
-1.756899
-1.769033
-1.784847
-1.80624
-1.721265
-1.726581
-1.732602
-1.739536
-1.747691
-1.757516
-1.769748
-1.785739
-1.807566
-1.716612
-1.721397
-1.726745
-1.732804
-1.739787
-1.747982
-1.757842
-1.770145
-1.786249
-1.808366
-1.712269
-1.716614
-1.721415
-1.726782
-1.732866
-1.739861
-1.748057
-1.757937
-1.770278
-1.786458
-1.810444
-1.708186
-1.71216
-1.71651
-1.721318
-1.726694
-1.732772
-1.739746
-1.747932
-1.757804
-1.770147
-1.787174
-1.812191
-1.704311
-1.707968
-1.711939
-1.716286
-1.721091
-1.726447
-1.732488
-1.73943
-1.747577
-1.757404
-1.77022
-1.787474
-1.81359
-1.700591
-1.703974
-1.70762
-1.711579
-1.715911
-1.720684
-1.725991
-1.731983
-1.738863
-1.746932
-1.757047
-1.769871
-1.787408
-1.814625
-1.696984
-1.700124
-1.703488
-1.707113
-1.711046
-1.715336
-1.720048
-1.725291
-1.731204
-1.737983
-1.74623
-1.756247
-1.769079
-1.786795
-1.815282
-1.6935
-1.696426
-1.699543
-1.702879
-1.706472
-1.710356
-1.71458
-1.719221
-1.724377
-1.73018
-1.737062
-1.745089
-1.754779
-1.766922
-1.782933
-1.69027
-1.693013
-1.695921
-1.699016
-1.702328
-1.705883
-1.709714
-1.713883
-1.718458
-1.723533
-1.729438
-1.736143
-1.743953
-1.753286
-1.764823
-1.687324
-1.689912
-1.692645
-1.69554
-1.698622
-1.701909
-1.705427
-1.709224
-1.71335
-1.717876
-1.723065
-1.728848
-1.735428
-1.743063
-1.752141
-1.684639
-1.687097
-1.689682
-1.692411
-1.695302
-1.69837
-1.701634
-1.705133
-1.708907
-1.713007
-1.717655
-1.722762
-1.728475
-1.734966
-1.742479
-1.682184
-1.684531
-1.686992
-1.689581
-1.692312
-1.695198
-1.698255
-1.701512
-1.705002
-1.708766
-1.712992
-1.717584
-1.722654
-1.728323
-1.734756
-1.771611
-1.785589
-1.759529
-1.772297
-1.786691
-1.750063
-1.760543
-1.773682
-1.788867
-1.742497
-1.751287
-1.762087
-1.775769
-1.792152
-1.736245
-1.74382
-1.752887
-1.764097
-1.778479
-1.796399
-1.730821
-1.737477
-1.745271
-1.754641
-1.766298
-1.781391
-1.800975
-1.725763
-1.731671
-1.738463
-1.746435
-1.756048
-1.76802
-1.783596
-1.804429
-1.720987
-1.726276
-1.732263
-1.739155
-1.747257
-1.757015
-1.769164
-1.785049
-1.806637
-1.716493
-1.721267
-1.726602
-1.732646
-1.739609
-1.747781
-1.757611
-1.76988
-1.785946
-1.807982
-1.712269
-1.716614
-1.721415
-1.726782
-1.732866
-1.739861
-1.748057
-1.757937
-1.770278
-1.786458
-1.810444
-1.708289
-1.71227
-1.716629
-1.721448
-1.726836
-1.732929
-1.739922
-1.748132
-1.758034
-1.770411
-1.787484
-1.812618
-1.704516
-1.708187
-1.712174
-1.71654
-1.721366
-1.72675
-1.732824
-1.739808
-1.748007
-1.757902
-1.770801
-1.788162
-1.814564
-1.700909
-1.704312
-1.707981
-1.711966
-1.71633
-1.72114
-1.726493
-1.732542
-1.739493
-1.747655
-1.757886
-1.770849
-1.788586
-1.81632
-1.697426
-1.700592
-1.703986
-1.707645
-1.711619
-1.715956
-1.720725
-1.726038
-1.732038
-1.738929
-1.74732
-1.757529
-1.770639
-1.788774
-1.818124
-1.694029
-1.696985
-1.700136
-1.703511
-1.70715
-1.711088
-1.715374
-1.720091
-1.72534
-1.73126
-1.738307
-1.746618
-1.756835
-1.770057
-1.788744
-1.822785
-1.690734
-1.693501
-1.696437
-1.699564
-1.702913
-1.706509
-1.71039
-1.714617
-1.719262
-1.724424
-1.730442
-1.737311
-1.745372
-1.755091
-1.767237
-1.687665
-1.690271
-1.693023
-1.695941
-1.699047
-1.702362
-1.705913
-1.709748
-1.71392
-1.718499
-1.723756
-1.729625
-1.736323
-1.744117
-1.753418
-1.684856
-1.687325
-1.689922
-1.692663
-1.695569
-1.698653
-1.701937
-1.705457
-1.709256
-1.713387
-1.718071
-1.723221
-1.728989
-1.73555
-1.743156
-1.682287
-1.684639
-1.687106
-1.6897
-1.692438
-1.695331
-1.698396
-1.701662
-1.705163
-1.70894
-1.713181
-1.717789
-1.722881
-1.728576
-1.735041
-1.679933
-1.682185
-1.684539
-1.687008
-1.689606
-1.69234
-1.695222
-1.69828
-1.701539
-1.705032
-1.708923
-1.71311
-1.717686
-1.722738
-1.728384
-1.759044
-1.771658
-1.785716
-1.749267
-1.759564
-1.772389
-1.78688
-1.741487
-1.750089
-1.760612
-1.773821
-1.789129
-1.735118
-1.742516
-1.75134
-1.762192
-1.77596
-1.79244
-1.729746
-1.736259
-1.743863
-1.75297
-1.764242
-1.778685
-1.796678
-1.725008
-1.73083
-1.737511
-1.745339
-1.754755
-1.76645
-1.781578
-1.801307
-1.720525
-1.725768
-1.731698
-1.738518
-1.746527
-1.756164
-1.768151
-1.783794
-1.804802
-1.716238
-1.72099
-1.726298
-1.732308
-1.739229
-1.747348
-1.757111
-1.769297
-1.785253
-1.807039
-1.712159
-1.716495
-1.721285
-1.72664
-1.732708
-1.739684
-1.747856
-1.757707
-1.770013
-1.786154
-1.810027
-1.708289
-1.71227
-1.716629
-1.721448
-1.726836
-1.732929
-1.739922
-1.748132
-1.758034
-1.770411
-1.787484
-1.812618
-1.704612
-1.708289
-1.712284
-1.716658
-1.721495
-1.726891
-1.732981
-1.739983
-1.748207
-1.758131
-1.771065
-1.788466
-1.814971
-1.701102
-1.704516
-1.708199
-1.7122
-1.716583
-1.721415
-1.726795
-1.732877
-1.73987
-1.748084
-1.758377
-1.771407
-1.789225
-1.817162
-1.697725
-1.700909
-1.704323
-1.708006
-1.712006
-1.716374
-1.721181
-1.726539
-1.732595
-1.739557
-1.748033
-1.758335
-1.77155
-1.789802
-1.819366
-1.694447
-1.697426
-1.700603
-1.704009
-1.707682
-1.71166
-1.715993
-1.720767
-1.726086
-1.732094
-1.739249
-1.747696
-1.758091
-1.771521
-1.790328
-1.823021
-1.691235
-1.69403
-1.696995
-1.700157
-1.703545
-1.707188
-1.711122
-1.715412
-1.720134
-1.725389
-1.731537
-1.738625
-1.747082
-1.757561
-1.771335
-1.792034
-1.827201
-1.688106
-1.690734
-1.693511
-1.696457
-1.699595
-1.702947
-1.70654
-1.710424
-1.714654
-1.719304
-1.724652
-1.73065
-1.737539
-1.745611
-1.755306
-1.685182
-1.687666
-1.690281
-1.693042
-1.695969
-1.699079
-1.70239
-1.705944
-1.709781
-1.713956
-1.718695
-1.723914
-1.729773
-1.736452
-1.744212
-1.682495
-1.684856
-1.687333
-1.689939
-1.69269
-1.695598
-1.698679
-1.701965
-1.705487
-1.709289
-1.713561
-1.718204
-1.723339
-1.729087
-1.735621
-1.680032
-1.682288
-1.684647
-1.687122
-1.689725
-1.692465
-1.695355
-1.698421
-1.70169
-1.705193
-1.709096
-1.713298
-1.71789
-1.722962
-1.728633
-1.677768
-1.679933
-1.682192
-1.684555
-1.687032
-1.689631
-1.692362
-1.695246
-1.698306
-1.701566
-1.705174
-1.709026
-1.713197
-1.717754
-1.722784
-1.748872
-1.759078
-1.771749
-1.7859
-1.740815
-1.749293
-1.759631
-1.772524
-1.787128
-1.734245
-1.741507
-1.750142
-1.760714
-1.774003
-1.789392
-1.728754
-1.735133
-1.742559
-1.751422
-1.762331
-1.776153
-1.792684
-1.724048
-1.729757
-1.736294
-1.743929
-1.753081
-1.764388
-1.778858
-1.796957
-1.719842
-1.725015
-1.730858
-1.737567
-1.745431
-1.754871
-1.766579
-1.781768
-1.801643
-1.715816
-1.72053
-1.725791
-1.731744
-1.738593
-1.746619
-1.756261
-1.768283
-1.783994
-1.80518
-1.711924
-1.71624
-1.721009
-1.726336
-1.732371
-1.739305
-1.747424
-1.757208
-1.76943
-1.785459
-1.809017
-1.708186
-1.71216
-1.71651
-1.721318
-1.726694
-1.732772
-1.739746
-1.747932
-1.757804
-1.770147
-1.787174
-1.812191
-1.704612
-1.708289
-1.712284
-1.716658
-1.721495
-1.726891
-1.732981
-1.739983
-1.748207
-1.758131
-1.771065
-1.788466
-1.814971
-1.701192
-1.704612
-1.708302
-1.71231
-1.716701
-1.721544
-1.726936
-1.733033
-1.740045
-1.748283
-1.758604
-1.771661
-1.789508
-1.817517
-1.697907
-1.701101
-1.704527
-1.708223
-1.712239
-1.716626
-1.721455
-1.72684
-1.732929
-1.739933
-1.748456
-1.758804
-1.772065
-1.790359
-1.819997
-1.694731
-1.697725
-1.70092
-1.704345
-1.708041
-1.712046
-1.716411
-1.721222
-1.726586
-1.73265
-1.739869
-1.74838
-1.75884
-1.77232
-1.791115
-1.823449
-1.691632
-1.694447
-1.697436
-1.700624
-1.704042
-1.707719
-1.711694
-1.716031
-1.72081
-1.726135
-1.732366
-1.739555
-1.748136
-1.758738
-1.772523
-1.792399
-1.826827
-1.688583
-1.691236
-1.694039
-1.697015
-1.700189
-1.70358
-1.707219
-1.711157
-1.715451
-1.720177
-1.725629
-1.731804
-1.739007
-1.747658
-1.758511
-1.773448
-1.793994
-1.83061
-1.685602
-1.688106
-1.690743
-1.693529
-1.696485
-1.699627
-1.702975
-1.706571
-1.710457
-1.714691
-1.719505
-1.724828
-1.730838
-1.737729
-1.745766
-1.682806
-1.685182
-1.687674
-1.690298
-1.693068
-1.695999
-1.699104
-1.702418
-1.705974
-1.709814
-1.714131
-1.71883
-1.724037
-1.729876
-1.736522
-1.680231
-1.682495
-1.684864
-1.687349
-1.689964
-1.692717
-1.695622
-1.698705
-1.701992
-1.705517
-1.709446
-1.713676
-1.718304
-1.723418
-1.72914
-1.677863
-1.680032
-1.682295
-1.684662
-1.687145
-1.68975
-1.692487
-1.695379
-1.698446
-1.701717
-1.705335
-1.709198
-1.713384
-1.717957
-1.723006
-1.675681
-1.677768
-1.67994
-1.682207
-1.684577
-1.687056
-1.689652
-1.692384
-1.69527
-1.698331
-1.701697
-1.705265
-1.7091
-1.713254
-1.71779
-1.740482
-1.748898
-1.759146
-1.771881
-1.786141
-1.733664
-1.740835
-1.749345
-1.759732
-1.772701
-1.787377
-1.727984
-1.73426
-1.74155
-1.750222
-1.760849
-1.774187
-1.789614
-1.723161
-1.728765
-1.735168
-1.742625
-1.75153
-1.762471
-1.776315
-1.792927
-1.718974
-1.724057
-1.729786
-1.736349
-1.744019
-1.753194
-1.764511
-1.779031
-1.797239
-1.715191
-1.719848
-1.725039
-1.730905
-1.737643
-1.745524
-1.754969
-1.766709
-1.781959
-1.801983
-1.711534
-1.715819
-1.720549
-1.725831
-1.731808
-1.73867
-1.746696
-1.756359
-1.768416
-1.784196
-1.807048
-1.707967
-1.711925
-1.716257
-1.721042
-1.726391
-1.732435
-1.739367
-1.7475
-1.757306
-1.769564
-1.786468
-1.811163
-1.704516
-1.708187
-1.712174
-1.71654
-1.721366
-1.72675
-1.732824
-1.739808
-1.748007
-1.757902
-1.770801
-1.788162
-1.814564
-1.701192
-1.704612
-1.708302
-1.71231
-1.716701
-1.721544
-1.726936
-1.733033
-1.740045
-1.748283
-1.758604
-1.771661
-1.789508
-1.817517
-1.697992
-1.701192
-1.704623
-1.708325
-1.712349
-1.716744
-1.721584
-1.726981
-1.733085
-1.740107
-1.748652
-1.75902
-1.7723
-1.790608
-1.82027
-1.694903
-1.697907
-1.701112
-1.704549
-1.708259
-1.712279
-1.716662
-1.721495
-1.726886
-1.732983
-1.740238
-1.748782
-1.759272
-1.772771
-1.791558
-1.823763
-1.691901
-1.69473
-1.697735
-1.70094
-1.704378
-1.708078
-1.712079
-1.716447
-1.721263
-1.726633
-1.732914
-1.740149
-1.748772
-1.759397
-1.773152
-1.792795
-1.826824
-1.688961
-1.691632
-1.694456
-1.697455
-1.700655
-1.704077
-1.70775
-1.711727
-1.716069
-1.720853
-1.726371
-1.732623
-1.739916
-1.748646
-1.759475
-1.773822
-1.794079
-1.830077
-1.686057
-1.688583
-1.691245
-1.694058
-1.697045
-1.700221
-1.703609
-1.707251
-1.711191
-1.715489
-1.720389
-1.725859
-1.732127
-1.739482
-1.748413
-1.760062
-1.774684
-1.795567
-1.833356
-1.683208
-1.685602
-1.688115
-1.69076
-1.693556
-1.696515
-1.699653
-1.703003
-1.706601
-1.710491
-1.714871
-1.719656
-1.724986
-1.730992
-1.737845
-1.680529
-1.682807
-1.68519
-1.68769
-1.690323
-1.693096
-1.696023
-1.69913
-1.702446
-1.706003
-1.709971
-1.714248
-1.718934
-1.72412
-1.729927
-1.678053
-1.680231
-1.682503
-1.68488
-1.687373
-1.68999
-1.69274
-1.695646
-1.69873
-1.702019
-1.70566
-1.709547
-1.713761
-1.718368
-1.723457
-1.675772
-1.677863
-1.680039
-1.68231
-1.684685
-1.687169
-1.689771
-1.692509
-1.695402
-1.698472
-1.701847
-1.705425
-1.709272
-1.713438
-1.71799
-1.673665
-1.675681
-1.677775
-1.679954
-1.682228
-1.6846
-1.687076
-1.689673
-1.692406
-1.695293
-1.698451
-1.701778
-1.70533
-1.709147
-1.71328
-1.733376
-1.740502
-1.74895
-1.759245
-1.772056
-1.786384
-1.727473
-1.733679
-1.740878
-1.749424
-1.759864
-1.772879
-1.787587
-1.722473
-1.727997
-1.734295
-1.741614
-1.750328
-1.760985
-1.774342
-1.789836
-1.718171
-1.72317
-1.728795
-1.735222
-1.742713
-1.751639
-1.762589
-1.776477
-1.793171
-1.714397
-1.71898
-1.724081
-1.729833
-1.736424
-1.74411
-1.753288
-1.764634
-1.779205
-1.797521
-1.710958
-1.715195
-1.719869
-1.72508
-1.73097
-1.737721
-1.745602
-1.755067
-1.76684
-1.782153
-1.803665
-1.707605
-1.711536
-1.715836
-1.720584
-1.725887
-1.731874
-1.738734
-1.746774
-1.756458
-1.76855
-1.785187
-1.809155
-1.704311
-1.707968
-1.711939
-1.716286
-1.721091
-1.726447
-1.732488
-1.73943
-1.747577
-1.757404
-1.77022
-1.787474
-1.81359
-1.701102
-1.704516
-1.708199
-1.7122
-1.716583
-1.721415
-1.726795
-1.732877
-1.73987
-1.748084
-1.758377
-1.771407
-1.789225
-1.817162
-1.697992
-1.701192
-1.704623
-1.708325
-1.712349
-1.716744
-1.721584
-1.726981
-1.733085
-1.740107
-1.748652
-1.75902
-1.7723
-1.790608
-1.82027
-1.694984
-1.697992
-1.701202
-1.704645
-1.708361
-1.712388
-1.71678
-1.721623
-1.727026
-1.733138
-1.740409
-1.748969
-1.759472
-1.77298
-1.791762
-1.82392
-1.692065
-1.694902
-1.697916
-1.701132
-1.704582
-1.708295
-1.712311
-1.716698
-1.721536
-1.726932
-1.733241
-1.7405
-1.749143
-1.759778
-1.773521
-1.793081
-1.826911
-1.689218
-1.691901
-1.694739
-1.697754
-1.700971
-1.704412
-1.708108
-1.712112
-1.716484
-1.721305
-1.726862
-1.733148
-1.740468
-1.749207
-1.760002
-1.774184
-1.794278
-1.829868
-1.686417
-1.68896
-1.69164
-1.694474
-1.697484
-1.700687
-1.704105
-1.707781
-1.711762
-1.716107
-1.721061
-1.726592
-1.732928
-1.740336
-1.749228
-1.760412
-1.77485
-1.795577
-1.832806
-1.683644
-1.686057
-1.688592
-1.691262
-1.694085
-1.697075
-1.700248
-1.703638
-1.707283
-1.711227
-1.715679
-1.720589
-1.726137
-1.73253
-1.740108
-1.749635
-1.760959
-1.775678
-1.796877
-1.835584
-1.680914
-1.683208
-1.68561
-1.688131
-1.690786
-1.693584
-1.696539
-1.699679
-1.703031
-1.706632
-1.710652
-1.715002
-1.719791
-1.725113
-1.731081
-1.67834
-1.680529
-1.682814
-1.685205
-1.687714
-1.690349
-1.693118
-1.696046
-1.699155
-1.702473
-1.706147
-1.710073
-1.714335
-1.719001
-1.724156
-1.675956
-1.678054
-1.680238
-1.682517
-1.684902
-1.687397
-1.690011
-1.692762
-1.695669
-1.698755
-1.70215
-1.705748
-1.709619
-1.713813
-1.718396
-1.673753
-1.675772
-1.677869
-1.680053
-1.682331
-1.684708
-1.687189
-1.689792
-1.692531
-1.695426
-1.698592
-1.701927
-1.705489
-1.709317
-1.713463
-1.671715
-1.673665
-1.675687
-1.677788
-1.679974
-1.682249
-1.684618
-1.687095
-1.689693
-1.692428
-1.695404
-1.698523
-1.701834
-1.705369
-1.709166
-1.727218
-1.733391
-1.740545
-1.749029
-1.759376
-1.772231
-1.786588
-1.722015
-1.727485
-1.733714
-1.740942
-1.749529
-1.759997
-1.77303
-1.787797
-1.717549
-1.722483
-1.728026
-1.734349
-1.741701
-1.750435
-1.7611
-1.774496
-1.790057
-1.713664
-1.718178
-1.723195
-1.728841
-1.735296
-1.742802
-1.751731
-1.762706
-1.776638
-1.793414
-1.710227
-1.714403
-1.719002
-1.724122
-1.729897
-1.7365
-1.744187
-1.753382
-1.764756
-1.779379
-1.798905
-1.707071
-1.710961
-1.715213
-1.719904
-1.725137
-1.731037
-1.737786
-1.74568
-1.755166
-1.766973
-1.783102
-1.8056
-1.703973
-1.707607
-1.711551
-1.715867
-1.720633
-1.725944
-1.731928
-1.738798
-1.746853
-1.756558
-1.769209
-1.786218
-1.811659
-1.700909
-1.704312
-1.707981
-1.711966
-1.71633
-1.72114
-1.726493
-1.732542
-1.739493
-1.747655
-1.757886
-1.770849
-1.788586
-1.81632
-1.697907
-1.701101
-1.704527
-1.708223
-1.712239
-1.716626
-1.721455
-1.72684
-1.732929
-1.739933
-1.748456
-1.758804
-1.772065
-1.790359
-1.819997
-1.694984
-1.697992
-1.701202
-1.704645
-1.708361
-1.712388
-1.71678
-1.721623
-1.727026
-1.733138
-1.740409
-1.748969
-1.759472
-1.77298
-1.791762
-1.82392
-1.692142
-1.694983
-1.698001
-1.701222
-1.704677
-1.708397
-1.71242
-1.716816
-1.721663
-1.727072
-1.733394
-1.740664
-1.749315
-1.759956
-1.773697
-1.793226
-1.826974
-1.689373
-1.692064
-1.694911
-1.697935
-1.701162
-1.704615
-1.708324
-1.712344
-1.716734
-1.721576
-1.727156
-1.73346
-1.740792
-1.749535
-1.760318
-1.77444
-1.794457
-1.82981
-1.686663
-1.689217
-1.691909
-1.694757
-1.697782
-1.701002
-1.70444
-1.708138
-1.712145
-1.716521
-1.721506
-1.727063
-1.733417
-1.740825
-1.749681
-1.760733
-1.775066
-1.795683
-1.832518
-1.683988
-1.686417
-1.688968
-1.691657
-1.694501
-1.697514
-1.700713
-1.704133
-1.707812
-1.711796
-1.716293
-1.721254
-1.726855
-1.733283
-1.740816
-1.749956
-1.761138
-1.775772
-1.796874
-1.835067
-1.681331
-1.683643
-1.686065
-1.688608
-1.691288
-1.694114
-1.6971
-1.700274
-1.703667
-1.707315
-1.711397
-1.715855
-1.720833
-1.726486
-1.733063
-1.741111
-1.750335
-1.761683
-1.776503
-1.797964
-1.837371
-1.678709
-1.680914
-1.683215
-1.685625
-1.688154
-1.690812
-1.693607
-1.696563
-1.699705
-1.703059
-1.706778
-1.710768
-1.715118
-1.719897
-1.725181
-1.676231
-1.67834
-1.680536
-1.682828
-1.685227
-1.687738
-1.690369
-1.69314
-1.69607
-1.69918