/*--------------------------------*- C++ -*----------------------------------*\
| =========                 |                                                 |
| \\      /  F ield         | OpenFOAM: The Open Source CFD Toolbox           |
|  \\    /   O peration     | Version:  2306                                  |
|   \\  /    A nd           | Website:  www.openfoam.com                      |
|    \\/     M anipulation  |                                                 |
\*---------------------------------------------------------------------------*/
FoamFile
{
    version     2.0;
    format      ascii;
    arch        "LSB;label=32;scalar=64";
    class       volScalarField;
    location    "1.5/fuel";
    object      p;
}
// * * * * * * * * * * * * * * * * * * * * * * * * * * * * * * * * * * * * * //

dimensions      [1 -1 -2 0 0 0 0];

internalField   nonuniform List<scalar> 
16000
(
100611.9
100604.4
100509.9
100591.9
100590.9
100502.2
100584.1
100429.1
100493.3
100548.3
100567.3
100488.2
100570.1
100422.2
100485.5
100539.9
100368.2
100415.3
100457.1
100497.7
100545.3
100464.3
100545.5
100409.5
100471.2
100524.5
100362.2
100408.3
100448.9
100488.5
100322.3
100356.5
100385
100415
100392.3
100500.7
100439.9
100522.2
100388
100446.7
100497.8
100350.9
100395.3
100433.7
100471.6
100316.9
100350.4
100377.8
100406.4
100381.5
100286.1
100312.1
100330.7
100349.9
100327.3
100372.2
100493.2
100396.6
100476.2
100365.7
100421.6
100471.8
100332
100373.5
100408.1
100442.5
100306.8
100338.9
100364.3
100390.3
100361.3
100281.3
100306.6
100324.3
100342.3
100317.8
100361
100257
100277.1
100289.6
100300.6
100276.5
100310.5
100365.7
100487
100384.8
100467.6
100327.8
100377.6
100422.7
100312.2
100350.8
100381.5
100413.3
100290.1
100319.8
100341.7
100363.3
100327.3
100272.2
100296.4
100312.5
100328.2
100299.8
100340.2
100252.6
100272.2
100284
100294.1
100268.3
100300.8
100354.5
100233
100249
100257.3
100263.5
100238
100262.5
100305.2
100354.9
100486.5
100376
100460.8
100316.3
100365.2
100411.8
100279.2
100312.4
100335.9
100360.6
100272.4
100299.6
100318
100335.1
100291.5
100257.2
100279.5
100292.7
100304.7
100270
100305.2
100244.5
100263.1
100273.5
100281.8
100252.9
100282.5
100333.5
100229
100244.6
100252.3
100257.7
100230.9
100254.2
100295.4
100343.5
100212.8
100225.7
100231.3
100234.2
100208.9
100226
100258
100296.2
100345.9
100486.3
100373.3
100459.9
100307.9
100356.1
100403.6
100268.8
100300.6
100322.5
100347.1
100243.4
100266.3
100278.5
100287.6
100231.3
100241.4
100261.5
100271.9
100279.9
100238.2
100268.2
100230.9
100247.9
100256.1
100261.4
100227.6
100252.1
100298.2
100221.5
100236.3
100242.9
100246.8
100217.7
100238.5
100277
100322.2
100209.1
100221.7
100226.8
100229.1
100202.8
100218.8
100249.7
100286.3
100334.4
100195.6
100206.2
100209.8
100210.7
100186.1
100198.5
100222.2
100250.5
100288.7
100334.6
100486.3
100372
100459.5
100305
100353.3
100401.9
100261.2
100292
100312.8
100337.3
100234
100255.7
100266.1
100273
100212.4
100215.6
100232.3
100237.9
100239.2
100186.9
100206.6
100216.5
100231.9
100237.6
100239.7
100200.4
100219.7
100260.8
100209.2
100222.6
100227.4
100228.9
100195.9
100212.8
100246.5
100286.4
100202.3
100214.2
100218.3
100219.4
100191.2
100205.4
100234
100267.7
100312.7
100192.2
100202.6
100205.7
100206.1
100180.6
100192.3
100215
100242.1
100278.7
100322.9
100180.7
100189.6
100191.8
100191.3
100167.7
100176.9
100195.2
100215.7
100244.2
100279.3
100306.1
100486.5
100372
100459.5
100303.7
100352
100401.1
100258.5
100289
100309.6
100334.7
100227.2
100247.9
100257.1
100262.4
100199.1
100207.1
100222.7
100226.8
100226
100169.6
100186.6
100193.4
100205.9
100207.8
100204.8
100157.3
100167.6
100198.6
100196.1
100208.1
100210.9
100209.9
100172.6
100185.2
100213.8
100248.2
100191.1
100201.8
100204.4
100203.5
100172.2
100183.4
100208.1
100236.9
100276.5
100185.9
100195.7
100198
100197.4
100170.4
100180.5
100201.5
100226.2
100259.9
100301
100177.6
100186.2
100188.1
100187.1
100162.9
100171.4
100188.9
100208.5
100235.8
100269.3
100294
100167.7
100175.2
100176.4
100175
100152.6
100159.5
100173.9
100189.6
100210.4
100236.4
100255.6
100312.8
100487
100373.3
100459.9
100303.7
100352
100401.1
100257.2
100287.7
100308.1
100333.5
100224.7
100245.1
100253.9
100258.8
100194.6
100200.9
100215.8
100218.8
100216.6
100157.6
100172.7
100185.7
100197.3
100197.9
100193.2
100142.5
100149.9
100178.4
100175.2
100184.8
100184.5
100179.4
100135.9
100141.6
100161.5
100185.2
100179.1
100188.6
100189.5
100186.5
100151.9
100159.7
100180.4
100203.8
100237.8
100175.6
100184.3
100185.4
100183.1
100153.6
100161.4
100179.4
100200.2
100228.9
100264.1
100171.8
100179.9
100181
100179.2
100153.7
100161
100177.2
100194.9
100219.8
100250.3
100271.2
100164.8
100172.1
100173
100171.2
100148.2
100154.6
100168.4
100183.3
100203.1
100227.9
100245.3
100300.7
100156.2
100162.6
100163.1
100161
100139.8
100145.1
100156.9
100169
100184.9
100203.7
100216.6
100261.2
100301.8
100493.2
100376
100460.8
100305
100353.3
100401.9
100257.2
100287.7
100308.1
100333.5
100223.5
100243.9
100252.5
100257.2
100192.6
100198.6
100213.3
100215.9
100213.2
100153.1
100167.8
100180.1
100191.1
100190.9
100184.9
100132.1
100137.5
100164.2
100168.1
100177
100175.6
100169.1
100123.2
100126.5
100143.6
100164.4
100160
100167.5
100165.9
100159.6
100120.1
100122.7
100136.6
100151
100174
100164.5
100172.2
100171.9
100167.9
100135.7
100140.8
100155.6
100172.2
100195.5
100224.7
100162.2
100169.4
100169.5
100166.3
100138.7
100144.1
100157.9
100172.7
100193.6
100218.9
100233
100159.4
100166.2
100166.5
100164
100139.9
100145.3
100158
100171.5
100189.5
100211.8
100225.8
100278
100153.5
100159.7
100159.9
100157.5
100135.8
100140.7
100152
100163.4
100178.6
100196.4
100207.9
100250.9
100289.6
100145.9
100151.5
100151.4
100149
100128.9
100133.1
100142.8
100152.5
100164.9
100179.1
100186.8
100221.3
100252.1
100299.5
100500.7
100384.8
100467.6
100307.9
100356.1
100403.6
100258.5
100289
100309.6
100334.7
100223.5
100243.9
100252.5
100257.2
100192.6
100197.6
100212.1
100214.5
100211.6
100151.1
100165.6
100178
100188.7
100188.2
100181.9
100128.2
100132.9
100159.2
100163.1
100171.4
100169.3
100161.9
100114.3
100116
100131.1
100150
100153.5
100160.4
100157.8
100150.4
100109
100109.8
100121.4
100132.9
100152.8
100147.1
100153.1
100150.6
100143.8
100107.7
100108.7
100118.5
100128.1
100142.3
100159.8
100152
100158.3
100157.2
100152.5
100122.7
100125.9
100137.3
100148.7
100165.4
100185.1
100191.8
100150.5
100156.6
100155.9
100152.2
100126.4
100130.2
100141.1
100152.1
100167.1
100185.3
100193.7
100239.6
100148.4
100154.3
100153.9
100150.9
100128.3
100132.3
100142.7
100153
100166.7
100182.6
100191.5
100231.4
100266.3
100143.4
100148.8
100148.5
100145.7
100125.2
100129
100138.3
100147.5
100159.3
100172.7
100179.4
100212.6
100241.7
100287.1
100136.8
100141.6
100141.1
100138.4
100119.5
100122.7
100130.9
100138.8
100148.8
100159.8
100164.4
100190.8
100213.7
100250.2
100297
100545.3
100396.6
100476.2
100316.3
100365.2
100411.8
100261.2
100292
100312.8
100337.3
100224.7
100245.1
100253.9
100258.8
100194.6
100197.6
100212.1
100214.5
100211.6
100151.1
100165.6
100177.1
100187.7
100187
100180.5
100126.5
100130.9
100157
100161.2
100169.3
100166.9
100159.1
100110.9
100112
100126.5
100144.8
100148.9
100155.3
100152.1
100144
100101.3
100100.8
100110.8
100120.3
100138
100141.1
100146.5
100143.2
100135.6
100097.9
100097.5
100105.5
100112.7
100123.9
100138.1
100135.9
100140.8
100137.7
100130.8
100097.8
100097.7
100105.1
100111.3
100121
100131.2
100125.1
100141
100146.3
100144.6
100139.6
100111.9
100114
100122.8
100131.3
100143
100156.9
100159
100198.2
100140.2
100145.3
100144.2
100140.1
100116
100118.8
100127.5
100135.9
100147.3
100160.1
100164.6
100199
100226.2
100138.7
100143.7
100142.9
100139.6
100118.4
100121.4
100130
100138.2
100148.8
100160.8
100165.4
100196.2
100221.9
100263.7
100134.4
100139.1
100138.4
100135.4
100116.1
100119.1
100126.9
100134.3
100143.8
100154.1
100158
100183.4
100204.9
100239.7
100284.5
100128.5
100132.7
100132
100129.1
100111.2
100113.8
100120.8
100127.3
100135.5
100144.2
100146.8
100167.8
100184.3
100212.1
100248.1
100567.3
100439.9
100522.2
100327.8
100377.6
100422.7
100268.8
100300.6
100322.5
100347.1
100227.2
100247.9
100257.1
100262.4
100199.1
100198.6
100213.3
100215.9
100213.2
100153.1
100167.8
100177.1
100187.7
100187
100180.5
100126.5
100130.9
100157
100160.3
100168.3
100165.8
100157.9
100109.4
100110.2
100124.4
100142.4
100147.1
100153.3
100150
100141.5
100098.3
100097.3
100106.8
100115.6
100132.7
100136.8
100141.9
100138.1
100129.7
100091.1
100089.7
100096.5
100102.1
100111.2
100123
100130.4
100134.7
100131.1
100123.3
100089
100087.8
100093.8
100098.2
100105.5
100112.7
100101.8
100126.2
100130.1
100126.8
100119.9
100089.5
100089
100094.6
100099
100105.3
100112
100104.3
100127
100131.4
100135.8
100133.7
100128.6
100102.9
100104.1
100111.3
100117.6
100126.3
100135.8
100135.5
100164.1
100183.2
100131
100135.4
100133.9
100129.7
100107.2
100109.1
100116.3
100123
100131.7
100141.2
100142.5
100168.9
100188.2
100222.2
100130
100134.3
100133.2
100129.8
100109.7
100112.1
100119.3
100125.9
100134.4
100143.6
100145.8
100169.3
100188.2
100219.7
100260.8
100126.3
100130.3
100129.4
100126.3
100108
100110.4
100117.1
100123.3
100131
100139.2
100141.1
100161.4
100176.8
100203.2
100237.5
100120.9
100124.7
100123.7
100120.7
100103.8
100105.9
100112
100117.5
100124.3
100131.4
100132.6
100149.8
100162.2
100183
100210.4
100590.9
100464.3
100545.5
100365.7
100421.6
100471.8
100279.2
100312.4
100335.9
100360.6
100234
100255.7
100266.1
100273
100212.4
100200.9
100215.8
100218.8
100216.6
100157.6
100172.7
100178
100188.7
100188.2
100181.9
100128.2
100132.9
100159.2
100160.3
100168.3
100165.8
100157.9
100109.4
100110.2
100124.4
100142.4
100146.3
100152.4
100149
100140.4
100097
100095.8
100105
100113.4
100130.3
100135.2
100140.1
100136.1
100127.5
100088.5
100086.7
100093
100098
100106.4
100117.5
100126.4
100130.4
100126.3
100118
100082.9
100081
100086
100089.2
100094.8
100099.9
100085.7
100121
100124.6
100120.7
100113.1
100081.6
100080.1
100084.6
100087.6
100092.2
100096.4
100085
100105.3
100117.6
100120.9
100117.4
100110.6
100082.6
100081.6
100086.1
100089.2
100093.8
100097.8
100090.1
100105.6
100098.8
100122.8
100126.5
100124.2
100119.1
100095.1
100095.8
100101.7
100106.6
100113.2
100120.1
100117.7
100139.6
100152.2
100178.1
100122.8
100126.6
100124.8
100120.6
100099.5
100100.8
100106.9
100112.2
100119.2
100126.3
100125.9
100146.2
100160.1
100185
100217.7
100122.1
100125.9
100124.6
100121
100102.2
100104
100110.1
100115.6
100122.6
100129.8
100130.4
100149.2
100162.6
100186.4
100217.4
100118.9
100122.5
100121.3
100118.1
100100.9
100102.8
100108.6
100113.8
100120.2
100126.9
100127.6
100144.1
100155.7
100175.4
100201.4
100114
100117.4
100116.3
100113.3
100097.2
100099
100104.3
100109
100114.7
100120.6
100120.9
100135.4
100144.9
100161.1
100181.5
100604.4
100488.2
100570.1
100388
100446.7
100497.8
100312.2
100350.8
100381.5
100413.3
100243.4
100266.3
100278.5
100287.6
100231.3
100207.1
100222.7
100226.8
100226
100169.6
100186.6
100180.1
100191.1
100190.9
100184.9
100132.1
100137.5
100164.2
100161.2
100169.3
100166.9
100159.1
100110.9
100112
100126.5
100144.8
100146.3
100152.4
100149
100140.4
100097
100095.8
100105
100113.4
100130.3
100134.4
100139.2
100135.2
100126.5
100087.3
100085.3
100091.5
100096.2
100104.3
100115
100124.9
100128.8
100124.5
100116
100080.6
100078.3
100083
100085.7
100090.7
100095
100079.6
100117.4
100120.6
100116.3
100108.3
100076.2
100074
100077.7
100079.7
100083.1
100085.7
100071.7
100090.5
100112.8
100115.7
100111.7
100104.3
100075.4
100073.7
100077.3
100079.2
100082.4
100084.6
100074
100087.6
100080.1
100109.9
100112.7
100109.1
100102.5
100076.6
100075.4
100079.1
100081.4
100084.7
100087.3
100079.4
100091.1
100083.4
100079.5
100115.1
100118.3
100115.8
100110.7
100088.4
100088.7
100093.6
100097.5
100102.7
100107.8
100104.5
100121.3
100129.9
100148
100172.1
100115.3
100118.7
100116.8
100112.5
100092.7
100093.7
100098.8
100103.2
100108.8
100114.4
100112.9
100129.2
100138.7
100157.4
100181.4
100115
100118.3
100116.8
100113.3
100095.5
100096.9
100102.2
100106.8
100112.6
100118.4
100118
100133.4
100143.4
100161.1
100184.5
100112.1
100115.3
100114
100110.8
100094.5
100096.1
100101.1
100105.5
100111
100116.5
100116.4
100130.3
100139.1
100154.5
100173.9
100107.7
100110.7
100109.5
100106.5
100091.3
100092.7
100097.4
100101.5
100106.4
100111.3
100111.1
100123.4
100130.9
100143.8
100159.8
100611.9
100502.2
100584.1
100409.5
100471.2
100524.5
100332
100373.5
100408.1
100442.5
100272.4
100299.6
100318
100335.1
100291.5
100215.6
100232.3
100237.9
100239.2
100186.9
100206.6
100185.7
100197.3
100197.9
100193.2
100142.5
100149.9
100178.4
100163.1
100171.4
100169.3
100161.9
100114.3
100116
100131.1
100150
100147.1
100153.3
100150
100141.5
100098.3
100097.3
100106.8
100115.6
100132.7
100134.4
100139.2
100135.2
100126.5
100087.3
100085.3
100091.5
100096.2
100104.3
100115
100124.2
100128
100123.7
100115.1
100079.5
100077.1
100081.6
100084.1
100088.9
100092.8
100076.9
100115.9
100119.1
100114.6
100106.4
100074.1
100071.6
100075.1
100076.7
100079.6
100081.5
100066.6
100085.1
100109.4
100112
100107.7
100099.9
100070.5
100068.2
100071.1
100072.3
100074.5
100075.4
100063
100075.2
100067.4
100105.4
100107.8
100103.9
100096.7
100070.1
100068.2
100071.1
100072.5
100074.7
100075.9
100065.8
100076.1
100068
100064.6
100103
100105.4
100101.8
100095.4
100071.4
100070.1
100073.2
100074.8
100077.4
100079
100071.5
100080.3
100073
100068.1
100030.4
100108.1
100110.9
100108.3
100103.3
100082.5
100082.5
100086.7
100089.8
100094
100097.9
100094.1
100107.6
100113
100126.5
100143.3
100108.6
100111.5
100109.5
100105.3
100086.7
100087.3
100091.8
100095.4
100100.1
100104.5
100102.5
100115.8
100122.7
100136.4
100154.4
100108.4
100111.4
100109.8
100106.2
100089.5
100090.6
100095.2
100099.1
100104
100108.8
100107.8
100120.7
100128.3
100142.1
100159.4
100105.9
100108.7
100107.4
100104.2
100088.8
100090
100094.5
100098.3
100103
100107.6
100107
100118.8
100125.8
100138.1
100153.2
100101.9
100104.6
100103.3
100100.3
100085.9
100087.1
100091.3
100094.8
100099.1
100103.3
100102.7
100113.3
100119.4
100130
100142.7
100509.9
100591.9
100422.2
100485.5
100539.9
100350.9
100395.3
100433.7
100471.6
100290.1
100319.8
100341.7
100363.3
100327.3
100241.4
100261.5
100271.9
100279.9
100238.2
100268.2
100193.4
100205.9
100207.8
100204.8
100157.3
100167.6
100198.6
100168.1
100177
100175.6
100169.1
100123.2
100126.5
100143.6
100164.4
100148.9
100155.3
100152.1
100144
100101.3
100100.8
100110.8
100120.3
100138
100135.2
100140.1
100136.1
100127.5
100088.5
100086.7
100093
100098
100106.4
100117.5
100124.2
100128
100123.7
100115.1
100079.5
100077.1
100081.6
100084.1
100088.9
100092.8
100076.9
100115.3
100118.4
100113.9
100105.6
100073.1
100070.6
100073.9
100075.4
100078
100079.7
100064.3
100082.7
100108
100110.6
100106.1
100098.2
100068.6
100066
100068.8
100069.6
100071.5
100071.9
100058.7
100070.6
100063.1
100102.2
100104.4
100100.1
100092.7
100065.6
100063.2
100065.6
100066.3
100067.7
100068
100056.5
100065.8
100057.6
100054.7
100098.8
100100.9
100096.9
100090.1
100065.4
100063.5
100065.9
100066.8
100068.4
100069
100059.8
100067.6
100060.3
100056
100029.5
100096.8
100098.8
100095.3
100089.2
100066.8
100065.5
100068
100069.3
100071.2
100072.3
100065.1
100072.3
100065.1
100060.5
100029.3
100029.3
100101.7
100104.2
100101.6
100096.7
100077.2
100077
100080.6
100083.2
100086.7
100089.7
100085.8
100096.8
100100.5
100110.1
100122.5
100102.4
100105
100102.9
100098.8
100081.3
100081.7
100085.6
100088.7
100092.6
100096.2
100093.8
100105
100110.1
100120.7
100133.9
100102.4
100105
100103.4
100099.9
100084.1
100084.9
100089
100092.4
100096.6
100100.5
100099.2
100110.2
100116.1
100127.1
100140.6
100100.1
100102.7
100101.3
100098.2
100083.6
100084.6
100088.6
100091.9
100096
100099.9
100098.9
100109.2
100114.8
100124.9
100136.9
100096.5
100098.9
100097.6
100094.7
100081
100082
100085.8
100088.9
100092.7
100096.2
100095.3
100104.7
100109.7
100118.6
100129
100429.1
100493.3
100548.3
100362.2
100408.3
100448.9
100488.5
100306.8
100338.9
100364.3
100390.3
100361.3
100257.2
100279.5
100292.7
100304.7
100270
100305.2
100216.5
100231.9
100237.6
100239.7
100200.4
100219.7
100260.8
100175.2
100184.8
100184.5
100179.4
100135.9
100141.6
100161.5
100185.2
100153.5
100160.4
100157.8
100150.4
100109
100109.8
100121.4
100132.9
100152.8
100136.8
100141.9
100138.1
100129.7
100091.1
100089.7
100096.5
100102.1
100111.2
100123
100124.9
100128.8
100124.5
100116
100080.6
100078.3
100083
100085.7
100090.7
100095
100079.6
100115.3
100118.4
100113.9
100105.6
100073.1
100070.6
100073.9
100075.4
100078
100079.7
100064.3
100082.7
100107.4
100109.9
100105.4
100097.4
100067.7
100065.1
100067.7
100068.4
100070.1
100070.3
100056.8
100068.6
100061.1
100101
100103.1
100098.7
100091.1
100063.8
100061.3
100063.5
100063.9
100065
100064.9
100052.9
100062
100054
100051.7
100095.9
100097.7
100093.5
100086.3
100061.2
100059
100060.9
100061.3
100062.3
100062
100051.8
100058.8
100051.6
100047.9
100029.3
100092.9
100094.6
100090.7
100084.2
100061.3
100059.4
100061.4
100062
100063.2
100063.4
100054.9
100061.3
100054.3
100050.4
100028.6
100029.2
100091.2
100092.9
100089.4
100083.6
100062.7
100061.3
100063.5
100064.5
100066.1
100066.7
100060
100065.8
100059.2
100054.5
100028.7
100028.4
100029.3
100095.9
100098.1
100095.5
100090.8
100072.5
100072.2
100075.3
100077.5
100080.4
100082.8
100078.8
100088.1
100090.6
100098
100106.8
100096.7
100099
100096.9
100092.9
100076.4
100076.7
100080.1
100082.8
100086.1
100089.1
100086.5
100096.1
100099.9
100108.4
100118.6
100096.8
100099.2
100097.5
100094.1
100079.2
100079.8
100083.5
100086.4
100090
100093.4
100091.8
100101.4
100106.1
100115.1
100125.9
100094.8
100097.2
100095.7
100092.6
100078.8
100079.6
100083.2
100086.2
100089.7
100093.1
100091.9
100100.9
100105.5
100113.9
100123.8
100091.4
100093.7
100092.3
100089.4
100076.5
100077.3
100080.8
100083.5
100086.9
100090
100088.9
100097.2
100101.4
100109
100117.7
100368.2
100415.3
100457.1
100497.7
100316.9
100350.4
100377.8
100406.4
100381.5
100272.2
100296.4
100312.5
100328.2
100299.8
100340.2
100230.9
100247.9
100256.1
100261.4
100227.6
100252.1
100298.2
100196.1
100208.1
100210.9
100209.9
100172.6
100185.2
100213.8
100248.2
100160
100167.5
100165.9
100159.6
100120.1
100122.7
100136.6
100151
100174
100141.1
100146.5
100143.2
100135.6
100097.9
100097.5
100105.5
100112.7
100123.9
100138.1
100126.4
100130.4
100126.3
100118
100082.9
100081
100086
100089.2
100094.8
100099.9
100085.7
100115.9
100119.1
100114.6
100106.4
100074.1
100071.6
100075.1
100076.7
100079.6
100081.5
100066.6
100085.1
100107.4
100109.9
100105.4
100097.4
100067.7
100065.1
100067.7
100068.4
100070.1
100070.3
100056.8
100068.6
100061.1
100100.4
100102.5
100098
100090.4
100063
100060.4
100062.5
100062.9
100063.8
100063.6
100051.3
100060.2
100052.4
100050.4
100094.7
100096.4
100092.1
100084.9
100059.6
100057.2
100059
100059.1
100059.9
100059.3
100048.6
100055.6
100048.6
100045.4
100029.3
100090.1
100091.6
100087.5
100080.7
100057.4
100055.2
100056.9
100057
100057.7
100057.2
100047.9
100053.8
100047
100043.8
100028.4
100029.2
100087.4
100088.9
100085.2
100078.9
100057.6
100055.7
100057.5
100057.9
100058.8
100058.7
100050.9
100056.2
100049.9
100046.1
100028.2
100028.4
100029.3
100086
100087.5
100084.1
100078.5
100059
100057.6
100059.6
100060.3
100061.6
100062
100055.7
100060.6
100054.4
100050.1
100027.9
100028.1
100028.4
100029.3
100090.6
100092.5
100090
100085.4
100068.2
100067.8
100070.6
100072.4
100074.9
100076.8
100072.9
100080.9
100082.6
100088.4
100095.2
100091.5
100093.5
100091.4
100087.6
100072
100072.1
100075.2
100077.5
100080.4
100082.9
100080.2
100088.6
100091.5
100098.4
100106.5
100091.7
100093.8
100092.2
100088.8
100074.7
100075.2
100078.5
100081
100084.2
100087.1
100085.3
100093.8
100097.6
100105.2
100114
100089.9
100092
100090.5
100087.5
100074.4
100075.1
100078.4
100081
100084.1
100087
100085.7
100093.7
100097.6
100104.8
100113
100086.7
100088.8
100087.4
100084.6
100072.3
100073
100076.2
100078.6
100081.6
100084.4
100083.2
100090.6
100094.2
100100.7
100108.1
100322.3
100356.5
100385
100415
100392.3
100281.3
100306.6
100324.3
100342.3
100317.8
100361
100244.5
100263.1
100273.5
100281.8
100252.9
100282.5
100333.5
100209.2
100222.6
100227.4
100228.9
100195.9
100212.8
100246.5
100286.4
100179.1
100188.6
100189.5
100186.5
100151.9
100159.7
100180.4
100203.8
100237.8
100147.1
100153.1
100150.6
100143.8
100107.7
100108.7
100118.5
100128.1
100142.3
100159.8
100130.4
100134.7
100131.1
100123.3
100089
100087.8
100093.8
100098.2
100105.5
100112.7
100101.8
100117.4
100120.6
100116.3
100108.3
100076.2
100074
100077.7
100079.7
100083.1
100085.7
100071.7
100090.5
100108
100110.6
100106.1
100098.2
100068.6
100066
100068.8
100069.6
100071.5
100071.9
100058.7
100070.6
100063.1
100100.4
100102.5
100098
100090.4
100063
100060.4
100062.5
100062.9
100063.8
100063.6
100051.3
100060.2
100052.4
100050.4
100094.2
100095.8
100091.5
100084.2
100058.9
100056.4
100058.1
100058.2
100058.8
100058.1
100047.2
100054.1
100047.3
100044.3
100029.3
100089
100090.4
100086.3
100079.4
100055.9
100053.6
100055.1
100055.1
100055.5
100054.8
100045.1
100050.9
100044.4
100041.7
100028.4
100029.2
100084.8
100086.1
100082.1
100075.7
100054
100051.9
100053.3
100053.3
100053.8
100053.2
100044.7
100049.6
100043.6
100040.4
100028.1
100028.3
100029.2
100082.5
100083.7
100080.1
100074.2
100054.2
100052.5
100054
100054.3
100054.9
100054.7
100047.6
100052.1
100046.3
100042.8
100027.5
100028
100028.4
100029.2
100081.2
100082.5
100079.3
100073.9
100055.6
100054.3
100056
100056.6
100057.6
100057.8
100052
100056.3
100050.5
100046.5
100027.3
100027.3
100028.1
100028.4
100029.2
100085.7
100087.4
100084.9
100080.5
100064.3
100063.8
100066.3
100067.9
100070
100071.6
100067.8
100074.8
100075.9
100080.7
100085.9
100086.6
100088.4
100086.4
100082.6
100067.9
100068
100070.8
100072.8
100075.3
100077.4
100074.8
100082.1
100084.5
100090.2
100096.8
100086.9
100088.9
100087.2
100083.9
100070.5
100070.9
100073.9
100076.2
100079
100081.5
100079.7
100087.2
100090.4
100096.8
100104.2
100085.2
100087.2
100085.7
100082.8
100070.4
100070.9
100073.9
100076.3
100079.1
100081.6
100080.2
100087.4
100090.7
100096.9
100103.9
100082.3
100084.2
100082.9
100080.2
100068.5
100069.1
100071.9
100074.2
100076.9
100079.3
100078
100084.8
100087.8
100093.5
100100
100286.1
100312.1
100330.7
100349.9
100327.3
100372.2
100252.6
100272.2
100284
100294.1
100268.3
100300.8
100354.5
100221.5
100236.3
100242.9
100246.8
100217.7
100238.5
100277
100322.2
100191.1
100201.8
100204.4
100203.5
100172.2
100183.4
100208.1
100236.9
100276.5
100164.5
100172.2
100171.9
100167.9
100135.7
100140.8
100155.6
100172.2
100195.5
100224.7
100135.9
100140.8
100137.7
100130.8
100097.8
100097.7
100105.1
100111.3
100121
100131.2
100125.1
100121
100124.6
100120.7
100113.1
100081.6
100080.1
100084.6
100087.6
100092.2
100096.4
100085
100105.3
100109.4
100112
100107.7
100099.9
100070.5
100068.2
100071.1
100072.3
100074.5
100075.4
100063
100075.2
100067.4
100101
100103.1
100098.7
100091.1
100063.8
100061.3
100063.5
100063.9
100065
100064.9
100052.9
100062
100054
100051.7
100094.2
100095.8
100091.5
100084.2
100058.9
100056.4
100058.1
100058.2
100058.8
100058.1
100047.2
100054.1
100047.3
100044.3
100029.3
100088.5
100089.9
100085.7
100078.7
100055.3
100052.9
100054.3
100054.2
100054.6
100053.8
100043.9
100049.7
100043.3
100040.8
100028.4
100029.1
100083.8
100085
100081
100074.4
100052.6
100050.4
100051.7
100051.6
100051.8
100051
100042.3
100047.1
100041.4
100038.7
100028.1
100028.3
100029.2
100080
100081.1
100077.3
100071.1
100050.9
100048.9
100050.1
100050.1
100050.4
100049.7
100042
100046.2
100040.8
100038
100027.3
100028
100028.4
100029.2
100077.9
100079
100075.5
100069.8
100051.2
100049.5
100050.8
100051
100051.5
100051.2
100044.7
100048.6
100043.3
100040.1
100026.9
100027.3
100028
100028.4
100029.2
100076.8
100078
100074.8
100069.7
100052.5
100051.2
100052.8
100053.3
100054.1
100054.2
100048.8
100052.5
100047.2
100043.5
100026.5
100026.8
100027.3
100028
100028.4
100029.2
100081.1
100082.7
100080.2
100076
100060.7
100060.2
100062.5
100063.8
100065.7
100067
100063.3
100069.6
100070.3
100074.2
100078.4
100082.1
100083.7
100081.7
100078.1
100064.2
100064.2
100066.7
100068.5
100070.7
100072.5
100069.9
100076.5
100078.3
100083.2
100088.7
100082.4
100084.2
100082.6
100079.4
100066.7
100067
100069.7
100071.8
100074.3
100076.5
100074.6
100081.4
100084.1
100089.6
100095.9
100080.9
100082.7
100081.3
100078.4
100066.6
100067.1
100069.8
100071.9
100074.5
100076.7
100075.3
100081.8
100084.6
100090
100096.1
100078.2
100079.9
100078.6
100076
100064.9
100065.4
100068
100070.1
100072.5
100074.7
100073.4
100079.5
100082.2
100087.2
100092.9
100257
100277.1
100289.6
100300.6
100276.5
100310.5
100365.7
100229
100244.6
100252.3
100257.7
100230.9
100254.2
100295.4
100343.5
100202.3
100214.2
100218.3
100219.4
100191.2
100205.4
100234
100267.7
100312.7
100175.6
100184.3
100185.4
100183.1
100153.6
100161.4
100179.4
100200.2
100228.9
100264.1
100152
100158.3
100157.2
100152.5
100122.7
100125.9
100137.3
100148.7
100165.4
100185.1
100191.8
100126.2
100130.1
100126.8
100119.9
100089.5
100089
100094.6
100099
100105.3
100112
100104.3
100127
100112.8
100115.7
100111.7
100104.3
100075.4
100073.7
100077.3
100079.2
100082.4
100084.6
100074
100087.6
100080.1
100102.2
100104.4
100100.1
100092.7
100065.6
100063.2
100065.6
100066.3
100067.7
100068
100056.5
100065.8
100057.6
100054.7
100094.7
100096.4
100092.1
100084.9
100059.6
100057.2
100059
100059.1
100059.9
100059.3
100048.6
100055.6
100048.6
100045.4
100029.3
100088.5
100089.9
100085.7
100078.7
100055.3
100052.9
100054.3
100054.2
100054.6
100053.8
100043.9
100049.7
100043.3
100040.8
100028.4
100029.1
100083.3
100084.5
100080.4
100073.8
100052
100049.7
100051
100050.8
100051
100050.1
100041.2
100046
100040.4
100037.9
100028.1
100028.3
100029.2
100079
100080.1
100076.2
100070
100049.6
100047.5
100048.6
100048.4
100048.6
100047.8
100039.8
100044.1
100038.8
100036.5
100027.3
100028
100028.4
100029.2
100075.6
100076.5
100072.8
100067
100048.1
100046.2
100047.3
100047.1
100047.4
100046.7
100039.6
100043.3
100038.4
100035.8
100026.8
100027.3
100028
100028.4
100029.2
100073.7
100074.6
100071.3
100065.9
100048.3
100046.7
100048
100048.1
100048.5
100048.1
100042.1
100045.6
100040.7
100037.8
100026.2
100026.7
100027.3
100028
100028.4
100029.2
100072.7
100073.7
100070.7
100065.8
100049.7
100048.4
100049.8
100050.2
100051
100051
100045.9
100049.2
100044.3
100040.9
100025.8
100026.1
100026.8
100027.3
100028
100028.4
100029.2
100076.9
100078.2
100075.9
100071.8
100057.4
100056.9
100058.9
100060.1
100061.7
100062.9
100059.4
100065
100065.5
100068.8
100072.2
100077.8
100079.4
100077.4
100073.9
100060.7
100060.6
100063
100064.5
100066.5
100068.1
100065.6
100071.5
100073
100077.2
100081.9
100078.2
100079.9
100078.3
100075.2
100063.1
100063.4
100065.9
100067.7
100070
100071.9
100070.1
100076.2
100078.5
100083.4
100088.8
100076.8
100078.5
100077.1
100074.4
100063.1
100063.5
100066.1
100068
100070.3
100072.3
100070.8
100076.8
100079.2
100084
100089.3
100074.3
100075.9
100074.6
100072.1
100061.5
100061.9
100064.4
100066.3
100068.5
100070.5
100069.2
100074.8
100077.1
100081.6
100086.6
100233
100249
100257.3
100263.5
100238
100262.5
100305.2
100354.9
100209.1
100221.7
100226.8
100229.1
100202.8
100218.8
100249.7
100286.3
100334.4
100185.9
100195.7
100198
100197.4
100170.4
100180.5
100201.5
100226.2
100259.9
100301
100162.2
100169.4
100169.5
100166.3
100138.7
100144.1
100157.9
100172.7
100193.6
100218.9
100233
100141
100146.3
100144.6
100139.6
100111.9
100114
100122.8
100131.3
100143
100156.9
100159
100198.2
100117.6
100120.9
100117.4
100110.6
100082.6
100081.6
100086.1
100089.2
100093.8
100097.8
100090.1
100105.6
100098.8
100105.4
100107.8
100103.9
100096.7
100070.1
100068.2
100071.1
100072.5
100074.7
100075.9
100065.8
100076.1
100068
100064.6
100095.9
100097.7
100093.5
100086.3
100061.2
100059
100060.9
100061.3
100062.3
100062
100051.8
100058.8
100051.6
100047.9
100029.3
100089
100090.4
100086.3
100079.4
100055.9
100053.6
100055.1
100055.1
100055.5
100054.8
100045.1
100050.9
100044.4
100041.7
100028.4
100029.2
100083.3
100084.5
100080.4
100073.8
100052
100049.7
100051
100050.8
100051
100050.1
100041.2
100046
100040.4
100037.9
100028.1
100028.3
100029.2
100078.6
100079.6
100075.7
100069.4
100049
100046.9
100048
100047.7
100047.8
100046.9
100038.8
100043.1
100038
100035.8
100027.3
100028
100028.4
100029.2
100074.6
100075.5
100071.8
100065.9
100046.9
100044.9
100045.9
100045.6
100045.7
100044.9
100037.6
100041.4
100036.7
100034.5
100026.8
100027.3
100028
100028.4
100029.2
100071.4
100072.3
100068.8
100063.2
100045.5
100043.6
100044.6
100044.5
100044.6
100044
100037.5
100040.8
100036.3
100034.1
100026.1
100026.7
100027.3
100028
100028.4
100029.2
100069.7
100070.6
100067.3
100062.2
100045.7
100044.2
100045.3
100045.4
100045.8
100045.4
100039.8
100042.9
100038.5
100035.8
100025.5
100026.1
100026.8
100027.3
100028
100028.4
100029.2
100068.9
100069.8
100066.9
100062.3
100047
100045.8
100047.1
100047.4
100048.1
100048.1
100043.3
100046.3
100041.8
100038.6
100025.1
100025.4
100026.1
100026.8
100027.3
100028
100028.4
100029.2
100072.9
100074.1
100071.9
100068
100054.3
100053.8
100055.7
100056.7
100058.2
100059.1
100055.8
100060.9
100061.2
100064
100067
100073.8
100075.3
100073.4
100070
100057.5
100057.4
100059.5
100060.9
100062.7
100064.1
100061.7
100067.1
100068.3
100072
100076
100074.3
100075.8
100074.2
100071.3
100059.8
100060
100062.3
100064
100066.1
100067.8
100066
100071.6
100073.5
100077.8
100082.6
100073
100074.6
100073.2
100070.5
100059.8
100060.2
100062.5
100064.3
100066.4
100068.2
100066.8
100072.2
100074.3
100078.6
100083.3
100070.6
100072.1
100070.9
100068.4
100058.3
100058.7
100061
100062.7
100064.8
100066.6
100065.3
100070.5
100072.5
100076.6
100081
100212.8
100225.7
100231.3
100234.2
100208.9
100226
100258
100296.2
100345.9
100192.2
100202.6
100205.7
100206.1
100180.6
100192.3
100215
100242.1