/*--------------------------------*- C++ -*----------------------------------*\
| =========                 |                                                 |
| \\      /  F ield         | OpenFOAM: The Open Source CFD Toolbox           |
|  \\    /   O peration     | Version:  2306                                  |
|   \\  /    A nd           | Website:  www.openfoam.com                      |
|    \\/     M anipulation  |                                                 |
\*---------------------------------------------------------------------------*/
FoamFile
{
    version     2.0;
    format      ascii;
    arch        "LSB;label=32;scalar=64";
    class       volScalarField;
    location    "1.5/fuel";
    object      T;
}
// * * * * * * * * * * * * * * * * * * * * * * * * * * * * * * * * * * * * * //

dimensions      [0 0 0 1 0 0 0];

internalField   nonuniform List<scalar> 
16000
(
1220.319
1220.149
1222.356
1220.334
1219.757
1222.344
1220.165
1224.194
1222.365
1220.355
1219.033
1222.315
1219.774
1224.226
1222.353
1220.186
1225.887
1224.199
1222.38
1220.381
1217.826
1222.255
1219.054
1224.295
1222.323
1219.797
1225.93
1224.23
1222.367
1220.212
1227.498
1225.887
1224.208
1222.399
1220.411
1216.067
1222.143
1217.854
1224.415
1222.263
1219.08
1226.026
1224.299
1222.337
1219.825
1227.543
1225.93
1224.239
1222.386
1220.243
1229.05
1227.495
1225.892
1224.222
1222.422
1220.447
1214.077
1221.944
1216.108
1224.597
1222.147
1217.888
1226.196
1224.416
1222.275
1219.113
1227.644
1226.026
1224.306
1222.355
1219.858
1229.094
1227.54
1225.934
1224.252
1222.409
1220.28
1230.551
1229.045
1227.496
1225.901
1224.24
1222.451
1220.484
1212.258
1221.641
1214.138
1224.823
1221.943
1216.156
1226.461
1224.593
1222.156
1217.928
1227.823
1226.193
1224.422
1222.291
1219.15
1229.193
1227.64
1226.029
1224.318
1222.378
1219.898
1230.593
1229.088
1227.54
1225.943
1224.27
1222.438
1220.318
1232
1230.543
1229.043
1227.501
1225.914
1224.262
1222.48
1220.521
1210.906
1221.297
1212.338
1225.006
1221.64
1214.203
1226.811
1224.812
1221.948
1216.208
1228.105
1226.453
1224.594
1222.17
1217.974
1229.368
1227.817
1226.194
1224.431
1222.313
1219.194
1230.687
1229.186
1227.64
1226.036
1224.335
1222.406
1219.938
1232.039
1230.584
1229.086
1227.545
1225.956
1224.292
1222.467
1220.356
1233.396
1231.99
1230.538
1229.045
1227.51
1225.932
1224.286
1222.509
1220.558
1210.191
1221.002
1210.999
1225.115
1221.297
1212.421
1227.14
1224.989
1221.643
1214.274
1228.482
1226.795
1224.805
1221.957
1216.266
1229.645
1228.094
1226.449
1224.599
1222.189
1218.026
1230.854
1229.359
1227.814
1226.199
1224.445
1222.339
1219.239
1232.128
1230.678
1229.183
1227.643
1226.048
1224.356
1222.434
1219.978
1233.433
1232.029
1230.58
1229.088
1227.554
1225.973
1224.314
1222.496
1220.394
1234.738
1233.384
1231.983
1230.538
1229.05
1227.523
1225.95
1224.309
1222.538
1220.595
1210.191
1220.834
1210.291
1225.166
1221.005
1211.096
1227.393
1225.096
1221.303
1212.509
1228.848
1227.118
1224.977
1221.651
1214.349
1230.016
1228.464
1226.783
1224.803
1221.971
1216.33
1231.118
1229.632
1228.087
1226.449
1224.608
1222.213
1218.08
1232.286
1230.843
1229.354
1227.816
1226.208
1224.464
1222.367
1219.285
1233.518
1232.117
1230.672
1229.184
1227.651
1226.063
1224.377
1222.462
1220.019
1234.774
1233.422
1232.022
1230.579
1229.093
1227.567
1225.99
1224.337
1222.525
1220.433
1236.026
1234.726
1233.377
1231.981
1230.541
1229.06
1227.537
1225.968
1224.332
1222.568
1220.776
1210.906
1220.834
1210.291
1225.183
1220.839
1210.395
1227.555
1225.146
1221.013
1211.197
1229.14
1227.367
1225.081
1221.312
1212.601
1230.381
1228.825
1227.101
1224.969
1221.664
1214.429
1231.473
1229.997
1228.45
1226.776
1224.805
1221.991
1216.395
1232.537
1231.103
1229.623
1228.084
1226.454
1224.623
1222.237
1218.134
1233.667
1232.274
1230.835
1229.353
1227.821
1226.221
1224.483
1222.394
1219.331
1234.854
1233.505
1232.11
1230.67
1229.188
1227.663
1226.08
1224.399
1222.491
1220.061
1236.06
1234.761
1233.413
1232.019
1230.581
1229.102
1227.58
1226.008
1224.359
1222.554
1220.62
1237.26
1236.013
1234.717
1233.372
1231.982
1230.548
1229.07
1227.551
1225.985
1224.354
1222.711
1221.123
1212.258
1221.002
1210.999
1225.183
1220.839
1210.395
1227.634
1225.163
1220.849
1210.503
1229.335
1227.528
1225.131
1221.026
1211.302
1230.676
1229.112
1227.346
1225.072
1221.327
1212.698
1231.825
1230.357
1228.805
1227.088
1224.967
1221.682
1214.51
1232.874
1231.453
1229.982
1228.44
1226.774
1224.812
1222.011
1216.46
1233.904
1232.521
1231.092
1229.617
1228.085
1226.463
1224.637
1222.262
1218.189
1234.996
1233.653
1232.265
1230.832
1229.355
1227.83
1226.235
1224.502
1222.421
1219.378
1236.136
1234.84
1233.496
1232.106
1230.672
1229.196
1227.674
1226.096
1224.42
1222.52
1220.262
1237.293
1236.047
1234.752
1233.409
1232.02
1230.588
1229.112
1227.593
1226.025
1224.382
1222.696
1220.984
1238.44
1237.246
1236.003
1234.711
1233.371
1231.986
1230.555
1229.08
1227.564
1226.003
1224.468
1222.97
1221.488
1214.077
1221.297
1212.338
1225.166
1221.005
1211.096
1227.634
1225.163
1220.849
1210.503
1229.432
1227.606
1225.148
1220.863
1210.615
1230.876
1229.306
1227.505
1225.12
1221.044
1211.412
1232.11
1230.648
1229.089
1227.329
1225.066
1221.347
1212.795
1233.208
1231.8
1230.337
1228.79
1227.079
1224.969
1221.7
1214.59
1234.224
1232.854
1231.437
1229.97
1228.435
1226.775
1224.819
1222.031
1216.525
1235.221
1233.888
1232.509
1231.085
1229.616
1228.09
1226.471
1224.651
1222.287
1218.245
1236.271
1234.981
1233.643
1232.259
1230.832
1229.361
1227.84
1226.248
1224.521
1222.449
1219.607
1237.365
1236.122
1234.83
1233.491
1232.106
1230.678
1229.205
1227.686
1226.112
1224.441
1222.659
1220.667
1238.471
1237.278
1236.036
1234.746
1233.408
1232.024
1230.595
1229.122
1227.606
1226.042
1224.493
1222.955
1221.373
1239.566
1238.426
1237.236
1235.996
1234.709
1233.374
1231.991
1230.562
1229.09
1227.578
1226.092
1224.669
1223.231
1221.868
1216.067
1221.641
1214.138
1225.115
1221.297
1212.421
1227.555
1225.146
1221.013
1211.197
1229.432
1227.606
1225.148
1220.863
1210.615
1230.976
1229.402
1227.582
1225.137
1220.883
1210.732
1232.304
1230.846
1229.281
1227.487
1225.114
1221.066
1211.521
1233.48
1232.082
1230.625
1229.071
1227.317
1225.066
1221.367
1212.891
1234.542
1233.184
1231.78
1230.321
1228.779
1227.075
1224.971
1221.719
1214.67
1235.524
1234.203
1232.837
1231.425
1229.963
1228.434
1226.777
1224.827
1222.051
1216.59
1236.485
1235.203
1233.875
1232.5
1231.082
1229.618
1228.095
1226.48
1224.666
1222.312
1218.514
1237.494
1236.256
1234.97
1233.636
1232.257
1230.835
1229.367
1227.849
1226.262
1224.54
1222.584
1220.083
1238.54
1237.35
1236.111
1234.824
1233.489
1232.109
1230.683
1229.213
1227.698
1226.128
1224.546
1222.917
1221.111
1239.596
1238.456
1237.267
1236.029
1234.743
1233.41
1232.028
1230.601
1229.131
1227.619
1226.128
1224.688
1223.217
1221.782
1240.639
1239.551
1238.414
1237.228
1235.993
1234.709
1233.376
1231.995
1230.569
1229.1
1227.646
1226.247
1224.866
1223.495
1222.259
1217.826
1221.944
1216.108
1225.006
1221.64
1214.203
1227.393
1225.096
1221.303
1212.509
1229.335
1227.528
1225.131
1221.026
1211.302
1230.976
1229.402
1227.582
1225.137
1220.883
1210.732
1232.401
1230.945
1229.376
1227.563
1225.131
1220.907
1210.849
1233.666
1232.275
1230.821
1229.26
1227.473
1225.113
1221.089
1211.63
1234.801
1233.453
1232.059
1230.605
1229.056
1227.31
1225.065
1221.387
1212.986
1235.827
1234.518
1233.164
1231.763
1230.308
1228.772
1227.071
1224.973
1221.738
1214.749
1236.775
1235.504
1234.186
1232.824
1231.417
1229.96
1228.432
1226.778
1224.834
1222.071
1216.902
1237.698
1236.468
1235.19
1233.865
1232.495
1231.082
1229.62
1228.1
1226.489
1224.68
1222.434
1219.075
1238.663
1237.478
1236.244
1234.962
1233.633
1232.259
1230.839
1229.374
1227.858
1226.275
1224.632
1222.838
1220.621
1239.662
1238.525
1237.339
1236.103
1234.82
1233.49
1232.112
1230.689
1229.222
1227.71
1226.207
1224.73
1223.182
1221.587
1240.668
1239.581
1238.445
1237.259
1236.025
1234.744
1233.412
1232.033
1230.608
1229.14
1227.684
1226.277
1224.88
1223.483
1222.205
1241.661
1240.624
1239.54
1238.406
1237.223
1235.992
1234.71
1233.379
1232
1230.576
1229.151
1227.763
1226.397
1225.061
1223.76
1219.033
1222.143
1217.854
1224.823
1221.943
1216.156
1227.14
1224.989
1221.643
1214.274
1229.14
1227.367
1225.081
1221.312
1212.601
1230.876
1229.306
1227.505
1225.12
1221.044
1211.412
1232.401
1230.945
1229.376
1227.563
1225.131
1220.907
1210.849
1233.76
1232.372
1230.919
1229.354
1227.549
1225.13
1220.931
1210.964
1234.978
1233.638
1232.25
1230.8
1229.244
1227.463
1225.111
1221.111
1211.737
1236.073
1234.774
1233.43
1232.039
1230.59
1229.046
1227.302
1225.065
1221.407
1213.081
1237.063
1235.803
1234.497
1233.147
1231.75
1230.3
1228.765
1227.067
1224.975
1221.756
1215.123
1237.975
1236.754
1235.487
1234.173
1232.815
1231.412
1229.956
1228.431
1226.78
1224.841
1222.171
1217.479
1238.859
1237.68
1236.454
1235.179
1233.859
1232.494
1231.082
1229.623
1228.105
1226.497
1224.75
1222.674
1219.724
1239.78
1238.647
1237.465
1236.235
1234.957
1233.632
1232.26
1230.842
1229.38
1227.868
1226.34
1224.794
1223.107
1221.221
1240.732
1239.647
1238.513
1237.33
1236.099
1234.82
1233.492
1232.116
1230.694
1229.23
1227.768
1226.341
1224.91
1223.454
1222.087
1241.688
1240.653
1239.569
1238.436
1237.255
1236.025
1234.744
1233.414
1232.037
1230.614
1229.188
1227.795
1226.42
1225.07
1223.751
1242.631
1241.646
1240.612
1239.531
1238.401
1237.222
1235.992
1234.711
1233.381
1232.004
1230.611
1229.236
1227.875
1226.543
1225.255
1219.757
1222.255
1219.054
1224.597
1222.147
1217.888
1226.811
1224.812
1221.948
1216.208
1228.848
1227.118
1224.977
1221.651
1214.349
1230.676
1229.112
1227.346
1225.072
1221.327
1212.698
1232.304
1230.846
1229.281
1227.487
1225.114
1221.066
1211.521
1233.76
1232.372
1230.919
1229.354
1227.549
1225.13
1220.931
1210.964
1235.067
1233.731
1232.346
1230.897
1229.337
1227.538
1225.128
1220.955
1211.077
1236.242
1234.95
1233.614
1232.229
1230.782
1229.231
1227.454
1225.11
1221.133
1211.843
1237.298
1236.047
1234.752
1233.411
1232.024
1230.579
1229.035
1227.294
1225.064
1221.427
1213.523
1238.25
1237.04
1235.783
1234.481
1233.134
1231.742
1230.292
1228.758
1227.063
1224.977
1221.847
1215.754
1239.124
1237.954
1236.737
1235.473
1234.163
1232.809
1231.407
1229.953
1228.429
1226.782
1224.878
1222.364
1218.068
1239.968
1238.841
1237.666
1236.443
1235.172
1233.856
1232.492
1231.082
1229.625
1228.11
1226.539
1224.875
1222.94
1220.49
1240.845
1239.764
1238.634
1237.456
1236.229
1234.955
1233.632
1232.262
1230.846
1229.385
1227.913
1226.448
1224.953
1223.392
1221.876
1241.749
1240.716
1239.634
1238.504
1237.325
1236.098
1234.82
1233.493
1232.119
1230.7
1229.271
1227.864
1226.468
1225.087
1223.73
1242.657
1241.673
1240.64
1239.56
1238.431
1237.253
1236.024
1234.745
1233.416
1232.041
1230.647
1229.267
1227.899
1226.558
1225.258
1243.551
1242.616
1241.633
1240.603
1239.525
1238.398
1237.22
1235.991
1234.712
1233.384
1232.027
1230.67
1229.316
1227.982
1226.687
1220.149
1222.315
1219.774
1224.415
1222.263
1219.08
1226.461
1224.593
1222.156
1217.928
1228.482
1226.795
1224.805
1221.957
1216.266
1230.381
1228.825
1227.101
1224.969
1221.664
1214.429
1232.11
1230.648
1229.089
1227.329
1225.066
1221.347
1212.795
1233.666
1232.275
1230.821
1229.26
1227.473
1225.113
1221.089
1211.63
1235.067
1233.731
1232.346
1230.897
1229.337
1227.538
1225.128
1220.955
1211.077
1236.327
1235.039
1233.706
1232.324
1230.879
1229.324
1227.528
1225.127
1220.979
1211.19
1237.46
1236.215
1234.926
1233.593
1232.212
1230.769
1229.219
1227.444
1225.109
1221.156
1212.34
1238.475
1237.273
1236.025
1234.733
1233.396
1232.012
1230.567
1229.025
1227.287
1225.064
1221.523
1214.234
1239.388
1238.227
1237.02
1235.766
1234.468
1233.125
1231.732
1230.284
1228.751
1227.059
1224.989
1222.016
1216.341
1240.222
1239.104
1237.937
1236.723
1235.463
1234.157
1232.803
1231.402
1229.95
1228.428
1226.79
1224.948
1222.566
1218.661
1241.026
1239.95
1238.826
1237.655
1236.435
1235.168
1233.853
1232.491
1231.082
1229.626
1228.133
1226.606
1225
1223.239
1221.427
1241.859
1240.829
1239.751
1238.624
1237.449
1236.227
1234.954
1233.632
1232.263
1230.849
1229.415
1227.983
1226.548
1225.112
1223.691
1242.717
1241.734
1240.703
1239.625
1238.498
1237.323
1236.096
1234.82
1233.494
1232.122
1230.727
1229.336
1227.952
1226.59
1225.264
1243.577
1242.642
1241.66
1240.631
1239.554
1238.428
1237.251
1236.023
1234.745
1233.418
1232.061
1230.7
1229.34
1227.999
1226.694
1244.423
1243.536
1242.604
1241.624
1240.597
1239.522
1238.396
1237.219
1235.991
1234.713
1233.396
1232.063
1230.723
1229.392
1228.087
1220.319
1222.344
1220.165
1224.295
1222.323
1219.797
1226.196
1224.416
1222.275
1219.113
1228.105
1226.453
1224.594
1222.17
1217.974
1230.016
1228.464
1226.783
1224.803
1221.971
1216.33
1231.825
1230.357
1228.805
1227.088
1224.967
1221.682
1214.51
1233.48
1232.082
1230.625
1229.071
1227.317
1225.066
1221.367
1212.891
1234.978
1233.638
1232.25
1230.8
1229.244
1227.463
1225.111
1221.111
1211.737
1236.327
1235.039
1233.706
1232.324
1230.879
1229.324
1227.528
1225.127
1220.979
1211.19
1237.541
1236.3
1235.014
1233.685
1232.306
1230.865
1229.311
1227.518
1225.125
1221.003
1211.715
1238.63
1237.434
1236.192
1234.906
1233.576
1232.198
1230.756
1229.206
1227.435
1225.108
1221.263
1213.123
1239.604
1238.451
1237.252
1236.007
1234.718
1233.384
1232
1230.555
1229.015
1227.279
1225.064
1221.693
1214.866
1240.476
1239.366
1238.208
1237.004
1235.753
1234.458
1233.115
1231.723
1230.276
1228.745
1227.04
1225.018
1222.186
1216.878
1241.271
1240.202
1239.087
1237.923
1236.713
1235.456
1234.15
1232.797
1231.397
1229.946
1228.42
1226.806
1225.019
1222.772
1219.239
1242.033
1241.008
1239.935
1238.815
1237.646
1236.43
1235.164
1233.85
1232.489
1231.082
1229.635
1228.163
1226.665
1225.131
1223.588
1242.822
1241.843
1240.815
1239.74
1238.617
1237.446
1236.224
1234.952
1233.631
1232.264
1230.865
1229.455
1228.042
1226.641
1225.271
1243.634
1242.701
1241.721
1240.694
1239.618
1238.495
1237.32
1236.095
1234.819
1233.495
1232.137
1230.766
1229.393
1228.034
1226.708
1244.447
1243.562
1242.63
1241.651
1240.625
1239.551
1238.425
1237.249
1236.022
1234.746
1233.429
1232.092
1230.747
1229.408
1228.095
1245.247
1244.408
1243.524
1242.594
1241.618
1240.594
1239.519
1238.394
1237.217
1235.99
1234.717
1233.414
1232.095
1230.773
1229.465
1222.356
1220.334
1224.226
1222.353
1220.186
1226.026
1224.299
1222.337
1219.825
1227.823
1226.193
1224.422
1222.291
1219.15
1229.645
1228.094
1226.449
1224.599
1222.189
1218.026
1231.473
1229.997
1228.45
1226.776
1224.805
1221.991
1216.395
1233.208
1231.8
1230.337
1228.79
1227.079
1224.969
1221.7
1214.59
1234.801
1233.453
1232.059
1230.605
1229.056
1227.31
1225.065
1221.387
1212.986
1236.242
1234.95
1233.614
1232.229
1230.782
1229.231
1227.454
1225.11
1221.133
1211.843
1237.541
1236.3
1235.014
1233.685
1232.306
1230.865
1229.311
1227.518
1225.125
1221.003
1211.715
1238.708
1237.515
1236.276
1234.994
1233.667
1232.292
1230.851
1229.297
1227.508
1225.124
1221.118
1212.54
1239.753
1238.605
1237.411
1236.173
1234.89
1233.563
1232.185
1230.742
1229.194
1227.426
1225.103
1221.444
1213.806
1240.684
1239.58
1238.43
1237.234
1235.992
1234.706
1233.372
1231.988
1230.544
1229.004
1227.243
1225.07
1221.858
1215.42
1241.515
1240.454
1239.347
1238.192
1236.991
1235.744
1234.448
1233.106
1231.715
1230.268
1228.712
1227.014
1225.051
1222.352
1217.353
1242.269
1241.251
1240.186
1239.073
1237.912
1236.705
1235.448
1234.143
1232.791
1231.393
1229.929
1228.407
1226.82
1225.088
1222.973
1220.319
1242.991
1242.016
1240.993
1239.924
1238.806
1237.641
1236.425
1235.16
1233.847
1232.487
1231.08
1229.64
1228.183
1226.718
1225.27
1243.736
1242.806
1241.829
1240.805
1239.733
1238.613
1237.442
1236.221
1234.95
1233.631
1232.269
1230.882
1229.485
1228.094
1226.73
1244.503
1243.619
1242.688
1241.711
1240.687
1239.615
1238.492
1237.318
1236.093
1234.819
1233.501
1232.156
1230.798
1229.444
1228.111
1245.27
1244.433
1243.549
1242.62
1241.644
1240.621
1239.547
1238.423
1237.247
1236.022
1234.748
1233.441
1232.117
1230.789
1229.473
1246.023
1245.232
1244.396
1243.515
1242.587
1241.614
1240.59
1239.516
1238.391
1237.216
1235.987
1234.719
1233.427
1232.123
1230.82
1224.194
1222.365
1220.355
1225.93
1224.23
1222.367
1220.212
1227.644
1226.026
1224.306
1222.355
1219.858
1229.368
1227.817
1226.194
1224.431
1222.313
1219.194
1231.118
1229.632
1228.087
1226.449
1224.608
1222.213
1218.08
1232.874
1231.453
1229.982
1228.44
1226.774
1224.812
1222.011
1216.46
1234.542
1233.184
1231.78
1230.321
1228.779
1227.075
1224.971
1221.719
1214.67
1236.073
1234.774
1233.43
1232.039
1230.59
1229.046
1227.302
1225.065
1221.407
1213.081
1237.46
1236.215
1234.926
1233.593
1232.212
1230.769
1229.219
1227.444
1225.109
1221.156
1212.34
1238.708
1237.515
1236.276
1234.994
1233.667
1232.292
1230.851
1229.297
1227.508
1225.124
1221.118
1212.54
1239.827
1238.682
1237.492
1236.256
1234.977
1233.653
1232.278
1230.837
1229.284
1227.498
1225.118
1221.309
1213.254
1240.827
1239.728
1238.583
1237.392
1236.157
1234.877
1233.55
1232.171
1230.729
1229.182
1227.381
1225.1
1221.616
1214.394
1241.715
1240.661
1239.56
1238.413
1237.219
1235.981
1234.694
1233.36
1231.977
1230.533
1228.954
1227.189
1225.082
1222.015
1215.891
1242.505
1241.494
1240.436
1239.331
1238.179
1236.981
1235.734
1234.438
1233.096
1231.706
1230.227
1228.66
1226.993
1225.086
1222.51
1218.174
1243.219
1242.25
1241.234
1240.172
1239.062
1237.905
1236.697
1235.441
1234.137
1232.786
1231.368
1229.896
1228.391
1226.832
1225.151
1223.36
1220.968
1243.899
1242.973
1242.001
1240.981
1239.915
1238.8
1237.635
1236.42
1235.156
1233.843
1232.476
1231.064
1229.632
1228.191
1226.763
1244.602
1243.72
1242.793
1241.818
1240.797
1239.728
1238.609
1237.438
1236.218
1234.948
1233.627
1232.267
1230.888
1229.505
1228.138
1245.324
1244.488
1243.606
1242.678
1241.704
1240.683
1239.611
1238.488
1237.315
1236.091
1234.816
1233.502
1232.166
1230.823
1229.49
1246.047
1245.256
1244.42
1243.54
1242.613
1241.64
1240.617
1239.544
1238.42
1237.245
1236.016
1234.745
1233.448
1232.138
1230.828
1246.755
1246.009
1245.22
1244.386
1243.508
1242.583
1241.609
1240.586
1239.513
1238.389
1237.207
1235.977
1234.717
1233.437
1232.148
1225.887
1224.199
1222.38
1220.381
1227.543
1225.93
1224.239
1222.386
1220.243
1229.193
1227.64
1226.029
1224.318
1222.378
1219.898
1230.854
1229.359
1227.814
1226.199
1224.445
1222.339
1219.239
1232.537
1231.103
1229.623
1228.084
1226.454
1224.623
1222.237
1218.134
1234.224
1232.854
1231.437
1229.97
1228.435
1226.775
1224.819
1222.031
1216.525
1235.827
1234.518
1233.164
1231.763
1230.308
1228.772
1227.071
1224.973
1221.738
1214.749
1237.298
1236.047
1234.752
1233.411
1232.024
1230.579
1229.035
1227.294
1225.064
1221.427
1213.523
1238.63
1237.434
1236.192
1234.906
1233.576
1232.198
1230.756
1229.206
1227.435
1225.108
1221.263
1213.123
1239.827
1238.682
1237.492
1236.256
1234.977
1233.653
1232.278
1230.837
1229.284
1227.498
1225.118
1221.309
1213.254
1240.899
1239.803
1238.66
1237.473
1236.24
1234.964
1233.639
1232.264
1230.823
1229.271
1227.449
1225.112
1221.486
1213.865
1241.853
1240.803
1239.707
1238.565
1237.377
1236.144
1234.864
1233.536
1232.158
1230.716
1229.122
1227.311
1225.102
1221.776
1214.888
1242.698
1241.693
1240.641
1239.543
1238.398
1237.208
1235.969
1234.682
1233.348
1231.965
1230.477
1228.876
1227.144
1225.098
1222.163
1216.691
1243.447
1242.484
1241.475
1240.42
1239.318
1238.169
1236.971
1235.724
1234.429
1233.087
1231.661
1230.162
1228.614
1226.976
1225.119
1222.821
1219.052
1244.12
1243.2
1242.233
1241.221
1240.161
1239.054
1237.897
1236.69
1235.434
1234.13
1232.755
1231.322
1229.862
1228.373
1226.838
1225.262
1223.602
1221.342
1244.76
1243.882
1242.959
1241.989
1240.972
1239.908
1238.794
1237.629
1236.415
1235.151
1233.825
1232.444
1231.035
1229.61
1228.185
1245.421
1244.586
1243.707
1242.782
1241.81
1240.792
1239.723
1238.604
1237.434
1236.215
1234.937
1233.609
1232.253
1230.884
1229.518
1246.099
1245.309
1244.475
1243.596
1242.671
1241.699
1240.678
1239.607
1238.485
1237.312
1236.082
1234.803
1233.495
1232.171
1230.844
1246.777
1246.032
1245.243
1244.41
1243.532
1242.609
1241.636
1240.613
1239.54
1238.417
1237.235
1236.001
1234.737
1233.451
1232.155
1247.441
1246.74
1245.997
1245.21
1244.379
1243.503
1242.579
1241.605
1240.582
1239.509
1238.375
1237.186
1235.962
1234.712
1233.444
1227.498
1225.887
1224.208
1222.399
1220.411
1229.094
1227.54
1225.934
1224.252
1222.409
1220.28
1230.687
1229.186
1227.64
1226.036
1224.335
1222.406
1219.938
1232.286
1230.843
1229.354
1227.816
1226.208
1224.464
1222.367
1219.285
1233.904
1232.521
1231.092
1229.617
1228.085
1226.463
1224.637
1222.262
1218.189
1235.524
1234.203
1232.837
1231.425
1229.963
1228.434
1226.777
1224.827
1222.051
1216.59
1237.063
1235.803
1234.497
1233.147
1231.75
1230.3
1228.765
1227.067
1224.975
1221.756
1215.123
1238.475
1237.273
1236.025
1234.733
1233.396
1232.012
1230.567
1229.025
1227.287
1225.064
1221.523
1214.234
1239.753
1238.605
1237.411
1236.173
1234.89
1233.563
1232.185
1230.742
1229.194
1227.426
1225.103
1221.444
1213.806
1240.899
1239.803
1238.66
1237.473
1236.24
1234.964
1233.639
1232.264
1230.823
1229.271
1227.449
1225.112
1221.486
1213.865
1241.923
1240.875
1239.781
1238.642
1237.457
1236.227
1234.95
1233.625
1232.25
1230.809
1229.207
1227.373
1225.111
1221.65
1214.377
1242.832
1241.83
1240.783
1239.689
1238.55
1237.365
1236.131
1234.851
1233.523
1232.145
1230.651
1229.028
1227.253
1225.109
1221.924
1215.721
1243.634
1242.677
1241.674
1240.624
1239.529
1238.387
1237.196
1235.957
1234.67
1233.337
1231.906
1230.387
1228.808
1227.107
1225.116
1222.458
1217.671
1244.341
1243.426
1242.466
1241.46
1240.408
1239.308
1238.159
1236.961
1235.714
1234.419
1233.039
1231.587
1230.103
1228.573
1226.961
1225.187
1223.154
1219.682
1244.974
1244.101
1243.184
1242.22
1241.21
1240.153
1239.046
1237.889
1236.682
1235.427
1234.095
1232.699
1231.274
1229.825
1228.35
1226.833
1225.329
1223.747
1221.622
1245.574
1244.743
1243.868
1242.947
1241.979
1240.966
1239.902
1238.788
1237.623
1236.41
1235.127
1233.78
1232.399
1230.992
1229.571
1246.193
1245.405
1244.573
1243.696
1242.774
1241.805
1240.787
1239.718
1238.599
1237.43
1236.198
1234.906
1233.58
1232.23
1230.872
1246.828
1246.084
1245.297
1244.465
1243.588
1242.666
1241.695
1240.674
1239.603
1238.481
1237.297
1236.057
1234.782
1233.483
1232.171
1247.463
1246.763
1246.02
1245.234
1244.403
1243.528
1242.604
1241.631
1240.609
1239.537
1238.402
1237.21
1235.982
1234.725
1233.451
1248.083
1247.427
1246.729
1245.987
1245.203
1244.374
1243.498
1242.574
1241.601
1240.579
1239.492
1238.345
1237.161
1235.944
1234.704
1229.05
1227.495
1225.892
1224.222
1222.422
1220.447
1230.593
1229.088
1227.54
1225.943
1224.27
1222.438
1220.318
1232.128
1230.678
1229.183
1227.643
1226.048
1224.356
1222.434
1219.978
1233.667
1232.274
1230.835
1229.353
1227.821
1226.221
1224.483
1222.394
1219.331
1235.221
1233.888
1232.509
1231.085
1229.616
1228.09
1226.471
1224.651
1222.287
1218.245
1236.775
1235.504
1234.186
1232.824
1231.417
1229.96
1228.432
1226.778
1224.834
1222.071
1216.902
1238.25
1237.04
1235.783
1234.481
1233.134
1231.742
1230.292
1228.758
1227.063
1224.977
1221.847
1215.754
1239.604
1238.451
1237.252
1236.007
1234.718
1233.384
1232
1230.555
1229.015
1227.279
1225.064
1221.693
1214.866
1240.827
1239.728
1238.583
1237.392
1236.157
1234.877
1233.55
1232.171
1230.729
1229.182
1227.381
1225.1
1221.616
1214.394
1241.923
1240.875
1239.781
1238.642
1237.457
1236.227
1234.95
1233.625
1232.25
1230.809
1229.207
1227.373
1225.111
1221.65
1214.377
1242.899
1241.899
1240.854
1239.763
1238.626
1237.444
1236.213
1234.936
1233.611
1232.236
1230.739
1229.105
1227.308
1225.114
1221.802
1215.237
1243.763
1242.809
1241.81
1240.765
1239.675
1238.538
1237.352
1236.118
1234.838
1233.51
1232.078
1230.547
1228.945
1227.203
1225.119
1222.222
1216.77
1244.522
1243.613
1242.658
1241.657
1240.611
1239.518
1238.376
1237.185
1235.945
1234.659
1233.277
1231.812
1230.309
1228.748
1227.076
1225.157
1222.825
1218.45
1245.188
1244.321
1243.409
1242.451
1241.448
1240.398
1239.298
1238.149
1236.951
1235.704
1234.37
1232.96
1231.52
1230.049
1228.537
1226.929
1225.259
1223.394
1220.177
1245.782
1244.956
1244.086
1243.17
1242.209
1241.202
1240.144
1239.037
1237.881
1236.674
1235.388
1234.031
1232.642
1231.225
1229.786
1228.287
1226.826
1225.37
1223.858
1221.866
1246.341
1245.557
1244.729
1243.856
1242.937
1241.973
1240.959
1239.895
1238.781
1237.617
1236.381
1235.072
1233.723
1232.339
1230.928
1246.919
1246.177
1245.392
1244.562
1243.688
1242.768
1241.799
1240.781
1239.713
1238.595
1237.408
1236.156
1234.864
1233.541
1232.199
1247.513
1246.814
1246.072
1245.287
1244.457
1243.583
1242.661
1241.69
1240.669
1239.598
1238.462
1237.263
1236.025
1234.756
1233.466
1248.105
1247.449
1246.751
1246.01
1245.226
1244.398
1243.523
1242.599
1241.627
1240.605
1239.518
1238.368
1237.18
1235.958
1234.711
1248.683
1248.07
1247.415
1246.719
1245.98
1245.198
1244.369
1243.494
1242.57
1241.597
1240.558
1239.456
1238.313
1237.133
1235.925
1230.551
1229.045
1227.496
1225.901
1224.24
1222.451
1220.484
1232.039
1230.584
1229.086
1227.545
1225.956
1224.292
1222.467
1220.356
1233.518
1232.117
1230.672
1229.184
1227.651
1226.063
1224.377
1222.462
1220.019
1234.996
1233.653
1232.265
1230.832
1229.355
1227.83
1226.235
1224.502
1222.421
1219.378
1236.485
1235.203
1233.875
1232.5
1231.082
1229.618
1228.095
1226.48
1224.666
1222.312
1218.514
1237.975
1236.754
1235.487
1234.173
1232.815
1231.412
1229.956
1228.431
1226.78
1224.841
1222.171
1217.479
1239.388
1238.227
1237.02
1235.766
1234.468
1233.125
1231.732
1230.284
1228.751
1227.059
1224.989
1222.016
1216.341
1240.684
1239.58
1238.43
1237.234
1235.992
1234.706
1233.372
1231.988
1230.544
1229.004
1227.243
1225.07
1221.858
1215.42
1241.853
1240.803
1239.707
1238.565
1237.377
1236.144
1234.864
1233.536
1232.158
1230.716
1229.122
1227.311
1225.102
1221.776
1214.888
1242.899
1241.899
1240.854
1239.763
1238.626
1237.444
1236.213
1234.936
1233.611
1232.236
1230.739
1229.105
1227.308
1225.114
1221.802
1215.237
1243.828
1242.876
1241.879
1240.836
1239.748
1238.614
1237.431
1236.2
1234.922
1233.598
1232.165
1230.629
1229.017
1227.253
1225.121
1222.104
1216.324
1244.647
1243.741
1242.79
1241.793
1240.751
1239.663
1238.525
1237.339
1236.106
1234.825
1233.443
1231.971
1230.455
1228.874
1227.162
1225.145
1222.608
1217.638
1245.364
1244.502
1243.594
1242.642
1241.644
1240.6
1239.507
1238.364
1237.173
1235.934
1234.599
1233.18
1231.729
1230.24
1228.698
1227.016
1225.217
1223.118
1219.094
1245.99
1245.169
1244.304
1243.394
1242.44
1241.439
1240.388
1239.288
1238.139
1236.941
1235.653
1234.287
1232.888
1231.459
1230.001
1228.456
1226.891
1225.312
1223.582
1220.602
1246.544
1245.764
1244.94
1244.072
1243.16
1242.201
1241.193
1240.136
1239.029
1237.872
1236.634
1235.319
1233.967
1232.583
1231.175
1229.687
1228.242
1226.824
1225.404
1223.956
1222.098
1247.064
1246.325
1245.543
1244.717
1243.846
1242.93
1241.966
1240.952
1239.888
1238.775
1237.585
1236.318
1235.004
1233.649
1232.256
1247.601
1246.904
1246.164
1245.381
1244.554
1243.682
1242.762
1241.793
1240.775
1239.708
1238.569
1237.358
1236.104
1234.812
1233.494
1248.153
1247.498
1246.801
1246.062
1245.279
1244.452
1243.578
1242.656
1241.685
1240.664
1239.576
1238.42
1237.222
1235.987
1234.726
1248.704
1248.091
1247.437
1246.741
1246.003
1245.221
1244.393
1243.518
1242.594
1241.622
1240.583
1239.478
1238.33
1237.146
1235.931
1249.24
1248.669
1248.058
1247.406
1246.712
1245.975
1245.193
1244.364
1243.489
1242.565
1241.574
1240.516
1239.416
1238.277
1237.104
1232
1230.543
1229.043
1227.501
1225.914
1224.262
1222.48
1220.521
1233.433
1232.029
1230.58
1229.088
1227.554
1225.973
1224.314
1222.496
1220.394
1234.854
1233.505
1232.11
1230.67
1229.188
1227.663
1226.08
1224.399
1222.491
1220.061
1236.271
1234.981
1233.643
1232.259
1230.832
1229.361
1227.84
1226.248
1224.521
1222.449
1219.607
1237.698
1236.468
1235.19
1233.865
1232.495
1231.082
1229.62
1228.1
1226.489
1224.68
1222.434
1219.075
1239.124
1237.954
1236.737
1235.473
1234.163
1232.809
1231.407
1229.953
1228.429
1226.782
1224.878
1222.364
1218.068
1240.476
1239.366
1238.208
1237.004
1235.753
1234.458
1233.115
1231.723
1230.276
1228.745
1227.04
1225.018
1222.186
1216.878
1241.715
1240.661
1239.56
1238.413
1237.219
1235.981
1234.694
1233.36
1231.977
1230.533
1228.954
1227.189
1225.082
1222.015
1215.891
1242.832
1241.83
1240.783
1239.689
1238.55
1237.365
1236.131
1234.851
1233.523
1232.145
1230.651
1229.028
1227.253
1225.109
1221.924
1215.721
1243.828
1242.876
1241.879
1240.836
1239.748
1238.614
1237.431
1236.2
1234.922
1233.598
1232.165
1230.629
1229.017
1227.253
1225.121
1222.104
1216.324
1244.71
1243.806
1242.857
1241.862
1240.822
1239.736
1238.601
1237.418
1236.187
1234.909
1233.527
1232.052
1230.531
1228.939
1227.207
1225.141
1222.5
1217.234
1245.486
1244.626
1243.722
1242.774
1241.78
1240.74
1239.651
1238.513
1237.327
1236.093
1234.758
1233.335
1231.876
1230.376
1228.813
1227.081
1225.194
1222.93
1218.375
1246.161
1245.344
1244.484
1243.579
1242.629
1241.634
1240.589
1239.495
1238.353
1237.162
1235.874
1234.501
1233.094
1231.655
1230.18
1228.591
1226.948
1225.27
1223.358
1219.659
1246.746
1245.971
1245.152
1244.29
1243.383
1242.43
1241.429
1240.378
1239.278
1238.129
1236.889
1235.568
1234.211
1232.822
1231.404
1229.893
1228.365
1226.865
1225.357
1223.741
1221.003
1247.261
1246.526
1245.748
1244.927
1244.062
1243.151
1242.192
1241.185
1240.128
1239.021
1237.83
1236.559
1235.248
1233.902
1232.526
1231.051
1229.621
1228.218
1226.825
1225.437
1224.048
1222.333
1247.742
1247.048
1246.311
1245.531
1244.708
1243.839
1242.923
1241.958
1240.945
1239.881
1238.739
1237.515
1236.241
1234.919
1233.551
1248.24
1247.586
1246.891
1246.153
1245.373
1244.548
1243.676
1242.756
1241.787
1240.77
1239.679
1238.512
1237.298
1236.042
1234.752
1248.751
1248.139
1247.486
1246.791
1246.054
1245.274
1244.447
1243.572
1242.65
1241.679
1240.639
1239.527
1238.371
1237.175
1235.946
1249.26
1248.69
1248.079
1247.427
1246.734
1245.998
1245.216
1244.388
1243.513
1242.59
1241.598
1240.538
1239.433
1238.289
1237.11
1249.756
1249.227