/*--------------------------------*- C++ -*----------------------------------*\
| =========                 |                                                 |
| \\      /  F ield         | OpenFOAM: The Open Source CFD Toolbox           |
|  \\    /   O peration     | Version:  2306                                  |
|   \\  /    A nd           | Website:  www.openfoam.com                      |
|    \\/     M anipulation  |                                                 |
\*---------------------------------------------------------------------------*/
FoamFile
{
    version     2.0;
    format      ascii;
    arch        "LSB;label=32;scalar=64";
    class       volVectorField;
    location    "1.5/fuel";
    object      U;
}
// * * * * * * * * * * * * * * * * * * * * * * * * * * * * * * * * * * * * * //

dimensions      [0 1 -1 0 0 0 0];

internalField   nonuniform List<vector> 
16000
(
(9.84057e-05 7.361577e-05 -0.004865748)
(9.852754e-05 0.0002016523 -0.00494085)
(0.0001759593 7.440879e-05 -0.004032074)
(9.638555e-05 7.844874e-05 -0.01547978)
(9.913852e-05 0.0003570387 -0.005094223)
(0.0001753392 0.0002083828 -0.004076095)
(9.638711e-05 0.000213244 -0.01571682)
(0.0001361893 6.682813e-05 -0.003358447)
(0.0001721168 7.786498e-05 -0.01284384)
(8.927132e-05 8.541016e-05 -0.02301637)
(9.949861e-05 0.0004404926 -0.005330809)
(0.0001746665 0.0003656041 -0.004164171)
(9.674995e-05 0.0003769693 -0.0162007)
(0.0001346892 0.0001882477 -0.003388528)
(0.0001713109 0.0002162466 -0.01298306)
(8.900989e-05 0.0002328238 -0.02336666)
(0.0001026033 5.8969e-05 -0.0028608)
(0.0001331966 6.950804e-05 -0.01071027)
(0.0001591505 8.210716e-05 -0.01911484)
(8.075722e-05 9.11393e-05 -0.03791219)
(0.000101846 0.0006429185 -0.00564367)
(0.0001725726 0.0004656617 -0.004295702)
(9.67038e-05 0.0004677548 -0.01694705)
(0.0001320371 0.0003284982 -0.003448168)
(0.0001702593 0.0003789187 -0.01326149)
(8.882117e-05 0.0004103504 -0.02408167)
(0.0001011929 0.0001665589 -0.002883025)
(0.0001315913 0.0001941745 -0.01080555)
(0.0001579625 0.0002276702 -0.01932086)
(8.018635e-05 0.0002556773 -0.03848715)
(7.886526e-05 5.23914e-05 -0.002482767)
(0.0001003768 6.114319e-05 -0.009132092)
(0.000123098 7.248787e-05 -0.01595277)
(0.0001440622 8.507492e-05 -0.03150443)
(6.694224e-05 0.0001141584 -0.03086981)
(0.0001006843 0.0005034962 -0.006000449)
(0.0001728238 0.0006516445 -0.004461021)
(9.850475e-05 0.0006773667 -0.0179338)
(0.0001271526 0.0004207278 -0.003536038)
(0.0001675531 0.0004833036 -0.01367739)
(8.78897e-05 0.0005146689 -0.02518438)
(9.862434e-05 0.0002897404 -0.002926826)
(0.0001287304 0.0003384845 -0.01099439)
(0.0001561173 0.0003979183 -0.01973292)
(7.934886e-05 0.0004493166 -0.0396604)
(7.769091e-05 0.0001482245 -0.002499951)
(9.889757e-05 0.0001712695 -0.00920258)
(0.0001213063 0.0002019749 -0.01609394)
(0.0001424297 0.000241038 -0.03184279)
(6.567753e-05 0.0003186183 -0.03133692)
(6.261073e-05 4.696179e-05 -0.00218595)
(7.714805e-05 5.421038e-05 -0.007932065)
(9.281664e-05 6.339447e-05 -0.01361162)
(0.0001113371 7.43109e-05 -0.02630846)
(0.0001185904 0.0001007784 -0.02565648)
(0.0005718646 0.00104414 -0.06159548)
(0.0001049402 0.0001323427 -0.006263547)
(0.0001664307 0.0005306955 -0.004641127)
(9.664241e-05 0.0005341126 -0.01906077)
(0.0001227247 0.0005790935 -0.003643965)
(0.0001670029 0.0006735208 -0.0142002)
(8.845183e-05 0.0007344203 -0.02664196)
(9.410548e-05 0.0003718838 -0.002990814)
(0.0001235174 0.0004337996 -0.01127272)
(0.0001521556 0.0005089784 -0.02034844)
(7.737656e-05 0.0005694104 -0.04147089)
(7.553067e-05 0.0002572547 -0.00253367)
(9.619387e-05 0.000297658 -0.009341448)
(0.0001180673 0.000351325 -0.01637373)
(0.0001396609 0.0004201593 -0.03251924)
(6.340187e-05 0.0005573563 -0.03229121)
(6.163623e-05 0.0001330137 -0.002199656)
(7.592519e-05 0.0001521019 -0.007986627)
(9.122655e-05 0.0001770292 -0.01371615)
(0.0001093281 0.0002111204 -0.02654046)
(0.0001159067 0.000282561 -0.02593123)
(0.0005593952 0.002960337 -0.06253023)
(5.09372e-05 4.243058e-05 -0.001946833)
(6.124768e-05 4.85175e-05 -0.006989075)
(7.131638e-05 5.598602e-05 -0.01183013)
(8.400669e-05 6.460925e-05 -0.02245993)
(9.142995e-05 8.616665e-05 -0.02142908)
(0.001014328 0.0009143838 -0.05118975)
(0.0005869761 0.001077264 -0.0434393)
(0.0001076423 6.435517e-05 -0.006432376)
(0.0001702351 0.0001990054 -0.004762899)
(0.0001004058 0.0001508128 -0.0198884)
(0.000112815 0.0004749662 -0.003759507)
(0.0001595895 0.0005493131 -0.01477134)
(8.511117e-05 0.0005865442 -0.02830675)
(8.964828e-05 0.000507222 -0.003068226)
(0.0001186866 0.0005952426 -0.01161468)
(0.0001498833 0.0007034441 -0.02112221)
(7.648384e-05 0.0008009768 -0.04386556)
(7.179142e-05 0.0003305197 -0.00258263)
(9.14641e-05 0.0003821757 -0.009544399)
(0.0001122781 0.000450858 -0.01678617)
(0.0001342379 0.0005390261 -0.03353036)
(5.908678e-05 0.0007181323 -0.03376367)
(5.983372e-05 0.0002304322 -0.002226454)
(7.367035e-05 0.0002637628 -0.00809364)
(8.830022e-05 0.0003070765 -0.01392209)
(0.0001056481 0.0003663875 -0.02700003)
(0.0001109838 0.0004902397 -0.02648135)
(0.0005364239 0.005175005 -0.0644364)
(5.011962e-05 0.0001202785 -0.001958028)
(6.023722e-05 0.0001362855 -0.007032634)
(7.002006e-05 0.0001565531 -0.0119111)
(8.228715e-05 0.0001837923 -0.02263182)
(8.884522e-05 0.0002419108 -0.0216174)
(0.0009886257 0.002599751 -0.05173977)
(0.0005734684 0.003135433 -0.0441025)
(4.234976e-05 3.860569e-05 -0.001750083)
(4.982952e-05 4.378378e-05 -0.006228842)
(5.661303e-05 4.996011e-05 -0.01042937)
(6.451729e-05 5.682956e-05 -0.01953034)
(6.912262e-05 7.404825e-05 -0.01829791)
(0.0007815504 0.000779271 -0.04275585)
(0.001045706 0.0009419672 -0.03608738)
(0.000573268 0.001114645 -0.04822035)
(0.0001098111 7.435121e-06 -0.006528224)
(0.000172474 0.0001107362 -0.004837)
(0.0001027792 7.534721e-05 -0.02041871)
(0.0001114489 0.0001913781 -0.003833162)
(0.00016271 0.0002092566 -0.01515564)
(8.770704e-05 0.0001868233 -0.02952755)
(8.105463e-05 0.0004169842 -0.003150335)
(0.0001082678 0.000488456 -0.01198204)
(0.0001404521 0.0005753908 -0.02196784)
(7.140781e-05 0.0006476747 -0.04660843)
(6.799984e-05 0.0004479341 -0.002641198)
(8.675532e-05 0.0005199269 -0.009790025)
(0.0001066992 0.000614784 -0.01729296)
(0.0001299624 0.0007384633 -0.03480203)
(5.500819e-05 0.0009878331 -0.03571306)
(5.674401e-05 0.0002962028 -0.002265188)
(6.978405e-05 0.0003389401 -0.008249101)
(8.323624e-05 0.000394549 -0.01422312)
(9.918681e-05 0.000470865 -0.02767792)
(0.000102096 0.0006322835 -0.02730334)
(0.0004935832 0.006685142 -0.06738575)
(4.860199e-05 0.0002080549 -0.001979853)
(5.836491e-05 0.0002359194 -0.007117765)
(6.761867e-05 0.0002710067 -0.01206993)
(7.910074e-05 0.000318143 -0.02297026)
(8.401603e-05 0.000418065 -0.02199115)
(0.0009407644 0.004507164 -0.052838)
(0.0005484664 0.005480608 -0.04545472)
(4.165537e-05 0.0001095048 -0.001759399)
(4.898432e-05 0.0001230921 -0.006264452)
(5.555081e-05 0.0001398343 -0.01049405)
(6.313508e-05 0.0001617867 -0.01966357)
(6.703337e-05 0.0002079911 -0.01843743)
(0.0007575456 0.002217238 -0.04313301)
(0.001018185 0.002745128 -0.03647779)
(0.0005591134 0.003191698 -0.04895882)
(3.580033e-05 3.533364e-05 -0.001585445)
(4.143325e-05 3.97985e-05 -0.005602889)
(4.605772e-05 4.49828e-05 -0.009299473)
(5.120731e-05 5.055945e-05 -0.01722604)
(5.301118e-05 6.460832e-05 -0.01591428)
(0.0005911684 0.0006683926 -0.03651082)
(0.0008055733 0.0008022544 -0.03013274)
(0.001017453 0.0009694401 -0.04005266)
(0.0005594589 0.001122141 -0.04895725)
(0.0001108069 2.336848e-06 -0.006571149)
(0.0001747897 3.769227e-05 -0.0048774)
(0.0001047647 1.281711e-05 -0.0207196)
(0.0001102721 0.000108831 -0.003875977)
(0.0001644968 0.0001166325 -0.0153893)
(8.930773e-05 9.712285e-05 -0.03030907)
(7.905744e-05 0.0001732143 -0.003200444)
(0.0001066041 0.0001984365 -0.01221493)
(0.0001420136 0.0002260222 -0.02253629)
(7.263628e-05 0.0002287653 -0.04861131)
(6.106672e-05 0.0003685577 -0.002703008)
(7.784196e-05 0.0004274847 -0.01005159)
(9.544663e-05 0.0005050012 -0.01783767)
(0.0001181839 0.0006059037 -0.03619681)
(4.591176e-05 0.0008147201 -0.03794192)
(5.356456e-05 0.0003994602 -0.002311106)
(6.581991e-05 0.0004583337 -0.008435152)
(7.810389e-05 0.0005339549 -0.0145875)
(9.273552e-05 0.0006377054 -0.02851127)
(9.322671e-05 0.0008530804 -0.02833801)
(0.0004512833 0.009161478 -0.07128995)
(4.601906e-05 0.0002674967 -0.002011283)
(5.516696e-05 0.0003032785 -0.007240874)
(6.351457e-05 0.0003483782 -0.01230069)
(7.364622e-05 0.0004090859 -0.02346532)
(7.575775e-05 0.0005387247 -0.02254215)
(0.0008551247 0.005818355 -0.05448486)
(0.0005020666 0.00708568 -0.04757416)
(4.036321e-05 0.0001891776 -0.001777516)
(4.741322e-05 0.0002127715 -0.006333843)
(5.357576e-05 0.0002416735 -0.01062049)
(6.056228e-05 0.0002795305 -0.01992471)
(6.3117e-05 0.0003586373 -0.01871269)
(0.0007123232 0.003829147 -0.04387897)
(0.0009667956 0.004758639 -0.03725743)
(0.0005327603 0.005578016 -0.05046418)
(3.520361e-05 0.000100273 -0.001593317)
(4.071701e-05 0.0001119607 -0.005632547)
(4.517451e-05 0.0001259901 -0.009352385)
(5.00845e-05 0.0001440121 -0.01733254)
(5.13713e-05 0.0001815239 -0.0160224)
(0.0005719296 0.001902286 -0.03679037)
(0.0007801161 0.00233841 -0.03040058)
(0.0009889297 0.002780589 -0.04048753)
(0.0005446458 0.003250402 -0.0497132)
(3.071562e-05 3.250711e-05 -0.001445703)
(3.503032e-05 3.639644e-05 -0.005078772)
(3.830394e-05 4.0813e-05 -0.008368696)
(4.165681e-05 4.541437e-05 -0.01536668)
(4.205178e-05 5.712857e-05 -0.01403926)
(0.0004532145 0.0005823886 -0.03175751)
(0.0006094535 0.000687734 -0.02572535)
(0.0007835491 0.0008238886 -0.03343979)
(0.0009945549 0.0009725376 -0.04065373)
(0.0005866784 0.001255697 -0.04138815)
(0.0001108069 -2.336848e-06 -0.006571149)
(0.0001758561 1.181481e-05 -0.00489505)
(0.0001056777 3.991129e-06 -0.02085428)
(0.0001103217 4.072047e-05 -0.003898247)
(0.0001665645 4.043991e-05 -0.01551675)
(9.084613e-05 2.409955e-05 -0.03075223)
(7.750627e-05 9.922537e-05 -0.003228596)
(0.0001052347 0.000112798 -0.01235021)
(0.0001427797 0.0001263722 -0.02288183)
(7.333303e-05 0.000122469 -0.049892)
(5.921469e-05 0.000155787 -0.002739386)
(7.567255e-05 0.000178531 -0.01021022)
(9.318121e-05 0.00020857 -0.01818274)
(0.0001179342 0.0002456299 -0.03712899)
(4.42486e-05 0.0003319011 -0.0395745)
(4.792852e-05 0.0003287639 -0.002359444)
(5.866639e-05 0.0003770923 -0.008632364)
(6.872823e-05 0.00043913 -0.01497573)
(8.051043e-05 0.0005244088 -0.02941075)
(7.569779e-05 0.0007037787 -0.02946882)
(0.0003626876 0.007579765 -0.0758273)
(4.33361e-05 0.0003593322 -0.002048262)
(5.186193e-05 0.0004082083 -0.007386888)
(5.927883e-05 0.0004689602 -0.01257692)
(6.801907e-05 0.0005504381 -0.02406481)
(6.707189e-05 0.000720694 -0.02322006)
(0.0007675988 0.007827871 -0.05655637)
(0.0004556755 0.009704468 -0.05035975)
(3.817631e-05 0.0002432443 -0.001803527)
(4.474752e-05 0.0002735632 -0.006433826)
(5.022623e-05 0.0003107263 -0.01080335)
(5.620333e-05 0.000359483 -0.02030443)
(5.653106e-05 0.0004618461 -0.01911505)
(0.0006352991 0.004936643 -0.04498344)
(0.0008750657 0.006144854 -0.03844888)
(0.0004841529 0.007221209 -0.05283346)
(3.409117e-05 0.0001730409 -0.001608593)
(3.93827e-05 0.0001932935 -0.005690192)
(4.35283e-05 0.0002174563 -0.009455502)
(4.798916e-05 0.0002484531 -0.01754052)
(4.829309e-05 0.0003125016 -0.01623482)
(0.0005356171 0.003277986 -0.03733975)
(0.0007321024 0.004037995 -0.0309305)
(0.0009354744 0.004819044 -0.04135569)
(0.0005169165 0.005680146 -0.0512506)
(3.019771e-05 9.228813e-05 -0.00145244)
(3.441593e-05 0.0001024425 -0.005103853)
(3.75589e-05 0.0001143719 -0.008412787)
(4.072908e-05 0.0001294055 -0.01545385)
(4.073963e-05 0.0001605363 -0.01412569)
(0.00043817 0.001657753 -0.03197429)
(0.0005891064 0.002004897 -0.02592395)
(0.0007575689 0.002363974 -0.03373823)
(0.0009650665 0.002819498 -0.0410997)
(0.0005698053 0.003603587 -0.04202193)
(2.667033e-05 3.004073e-05 -0.001325671)
(3.006065e-05 3.346252e-05 -0.00463365)
(3.239297e-05 3.726745e-05 -0.007588995)
(3.465153e-05 4.112523e-05 -0.01383447)
(3.419881e-05 5.106667e-05 -0.01252615)
(0.0003594677 0.0005144251 -0.02801878)
(0.0004671795 0.0005989933 -0.02237188)
(0.0005929837 0.0007055109 -0.02854631)
(0.0007656871 0.0008253284 -0.03393454)
(0.001039908 0.001081945 -0.0343596)
(0.004867366 0.0116961 -0.1085824)
(0.0001098111 -7.435121e-06 -0.006528224)
(0.0001758561 -1.181481e-05 -0.00489505)
(0.0001056777 -3.991129e-06 -0.02085428)
(0.0001103522 1.280918e-05 -0.003907625)
(0.0001675191 1.265171e-05 -0.01557243)
(9.155701e-05 7.455963e-06 -0.03095052)
(7.713046e-05 3.840451e-05 -0.003242685)
(0.0001051839 4.249812e-05 -0.01242063)
(0.0001442601 4.534828e-05 -0.02307032)
(7.434915e-05 3.722139e-05 -0.05061794)
(5.78091e-05 8.952096e-05 -0.00275927)
(7.401196e-05 0.0001021722 -0.01029926)
(9.142993e-05 0.0001184605 -0.01838318)
(0.0001175151 0.0001377622 -0.03769503)
(4.303037e-05 0.0001839376 -0.04061774)
(4.631433e-05 0.0001405778 -0.002386985)
(5.67016e-05 0.0001600049 -0.008747624)
(6.624124e-05 0.0001854043 -0.01521104)
(7.754367e-05 0.0002204559 -0.02997657)
(7.148137e-05 0.0003008681 -0.03022875)
(0.0003424994 0.003153319 -0.0790735)
(3.868272e-05 0.0002957378 -0.002087153)
(4.606464e-05 0.0003359064 -0.007541327)
(5.183279e-05 0.000385781 -0.01286985)
(5.810301e-05 0.0004528166 -0.02470655)
(5.20874e-05 0.0005938256 -0.02394829)
(0.0006006926 0.006464286 -0.05887612)
(0.0003602206 0.008035714 -0.05389572)
(3.589005e-05 0.0003256971 -0.001833931)
(4.196935e-05 0.0003668423 -0.006551521)
(4.673444e-05 0.0004165533 -0.01102028)
(5.164988e-05 0.0004814654 -0.02075911)
(4.953556e-05 0.0006148662 -0.0196027)
(0.0005536564 0.006588326 -0.04634091)
(0.0007806806 0.008264088 -0.03993504)
(0.000434726 0.009881127 -0.05594413)
(3.221708e-05 0.0002224943 -0.001630469)
(3.713058e-05 0.0002485276 -0.005773004)
(4.075238e-05 0.000279594 -0.009604103)
(4.446206e-05 0.0003195013 -0.01784158)
(4.315469e-05 0.0004022126 -0.01654344)
(0.0004747309 0.004222477 -0.03814674)
(0.0006504105 0.005206795 -0.03173362)
(0.0008404151 0.006226003 -0.04269033)
(0.0004660465 0.007362095 -0.05370138)
(2.923086e-05 0.000159112 -0.001465488)
(3.326948e-05 0.0001766764 -0.005152493)
(3.616785e-05 0.0001971819 -0.008498498)
(3.899483e-05 0.0002229828 -0.01562356)
(3.827466e-05 0.0002760275 -0.01429489)
(0.0004097512 0.002852173 -0.03239827)
(0.0005506703 0.003454492 -0.02631445)
(0.0007085036 0.004081338 -0.03432848)
(0.0009096126 0.004885831 -0.04198731)
(0.0005378189 0.006297092 -0.04332236)
(2.621675e-05 8.531368e-05 -0.001331499)
(2.952819e-05 9.422378e-05 -0.004655129)
(3.17562e-05 0.0001044799 -0.007626299)
(3.387272e-05 0.0001172168 -0.01390715)
(3.312668e-05 0.0001435183 -0.01259688)
(0.0003474595 0.001464426 -0.02819215)
(0.0004512875 0.001746354 -0.02252595)
(0.0005723106 0.00202459 -0.02876767)
(0.0007391777 0.002392919 -0.03424104)
(0.001006703 0.00310743 -0.03473176)
(0.004707892 0.03373848 -0.1104353)
(2.34097e-05 2.787183e-05 -0.001221503)
(2.610716e-05 3.090605e-05 -0.004251098)
(2.780834e-05 3.421944e-05 -0.006926529)
(2.931385e-05 3.74927e-05 -0.01255052)
(2.846374e-05 4.606057e-05 -0.01127913)
(0.0002923163 0.0004594549 -0.02500178)
(0.000370529 0.0005289216 -0.01973493)
(0.0004544648 0.00061402 -0.02482364)
(0.0005796501 0.000706117 -0.0289641)
(0.0008002633 0.0009159926 -0.02867507)
(0.008614484 0.009974081 -0.09009886)
(0.005009439 0.01162896 -0.01111187)
(0.0001076423 -6.435517e-05 -0.006432376)
(0.0001747897 -3.769227e-05 -0.0048774)
(0.0001047647 -1.281711e-05 -0.0207196)
(0.0001103522 -1.280918e-05 -0.003907625)
(0.0001675191 -1.265171e-05 -0.01557243)
(9.155701e-05 -7.455963e-06 -0.03095052)
(7.695833e-05 1.208738e-05 -0.003248423)
(0.0001051694 1.33448e-05 -0.0124503)
(0.0001449498 1.413836e-05 -0.02315269)
(7.482411e-05 1.148497e-05 -0.05094273)
(5.738331e-05 3.52544e-05 -0.002768895)
(7.358205e-05 3.969001e-05 -0.01034387)
(9.11629e-05 4.525167e-05 -0.01848758)
(0.0001183144 5.108503e-05 -0.03800384)
(4.297228e-05 6.769461e-05 -0.04120898)
(4.510526e-05 8.0905e-05 -0.00240168)
(5.522518e-05 9.183741e-05 -0.008810549)
(6.438636e-05 0.0001058971 -0.01534313)
(7.534746e-05 0.0001251046 -0.03030484)
(6.84571e-05 0.0001695761 -0.03069)
(0.0003281076 0.001755207 -0.08114549)
(3.729074e-05 0.0001274963 -0.002108657)
(4.437106e-05 0.0001440406 -0.007628648)
(4.967406e-05 0.0001649749 -0.01304097)
(5.524509e-05 0.0001934851 -0.02509238)
(4.744085e-05 0.0002575866 -0.02440981)
(0.0005558405 0.002789608 -0.06037618)
(0.000337195 0.003359421 -0.05610038)
(3.19896e-05 0.0002680228 -0.00186591)
(3.719302e-05 0.0003018457 -0.006675929)
(4.073776e-05 0.0003426443 -0.01124983)
(4.386138e-05 0.00039601 -0.0212438)
(3.792511e-05 0.0005060549 -0.02012172)
(0.0004148533 0.005430789 -0.04784432)
(0.0006023675 0.006825719 -0.04183763)
(0.0003353397 0.008192937 -0.06001588)
(3.024858e-05 0.0002971056 -0.001655892)
(3.476984e-05 0.0003322467 -0.005869852)
(3.783971e-05 0.000373576 -0.009779068)
(4.075155e-05 0.0004263873 -0.01819884)
(3.767432e-05 0.0005336505 -0.0169133)
(0.0004097516 0.005609499 -0.03912359)
(0.0005636241 0.00694718 -0.03271161)
(0.0007415654 0.008368733 -0.04435343)
(0.0004135646 0.01006922 -0.05690226)
(2.760827e-05 0.0002045742 -0.001484133)
(3.134278e-05 0.0002271535 -0.005222193)
(3.383284e-05 0.0002535099 -0.008621645)
(3.608967e-05 0.0002867085 -0.01586834)
(3.417922e-05 0.0003550972 -0.01453958)
(0.0003624321 0.003671523 -0.03301763)
(0.0004862714 0.004450332 -0.02690373)
(0.0006251637 0.00526422 -0.03522956)
(0.0008113018 0.006315252 -0.04337693)
(0.0004795349 0.008175278 -0.04538321)
(2.536904e-05 0.0001469671 -0.001342768)
(2.853337e-05 0.0001623555 -0.004696704)
(3.056578e-05 0.0001799551 -0.007698657)
(3.241511e-05 0.0002017742 -0.01404828)
(3.111156e-05 0.0002465178 -0.01273497)
(0.000324765 0.002516518 -0.02852992)
(0.0004212469 0.003004375 -0.0228275)
(0.000533226 0.003487807 -0.02920275)
(0.000689041 0.004130849 -0.03484506)
(0.0009436914 0.005384168 -0.03548163)
(0.004384969 0.05891583 -0.1140313)
(2.300936e-05 7.917554e-05 -0.001226592)
(2.564141e-05 8.705505e-05 -0.004269693)
(2.725812e-05 9.596751e-05 -0.006958492)
(2.865082e-05 0.0001068863 -0.01261204)
(2.757153e-05 0.00012946 -0.0113381)
(0.0002825228 0.001308012 -0.02514376)
(0.0003578542 0.001542142 -0.01985821)
(0.0004383497 0.001762154 -0.02499543)
(0.0005586369 0.002047395 -0.02919172)
(0.0007709127 0.002631035 -0.02892999)
(0.008305421 0.02876421 -0.09122977)
(0.004851723 0.03390367 -0.01158879)
(2.07359e-05 2.594988e-05 -0.001130294)
(2.292108e-05 2.866057e-05 -0.003918931)
(2.416202e-05 3.157061e-05 -0.006356958)
(2.517806e-05 3.437994e-05 -0.01145925)
(2.410046e-05 4.185352e-05 -0.01023404)
(0.0002433293 0.0004141296 -0.02251534)
(0.0003013053 0.0004722807 -0.01760751)
(0.0003604191 0.0005418832 -0.02189676)
(0.0004441666 0.0006141554 -0.02518389)
(0.0006061217 0.0007826852 -0.02447141)
(0.006623338 0.008408019 -0.07516274)
(0.008892428 0.009944171 -0.009176477)
(0.004839025 0.0119563 -0.03199533)
(0.0001049402 -0.0001323427 -0.006263547)
(0.000172474 -0.0001107362 -0.004837)
(0.0001027792 -7.534721e-05 -0.02041871)
(0.0001103217 -4.072047e-05 -0.003898247)
(0.0001665645 -4.043991e-05 -0.01551675)
(9.084613e-05 -2.409955e-05 -0.03075223)
(7.695833e-05 -1.208738e-05 -0.003248423)
(0.0001051694 -1.33448e-05 -0.0124503)
(0.0001449498 -1.413836e-05 -0.02315269)
(7.482411e-05 -1.148497e-05 -0.05094273)
(5.718632e-05 1.109245e-05 -0.002772699)
(7.33861e-05 1.247199e-05 -0.01036205)
(9.105117e-05 1.416066e-05 -0.01853158)
(0.0001186968 1.587619e-05 -0.03813884)
(4.2963e-05 2.084541e-05 -0.0414735)
(4.470641e-05 3.220219e-05 -0.002408579)
(5.476565e-05 3.62449e-05 -0.008841049)
(6.384993e-05 4.144662e-05 -0.01540936)
(7.482848e-05 4.848115e-05 -0.03047586)
(6.781329e-05 6.617053e-05 -0.03094167)
(0.0003256188 0.0006602207 -0.08232008)
(3.625777e-05 7.343311e-05 -0.002119879)
(4.311245e-05 8.279435e-05 -0.007675167)
(4.808223e-05 9.446179e-05 -0.01313441)
(5.316316e-05 0.0001102794 -0.02530867)
(4.416385e-05 0.0001459389 -0.02467751)
(0.0005241141 0.001573465 -0.06128412)
(0.0003208791 0.001872206 -0.05750166)
(3.078746e-05 0.0001162655 -0.001883097)
(3.574237e-05 0.0001304112 -0.006744147)
(3.891571e-05 0.0001477866 -0.01137956)
(4.147577e-05 0.0001708302 -0.02152439)
(3.411339e-05 0.0002209558 -0.02043662)
(0.0003702831 0.00237007 -0.04875059)
(0.0005530621 0.002950088 -0.04282202)
(0.0003095481 0.003451521 -0.06243089)
(2.693414e-05 0.0002444496 -0.001682655)
(3.077265e-05 0.0002733332 -0.005972268)
(3.292065e-05 0.0003072237 -0.009964077)
(3.452118e-05 0.0003505889 -0.01857899)
(2.873432e-05 0.0004387748 -0.01730493)
(0.0003029977 0.004617513 -0.04020097)
(0.0004165928 0.005726567 -0.03399001)
(0.0005574995 0.006913991 -0.04657948)
(0.0003100548 0.008357927 -0.06142417)
(2.589785e-05 0.0002725444 -0.001505687)
(2.931455e-05 0.0003028898 -0.005303236)
(3.137175e-05 0.0003377954 -0.008765696)
(3.301932e-05 0.0003815213 -0.01615662)
(2.980097e-05 0.000469899 -0.0148302)
(0.0003117866 0.004861896 -0.03375887)
(0.0004174488 0.005911214 -0.02761002)
(0.0005363019 0.007021439 -0.03632583)
(0.0007081698 0.008487297 -0.04509802)
(0.0004183151 0.01117918 -0.04808728)
(2.395108e-05 0.0001889444 -0.00135884)
(2.686753e-05 0.0002087255 -0.004756152)
(2.85751e-05 0.0002313374 -0.007802357)
(2.998281e-05 0.0002593945 -0.01425123)
(2.77753e-05 0.0003169985 -0.01293392)
(0.0002871449 0.003237639 -0.02902131)
(0.0003712589 0.003867736 -0.02328155)
(0.0004678189 0.004494106 -0.02986481)
(0.0006039989 0.005329589 -0.03578784)
(0.0008324203 0.006964262 -0.03664575)
(0.003805271 0.0767203 -0.1205732)
(2.22605e-05 0.0001362948 -0.001236417)
(2.477034e-05 0.0001498852 -0.004305621)
(2.622851e-05 0.0001651565 -0.007020368)
(2.740878e-05 0.0001838317 -0.01273124)
(2.5894e-05 0.0002221833 -0.01145295)
(0.000264008 0.002245536 -0.02541945)
(0.0003338854 0.002649887 -0.0200986)
(0.0004078684 0.003031078 -0.02533151)
(0.0005188695 0.003526758 -0.0296373)
(0.0007150719 0.004541504 -0.02943985)
(0.007687642 0.04979971 -0.09334481)
(0.004531975 0.05967591 -0.01255713)
(2.038007e-05 7.373259e-05 -0.001134774)
(2.251042e-05 8.075327e-05 -0.003935178)
(2.368193e-05 8.856374e-05 -0.00638464)
(2.460699e-05 9.802897e-05 -0.01151199)
(2.33463e-05 0.0001176427 -0.01028395)
(0.0002351914 0.001179019 -0.02263378)
(0.0002909742 0.001377035 -0.01770852)
(0.0003475828 0.001555182 -0.02203426)
(0.0004278144 0.001780796 -0.02536075)
(0.0005829742 0.002248122 -0.02466019)
(0.006357683 0.02424217 -0.07595915)
(0.008585374 0.02898297 -0.009523995)
(0.004673063 0.03461929 -0.03292691)
(1.85202e-05 2.423608e-05 -0.001049806)
(2.030855e-05 2.667278e-05 -0.003627937)
(2.122486e-05 2.92492e-05 -0.005862214)
(2.188988e-05 3.168217e-05 -0.0105207)
(2.072988e-05 3.827112e-05 -0.009345677)
(0.0002060739 0.0003760876 -0.02043146)
(0.0002508253 0.0004256011 -0.01585456)
(0.0002930736 0.0004836359 -0.01953567)
(0.0003522306 0.0005417363 -0.0222124)
(0.0004643318 0.0006801488 -0.02127518)
(0.005022387 0.007166808 -0.0641251)
(0.006839095 0.008392379 -0.007631314)
(0.008568457 0.0101757 -0.02649857)
(0.004794836 0.01203258 -0.01180383)
(0.0001006843 -0.0005034962 -0.006000449)
(0.0001702351 -0.0001990054 -0.004762899)
(0.0001004058 -0.0001508128 -0.0198884)
(0.0001102721 -0.000108831 -0.003875977)
(0.0001644968 -0.0001166325 -0.0153893)
(8.930773e-05 -9.712285e-05 -0.03030907)
(7.713046e-05 -3.840451e-05 -0.003242685)
(0.0001051839 -4.249812e-05 -0.01242063)
(0.0001442601 -4.534828e-05 -0.02307032)
(7.434915e-05 -3.722139e-05 -0.05061794)
(5.718632e-05 -1.109245e-05 -0.002772699)
(7.33861e-05 -1.247199e-05 -0.01036205)
(9.105117e-05 -1.416066e-05 -0.01853158)
(0.0001186968 -1.587619e-05 -0.03813884)
(4.2963e-05 -2.084541e-05 -0.0414735)
(4.452167e-05 1.012675e-05 -0.002411225)
(5.455401e-05 1.138741e-05 -0.008853104)
(6.360722e-05 1.298205e-05 -0.01543637)
(7.460359e-05 1.511797e-05 -0.03054795)
(6.754623e-05 2.046795e-05 -0.03105171)
(0.0003246494 0.0002032519 -0.08284572)
(3.590107e-05 2.943788e-05 -0.002124992)
(4.269066e-05 3.299738e-05 -0.007697034)
(4.756114e-05 3.744897e-05 -0.01317974)
(5.250232e-05 4.351271e-05 -0.02541711)
(4.307002e-05 5.79745e-05 -0.02481701)
(0.0005157576 0.000618898 -0.06177939)
(0.0003175666 0.0007085024 -0.05829755)
(2.990175e-05 6.699221e-05 -0.001891876)
(3.467294e-05 7.501574e-05 -0.006779677)
(3.758225e-05 8.472616e-05 -0.01144869)
(3.97488e-05 9.755711e-05 -0.02167733)
(3.143114e-05 0.0001254367 -0.02061314)
(0.0003390433 0.001342403 -0.04927376)
(0.0005183051 0.001664212 -0.04340924)
(0.0002914003 0.001927177 -0.06395989)
(2.588969e-05 0.0001065522 -0.001696651)
(2.952555e-05 0.0001187664 -0.006026813)
(3.138026e-05 0.0001333226 -0.01006549)
(3.254861e-05 0.0001522087 -0.01879172)
(2.573289e-05 0.0001923021 -0.01753409)
(0.0002671988 0.002025182 -0.04081671)
(0.0003689751 0.002500477 -0.03456711)
(0.0005043493 0.002995126 -0.04764259)
(0.0002815767 0.003541332 -0.06378294)
(2.304867e-05 0.0002241951 -0.001528412)
(2.59221e-05 0.0002491278 -0.005389039)
(2.726851e-05 0.000277722 -0.008918072)
(2.793279e-05 0.0003135741 -0.01646329)
(2.273743e-05 0.0003860278 -0.01513711)
(0.0002298606 0.003997553 -0.03457601)
(0.0003046324 0.004865452 -0.02855289)
(0.000386587 0.005787606 -0.03783773)
(0.0005183248 0.007013012 -0.04766327)
(0.0003004515 0.009291857 -0.05183502)
(2.245215e-05 0.0002512195 -0.001377331)
(2.510824e-05 0.0002777053 -0.004824913)
(2.646992e-05 0.0003075407 -0.007922961)
(2.740397e-05 0.0003443505 -0.01448869)
(2.420319e-05 0.0004185943 -0.01316844)
(0.0002468147 0.00427673 -0.02960406)
(0.0003177031 0.005121161 -0.0238193)
(0.0003977617 0.005968075 -0.03065769)
(0.0005130365 0.007108656 -0.03692724)
(0.0007143459 0.009361215 -0.03809638)
(0.003174969 0.1043438 -0.1286906)
(2.10114e-05 0.0001752078 -0.001250406)
(2.331624e-05 0.0001926751 -0.004356899)
(2.451219e-05 0.0002122868 -0.007108855)
(2.534293e-05 0.0002362849 -0.01290222)
(2.312453e-05 0.0002855985 -0.01161791)
(0.0002334185 0.002887618 -0.02581926)
(0.0002941747 0.0034094 -0.0204602)
(0.0003571985 0.003902623 -0.02584229)
(0.0004523843 0.004545179 -0.03033276)
(0.0006205252 0.005862027 -0.03022758)
(0.006606835 0.06449238 -0.09730567)
(0.003947902 0.07787001 -0.0173173)
(1.971395e-05 0.0001268439 -0.00114341)
(2.174178e-05 0.0001389389 -0.003966521)
(2.278285e-05 0.0001523048 -0.006438136)
(2.35365e-05 0.0001684718 -0.01161397)
(2.192795e-05 0.0002017583 -0.01038097)
(0.0002198031 0.002022444 -0.02286312)
(0.0002714323 0.002363895 -0.01790487)
(0.0003232963 0.00267192 -0.02230227)
(0.0003968593 0.003062901 -0.02570522)
(0.0005389388 0.003872266 -0.02503609)
(0.005829965 0.04181481 -0.07741799)
(0.007970721 0.05056129 -0.01023397)
(0.004336794 0.06174887 -0.03473096)
(1.820196e-05 6.887637e-05 -0.001053778)
(1.994386e-05 7.517077e-05 -0.003642248)
(2.080246e-05 8.207084e-05 -0.005886412)
(2.139295e-05 9.034901e-05 -0.0105664)
(2.008416e-05 0.0001075783 -0.009388464)
(0.0001992036 0.001070738 -0.02053178)
(0.0002422448 0.001240946 -0.01593886)
(0.000282621 0.001388033 -0.01964837)
(0.00033922 0.00157082 -0.02235413)
(0.0004463599 0.001953555 -0.02142151)
(0.004814724 0.02065994 -0.06472836)
(0.006573102 0.02445351 -0.007903888)
(0.008248724 0.02945335 -0.0271428)
(0.004625811 0.03495516 -0.01238023)
(1.666071e-05 2.269863e-05 -0.0009782876)
(1.814387e-05 2.490182e-05 -0.003371022)
(1.881689e-05 2.719814e-05 -0.005428639)
(1.924303e-05 2.932329e-05 -0.009705176)
(1.8053e-05 3.518301e-05 -0.008581534)
(0.0001773168 0.0003437283 -0.01866003)
(0.0002124394 0.0003864376 -0.01438567)
(0.0002439952 0.0004356713 -0.01759033)
(0.000286407 0.0004833153 -0.01981573)
(0.0003681914 0.0005995406 -0.01876325)
(0.003845404 0.006217154 -0.05573712)
(0.005184676 0.007157678 -0.006494573)
(0.00658821 0.008571176 -0.02208163)
(0.008495346 0.01022936 -0.009757698)
(0.004696532 0.01201614 -0.00604468)
(0.000101846 -0.0006429185 -0.00564367)
(0.0001664307 -0.0005306955 -0.004641127)
(9.664241e-05 -0.0005341126 -0.01906077)
(0.0001114489 -0.0001913781 -0.003833162)
(0.00016271 -0.0002092566 -0.01515564)
(8.770704e-05 -0.0001868233 -0.02952755)
(7.750627e-05 -9.922537e-05 -0.003228596)
(0.0001052347 -0.000112798 -0.01235021)
(0.0001427797 -0.0001263722 -0.02288183)
(7.333303e-05 -0.000122469 -0.049892)
(5.738331e-05 -3.52544e-05 -0.002768895)
(7.358205e-05 -3.969001e-05 -0.01034387)
(9.11629e-05 -4.525167e-05 -0.01848758)
(0.0001183144 -5.108503e-05 -0.03800384)
(4.297228e-05 -6.769461e-05 -0.04120898)
(4.452167e-05 -1.012675e-05 -0.002411225)
(5.455401e-05 -1.138741e-05 -0.008853104)
(6.360722e-05 -1.298205e-05 -0.01543637)
(7.460359e-05 -1.511797e-05 -0.03054795)
(6.754623e-05 -2.046795e-05 -0.03105171)
(0.0003246494 -0.0002032519 -0.08284572)
(3.573596e-05 9.252311e-06 -0.002126893)
(4.249605e-05 1.036278e-05 -0.00770542)
(4.732305e-05 1.173043e-05 -0.01319767)
(5.220499e-05 1.358243e-05 -0.02546134)
(4.25872e-05 1.797096e-05 -0.02487584)
(0.0005121999 0.0001912971 -0.06199591)
(0.0003162326 0.0002181033 -0.0586537)
(2.95871e-05 2.699545e-05 -0.001895757)
(3.429972e-05 3.009535e-05 -0.006795885)
(3.712143e-05 3.386061e-05 -0.01148121)
(3.915567e-05 3.886893e-05 -0.02175152)
(3.046593e-05 5.022147e-05 -0.02070169)
(0.0003282279 0.0005355543 -0.04954596)
(0.0005086941 0.0006559863 -0.04372906)
(0.0002870431 0.0007362674 -0.06483016)
(2.512455e-05 6.140778e-05 -0.001703651)
(2.861196e-05 6.834482e-05 -0.006054608)
(3.025947e-05 7.648373e-05 -0.01011832)
(3.112738e-05 8.701015e-05 -0.01890484)
(2.362377e-05 0.0001092667 -0.01765902)
(0.0002421396 0.001148894 -0.04115953)
(0.0003356575 0.001416004 -0.03489104)
(0.000467075 0.001689916 -0.04827031)
(0.000261653 0.001980356 -0.06526429)
(2.21354e-05 9.810391e-05 -0.001539984)
(2.484223e-05 0.0001087304 -0.005433473)
(2.59562e-05 0.0001210822 -0.008999207)
(2.628715e-05 0.0001367661 -0.01662958)
(2.033645e-05 0.0001696122 -0.01531097)
(0.0002019148 0.001758196 -0.03502236)
(0.0002666261 0.002134036 -0.02893432)