/*--------------------------------*- C++ -*----------------------------------*\
| =========                 |                                                 |
| \\      /  F ield         | OpenFOAM: The Open Source CFD Toolbox           |
|  \\    /   O peration     | Version:  2306                                  |
|   \\  /    A nd           | Website:  www.openfoam.com                      |
|    \\/     M anipulation  |                                                 |
\*---------------------------------------------------------------------------*/
FoamFile
{
    version     2.0;
    format      ascii;
    arch        "LSB;label=32;scalar=64";
    class       volScalarField;
    location    "1.5/fuel";
    object      X.H2O;
}
// * * * * * * * * * * * * * * * * * * * * * * * * * * * * * * * * * * * * * //

dimensions      [0 0 0 0 0 0 0];

internalField   nonuniform List<scalar> 
16000
(
0.06757065
0.06632243
0.08768094
0.06749945
0.06383507
0.08670733
0.06625059
0.1102622
0.08761594
0.06736008
0.06017987
0.08476866
0.06376184
0.1093894
0.08664192
0.06610998
0.1322562
0.1102025
0.08748854
0.06715472
0.0556187
0.08192095
0.06010429
0.1076506
0.08470237
0.06361855
0.1314424
0.1093293
0.08651372
0.0659028
0.153272
0.1322007
0.1100852
0.08730062
0.06688462
0.05091441
0.07836453
0.05553934
0.105094
0.08185322
0.05995644
0.1298217
0.1075899
0.0845725
0.06340746
0.1525045
0.1313866
0.1092114
0.08632465
0.06563034
0.1733145
0.15322
0.1320916
0.1099121
0.08705333
0.06661721
0.04747685
0.07468114
0.05082994
0.1018965
0.07829449
0.05538411
0.127439
0.1050322
0.08172053
0.05973865
0.1509766
0.1297654
0.1074708
0.08438096
0.06312988
0.1725869
0.1524522
0.131277
0.1090375
0.08607584
0.0653606
0.1924509
0.1732654
0.1531177
0.1319304
0.1096842
0.08680839
0.06639605
0.04533469
0.0719499
0.04739011
0.09857877
0.07460799
0.05066467
0.1244591
0.1018328
0.07815728
0.05515547
0.1487309
0.1273817
0.1049109
0.08152486
0.05945231
0.1711388
0.1509239
0.1296547
0.1072949
0.08412893
0.06285509
0.1917587
0.1725376
0.1523495
0.1311151
0.1088084
0.08582942
0.06513751
0.2107505
0.1924044
0.1731689
0.1529664
0.1317181
0.1094584
0.08660583
0.0661766
0.04413233
0.07021481
0.0452471
0.09611282
0.07187572
0.04722047
0.121367
0.09851265
0.07446463
0.05042119
0.1459232
0.1244003
0.101708
0.07795493
0.05485485
0.169011
0.1486773
0.1272692
0.1047318
0.08126741
0.05916887
0.1903816
0.1710891
0.1508202
0.1294912
0.1070633
0.08387932
0.06262771
0.2100904
0.1917121
0.1724407
0.1521976
0.1309018
0.1085814
0.08562561
0.06491612
0.2282766
0.2107064
0.1923131
0.1730262
0.152767
0.1315076
0.1092716
0.08640483
0.06595884
0.04359569
0.06922204
0.04404437
0.09454125
0.07014048
0.04507585
0.1190674
0.09604603
0.07173036
0.04697061
0.1430103
0.1213061
0.09838289
0.07425317
0.05010097
0.1663515
0.1458683
0.1242848
0.1015237
0.07768868
0.05455725
0.1883585
0.1689606
0.1485721
0.1271031
0.1044961
0.08101245
0.05893391
0.2087774
0.1903347
0.1709915
0.150667
0.1292759
0.1068339
0.0836728
0.06240196
0.2276457
0.2100462
0.1916204
0.1722975
0.1519974
0.1306904
0.1083937
0.08542337
0.06469642
0.2450847
0.2282346
0.2106196
0.1921779
0.172838
0.1525694
0.1313335
0.1090863
0.08620538
0.06574278
0.04359569
0.06877262
0.04350756
0.09363906
0.06914776
0.04387244
0.1176002
0.09447454
0.06999489
0.04482372
0.1408434
0.1190059
0.095915
0.07151598
0.04664206
0.1635929
0.1429534
0.1211863
0.0981913
0.07397485
0.04978386
0.1858305
0.1662999
0.1457604
0.1241142
0.101281
0.07742499
0.05430929
0.2068487
0.1883109
0.1688616
0.1484166
0.1268843
0.1042625
0.08080119
0.05870022
0.2263911
0.2087328
0.1902422
0.170847
0.150465
0.1290625
0.1066441
0.08346779
0.06217783
0.2444808
0.2276036
0.2099591
0.1914847
0.1721086
0.1517989
0.1305155
0.1082074
0.08522268
0.06447843
0.2612241
0.2450447
0.228152
0.2104911
0.1919995
0.1726514
0.1524059
0.1311608
0.1089024
0.0860075
0.06470451
0.04413233
0.06877262
0.04350756
0.09322961
0.06869837
0.04333534
0.1167569
0.09357251
0.06900226
0.04361934
0.1394602
0.1175389
0.09434367
0.06978019
0.04449224
0.1615408
0.1407862
0.1188853
0.09572155
0.07123385
0.04631675
0.1832087
0.1635396
0.1428417
0.1210094
0.09793896
0.07369914
0.04951726
0.2044392
0.1857817
0.1661984
0.1456009
0.1238895
0.1010406
0.07720557
0.05406141
0.2245485
0.2068036
0.1882173
0.1687151
0.1482116
0.1266674
0.104069
0.08059117
0.0584678
0.2432799
0.2263487
0.2086451
0.1901055
0.1706566
0.1502648
0.1288859
0.1064557
0.08326428
0.06195534
0.2606451
0.2444406
0.2275207
0.2098302
0.1913057
0.1719212
0.1516348
0.130342
0.1080226
0.08502355
0.06343092
0.2767384
0.2611859
0.2449658
0.2280295
0.2103216
0.1918226
0.172497
0.1522437
0.1309895
0.10872
0.08505585
0.06399723
0.04533469
0.06922204
0.04404437
0.09322961
0.06869837
0.04333534
0.1163738
0.09316315
0.06855295
0.04308184
0.1386647
0.1166958
0.09344197
0.06878774
0.04328665
0.1602304
0.1394032
0.1174186
0.09415048
0.06949768
0.04416406
0.1812584
0.1614871
0.1406738
0.118707
0.09546677
0.07095438
0.04604323
0.2019407
0.1831584
0.1634346
0.1426766
0.1207762
0.09768887
0.07346791
0.04924833
0.2222469
0.204393
0.1856859
0.1660484
0.1453906
0.1236667
0.1008405
0.07698647
0.0538136
0.2415164
0.2245056
0.2067147
0.1880786
0.1685219
0.1480083
0.1264877
0.1038767
0.08038238
0.05823665
0.2594938
0.2432394
0.2262652
0.2085152
0.1899251
0.1704677
0.1500991
0.1287106
0.1062687
0.08306228
0.06088588
0.2761825
0.2606067
0.2443615
0.2273979
0.20966
0.1911281
0.1717662
0.1514719
0.1301698
0.1078392
0.08406594
0.06271417
0.2916662
0.2767017
0.2611104
0.2448489
0.2278679
0.2101533
0.1916762
0.1723439
0.1520828
0.1308195
0.1078422
0.08440862
0.06346479
0.04747685
0.07021481
0.0452471
0.09363906
0.06914776
0.04387244
0.1163738
0.09316315
0.06855295
0.04308184
0.1383031
0.1163128
0.0930328
0.06833856
0.04274864
0.1594765
0.1386079
0.1165759
0.09324929
0.06850549
0.04295731
0.1800128
0.160177
0.1392912
0.1172407
0.09389608
0.06921788
0.04388871
0.2000821
0.1812078
0.1613816
0.1405075
0.118472
0.09521429
0.07071996
0.04576731
0.2198608
0.201893
0.1830593
0.1632793
0.1424588
0.1205451
0.09747916
0.07323521
0.04897704
0.2393139
0.222203
0.2043021
0.185544
0.1658504
0.1451822
0.1234813
0.1006408
0.07676772
0.05356588
0.2578035
0.2414755
0.224421
0.2065831
0.1878958
0.1683303
0.1478399
0.126309
0.1036854
0.08017482
0.05712393
0.2750774
0.2594552
0.2431597
0.2261415
0.2083438
0.1897461
0.1703114
0.1499347
0.1285366
0.106083
0.08209054
0.06014199
0.291132
0.2761458
0.2605311
0.2442442
0.2272357
0.2094911
0.1909813
0.1716125
0.1513103
0.129999
0.1069567
0.08341239
0.06217204
0.3060426
0.2916311
0.2766295
0.2609986
0.2446945
0.2277075
0.2100141
0.1915311
0.1721919
0.1519231
0.130001
0.1072458
0.08392177
0.06310872
0.05091441
0.0719499
0.04739011
0.09454125
0.07014048
0.04507585
0.1167569
0.09357251
0.06900226
0.04361934
0.1383031
0.1163128
0.0930328
0.06833856
0.04274864
0.1591337
0.1382464
0.1161931
0.09284039
0.06805648
0.0424188
0.179296
0.1594233
0.1384962
0.1163987
0.09299557
0.06822596
0.0426814
0.1988951
0.1799624
0.1600718
0.1391255
0.1170065
0.093644
0.06898358
0.0436115
0.2180858
0.2000342
0.1811081
0.1612254
0.1402883
0.1182391
0.09500253
0.07048401
0.04548897
0.2370308
0.2198154
0.2017991
0.1829125
0.1630745
0.1422427
0.1203512
0.09726814
0.07300101
0.04870336
0.2556926
0.2392721
0.2221166
0.2041674
0.1853568
0.1656541
0.1450087
0.1232962
0.1004414
0.07654931
0.05236777
0.273455
0.2577644
0.2413948
0.2242958
0.2064094
0.1877144
0.1681716
0.1476725
0.1261314
0.1034953
0.07917508
0.05630732
0.29007
0.2750404
0.259379
0.2430417
0.2259782
0.2081737
0.1895981
0.1701562
0.1497714
0.1283638
0.1051895
0.08141856
0.05956887
0.3055286
0.2910968
0.2760733
0.2604189
0.2440894
0.2270748
0.2093515
0.1908356
0.1714599
0.1511499
0.1291767
0.1063551
0.08291893
0.06180786
0.319899
0.3060089
0.2915618
0.2765223
0.2608509
0.2445412
0.2275748
0.2098761
0.191387
0.1720412
0.1511542
0.1294453
0.1067973
0.0835964
0.06293031
0.0556187
0.07468114
0.05082994
0.09611282
0.07187572
0.04722047
0.1176002
0.09447454
0.06999489
0.04482372
0.1386647
0.1166958
0.09344197
0.06878774
0.04328665
0.1591337
0.1382464
0.1161931
0.09284039
0.06805648
0.0424188
0.17897
0.1590806
0.138135
0.1160162
0.09258706
0.06777713
0.04214268
0.1982118
0.1792458
0.1593185
0.1383312
0.1161652
0.09274419
0.0679922
0.04240405
0.216952
0.1988474
0.1798632
0.1599163
0.1389071
0.1167742
0.09343293
0.06874817
0.04333242
0.2353325
0.2180402
0.1999398
0.1809606
0.1610194
0.1400709
0.1180437
0.09478939
0.07024653
0.0452082
0.2535047
0.2369876
0.2197261
0.2016599
0.1827189
0.1628713
0.1420616
0.1201561
0.09705579
0.07276531
0.04736852
0.2714292
0.2556527
0.2391896
0.2219884
0.2039897
0.185171
0.1654908
0.1448355
0.1231114
0.1002423
0.07549295
0.0513569
0.288511
0.2734176
0.2576873
0.2412753
0.2241304
0.2062371
0.1875641
0.1680138
0.1475061
0.1259548
0.1025791
0.07845239
0.05563801
0.304507
0.2900345
0.2749675
0.2592661
0.2428857
0.2258161
0.2080329
0.1894511
0.1700022
0.1496094
0.1275321
0.1045724
0.08090352
0.05917684
0.3194041
0.3054948
0.2910273
0.2759658
0.2602707
0.2439356
0.2269416
0.2092129
0.190691
0.1713086
0.1503776
0.1286165
0.1059011
0.08258796
0.06162479
0.333264
0.3198666
0.3059424
0.291459
0.2763808
0.2607042
0.2444145
0.2274432
0.2097391
0.1912441
0.1713151
0.1506324
0.1290275
0.1064975
0.08343346
0.06017987
0.07836453
0.05553934
0.09857877
0.07460799
0.05066467
0.1190674
0.09604603
0.07173036
0.04697061
0.1394602
0.1175389
0.09434367
0.06978019
0.04449224
0.1594765
0.1386079
0.1165759
0.09324929
0.06850549
0.04295731
0.17897
0.1590806
0.138135
0.1160162
0.09258706
0.06777713
0.04214268
0.1979011
0.1789199
0.1589761
0.1379703
0.1157832
0.09233606
0.06754367
0.04186532
0.2162993
0.1981643
0.179147
0.1591636
0.1381137
0.1159338
0.09253397
0.06775764
0.04212527
0.2342477
0.2169067
0.1987534
0.1797163
0.1597111
0.1386905
0.1165797
0.09322085
0.06851163
0.04305149
0.2518773
0.2352892
0.2179505
0.1998
0.180766
0.160815
0.1398885
0.117847
0.09457489
0.07000752
0.04383943
0.2693296
0.2534634
0.2369025
0.2195938
0.2014763
0.1825268
0.1627008
0.1418793
0.1199597
0.0968421
0.07161659
0.04596531
0.2865645
0.2713909
0.2555739
0.2390674
0.2218193
0.2038134
0.1850165
0.1653276
0.1446626
0.1229269
0.09927876
0.07463146
0.05038491
0.3030074
0.2884751
0.2733438
0.257573
0.2411174
0.2239662
0.2060943
0.1874147
0.1678569
0.1473406
0.1251034
0.1019184
0.07786875
0.05514898
0.3184204
0.304473
0.2899646
0.2748593
0.259117
0.2427309
0.225682
0.2078932
0.1893052
0.1698494
0.1488288
0.1269582
0.1040998
0.08055291
0.05897698
0.3327871
0.3193716
0.3054281
0.2909242
0.2758238
0.2601236
0.2438084
0.2268096
0.2090755
0.1905475
0.1705794
0.1498518
0.1281937
0.1055966
0.08242177
0.3461637
0.3332329
0.3198027
0.3058436
0.2913232
0.2762402
0.2605829
0.2442887
0.2273126
0.2096032
0.1905556
0.1708224
0.1502401
0.1287483
0.1063475
0.06383507
0.08192095
0.06010429
0.1018965
0.07829449
0.05538411
0.121367
0.09851265
0.07446463
0.05042119
0.1408434
0.1190059
0.095915
0.07151598
0.04664206
0.1602304
0.1394032
0.1174186
0.09415048
0.06949768
0.04416406
0.179296
0.1594233
0.1384962
0.1163987
0.09299557
0.06822596
0.0426814
0.1979011
0.1789199
0.1589761
0.1379703
0.1157832
0.09233606
0.06754367
0.04186532
0.2160025
0.1978537
0.1788214
0.1588216
0.1377532
0.1155523
0.09212629
0.06730956
0.04158672
0.2336232
0.2162542
0.1980707
0.1790008
0.1589594
0.1378979
0.1157403
0.09232303
0.06752228
0.04184505
0.2508377
0.2342046
0.2168174
0.1986142
0.1795226
0.1595076
0.1385091
0.1163843
0.09300778
0.06827399
0.04168477
0.2677681
0.2518359
0.2352037
0.2178176
0.1996155
0.1805729
0.1606435
0.139705
0.1176491
0.09435901
0.06884282
0.04242222
0.2845474
0.2692902
0.2533822
0.2367763
0.219419
0.201294
0.1823656
0.1625292
0.1416957
0.1197621
0.09579979
0.07047061
0.04423196
0.3011353
0.2865279
0.2713156
0.2554571
0.2389061
0.2216514
0.2036666
0.1848621
0.1651648
0.1444899
0.1220334
0.09849602
0.07382794
0.0495258
0.3169766
0.302973
0.2884044
0.2732344
0.2574221
0.2409607
0.2238302
0.2059524
0.1872661
0.1677009
0.1465424
0.1244899
0.1013856
0.07744825
0.0548842
0.3318391
0.3183877
0.3044059
0.2898609
0.2747164
0.2589688
0.2426029
0.2255488
0.2077546
0.1891604
0.1691128
0.1482905
0.1265186
0.1037783
0.0803748
0.3457037
0.3327558
0.3193075
0.3053291
0.290788
0.2756828
0.2600019
0.2436823
0.2266785
0.2089391
0.1898562
0.1700831
0.1494549
0.1279103
0.1054438
0.3586219
0.3461337
0.3331713
0.3197078
0.3057131
0.2911882
0.2761239
0.2604625
0.244164
0.227183
0.2089484
0.1900886
0.1704521
0.149978
0.1286085
0.06632243
0.08476866
0.06376184
0.105094
0.08185322
0.05995644
0.1244591
0.1018328
0.07815728
0.05515547
0.1430103
0.1213061
0.09838289
0.07425317
0.05010097
0.1615408
0.1407862
0.1188853
0.09572155
0.07123385
0.04631675
0.1800128
0.160177
0.1392912
0.1172407
0.09389608
0.06921788
0.04388871
0.1982118
0.1792458
0.1593185
0.1383312
0.1161652
0.09274419
0.0679922
0.04240405
0.2160025
0.1978537
0.1788214
0.1588216
0.1377532
0.1155523
0.09212629
0.06730956
0.04158672
0.2333392
0.2159575
0.1977603
0.1786755
0.1586177
0.137538
0.1153592
0.09191593
0.0670748
0.04130689
0.2502392
0.2335803
0.2161653
0.1979322
0.1788079
0.1587567
0.1377175
0.1155461
0.09211137
0.06728612
0.04048391
0.2667705
0.2507966
0.2341195
0.2166851
0.1984306
0.1793304
0.1593371
0.1383268
0.1161879
0.0927937
0.06711801
0.04033477
0.2830472
0.2677285
0.2517543
0.235077
0.2176421
0.1994323
0.1804109
0.1604709
0.1395202
0.1174498
0.09330612
0.06769422
0.04073818
0.2991953
0.2845097
0.2692124
0.2532616
0.2366096
0.2192455
0.201141
0.1822034
0.1623566
0.141511
0.1187976
0.09476444
0.06910736
0.04203821
0.3151743
0.3011001
0.2864557
0.2712038
0.2553028
0.2387458
0.2215117
0.2035201
0.184708
0.1650021
0.1436533
0.121308
0.09776796
0.07313679
0.0489365
0.3304479
0.3169436
0.3029051
0.2882995
0.2730898
0.2572722
0.2408309
0.223695
0.2058112
0.1871184
0.1669482
0.1459675
0.1239952
0.1010023
0.07722309
0.3447895
0.3318077
0.3183232
0.3043063
0.2897238
0.2745745
0.2588463
0.2424757
0.2254167
0.2076169
0.1884624
0.1686049
0.1478783
0.1262197
0.1036151
0.358178
0.3456736
0.3326941
0.3192123
0.3051982
0.2906526
0.2755662
0.2598812
0.2435571
0.2265485
0.2082817
0.1893859
0.1697086
0.1491889
0.127768
0.3706607
0.3585931
0.3460745
0.33308
0.3195822
0.3055835
0.2910766
0.2760085
0.2603431
0.2440402
0.2265586
0.2085043
0.1897376
0.1702046
0.1498467
0.06757065
0.08670733
0.06625059
0.1076506
0.08470237
0.06361855
0.127439
0.1050322
0.08172053
0.05973865
0.1459232
0.1244003
0.101708
0.07795493
0.05485485
0.1635929
0.1429534
0.1211863
0.0981913
0.07397485
0.04978386
0.1812584
0.1614871
0.1406738
0.118707
0.09546677
0.07095438
0.04604323
0.1988951
0.1799624
0.1600718
0.1391255
0.1170065
0.093644
0.06898358
0.0436115
0.2162993
0.1981643
0.179147
0.1591636
0.1381137
0.1159338
0.09253397
0.06775764
0.04212527
0.2333392
0.2159575
0.1977603
0.1786755
0.1586177
0.137538
0.1153592
0.09191593
0.0670748
0.04130689
0.249967
0.2332963
0.2158688
0.1976221
0.1784831
0.1584156
0.1373581
0.1151656
0.09170499
0.06683938
0.03994859
0.2661962
0.2501982
0.2334956
0.2160337
0.1977494
0.1786166
0.1585872
0.1375365
0.1153512
0.09189899
0.06613888
0.03918361
0.2820889
0.2667312
0.2507153
0.2339934
0.2165104
0.1982483
0.1791694
0.1591659
0.1381436
0.1159906
0.09175136
0.06602564
0.03879942
0.2977526
0.2830094
0.2676504
0.2516333
0.2349096
0.2174678
0.1992786
0.1802478
0.1602972
0.1393341
0.1164774
0.09227062
0.06637581
0.03877153
0.3133068
0.2991591
0.2844352
0.2690971
0.2531023
0.2364441
0.2190999
0.2009871
0.1820401
0.1621827
0.140609
0.1178392
0.09353599
0.06742908
0.03913638
0.3287113
0.3151406
0.3010308
0.2863485
0.2710561
0.2551497
0.2386125
0.2213722
0.2033738
0.1845541
0.1642139
0.142974
0.1206331
0.09714327
0.07267345
0.343448
0.3304161
0.3168783
0.3028044
0.2881608
0.2729462
0.257148
0.2407018
0.2235605
0.2056709
0.1864056
0.1664061
0.1455039
0.1236394
0.1007973
0.3572958
0.3447593
0.3317456
0.3182275
0.3041746
0.2895876
0.2744571
0.2587247
0.2423495
0.2252855
0.2069533
0.1879812
0.168216
0.1475978
0.1260679
0.370232
0.3581491
0.3456142
0.3326025
0.3190864
0.3050682
0.2905407
0.2754505
0.2597613
0.2434329
0.2259218
0.2078345
0.1890309
0.1694575
0.1490554
0.3823003
0.3706329
0.358536
0.3459865
0.3329592
0.3194575
0.3054762
0.2909659
0.2758941
0.2602247
0.2434436
0.2261353
0.2081705
0.1895031
0.1700807
0.08768094
0.06749945
0.1093894
0.08664192
0.06610998
0.1298217
0.1075899
0.0845725
0.06340746
0.1487309
0.1273817
0.1049109
0.08152486
0.05945231
0.1663515
0.1458683
0.1242848
0.1015237
0.07768868
0.05455725
0.1832087
0.1635396
0.1428417
0.1210094
0.09793896
0.07369914
0.04951726
0.2000821
0.1812078
0.1613816
0.1405075
0.118472
0.09521429
0.07071996
0.04576731
0.216952
0.1988474
0.1798632
0.1599163
0.1389071
0.1167742
0.09343293
0.06874817
0.04333242
0.2336232
0.2162542
0.1980707
0.1790008
0.1589594
0.1378979
0.1157403
0.09232303
0.06752228
0.04184505
0.249967
0.2332963
0.2158688
0.1976221
0.1784831
0.1584156
0.1373581
0.1151656
0.09170499
0.06683938
0.03994859
0.2659349
0.2499261
0.2332118
0.2157375
0.1974397
0.1782922
0.1582466
0.1371776
0.1149715
0.09149345
0.06569645
0.03867104
0.2815372
0.266157
0.2501174
0.2333701
0.2158598
0.1975679
0.1784565
0.1584171
0.1373548
0.1151556
0.09086624
0.06508733
0.03774448
0.296831
0.2820512
0.2666535
0.2505949
0.2338269
0.216337
0.1980956
0.1790075
0.1589937
0.1379596
0.1150293
0.09076794
0.06482445
0.03708765
0.3119181
0.2977163
0.2829346
0.2675346
0.2514734
0.2347434
0.2173216
0.1991239
0.1800836
0.1601222
0.1384257
0.1155202
0.09108348
0.06487609
0.03651738
0.3269122
0.3132721
0.2990877
0.2843246
0.2689446
0.2529441
0.2363052
0.2189534
0.2008321
0.1818757
0.1613335
0.1397119
0.1167012
0.09202664
0.0652489
0.03444544
0.3417735
0.3286789
0.315074
0.300928
0.2862069
0.2709094
0.2550222
0.2384793
0.2212328
0.2032276
0.1838081
0.1635738
0.1423419
0.120054
0.09672527
0.3560013
0.3434174
0.3303534
0.3167815
0.3026712
0.288023
0.2728272
0.2570245
0.2405734
0.2234269
0.2049935
0.1858923
0.165969
0.1451704
0.123449
0.3693802
0.3572667
0.3446996
0.3316535
0.3181009
0.3040437
0.2894749
0.2743405
0.2586039
0.2422242
0.224653
0.206496
0.1876128
0.1679515
0.1474555
0.3818861
0.3702041
0.3580918
0.345526
0.3324814
0.3189614
0.3049607
0.2904296
0.2753357
0.2596425
0.2428341
0.2254955
0.2074971
0.188793
0.1693315
0.3935595
0.3822735
0.3705778
0.3584511
0.3458701
0.3328391
0.3193543
0.3053698
0.2908561
0.2757805
0.2596536
0.2430392
0.2258171
0.2079475
0.1893856
0.1102622
0.08761594
0.06736008
0.1314424
0.1093293
0.08651372
0.0659028
0.1509766
0.1297654
0.1074708
0.08438096
0.06312988
0.169011
0.1486773
0.1272692
0.1047318
0.08126741
0.05916887
0.1858305
0.1662999
0.1457604
0.1241142
0.101281
0.07742499
0.05430929
0.2019407
0.1831584
0.1634346
0.1426766
0.1207762
0.09768887
0.07346791
0.04924833
0.2180858
0.2000342
0.1811081
0.1612254
0.1402883
0.1182391
0.09500253
0.07048401
0.04548897
0.2342477
0.2169067
0.1987534
0.1797163
0.1597111
0.1386905
0.1165797
0.09322085
0.06851163
0.04305149
0.2502392
0.2335803
0.2161653
0.1979322
0.1788079
0.1587567
0.1377175
0.1155461
0.09211137
0.06728612
0.04048391
0.2659349
0.2499261
0.2332118
0.2157375
0.1974397
0.1782922
0.1582466
0.1371776
0.1149715
0.09149345
0.06569645
0.03867104
0.2812862
0.2658959
0.2498455
0.2330867
0.215564
0.1972587
0.1781326
0.1580771
0.1369966
0.1147768
0.09046541
0.06466359
0.03727434
0.2963004
0.2814996
0.2660797
0.2499976
0.2332044
0.2156872
0.1974162
0.1782958
0.1582464
0.1371724
0.1142039
0.08992048
0.06396149
0.03617554
0.311031
0.2967949
0.2819768
0.2665383
0.2504359
0.2336616
0.2161918
0.1979421
0.1788449
0.1588207
0.1370623
0.1141214
0.08968691
0.06352162
0.03521788
0.3255743
0.3118832
0.2976446
0.2828236
0.2673816
0.2513145
0.234604
0.2171743
0.1989681
0.1799182
0.1592676
0.1375306
0.1144216
0.08973415
0.06319203
0.03362577
0.3400388
0.3268788
0.3132034
0.2989815
0.2841784
0.2687931
0.2528113
0.2361654
0.2188059
0.200676
0.1810723
0.1604882
0.1386456
0.1153023
0.09006841
0.06174366
0.03195102
0.3543856
0.3417423
0.3286149
0.3149751
0.300792
0.2860662
0.2707873
0.2548948
0.2383464
0.2210937
0.202519
0.1832022
0.1629779
0.1417992
0.1196664
0.3681302
0.3559718
0.343357
0.3302603
0.3166535
0.3025389
0.2879089
0.2727089
0.2569017
0.2404458
0.2227815
0.2045059
0.1854783
0.1656545
0.1449919
0.3810631
0.3693521
0.3572091
0.3446108
0.3315317
0.317975
0.3039355
0.2893631
0.2742248
0.2584841
0.2416201
0.2242172
0.2061459
0.1873622
0.1678172
0.3931591
0.3818592
0.3701489
0.3580068
0.3454093
0.332361
0.3188579
0.3048539
0.2903194
0.2752217
0.2590695
0.2424269
0.2251739
0.2072709
0.1886736
0.4044557
0.3935336
0.3822203
0.370496
0.3583389
0.3457543
0.3327398
0.319252
0.3052643
0.2907471
0.2752331
0.2592666
0.2427352
0.2256045
0.2078359
0.1322562
0.1102025
0.08748854
0.06715472
0.1525045
0.1313866
0.1092114
0.08632465
0.06563034
0.1711388
0.1509239
0.1296547
0.1072949
0.08412893
0.06285509
0.1883585
0.1689606
0.1485721
0.1271031
0.1044961
0.08101245
0.05893391
0.2044392
0.1857817
0.1661984
0.1456009
0.1238895
0.1010406
0.07720557
0.05406141
0.2198608
0.201893
0.1830593
0.1632793
0.1424588
0.1205451
0.09747916
0.07323521
0.04897704
0.2353325
0.2180402
0.1999398
0.1809606
0.1610194
0.1400709
0.1180437
0.09478939
0.07024653
0.0452082
0.2508377
0.2342046
0.2168174
0.1986142
0.1795226
0.1595076
0.1385091
0.1163843
0.09300778
0.06827399
0.04168477
0.2661962
0.2501982
0.2334956
0.2160337
0.1977494
0.1786166
0.1585872
0.1375365
0.1153512
0.09189899
0.06613888
0.03918361
0.2812862
0.2658959
0.2498455
0.2330867
0.215564
0.1972587
0.1781326
0.1580771
0.1369966
0.1147768
0.09046541
0.06466359
0.03727434
0.296059
0.2812487
0.2658188
0.2497259
0.2329213
0.2153918
0.1971074
0.1779725
0.1579071
0.1368151
0.1138298
0.08953693
0.06357094
0.03576573
0.3105202
0.2962644
0.2814256
0.2659651
0.2498393
0.2330398
0.2155429
0.1972638
0.1781346
0.1580751
0.1362846
0.1133315
0.08890765
0.06276857
0.03449049
0.3247196
0.3109963
0.2967235
0.2818665
0.2663861
0.2502779
0.2335231
0.2160458
0.1977879
0.1786815
0.157977
0.136214
0.113122
0.08851446
0.06213172
0.03290659
0.3387489
0.3255407
0.3118143
0.2975381
0.2826769
0.2672295
0.2511812
0.2344635
0.2170261
0.1988112
0.1791102
0.1584247
0.1365021
0.1131719
0.08821946
0.06106533
0.03160434
0.3527118
0.3400067
0.3268128
0.3131015
0.2988412
0.2840331
0.268666
0.2526777
0.2360247
0.2186574
0.1999133
0.1802721
0.1594826
0.137334
0.1134868
0.08691788
0.05974786
0.03011115
0.3665702
0.3543556
0.3416807
0.3285198
0.3148444
0.3006569
0.285949
0.2706653
0.2547677
0.2382136
0.2204188
0.2019435
0.1826378
0.1624661
0.1414358
0.3798554
0.3681018
0.3559136
0.3432673
0.3301371
0.3165263
0.3024293
0.2877954
0.2725913
0.2567797
0.2398295
0.2223169
0.2041125
0.1851804
0.1654862
0.3923635
0.381036
0.3692966
0.3571236
0.3444934
0.3314105
0.3178709
0.303828
0.289252
0.2741099
0.257906
0.2412039
0.2238835
0.2059077
0.1872349
0.4040684
0.3931331
0.3818059
0.3700669
0.3578942
0.3452933
0.3322614
0.3187553
0.3047481
0.2902101
0.2746725
0.2586798
0.2421197
0.2249583
0.2071573
0.4150051
0.4044307
0.3934823
0.3821413
0.3703877
0.3582273
0.3456586
0.3326412
0.3191505
0.3051596
0.2902217
0.2748622
0.2589757
0.2425321
0.2254981
0.153272
0.1322007
0.1100852
0.08730062
0.06688462
0.1725869
0.1524522
0.131277
0.1090375
0.08607584
0.0653606
0.1903816
0.1710891
0.1508202
0.1294912
0.1070633
0.08387932
0.06262771
0.2068487
0.1883109
0.1688616
0.1484166
0.1268843
0.1042625
0.08080119
0.05870022
0.2222469
0.204393
0.1856859
0.1660484
0.1453906
0.1236667
0.1008405
0.07698647
0.0538136
0.2370308
0.2198154
0.2017991
0.1829125
0.1630745
0.1422427
0.1203512
0.09726814
0.07300101
0.04870336
0.2518773
0.2352892
0.2179505
0.1998
0.180766
0.160815
0.1398885
0.117847
0.09457489
0.07000752
0.04383943
0.2667705
0.2507966
0.2341195
0.2166851
0.1984306
0.1793304
0.1593371
0.1383268
0.1161879
0.0927937
0.06711801
0.04033477
0.2815372
0.266157
0.2501174
0.2333701
0.2158598
0.1975679
0.1784565
0.1584171
0.1373548
0.1151556
0.09086624
0.06508733
0.03774448
0.296059
0.2812487
0.2658188
0.2497259
0.2329213
0.2153918
0.1971074
0.1779725
0.1579071
0.1368151
0.1138298
0.08953693
0.06357094
0.03576573
0.3102878
0.2960231
0.2811749
0.2657044
0.249568
0.2327572
0.2152479
0.1969556
0.1778119
0.1577365
0.1359319
0.1129737
0.08855419
0.06242432
0.03415536
0.3242275
0.3104857
0.2961934
0.2813158
0.2658136
0.249682
0.2329022
0.215398
0.1971109
0.1779727
0.1572406
0.1354699
0.1123959
0.08783399
0.06151943
0.03242305
0.3379249
0.3246863
0.3109278
0.2966176
0.2817205
0.2662348
0.2501455
0.2333838
0.2158991
0.1976329
0.1778841
0.1571787
0.1352791
0.112037
0.08726325
0.06044889
0.03120213
0.3514673
0.3387166
0.3254745
0.311712
0.2973973
0.2825311
0.2671019
0.251047
0.2343221
0.2168768
0.1980444
0.1783127
0.1574553
0.135331
0.1117681
0.08630535
0.05942995
0.02994055
0.3649543
0.3526809
0.3399431
0.3267147
0.3129666
0.2987017
0.2839112
0.268538
0.2525432
0.235883
0.2179311
0.1991531
0.1793195
0.1582449
0.135631
0.1105633
0.08512317
0.05816504
0.02869982
0.3783484
0.3665413
0.3542962
0.3415892
0.3283941
0.3147145
0.3005444
0.2858321
0.2705435
0.2546407
0.2375694
0.2198706
0.2014072
0.182153
0.1621232
0.3911961
0.3798281
0.3680457
0.3558272
0.3431487
0.3300146
0.3164209
0.3023203
0.2876826
0.2724744
0.2561902
0.2393859
0.2219421
0.2038294
0.1850209
0.4032989
0.3923373
0.3809824
0.3692141
0.3570105
0.3443768
0.3313103
0.3177676
0.3037214
0.2891418
0.2735559
0.2575078
0.2408852
0.2236565
0.2057867
0.4146303
0.4040433
0.3930816
0.3817267
0.3699583
0.3577824
0.3451973
0.3321626
0.3186535
0.304643
0.2896829
0.274299
0.2583858
0.2419138
0.22485
0.4252227
0.4149809
0.4043811
0.393406
0.3820368
0.37028
0.358135
0.3455637
0.3325435
0.3190498
0.3046546
0.2898656
0.2745833
0.2587813
0.2424305
0.1733145
0.15322
0.1320916
0.1099121
0.08705333
0.06661721
0.1917587
0.1725376
0.1523495
0.1311151
0.1088084
0.08582942
0.06513751
0.2087774
0.1903347
0.1709915
0.150667
0.1292759
0.1068339
0.0836728
0.06240196
0.2245485
0.2068036
0.1882173
0.1687151
0.1482116
0.1266674
0.104069
0.08059117
0.0584678
0.2393139
0.222203
0.2043021
0.185544
0.1658504
0.1451822
0.1234813
0.1006408
0.07676772
0.05356588
0.2535047
0.2369876
0.2197261
0.2016599
0.1827189
0.1628713
0.1420616
0.1201561
0.09705579
0.07276531
0.04736852
0.2677681
0.2518359
0.2352037
0.2178176
0.1996155
0.1805729
0.1606435
0.139705
0.1176491
0.09435901
0.06884282
0.04242222
0.2820889
0.2667312
0.2507153
0.2339934
0.2165104
0.1982483
0.1791694
0.1591659
0.1381436
0.1159906
0.09175136
0.06602564
0.03879942
0.2963004
0.2814996
0.2660797
0.2499976
0.2332044
0.2156872
0.1974162
0.1782958
0.1582464
0.1371724
0.1142039
0.08992048
0.06396149
0.03617554
0.3102878
0.2960231
0.2811749
0.2657044
0.249568
0.2327572
0.2152479
0.1969556
0.1778119
0.1577365
0.1359319
0.1129737
0.08855419
0.06242432
0.03415536
0.3240037
0.3102534
0.2959523
0.2810653
0.2655533
0.2494111
0.2326199
0.2151036
0.1968033
0.1776509
0.1569065
0.1351326
0.1120662
0.08752215
0.06123181
0.03218381
0.3374504
0.3241943
0.3104175
0.296088
0.2811706
0.2656631
0.2495505
0.232764
0.2152525
0.1969574
0.1771842
0.1564742
0.1345951
0.1114028
0.08670885
0.06002176
0.03089118
0.3506723
0.3378928
0.3246204
0.310826
0.2964776
0.2815755
0.2661081
0.2500125
0.2332439
0.2157516
0.1968764
0.1771291
0.1562981
0.1342631
0.110878
0.08574674
0.05905378
0.02971191
0.3637528
0.3514363
0.3386529
0.3253761
0.3115767
0.2972573
0.2824088
0.2669734
0.2509119
0.2341798
0.216147
0.1972871
0.1773947
0.1563508
0.1340149
0.1099929
0.08483129
0.05797981
0.02860169
0.3767873
0.3649245
0.3526197
0.3398487
0.326585
0.3128325
0.2985847
0.2837885
0.2684092
0.2524077
0.2351899
0.217207
0.1982476
0.1781463
0.1566371
0.1328866
0.1089
0.0836954
0.05687351
0.02760655
0.3897393
0.3783204
0.366484
0.354208
0.3414681
0.3282691
0.3146064
0.3004321
0.2857153
0.2704219
0.2540246
0.237046
0.2193597
0.2009464
0.181828
0.4021699
0.3911697
0.3797739
0.3679624
0.3557128
0.3430307
0.3299132
0.316316
0.3022119
0.2875704
0.2719095
0.2557658
0.2390281
0.2216724
0.2036778
0.4138857
0.4032737
0.3922856
0.3809028
0.3691049
0.356898
0.3442802
0.3312109
0.317665
0.3036155
0.2886102
0.2731744
0.2572029
0.2406684
0.2235413
0.4248599
0.414606
0.4039936
0.3930052
0.3816219
0.3698504
0.3576898
0.3451021
0.3320645
0.3185524
0.3041365
0.2893245
0.2740173
0.2581887
0.2418104
0.4351226
0.4251993
0.414933
0.4043073
0.393305
0.3819328
0.370191
0.3580435
0.3454695
0.3324465
0.3185641
0.3043126
0.289598
0.2743971
0.258684
0.1924509
0.1732654
0.1531177
0.1319304
0.1096842
0.08680839
0.06639605
0.2100904
0.1917121
0.1724407
0.1521976
0.1309018
0.1085814
0.08562561
0.06491612
0.2263911
0.2087328
0.1902422
0.170847
0.150465
0.1290625
0.1066441
0.08346779
0.06217783
0.2415164
0.2245056
0.2067147
0.1880786
0.1685219
0.1480083
0.1264877
0.1038767
0.08038238
0.05823665
0.2556926
0.2392721
0.2221166
0.2041674
0.1853568
0.1656541
0.1450087
0.1232962
0.1004414
0.07654931
0.05236777
0.2693296
0.2534634
0.2369025
0.2195938
0.2014763
0.1825268
0.1627008
0.1418793
0.1199597
0.0968421
0.07161659
0.04596531
0.2830472
0.2677285
0.2517543
0.235077
0.2176421
0.1994323
0.1804109
0.1604709
0.1395202
0.1174498
0.09330612
0.06769422
0.04073818
0.296831
0.2820512
0.2666535
0.2505949
0.2338269
0.216337
0.1980956
0.1790075
0.1589937
0.1379596
0.1150293
0.09076794
0.06482445
0.03708765
0.3105202
0.2962644
0.2814256
0.2659651
0.2498393
0.2330398
0.2155429
0.1972638
0.1781346
0.1580751
0.1362846
0.1133315
0.08890765
0.06276857
0.03449049
0.3240037
0.3102534
0.2959523
0.2810653
0.2655533
0.2494111
0.2326199
0.2151036
0.1968033
0.1776509
0.1569065
0.1351326
0.1120662
0.08752215
0.06123181
0.03218381
0.3372346
0.3239706
0.3101854
0.2958471
0.2809205
0.2654031
0.24928
0.2324823
0.2149587
0.1966506
0.1768666
0.1561548
0.1342843
0.1111119
0.08644772
0.0598064
0.03072685
0.3502146
0.3374185
0.3241288
0.3103162
0.2959487
0.2810263
0.2655372
0.2494185
0.2326253
0.2151065
0.1962095
0.1764596
0.1556505
0.1336656
0.110361
0.08535805
0.05875682
0.02951791
0.3629853
0.3506414
0.3378294
0.3245226
0.3106915
0.2963384
0.2814541
0.2659808
0.2498787
0.2331033
0.2150318