/*--------------------------------*- C++ -*----------------------------------*\
| =========                 |                                                 |
| \\      /  F ield         | OpenFOAM: The Open Source CFD Toolbox           |
|  \\    /   O peration     | Version:  2306                                  |
|   \\  /    A nd           | Website:  www.openfoam.com                      |
|    \\/     M anipulation  |                                                 |
\*---------------------------------------------------------------------------*/
FoamFile
{
    version     2.0;
    format      ascii;
    arch        "LSB;label=32;scalar=64";
    class       volScalarField;
    location    "1.5/fuel";
    object      X.H2;
}
// * * * * * * * * * * * * * * * * * * * * * * * * * * * * * * * * * * * * * //

dimensions      [0 0 0 0 0 0 0];

internalField   nonuniform List<scalar> 
16000
(
0.9324294
0.9336776
0.9123191
0.9325006
0.9361649
0.9132927
0.9337494
0.8897378
0.9123841
0.9326399
0.9398201
0.9152313
0.9362382
0.8906106
0.9133581
0.93389
0.8677438
0.8897975
0.9125115
0.9328453
0.9443813
0.9180791
0.9398957
0.8923494
0.9152976
0.9363814
0.8685576
0.8906707
0.9134863
0.9340972
0.846728
0.8677993
0.8899148
0.9126994
0.9331154
0.9490856
0.9216355
0.9444607
0.894906
0.9181468
0.9400436
0.8701783
0.8924101
0.9154275
0.9365925
0.8474955
0.8686134
0.8907886
0.9136753
0.9343697
0.8266855
0.84678
0.8679084
0.8900879
0.9129467
0.9333828
0.9525232
0.9253189
0.9491701
0.8981035
0.9217055
0.9446159
0.872561
0.8949678
0.9182795
0.9402613
0.8490234
0.8702346
0.8925292
0.915619
0.9368701
0.8274131
0.8475478
0.868723
0.8909625
0.9139242
0.9346394
0.8075491
0.8267346
0.8468823
0.8680696
0.8903158
0.9131916
0.9336039
0.9546653
0.9280501
0.9526099
0.9014212
0.925392
0.9493353
0.8755409
0.8981672
0.9218427
0.9448445
0.8512691
0.8726183
0.8950891
0.9184751
0.9405477
0.8288612
0.8490761
0.8703453
0.8927051
0.9158711
0.9371449
0.8082413
0.8274624
0.8476505
0.8688849
0.8911916
0.9141706
0.9348625
0.7892495
0.8075956
0.8268311
0.8470336
0.8682819
0.8905416
0.9133942
0.9338234
0.9558677
0.9297852
0.9547529
0.9038872
0.9281243
0.9527795
0.878633
0.9014874
0.9255354
0.9495788
0.8540768
0.8755997
0.898292
0.9220451
0.9451452
0.830989
0.8513227
0.8727308
0.8952682
0.9187326
0.9408311
0.8096184
0.8289109
0.8491798
0.8705088
0.8929367
0.9161207
0.9373723
0.7899096
0.8082879
0.8275593
0.8478024
0.8690982
0.8914186
0.9143744
0.9350839
0.7717234
0.7892936
0.8076869
0.8269738
0.847233
0.8684924
0.8907284
0.9135952
0.9340412
0.9564043
0.930778
0.9559556
0.9054587
0.9298595
0.9549241
0.8809326
0.903954
0.9282696
0.9530294
0.8569897
0.8786939
0.9016171
0.9257468
0.949899
0.8336485
0.8541317
0.8757152
0.8984763
0.9223113
0.9454428
0.8116415
0.8310394
0.8514279
0.8728969
0.8955039
0.9189876
0.9410661
0.7912226
0.8096653
0.8290085
0.849333
0.8707241
0.8931661
0.9163272
0.937598
0.7723543
0.7899538
0.8083796
0.8277025
0.8480026
0.8693096
0.8916063
0.9145766
0.9353036
0.7549153
0.7717654
0.7893804
0.8078221
0.827162
0.8474306
0.8686665
0.8909137
0.9137946
0.9342572
0.9564043
0.9312274
0.9564924
0.9063609
0.9308522
0.9561276
0.8823998
0.9055255
0.9300051
0.9551763
0.8591566
0.8809941
0.904085
0.928484
0.9533579
0.8364071
0.8570466
0.8788137
0.9018087
0.9260251
0.9502161
0.8141695
0.8337001
0.8542396
0.8758858
0.898719
0.922575
0.9456907
0.7931513
0.8116891
0.8311384
0.8515834
0.8731157
0.8957375
0.9191988
0.9412998
0.7736089
0.7912672
0.8097578
0.829153
0.849535
0.8709375
0.8933559
0.9165322
0.9378222
0.7555192
0.7723964
0.7900409
0.8085153
0.8278914
0.8482011
0.8694845
0.8917926
0.9147773
0.9355216
0.7387759
0.7549553
0.771848
0.7895089
0.8080005
0.8273486
0.8475941
0.8688392
0.8910976
0.9139925
0.9352955
0.9558677
0.9312274
0.9564924
0.9067704
0.9313016
0.9566647
0.8832431
0.9064275
0.9309977
0.9563807
0.8605398
0.8824611
0.9056563
0.9302198
0.9555078
0.8384592
0.8592138
0.8811147
0.9042785
0.9287662
0.9536833
0.8167913
0.8364604
0.8571583
0.8789906
0.902061
0.9263009
0.9504827
0.7955608
0.8142183
0.8338016
0.8543991
0.8761105
0.8989594
0.9227944
0.9459386
0.7754515
0.7931964
0.8117827
0.8312849
0.8517884
0.8733326
0.895931
0.9194088
0.9415322
0.7567201
0.7736513
0.7913549
0.8098945
0.8293434
0.8497352
0.8711141
0.8935443
0.9167357
0.9380447
0.7393549
0.7555594
0.7724793
0.7901698
0.8086943
0.8280788
0.8483652
0.869658
0.8919774
0.9149764
0.9365691
0.7232616
0.7388141
0.7550342
0.7719705
0.7896784
0.8081774
0.827503
0.8477563
0.8690105
0.89128
0.9149442
0.9360028
0.9546653
0.930778
0.9559556
0.9067704
0.9313016
0.9566647
0.8836262
0.9068369
0.931447
0.9569182
0.8613353
0.8833042
0.906558
0.9312123
0.9567133
0.8397696
0.8605968
0.8825814
0.9058495
0.9305023
0.9558359
0.8187416
0.8385129
0.8593262
0.881293
0.9045332
0.9290456
0.9539568
0.7980593
0.8168416
0.8365654
0.8573234
0.8792238
0.9023111
0.9265321
0.9507517
0.7777531
0.795607
0.8143141
0.8339516
0.8546094
0.8763333
0.8991595
0.9230135
0.9461864
0.7584836
0.7754944
0.7932853
0.8119214
0.8314781
0.8519917
0.8735123
0.8961233
0.9196176
0.9417633
0.7405062
0.7567606
0.7737348
0.7914848
0.8100749
0.8295323
0.8499009
0.8712894
0.8937313
0.9169377
0.9391141
0.7238175
0.7393933
0.7556385
0.7726021
0.79034
0.8088719
0.8282338
0.8485281
0.8698302
0.8921608
0.9159341
0.9372858
0.7083338
0.7232983
0.7388896
0.7551511
0.7721321
0.7898467
0.8083238
0.8276561
0.8479172
0.8691805
0.8921578
0.9155914
0.9365352
0.9525232
0.9297852
0.9547529
0.9063609
0.9308522
0.9561276
0.8836262
0.9068369
0.931447
0.9569182
0.8616969
0.8836872
0.9069672
0.9316614
0.9572514
0.8405235
0.8613921
0.8834241
0.9067507
0.9314945
0.9570427
0.8199872
0.839823
0.8607088
0.8827593
0.9061039
0.9307821
0.9561113
0.7999179
0.8187922
0.8386184
0.8594925
0.881528
0.9047857
0.92928
0.9542327
0.7801392
0.798107
0.8169407
0.8367207
0.8575412
0.8794549
0.9025208
0.9267648
0.951023
0.7606861
0.777797
0.7956979
0.814456
0.8341496
0.8548178
0.8765187
0.8993592
0.9232323
0.9464341
0.7421965
0.7585245
0.775579
0.7934169
0.8121042
0.8316697
0.8521601
0.873691
0.8963146
0.9198252
0.9428761
0.7249226
0.7405448
0.7568403
0.7738585
0.7916562
0.8102539
0.8296886
0.8500653
0.8714634
0.893917
0.9179095
0.939858
0.708868
0.7238542
0.7394689
0.7557558
0.7727643
0.7905089
0.8090187
0.8283875
0.8486897
0.870001
0.8930433
0.9165876
0.937828
0.6939574
0.7083689
0.7233705
0.7390014
0.7553055
0.7722925
0.7899859
0.8084689
0.8278081
0.8480769
0.869999
0.8927542
0.9160782
0.9368913
0.9490856
0.9280501
0.9526099
0.9054587
0.9298595
0.9549241
0.8832431
0.9064275
0.9309977
0.9563807
0.8616969
0.8836872
0.9069672
0.9316614
0.9572514
0.8408663
0.8617536
0.8838069
0.9071596
0.9319435
0.9575812
0.820704
0.8405767
0.8615038
0.8836013
0.9070044
0.931774
0.9573186
0.8011049
0.8200376
0.8399282
0.8608745
0.8829935
0.906356
0.9310164
0.9563885
0.7819142
0.7999658
0.8188919
0.8387746
0.8597117
0.8817609
0.9049975
0.929516
0.954511
0.7629692
0.7801846
0.7982009
0.8170875
0.8369255
0.8577573
0.8796488
0.9027319
0.926999
0.9512966
0.7443074
0.7607279
0.7778834
0.7958326
0.8146432
0.8343459
0.8549913
0.8767038
0.8995586
0.9234507
0.9476322
0.726545
0.7422356
0.7586052
0.7757042
0.7935906
0.8122856
0.8318284
0.8523275
0.8738686
0.8965047
0.9208249
0.9436927
0.70993
0.7249596
0.740621
0.7569583
0.7740218
0.7918263
0.8104019
0.8298438
0.8502286
0.8716362
0.8948105
0.9185814
0.9404311
0.6944714
0.7089032
0.7239267
0.7395811
0.7559106
0.7729252
0.7906485
0.8091644
0.8285401
0.8488501
0.8708233
0.8936449
0.9170811
0.9381921
0.680101
0.6939911
0.7084382
0.7234777
0.7391491
0.7554588
0.7724252
0.7901239
0.808613
0.8279588
0.8488458
0.8705547
0.8932027
0.9164036
0.9370697
0.9443813
0.9253189
0.9491701
0.9038872
0.9281243
0.9527795
0.8823998
0.9055255
0.9300051
0.9551763
0.8613353
0.8833042
0.906558
0.9312123
0.9567133
0.8408663
0.8617536
0.8838069
0.9071596
0.9319435
0.9575812
0.82103
0.8409194
0.861865
0.8839838
0.9074129
0.9322229
0.9578573
0.8017882
0.8207542
0.8406815
0.8616688
0.8838348
0.9072558
0.9320078
0.9575959
0.783048
0.8011526
0.8201368
0.8400837
0.8610929
0.8832258
0.9065671
0.9312518
0.9566676
0.7646675
0.7819598
0.8000602
0.8190394
0.8389806
0.8599291
0.8819563
0.9052106
0.9297535
0.9547918
0.7464953
0.7630124
0.7802739
0.7983401
0.8172811
0.8371287
0.8579384
0.8798439
0.9029442
0.9272347
0.9526315
0.7285708
0.7443473
0.7608104
0.7780116
0.7960103
0.814829
0.8345092
0.8551645
0.8768886
0.8997577
0.9245071
0.9486431
0.711489
0.7265824
0.7423127
0.7587247
0.7758696
0.7937629
0.8124359
0.8319862
0.8524939
0.8740452
0.8974209
0.9215476
0.944362
0.695493
0.7099655
0.7250325
0.7407339
0.7571143
0.7741839
0.7919671
0.8105489
0.8299978
0.8503906
0.8724679
0.8954276
0.9190965
0.9408232
0.6805959
0.6945052
0.7089727
0.7240342
0.7397293
0.7560644
0.7730584
0.7907871
0.809309
0.8286914
0.8496224
0.8713835
0.8940989
0.917412
0.9383752
0.666736
0.6801334
0.6940576
0.708541
0.7236192
0.7392958
0.7555855
0.7725568
0.7902609
0.8087559
0.8286849
0.8493676
0.8709725
0.8935025
0.9165665
0.9398201
0.9216355
0.9444607
0.9014212
0.925392
0.9493353
0.8809326
0.903954
0.9282696
0.9530294
0.8605398
0.8824611
0.9056563
0.9302198
0.9555078
0.8405235
0.8613921
0.8834241
0.9067507
0.9314945
0.9570427
0.82103
0.8409194
0.861865
0.8839838
0.9074129
0.9322229
0.9578573
0.8020989
0.8210801
0.8410239
0.8620297
0.8842168
0.9076639
0.9324563
0.9581347
0.7837007
0.8018357
0.820853
0.8408364
0.8618863
0.8840662
0.907466
0.9322424
0.9578747
0.7657523
0.7830933
0.8012466
0.8202837
0.8402889
0.8613095
0.8834203
0.9067791
0.9314884
0.9569485
0.7481227
0.7647108
0.7820495
0.8002
0.819234
0.839185
0.8601115
0.882153
0.9054251
0.9299925
0.9561606
0.7306704
0.7465366
0.7630975
0.7804062
0.7985237
0.8174732
0.8372992
0.8581207
0.8800403
0.9031579
0.9283834
0.9540347
0.7134355
0.7286091
0.7444261
0.7609326
0.7781807
0.7961866
0.8149835
0.8346724
0.8553374
0.8770731
0.9007212
0.9253685
0.9496151
0.6969926
0.7115249
0.7266562
0.742427
0.7588826
0.7760338
0.7939057
0.8125853
0.8321431
0.8526594
0.8748966
0.8980816
0.9221313
0.944851
0.6815796
0.695527
0.7100354
0.7251407
0.740883
0.7572691
0.774318
0.7921068
0.8106948
0.8301506
0.8511712
0.8730418
0.8959002
0.9194471
0.941023
0.6672129
0.6806284
0.6945719
0.7090758
0.7241762
0.7398764
0.7561916
0.7731904
0.7909245
0.8094525
0.8294206
0.8501482
0.8718063
0.8944034
0.9175782
0.6538363
0.6667671
0.6801973
0.6941564
0.7086768
0.7237598
0.7394171
0.7557113
0.7726874
0.7903968
0.8094444
0.8291776
0.8497599
0.8712517
0.8936525
0.9361649
0.9180791
0.9398957
0.8981035
0.9217055
0.9446159
0.878633
0.9014874
0.9255354
0.9495788
0.8591566
0.8809941
0.904085
0.928484
0.9533579
0.8397696
0.8605968
0.8825814
0.9058495
0.9305023
0.9558359
0.820704
0.8405767
0.8615038
0.8836013
0.9070044
0.931774
0.9573186
0.8020989
0.8210801
0.8410239
0.8620297
0.8842168
0.9076639
0.9324563
0.9581347
0.7839975
0.8021463
0.8211786
0.8411784
0.8622468
0.8844477
0.9078737
0.9326904
0.9584133
0.7663768
0.7837458
0.8019293
0.8209992
0.8410406
0.8621021
0.8842597
0.907677
0.9324777
0.9581549
0.7491623
0.7657954
0.7831826
0.8013858
0.8204774
0.8404924
0.8614909
0.8836157
0.9069922
0.931726
0.9583152
0.7322319
0.7481641
0.7647963
0.7821824
0.8003845
0.8194271
0.8393565
0.860295
0.8823509
0.905641
0.9311572
0.9575778
0.7154526
0.7307098
0.7466178
0.7632237
0.780581
0.798706
0.8176344
0.8374708
0.8583043
0.8802379
0.9042002
0.9295294
0.955768
0.6988647
0.7134721
0.7286844
0.7445429
0.7610939
0.7783486
0.7963334
0.8151379
0.8348352
0.8555101
0.8779666
0.901504
0.9261721
0.9504742
0.6830234
0.697027
0.7115956
0.7267656
0.7425779
0.7590393
0.7761698
0.7940476
0.8127339
0.8322991
0.8534576
0.8755101
0.8986144
0.9225517
0.9451158
0.6681609
0.6816123
0.6955941
0.7101391
0.7252836
0.7410312
0.7573971
0.7744512
0.7922454
0.8108396
0.8308872
0.8517095
0.8734814
0.8962217
0.9196252
0.6542963
0.6672442
0.6806925
0.6946709
0.709212
0.7243172
0.7399981
0.7563177
0.7733215
0.7910609
0.8101438
0.8299169
0.8505451
0.8720897
0.8945562
0.6413781
0.6538663
0.6668287
0.6802922
0.6942869
0.7088118
0.7238761
0.7395375
0.755836
0.772817
0.7910516
0.8099114
0.8295479
0.850022
0.8713915
0.9336776
0.9152313
0.9362382
0.894906
0.9181468
0.9400436
0.8755409
0.8981672
0.9218427
0.9448445
0.8569897
0.8786939
0.9016171
0.9257468
0.949899
0.8384592
0.8592138
0.8811147
0.9042785
0.9287662
0.9536833
0.8199872
0.839823
0.8607088
0.8827593
0.9061039
0.9307821
0.9561113
0.8017882
0.8207542
0.8406815
0.8616688
0.8838348
0.9072558
0.9320078
0.9575959
0.7839975
0.8021463
0.8211786
0.8411784
0.8622468
0.8844477
0.9078737
0.9326904
0.9584133
0.7666608
0.7840425
0.8022397
0.8213245
0.8413823
0.862462
0.8846408
0.9080841
0.9329252
0.9586931
0.7497608
0.7664197
0.7838347
0.8020678
0.8211921
0.8412433
0.8622825
0.8844539
0.9078886
0.9327139
0.9595161
0.7332295
0.7492034
0.7658805
0.7833149
0.8015694
0.8206696
0.8406629
0.8616732
0.8838121
0.9072063
0.932882
0.9596652
0.7169528
0.7322715
0.7482457
0.764923
0.7823579
0.8005677
0.8195891
0.8395291
0.8604798
0.8825502
0.9066939
0.9323058
0.9592618
0.7008047
0.7154903
0.7307876
0.7467384
0.7633904
0.7807545
0.798859
0.8177966
0.8376434
0.858489
0.8812024
0.9052356
0.9308926
0.9579618
0.6848257
0.6988999
0.7135443
0.7287962
0.7446972
0.7612542
0.7784883
0.7964799
0.815292
0.8349979
0.8563467
0.878692
0.902232
0.9268632
0.9510635
0.6695521
0.6830564
0.6970949
0.7117005
0.7269102
0.7427278
0.7591691
0.776305
0.7941888
0.8128816
0.8330518
0.8540325
0.8760048
0.8989977
0.9227769
0.6552105
0.6681923
0.6816768
0.6956937
0.7102762
0.7254255
0.7411537
0.7575243
0.7745833
0.7923831
0.8115376
0.8313951
0.8521217
0.8737803
0.8963849
0.641822
0.6543264
0.6673059
0.6807877
0.6948018
0.7093474
0.7244338
0.7401188
0.7564429
0.7734515
0.7917183
0.8106141
0.8302914
0.8508111
0.872232
0.6293393
0.6414069
0.6539255
0.66692
0.6804178
0.6944165
0.7089234
0.7239915
0.7396569
0.7559598
0.7734414
0.7914957
0.8102624
0.8297954
0.8501533
0.9324294
0.9132927
0.9337494
0.8923494
0.9152976
0.9363814
0.872561
0.8949678
0.9182795
0.9402613
0.8540768
0.8755997
0.898292
0.9220451
0.9451452
0.8364071
0.8570466
0.8788137
0.9018087
0.9260251
0.9502161
0.8187416
0.8385129
0.8593262
0.881293
0.9045332
0.9290456
0.9539568
0.8011049
0.8200376
0.8399282
0.8608745
0.8829935
0.906356
0.9310164
0.9563885
0.7837007
0.8018357
0.820853
0.8408364
0.8618863
0.8840662
0.907466
0.9322424
0.9578747
0.7666608
0.7840425
0.8022397
0.8213245
0.8413823
0.862462
0.8846408
0.9080841
0.9329252
0.9586931
0.750033
0.7667037
0.7841312
0.8023779
0.8215169
0.8415844
0.8626419
0.8848344
0.908295
0.9331606
0.9600514
0.7338038
0.7498018
0.7665044
0.7839663
0.8022506
0.8213834
0.8414128
0.8624635
0.8846488
0.908101
0.9338611
0.9608164
0.7179111
0.7332688
0.7492847
0.7660066
0.7834896
0.8017517
0.8208306
0.8408341
0.8618564
0.8840094
0.9082486
0.9339744
0.9612006
0.7022474
0.7169906
0.7323496
0.7483667
0.7650904
0.7825322
0.8007214
0.8197522
0.8397028
0.8606659
0.8835226
0.9077294
0.9336242
0.9612285
0.6866932
0.7008409
0.7155648
0.7309029
0.7468977
0.7635559
0.7809001
0.7990129
0.8179599
0.8378173
0.859391
0.8821608
0.906464
0.9325709
0.9608636
0.6712887
0.6848594
0.6989692
0.7136515
0.7289439
0.7448503
0.7613875
0.7786278
0.7966262
0.8154459
0.8357861
0.857026
0.8793669
0.9028567
0.9273266
0.656552
0.6695839
0.6831217
0.6971956
0.7118392
0.7270538
0.742852
0.7592982
0.7764395
0.7943291
0.8135944
0.8335939
0.8544961
0.8763606
0.8992027
0.6427042
0.6552407
0.6682544
0.6817725
0.6958254
0.7104124
0.7255429
0.7412753
0.7576505
0.7747145
0.7930467
0.8120188
0.831784
0.8524022
0.8739321
0.629768
0.6418509
0.6543858
0.6673975
0.6809136
0.6949318
0.7094593
0.7245495
0.7402387
0.7565671
0.7740782
0.7921655
0.8109691
0.8305425
0.8509446
0.6176997
0.6293671
0.641464
0.6540135
0.6670408
0.6805425
0.6945238
0.7090341
0.7241059
0.7397753
0.7565564
0.7738647
0.7918295
0.8104969
0.8299193
0.9123191
0.9325006
0.8906106
0.9133581
0.93389
0.8701783
0.8924101
0.9154275
0.9365925
0.8512691
0.8726183
0.8950891
0.9184751
0.9405477
0.8336485
0.8541317
0.8757152
0.8984763
0.9223113
0.9454428
0.8167913
0.8364604
0.8571583
0.8789906
0.902061
0.9263009
0.9504827
0.7999179
0.8187922
0.8386184
0.8594925
0.881528
0.9047857
0.92928
0.9542327
0.783048
0.8011526
0.8201368
0.8400837
0.8610929
0.8832258
0.9065671
0.9312518
0.9566676
0.7663768
0.7837458
0.8019293
0.8209992
0.8410406
0.8621021
0.8842597
0.907677
0.9324777
0.9581549
0.750033
0.7667037
0.7841312
0.8023779
0.8215169
0.8415844
0.8626419
0.8848344
0.908295
0.9331606
0.9600514
0.7340651
0.7500739
0.7667882
0.7842625
0.8025603
0.8217078
0.8417534
0.8628224
0.8850285
0.9085065
0.9343035
0.961329
0.7184628
0.733843
0.7498826
0.7666299
0.7841402
0.8024321
0.8215435
0.8415829
0.8626452
0.8848444
0.9091338
0.9349127
0.9622555
0.703169
0.7179488
0.7333465
0.7494051
0.7661731
0.783663
0.8019044
0.8209925
0.8410063
0.8620404
0.8849707
0.9092321
0.9351756
0.9629124
0.6880819
0.7022837
0.7170654
0.7324654
0.7485266
0.7652566
0.7826784
0.8008761
0.8199164
0.8398778
0.8615743
0.8844798
0.9089165
0.9351239
0.9634826
0.6730878
0.6867279
0.7009123
0.7156754
0.7310554
0.7470559
0.7636948
0.7810466
0.7991679
0.8181243
0.8386665
0.8602881
0.8832988
0.9079734
0.9347511
0.9655546
0.6582265
0.6713211
0.684926
0.699072
0.7137931
0.7290906
0.7449778
0.7615207
0.7787672
0.7967724
0.8161919
0.8364262
0.8576581
0.879946
0.9032747
0.6439987
0.6565826
0.6696466
0.6832185
0.6973288
0.711977
0.7271728
0.7429755
0.7594266
0.7765731
0.7950065
0.8141077
0.834031
0.8548296
0.876551
0.6306198
0.6427333
0.6553004
0.6683465
0.6818991
0.6959563
0.7105251
0.7256595
0.7413961
0.7577758
0.775347
0.793504
0.8123872
0.8320485
0.8525445
0.6181139
0.6297959
0.6419082
0.654474
0.6675186
0.6810386
0.6950393
0.7095704
0.7246643
0.7403575
0.7571659
0.7745045
0.7925029
0.811207
0.8306685
0.6064405
0.6177265
0.6294222
0.6415489
0.6541299
0.6671609
0.6806457
0.6946302
0.7091439
0.7242195
0.7403464
0.7569608
0.7741829
0.7920525
0.8106144
0.8897378
0.9123841
0.9326399
0.8685576
0.8906707
0.9134863
0.9340972
0.8490234
0.8702346
0.8925292
0.915619
0.9368701
0.830989
0.8513227
0.8727308
0.8952682
0.9187326
0.9408311
0.8141695
0.8337001
0.8542396
0.8758858
0.898719
0.922575
0.9456907
0.7980593
0.8168416
0.8365654
0.8573234
0.8792238
0.9023111
0.9265321
0.9507517
0.7819142
0.7999658
0.8188919
0.8387746
0.8597117
0.8817609
0.9049975
0.929516
0.954511
0.7657523
0.7830933
0.8012466
0.8202837
0.8402889
0.8613095
0.8834203
0.9067791
0.9314884
0.9569485
0.7497608
0.7664197
0.7838347
0.8020678
0.8211921
0.8412433
0.8622825
0.8844539
0.9078886
0.9327139
0.9595161
0.7340651
0.7500739
0.7667882
0.7842625
0.8025603
0.8217078
0.8417534
0.8628224
0.8850285
0.9085065
0.9343035
0.961329
0.7187138
0.7341041
0.7501545
0.7669133
0.784436
0.8027413
0.8218674
0.8419229
0.8630034
0.8852232
0.9095346
0.9353364
0.9627257
0.7036996
0.7185004
0.7339203
0.7500024
0.7667956
0.7843128
0.8025838
0.8217042
0.8417536
0.8628276
0.8857961
0.9100795
0.9360385
0.9638245
0.688969
0.7032051
0.7180232
0.7334617
0.7495641
0.7663384
0.7838082
0.8020579
0.8211551
0.8411793
0.8629377
0.8858786
0.9103131
0.9364784
0.9647821
0.6744257
0.6881168
0.7023554
0.7171764
0.7326184
0.7486855
0.765396
0.7828257
0.8010319
0.8200818
0.8407324
0.8624694
0.8855784
0.9102658
0.936808
0.9663742
0.6599612
0.6731212
0.6867966
0.7010185
0.7158216
0.7312069
0.7471887
0.7638346
0.7811941
0.799324
0.8189277
0.8395118
0.8613544
0.8846977
0.9099316
0.9382563
0.968049
0.6456144
0.6582577
0.6713851
0.6850249
0.699208
0.7139338
0.7292127
0.7451052
0.7616536
0.7789063
0.797481
0.8167978
0.8370221
0.8582008
0.8803336
0.6318698
0.6440282
0.656643
0.6697397
0.6833465
0.6974611
0.7120911
0.7272911
0.7430983
0.7595542
0.7772185
0.7954941
0.8145217
0.8343455
0.8550081
0.6189369
0.6306479
0.6427909
0.6553892
0.6684683
0.682025
0.6960645
0.7106369
0.7257752
0.7415159
0.7583799
0.7757828
0.7938541
0.8126378
0.8321828
0.6068409
0.6181408
0.6298511
0.6419932
0.6545907
0.667639
0.6811421
0.6951461
0.7096806
0.7247783
0.7409305
0.7575731
0.7748261
0.7927291
0.8113264
0.5955443
0.6064664
0.6177797
0.629504
0.6416611
0.6542457
0.6672602
0.680748
0.6947357
0.7092529
0.7247669
0.7407334
0.7572648
0.7743955
0.7921641
0.8677438
0.8897975
0.9125115
0.9328453
0.8474955
0.8686134
0.8907886
0.9136753
0.9343697
0.8288612
0.8490761
0.8703453
0.8927051
0.9158711
0.9371449
0.8116415
0.8310394
0.8514279
0.8728969
0.8955039
0.9189876
0.9410661
0.7955608
0.8142183
0.8338016
0.8543991
0.8761105
0.8989594
0.9227944
0.9459386
0.7801392
0.798107
0.8169407
0.8367207
0.8575412
0.8794549
0.9025208
0.9267648
0.951023
0.7646675
0.7819598
0.8000602
0.8190394
0.8389806
0.8599291
0.8819563
0.9052106
0.9297535
0.9547918
0.7491623
0.7657954
0.7831826
0.8013858
0.8204774
0.8404924
0.8614909
0.8836157
0.9069922
0.931726
0.9583152
0.7338038
0.7498018
0.7665044
0.7839663
0.8022506
0.8213834
0.8414128
0.8624635
0.8846488
0.908101
0.9338611
0.9608164
0.7187138
0.7341041
0.7501545
0.7669133
0.784436
0.8027413
0.8218674
0.8419229
0.8630034
0.8852232
0.9095346
0.9353364
0.9627257
0.703941
0.7187513
0.7341812
0.7502741
0.7670787
0.7846082
0.8028926
0.8220275
0.8420929
0.8631849
0.8861702
0.9104631
0.9364291
0.9642343
0.6894798
0.7037356
0.7185744
0.7340349
0.7501607
0.7669602
0.7844571
0.8027362
0.8218654
0.8419249
0.8637154
0.8866685
0.9110923
0.9372314
0.9655095
0.6752804
0.6890037
0.7032765
0.7181335
0.7336139
0.7497221
0.7664769
0.7839542
0.8022121
0.8213185
0.842023
0.863786
0.886878
0.9114855
0.9378683
0.9670934
0.6612511
0.6744593
0.6881857
0.7024619
0.7173231
0.7327705
0.7488188
0.7655365
0.7829739
0.8011888
0.8208898
0.8415753
0.8634979
0.8868281
0.9117805
0.9389347
0.9683957
0.6472882
0.6599933
0.6731872
0.6868985
0.7011588
0.7159669
0.731334
0.7473223
0.7639753
0.7813426
0.8000867
0.8197279
0.8405174
0.862666
0.8865132
0.9130821
0.9402521
0.9698888
0.6334298
0.6456444
0.6583193
0.6714802
0.6851556
0.6993431
0.714051
0.7293347
0.7452323
0.7617864
0.7795812
0.7980565
0.8173622
0.8375339
0.8585642
0.6201446
0.6318982
0.6440864
0.6567327
0.6698629
0.6834737
0.6975707
0.7122046
0.7274087
0.7432203
0.7601705
0.7776831
0.7958875
0.8148196
0.8345138
0.6076365
0.618964
0.6307034
0.6428764
0.6555066
0.6685895
0.6821291
0.696172
0.710748
0.7258901
0.742094
0.7587961
0.7761165
0.7940923
0.8127651
0.5959316
0.6068669
0.6181941
0.6299331
0.6421058
0.6547067
0.6677386
0.6812447
0.6952519
0.7097899
0.7253275
0.7413202
0.7578803
0.7750417
0.7928427
0.5849949
0.5955693
0.6065177
0.6178587
0.6296123
0.6417727
0.6543414
0.6673588
0.6808495
0.6948404
0.7097783
0.7251378
0.7410243
0.7574679
0.7745019
0.846728
0.8677993
0.8899148
0.9126994
0.9331154
0.8274131
0.8475478
0.868723
0.8909625
0.9139242
0.9346394
0.8096184
0.8289109
0.8491798
0.8705088
0.8929367
0.9161207
0.9373723
0.7931513
0.8116891
0.8311384
0.8515834
0.8731157
0.8957375
0.9191988
0.9412998
0.7777531
0.795607
0.8143141
0.8339516
0.8546094
0.8763333
0.8991595
0.9230135
0.9461864
0.7629692
0.7801846
0.7982009
0.8170875
0.8369255
0.8577573
0.8796488
0.9027319
0.926999
0.9512966
0.7481227
0.7647108
0.7820495
0.8002
0.819234
0.839185
0.8601115
0.882153
0.9054251
0.9299925
0.9561606
0.7332295
0.7492034
0.7658805
0.7833149
0.8015694
0.8206696
0.8406629
0.8616732
0.8838121
0.9072063
0.932882
0.9596652
0.7184628
0.733843
0.7498826
0.7666299
0.7841402
0.8024321
0.8215435
0.8415829
0.8626452
0.8848444
0.9091338
0.9349127
0.9622555
0.703941
0.7187513
0.7341812
0.7502741
0.7670787
0.7846082
0.8028926
0.8220275
0.8420929
0.8631849
0.8861702
0.9104631
0.9364291
0.9642343
0.6897122
0.7039769
0.7188251
0.7342956
0.750432
0.7672428
0.7847521
0.8030444
0.8221881
0.8422635
0.8640681
0.8870263
0.9114458
0.9375757
0.9658446
0.6757725
0.6895143
0.7038066
0.7186842
0.7341864
0.750318
0.7670978
0.784602
0.8028891
0.8220273
0.8427594
0.8645301
0.8876041
0.912166
0.9384806
0.967577
0.6620751
0.6753137
0.6890722
0.7033824
0.7182795
0.7337652
0.7498545
0.7666162
0.7841009
0.8023671
0.8221159
0.8428213
0.8647209
0.887963
0.9127368
0.9395511
0.9687979
0.6485327
0.6612834
0.6745255
0.688288
0.7026027
0.7174689
0.7328981
0.748953
0.7656779
0.7831232
0.8019556
0.8216873
0.8425447
0.864669
0.8882319
0.9136947
0.94057
0.9700595
0.6350457
0.6473191
0.6600569
0.6732853
0.6870334
0.7012983
0.7160888
0.731462
0.7474568
0.764117
0.7820689
0.8008469
0.8206805
0.8417551
0.864369
0.8894367
0.9148768
0.941835
0.9713002
0.6216516
0.6334587
0.6457038
0.6584108
0.6716059
0.6852855
0.6994556
0.7141679
0.7294565
0.7453593
0.7624306
0.7801294
0.7985928
0.817847
0.8378768
0.6088039
0.6201719
0.6319543
0.6441728
0.6568513
0.6699854
0.6835791
0.6976797
0.7123174
0.7275256
0.7438098
0.7606141
0.7780579
0.7961706
0.8149791
0.5967011
0.6076627
0.6190176
0.6307859
0.6429895
0.6556232
0.6686897
0.6822324
0.6962786
0.7108582
0.7264441
0.7424922
0.7591148
0.7763435
0.7942133
0.5853697
0.5959567
0.6069184
0.6182733
0.6300417
0.6422176
0.6548027
0.6678374
0.6813465
0.695357
0.7103171
0.725701
0.7416142
0.7580862
0.77515
0.5747773
0.5850191
0.5956189
0.606594
0.6179632
0.62972
0.641865
0.6544363
0.6674565
0.6809502
0.6953454
0.7101344
0.7254167
0.7412187
0.7575695
0.8266855
0.84678
0.8679084
0.8900879
0.9129467
0.9333828
0.8082413
0.8274624
0.8476505
0.8688849
0.8911916
0.9141706
0.9348625
0.7912226
0.8096653
0.8290085
0.849333
0.8707241
0.8931661
0.9163272
0.937598
0.7754515
0.7931964
0.8117827
0.8312849
0.8517884
0.8733326
0.895931
0.9194088
0.9415322
0.7606861
0.777797
0.7956979
0.814456
0.8341496
0.8548178
0.8765187
0.8993592
0.9232323
0.9464341
0.7464953
0.7630124
0.7802739
0.7983401
0.8172811
0.8371287
0.8579384
0.8798439
0.9029442
0.9272347
0.9526315
0.7322319
0.7481641
0.7647963
0.7821824
0.8003845
0.8194271
0.8393565
0.860295
0.8823509
0.905641
0.9311572
0.9575778
0.7179111
0.7332688
0.7492847
0.7660066
0.7834896
0.8017517
0.8208306
0.8408341
0.8618564
0.8840094
0.9082486
0.9339744
0.9612006
0.7036996
0.7185004
0.7339203
0.7500024
0.7667956
0.7843128
0.8025838
0.8217042
0.8417536
0.8628276
0.8857961
0.9100795
0.9360385
0.9638245
0.6897122
0.7039769
0.7188251
0.7342956
0.750432
0.7672428
0.7847521
0.8030444
0.8221881
0.8422635
0.8640681
0.8870263
0.9114458
0.9375757
0.9658446
0.6759963
0.6897466
0.7040477
0.7189347
0.7344467
0.7505889
0.7673801
0.7848964
0.8031967
0.8223491
0.8430935
0.8648674
0.8879338
0.9124778
0.9387682
0.9678162
0.6625496
0.6758057
0.6895825
0.703912
0.7188294
0.7343369
0.7504495
0.767236
0.7847475
0.8030426
0.8228158
0.8435258
0.8654049
0.8885972
0.9132912
0.9399782
0.9691088
0.6493277
0.6621072
0.6753796
0.689174
0.7035224
0.7184245
0.7338919
0.7499875
0.7667561
0.7842484
0.8031236
0.8228709
0.8437019
0.8657369
0.889122
0.9142533
0.9409462
0.9702881
0.6362472
0.6485637
0.6613471
0.6746239
0.6884233
0.7027427
0.7175912
0.7330266
0.7490881
0.7658202
0.783853
0.8027129
0.8226053
0.8436492
0.8659851
0.8900071
0.9151687
0.9420202
0.9713983
0.6232127
0.6350755
0.6473803
0.6601513
0.673415
0.6871675
0.7014153
0.7162115
0.7315908
0.7475923
0.7648101
0.782793
0.8017524
0.8218537
0.8433629
0.8671134
0.8911
0.9163046
0.9431265
0.9723934
0.6102607
0.6216796
0.633516
0.645792
0.6585319
0.6717309
0.6853936
0.6995679
0.7142847
0.7295781
0.7459754
0.762954
0.7806403
0.7990536
0.818172
0.5978301
0.6088303
0.6202261
0.6320376
0.6442872
0.6569693
0.6700868
0.683684
0.6977881
0.7124296
0.7280905
0.7442342
0.7609719
0.7783276
0.7963222
0.5861143
0.5967263
0.6077144
0.6190972
0.6308951
0.643102
0.6557198
0.6687891
0.682335
0.6963845
0.7113898
0.7268256
0.7427971
0.7593316
0.7764587
0.5751401
0.585394
0.5960064
0.6069948
0.6183781
0.6301496
0.6423102
0.6548979
0.6679355
0.6814476
0.6958635
0.7106755
0.7259827
0.7418113
0.7581896
0.5648774
0.5748007
0.585067
0.5956927
0.606695
0.6180672
0.629809
0.6419565
0.6545305
0.6675535
0.6814359
0.6956874
0.710402
0.7256029
0.741316
0.8075491
0.8267346
0.8468823
0.8680696
0.8903158
0.9131916
0.9336039
0.7899096
0.8082879
0.8275593
0.8478024
0.8690982
0.8914186
0.9143744
0.9350839
0.7736089
0.7912672
0.8097578
0.829153
0.849535
0.8709375
0.8933559
0.9165322
0.9378222
0.7584836
0.7754944
0.7932853
0.8119214
0.8314781
0.8519917
0.8735123
0.8961233
0.9196176
0.9417633
0.7443074
0.7607279
0.7778834
0.7958326
0.8146432
0.8343459
0.8549913
0.8767038
0.8995586
0.9234507
0.9476322
0.7306704
0.7465366
0.7630975
0.7804062
0.7985237
0.8174732
0.8372992
0.8581207
0.8800403
0.9031579
0.9283834
0.9540347
0.7169528
0.7322715
0.7482457
0.764923
0.7823579
0.8005677
0.8195891
0.8395291
0.8604798
0.8825502
0.9066939
0.9323058
0.9592618
0.703169
0.7179488
0.7333465
0.7494051
0.7661731
0.783663
0.8019044
0.8209925
0.8410063
0.8620404
0.8849707
0.9092321
0.9351756
0.9629124
0.6894798
0.7037356
0.7185744
0.7340349
0.7501607
0.7669602
0.7844571
0.8027362
0.8218654
0.8419249
0.8637154
0.8866685
0.9110923
0.9372314
0.9655095
0.6759963
0.6897466
0.7040477
0.7189347
0.7344467
0.7505889
0.7673801
0.7848964
0.8031967
0.8223491
0.8430935
0.8648674
0.8879338
0.9124778
0.9387682
0.9678162
0.6627654
0.6760294
0.6898146
0.7041529
0.7190795
0.7345969
0.75072
0.7675177
0.7850413
0.8033494
0.8231334
0.8438452
0.8657157
0.8888881
0.9135523
0.9401936
0.9692732
0.6497854
0.6625815
0.6758712
0.6896838
0.7040513
0.7189737
0.7344628
0.7505815
0.7673747
0.7848935
0.8037905
0.8235404
0.8443495
0.8663344
0.889639
0.9146419
0.9412432
0.9704821
0.6370147
0.6493586
0.6621706
0.6754774
0.6893085
0.7036616
0.7185459
0.7340192
0.7501213
0.7668967
0.7849682
0.8038404
0.8237045
0.8446597
0.866823
0.890528
0.9155146
0.9422661
0.9715373
0.6243733
0.6362771
0.6486251
0.6614418
0.674754
0.6885578
0.7028601
0.7177144
0.733156
0.7492242
0.7665165
0.7845742
0.8035852
0.8236519
0.8448913
0.8676506
0.891374
0.9164796
0.9432578
0.9724591
0.6117695
0.6232414
0.6351345
0.6474713
0.6602762
0.673544
0.6872799
0.7015331
0.716335
0.7317206
0.748255
0.7655014
0.783656
0.8028679
0.8233781
0.8459551
0.8686735
0.8924232
0.9174725
0.9441752
0.9732314
0.5992389
0.6102876
0.6217348
0.633601
0.6459087
0.6586523
0.671835
0.6855016
0.6996801
0.7144014
0.7301683
0.7464759
0.7634419
0.7810795
0.7993625
0.5872067
0.5978556
0.6088826
0.6203065
0.632148
0.6444009
0.657067
0.6701877
0.6837882