/*--------------------------------*- C++ -*----------------------------------*\
| =========                 |                                                 |
| \\      /  F ield         | OpenFOAM: The Open Source CFD Toolbox           |
|  \\    /   O peration     | Version:  2306                                  |
|   \\  /    A nd           | Website:  www.openfoam.com                      |
|    \\/     M anipulation  |                                                 |
\*---------------------------------------------------------------------------*/
FoamFile
{
    version     2.0;
    format      ascii;
    arch        "LSB;label=32;scalar=64";
    class       volScalarField;
    location    "1.5/fuel";
    object      diffSp.H2;
}
// * * * * * * * * * * * * * * * * * * * * * * * * * * * * * * * * * * * * * //

dimensions      [0 2 -1 0 0 0 0];

internalField   nonuniform List<scalar> 
16000
(
0.0001131289
0.0001131142
0.0001134465
0.0001131449
0.0001130774
0.0001134508
0.0001131304
0.0001137223
0.0001134593
0.0001131784
0.0001130087
0.000113458
0.0001130943
0.0001137312
0.0001134637
0.0001131644
0.0001139643
0.0001137327
0.0001134868
0.0001132174
0.0001128818
0.0001134692
0.0001130267
0.0001137489
0.0001134711
0.0001131294
0.0001139738
0.0001137415
0.0001134914
0.000113204
0.0001141853
0.0001139727
0.0001137552
0.0001135189
0.0001132961
0.0001127056
0.0001134754
0.0001129016
0.0001137792
0.0001134825
0.0001130638
0.0001139934
0.0001137593
0.0001134992
0.0001131704
0.0001141944
0.0001139822
0.0001137642
0.0001135238
0.000113284
0.0001143921
0.0001141922
0.0001139916
0.0001137817
0.0001135841
0.0001699721
0.0001124758
0.0001134857
0.0001127281
0.0001138181
0.0001134888
0.0001129415
0.0001140271
0.0001137896
0.0001135113
0.0001131069
0.0001142134
0.0001140018
0.0001137822
0.0001135322
0.0001132528
0.0001144006
0.0001142013
0.0001140012
0.0001137909
0.0001135896
0.0001699544
0.0001145876
0.0001143977
0.0001142082
0.0001140139
0.0001138359
0.0001703991
0.0001699854
0.0001122649
0.0001134622
0.0001125012
0.000113874
0.0001134991
0.0001127718
0.000114073
0.0001138282
0.0001135182
0.0001129878
0.0001142463
0.0001140354
0.0001138127
0.0001135451
0.0001131934
0.0001144184
0.0001142203
0.0001140209
0.0001138092
0.0001135993
0.0001699087
0.0001145955
0.0001144063
0.0001142174
0.0001140236
0.0001138455
0.0001704076
0.000169968
0.0001147735
0.0001145923
0.0001144115
0.0001142273
0.0001140599
0.0001707728
0.0001704099
0.0001700035
0.0001121051
0.0001134315
0.0001122931
0.0001139067
0.0001134758
0.0001125487
0.0001141385
0.0001138836
0.0001135291
0.0001128221
0.0001142919
0.0001140809
0.0001138515
0.0001135529
0.0001130799
0.0001144493
0.000114253
0.0001140546
0.0001138401
0.000113614
0.0001698215
0.0001146122
0.0001144241
0.0001142364
0.0001140435
0.0001138646
0.0001704223
0.000169923
0.0001147809
0.0001146002
0.0001144201
0.0001142365
0.0001140699
0.0001707872
0.0001704184
0.0001699865
0.0001149505
0.0001147774
0.0001146043
0.0001144281
0.000114267
0.0001711057
0.0001707815
0.0001704246
0.0001700197
0.0001120206
0.0001134016
0.0001121352
0.0001139285
0.0001134455
0.0001123437
0.0001141861
0.0001139158
0.0001135064
0.000112603
0.0001143567
0.0001141458
0.0001139067
0.0001135645
0.0001129211
0.0001144926
0.0001142983
0.0001141001
0.0001138791
0.0001136239
0.0001696541
0.0001146409
0.0001144549
0.0001142692
0.0001140774
0.0001138965
0.0001704447
0.000169837
0.0001147964
0.0001146168
0.000114438
0.0001142557
0.0001140903
0.0001708159
0.0001704331
0.0001699423
0.0001149574
0.0001147848
0.0001146123
0.0001144367
0.0001142765
0.0001711206
0.0001707959
0.0001704331
0.000170003
0.0001151191
0.0001149538
0.000114788
0.0001146188
0.0001144629
0.0001714139
0.0001711128
0.0001707936
0.0001704377
0.0001700384
0.0001120206
0.0001133841
0.0001120517
0.000113939
0.0001134159
0.000112188
0.0001142226
0.0001139374
0.0001134767
0.0001124012
0.0001144067
0.0001141928
0.0001139388
0.0001135424
0.0001127078
0.000114554
0.0001143625
0.0001141646
0.0001139343
0.0001136378
0.0001694195
0.0001146815
0.0001144978
0.0001143144
0.0001141229
0.0001139366
0.0001704599
0.0001696716
0.0001148232
0.0001146455
0.0001144688
0.0001142886
0.0001141249
0.0001708638
0.0001704555
0.0001698578
0.0001149718
0.0001148002
0.0001146289
0.0001144546
0.0001142961
0.0001711512
0.0001708244
0.000170448
0.0001699597
0.0001151255
0.0001149606
0.0001147953
0.0001146268
0.0001144716
0.0001714281
0.0001711277
0.0001708079
0.0001704463
0.0001700221
0.0001152797
0.0001151219
0.0001149631
0.0001148007
0.0001146496
0.0001717058
0.0001714198
0.0001711228
0.0001708042
0.0001704528
0.0004141585
0.0001121051
0.0001133841
0.0001120517
0.0001139433
0.0001133988
0.0001121056
0.0001142449
0.0001139478
0.0001134477
0.0001122478
0.0001144462
0.0001142289
0.0001139604
0.0001135135
0.0001125104
0.0001146025
0.0001144119
0.0001142112
0.0001139662
0.0001136174
0.0001691036
0.0001147388
0.0001145586
0.0001143782
0.0001141872
0.0001139928
0.0001704806
0.0001694395
0.0001148611
0.0001146858
0.0001145116
0.0001143337
0.0001141711
0.0001709235
0.0001704704
0.0001696946
0.0001149969
0.000114827
0.0001146576
0.0001144855
0.0001143294
0.000171203
0.000170872
0.0001704705
0.0001698766
0.0001151391
0.0001149751
0.0001148108
0.0001146435
0.0001144899
0.0001714574
0.0001711582
0.0001708364
0.0001704613
0.0001699796
0.0001152858
0.0001151283
0.0001149699
0.0001148081
0.0001146577
0.0001717189
0.0001714339
0.0001711376
0.0001708185
0.0001704615
0.0004141224
0.0001154326
0.000115282
0.0001151301
0.0001149744
0.0001148283
0.0001719843
0.0001717106
0.0001714281
0.0001711316
0.0001708165
0.0004151376
0.0004142893
0.0001122649
0.0001134016
0.0001121352
0.0001139433
0.0001133988
0.0001121056
0.0001142557
0.0001139521
0.0001134309
0.0001121665
0.0001144713
0.0001142511
0.0001139708
0.0001134851
0.0001123598
0.0001146412
0.000114451
0.0001142471
0.0001139878
0.0001135897
0.0001688113
0.0001147848
0.0001146066
0.0001144272
0.0001142334
0.0001140252
0.0001704502
0.0001691269
0.0001149146
0.0001147426
0.000114572
0.0001143972
0.0001142358
0.0001710071
0.0001704906
0.0001694655
0.0001150325
0.0001148646
0.0001146977
0.0001145282
0.0001143749
0.0001712717
0.0001709311
0.0001704853
0.0001697156
0.0001151626
0.000115
0.0001148375
0.0001146722
0.0001145211
0.0001715073
0.0001712096
0.0001708838
0.0001704838
0.0001698981
0.0001152985
0.0001151418
0.0001149844
0.0001148237
0.0001146746
0.0001717463
0.0001714631
0.0001711679
0.0001708469
0.0001704766
0.0004140275
0.0001154383
0.0001152881
0.0001151366
0.0001149813
0.0001148358
0.0001719965
0.0001717237
0.0001714422
0.0001711464
0.0001708308
0.000415159
0.0004142607
0.0001155782
0.0001154346
0.0001152894
0.0001151403
0.0001149992
0.000172251
0.0001719883
0.0001717176
0.0001714354
0.0001711417
0.0004160002
0.0004152326
0.0004144741
0.0001124758
0.0001134315
0.0001122931
0.000113939
0.0001134159
0.000112188
0.0001142557
0.0001139521
0.0001134309
0.0001121665
0.0001144837
0.0001142618
0.0001139751
0.0001134685
0.00011228
0.0001146662
0.0001144759
0.0001142691
0.0001139983
0.0001135621
0.0001685882
0.0001148217
0.000114645
0.000114466
0.0001142691
0.0001140472
0.0001704092
0.0001688378
0.0001149581
0.0001147881
0.0001146196
0.0001144458
0.0001142821
0.0001710551
0.00017046
0.0001691562
0.0001150826
0.0001149177
0.0001147541
0.0001145883
0.0001144386
0.0001713679
0.0001710136
0.0001705052
0.0001694892
0.0001151961
0.0001150354
0.000114875
0.0001147122
0.0001145641
0.000171575
0.0001712776
0.0001709423
0.0001704985
0.0001697395
0.0001153207
0.0001151653
0.0001150093
0.0001148504
0.0001147036
0.0001717929
0.0001715126
0.000171219
0.000170894
0.0001704993
0.0004138444
0.0001154504
0.0001153008
0.0001151501
0.0001149958
0.0001148515
0.0001720218
0.0001717509
0.0001714712
0.0001711765
0.0001708591
0.000415196
0.0004141831
0.0001155836
0.0001154403
0.0001152955
0.0001151467
0.0001150062
0.0001722623
0.0001720004
0.0001717306
0.0001714494
0.0001711565
0.0004160342
0.0004152536
0.0004144564
0.0001157166
0.0001155798
0.0001154412
0.0001152986
0.0001151627
0.0001725064
0.0001722543
0.0001719942
0.0001717237
0.0001714439
0.000416774
0.000416072
0.0004153665
0.000414643
0.0001127056
0.0001134622
0.0001125012
0.0001139285
0.0001134455
0.0001123437
0.0001142449
0.0001139478
0.0001134477
0.0001122478
0.0001144837
0.0001142618
0.0001139751
0.0001134685
0.00011228
0.0001146787
0.0001144883
0.0001142798
0.0001140027
0.000113546
0.0001684698
0.0001148457
0.0001146698
0.0001144907
0.000114291
0.0001140578
0.0001703684
0.0001686171
0.0001149929
0.0001148247
0.0001146577
0.0001144843
0.0001143178
0.0001710877
0.0001704194
0.0001688704
0.0001151236
0.0001149607
0.0001147993
0.0001146355
0.0001144872
0.0001714366
0.0001710607
0.0001704745
0.0001691831
0.0001152432
0.0001150851
0.0001149278
0.0001147683
0.0001146243
0.0001716698
0.0001713726
0.0001710238
0.000170518
0.000169516
0.0001153524
0.0001151986
0.0001150446
0.0001148878
0.0001147438
0.0001718569
0.0001715796
0.0001712864
0.000170952
0.0001705139
0.0004134808
0.0001154714
0.0001153229
0.0001151735
0.0001150208
0.0001148784
0.000172065
0.0001717972
0.0001715204
0.0001712273
0.0001709061
0.0004152508
0.0004140314
0.000115595
0.0001154523
0.0001153082
0.0001151603
0.0001150208
0.0001722857
0.0001720256
0.0001717577
0.0001714783
0.0001711865
0.0004161015
0.0004152899
0.0004144038
0.0001157217
0.0001155852
0.0001154469
0.0001153046
0.0001151693
0.0001725168
0.0001722655
0.0001720062
0.0001717367
0.0001714579
0.0004168089
0.0004161037
0.0004153882
0.0004146379
0.0001158481
0.0001157179
0.0001155858
0.0001154495
0.000115319
0.0001727508
0.0001725091
0.0001722593
0.0001719993
0.0001717308
0.000417495
0.000416828
0.000416174
0.0004154825
0.0004148169
0.0001128818
0.0001134857
0.0001127281
0.0001139067
0.0001134758
0.0001125487
0.0001142226
0.0001139374
0.0001134767
0.0001124012
0.0001144713
0.0001142511
0.0001139708
0.0001134851
0.0001123598
0.0001146787
0.0001144883
0.0001142798
0.0001140027
0.000113546
0.0001684698
0.0001148577
0.0001146822
0.000114503
0.0001143016
0.0001140623
0.0001703447
0.0001685
0.0001150157
0.0001148486
0.0001146823
0.0001145089
0.0001143397
0.0001711036
0.000170379
0.0001686521
0.0001151566
0.0001149953
0.0001148356
0.0001146733
0.0001145256
0.0001714897
0.0001710929
0.0001704342
0.0001689003
0.000115282
0.0001151258
0.0001149705
0.0001148132
0.0001146714
0.0001717418
0.0001714403
0.0001710701
0.0001704872
0.000169213
0.0001153968
0.0001152453
0.000115094
0.0001149403
0.0001148
0.0001719464
0.0001716733
0.0001713805
0.0001710326
0.0001705333
0.0004129603
0.0001155014
0.0001153544
0.0001152067
0.0001150559
0.0001149159
0.0001721249
0.0001718605
0.0001715868
0.000171294
0.0001709634
0.0004152834
0.0004137055
0.0001156149
0.0001154732
0.0001153303
0.0001151837
0.0001150459
0.0001723259
0.0001720685
0.0001718036
0.0001715272
0.000171237
0.0004162116
0.0004153437
0.0004142975
0.0001157326
0.0001155966
0.000115459
0.0001153174
0.000115183
0.0001725387
0.0001722888
0.0001720313
0.0001717635
0.0001714866
0.0004168797
0.0004161656
0.0004154261
0.0004146149
0.0001158529
0.0001157231
0.0001155912
0.0001154552
0.0001153252
0.0001727606
0.0001725195
0.0001722704
0.0001720113
0.0001717437
0.000417528
0.0004168602
0.0004162036
0.0004155052
0.000414826
0.0001159729
0.0001158492
0.0001157234
0.0001155933
0.0001154683
0.0001729845
0.000172753
0.0001725133
0.0001722636
0.0001720053
0.0004181817
0.0004175345
0.000416907
0.0004162595
0.0004155998
0.0001130087
0.0001134754
0.0001129016
0.000113874
0.0001134991
0.0001127718
0.0001141861
0.0001139158
0.0001135064
0.000112603
0.0001144462
0.0001142289
0.0001139604
0.0001135135
0.0001125104
0.0001146662
0.0001144759
0.0001142691
0.0001139983
0.0001135621
0.0001685882
0.0001148577
0.0001146822
0.000114503
0.0001143016
0.0001140623
0.0001703447
0.0001685
0.0001150271
0.0001148605
0.0001146946
0.0001145211
0.0001143503
0.0001711103
0.0001703556
0.0001685363
0.0001151782
0.000115018
0.0001148593
0.0001146978
0.0001145501
0.0001715222
0.0001711086
0.0001703944
0.0001686844
0.0001153133
0.0001151585
0.0001150049
0.0001148493
0.0001147091
0.0001717989
0.0001714928
0.0001711019
0.0001704472
0.0001689333
0.0001154337
0.0001152838
0.0001151343
0.0001149827
0.0001148447
0.0001720163
0.0001717444
0.0001714472
0.0001710781
0.0001705024
0.0004122545
0.0001155435
0.0001153985
0.0001152532
0.0001151051
0.0001149684
0.0001722085
0.0001719491
0.0001716796
0.0001713871
0.0001710433
0.0004153229
0.0004132053
0.0001156435
0.0001155031
0.0001153616
0.0001152168
0.0001150811
0.0001723819
0.0001721278
0.0001718664
0.0001715929
0.000171303
0.000416343
0.0004153701
0.000414024
0.0001157515
0.0001156164
0.0001154798
0.0001153394
0.0001152065
0.0001725762
0.0001723288
0.0001720739
0.0001718092
0.0001715352
0.0004169977
0.0004162668
0.0004154842
0.0004145653
0.0001158633
0.0001157339
0.0001156026
0.0001154673
0.000115338
0.000172781
0.0001725412
0.0001722937
0.0001720362
0.0001717705
0.0004175956
0.0004169248
0.0004162608
0.0004155457
0.0004148367
0.0001159775
0.0001158541
0.0001157285
0.0001155988
0.000115474
0.0001729936
0.0001727627
0.0001725237
0.0001722747
0.0001720173
0.0004182122
0.0004175647
0.0004169364
0.0004162867
0.0004156237
0.0001160912
0.0001159738
0.0001158541
0.0001157303
0.0001156106
0.0001732077
0.0001729863
0.0001727566
0.0001725169
0.0001722687
0.0004188402
0.0004182088
0.0004175952
0.0004169712
0.0004163446
0.0001130774
0.0001134692
0.0001130267
0.0001138181
0.0001134888
0.0001129415
0.0001141385
0.0001138836
0.0001135291
0.0001128221
0.0001144067
0.0001141928
0.0001139388
0.0001135424
0.0001127078
0.0001146412
0.000114451
0.0001142471
0.0001139878
0.0001135897
0.0001688113
0.0001148457
0.0001146698
0.0001144907
0.000114291
0.0001140578
0.0001703684
0.0001686171
0.0001150271
0.0001148605
0.0001146946
0.0001145211
0.0001143503
0.0001711103
0.0001703556
0.0001685363
0.000115189
0.0001150293
0.0001148712
0.00011471
0.0001145623
0.0001715381
0.0001711153
0.0001703712
0.0001685698
0.0001153339
0.00011518
0.0001150274
0.0001148728
0.0001147335
0.0001718353
0.000171525
0.0001711175
0.0001704078
0.0001687197
0.0001154634
0.0001153149
0.0001151669
0.0001150168
0.0001148806
0.0001720723
0.0001718009
0.0001714991
0.0001711094
0.0001704627
0.0004116061
0.0001155786
0.0001154351
0.0001152914
0.0001151451
0.0001150107
0.000172275
0.0001720183
0.0001717498
0.0001714529
0.000171088
0.0004152453
0.0004125204
0.0001156835
0.0001155449
0.0001154055
0.0001152631
0.0001151303
0.0001724601
0.0001722107
0.0001719542
0.0001716848
0.0001713953
0.0004165245
0.000415399
0.0004135342
0.0001157788
0.0001156448
0.0001155096
0.0001153707
0.0001152396
0.0001726287
0.0001723842
0.0001721327
0.0001718714
0.0001716003
0.0004171494
0.0004163825
0.0004155114
0.0004143665
0.0001158814
0.0001157528
0.0001156224
0.0001154881
0.0001153602
0.0001728162
0.0001725785
0.0001723333
0.0001720786
0.0001718159
0.000417709
0.0004170322
0.0004163551
0.0004156113
0.0004148578
0.0001159875
0.0001158644
0.0001157394
0.0001156102
0.0001154862
0.0001730129
0.0001727831
0.0001725453
0.0001722978
0.000172042
0.000418275
0.0004176261
0.0004169945
0.0004163389
0.0004156679
0.0001160957
0.0001159785
0.000115859
0.0001157354
0.000115616
0.0001732163
0.0001729954
0.0001727663
0.0001725272
0.0001722798
0.0004188683
0.0004182368
0.0004176226
0.0004169973
0.0004163694
0.0001162033
0.000116092
0.0001159783
0.0001158605
0.0001157462
0.0001734206
0.0001732091
0.0001729894
0.0001727597
0.0001725213
0.0004194732
0.000418857
0.0004182546
0.0004176427
0.0004170345
0.0001131142
0.000113458
0.0001130943
0.0001137792
0.0001134825
0.0001130638
0.000114073
0.0001138282
0.0001135182
0.0001129878
0.0001143567
0.0001141458
0.0001139067
0.0001135645
0.0001129211
0.0001146025
0.0001144119
0.0001142112
0.0001139662
0.0001136174
0.0001691036
0.0001148217
0.000114645
0.000114466
0.0001142691
0.0001140472
0.0001704092
0.0001688378
0.0001150157
0.0001148486
0.0001146823
0.0001145089
0.0001143397
0.0001711036
0.000170379
0.0001686521
0.000115189
0.0001150293
0.0001148712
0.00011471
0.0001145623
0.0001715381
0.0001711153
0.0001703712
0.0001685698
0.0001153442
0.0001151908
0.0001150386
0.0001148846
0.0001147456
0.0001718535
0.0001715407
0.0001711242
0.0001703849
0.0001686064
0.000115483
0.0001153353
0.0001151882
0.0001150392
0.0001149041
0.0001721086
0.000171837
0.000171531
0.0001711249
0.0001704236
0.0004111114
0.000115607
0.0001154646
0.0001153223
0.0001151775
0.0001150447
0.0001723284
0.0001720737
0.0001718057
0.0001715041
0.0001711189
0.0004151515
0.0004119049
0.000115717
0.0001155797
0.0001154419
0.0001153011
0.0001151703
0.0001725229
0.0001722764
0.0001720226
0.0001717541
0.0001714602
0.0004166235
0.0004153073
0.0004128425
0.0001158169
0.0001156846
0.0001155512
0.0001154144
0.0001152859
0.000172702
0.0001724617
0.0001722149
0.0001719584
0.0001716914
0.0004173608
0.0004165485
0.0004155403
0.0004138417
0.0001159074
0.0001157799
0.0001156507
0.0001155178
0.0001153915
0.0001728656
0.0001726305
0.0001723883
0.0001721368
0.0001718775
0.0004178589
0.0004171667
0.0004164583
0.0004156462
0.000414784
0.0001160047
0.0001158824
0.0001157582
0.0001156299
0.0001155071
0.000173046
0.000172818
0.0001725824
0.0001723372
0.0001720841
0.000418381
0.000417729
0.0004170921
0.0004164266
0.0004157454
0.0001161052
0.0001159884
0.0001158694
0.0001157463
0.0001156276
0.0001732345
0.0001730145
0.0001727866
0.0001725488
0.0001723027
0.0004189265
0.0004182938
0.0004176773
0.0004170484
0.0004164166
0.0001162076
0.0001160965
0.000115983
0.0001158654
0.0001157514
0.0001734288
0.0001732177
0.0001729985
0.0001727693
0.0001725316
0.0004194992
0.0004188828
0.0004182797
0.0004176667
0.0004170573
0.0001163093
0.000116204
0.0001160962
0.0001159842
0.0001158752
0.0001736235
0.0001734218
0.0001732118
0.000172992
0.0001727634
0.0004200814
0.0004194814
0.0004188903
0.0004182885
0.0004176894
0.0001131289
0.0001134508
0.0001131304
0.0001137489
0.0001134711
0.0001131294
0.0001140271
0.0001137896
0.0001135113
0.0001131069
0.0001142919
0.0001140809
0.0001138515
0.0001135529
0.0001130799
0.000114554
0.0001143625
0.0001141646
0.0001139343
0.0001136378
0.0001694195
0.0001147848
0.0001146066
0.0001144272
0.0001142334
0.0001140252
0.0001704502
0.0001691269
0.0001149929
0.0001148247
0.0001146577
0.0001144843
0.0001143178
0.0001710877
0.0001704194
0.0001688704
0.0001151782
0.000115018
0.0001148593
0.0001146978
0.0001145501
0.0001715222
0.0001711086
0.0001703944
0.0001686844
0.0001153442
0.0001151908
0.0001150386
0.0001148846
0.0001147456
0.0001718535
0.0001715407
0.0001711242
0.0001703849
0.0001686064
0.0001154928
0.0001153455
0.000115199
0.0001150504
0.0001149158
0.0001721268
0.000171855
0.0001715466
0.0001711315
0.0001704011
0.000410849
0.0001156257
0.0001154841
0.0001153426
0.0001151987
0.000115067
0.0001723633
0.0001721097
0.0001718415
0.0001715357
0.0001711342
0.0004150611
0.0004114404
0.0001157441
0.0001156079
0.0001154713
0.0001153318
0.0001152025
0.0001725735
0.0001723294
0.0001720775
0.0001718094
0.0001715109
0.0004166934
0.0004152108
0.0004122421
0.000115849
0.0001157179
0.0001155859
0.0001154506
0.0001153238
0.0001727614
0.0001725239
0.00017228
0.000172026
0.0001717599
0.0004175079
0.000416627
0.0004154278
0.0004131174
0.0001159439
0.0001158178
0.0001156903
0.0001155592
0.0001154352
0.0001729346
0.0001727032
0.0001724652
0.0001722183
0.0001719638
0.0004180687
0.0004173632
0.0004166228
0.0004156654
0.0004142208
0.0001160297
0.0001159083
0.0001157852
0.0001156582
0.0001155368
0.0001730926
0.000172867
0.000172634
0.0001723917
0.0001721419
0.0004185232
0.0004178627
0.0004172111
0.0004165188
0.0004158033
0.0001161218
0.0001160056
0.0001158873
0.0001157651
0.0001156474
0.0001732657
0.0001730474
0.0001728213
0.0001725855
0.0001723419
0.0004190248
0.0004183898
0.0004177699
0.0004171354
0.000416499
0.0001162167
0.000116106
0.0001159929
0.0001158757
0.0001157623
0.000173446
0.0001732358
0.0001730175
0.0001727894
0.000172553
0.0004195532
0.0004189355
0.0004183303
0.0004177141
0.0004171011
0.0001163134
0.0001162082
0.0001161006
0.0001159888
0.0001158802
0.0001736313
0.0001734299
0.0001732204
0.000173001
0.000172773
0.0004201055
0.0004195052
0.0004189134
0.0004183104
0.0004177098
0.0001164094
0.0001163098
0.0001162078
0.0001161015
0.0001159979
0.0001738167
0.0001736245
0.0001734241
0.000173214
0.0001729952
0.0004206651
0.0004200824
0.0004195043
0.000418913
0.0004183216
0.0001134465
0.0001131449
0.0001137312
0.0001134637
0.0001131644
0.0001139934
0.0001137593
0.0001134992
0.0001131704
0.0001142463
0.0001140354
0.0001138127
0.0001135451
0.0001131934
0.0001144926
0.0001142983
0.0001141001
0.0001138791
0.0001136239
0.0001696541
0.0001147388
0.0001145586
0.0001143782
0.0001141872
0.0001139928
0.0001704806
0.0001694395
0.0001149581
0.0001147881
0.0001146196
0.0001144458
0.0001142821
0.0001710551
0.00017046
0.0001691562
0.0001151566
0.0001149953
0.0001148356
0.0001146733
0.0001145256
0.0001714897
0.0001710929
0.0001704342
0.0001689003
0.0001153339
0.00011518
0.0001150274
0.0001148728
0.0001147335
0.0001718353
0.000171525
0.0001711175
0.0001704078
0.0001687197
0.0001154928
0.0001153455
0.000115199
0.0001150504
0.0001149158
0.0001721268
0.000171855
0.0001715466
0.0001711315
0.0001704011
0.000410849
0.0001156351
0.0001154939
0.0001153528
0.0001152094
0.0001150782
0.0001723808
0.0001721277
0.0001718593
0.0001715512
0.0001711408
0.0004150093
0.0004111953
0.000115762
0.0001156266
0.0001154906
0.000115352
0.0001152237
0.0001726067
0.000172364
0.0001721132
0.0001718449
0.0001715421
0.0004167287
0.0004151233
0.0004117977
0.000115875
0.0001157449
0.0001156139
0.0001154798
0.0001153544
0.0001728094
0.0001725742
0.0001723325
0.0001720804
0.0001718146
0.000417624
0.0004166847
0.0004153234
0.0004125181
0.0001159747
0.0001158497
0.0001157234
0.0001155937
0.0001154713
0.000172991
0.0001727622
0.0001725269
0.0001722827
0.0001720306
0.000418225
0.0004174901
0.0004166791
0.0004155275
0.0004134171
0.0001160646
0.0001159446
0.0001158229
0.0001156976
0.0001155782
0.0001731578
0.0001729355
0.0001727062
0.000172468
0.0001722228
0.0004187228
0.0004180598
0.0004174069
0.0004166819
0.0004158497
0.001171604
0.0001161458
0.0001160304
0.0001159132
0.000115792
0.0001156756
0.00017331
0.0001730937
0.0001728699
0.0001726367
0.0001723959
0.0004191583
0.0004185173
0.0004178882
0.0004172384
0.0004165835
0.0001162326
0.0001161225
0.0001160101
0.0001158937
0.0001157812
0.0001734756
0.0001732668
0.0001730502
0.0001728239
0.0001725895
0.0004196446
0.0004190247
0.0004184163
0.0004177952
0.0004171775
0.0001163222
0.0001162173
0.0001161101
0.0001159987
0.0001158906
0.0001736476
0.000173447
0.0001732383
0.0001730199
0.000172793
0.0004201558
0.0004195541
0.00041896
0.0004183538
0.0004177494
0.0001164134
0.0001163139
0.000116212
0.000116106
0.0001160026
0.0001738241
0.0001736322
0.0001734322
0.0001732225
0.0001730042
0.0004206877
0.0004201045
0.0004195256
0.0004189329
0.00041834
0.0001165038
0.0001164098
0.0001163134
0.0001162128
0.0001161144
0.0001740003
0.0001738175
0.0001736265
0.0001734259
0.0001732168
0.0004212246
0.0004206602
0.0004200967
0.0004195176
0.0004189348
0.0001137223
0.0001134593
0.0001131784
0.0001139738
0.0001137415
0.0001134914
0.000113204
0.0001142134
0.0001140018
0.0001137822
0.0001135322
0.0001132528
0.0001144493
0.000114253
0.0001140546
0.0001138401
0.000113614
0.0001698215
0.0001146815
0.0001144978
0.0001143144
0.0001141229
0.0001139366
0.0001704599
0.0001696716
0.0001149146
0.0001147426
0.000114572
0.0001143972
0.0001142358
0.0001710071
0.0001704906
0.0001694655
0.0001151236
0.0001149607
0.0001147993
0.0001146355
0.0001144872
0.0001714366
0.0001710607
0.0001704745
0.0001691831
0.0001153133
0.0001151585
0.0001150049
0.0001148493
0.0001147091
0.0001717989
0.0001714928
0.0001711019
0.0001704472
0.0001689333
0.000115483
0.0001153353
0.0001151882
0.0001150392
0.0001149041
0.0001721086
0.000171837
0.000171531
0.0001711249
0.0001704236
0.0004111114
0.0001156351
0.0001154939
0.0001153528
0.0001152094
0.0001150782
0.0001723808
0.0001721277
0.0001718593
0.0001715512
0.0001711408
0.0004150093
0.0004111953
0.000115771
0.0001156359
0.0001155004
0.0001153622
0.0001152343
0.0001726234
0.0001723813
0.000172131
0.0001718625
0.0001715574
0.0004167442
0.0004150744
0.0004115653
0.0001158922
0.0001157627
0.0001156324
0.0001154991
0.0001153745
0.000172841
0.0001726071
0.0001723668
0.0001721157
0.0001718497
0.0004176962
0.0004167141
0.0004152356
0.000412086
0.0001159997
0.0001158756
0.0001157503
0.0001156216
0.0001155004
0.0001730366
0.0001728098
0.0001725767
0.0001723347
0.0001720845
0.0004183512
0.0004175925
0.000416723
0.0004154128
0.0004127926
0.0001160943
0.0001159753
0.0001158547
0.0001157306
0.0001156126
0.0001732115
0.0001729915
0.0001727646
0.0001725291
0.0001722865
0.0004188762
0.0004181981
0.0004175137
0.0004167163
0.0004156636
0.00116793
0.0001161792
0.0001160652
0.0001159493
0.0001158296
0.0001157151
0.0001733718
0.0001731585
0.000172938
0.0001727085
0.0001724718
0.0004193462
0.0004187066
0.0004180859
0.0004174371
0.0004167884
0.001176939
0.001172735
0.0001162557
0.0001161463
0.0001160348
0.0001159194
0.0001158081
0.0001735177
0.0001733108
0.0001730962
0.0001728722
0.0001726403
0.00041977
0.000419145
0.0004185294
0.0004178966
0.0004172632
0.0001163375
0.0001162332
0.0001161266
0.0001160159
0.0001159086
0.0001736758
0.0001734765
0.0001732692
0.0001730524
0.0001728273
0.0004202412
0.0004196372
0.0004190397
0.0004184285
0.0004178184
0.0001164219
0.0001163227
0.0001162211
0.0001161155
0.0001160125
0.0001738396
0.0001736485
0.0001734492
0.0001732404
0.000173023
0.0004207347
0.00042015
0.0004195687
0.0004189727
0.0004183757
0.0001165076
0.0001164138
0.0001163175
0.000116217
0.0001161188
0.0001740074
0.0001738248
0.0001736342
0.000173434
0.0001732252
0.0004212458
0.0004206808
0.0004201164
0.0004195359
0.0004189514
0.0001165925
0.0001165041
0.0001164131
0.000116318
0.0001162247
0.0001741747
0.0001740009
0.0001738192
0.000173628
0.0001734283
0.0004217601
0.0004212148
0.0004206674
0.0004201021
0.00041953
0.0001139643
0.0001137327
0.0001134868
0.0001132174
0.0001141944
0.0001139822
0.0001137642
0.0001135238
0.000113284
0.0001144184
0.0001142203
0.0001140209
0.0001138092
0.0001135993
0.0001699087
0.0001146409
0.0001144549
0.0001142692
0.0001140774
0.0001138965
0.0001704447
0.000169837
0.0001148611
0.0001146858
0.0001145116
0.0001143337
0.0001141711
0.0001709235
0.0001704704
0.0001696946
0.0001150826
0.0001149177
0.0001147541
0.0001145883
0.0001144386
0.0001713679
0.0001710136
0.0001705052
0.0001694892
0.000115282
0.0001151258
0.0001149705
0.0001148132
0.0001146714
0.0001717418
0.0001714403
0.0001710701
0.0001704872
0.000169213
0.0001154634
0.0001153149
0.0001151669
0.0001150168
0.0001148806
0.0001720723
0.0001718009
0.0001714991
0.0001711094
0.0001704627
0.0004116061
0.0001156257
0.0001154841
0.0001153426
0.0001151987
0.000115067
0.0001723633
0.0001721097
0.0001718415
0.0001715357
0.0001711342
0.0004150611
0.0004114404
0.000115771
0.0001156359
0.0001155004
0.0001153622
0.0001152343
0.0001726234
0.0001723813
0.000172131
0.0001718625
0.0001715574
0.0004167442
0.0004150744
0.0004115653
0.0001159009
0.0001157717
0.0001156417
0.0001155088
0.0001153846
0.0001728568
0.0001726236
0.000172384
0.0001721334
0.0001718672
0.0004177319
0.0004167275
0.0004151879
0.0004118624
0.0001160163
0.0001158927
0.000115768
0.0001156401
0.0001155196
0.0001730666
0.0001728411
0.0001726094
0.0001723687
0.0001721195
0.0004184325
0.0004176568
0.0004167456
0.0004153228
0.0004123632
0.0001161184
0.0001160001
0.0001158805
0.0001157573
0.0001156405
0.000173255
0.0001730367
0.0001728119
0.0001725785
0.0001723381
0.0004190009
0.0004183114
0.0004176019
0.0004167467
0.0004155237
0.00116539
0.0001162079
0.0001160947
0.0001159798
0.0001158613
0.000115748
0.0001734231
0.0001732118
0.0001729935
0.0001727664
0.0001725323
0.0004194934
0.0004188447
0.0004182072
0.0004175258
0.0004167856
0.001176053
0.001169466
0.0001162879
0.0001161797
0.0001160694
0.0001159554
0.0001158457
0.0001735766
0.0001733723
0.0001731606
0.0001729398
0.0001727116
0.0004199468
0.0004193249
0.0004187211
0.0004181005
0.0004175071
0.001180255
0.001177342
0.00117339
0.0001163598
0.0001162562
0.0001161504
0.0001160406
0.0001159343
0.000173716
0.0001735183
0.0001733129
0.0001730981
0.0001728752
0.0004203593
0.0004197507
0.0004191469
0.0004185251
0.0004178997
0.0001164366
0.000116338
0.000116237
0.0001161319
0.0001160297
0.0001738665
0.0001736765
0.0001734785
0.0001732711
0.0001730553
0.0004208149
0.0004202277
0.0004196429
0.0004190415
0.000418438
0.0001165158
0.0001164222
0.0001163262
0.0001162261
0.0001161284
0.0001740222
0.0001738403
0.0001736503
0.0001734509
0.000173243
0.00042129
0.0004207234
0.0004201565
0.0004195726
0.0004189838
0.0001165962
0.0001165079
0.000116417
0.0001163221
0.000116229
0.0001741814
0.0001740079
0.0001738265
0.0001736357
0.0001734363
0.00042178
0.0004212341
0.0004206857
0.0004201191
0.0004195452
0.0001166759
0.0001165928
0.0001165071
0.0001164174
0.0001163292
0.00017434
0.0001741751
0.0001740024
0.0001738205
0.0001736301
0.0004222718
0.0004217464
0.0004212161
0.0004206664
0.0004201068
0.0001141853
0.0001139727
0.0001137552
0.0001135189
0.0001132961
0.0001144006
0.0001142013
0.0001140012
0.0001137909
0.0001135896
0.0001699544
0.0001146122
0.0001144241
0.0001142364
0.0001140435
0.0001138646
0.0001704223
0.000169923
0.0001148232
0.0001146455
0.0001144688
0.0001142886
0.0001141249
0.0001708638
0.0001704555
0.0001698578
0.0001150325
0.0001148646
0.0001146977
0.0001145282
0.0001143749
0.0001712717
0.0001709311
0.0001704853
0.0001697156
0.0001152432
0.0001150851
0.0001149278
0.0001147683
0.0001146243
0.0001716698
0.0001713726
0.0001710238
0.000170518
0.000169516
0.0001154337
0.0001152838
0.0001151343
0.0001149827
0.0001148447
0.0001720163
0.0001717444
0.0001714472
0.0001710781
0.0001705024
0.0004122545
0.000115607
0.0001154646
0.0001153223
0.0001151775
0.0001150447
0.0001723284
0.0001720737
0.0001718057
0.0001715041
0.0001711189
0.0004151515
0.0004119049
0.000115762
0.0001156266
0.0001154906
0.000115352
0.0001152237
0.0001726067
0.000172364
0.0001721132