/*--------------------------------*- C++ -*----------------------------------*\
| =========                 |                                                 |
| \\      /  F ield         | OpenFOAM: The Open Source CFD Toolbox           |
|  \\    /   O peration     | Version:  2306                                  |
|   \\  /    A nd           | Website:  www.openfoam.com                      |
|    \\/     M anipulation  |                                                 |
\*---------------------------------------------------------------------------*/
FoamFile
{
    version     2.0;
    format      ascii;
    arch        "LSB;label=32;scalar=64";
    class       volScalarField;
    location    "1.5/fuel";
    object      eta.fuel;
}
// * * * * * * * * * * * * * * * * * * * * * * * * * * * * * * * * * * * * * //

dimensions      [1 2 -3 0 0 -1 0];

internalField   nonuniform List<scalar> 
16000
(
0.1256576
0.1262913
0.119974
0.122025
0.1275511
0.1204129
0.1226293
0.115225
0.1166346
0.1194157
0.1294036
0.1212661
0.1238301
0.1155761
0.117054
0.1200005
0.1114647
0.1121383
0.1142185
0.1177996
0.1317144
0.1224733
0.1255954
0.1162514
0.1178693
0.1211627
0.1117628
0.1124744
0.1146247
0.1183744
0.108362
0.1085833
0.1098938
0.1127002
0.1171585
0.1340869
0.1238906
0.1277963
0.1171889
0.119022
0.1228719
0.112332
0.1131207
0.1154138
0.1195175
0.1086234
0.108869
0.1102195
0.1130988
0.1177327
0.1056977
0.1056529
0.106481
0.1084693
0.1120636
0
0.1357031
0.1252308
0.1300555
0.118255
0.1203741
0.1250046
0.1131122
0.1140172
0.1165296
0.1212004
0.10912
0.1094144
0.1108453
0.1138733
0.1188755
0.1059318
0.1059038
0.1067579
0.1087887
0.1124603
0
0.1033522
0.1031379
0.1036715
0.1051381
0.1078508
0
0
0.1366129
0.1260599
0.1315872
0.1192141
0.1216512
0.127197
0.1139797
0.1150354
0.1178379
0.1233048
0.1097942
0.1101613
0.1117132
0.1149687
0.1205613
0.1063746
0.1063801
0.1072864
0.1094024
0.1132313
0
0.103565
0.1033627
0.1039148
0.1054097
0.108168
0
0
0.1012445
0.100924
0.1012621
0.1024001
0.1045422
0
0
0
0.1370674
0.1264731
0.1324447
0.119763
0.1224374
0.1286795
0.1147312
0.1159497
0.1190733
0.1254752
0.1105309
0.1109904
0.112698
0.1162537
0.1226767
0.1069712
0.107026
0.1080096
0.1102535
0.1143226
0
0.1039663
0.1037878
0.1043765
0.1059277
0.1087777
0
0
0.1014402
0.1011287
0.1014803
0.1026387
0.1048117
0
0
0
0.09932286
0.09893444
0.09914219
0.1000545
0.1018277
0
0
0
0
0.1372523
0.1266511
0.1328704
0.1200002
0.122827
0.1295074
0.1151343
0.1164701
0.1198307
0.1269422
0.1111496
0.1117068
0.1135813
0.117468
0.1248692
0.1076139
0.1077306
0.1088115
0.1112189
0.1156044
0
0.1045035
0.1043599
0.1050023
0.1066366
0.1096234
0
0
0.1018082
0.1015143
0.1018927
0.1030915
0.1053259
0
0
0
0.0995044
0.09912276
0.09934089
0.1002686
0.1020644
0
0
0
0
0.09754887
0.09711972
0.09723717
0.09799214
0.09950508
0
0
0
0
0
0.1372523
0.126714
0.1330428
0.120078
0.1229936
0.1299176
0.1152838
0.116693
0.1202048
0.1277624
0.1114629
0.1120884
0.1140812
0.1182102
0.1263539
0.1081394
0.1083204
0.109503
0.1120842
0.1168176
0
0.1050754
0.104975
0.1056838
0.107422
0.1105831
0
0
0.1022981
0.1020299
0.1024471
0.1037047
0.1060295
0
0
0
0.09984504
0.09947668
0.09971516
0.1006729
0.1025135
0
0
0
0
0.09771851
0.0972946
0.09742016
0.09818711
0.09971737
0
0
0
0
0
0.09589522
0.09544339
0.09549937
0.09613949
0.0974647
0
0
0
0
0
0
0.1370674
0.126714
0.1330428
0.1200956
0.1230522
0.1300834
0.1153137
0.1167649
0.1203642
0.1281696
0.111561
0.112228
0.1142939
0.1185765
0.1271876
0.1083918
0.1086165
0.1098686
0.1125715
0.117558
0
0.1055321
0.105476
0.1062527
0.1080982
0.1114433
0
0
0.1028143
0.1025775
0.1030422
0.104372
0.1068088
0
0
0
0.1002965
0.09994733
0.1002152
0.1012164
0.1031218
0
0
0
0
0.09803621
0.09762251
0.09776389
0.09855424
0.1001184
0
0
0
0
0
0.09605468
0.09560696
0.09566942
0.09631911
0.09765808
0
0
0
0
0
0
0.09434074
0.09387954
0.09389356
0.09444971
0.09563296
0
0
0
0
0
0
0
0.1366129
0.1266511
0.1328704
0.1200956
0.1230522
0.1300834
0.11531
0.1167805
0.1204201
0.1283346
0.111564
0.1122542
0.1143616
0.1187327
0.1276043
0.1084564
0.1087071
0.1100006
0.1127777
0.1179238
0
0.1057408
0.1057141
0.1065359
0.1084533
0.1119256
0
0
0.1032181
0.103013
0.1035253
0.1049277
0.1074791
0
0
0
0.1007678
0.100442
0.1007452
0.101799
0.1037833
0
0
0
0
0.0984555
0.09805652
0.09822055
0.09904442
0.1006573
0
0
0
0
0
0.09635284
0.09591305
0.09598808
0.09665638
0.09802216
0
0
0
0
0
0
0.0944914
0.09403343
0.09405271
0.09461669
0.09581112
0
0
0
0
0
0
0
0.09286918
0.09240811
0.09239474
0.09288821
0.09396298
0
0
0
0
0
0
0
0
0.1357031
0.1264731
0.1324447
0.120078
0.1229936
0.1299176
0.11531
0.1167805
0.1204201
0.1283346
0.111549
0.1122496
0.1143758
0.1187875
0.1277742
0.1084428
0.1087077
0.1100241
0.1128428
0.1180806
0
0.1057823
0.1057727
0.1066206
0.10858
0.112129
0
0
0.1033939
0.1032095
0.1037525
0.1052019
0.1078289
0
0
0
0.1011296
0.100827
0.1011651
0.1022705
0.1043333
0
0
0
0
0.09888977
0.09850848
0.09869953
0.09956332
0.1012346
0
0
0
0
0
0.09674492
0.0963165
0.09640945
0.0971042
0.09850815
0
0
0
0
0
0
0.0947727
0.09432094
0.09435035
0.09492948
0.0961456
0
0
0
0
0
0
0
0.09301213
0.09255362
0.09254456
0.09304454
0.0941286
0
0
0
0
0
0
0
0
0.0914678
0.09101369
0.09098358
0.09143048
0.09242018
0
0
0
0
0
0
0
0
0
0.1340869
0.1260599
0.1315872
0.1200002
0.122827
0.1295074
0.1153137
0.1167649
0.1203642
0.1281696
0.111549
0.1122496
0.1143758
0.1187875
0.1277742
0.108421
0.1086922
0.1100187
0.1128562
0.1181361
0
0.105758
0.1057576
0.1066192
0.1086013
0.1121929
0
0
0.1034187
0.1032463
0.1038065
0.1052822
0.1079525
0
0
0
0.1012799
0.1009923
0.1013523
0.1024901
0.1046025
0
0
0
0
0.09921743
0.0988536
0.09907078
0.09997304
0.1017008
0
0
0
0
0
0.09714809
0.09673323
0.09684731
0.0975732
0.09902222
0
0
0
0
0
0
0.09514141
0.09469852
0.09474228
0.09534282
0.09658959
0
0
0
0
0
0
0
0.09327873
0.09282509
0.09282431
0.09333681
0.09443883
0
0
0
0
0
0
0
0
0.09160393
0.09115186
0.09112533
0.09157771
0.09257527
0
0
0
0
0
0
0
0
0
0.09012646
0.08968424
0.08964527
0.09005758
0.09098013
0
0
0
0
0
0
0
0
0
0
0.1317144
0.1252308
0.1300555
0.119763
0.1224374
0.1286795
0.1152838
0.116693
0.1202048
0.1277624
0.111564
0.1122542
0.1143616
0.1187327
0.1276043
0.108421
0.1086922
0.1100187
0.1128562
0.1181361
0
0.1057319
0.1057355
0.1066032
0.1085953
0.1122061
0
0
0.1033869
0.1032208
0.1037898
0.1052792
0.1079725
0
0
0
0.1012924
0.1010132
0.1013851
0.1025403
0.1046799
0
0
0
0
0.0993476
0.09899474
0.09922793
0.1001535
0.1019158
0
0
0
0
0
0.09744756
0.0970459
0.0971801
0.09793538
0.09942706
0
0
0
0
0
0
0.09551811
0.09508569
0.09514622
0.09577166
0.09705416
0
0
0
0
0
0
0
0.09362717
0.09318045
0.09319133
0.09372141
0.09484865
0
0
0
0
0
0
0
0
0.0918576
0.09140937
0.09138965
0.09185251
0.09286517
0
0
0
0
0
0
0
0
0
0.09025653
0.08981594
0.08977996
0.09019693
0.09112621
0
0
0
0
0
0
0
0
0
0
0.08883685
0.08841021
0.08836825
0.08875503
0.08962396
0
0
0
0
0
0
0
0
0
0
0.1294036
0.1238906
0.1277963
0.1192141
0.1216512
0.127197
0.1151343
0.1164701
0.1198307
0.1269422
0.111561
0.112228
0.1142939
0.1185765
0.1271876
0.1084428
0.1087077
0.1100241
0.1128428
0.1180806
0
0.1057319
0.1057355
0.1066032
0.1085953
0.1122061
0
0
0.103358
0.1031947
0.1037675
0.1052627
0.107966
0
0
0
0.1012553
0.1009806
0.1013585
0.1025224
0.1046755
0
0
0
0
0.09935058
0.09900385
0.09924553
0.1001833
0.1019635
0
0
0
0
0
0.09756142
0.09716789
0.09731408
0.09808667
0.0996035
0
0
0
0
0
0
0.09579394
0.09537158
0.09544779
0.09609631
0.0974119
0
0
0
0
0
0
0
0.0939811
0.09354248
0.09356682
0.09411715
0.09527346
0
0
0
0
0
0
0
0
0.09218829
0.09174546
0.09173528
0.0922128
0.09324654
0
0
0
0
0
0
0
0
0
0.09049873
0.09006115
0.09003083
0.09045668
0.09139882
0
0
0
0
0
0
0
0
0
0
0.08896149
0.08853614
0.0884967
0.08888749
0.08976224
0
0
0
0
0
0
0
0
0
0
0.08759225
0.08718377
0.08714335
0.08751153
0.08833725
0
0
0
0
0
0
0
0
0
0
0.1275511
0.1224733
0.1255954
0.118255
0.1203741
0.1250046
0.1147312
0.1159497
0.1190733
0.1254752
0.1114629
0.1120884
0.1140812
0.1182102
0.1263539
0.1084564
0.1087071
0.1100006
0.1127777
0.1179238
0
0.105758
0.1057576
0.1066192
0.1086013
0.1121929
0
0
0.103358
0.1031947
0.1037675
0.1052627
0.107966
0
0
0
0.1012247
0.1009518
0.1013323
0.1024998
0.1046586
0
0
0
0
0.09930976
0.09896622
0.09921207
0.1001556
0.1019444
0
0
0
0
0
0.09755705
0.097168
0.09732039
0.09810164
0.09963096
0
0
0
0
0
0
0.09589443
0.09547812
0.09556341
0.09622511
0.09755956
0
0
0
0
0
0
0
0.0942369
0.09380593
0.09384264
0.09441136
0.09559405
0
0
0
0
0
0
0
0
0.09252243
0.09208585
0.09208658
0.09258079
0.09363857
0
0
0
0
0
0
0
0
0
0.09081373
0.09038037
0.09035792
0.0907961
0.09175612
0
0
0
0
0
0
0
0
0
0
0.08919344
0.08877045
0.08873574
0.08913411
0.09001995
0
0
0
0
0
0
0
0
0
0
0.087712
0.08730452
0.08726625
0.08763791
0.0884687
0
0
0
0
0
0
0
0
0
0
0.08638719
0.08599857
0.08596308
0.08631815
0.08710875
0
0
0
0
0
0
0
0
0
0
0.1262913
0.1212661
0.1238301
0.1171889
0.119022
0.1228719
0.1139797
0.1150354
0.1178379
0.1233048
0.1111496
0.1117068
0.1135813
0.117468
0.1248692
0.1083918
0.1086165
0.1098686
0.1125715
0.117558
0
0.1057823
0.1057727
0.1066206
0.10858
0.112129
0
0
0.1033869
0.1032208
0.1037898
0.1052792
0.1079725
0
0
0
0.1012247
0.1009518
0.1013323
0.1024998
0.1046586
0
0
0
0
0.09927788
0.09893573
0.09918329
0.1001292
0.1019214
0
0
0
0
0
0.09751354
0.0971268
0.09728214
0.09806733
0.09960229
0
0
0
0
0
0
0.09588431
0.09547127
0.0955611
0.09622913
0.09757251
0
0
0
0
0
0
0
0.09432633
0.09389982
0.09394346
0.09452235
0.09571959
0
0
0
0
0
0
0
0
0.09276107
0.0923303
0.09234083
0.09284991
0.09392909
0
0
0
0
0
0
0
0
0
0.09113052
0.09070197
0.09068841
0.09114049
0.0921207
0
0
0
0
0
0
0
0
0
0
0.08949449
0.08907476
0.08904658
0.08945544
0.0903566
0
0
0
0
0
0
0
0
0
0
0.08793479
0.08752908
0.08749479
0.08787299
0.08871343
0
0
0
0
0
0
0
0
0
0
0.08650252
0.08611468
0.08608099
0.0864391
0.08723419
0
0
0
0
0
0
0
0
0
0
0.08521707
0.08484952
0.08482137
0.08516755
0.0859296
0
0
0
0
0
0
0
0
0
0
0.1256576
0.1204129
0.1226293
0.1162514
0.1178693
0.1211627
0.1131122
0.1140172
0.1165296
0.1212004
0.1105309
0.1109904
0.112698
0.1162537
0.1226767
0.1081394
0.1083204
0.109503
0.1120842
0.1168176
0
0.1057408
0.1057141
0.1065359
0.1084533
0.1119256
0
0
0.1034187
0.1032463
0.1038065
0.1052822
0.1079525
0
0
0
0.1012553
0.1009806
0.1013585
0.1025224
0.1046755
0
0
0
0
0.09927788
0.09893573
0.09918329
0.1001292
0.1019214
0
0
0
0
0
0.0974809
0.09709516
0.09725169
0.09803841
0.09957551
0
0
0
0
0
0
0.09583889
0.09542752
0.09551944
0.0961902
0.09753733
0
0
0
0
0
0
0
0.09431168
0.09388753
0.09393451
0.09451805
0.09572182
0
0
0
0
0
0
0
0
0.09284125
0.09241373
0.09242955
0.09294657
0.09403713
0
0
0
0
0
0
0
0
0
0.09135432
0.09093014
0.09092441
0.09138863
0.09238645
0
0
0
0
0
0
0
0
0
0
0.089796
0.08937989
0.08935901
0.08977957
0.09069786
0
0
0
0
0
0
0
0
0
0
0.08822342
0.08782014
0.0877913
0.08817848
0.08903219
0
0
0
0
0
0
0
0
0
0
0.08671705
0.08633053
0.08630015
0.08666394
0.0874675
0
0
0
0
0
0
0
0
0
0
0.08532837
0.08496142
0.08493481
0.08528364
0.08604968
0
0
0
0
0
0
0
0
0
0
0.08407788
0.0837323
0.08371337
0.08405388
0.08479253
0
0
0
0
0
0
0
0
0
0
0.119974
0.122025
0.1155761
0.117054
0.1200005
0.112332
0.1131207
0.1154138
0.1195175
0.1097942
0.1101613
0.1117132
0.1149687
0.1205613
0.1076139
0.1077306
0.1088115
0.1112189
0.1156044
0
0.1055321
0.105476
0.1062527
0.1080982
0.1114433
0
0
0.1033939
0.1032095
0.1037525
0.1052019
0.1078289
0
0
0
0.1012924
0.1010132
0.1013851
0.1025403
0.1046799
0
0
0
0
0.09930976
0.09896622
0.09921207
0.1001556
0.1019444
0
0
0
0
0
0.0974809
0.09709516
0.09725169
0.09803841
0.09957551
0
0
0
0
0
0
0.09580579
0.09539514
0.09548788
0.09615965
0.09750813
0
0
0
0
0
0
0
0.09426493
0.09384196
0.09389041
0.09447582
0.09568214
0
0
0
0
0
0
0
0
0.09282302
0.09239717
0.09241541
0.09293585
0.09403124
0
0
0
0
0
0
0
0
0
0.09142672
0.09100484
0.09100314
0.09147357
0.09248043
0
0
0
0
0
0
0
0
0
0
0.09000694
0.089594
0.0895794
0.09000994
0.09094289
0
0
0
0
0
0
0
0
0
0
0
0.08851141
0.08811077
0.08808789
0.088485
0.08935341
0
0
0
0
0
0
0
0
0
0
0.08699453
0.0866098
0.08658392
0.08695545
0.08777059
0
0
0
0
0
0
0
0
0
0
0.0855354
0.08516943
0.0851456
0.08549934
0.08627286
0
0
0
0
0
0
0
0
0
0
0.08418552
0.08384037
0.08382276
0.0841656
0.0849078
0
0
0
0
0
0
0
0
0
0
0.08296638
0.08264318
0.08263497
0.08297238
0.08369171
0
0
0
0
0
0
0
0
0
0
0.115225
0.1166346
0.1194157
0.1117628
0.1124744
0.1146247
0.1183744
0.10912
0.1094144
0.1108453
0.1138733
0.1188755
0.1069712
0.107026
0.1080096
0.1102535
0.1143226
0
0.1050754
0.104975
0.1056838
0.107422
0.1105831
0
0
0.1032181
0.103013
0.1035253
0.1049277
0.1074791
0
0
0
0.1012799
0.1009923
0.1013523
0.1024901
0.1046025
0
0
0
0
0.09935058
0.09900385
0.09924553
0.1001833
0.1019635
0
0
0
0
0
0.09751354
0.0971268
0.09728214
0.09806733
0.09960229
0
0
0
0
0
0
0.09580579
0.09539514
0.09548788
0.09615965
0.09750813
0
0
0
0
0
0
0
0.09423161
0.09380915
0.09385815
0.09444421
0.09565136
0
0
0
0
0
0
0
0
0.0927754
0.09235037
0.09236959
0.09289129
0.09398837
0
0
0
0
0
0
0
0
0
0.09140568
0.09098493
0.09098495
0.09145787
0.0924683
0
0
0
0
0
0
0
0
0
0
0.0900728
0.08966136
0.0896498
0.09008524
0.0910254
0
0
0
0
0
0
0
0
0
0
0
0.08871115
0.08831271
0.08829479
0.08870019
0.08958092
0
0
0
0
0
0
0
0
0
0
0
0
0.08727047
0.0868876
0.08686658
0.08724655
0.08807442
0
0
0
0
0
0
0
0
0
0
0.08580282
0.08543811
0.08541801
0.08577843
0.08656213
0
0
0
0
0
0
0
0
0
0
0.08438577
0.08404126
0.08402599
0.08437313
0.08512194
0
0
0
0
0
0
0
0
0
0
0.08307066
0.08274777
0.08274067
0.08308016
0.08380266
0
0
0
0
0
0
0
0
0
0
0.08187978
0.08157911
0.08158261
0.08191909
0.08262244
0
0
0
0
0
0
0
0
0
0
0.1114647
0.1121383
0.1142185
0.1177996
0.1086234
0.108869
0.1102195
0.1130988
0.1177327
0.1063746
0.1063801
0.1072864
0.1094024
0.1132313
0
0.1045035
0.1043599
0.1050023
0.1066366
0.1096234
0
0
0.1028143
0.1025775
0.1030422
0.104372
0.1068088
0
0
0
0.1011296
0.100827
0.1011651
0.1022705
0.1043333
0
0
0
0
0.0993476
0.09899474
0.09922793
0.1001535
0.1019158
0
0
0
0
0
0.09755705
0.097168
0.09732039
0.09810164
0.09963096
0
0
0
0
0
0
0.09583889
0.09542752
0.09551944
0.0961902
0.09753733
0
0
0
0
0
0
0
0.09423161
0.09380915
0.09385815
0.09444421
0.09565136
0
0
0
0
0
0
0
0
0.09274202
0.09231735
0.09233692
0.09285902
0.09395656
0
0
0
0
0
0
0
0
0
0.09135753
0.09093729
0.09093795
0.09141167
0.09242317
0
0
0
0
0
0
0
0
0
0
0.09004959
0.08963881
0.08962842
0.09006564
0.09100842
0
0
0
0
0
0
0
0
0
0
0
0.08877148
0.08837392
0.08835821
0.08876744
0.08965399
0
0
0
0
0
0
0
0
0
0
0
0
0.08746038
0.08707894
0.08706181
0.08744864
0.08828696
0
0
0
0
0
0
0
0
0
0
0
0
0
0.08606797
0.08570449
0.08568836
0.08605596
0.08685071
0
0
0
0
0
0
0
0
0
0
0.08464411
0.08430037
0.08428823
0.08464116
0.08539892
0
0
0
0
0
0
0
0
0
0
0.08326473
0.0829422
0.08293705
0.08328032
0.08400872
0
0
0
0
0
0
0
0
0
0
0.081981
0.08168051
0.08168495
0.08202326
0.08272948
0
0
0
0
0
0
0
0
0
0
0.08081608
0.08053753
0.08055341
0.08089054
0.0815808
0
0
0
0
0
0
0
0
0
0
0.108362
0.1085833
0.1098938
0.1127002
0.1171585
0.1059318
0.1059038
0.1067579
0.1087887
0.1124603
0
0.1039663
0.1037878
0.1043765
0.1059277
0.1087777
0
0
0.1022981
0.1020299
0.1024471
0.1037047
0.1060295
0
0
0
0.1007678
0.100442
0.1007452
0.101799
0.1037833
0
0
0
0
0.09921743
0.0988536
0.09907078
0.09997304
0.1017008
0
0
0
0
0
0.09756142
0.09716789
0.09731408
0.09808667
0.0996035
0
0
0
0
0
0
0.09588431
0.09547127
0.0955611
0.09622913
0.09757251
0
0
0
0
0
0
0
0.09426493
0.09384196
0.09389041
0.09447582
0.09568214
0
0
0
0
0
0
0
0
0.09274202
0.09231735
0.09233692
0.09285902
0.09395656
0
0
0
0
0
0
0
0
0
0.09132424
0.09090423
0.0909051
0.09137901
0.09239073
0
0
0
0
0
0
0
0
0
0
0.0900012
0.0895907
0.08958066
0.09001834
0.09096172
0
0
0
0
0
0
0
0
0
0
0
0.08874662
0.08834935
0.08833433
0.0887448
0.08963324
0
0
0
0
0
0
0
0
0
0
0
0
0.08751602
0.08713497
0.08711937
0.08750915
0.08835217
0
0
0
0
0
0
0
0
0
0
0
0
0
0.08624923
0.08588653
0.08587344
0.08624671
0.08705035
0
0
0
0
0
0
0
0
0
0
0
0
0
0
0.08489961
0.08455653
0.08454761
0.0849067
0.0856741
0
0
0
0
0
0
0
0
0
0
0.08351482
0.0831927
0.08319009
0.08353843
0.08427477
0
0
0
0
0
0
0
0
0
0
0.08216943
0.08186906
0.08187513
0.08221675
0.08292826
0
0
0
0
0
0
0
0
0
0
0.08091448
0.08063601
0.08065268
0.08099145
0.08168428
0
0
0
0
0
0
0
0
0
0
0.07977331
0.0795166
0.07954495
0.07988397
0.08056336
0
0
0
0
0
0
0
0
0
0
0.1056977
0.1056529
0.106481
0.1084693
0.1120636
0
0.103565
0.1033627
0.1039148
0.1054097
0.108168
0
0
0.1018082
0.1015143
0.1018927
0.1030915
0.1053259
0
0
0
0.1002965
0.09994733
0.1002152
0.1012164
0.1031218
0
0
0
0
0.09888977
0.09850848
0.09869953
0.09956332
0.1012346
0
0
0
0
0
0.09744756
0.0970459
0.0971801
0.09793538
0.09942706
0
0
0
0
0
0
0.09589443
0.09547812
0.09556341
0.09622511
0.09755956
0
0
0
0
0
0
0
0.09431168
0.09388753
0.09393451
0.09451805
0.09572182
0
0
0
0
0
0
0
0
0.0927754
0.09235037
0.09236959
0.09289129
0.09398837
0
0
0
0
0
0
0
0
0
0.09132424
0.09090423
0.0909051
0.09137901
0.09239073
0
0
0
0
0
0
0
0
0
0
0.08996812
0.08955773
0.08954777
0.0899855
0.09092892
0
0
0
0
0
0
0
0
0
0
0
0.08869823
0.08830104
0.08828614
0.08869678
0.08958549
0
0
0
0
0
0
0
0
0
0
0
0
0.0874899
0.08710887
0.0870936
0.08748414
0.08832848
0
0
0
0
0
0
0
0
0
0
0
0
0
0.0863009
0.08593816
0.08592608
0.08630159
0.08710897
0
0
0
0
0
0
0
0
0
0
0
0
0
0
0.08507325
0.08473041
0.0847238
0.0850876
0.08586258
0
0
0
0
0
0
0
0
0
0
0
0
0
0
0
0.08376164
0.08343971
0.08343965
0.08379329
0.08453811
0
0
0
0
0
0
0
0
0
0
0.08241206
0.08211174
0.08211989
0.08246589
0.08318451
0
0
0
0
0
0
0
0
0
0
0.08109777
0.08081922
0.0808372
0.08117889
0.08187645
0
0
0
0
0
0
0
0
0
0
0.07986912
0.0796124
0.07964141
0.07998188
0.0806636
0
0
0
0
0
0
0
0
0
0
0.07875037
0.07851452
0.07855551
0.07889703
0.07956738
0
0
0
0
0
0
0
0
0
0
0.1033522
0.1031379
0.1036715
0.1051381
0.1078508
0
0
0.1014402
0.1011287
0.1014803
0.1026387
0.1048117
0
0
0
0.09984504
0.09947668
0.09971516
0.1006729
0.1025135
0
0
0
0
0.0984555
0.09805652
0.09822055
0.09904442
0.1006573
0
0
0
0
0
0.09714809
0.09673323
0.09684731
0.0975732
0.09902222
0
0
0
0
0
0
0.09579394
0.09537158
0.09544779
0.09609631
0.0974119
0
0
0
0
0
0
0
0.09432632
0.09389982
0.09394346
0.09452235
0.09571959
0
0
0
0
0
0
0
0
0.09282303
0.09239717
0.09241541
0.09293585
0.09403124
0
0
0
0
0
0
0
0
0
0.09135753
0.09093729
0.09093795
0.09141167
0.09242317
0
0
0
0
0
0
0
0
0
0
0.08996812
0.08955773
0.08954777
0.0899855
0.09092892
0
0
0
0
0
0
0
0
0
0
0
0.08866543
0.08826827
0.08825334
0.08866393
0.08955254
0
0
0
0
0
0
0
0
0
0
0
0
0.08744168
0.08706059
0.08704524
0.08743572
0.08828006
0
0
0
0
0
0
0
0
0
0
0
0
0
0.08627392
0.08591092
0.0858989
0.08627478
0.087083
0
0
0
0
0
0
0
0
0
0
0
0
0
0
0.08512159
0.08477834
0.08477227
0.08513775
0.0859157
0
0
0
0
0
0
0
0
0
0
0
0
0
0
0
0.08392856
0.08360641
0.08360803
0.08396557
0.08471689
0
0
0
0
0
0
0
0
0
0
0
0
0
0
0
0
0.08265108
0.08235054
0.08236069
0.08271121
0.08343731
0
0
0
0
0
0
0
0
0
0
0.08133361
0.08105481
0.08107445
0.08141996
0.08212384
0
0
0
0
0
0
0
0
0
0
0.08004769
0.07979072
0.07982079
0.08016381
0.0808498
0
0
0
0
0
0
0
0
0
0
0.07884377
0.07860784
0.07864938
0.07899219
0.07966466
0
0
0
0
0
0
0
0
0
0
0.07774557
0.0775303
0.07758339
0.07792807
0.07859055
0
0
0
0
0
0
0
0
0
0
0.1012445
0.100924
0.1012621
0.1024001
0.1045422
0
0
0
0.0995044
0.09912276
0.09934089
0.1002686
0.1020644
0
0
0
0
0.09803621
0.09762251
0.09776389
0.09855424
0.1001184
0
0
0
0
0
0.09674492
0.0963165
0.09640945
0.0971042
0.09850815
0
0
0
0
0
0
0.09551811
0.09508569
0.09514622
0.09577166
0.09705416
0
0
0
0
0
0
0
0.0942369
0.09380593
0.09384264
0.09441136
0.09559405
0
0
0
0
0
0
0
0
0.09284125
0.09241373
0.09242955
0.09294657
0.09403713
0
0
0
0
0
0
0
0
0
0.09140568
0.09098493
0.09098495
0.09145787
0.0924683
0
0
0
0
0
0
0
0
0
0
0.0900012
0.0895907
0.08958066
0.09001834
0.09096172
0
0
0
0
0
0
0
0
0
0
0
0.08866543
0.08826827
0.08825334
0.08866393
0.08955254
0
0
0
0
0
0
0
0
0
0
0
0
0.08740923
0.0870281
0.08701265
0.08740297
0.0882471
0
0
0
0
0
0
0
0
0
0
0
0
0
0.08622604
0.08586282
0.08585059
0.08622624
0.08703423
0
0
0
0
0
0
0
0
0
0
0
0
0
0
0.08509402
0.08475032
0.08474403
0.08510961
0.08588801
0
0
0
0
0
0
0
0
0
0
0
0
0
0
0
0.0839741
0.08365124
0.08365302
0.08401172
0.0847654
0
0
0
0
0
0
0
0
0
0
0
0
0
0
0
0
0.0828121
0.08251091
0.08252221
0.08287592
0.0836076
0
0
0
0
0
0
0
0
0
0
0
0
0
0
0
0
0
0.0815656
0.08128624
0.08130737
0.08165675
0.08236722
0
0
0
0
0
0
0
0
0
0
0.08027734
0.08001988
0.08005123
0.08039757
0.08108922
0
0
0
0
0
0
0
0
0
0
0.07901801
0.07878169
0.07882407
0.07916911
0.07984541
0
0
0
0
0
0
0
0
0
0
0.07783676
0.07762134
0.07767489
0.07802072
0.07868512
0
0
0
0
0
0
0
0
0
0
0.07675785
0.0765624
0.07662772
0.07697548
0.07763125
0
0
0
0
0
0
0
0
0
0
0.09932286
0.09893444
0.09914219
0.1000545
0.1018277
0
0
0
0
0.09771851
0.0972946
0.09742016
0.09818711
0.09971737
0
0
0
0
0
0.09635284
0.09591305
0.09598808
0.09665638
0.09802216
0
0
0
0
0
0
0.09514141
0.09469852
0.09474228
0.09534282
0.09658959
0
0
0
0
0
0
0
0.0939811
0.09354248
0.09356682
0.09411715
0.09527346
0
0
0
0
0
0
0
0
0.09276107
0.09233029
0.09234083
0.09284991
0.09392909
0
0
0
0
0
0
0
0
0
0.09142671
0.09100484
0.09100314
0.09147357
0.09248043
0
0
0
0
0
0
0
0
0
0
0.09004959
0.08963881
0.08962842
0.09006564
0.09100842
0
0
0
0
0
0
0
0
0
0
0
0.08869823
0.08830104
0.08828614
0.08869678
0.08958549
0
0
0
0
0
0
0
0
0
0
0
0
0.08740923
0.0870281
0.08701265
0.08740297
0.08824711
0
0
0
0
0
0
0
0
0
0
0
0
0
0.08619399
0.08583067
0.08581828
0.0861937
0.08700139
0
0
0
0
0
0
0
0
0
0
0
0
0
0
0.08504659
0.08470258
0.08469593
0.08506114
0.08583914
0
0
0
0
0
0
0
0
0
0
0
0
0
0
0
0.08394623
0.08362272
0.08362408
0.0839826
0.08473644
0
0
0
0
0
0
0
0
0
0
0
0
0
0
0
0
0.08285533
0.08255315
0.08256427
0.08291873
0.08365222
0
0
0
0
0
0
0
0
0
0
0
0
0
0
0
0
0
0.0817214
0.08144105
0.08146286
0.08181482
0.08253006
0
0
0
0
0
0
0
0
0
0
0
0
0
0
0
0
0
0
0.08050298
0.08024466
0.08027709
0.08062669
0.08132418
0
0
0
0
0
0
0
0
0
0
0.07924199
0.07900498
0.07904834
0.07939625
0.0800776
0
0
0
0
0
0
0
0
0
0
0.078007
0.07779107
0.07784528
0.07819306
0.07886092
0
0
0
0
0
0
0
0
0
0
0.07684698
0.07665133
0.07671703
0.0770658
0.07772333
0
0
0
0
0
0
0
0
0
0
0.07578642
0.07560986
0.07568705
0.07603843
0.07668789
0
0
0
0
0
0
0
0
0
0
0.09754887
0.09711972
0.09723717
0.09799214
0.09950508
0
0
0
0
0
0.09605468
0.09560696
0.09566942
0.09631911
0.09765808
0
0
0
0
0
0
0.09477269
0.09432094
0.09435035
0.09492948
0.0961456
0
0
0
0
0
0
0
0.09362717
0.09318045
0.09319133
0.09372141
0.09484865
0
0
0
0
0
0
0
0
0.09252243
0.09208585
0.09208658
0.09258079
0.09363857
0
0
0
0
0
0
0
0
0
0.09135432
0.09093014
0.09092441
0.09138863
0.09238645
0
0
0
0
0
0
0
0
0
0
0.0900728
0.08966136
0.0896498
0.09008523
0.0910254
0
0
0
0
0
0
0
0
0
0
0
0.08874662
0.08834935
0.08833433
0.0887448
0.08963324
0
0
0
0
0
0
0
0
0
0
0
0
0.08744168
0.08706059
0.08704524
0.08743572
0.08828006
0
0
0
0
0
0
0
0
0
0
0
0
0
0.08619399
0.08583067
0.08581828
0.0861937
0.08700139
0
0
0
0
0
0
0
0
0
0
0
0
0
0
0.085015
0.08467083
0.08466396
0.08502889
0.08580653
0
0
0
0
0
0
0
0
0
0
0
0
0
0
0
0.08389937
0.08357544
0.08357635
0.08393437
0.08468769
0
0
0
0
0
0
0
0
0
0
0
0
0
0
0
0
0.08282738
0.08252439
0.0825349
0.08288898
0.08362234
0
0
0
0
0
0
0
0
0
0
0
0
0
0
0
0
0
0.08176274
0.08148118
0.0815025
0.08185484
0.08257144
0
0
0
0
0
0
0
0
0
0
0
0
0
0
0
0
0
0
0.08065418
0.08039459
0.08042728
0.08077892
0.08148048
0
0
0
0
0
0
0
0
0
0
0
0
0
0
0
0
0
0
0
0.07946187
0.07922377
0.07926783
0.07961851
0.080305
0
0
0
0
0
0
0
0
0
0
0.07822579
0.07800899
0.07806391
0.07841418
0.07908656
0
0
0
0
0
0
0
0
0
0
0.07701355
0.07681727
0.07688345
0.07723396
0.07789461
0
0
0
0
0
0
0
0
0
0
0.07587363
0.07569684
0.07577432
0.07612661
0.07677768
0
0
0
0
0
0
0
0
0
0
0.07483101
0.074672
0.07476048
0.07511552
0.07575967
0
0
0
0
0
0
0
0
0
0
0.09589522
0.09544339
0.09549937
0.09613949
0.0974647
0
0
0
0
0
0
0.0944914
0.09403343
0.09405271
0.09461669
0.09581112
0
0
0
0
0
0
0
0.09327873
0.09282509
0.09282431
0.09333681
0.09443883
0
0
0
0
0
0
0
0
0.09218829
0.09174546
0.09173528
0.0922128
0.09324654
0
0
0
0
0
0
0
0
0
0.09113051
0.09070197
0.09068841
0.09114049
0.0921207
0
0
0
0
0
0
0
0
0
0
0.09000694
0.08959399
0.0895794
0.09000994
0.09094289
0
0
0
0
0
0
0
0
0
0
0
0.08877148
0.08837392
0.0883582
0.08876744
0.08965399
0
0
0
0
0
0
0
0
0
0
0
0
0.0874899
0.08710887
0.0870936
0.08748414
0.08832848
0
0
0
0
0
0
0
0
0
0
0
0
0
0.08622604
0.08586282
0.08585059
0.08622624
0.08703423
0
0
0
0
0
0
0
0
0
0
0
0
0
0
0.085015
0.08467083
0.08466396
0.08502889
0.08580653
0
0
0
0
0
0
0
0
0
0
0
0
0
0
0
0.08386826
0.08354413
0.08354478
0.08390246
0.08465537
0
0
0
0
0
0
0
0
0
0
0
0
0
0
0
0
0.08278121
0.08247769
0.08248764
0.08284112
0.08357384
0
0
0
0
0
0
0
0
0
0
0
0
0
0
0
0
0
0.08173492
0.08145241
0.08147294
0.08182471
0.08254098
0
0
0
0
0
0
0
0
0
0
0
0
0
0
0
0
0
0
0.08069398
0.08043299
0.08046495
0.08081664
0.08151916
0
0
0
0
0
0
0
0
0
0
0
0
0
0
0
0
0
0
0
0.07960899
0.07936939
0.07941338
0.07976562
0.08045556
0
0
0
0
0
0
0
0
0
0
0
0
0
0
0
0
0
0
0
0
0.07844045
0.07822235
0.07827767
0.07863027
0.07930718
0
0
0
0
0
0
0
0
0
0
0.0772276
0.07703028
0.07709694
0.0774496
0.07811431
0
0
0
0
0
0
0
0
0
0
0.0760368
0.0758593
0.07593711
0.07629091
0.07694482
0
0
0
0
0
0
0
0
0
0
0.07491647
0.07475715
0.07484587
0.07520171
0.07584734
0
0
0
0
0
0
0
0
0
0
0.07389096
0.07374863
0.07384741
0.07420591
0.07484521
0
0
0
0
0
0
0
0
0
0
0.09434074
0.09387954
0.09389356
0.09444971
0.09563296
0
0
0
0
0
0
0
0.09301213
0.09255362
0.09254456
0.09304454
0.0941286
0
0
0
0
0
0
0
0
0.0918576
0.09140936
0.09138965
0.09185251
0.09286517
0
0
0
0
0
0
0
0
0
0.09081372
0.09038037
0.09035791
0.0907961
0.09175612
0
0
0
0
0
0
0
0
0
0
0.08979599
0.08937988
0.08935901
0.08977957
0.09069786
0
0
0
0
0
0
0
0
0
0
0.08871115
0.08831271
0.08829479
0.08870019
0.08958092
0
0
0
0
0
0
0
0
0
0
0
0
0.08751602
0.08713497
0.08711937
0.08750914
0.08835217
0
0
0
0
0
0
0
0
0
0
0
0
0
0.08627392
0.08591092
0.0858989
0.08627478
0.087083
0
0
0
0
0
0
0
0
0
0
0
0
0
0
0.0850466
0.08470258
0.08469593
0.08506114
0.08583914
0
0
0
0
0
0
0
0
0
0
0
0
0
0
0
0.08386827
0.08354413
0.08354478
0.08390246
0.08465537
0
0
0
0
0
0
0
0
0
0
0
0
0
0
0
0
0.08275062
0.08244686
0.08245651
0.08280962
0.08354187
0
0
0
0
0
0
0
0
0
0
0
0
0
0
0
0
0
0.0816895
0.08140639
0.08142628
0.08177735
0.08249288
0
0
0
0
0
0
0
0
0
0
0
0
0
0
0
0
0
0
0.08066646
0.0804044
0.08043545
0.08078638
0.08148837
0
0
0
0
0
0
0
0
0
0
0
0
0
0
0
0
0
0
0
0.07964756
0.07940641
0.07944946
0.07980147
0.08049201
0
0
0
0
0
0
0
0
0
0
0
0
0
0
0
0
0
0
0
0
0.07858396
0.07836416
0.07841913
0.07877289
0.07945273
0
0
0
0
0
0
0
0
0
0
0
0
0
0
0
0
0
0
0
0
0.07743755
0.07723872
0.0773055
0.07766012
0.07832884
0
0
0
0
0
0
0
0
0
0
0.07624648
0.07606782
0.07614588
0.07650153
0.07715911
0
0
0
0
0
0
0
0
0
0
0.07507652
0.07491639
0.07500532
0.07536247
0.07601067
0
0
0
0
0
0
0
0
0
0
0.07397476
0.07383211
0.07393104
0.07429027
0.07493092
0
0
0
0
0
0
0
0
0
0
0.07296755
0.07283915
0.07294771
0.07330904
0.07394369
0
0
0
0
0
0
0
0
0
0
0.09286918
0.09240811
0.09239474
0.09288821
0.09396298
0
0
0
0
0
0
0
0
0.09160393
0.09115186
0.09112533
0.09157771
0.09257527
0
0
0
0
0
0
0
0
0
0.09049873
0.09006115
0.09003083
0.09045668
0.09139882
0
0
0
0
0
0
0
0
0
0
0.08949449
0.08907475
0.08904658
0.08945544
0.0903566
0
0
0
0
0
0
0
0
0
0
0.0885114
0.08811076
0.08808789
0.088485
0.0893534
0
0
0
0
0
0
0
0
0
0
0.08746038
0.08707894
0.0870618
0.08744863
0.08828696
0
0
0
0
0
0
0
0
0
0
0
0
0
0.08630091
0.08593816
0.08592608
0.08630159
0.08710897
0
0
0
0
0
0
0
0
0
0
0
0
0
0
0.08509402
0.08475032
0.08474403
0.08510961
0.08588801
0
0
0
0
0
0
0
0
0
0
0
0
0
0
0
0.08389938
0.08357544
0.08357635
0.08393437
0.08468769
0
0
0
0
0
0
0
0
0
0
0
0
0
0
0
0
0.08275062
0.08244686
0.08245651
0.08280962
0.08354187
0
0
0
0
0
0
0
0
0
0
0
0
0
0
0
0
0
0.08165946
0.08137607
0.08139562
0.08174628
0.08246132
0
0
0
0
0
0
0
0
0
0
0
0
0
0
0
0
0
0
0.08062186
0.08035914
0.08038946
0.08073962
0.08144078
0
0
0
0
0
0
0
0
0
0
0
0
0
0
0
0
0
0
0
0.07962047
0.07937816
0.07942017
0.0797713
0.08046112
0
0
0
0
0
0
0
0
0
0
0
0
0
0
0
0
0
0
0
0
0.07862158
0.07840009
0.07845395
0.07880725
0.07948738
0
0
0
0
0
0
0
0
0
0
0
0
0
0
0
0
0
0
0
0
0.0775779
0.07737718
0.07744336
0.0777988
0.07846998
0
0
0
0
0
0
0
0
0
0
0
0
0
0
0
0
0
0
0
0
0.07645212
0.07627182
0.07634975
0.07670701
0.07736815
0
0
0
0
0
0
0
0
0
0
0.07528221
0.07512078
0.07520979
0.07556851
0.07622001
0
0
0
0
0
0
0
0
0
0
0.07413191
0.07398839
0.0740874
0.07444778
0.07509075
0
0
0
0
0
0
0
0
0
0
0.07304984
0.07292106
0.07302973
0.0733917
0.07402759
0
0
0
0
0
0
0
0
0
0
0.07205998
0.07194491
0.07206084
0.07242483
0.07305458
0
0
0
0
0
0
0
0
0
0
0.0914678
0.09101369
0.09098358
0.09143048
0.09242018
0
0
0
0
0
0
0
0
0
0.09025653
0.08981594
0.08977996
0.09019693
0.09112621
0
0
0
0
0
0
0
0
0
0
0.08919343
0.08877044
0.08873574
0.08913411
0.09001995
0
0
0
0
0
0
0
0
0
0
0.08822342
0.08782014
0.08779129
0.08817848
0.08903218
0
0
0
0
0
0
0
0
0
0
0.08727047
0.0868876
0.08686657
0.08724654
0.08807442
0
0
0
0
0
0
0
0
0
0
0.08624923
0.08588653
0.08587344
0.08624671
0.08705034
0
0
0
0
0
0
0
0
0
0
0
0
0
0
0.08512159
0.08477834
0.08477227
0.08513775
0.0859157
0
0
0
0
0
0
0
0
0
0
0
0
0
0
0
0.08394623
0.08362272
0.08362408
0.0839826
0.08473644
0
0
0
0
0
0
0
0
0
0
0
0
0
0
0
0
0.08278121
0.08247769
0.08248764
0.08284113
0.08357384
0
0
0
0
0
0
0
0
0
0
0
0
0
0
0
0
0
0.08165946
0.08137607
0.08139562
0.08174628
0.08246132
0
0
0
0
0
0
0
0
0
0
0
0
0
0
0
0
0
0
0.08059239
0.08032936
0.08035931
0.08070902
0.08140966
0
0
0
0
0
0
0
0
0
0
0
0
0
0
0
0
0
0
0
0.07957674
0.07933371
0.07937495
0.07972524
0.08041415
0
0
0
0
0
0
0
0
0
0
0
0
0
0
0
0
0
0
0
0
0.07859506
0.07837232
0.07842505
0.07877734
0.07945662
0
0
0
0
0
0
0
0
0
0
0
0
0
0
0
0
0
0
0
0
0.07761483
0.07741228
0.07747719
0.07783198
0.0785032
0
0
0
0
0
0
0
0
0
0
0
0
0
0
0
0
0
0
0
0
0.07658966
0.07640735
0.07648443
0.07684222
0.07750542
0
0
0
0
0
0
0
0
0
0
0
0
0
0
0
0
0
0
0
0
0.07548397
0.07532073
0.07540942
0.07576943
0.07642408
0
0
0
0
0
0
0
0
0
0
0.07433391
0.07418901
0.0742879
0.07464964
0.07529556
0
0
0
0
0
0
0
0
0
0
0.07320434
0.0730746
0.07318325
0.07354619
0.07418421
0
0
0
0
0
0
0
0
0
0
0.07214082
0.07202538
0.07214135
0.07250591
0.07313678
0
0
0
0
0
0
0
0
0
0
0.07117203
0.07106515