/*--------------------------------*- C++ -*----------------------------------*\
| =========                 |                                                 |
| \\      /  F ield         | OpenFOAM: The Open Source CFD Toolbox           |
|  \\    /   O peration     | Version:  2306                                  |
|   \\  /    A nd           | Website:  www.openfoam.com                      |
|    \\/     M anipulation  |                                                 |
\*---------------------------------------------------------------------------*/
FoamFile
{
    version     2.0;
    format      ascii;
    arch        "LSB;label=32;scalar=64";
    class       volScalarField;
    location    "1.5/fuel";
    object      H2O;
}
// * * * * * * * * * * * * * * * * * * * * * * * * * * * * * * * * * * * * * //

dimensions      [0 0 0 0 0 0 0];

internalField   nonuniform List<scalar> 
16000
(
0.3981272
0.393397
0.4680258
0.397861
0.3837865
0.4650313
0.393125
0.5321119
0.4678273
0.3973388
0.3692004
0.4589876
0.383502
0.5299319
0.4648299
0.3925914
0.5835439
0.5319635
0.4674377
0.3965673
0.3501818
0.449909
0.3688951
0.5255418
0.4587798
0.3829439
0.5818512
0.5297816
0.4644343
0.3918029
0.6249657
0.5834289
0.5316717
0.4668616
0.3955493
0.3295541
0.4382226
0.349845
0.5189692
0.4496909
0.3682965
0.5784492
0.5253877
0.4583717
0.3821194
0.6236058
0.581735
0.5294862
0.4638494
0.3907626
0.6589447
0.6248739
0.5832027
0.5312401
0.4661014
0.3945381
0.3138049
0.425695
0.3291762
0.5105466
0.4379892
0.3491845
0.5733704
0.5188088
0.4492627
0.3674121
0.620877
0.5783304
0.5250847
0.4577685
0.3810316
0.6578259
0.6235131
0.5815064
0.5290493
0.4630776
0.3897293
0.6873219
0.6588695
0.6246931
0.5828679
0.5306704
0.4653463
0.3936996
0.3036964
0.4161259
0.3134013
0.5015634
0.4254424
0.3284349
0.5668868
0.510377
0.4375311
0.3482087
0.6168125
0.5732474
0.5184937
0.4486297
0.3662454
0.6555837
0.6207824
0.5780967
0.5246366
0.4569725
0.3799511
0.6863843
0.6577502
0.6233307
0.581168
0.5284725
0.462311
0.3888725
0.7113879
0.6872593
0.6587216
0.6244255
0.5824258
0.5301045
0.4647205
0.3928658
0.2979251
0.409925
0.3032787
0.494728
0.4158628
0.3126101
0.5600012
0.501382
0.4249462
0.3273394
0.6116397
0.5667576
0.5100437
0.4368539
0.346921
0.6522503
0.616715
0.5730055
0.5180275
0.4477944
0.3650863
0.6845071
0.6555066
0.6205964
0.5777508
0.5240451
0.4561818
0.3790545
0.7105901
0.6863212
0.657601
0.6230604
0.5807212
0.5278996
0.4616757
0.3880202
0.7320655
0.7113348
0.6871359
0.6585024
0.6240719
0.5819867
0.5296357
0.4640983
0.3920364
0.2953273
0.4063363
0.2974997
0.4903039
0.4096568
0.30246
0.5547796
0.4945409
0.415346
0.3114409
0.6061648
0.559864
0.5010255
0.4242125
0.3258929
0.6480183
0.6115378
0.5665034
0.5095505
0.4359599
0.3456413
0.6817204
0.652171
0.6165231
0.5726475
0.5174122
0.4469647
0.3641228
0.7089942
0.6844429
0.6553547
0.6203208
0.5772941
0.5234575
0.4555262
0.3781623
0.7313781
0.7105367
0.6861968
0.6573799
0.6227036
0.5802773
0.5274249
0.461044
0.3871724
0.7500304
0.7320199
0.7112302
0.6869529
0.6582129
0.6237207
0.581623
0.5291698
0.4634799
0.3912117
0.2953273
0.4047025
0.2948985
0.4877417
0.4060656
0.2966661
0.5514058
0.4901143
0.4091302
0.3012504
0.6020242
0.5546388
0.494173
0.4145818
0.3098971
0.6435511
0.606057
0.559594
0.5004978
0.4232436
0.3244545
0.6781895
0.6479356
0.611337
0.5661272
0.5088995
0.4350719
0.3445719
0.7066281
0.6816546
0.6520148
0.616239
0.5721749
0.516801
0.4462757
0.363162
0.7300039
0.7089399
0.6843165
0.6551298
0.6199569
0.5768405
0.5229706
0.4548741
0.3772744
0.7494316
0.7313322
0.7104313
0.6860124
0.6570879
0.622349
0.5799097
0.5269532
0.460416
0.3863294
0.7657885
0.7499908
0.7319301
0.711075
0.6867112
0.6579252
0.6234299
0.5812617
0.5287068
0.4628651
0.3872225
0.2979251
0.4047025
0.2948985
0.4865739
0.4044307
0.2940581
0.549453
0.4875511
0.4055341
0.2954347
0.599353
0.5512636
0.4897417
0.4083515
0.2996536
0.6401802
0.601914
0.5543616
0.4936285
0.4135728
0.3083619
0.6744706
0.643464
0.6058447
0.5591941
0.4998009
0.4222807
0.3232412
0.7036349
0.6781211
0.6477727
0.6110397
0.5656303
0.5082527
0.4343311
0.3434998
0.7279686
0.7065725
0.6815248
0.6517834
0.6158637
0.5717054
0.5162937
0.4455893
0.362204
0.7482354
0.7299574
0.708833
0.6841291
0.6548325
0.6195954
0.5764646
0.5224864
0.4542255
0.3763908
0.7652621
0.7493919
0.7312418
0.710275
0.6857688
0.6567977
0.6220554
0.5795445
0.5264844
0.4597917
0.3822511
0.7797261
0.7657538
0.7499128
0.7317968
0.71087
0.6864709
0.657687
0.623141
0.5809027
0.5282468
0.4598924
0.3844802
0.3036964
0.4063363
0.2974997
0.4865739
0.4044307
0.2940581
0.5485629
0.4863829
0.4038971
0.2928169
0.5978078
0.5493103
0.4871765
0.4047483
0.2938093
0.6380085
0.599242
0.550984
0.4891904
0.4073235
0.2980658
0.6716695
0.6400914
0.6016969
0.5539512
0.4929095
0.4125699
0.3070666
0.7004881
0.6743987
0.6432924
0.6055302
0.5586659
0.4991083
0.4214711
0.3220133
0.7253974
0.7035772
0.6779861
0.6475314
0.6106469
0.5651367
0.5077136
0.4335899
0.3424249
0.7464654
0.727921
0.7064629
0.6813325
0.6514777
0.6154908
0.5713157
0.5157885
0.4449055
0.3612489
0.7642112
0.7481951
0.7298656
0.7086744
0.6838815
0.6545372
0.6192959
0.576091
0.522005
0.4535805
0.3721144
0.7792597
0.7652273
0.7493133
0.7311076
0.7100685
0.6855266
0.6565575
0.6217637
0.5791816
0.5260185
0.4567728
0.3794346
0.7921437
0.7796955
0.7656854
0.749797
0.7316206
0.7106662
0.6862721
0.6574505
0.6228541
0.580546
0.526023
0.4578554
0.3824023
0.3138049
0.409925
0.3032787
0.4877417
0.4060656
0.2966661
0.5485629
0.4863829
0.4038971
0.2928169
0.5971036
0.54842
0.4860075
0.4031082
0.2911786
0.636753
0.5976965
0.5490297
0.4866222
0.403711
0.292193
0.6698668
0.6379192
0.5990234
0.5505699
0.4884625
0.4063019
0.2967288
0.6981214
0.6715963
0.6399164
0.6013753
0.5534092
0.492195
0.4117265
0.3057557
0.7226984
0.7004276
0.6742569
0.643038
0.6051146
0.558141
0.4985263
0.4206544
0.3207707
0.7442319
0.7253481
0.7034635
0.6777861
0.6472126
0.6102567
0.5647253
0.5071743
0.4328482
0.3413475
0.7626571
0.7464242
0.7278272
0.7063004
0.6810784
0.651174
0.6151815
0.5709279
0.5152854
0.4442245
0.3566171
0.7783288
0.7641759
0.7481156
0.7297296
0.7084647
0.6836354
0.6542926
0.6189983
0.5757196
0.5215264
0.4504601
0.3691107
0.7917275
0.7792289
0.7651584
0.7491968
0.7309302
0.7098632
0.6853262
0.6563188
0.621474
0.578821
0.5237664
0.4546968
0.3772899
0.8032784
0.7921165
0.779635
0.7655838
0.7496439
0.7314454
0.7104975
0.6860746
0.6572155
0.6225691
0.5788226
0.5245026
0.456315
0.3810062
0.3295541
0.4161259
0.3134013
0.4903039
0.4096568
0.30246
0.549453
0.4875511
0.4055341
0.2954347
0.5971036
0.54842
0.4860075
0.4031082
0.2911786
0.6361809
0.5969923
0.5481391
0.485452
0.4020669
0.2895496
0.6688252
0.6366636
0.5974775
0.5486143
0.4858904
0.4026802
0.2908342
0.6965998
0.6697933
0.6377433
0.5986997
0.550023
0.4877391
0.4054443
0.2953783
0.7206711
0.69806
0.671452
0.639657
0.6009503
0.5528705
0.4915944
0.4108756
0.3044288
0.7418903
0.7226468
0.7003084
0.6740466
0.6427019
0.6047016
0.5577
0.4979396
0.4198305
0.3195132
0.7606982
0.7441893
0.7252509
0.7032949
0.6775218
0.6468958
0.6099316
0.564314
0.5066349
0.4321061
0.3360939
0.7769533
0.7626211
0.7463429
0.727688
0.7060856
0.6808258
0.650922
0.6148736
0.5705417
0.5147845
0.4409246
0.3531805
0.7908971
0.7782977
0.7641062
0.7479975
0.7295497
0.7082564
0.6834317
0.6540495
0.6187025
0.5753505
0.5192121
0.4482853
0.3667797
0.8029047
0.7917001
0.7791681
0.7650563
0.7490427
0.7307538
0.7096933
0.6851271
0.6560818
0.6211862
0.5770785
0.5222215
0.4531208
0.3758423
0.8133199
0.803254
0.7920626
0.7795452
0.7654495
0.7494917
0.7313005
0.7103301
0.6858785
0.6569822
0.621192
0.5776462
0.5233542
0.4552816
0.3803048
0.3501818
0.425695
0.3291762
0.494728
0.4158628
0.3126101
0.5514058
0.4901143
0.4091302
0.3012504
0.5978078
0.5493103
0.4871765
0.4047483
0.2938093
0.6361809
0.5969923
0.5481391
0.485452
0.4020669
0.2895496
0.6683508
0.6360915
0.5967731
0.5477231
0.4847186
0.4010321
0.288181
0.695721
0.6687517
0.6364875
0.5971532
0.5480656
0.4851633
0.401816
0.2894637
0.7193687
0.6965382
0.6696484
0.6374826
0.598272
0.5494796
0.4871322
0.4045805
0.2940142
0.7401334
0.7206188
0.6979388
0.671238
0.6393141
0.600528
0.5524179
0.4909888
0.4100172
0.303086
0.7586468
0.7418458
0.7225451
0.7001315
0.6737687
0.6423677
0.6043547
0.5572555
0.4973481
0.4189994
0.3133223
0.7752208
0.760661
0.7441052
0.7251067
0.703072
0.6772591
0.6466318
0.6096065
0.5639027
0.5060956
0.428494
0.3316012
0.7896708
0.7769215
0.76255
0.7462223
0.7275039
0.7058722
0.6806164
0.6506712
0.6145671
0.5701573
0.5123586
0.438519
0.3503395
0.8021593
0.7908694
0.7782361
0.7640027
0.7478414
0.7293709
0.7080838
0.6832292
0.653808
0.6184085
0.5735658
0.5176036
0.4466089
0.3651768
0.8129824
0.8028801
0.791646
0.7790778
0.7649212
0.7488895
0.7306079
0.7095246
0.6849294
0.6558464
0.6197955
0.5758851
0.5210502
0.4520596
0.3751125
0.822422
0.8132979
0.8032057
0.7919826
0.7794264
0.7653159
0.7493657
0.7311566
0.7101638
0.6856837
0.6558551
0.6202532
0.5767583
0.5225844
0.4547628
0.3692004
0.4382226
0.349845
0.5015634
0.4254424
0.3284349
0.5547796
0.4945409
0.415346
0.3114409
0.599353
0.5512636
0.4897417
0.4083515
0.2996536
0.636753
0.5976965
0.5490297
0.4866222
0.403711
0.292193
0.6683508
0.6360915
0.5967731
0.5477231
0.4847186
0.4010321
0.288181
0.6953209
0.6682773
0.6359154
0.5964486
0.5471739
0.4839899
0.4001651
0.2868017
0.7186169
0.6956595
0.6686068
0.6362265
0.5967247
0.5475205
0.484554
0.4009467
0.2880816
0.7390055
0.7193163
0.6964167
0.6694337
0.6371381
0.5978469
0.5490238
0.4865212
0.4037105
0.2926364
0.7571091
0.7400883
0.7205155
0.6977591
0.6709551
0.6389733
0.6001732
0.5519615
0.4903782
0.409151
0.2964755
0.7734084
0.758608
0.7417579
0.7223941
0.6998976
0.6734923
0.642087
0.604005
0.5568075
0.4967517
0.4149203
0.3066986
0.7881275
0.7751881
0.7605875
0.7439804
0.7249161
0.7028504
0.6770402
0.6463679
0.6092815
0.5634914
0.5034714
0.4255194
0.3272283
0.801059
0.7896426
0.7768587
0.7624444
0.7460628
0.727321
0.7056951
0.6804079
0.6504216
0.6142621
0.5682961
0.5105972
0.4365637
0.3482496
0.8123096
0.8021344
0.7908146
0.7781447
0.7638659
0.7476862
0.7292228
0.7079124
0.683028
0.653568
0.6169876
0.5723276
0.516366
0.445463
0.364357
0.8221157
0.8129603
0.8028316
0.7915655
0.7789583
0.7647868
0.7487628
0.730463
0.709357
0.6847331
0.6547092
0.6188443
0.574981
0.5202622
0.4515255
0.8307105
0.822402
0.8132544
0.803134
0.7918767
0.7793082
0.7652054
0.7492406
0.7310137
0.7099986
0.6847431
0.6550873
0.619545
0.5761635
0.5221982
0.3837865
0.449909
0.3688951
0.5105466
0.4379892
0.3491845
0.5600012
0.501382
0.4249462
0.3273394
0.6020242
0.5546388
0.494173
0.4145818
0.3098971
0.6380085
0.599242
0.550984
0.4891904
0.4073235
0.2980658
0.6688252
0.6366636
0.5974775
0.5486143
0.4858904
0.4026802
0.2908342
0.6953209
0.6682773
0.6359154
0.5964486
0.5471739
0.4839899
0.4001651
0.2868017
0.7182746
0.6952593
0.6681324
0.6356544
0.5960198
0.5466281
0.4833797
0.3992936
0.2854117
0.7383547
0.7185645
0.695538
0.668392
0.6358817
0.5962988
0.5470638
0.4839414
0.4000724
0.2866877
0.7561225
0.7389604
0.7192128
0.6962365
0.6691498
0.6367957
0.5974904
0.548565
0.4859062
0.4028343
0.2858675
0.7720509
0.7570698
0.7399993
0.7203623
0.6975215
0.6706739
0.6386871
0.5998156
0.5515015
0.4897625
0.4049
0.2895089
0.7865142
0.7733742
0.7585313
0.7416275
0.7221944
0.699665
0.6732603
0.6418042
0.6036527
0.5563559
0.4938263
0.4108013
0.2983542
0.7996753
0.7880984
0.7751233
0.7604785
0.7438154
0.7247266
0.7026658
0.6768215
0.6461042
0.6089566
0.5614911
0.5013229
0.4227211
0.3233193
0.8113169
0.8010337
0.7895868
0.7767656
0.7623048
0.7459042
0.7271693
0.7055189
0.6802005
0.6501733
0.6127854
0.5669471
0.5091695
0.4351479
0.3471129
0.8215053
0.8122872
0.8020854
0.7907333
0.7780238
0.7637299
0.7475577
0.7290757
0.7077421
0.6828281
0.6524081
0.616003
0.5713756
0.5155211
0.4448793
0.8304314
0.8220957
0.8129166
0.8027595
0.7914591
0.7788395
0.7646756
0.7486369
0.7303191
0.7091907
0.6837847
0.6539319
0.618124
0.5743732
0.5198659
0.8382898
0.8306924
0.8223626
0.8131897
0.803039
0.7917714
0.7792104
0.7650957
0.7491165
0.7308718
0.7092011
0.6841029
0.6545085
0.6190708
0.5758652
0.393397
0.4589876
0.383502
0.5189692
0.4496909
0.3682965
0.5668868
0.510377
0.4375311
0.3482087
0.6061648
0.559864
0.5010255
0.4242125
0.3258929
0.6401802
0.601914
0.5543616
0.4936285
0.4135728
0.3083619
0.6698668
0.6379192
0.5990234
0.5505699
0.4884625
0.4063019
0.2967288
0.695721
0.6687517
0.6364875
0.5971532
0.5480656
0.4851633
0.401816
0.2894637
0.7182746
0.6952593
0.6681324
0.6356544
0.5960198
0.5466281
0.4833797
0.3992936
0.2854117
0.7380585
0.7182222
0.6951379
0.6679176
0.6353096
0.5955938
0.5461711
0.4827666
0.3984176
0.2840108
0.7555535
0.7383096
0.7184612
0.6953579
0.6681081
0.635539
0.5959422
0.5466048
0.4833256
0.3991931
0.2798499
0.7711804
0.7560832
0.7388712
0.7190594
0.6959983
0.6688676
0.6365085
0.5971317
0.5481033
0.4852871
0.3985417
0.2790671
0.7853068
0.7720163
0.7569922
0.7398671
0.7201597
0.6972852
0.6704376
0.6383985
0.5994551
0.5510377
0.486742
0.4006578
0.2810693
0.79823
0.7864839
0.7733067
0.7584174
0.7414549
0.7219958
0.6994697
0.6730264
0.6415192
0.6032975
0.5541411
0.4908925
0.4058362
0.2875345
0.8100691
0.7996493
0.7880408
0.7750272
0.7603342
0.7436514
0.7245687
0.7024813
0.6766028
0.6458405
0.6073765
0.5598562
0.4993108
0.4202954
0.3206135
0.8206051
0.8112941
0.8009838
0.7895039
0.7766423
0.7621659
0.7457727
0.7270184
0.7053437
0.6799941
0.648971
0.6117163
0.5658547
0.5081382
0.4343873
0.8298752
0.8214851
0.812243
0.8020125
0.7906257
0.7779036
0.7636173
0.7474301
0.7289296
0.7075729
0.6818622
0.6516051
0.6152464
0.5707262
0.5150911
0.8380343
0.8304132
0.8220561
0.8128516
0.8026641
0.7913532
0.7787412
0.7645652
0.7485119
0.7301762
0.708387
0.683137
0.6533437
0.61764
0.5740676
0.8452467
0.8382732
0.8306565
0.822304
0.8131041
0.8029446
0.7916843
0.7791134
0.7649868
0.7489932
0.7301866
0.7086586
0.6836203
0.654121
0.618833
0.3981272
0.4650313
0.393125
0.5255418
0.4587798
0.3829439
0.5733704
0.5188088
0.4492627
0.3674121
0.6116397
0.5667576
0.5100437
0.4368539
0.346921
0.6435511
0.606057
0.559594
0.5004978
0.4232436
0.3244545
0.6716695
0.6400914
0.6016969
0.5539512
0.4929095
0.4125699
0.3070666
0.6965998
0.6697933
0.6377433
0.5986997
0.550023
0.4877391
0.4054443
0.2953783
0.7186169
0.6956595
0.6686068
0.6362265
0.5967247
0.5475205
0.484554
0.4009467
0.2880816
0.7380585
0.7182222
0.6951379
0.6679176
0.6353096
0.5955938
0.5461711
0.4827666
0.3984176
0.2840108
0.7552944
0.7380134
0.718119
0.6949579
0.6676338
0.6349669
0.5952372
0.5457122
0.4821507
0.397537
0.2771436
0.7706785
0.7555142
0.7382206
0.7183079
0.6951198
0.6678259
0.6352521
0.5955838
0.5461435
0.4827065
0.3948906
0.2732096
0.784533
0.7711459
0.7560055
0.7387389
0.7188565
0.6957615
0.668631
0.6362197
0.5967708
0.5476386
0.4822555
0.3944397
0.2711934
0.797149
0.7852762
0.771948
0.7568769
0.7396922
0.7199583
0.6970868
0.6701996
0.6381078
0.5990917
0.5487632
0.4837438
0.3957261
0.2709891
0.8087668
0.7982029
0.786424
0.7732064
0.7582668
0.7412833
0.7218291
0.699273
0.6727908
0.641232
0.6015561
0.5519225
0.4873747
0.3996248
0.2727669
0.8194743
0.8100457
0.7995978
0.7879554
0.7748999
0.7601908
0.7435147
0.7244109
0.702297
0.6763843
0.6445584
0.6060863
0.5583266
0.4975737
0.4186593
0.8290551
0.8205845
0.8112492
0.8009096
0.7893942
0.7765197
0.7620508
0.7456418
0.7268682
0.7051693
0.678995
0.6481014
0.610851
0.5650662
0.507585
0.8375254
0.8298568
0.8214451
0.8121774
0.8019161
0.7905186
0.7778041
0.7635054
0.7473033
0.7287845
0.7067554
0.681194
0.6509883
0.6147304
0.5703959
0.845012
0.8380177
0.8303771
0.8219972
0.8127656
0.8025692
0.7912657
0.7786435
0.7644556
0.7483878
0.7294861
0.7078385
0.682647
0.6529486
0.6173967
0.8516544
0.8452315
0.8382404
0.8306031
0.8222264
0.8130189
0.8028665
0.7915978
0.779017
0.7648786
0.7483979
0.7297208
0.7082498
0.6832974
0.6539267
0.4680258
0.397861
0.5299319
0.4648299
0.3925914
0.5784492
0.5253877
0.4583717
0.3821194
0.6168125
0.5732474
0.5184937
0.4486297
0.3662454
0.6480183
0.6115378
0.5665034
0.5095505
0.4359599
0.3456413
0.6744706
0.643464
0.6058447
0.5591941
0.4998009
0.4222807
0.3232412
0.6981214
0.6715963
0.6399164
0.6013753
0.5534092
0.492195
0.4117265
0.3057557
0.7193687
0.6965382
0.6696484
0.6374826
0.598272
0.5494796
0.4871322
0.4045805
0.2940142
0.7383547
0.7185645
0.695538
0.668392
0.6358817
0.5962988
0.5470638
0.4839414
0.4000724
0.2866877
0.7552944
0.7380134
0.718119
0.6949579
0.6676338
0.6349669
0.5952372
0.5457122
0.4821507
0.397537
0.2771436
0.77045
0.7552552
0.7379244
0.7179658
0.6947199
0.6673516
0.63468
0.594879
0.5452512
0.4815319
0.3932314
0.2705792
0.7840868
0.770644
0.7554366
0.7380885
0.7181051
0.6948831
0.6675896
0.6349637
0.5952237
0.5456798
0.479679
0.3909047
0.2657348
0.7964564
0.7845023
0.7710776
0.7558902
0.7385639
0.7186547
0.6955629
0.668393
0.635929
0.5964076
0.5453639
0.4793705
0.389877
0.2622371
0.8077932
0.7971216
0.7852156
0.7718466
0.7567243
0.7395183
0.7197891
0.6968868
0.6699597
0.6378147
0.5973098
0.5465072
0.4802722
0.3900342
0.2591317
0.8182946
0.8087424
0.7981494
0.786335
0.7730737
0.7581169
0.7411392
0.7216611
0.6990747
0.6725534
0.6398237
0.599812
0.5492649
0.4829971
0.3913894
0.2480598
0.8280255
0.8194531
0.8099995
0.7995214
0.7878424
0.7747734
0.7600713
0.7433782
0.7242532
0.7021127
0.6753216
0.643512
0.6048795
0.5570072
0.4964056
0.8367753
0.8290364
0.8205439
0.8111824
0.8008114
0.7892851
0.776418
0.7619363
0.7455117
0.7267188
0.7043251
0.6782728
0.6473978
0.6102267
0.5646433
0.8445446
0.8375086
0.8298204
0.8213856
0.8120905
0.8018202
0.79043
0.7777052
0.7633943
0.7471773
0.7280832
0.7061902
0.6806809
0.6505678
0.6144681
0.8514381
0.8449968
0.8379847
0.8303235
0.8219192
0.81268
0.8024906
0.7911787
0.7785466
0.7643468
0.7477885
0.7290153
0.7074237
0.682318
0.65275
0.8575749
0.8516404
0.8452014
0.8381916
0.8305325
0.8221492
0.8129484
0.8027889
0.791512
0.7789214
0.7643565
0.7479934
0.7293698
0.7079763
0.6831355
0.5321119
0.4678273
0.3973388
0.5818512
0.5297816
0.4644343
0.3918029
0.620877
0.5783304
0.5250847
0.4577685
0.3810316
0.6522503
0.616715
0.5730055
0.5180275
0.4477944
0.3650863
0.6781895
0.6479356
0.611337
0.5661272
0.5088995
0.4350719
0.3445719
0.7004881
0.6743987
0.6432924
0.6055302
0.5586659
0.4991083
0.4214711
0.3220133
0.7206711
0.69806
0.671452
0.639657
0.6009503
0.5528705
0.4915944
0.4108756
0.3044288
0.7390055
0.7193163
0.6964167
0.6694337
0.6371381
0.5978469
0.5490238
0.4865212
0.4037105
0.2926364
0.7555535
0.7383096
0.7184612
0.6953579
0.6681081
0.635539
0.5959422
0.5466048
0.4833256
0.3991931
0.2798499
0.77045
0.7552552
0.7379244
0.7179658
0.6947199
0.6673516
0.63468
0.594879
0.5452512
0.4815319
0.3932314
0.2705792
0.7838838
0.7704156
0.7551777
0.7377924
0.7177632
0.6944833
0.6671155
0.634392
0.5945194
0.5447882
0.4785074
0.3892998
0.2632833
0.7960572
0.7840563
0.7705758
0.7553215
0.7379137
0.7179036
0.6946849
0.6673521
0.634674
0.5948617
0.5434129
0.4768839
0.3865915
0.2574329
0.8071698
0.7964291
0.7844418
0.7709761
0.7557376
0.7383899
0.7184856
0.6953632
0.6681535
0.6356366
0.5946298
0.5432004
0.4761708
0.3848653
0.2522353
0.8174133
0.8077687
0.7970675
0.7851256
0.7717123
0.7565726
0.7393722
0.7196186
0.6966852
0.6697179
0.6363776
0.5955425
0.5438964
0.476281
0.3835367
0.2436262
0.826952
0.8182727
0.8086943
0.7980698
0.7862172
0.7729417
0.7579911
0.7409941
0.7214919
0.6988749
0.6713892
0.6384133
0.5977233
0.5459628
0.4772248
0.3779129
0.2344651
0.835834
0.8280063
0.8194113
0.8099307
0.7994203
0.7877299
0.774668
0.7599519
0.7432417
0.7240956
0.7012167
0.6744547
0.6425335
0.6038388
0.5561204
0.843856
0.8367583
0.8289994
0.8204834
0.8110939
0.8007137
0.7891947
0.7763169
0.7618223
0.7453822
0.7259957
0.7037153
0.6776887
0.6468902
0.6098919
0.8510074
0.8445292
0.8374753
0.8297663
0.8213069
0.812004
0.8017408
0.790342
0.777607
0.763284
0.7465688
0.7275985
0.7057563
0.6803312
0.650354
0.857375
0.8514241
0.8449666
0.8379358
0.8302526
0.8218417
0.8126092
0.8024127
0.7910924
0.7784504
0.7638213
0.7473799
0.7286594
0.7071452
0.6821526
0.8630612
0.857562
0.8516127
0.8451566
0.838127
0.8304622
0.8220853
0.8128785
0.802712
0.7914268
0.7784596
0.7640018
0.7476887
0.7291351
0.7078393
0.5835439
0.5319635
0.4674377
0.3965673
0.6236058
0.581735
0.5294862
0.4638494
0.3907626
0.6555837
0.6207824
0.5780967
0.5246366
0.4569725
0.3799511
0.6817204
0.652171
0.6165231
0.5726475
0.5174122
0.4469647
0.3641228
0.7036349
0.6781211
0.6477727
0.6110397
0.5656303
0.5082527
0.4343311
0.3434998
0.7226984
0.7004276
0.6742569
0.643038
0.6051146
0.558141
0.4985263
0.4206544
0.3207707
0.7401334
0.7206188
0.6979388
0.671238
0.6393141
0.600528
0.5524179
0.4909888
0.4100172
0.303086
0.7561225
0.7389604
0.7192128
0.6962365
0.6691498
0.6367957
0.5974904
0.548565
0.4859062
0.4028343
0.2858675
0.7706785
0.7555142
0.7382206
0.7183079
0.6951198
0.6678259
0.6352521
0.5955838
0.5461435
0.4827065
0.3948906
0.2732096
0.7838838
0.7704156
0.7551777
0.7377924
0.7177632
0.6944833
0.6671155
0.634392
0.5945194
0.5447882
0.4785074
0.3892998
0.2632833
0.7958756
0.7838533
0.7703475
0.7550627
0.7376178
0.7175618
0.6942853
0.6668785
0.6341028
0.5941582
0.5425257
0.475754
0.3850975
0.2552599
0.8068105
0.79603
0.7839959
0.7704746
0.7551692
0.7377399
0.7177348
0.6944858
0.6671136
0.6343829
0.5930926
0.5413211
0.4738658
0.3819685
0.2483347
0.816849
0.8071452
0.7963751
0.7843519
0.7708419
0.7555859
0.738244
0.7183154
0.6951622
0.6679126
0.6342054
0.5929391
0.5408016
0.4726662
0.3794453
0.2397038
0.8261504
0.8173911
0.8077201
0.7969872
0.7850065
0.7715788
0.7564452
0.7392251
0.7194468
0.6964822
0.6685325
0.6349521
0.5934974
0.5408982
0.4717425
0.375273
0.2325402
0.834853
0.8269321
0.8182292
0.8086228
0.7979645
0.7860999
0.7728308
0.7578644
0.7408478
0.7213213
0.6978955
0.6702233
0.6367242
0.59513
0.5416187
0.4678313
0.3701204
0.2241422
0.8429921
0.8358164
0.8279683
0.8193491
0.8098397
0.7993197
0.7876363
0.7745627
0.7598326
0.7431053
0.7233295
0.7004861
0.6736441
0.6416897
0.6031394
0.850373
0.8438404
0.8367245
0.8289444
0.8204033
0.8110059
0.8006328
0.7891048
0.7762163
0.761709
0.7447555
0.7254735
0.703222
0.6772673
0.646618
0.8569769
0.8509932
0.8444987
0.8374259
0.8296946
0.8212286
0.8119324
0.8016619
0.7902546
0.7775095
0.7627508
0.7461484
0.7272265
0.7054606
0.6801534
0.8628758
0.857362
0.8513963
0.8449216
0.8378709
0.8301819
0.8217775
0.8125389
0.8023353
0.7910067
0.7779858
0.7634631
0.747071
0.7284204
0.7070052
0.8681586
0.8630492
0.8575364
0.8515715
0.8450974
0.8380627
0.830404
0.8220219
0.8128091
0.8026356
0.7910154
0.778146
0.7637347
0.7474849
0.7290174
0.6249657
0.5834289
0.5316717
0.4668616
0.3955493
0.6578259
0.6235131
0.5815064
0.5290493
0.4630776
0.3897293
0.6845071
0.6555066
0.6205964
0.5777508
0.5240451
0.4561818
0.3790545
0.7066281
0.6816546
0.6520148
0.616239
0.5721749
0.516801
0.4462757
0.363162
0.7253974
0.7035772
0.6779861
0.6475314
0.6106469
0.5651367
0.5077136
0.4335899
0.3424249
0.7418903
0.7226468
0.7003084
0.6740466
0.6427019
0.6047016
0.5577
0.4979396
0.4198305
0.3195132
0.7571091
0.7400883
0.7205155
0.6977591
0.6709551
0.6389733
0.6001732
0.5519615
0.4903782
0.409151
0.2964755
0.7711804
0.7560832
0.7388712
0.7190594
0.6959983
0.6688676
0.6365085
0.5971317
0.5481033
0.4852871
0.3985417
0.2790671
0.7840868
0.770644
0.7554366
0.7380885
0.7181051
0.6948831
0.6675896
0.6349637
0.5952237
0.5456798
0.479679
0.3909047
0.2657348
0.7958756
0.7838533
0.7703475
0.7550627
0.7376178
0.7175618
0.6942853
0.6668785
0.6341028
0.5941582
0.5425257
0.475754
0.3850975
0.2552599
0.8066471
0.7958484
0.783793
0.7702464
0.7549105
0.7374441
0.7173932
0.6940866
0.6666405
0.6338125
0.5923936
0.5404671
0.4728166
0.380639
0.2465276
0.816524
0.806786
0.7959761
0.7839062
0.7703406
0.7550177
0.7375944
0.7175653
0.6942858
0.666874
0.6329601
0.5914602
0.5390625
0.4706379
0.3770685
0.2370484
0.8256373
0.8168269
0.8070967
0.7962948
0.7842329
0.7707084
0.7554587
0.7380972
0.7181443
0.6949601
0.6667336
0.6328442
0.5910644
0.5381759
0.4688863
0.3728629
0.2302987
0.8341207
0.8261303
0.8173472
0.8076479
0.7968808
0.7848881
0.7714666
0.7563169
0.7390768
0.7192737
0.6954866
0.6673565
0.6333026
0.5911501
0.5374941
0.4659908
0.3688665
0.2231787
0.8420922
0.8348348
0.8268926
0.8181645
0.8085281
0.7978597
0.7860015
0.7727192
0.7577366
0.7407004
0.7204852
0.6969145
0.668827
0.6346283
0.5917232
0.5345707
0.4624306
0.3638297
0.2160394
0.8495775
0.842976
0.8357818
0.8279118
0.8192668
0.8097492
0.7992359
0.7875427
0.7744575
0.7597134
0.7424423
0.7227048
0.6998028
0.6729451
0.6411226
0.8563906
0.8503587
0.8438094
0.8366742
0.8288716
0.8203237
0.810933
0.8005522
0.7890153
0.7761162
0.7611605
0.7443031
0.7250512
0.7028663
0.6770413
0.8625068
0.8569638
0.8509652
0.8444534
0.8373604
0.8296233
0.8211637
0.8118614
0.8015836
0.7901678
0.7770384
0.7623826
0.7458259
0.7269731
0.7053103
0.8679863
0.8628638
0.8573363
0.8513549
0.8448621
0.8378063
0.8301235
0.8217138
0.8124691
0.8022585
0.7905928
0.7776692
0.7631924
0.7468636
0.7283004
0.8729064
0.8681475
0.8630255
0.8574984
0.8515169
0.8450383
0.8380096
0.8303463
0.821959
0.8127402
0.8022667
0.790736
0.7779098
0.763556
0.7473828
0.6589447
0.6248739
0.5832027
0.5312401
0.4661014
0.3945381
0.6863843
0.6577502
0.6233307
0.581168
0.5284725
0.462311
0.3888725
0.7089942
0.6844429
0.6553547
0.6203208
0.5772941
0.5234575
0.4555262
0.3781623
0.7279686
0.7065725
0.6815248
0.6517834
0.6158637
0.5717054
0.5162937
0.4455893
0.362204
0.7442319
0.7253481
0.7034635
0.6777861
0.6472126
0.6102567
0.5647253
0.5071743
0.4328482
0.3413475
0.7586468
0.7418458
0.7225451
0.7001315
0.6737687
0.6423677
0.6043547
0.5572555
0.4973481
0.4189994
0.3133223
0.7720509
0.7570698
0.7399993
0.7203623
0.6975215
0.6706739
0.6386871
0.5998156
0.5515015
0.4897625
0.4049
0.2895089
0.784533
0.7711459
0.7560055
0.7387389
0.7188565
0.6957615
0.668631
0.6362197
0.5967708
0.5476386
0.4822555
0.3944397
0.2711934
0.7960572
0.7840563
0.7705758
0.7553215
0.7379137
0.7179036
0.6946849
0.6673521
0.634674
0.5948617
0.5434129
0.4768839
0.3865915
0.2574329
0.8066471
0.7958484
0.783793
0.7702464
0.7549105
0.7374441
0.7173932
0.6940866
0.6666405
0.6338125
0.5923936
0.5404671
0.4728166
0.380639
0.2465276
0.8163761
0.8066226
0.7957946
0.7837034
0.7701126
0.7547592
0.7372988
0.7172241
0.693887
0.6664015
0.6323939
0.5907882
0.5382709
0.4697057
0.3759484
0.2357292
0.8253418
0.8165019
0.8067376
0.795896
0.7837874
0.7702074
0.7548909
0.7374482
0.717395
0.6940848
0.6657028
0.6316473
0.5896975
0.536648
0.4672233
0.3711861
0.2285588
0.8336522
0.8256173
0.8167831
0.8070246
0.7961885
0.7841145
0.7705965
0.7553308
0.7379496
0.7179722
0.693971
0.6656123
0.6313347
0.5890129
0.5353467
0.4643067
0.3673795
0.2218844
0.8414208
0.8341024
0.8260904
0.817282
0.8075523
0.7967749
0.7847886
0.7713536
0.7561875
0.7389274
0.718425
0.6944988
0.6659956
0.6314099
0.5884876
0.5331885
0.4615447
0.3630944
0.2154808
0.8487491
0.8420756
0.8347988
0.8268339
0.8180789
0.8084339
0.7977717
0.7859024
0.7726066
0.757608
0.739978
0.7196478
0.6957397
0.667095
0.6318775
0.5862075
0.5305385
0.4580757
0.3586186
0.2096441
0.8556557
0.8495627
0.8429443
0.8357302
0.8278369
0.8191848
0.8096738
0.7991522
0.7874492
0.7743524
0.7591338
0.7419019
0.7221207
0.6992138
0.6724753
0.8619634
0.8563773
0.8503302
0.8437634
0.8366077
0.8287992
0.8202576
0.8108605
0.8004721
0.7889263
0.775632
0.7607646
0.7439373
0.7247467
0.7026756
0.8676433
0.8624946
0.8569379
0.8509235
0.8443933
0.8372953
0.8295643
0.8210993
0.8117908
0.8015058
0.7897484
0.7767131
0.7621001
0.7456061
0.7268443
0.8727459
0.8679752
0.86284
0.8572981
0.8513001
0.8448028
0.8377529
0.8300655
0.8216506
0.8123998
0.8018875
0.7903109
0.7774299
0.7630107
0.7467594
0.8773386
0.8728961
0.8681255
0.8629903
0.8574479
0.8514625
0.8449895
0.8379568
0.830289
0.8218965
0.8124075
0.8020162
0.7905257
0.7777519
0.7634665
0.6873219
0.6588695
0.6246931
0.5828679
0.5306704
0.4653463
0.3936996
0.7105901
0.6863212
0.657601
0.6230604
0.5807212
0.5278996
0.4616757
0.3880202
0.7300039
0.7089399
0.6843165
0.6551298
0.6199569
0.5768405
0.5229706
0.4548741
0.3772744
0.7464654
0.727921
0.7064629
0.6813325
0.6514777
0.6154908
0.5713157
0.5157885
0.4449055
0.3612489
0.7606982
0.7441893
0.7252509
0.7032949
0.6775218
0.6468958
0.6099316
0.564314
0.5066349
0.4321061
0.3360939
0.7734084
0.758608
0.7417579
0.7223941
0.6998976
0.6734923
0.642087
0.604005
0.5568075
0.4967517
0.4149203
0.3066986
0.7853068
0.7720163
0.7569922
0.7398671
0.7201597
0.6972852
0.6704376
0.6383985
0.5994551
0.5510377
0.486742
0.4006578
0.2810693
0.7964564
0.7845023
0.7710776
0.7558902
0.7385639
0.7186547
0.6955629
0.668393
0.635929
0.5964076
0.5453639
0.4793705
0.389877
0.2622371
0.8068105
0.79603
0.7839959
0.7704746
0.7551692
0.7377399
0.7177348
0.6944858
0.6671136
0.6343829
0.5930926
0.5413211
0.4738658
0.3819685
0.2483347
0.8163761
0.8066226
0.7957946
0.7837034
0.7701126
0.7547592
0.7372988
0.7172241
0.693887
0.6664015
0.6323939
0.5907882
0.5382709
0.4697057
0.3759484
0.2357292
0.8252074
0.8163541
0.8065743
0.7957146
0.7835848
0.7699795
0.7546326
0.737153
0.7170542
0.6936867
0.6652343
0.6311035
0.5890752
0.5359455
0.4664381
0.3703385
0.2276368
0.8333824
0.8253218
0.8164582
0.8066657
0.79579
0.7836693
0.7700959
0.7547635
0.7373014
0.717224
0.6931029
0.6646222
0.6302294
0.5878132
0.5340952
0.4631313
0.3662025
0.2207832
0.8409913
0.8336339
0.8255775
0.816718
0.8069291
0.7960828
0.7840153
0.770484
0.7552021
0.7378011
0.7171297
0.6930302
0.6643686
0.6296832
0.5868036
0.531923
0.4604931
0.3621157
0.2146871
0.8481313
0.841404
0.8340661
0.8260312
0.8171956
0.8074571
0.7966861
0.7846883
0.7712398
0.7560572
0.7381949
0.7175829
0.6933556
0.6644346
0.6292646
0.5851245
0.5298691
0.457542
0.3580961
0.20927
0.8548907
0.8487338
0.8420426
0.8347452
0.8267561
0.8179937
0.8083547
0.7976831
0.7858025
0.7724933
0.7569772
0.7392543
0.7186449
0.6942829
0.6648237
0.6274313
0.5830629
0.5272952
0.4544721
0.3543312
0.2046658
0.8612825
0.8556421
0.8495335
0.842897
0.8356618
0.8277624
0.8191166
0.8095984
0.7990685
0.7873557
0.7738413
0.7586614
0.7413965
0.7216171
0.6988178
0.8671384
0.8619512
0.8563511
0.8502878
0.8437024
0.8365415
0.8287391
0.8201919
0.8107883
0.8003924
0.7884955
0.7752826
0.7604446
0.7436736