/*--------------------------------*- C++ -*----------------------------------*\
| =========                 |                                                 |
| \\      /  F ield         | OpenFOAM: The Open Source CFD Toolbox           |
|  \\    /   O peration     | Version:  2306                                  |
|   \\  /    A nd           | Website:  www.openfoam.com                      |
|    \\/     M anipulation  |                                                 |
\*---------------------------------------------------------------------------*/
FoamFile
{
    version     2.0;
    format      ascii;
    arch        "LSB;label=32;scalar=64";
    class       volScalarField;
    location    "1.5/fuel";
    object      iDmdtfuel.H2;
}
// * * * * * * * * * * * * * * * * * * * * * * * * * * * * * * * * * * * * * //

dimensions      [1 -3 -1 0 0 0 0];

internalField   nonuniform List<scalar> 
16000
(
-9.856898
-9.94276
-8.992186
-9.46145
-10.11651
-9.046333
-9.541583
-8.258836
-8.653127
-9.181663
-10.37898
-9.15291
-9.703638
-8.299579
-8.703904
-9.257958
-7.670528
-7.965076
-8.411272
-9.009703
-10.72161
-9.306188
-9.948225
-8.378781
-8.803805
-9.412224
-7.703664
-8.003441
-8.459738
-9.083861
-7.181443
-7.411368
-7.754303
-8.260527
-8.935277
-11.09266
-9.491812
-10.26715
-8.490177
-8.947387
-9.645015
-7.767618
-8.077989
-8.555073
-9.233847
-7.209498
-7.442673
-7.791012
-8.307639
-9.008763
-6.761269
-6.949802
-7.224664
-7.621674
-8.192902
-0
-11.37612
-9.672712
-10.61209
-8.620211
-9.121135
-9.948587
-7.856427
-8.182779
-8.692059
-9.460311
-7.263394
-7.503069
-7.862326
-8.400316
-9.157487
-6.785606
-6.976381
-7.254683
-7.657385
-8.239489
-0
-6.392664
-6.552315
-6.78242
-7.106449
-7.56091
-0
-0
-11.55788
-9.795478
-10.87472
-8.739734
-9.290301
-10.277
-7.957855
-8.305015
-8.857799
-9.756007
-7.337629
-7.586893
-7.962542
-8.533508
-9.382333
-6.832209
-7.027423
-7.312584
-7.726758
-8.331159
-0
-6.414144
-6.575429
-6.807956
-7.13568
-7.596197
-0
-0
-6.064043
-6.202853
-6.400969
-6.675976
-7.051637
-0
-0
-0
-11.66266
-9.864313
-11.04264
-8.81394
-9.404814
-10.52643
-8.047777
-8.417264
-9.01914
-10.0765
-7.421203
-7.682557
-8.079407
-8.694739
-9.676611
-6.896032
-7.097688
-7.392919
-7.824247
-8.462979
-0
-6.455177
-6.619673
-6.856983
-7.192057
-7.664757
-0
-0
-6.083239
-6.223298
-6.423215
-6.700867
-7.08052
-0
-0
-0
-5.767697
-5.890672
-6.065106
-6.304411
-6.626257
-0
-0
-0
-0
-11.71025
-9.899516
-11.13924
-8.849921
-9.468887
-10.68562
-8.1004
-8.486784
-9.128091
-10.31954
-7.493535
-7.767279
-8.186669
-8.851796
-9.996612
-6.967153
-7.176733
-7.484563
-7.937949
-8.622724
-0
-6.511132
-6.680233
-6.924452
-7.270272
-7.76113
-0
-0
-6.119839
-6.262339
-6.465786
-6.748651
-7.13623
-0
-0
-0
-5.785021
-5.90898
-6.084814
-6.326115
-6.650856
-0
-0
-0
-0
-5.497948
-5.608627
-5.764652
-5.977002
-6.259088
-0
-0
-0
-0
-0
-11.71025
-9.914208
-11.18307
-8.865015
-9.501612
-10.77712
-8.123065
-8.52041
-9.188954
-10.47456
-7.534198
-7.81673
-8.252917
-8.957612
-10.23917
-7.027652
-7.245064
-7.565661
-8.042311
-8.778542
-0
-6.573005
-6.747663
-7.000313
-7.359492
-7.873592
-0
-0
-6.169585
-6.315551
-6.524035
-6.814401
-7.213528
-0
-0
-0
-5.818003
-5.943873
-6.122439
-6.367647
-6.698083
-0
-0
-0
-0
-5.513704
-5.625179
-5.782325
-5.996249
-6.280546
-0
-0
-0
-0
-0
-5.25062
-5.351446
-5.492841
-5.683885
-5.935509
-0
-0
-0
-0
-0
-0
-11.66266
-9.914208
-11.18307
-8.870143
-9.515262
-10.81861
-8.130605
-8.534482
-9.220026
-10.56367
-7.550162
-7.837957
-8.284878
-9.016665
-10.39395
-7.060686
-7.28337
-7.612847
-8.106571
-8.883308
-0
-6.624956
-6.804948
-7.065825
-7.438412
-7.976857
-0
-0
-6.224254
-6.374342
-6.588858
-6.888315
-7.301727
-0
-0
-0
-5.86271
-5.991274
-6.173701
-6.424466
-6.763069
-0
-0
-0
-0
-5.543666
-5.656681
-5.816001
-6.032988
-6.321605
-0
-0
-0
-0
-0
-5.265043
-5.366526
-5.508841
-5.70116
-5.954544
-0
-0
-0
-0
-0
-0
-5.022461
-5.115256
-5.244681
-5.41851
-5.645758
-0
-0
-0
-0
-0
-0
-0
-11.55788
-9.899516
-11.13924
-8.870143
-9.515262
-10.81861
-8.132312
-8.539251
-9.232987
-10.60409
-7.554262
-7.844978
-8.298226
-9.046825
-10.48303
-7.072716
-7.298341
-7.633023
-8.137497
-8.941745
-0
-6.652696
-6.836134
-7.102425
-7.484163
-8.040233
-0
-0
-6.269683
-6.423635
-6.643864
-6.952101
-7.379729
-0
-0
-0
-5.911597
-6.043323
-6.230305
-6.487679
-6.836133
-0
-0
-0
-0
-5.584188
-5.699359
-5.861731
-6.083037
-6.37778
-0
-0
-0
-0
-0
-5.292444
-5.395192
-5.539284
-5.734073
-5.990879
-0
-0
-0
-0
-0
-0
-5.035735
-5.129082
-5.259276
-5.434162
-5.662848
-0
-0
-0
-0
-0
-0
-0
-4.810917
-4.897035
-5.016504
-5.176047
-5.383362
-0
-0
-0
-0
-0
-0
-0
-0
-11.37612
-9.864313
-11.04264
-8.865015
-9.501612
-10.77712
-8.132312
-8.539251
-9.232987
-10.60409
-7.554527
-7.846548
-8.302743
-9.059419
-10.52348
-7.075001
-7.30214
-7.639655
-8.150395
-8.97163
-0
-6.662184
-6.847428
-7.116652
-7.503642
-8.070658
-0
-0
-6.293506
-6.449874
-6.673698
-6.98759
-7.42476
-0
-0
-0
-5.95188
-6.086512
-6.277705
-6.541272
-6.899152
-0
-0
-0
-0
-5.628313
-5.745988
-5.911916
-6.138284
-6.440277
-0
-0
-0
-0
-0
-5.329432
-5.43394
-5.580513
-5.778759
-6.040376
-0
-0
-0
-0
-0
-0
-5.060935
-5.155338
-5.287013
-5.46394
-5.695411
-0
-0
-0
-0
-0
-0
-0
-4.823191
-4.909778
-5.0299
-5.190336
-5.398853
-0
-0
-0
-0
-0
-0
-0
-0
-4.613936
-4.694409
-4.805447
-4.952947
-5.143553
-0
-0
-0
-0
-0
-0
-0
-0
-0
-11.09266
-9.795478
-10.87472
-8.849921
-9.468887
-10.68562
-8.130605
-8.534482
-9.220026
-10.56367
-7.554527
-7.846548
-8.302743
-9.059419
-10.52348
-7.074577
-7.302355
-7.641118
-8.154757
-8.984132
-0
-6.663413
-6.849522
-7.120213
-7.510006
-8.083335
-0
-0
-6.301216
-6.458788
-6.684429
-7.001303
-7.443841
-0
-0
-0
-5.972687
-6.109085
-6.302838
-6.570212
-6.93405
-0
-0
-0
-0
-5.664417
-5.784351
-5.953502
-6.184501
-6.493223
-0
-0
-0
-0
-0
-5.369565
-5.476098
-5.625532
-5.827782
-6.095013
-0
-0
-0
-0
-0
-0
-5.094896
-5.190763
-5.324492
-5.504261
-5.739621
-0
-0
-0
-0
-0
-0
-0
-4.846477
-4.93396
-5.055335
-5.217487
-5.428325
-0
-0
-0
-0
-0
-0
-0
-0
-4.625331
-4.706207
-4.817808
-4.966072
-5.1577
-0
-0
-0
-0
-0
-0
-0
-0
-0
-4.429846
-4.505471
-4.609262
-4.746443
-4.922832
-0
-0
-0
-0
-0
-0
-0
-0
-0
-0
-10.72161
-9.672712
-10.61209
-8.81394
-9.404814
-10.52643
-8.123065
-8.52041
-9.188954
-10.47456
-7.554262
-7.844978
-8.298226
-9.046825
-10.48303
-7.074577
-7.302355
-7.641118
-8.154757
-8.984132
-0
-6.662635
-6.849087
-7.12038
-7.511392
-8.087623
-0
-0
-6.301779
-6.45989
-6.686365
-7.004685
-7.450034
-0
-0
-0
-5.979096
-6.116334
-6.311309
-6.580544
-6.947443
-0
-0
-0
-0
-5.682825
-5.804101
-5.975151
-6.208895
-6.521671
-0
-0
-0
-0
-0
-5.402208
-5.510539
-5.662519
-5.868361
-6.140679
-0
-0
-0
-0
-0
-0
-5.131631
-5.229167
-5.365245
-5.548274
-5.788119
-0
-0
-0
-0
-0
-0
-0
-4.877816
-4.966534
-5.08964
-5.25417
-5.468231
-0
-0
-0
-0
-0
-0
-0
-0
-4.646939
-4.728585
-4.841259
-4.990989
-5.184582
-0
-0
-0
-0
-0
-0
-0
-0
-0
-4.440462
-4.516438
-4.620718
-4.758562
-4.935831
-0
-0
-0
-0
-0
-0
-0
-0
-0
-0
-4.257252
-4.328664
-4.426143
-4.554362
-4.718471
-0
-0
-0
-0
-0
-0
-0
-0
-0
-0
-10.37898
-9.491812
-10.26715
-8.739734
-9.290301
-10.277
-8.1004
-8.486784
-9.128091
-10.31954
-7.550162
-7.837957
-8.284878
-9.016665
-10.39395
-7.075001
-7.30214
-7.639655
-8.150395
-8.97163
-0
-6.662635
-6.849087
-7.12038
-7.511392
-8.087623
-0
-0
-6.30081
-6.45912
-6.685911
-7.00481
-7.451366
-0
-0
-0
-5.97922
-6.116809
-6.312299
-6.582351
-6.950691
-0
-0
-0
-0
-5.688243
-5.810129
-5.982039
-6.217043
-6.531742
-0
-0
-0
-0
-0
-5.418665
-5.528038
-5.681482
-5.889386
-6.164658
-0
-0
-0
-0
-0
-0
-5.16136
-5.260354
-5.39849
-5.584393
-5.828225
-0
-0
-0
-0
-0
-0
-0
-4.911626
-5.001739
-5.126807
-5.294042
-5.511787
-0
-0
-0
-0
-0
-0
-0
-0
-4.675984
-4.758685
-4.872837
-5.024589
-5.2209
-0
-0
-0
-0
-0
-0
-0
-0
-0
-4.460586
-4.53723
-4.642442
-4.781552
-4.960509
-0
-0
-0
-0
-0
-0
-0
-0
-0
-0
-4.267172
-4.338894
-4.436802
-4.565601
-4.730477
-0
-0
-0
-0
-0
-0
-0
-0
-0
-0
-4.094988
-4.162691
-4.254614
-4.374958
-4.528328
-0
-0
-0
-0
-0
-0
-0
-0
-0
-0
-10.11651
-9.306188
-9.948225
-8.620211
-9.121135
-9.948587
-8.047777
-8.417264
-9.01914
-10.0765
-7.534198
-7.81673
-8.252917
-8.957612
-10.23917
-7.072716
-7.298341
-7.633023
-8.137497
-8.941745
-0
-6.663413
-6.849522
-7.120213
-7.510006
-8.083335
-0
-0
-6.30081
-6.45912
-6.685911
-7.00481
-7.451366
-0
-0
-0
-5.978147
-6.115856
-6.311524
-6.581873
-6.950775
-0
-0
-0
-0
-5.688066
-5.81019
-5.982432
-6.217937
-6.533443
-0
-0
-0
-0
-0
-5.423311
-5.533137
-5.687211
-5.896009
-6.172589
-0
-0
-0
-0
-0
-0
-5.176202
-5.276022
-5.415311
-5.602822
-5.848896
-0
-0
-0
-0
-0
-0
-0
-4.938868
-5.030183
-5.156946
-5.326532
-5.547497
-0
-0
-0
-0
-0
-0
-0
-0
-4.707247
-4.79113
-4.906945
-5.06098
-5.260374
-0
-0
-0
-0
-0
-0
-0
-0
-0
-4.487607
-4.565163
-4.671652
-4.812502
-4.993787
-0
-0
-0
-0
-0
-0
-0
-0
-0
-0
-4.285975
-4.358281
-4.457005
-4.586911
-4.753254
-0
-0
-0
-0
-0
-0
-0
-0
-0
-0
-4.104285
-4.172261
-4.264565
-4.385422
-4.539466
-0
-0
-0
-0
-0
-0
-0
-0
-0
-0
-3.942067
-4.006465
-4.093444
-4.206805
-4.350682
-0
-0
-0
-0
-0
-0
-0
-0
-0
-0
-9.94276
-9.15291
-9.703638
-8.490177
-8.947387
-9.645015
-7.957855
-8.305015
-8.857799
-9.756007
-7.493535
-7.767279
-8.186669
-8.851796
-9.996612
-7.060686
-7.28337
-7.612847
-8.106571
-8.883308
-0
-6.662184
-6.847428
-7.116652
-7.503642
-8.070658
-0
-0
-6.301779
-6.45989
-6.686365
-7.004685
-7.450034
-0
-0
-0
-5.978147
-6.115856
-6.311524
-6.581873
-6.950775
-0
-0
-0
-0
-5.686941
-5.809139
-5.981483
-6.217148
-6.532933
-0
-0
-0
-0
-0
-5.422926
-5.532915
-5.687211
-5.896328
-6.173397
-0
-0
-0
-0
-0
-0
-5.180233
-5.280396
-5.420157
-5.608328
-5.855335
-0
-0
-0
-0
-0
-0
-0
-4.952353
-5.044332
-5.172023
-5.342891
-5.56562
-0
-0
-0
-0
-0
-0
-0
-0
-4.732343
-4.817232
-4.934464
-5.090455
-5.292506
-0
-0
-0
-0
-0
-0
-0
-0
-0
-4.516632
-4.595203
-4.703118
-4.845921
-5.029826
-0
-0
-0
-0
-0
-0
-0
-0
-0
-0
-4.311198
-4.3843
-4.484138
-4.615559
-4.783918
-0
-0
-0
-0
-0
-0
-0
-0
-0
-0
-4.121905
-4.190396
-4.283421
-4.405252
-4.560585
-0
-0
-0
-0
-0
-0
-0
-0
-0
-0
-3.950803
-4.015444
-4.102762
-4.216579
-4.361055
-0
-0
-0
-0
-0
-0
-0
-0
-0
-0
-3.797643
-3.859067
-3.941605
-4.048714
-4.184132
-0
-0
-0
-0
-0
-0
-0
-0
-0
-0
-9.856898
-9.046333
-9.541583
-8.378781
-8.803805
-9.412224
-7.856427
-8.182779
-8.692059
-9.460311
-7.421203
-7.682557
-8.079407
-8.694739
-9.676611
-7.027652
-7.245064
-7.565661
-8.042311
-8.778542
-0
-6.652696
-6.836134
-7.102425
-7.484163
-8.040233
-0
-0
-6.301216
-6.458788
-6.684429
-7.001303
-7.443841
-0
-0
-0
-5.97922
-6.116809
-6.312299
-6.582351
-6.950691
-0
-0
-0
-0
-5.686941
-5.809139
-5.981483
-6.217148
-6.532933
-0
-0
-0
-0
-0
-5.42178
-5.531813
-5.686168
-5.895371
-6.172583
-0
-0
-0
-0
-0
-0
-5.179703
-5.279978
-5.419888
-5.608269
-5.855583
-0
-0
-0
-0
-0
-0
-0
-4.955887
-5.048128
-5.17618
-5.347547
-5.570969
-0
-0
-0
-0
-0
-0
-0
-0
-4.744673
-4.830104
-4.948093
-5.105129
-5.308599
-0
-0
-0
-0
-0
-0
-0
-0
-0
-4.539858
-4.61928
-4.728396
-4.872853
-5.058988
-0
-0
-0
-0
-0
-0
-0
-0
-0
-0
-4.338243
-4.412224
-4.513301
-4.646411
-4.817026
-0
-0
-0
-0
-0
-0
-0
-0
-0
-0
-4.145523
-4.214711
-4.308717
-4.431881
-4.588977
-0
-0
-0
-0
-0
-0
-0
-0
-0
-0
-3.967359
-4.032457
-4.120415
-4.235098
-4.380714
-0
-0
-0
-0
-0
-0
-0
-0
-0
-0
-3.805869
-3.867513
-3.950354
-4.057871
-4.193824
-0
-0
-0
-0
-0
-0
-0
-0
-0
-0
-3.660975
-3.719708
-3.798224
-3.899688
-4.027504
-0
-0
-0
-0
-0
-0
-0
-0
-0
-0
-8.992186
-9.46145
-8.299579
-8.703904
-9.257958
-7.767618
-8.077989
-8.555073
-9.233847
-7.337629
-7.586893
-7.962542
-8.533508
-9.382333
-6.967153
-7.176733
-7.484563
-7.937949
-8.622724
-0
-6.624956
-6.804948
-7.065825
-7.438412
-7.976857
-0
-0
-6.293506
-6.449874
-6.673698
-6.98759
-7.42476
-0
-0
-0
-5.979096
-6.116334
-6.311309
-6.580544
-6.947443
-0
-0
-0
-0
-5.688066
-5.81019
-5.982432
-6.217937
-6.533443
-0
-0
-0
-0
-0
-5.42178
-5.531813
-5.686168
-5.895371
-6.172583
-0
-0
-0
-0
-0
-0
-5.178557
-5.278857
-5.418798
-5.607222
-5.854606
-0
-0
-0
-0
-0
-0
-0
-4.955259
-5.047574
-5.175726
-5.34723
-5.570851
-0
-0
-0
-0
-0
-0
-0
-0
-4.7478
-4.833434
-4.951702
-5.109122
-5.313119
-0
-0
-0
-0
-0
-0
-0
-0
-0
-4.551193
-4.631064
-4.740809
-4.886127
-5.073428
-0
-0
-0
-0
-0
-0
-0
-0
-0
-0
-4.359828
-4.434533
-4.536641
-4.671167
-4.84368
-0
-0
-0
-0
-0
-0
-0
-0
-0
-0
-0
-4.170808
-4.240762
-4.33585
-4.460491
-4.619551
-0
-0
-0
-0
-0
-0
-0
-0
-0
-0
-3.989534
-4.05525
-4.144076
-4.259939
-4.407113
-0
-0
-0
-0
-0
-0
-0
-0
-0
-0
-3.821462
-3.883515
-3.966928
-4.075218
-4.212188
-0
-0
-0
-0
-0
-0
-0
-0
-0
-0
-3.668738
-3.727669
-3.806459
-3.908291
-4.036587
-0
-0
-0
-0
-0
-0
-0
-0
-0
-0
-3.531422
-3.587695
-3.662552
-3.758888
-3.879819
-0
-0
-0
-0
-0
-0
-0
-0
-0
-0
-8.258836
-8.653127
-9.181663
-7.703664
-8.003441
-8.459738
-9.083861
-7.263394
-7.503069
-7.862326
-8.400316
-9.157487
-6.896032
-7.097688
-7.392919
-7.824247
-8.462979
-0
-6.573005
-6.747663
-7.000313
-7.359492
-7.873592
-0
-0
-6.269683
-6.423635
-6.643864
-6.952101
-7.379729
-0
-0
-0
-5.972687
-6.109085
-6.302838
-6.570212
-6.93405
-0
-0
-0
-0
-5.688243
-5.810129
-5.982039
-6.217043
-6.531742
-0
-0
-0
-0
-0
-5.422926
-5.532915
-5.687211
-5.896328
-6.173397
-0
-0
-0
-0
-0
-0
-5.178557
-5.278857
-5.418798
-5.607222
-5.854606
-0
-0
-0
-0
-0
-0
-0
-4.954126
-5.046453
-5.174617
-5.346138
-5.569788
-0
-0
-0
-0
-0
-0
-0
-0
-4.747104
-4.832787
-4.951119
-5.108628
-5.312752
-0
-0
-0
-0
-0
-0
-0
-0
-0
-4.553984
-4.634011
-4.743974
-4.889592
-5.077302
-0
-0
-0
-0
-0
-0
-0
-0
-0
-0
-4.370303
-4.44538
-4.548015
-4.683263
-4.856747
-0
-0
-0
-0
-0
-0
-0
-0
-0
-0
-0
-4.190942
-4.261518
-4.357497
-4.483363
-4.64406
-0
-0
-0
-0
-0
-0
-0
-0
-0
-0
-0
-0
-4.013243
-4.079631
-4.16941
-4.286574
-4.435475
-0
-0
-0
-0
-0
-0
-0
-0
-0
-0
-3.842334
-3.904938
-3.989126
-4.098465
-4.236821
-0
-0
-0
-0
-0
-0
-0
-0
-0
-0
-3.683456
-3.742754
-3.822061
-3.924587
-4.053793
-0
-0
-0
-0
-0
-0
-0
-0
-0
-0
-3.538763
-3.595215
-3.67032
-3.76699
-3.888355
-0
-0
-0
-0
-0
-0
-0
-0
-0
-0
-3.408426
-3.462431
-3.533931
-3.625588
-3.74025
-0
-0
-0
-0
-0
-0
-0
-0
-0
-0
-7.670528
-7.965076
-8.411272
-9.009703
-7.209498
-7.442673
-7.791012
-8.307639
-9.008763
-6.832209
-7.027423
-7.312584
-7.726758
-8.331159
-0
-6.511132
-6.680233
-6.924452
-7.270272
-7.76113
-0
-0
-6.224254
-6.374342
-6.588858
-6.888315
-7.301727
-0
-0
-0
-5.95188
-6.086512
-6.277705
-6.541272
-6.899152
-0
-0
-0
-0
-5.682825
-5.804101
-5.975151
-6.208895
-6.521671
-0
-0
-0
-0
-0
-5.423311
-5.533137
-5.687211
-5.896009
-6.172589
-0
-0
-0
-0
-0
-0
-5.179703
-5.279978
-5.419888
-5.608269
-5.855583
-0
-0
-0
-0
-0
-0
-0
-4.954126
-5.046453
-5.174617
-5.346138
-5.569788
-0
-0
-0
-0
-0
-0
-0
-0
-4.745994
-4.831678
-4.95001
-5.107519
-5.311647
-0
-0
-0
-0
-0
-0
-0
-0
-0
-4.553245
-4.633302
-4.743304
-4.888976
-5.076766
-0
-0
-0
-0
-0
-0
-0
-0
-0
-0
-4.372813
-4.448011
-4.550817
-4.686302
-4.860108
-0
-0
-0
-0
-0
-0
-0
-0
-0
-0
-0
-4.200666
-4.271554
-4.367976
-4.494455
-4.655973
-0
-0
-0
-0
-0
-0
-0
-0
-0
-0
-0
-0
-4.032084
-4.099015
-4.189569
-4.3078
-4.458127
-0
-0
-0
-0
-0
-0
-0
-0
-0
-0
-0
-0
-0
-3.864622
-3.927823
-4.012857
-4.123349
-4.263233
-0
-0
-0
-0
-0
-0
-0
-0
-0
-0
-3.703148
-3.762938
-3.842941
-3.946409
-4.076853
-0
-0
-0
-0
-0
-0
-0
-0
-0
-0
-3.552685
-3.609468
-3.685039
-3.782337
-3.904522
-0
-0
-0
-0
-0
-0
-0
-0
-0
-0
-3.41538
-3.469548
-3.541275
-3.633234
-3.74829
-0
-0
-0
-0
-0
-0
-0
-0
-0
-0
-3.291506
-3.343393
-3.411795
-3.499152
-3.608082
-0
-0
-0
-0
-0
-0
-0
-0
-0
-0
-7.181443
-7.411368
-7.754303
-8.260527
-8.935277
-6.785606
-6.976381
-7.254683
-7.657385
-8.239489
-0
-6.455177
-6.619673
-6.856983
-7.192057
-7.664757
-0
-0
-6.169585
-6.315551
-6.524035
-6.814401
-7.213528
-0
-0
-0
-5.911597
-6.043323
-6.230305
-6.487679
-6.836133
-0
-0
-0
-0
-5.664417
-5.784351
-5.953502
-6.184501
-6.493223
-0
-0
-0
-0
-0
-5.418665
-5.528038
-5.681482
-5.889386
-6.164658
-0
-0
-0
-0
-0
-0
-5.180233
-5.280396
-5.420157
-5.608328
-5.855335
-0
-0
-0
-0
-0
-0
-0
-4.955259
-5.047574
-5.175726
-5.34723
-5.570851
-0
-0
-0
-0
-0
-0
-0
-0
-4.745994
-4.831678
-4.95001
-5.107519
-5.311647
-0
-0
-0
-0
-0
-0
-0
-0
-0
-4.552162
-4.632213
-4.742208
-4.887869
-5.075646
-0
-0
-0
-0
-0
-0
-0
-0
-0
-0
-4.372051
-4.447262
-4.550089
-4.685604
-4.859455
-0
-0
-0
-0
-0
-0
-0
-0
-0
-0
-0
-4.202942
-4.273921
-4.370478
-4.497145
-4.65892
-0
-0
-0
-0
-0
-0
-0
-0
-0
-0
-0
-0
-4.041146
-4.10834
-4.199272
-4.318025
-4.469054
-0
-0
-0
-0
-0
-0
-0
-0
-0
-0
-0
-0
-0
-3.882307
-3.945982
-4.031698
-4.143127
-4.284261
-0
-0
-0
-0
-0
-0
-0
-0
-0
-0
-0
-0
-0
-0
-3.724154
-3.784474
-3.865234
-3.969731
-4.101535
-0
-0
-0
-0
-0
-0
-0
-0
-0
-0
-3.571302
-3.628528
-3.704726
-3.802874
-3.926173
-0
-0
-0
-0
-0
-0
-0
-0
-0
-0
-3.428574
-3.483042
-3.555191
-3.64772
-3.76352
-0
-0
-0
-0
-0
-0
-0
-0
-0
-0
-3.298106
-3.350141
-3.41875
-3.506384
-3.615672
-0
-0
-0
-0
-0
-0
-0
-0
-0
-0
-3.180225
-3.230133
-3.295647
-3.379033
-3.482691
-0
-0
-0
-0
-0
-0
-0
-0
-0
-0
-6.761269
-6.949802
-7.224664
-7.621674
-8.192902
-0
-6.414144
-6.575429
-6.807956
-7.13568
-7.596197
-0
-0
-6.119839
-6.262339
-6.465786
-6.748651
-7.13623
-0
-0
-0
-5.86271
-5.991274
-6.173701
-6.424466
-6.763069
-0
-0
-0
-0
-5.628313
-5.745988
-5.911916
-6.138284
-6.440277
-0
-0
-0
-0
-0
-5.402208
-5.510539
-5.662519
-5.868361
-6.140679
-0
-0
-0
-0
-0
-0
-5.176202
-5.276022
-5.415311
-5.602822
-5.848896
-0
-0
-0
-0
-0
-0
-0
-4.955887
-5.048128
-5.17618
-5.347547
-5.570969
-0
-0
-0
-0
-0
-0
-0
-0
-4.747104
-4.832787
-4.951119
-5.108628
-5.312752
-0
-0
-0
-0
-0
-0
-0
-0
-0
-4.552162
-4.632213
-4.742208
-4.887869
-5.075646
-0
-0
-0
-0
-0
-0
-0
-0
-0
-0
-4.371
-4.4462
-4.549013
-4.68451
-4.858339
-0
-0
-0
-0
-0
-0
-0
-0
-0
-0
-0
-4.202169
-4.273151
-4.369713
-4.496393
-4.658189
-0
-0
-0
-0
-0
-0
-0
-0
-0
-0
-0
-0
-4.043222
-4.110488
-4.201524
-4.320427
-4.471661
-0
-0
-0
-0
-0
-0
-0
-0
-0
-0
-0
-0
-0
-3.890784
-3.954682
-4.040723
-4.152601
-4.294339
-0
-0
-0
-0
-0
-0
-0
-0
-0
-0
-0
-0
-0
-0
-3.7408
-3.801535
-3.882898
-3.988226
-4.121135
-0
-0
-0
-0
-0
-0
-0
-0
-0
-0
-0
-0
-0
-0
-0
-3.591144
-3.648845
-3.72572
-3.824794
-3.949313
-0
-0
-0
-0
-0
-0
-0
-0
-0
-0
-3.44621
-3.501078
-3.573795
-3.667093
-3.783902
-0
-0
-0
-0
-0
-0
-0
-0
-0
-0
-3.310632
-3.36294
-3.431934
-3.520086
-3.630051
-0
-0
-0
-0
-0
-0
-0
-0
-0
-0
-3.186499
-3.236542
-3.302245
-3.385884
-3.48987
-0
-0
-0
-0
-0
-0
-0
-0
-0
-0
-3.074219
-3.122241
-3.18506
-3.264749
-3.363535
-0
-0
-0
-0
-0
-0
-0
-0
-0
-0
-6.392664
-6.552315
-6.78242
-7.106449
-7.56091
-0
-0
-6.083239
-6.223298
-6.423215
-6.700867
-7.08052
-0
-0
-0
-5.818003
-5.943873
-6.122439
-6.367647
-6.698083
-0
-0
-0
-0
-5.584188
-5.699359
-5.861731
-6.083037
-6.37778
-0
-0
-0
-0
-0
-5.369565
-5.476098
-5.625532
-5.827782
-6.095013
-0
-0
-0
-0
-0
-0
-5.16136
-5.260354
-5.39849
-5.584393
-5.828225
-0
-0
-0
-0
-0
-0
-0
-4.952353
-5.044332
-5.172023
-5.342891
-5.56562
-0
-0
-0
-0
-0
-0
-0
-0
-4.7478
-4.833434
-4.951702
-5.109122
-5.313119
-0
-0
-0
-0
-0
-0
-0
-0
-0
-4.553245
-4.633302
-4.743304
-4.888976
-5.076766
-0
-0
-0
-0
-0
-0
-0
-0
-0
-0
-4.371
-4.4462
-4.549013
-4.68451
-4.858339
-0
-0
-0
-0
-0
-0
-0
-0
-0
-0
-0
-4.201152
-4.27212
-4.368664
-4.495319
-4.657087
-0
-0
-0
-0
-0
-0
-0
-0
-0
-0
-0
-0
-4.042448
-4.109709
-4.20074
-4.319641
-4.47088
-0
-0
-0
-0
-0
-0
-0
-0
-0
-0
-0
-0
-0
-3.892692
-3.956642
-4.042766
-4.154763
-4.296666
-0
-0
-0
-0
-0
-0
-0
-0
-0
-0
-0
-0
-0
-0
-3.748757
-3.809682
-3.891324
-3.997044
-4.130475
-0
-0
-0
-0
-0
-0
-0
-0
-0
-0
-0
-0
-0
-0
-0
-3.606851
-3.664919
-3.742329
-3.842144
-3.967647
-0
-0
-0
-0
-0
-0
-0
-0
-0
-0
-0
-0
-0
-0
-0
-0
-3.464994
-3.520286
-3.593615
-3.687746
-3.805655
-0
-0
-0
-0
-0
-0
-0
-0
-0
-0
-3.327371
-3.380041
-3.44955
-3.538402
-3.649281
-0
-0
-0
-0
-0
-0
-0
-0
-0
-0
-3.198411
-3.248703
-3.314758
-3.398871
-3.503474
-0
-0
-0
-0
-0
-0
-0
-0
-0
-0
-3.080191
-3.128339
-3.191331
-3.271252
-3.370339
-0
-0
-0
-0
-0
-0
-0
-0
-0
-0
-2.973127
-3.019379
-3.079647
-3.155888
-3.250143
-0
-0
-0
-0
-0
-0
-0
-0
-0
-0
-6.064043
-6.202853
-6.400969
-6.675976
-7.051637
-0
-0
-0
-5.785021
-5.90898
-6.084814
-6.326115
-6.650856
-0
-0
-0
-0
-5.543666
-5.656681
-5.816001
-6.032988
-6.321605
-0
-0
-0
-0
-0
-5.329432
-5.43394
-5.580513
-5.778759
-6.040376
-0
-0
-0
-0
-0
-0
-5.131631
-5.229167
-5.365245
-5.548274
-5.788119
-0
-0
-0
-0
-0
-0
-0
-4.938868
-5.030183
-5.156946
-5.326532
-5.547497
-0
-0
-0
-0
-0
-0
-0
-0
-4.744673
-4.830104
-4.948093
-5.105129
-5.308599
-0
-0
-0
-0
-0
-0
-0
-0
-0
-4.553983
-4.634011
-4.743974
-4.889592
-5.077302
-0
-0
-0
-0
-0
-0
-0
-0
-0
-0
-4.372051
-4.447262
-4.550089
-4.685604
-4.859455
-0
-0
-0
-0
-0
-0
-0
-0
-0
-0
-0
-4.201152
-4.27212
-4.368663
-4.495319
-4.657087
-0
-0
-0
-0
-0
-0
-0
-0
-0
-0
-0
-0
-4.041468
-4.108711
-4.199721
-4.318595
-4.4698
-0
-0
-0
-0
-0
-0
-0
-0
-0
-0
-0
-0
-0
-3.891926
-3.955863
-4.041975
-4.153961
-4.295854
-0
-0
-0
-0
-0
-0
-0
-0
-0
-0
-0
-0
-0
-0
-3.750519
-3.811484
-3.893189
-3.999005
-4.13257
-0
-0
-0
-0
-0
-0
-0
-0
-0
-0
-0
-0
-0
-0
-0
-3.614343
-3.672573
-3.750226
-3.850381
-3.976343
-0
-0
-0
-0
-0
-0
-0
-0
-0
-0
-0
-0
-0
-0
-0
-0
-3.479851
-3.535468
-3.609275
-3.704068
-3.822859
-0
-0
-0
-0
-0
-0
-0
-0
-0
-0
-0
-0
-0
-0
-0
-0
-0
-3.345187
-3.39824
-3.468302
-3.557908
-3.669782
-0
-0
-0
-0
-0
-0
-0
-0
-0
-0
-3.214326
-3.264948
-3.331472
-3.416222
-3.521659
-0
-0
-0
-0
-0
-0
-0
-0
-0
-0
-3.091537
-3.139913
-3.203228
-3.283582
-3.383235
-0
-0
-0
-0
-0
-0
-0
-0
-0
-0
-2.978821
-3.025187
-3.085616
-3.162071
-3.256602
-0
-0
-0
-0
-0
-0
-0
-0
-0
-0
-2.876644
-2.921206
-2.979083
-3.052076
-3.142109
-0
-0
-0
-0
-0
-0
-0
-0
-0
-0
-5.767697
-5.890672
-6.065106
-6.304411
-6.626257
-0
-0
-0
-0
-5.513704
-5.625179
-5.782325
-5.996249
-6.280546
-0
-0
-0
-0
-0
-5.292444
-5.395192
-5.539284
-5.734073
-5.990879
-0
-0
-0
-0
-0
-0
-5.094896
-5.190763
-5.324492
-5.504261
-5.739621
-0
-0
-0
-0
-0
-0
-0
-4.911625
-5.001739
-5.126807
-5.294042
-5.511787
-0
-0
-0
-0
-0
-0
-0
-0
-4.732344
-4.817232
-4.934464
-5.090455
-5.292506
-0
-0
-0
-0
-0
-0
-0
-0
-0
-4.551193
-4.631064
-4.740809
-4.886127
-5.073428
-0
-0
-0
-0
-0
-0
-0
-0
-0
-0
-4.372813
-4.448011
-4.550817
-4.686302
-4.860108
-0
-0
-0
-0
-0
-0
-0
-0
-0
-0
-0
-4.202169
-4.273151
-4.369713
-4.496393
-4.658189
-0
-0
-0
-0
-0
-0
-0
-0
-0
-0
-0
-0
-4.041468
-4.108711
-4.199721
-4.318595
-4.4698
-0
-0
-0
-0
-0
-0
-0
-0
-0
-0
-0
-0
-0
-3.890982
-3.954899
-4.040988
-4.152945
-4.294802
-0
-0
-0
-0
-0
-0
-0
-0
-0
-0
-0
-0
-0
-0
-3.749766
-3.810714
-3.8924
-3.998198
-4.131745
-0
-0
-0
-0
-0
-0
-0
-0
-0
-0
-0
-0
-0
-0
-0
-3.615983
-3.67424
-3.751942
-3.852172
-3.978244
-0
-0
-0
-0
-0
-0
-0
-0
-0
-0
-0
-0
-0
-0
-0
-0
-3.486928
-3.542683
-3.616701
-3.711792
-3.830986
-0
-0
-0
-0
-0
-0
-0
-0
-0
-0
-0
-0
-0
-0
-0
-0
-0
-3.359273
-3.412614
-3.483103
-3.573306
-3.685972
-0
-0
-0
-0
-0
-0
-0
-0
-0
-0
-0
-0
-0
-0
-0
-0
-0
-0
-3.231256
-3.282225
-3.34925
-3.434685
-3.541027
-0
-0
-0
-0
-0
-0
-0
-0
-0
-0
-3.106692
-3.15537
-3.219115
-3.300052
-3.400466
-0
-0
-0
-0
-0
-0
-0
-0
-0
-0
-2.989643
-3.03622
-3.096945
-3.173799
-3.268849
-0
-0
-0
-0
-0
-0
-0
-0
-0
-0
-2.88208
-2.926747
-2.984773
-3.057963
-3.148251
-0
-0
-0
-0
-0
-0
-0
-0
-0
-0
-2.784506
-2.827438
-2.883047
-2.952999
-3.039063
-0
-0
-0
-0
-0
-0
-0
-0
-0
-0
-5.497948
-5.608627
-5.764652
-5.977002
-6.259088
-0
-0
-0
-0
-0
-5.265043
-5.366526
-5.508841
-5.70116
-5.954544
-0
-0
-0
-0
-0
-0
-5.060935
-5.155338
-5.287013
-5.46394
-5.695411
-0
-0
-0
-0
-0
-0
-0
-4.877816
-4.966534
-5.08964
-5.25417
-5.468231
-0
-0
-0
-0
-0
-0
-0
-0
-4.707247
-4.79113
-4.906945
-5.06098
-5.260374
-0
-0
-0
-0
-0
-0
-0
-0
-0
-4.539857
-4.61928
-4.728396
-4.872853
-5.058988
-0
-0
-0
-0
-0
-0
-0
-0
-0
-0
-4.370303
-4.44538
-4.548015
-4.683263
-4.856747
-0
-0
-0
-0
-0
-0
-0
-0
-0
-0
-0
-4.202941
-4.273921
-4.370478
-4.497145
-4.65892
-0
-0
-0
-0
-0
-0
-0
-0
-0
-0
-0
-0
-4.042448
-4.109709
-4.20074
-4.319641
-4.47088
-0
-0
-0
-0
-0
-0
-0
-0
-0
-0
-0
-0
-0
-3.890982
-3.9549
-4.040988
-4.152945
-4.294802
-0
-0
-0
-0
-0
-0
-0
-0
-0
-0
-0
-0
-0
-0
-3.748859
-3.809786
-3.891447
-3.997214
-4.130723
-0
-0
-0
-0
-0
-0
-0
-0
-0
-0
-0
-0
-0
-0
-0
-3.615248
-3.673483
-3.751163
-3.851368
-3.977416
-0
-0
-0
-0
-0
-0
-0
-0
-0
-0
-0
-0
-0
-0
-0
-0
-3.488463
-3.544234
-3.618288
-3.713439
-3.832721
-0
-0
-0
-0
-0
-0
-0
-0
-0
-0
-0
-0
-0
-0
-0
-0
-0
-3.365975
-3.419435
-3.490107
-3.580572
-3.693595
-0
-0
-0
-0
-0
-0
-0
-0
-0
-0
-0
-0
-0
-0
-0
-0
-0
-0
-3.244637
-3.295863
-3.363273
-3.449245
-3.556304
-0
-0
-0
-0
-0
-0
-0
-0
-0
-0
-0
-0
-0
-0
-0
-0
-0
-0
-0
-3.122808
-3.171801
-3.236002
-3.317564
-3.418803
-0
-0
-0
-0
-0
-0
-0
-0
-0
-0
-3.004097
-3.05095
-3.112071
-3.18946
-3.285208
-0
-0
-0
-0
-0
-0
-0
-0
-0
-0
-2.892418
-2.937278
-2.995578
-3.069136
-3.159903
-0
-0
-0
-0
-0
-0
-0
-0
-0
-0
-2.789701
-2.832731
-2.888478
-2.958612
-3.044913
-0
-0
-0
-0
-0
-0
-0
-0
-0
-0
-2.69649
-2.737825
-2.791267
-2.858345
-2.940698
-0
-0
-0
-0
-0
-0
-0
-0
-0
-0
-5.25062
-5.351446
-5.492841
-5.683885
-5.935509
-0
-0
-0
-0
-0
-0
-5.035735
-5.129082
-5.259276
-5.434162
-5.662848
-0
-0
-0
-0
-0
-0
-0
-4.846477
-4.93396
-5.055335
-5.217487
-5.428325
-0
-0
-0
-0
-0
-0
-0
-0
-4.675984
-4.758685
-4.872837
-5.024589
-5.2209
-0
-0
-0
-0
-0
-0
-0
-0
-0
-4.516631
-4.595203
-4.703118
-4.845921
-5.029826
-0
-0
-0
-0
-0
-0
-0
-0
-0
-0
-4.359828
-4.434533
-4.536641
-4.671166
-4.84368
-0
-0
-0
-0
-0
-0
-0
-0
-0
-0
-0
-4.200666
-4.271553
-4.367976
-4.494455
-4.655973
-0
-0
-0
-0
-0
-0
-0
-0
-0
-0
-0
-0
-4.043222
-4.110488
-4.201524
-4.320427
-4.471661
-0
-0
-0
-0
-0
-0
-0
-0
-0
-0
-0
-0
-0
-3.891926
-3.955863
-4.041975
-4.153961
-4.295854
-0
-0
-0
-0
-0
-0
-0
-0
-0
-0
-0
-0
-0
-0
-3.748859
-3.809786
-3.891447
-3.997214
-4.130723
-0
-0
-0
-0
-0
-0
-0
-0
-0
-0
-0
-0
-0
-0
-0
-3.614377
-3.672591
-3.750244
-3.850418
-3.976427
-0
-0
-0
-0
-0
-0
-0
-0
-0
-0
-0
-0
-0
-0
-0
-0
-3.48775
-3.543496
-3.617523
-3.712647
-3.831898
-0
-0
-0
-0
-0
-0
-0
-0
-0
-0
-0
-0
-0
-0
-0
-0
-0
-3.36742
-3.420888
-3.491585
-3.582097
-3.695191
-0
-0
-0
-0
-0
-0
-0
-0
-0
-0
-0
-0
-0
-0
-0
-0
-0
-0
-3.251001
-3.302329
-3.3699
-3.456103
-3.563477
-0
-0
-0
-0
-0
-0
-0
-0
-0
-0
-0
-0
-0
-0
-0
-0
-0
-0
-0
-3.135543
-3.184768
-3.249317
-3.331365
-3.433252
-0
-0
-0
-0
-0
-0
-0
-0
-0
-0
-0
-0
-0
-0
-0
-0
-0
-0
-0
-0
-3.019462
-3.066602
-3.12814
-3.206102
-3.302604
-0
-0
-0
-0
-0
-0
-0
-0
-0
-0
-2.906224
-2.951338
-3.010001
-3.084052
-3.175461
-0
-0
-0
-0
-0
-0
-0
-0
-0
-0
-2.799588
-2.842798
-2.898797
-2.969272
-3.056015
-0
-0
-0
-0
-0
-0
-0
-0
-0
-0
-2.701462
-2.742888
-2.796457
-2.863705
-2.946277
-0
-0
-0
-0
-0
-0
-0
-0
-0
-0
-2.612389
-2.652163
-2.703505
-2.767851
-2.846707
-0
-0
-0
-0
-0
-0
-0
-0
-0
-0
-5.022461
-5.115256
-5.244681
-5.41851
-5.645758
-0
-0
-0
-0
-0
-0
-0
-4.823191
-4.909778
-5.0299
-5.190336
-5.398853
-0
-0
-0
-0
-0
-0
-0
-0
-4.646939
-4.728585
-4.841259
-4.990989
-5.184582
-0
-0
-0
-0
-0
-0
-0
-0
-0
-4.487607
-4.565163
-4.671651
-4.812502
-4.993787
-0
-0
-0
-0
-0
-0
-0
-0
-0
-0
-4.338243
-4.412223
-4.513301
-4.646411
-4.817026
-0
-0
-0
-0
-0
-0
-0
-0
-0
-0
-4.190942
-4.261518
-4.357497
-4.483363
-4.64406
-0
-0
-0
-0
-0
-0
-0
-0
-0
-0
-0
-0
-4.041146
-4.10834
-4.199272
-4.318025
-4.469054
-0
-0
-0
-0
-0
-0
-0
-0
-0
-0
-0
-0
-0
-3.892692
-3.956642
-4.042766
-4.154763
-4.296666
-0
-0
-0
-0
-0
-0
-0
-0
-0
-0
-0
-0
-0
-0
-3.749767
-3.810714
-3.8924
-3.998198
-4.131745
-0
-0
-0
-0
-0
-0
-0
-0
-0
-0
-0
-0
-0
-0
-0
-3.614377
-3.672591
-3.750244
-3.850418
-3.976427
-0
-0
-0
-0
-0
-0
-0
-0
-0
-0
-0
-0
-0
-0
-0
-0
-3.486915
-3.542639
-3.616639
-3.711731
-3.830943
-0
-0
-0
-0
-0
-0
-0
-0
-0
-0
-0
-0
-0
-0
-0
-0
-0
-3.366732
-3.420173
-3.49084
-3.58132
-3.694381
-0
-0
-0
-0
-0
-0
-0
-0
-0
-0
-0
-0
-0
-0
-0
-0
-0
-0
-3.252368
-3.303698
-3.371286
-3.457524
-3.564955
-0
-0
-0
-0
-0
-0
-0
-0
-0
-0
-0
-0
-0
-0
-0
-0
-0
-0
-0
-3.141601
-3.190913
-3.255603
-3.337856
-3.440024
-0
-0
-0
-0
-0
-0
-0
-0
-0
-0
-0
-0
-0
-0
-0
-0
-0
-0
-0
-0
-3.031604
-3.078953
-3.140808
-3.219211
-3.316303
-0
-0
-0
-0
-0
-0
-0
-0
-0
-0
-0
-0
-0
-0
-0
-0
-0
-0
-0
-0
-2.920896
-2.966271
-3.025317
-3.099895
-3.191996
-0
-0
-0
-0
-0
-0
-0
-0
-0
-0
-2.812793
-2.856236
-2.91257
-2.9835
-3.070836
-0
-0
-0
-0
-0
-0
-0
-0
-0
-0
-2.710933
-2.752523
-2.806327
-2.873889
-2.956871
-0
-0
-0
-0
-0
-0
-0
-0
-0
-0
-2.617153
-2.657012
-2.708472
-2.772975
-2.852034
-0
-0
-0
-0
-0
-0
-0
-0
-0
-0
-2.532099
-2.570255
-2.619568
-2.681288
-2.75683
-0
-0
-0
-0
-0
-0
-0
-0
-0
-0
-4.810917
-4.897035
-5.016504
-5.176047
-5.383362
-0
-0
-0
-0
-0
-0
-0
-0
-4.625331
-4.706207
-4.817808
-4.966072
-5.1577
-0
-0
-0
-0
-0
-0
-0
-0
-0
-4.460586
-4.53723
-4.642442
-4.781551
-4.960509
-0
-0
-0
-0
-0
-0
-0
-0
-0
-0
-4.311197
-4.384299
-4.484138
-4.615559
-4.783918
-0
-0
-0
-0
-0
-0
-0
-0
-0
-0
-4.170808
-4.240761
-4.33585
-4.460491
-4.619551
-0
-0
-0
-0
-0
-0
-0
-0
-0
-0
-4.032084
-4.099014
-4.189569
-4.3078
-4.458127
-0
-0
-0
-0
-0
-0
-0
-0
-0
-0
-0
-0
-0
-3.890784
-3.954682
-4.040723
-4.152601
-4.294338
-0
-0
-0
-0
-0
-0
-0
-0
-0
-0
-0
-0
-0
-0
-3.750519
-3.811484
-3.893189
-3.999005
-4.13257
-0
-0
-0
-0
-0
-0
-0
-0
-0
-0
-0
-0
-0
-0
-0
-3.615248
-3.673483
-3.751163
-3.851368
-3.977415
-0
-0
-0
-0
-0
-0
-0
-0
-0
-0
-0
-0
-0
-0
-0
-0
-3.486915
-3.542639
-3.616639
-3.711731
-3.830943
-0
-0
-0
-0
-0
-0
-0
-0
-0
-0
-0
-0
-0
-0
-0
-0
-0
-3.365933
-3.419351
-3.489991
-3.580438
-3.693461
-0
-0
-0
-0
-0
-0
-0
-0
-0
-0
-0
-0
-0
-0
-0
-0
-0
-0
-3.251707
-3.303008
-3.370564
-3.456767
-3.564162
-0
-0
-0
-0
-0
-0
-0
-0
-0
-0
-0
-0
-0
-0
-0
-0
-0
-0
-0
-3.1429
-3.19221
-3.25691
-3.339189
-3.441401
-0
-0
-0
-0
-0
-0
-0
-0
-0
-0
-0
-0
-0
-0
-0
-0
-0
-0
-0
-0
-3.037383
-3.084808
-3.146787
-3.225373
-3.322715
-0
-0
-0
-0
-0
-0
-0
-0
-0
-0
-0
-0
-0
-0
-0
-0
-0
-0
-0
-0
-2.932494
-2.978057
-3.037391
-3.112372
-3.205011
-0
-0
-0
-0
-0
-0
-0
-0
-0
-0
-0
-0
-0
-0
-0
-0
-0
-0
-0
-0
-2.826822
-2.870507
-2.927193
-2.998607
-3.08658
-0
-0
-0
-0
-0
-0
-0
-0
-0
-0
-2.72358
-2.765384
-2.819499
-2.887481
-2.971012
-0
-0
-0
-0
-0
-0
-0
-0
-0
-0
-2.626234
-2.666245
-2.717923
-2.78272
-2.862158
-0
-0
-0
-0
-0
-0
-0
-0
-0
-0
-2.53667
-2.574903
-2.624327
-2.686193
-2.761924
-0
-0
-0
-0
-0
-0
-0
-0
-0
-0
-2.455472