/*--------------------------------*- C++ -*----------------------------------*\
| =========                 |                                                 |
| \\      /  F ield         | OpenFOAM: The Open Source CFD Toolbox           |
|  \\    /   O peration     | Version:  2306                                  |
|   \\  /    A nd           | Website:  www.openfoam.com                      |
|    \\/     M anipulation  |                                                 |
\*---------------------------------------------------------------------------*/
FoamFile
{
    version     2.0;
    format      ascii;
    arch        "LSB;label=32;scalar=64";
    class       volScalarField;
    location    "1.5/fuel";
    object      iDmdtfuel.H2O;
}
// * * * * * * * * * * * * * * * * * * * * * * * * * * * * * * * * * * * * * //

dimensions      [1 -3 -1 0 0 0 0];

internalField   nonuniform List<scalar> 
16000
(
88.08544
88.85275
80.35801
84.55156
90.40544
80.84189
85.26766
73.80448
77.32804
82.05126
92.75103
81.79431
86.71585
74.16858
77.7818
82.73306
68.54711
71.17932
75.16672
80.51455
95.8129
83.16407
88.90158
74.87636
78.67456
84.11165
68.84323
71.52216
75.59983
81.17726
64.17644
66.23114
69.29576
73.81959
79.84944
99.12871
84.82289
91.75168
75.87184
79.95767
86.19197
69.41475
72.18835
76.45178
82.51759
64.42715
66.5109
69.62381
74.24061
80.50615
60.42158
62.10639
64.56268
68.11053
73.21527
0
101.6619
86.43948
94.83418
77.03388
81.51035
88.90482
70.20838
73.1248
77.67595
84.54137
64.90879
67.05063
70.2611
75.06881
81.83521
60.63907
62.34392
64.83094
68.42966
73.63159
0
57.12758
58.55428
60.6106
63.50626
67.56752
0
0
103.2862
87.53658
97.18111
78.10199
83.0221
91.83966
71.11478
74.21715
79.15707
87.18384
65.57218
67.79971
71.15667
76.25907
83.84453
61.05554
62.80005
65.34837
69.04961
74.45079
0
57.31953
58.76084
60.8388
63.76748
67.88286
0
0
54.19088
55.43134
57.20179
59.65937
63.01643
0
0
0
104.2225
88.15171
98.68171
78.76513
84.04543
94.06865
71.91837
75.22027
80.59889
90.04787
66.31903
68.6546
72.20103
77.6999
86.47432
61.62589
63.42797
66.06628
69.92081
75.62879
0
57.68621
59.15622
61.27693
64.27129
68.49554
0
0
54.36242
55.61405
57.40059
59.88181
63.27454
0
0
0
51.5426
52.64156
54.20038
56.3389
59.21506
0
0
0
0
104.6478
88.4663
99.54504
79.08667
84.61801
95.49125
72.38863
75.84153
81.57251
92.21982
66.96543
69.41172
73.15957
79.10342
89.33399
62.26145
64.13435
66.88525
70.9369
77.05634
0
58.18626
59.69741
61.87986
64.97025
69.35677
0
0
54.6895
55.96293
57.78102
60.30883
63.77239
0
0
0
51.69742
52.80516
54.3765
56.53287
59.43489
0
0
0
0
49.13201
50.12108
51.51539
53.41304
55.93388
0
0
0
0
0
104.6478
88.5976
99.93668
79.22156
84.91046
96.30894
72.59118
76.14202
82.11642
93.6051
67.32881
69.85363
73.75158
80.04905
91.50158
62.8021
64.74498
67.60997
71.86952
78.4488
0
58.73918
60.3
62.55778
65.76757
70.36178
0
0
55.13404
56.43846
58.30156
60.89639
64.46317
0
0
0
51.99216
53.11699
54.71272
56.90401
59.85693
0
0
0
0
49.27281
50.269
51.67332
53.58504
56.12564
0
0
0
0
0
46.92178
47.82281
49.08637
50.79363
53.04224
0
0
0
0
0
0
104.2225
88.5976
99.93668
79.26738
85.03244
96.67971
72.65856
76.26777
82.39408
94.40144
67.47147
70.04333
74.03721
80.57676
92.88475
63.0973
65.08731
68.03165
72.44378
79.38503
0
59.20343
60.81192
63.14323
66.47283
71.2846
0
0
55.62259
56.96384
58.88084
61.55692
65.25135
0
0
0
52.39168
53.54058
55.17083
57.41177
60.43767
0
0
0
0
49.54057
50.55051
51.97427
53.91336
56.49256
0
0
0
0
0
47.05067
47.95757
49.22935
50.948
53.21235
0
0
0
0
0
0
44.88285
45.71211
46.86871
48.42212
50.4529
0
0
0
0
0
0
0
103.2862
88.4663
99.54504
79.26738
85.03244
96.67971
72.67381
76.31039
82.50991
94.76265
67.50811
70.10608
74.15649
80.84629
93.68081
63.20481
65.22109
68.21195
72.72015
79.90725
0
59.45133
61.09061
63.4703
66.88167
71.85095
0
0
56.02856
57.40435
59.3724
62.12694
65.9484
0
0
0
52.82855
54.00572
55.67666
57.97667
61.0906
0
0
0
0
49.90269
50.9319
52.38293
54.36061
56.99456
0
0
0
0
0
47.29554
48.21374
49.50141
51.24212
53.53705
0
0
0
0
0
0
45.00148
45.83566
46.99913
48.56199
50.60563
0
0
0
0
0
0
0
42.9924
43.76199
44.82962
46.25537
48.10802
0
0
0
0
0
0
0
0
101.6619
88.15171
98.68171
79.22156
84.91046
96.30894
72.67381
76.31039
82.50991
94.76265
67.51047
70.1201
74.19685
80.95883
94.04229
63.22523
65.25504
68.27122
72.83541
80.17432
0
59.53612
61.19154
63.59744
67.05574
72.12284
0
0
56.24145
57.63883
59.63901
62.44409
66.35082
0
0
0
53.18854
54.39166
56.10025
58.4556
61.65376
0
0
0
0
50.29701
51.3486
52.8314
54.85433
57.55307
0
0
0
0
0
47.62607
48.56001
49.86985
51.64146
53.97938
0
0
0
0
0
0
45.22667
46.0703
47.247
48.8281
50.89662
0
0
0
0
0
0
0
43.10209
43.87587
44.94933
46.38305
48.24645
0
0
0
0
0
0
0
0
41.2321
41.95124
42.94353
44.26165
45.96499
0
0
0
0
0
0
0
0
0
99.12871
87.53658
97.18111
79.08667
84.61801
95.49125
72.65856
76.26777
82.39408
94.40144
67.51047
70.1201
74.19685
80.95883
94.04229
63.22144
65.25696
68.28429
72.87439
80.28603
0
59.5471
61.21025
63.62926
67.11261
72.23613
0
0
56.31036
57.71849
59.73491
62.56663
66.52134
0
0
0
53.37448
54.59339
56.32485
58.71422
61.96563
0
0
0
0
50.61964
51.69143
53.20303
55.26734
58.02621
0
0
0
0
0
47.98472
48.93675
50.27215
52.07955
54.46764
0
0
0
0
0
0
45.53016
46.38687
47.58193
49.18843
51.2917
0
0
0
0
0
0
0
43.31019
44.09197
45.17663
46.62569
48.50982
0
0
0
0
0
0
0
0
41.33393
42.05668
43.05398
44.37894
46.09141
0
0
0
0
0
0
0
0
0
39.587
40.26281
41.19033
42.41624
43.99253
0
0
0
0
0
0
0
0
0
0
95.8129
86.43948
94.83418
78.76513
84.04543
94.06865
72.59118
76.14202
82.11642
93.6051
67.50811
70.10608
74.15649
80.84629
93.68081
63.22144
65.25696
68.28429
72.87439
80.28603
0
59.54015
61.20636
63.63076
67.125
72.27445
0
0
56.31539
57.72833
59.75221
62.59685
66.57669
0
0
0
53.43176
54.65817
56.40055
58.80655
62.08532
0
0
0
0
50.78415
51.86792
53.3965
55.48533
58.28044
0
0
0
0
0
48.27643
49.24453
50.60269
52.44217
54.87573
0
0
0
0
0
0
45.85845
46.73007
47.94611
49.58174
51.7251
0
0
0
0
0
0
0
43.59025
44.38306
45.48319
46.95351
48.86644
0
0
0
0
0
0
0
0
41.52703
42.25665
43.26356
44.6016
46.33164
0
0
0
0
0
0
0
0
0
39.68186
40.36082
41.29271
42.52454
44.10869
0
0
0
0
0
0
0
0
0
0
38.04462
38.68279
39.5539
40.69973
42.16627
0
0
0
0
0
0
0
0
0
0
92.75103
84.82289
91.75168
78.10199
83.0221
91.83966
72.38863
75.84153
81.57251
92.21982
67.47147
70.04333
74.03721
80.57676
92.88475
63.22523
65.25504
68.27122
72.83541
80.17432
0
59.54015
61.20636
63.63076
67.125
72.27445
0
0
56.30672
57.72145
59.74815
62.59797
66.58858
0
0
0
53.43286
54.66241
56.40939
58.8227
62.11434
0
0
0
0
50.83257
51.92179
53.45805
55.55815
58.37043
0
0
0
0
0
48.4235
49.4009
50.77214
52.63007
55.09002
0
0
0
0
0
0
46.12411
47.00877
48.24321
49.90452
52.0835
0
0
0
0
0
0
0
43.89238
44.69767
45.81533
47.30982
49.25568
0
0
0
0
0
0
0
0
41.78659
42.52564
43.54575
44.90187
46.65619
0
0
0
0
0
0
0
0
0
39.8617
40.54662
41.48684
42.72998
44.32923
0
0
0
0
0
0
0
0
0
0
38.13327
38.77421
39.64916
40.80016
42.27356
0
0
0
0
0
0
0
0
0
0
36.59456
37.19958
38.02105
39.09649
40.46707
0
0
0
0
0
0
0
0
0
0
90.40544
83.16407
88.90158
77.03388
81.51035
88.90482
71.91837
75.22027
80.59889
90.04787
67.32881
69.85363
73.75158
80.04905
91.50158
63.20481
65.22109
68.21195
72.72015
79.90725
0
59.5471
61.21025
63.62926
67.11261
72.23613
0
0
56.30672
57.72145
59.74815
62.59797
66.58858
0
0
0
53.42327
54.6539
56.40247
58.81842
62.11509
0
0
0
0
50.83099
51.92234
53.46157
55.56614
58.38563
0
0
0
0
0
48.46502
49.44647
50.82334
52.68925
55.16089
0
0
0
0
0
0
46.25675
47.14879
48.39353
50.06921
52.26823
0
0
0
0
0
0
0
44.13583
44.95186
46.08467
47.60016
49.5748
0
0
0
0
0
0
0
0
42.06596
42.81558
43.85055
45.22707
47.00894
0
0
0
0
0
0
0
0
0
40.10317
40.79624
41.74787
43.00657
44.62661
0
0
0
0
0
0
0
0
0
0
38.3013
38.94746
39.8297
40.99059
42.47711
0
0
0
0
0
0
0
0
0
0
36.67764
37.28511
38.10997
39.19
40.56661
0
0
0
0
0
0
0
0
0
0
35.228
35.80348
36.58077
37.5938
38.87955
0
0
0
0
0
0
0
0
0
0
88.85275
81.79431
86.71585
75.87184
79.95767
86.19197
71.11478
74.21715
79.15707
87.18384
66.96543
69.41172
73.15957
79.10342
89.33399
63.0973
65.08731
68.03165
72.44378
79.38503
0
59.53612
61.19154
63.59744
67.05574
72.12284
0
0
56.31539
57.72833
59.75221
62.59685
66.57669
0
0
0
53.42327
54.6539
56.40247
58.81842
62.11509
0
0
0
0
50.82093
51.91294
53.45309
55.55909
58.38107
0
0
0
0
0
48.46158
49.44449
50.82334
52.6921
55.16811
0
0
0
0
0
0
46.29277
47.18787
48.43684
50.11841
52.32577
0
0
0
0
0
0
0
44.25634
45.0783
46.21941
47.74635
49.73676
0
0
0
0
0
0
0
0
42.29024
43.04884
44.09647
45.49048
47.29609
0
0
0
0
0
0
0
0
0
40.36255
41.06469
42.02907
43.30522
44.94867
0
0
0
0
0
0
0
0
0
0
38.5267
39.17997
40.07217
41.24661
42.75113
0
0
0
0
0
0
0
0
0
0
36.8351
37.44717
38.27848
39.36721
40.75533
0
0
0
0
0
0
0
0
0
0
35.30606
35.88372
36.66403
37.68115
38.97225
0
0
0
0
0
0
0
0
0
0
33.93736
34.48627
35.22386
36.18103
37.39119
0
0
0
0
0
0
0
0
0
0
88.08544
80.84189
85.26766
74.87636
78.67456
84.11165
70.20838
73.1248
77.67595
84.54137
66.31903
68.6546
72.20103
77.6999
86.47432
62.8021
64.74498
67.60997
71.86952
78.4488
0
59.45133
61.09061
63.4703
66.88167
71.85095
0
0
56.31036
57.71849
59.73491
62.56663
66.52134
0
0
0
53.43286
54.66241
56.40939
58.8227
62.11434
0
0
0
0
50.82093
51.91294
53.45309
55.55909
58.38107
0
0
0
0
0
48.45134
49.43464
50.81402
52.68355
55.16084
0
0
0
0
0
0
46.28804
47.18414
48.43443
50.11789
52.32798
0
0
0
0
0
0
0
44.28792
45.11223
46.25656
47.78796
49.78456
0
0
0
0
0
0
0
0
42.40042
43.16387
44.21827
45.62161
47.43991
0
0
0
0
0
0
0
0
0
40.57011
41.27985
42.25497
43.54589
45.20928
0
0
0
0
0
0
0
0
0
0
38.76839
39.42951
40.33278
41.52231
43.047
0
0
0
0
0
0
0
0
0
0
37.04616
37.66446
38.50454
39.60518
41.00906
0
0
0
0
0
0
0
0
0
0
35.45401
36.03576
36.82179
37.84664
39.14793
0
0
0
0
0
0
0
0
0
0
34.01087
34.56174
35.30205
36.26287
37.4778
0
0
0
0
0
0
0
0
0
0
32.71603
33.2409
33.94255
34.84928
35.99149
0
0
0
0
0
0
0
0
0
0
80.35801
84.55156
74.16858
77.7818
82.73306
69.41475
72.18835
76.45178
82.51759
65.57218
67.79971
71.15667
76.25907
83.84453
62.26145
64.13435
66.88525
70.9369
77.05634
0
59.20343
60.81192
63.14323
66.47283
71.2846
0
0
56.24145
57.63883
59.63901
62.44409
66.35082
0
0
0
53.43176
54.65817
56.40055
58.80655
62.08532
0
0
0
0
50.83099
51.92234
53.46157
55.56614
58.38563
0
0
0
0
0
48.45134
49.43464
50.81402
52.68355
55.16084
0
0
0
0
0
0
46.27779
47.17411
48.42469
50.10853
52.31926
0
0
0
0
0
0
0
44.28231
45.10728
46.2525
47.78513
49.7835
0
0
0
0
0
0
0
0
42.42837
43.19363
44.25052
45.65729
47.4803
0
0
0
0
0
0
0
0
0
40.6714
41.38516
42.36589
43.66451
45.33832
0
0
0
0
0
0
0
0
0
0
38.96128
39.62888
40.54136
41.74354
43.28519
0
0
0
0
0
0
0
0
0
0
0
37.27212
37.89726
38.74701
39.86085
41.28228
0
0
0
0
0
0
0
0
0
0
35.65218
36.23944
37.03323
38.06863
39.38384
0
0
0
0
0
0
0
0
0
0
34.15021
34.70474
35.45016
36.41788
37.64191
0
0
0
0
0
0
0
0
0
0
32.78541
33.31204
34.01614
34.92616
36.07266
0
0
0
0
0
0
0
0
0
0
31.5583
32.06117
32.73012
33.59103
34.67172
0
0
0
0
0
0
0
0
0
0
73.80448
77.32804
82.05126
68.84323
71.52216
75.59983
81.17726
64.90879
67.05063
70.2611
75.06881
81.83521
61.62589
63.42797
66.06628
69.92081
75.62879
0
58.73918
60.3
62.55778
65.76757
70.36178
0
0
56.02856
57.40435
59.3724
62.12694
65.9484
0
0
0
53.37448
54.59339
56.32485
58.71422
61.96563
0
0
0
0
50.83257
51.92179
53.45805
55.55815
58.37043
0
0
0
0
0
48.46158
49.44449
50.82334
52.6921
55.16811
0
0
0
0
0
0
46.27779
47.17411
48.42469
50.10853
52.31926
0
0
0
0
0
0
0
44.27218
45.09725
46.24258
47.77537
49.77401
0
0
0
0
0
0
0
0
42.42215
43.18785
44.24531
45.65288
47.47702
0
0
0
0
0
0
0
0
0
40.69634
41.4115
42.39418
43.69548
45.37294
0
0
0
0
0
0
0
0
0
0
39.05489
39.72581
40.643
41.85164
43.40197
0
0
0
0
0
0
0
0
0
0
0
37.45204
38.08275
38.94045
40.06525
41.5013
0
0
0
0
0
0
0
0
0
0
0
0
35.86405
36.45733
37.25963
38.30666
39.63729
0
0
0
0
0
0
0
0
0
0
34.33673
34.89619
35.64853
36.62563
37.86204
0
0
0
0
0
0
0
0
0
0
32.91694
33.44685
34.15557
35.07179
36.22642
0
0
0
0
0
0
0
0
0
0
31.6239
32.12837
32.79955
33.66343
34.748
0
0
0
0
0
0
0
0
0
0
30.45915
30.94176
31.58072
32.3998
33.42447
0
0
0
0
0
0
0
0
0
0
68.54711
71.17932
75.16672
80.51455
64.42715
66.5109
69.62381
74.24061
80.50615
61.05554
62.80005
65.34837
69.04961
74.45079
0
58.18626
59.69741
61.87986
64.97025
69.35677
0
0
55.62259
56.96384
58.88084
61.55692
65.25135
0
0
0
53.18854
54.39166
56.10025
58.4556
61.65376
0
0
0
0
50.78415
51.86792
53.3965
55.48533
58.28044
0
0
0
0
0
48.46502
49.44647
50.82334
52.68925
55.16089
0
0
0
0
0
0
46.28804
47.18414
48.43443
50.11789
52.32798
0
0
0
0
0
0
0
44.27218
45.09725
46.24258
47.77537
49.77401
0
0
0
0
0
0
0
0
42.41222
43.17793
44.2354
45.64297
47.46715
0
0
0
0
0
0
0
0
0
40.68974
41.40516
42.38819
43.68998
45.36814
0
0
0
0
0
0
0
0
0
0
39.07733
39.74932
40.66804
41.8788
43.432
0
0
0
0
0
0
0
0
0
0
0
37.53894
38.17242
39.0341
40.16437
41.60776
0
0
0
0
0
0
0
0
0
0
0
0
36.03243
36.63054
37.43977
38.49634
39.83972
0
0
0
0
0
0
0
0
0
0
0
0
0
34.53592
35.1007
35.86061
36.84801
38.09807
0
0
0
0
0
0
0
0
0
0
33.09291
33.62722
34.34216
35.26679
36.43249
0
0
0
0
0
0
0
0
0
0
31.74831
32.25575
32.93108
33.80058
34.89248
0
0
0
0
0
0
0
0
0
0
30.5213
31.00536
31.64634
32.46813
33.49632
0
0
0
0
0
0
0
0
0
0
29.4143
29.87798
30.48926
31.26992
32.24336
0
0
0
0
0
0
0
0
0
0
64.17644
66.23114
69.29576
73.81959
79.84944
60.63907
62.34392
64.83094
68.42966
73.63159
0
57.68621
59.15622
61.27693
64.27129
68.49554
0
0
55.13404
56.43846
58.30156
60.89639
64.46317
0
0
0
52.82855
54.00572
55.67666
57.97667
61.0906
0
0
0
0
50.61964
51.69143
53.20303
55.26734
58.02621
0
0
0
0
0
48.4235
49.4009
50.77214
52.63007
55.09002
0
0
0
0
0
0
46.29277
47.18787
48.43684
50.11841
52.32577
0
0
0
0
0
0
0
44.28231
45.10728
46.2525
47.78513
49.7835
0
0
0
0
0
0
0
0
42.41222
43.17793
44.2354
45.64297
47.46715
0
0
0
0
0
0
0
0
0
40.68006
41.39544
42.37839
43.68008
45.35814
0
0
0
0
0
0
0
0
0
0
39.07051
39.74263
40.66153
41.87256
43.42617
0
0
0
0
0
0
0
0
0
0
0
37.55928
38.19359
39.05646
40.18841
41.63409
0
0
0
0
0
0
0
0
0
0
0
0
36.11341
36.71388
37.52649
38.58772
39.93737
0
0
0
0
0
0
0
0
0
0
0
0
0
34.69395
35.26298
36.02897
37.02475
38.28599
0
0
0
0
0
0
0
0
0
0
0
0
0
0
33.28063
33.81967
34.54138
35.47521
36.65307
0
0
0
0
0
0
0
0
0
0
31.91467
32.42608
33.10701
33.98411
35.08596
0
0
0
0
0
0
0
0
0
0
30.6392
31.12595
31.7707
32.59758
33.63242
0
0
0
0
0
0
0
0
0
0
29.47328
29.93829
30.55141
31.33454
32.31119
0
0
0
0
0
0
0
0
0
0
28.41985
28.86585
29.45131
30.19648
31.12281
0
0
0
0
0
0
0
0
0
0
60.42158
62.10639
64.56268
68.11053
73.21527
0
57.31953
58.76084
60.8388
63.76748
67.88286
0
0
54.6895
55.96293
57.78102
60.30883
63.77239
0
0
0
52.39168
53.54058
55.17083
57.41177
60.43767
0
0
0
0
50.29701
51.3486
52.8314
54.85433
57.55307
0
0
0
0
0
48.27643
49.24453
50.60269
52.44217
54.87573
0
0
0
0
0
0
46.25675
47.14879
48.39353
50.06921
52.26823
0
0
0
0
0
0
0
44.28792
45.11223
46.25656
47.78796
49.78456
0
0
0
0
0
0
0
0
42.42215
43.18785
44.24531
45.65288
47.47702
0
0
0
0
0
0
0
0
0
40.68006
41.39544
42.37839
43.68008
45.35814
0
0
0
0
0
0
0
0
0
0
39.06112
39.73314
40.65192
41.86278
43.41619
0
0
0
0
0
0
0
0
0
0
0
37.55237
38.1867
39.04962
40.18168
41.62757
0
0
0
0
0
0
0
0
0
0
0
0
36.13196
36.73307
37.54661
38.60918
39.96067
0
0
0
0
0
0
0
0
0
0
0
0
0
34.76971
35.34072
36.10962
37.10942
38.37604
0
0
0
0
0
0
0
0
0
0
0
0
0
0
33.42938
33.97214
34.69923
35.64049
36.82822
0
0
0
0
0
0
0
0
0
0
0
0
0
0
0
32.09199
32.60763
33.29462
34.17999
35.29275
0
0
0
0
0
0
0
0
0
0
30.79681
31.28713
31.93696
32.7707
33.81456
0
0
0
0
0
0
0
0
0
0
29.58522
30.05266
30.66922
31.45699
32.43968
0
0
0
0
0
0
0
0
0
0
28.47591
28.92312
29.51027
30.25771
31.18697
0
0
0
0
0
0
0
0
0
0
27.47253
27.90168
28.46306
29.17519
30.05799
0
0
0
0
0
0
0
0
0
0
57.12758
58.55428
60.6106
63.50626
67.56752
0
0
54.36242
55.61405
57.40059
59.88181
63.27454
0
0
0
51.99216
53.11699
54.71272
56.90401
59.85693
0
0
0
0
49.90269
50.9319
52.38293
54.36061
56.99456
0
0
0
0
0
47.98472
48.93675
50.27215
52.07955
54.46764
0
0
0
0
0
0
46.12411
47.00877
48.24321
49.90452
52.0835
0
0
0
0
0
0
0
44.25634
45.0783
46.21941
47.74635
49.73676
0
0
0
0
0
0
0
0
42.42837
43.19363
44.25052
45.65729
47.4803
0
0
0
0
0
0
0
0
0
40.68974
41.40516
42.38819
43.68998
45.36814
0
0
0
0
0
0
0
0
0
0
39.06112
39.73314
40.65192
41.86278
43.41619
0
0
0
0
0
0
0
0
0
0
0
37.54329
38.17749
39.04024
40.17209
41.61772
0
0
0
0
0
0
0
0
0
0
0
0
36.12504
36.72611
37.53961
38.60216
39.95369
0
0
0
0
0
0
0
0
0
0
0
0
0
34.78675
35.35824
36.12788
37.12874
38.39684
0
0
0
0
0
0
0
0
0
0
0
0
0
0
33.50049
34.04494
34.77453
35.71929
36.91169
0
0
0
0
0
0
0
0
0
0
0
0
0
0
0
32.23236
32.75128
33.44305
34.33503
35.45659
0
0
0
0
0
0
0
0
0
0
0
0
0
0
0
0
30.96466
31.45878
32.11408
32.95527
34.00896
0
0
0
0
0
0
0
0
0
0
29.73481
30.20549
30.82665
31.62067
32.61153
0
0
0
0
0
0
0
0
0
0
28.58236
29.0318
29.62209
30.37376
31.30854
0
0
0
0
0
0
0
0
0
0
27.5259
27.95617
28.5191
29.2333
30.11879
0
0
0
0
0
0
0
0
0
0
26.56913
26.98246
27.52104
28.20236
29.04466
0
0
0
0
0
0
0
0
0
0
54.19088
55.43134
57.20179
59.65937
63.01643
0
0
0
51.69742
52.80516
54.3765
56.53287
59.43489
0
0
0
0
49.54057
50.55051
51.97427
53.91336
56.49256
0
0
0
0
0
47.62607
48.56001
49.86985
51.64146
53.97938
0
0
0
0
0
0
45.85845
46.73007
47.94611
49.58174
51.7251
0
0
0
0
0
0
0
44.13583
44.95186
46.08467
47.60016
49.5748
0
0
0
0
0
0
0
0
42.40042
43.16387
44.21827
45.62161
47.43991
0
0
0
0
0
0
0
0
0
40.69634
41.4115
42.39418
43.69548
45.37294
0
0
0
0
0
0
0
0
0
0
39.07051
39.74263
40.66153
41.87256
43.42617
0
0
0
0
0
0
0
0
0
0
0
37.54329
38.17749
39.04024
40.17209
41.61772
0
0
0
0
0
0
0
0
0
0
0
0
36.11628
36.7172
37.5305
38.5928
39.94404
0
0
0
0
0
0
0
0
0
0
0
0
0
34.77991
35.35128
36.12082
37.12157
38.38959
0
0
0
0
0
0
0
0
0
0
0
0
0
0
33.51624
34.06105
34.7912
35.73682
36.93041
0
0
0
0
0
0
0
0
0
0
0
0
0
0
0
32.29931
32.81968
33.51362
34.40865
35.5343
0
0
0
0
0
0
0
0
0
0
0
0
0
0
0
0
31.09744
31.59445
32.25402
33.10113
34.1627
0
0
0
0
0
0
0
0
0
0
0
0
0
0
0
0
0
29.89402
30.36813
30.99422
31.79499
32.79474
0
0
0
0
0
0
0
0
0
0
28.72459
29.17697
29.77146
30.52882
31.47105
0
0
0
0
0
0
0
0
0
0
27.62729
28.0596
28.62541
29.34349
30.23403
0
0
0
0
0
0
0
0
0
0
26.62001
27.03436
27.57438
28.25762
29.10238
0
0
0
0
0
0
0
0
0
0
25.70692
26.10514
26.62236
27.27465
28.07923
0
0
0
0
0
0
0
0
0
0
51.5426
52.64156
54.20038
56.3389
59.21506
0
0
0
0
49.27281
50.269
51.67332
53.58504
56.12564
0
0
0
0
0
47.29554
48.21374
49.50141
51.24212
53.53705
0
0
0
0
0
0
45.53016
46.38687
47.58193
49.18843
51.2917
0
0
0
0
0
0
0
43.89238
44.69767
45.81533
47.30982
49.25568
0
0
0
0
0
0
0
0
42.29024
43.04884
44.09647
45.49048
47.29609
0
0
0
0
0
0
0
0
0
40.6714
41.38516
42.36589
43.66451
45.33832
0
0
0
0
0
0
0
0
0
0
39.07733
39.74932
40.66804
41.87879
43.432
0
0
0
0
0
0
0
0
0
0
0
37.55237
38.1867
39.04962
40.18168
41.62756
0
0
0
0
0
0
0
0
0
0
0
0
36.11628
36.7172
37.5305
38.5928
39.94404
0
0
0
0
0
0
0
0
0
0
0
0
0
34.77147
35.34267
36.112
37.11249
38.38018
0
0
0
0
0
0
0
0
0
0
0
0
0
0
33.50951
34.05416
34.78415
35.7296
36.92303
0
0
0
0
0
0
0
0
0
0
0
0
0
0
0
32.31396
32.83457
33.52895
34.42465
35.55128
0
0
0
0
0
0
0
0
0
0
0
0
0
0
0
0
31.16068
31.65893
32.32038
33.17016
34.23532
0
0
0
0
0
0
0
0
0
0
0
0
0
0
0
0
0
30.01989
30.49658
31.1265
31.93258
32.93942
0
0
0
0
0
0
0
0
0
0
0
0
0
0
0
0
0
0
28.87588
29.33136
29.93033
30.69381
31.64413
0
0
0
0
0
0
0
0
0
0
27.76273
28.19773
28.76739
29.49067
30.38802
0
0
0
0
0
0
0
0
0
0
26.71672
27.13295
27.67562
28.36243
29.21183
0
0
0
0
0
0
0
0
0
0
25.75549
26.15466
26.6732
27.32726
28.13411
0
0
0
0
0
0
0
0
0
0
24.88353
25.26719
25.76414
26.38926
27.15837
0
0
0
0
0
0
0
0
0
0
49.13201
50.12108
51.51539
53.41304
55.93388
0
0
0
0
0
47.05067
47.95757
49.22935
50.948
53.21235
0
0
0
0
0
0
45.22667
46.0703
47.247
48.8281
50.89662
0
0
0
0
0
0
0
43.59024
44.38306
45.48319
46.95351
48.86644
0
0
0
0
0
0
0
0
42.06597
42.81558
43.85055
45.22707
47.00894
0
0
0
0
0
0
0
0
0
40.5701
41.27985
42.25497
43.54589
45.20928
0
0
0
0
0
0
0
0
0
0
39.05489
39.72581
40.643
41.85163
43.40197
0
0
0
0
0
0
0
0
0
0
0
37.55928
38.19359
39.05645
40.18841
41.63409
0
0
0
0
0
0
0
0
0
0
0
0
36.12504
36.72611
37.53961
38.60216
39.95369
0
0
0
0
0
0
0
0
0
0
0
0
0
34.77147
35.34267
36.112
37.11249
38.38018
0
0
0
0
0
0
0
0
0
0
0
0
0
0
33.5014
34.04587
34.77563
35.72081
36.91391
0
0
0
0
0
0
0
0
0
0
0
0
0
0
0
32.3074
32.82781
33.52199
34.41747
35.54388
0
0
0
0
0
0
0
0
0
0
0
0
0
0
0
0
31.17439
31.67278
32.33456
33.18488
34.25083
0
0
0
0
0
0
0
0
0
0
0
0
0
0
0
0
0
30.07979
30.55753
31.18909
31.99752
33.00754
0
0
0
0
0
0
0
0
0
0
0
0
0
0
0
0
0
0
28.99546
29.45324
30.05565
30.82393
31.78065
0
0
0
0
0
0
0
0
0
0
0
0
0
0
0
0
0
0
0
27.90674
28.34456
28.9183
29.64717
30.55188
0
0
0
0
0
0
0
0
0
0
26.84589
27.26459
27.81079
28.50237
29.35802
0
0
0
0
0
0
0
0
0
0
25.84788
26.24877
26.76976
27.42711
28.23824
0
0
0
0
0
0
0
0
0
0
24.92995
25.31449
25.81267
26.43942
27.21064
0
0
0
0
0
0
0
0
0
0
24.09699
24.46637
24.94395
25.54339
26.27934
0
0
0
0
0
0
0
0
0
0
46.92178
47.82281
49.08637
50.79363
53.04224
0
0
0
0
0
0
45.00148
45.83566
46.99913
48.56199
50.60563
0
0
0
0
0
0
0
43.31019
44.09197
45.17663
46.62569
48.50982
0
0
0
0
0
0
0
0
41.78659
42.52564
43.54575
44.90187
46.65619
0
0
0
0
0
0
0
0
0
40.36255
41.06469
42.02907
43.30522
44.94867
0
0
0
0
0
0
0
0
0
0
38.96128
39.62888
40.54136
41.74354
43.28519
0
0
0
0
0
0
0
0
0
0
0
37.53894
38.17242
39.0341
40.16437
41.60776
0
0
0
0
0
0
0
0
0
0
0
0
36.13196
36.73307
37.54661
38.60918
39.96067
0
0
0
0
0
0
0
0
0
0
0
0
0
34.77991
35.35128
36.12082
37.12157
38.38959
0
0
0
0
0
0
0
0
0
0
0
0
0
0
33.5014
34.04587
34.77563
35.72081
36.91391
0
0
0
0
0
0
0
0
0
0
0
0
0
0
0
32.29961
32.81984
33.51378
34.40897
35.53505
0
0
0
0
0
0
0
0
0
0
0
0
0
0
0
0
31.16802
31.66619
32.32773
33.1778
34.24348
0
0
0
0
0
0
0
0
0
0
0
0
0
0
0
0
0
30.0927
30.57051
31.2023
32.01115
33.0218
0
0
0
0
0
0
0
0
0
0
0
0
0
0
0
0
0
0
29.05234
29.51103
30.11486
30.88521
31.84475
0
0
0
0
0
0
0
0
0
0
0
0
0
0
0
0
0
0
0
28.02055
28.46044
29.03728
29.7705
30.681
0
0
0
0
0
0
0
0
0
0
0
0
0
0
0
0
0
0
0
0
26.9832
27.40446
27.9544
28.65109
29.51348
0
0
0
0
0
0
0
0
0
0
25.97126
26.37441
26.89865
27.5604
28.37728
0
0
0
0
0
0
0
0
0
0
25.01832
25.40446
25.90489
26.53468
27.30985
0
0
0
0
0
0
0
0
0
0
24.14142
24.51162
24.99033
25.59129
26.32919
0
0
0
0
0
0
0
0
0
0
23.34542
23.70086
24.15968
24.7347
25.43939
0
0
0
0
0
0
0
0
0
0
44.88285
45.71211
46.86871
48.42212
50.4529
0
0
0
0
0
0
0
43.10209
43.87587
44.94933
46.38305
48.24645
0
0
0
0
0
0
0
0
41.52703
42.25665
43.26356
44.6016
46.33164
0
0
0
0
0
0
0
0
0
40.10317
40.79624
41.74787
43.00657
44.62661
0
0
0
0
0
0
0
0
0
0
38.76839
39.42951
40.33278
41.52231
43.047
0
0
0
0
0
0
0
0
0
0
37.45204
38.08275
38.94045
40.06525
41.5013
0
0
0
0
0
0
0
0
0
0
0
0
36.11341
36.71388
37.52649
38.58772
39.93737
0
0
0
0
0
0
0
0
0
0
0
0
0
34.78675
35.35824
36.12788
37.12874
38.39684
0
0
0
0
0
0
0
0
0
0
0
0
0
0
33.50951
34.05416
34.78415
35.7296
36.92304
0
0
0
0
0
0
0
0
0
0
0
0
0
0
0
32.29961
32.81984
33.51378
34.40897
35.53505
0
0
0
0
0
0
0
0
0
0
0
0
0
0
0
0
31.16056
31.65853
32.31983
33.16961
34.23494
0
0
0
0
0
0
0
0
0
0
0
0
0
0
0
0
0
30.08656
30.56412
31.19564
32.00421
33.01457
0
0
0
0
0
0
0
0
0
0
0
0
0
0
0
0
0
0
29.06455
29.52326
30.12725
30.89791
31.85796
0
0
0
0
0
0
0
0
0
0
0
0
0
0
0
0
0
0
0
28.07468
28.51536
29.09346
29.82851
30.74152
0
0
0
0
0
0
0
0
0
0
0
0
0
0
0
0
0
0
0
0
27.09171
27.51484
28.0676
28.76824
29.6359
0
0
0
0
0
0
0
0
0
0
0
0
0
0
0
0
0
0
0
0
26.10237
26.50786
27.03553
27.70198
28.52504
0
0
0
0
0
0
0
0
0
0
25.13632
25.52455
26.02797
26.66183
27.4423
0
0
0
0
0
0
0
0
0
0
24.22605
24.59772
25.07853
25.6823
26.42386
0
0
0
0
0
0
0
0
0
0
23.38799
23.74419
24.20406
24.78049
25.487
0
0
0
0
0
0
0
0
0
0
22.62792
22.96889
23.40958
23.96114
24.63621
0
0
0
0
0
0
0
0
0
0
42.9924
43.76199
44.82962
46.25537
48.10802
0
0
0
0
0
0
0
0
41.33393
42.05668
43.05398
44.37894
46.09141
0
0
0
0
0
0
0
0
0
39.8617
40.54662
41.48684
42.72998
44.32923
0
0
0
0
0
0
0
0
0
0
38.5267
39.17997
40.07217
41.24661
42.75113
0
0
0
0
0
0
0
0
0
0
37.27212
37.89725
38.74701
39.86085
41.28228
0
0
0
0
0
0
0
0
0
0
36.03243
36.63054
37.43977
38.49634
39.83972
0
0
0
0
0
0
0
0
0
0
0
0
0
34.76971
35.34072
36.10962
37.10942
38.37604
0
0
0
0
0
0
0
0
0
0
0
0
0
0
33.51624
34.06105
34.7912
35.73681
36.93041
0
0
0
0
0
0
0
0
0
0
0
0
0
0
0
32.3074
32.82781
33.52199
34.41747
35.54388
0
0
0
0
0
0
0
0
0
0
0
0
0
0
0
0
31.16056
31.65853
32.31983
33.16961
34.23494
0
0
0
0
0
0
0
0
0
0
0
0
0
0
0
0
0
30.07941
30.55678
31.18805
31.99633
33.00635
0
0
0
0
0
0
0
0
0
0
0
0
0
0
0
0
0
0
29.05865
29.51709
30.12079
30.89115
31.85087
0
0
0
0
0
0
0
0
0
0
0
0
0
0
0
0
0
0
0
28.0863
28.52695
29.10514
29.84042
30.75383
0
0
0
0
0
0
0
0
0
0
0
0
0
0
0
0
0
0
0
0
27.14335
27.56716
28.12103
28.82331
29.6932
0
0
0
0
0
0
0
0
0
0
0
0
0
0
0
0
0
0
0
0
26.20601
26.61319
27.14342
27.81348
28.64135
0
0
0
0
0
0
0
0
0
0
0
0
0
0
0
0
0
0
0
0
25.26169
25.65207
26.15864
26.79683
27.58299
0
0
0
0
0
0
0
0
0
0
24.33907
24.71265
25.19624
25.80377
26.55023
0
0
0
0
0
0
0
0
0
0
23.46914
23.82671
24.28852
24.86757
25.57746
0
0
0
0
0
0
0
0
0
0
22.66876
23.01043
23.4521
24.00497
24.68173
0
0
0
0
0
0
0
0
0
0
21.94315
22.26965
22.69199
23.22103
23.86778
0
0
0
0
0
0
0
0
0
0
41.2321
41.95124
42.94353
44.26165
45.96499
0
0
0
0
0
0
0
0
0
39.68186
40.36082
41.29271
42.52454
44.10869
0
0
0
0
0
0
0
0
0
0
38.3013
38.94746
39.8297
40.99059
42.47711
0
0
0
0
0
0
0
0
0
0
37.04616
37.66446
38.50453
39.60518
41.00906
0
0
0
0
0
0
0
0
0
0
35.86405
36.45733
37.25963
38.30665
39.63729
0
0
0
0
0
0
0
0
0
0
34.69396
35.26298
36.02897
37.02475
38.28598
0
0
0
0
0
0
0
0
0
0
0
0
0
0
33.50049
34.04495
34.77453
35.71929
36.91169
0
0
0
0
0
0
0
0
0
0
0
0
0
0
0
32.31396
32.83457
33.52895
34.42465
35.55128
0
0
0
0
0
0
0
0
0
0
0
0
0
0
0
0
31.16803
31.66619
32.32773
33.1778
34.24348
0
0
0
0
0
0
0
0
0
0
0
0
0
0
0
0
0
30.07941
30.55678
31.18805
31.99633
33.00635
0
0
0
0
0
0
0
0
0
0
0
0
0
0
0
0
0
0
29.05181
29.51005
30.11351
30.88358
31.84296
0
0
0
0
0
0
0
0
0
0
0
0
0
0
0
0
0
0
0
28.08064
28.52102
29.09891
29.83387
30.74694
0
0
0
0
0
0
0
0
0
0
0
0
0
0
0
0
0
0
0
0
27.15444
27.57818
28.1321
28.83454
29.70475
0
0
0
0
0
0
0
0
0
0
0
0
0
0
0
0
0
0
0
0
26.25539
26.66313
27.19435
27.86588
28.69575
0
0
0
0
0
0
0
0
0
0
0
0
0
0
0
0
0
0
0
0
25.36082
25.75274
26.26165
26.90314
27.69372
0
0
0
0
0
0
0
0
0
0
0
0
0
0
0
0
0
0
0
0
24.45913
24.83467
25.32118
25.93269
26.6844
0
0
0
0
0
0
0
0
0
0
23.57751
23.93686
24.40122
24.98377
25.6982
0
0
0
0
0
0
0
0
0
0
22.74668
23.0896
23.53308
24.08838
24.7683
0
0
0
0
0
0
0
0
0
0
21.98237
22.30953
22.73277
23.26304
23.91136
0
0
0
0
0
0
0
0
0
0
21.29177
21.6019
22.00615
22.51275
23.13246
0
0
0
0
0
0
0
0
0
0
39.58699
40.26281
41.19033
42.41624
43.99253
0
0
0
0
0
0
0
0
0
0
38.13327
38.7742
39.64916
40.80016
42.27356
0
0
0
0
0
0
0
0
0
0
36.8351
37.44716
38.27847
39.36721
40.75533
0
0
0
0
0
0
0
0
0
0
35.65218
36.23944
37.03323
38.06863
39.38384
0
0
0
0
0
0
0
0
0
0
34.53592
35.10071
35.8606
36.84801
38.09806
0
0
0
0
0
0
0
0
0
0
33.42939
33.97214
34.69923
35.64049
36.82822
0
0
0
0
0
0
0
0
0
0
0
0
0
0
0
32.29931
32.81968
33.51363
34.40865
35.5343
0
0
0
0
0
0
0
0
0
0
0
0
0
0
0
0
31.17439
31.67279
32.33456
33.18488
34.25083
0
0
0
0
0
0
0
0
0
0
0
0
0
0
0
0
0
30.08656
30.56412
31.19564
32.00421
33.01457
0
0
0
0
0
0
0
0
0
0
0
0
0
0
0
0
0
0
29.05181
29.51005
30.11351
30.88358
31.84296
0
0
0
0
0
0
0
0
0
0
0
0
0
0
0
0
0
0
0
28.07411
28.51428
29.09193
29.82661
30.73933
0
0
0
0
0
0
0
0
0
0
0
0
0
0
0
0
0
0
0
0
27.14904
27.5725
28.12611
28.82823
29.69808
0
0
0
0
0
0
0
0
0
0
0
0
0
0
0
0
0
0
0
0
26.26603
26.67368
27.2049
27.87653
28.70665
0
0
0
0
0
0
0
0
0
0
0
0
0
0
0
0
0
0
0
0
25.40811
25.80054
26.31031
26.95311
27.74551
0
0
0
0
0
0
0
0
0
0
0
0
0
0
0
0
0
0
0
0
24.55412
24.93104
25.41969
26.03423
26.79
0
0
0
0
0
0
0
0
0
0
0
0
0
0
0
0
0
0
0
0
23.69263
24.05379
24.52083
25.10708
25.82636
0
0
0
0
0
0
0
0
0
0
22.85074
23.19529
23.64115
24.19968
24.88382
0
0
0
0
0
0
0
0
0
0
22.05725
22.38559
22.81051
23.34304
23.99429
0
0
0
0
0
0
0
0
0
0
21.32949
21.6402
22.04531
22.55305
23.17423
0
0
0
0
0
0
0
0
0
0
20.6734
20.96633
21.35088
21.8356
22.42865
0
0
0
0
0
0
0
0
0
0
38.04462
38.68279
39.5539
40.69973
42.16627
0
0
0
0
0
0
0
0
0
0
36.67764
37.2851
38.10997
39.19
40.56661
0
0
0
0
0
0
0
0
0
0
35.45401
36.03575
36.82178
37.84664
39.14793
0
0
0
0
0
0
0
0
0
0
34.33674
34.89619
35.64853
36.62563
37.86203
0
0
0
0
0
0
0
0
0
0
33.28064
33.81968
34.54138
35.47521
36.65306
0
0
0
0
0
0
0
0
0
0
32.23236
32.75128
33.44305
34.33504
35.45659
0
0
0
0
0
0
0
0
0
0
0
0
0
0
0
0
31.16068
31.65893
32.32038
33.17016
34.23532
0
0
0
0
0
0
0
0
0
0
0
0
0
0
0
0
0
30.0927
30.57051
31.2023
32.01115
33.02181
0
0
0
0
0
0
0
0
0
0
0
0
0
0
0
0
0
0
29.05865
29.51709
30.12079
30.89115
31.85087
0
0
0
0
0
0
0
0
0
0
0
0
0
0
0
0
0
0
0
28.07411
28.51428
29.09193
29.82661
30.73933
0
0
0
0
0
0
0
0
0
0
0
0
0
0
0
0
0
0
0
0
27.14279
27.56606
28.11943
28.82126
29.69079
0
0
0
0
0
0
0
0
0
0
0
0
0
0
0
0
0
0
0
0
26.26088
26.66825
27.19916
27.87047
28.70022
0
0
0
0
0
0
0
0
0
0
0
0
0
0
0
0
0
0
0
0
25.41835
25.81067
26.3204
26.96327
27.75585
0
0
0
0
0
0
0
0
0
0
0
0
0
0
0
0
0
0
0
0
24.5995
24.97685
25.46628
26.08199
26.83941
0
0
0
0
0
0
0
0
0
0
0
0
0
0
0
0
0
0
0
0
23.78375
24.14619
24.61519
25.20423
25.92724
0
0
0
0
0
0
0
0
0
0
0
0
0
0
0
0
0
0
0
0
22.96128
23.30748
23.75583
24.31777
25.00642
0
0
0
0
0
0
0
0
0
0
22.15725
22.48713
22.91424
23.44979
24.10496
0
0
0
0
0
0
0
0
0
0
21.40157
21.71334
22.12003
22.62987
23.25379
0
0
0
0
0
0
0
0
0
0
20.70968
21.00319
21.38852
21.87431
22.46873
0
0
0
0
0
0
0
0
0
0
20.09271
20.36262
20.72692
21.18843
21.75566
0
0
0
0
0
0
0
0
0
0
36.59455
37.19958
38.02104
39.09649
40.46707
0
0
0
0
0
0
0
0
0
0
35.30606
35.88372
36.66403
37.68115
38.97225
0
0
0
0
0
0
0
0
0
0
34.15022
34.70475
35.45016
36.41788
37.6419
0
0
0
0
0
0
0
0
0
0
33.09292
33.62722
34.34216
35.26679
36.43249
0
0
0
0
0
0
0
0
0
0
32.092
32.60764
33.29463
34.17999
35.29274
0
0
0
0
0
0
0
0
0
0
31.09744
31.59446
32.25402
33.10113
34.1627
0
0
0
0
0
0
0
0
0
0
0
0
0
0
0
0
0
30.07979
30.55753
31.18909
31.99752
33.00754
0
0
0
0
0
0
0
0
0
0
0
0
0
0
0
0
0
0
29.06455
29.52326
30.12725
30.89791
31.85796
0
0
0
0
0
0
0
0
0
0
0
0
0
0
0
0
0
0
0
28.08064