/*--------------------------------*- C++ -*----------------------------------*\
| =========                 |                                                 |
| \\      /  F ield         | OpenFOAM: The Open Source CFD Toolbox           |
|  \\    /   O peration     | Version:  2306                                  |
|   \\  /    A nd           | Website:  www.openfoam.com                      |
|    \\/     M anipulation  |                                                 |
\*---------------------------------------------------------------------------*/
FoamFile
{
    version     2.0;
    format      ascii;
    arch        "LSB;label=32;scalar=64";
    class       volScalarField;
    location    "1.5/fuel";
    object      j;
}
// * * * * * * * * * * * * * * * * * * * * * * * * * * * * * * * * * * * * * //

dimensions      [0 -3 0 0 0 1 0];

internalField   nonuniform List<scalar> 
16000
(
9.435283e+08
9.517473e+08
8.607558e+08
9.05675e+08
9.68379e+08
8.659389e+08
9.133455e+08
7.905576e+08
8.283002e+08
8.78893e+08
9.935038e+08
8.761407e+08
9.288579e+08
7.944576e+08
8.331607e+08
8.861962e+08
7.342432e+08
7.624381e+08
8.051492e+08
8.624325e+08
1.026301e+09
8.908129e+08
9.522704e+08
8.020391e+08
8.427234e+08
9.009629e+08
7.374151e+08
7.661105e+08
8.097885e+08
8.695312e+08
6.874267e+08
7.094357e+08
7.422624e+08
7.907194e+08
8.553083e+08
1.061818e+09
9.085814e+08
9.827992e+08
8.127021e+08
8.564676e+08
9.232463e+08
7.435369e+08
7.732464e+08
8.189142e+08
8.838882e+08
6.901122e+08
7.124323e+08
7.457762e+08
7.952292e+08
8.623426e+08
6.472065e+08
6.652534e+08
6.915639e+08
7.295668e+08
7.842462e+08
0
1.088952e+09
9.258976e+08
1.015817e+09
8.251493e+08
8.730991e+08
9.523051e+08
7.52038e+08
7.832772e+08
8.320269e+08
9.055659e+08
6.952713e+08
7.182136e+08
7.526026e+08
8.041004e+08
8.765789e+08
6.495361e+08
6.677976e+08
6.944374e+08
7.329851e+08
7.887056e+08
0
6.119227e+08
6.272049e+08
6.492311e+08
6.802481e+08
7.237503e+08
0
0
1.106351e+09
9.376491e+08
1.040957e+09
8.365904e+08
8.892922e+08
9.837416e+08
7.617469e+08
7.949779e+08
8.478919e+08
9.338708e+08
7.023772e+08
7.262375e+08
7.621956e+08
8.168499e+08
8.981017e+08
6.539971e+08
6.726835e+08
6.999798e+08
7.396257e+08
7.974806e+08
0
6.139788e+08
6.294174e+08
6.516755e+08
6.830461e+08
7.27128e+08
0
0
5.804662e+08
5.937535e+08
6.127177e+08
6.390421e+08
6.750013e+08
0
0
0
1.116381e+09
9.442381e+08
1.05703e+09
8.436936e+08
9.002536e+08
1.007617e+09
7.703545e+08
8.057228e+08
8.633359e+08
9.645489e+08
7.103771e+08
7.353946e+08
7.733821e+08
8.322834e+08
9.262707e+08
6.601064e+08
6.794095e+08
7.076697e+08
7.489576e+08
8.100987e+08
0
6.179066e+08
6.336526e+08
6.563685e+08
6.884427e+08
7.336908e+08
0
0
5.823037e+08
5.957105e+08
6.148471e+08
6.414247e+08
6.77766e+08
0
0
0
5.520992e+08
5.638707e+08
5.80568e+08
6.034748e+08
6.342828e+08
0
0
0
0
1.120936e+09
9.476079e+08
1.066278e+09
8.471379e+08
9.063869e+08
1.022856e+09
7.753917e+08
8.123774e+08
8.73765e+08
9.878137e+08
7.17301e+08
7.435044e+08
7.836496e+08
8.473173e+08
9.569021e+08
6.669143e+08
6.869758e+08
7.164421e+08
7.598415e+08
8.2539e+08
0
6.232628e+08
6.394495e+08
6.628268e+08
6.959297e+08
7.429158e+08
0
0
5.858072e+08
5.994477e+08
6.189221e+08
6.459987e+08
6.830987e+08
0
0
0
5.537575e+08
5.656231e+08
5.824545e+08
6.055525e+08
6.366375e+08
0
0
0
0
5.262781e+08
5.368726e+08
5.518077e+08
5.721345e+08
5.991365e+08
0
0
0
0
0
1.120936e+09
9.490142e+08
1.070473e+09
8.485827e+08
9.095194e+08
1.031614e+09
7.775613e+08
8.155962e+08
8.79591e+08
1.002652e+09
7.211934e+08
7.48238e+08
7.89991e+08
8.574463e+08
9.801203e+08
6.727054e+08
6.935166e+08
7.24205e+08
7.698313e+08
8.403052e+08
0
6.291854e+08
6.459041e+08
6.700884e+08
7.044701e+08
7.536811e+08
0
0
5.905689e+08
6.045412e+08
6.244979e+08
6.522924e+08
6.90498e+08
0
0
0
5.569146e+08
5.689632e+08
5.86056e+08
6.09528e+08
6.411582e+08
0
0
0
0
5.277863e+08
5.38457e+08
5.534994e+08
5.739768e+08
6.011905e+08
0
0
0
0
0
5.026032e+08
5.122546e+08
5.257893e+08
5.440765e+08
5.681626e+08
0
0
0
0
0
0
1.116381e+09
9.490142e+08
1.070473e+09
8.490735e+08
9.10826e+08
1.035586e+09
7.78283e+08
8.169431e+08
8.825652e+08
1.011182e+09
7.227215e+08
7.5027e+08
7.930504e+08
8.63099e+08
9.949361e+08
6.758675e+08
6.971835e+08
7.287218e+08
7.759824e+08
8.503338e+08
0
6.341582e+08
6.513876e+08
6.763595e+08
7.120245e+08
7.635658e+08
0
0
5.95802e+08
6.101689e+08
6.307029e+08
6.593677e+08
6.989406e+08
0
0
0
5.611941e+08
5.735006e+08
5.90963e+08
6.149668e+08
6.473788e+08
0
0
0
0
5.306544e+08
5.414724e+08
5.56723e+08
5.774936e+08
6.051208e+08
0
0
0
0
0
5.039838e+08
5.136981e+08
5.273208e+08
5.457301e+08
5.699847e+08
0
0
0
0
0
0
4.807632e+08
4.896458e+08
5.020348e+08
5.186741e+08
5.404269e+08
0
0
0
0
0
0
0
1.106351e+09
9.476079e+08
1.066278e+09
8.490735e+08
9.10826e+08
1.035586e+09
7.784464e+08
8.173997e+08
8.838059e+08
1.015051e+09
7.231139e+08
7.509421e+08
7.943281e+08
8.65986e+08
1.003463e+09
6.770191e+08
6.986165e+08
7.306531e+08
7.789428e+08
8.559275e+08
0
6.368136e+08
6.543728e+08
6.798629e+08
7.164039e+08
7.696323e+08
0
0
6.001506e+08
6.148874e+08
6.359682e+08
6.654735e+08
7.064071e+08
0
0
0
5.658737e+08
5.784829e+08
5.963813e+08
6.210178e+08
6.543727e+08
0
0
0
0
5.345332e+08
5.455577e+08
5.611004e+08
5.822844e+08
6.104979e+08
0
0
0
0
0
5.066067e+08
5.16442e+08
5.302349e+08
5.488806e+08
5.734627e+08
0
0
0
0
0
0
4.820339e+08
4.909692e+08
5.034318e+08
5.201724e+08
5.420628e+08
0
0
0
0
0
0
0
4.605137e+08
4.687571e+08
4.80193e+08
4.954649e+08
5.153096e+08
0
0
0
0
0
0
0
0
1.088952e+09
9.442381e+08
1.05703e+09
8.485827e+08
9.095194e+08
1.031614e+09
7.784464e+08
8.173997e+08
8.838059e+08
1.015051e+09
7.231393e+08
7.510923e+08
7.947605e+08
8.671915e+08
1.007335e+09
6.772378e+08
6.989802e+08
7.31288e+08
7.801773e+08
8.587882e+08
0
6.377218e+08
6.554539e+08
6.812248e+08
7.182684e+08
7.725447e+08
0
0
6.02431e+08
6.17399e+08
6.38824e+08
6.688706e+08
7.107176e+08
0
0
0
5.697297e+08
5.82617e+08
6.009185e+08
6.261478e+08
6.60405e+08
0
0
0
0
5.38757e+08
5.500211e+08
5.659042e+08
5.875728e+08
6.164804e+08
0
0
0
0
0
5.101473e+08
5.201511e+08
5.341815e+08
5.531581e+08
5.782008e+08
0
0
0
0
0
0
4.844461e+08
4.934826e+08
5.060868e+08
5.230228e+08
5.451797e+08
0
0
0
0
0
0
0
4.616885e+08
4.699769e+08
4.814753e+08
4.968326e+08
5.167925e+08
0
0
0
0
0
0
0
0
4.416582e+08
4.493612e+08
4.599901e+08
4.741092e+08
4.923545e+08
0
0
0
0
0
0
0
0
0
1.061818e+09
9.376491e+08
1.040957e+09
8.471379e+08
9.063869e+08
1.022856e+09
7.78283e+08
8.169431e+08
8.825652e+08
1.011182e+09
7.231393e+08
7.510923e+08
7.947605e+08
8.671915e+08
1.007335e+09
6.771972e+08
6.990007e+08
7.31428e+08
7.805949e+08
8.599848e+08
0
6.378395e+08
6.556543e+08
6.815656e+08
7.188776e+08
7.737582e+08
0
0
6.031691e+08
6.182523e+08
6.398512e+08
6.701833e+08
7.125441e+08
0
0
0
5.717214e+08
5.847778e+08
6.033244e+08
6.289181e+08
6.637456e+08
0
0
0
0
5.422129e+08
5.536934e+08
5.698849e+08
5.919967e+08
6.215485e+08
0
0
0
0
0
5.139889e+08
5.241866e+08
5.384907e+08
5.578507e+08
5.834308e+08
0
0
0
0
0
0
4.876969e+08
4.968735e+08
5.096745e+08
5.268825e+08
5.494117e+08
0
0
0
0
0
0
0
4.639176e+08
4.722917e+08
4.8391e+08
4.994317e+08
5.196136e+08
0
0
0
0
0
0
0
0
4.427489e+08
4.504906e+08
4.611733e+08
4.753655e+08
4.937087e+08
0
0
0
0
0
0
0
0
0
4.240366e+08
4.312756e+08
4.412108e+08
4.543421e+08
4.712265e+08
0
0
0
0
0
0
0
0
0
0
1.026301e+09
9.258976e+08
1.015817e+09
8.436936e+08
9.002536e+08
1.007617e+09
7.775613e+08
8.155962e+08
8.79591e+08
1.002652e+09
7.231139e+08
7.509421e+08
7.943281e+08
8.65986e+08
1.003463e+09
6.771972e+08
6.990007e+08
7.31428e+08
7.805949e+08
8.599848e+08
0
6.37765e+08
6.556127e+08
6.815816e+08
7.190103e+08
7.741687e+08
0
0
6.032229e+08
6.183577e+08
6.400365e+08
6.705069e+08
7.13137e+08
0
0
0
5.723349e+08
5.854716e+08
6.041351e+08
6.299071e+08
6.650276e+08
0
0
0
0
5.43975e+08
5.555838e+08
5.719572e+08
5.943318e+08
6.242716e+08
0
0
0
0
0
5.171136e+08
5.274833e+08
5.420313e+08
5.61735e+08
5.87802e+08
0
0
0
0
0
0
4.912133e+08
5.005497e+08
5.135754e+08
5.310954e+08
5.54054e+08
0
0
0
0
0
0
0
4.669174e+08
4.754097e+08
4.871937e+08
5.02943e+08
5.234335e+08
0
0
0
0
0
0
0
0
4.448173e+08
4.526326e+08
4.634181e+08
4.777506e+08
4.962819e+08
0
0
0
0
0
0
0
0
0
4.250527e+08
4.323254e+08
4.423074e+08
4.555021e+08
4.724708e+08
0
0
0
0
0
0
0
0
0
0
4.075154e+08
4.143512e+08
4.236821e+08
4.359556e+08
4.516645e+08
0
0
0
0
0
0
0
0
0
0
9.935038e+08
9.085814e+08
9.827992e+08
8.365904e+08
8.892922e+08
9.837416e+08
7.753917e+08
8.123774e+08
8.73765e+08
9.878137e+08
7.227215e+08
7.5027e+08
7.930504e+08
8.63099e+08
9.949361e+08
6.772378e+08
6.989802e+08
7.31288e+08
7.801773e+08
8.587882e+08
0
6.37765e+08
6.556127e+08
6.815816e+08
7.190103e+08
7.741687e+08
0
0
6.031301e+08
6.18284e+08
6.399931e+08
6.705189e+08
7.132644e+08
0
0
0
5.723467e+08
5.855171e+08
6.042299e+08
6.3008e+08
6.653385e+08
0
0
0
0
5.444937e+08
5.561609e+08
5.726166e+08
5.951118e+08
6.252356e+08
0
0
0
0
0
5.186889e+08
5.291584e+08
5.438464e+08
5.637476e+08
5.900974e+08
0
0
0
0
0
0
4.94059e+08
5.03535e+08
5.167577e+08
5.345528e+08
5.578931e+08
0
0
0
0
0
0
0
4.701538e+08
4.787796e+08
4.907515e+08
5.067597e+08
5.276028e+08
0
0
0
0
0
0
0
0
4.475976e+08
4.555139e+08
4.664408e+08
4.809669e+08
4.997584e+08
0
0
0
0
0
0
0
0
0
4.269791e+08
4.343156e+08
4.443868e+08
4.577027e+08
4.74833e+08
0
0
0
0
0
0
0
0
0
0
4.08465e+08
4.153304e+08
4.247024e+08
4.370314e+08
4.528138e+08
0
0
0
0
0
0
0
0
0
0
3.91983e+08
3.984638e+08
4.072629e+08
4.187825e+08
4.334635e+08
0
0
0
0
0
0
0
0
0
0
9.68379e+08
8.908129e+08
9.522704e+08
8.251493e+08
8.730991e+08
9.523051e+08
7.703545e+08
8.057228e+08
8.633359e+08
9.645489e+08
7.211934e+08
7.48238e+08
7.89991e+08
8.574463e+08
9.801203e+08
6.770191e+08
6.986165e+08
7.306531e+08
7.789428e+08
8.559275e+08
0
6.378395e+08
6.556543e+08
6.815656e+08
7.188776e+08
7.737582e+08
0
0
6.031301e+08
6.18284e+08
6.399931e+08
6.705189e+08
7.132644e+08
0
0
0
5.72244e+08
5.854259e+08
6.041558e+08
6.300343e+08
6.653466e+08
0
0
0
0
5.444767e+08
5.561668e+08
5.726542e+08
5.951973e+08
6.253984e+08
0
0
0
0
0
5.191337e+08
5.296465e+08
5.443948e+08
5.643815e+08
5.908565e+08
0
0
0
0
0
0
4.954797e+08
5.050348e+08
5.183679e+08
5.363169e+08
5.598718e+08
0
0
0
0
0
0
0
4.727615e+08
4.815024e+08
4.936365e+08
5.098697e+08
5.31021e+08
0
0
0
0
0
0
0
0
4.505901e+08
4.586196e+08
4.697057e+08
4.844503e+08
5.035369e+08
0
0
0
0
0
0
0
0
0
4.295656e+08
4.369894e+08
4.471828e+08
4.606654e+08
4.780185e+08
0
0
0
0
0
0
0
0
0
0
4.102648e+08
4.171862e+08
4.266363e+08
4.390712e+08
4.54994e+08
0
0
0
0
0
0
0
0
0
0
3.92873e+08
3.993799e+08
4.082154e+08
4.197841e+08
4.345297e+08
0
0
0
0
0
0
0
0
0
0
3.773451e+08
3.835094e+08
3.918353e+08
4.026865e+08
4.164588e+08
0
0
0
0
0
0
0
0
0
0
9.517473e+08
8.761407e+08
9.288579e+08
8.127021e+08
8.564676e+08
9.232463e+08
7.617469e+08
7.949779e+08
8.478919e+08
9.338708e+08
7.17301e+08
7.435044e+08
7.836496e+08
8.473173e+08
9.569021e+08
6.758675e+08
6.971835e+08
7.287218e+08
7.759824e+08
8.503338e+08
0
6.377218e+08
6.554539e+08
6.812248e+08
7.182684e+08
7.725447e+08
0
0
6.032229e+08
6.183577e+08
6.400365e+08
6.705069e+08
7.13137e+08
0
0
0
5.72244e+08
5.854259e+08
6.041558e+08
6.300343e+08
6.653466e+08
0
0
0
0
5.44369e+08
5.560661e+08
5.725634e+08
5.951219e+08
6.253496e+08
0
0
0
0
0
5.190968e+08
5.296252e+08
5.443948e+08
5.644121e+08
5.909338e+08
0
0
0
0
0
0
4.958656e+08
5.054534e+08
5.188318e+08
5.36844e+08
5.604881e+08
0
0
0
0
0
0
0
4.740523e+08
4.828568e+08
4.950797e+08
5.114357e+08
5.327559e+08
0
0
0
0
0
0
0
0
4.529924e+08
4.611181e+08
4.723399e+08
4.872718e+08
5.066126e+08
0
0
0
0
0
0
0
0
0
4.323439e+08
4.398649e+08
4.501949e+08
4.638644e+08
4.814683e+08
0
0
0
0
0
0
0
0
0
0
4.126792e+08
4.196768e+08
4.292336e+08
4.418135e+08
4.579293e+08
0
0
0
0
0
0
0
0
0
0
3.945596e+08
4.011158e+08
4.100204e+08
4.216824e+08
4.365512e+08
0
0
0
0
0
0
0
0
0
0
3.781813e+08
3.843689e+08
3.927272e+08
4.036221e+08
4.174517e+08
0
0
0
0
0
0
0
0
0
0
3.635204e+08
3.694001e+08
3.773008e+08
3.875536e+08
4.005161e+08
0
0
0
0
0
0
0
0
0
0
9.435283e+08
8.659389e+08
9.133455e+08
8.020391e+08
8.427234e+08
9.009629e+08
7.52038e+08
7.832772e+08
8.320269e+08
9.055659e+08
7.103771e+08
7.353946e+08
7.733821e+08
8.322834e+08
9.262707e+08
6.727054e+08
6.935166e+08
7.24205e+08
7.698313e+08
8.403052e+08
0
6.368136e+08
6.543728e+08
6.798629e+08
7.164039e+08
7.696323e+08
0
0
6.031691e+08
6.182523e+08
6.398512e+08
6.701833e+08
7.125441e+08
0
0
0
5.723467e+08
5.855171e+08
6.042299e+08
6.3008e+08
6.653385e+08
0
0
0
0
5.44369e+08
5.560661e+08
5.725634e+08
5.951219e+08
6.253496e+08
0
0
0
0
0
5.189871e+08
5.295198e+08
5.44295e+08
5.643205e+08
5.90856e+08
0
0
0
0
0
0
4.958149e+08
5.054134e+08
5.18806e+08
5.368383e+08
5.605118e+08
0
0
0
0
0
0
0
4.743906e+08
4.832202e+08
4.954777e+08
5.118813e+08
5.332679e+08
0
0
0
0
0
0
0
0
4.541726e+08
4.623503e+08
4.736446e+08
4.886764e+08
5.081531e+08
0
0
0
0
0
0
0
0
0
4.345672e+08
4.421696e+08
4.526146e+08
4.664423e+08
4.842597e+08
0
0
0
0
0
0
0
0
0
0
4.152681e+08
4.223497e+08
4.320251e+08
4.447668e+08
4.610984e+08
0
0
0
0
0
0
0
0
0
0
3.968204e+08
4.034433e+08
4.124418e+08
4.242313e+08
4.39269e+08
0
0
0
0
0
0
0
0
0
0
3.797661e+08
3.859974e+08
3.94417e+08
4.053948e+08
4.193336e+08
0
0
0
0
0
0
0
0
0
0
3.643079e+08
3.702085e+08
3.781383e+08
3.884301e+08
4.014439e+08
0
0
0
0
0
0
0
0
0
0
3.504382e+08
3.560603e+08
3.63576e+08
3.732885e+08
3.855233e+08
0
0
0
0
0
0
0
0
0
0
8.607558e+08
9.05675e+08
7.944576e+08
8.331607e+08
8.861962e+08
7.435369e+08
7.732464e+08
8.189142e+08
8.838882e+08
7.023772e+08
7.262375e+08
7.621956e+08
8.168499e+08
8.981017e+08
6.669143e+08
6.869758e+08
7.164421e+08
7.598415e+08
8.2539e+08
0
6.341582e+08
6.513876e+08
6.763595e+08
7.120245e+08
7.635658e+08
0
0
6.02431e+08
6.17399e+08
6.38824e+08
6.688706e+08
7.107176e+08
0
0
0
5.723349e+08
5.854716e+08
6.041351e+08
6.299071e+08
6.650276e+08
0
0
0
0
5.444767e+08
5.561668e+08
5.726542e+08
5.951973e+08
6.253984e+08
0
0
0
0
0
5.189871e+08
5.295198e+08
5.44295e+08
5.643205e+08
5.90856e+08
0
0
0
0
0
0
4.957051e+08
5.053061e+08
5.187016e+08
5.367381e+08
5.604184e+08
0
0
0
0
0
0
0
4.743304e+08
4.831672e+08
4.954342e+08
5.11851e+08
5.332565e+08
0
0
0
0
0
0
0
0
4.54472e+08
4.626691e+08
4.7399e+08
4.890586e+08
5.085858e+08
0
0
0
0
0
0
0
0
0
4.356522e+08
4.432976e+08
4.538027e+08
4.67713e+08
4.856419e+08
0
0
0
0
0
0
0
0
0
0
4.173342e+08
4.244852e+08
4.342593e+08
4.471364e+08
4.636498e+08
0
0
0
0
0
0
0
0
0
0
0
3.992408e+08
4.059369e+08
4.15039e+08
4.2697e+08
4.421957e+08
0
0
0
0
0
0
0
0
0
0
3.818888e+08
3.881792e+08
3.966819e+08
4.077726e+08
4.218605e+08
0
0
0
0
0
0
0
0
0
0
3.658004e+08
3.717403e+08
3.797248e+08
3.900906e+08
4.032017e+08
0
0
0
0
0
0
0
0
0
0
3.511813e+08
3.568223e+08
3.643643e+08
3.74112e+08
3.863927e+08
0
0
0
0
0
0
0
0
0
0
3.380371e+08
3.434236e+08
3.505891e+08
3.598107e+08
3.713866e+08
0
0
0
0
0
0
0
0
0
0
7.905576e+08
8.283002e+08
8.78893e+08
7.374151e+08
7.661105e+08
8.097885e+08
8.695312e+08
6.952713e+08
7.182136e+08
7.526026e+08
8.041004e+08
8.765789e+08
6.601064e+08
6.794095e+08
7.076697e+08
7.489576e+08
8.100987e+08
0
6.291854e+08
6.459041e+08
6.700884e+08
7.044701e+08
7.536811e+08
0
0
6.001506e+08
6.148874e+08
6.359682e+08
6.654735e+08
7.064071e+08
0
0
0
5.717214e+08
5.847778e+08
6.033244e+08
6.289181e+08
6.637456e+08
0
0
0
0
5.444937e+08
5.561609e+08
5.726166e+08
5.951118e+08
6.252356e+08
0
0
0
0
0
5.190968e+08
5.296252e+08
5.443948e+08
5.644121e+08
5.909338e+08
0
0
0
0
0
0
4.957051e+08
5.053061e+08
5.187016e+08
5.367381e+08
5.604184e+08
0
0
0
0
0
0
0
4.74222e+08
4.830598e+08
4.95328e+08
5.117465e+08
5.331549e+08
0
0
0
0
0
0
0
0
4.544054e+08
4.626071e+08
4.739342e+08
4.890114e+08
5.085507e+08
0
0
0
0
0
0
0
0
0
4.359193e+08
4.435798e+08
4.541057e+08
4.680447e+08
4.860128e+08
0
0
0
0
0
0
0
0
0
0
4.183369e+08
4.255235e+08
4.35348e+08
4.482943e+08
4.649007e+08
0
0
0
0
0
0
0
0
0
0
0
4.01168e+08
4.079238e+08
4.171111e+08
4.291594e+08
4.445417e+08
0
0
0
0
0
0
0
0
0
0
0
0
3.841582e+08
3.905131e+08
3.99107e+08
4.103222e+08
4.245753e+08
0
0
0
0
0
0
0
0
0
0
3.677983e+08
3.73791e+08
3.818497e+08
3.923159e+08
4.055597e+08
0
0
0
0
0
0
0
0
0
0
3.525902e+08
3.582663e+08
3.658578e+08
3.756719e+08
3.880398e+08
0
0
0
0
0
0
0
0
0
0
3.387398e+08
3.441435e+08
3.513327e+08
3.605863e+08
3.722036e+08
0
0
0
0
0
0
0
0
0
0
3.262635e+08
3.314331e+08
3.382772e+08
3.470509e+08
3.580266e+08
0
0
0
0
0
0
0
0
0
0
7.342432e+08
7.624381e+08
8.051492e+08
8.624325e+08
6.901122e+08
7.124323e+08
7.457762e+08
7.952292e+08
8.623426e+08
6.539971e+08
6.726835e+08
6.999798e+08
7.396257e+08
7.974806e+08
0
6.232628e+08
6.394495e+08
6.628268e+08
6.959297e+08
7.429158e+08
0
0
5.95802e+08
6.101689e+08
6.307029e+08
6.593677e+08
6.989406e+08
0
0
0
5.697297e+08
5.82617e+08
6.009185e+08
6.261478e+08
6.60405e+08
0
0
0
0
5.43975e+08
5.555838e+08
5.719572e+08
5.943318e+08
6.242716e+08
0
0
0
0
0
5.191337e+08
5.296465e+08
5.443948e+08
5.643815e+08
5.908565e+08
0
0
0
0
0
0
4.958149e+08
5.054134e+08
5.18806e+08
5.368383e+08
5.605118e+08
0
0
0
0
0
0
0
4.74222e+08
4.830598e+08
4.95328e+08
5.117465e+08
5.331549e+08
0
0
0
0
0
0
0
0
4.54299e+08
4.62501e+08
4.73828e+08
4.889052e+08
5.084449e+08
0
0
0
0
0
0
0
0
0
4.358486e+08
4.435119e+08
4.540416e+08
4.679857e+08
4.859614e+08
0
0
0
0
0
0
0
0
0
0
4.185772e+08
4.257753e+08
4.356162e+08
4.485852e+08
4.652224e+08
0
0
0
0
0
0
0
0
0
0
0
4.020988e+08
4.088844e+08
4.181142e+08
4.302211e+08
4.45682e+08
0
0
0
0
0
0
0
0
0
0
0
0
3.859618e+08
3.923685e+08
4.010366e+08
4.12354e+08
4.267437e+08
0
0
0
0
0
0
0
0
0
0
0
0
0
3.699319e+08
3.759816e+08
3.841213e+08
3.946979e+08
4.080879e+08
0
0
0
0
0
0
0
0
0
0
3.544751e+08
3.601984e+08
3.678565e+08
3.777607e+08
3.902471e+08
0
0
0
0
0
0
0
0
0
0
3.400724e+08
3.455078e+08
3.527416e+08
3.620553e+08
3.737512e+08
0
0
0
0
0
0
0
0
0
0
3.269292e+08
3.321143e+08
3.389802e+08
3.477828e+08
3.587962e+08
0
0
0
0
0
0
0
0
0
0
3.150716e+08
3.200384e+08
3.265861e+08
3.349481e+08
3.453752e+08
0
0
0
0
0
0
0
0
0
0
6.874267e+08
7.094357e+08
7.422624e+08
7.907194e+08
8.553083e+08
6.495361e+08
6.677976e+08
6.944374e+08
7.329851e+08
7.887056e+08
0
6.179066e+08
6.336526e+08
6.563685e+08
6.884427e+08
7.336908e+08
0
0
5.905689e+08
6.045412e+08
6.244979e+08
6.522924e+08
6.90498e+08
0
0
0
5.658737e+08
5.784829e+08
5.963813e+08
6.210178e+08
6.543727e+08
0
0
0
0
5.422129e+08
5.536934e+08
5.698849e+08
5.919967e+08
6.215485e+08
0
0
0
0
0
5.186889e+08
5.291584e+08
5.438464e+08
5.637476e+08
5.900974e+08
0
0
0
0
0
0
4.958656e+08
5.054534e+08
5.188318e+08
5.36844e+08
5.604881e+08
0
0
0
0
0
0
0
4.743304e+08
4.831672e+08
4.954342e+08
5.11851e+08
5.332565e+08
0
0
0
0
0
0
0
0
4.54299e+08
4.62501e+08
4.73828e+08
4.889052e+08
5.084449e+08
0
0
0
0
0
0
0
0
0
4.35745e+08
4.434077e+08
4.539366e+08
4.678797e+08
4.858543e+08
0
0
0
0
0
0
0
0
0
0
4.185042e+08
4.257037e+08
4.355465e+08
4.485184e+08
4.651599e+08
0
0
0
0
0
0
0
0
0
0
0
4.023167e+08
4.09111e+08
4.183537e+08
4.304786e+08
4.459641e+08
0
0
0
0
0
0
0
0
0
0
0
0
3.868292e+08
3.932612e+08
4.019654e+08
4.133328e+08
4.277896e+08
0
0
0
0
0
0
0
0
0
0
0
0
0
3.716247e+08
3.777198e+08
3.859248e+08
3.965911e+08
4.101008e+08
0
0
0
0
0
0
0
0
0
0
0
0
0
0
3.564859e+08
3.622599e+08
3.699904e+08
3.799932e+08
3.926098e+08
0
0
0
0
0
0
0
0
0
0
3.418544e+08
3.473323e+08
3.546261e+08
3.640212e+08
3.758237e+08
0
0
0
0
0
0
0
0
0
0
3.281921e+08
3.334059e+08
3.403123e+08
3.491694e+08
3.602541e+08
0
0
0
0
0
0
0
0
0
0
3.157034e+08
3.206844e+08
3.272518e+08
3.356403e+08
3.461017e+08
0
0
0
0
0
0
0
0
0
0
3.044195e+08
3.091968e+08
3.15468e+08
3.2345e+08
3.333723e+08
0
0
0
0
0
0
0
0
0
0
6.472065e+08
6.652534e+08
6.915639e+08
7.295668e+08
7.842462e+08
0
6.139788e+08
6.294174e+08
6.516755e+08
6.830461e+08
7.27128e+08
0
0
5.858072e+08
5.994477e+08
6.189221e+08
6.459987e+08
6.830987e+08
0
0
0
5.611941e+08
5.735006e+08
5.90963e+08
6.149668e+08
6.473788e+08
0
0
0
0
5.38757e+08
5.500211e+08
5.659042e+08
5.875728e+08
6.164804e+08
0
0
0
0
0
5.171136e+08
5.274833e+08
5.420313e+08
5.61735e+08
5.87802e+08
0
0
0
0
0
0
4.954797e+08
5.050348e+08
5.183679e+08
5.363169e+08
5.598718e+08
0
0
0
0
0
0
0
4.743906e+08
4.832202e+08
4.954777e+08
5.118813e+08
5.332679e+08
0
0
0
0
0
0
0
0
4.544054e+08
4.626071e+08
4.739342e+08
4.890114e+08
5.085507e+08
0
0
0
0
0
0
0
0
0
4.35745e+08
4.434077e+08
4.539366e+08
4.678797e+08
4.858543e+08
0
0
0
0
0
0
0
0
0
0
4.184037e+08
4.256021e+08
4.354435e+08
4.484137e+08
4.65053e+08
0
0
0
0
0
0
0
0
0
0
0
4.022427e+08
4.090373e+08
4.182805e+08
4.304066e+08
4.458942e+08
0
0
0
0
0
0
0
0
0
0
0
0
3.870279e+08
3.934668e+08
4.02181e+08
4.135627e+08
4.280392e+08
0
0
0
0
0
0
0
0
0
0
0
0
0
3.724361e+08
3.785526e+08
3.867887e+08
3.97498e+08
4.110654e+08
0
0
0
0
0
0
0
0
0
0
0
0
0
0
3.580792e+08
3.63893e+08
3.716812e+08
3.817636e+08
3.944859e+08
0
0
0
0
0
0
0
0
0
0
0
0
0
0
0
3.437538e+08
3.492771e+08
3.566358e+08
3.661194e+08
3.780387e+08
0
0
0
0
0
0
0
0
0
0
3.298804e+08
3.351324e+08
3.420931e+08
3.510238e+08
3.622051e+08
0
0
0
0
0
0
0
0
0
0
3.169024e+08
3.219095e+08
3.285138e+08
3.369519e+08
3.47478e+08
0
0
0
0
0
0
0
0
0
0
3.050201e+08
3.098104e+08
3.160996e+08
3.241058e+08
3.340596e+08
0
0
0
0
0
0
0
0
0
0
2.942723e+08
2.988692e+08
3.048824e+08
3.125104e+08
3.219665e+08
0
0
0
0
0
0
0
0
0
0
6.119227e+08
6.272049e+08
6.492311e+08
6.802481e+08
7.237503e+08
0
0
5.823037e+08
5.957105e+08
6.148471e+08
6.414247e+08
6.77766e+08
0
0
0
5.569146e+08
5.689632e+08
5.86056e+08
6.09528e+08
6.411582e+08
0
0
0
0
5.345332e+08
5.455577e+08
5.611004e+08
5.822844e+08
6.104979e+08
0
0
0
0
0
5.139889e+08
5.241866e+08
5.384907e+08
5.578507e+08
5.834308e+08
0
0
0
0
0
0
4.94059e+08
5.03535e+08
5.167577e+08
5.345528e+08
5.578931e+08
0
0
0
0
0
0
0
4.740523e+08
4.828568e+08
4.950797e+08
5.114357e+08
5.327559e+08
0
0
0
0
0
0
0
0
4.54472e+08
4.62669e+08
4.7399e+08
4.890586e+08
5.085858e+08
0
0
0
0
0
0
0
0
0
4.358486e+08
4.435119e+08
4.540416e+08
4.679857e+08
4.859614e+08
0
0
0
0
0
0
0
0
0
0
4.184037e+08
4.25602e+08
4.354435e+08
4.484137e+08
4.65053e+08
0
0
0
0
0
0
0
0
0
0
0
4.021454e+08
4.089386e+08
4.1818e+08
4.303038e+08
4.457887e+08
0
0
0
0
0
0
0
0
0
0
0
0
3.869538e+08
3.933922e+08
4.021059e+08
4.134875e+08
4.279645e+08
0
0
0
0
0
0
0
0
0
0
0
0
0
3.726187e+08
3.787402e+08
3.869842e+08
3.977049e+08
4.112882e+08
0
0
0
0
0
0
0
0
0
0
0
0
0
0
3.588409e+08
3.646728e+08
3.724878e+08
3.826076e+08
3.9538e+08
0
0
0
0
0
0
0
0
0
0
0
0
0
0
0
3.452573e+08
3.508157e+08
3.582257e+08
3.677801e+08
3.797937e+08
0
0
0
0
0
0
0
0
0
0
0
0
0
0
0
0
3.316783e+08
3.369711e+08
3.439903e+08
3.530008e+08
3.642874e+08
0
0
0
0
0
0
0
0
0
0
3.185047e+08
3.235465e+08
3.302001e+08
3.387052e+08
3.493188e+08
0
0
0
0
0
0
0
0
0
0
3.061603e+08
3.109745e+08
3.172974e+08
3.253489e+08
3.353618e+08
0
0
0
0
0
0
0
0
0
0
2.94844e+08
2.994529e+08
3.054827e+08
3.131328e+08
3.226178e+08
0
0
0
0
0
0
0
0
0
0
2.845956e+08
2.890229e+08
2.947919e+08
3.0209e+08
3.111123e+08
0
0
0
0
0
0
0
0
0
0
5.804662e+08
5.937535e+08
6.127177e+08
6.390421e+08
6.750013e+08
0
0
0
5.537575e+08
5.656231e+08
5.824545e+08
6.055525e+08
6.366375e+08
0
0
0
0
5.306544e+08
5.414724e+08
5.56723e+08
5.774936e+08
6.051208e+08
0
0
0
0
0
5.101473e+08
5.201511e+08
5.341815e+08
5.531581e+08
5.782008e+08
0
0
0
0
0
0
4.912133e+08
5.005497e+08
5.135754e+08
5.310954e+08
5.54054e+08
0
0
0
0
0
0
0
4.727615e+08
4.815024e+08
4.936365e+08
5.098697e+08
5.31021e+08
0
0
0
0
0
0
0
0
4.541726e+08
4.623503e+08
4.736446e+08
4.886764e+08
5.081531e+08
0
0
0
0
0
0
0
0
0
4.359193e+08
4.435798e+08
4.541057e+08
4.680447e+08
4.860128e+08
0
0
0
0
0
0
0
0
0
0
4.185042e+08
4.257036e+08
4.355465e+08
4.485184e+08
4.651599e+08
0
0
0
0
0
0
0
0
0
0
0
4.021454e+08
4.089386e+08
4.1818e+08
4.303038e+08
4.457887e+08
0
0
0
0
0
0
0
0
0
0
0
0
3.8686e+08
3.932967e+08
4.020084e+08
4.133873e+08
4.278611e+08
0
0
0
0
0
0
0
0
0
0
0
0
0
3.725454e+08
3.786656e+08
3.869085e+08
3.976281e+08
4.112105e+08
0
0
0
0
0
0
0
0
0
0
0
0
0
0
3.590096e+08
3.648453e+08
3.726664e+08
3.827953e+08
3.955806e+08
0
0
0
0
0
0
0
0
0
0
0
0
0
0
0
3.459745e+08
3.515484e+08
3.589816e+08
3.685686e+08
3.806261e+08
0
0
0
0
0
0
0
0
0
0
0
0
0
0
0
0
3.331006e+08
3.384244e+08
3.454893e+08
3.545632e+08
3.659342e+08
0
0
0
0
0
0
0
0
0
0
0
0
0
0
0
0
0
3.202102e+08
3.252885e+08
3.31995e+08
3.405724e+08
3.512813e+08
0
0
0
0
0
0
0
0
0
0
3.076838e+08
3.125295e+08
3.188973e+08
3.270098e+08
3.371025e+08
0
0
0
0
0
0
0
0
0
0
2.959301e+08
3.005608e+08
3.066214e+08
3.143132e+08
3.238522e+08
0
0
0
0
0
0
0
0
0
0
2.851406e+08
2.895789e+08
2.953633e+08
3.026818e+08
3.117305e+08
0
0
0
0
0
0
0
0
0
0
2.7536e+08
2.796255e+08
2.851657e+08
2.921527e+08
3.00771e+08
0
0
0
0
0
0
0
0
0
0
5.520992e+08
5.638707e+08
5.80568e+08
6.034748e+08
6.342828e+08
0
0
0
0
5.277863e+08
5.38457e+08
5.534994e+08
5.739768e+08
6.011905e+08
0
0
0
0
0
5.066067e+08
5.16442e+08
5.302349e+08
5.488806e+08
5.734627e+08
0
0
0
0
0
0
4.876969e+08
4.968735e+08
5.096745e+08
5.268825e+08
5.494117e+08
0
0
0
0
0
0
0
4.701538e+08
4.787796e+08
4.907515e+08
5.067597e+08
5.276028e+08
0
0
0
0
0
0
0
0
4.529924e+08
4.611181e+08
4.723399e+08
4.872718e+08
5.066126e+08
0
0
0
0
0
0
0
0
0
4.356522e+08
4.432976e+08
4.538027e+08
4.67713e+08
4.856419e+08
0
0
0
0
0
0
0
0
0
0
4.185772e+08
4.257753e+08
4.356162e+08
4.485852e+08
4.652224e+08
0
0
0
0
0
0
0
0
0
0
0
4.022427e+08
4.090373e+08
4.182805e+08
4.304066e+08
4.458942e+08
0
0
0
0
0
0
0
0
0
0
0
0
3.8686e+08
3.932967e+08
4.020084e+08
4.133873e+08
4.278611e+08
0
0
0
0
0
0
0
0
0
0
0
0
0
3.72455e+08
3.785734e+08
3.868141e+08
3.975308e+08
4.111098e+08
0
0
0
0
0
0
0
0
0
0
0
0
0
0
3.589376e+08
3.647716e+08
3.725909e+08
3.827181e+08
3.955015e+08
0
0
0
0
0
0
0
0
0
0
0
0
0
0
0
3.461314e+08
3.517079e+08
3.591458e+08
3.687401e+08
3.80808e+08
0
0
0
0
0
0
0
0
0
0
0
0
0
0
0
0
3.337779e+08
3.39115e+08
3.462001e+08
3.553025e+08
3.667121e+08
0
0
0
0
0
0
0
0
0
0
0
0
0
0
0
0
0
3.215585e+08
3.266645e+08
3.334118e+08
3.420463e+08
3.52831e+08
0
0
0
0
0
0
0
0
0
0
0
0
0
0
0
0
0
0
3.093044e+08
3.141832e+08
3.205991e+08
3.287772e+08
3.389565e+08
0
0
0
0
0
0
0
0
0
0
2.973808e+08
3.020404e+08
3.081422e+08
3.158897e+08
3.255016e+08
0
0
0
0
0
0
0
0
0
0
2.861765e+08
2.90635e+08
2.964477e+08
3.038045e+08
3.129029e+08
0
0
0
0
0
0
0
0
0
0
2.758803e+08
2.80156e+08
2.857103e+08
2.927163e+08
3.013589e+08
0
0
0
0
0
0
0
0
0
0
2.665402e+08
2.706498e+08
2.759729e+08
2.826688e+08
2.909072e+08
0
0
0
0
0
0
0
0
0
0
5.262781e+08
5.368726e+08
5.518077e+08
5.721345e+08
5.991365e+08
0
0
0
0
0
5.039838e+08
5.136981e+08
5.273208e+08
5.457301e+08
5.699847e+08
0
0
0
0
0
0
4.844461e+08
4.934826e+08
5.060868e+08
5.230228e+08
5.451797e+08
0
0
0
0
0
0
0
4.669174e+08
4.754097e+08
4.871937e+08
5.02943e+08
5.234335e+08
0
0
0
0
0
0
0
0
4.505901e+08
4.586196e+08
4.697057e+08
4.844503e+08
5.035369e+08
0
0
0
0
0
0
0
0
0
4.345671e+08
4.421697e+08
4.526146e+08
4.664423e+08
4.842597e+08
0
0
0
0
0
0
0
0
0
0
4.183369e+08
4.255235e+08
4.35348e+08
4.482943e+08
4.649007e+08
0
0
0
0
0
0
0
0
0
0
0
4.023167e+08
4.09111e+08
4.183537e+08
4.304786e+08
4.459641e+08
0
0
0
0
0
0
0
0
0
0
0
0
3.869538e+08
3.933922e+08
4.021059e+08
4.134875e+08
4.279645e+08
0
0
0
0
0
0
0
0
0
0
0
0
0
3.72455e+08
3.785734e+08
3.868141e+08
3.975308e+08
4.111098e+08
0
0
0
0
0
0
0
0
0
0
0
0
0
0
3.588507e+08
3.646828e+08
3.724996e+08
3.826239e+08
3.954037e+08
0
0
0
0
0
0
0
0
0
0
0
0
0
0
0
3.460611e+08
3.516355e+08
3.590712e+08
3.686631e+08
3.807287e+08
0
0
0
0
0
0
0
0
0
0
0
0
0
0
0
0
3.339248e+08
3.392634e+08
3.46352e+08
3.554602e+08
3.668782e+08
0
0
0
0
0
0
0
0
0
0
0
0
0
0
0
0
0
3.222e+08
3.273174e+08
3.340823e+08
3.427418e+08
3.535606e+08
0
0
0
0
0
0
0
0
0
0
0
0
0
0
0
0
0
0
3.105852e+08
3.154888e+08
3.219414e+08
3.301709e+08
3.404188e+08
0
0
0
0
0
0
0
0
0
0
0
0
0
0
0
0
0
0
0
2.989234e+08
3.036131e+08
3.097587e+08
3.17566e+08
3.272568e+08
0
0
0
0
0
0
0
0
0
0
2.875601e+08
2.92045e+08
2.978956e+08
3.053035e+08
3.144688e+08
0
0
0
0
0
0
0
0
0
0
2.768699e+08
2.81164e+08
2.867446e+08
2.937858e+08
3.024742e+08
0
0
0
0
0
0
0
0
0
0
2.670375e+08
2.711565e+08
2.764927e+08
2.832062e+08
2.914671e+08
0
0
0
0
0
0
0
0
0
0
2.581152e+08
2.620719e+08
2.671874e+08
2.736083e+08
2.814914e+08
0
0
0
0
0
0
0
0
0
0
5.026032e+08
5.122546e+08
5.257893e+08
5.440765e+08
5.681626e+08
0
0
0
0
0
0
4.820339e+08
4.909692e+08
5.034318e+08
5.201724e+08
5.420628e+08
0
0
0
0
0
0
0
4.639176e+08
4.722917e+08
4.8391e+08
4.994317e+08
5.196136e+08
0
0
0
0
0
0
0
0
4.475976e+08
4.555139e+08
4.664408e+08
4.809669e+08
4.997584e+08
0
0
0
0
0
0
0
0
0
4.323439e+08
4.398649e+08
4.501949e+08
4.638644e+08
4.814683e+08
0
0
0
0
0
0
0
0
0
0
4.173342e+08
4.244852e+08
4.342593e+08
4.471364e+08
4.636498e+08
0
0
0
0
0
0
0
0
0
0
0
4.020988e+08
4.088844e+08
4.181142e+08
4.302211e+08
4.45682e+08
0
0
0
0
0
0
0
0
0
0
0
0
3.870279e+08
3.934668e+08
4.02181e+08
4.135626e+08
4.280392e+08
0
0
0
0
0
0
0
0
0
0
0
0
0
3.725454e+08
3.786656e+08
3.869085e+08
3.976281e+08
4.112105e+08
0
0
0
0
0
0
0
0
0
0
0
0
0
0
3.588507e+08
3.646828e+08
3.724996e+08
3.826239e+08
3.954037e+08
0
0
0
0
0
0
0
0
0
0
0
0
0
0
0
3.459777e+08
3.515501e+08
3.589833e+08
3.685721e+08
3.806341e+08
0
0
0
0
0
0
0
0
0
0
0
0
0
0
0
0
3.338567e+08
3.391928e+08
3.462789e+08
3.553844e+08
3.667994e+08
0
0
0
0
0
0
0
0
0
0
0
0
0
0
0
0
0
3.223383e+08
3.274564e+08
3.342238e+08
3.428878e+08
3.537135e+08
0
0
0
0
0
0
0
0
0
0
0
0
0
0
0
0
0
0
3.111944e+08
3.161077e+08
3.225757e+08
3.308273e+08
3.411054e+08
0
0
0
0
0
0
0
0
0
0
0
0
0
0
0
0
0
0
0
3.001424e+08
3.048544e+08
3.110332e+08
3.188871e+08
3.286399e+08
0
0
0
0
0
0
0
0
0
0
0
0
0
0
0
0
0
0
0
0
2.890308e+08
2.935432e+08
2.994339e+08
3.068965e+08
3.16134e+08
0
0
0
0
0
0
0
0
0
0
2.781915e+08
2.825098e+08
2.881252e+08
2.952136e+08
3.039635e+08
0
0
0
0
0
0
0
0
0
0
2.67984e+08
2.721201e+08
2.774805e+08
2.842266e+08
2.925298e+08
0
0
0
0
0
0
0
0
0
0
2.585911e+08
2.625565e+08
2.676843e+08
2.741214e+08
2.820254e+08
0
0
0
0
0
0
0
0
0
0
2.500648e+08
2.538721e+08
2.587867e+08
2.64946e+08
2.724943e+08
0
0
0
0
0
0
0
0
0
0
4.807632e+08
4.896458e+08
5.020348e+08
5.186741e+08
5.404269e+08
0
0
0
0
0
0
0
4.616885e+08
4.699769e+08
4.814753e+08
4.968326e+08
5.167925e+08
0
0
0
0
0
0
0
0
4.448173e+08
4.526326e+08
4.634181e+08
4.777506e+08
4.962819e+08
0
0
0
0
0
0
0
0
0
4.295656e+08
4.369894e+08
4.471828e+08
4.606654e+08
4.780185e+08
0
0
0
0
0
0
0
0
0
0
4.152681e+08
4.223497e+08
4.320251e+08
4.447668e+08
4.610984e+08
0