/*--------------------------------*- C++ -*----------------------------------*\
| =========                 |                                                 |
| \\      /  F ield         | OpenFOAM: The Open Source CFD Toolbox           |
|  \\    /   O peration     | Version:  2306                                  |
|   \\  /    A nd           | Website:  www.openfoam.com                      |
|    \\/     M anipulation  |                                                 |
\*---------------------------------------------------------------------------*/
FoamFile
{
    version     2.0;
    format      ascii;
    arch        "LSB;label=32;scalar=64";
    class       volScalarField;
    location    "1.5/fuel";
    object      nernst;
}
// * * * * * * * * * * * * * * * * * * * * * * * * * * * * * * * * * * * * * //

dimensions      [1 2 -3 0 0 -1 0];

internalField   nonuniform List<scalar> 
16000
(
-1.811311
-1.812312
-1.796645
-1.811381
-1.814336
-1.797304
-1.812384
-1.783389
-1.796694
-1.811511
-1.81738
-1.798632
-1.814412
-1.783889
-1.797353
-1.812518
-1.772665
-1.783425
-1.796788
-1.811702
-1.82129
-1.800627
-1.817463
-1.784898
-1.798683
-1.814554
-1.773071
-1.783925
-1.797448
-1.812714
-1.763826
-1.772692
-1.783494
-1.796925
-1.811952
-1.825415
-1.803188
-1.821387
-1.786415
-1.800679
-1.817619
-1.77389
-1.784933
-1.79878
-1.81476
-1.764168
-1.773098
-1.783994
-1.797587
-1.81297
-1.756343
-1.763846
-1.772745
-1.783596
-1.797105
-1.812203
-1.82832
-1.805915
-1.825532
-1.788373
-1.803243
-1.821565
-1.775123
-1.786451
-1.80078
-1.817845
-1.764858
-1.773917
-1.785004
-1.798923
-1.815031
-1.756639
-1.764189
-1.773152
-1.784097
-1.79777
-1.813228
-1.749865
-1.756359
-1.76389
-1.772826
-1.783731
-1.797286
-1.812415
-1.829945
-1.807941
-1.828456
-1.790479
-1.805972
-1.825742
-1.776715
-1.788408
-1.80335
-1.821822
-1.765896
-1.775149
-1.786523
-1.80093
-1.81814
-1.757236
-1.764879
-1.773971
-1.785109
-1.799111
-1.815304
-1.750125
-1.756655
-1.764232
-1.773232
-1.784234
-1.797954
-1.813446
-1.744152
-1.749877
-1.756395
-1.763955
-1.772932
-1.783867
-1.797439
-1.812627
-1.830723
-1.809191
-1.830097
-1.792092
-1.808
-1.828693
-1.778436
-1.790513
-1.806086
-1.826042
-1.767238
-1.776741
-1.788482
-1.803508
-1.822158
-1.758132
-1.765916
-1.775204
-1.786631
-1.801126
-1.818438
-1.75065
-1.757251
-1.764922
-1.774053
-1.785248
-1.799301
-1.815534
-1.744386
-1.750138
-1.756691
-1.764298
-1.77334
-1.784371
-1.798109
-1.813663
-1.739043
-1.744162
-1.749907
-1.75645
-1.764043
-1.77304
-1.783982
-1.797591
-1.812837
-1.831021
-1.809871
-1.830885
-1.793137
-1.809252
-1.830354
-1.779771
-1.792125
-1.808118
-1.829029
-1.768689
-1.778459
-1.790589
-1.806256
-1.826434
-1.75929
-1.767256
-1.776796
-1.788593
-1.803718
-1.822496
-1.75144
-1.758147
-1.76596
-1.775287
-1.786773
-1.801325
-1.81869
-1.744855
-1.750663
-1.757287
-1.764988
-1.774162
-1.785388
-1.799461
-1.815763
-1.739254
-1.744396
-1.750168
-1.756746
-1.764386
-1.773448
-1.784487
-1.798263
-1.813879
-1.734417
-1.739051
-1.744188
-1.749954
-1.756524
-1.764132
-1.773131
-1.784096
-1.797743
-1.813047
-1.831021
-1.810165
-1.831189
-1.793738
-1.809934
-1.831157
-1.780654
-1.793169
-1.809374
-1.830716
-1.769822
-1.779792
-1.7922
-1.808295
-1.829464
-1.760543
-1.768705
-1.778514
-1.790704
-1.806481
-1.826828
-1.752459
-1.759304
-1.7673
-1.776881
-1.788742
-1.803929
-1.822784
-1.745561
-1.751452
-1.758183
-1.766027
-1.775398
-1.786917
-1.801492
-1.818942
-1.739679
-1.744865
-1.750693
-1.757343
-1.765077
-1.774272
-1.785506
-1.79962
-1.815992
-1.73461
-1.739262
-1.744421
-1.750215
-1.75682
-1.764475
-1.77354
-1.784602
-1.798417
-1.814094
-1.730188
-1.734424
-1.739073
-1.744229
-1.750018
-1.756599
-1.764207
-1.773222
-1.78421
-1.797894
-1.814063
-1.830723
-1.810165
-1.831189
-1.794011
-1.81023
-1.831467
-1.781175
-1.79377
-1.810059
-1.831534
-1.770578
-1.780674
-1.793243
-1.809556
-1.831181
-1.761525
-1.769836
-1.779846
-1.792316
-1.808531
-1.829901
-1.753561
-1.760555
-1.768748
-1.7786
-1.790859
-1.806708
-1.827166
-1.746471
-1.752469
-1.75934
-1.767368
-1.776994
-1.788891
-1.804107
-1.823073
-1.740317
-1.74557
-1.751481
-1.758239
-1.766117
-1.77551
-1.787039
-1.801658
-1.819194
-1.734999
-1.739687
-1.744891
-1.75074
-1.757417
-1.765168
-1.774365
-1.785623
-1.799778
-1.816221
-1.730366
-1.734616
-1.739284
-1.744462
-1.750279
-1.756896
-1.76455
-1.773631
-1.784717
-1.79857
-1.815139
-1.72629
-1.730193
-1.734443
-1.739109
-1.744284
-1.750083
-1.756662
-1.764281
-1.773312
-1.784323
-1.798623
-1.814877
-1.829945
-1.809871
-1.830885
-1.794011
-1.81023
-1.831467
-1.781415
-1.794043
-1.810356
-1.831853
-1.771029
-1.781193
-1.793845
-1.810245
-1.832019
-1.762183
-1.770591
-1.780726
-1.79336
-1.809797
-1.831648
-1.754427
-1.761535
-1.769877
-1.779931
-1.792473
-1.808768
-1.830278
-1.747456
-1.753571
-1.76059
-1.768816
-1.778717
-1.791015
-1.806901
-1.827509
-1.741141
-1.74648
-1.752499
-1.759396
-1.76746
-1.77711
-1.789017
-1.804286
-1.823364
-1.735582
-1.740324
-1.745595
-1.751529
-1.758315
-1.766209
-1.775605
-1.787159
-1.801824
-1.819446
-1.730724
-1.735005
-1.739709
-1.744932
-1.750804
-1.757494
-1.765244
-1.774457
-1.78574
-1.799936
-1.817329
-1.726455
-1.730371
-1.734636
-1.73932
-1.744518
-1.750344
-1.756959
-1.764625
-1.773721
-1.784831
-1.79931
-1.815983
-1.722671
-1.726294
-1.73021
-1.734475
-1.739158
-1.744342
-1.750137
-1.756725
-1.764355
-1.773401
-1.784869
-1.799203
-1.815548
-1.82832
-1.809191
-1.830097
-1.793738
-1.809934
-1.831157
-1.781415
-1.794043
-1.810356
-1.831853
-1.771238
-1.781433
-1.794117
-1.810543
-1.832346
-1.762577
-1.771041
-1.781245
-1.793962
-1.81049
-1.832505
-1.755009
-1.762192
-1.770631
-1.780811
-1.793518
-1.81004
-1.832051
-1.74823
-1.754434
-1.761568
-1.769944
-1.780049
-1.792632
-1.808968
-1.830659
-1.742032
-1.747463
-1.753599
-1.760646
-1.76891
-1.778836
-1.791147
-1.807096
-1.827856
-1.736334
-1.741147
-1.746504
-1.752547
-1.759472
-1.767553
-1.777206
-1.789143
-1.804464
-1.823657
-1.731261
-1.735588
-1.740346
-1.745636
-1.751594
-1.758392
-1.766285
-1.775698
-1.78728
-1.80199
-1.820672
-1.726787
-1.730729
-1.735024
-1.739745
-1.744988
-1.75087
-1.757557
-1.765319
-1.774548
-1.785856
-1.800699
-1.818246
-1.722825
-1.726459
-1.730388
-1.734668
-1.739369
-1.744575
-1.750398
-1.757022
-1.764699
-1.773811
-1.785382
-1.799899
-1.816684
-1.71929
-1.722674
-1.726309
-1.730239
-1.734519
-1.739209
-1.744389
-1.750191
-1.756787
-1.764428
-1.773833
-1.785301
-1.799674
-1.816069
-1.825415
-1.807941
-1.828456
-1.793137
-1.809252
-1.830354
-1.781175
-1.79377
-1.810059
-1.831534
-1.771238
-1.781433
-1.794117
-1.810543
-1.832346
-1.762761
-1.771249
-1.781484
-1.794234
-1.810791
-1.832841
-1.755358
-1.762585
-1.771079
-1.781329
-1.79412
-1.810736
-1.832924
-1.748752
-1.755015
-1.762224
-1.770697
-1.780927
-1.793677
-1.810245
-1.832457
-1.742732
-1.748236
-1.754461
-1.761623
-1.770037
-1.780167
-1.792765
-1.809171
-1.831045
-1.737148
-1.742037
-1.747488
-1.753647
-1.760724
-1.769005
-1.778935
-1.79128
-1.807292
-1.828208
-1.731954
-1.736339
-1.741169
-1.746546
-1.752612
-1.75955
-1.767631
-1.777303
-1.789269
-1.804643
-1.825087
-1.727285
-1.731266
-1.735607
-1.740382
-1.745693
-1.75166
-1.758456
-1.766362
-1.775792
-1.787399
-1.802794
-1.821744
-1.723135
-1.726791
-1.730746
-1.735056
-1.739794
-1.745045
-1.750925
-1.757621
-1.765394
-1.774639
-1.786418
-1.80131
-1.819027
-1.719434
-1.722828
-1.726474
-1.730417
-1.734712
-1.73942
-1.744623
-1.750453
-1.757085
-1.764773
-1.774246
-1.785817
-1.800378
-1.817234
-1.716115
-1.719292
-1.722687
-1.726335
-1.730279
-1.734565
-1.739251
-1.744436
-1.750245
-1.756849
-1.764783
-1.774171
-1.785649
-1.800033
-1.816433
-1.82129
-1.805915
-1.825532
-1.792092
-1.808
-1.828693
-1.780654
-1.793169
-1.809374
-1.830716
-1.771029
-1.781193
-1.793845
-1.810245
-1.832019
-1.762761
-1.771249
-1.781484
-1.794234
-1.810791
-1.832841
-1.755521
-1.762769
-1.771288
-1.781568
-1.794393
-1.811039
-1.833268
-1.749066
-1.755364
-1.762616
-1.771144
-1.781444
-1.79428
-1.810945
-1.833346
-1.743205
-1.748756
-1.755041
-1.762277
-1.770788
-1.781044
-1.79381
-1.810452
-1.832868
-1.737789
-1.742736
-1.748259
-1.754508
-1.7617
-1.770132
-1.780266
-1.7929
-1.809375
-1.831435
-1.732705
-1.737152
-1.742058
-1.747529
-1.753713
-1.760803
-1.769085
-1.779036
-1.791414
-1.80749
-1.829944
-1.727928
-1.731958
-1.736358
-1.741205
-1.746603
-1.752679
-1.759615
-1.767708
-1.777399
-1.789395
-1.805516
-1.826491
-1.7236
-1.727289
-1.731283
-1.735639
-1.740432
-1.745751
-1.751715
-1.75852
-1.766437
-1.775885
-1.787979
-1.803457
-1.822709
-1.719725
-1.723138
-1.726806
-1.730775
-1.735101
-1.739845
-1.745093
-1.750979
-1.757684
-1.765468
-1.77508
-1.786861
-1.801814
-1.819653
-1.716251
-1.719437
-1.722841
-1.7265
-1.730457
-1.734758
-1.739462
-1.74467
-1.750506
-1.757147
-1.765129
-1.774585
-1.786167
-1.800744
-1.817622
-1.713119
-1.716117
-1.719304
-1.722711
-1.726372
-1.73032
-1.734602
-1.739293
-1.744483
-1.750298
-1.757149
-1.765057
-1.774442
-1.785911
-1.800278
-1.81738
-1.803188
-1.821387
-1.790479
-1.805972
-1.825742
-1.779771
-1.792125
-1.808118
-1.829029
-1.770578
-1.780674
-1.793243
-1.809556
-1.831181
-1.762577
-1.771041
-1.781245
-1.793962
-1.81049
-1.832505
-1.755521
-1.762769
-1.771288
-1.781568
-1.794393
-1.811039
-1.833268
-1.749213
-1.755526
-1.762799
-1.771352
-1.781683
-1.794553
-1.811249
-1.833699
-1.74349
-1.749069
-1.755389
-1.762669
-1.771235
-1.781561
-1.794413
-1.811155
-1.833772
-1.738222
-1.743208
-1.748778
-1.755086
-1.762353
-1.770881
-1.781142
-1.793945
-1.810661
-1.833282
-1.733295
-1.737792
-1.742756
-1.748299
-1.754573
-1.761778
-1.77021
-1.780366
-1.793035
-1.809582
-1.833362
-1.728624
-1.732708
-1.737171
-1.742094
-1.747587
-1.753781
-1.76087
-1.769165
-1.779137
-1.791549
-1.808464
-1.831951
-1.724199
-1.727931
-1.731975
-1.73639
-1.741255
-1.746661
-1.752735
-1.75968
-1.767786
-1.777495
-1.790007
-1.806304
-1.82792
-1.720161
-1.723602
-1.727304
-1.731311
-1.735683
-1.740484
-1.745799
-1.75177
-1.758583
-1.766513
-1.776335
-1.788445
-1.804027
-1.823527
-1.716524
-1.719727
-1.723151
-1.726832
-1.730815
-1.735146
-1.739888
-1.745141
-1.751033
-1.757746
-1.765828
-1.775421
-1.787219
-1.802203
-1.820105
-1.713248
-1.716253
-1.719449
-1.722865
-1.726537
-1.730498
-1.734795
-1.739504
-1.744717
-1.75056
-1.757447
-1.765403
-1.774855
-1.78643
-1.800995
-1.710281
-1.713121
-1.716128
-1.719326
-1.722745
-1.726409
-1.730354
-1.73464
-1.739334
-1.74453
-1.750555
-1.757375
-1.765274
-1.774644
-1.786088
-1.814336
-1.800627
-1.817463
-1.788373
-1.803243
-1.821565
-1.778436
-1.790513
-1.806086
-1.826042
-1.769822
-1.779792
-1.7922
-1.808295
-1.829464
-1.762183
-1.770591
-1.780726
-1.79336
-1.809797
-1.831648
-1.755358
-1.762585
-1.771079
-1.781329
-1.79412
-1.810736
-1.832924
-1.749213
-1.755526
-1.762799
-1.771352
-1.781683
-1.794553
-1.811249
-1.833699
-1.743624
-1.749216
-1.755551
-1.762851
-1.771443
-1.7818
-1.794686
-1.811461
-1.834132
-1.738483
-1.743493
-1.74909
-1.755433
-1.762744
-1.771327
-1.781658
-1.794547
-1.811366
-1.834202
-1.733695
-1.738224
-1.743227
-1.748817
-1.75515
-1.76243
-1.770958
-1.781241
-1.79408
-1.810871
-1.835323
-1.729173
-1.733297
-1.737809
-1.742791
-1.748356
-1.75464
-1.761843
-1.77029
-1.780467
-1.793172
-1.810596
-1.835545
-1.724849
-1.728626
-1.732724
-1.737203
-1.742145
-1.747646
-1.753838
-1.760936
-1.769246
-1.779239
-1.792212
-1.809494
-1.834438
-1.720723
-1.724201
-1.727946
-1.732003
-1.736435
-1.741307
-1.746709
-1.75279
-1.759745
-1.767864
-1.777964
-1.79054
-1.807065
-1.829302
-1.716935
-1.720163
-1.723616
-1.72733
-1.731352
-1.735729
-1.740526
-1.745847
-1.751824
-1.758646
-1.766878
-1.776688
-1.788835
-1.804484
-1.824143
-1.713506
-1.716526
-1.719739
-1.723175
-1.726869
-1.730856
-1.735184
-1.73993
-1.745188
-1.751087
-1.758048
-1.766101
-1.775694
-1.787489
-1.802469
-1.710403
-1.713249
-1.716264
-1.719471
-1.722899
-1.726574
-1.730532
-1.734833
-1.739546
-1.744763
-1.750818
-1.757672
-1.765619
-1.775056
-1.786607
-1.707583
-1.710282
-1.713131
-1.716148
-1.719357
-1.722779
-1.72644
-1.730388
-1.734677
-1.739375
-1.744755
-1.750745
-1.757552
-1.765433
-1.774778
-1.812312
-1.798632
-1.814412
-1.786415
-1.800679
-1.817619
-1.776715
-1.788408
-1.80335
-1.821822
-1.768689
-1.778459
-1.790589
-1.806256
-1.826434
-1.761525
-1.769836
-1.779846
-1.792316
-1.808531
-1.829901
-1.755009
-1.762192
-1.770631
-1.780811
-1.793518
-1.81004
-1.832051
-1.749066
-1.755364
-1.762616
-1.771144
-1.781444
-1.79428
-1.810945
-1.833346
-1.743624
-1.749216
-1.755551
-1.762851
-1.771443
-1.7818
-1.794686
-1.811461
-1.834132
-1.738606
-1.743626
-1.749237
-1.755595
-1.762926
-1.771534
-1.781896
-1.79482
-1.811674
-1.834569
-1.733936
-1.738485
-1.743511
-1.749129
-1.755497
-1.76282
-1.771403
-1.781756
-1.794682
-1.811579
-1.836312
-1.729544
-1.733696
-1.73824
-1.743261
-1.748873
-1.755216
-1.762493
-1.771036
-1.78134
-1.794216
-1.811902
-1.837546
-1.725361
-1.729174
-1.733312
-1.73784
-1.742841
-1.748414
-1.754695
-1.761909
-1.77037
-1.780568
-1.793844
-1.81165
-1.838133
-1.721332
-1.72485
-1.728641
-1.732752
-1.737248
-1.742197
-1.747695
-1.753894
-1.761003
-1.769327
-1.779738
-1.792891
-1.810726
-1.837626
-1.717465
-1.720725
-1.724215
-1.727972
-1.732044
-1.736481
-1.741349
-1.746758
-1.752845
-1.75981
-1.768241
-1.778361
-1.791042
-1.80776
-1.830476
-1.713895
-1.716937
-1.720175
-1.723639
-1.727367
-1.731393
-1.735767
-1.740568
-1.745894
-1.751878
-1.758952
-1.767159
-1.776979
-1.789136
-1.804801
-1.710649
-1.713508
-1.716537
-1.719761
-1.723208
-1.726907
-1.730891
-1.735222
-1.739971
-1.745234
-1.751346
-1.758273
-1.766318
-1.775896
-1.787667
-1.707699
-1.710404
-1.713259
-1.716284
-1.719502
-1.722933
-1.726605
-1.730566
-1.73487
-1.739587
-1.744989
-1.751007
-1.757849
-1.765777
-1.775188
-1.705008
-1.707584
-1.710292
-1.71315
-1.716177
-1.719389
-1.722808
-1.726471
-1.730422
-1.734714
-1.739574
-1.744916
-1.750892
-1.757681
-1.765537
-1.811311
-1.797304
-1.812384
-1.784898
-1.798683
-1.814554
-1.775123
-1.786451
-1.80078
-1.817845
-1.767238
-1.776741
-1.788482
-1.803508
-1.822158
-1.760543
-1.768705
-1.778514
-1.790704
-1.806481
-1.826828
-1.754427
-1.761535
-1.769877
-1.779931
-1.792473
-1.808768
-1.830278
-1.748752
-1.755015
-1.762224
-1.770697
-1.780927
-1.793677
-1.810245
-1.832457
-1.74349
-1.749069
-1.755389
-1.762669
-1.771235
-1.781561
-1.794413
-1.811155
-1.833772
-1.738606
-1.743626
-1.749237
-1.755595
-1.762926
-1.771534
-1.781896
-1.79482
-1.811674
-1.834569
-1.734049
-1.738607
-1.743644
-1.749274
-1.755658
-1.763001
-1.77161
-1.781993
-1.794955
-1.811887
-1.836714
-1.729768
-1.733937
-1.7385
-1.743544
-1.749184
-1.755561
-1.762882
-1.77148
-1.781854
-1.794818
-1.812619
-1.838554
-1.725708
-1.729545
-1.73371
-1.738271
-1.74331
-1.74893
-1.75527
-1.762557
-1.771114
-1.78144
-1.794884
-1.812928
-1.840053
-1.721813
-1.725361
-1.729187
-1.73334
-1.737885
-1.742893
-1.748462
-1.754751
-1.761975
-1.77045
-1.781067
-1.794517
-1.812867
-1.841193
-1.718038
-1.721333
-1.724863
-1.728667
-1.732794
-1.737295
-1.742241
-1.747744
-1.753952
-1.761071
-1.769726
-1.78024
-1.7937
-1.812251
-1.841965
-1.714395
-1.717466
-1.720737
-1.724238
-1.728009
-1.732086
-1.736519
-1.741392
-1.746806
-1.752901
-1.760124
-1.768554
-1.77873
-1.791485
-1.808301
-1.711017
-1.713896
-1.716947
-1.720196
-1.723673
-1.727405
-1.731428
-1.735805
-1.74061
-1.745941
-1.75214
-1.759181
-1.767387
-1.777198
-1.789332
-1.707932
-1.71065
-1.713518
-1.716557
-1.719792
-1.723243
-1.726938
-1.730924
-1.735259
-1.740013
-1.74546
-1.751534
-1.758449
-1.766475
-1.776025
-1.705119
-1.7077
-1.710414
-1.713278
-1.716313
-1.719534
-1.722962
-1.726636
-1.7306
-1.734907
-1.739786
-1.745149
-1.751152
-1.757975
-1.765877
-1.702545
-1.705009
-1.707592
-1.710309
-1.713177
-1.716207
-1.719416
-1.722836
-1.726502
-1.730455
-1.734891
-1.739713
-1.745039
-1.750997
-1.757761
-1.796645
-1.811381
-1.783889
-1.797353
-1.812518
-1.77389
-1.784933
-1.79878
-1.81476
-1.765896
-1.775149
-1.786523
-1.80093
-1.81814
-1.75929
-1.767256
-1.776796
-1.788593
-1.803718
-1.822496
-1.753561
-1.760555
-1.768748
-1.7786
-1.790859
-1.806708
-1.827166
-1.74823
-1.754434
-1.761568
-1.769944
-1.780049
-1.792632
-1.808968
-1.830659
-1.743205
-1.748756
-1.755041
-1.762277
-1.770788
-1.781044
-1.79381
-1.810452
-1.832868
-1.738483
-1.743493
-1.74909
-1.755433
-1.762744
-1.771327
-1.781658
-1.794547
-1.811366
-1.834202
-1.734049
-1.738607
-1.743644
-1.749274
-1.755658
-1.763001
-1.77161
-1.781993
-1.794955
-1.811887
-1.836714
-1.729874
-1.73405
-1.738622
-1.743677
-1.749329
-1.755723
-1.763063
-1.771686
-1.782091
-1.795091
-1.812933
-1.838968
-1.725918
-1.729769
-1.733951
-1.73853
-1.743593
-1.74924
-1.755614
-1.762945
-1.771557
-1.781953
-1.795482
-1.813626
-1.841007
-1.722139
-1.725708
-1.729557
-1.733738
-1.738315
-1.743361
-1.748977
-1.755324
-1.762622
-1.771193
-1.781929
-1.795521
-1.814062
-1.842867
-1.718491
-1.721813
-1.725373
-1.729213
-1.733381
-1.737931
-1.742935
-1.74851
-1.754807
-1.762041
-1.770845
-1.781556
-1.795298
-1.814264
-1.844795
-1.714938
-1.718039
-1.721345
-1.724887
-1.728704
-1.732836
-1.737334
-1.742284
-1.747794
-1.754009
-1.761402
-1.770122
-1.780839
-1.794699
-1.81425
-1.84961
-1.711491
-1.714396
-1.717476
-1.720758
-1.724272
-1.728047
-1.73212
-1.736557
-1.741435
-1.746854
-1.753169
-1.760379
-1.768841
-1.779048
-1.791806
-1.708282
-1.711017
-1.713906
-1.716967
-1.720228
-1.723708
-1.727436
-1.731462
-1.735842
-1.740652
-1.746169
-1.752331
-1.759365
-1.767555
-1.777333
-1.705342
-1.707933
-1.710659
-1.713536
-1.716586
-1.719824
-1.723272
-1.726968
-1.730958
-1.735296
-1.740212
-1.745619
-1.751678
-1.758573
-1.766571
-1.702651
-1.70512
-1.707708
-1.710431
-1.713305
-1.716343
-1.71956
-1.72299
-1.726667
-1.730633
-1.735085
-1.739923
-1.745271
-1.751255
-1.758053
-1.700182
-1.702546
-1.705017
-1.707609
-1.710334
-1.713204
-1.716231
-1.719442
-1.722864
-1.726532
-1.730615
-1.735011
-1.739817
-1.745124
-1.751059
-1.783389
-1.796694
-1.811511
-1.773071
-1.783925
-1.797448
-1.812714
-1.764858
-1.773917
-1.785004
-1.798923
-1.815031
-1.758132
-1.765916
-1.775204
-1.786631
-1.801126
-1.818438
-1.752459
-1.759304
-1.7673
-1.776881
-1.788742
-1.803929
-1.822784
-1.747456
-1.753571
-1.76059
-1.768816
-1.778717
-1.791015
-1.806901
-1.827509
-1.742732
-1.748236
-1.754461
-1.761623
-1.770037
-1.780167
-1.792765
-1.809171
-1.831045
-1.738222
-1.743208
-1.748778
-1.755086
-1.762353
-1.770881
-1.781142
-1.793945
-1.810661
-1.833282
-1.733936
-1.738485
-1.743511
-1.749129
-1.755497
-1.76282
-1.771403
-1.781756
-1.794682
-1.811579
-1.836312
-1.729874
-1.73405
-1.738622
-1.743677
-1.749329
-1.755723
-1.763063
-1.771686
-1.782091
-1.795091
-1.812933
-1.838968
-1.726016
-1.729874
-1.734064
-1.738652
-1.743725
-1.749385
-1.755775
-1.763126
-1.771763
-1.782189
-1.795754
-1.813934
-1.841399
-1.722336
-1.725918
-1.729781
-1.733977
-1.738574
-1.743643
-1.749286
-1.755668
-1.763008
-1.771634
-1.782435
-1.796094
-1.814709
-1.843684
-1.718799
-1.722139
-1.725719
-1.729582
-1.733778
-1.73836
-1.743402
-1.749024
-1.755379
-1.762687
-1.771578
-1.782384
-1.796231
-1.815303
-1.845998
-1.715366
-1.718491
-1.721824
-1.725397
-1.72925
-1.733423
-1.737969
-1.742978
-1.748559
-1.754864
-1.762367
-1.771227
-1.782126
-1.796196
-1.815851
-1.849773
-1.712006
-1.714938
-1.71805
-1.721367
-1.724921
-1.728743
-1.732871
-1.737373
-1.742328
-1.747844
-1.754291
-1.761726
-1.770595
-1.78158
-1.796005
-1.817582
-1.854055
-1.708734
-1.711492
-1.714406
-1.717496
-1.72079
-1.724307
-1.728078
-1.732155
-1.736595
-1.741477
-1.747087
-1.753381
-1.760611
-1.769085
-1.779265
-1.705675
-1.708283
-1.711026
-1.713924
-1.716997
-1.72026
-1.723736
-1.727467
-1.731495
-1.735879
-1.740852
-1.74633
-1.752481
-1.759497
-1.767652
-1.702864
-1.705342
-1.707941
-1.710676
-1.713564
-1.716616
-1.719851
-1.7233
-1.726999
-1.730991
-1.735474
-1.740348
-1.74574
-1.751778
-1.758646
-1.700284
-1.702651
-1.705128
-1.707724
-1.710456
-1.713333
-1.716367
-1.719586
-1.723018
-1.726697
-1.730793
-1.735204
-1.740026
-1.745354
-1.751314
-1.69791
-1.700183
-1.702553
-1.705032
-1.707632
-1.710361
-1.713227
-1.716255
-1.719467
-1.722892
-1.726677
-1.73072
-1.7351
-1.739887
-1.745172
-1.772665
-1.783425
-1.796788
-1.811702
-1.764168
-1.773098
-1.783994
-1.797587
-1.81297
-1.757236
-1.764879
-1.773971
-1.785109
-1.799111
-1.815304
-1.75144
-1.758147
-1.76596
-1.775287
-1.786773
-1.801325
-1.81869
-1.746471
-1.752469
-1.75934
-1.767368
-1.776994
-1.788891
-1.804107
-1.823073
-1.742032
-1.747463
-1.753599
-1.760646
-1.76891
-1.778836
-1.791147
-1.807096
-1.827856
-1.737789
-1.742736
-1.748259
-1.754508
-1.7617
-1.770132
-1.780266
-1.7929
-1.809375
-1.831435
-1.733695
-1.738224
-1.743227
-1.748817
-1.75515
-1.76243
-1.770958
-1.781241
-1.79408
-1.810871
-1.835323
-1.729768
-1.733937
-1.7385
-1.743544
-1.749184
-1.755561
-1.762882
-1.77148
-1.781854
-1.794818
-1.812619
-1.838554
-1.726016
-1.729874
-1.734064
-1.738652
-1.743725
-1.749385
-1.755775
-1.763126
-1.771763
-1.782189
-1.795754
-1.813934
-1.841399
-1.722429
-1.726016
-1.729886
-1.73409
-1.738695
-1.743774
-1.749431
-1.755828
-1.763188
-1.771839
-1.782669
-1.796355
-1.814994
-1.844023
-1.718985
-1.722336
-1.725929
-1.729805
-1.734017
-1.738618
-1.743683
-1.749332
-1.755721
-1.763072
-1.772012
-1.782866
-1.796759
-1.815863
-1.846597
-1.715657
-1.718798
-1.722149
-1.725742
-1.729618
-1.733818
-1.738397
-1.743444
-1.749071
-1.755434
-1.763003
-1.771929
-1.782895
-1.797012
-1.81664
-1.850149
-1.712413
-1.715366
-1.718501
-1.721845
-1.725431
-1.729288
-1.733457
-1.738007
-1.743021
-1.748608
-1.755141
-1.762679
-1.771674
-1.782785
-1.797215
-1.817939
-1.853616
-1.709223
-1.712006
-1.714948
-1.71807
-1.721399
-1.724957
-1.728775
-1.732906
-1.737412
-1.742372
-1.748089
-1.754563
-1.762115
-1.771182
-1.78255
-1.798135
-1.819538
-1.857479
-1.706106
-1.708734
-1.711501
-1.714424
-1.717526
-1.720822
-1.724336
-1.72811
-1.732189
-1.736633
-1.741682
-1.747266
-1.753572
-1.760804
-1.769242
-1.703183
-1.705676
-1.708291
-1.711044
-1.713951
-1.717026
-1.720286
-1.723765
-1.727497
-1.731529
-1.736058
-1.74099
-1.746455
-1.752586
-1.759568
-1.700487
-1.702864
-1.70535
-1.707958
-1.710701
-1.713592
-1.716641
-1.719877
-1.723328
-1.727029
-1.731151
-1.735591
-1.740449
-1.74582
-1.751833
-1.698007
-1.700284
-1.702659
-1.705143
-1.707748
-1.710483
-1.713356
-1.716391
-1.719612
-1.723046
-1.726842
-1.730897
-1.735291
-1.740094
-1.745399
-1.69572
-1.69791
-1.70019
-1.702568
-1.705055
-1.707657
-1.710382
-1.71325
-1.716279
-1.719493
-1.723025
-1.72677
-1.730796
-1.735157
-1.739922
-1.763826
-1.772692
-1.783494
-1.796925
-1.811952
-1.756639
-1.764189
-1.773152
-1.784097
-1.79777
-1.813228
-1.75065
-1.757251
-1.764922
-1.774053
-1.785248
-1.799301
-1.815534
-1.745561
-1.751452
-1.758183
-1.766027
-1.775398
-1.786917
-1.801492
-1.818942
-1.741141
-1.74648
-1.752499
-1.759396
-1.76746
-1.77711
-1.789017
-1.804286
-1.823364
-1.737148
-1.742037
-1.747488
-1.753647
-1.760724
-1.769005
-1.778935
-1.79128
-1.807292
-1.828208
-1.733295
-1.737792
-1.742756
-1.748299
-1.754573
-1.761778
-1.77021
-1.780366
-1.793035
-1.809582
-1.833362
-1.729544
-1.733696
-1.73824
-1.743261
-1.748873
-1.755216
-1.762493
-1.771036
-1.78134
-1.794216
-1.811902
-1.837546
-1.725918
-1.729769
-1.733951
-1.73853
-1.743593
-1.74924
-1.755614
-1.762945
-1.771557
-1.781953
-1.795482
-1.813626
-1.841007
-1.722429
-1.726016
-1.729886
-1.73409
-1.738695
-1.743774
-1.749431
-1.755828
-1.763188
-1.771839
-1.782669
-1.796355
-1.814994
-1.844023
-1.719073
-1.722428
-1.726027
-1.72991
-1.734129
-1.738739
-1.743815
-1.749476
-1.755881
-1.763251
-1.772214
-1.783088
-1.797
-1.816113
-1.846853
-1.715834
-1.718984
-1.722346
-1.725951
-1.729841
-1.734057
-1.738654
-1.743724
-1.749379
-1.755775
-1.763382
-1.772341
-1.783338
-1.797474
-1.817082
-1.850428
-1.712689
-1.715657
-1.718808
-1.72217
-1.725775
-1.729656
-1.733852
-1.738434
-1.743486
-1.749119
-1.755702
-1.763287
-1.772326
-1.783459
-1.797856
-1.81833
-1.853564
-1.709611
-1.712412
-1.715375
-1.718521
-1.721877
-1.725466
-1.729319
-1.733491
-1.738046
-1.743065
-1.748849
-1.755402
-1.763045
-1.772193
-1.783534
-1.798518
-1.819615
-1.856892
-1.706573
-1.709223
-1.712015
-1.714966
-1.718099
-1.721432
-1.724986
-1.728807
-1.732942
-1.737452
-1.742588
-1.748322
-1.754892
-1.7626
-1.771953
-1.784112
-1.799363
-1.821105
-1.860236
-1.703594
-1.706106
-1.708742
-1.711518
-1.714452
-1.717556
-1.720849
-1.724365
-1.728141
-1.732223
-1.736816
-1.741836
-1.747427
-1.753729
-1.760921
-1.700793
-1.703183
-1.705683
-1.708307
-1.711069
-1.713979
-1.717051
-1.720312
-1.723793
-1.727528
-1.73169
-1.736177
-1.741095
-1.746539
-1.752638
-1.698202
-1.700487
-1.702871
-1.705365
-1.707981
-1.710728
-1.713614
-1.716665
-1.719902
-1.723356
-1.727175
-1.731254
-1.735677
-1.740514
-1.74586
-1.695813
-1.698007
-1.700291
-1.702673
-1.705165
-1.707773
-1.710504
-1.713378
-1.716415
-1.719637
-1.723179
-1.726934
-1.730972
-1.735346
-1.740127
-1.693605
-1.69572
-1.697917
-1.700203
-1.702589
-1.705078
-1.707677
-1.710403
-1.713272
-1.716303
-1.719616
-1.723106
-1.726835
-1.730843
-1.735183
-1.756343
-1.763846
-1.772745
-1.783596
-1.797105
-1.812203
-1.750125
-1.756655
-1.764232
-1.773232
-1.784234
-1.797954
-1.813446
-1.744855
-1.750663
-1.757287
-1.764988
-1.774162
-1.785388
-1.799461
-1.815763
-1.740317
-1.74557
-1.751481
-1.758239
-1.766117
-1.77551
-1.787039
-1.801658
-1.819194
-1.736334
-1.741147
-1.746504
-1.752547
-1.759472
-1.767553
-1.777206
-1.789143
-1.804464
-1.823657
-1.732705
-1.737152
-1.742058
-1.747529
-1.753713
-1.760803
-1.769085
-1.779036
-1.791414
-1.80749
-1.829944
-1.729173
-1.733297
-1.737809
-1.742791
-1.748356
-1.75464
-1.761843
-1.77029
-1.780467
-1.793172
-1.810596
-1.835545
-1.725708
-1.729545
-1.73371
-1.738271
-1.74331
-1.74893
-1.75527
-1.762557
-1.771114
-1.78144
-1.794884
-1.812928
-1.840053
-1.722336
-1.725918
-1.729781
-1.733977
-1.738574
-1.743643
-1.749286
-1.755668
-1.763008
-1.771634
-1.782435
-1.796094
-1.814709
-1.843684
-1.719073
-1.722428
-1.726027
-1.72991
-1.734129
-1.738739
-1.743815
-1.749476
-1.755881
-1.763251
-1.772214
-1.783088
-1.797
-1.816113
-1.846853
-1.715917
-1.719072
-1.722438
-1.726049
-1.729945
-1.734169
-1.738775
-1.743855
-1.749523
-1.755934
-1.763558
-1.772533
-1.783543
-1.797687
-1.817286
-1.850566
-1.712857
-1.715833
-1.718993
-1.722366
-1.725984
-1.729878
-1.73409
-1.738691
-1.743765
-1.749426
-1.756037
-1.763647
-1.772705
-1.783849
-1.798232
-1.818611
-1.853618
-1.709874
-1.712688
-1.715665
-1.718827
-1.722201
-1.72581
-1.729686
-1.733885
-1.738471
-1.743528
-1.749352
-1.75594
-1.763611
-1.772767
-1.784072
-1.798886
-1.819807
-1.856639
-1.706943
-1.70961
-1.712421
-1.715393
-1.71855
-1.721909
-1.725495
-1.729351
-1.733526
-1.738085
-1.743277
-1.749073
-1.755712
-1.763472
-1.772785
-1.784473
-1.799535
-1.821107
-1.85964
-1.704041
-1.706573
-1.709232
-1.712032
-1.714994
-1.71813
-1.721459
-1.725016
-1.728839
-1.732977
-1.737644
-1.742792
-1.748606
-1.755303
-1.763238
-1.773183
-1.785003
-1.80035
-1.822408
-1.862475
-1.701187
-1.703594
-1.706114
-1.708758
-1.711544
-1.71448
-1.71758
-1.720875
-1.724393
-1.728172
-1.732388
-1.736949
-1.741972
-1.747556
-1.753818
-1.698496
-1.700793
-1.70319
-1.705699
-1.708331
-1.711095
-1.714002
-1.717075
-1.720338
-1.723821
-1.727674
-1.731793
-1.736265
-1.741162
-1.746575
-1.696001
-1.698202
-1.700494
-1.702886
-1.705388
-1.708006
-1.710749
-1.713637
-1.716689
-1.719928
-1.723489
-1.727264
-1.731327
-1.735729
-1.740543
-1.693695
-1.695813
-1.698014
-1.700304
-1.702695
-1.705189
-1.707793
-1.710525
-1.7134
-1.716439
-1.71976
-1.723259
-1.726998
-1.731017
-1.73537
-1.691559
-1.693605
-1.695726
-1.69793
-1.700224
-1.702611
-1.705097
-1.707697
-1.710424
-1.713294
-1.716416
-1.719688
-1.723163
-1.726874
-1.730862
-1.749865
-1.756359
-1.76389
-1.772826
-1.783731
-1.797286
-1.812415
-1.744386
-1.750138
-1.756691
-1.764298
-1.77334
-1.784371
-1.798109
-1.813663
-1.739679
-1.744865
-1.750693
-1.757343
-1.765077
-1.774272
-1.785506
-1.79962
-1.815992
-1.735582
-1.740324
-1.745595
-1.751529
-1.758315
-1.766209
-1.775605
-1.787159
-1.801824
-1.819446
-1.731954
-1.736339
-1.741169
-1.746546
-1.752612
-1.75955
-1.767631
-1.777303
-1.789269
-1.804643
-1.825087
-1.728624
-1.732708
-1.737171
-1.742094
-1.747587
-1.753781
-1.76087
-1.769165
-1.779137
-1.791549
-1.808464
-1.831951
-1.725361
-1.729174
-1.733312
-1.73784
-1.742841
-1.748414
-1.754695
-1.761909
-1.77037
-1.780568
-1.793844
-1.81165
-1.838133
-1.722139
-1.725708
-1.729557
-1.733738
-1.738315
-1.743361
-1.748977
-1.755324
-1.762622
-1.771193
-1.781929
-1.795521
-1.814062
-1.842867
-1.718985
-1.722336
-1.725929
-1.729805
-1.734017
-1.738618
-1.743683
-1.749332
-1.755721
-1.763072
-1.772012
-1.782866
-1.796759
-1.815863
-1.846597
-1.715917
-1.719072
-1.722438
-1.726049
-1.729945
-1.734169
-1.738775
-1.743855
-1.749523
-1.755934
-1.763558
-1.772533
-1.783543
-1.797687
-1.817286
-1.850566
-1.712936
-1.715916
-1.719081
-1.722458
-1.726082
-1.729982
-1.734202
-1.738811
-1.743896
-1.749569
-1.756194
-1.763814
-1.772882
-1.784032
-1.798411
-1.818754
-1.853664
-1.710034
-1.712856
-1.715841
-1.719012
-1.722397
-1.726018
-1.729908
-1.734123
-1.738728
-1.743806
-1.749653
-1.756258
-1.763942
-1.773102
-1.784395
-1.799147
-1.81998
-1.856551
-1.707194
-1.709873
-1.712696
-1.715683
-1.718856
-1.722233
-1.725838
-1.729717
-1.733919
-1.738509
-1.743733
-1.749555
-1.756212
-1.763972
-1.773247
-1.784801
-1.799755
-1.821204
-1.859315
-1.704395
-1.706942
-1.709618
-1.712438
-1.715421
-1.718581
-1.721936
-1.725523
-1.729382
-1.733562
-1.738274
-1.743472
-1.74934
-1.756073
-1.76396
-1.773513
-1.785188
-1.800447
-1.822397
-1.86192
-1.701615
-1.704041
-1.706581
-1.709248
-1.712059
-1.715023
-1.718155
-1.721486
-1.725045
-1.728872
-1.733151
-1.737823
-1.743039
-1.748962
-1.755848
-1.764249
-1.773879
-1.78572
-1.801169
-1.823489
-1.864275
-1.698874
-1.701187
-1.703601
-1.706129
-1.708783
-1.71157
-1.714503
-1.717605
-1.720901
-1.724421
-1.728321
-1.732504
-1.737067
-1.742079
-1.747623
-1.696283
-1.698496
-1.7008
-1.703204
-1.705721
-1.708356
-1.711117
-1.714024
-1.717099