/*--------------------------------*- C++ -*----------------------------------*\
| =========                 |                                                 |
| \\      /  F ield         | OpenFOAM: The Open Source CFD Toolbox           |
|  \\    /   O peration     | Version:  2306                                  |
|   \\  /    A nd           | Website:  www.openfoam.com                      |
|    \\/     M anipulation  |                                                 |
\*---------------------------------------------------------------------------*/
FoamFile
{
    version     2.0;
    format      ascii;
    arch        "LSB;label=32;scalar=64";
    class       volScalarField;
    location    "1.5/fuel";
    object      p;
}
// * * * * * * * * * * * * * * * * * * * * * * * * * * * * * * * * * * * * * //

dimensions      [1 -1 -2 0 0 0 0];

internalField   nonuniform List<scalar> 
16000
(
100662.5
100654.3
100550.4
100640.9
100639.7
100542.1
100632.4
100461.7
100532.6
100593.7
100613.9
100526.8
100617.1
100454.3
100524.1
100584.5
100395.2
100446.9
100493.4
100538.9
100589.9
100500.8
100590.4
100440.5
100508.4
100567.7
100388.7
100439.3
100484.5
100528.9
100345.1
100382.6
100414.3
100448
100424.5
100541.4
100474.2
100564.9
100417.2
100481.8
100538.7
100376.5
100425.3
100468.1
100510.4
100339.3
100376
100406.5
100438.6
100412.8
100305.7
100334.2
100354.9
100376.5
100353.1
100402.6
100533.1
100427.3
100514.9
100393.1
100454.5
100510.4
100356.1
100401.7
100440.2
100478.8
100328.4
100363.6
100391.8
100421.2
100390.9
100300.5
100328.3
100348
100368.3
100342.7
100390.6
100274.2
100296.1
100310.1
100322.6
100297.4
100334.9
100395.7
100526.5
100414.4
100505.5
100352.1
100406.8
100457
100334.7
100377
100411.3
100447.1
100310.4
100342.9
100367.4
100391.9
100353.9
100290.8
100317.3
100335.2
100353
100323.3
100368
100269.5
100290.9
100304
100315.5
100288.5
100324.4
100383.5
100248.1
100265.6
100274.9
100282.1
100255.2
100282.2
100329.2
100383.9
100525.9
100404.8
100498.2
100339.6
100393.4
100445.2
100299.1
100335.5
100361.9
100389.9
100291.3
100321.2
100341.7
100361.2
100315
100274.7
100299
100313.9
100327.6
100291
100330
100260.7
100281.1
100292.7
100302.2
100271.9
100304.5
100360.7
100243.9
100260.9
100269.6
100275.8
100247.6
100273.2
100318.5
100371.6
100226.3
100240.5
100246.7
100250.3
100223.6
100242.3
100277.4
100319.4
100374.1
100525.6
100401.8
100497.2
100330.5
100383.5
100436.2
100287.8
100322.7
100347.3
100375.2
100260.2
100285.3
100299.1
100309.8
100249.7
100257.6
100279.7
100291.5
100300.7
100256.5
100289.8
100246.2
100264.8
100274
100280.3
100244.5
100271.7
100322.4
100235.9
100252
100259.5
100264.2
100233.3
100256.3
100298.6
100348.4
100222.4
100236.2
100241.9
100244.7
100216.9
100234.6
100268.4
100308.7
100361.6
100207.7
100219.4
100223.5
100224.8
100198.7
100212.3
100238.2
100269.3
100311.3
100361.9
100525.6
100400.5
100496.7
100327.3
100380.3
100434.4
100279.7
100313.4
100336.7
100364.5
100250
100273.8
100285.6
100293.9
100229.2
100230
100248.3
100254.8
100256.8
100201
100222.9
100230.8
100247.5
100254.2
100256.9
100215.1
100236.5
100281.7
100222.7
100237.4
100242.8
100244.9
100209.9
100228.6
100265.5
100309.5
100215.1
100228.1
100232.8
100234.4
100204.5
100220.1
100251.4
100288.5
100338.1
100204.2
100215.5
100219.1
100219.8
100192.9
100205.6
100230.5
100260.2
100300.5
100349.2
100191.7
100201.4
100204
100203.7
100178.8
100188.8
100208.8
100231.3
100262.5
100301.2
100330.9
100525.9
100400.5
100496.7
100325.9
100378.9
100433.6
100276.7
100310.2
100333.2
100361.7
100242.7
100265.5
100275.9
100282.5
100214.8
100220.9
100238
100242.8
100242.5
100182.3
100201.3
100206
100219.7
100222.1
100219.3
100168.6
100180.2
100214.3
100208.7
100221.8
100225.1
100224.4
100184.8
100198.7
100230.1
100268.1
100203.1
100214.8
100217.9
100217.3
100184.1
100196.4
100223.5
100255.2
100298.8
100197.4
100208.1
100210.9
100210.5
100181.9
100193.1
100216
100243.1
100280.1
100325.4
100188.4
100197.8
100200
100199.2
100173.6
100182.9
100202.1
100223.5
100253.4
100290.2
100317.8
100177.7
100185.9
100187.4
100186.1
100162.4
100170
100185.7
100202.8
100225.5
100254.1
100275.5
100338.2
100526.5
100401.8
100497.2
100325.9
100378.9
100433.6
100275.3
100308.7
100331.6
100360.4
100240
100262.4
100272.5
100278.5
100209.9
100214.3
100230.6
100234.2
100232.4
100169.3
100186.1
100197.7
100210.4
100211.5
100206.8
100152.6
100161
100192.3
100186.4
100196.9
100196.8
100191.7
100145.3
100151.7
100173.5
100199.8
100190.3
100200.7
100202
100199.1
100162.3
100171
100193.5
100219.4
100256.8
100186.4
100196
100197.4
100195.2
100163.9
100172.5
100192.2
100215
100246.5
100285.4
100182.2
100191
100192.5
100190.8
100163.8
100171.8
100189.4
100208.9
100236.1
100269.7
100293
100174.6
100182.6
100183.7
100182
100157.7
100164.7
100179.8
100196
100217.7
100244.9
100264.3
100325.1
100165.4
100172.4
100173
100171.1
100148.6
100154.5
100167.2
100180.4
100197.8
100218.3
100232.7
100281.5
100326.3
100533.1
100404.8
100498.2
100327.3
100380.3
100434.4
100275.3
100308.7
100331.6
100360.4
100238.8
100261.1
100270.9
100276.8
100207.7
100211.8
100227.9
100231.1
100228.7
100164.4
100180.8
100191.8
100203.8
100203.9
100197.9
100141.4
100147.6
100177
100178.8
100188.5
100187.3
100180.7
100131.6
100135.4
100154.2
100177.2
100170
100178.2
100176.7
100170.3
100128.1
100131.1
100146.3
100162.3
100187.6
100174.6
100183.1
100182.9
100178.9
100144.7
100150.4
100166.6
100184.7
100210.4
100242.6
100172
100179.9
100180.2
100177
100147.8
100153.7
100168.8
100184.9
100207.8
100235.7
100251.6
100168.9
100176.3
100176.8
100174.3
100148.8
100154.8
100168.6
100183.3
100203
100227.5
100243.2
100300.4
100162.5
100169.3
100169.7
100167.3
100144.4
100149.7
100161.9
100174.5
100191
100210.5
100223.3
100270.4
100313
100154.4
100160.4
100160.5
100158.1
100136.9
100141.4
100152
100162.5
100176
100191.5
100200.1
100237.7
100271.7
100323.8
100541.4
100414.4
100505.5
100330.5
100383.5
100436.2
100276.7
100310.2
100333.2
100361.7
100238.8
100261.1
100270.9
100276.8
100207.7
100210.7
100226.6
100229.6
100227
100162.3
100178.4
100189.6
100201.3
100201.1
100194.6
100137.2
100142.6
100171.5
100173.4
100182.5
100180.5
100172.8
100122.1
100124.1
100140.7
100161.5
100163.1
100170.6
100168.1
100160.4
100116.2
100117.2
100129.9
100142.6
100164.5
100156.1
100162.6
100160.1
100153.2
100114.7
100116
100126.6
100137.1
100152.8
100172.2
100161.1
100168.1
100167
100162.2
100130.6
100134.2
100146.6
100159.2
100177.4
100199.2
100206.9
100159.5
100166.1
100165.5
100161.8
100134.4
100138.7
100150.5
100162.5
100178.9
100198.9
100208.5
100258.7
100157.1
100163.5
100163.3
100160.3
100136.3
100140.8
100152
100163.2
100178.2
100195.6
100205.6
100249.3
100287.8
100151.7
100157.5
100157.4
100154.6
100133
100137.1
100147.2
100157.2
100170
100184.7
100192.2
100228.4
100260.4
100310.3
100144.5
100149.8
100149.5
100146.7
100126.7
100130.3
100139.2
100147.7
100158.6
100170.5
100175.7
100204.4
100229.6
100269.6
100321
100589.9
100427.3
100514.9
100339.6
100393.4
100445.2
100279.7
100313.4
100336.7
100364.5
100240
100262.4
100272.5
100278.5
100209.9
100210.7
100226.6
100229.6
100227
100162.3
100178.4
100188.5
100200.1
100199.8
100193.1
100135.3
100140.4
100169.1
100171.4
100180.2
100177.9
100169.9
100118.4
100119.7
100135.6
100155.8
100158.1
100165.1
100162
100153.5
100107.9
100107.5
100118.5
100129
100148.5
100149.7
100155.6
100152.3
100144.3
100104.2
100103.9
100112.6
100120.6
100133
100148.6
100144.1
100149.4
100146.3
100139.1
100104
100104.1
100112.1
100118.9
100129.5
100140.9
100134.5
100149.4
100155.1
100153.5
100148.3
100119
100121.3
100130.9
100140.2
100153
100168.2
100170.9
100213.9
100148.4
100154
100152.9
100148.8
100123.3
100126.3
100135.8
100145
100157.3
100171.4
100176.5
100214.2
100244.3
100146.7
100152.2
100151.5
100148.1
100125.6
100129
100138.2
100147.2
100158.8
100171.8
100177.1
100210.6
100239
100284.9
100142
100147.1
100146.5
100143.5
100123.1
100126.4
100134.8
100142.9
100153.2
100164.5
100168.8
100196.4
100220.1
100258.2
100307.5
100135.7
100140.3
100139.6
100136.7
100117.8
100120.7
100128.2
100135.3
100144.2
100153.7
100156.6
100179.4
100197.5
100227.9
100267.4
100613.9
100474.2
100564.9
100352.1
100406.8
100457
100287.8
100322.7
100347.3
100375.2
100242.7
100265.5
100275.9
100282.5
100214.8
100211.8
100227.9
100231.1
100228.7
100164.4
100180.8
100188.5
100200.1
100199.8
100193.1
100135.3
100140.4
100169.1
100170.4
100179.2
100176.8
100168.5
100116.8
100117.8
100133.4
100153.3
100156.2
100163.1
100159.7
100150.8
100104.8
100103.8
100114.2
100123.9
100142.7
100145.1
100150.7
100146.8
100138.1
100096.9
100095.5
100102.9
100109.1
100119.2
100132.3
100138.2
100142.9
100139.2
100131.1
100094.6
100093.4
100099.9
100104.8
100112.8
100120.8
100109.3
100133.6
100138
100134.6
100127.3
100095.1
100094.5
100100.6
100105.5
100112.5
100119.8
100111.7
100136.6
100139
100143.8
100141.8
100136.5
100109.2
100110.7
100118.4
100125.3
100134.8
100145.2
100145.2
100176.4
100197.6
100138.5
100143.3
100141.9
100137.6
100113.7
100115.9
100123.7
100130.9
100140.4
100150.8
100152.4
100181.3
100202.6
100240
100137.4
100142.1
100141.1
100137.5
100116.4
100119
100126.7
100133.9
100143.2
100153.2
100155.7
100181.3
100202.1
100236.6
100281.8
100133.3
100137.8
100136.9
100133.7
100114.5
100117
100124.3
100131
100139.4
100148.3
100150.5
100172.5
100189.4
100218.3
100255.9
100127.6
100131.7
100130.8
100127.7
100109.9
100112.2
100118.7
100124.7
100132.1
100139.8
100141.3
100159.9
100173.4
100196
100226
100639.7
100500.8
100590.4
100393.1
100454.5
100510.4
100299.1
100335.5
100361.9
100389.9
100250
100273.8
100285.6
100293.9
100229.2
100214.3
100230.6
100234.2
100232.4
100169.3
100186.1
100189.6
100201.3
100201.1
100194.6
100137.2
100142.6
100171.5
100170.4
100179.2
100176.8
100168.5
100116.8
100117.8
100133.4
100153.3
100155.4
100162.1
100158.6
100149.6
100103.3
100102.2
100112.2
100121.6
100140.1
100143.4
100148.8
100144.7
100135.7
100094.1
100092.3
100099.2
100104.7
100114
100126.3
100134
100138.4
100134.2
100125.5
100088.1
100086.1
100091.5
100095.1
100101.3
100106.9
100091.9
100128.1
100132
100128
100120.1
100086.7
100085.1
100090
100093.3
100098.3
100103
100090.9
100113.1
100124.4
100128
100124.4
100117.3
100087.6
100086.6
100091.5
100094.9
100099.9
100104.4
100096.2
100113.2
100106.1
100129.8
100133.9
100131.6
100126.2
100100.9
100101.7
100108
100113.4
100120.6
100128.2
100125.8
100149.7
100163.6
100192
100129.7
100133.9
100132.1
100127.7
100105.4
100107
100113.5
100119.3
100126.9
100134.7
100134.4
100156.4
100171.7
100199.1
100235.1
100128.9
100133
100131.8
100128.1
100108.2
100110.3
100116.9
100122.8
100130.3
100138.2
100139
100159.4
100174.1
100200.1
100234.1
100125.4
100129.3
100128.2
100125
100106.8
100108.9
100115.1
100120.7
100127.7
100134.9
100135.9
100153.8
100166.4
100187.9
100216.3
100120.2
100123.9
100122.8
100119.7
100102.8
100104.7
100110.4
100115.5
100121.8
100128.1
100128.6
100144.2
100154.5
100172.1
100194.4
100654.3
100526.8
100617.1
100417.2
100481.8
100538.7
100334.7
100377
100411.3
100447.1
100260.2
100285.3
100299.1
100309.8
100249.7
100220.9
100238
100242.8
100242.5
100182.3
100201.3
100191.8
100203.8
100203.9
100197.9
100141.4
100147.6
100177
100171.4
100180.2
100177.9
100169.9
100118.4
100119.7
100135.6
100155.8
100155.4
100162.1
100158.6
100149.6
100103.3
100102.2
100112.2
100121.6
100140.1
100142.6
100147.9
100143.7
100134.6
100092.8
100090.8
100097.5
100102.8
100111.7
100123.6
100132.4
100136.6
100132.2
100123.3
100085.6
100083.2
100088.3
100091.3
100096.8
100101.7
100085.2
100124.3
100127.8
100123.4
100114.9
100080.8
100078.6
100082.6
100084.8
100088.5
100091.4
100076.5
100097
100119.3
100122.5
100118.4
100110.6
100080
100078.2
100082.1
100084.2
100087.7
100090.2
100078.9
100093.7
100085.7
100116.2
100119.2
100115.5
100108.6
100081.2
100080
100083.9
100086.4
100090.1
100093
100084.6
100097.4
100089.2
100085.1
100121.5
100125.1
100122.6
100117.3
100093.6
100094
100099.3
100103.6
100109.3
100114.8
100111.5
100129.6
100139.1
100159.1
100185.6
100121.8
100125.4
100123.5
100119.1
100098.1
100099.2
100104.8
100109.6
100115.7
100121.8
100120.3
100137.9
100148.3
100168.8
100195.2
100121.3
100124.9
100123.5
100119.8
100101
100102.6
100108.3
100113.3
100119.6
100125.9
100125.6
100142.3
100153.2
100172.4
100198.1
100118.2
100121.6
100120.4
100117.1
100100
100101.6
100107.1
100111.9
100117.8
100123.7
100123.8
100138.8
100148.4
100165.1
100186.2
100113.5
100116.7
100115.5
100112.4
100096.5
100098
100103.1
100107.5
100112.8
100118.1
100118
100131.2
100139.5
100153.4
100170.8
100662.5
100542.1
100632.4
100440.5
100508.4
100567.7
100356.1
100401.7
100440.2
100478.8
100291.3
100321.2
100341.7
100361.2
100315
100230
100248.3
100254.8
100256.8
100201
100222.9
100197.7
100210.4
100211.5
100206.8
100152.6
100161
100192.3
100173.4
100182.5
100180.5
100172.8
100122.1
100124.1
100140.7
100161.5
100156.2
100163.1
100159.7
100150.8
100104.8
100103.8
100114.2
100123.9
100142.7
100142.6
100147.9
100143.7
100134.6
100092.8
100090.8
100097.5
100102.8
100111.7
100123.6
100131.6
100135.8
100131.3
100122.3
100084.5
100082
100086.9
100089.6
100094.9
100099.3
100082.3
100122.8
100126.2
100121.6
100113
100078.6
100076
100079.8
100081.6
100084.8
100087
100071
100091.1
100115.7
100118.6
100114.1
100106
100074.7
100072.3
100075.5
100076.8
100079.2
100080.3
100067
100080.3
100072
100111.4
100114.1
100110
100102.5
100074.2
100072.3
100075.4
100076.9
100079.3
100080.7
100070
100081.1
100072.6
100069
100108.8
100111.4
100107.7
100101
100075.6
100074.3
100077.6
100079.4
100082.2
100084
100076
100085.6
100077.8
100072.7
100031.8
100114.1
100117.1
100114.5
100109.3
100087.3
100087.4
100091.9
100095.3
100099.9
100104.1
100100.2
100114.7
100120.8
100135.5
100153.9
100114.5
100117.7
100115.7
100111.3
100091.7
100092.5
100097.3
100101.2
100106.3
100111.1
100109
100123.4
100130.9
100145.9
100165.6
100114.3
100117.5
100115.9
100112.3
100094.6
100095.8
100100.8
100105.1
100110.3
100115.5
100114.6
100128.5
100136.8
100151.8
100170.7
100111.5
100114.6
100113.3
100110
100093.8
100095.2
100100
100104.1
100109.2
100114.1
100113.6
100126.4
100134
100147.2
100163.7
100107.2
100110.2
100108.9
100105.8
100090.7
100092
100096.5
100100.3
100105
100109.5
100108.9
100120.4
100127
100138.5
100152.2
100550.4
100640.9
100454.3
100524.1
100584.5
100376.5
100425.3
100468.1
100510.4
100310.4
100342.9
100367.4
100391.9
100353.9
100257.6
100279.7
100291.5
100300.7
100256.5
100289.8
100206
100219.7
100222.1
100219.3
100168.6
100180.2
100214.3
100178.8
100188.5
100187.3
100180.7
100131.6
100135.4
100154.2
100177.2
100158.1
100165.1
100162
100153.5
100107.9
100107.5
100118.5
100129
100148.5
100143.4
100148.8
100144.7
100135.7
100094.1
100092.3
100099.2
100104.7
100114
100126.3
100131.6
100135.8
100131.3
100122.3
100084.5
100082
100086.9
100089.6
100094.9
100099.3
100082.3
100122.1
100125.5
100120.8
100112.1
100077.6
100074.9
100078.5
100080.1
100083.1
100085
100068.5
100088.5
100114.3
100117.1
100112.5
100104.1
100072.7
100070
100073
100073.9
100076
100076.5
100062.4
100075.3
100067.3
100108.1
100110.5
100106
100098.2
100069.4
100067
100069.6
100070.3
100071.9
100072.2
100060
100070
100061.3
100058.2
100104.4
100106.6
100102.5
100095.4
100069.2
100067.3
100069.9
100070.8
100072.6
100073.2
100063.5
100071.9
100064.1
100059.5
100030.9
100102.2
100104.4
100100.7
100094.3
100070.7
100069.3
100072
100073.4
100075.6
100076.8
100069.2
100076.8
100069.2
100064.3
100030.7
100030.7
100107.3
100110
100107.3
100102.3
100081.6
100081.5
100085.4
100088.2
100092
100095.2
100091.1
100103
100107.1
100117.7
100131.2
100107.9
100110.7
100108.6
100104.4
100085.9
100086.4
100090.7
100094
100098.2
100102.2
100099.7
100111.7
100117.3
100128.9
100143.2
100107.8
100110.7
100109.1
100105.5
100088.8
100089.8
100094.2
100097.8
100102.3
100106.6
100105.3
100117.2
100123.6
100135.5
100150.2
100105.4
100108.2
100106.8
100103.6
100088.2
100089.3
100093.7
100097.2
100101.6
100105.8
100104.9
100116
100122.1
100133
100146
100101.5
100104.1
100102.8
100099.8
100085.5
100086.6
100090.6
100094
100098.1
100101.9
100101
100111.1
100116.5
100126.1
100137.4
100461.7
100532.6
100593.7
100388.7
100439.3
100484.5
100528.9
100328.4
100363.6
100391.8
100421.2
100390.9
100274.7
100299
100313.9
100327.6
100291
100330
100230.8
100247.5
100254.2
100256.9
100215.1
100236.5
100281.7
100186.4
100196.9
100196.8
100191.7
100145.3
100151.7
100173.5
100199.8
100163.1
100170.6
100168.1
100160.4
100116.2
100117.2
100129.9
100142.6
100164.5
100145.1
100150.7
100146.8
100138.1
100096.9
100095.5
100102.9
100109.1
100119.2
100132.3
100132.4
100136.6
100132.2
100123.3
100085.6
100083.2
100088.3
100091.3
100096.8
100101.7
100085.2
100122.1
100125.5
100120.8
100112.1
100077.6
100074.9
100078.5
100080.1
100083.1
100085
100068.5
100088.5
100113.7
100116.4
100111.7
100103.3
100071.7
100069
100071.8
100072.6
100074.5
100074.8
100060.3
100073.1
100065.2
100106.8
100109.1
100104.5
100096.5
100067.5
100064.9
100067.3
100067.8
100069
100069
100056.1
100065.9
100057.4
100055
100101.2
100103.2
100098.9
100091.4
100064.8
100062.4
100064.5
100064.9
100066
100065.8
100054.8
100062.5
100054.8
100050.8
100030.6
100098
100099.9
100095.9
100089.1
100064.8
100062.8
100065
100065.7
100067
100067.2
100058.2
100065.1
100057.6
100053.5
100030
100030.6
100096.1
100098
100094.5
100088.3
100066.3
100064.8
100067.2
100068.3
100070
100070.7
100063.6
100069.9
100062.8
100057.9
100030.1
100029.8
100030.7
100101.1
100103.5
100100.8
100095.9
100076.6
100076.3
100079.7
100082.1
100085.2
100087.8
100083.6
100093.7
100096.4
100104.5
100114.1
100101.8
100104.3
100102.2
100098.1
100080.7
100081
100084.8
100087.6
100091.2
100094.5
100091.8
100102.1
100106.3
100115.5
100126.5
100101.9
100104.5
100102.8
100099.3
100083.6
100084.3
100088.2
100091.4
100095.3
100099
100097.3
100107.6
100112.8
100122.5
100134.2
100099.7
100102.3
100100.8
100097.7
100083.1
100084.1
100087.9
100091.1
100094.9
100098.5
100097.4
100107.1
100112.1
100121.1
100131.8
100096.1
100098.5
100097.2
100094.2
100080.7
100081.6
100085.2
100088.2
100091.8
100095.2
100094.1
100103
100107.6
100115.7
100125.1
100395.2
100446.9
100493.4
100538.9
100339.3
100376
100406.5
100438.6
100412.8
100290.8
100317.3
100335.2
100353
100323.3
100368
100246.2
100264.8
100274
100280.3
100244.5
100271.7
100322.4
100208.7
100221.8
100225.1
100224.4
100184.8
100198.7
100230.1
100268.1
100170
100178.2
100176.7
100170.3
100128.1
100131.1
100146.3
100162.3
100187.6
100149.7
100155.6
100152.3
100144.3
100104.2
100103.9
100112.6
100120.6
100133
100148.6
100134
100138.4
100134.2
100125.5
100088.1
100086.1
100091.5
100095.1
100101.3
100106.9
100091.9
100122.8
100126.2
100121.6
100113
100078.6
100076
100079.8
100081.6
100084.8
100087
100071
100091.1
100113.7
100116.4
100111.7
100103.3
100071.7
100069
100071.8
100072.6
100074.5
100074.8
100060.3
100073.1
100065.2
100106.2
100108.4
100103.8
100095.8
100066.7
100064
100066.3
100066.7
100067.8
100067.5
100054.4
100064
100055.6
100053.6
100100
100101.9
100097.5
100089.8
100063.1
100060.5
100062.5
100062.7
100063.5
100062.9
100051.5
100059
100051.5
100048.1
100030.6
100095.1
100096.7
100092.5
100085.4
100060.7
100058.4
100060.2
100060.4
100061.1
100060.6
100050.6
100057
100049.8
100046.3
100029.8
100030.5
100092.2
100093.8
100089.9
100083.4
100060.8
100058.9
100060.8
100061.3
100062.2
100062.2
100053.9
100059.6
100052.9
100048.8
100029.5
100029.7
100030.6
100090.6
100092.2
100088.8
100082.9
100062.3
100060.9
100063
100063.8
100065.2
100065.6
100059
100064.3
100057.6
100053.1
100029.3
100029.4
100029.8
100030.6
100095.4
100097.5
100094.9
100090.2
100072
100071.6
100074.6
100076.6
100079.3
100081.4
100077.3
100085.9
100087.8
100094
100101.4
100096.3
100098.5
100096.4
100092.4
100076
100076.2
100079.5
100081.9
100085.1
100087.8
100085
100094
100097.2
100104.7
100113.4
100096.4
100098.8
100097.1
100093.6
100078.7
100079.3
100082.9
100085.7
100089.1
100092.2
100090.4
100099.5
100103.7
100111.8
100121.3
100094.4
100096.8
100095.3
100092.2
100078.5
100079.2
100082.7
100085.5
100088.9
100092.1
100090.7
100099.3
100103.5
100111.2
100120.1
100091.1
100093.3
100092
100089.1
100076.2
100077
100080.3
100083
100086.2
100089.2
100088
100096
100099.8
100106.8
100114.8
100345.1
100382.6
100414.3
100448
100424.5
100300.5
100328.3
100348
100368.3
100342.7
100390.6
100260.7
100281.1
100292.7
100302.2
100271.9
100304.5
100360.7
100222.7
100237.4
100242.8
100244.9
100209.9
100228.6
100265.5
100309.5
100190.3
100200.7
100202
100199.1
100162.3
100171
100193.5
100219.4
100256.8
100156.1
100162.6
100160.1
100153.2
100114.7
100116
100126.6
100137.1
100152.8
100172.2
100138.2
100142.9
100139.2
100131.1
100094.6
100093.4
100099.9
100104.8
100112.8
100120.8
100109.3
100124.3
100127.8
100123.4
100114.9
100080.8
100078.6
100082.6
100084.8
100088.5
100091.4
100076.5
100097
100114.3
100117.1
100112.5
100104.1
100072.7
100070
100073
100073.9
100076
100076.5
100062.4
100075.3
100067.3
100106.2
100108.4
100103.8
100095.8
100066.7
100064
100066.3
100066.7
100067.8
100067.5
100054.4
100064
100055.6
100053.6
100099.5
100101.3
100096.8
100089.1
100062.3
100059.7
100061.5
100061.6
100062.3
100061.6
100050
100057.4
100050.1
100046.9
100030.6
100093.9
100095.5
100091.2
100083.9
100059.1
100056.7
100058.3
100058.3
100058.8
100058.1
100047.7
100054
100047
100044.1
100029.8
100030.5
100089.4
100090.9
100086.8
100080
100057
100054.8
100056.4
100056.4
100056.9
100056.3
100047.3
100052.5
100046.1
100042.7
100029.4
100029.7
100030.6
100086.9
100088.3
100084.5
100078.3
100057.2
100055.4
100057
100057.4
100058.1
100057.9
100050.3
100055.2
100048.9
100045.3
100028.8
100029.3
100029.8
100030.6
100085.5
100087
100083.6
100078
100058.7
100057.3
100059.2
100059.8
100060.9
100061.2
100055
100059.6
100053.5
100049.2
100028.6
100028.7
100029.4
100029.8
100030.6
100090.2
100092
100089.5
100084.9
100067.8
100067.4
100070.1
100071.8
100074
100075.8
100071.8
100079.3
100080.6
100085.7
100091.4
100091.1
100093.1
100091
100087.1
100071.6
100071.7
100074.7
100076.9
100079.6
100081.9
100079.1
100087
100089.6
100095.8
100102.9
100091.3
100093.5
100091.8
100088.4
100074.3
100074.8
100078
100080.5
100083.5
100086.2
100084.3
100092.4
100095.8
100102.8
100110.7
100089.5
100091.7
100090.2
100087.2
100074.1
100074.8
100078
100080.5
100083.5
100086.3
100084.8
100092.6
100096.1
100102.7
100110.3
100086.4
100088.5
100087.1
100084.3
100072.1
100072.8
100075.8
100078.2
100081.2
100083.8
100082.5
100089.7
100093
100099.1
100106
100305.7
100334.2
100354.9
100376.5
100353.1
100402.6
100269.5
100290.9
100304
100315.5
100288.5
100324.4
100383.5
100235.9
100252
100259.5
100264.2
100233.3
100256.3
100298.6
100348.4
100203.1
100214.8
100217.9
100217.3
100184.1
100196.4
100223.5
100255.2
100298.8
100174.6
100183.1
100182.9
100178.9
100144.7
100150.4
100166.6
100184.7
100210.4
100242.6
100144.1
100149.4
100146.3
100139.1
100104
100104.1
100112.1
100118.9
100129.5
100140.9
100134.5
100128.1
100132
100128
100120.1
100086.7
100085.1
100090
100093.3
100098.3
100103
100090.9
100113.1
100115.7
100118.6
100114.1
100106
100074.7
100072.3
100075.5
100076.8
100079.2
100080.3
100067
100080.3
100072
100106.8
100109.1
100104.5
100096.5
100067.5
100064.9
100067.3
100067.8
100069
100069
100056.1
100065.9
100057.4
100055
100099.5
100101.3
100096.8
100089.1
100062.3
100059.7
100061.5
100061.6
100062.3
100061.6
100050
100057.4
100050.1
100046.9
100030.6
100093.4
100095
100090.6
100083.3
100058.4
100055.9
100057.4
100057.4
100057.8
100056.9
100046.4
100052.6
100045.8
100043.1
100029.8
100030.5
100088.4
100089.7
100085.5
100078.6
100055.6
100053.2
100054.6
100054.5
100054.8
100054
100044.7
100049.9
100043.7
100040.8
100029.4
100029.7
100030.5
100084.3
100085.5
100081.6
100075.1
100053.7
100051.6
100053
100052.9
100053.3
100052.6
100044.3
100048.9
100043
100040.1
100028.6
100029.3
100029.7
100030.5
100082
100083.2
100079.6
100073.7
100054
100052.2
100053.7
100053.9
100054.5
100054.2
100047.2
100051.4
100045.8
100042.3
100028.2
100028.6
100029.4
100029.7
100030.5
100080.8
100082.1
100078.8
100073.5
100055.4
100054
100055.7
100056.2
100057.2
100057.3
100051.6
100055.6
100049.9
100046
100027.8
100028.1
100028.7
100029.4
100029.7
100030.5
100085.3
100087
100084.5
100080.1
100064
100063.5
100065.9
100067.4
100069.4
100070.8
100067
100073.7
100074.5
100078.7
100083.3
100086.2
100088.1
100086
100082.3
100067.6
100067.7
100070.4
100072.3
100074.7
100076.7
100074
100081
100083
100088.3
100094.2
100086.6
100088.5
100086.8
100083.6
100070.2
100070.6
100073.6
100075.8
100078.5
100080.8
100078.9
100086.1
100089
100095
100101.8
100084.9
100086.9
100085.4
100082.5
100070.1
100070.7
100073.6
100075.9
100078.6
100081.1
100079.6
100086.5
100089.5
100095.4
100101.9
100082
100083.9
100082.6
100079.9
100068.2
100068.8
100071.7
100073.9
100076.5
100078.8
100077.5
100084.1
100086.9
100092.4
100098.4
100274.2
100296.1
100310.1
100322.6
100297.4
100334.9
100395.7
100243.9
100260.9
100269.6
100275.8
100247.6
100273.2
100318.5
100371.6
100215.1
100228.1
100232.8
100234.4
100204.5
100220.1
100251.4
100288.5
100338.1
100186.4
100196
100197.4
100195.2
100163.9
100172.5
100192.2
100215
100246.5
100285.4
100161.1
100168.1
100167
100162.2
100130.6
100134.2
100146.6
100159.2
100177.4
100199.2
100206.9
100133.6
100138
100134.6
100127.3
100095.1
100094.5
100100.6
100105.5
100112.5
100119.8
100111.7
100136.6
100119.3
100122.5
100118.4
100110.6
100080
100078.2
100082.1
100084.2
100087.7
100090.2
100078.9
100093.7
100085.7
100108.1
100110.5
100106
100098.2
100069.4
100067
100069.6
100070.3
100071.9
100072.2
100060
100070
100061.3
100058.2
100100
100101.9
100097.5
100089.8
100063.1
100060.5
100062.5
100062.7
100063.5
100062.9
100051.5
100059
100051.5
100048.1
100030.6
100093.4
100095
100090.6
100083.3
100058.4
100055.9
100057.4
100057.4
100057.8
100056.9
100046.4
100052.6
100045.8
100043.1
100029.8
100030.5
100087.9
100089.2
100085
100078
100054.9
100052.5
100053.9
100053.7
100053.9
100053
100043.5
100048.7
100042.7
100040
100029.4
100029.7
100030.5
100083.3
100084.4
100080.4
100073.9
100052.4
100050.2
100051.4
100051.2
100051.4
100050.5
100042
100046.6
100041
100038.5
100028.6
100029.3
100029.7
100030.5
100079.6
100080.6
100076.8
100070.7
100050.7
100048.7
100049.9
100049.8
100050
100049.3
100041.8
100045.8
100040.5
100037.8
100028.1
100028.6
100029.3
100029.7
100030.5
100077.5
100078.6
100075.1
100069.5
100051
100049.3
100050.6
100050.8
100051.2
100050.9
100044.4
100048.2
100043
100039.9
100027.4
100028
100028.6
100029.4
100029.7
100030.5
100076.5
100077.6
100074.5
100069.4
100052.3
100051
100052.6
100053
100053.8
100053.9
100048.5
100052
100046.8
100043.2
100027.1
100027.4
100028.1
100028.6
100029.3
100029.7
100030.5
100080.8
100082.3
100079.9
100075.7
100060.5
100060
100062.2
100063.5
100065.2
100066.4
100062.8
100068.7
100069.3
100072.9
100076.6
100081.7
100083.4
100081.4
100077.8
100063.9
100063.9
100066.4
100068.1
100070.3
100072
100069.3
100075.6
100077.3
100081.8
100086.8
100082.1
100083.9
100082.3
100079.1
100066.5
100066.8
100069.4
100071.4
100073.9
100076
100074
100080.6
100083.1
100088.3
100094.1
100080.6
100082.4
100081
100078.2
100066.4
100066.9
100069.6
100071.6
100074.1
100076.3
100074.8
100081.1
100083.8
100088.9
100094.6
100077.9
100079.7
100078.3
100075.7
100064.7
100065.2
100067.8
100069.8
100072.2
100074.3
100073
100079
100081.5
100086.4
100091.7
100248.1
100265.6
100274.9
100282.1
100255.2
100282.2
100329.2
100383.9
100222.4
100236.2
100241.9
100244.7
100216.9
100234.6
100268.4
100308.7
100361.6
100197.4
100208.1
100210.9
100210.5
100181.9
100193.1
100216
100243.1
100280.1
100325.4
100172
100179.9
100180.2
100177
100147.8
100153.7
100168.8
100184.9
100207.8
100235.7
100251.6
100149.4
100155.1
100153.5
100148.3
100119
100121.3
100130.9
100140.2
100153
100168.2
100170.9
100213.9
100124.4
100128
100124.4
100117.3
100087.6
100086.6
100091.5
100094.9
100099.9
100104.4
100096.2
100113.2
100106.1
100111.4
100114.1
100110
100102.5
100074.2
100072.3
100075.4
100076.9
100079.3
100080.7
100070
100081.1
100072.6
100069
100101.2
100103.2
100098.9
100091.4
100064.8
100062.4
100064.5
100064.9
100066
100065.8
100054.8
100062.5
100054.8
100050.8
100030.6
100093.9
100095.5
100091.2
100083.9
100059.1
100056.7
100058.3
100058.3
100058.8
100058.1
100047.7
100054
100047
100044.1
100029.8
100030.5
100087.9
100089.2
100085
100078
100054.9
100052.5
100053.9
100053.7
100053.9
100053
100043.5
100048.7
100042.7
100040
100029.4
100029.7
100030.5
100082.8
100084
100079.9
100073.3
100051.8
100049.5
100050.7
100050.4
100050.5
100049.6
100041
100045.5
100040.1
100037.8
100028.6
100029.3
100029.7
100030.5
100078.6
100079.6
100075.7
100069.5
100049.4
100047.3
100048.4
100048.2
100048.3
100047.4
100039.7
100043.7
100038.7
100036.4
100028.1
100028.6
100029.3
100029.7
100030.5
100075.2
100076.1
100072.5
100066.7
100047.9
100046
100047.1
100047
100047.1
100046.4
100039.5
100043.1
100038.3
100035.9
100027.3
100028
100028.6
100029.3
100029.7
100030.5
100073.3
100074.3
100070.9
100065.6
100048.2
100046.6
100047.8
100047.9
100048.3
100047.9
100042
100045.3
100040.6
100037.8
100026.8
100027.3
100028.1
100028.6
100029.3
100029.7
100030.5
100072.4
100073.4
100070.4
100065.6
100049.5
100048.3
100049.7
100050
100050.7
100050.7
100045.8
100048.9
100044.1
100040.8
100026.3
100026.7
100027.4
100028.1
100028.6
100029.3
100029.7
100030.5
100076.5
100077.9
100075.6
100071.6
100057.2
100056.7
100058.7
100059.9
100061.4
100062.5
100059
100064.4
100064.7
100067.8
100071
100077.5
100079.1
100077.1
100073.6
100060.5
100060.4
100062.7
100064.3
100066.2
100067.7
100065.1
100070.9
100072.3
100076.2
100080.5
100077.9
100079.6
100078
100075
100062.9
100063.2
100065.6
100067.5
100069.7
100071.5
100069.7
100075.6
100077.7
100082.4
100087.5
100076.5
100078.2
100076.8
100074.1
100062.9
100063.3
100065.8
100067.7
100070
100072
100070.4
100076.3
100078.5
100083.2
100088.2
100074
100075.6
100074.3
100071.8
100061.3
100061.7
100064.2
100066
100068.3
100070.2
100068.8
100074.4
100076.6
100081
100085.7
100226.3
100240.5
100246.7
100250.3
100223.6
100242.3
100277.4
100319.4
100374.1
100204.2
100215.5
100219.1
100219.8