/*--------------------------------*- C++ -*----------------------------------*\
| =========                 |                                                 |
| \\      /  F ield         | OpenFOAM: The Open Source CFD Toolbox           |
|  \\    /   O peration     | Version:  2306                                  |
|   \\  /    A nd           | Website:  www.openfoam.com                      |
|    \\/     M anipulation  |                                                 |
\*---------------------------------------------------------------------------*/
FoamFile
{
    version     2.0;
    format      ascii;
    arch        "LSB;label=32;scalar=64";
    class       volScalarField;
    location    "1.5/fuel";
    object      T;
}
// * * * * * * * * * * * * * * * * * * * * * * * * * * * * * * * * * * * * * //

dimensions      [0 0 0 1 0 0 0];

internalField   nonuniform List<scalar> 
16000
(
1277.466
1277.282
1279.709
1277.484
1276.856
1279.698
1277.299
1281.708
1279.72
1277.506
1276.07
1279.672
1276.875
1281.744
1279.709
1277.323
1283.528
1281.713
1279.735
1277.534
1274.759
1279.618
1276.093
1281.823
1279.682
1276.9
1283.576
1281.748
1279.724
1277.352
1285.253
1283.529
1281.723
1279.756
1277.568
1272.849
1279.514
1274.791
1281.961
1279.626
1276.123
1283.681
1281.827
1279.696
1276.931
1285.302
1283.576
1281.758
1279.744
1277.386
1286.914
1285.25
1283.534
1281.737
1279.781
1277.607
1270.689
1279.326
1272.896
1282.171
1279.519
1274.829
1283.867
1281.962
1279.639
1276.158
1285.411
1283.68
1281.835
1279.716
1276.967
1286.961
1285.298
1283.58
1281.772
1279.769
1277.426
1288.518
1286.908
1285.252
1283.543
1281.756
1279.812
1277.646
1268.713
1279.032
1270.757
1282.437
1279.325
1272.949
1284.159
1282.167
1279.528
1274.873
1285.603
1283.864
1281.967
1279.657
1276.199
1287.066
1285.406
1283.684
1281.848
1279.74
1277.01
1288.562
1286.954
1285.299
1283.589
1281.79
1279.8
1277.466
1290.067
1288.509
1286.906
1285.257
1283.557
1281.78
1279.843
1277.686
1267.242
1278.693
1268.801
1282.662
1279.03
1270.83
1284.545
1282.425
1279.33
1273.007
1285.907
1284.15
1282.168
1279.543
1274.923
1287.252
1285.596
1283.865
1281.977
1279.68
1276.247
1288.662
1287.058
1285.406
1283.691
1281.865
1279.77
1277.053
1290.109
1288.553
1286.952
1285.304
1283.603
1281.814
1279.831
1277.507
1291.56
1290.056
1288.505
1286.908
1285.266
1283.576
1281.805
1279.874
1277.726
1266.465
1278.399
1267.346
1282.807
1278.692
1268.894
1284.913
1282.643
1279.033
1270.908
1286.313
1284.528
1282.417
1279.34
1273.071
1287.545
1285.895
1284.146
1282.173
1279.563
1274.98
1288.838
1287.242
1285.593
1283.87
1281.992
1279.708
1276.296
1290.202
1288.652
1287.055
1285.409
1283.703
1281.887
1279.8
1277.097
1291.599
1290.098
1288.548
1286.953
1285.313
1283.621
1281.838
1279.861
1277.549
1292.995
1291.548
1290.05
1288.504
1286.914
1285.28
1283.595
1281.829
1279.905
1277.767
1266.465
1278.231
1266.577
1282.884
1278.402
1267.455
1285.199
1282.785
1278.696
1268.992
1286.71
1284.89
1282.629
1279.041
1270.991
1287.941
1286.294
1284.516
1282.414
1279.354
1273.141
1289.116
1287.532
1285.887
1284.146
1282.182
1279.588
1275.038
1290.368
1288.826
1287.236
1285.595
1283.879
1282.012
1279.737
1276.345
1291.687
1290.191
1288.646
1287.055
1285.417
1283.72
1281.91
1279.831
1277.142
1293.032
1291.587
1290.091
1288.547
1286.959
1285.327
1283.639
1281.861
1279.892
1277.59
1294.372
1292.982
1291.539
1290.047
1288.507
1286.924
1285.295
1283.614
1281.853
1279.936
1277.962
1267.242
1278.231
1266.577
1282.914
1278.235
1266.694
1285.386
1282.861
1278.409
1267.567
1287.028
1285.171
1282.769
1278.706
1269.094
1288.331
1286.685
1284.871
1282.62
1279.054
1271.079
1289.492
1287.92
1286.279
1284.508
1282.416
1279.375
1273.212
1290.632
1289.101
1287.522
1285.884
1284.15
1282.197
1279.614
1275.097
1291.844
1290.355
1288.818
1287.235
1285.6
1283.893
1282.032
1279.766
1276.395
1293.116
1291.674
1290.183
1288.644
1287.06
1285.43
1283.737
1281.932
1279.861
1277.186
1294.408
1293.019
1291.578
1290.087
1288.55
1286.969
1285.34
1283.657
1281.885
1279.923
1277.792
1295.692
1294.358
1292.972
1291.534
1290.048
1288.514
1286.934
1285.309
1283.632
1281.878
1280.088
1278.334
1268.713
1278.399
1267.346
1282.914
1278.235
1266.694
1285.477
1282.892
1278.245
1266.814
1287.242
1285.356
1282.843
1278.421
1267.684
1288.646
1286.999
1285.148
1282.757
1278.721
1269.201
1289.864
1288.305
1286.664
1284.856
1282.616
1279.072
1271.168
1290.987
1289.471
1287.904
1286.268
1284.504
1282.423
1279.395
1273.283
1292.093
1290.615
1289.09
1287.516
1285.885
1284.159
1282.212
1279.64
1275.157
1293.265
1291.83
1290.345
1288.814
1287.237
1285.61
1283.907
1282.052
1279.795
1276.447
1294.487
1293.102
1291.665
1290.179
1288.645
1287.068
1285.442
1283.754
1281.955
1279.891
1277.404
1295.725
1294.393
1293.009
1291.573
1290.088
1288.557
1286.979
1285.354
1283.675
1281.909
1280.074
1278.184
1296.953
1295.677
1294.348
1292.966
1291.533
1290.052
1288.522
1286.945
1285.323
1283.651
1281.997
1280.363
1278.727
1270.689
1278.693
1268.801
1282.884
1278.402
1267.455
1285.477
1282.892
1278.245
1266.814
1287.349
1285.446
1282.874
1278.259
1266.938
1288.861
1287.211
1285.331
1282.831
1278.438
1267.805
1290.167
1288.617
1286.974
1285.13
1282.75
1278.741
1269.308
1291.34
1289.838
1288.283
1286.647
1284.846
1282.617
1279.091
1271.256
1292.429
1290.965
1289.454
1287.892
1286.262
1284.506
1282.43
1279.416
1273.355
1293.501
1292.076
1290.602
1289.082
1287.514
1285.89
1284.168
1282.226
1279.666
1275.218
1294.629
1293.249
1291.819
1290.34
1288.814
1287.243
1285.62
1283.921
1282.071
1279.825
1276.693
1295.801
1294.472
1293.091
1291.659
1290.178
1288.651
1287.077
1285.455
1283.771
1281.977
1280.04
1277.84
1296.985
1295.71
1294.382
1293.002
1291.571
1290.092
1288.564
1286.989
1285.368
1283.694
1282.026
1280.348
1278.602
1298.157
1296.938
1295.665
1294.34
1292.963
1291.536
1290.057
1288.529
1286.955
1285.337
1283.744
1282.208
1280.64
1279.136
1272.849
1279.032
1270.757
1282.807
1278.692
1268.894
1285.386
1282.861
1278.409
1267.567
1287.349
1285.446
1282.874
1278.259
1266.938
1288.969
1287.316
1285.42
1282.861
1278.278
1267.067
1290.374
1288.829
1287.184
1285.311
1282.823
1278.461
1267.926
1291.627
1290.138
1288.592
1286.953
1285.116
1282.748
1278.761
1269.414
1292.764
1291.314
1289.817
1288.266
1286.635
1284.841
1282.619
1279.11
1271.344
1293.82
1292.408
1290.948
1289.441
1287.884
1286.26
1284.507
1282.437
1279.437
1273.426
1294.853
1293.483
1292.062
1290.593
1289.078
1287.516
1285.895
1284.177
1282.241
1279.693
1275.51
1295.936
1294.613
1293.237
1291.811
1290.337
1288.818
1287.25
1285.63
1283.935
1282.091
1279.967
1277.206
1297.058
1295.786
1294.461
1293.084
1291.657
1290.181
1288.657
1287.086
1285.467
1283.787
1282.087
1280.312
1278.318
1298.188
1296.97
1295.699
1294.375
1292.999
1291.574
1290.096
1288.57
1286.998
1285.381
1283.784
1282.231
1280.626
1279.042
1299.305
1298.142
1296.926
1295.657
1294.336
1292.964
1291.539
1290.062
1288.536
1286.966
1285.408
1283.906
1282.415
1280.919
1279.557
1274.759
1279.326
1272.896
1282.662
1279.03
1270.83
1285.199
1282.785
1278.696
1268.992
1287.242
1285.356
1282.843
1278.421
1267.684
1288.969
1287.316
1285.42
1282.861
1278.278
1267.067
1290.478
1288.936
1287.288
1285.399
1282.852
1278.302
1267.196
1291.824
1290.343
1288.802
1287.161
1285.295
1282.819
1278.484
1268.046
1293.037
1291.599
1290.113
1288.571
1286.938
1285.107
1282.746
1278.781
1269.519
1294.137
1292.738
1291.292
1289.799
1288.253
1286.628
1284.836
1282.62
1279.129
1271.431
1295.157
1293.798
1292.39
1290.934
1289.432
1287.88
1286.259
1284.508
1282.444
1279.459
1273.766
1296.15
1294.835
1293.468
1292.052
1290.588
1289.078
1287.519
1285.9
1284.186
1282.256
1279.821
1276.117
1297.187
1295.919
1294.6
1293.229
1291.808
1290.339
1288.821
1287.256
1285.639
1283.949
1282.188
1280.235
1277.788
1298.258
1297.042
1295.773
1294.453
1293.08
1291.658
1290.185
1288.663
1287.094
1285.479
1283.87
1282.279
1280.592
1278.831
1299.335
1298.172
1296.958
1295.69
1294.371
1293
1291.576
1290.101
1288.577
1287.008
1285.449
1283.938
1282.432
1280.907
1279.498
1300.397
1299.289
1298.129
1296.917
1295.652
1294.336
1292.965
1291.541
1290.066
1288.543
1287.018
1285.53
1284.062
1282.619
1281.2
1276.07
1279.514
1274.791
1282.437
1279.325
1272.949
1284.913
1282.643
1279.033
1270.908
1287.028
1285.171
1282.769
1278.706
1269.094
1288.861
1287.211
1285.331
1282.831
1278.438
1267.805
1290.478
1288.936
1287.288
1285.399
1282.852
1278.302
1267.196
1291.923
1290.446
1288.908
1287.265
1285.383
1282.849
1278.326
1267.323
1293.224
1291.794
1290.316
1288.78
1287.143
1285.284
1282.816
1278.506
1268.164
1294.397
1293.009
1291.574
1290.092
1288.554
1286.926
1285.098
1282.744
1278.801
1269.623
1295.459
1294.112
1292.717
1291.275
1289.786
1288.244
1286.62
1284.831
1282.621
1279.148
1271.841
1296.44
1295.135
1293.78
1292.375
1290.924
1289.427
1287.877
1286.257
1284.509
1282.451
1279.562
1274.394
1297.392
1296.132
1294.82
1293.457
1292.045
1290.586
1289.078
1287.521
1285.905
1284.194
1282.328
1280.073
1276.819
1298.381
1297.17
1295.906
1294.59
1293.224
1291.807
1290.34
1288.825
1287.262
1285.649
1284.017
1282.355
1280.518
1278.434
1299.401
1298.241
1297.029
1295.764
1294.448
1293.08
1291.66
1290.188
1288.668
1287.103
1285.54
1284.009
1282.466
1280.878
1279.37
1300.426
1299.319
1298.16
1296.949
1295.685
1294.37
1293
1291.578
1290.105
1288.584
1287.058
1285.564
1284.087
1282.629
1281.191
1301.435
1300.382
1299.277
1298.12
1296.911
1295.651
1294.335
1292.966
1291.544
1290.071
1288.58
1287.106
1285.646
1284.215
1282.822
1276.856
1279.618
1276.093
1282.171
1279.519
1274.829
1284.545
1282.425
1279.33
1273.007
1286.71
1284.89
1282.629
1279.041
1270.991
1288.646
1286.999
1285.148
1282.757
1278.721
1269.201
1290.374
1288.829
1287.184
1285.311
1282.823
1278.461
1267.926
1291.923
1290.446
1288.908
1287.265
1285.383
1282.849
1278.326
1267.323
1293.318
1291.892
1290.419
1288.885
1287.246
1285.371
1282.846
1278.35
1267.448
1294.575
1293.195
1291.768
1290.294
1288.761
1287.13
1285.273
1282.813
1278.528
1268.281
1295.707
1294.37
1292.985
1291.554
1290.076
1288.542
1286.914
1285.089
1282.743
1278.821
1270.108
1296.729
1295.435
1294.091
1292.699
1291.261
1289.776
1288.235
1286.612
1284.826
1282.623
1279.241
1272.532
1297.669
1296.419
1295.117
1293.765
1292.365
1290.918
1289.422
1287.873
1286.255
1284.511
1282.487
1279.762
1275.035
1298.578
1297.373
1296.116
1294.808
1293.45
1292.042
1290.584
1289.078
1287.523
1285.91
1284.237
1282.454
1280.35
1277.645
1299.52
1298.364
1297.156
1295.896
1294.584
1293.222
1291.807
1290.342
1288.828
1287.268
1285.695
1284.128
1282.519
1280.816
1279.14
1300.49
1299.385
1298.228
1297.019
1295.759
1294.446
1293.08
1291.661
1290.191
1288.674
1287.146
1285.639
1284.14
1282.651
1281.17
1301.463
1300.41
1299.306
1298.15
1296.943
1295.683
1294.369
1293.001
1291.58
1290.109
1288.618
1287.139
1285.672
1284.231
1282.826
1302.42
1301.419
1300.369
1299.267
1298.114
1296.909
1295.649
1294.335
1292.967
1291.546
1290.094
1288.64
1287.189
1285.758
1284.364
1277.282
1279.672
1276.875
1281.961
1279.626
1276.123
1284.159
1282.167
1279.528
1274.873
1286.313
1284.528
1282.417
1279.34
1273.071
1288.331
1286.685
1284.871
1282.62
1279.054
1271.079
1290.167
1288.617
1286.974
1285.13
1282.75
1278.741
1269.308
1291.824
1290.343
1288.802
1287.161
1285.295
1282.819
1278.484
1268.046
1293.318
1291.892
1290.419
1288.885
1287.246
1285.371
1282.846
1278.35
1267.448
1294.665
1293.288
1291.866
1290.395
1288.865
1287.232
1285.359
1282.842
1278.375
1267.572
1295.877
1294.547
1293.169
1291.746
1290.276
1288.747
1287.116
1285.262
1282.81
1278.551
1268.826
1296.966
1295.681
1294.346
1292.965
1291.538
1290.063
1288.53
1286.903
1285.08
1282.741
1278.918
1270.889
1297.947
1296.705
1295.414
1294.074
1292.685
1291.251
1289.766
1288.226
1286.605
1284.822
1282.631
1279.414
1273.175
1298.845
1297.648
1296.4
1295.102
1293.754
1292.358
1290.912
1289.416
1287.869
1286.253
1284.517
1282.554
1279.972
1275.681
1299.71
1298.559
1297.357
1296.104
1294.8
1293.445
1292.039
1290.582
1289.078
1287.525
1285.933
1284.303
1282.581
1280.661
1278.655
1300.605
1299.503
1298.35
1297.145
1295.889
1294.581
1293.22
1291.807
1290.343
1288.832
1287.298
1285.767
1284.229
1282.681
1281.129
1301.525
1300.474
1299.372
1298.218
1297.013
1295.756
1294.445
1293.079
1291.662
1290.194
1288.702
1287.213
1285.729
1284.266
1282.833
1302.447
1301.447
1300.397
1299.296
1298.144
1296.94
1295.681
1294.368
1293.001
1291.582
1290.13
1288.672
1287.215
1285.775
1284.372
1303.352
1302.404
1301.407
1300.359
1299.26
1298.11
1296.906
1295.647
1294.334
1292.967
1291.558
1290.131
1288.695
1287.267
1285.867
1277.466
1279.698
1277.299
1281.823
1279.682
1276.9
1283.867
1281.962
1279.639
1276.158
1285.907
1284.15
1282.168
1279.543
1274.923
1287.941
1286.294
1284.516
1282.414
1279.354
1273.141
1289.864
1288.305
1286.664
1284.856
1282.616
1279.072
1271.168
1291.627
1290.138
1288.592
1286.953
1285.116
1282.748
1278.761
1269.414
1293.224
1291.794
1290.316
1288.78
1287.143
1285.284
1282.816
1278.506
1268.164
1294.665
1293.288
1291.866
1290.395
1288.865
1287.232
1285.359
1282.842
1278.375
1267.572
1295.963
1294.636
1293.262
1291.843
1290.377
1288.85
1287.217
1285.347
1282.839
1278.398
1268.15
1297.129
1295.849
1294.522
1293.148
1291.728
1290.261
1288.732
1287.102
1285.251
1282.808
1278.658
1269.688
1298.174
1296.94
1295.658
1294.327
1292.949
1291.525
1290.051
1288.517
1286.892
1285.072
1282.734
1279.09
1271.585
1299.111
1297.923
1296.685
1295.397
1294.06
1292.675
1291.241
1289.757
1288.217
1286.597
1284.798
1282.653
1279.588
1273.765
1299.966
1298.824
1297.63
1296.386
1295.091
1293.747
1292.351
1290.906
1289.411
1287.865
1286.244
1284.529
1282.622
1280.186
1276.31
1300.787
1299.691
1298.544
1297.345
1296.095
1294.795
1293.441
1292.035
1290.58
1289.077
1287.533
1285.962
1284.361
1282.71
1281.025
1301.636
1300.588
1299.489
1298.339
1297.138
1295.885
1294.578
1293.218
1291.806
1290.344
1288.848
1287.339
1285.827
1284.324
1282.844
1302.507
1301.509
1300.46
1299.361
1298.211
1297.01
1295.753
1294.443
1293.079
1291.663
1290.21
1288.742
1287.271
1285.813
1284.388
1303.378
1302.431
1301.434
1300.387
1299.289
1298.14
1296.937
1295.679
1294.367
1293.002
1291.592
1290.161
1288.72
1287.285
1285.875
1304.234
1303.337
1302.391
1301.396
1300.352
1299.256
1298.107
1296.903
1295.645
1294.333
1292.971
1291.575
1290.163
1288.746
1287.343
1279.709
1277.484
1281.744
1279.709
1277.323
1283.681
1281.827
1279.696
1276.931
1285.603
1283.864
1281.967
1279.657
1276.199
1287.545
1285.895
1284.146
1282.173
1279.563
1274.98
1289.492
1287.92
1286.279
1284.508
1282.416
1279.375
1273.212
1291.34
1289.838
1288.283
1286.647
1284.846
1282.617
1279.091
1271.256
1293.037
1291.599
1290.113
1288.571
1286.938
1285.107
1282.746
1278.781
1269.519
1294.575
1293.195
1291.768
1290.294
1288.761
1287.13
1285.273
1282.813
1278.528
1268.281
1295.963
1294.636
1293.262
1291.843
1290.377
1288.85
1287.217
1285.347
1282.839
1278.398
1268.15
1297.211
1295.935
1294.611
1293.241
1291.825
1290.361
1288.835
1287.202
1285.335
1282.836
1278.513
1269.057
1298.33
1297.102
1295.826
1294.502
1293.131
1291.714
1290.247
1288.718
1287.089
1285.24
1282.794
1278.84
1270.441
1299.329
1298.149
1296.918
1295.639
1294.311
1292.937
1291.512
1290.038
1288.505
1286.88
1285.029
1282.73
1279.258
1272.195
1300.222
1299.088
1297.903
1296.668
1295.383
1294.049
1292.665
1291.231
1289.747
1288.208
1286.56
1284.765
1282.68
1279.76
1274.287
1301.035
1299.945
1298.806
1297.615
1296.374
1295.083
1293.739
1292.344
1290.899
1289.406
1287.846
1286.227
1284.54
1282.689
1280.394
1277.478
1301.812
1300.769
1299.675
1298.531
1297.336
1296.089
1294.789
1293.436
1292.032
1290.578
1289.074
1287.536
1285.979
1284.411
1282.848
1302.614
1301.619
1300.573
1299.478
1298.331
1297.133
1295.881
1294.575
1293.216
1291.805
1290.349
1288.864
1287.368
1285.878
1284.413
1303.436
1302.49
1301.495
1300.45
1299.354
1298.207
1297.006
1295.751
1294.441
1293.078
1291.668
1290.228
1288.774
1287.322
1285.893
1304.259
1303.363
1302.418
1301.424
1300.38
1299.285
1298.137
1296.934
1295.677
1294.366
1293.003
1291.604
1290.186
1288.763
1287.351
1305.066
1304.219
1303.324
1302.381
1301.389
1300.347
1299.252
1298.104
1296.901
1295.643
1294.329
1292.971
1291.588
1290.19
1288.794
1281.708
1279.72
1277.506
1283.576
1281.748
1279.724
1277.352
1285.411
1283.68
1281.835
1279.716
1276.967
1287.252
1285.596
1283.865
1281.977
1279.68
1276.247
1289.116
1287.532
1285.887
1284.146
1282.182
1279.588
1275.038
1290.987
1289.471
1287.904
1286.268
1284.504
1282.423
1279.395
1273.283
1292.764
1291.314
1289.817
1288.266
1286.635
1284.841
1282.619
1279.11
1271.344
1294.397
1293.009
1291.574
1290.092
1288.554
1286.926
1285.098
1282.744
1278.801
1269.623
1295.877
1294.547
1293.169
1291.746
1290.276
1288.747
1287.116
1285.262
1282.81
1278.551
1268.826
1297.211
1295.935
1294.611
1293.241
1291.825
1290.361
1288.835
1287.202
1285.335
1282.836
1278.513
1269.057
1298.408
1297.184
1295.911
1294.59
1293.223
1291.81
1290.346
1288.819
1287.188
1285.323
1282.821
1278.704
1269.845
1299.479
1298.304
1297.079
1295.806
1294.485
1293.117
1291.7
1290.232
1288.704
1287.075
1285.187
1282.779
1279.014
1271.091
1300.433
1299.305
1298.127
1296.9
1295.623
1294.299
1292.924
1291.5
1290.025
1288.493
1286.825
1284.965
1282.734
1279.419
1272.718
1301.282
1300.2
1299.068
1297.886
1296.654
1295.373
1294.039
1292.654
1291.221
1289.738
1288.165
1286.503
1284.738
1282.709
1279.922
1275.187
1302.051
1301.014
1299.928
1298.791
1297.604
1296.366
1295.075
1293.731
1292.337
1290.893
1289.379
1287.81
1286.207
1284.547
1282.748
1280.793
1278.183
1302.784
1301.793
1300.753
1299.663
1298.521
1297.329
1296.083
1294.784
1293.432
1292.028
1290.566
1289.056
1287.526
1285.985
1284.452
1303.54
1302.597
1301.604
1300.562
1299.47
1298.326
1297.129
1295.877
1294.572
1293.214
1291.8
1290.345
1288.869
1287.388
1285.922
1304.315
1303.42
1302.477
1301.484
1300.442
1299.35
1298.203
1297.002
1295.748
1294.439
1293.075
1291.668
1290.238
1288.799
1287.369
1305.09
1304.243
1303.35
1302.407
1301.416
1300.375
1299.281
1298.133
1296.931
1295.675
1294.36
1292.999
1291.61
1290.206
1288.802
1305.848
1305.05
1304.206
1303.314
1302.374
1301.385
1300.343
1299.248
1298.1
1296.898
1295.633
1294.317
1292.968
1291.597
1290.216
1283.528
1281.713
1279.735
1277.534
1285.302
1283.576
1281.758
1279.744
1277.386
1287.066
1285.406
1283.684
1281.848
1279.74
1277.01
1288.838
1287.242
1285.593
1283.87
1281.992
1279.708
1276.296
1290.632
1289.101
1287.522
1285.884
1284.15
1282.197
1279.614
1275.097
1292.429
1290.965
1289.454
1287.892
1286.262
1284.506
1282.43
1279.416
1273.355
1294.137
1292.738
1291.292
1289.799
1288.253
1286.628
1284.836
1282.62
1279.129
1271.431
1295.707
1294.37
1292.985
1291.554
1290.076
1288.542
1286.914
1285.089
1282.743
1278.821
1270.108
1297.129
1295.849
1294.522
1293.148
1291.728
1290.261
1288.732
1287.102
1285.251
1282.808
1278.658
1269.688
1298.408
1297.184
1295.911
1294.59
1293.223
1291.81
1290.346
1288.819
1287.188
1285.323
1282.821
1278.704
1269.845
1299.555
1298.382
1297.16
1295.89
1294.572
1293.208
1291.795
1290.331
1288.804
1287.173
1285.266
1282.801
1278.883
1270.521
1300.578
1299.454
1298.282
1297.06
1295.789
1294.471
1293.103
1291.686
1290.218
1288.69
1287.009
1285.106
1282.771
1279.177
1271.64
1301.485
1300.409
1299.284
1298.109
1296.885
1295.611
1294.286
1292.911
1291.487
1290.013
1288.432
1286.738
1284.912
1282.742
1279.57
1273.601
1302.29
1301.26
1300.181
1299.052
1297.873
1296.644
1295.362
1294.028
1292.644
1291.211
1289.69
1288.094
1286.451
1284.714
1282.738
1280.242
1276.145
1303.016
1302.031
1300.997
1299.913
1298.78
1297.595
1296.357
1295.067
1293.724
1292.33
1290.86
1289.329
1287.771
1286.184
1284.549
1282.851
1281.044
1278.591
1303.705
1302.766
1301.778
1300.74
1299.653
1298.515
1297.323
1296.077
1294.778
1293.427
1292.009
1290.531
1289.025
1287.501
1285.974
1304.416
1303.524
1302.583
1301.593
1300.554
1299.464
1298.321
1297.124
1295.873
1294.568
1293.201
1291.78
1290.329
1288.863
1287.4
1305.145
1304.3
1303.407
1302.466
1301.477
1300.437
1299.345
1298.199
1296.999
1295.745
1294.429
1293.06
1291.66
1290.241
1288.82
1305.872
1305.075
1304.231
1303.339
1302.4
1301.411
1300.37
1299.276
1298.129
1296.928
1295.663
1294.343
1292.989
1291.612
1290.224
1306.583
1305.833
1305.038
1304.196
1303.306
1302.369
1301.38
1300.338
1299.244
1298.096
1296.883
1295.61
1294.3
1292.961
1291.603
1285.253
1283.529
1281.723
1279.756
1277.568
1286.961
1285.298
1283.58
1281.772
1279.769
1277.426
1288.662
1287.058
1285.406
1283.691
1281.865
1279.77
1277.053
1290.368
1288.826
1287.236
1285.595
1283.879
1282.012
1279.737
1276.345
1292.093
1290.615
1289.09
1287.516
1285.885
1284.159
1282.212
1279.64
1275.157
1293.82
1292.408
1290.948
1289.441
1287.884
1286.26
1284.507
1282.437
1279.437
1273.426
1295.459
1294.112
1292.717
1291.275
1289.786
1288.244
1286.62
1284.831
1282.621
1279.148
1271.841
1296.966
1295.681
1294.346
1292.965
1291.538
1290.063
1288.53
1286.903
1285.08
1282.741
1278.918
1270.889
1298.33
1297.102
1295.826
1294.502
1293.131
1291.714
1290.247
1288.718
1287.089
1285.24
1282.794
1278.84
1270.441
1299.555
1298.382
1297.16
1295.89
1294.572
1293.208
1291.795
1290.331
1288.804
1287.173
1285.266
1282.801
1278.883
1270.521
1300.651
1299.53
1298.36
1297.141
1295.873
1294.558
1293.193
1291.78
1290.316
1288.789
1287.102
1285.177
1282.789
1279.05
1271.089
1301.625
1300.553
1299.433
1298.263
1297.044
1295.776
1294.457
1293.089
1291.672
1290.204
1288.619
1286.905
1285.036
1282.768
1279.328
1272.562
1302.486
1301.462
1300.389
1299.266
1298.094
1296.873
1295.599
1294.274
1292.899
1291.475
1289.95
1288.336
1286.662
1284.866
1282.753
1279.871
1274.675
1303.247
1302.269
1301.241
1300.165
1299.039
1297.862
1296.633
1295.351
1294.018
1292.634
1291.16
1289.611
1288.03
1286.405
1284.694
1282.796
1280.584
1276.834
1303.93
1302.996
1302.014
1300.983
1299.902
1298.771
1297.587
1296.349
1295.058
1293.716
1292.293
1290.8
1289.278
1287.731
1286.158
1284.533
1282.913
1281.194
1278.897
1304.576
1303.688
1302.751
1301.765
1300.731
1299.646
1298.508
1297.316
1296.071
1294.773
1293.401
1291.961
1290.483
1288.978
1287.456
1305.243
1304.4
1303.509
1302.571
1301.584
1300.548
1299.458
1298.315
1297.119
1295.868
1294.55
1293.167
1291.748
1290.304
1288.85
1305.925
1305.129
1304.286
1303.396
1302.458
1301.471
1300.432
1299.34
1298.194
1296.995
1295.728
1294.401
1293.037
1291.646
1290.24
1306.606
1305.857
1305.062
1304.22
1303.331
1302.395
1301.406
1300.366
1299.272
1298.125
1296.911
1295.635
1294.321
1292.976
1291.611
1307.271
1306.568
1305.821
1305.028
1304.188
1303.301
1302.364
1301.375
1300.334
1299.24
1298.077
1296.851
1295.583
1294.28
1292.952
1286.914
1285.25
1283.534
1281.737
1279.781
1277.607
1288.562
1286.954
1285.299
1283.589
1281.79
1279.8
1277.466
1290.202
1288.652
1287.055
1285.409
1283.703
1281.887
1279.8
1277.097
1291.844
1290.355
1288.818
1287.235
1285.6
1283.893
1282.032
1279.766
1276.395
1293.501
1292.076
1290.602
1289.082
1287.514
1285.89
1284.168
1282.226
1279.666
1275.218
1295.157
1293.798
1292.39
1290.934
1289.432
1287.88
1286.259
1284.508
1282.444
1279.459
1273.766
1296.729
1295.435
1294.091
1292.699
1291.261
1289.776
1288.235
1286.612
1284.826
1282.623
1279.241
1272.532
1298.174
1296.94
1295.658
1294.327
1292.949
1291.525
1290.051
1288.517
1286.892
1285.072
1282.734
1279.09
1271.585
1299.479
1298.304
1297.079
1295.806
1294.485
1293.117
1291.7
1290.232
1288.704
1287.075
1285.187
1282.779
1279.014
1271.091
1300.651
1299.53
1298.36
1297.141
1295.873
1294.558
1293.193
1291.78
1290.316
1288.789
1287.102
1285.177
1282.789
1279.05
1271.089
1301.695
1300.626
1299.508
1298.34
1297.124
1295.86
1294.544
1293.179
1291.765
1290.301
1288.714
1286.99
1285.1
1282.781
1279.204
1272.043
1302.622
1301.601
1300.532
1299.414
1298.247
1297.031
1295.763
1294.444
1293.075
1291.658
1290.132
1288.507
1286.814
1284.977
1282.769
1279.631
1273.715
1303.437
1302.464
1301.442
1300.372
1299.252
1298.083
1296.861
1295.586
1294.261
1292.886
1291.411
1289.849
1288.251
1286.597
1284.829
1282.782
1280.247
1275.527
1304.154
1303.226
1302.25
1301.225
1300.152
1299.028
1297.852
1296.622
1295.341
1294.007
1292.581
1291.076
1289.539
1287.972
1286.363
1284.651
1282.858
1280.832
1277.372
1304.794
1303.911
1302.979
1302
1300.971
1299.893
1298.762
1297.578
1296.34
1295.05
1293.675
1292.224
1290.739
1289.225
1287.688
1286.085
1284.52
1282.952
1281.311
1279.162
1305.398
1304.559
1303.672
1302.738
1301.755
1300.723
1299.638
1298.5
1297.309
1296.064
1294.742
1293.342
1291.899
1290.418
1288.908
1306.021
1305.226
1304.386
1303.498
1302.562
1301.578
1300.541
1299.452
1298.31
1297.114
1295.845
1294.505
1293.122
1291.706
1290.27
1306.658
1305.91
1305.116
1304.276
1303.388
1302.453
1301.466
1300.427
1299.335
1298.19
1296.974
1295.691
1294.366
1293.008
1291.627
1307.294
1306.591
1305.844
1305.051
1304.212
1303.326
1302.389
1301.401
1300.361
1299.268
1298.104
1296.875
1295.602
1294.294
1292.959
1307.913
1307.257
1306.556
1305.811
1305.02
1304.183
1303.296
1302.358
1301.37
1300.329
1299.218
1298.038
1296.815
1295.552
1294.258
1288.518
1286.908
1285.252
1283.543
1281.756
1279.812
1277.646
1290.109
1288.553
1286.952
1285.304
1283.603
1281.814
1279.831
1277.507
1291.687
1290.191
1288.646
1287.055
1285.417
1283.72
1281.91
1279.831
1277.142
1293.265
1291.83
1290.345
1288.814
1287.237
1285.61
1283.907
1282.052
1279.795
1276.447
1294.853
1293.483
1292.062
1290.593
1289.078
1287.516
1285.895
1284.177
1282.241
1279.693
1275.51
1296.44
1295.135
1293.78
1292.375
1290.924
1289.427
1287.877
1286.257
1284.509
1282.451
1279.562
1274.394
1297.947
1296.705
1295.414
1294.074
1292.685
1291.251
1289.766
1288.226
1286.605
1284.822
1282.631
1279.414
1273.175
1299.329
1298.149
1296.918
1295.639
1294.311
1292.937
1291.512
1290.038
1288.505
1286.88
1285.029
1282.73
1279.258
1272.195
1300.578
1299.454
1298.282
1297.06
1295.789
1294.471
1293.103
1291.686
1290.218
1288.69
1287.009
1285.106
1282.771
1279.177
1271.64
1301.695
1300.626
1299.508
1298.34
1297.124
1295.86
1294.544
1293.179
1291.765
1290.301
1288.714
1286.99
1285.1
1282.781
1279.204
1272.043
1302.69
1301.672
1300.605
1299.489
1298.325
1297.111
1295.846
1294.53
1293.164
1291.75
1290.225
1288.594
1286.892
1285.035
1282.779
1279.51
1273.239
1303.569
1302.599
1301.581
1300.515
1299.399
1298.235
1297.018
1295.749
1294.43
1293.061
1291.586
1290.018
1288.408
1286.735
1284.928
1282.781
1280.025
1274.665
1304.339
1303.416
1302.445
1301.426
1300.358
1299.24
1298.071
1296.848
1295.574
1294.249
1292.822
1291.308
1289.76
1288.176
1286.54
1284.754
1282.827
1280.548
1276.228
1305.013
1304.134
1303.208
1302.235
1301.213
1300.142
1299.018
1297.841
1296.612
1295.33
1293.953
1292.494
1290.999
1289.474
1287.919
1286.273
1284.601
1282.904
1281.027
1277.834
1305.61
1304.776
1303.894
1302.965
1301.988
1300.962
1299.884
1298.753
1297.569
1296.332
1295.007
1293.601
1292.155
1290.677
1289.171
1287.58
1286.035
1284.513
1282.985
1281.414
1279.413
1306.172
1305.381
1304.544
1303.66
1302.728
1301.748
1300.716
1299.631
1298.493
1297.302
1296.03
1294.674
1293.27
1291.82
1290.33
1306.751
1306.005
1305.213
1304.374
1303.489
1302.556
1301.572
1300.535
1299.446
1298.304
1297.086
1295.791
1294.449
1293.067
1291.656
1307.344
1306.643
1305.897
1305.105
1304.267
1303.382
1302.447
1301.46
1300.421
1299.33
1298.165
1296.928
1295.646
1294.325
1292.975
1307.935
1307.279
1306.579
1305.834
1305.044
1304.207
1303.321
1302.384
1301.396
1300.356
1299.244
1298.061
1296.833
1295.566
1294.265
1308.51
1307.899
1307.245
1306.546
1305.803
1305.015
1304.177
1303.29
1302.353
1301.365
1300.304
1299.173
1297.995
1296.776
1295.52
1290.067
1288.509
1286.906
1285.257
1283.557
1281.78
1279.843
1277.686
1291.599
1290.098
1288.548
1286.953
1285.313
1283.621
1281.838
1279.861
1277.549
1293.116
1291.674
1290.183
1288.644
1287.06
1285.43
1283.737
1281.932
1279.861
1277.186
1294.629
1293.249
1291.819
1290.34
1288.814
1287.243
1285.62
1283.921
1282.071
1279.825
1276.693
1296.15
1294.835
1293.468
1292.052
1290.588
1289.078
1287.519
1285.9
1284.186
1282.256
1279.821
1276.117
1297.669
1296.419
1295.117
1293.765
1292.365
1290.918
1289.422
1287.873
1286.255
1284.511
1282.487
1279.762
1275.035
1299.111
1297.923
1296.685
1295.397
1294.06
1292.675
1291.241
1289.757
1288.217
1286.597
1284.798
1282.653
1279.588
1273.765
1300.433
1299.305
1298.127
1296.9
1295.623
1294.299
1292.924
1291.5
1290.025
1288.493
1286.825
1284.965
1282.734
1279.419
1272.718
1301.625
1300.553
1299.433
1298.263
1297.044
1295.776
1294.457
1293.089
1291.672
1290.204
1288.619
1286.905
1285.036
1282.768
1279.328
1272.562
1302.69
1301.672
1300.605
1299.489
1298.325
1297.111
1295.846
1294.53
1293.164
1291.75
1290.225
1288.594
1286.892
1285.035
1282.779
1279.51
1273.239
1303.635
1302.667
1301.651
1300.587
1299.474
1298.312
1297.098
1295.832
1294.516
1293.15
1291.676
1290.104
1288.489
1286.806
1284.98
1282.782
1279.914
1274.236
1304.467
1303.547
1302.579
1301.564
1300.5
1299.387
1298.222
1297.005
1295.736
1294.417
1292.991
1291.472
1289.916
1288.322
1286.667
1284.831
1282.812
1280.356
1275.468
1305.192
1304.318
1303.397
1302.428
1301.412
1300.346
1299.229
1298.059
1296.836
1295.562
1294.186
1292.719
1291.216
1289.681
1288.111
1286.421
1284.671
1282.871
1280.796
1276.841
1305.823
1304.993
1304.117
1303.193
1302.222
1301.203
1300.131
1299.007
1297.831
1296.601
1295.276
1293.863
1292.413
1290.928
1289.415
1287.802
1286.171
1284.567
1282.944
1281.193
1278.266
1306.379
1305.592
1304.76
1303.881
1302.954
1301.98
1300.953
1299.875
1298.744
1297.56
1296.287
1294.928
1293.526
1292.086
1290.615
1289.039
1287.509
1286.007
1284.512
1283.017
1281.511
1279.667
1306.899
1306.156
1305.367
1304.532
1303.65
1302.721
1301.74
1300.708
1299.623
1298.486
1297.264
1295.955
1294.593
1293.179
1291.716
1307.435
1306.735
1305.991
1305.201
1304.366
1303.483
1302.549
1301.565
1300.529
1299.44
1298.273
1297.025
1295.726
1294.383
1293.003
1307.985
1307.33
1306.63
1305.886
1305.097
1304.262
1303.376
1302.441
1301.454
1300.416
1299.302
1298.113
1296.876
1295.596
1294.28
1308.532
1307.921
1307.267
1306.569
1305.826
1305.038
1304.201
1303.315
1302.378
1301.391
1300.329
1299.195
1298.013
1296.789
1295.527
1309.063