/*--------------------------------*- C++ -*----------------------------------*\
| =========                 |                                                 |
| \\      /  F ield         | OpenFOAM: The Open Source CFD Toolbox           |
|  \\    /   O peration     | Version:  2306                                  |
|   \\  /    A nd           | Website:  www.openfoam.com                      |
|    \\/     M anipulation  |                                                 |
\*---------------------------------------------------------------------------*/
FoamFile
{
    version     2.0;
    format      ascii;
    arch        "LSB;label=32;scalar=64";
    class       volVectorField;
    location    "1.5/fuel";
    object      U;
}
// * * * * * * * * * * * * * * * * * * * * * * * * * * * * * * * * * * * * * //

dimensions      [0 1 -1 0 0 0 0];

internalField   nonuniform List<vector> 
16000
(
(0.0001051121 7.803931e-05 -0.005112513)
(0.0001052252 0.0002138618 -0.005190787)
(0.0001878288 7.871155e-05 -0.004224569)
(0.0001029636 8.310385e-05 -0.01628642)
(0.0001058433 0.0003784005 -0.005350695)
(0.0001871342 0.0002205197 -0.004269978)
(0.0001029494 0.0002259884 -0.01653385)
(0.000145042 7.046483e-05 -0.003508108)
(0.0001837462 8.231681e-05 -0.01347464)
(9.537027e-05 9.038418e-05 -0.02423773)
(0.0001061749 0.000466854 -0.00559757)
(0.0001863495 0.0003866418 -0.004360832)
(0.0001033048 0.0003992597 -0.01703911)
(0.0001434151 0.0001985531 -0.003538932)
(0.0001828552 0.0002287006 -0.01361846)
(9.507742e-05 0.0002464409 -0.02460376)
(0.0001089328 6.197542e-05 -0.002980395)
(0.0001418679 7.325121e-05 -0.01120202)
(0.0001699159 8.671437e-05 -0.02007165)
(8.628001e-05 9.635607e-05 -0.03996657)
(0.0001086108 0.0006803356 -0.005924351)
(0.0001840135 0.0004924404 -0.004496585)
(0.0001032062 0.0004953949 -0.01781912)
(0.0001405313 0.000346248 -0.003600042)
(0.0001816704 0.0004004976 -0.01390611)
(9.484839e-05 0.0004341497 -0.02535114)
(0.0001074122 0.0001750914 -0.003003078)
(0.0001401306 0.0002046967 -0.0112998)
(0.0001686216 0.0002405115 -0.02028469)
(8.56591e-05 0.0002703285 -0.04056808)
(8.349493e-05 5.490549e-05 -0.002580663)
(0.000106578 6.423068e-05 -0.00952603)
(0.0001311181 7.632278e-05 -0.01670007)
(0.0001538123 8.976115e-05 -0.03311607)
(7.149846e-05 0.0001205124 -0.03255871)
(0.0001072847 0.0005328262 -0.006297502)
(0.000184146 0.0006880005 -0.004667303)
(0.000105064 0.000716432 -0.01885138)
(0.000135242 0.0004433769 -0.003690137)
(0.0001786878 0.0005108 -0.014336)
(9.381154e-05 0.0005444707 -0.02650478)
(0.0001046387 0.0003043822 -0.003047784)
(0.0001370276 0.0003566035 -0.01149358)
(0.0001665986 0.0004201485 -0.02071082)
(8.474223e-05 0.0004749036 -0.04179597)
(8.223452e-05 0.0001553648 -0.002598153)
(0.0001049854 0.0001799625 -0.009598075)
(0.000129186 0.0002127085 -0.01684507)
(0.0001520482 0.0002543421 -0.0334664)
(7.014003e-05 0.0003363485 -0.03304765)
(6.611049e-05 4.909208e-05 -0.002267641)
(8.168373e-05 5.678878e-05 -0.008255261)
(9.855374e-05 6.654346e-05 -0.01421129)
(0.000118591 7.817245e-05 -0.02756929)
(0.0001265816 0.0001061394 -0.02698207)
(0.0006107382 0.001101994 -0.06499218)
(0.0001117723 0.0001405944 -0.006572877)
(0.0001771686 0.0005603332 -0.004853568)
(0.000102996 0.0005649158 -0.02003188)
(0.0001304121 0.0006092894 -0.003800874)
(0.0001779744 0.0007107913 -0.0148767)
(9.435644e-05 0.0007761759 -0.02803121)
(9.977392e-05 0.0003905595 -0.00311315)
(0.0001313936 0.0004569334 -0.01177938)
(0.0001622898 0.0005373701 -0.0213477)
(8.260168e-05 0.0006017716 -0.0436924)
(7.991353e-05 0.0002694759 -0.002632473)
(0.0001020708 0.0003125734 -0.009740014)
(0.000125688 0.0003697977 -0.01713248)
(0.0001490492 0.000443168 -0.03416677)
(6.769449e-05 0.00058828 -0.03404694)
(6.506854e-05 0.0001390662 -0.002281561)
(8.037277e-05 0.0001593671 -0.00831087)
(9.684627e-05 0.0001858547 -0.01431823)
(0.0001164316 0.0002221087 -0.02780788)
(0.0001237032 0.0002975983 -0.02726668)
(0.0005973577 0.003124368 -0.0659711)
(5.366475e-05 4.425803e-05 -0.002016038)
(6.467628e-05 5.070031e-05 -0.007259334)
(7.551128e-05 5.860863e-05 -0.01232288)
(8.919721e-05 6.776508e-05 -0.02347329)
(9.735046e-05 9.048791e-05 -0.02246679)
(0.001082565 0.000962739 -0.05385644)
(0.0006268922 0.001136867 -0.04583002)
(0.0001146347 6.816305e-05 -0.006749949)
(0.0001811096 0.0002108904 -0.004979339)
(0.0001069625 0.0001599497 -0.02089952)
(0.0001197404 0.0004996199 -0.003919688)
(0.0001699193 0.0005797266 -0.01546826)
(9.072196e-05 0.0006198632 -0.02977689)
(9.495732e-05 0.0005318852 -0.003192315)
(0.0001261414 0.0006260601 -0.01213076)
(0.0001597579 0.0007417911 -0.02214878)
(8.16039e-05 0.0008459153 -0.04620325)
(7.590653e-05 0.0003460946 -0.002682364)
(9.698565e-05 0.0004012099 -0.009947637)
(0.0001194521 0.0004744744 -0.0175564)
(0.0001431961 0.0005684871 -0.03521422)
(6.306325e-05 0.0007579179 -0.03559016)
(6.31398e-05 0.0002407714 -0.002308783)
(7.795325e-05 0.0002761971 -0.008419949)
(9.370097e-05 0.0003222143 -0.01452894)
(0.0001124726 0.0003852865 -0.02828049)
(0.000118421 0.0005161957 -0.02783657)
(0.0005727016 0.005461044 -0.06796804)
(5.279349e-05 0.0001254716 -0.002027389)
(6.359695e-05 0.0001424385 -0.007303635)
(7.412456e-05 0.0001639078 -0.01240548)
(8.735546e-05 0.0001927787 -0.02364935)
(9.458527e-05 0.0002540462 -0.02266056)
(0.00105502 0.002737283 -0.05442647)
(0.0006124028 0.003308926 -0.04652451)
(4.452703e-05 4.01893e-05 -0.001809429)
(5.250171e-05 4.565504e-05 -0.006458238)
(5.978305e-05 5.217628e-05 -0.01084199)
(6.83104e-05 5.94501e-05 -0.02036426)
(7.336168e-05 7.754379e-05 -0.01913249)
(0.0008320514 0.000818112 -0.04484428)
(0.00111602 0.0009916963 -0.03796317)
(0.0006121938 0.001176186 -0.0508764)
(0.0001169494 7.815015e-06 -0.006850733)
(0.0001834322 0.0001173767 -0.005055872)
(0.0001094765 7.969655e-05 -0.02145662)
(0.0001181844 0.0002017578 -0.003995305)
(0.0001731395 0.0002215481 -0.01586579)
(9.345079e-05 0.0001977257 -0.0310581)
(8.57499e-05 0.0004370679 -0.003276543)
(0.0001149353 0.0005136302 -0.01250908)
(0.0001495723 0.0006067505 -0.02302551)
(7.612949e-05 0.0006839682 -0.04908285)
(7.183351e-05 0.0004683726 -0.002742133)
(9.190656e-05 0.0005450535 -0.01019919)
(0.0001134189 0.000646186 -0.01807769)
(0.0001385473 0.0007780945 -0.03653234)
(5.867935e-05 0.001042262 -0.03763527)
(5.984155e-05 0.0003093675 -0.002348182)
(7.379303e-05 0.0003547943 -0.008578589)
(8.826961e-05 0.0004138881 -0.0148372)
(0.0001055341 0.0004950624 -0.02897808)
(0.0001088947 0.0006656827 -0.02868855)
(0.000526764 0.007054176 -0.07106052)
(5.117526e-05 0.0002169122 -0.002049523)
(6.159566e-05 0.0002464305 -0.007390233)
(7.155397e-05 0.0002835924 -0.01256753)
(8.394048e-05 0.0003335507 -0.02399602)
(8.941764e-05 0.000438909 -0.02304512)
(0.001003714 0.004744485 -0.05556466)
(0.0005855782 0.005783165 -0.04794104)
(4.37891e-05 0.0001140054 -0.001818862)
(5.160177e-05 0.0001283682 -0.006494393)
(5.865053e-05 0.0001460511 -0.01090784)
(6.683504e-05 0.0001692508 -0.02050034)
(7.113304e-05 0.0002178095 -0.01927546)
(0.0008063876 0.002327776 -0.04523256)
(0.001086532 0.002890074 -0.03836777)
(0.0005970164 0.003367921 -0.05164978)
(3.75754e-05 3.671756e-05 -0.00163684)
(4.356646e-05 4.141926e-05 -0.005799965)
(4.852807e-05 4.688011e-05 -0.009650168)
(5.407216e-05 5.27694e-05 -0.01792533)
(5.61028e-05 6.74925e-05 -0.0166015)
(0.000627332 0.0006997554 -0.03819123)
(0.0008575932 0.0008421736 -0.03160103)
(0.001085804 0.001020462 -0.04213625)
(0.0005974305 0.001183982 -0.05165364)
(0.0001180169 2.418114e-06 -0.006895966)
(0.0001858748 4.011109e-05 -0.005097601)
(0.0001115964 1.346973e-05 -0.02177351)
(0.0001168618 0.0001146976 -0.004039264)
(0.0001749851 0.000123507 -0.01610749)
(9.514367e-05 0.000102583 -0.03188)
(8.35615e-05 0.0001817501 -0.003327905)
(0.0001130687 0.0002090747 -0.01274853)
(0.0001511469 0.0002389119 -0.02361416)
(7.740779e-05 0.0002417535 -0.05118747)
(6.443746e-05 0.0003851525 -0.002805459)
(8.236477e-05 0.0004479561 -0.01046788)
(0.0001013427 0.0005306812 -0.01863918)
(0.0001258815 0.0006383918 -0.0379801)
(4.893127e-05 0.0008595847 -0.03997646)
(5.644182e-05 0.0004166568 -0.002394976)
(6.954042e-05 0.0004791359 -0.008768725)
(8.275197e-05 0.0005594582 -0.01521074)
(9.858966e-05 0.0006698092 -0.02983624)
(9.937786e-05 0.0008976661 -0.02976158)
(0.0004813656 0.009664977 -0.07515824)
(4.842709e-05 0.0002787652 -0.002081448)
(5.818484e-05 0.0003166686 -0.007515632)
(6.716923e-05 0.0003644421 -0.01280324)
(7.810423e-05 0.0004287943 -0.02450355)
(8.058914e-05 0.0005654922 -0.02361242)
(0.0009119908 0.006124 -0.05727244)
(0.00053584 0.007476364 -0.05016337)
(4.241527e-05 0.0001968441 -0.001837211)
(4.992807e-05 0.0002217709 -0.006564864)
(5.654371e-05 0.0002522934 -0.01103658)
(6.408761e-05 0.0002923009 -0.02076708)
(6.695464e-05 0.0003754572 -0.01955755)
(0.0007580325 0.004018969 -0.04600043)
(0.00103146 0.005008757 -0.03917577)
(0.0005687547 0.005885357 -0.05322684)
(3.694277e-05 0.0001042061 -0.001644801)
(4.280588e-05 0.000116531 -0.005830034)
(4.758919e-05 0.0001313132 -0.009703939)
(5.287734e-05 0.0001503073 -0.01803388)
(5.435874e-05 0.0001896252 -0.01671198)
(0.0006068223 0.001991547 -0.03847785)
(0.0008303825 0.002454756 -0.03187676)
(0.001055254 0.002926957 -0.04258697)
(0.0005815529 0.003429526 -0.05244537)
(3.218717e-05 3.372494e-05 -0.001490573)
(3.676966e-05 3.781228e-05 -0.00524974)
(4.027594e-05 4.245465e-05 -0.00867035)
(4.388876e-05 4.730353e-05 -0.01596181)
(4.438222e-05 5.95502e-05 -0.01461588)
(0.0004795748 0.0006082357 -0.03314188)
(0.0006467074 0.0007199504 -0.02690628)
(0.0008340861 0.0008647481 -0.03507054)
(0.00106131 0.001023594 -0.04276815)
(0.0006264307 0.001324725 -0.04366803)
(0.0001180169 -2.418115e-06 -0.006895966)
(0.0001870039 1.256534e-05 -0.005115835)
(0.0001125756 4.158122e-06 -0.02191567)
(0.000116872 4.298472e-05 -0.004062128)
(0.0001771657 4.296594e-05 -0.01623933)
(9.6787e-05 2.535228e-05 -0.03234725)
(8.18684e-05 0.0001040264 -0.003356811)
(0.0001115452 0.0001188115 -0.01288762)
(0.0001519137 0.0001335966 -0.02397197)
(7.813958e-05 0.0001292397 -0.05253601)
(6.243362e-05 0.000162848 -0.002842746)
(7.999751e-05 0.0001872568 -0.01063072)
(9.884987e-05 0.0002195124 -0.01899434)
(0.0001255428 0.0002592335 -0.03894653)
(4.713597e-05 0.0003502384 -0.04169292)
(5.045119e-05 0.0003426897 -0.002444467)
(6.191434e-05 0.0003939921 -0.008971053)
(7.273142e-05 0.0004599306 -0.01560992)
(8.549772e-05 0.000550696 -0.0307645)
(8.061704e-05 0.0007404957 -0.03093588)
(0.0003864842 0.007996168 -0.0799265)
(4.556915e-05 0.0003739993 -0.002119093)
(5.465465e-05 0.0004257001 -0.007664639)
(6.263671e-05 0.000490028 -0.01308581)
(7.207391e-05 0.0005763959 -0.0251188)
(7.129693e-05 0.0007560528 -0.02431088)
(0.00081818 0.008235216 -0.05942173)
(0.0004860746 0.01023735 -0.05308695)
(4.009481e-05 0.0002529901 -0.001863604)
(4.709393e-05 0.0002850181 -0.006666564)
(5.297717e-05 0.0003242692 -0.01122302)
(5.943995e-05 0.0003758022 -0.02115537)
(5.993485e-05 0.0004834152 -0.01997026)
(0.000675744 0.005180541 -0.04713814)
(0.000933237 0.006467076 -0.04041158)
(0.000516668 0.007618638 -0.05571137)
(3.576296e-05 0.0001797335 -0.001660257)
(4.138838e-05 0.0002010796 -0.005888501)
(4.583854e-05 0.000226537 -0.009808762)
(5.064688e-05 0.0002592065 -0.01824588)
(5.108459e-05 0.0003263554 -0.01692906)
(0.0005681071 0.003430877 -0.03904111)
(0.000779055 0.0042378 -0.03242226)
(0.0009979923 0.005071614 -0.04348679)
(0.0005518283 0.005992587 -0.05405607)
(3.163924e-05 9.574918e-05 -0.00149738)
(3.611874e-05 0.0001064351 -0.005275139)
(3.948591e-05 0.0001189782 -0.008715095)
(4.290423e-05 0.000134787 -0.01605049)
(4.299047e-05 0.0001673378 -0.014704)
(0.0004635836 0.001731314 -0.03336351)
(0.0006250204 0.002098791 -0.02710991)
(0.0008063258 0.002481213 -0.03537781)
(0.001029737 0.002967513 -0.04323044)
(0.0006083524 0.003801666 -0.04433178)
(2.790839e-05 3.111875e-05 -0.001365109)
(3.150276e-05 3.470808e-05 -0.004783162)
(3.400101e-05 3.870044e-05 -0.00785099)
(3.643296e-05 4.2758e-05 -0.01434701)
(3.601237e-05 5.313001e-05 -0.01301715)
(0.0003793271 0.0005361089 -0.02918088)
(0.0004943299 0.0006255338 -0.02334443)
(0.0006291798 0.0007384531 -0.02985783)
(0.0008150167 0.0008661519 -0.03558895)
(0.001109617 0.001138538 -0.03614679)
(0.00519622 0.01233599 -0.1145642)
(0.0001169494 -7.815016e-06 -0.006850733)
(0.0001870039 -1.256534e-05 -0.005115835)
(0.0001125756 -4.158122e-06 -0.02191567)
(0.0001168844 1.35139e-05 -0.004071755)
(0.0001781765 1.343511e-05 -0.01629695)
(9.755018e-05 7.812314e-06 -0.03255677)
(8.144091e-05 4.02632e-05 -0.003371305)
(0.0001114511 4.482721e-05 -0.01296003)
(0.0001534723 4.805221e-05 -0.02416717)
(7.92258e-05 3.918124e-05 -0.05330236)
(6.091744e-05 9.346564e-05 -0.002863208)
(7.819092e-05 0.0001070825 -0.01072227)
(9.692978e-05 0.0001246473 -0.01920065)
(0.0001250561 0.000145404 -0.03953336)
(4.582794e-05 0.0001939933 -0.04279205)
(4.871848e-05 0.0001464951 -0.002472716)
(5.979361e-05 0.0001672153 -0.009089361)
(7.00366e-05 0.0001943283 -0.01585171)
(8.227453e-05 0.0002317642 -0.03134753)
(7.607823e-05 0.0003167792 -0.03172419)
(0.0003647777 0.003327002 -0.08334087)
(4.063809e-05 0.0003075879 -0.002158896)
(4.849593e-05 0.0003500806 -0.007822974)
(5.470887e-05 0.0004029175 -0.01338661)
(6.14933e-05 0.0004740138 -0.02577938)
(5.530331e-05 0.0006228484 -0.02506272)
(0.0006396455 0.006800033 -0.06183233)
(0.0003838703 0.00847681 -0.05680381)
(3.76669e-05 0.0003383459 -0.001894531)
(4.413721e-05 0.0003817549 -0.006786543)
(4.92551e-05 0.000434244 -0.01144461)
(5.457975e-05 0.000502855 -0.021621)
(5.24749e-05 0.0006432021 -0.02047098)
(0.0005884768 0.006910157 -0.04853744)
(0.0008321075 0.008693523 -0.04195373)
(0.0004636739 0.01042299 -0.05897638)
(3.377906e-05 0.0002309956 -0.001682436)
(3.900027e-05 0.0002584305 -0.005972641)
(4.289146e-05 0.0002911648 -0.009960056)
(4.689775e-05 0.0003332311 -0.01855317)
(4.562425e-05 0.0004199593 -0.01724481)
(0.0005032492 0.00441863 -0.03986928)
(0.0006917975 0.005463572 -0.0332499)
(0.0008962402 0.006551547 -0.04487134)
(0.0004973358 0.007766633 -0.05662632)
(3.061603e-05 0.0001649958 -0.001510571)
(3.490372e-05 0.0001834712 -0.005324421)
(3.801042e-05 0.0002050306 -0.008802108)
(4.106333e-05 0.0002321637 -0.01622319)
(4.037576e-05 0.0002876438 -0.01487655)
(0.0004333748 0.00297796 -0.03379699)
(0.0005840502 0.00361533 -0.0275103)
(0.0007538938 0.004282685 -0.03598548)
(0.0009703551 0.005141259 -0.04415049)
(0.0005740807 0.006642681 -0.04569424)
(2.742941e-05 8.837715e-05 -0.001370993)
(3.093978e-05 9.773617e-05 -0.004804894)
(3.332726e-05 0.0001085007 -0.007888803)
(3.560839e-05 0.0001218677 -0.01442085)
(3.487794e-05 0.000149313 -0.01308914)
(0.000366597 0.001526134 -0.02935775)
(0.0004774409 0.001823703 -0.02350196)
(0.0006071524 0.002119109 -0.03008482)
(0.0007866993 0.002511256 -0.03590457)
(0.001074078 0.003269955 -0.0365325)
(0.00502545 0.03558395 -0.1165061)
(2.446411e-05 2.88308e-05 -0.001256361)
(2.732066e-05 3.200836e-05 -0.004382722)
(2.91418e-05 3.547934e-05 -0.0071559)
(3.076658e-05 3.891668e-05 -0.01299621)
(2.991012e-05 4.78394e-05 -0.01170222)
(0.000307766 0.0004779189 -0.02599177)
(0.0003909802 0.0005511807 -0.0205511)
(0.0004808362 0.0006411421 -0.02590369)
(0.0006149858 0.0007390027 -0.03029434)
(0.0008517338 0.0009611233 -0.03007307)
(0.009190216 0.01049218 -0.09478499)
(0.005348288 0.01226577 -0.01172305)
(0.0001146347 -6.816305e-05 -0.006749949)
(0.0001858748 -4.011109e-05 -0.005097601)
(0.0001115964 -1.346973e-05 -0.02177351)
(0.0001168844 -1.35139e-05 -0.004071755)
(0.0001781765 -1.343511e-05 -0.01629695)
(9.755018e-05 -7.812314e-06 -0.03255677)
(8.124469e-05 1.266322e-05 -0.00337722)
(0.0001114168 1.406929e-05 -0.01299053)
(0.0001542021 1.497604e-05 -0.02425249)
(7.973661e-05 1.206432e-05 -0.05364598)
(6.044993e-05 3.677219e-05 -0.002873164)
(7.770759e-05 4.159713e-05 -0.01076823)
(9.661132e-05 4.766653e-05 -0.01930811)
(0.0001258929 5.400104e-05 -0.03985353)
(4.576653e-05 7.133781e-05 -0.04341653)
(4.74243e-05 8.419024e-05 -0.002487886)
(5.820406e-05 9.586931e-05 -0.009154207)
(6.803025e-05 0.0001109233 -0.01598767)
(7.989194e-05 0.0001314997 -0.0316858)
(7.282985e-05 0.0001785493 -0.03220264)
(0.0003493532 0.001851081 -0.08552474)
(3.91525e-05 0.0001325214 -0.002180976)
(4.6681e-05 0.00015008 -0.007912665)
(5.238892e-05 0.0001723308 -0.01356244)
(5.841561e-05 0.0002026482 -0.02617629)
(5.032171e-05 0.0002703025 -0.02553855)
(0.0005914861 0.002936077 -0.06338876)
(0.0003591373 0.003544269 -0.05912229)
(3.35441e-05 0.0002782215 -0.001927256)
(3.907813e-05 0.0003139031 -0.006914038)
(4.28912e-05 0.0003569996 -0.01168015)
(4.62984e-05 0.0004134323 -0.02211925)
(4.012093e-05 0.0005292486 -0.02100544)
(0.0004404018 0.005695086 -0.05009088)
(0.0006414051 0.007179723 -0.04393371)
(0.0003572875 0.008642113 -0.0632571)
(3.169398e-05 0.0003081136 -0.001708282)
(3.649515e-05 0.0003451034 -0.006071292)
(3.979685e-05 0.0003886436 -0.01013859)
(4.29508e-05 0.0004443195 -0.0189185)
(3.979865e-05 0.0005568806 -0.01762376)
(0.0004340076 0.005866993 -0.04087281)
(0.0005990567 0.007286057 -0.03425828)
(0.0007903798 0.008802616 -0.04659733)
(0.0004410939 0.01062076 -0.05998625)
(2.890184e-05 0.0002120427 -0.001529462)
(3.286532e-05 0.0002357892 -0.005395178)
(3.553756e-05 0.0002635036 -0.008927346)
(3.798369e-05 0.0002984216 -0.01647268)
(3.603544e-05 0.0003699651 -0.01512643)
(0.0003831182 0.003832728 -0.03443098)
(0.0005154635 0.004656716 -0.02811537)
(0.0006649052 0.005523063 -0.03691427)
(0.000865154 0.00664463 -0.04559253)
(0.0005116696 0.008623537 -0.04785554)
(2.653399e-05 0.0001521707 -0.001382378)
(2.988765e-05 0.0001683277 -0.004846983)
(3.20674e-05 0.0001867996 -0.007962183)
(3.406482e-05 0.0002097006 -0.01456427)
(3.27456e-05 0.0002564046 -0.01322973)
(0.0003425375 0.002621907 -0.02970237)
(0.0004455146 0.003136651 -0.0238103)
(0.0005655054 0.003649729 -0.03053097)
(0.0007331397 0.0043341 -0.0365265)
(0.001006635 0.005664677 -0.03730976)
(0.004679757 0.06213528 -0.1202747)
(2.404205e-05 8.190036e-05 -0.001261497)
(2.682909e-05 9.016331e-05 -0.004401521)
(2.856074e-05 9.950241e-05 -0.007188269)
(3.006602e-05 0.0001109422 -0.01305864)
(2.896802e-05 0.0001344553 -0.01176215)
(0.0002974082 0.001360553 -0.02613636)
(0.0003775456 0.00160701 -0.02067688)
(0.0004637153 0.00183997 -0.02607936)
(0.0005926024 0.002142715 -0.03052781)
(0.0008203934 0.002760637 -0.03033549)
(0.008859646 0.03025783 -0.09595936)
(0.005179374 0.03576006 -0.01222462)
(2.164365e-05 2.680652e-05 -0.00116125)
(2.395475e-05 2.964097e-05 -0.004035454)
(2.528437e-05 3.26851e-05 -0.006559102)
(2.638291e-05 3.563108e-05 -0.01184989)
(2.527983e-05 4.340188e-05 -0.01060213)
(0.0002556481 0.00043004 -0.02336878)
(0.0003172137 0.0004912303 -0.01830263)
(0.0003802774 0.0005646209 -0.02280313)
(0.0004699041 0.0006412162 -0.02627919)
(0.0006429984 0.0008189971 -0.02559527)
(0.007047697 0.00881922 -0.07882646)
(0.009487201 0.01046155 -0.009652428)
(0.005165805 0.01260976 -0.03375617)
(0.0001117723 -0.0001405944 -0.006572877)
(0.0001834322 -0.0001173767 -0.005055872)
(0.0001094765 -7.969656e-05 -0.02145662)
(0.000116872 -4.298472e-05 -0.004062128)
(0.0001771657 -4.296593e-05 -0.01623933)
(9.6787e-05 -2.535228e-05 -0.03234725)
(8.124469e-05 -1.266322e-05 -0.00337722)
(0.0001114168 -1.406929e-05 -0.01299053)
(0.0001542021 -1.497604e-05 -0.02425249)
(7.973661e-05 -1.206432e-05 -0.05364598)
(6.023364e-05 1.156025e-05 -0.002877116)
(7.748683e-05 1.306272e-05 -0.01078699)
(9.647639e-05 1.491086e-05 -0.0193534)
(0.0001262965 1.677857e-05 -0.03999351)
(4.575859e-05 2.195335e-05 -0.04369654)
(4.699331e-05 3.345672e-05 -0.002495069)
(5.770175e-05 3.780195e-05 -0.009185795)
(6.743776e-05 4.341263e-05 -0.01605597)
(7.9312e-05 5.099898e-05 -0.031862)
(7.213427e-05 6.971296e-05 -0.03246371)
(0.0003466991 0.0006958593 -0.08676591)
(3.805306e-05 7.6208e-05 -0.002192601)
(4.53355e-05 8.615191e-05 -0.007960755)
(5.068112e-05 9.858264e-05 -0.01365882)
(5.617564e-05 0.0001154454 -0.02639915)
(4.680916e-05 0.0001531317 -0.02581455)
(0.0005574717 0.00165612 -0.06433074)
(0.0003416595 0.001974435 -0.0605991)
(3.226657e-05 0.0001205797 -0.001944924)
(3.753179e-05 0.0001355387 -0.006984178)
(4.094452e-05 0.0001539405 -0.01181354)
(4.374517e-05 0.000178362 -0.02240787)
(3.605108e-05 0.0002311299 -0.02132957)
(0.0003926928 0.002486336 -0.05102538)
(0.000588499 0.00310463 -0.04495392)
(0.0003296126 0.003641153 -0.06579684)
(2.819811e-05 0.0002533086 -0.00173567)
(3.227171e-05 0.000283708 -0.006176229)
(3.459112e-05 0.0003194254 -0.01032835)
(3.634624e-05 0.0003651633 -0.019309)
(3.031513e-05 0.0004577472 -0.0180265)
(0.0003204689 0.004828385 -0.04198326)
(0.0004422297 0.006004871 -0.0355822)
(0.0005935788 0.007271735 -0.04891511)
(0.0003303223 0.00881566 -0.06474147)
(2.709411e-05 0.0002821962 -0.001551368)
(3.071838e-05 0.0003140763 -0.005477685)
(3.292975e-05 0.0003507769 -0.009074217)
(3.472732e-05 0.0003967776 -0.01676716)
(3.139448e-05 0.0004893101 -0.01542376)
(0.0003293174 0.005072797 -0.03519083)
(0.0004421437 0.006182207 -0.0288412)
(0.0005699866 0.00736315 -0.03804483)
(0.0007547531 0.008926442 -0.04737912)
(0.0004460991 0.01179057 -0.05069404)
(2.503867e-05 0.0001955451 -0.001398654)
(2.812868e-05 0.0002163105 -0.004907292)
(2.996368e-05 0.0002400465 -0.008067553)
(3.149238e-05 0.0002695002 -0.01477089)
(2.921829e-05 0.000329644 -0.0134326)
(0.0003026875 0.00337259 -0.03020445)
(0.0003924326 0.004037287 -0.02427536)
(0.0004958665 0.004701942 -0.03121094)
(0.0006423595 0.005590963 -0.03749874)
(0.0008876114 0.007326235 -0.03851765)
(0.004059437 0.08091005 -0.1271416)
(2.325238e-05 0.0001409197 -0.001271418)
(2.590954e-05 0.000155166 -0.00443787)
(2.747318e-05 0.000171169 -0.007250966)
(2.875347e-05 0.000190738 -0.01317964)
(2.719661e-05 0.0002306992 -0.01187892)
(0.0002778265 0.002335184 -0.02641718)
(0.0003521397 0.002760687 -0.02092217)
(0.0004313308 0.003164167 -0.02642304)
(0.0005502407 0.003690072 -0.03098481)
(0.0007607664 0.004764146 -0.03086046)
(0.00819897 0.0523769 -0.09815373)
(0.004837028 0.0629395 -0.01324304)
(2.126907e-05 7.616625e-05 -0.001165769)
(2.352202e-05 8.351747e-05 -0.00405187)
(2.477822e-05 9.169039e-05 -0.006587115)
(2.57806e-05 0.0001015922 -0.01190336)
(2.448494e-05 0.0001219903 -0.0106528)
(0.0002470589 0.00122429 -0.02348923)
(0.0003062891 0.001432256 -0.01840551)
(0.0003666754 0.001620414 -0.02294343)
(0.0004525358 0.001859226 -0.02646009)
(0.0006183506 0.002352386 -0.02578884)
(0.006764219 0.02542716 -0.07964872)
(0.009158724 0.03049045 -0.01001621)
(0.004988118 0.036511 -0.0347349)
(1.930881e-05 2.500403e-05 -0.001077407)
(2.119862e-05 2.754844e-05 -0.003731578)
(2.218118e-05 3.024007e-05 -0.006041356)
(2.290428e-05 3.278832e-05 -0.01086535)
(2.170817e-05 3.962946e-05 -0.009668459)
(0.000216118 0.0003899312 -0.02117428)
(0.0002635092 0.000441927 -0.01645367)
(0.0003085182 0.0005029872 -0.02030761)
(0.0003716061 0.0005644138 -0.02313144)
(0.000491181 0.0007100067 -0.02220042)
(0.005326589 0.007496892 -0.06706928)
(0.007277732 0.008803554 -0.008002023)
(0.009140823 0.01070359 -0.02787479)
(0.005118564 0.01268985 -0.01245306)
(0.0001072847 -0.0005328262 -0.006297502)
(0.0001811096 -0.0002108904 -0.004979339)
(0.0001069625 -0.0001599497 -0.02089952)
(0.0001168618 -0.0001146976 -0.004039264)
(0.0001749851 -0.000123507 -0.01610749)
(9.514367e-05 -0.000102583 -0.03188)
(8.144091e-05 -4.02632e-05 -0.003371305)
(0.0001114511 -4.482721e-05 -0.01296003)
(0.0001534723 -4.805221e-05 -0.02416717)
(7.92258e-05 -3.918124e-05 -0.05330236)
(6.023364e-05 -1.156025e-05 -0.002877116)
(7.748683e-05 -1.306272e-05 -0.01078699)
(9.647639e-05 -1.491086e-05 -0.0193534)
(0.0001262965 -1.677857e-05 -0.03999351)
(4.575859e-05 -2.195335e-05 -0.04369654)
(4.679384e-05 1.051169e-05 -0.002497847)
(5.747036e-05 1.186742e-05 -0.009198338)
(6.71692e-05 1.359071e-05 -0.01608387)
(7.905971e-05 1.589904e-05 -0.03193628)
(7.18469e-05 2.156206e-05 -0.03257787)
(0.0003456781 0.0002141195 -0.08732255)
(3.767137e-05 3.048985e-05 -0.002197965)
(4.488081e-05 3.428493e-05 -0.007983554)
(5.011595e-05 3.905298e-05 -0.01370581)
(5.545555e-05 4.554945e-05 -0.0265111)
(4.562971e-05 6.085305e-05 -0.02595837)
(0.0005484899 0.0006517173 -0.06484458)
(0.000338126 0.0007467744 -0.06144013)
(3.132776e-05 6.93632e-05 -0.001954054)
(3.639455e-05 7.785199e-05 -0.007021037)
(3.952242e-05 8.815661e-05 -0.01188507)
(4.189882e-05 0.0001017851 -0.02256582)
(3.318775e-05 0.000131182 -0.02151155)
(0.0003592578 0.00140817 -0.05156479)
(0.000551254 0.001751432 -0.04556227)
(0.0003101819 0.002032362 -0.06740834)
(2.709187e-05 0.0001102891 -0.00175008)
(3.094763e-05 0.000123168 -0.006232382)
(3.295285e-05 0.0001385439 -0.01043272)
(3.424511e-05 0.000158501 -0.01952796)
(2.712294e-05 0.0002006178 -0.01826235)
(0.000282292 0.002117999 -0.0426171)
(0.0003912823 0.002622894 -0.03617608)
(0.0005366019 0.003151454 -0.05001648)
(0.0002997909 0.003735651 -0.06722187)
(2.409452e-05 0.0002319491 -0.001574628)
(2.714141e-05 0.0002581385 -0.005565601)
(2.859749e-05 0.0002882155 -0.009230475)
(2.934939e-05 0.0003259506 -0.01708202)
(2.392151e-05 0.0004018531 -0.01573914)
(0.0002424444 0.004169896 -0.03603194)
(0.0003221747 0.005087383 -0.02981548)
(0.0004103391 0.006068242 -0.03961168)
(0.0005518203 0.007375129 -0.05005291)
(0.0003200002 0.009800015 -0.05463506)
(2.345751e-05 0.0002597353 -0.001417444)
(2.627038e-05 0.0002875123 -0.004977272)
(2.773813e-05 0.0003188304 -0.008190449)
(2.8764e-05 0.0003574841 -0.01501326)
(2.54412e-05 0.0004350707 -0.01367228)
(0.0002599617 0.004452853 -0.03080095)
(0.0003355517 0.005343051 -0.02482684)
(0.0004212593 0.006241103 -0.03202594)
(0.0005452323 0.007453906 -0.0386742)
(0.0007612813 0.009844234 -0.04002342)
(0.003384987 0.1100338 -0.1356668)
(2.193723e-05 0.0001810704 -0.00128558)
(2.437683e-05 0.0001993777 -0.004489865)
(2.566277e-05 0.0002199324 -0.007340818)
(2.657296e-05 0.0002450845 -0.01335356)
(2.427454e-05 0.0002964841 -0.01204695)
(0.0002454995 0.003002333 -0.0268251)
(0.0003100819 0.003551303 -0.02129189)
(0.0003775397 0.004073264 -0.02694636)
(0.0004794729 0.004754861 -0.03169949)
(0.000659879 0.00614848 -0.03167265)
(0.007043665 0.06782206 -0.1022753)
(0.004211961 0.08212532 -0.01825832)
(2.056773e-05 0.0001309718 -0.001174487)
(2.271193e-05 0.0001436318 -0.004083563)
(2.383019e-05 0.000157619 -0.006641285)
(2.465138e-05 0.0001745347 -0.01200679)
(2.298996e-05 0.0002091651 -0.01075133)
(0.0002308172 0.002099627 -0.02372252)
(0.0002856245 0.002458128 -0.01860553)
(0.0003409403 0.002783354 -0.02321694)
(0.0004196572 0.003197062 -0.02681241)
(0.0005714621 0.004050948 -0.02617435)
(0.006201183 0.04385021 -0.08115293)
(0.008501277 0.05318155 -0.01075957)
(0.004628197 0.06511946 -0.0366301)
(1.897427e-05 7.105767e-05 -0.001081411)
(2.08149e-05 7.763931e-05 -0.003746031)
(2.173653e-05 8.485037e-05 -0.006065826)
(2.2381e-05 9.34989e-05 -0.01091164)
(2.102867e-05 0.0001113919 -0.009711854)
(0.0002088795 0.001110125 -0.02127618)
(0.0002544539 0.001288519 -0.01653941)
(0.0002974677 0.001443545 -0.02042241)
(0.0003578227 0.001636542 -0.02327611)
(0.0004720988 0.002039278 -0.02235003)
(0.005105602 0.02161093 -0.06768998)
(0.006993841 0.02565101 -0.008286408)
(0.008798896 0.03098073 -0.02854773)
(0.004937612 0.03686414 -0.01305947)
(1.735158e-05 2.338928e-05 -0.001002982)
(1.891728e-05 2.568674e-05 -0.003463573)
(1.964066e-05 2.808292e-05 -0.005588139)
(2.010768e-05 3.030635e-05 -0.01001094)
(1.887715e-05 3.63825e-05 -0.008866456)
(0.0001856485 0.0003558692 -0.01931169)
(0.0002227809 0.0004006409 -0.01490701)
(0.0002563076 0.0004523395 -0.01825564)
(0.0003014737 0.0005026097 -0.02059838)
(0.0003883955 0.0006245494 -0.01953951)
(0.004066694 0.006488171 -0.05816028)
(0.005499089 0.007487929 -0.006791621)
(0.007010069 0.0089898 -0.02315624)
(0.009062667 0.01075965 -0.01026392)
(0.005013475 0.01267217 -0.006377176)
(0.0001086108 -0.0006803356 -0.005924351)
(0.0001771686 -0.0005603332 -0.004853568)
(0.000102996 -0.0005649158 -0.02003188)
(0.0001181844 -0.0002017578 -0.003995305)
(0.0001731395 -0.0002215481 -0.01586579)
(9.345079e-05 -0.0001977257 -0.0310581)
(8.18684e-05 -0.0001040264 -0.003356811)
(0.0001115452 -0.0001188115 -0.01288762)
(0.0001519137 -0.0001335966 -0.02397197)
(7.813958e-05 -0.0001292397 -0.05253601)
(6.044993e-05 -3.677219e-05 -0.002873164)
(7.770759e-05 -4.159713e-05 -0.01076823)
(9.661132e-05 -4.766653e-05 -0.01930811)
(0.0001258929 -5.400104e-05 -0.03985353)
(4.576653e-05 -7.133781e-05 -0.04341653)
(4.679384e-05 -1.051169e-05 -0.002497847)
(5.747036e-05 -1.186742e-05 -0.009198338)
(6.71692e-05 -1.359071e-05 -0.01608387)
(7.905971e-05 -1.589904e-05 -0.03193628)
(7.18469e-05 -2.156206e-05 -0.03257787)
(0.0003456781 -0.0002141195 -0.08732255)
(3.749493e-05 9.573884e-06 -0.002199985)
(4.467116e-05 1.075806e-05 -0.007992371)
(4.985763e-05 1.222505e-05 -0.01372449)
(5.513112e-05 1.42126e-05 -0.02655684)
(4.510866e-05 1.886143e-05 -0.02601902)
(0.0005446753 0.0002014299 -0.06506925)
(0.0003367153 0.0002297831 -0.06181733)
(3.099326e-05 2.788807e-05 -0.001958159)
(3.599578e-05 3.11757e-05 -0.007038062)
(3.902788e-05 3.518797e-05 -0.01191901)
(4.126004e-05 4.052923e-05 -0.0226428)
(3.215303e-05 5.252111e-05 -0.02160303)
(0.000347632 0.0005619541 -0.05184541)
(0.000540935 0.0006906689 -0.0458936)
(0.000305531 0.0007760913 -0.06832805)
(2.62835e-05 6.345249e-05 -0.001757392)
(2.997991e-05 7.076876e-05 -0.006261331)
(3.176303e-05 7.938188e-05 -0.01048758)
(3.273309e-05 9.052827e-05 -0.01964514)
(2.488057e-05 0.0001139519 -0.01839144)
(0.000255572 0.00120132 -0.04297056)
(0.0003556398 0.001485244 -0.03650922)
(0.0004966883 0.001778153 -0.05066642)
(0.0002784679 0.002088405 -0.06878315)
(2.312986e-05 0.0001013645 -0.001586564)
(2.599851e-05 0.0001125432 -0.005611416)
(2.720665e-05 0.0001255631 -0.009314084)
(2.760321e-05 0.0001421007 -0.01725336)
(2.137638e-05 0.0001765394 -0.01591819)
(0.0002127506 0.001833982 -0.03649137)
(0.0002816588 0.002231694 -0.03020719)
(0.0003577983 0.002652265 -0.04024445)