/*--------------------------------*- C++ -*----------------------------------*\
| =========                 |                                                 |
| \\      /  F ield         | OpenFOAM: The Open Source CFD Toolbox           |
|  \\    /   O peration     | Version:  2306                                  |
|   \\  /    A nd           | Website:  www.openfoam.com                      |
|    \\/     M anipulation  |                                                 |
\*---------------------------------------------------------------------------*/
FoamFile
{
    version     2.0;
    format      ascii;
    arch        "LSB;label=32;scalar=64";
    class       volScalarField;
    location    "1.5/fuel";
    object      X.H2O;
}
// * * * * * * * * * * * * * * * * * * * * * * * * * * * * * * * * * * * * * //

dimensions      [0 0 0 0 0 0 0];

internalField   nonuniform List<scalar> 
16000
(
0.06891925
0.06766073
0.08962621
0.068848
0.06515311
0.08864933
0.06758884
0.1128944
0.0895612
0.06870837
0.0614689
0.08670442
0.06507985
0.1120207
0.08858393
0.06744798
0.1355448
0.1128347
0.08943367
0.06850241
0.05687323
0.08384819
0.06139331
0.1102805
0.08663816
0.06493633
0.1347312
0.1119607
0.08845562
0.06724023
0.1571675
0.1354894
0.1127175
0.08924538
0.06823134
0.05213683
0.08028252
0.05679386
0.1077221
0.08378051
0.06124526
0.1331112
0.1102198
0.0865082
0.06472471
0.156401
0.1346755
0.1118429
0.0882662
0.06696683
0.1777683
0.1571156
0.1353804
0.1125442
0.08899741
0.06796282
0.04868258
0.07659236
0.05205235
0.1045236
0.08021256
0.05663844
0.1307299
0.1076604
0.08364778
0.06102698
0.1548753
0.133055
0.1101007
0.08631636
0.06444622
0.1770424
0.1563489
0.1345661
0.1116688
0.08801674
0.066696
0.1974186
0.1777195
0.1570135
0.1352193
0.1123159
0.08875167
0.06774075
0.04653522
0.07386142
0.04859583
0.1012072
0.07651931
0.05188688
0.1277529
0.1044601
0.08007535
0.05640931
0.1526333
0.1306728
0.1075392
0.08345187
0.06073977
0.175598
0.1548228
0.1329445
0.1099248
0.08606373
0.06417037
0.1967288
0.1769934
0.1562464
0.1344042
0.1114393
0.08776954
0.066472
0.2161912
0.1973724
0.1776233
0.1568625
0.1350068
0.1120896
0.08854844
0.06752038
0.04533273
0.07213069
0.04644762
0.09874705
0.07378736
0.048426
0.1246658
0.1011413
0.07637599
0.05164287
0.1498312
0.1276942
0.1043354
0.07987282
0.05610781
0.1734759
0.15258
0.1305606
0.1073601
0.0831939
0.0604553
0.1953565
0.1755486
0.1547194
0.1327812
0.109693
0.0858134
0.06394212
0.2155341
0.1966824
0.1768969
0.1560947
0.1341909
0.1112119
0.08756509
0.06624971
0.2341529
0.2161474
0.1972814
0.177481
0.1566632
0.1347961
0.1119025
0.08834678
0.06730172
0.04479691
0.07114269
0.04524475
0.0971829
0.0720565
0.04627618
0.1223745
0.09868044
0.07364208
0.04817562
0.1469261
0.1246051
0.1010117
0.07616439
0.0513217
0.1708244
0.1497765
0.127579
0.1041511
0.07960612
0.05580919
0.1933409
0.1734258
0.1524751
0.1303946
0.1071242
0.08293828
0.06021949
0.214227
0.1953098
0.1754513
0.1545664
0.1325658
0.1094631
0.08560629
0.0637155
0.2335255
0.2154901
0.1965912
0.176754
0.1558947
0.1339793
0.1110238
0.08736221
0.06602913
0.251362
0.2341112
0.2160611
0.1971467
0.1772931
0.1564656
0.1346219
0.1117168
0.08814667
0.06708476
0.04479691
0.07069614
0.04470877
0.09628698
0.07106855
0.04507262
0.1209161
0.09711637
0.07191101
0.04602352
0.1447694
0.1223132
0.09854961
0.07342762
0.04784614
0.168076
0.1468695
0.1244856
0.1008202
0.07588568
0.0510035
0.1908229
0.170773
0.1496689
0.1274086
0.1039083
0.07934185
0.05556037
0.2123074
0.1932936
0.1733271
0.1523198
0.1301758
0.1068903
0.08272649
0.05998495
0.2322778
0.2141827
0.1952179
0.1753073
0.1543647
0.1323522
0.109273
0.08540068
0.06349052
0.250762
0.2334837
0.2154036
0.196456
0.1765655
0.1556963
0.1338043
0.1108372
0.08716089
0.06581026
0.2678703
0.2513223
0.2340291
0.2159333
0.1969689
0.1771067
0.1563021
0.134449
0.1115325
0.08794814
0.06604215
0.04533273
0.07069614
0.04470877
0.09588101
0.07062204
0.04453634
0.1200798
0.09622062
0.07092317
0.04481899
0.143396
0.120855
0.09698572
0.07169627
0.04569111
0.1660355
0.1447124
0.1221928
0.09835627
0.07314516
0.04751973
0.1882135
0.1680229
0.1467581
0.1243089
0.1005677
0.07560944
0.05073596
0.2099099
0.1907745
0.1706719
0.1495098
0.1271839
0.1036676
0.07912194
0.0553116
0.2304458
0.2122626
0.1932004
0.173181
0.1521151
0.1299588
0.1066965
0.08251592
0.05975168
0.249569
0.2322358
0.2140955
0.1950816
0.1751172
0.1541645
0.1321755
0.1090842
0.08519658
0.06326717
0.2672957
0.2507222
0.2334013
0.2152752
0.1962775
0.1763783
0.1555321
0.1336306
0.1106519
0.08696113
0.06475848
0.2837238
0.2678324
0.251244
0.2339074
0.2157644
0.1967924
0.1769526
0.1561399
0.1342775
0.1113497
0.08699333
0.06533193
0.04653522
0.07114269
0.04524475
0.09588101
0.07062204
0.04453634
0.1197004
0.09581474
0.07047675
0.04428229
0.1426079
0.1200189
0.0960903
0.07070863
0.04448534
0.1647358
0.1433392
0.120735
0.09679267
0.07141349
0.04536184
0.1862762
0.1659821
0.1446003
0.1220148
0.09810146
0.07286523
0.04724527
0.2074258
0.1881635
0.1679183
0.1465933
0.1240759
0.1003174
0.07537775
0.05046604
0.2281581
0.2098641
0.1906791
0.1705223
0.1492998
0.1269611
0.1034673
0.07890235
0.0550629
0.2478174
0.2304032
0.2121742
0.1930623
0.1729883
0.1519119
0.129779
0.1065038
0.08230659
0.05951968
0.2661532
0.2495289
0.2321528
0.2139663
0.1949018
0.1749286
0.1539989
0.1320001
0.1088969
0.08499399
0.06219355
0.2831727
0.2672577
0.2506437
0.2332792
0.2151058
0.1961004
0.1762236
0.1553693
0.1334583
0.1104682
0.08600046
0.06403881
0.2989632
0.2836875
0.2677577
0.2511279
0.2337466
0.2155967
0.1966464
0.1767996
0.155979
0.1341073
0.11047
0.08634397
0.06479728
0.04868258
0.07213069
0.04644762
0.09628698
0.07106855
0.04507262
0.1197004
0.09581474
0.07047675
0.04428229
0.1422502
0.1196397
0.09568462
0.07026234
0.04394812
0.1639897
0.1425513
0.1198992
0.09589778
0.07042613
0.04415488
0.1850421
0.1646826
0.1432275
0.1205574
0.09653828
0.07113327
0.04508555
0.2055815
0.1862259
0.165877
0.1444344
0.12178
0.09784882
0.07263042
0.04696838
0.2257879
0.2073784
0.1880649
0.1677635
0.1463758
0.1238447
0.1001075
0.07514459
0.05019373
0.2456304
0.2281145
0.2097737
0.1905378
0.1703249
0.1490915
0.1267756
0.1032673
0.0786831
0.05481427
0.2644759
0.2477768
0.2303192
0.2120433
0.1928801
0.172797
0.1517437
0.1296002
0.1063123
0.0820985
0.05840282
0.2820771
0.2661149
0.2494498
0.2320298
0.2137956
0.1947233
0.1747725
0.1538346
0.131826
0.1087109
0.08401939
0.06144669
0.2984341
0.2831363
0.2671827
0.2505272
0.2331179
0.2149375
0.1959539
0.1760701
0.1552077
0.1332873
0.1095839
0.08534484
0.06349445
0.3136255
0.2989285
0.283616
0.2676467
0.2509745
0.2335869
0.215458
0.1965015
0.1766479
0.1558194
0.1332881
0.1098722
0.08585554
0.06443972
0.05213683
0.07386142
0.04859583
0.0971829
0.0720565
0.04627618
0.1200798
0.09622062
0.07092317
0.04481899
0.1422502
0.1196397
0.09568462
0.07026234
0.04394812
0.1636511
0.1421938
0.1195202
0.09549239
0.06998003
0.04361714
0.1843334
0.1639367
0.14244
0.1197223
0.09564409
0.0701462
0.04387802
0.2044065
0.184992
0.1645779
0.1430622
0.1203233
0.09628607
0.07089863
0.04480738
0.2240284
0.2055339
0.1861268
0.1657213
0.1442156
0.1215471
0.09763691
0.07239408
0.04668904
0.2433649
0.225743
0.207285
0.1879187
0.1675592
0.14616
0.1236508
0.0998963
0.07490992
0.04991899
0.262382
0.2455889
0.2280286
0.2096397
0.1903512
0.1701289
0.1489182
0.1265905
0.1030677
0.07846419
0.05361169
0.2804689
0.2644372
0.2476968
0.2301947
0.2118704
0.1926992
0.1726386
0.1515763
0.1294225
0.106122
0.08109613
0.05758282
0.2973823
0.2820405
0.2660394
0.2493326
0.2318674
0.2136261
0.1945756
0.1746176
0.1536714
0.1316531
0.1078157
0.08334544
0.06087119
0.3131169
0.2983993
0.2830646
0.2670714
0.2503733
0.2329577
0.2147984
0.1958085
0.1759177
0.1550474
0.1324642
0.1089811
0.08484983
0.06312877
0.3277437
0.3135922
0.29886
0.2835098
0.2675001
0.2508221
0.2334548
0.2153204
0.1963578
0.1764973
0.1550506
0.1327318
0.1094228
0.08552912
0.06426058
0.05687323
0.07659236
0.05205235
0.09874705
0.07378736
0.048426
0.1209161
0.09711637
0.07191101
0.04602352
0.1426079
0.1200189
0.0960903
0.07070863
0.04448534
0.1636511
0.1421938
0.1195202
0.09549239
0.06998003
0.04361714
0.1840117
0.1635982
0.1420827
0.1193436
0.09523908
0.06970029
0.04334006
0.2037317
0.1842835
0.1638324
0.1422754
0.119489
0.09539259
0.06991212
0.04359972
0.2229073
0.2043591
0.1848933
0.1644228
0.1428441
0.1200911
0.09607489
0.07066287
0.04452733
0.2416832
0.2239832
0.2054401
0.1859799
0.1655158
0.1439984
0.1213518
0.09742364
0.07215619
0.04640724
0.2602132
0.2433221
0.2256543
0.2071466
0.1877258
0.1673564
0.145979
0.1234557
0.09968375
0.07467373
0.04857885
0.2784614
0.2623425
0.2455071
0.2279013
0.2094628
0.190166
0.1699659
0.1487451
0.1264057
0.1028684
0.07740535
0.0525959
0.2958386
0.2804319
0.2643608
0.2475781
0.2300302
0.2116987
0.1925493
0.172481
0.15141
0.1292459
0.1052043
0.08037148
0.05691042
0.3121062
0.2973473
0.2819683
0.2659274
0.2491776
0.2317061
0.2134859
0.194429
0.1744638
0.1535094
0.1308207
0.1071975
0.08282887
0.06047749
0.3272545
0.3130836
0.2983306
0.2829581
0.2669243
0.2502204
0.2328252
0.2146603
0.1956643
0.1757665
0.1542753
0.1319035
0.1085261
0.08451783
0.06294494
0.3413481
0.3277118
0.3135264
0.2987582
0.2833694
0.2673543
0.250696
0.2333238
0.2151839
0.1962153
0.1757721
0.1545289
0.1323136
0.1091224
0.08536565
0.0614689
0.08028252
0.05679386
0.1012072
0.07651931
0.05188688
0.1223745
0.09868044
0.07364208
0.04817562
0.143396
0.120855
0.09698572
0.07169627
0.04569111
0.1639897
0.1425513
0.1198992
0.09589778
0.07042613
0.04415488
0.1840117
0.1635982
0.1420827
0.1193436
0.09523908
0.06970029
0.04334006
0.2034254
0.1839619
0.1634941
0.1419184
0.1191108
0.09498797
0.06946652
0.04306174
0.2222634
0.2036846
0.1841852
0.163678
0.1420582
0.1192577
0.09518229
0.06967725
0.04331996
0.2406116
0.2228623
0.2042657
0.184747
0.1642182
0.1426278
0.1198967
0.09586272
0.07042599
0.0442454
0.2586033
0.2416402
0.2238941
0.205301
0.185786
0.1653118
0.1438162
0.1211551
0.097209
0.07191677
0.04503331
0.2763823
0.2601724
0.2432377
0.2255227
0.2069637
0.1875342
0.1671862
0.1457969
0.1232594
0.09946985
0.07352254
0.04716745
0.2939117
0.2784236
0.2622644
0.2453858
0.2277331
0.2092872
0.1900119
0.169803
0.1485723
0.1262211
0.1019036
0.0765416
0.05161816
0.3106228
0.2958032
0.2803589
0.2642475
0.2474213
0.2298669
0.2115565
0.1924003
0.1723244
0.1512447
0.1283941
0.1045425
0.07978619
0.05641891
0.3262823
0.3120726
0.2972781
0.2818611
0.2657793
0.2490237
0.2315726
0.2133467
0.1942835
0.1743112
0.1527292
0.1302464
0.1067241
0.08247722
0.06027676
0.3408771
0.3272225
0.3130176
0.2982285
0.2828173
0.2667781
0.250094
0.2326937
0.2145233
0.1955211
0.1750384
0.1537496
0.1314804
0.108221
0.08435112
0.3544662
0.3413174
0.3276486
0.3134288
0.2986236
0.2832299
0.2672338
0.250571
0.2331938
0.2150485
0.1955284
0.1752801
0.1541367
0.1320341
0.108972
0.06515311
0.08384819
0.06139331
0.1045236
0.08021256
0.05663844
0.1246658
0.1011413
0.07637599
0.05164287
0.1447694
0.1223132
0.09854961
0.07342762
0.04784614
0.1647358
0.1433392
0.120735
0.09679267
0.07141349
0.04536184
0.1843334
0.1639367
0.14244
0.1197223
0.09564409
0.0701462
0.04387802
0.2034254
0.1839619
0.1634941
0.1419184
0.1191108
0.09498797
0.06946652
0.04306174
0.221971
0.2033783
0.1838639
0.16334
0.1417017
0.1188799
0.09477813
0.06923211
0.04278216
0.2399961
0.2222187
0.2035916
0.1840396
0.1634742
0.1418427
0.1190642
0.09497127
0.06944157
0.04303876
0.2575774
0.2405688
0.2227737
0.2041272
0.1845539
0.164015
0.1424466
0.1197013
0.09564954
0.070188
0.04287374
0.2748391
0.2585623
0.2415554
0.223762
0.2051172
0.1855934
0.1651407
0.1436328
0.1209572
0.09699298
0.07075002
0.04360888
0.2919163
0.2763434
0.2600918
0.2431123
0.2253489
0.2067821
0.1873735
0.167015
0.1456135
0.1230617
0.09842647
0.07237346
0.04542155
0.3087713
0.2938755
0.278349
0.2621485
0.2452254
0.227566
0.209141
0.189858
0.1696404
0.1483998
0.1253274
0.1011198
0.07573569
0.05075316
0.3248555
0.3105888
0.2957332
0.2802504
0.2640976
0.2472655
0.2297315
0.2114151
0.1922521
0.1721687
0.1504469
0.1277802
0.1040089
0.07936446
0.05615268
0.3399412
0.3262501
0.3120063
0.2971755
0.2817194
0.2656322
0.2488964
0.2314401
0.2132085
0.1941391
0.1735757
0.152191
0.1298066
0.106402
0.08229858
0.3540125
0.3408464
0.3271592
0.3129197
0.2980935
0.2826773
0.2666573
0.2499685
0.2325633
0.2143874
0.1948316
0.1745427
0.1533528
0.1311967
0.1080679
0.3671233
0.3544367
0.3412567
0.3275548
0.3132996
0.2984899
0.2831145
0.2671143
0.2504469
0.2330648
0.2143959
0.1950626
0.1749102
0.1538746
0.1318942
0.06766073
0.08670442
0.06507985
0.1077221
0.08378051
0.06124526
0.1277529
0.1044601
0.08007535
0.05640931
0.1469261
0.1246051
0.1010117
0.07616439
0.0513217
0.1660355
0.1447124
0.1221928
0.09835627
0.07314516
0.04751973
0.1850421
0.1646826
0.1432275
0.1205574
0.09653828
0.07113327
0.04508555
0.2037317
0.1842835
0.1638324
0.1422754
0.119489
0.09539259
0.06991212
0.04359972
0.221971
0.2033783
0.1838639
0.16334
0.1417017
0.1188799
0.09477813
0.06923211
0.04278216
0.2397166
0.2219264
0.2032855
0.1837186
0.1631367
0.1414867
0.1186869
0.0945677
0.06899704
0.04250134
0.2569882
0.2399535
0.2221304
0.2034537
0.1838474
0.163272
0.1416625
0.1188701
0.09475953
0.06920511
0.04167275
0.2738557
0.2575366
0.2404844
0.2226421
0.2039443
0.1843622
0.1638449
0.1422645
0.119505
0.09543537
0.06903031
0.04151776
0.2904352
0.2748
0.2584814
0.2414295
0.2235874
0.2049348
0.1854318
0.1649684
0.1434482
0.120758
0.09593936
0.0695993
0.04191473
0.3068542
0.291879
0.2762663
0.2599722
0.2429467
0.2251762
0.2066297
0.1872117
0.1668426
0.145429
0.1220971
0.09738974
0.07100579
0.04320948
0.3230749
0.3087367
0.2938041
0.2782382
0.2619954
0.2450662
0.2274269
0.208995
0.1897043
0.1694781
0.1475638
0.1246016
0.1003906
0.07504226
0.05015934
0.3385678
0.3248229
0.3105217
0.2956293
0.2801071
0.2639488
0.2471364
0.2295969
0.2112745
0.1921048
0.1714172
0.1498723
0.1272853
0.103625
0.0791386
0.3531108
0.3399103
0.3261864
0.3119078
0.2970397
0.2815786
0.2655105
0.24877
0.2313086
0.2130714
0.1934428
0.1730686
0.1517789
0.1295074
0.1062384
0.3666858
0.3539829
0.3407855
0.3270651
0.3127902
0.2979594
0.2825616
0.2665373
0.249844
0.2324338
0.2137323
0.1943624
0.1741687
0.1530869
0.1310543
0.3793426
0.3670949
0.3543783
0.3411665
0.3274307
0.3131712
0.2983792
0.283
0.2669957
0.2503238
0.2324433
0.2139534
0.1947124
0.1746631
0.1537434
0.06891925
0.08864933
0.06758884
0.1102805
0.08663816
0.06493633
0.1307299
0.1076604
0.08364778
0.06102698
0.1498312
0.1276942
0.1043354
0.07987282
0.05610781
0.168076
0.1468695
0.1244856
0.1008202
0.07588568
0.0510035
0.1862762
0.1659821
0.1446003
0.1220148
0.09810146
0.07286523
0.04724527
0.2044065
0.184992
0.1645779
0.1430622
0.1203233
0.09628607
0.07089863
0.04480738
0.2222634
0.2036846
0.1841852
0.163678
0.1420582
0.1192577
0.09518229
0.06967725
0.04331996
0.2397166
0.2219264
0.2032855
0.1837186
0.1631367
0.1414867
0.1186869
0.0945677
0.06899704
0.04250134
0.2567206
0.2396741
0.2218383
0.203148
0.1835268
0.1629349
0.1413069
0.1184934
0.09435669
0.06876133
0.04113817
0.2732909
0.2569476
0.2398695
0.2219995
0.2032716
0.1836565
0.1631028
0.1414816
0.1186753
0.09454709
0.06805634
0.04036714
0.2894915
0.2738168
0.2574561
0.2403592
0.2224684
0.2037627
0.1842017
0.163674
0.1420816
0.1193078
0.09439256
0.06793675
0.03997473
0.3054313
0.2903978
0.2747227
0.2583613
0.2412632
0.223414
0.2047817
0.1852692
0.164795
0.1432624
0.1197857
0.09490329
0.06827838
0.03993508
0.3212313
0.3068184
0.2918053
0.276152
0.2598141
0.2427821
0.2250313
0.2064763
0.1870489
0.1666691
0.1445277
0.1211383
0.09615922
0.06932114
0.04028083
0.3368539
0.3230417
0.3086682
0.293698
0.2780918
0.2618433
0.2449336
0.2272881
0.2088492
0.1895509
0.1686912
0.1468849
0.1239264
0.09976476
0.07457722
0.3517877
0.3385365
0.3247585
0.3104221
0.295492
0.2799646
0.2638254
0.247008
0.2294631
0.2111347
0.1913939
0.170876
0.1494089
0.1269292
0.1034196
0.3658166
0.353081
0.3398491
0.3260918
0.3117775
0.2969047
0.2814621
0.2653897
0.2486445
0.231178
0.2124102
0.1929629
0.1726802
0.1514986
0.1293555
0.3789206
0.3666574
0.3539243
0.3406951
0.3269407
0.3126614
0.2978485
0.2824468
0.2664183
0.2497205
0.23181
0.2132867
0.1940083
0.173918
0.1529534
0.3911455
0.3793152
0.3670387
0.3542915
0.3410472
0.3273073
0.313065
0.2982695
0.2828865
0.266878
0.2497306
0.2320219
0.2136208
0.1944784
0.1745394
0.08962621
0.068848
0.1120207
0.08858393
0.06744798
0.1331112
0.1102198
0.0865082
0.06472471
0.1526333
0.1306728
0.1075392
0.08345187
0.06073977
0.1708244
0.1497765
0.127579
0.1041511
0.07960612
0.05580919
0.1882135
0.1680229
0.1467581
0.1243089
0.1005677
0.07560944
0.05073596
0.2055815
0.1862259
0.165877
0.1444344
0.12178
0.09784882
0.07263042
0.04696838
0.2229073
0.2043591
0.1848933
0.1644228
0.1428441
0.1200911
0.09607489
0.07066287
0.04452733
0.2399961
0.2222187
0.2035916
0.1840396
0.1634742
0.1418427
0.1190642
0.09497127
0.06944157
0.04303876
0.2567206
0.2396741
0.2218383
0.203148
0.1835268
0.1629349
0.1413069
0.1184934
0.09435669
0.06876133
0.04113817
0.2730343
0.2566801
0.2395903
0.2217077
0.2029663
0.1833364
0.1627662
0.1411267
0.1182993
0.09414509
0.06761696
0.03985557
0.2889493
0.2732521
0.2568674
0.2397448
0.2218265
0.2030908
0.1834969
0.1629331
0.1413001
0.1184798
0.09351399
0.06700412
0.03892158
0.3045246
0.2894542
0.2737399
0.2573366
0.2401937
0.2222958
0.2036106
0.1840403
0.1635022
0.1418977
0.1183468
0.09340927
0.06673466
0.03825374
0.319863
0.3053954
0.2903238
0.2746079
0.2582025
0.241098
0.2232684
0.2046275
0.1851054
0.1646204
0.1423549
0.1188288
0.09371566
0.06677582
0.03766532
0.3350794
0.321197
0.3067478
0.2916958
0.2760008
0.2596569
0.2426441
0.2248855
0.2063219
0.1868849
0.1658213
0.143631
0.1199995
0.09464676
0.06713146
0.0356013
0.3501368
0.336822
0.3229759
0.3085664
0.2935577
0.2779462
0.2617167
0.2448012
0.2271494
0.2087037
0.1888068
0.1680521
0.146253
0.1233468
0.0993459
0.3645412
0.3517577
0.3384746
0.3246629
0.3102903
0.2953554
0.2798466
0.2637028
0.2468804
0.2293301
0.2104598
0.1908819
0.1704395
0.1490755
0.1267387
0.3780821
0.365788
0.3530222
0.3397581
0.3259666
0.3116479
0.296793
0.2813465
0.2652698
0.2485199
0.2305485
0.2119545
0.1925954
0.1724161
0.1513563
0.3907382
0.3788931
0.366601
0.3538373
0.3405755
0.326817
0.312555
0.2977384
0.2823329
0.2663003
0.2491252
0.2313857
0.2129505
0.193771
0.1737921
0.4025519
0.3911191
0.3792611
0.3669551
0.3541767
0.3409285
0.3272053
0.3129597
0.2981606
0.2827738
0.2663108
0.2493285
0.2317051
0.2133986
0.1943613
0.1128944
0.0895612
0.06870837
0.1347312
0.1119607
0.08845562
0.06724023
0.1548753
0.133055
0.1101007
0.08631636
0.06444622
0.1734759
0.15258
0.1305606
0.1073601
0.0831939
0.0604553
0.1908229
0.170773
0.1496689
0.1274086
0.1039083
0.07934185
0.05556037
0.2074258
0.1881635
0.1679183
0.1465933
0.1240759
0.1003174
0.07537775
0.05046604
0.2240284
0.2055339
0.1861268
0.1657213
0.1442156
0.1215471
0.09763691
0.07239408
0.04668904
0.2406116
0.2228623
0.2042657
0.184747
0.1642182
0.1426278
0.1198967
0.09586272
0.07042599
0.0442454
0.2569882
0.2399535
0.2221304
0.2034537
0.1838474
0.163272
0.1416625
0.1188701
0.09475953
0.06920511
0.04167275
0.2730343
0.2566801
0.2395903
0.2217077
0.2029663
0.1833364
0.1627662
0.1411267
0.1182993
0.09414509
0.06761696
0.03985557
0.2887031
0.2729956
0.2566001
0.2394659
0.2215351
0.202786
0.1831772
0.162597
0.1409459
0.1181047
0.09311677
0.06658365
0.03845294
0.3040038
0.2889122
0.2731755
0.2567485
0.2395801
0.2216547
0.2029396
0.1833367
0.1627627
0.141118
0.1175285
0.09256874
0.06587825
0.03734522
0.3189911
0.3044889
0.2893806
0.2736257
0.2571787
0.2400292
0.2221512
0.2034577
0.1838782
0.1633295
0.1410014
0.1174397
0.09232891
0.06543133
0.03637354
0.3337626
0.3198286
0.3053245
0.2902139
0.2744561
0.2580448
0.2409593
0.2231219
0.2044723
0.1849406
0.1637674
0.1414608
0.1177308
0.09236594
0.06508878
0.03478931
0.3484276
0.3350465
0.3211292
0.3066428
0.2915509
0.2758504
0.259525
0.2425051
0.2247387
0.2061665
0.1860837
0.1649772
0.1425649
0.1185991
0.09268358
0.06365225
0.03313708
0.3629498
0.3501061
0.3367588
0.3228783
0.3084319
0.2934182
0.277825
0.2615902
0.244669
0.2270109
0.2079977
0.1882024
0.1674569
0.1457103
0.1229588
0.3768518
0.3645122
0.3516981
0.3383827
0.3245363
0.3101593
0.2952423
0.2797292
0.2635809
0.2467536
0.2286878
0.2099739
0.190469
0.1701254
0.1488971
0.3899288
0.3780545
0.3657313
0.3529347
0.3396378
0.3258422
0.3115407
0.2966821
0.2812317
0.2651507
0.2479193
0.2301147
0.2116056
0.1923454
0.172282
0.4021585
0.3907117
0.3788389
0.3665172
0.3537222
0.3404565
0.3267147
0.3124493
0.2976292
0.2822198
0.2657311
0.2487203
0.2310655
0.2127251
0.1936518
0.4135802
0.4025265
0.3910669
0.3791805
0.3668445
0.3540625
0.3408304
0.3271041
0.3128552
0.2980526
0.2822306
0.2659264
0.2490262
0.2314935
0.2132873
0.1355448
0.1128347
0.08943367
0.06850241
0.156401
0.1346755
0.1118429
0.0882662
0.06696683
0.175598
0.1548228
0.1329445
0.1099248
0.08606373
0.06417037
0.1933409
0.1734258
0.1524751
0.1303946
0.1071242
0.08293828
0.06021949
0.2099099
0.1907745
0.1706719
0.1495098
0.1271839
0.1036676
0.07912194
0.0553116
0.2257879
0.2073784
0.1880649
0.1677635
0.1463758
0.1238447
0.1001075
0.07514459
0.05019373
0.2416832
0.2239832
0.2054401
0.1859799
0.1655158
0.1439984
0.1213518
0.09742364
0.07215619
0.04640724
0.2575774
0.2405688
0.2227737
0.2041272
0.1845539
0.164015
0.1424466
0.1197013
0.09564954
0.070188
0.04287374
0.2732909
0.2569476
0.2398695
0.2219995
0.2032716
0.1836565
0.1631028
0.1414816
0.1186753
0.09454709
0.06805634
0.04036714
0.2887031
0.2729956
0.2566001
0.2394659
0.2215351
0.202786
0.1831772
0.162597
0.1409459
0.1181047
0.09311677
0.06658365
0.03845294
0.3037672
0.2886661
0.2729193
0.2564815
0.2393016
0.2213637
0.2026352
0.1830176
0.1624274
0.1407646
0.1171582
0.09218894
0.06549135
0.03693758
0.3184903
0.3039683
0.288839
0.2730619
0.2565913
0.2394165
0.221511
0.2027879
0.1831759
0.1625917
0.1402312
0.1166572
0.09155719
0.06468603
0.03565191
0.3329235
0.3189569
0.3044184
0.2892713
0.2734746
0.2570217
0.2398915
0.2220059
0.2033041
0.1837152
0.1624875
0.1401546
0.1164418
0.09115775
0.06404155
0.03407771
0.3471593
0.3337295
0.3197606
0.3052192
0.2900685
0.2743052
0.2579124
0.2408197
0.2229744
0.2043161
0.1841349
0.1629262
0.1404336
0.1164818
0.09085114
0.06298534
0.03279423
0.3613023
0.348396
0.3349814
0.3210284
0.3065039
0.2914069
0.2757243
0.2593923
0.2423651
0.2245908
0.2054065
0.1852854
0.1639727
0.141253
0.1167808
0.08956251
0.06169709
0.03131553
0.3753168
0.3629202
0.3500454
0.336665
0.3227491
0.3082981
0.2933021
0.277704
0.2614639
0.244537
0.2263393
0.2074242
0.1876394
0.1669457
0.1453469
0.3887414
0.3768239
0.3644549
0.3516097
0.338261
0.3244105
0.3100508
0.2951298
0.2796125
0.2634596
0.2461408
0.2282253
0.2095819
0.1901718
0.1699573
0.4013769
0.3899022
0.3779999
0.365647
0.3528189
0.3395181
0.3257392
0.3114344
0.2965721
0.2811177
0.2645766
0.2475055
0.2297826
0.2113683
0.1922185
0.4132001
0.402133
0.3906594
0.3787581
0.3664063
0.3536077
0.3403581
0.3266132
0.3123445
0.2975208
0.2816748
0.2653441
0.2484148
0.2308509
0.2126119
0.4242475
0.4135557
0.4024761
0.3909893
0.3790739
0.3667345
0.353968
0.340733
0.3270037
0.3127515
0.2975318
0.2818626
0.2656374
0.2488243
0.2313876
0.1571675
0.1354894
0.1127175
0.08924538
0.06823134
0.1770424
0.1563489
0.1345661
0.1116688
0.08801674
0.066696
0.1953565
0.1755486
0.1547194
0.1327812
0.109693
0.0858134
0.06394212
0.2123074
0.1932936
0.1733271
0.1523198
0.1301758
0.1068903
0.08272649
0.05998495
0.2281581
0.2098641
0.1906791
0.1705223
0.1492998
0.1269611
0.1034673
0.07890235
0.0550629
0.2433649
0.225743
0.207285
0.1879187
0.1675592
0.14616
0.1236508
0.0998963
0.07490992
0.04991899
0.2586033
0.2416402
0.2238941
0.205301
0.185786
0.1653118
0.1438162
0.1211551
0.097209
0.07191677
0.04503331
0.2738557
0.2575366
0.2404844
0.2226421
0.2039443
0.1843622
0.1638449
0.1422645
0.119505
0.09543537
0.06903031
0.04151776
0.2889493
0.2732521
0.2568674
0.2397448
0.2218265
0.2030908
0.1834969
0.1629331
0.1413001
0.1184798
0.09351399
0.06700412
0.03892158
0.3037672
0.2886661
0.2729193
0.2564815
0.2393016
0.2213637
0.2026352
0.1830176
0.1624274
0.1407646
0.1171582
0.09218894
0.06549135
0.03693758
0.3182628
0.3037318
0.288593
0.2728059
0.2563246
0.2391383
0.2212205
0.202484
0.1828575
0.1622572
0.1398825
0.1163033
0.09120774
0.06434591
0.03531975
0.3324414
0.3184562
0.303898
0.2887302
0.2729116
0.2564351
0.2392796
0.2213668
0.2026355
0.1830146
0.1617589
0.1394182
0.1157235
0.09048565
0.06343843
0.03359954
0.3463511
0.3328906
0.3188892
0.3043136
0.2891267
0.2733245
0.2568903
0.2397531
0.2218599
0.2031497
0.1829201
0.1616913
0.1392218
0.1153588
0.0899086
0.06238057
0.03239684
0.3600798
0.3471275
0.3336642
0.3196595
0.3050798
0.289924
0.2741785
0.257779
0.2406791
0.2228258
0.2035522
0.1833397
0.1619589
0.1392643
0.1150792
0.08896138
0.06138625
0.03114766
0.3737278
0.3612719
0.3483334
0.3348846
0.3208951
0.3063658
0.2912861
0.2755973
0.2592586
0.2422242
0.223868
0.2046489
0.1843347
0.1627358
0.1395488
0.1138876
0.08780806
0.06014788
0.02991471
0.3872599
0.3752883
0.3628618
0.3499551
0.3365408
0.3226206
0.3081867
0.2931862
0.2775832
0.2613378
0.2438965
0.2257935
0.2068897
0.1871555
0.1666031
0.4002302
0.3887145
0.3767687
0.3643698
0.3514926
0.33814
0.3243062
0.3099428
0.295018
0.2794965
0.2628741
0.2456998
0.2278523
0.2092998
0.1900127
0.4124448
0.4013512
0.3898496
0.3779187
0.3655355
0.3527037
0.3394191
0.325637
0.3113287
0.2964629
0.280568
0.2641811
0.2471886
0.2295566
0.2112477
0.42388
0.4131755
0.4020825
0.3905815
0.3786512
0.366296
0.353513
0.3402604
0.3265124
0.3122404
0.2969982
0.2813043
0.265052
0.24821
0.2307432
0.4345696
0.4242238
0.413507
0.4024012
0.3908864
0.3789678
0.3666435
0.3538743
0.3406365
0.326904
0.3122515
0.2971789
0.2815859
0.2654444
0.2487232
0.1777683
0.1571156
0.1353804
0.1125442
0.08899741
0.06796282
0.1967288
0.1769934
0.1562464
0.1344042
0.1114393
0.08776954
0.066472
0.214227
0.1953098
0.1754513
0.1545664
0.1325658
0.1094631
0.08560629
0.0637155
0.2304458
0.2122626
0.1932004
0.173181
0.1521151
0.1299588
0.1066965
0.08251592
0.05975168
0.2456304
0.2281145
0.2097737
0.1905378
0.1703249
0.1490915
0.1267756
0.1032673
0.0786831
0.05481427
0.2602132
0.2433221
0.2256543
0.2071466
0.1877258
0.1673564
0.145979
0.1234557
0.09968375
0.07467373
0.04857885
0.2748391
0.2585623
0.2415554
0.223762
0.2051172
0.1855934
0.1651407
0.1436328
0.1209572
0.09699298
0.07075002
0.04360888
0.2894915
0.2738168
0.2574561
0.2403592
0.2224684
0.2037627
0.1842017
0.163674
0.1420816
0.1193078
0.09439256
0.06793675
0.03997473
0.3040038
0.2889122
0.2731755
0.2567485
0.2395801
0.2216547
0.2029396
0.1833367
0.1627627
0.141118
0.1175285
0.09256874
0.06587825
0.03734522
0.3182628
0.3037318
0.288593
0.2728059
0.2563246
0.2391383
0.2212205
0.202484
0.1828575
0.1622572
0.1398825
0.1163033
0.09120774
0.06434591
0.03531975
0.3322225
0.3182288
0.3036617
0.2884845
0.2726559
0.2561688
0.2390019
0.2210768
0.2023323
0.1826969
0.1614288
0.1390849
0.1153979
0.09017816
0.06315552
0.03336303
0.3458868
0.3324087
0.3183888
0.3037937
0.2885863
0.2727622
0.2563044
0.2391422
0.221222
0.2024827
0.1822283
0.1609947
0.1385458
0.1147331
0.08936353
0.06196209
0.03208976
0.3593008
0.3463195
0.3328256
0.3187886
0.3041749
0.2889829
0.2731988
0.2567581
0.239614
0.2217131
0.2023961
0.1821677
0.1608133
0.1382085
0.1142027
0.08841426
0.06101893
0.03092268
0.3725487
0.3600493
0.3470647
0.333567
0.3195256
0.3049412
0.2898027
0.274051
0.2576448
0.2405375
0.2220994
0.2027978
0.1824245
0.160857
0.1379504
0.1133282
0.08752298
0.05996849
0.02981905
0.3857264
0.3736985
0.3612116
0.3482402
0.3347564
0.3207625
0.3062499
0.2911644
0.2754695
0.2591241
0.2415351
0.223147
0.2037461
0.1831634
0.1611284
0.1368354
0.1122632
0.086414
0.05888381
0.02882656
0.3987996
0.3872325
0.375232
0.3627749
0.3498356
0.3364172
0.3225136
0.3080755
0.2930704
0.2774625
0.2607259
0.243376
0.2252848
0.2064302
0.1868311
0.4113369
0.4002043
0.3886613
0.3766867
0.3642571
0.3513762
0.3380398
0.3242026
0.3098355
0.2949068
0.278936
0.2624526
0.2453439
0.2275837
0.2091487
0.4231499
0.4124201
0.4013005
0.3897713
0.3778112
0.3654246
0.3526084
0.3393208
0.3255355
0.3112239
0.2959359
0.2801894
0.2638782
0.246973
0.2294419
0.4342142
0.4238563
0.4131267
0.4020074
0.3904784
0.3785449
0.3662048
0.353419
0.3401636
0.3264125
0.3117389
0.296643
0.2810247
0.2648563
0.2481072
0.4445613
0.4345467
0.4241768
0.4134347
0.4023019
0.3907841
0.3788801
0.3665532
0.3537813
0.3405406
0.3264236
0.3119128
0.2969136
0.2814011
0.2653477
0.1974186
0.1777195
0.1570135
0.1352193
0.1123159
0.08875167
0.06774075
0.2155341
0.1966824
0.1768969
0.1560947
0.1341909
0.1112119
0.08756509
0.06624971
0.2322778
0.2141827
0.1952179
0.1753073
0.1543647
0.1323522
0.109273
0.08540068
0.06349052
0.2478174
0.2304032
0.2121742
0.1930623
0.1729883
0.1519119
0.129779
0.1065038
0.08230659
0.05951968
0.262382
0.2455889
0.2280286
0.2096397
0.1903512
0.1701289
0.1489182
0.1265905
0.1030677
0.07846419
0.05361169
0.2763823
0.2601724
0.2432377
0.2255227
0.2069637
0.1875342
0.1671862
0.1457969
0.1232594
0.09946985
0.07352254
0.04716745
0.2904352
0.2748
0.2584814
0.2414295
0.2235874
0.2049348
0.1854318
0.1649684
0.1434482
0.120758
0.09593936
0.0695993
0.04191473
0.3045246
0.2894542
0.2737399
0.2573366
0.2401937
0.2222958
0.2036106
0.1840403
0.1635022
0.1418977
0.1183468
0.09340927
0.06673466
0.03825374
0.3184903
0.3039683
0.288839
0.2730619
0.2565913
0.2394165
0.221511
0.2027879
0.1831759
0.1625917
0.1402312
0.1166572
0.09155719
0.06468603
0.03565191
0.3322225
0.3182288
0.3036617
0.2884845
0.2726559
0.2561688
0.2390019
0.2210768
0.2023323
0.1826969
0.1614288
0.1390849
0.1153979
0.09017816
0.06315552
0.03336303
0.3456759
0.3321899
0.3181616
0.3035577
0.2883409
0.2725069
0.2560385
0.238865
0.2209326
0.2021801
0.1819149
0.1606793
0.1382392
0.1144465
0.08910715
0.06175126
0.0319275
0.3588534
0.3458553
0.332344
0.3182888
0.3036558
0.2884432
0.2726372
0.2561733
0.2390043
0.2210767
0.2017375
0.1815064
0.1601739
0.1376196
0.1136949
0.08803406
0.06072923
0.03073179
0.3717974
0.3592704
0.346257
0.332729
0.3186556
0.3040371
0.2888625
0.2730724
0.2566253
0.2394741
0.2209967
0.2016825
0.1813375
0.1598589
0.137126
0.1128184