/*--------------------------------*- C++ -*----------------------------------*\
| =========                 |                                                 |
| \\      /  F ield         | OpenFOAM: The Open Source CFD Toolbox           |
|  \\    /   O peration     | Version:  2306                                  |
|   \\  /    A nd           | Website:  www.openfoam.com                      |
|    \\/     M anipulation  |                                                 |
\*---------------------------------------------------------------------------*/
FoamFile
{
    version     2.0;
    format      ascii;
    arch        "LSB;label=32;scalar=64";
    class       volScalarField;
    location    "1.5/fuel";
    object      X.H2;
}
// * * * * * * * * * * * * * * * * * * * * * * * * * * * * * * * * * * * * * //

dimensions      [0 0 0 0 0 0 0];

internalField   nonuniform List<scalar> 
16000
(
0.9310807
0.9323393
0.9103738
0.931152
0.9348469
0.9113507
0.9324112
0.8871056
0.9104388
0.9312916
0.9385311
0.9132956
0.9349202
0.8879793
0.9114161
0.932552
0.8644552
0.8871653
0.9105663
0.9314976
0.9431268
0.9161518
0.9386067
0.8897195
0.9133618
0.9350637
0.8652688
0.8880393
0.9115444
0.9327598
0.8428325
0.8645106
0.8872825
0.9107546
0.9317687
0.9478632
0.9197175
0.9432061
0.8922779
0.9162195
0.9387547
0.8668888
0.8897802
0.9134918
0.9352753
0.843599
0.8653245
0.8881571
0.9117338
0.9330332
0.8222317
0.8428844
0.8646196
0.8874558
0.9110026
0.9320372
0.9513174
0.9234076
0.9479476
0.8954764
0.9197874
0.9433616
0.8692701
0.8923396
0.9163522
0.938973
0.8451247
0.866945
0.8898993
0.9136836
0.9355538
0.8229576
0.8436511
0.8654339
0.8883312
0.9119833
0.933304
0.8025814
0.8222805
0.8429865
0.8647807
0.8876841
0.9112483
0.9322592
0.9534648
0.9261386
0.9514042
0.8987928
0.9234807
0.9481131
0.8722471
0.8955399
0.9199246
0.9435907
0.8473667
0.8693272
0.8924608
0.9165481
0.9392602
0.824402
0.8451772
0.8670555
0.8900752
0.9139363
0.9358296
0.8032712
0.8230066
0.8437536
0.8655958
0.8885607
0.9122305
0.933528
0.7838088
0.8026276
0.8223767
0.8431375
0.8649932
0.8879104
0.9114516
0.9324796
0.9546673
0.9278693
0.9535524
0.901253
0.9262126
0.951574
0.8753342
0.8988587
0.923624
0.9483571
0.8501688
0.8723058
0.8956646
0.9201272
0.9438922
0.8265241
0.84742
0.8694394
0.8926399
0.9168061
0.9395447
0.8046435
0.8244514
0.8452806
0.8672188
0.890307
0.9141866
0.9360579
0.7844659
0.8033176
0.8231031
0.8439053
0.8658091
0.8887881
0.9124349
0.9337503
0.7658471
0.7838526
0.8027186
0.822519
0.8433368
0.8652039
0.8880975
0.9116532
0.9326983
0.9552031
0.9288573
0.9547552
0.9028171
0.9279435
0.9537238
0.8776255
0.9013196
0.9263579
0.9518244
0.8530739
0.8753949
0.8989883
0.9238356
0.9486783
0.8291756
0.8502235
0.872421
0.8958489
0.9203939
0.9441908
0.8066591
0.8265742
0.8475249
0.8696054
0.8928758
0.9170617
0.9397805
0.785773
0.8046902
0.8245487
0.8454336
0.8674342
0.8905369
0.9143937
0.9362845
0.7664745
0.7845099
0.8034088
0.823246
0.8441053
0.8660207
0.8889762
0.9126378
0.9339709
0.748638
0.7658888
0.7839389
0.8028533
0.8227069
0.8435344
0.8653781
0.8882832
0.9118533
0.9329152
0.9552031
0.9293039
0.9552912
0.903713
0.9289315
0.9549274
0.8790839
0.9028836
0.928089
0.9539765
0.8552306
0.8776868
0.9014504
0.9265724
0.9521539
0.831924
0.8531305
0.8755144
0.8991798
0.9241143
0.9489965
0.8091771
0.829227
0.8503311
0.8725914
0.8960917
0.9206581
0.9444396
0.7876926
0.8067064
0.8266729
0.8476802
0.8698242
0.8931097
0.9172735
0.940015
0.7677222
0.7858173
0.8047821
0.8246927
0.8456353
0.8676478
0.890727
0.9145993
0.9365095
0.749238
0.7665163
0.7845964
0.803544
0.8234345
0.8443037
0.8661957
0.8891628
0.9128391
0.9341897
0.7321297
0.7486777
0.7659709
0.7840667
0.8030311
0.8228933
0.8436979
0.865551
0.8884675
0.9120519
0.9339578
0.9546673
0.9293039
0.9552912
0.904119
0.929378
0.9554637
0.8799202
0.9037794
0.9290768
0.955181
0.856604
0.879145
0.9030143
0.9283037
0.9543089
0.8339645
0.8552876
0.8778072
0.9016437
0.9268548
0.9524803
0.8117865
0.8319771
0.8532419
0.8756911
0.8994323
0.9243906
0.949264
0.7900901
0.8092255
0.8293281
0.8504902
0.8728161
0.8963324
0.9208781
0.9446884
0.7695542
0.7877374
0.8067996
0.826819
0.8478849
0.8700412
0.8933035
0.9174841
0.9402483
0.750431
0.7677642
0.7859045
0.8049184
0.8248828
0.8458355
0.8678245
0.8909158
0.9148034
0.9367328
0.7327043
0.7492778
0.7665987
0.7847248
0.8037225
0.8236217
0.8444679
0.8663694
0.8893481
0.9130389
0.9352415
0.7162762
0.7321676
0.748756
0.7660926
0.7842356
0.8032076
0.8230474
0.8438601
0.8657225
0.8886503
0.9130067
0.9346681
0.9534648
0.9288573
0.9547552
0.904119
0.929378
0.9554637
0.8802996
0.9041853
0.9295233
0.9557177
0.8573921
0.8799811
0.9039097
0.9292914
0.9555147
0.8352642
0.8566608
0.879265
0.9032073
0.9285865
0.9546382
0.8137238
0.8340179
0.8553997
0.8779852
0.9018985
0.9271348
0.9527547
0.7925742
0.8118365
0.8320817
0.8534067
0.8759241
0.8996826
0.9246222
0.949534
0.7718419
0.7901359
0.8093209
0.8294777
0.8507002
0.8730389
0.8965327
0.9210976
0.9449371
0.7521826
0.7695968
0.7878258
0.8069377
0.8270117
0.8480881
0.870221
0.8934962
0.9176934
0.9404803
0.7338468
0.7504711
0.7678472
0.7860337
0.8050982
0.8250714
0.8460011
0.8679999
0.8911031
0.915006
0.9378065
0.7168273
0.7327423
0.7493563
0.7667208
0.7848942
0.8038996
0.8237764
0.8446307
0.8665417
0.8895318
0.9139995
0.9359612
0.7010368
0.7163125
0.7322423
0.7488721
0.7662534
0.7844033
0.8033536
0.8232004
0.844021
0.8658927
0.88953
0.913656
0.9352027
0.9513174
0.9278693
0.9535524
0.903713
0.9289315
0.9549274
0.8802996
0.9041853
0.9295233
0.9557177
0.8577498
0.8803603
0.9043154
0.9297377
0.9560519
0.8360103
0.8574487
0.8801008
0.9041022
0.9295739
0.9558451
0.8149579
0.8353174
0.8567725
0.8794426
0.9034617
0.9288667
0.9549145
0.7944185
0.8137741
0.834123
0.8555656
0.87822
0.9021512
0.9273696
0.9530316
0.7742121
0.7926216
0.8119351
0.8322365
0.8536242
0.8761553
0.8998925
0.9248554
0.9498063
0.7543696
0.7718855
0.7902263
0.8094622
0.8296751
0.8509085
0.8732244
0.8967327
0.9213169
0.9451857
0.7355241
0.7522232
0.7696808
0.7879567
0.8071199
0.827203
0.8482563
0.8703998
0.8936877
0.9179015
0.9415972
0.7179229
0.7338851
0.7505502
0.7679702
0.7862044
0.8052767
0.8252275
0.8461654
0.868174
0.8912891
0.9159806
0.9385533
0.7015659
0.7168637
0.7328173
0.7494728
0.7668821
0.7850625
0.8040461
0.8239299
0.8447923
0.8667127
0.8904161
0.9146552
0.9365055
0.6863745
0.7010715
0.716384
0.7323533
0.7490255
0.7664131
0.784542
0.8034985
0.8233521
0.8441806
0.8667119
0.8901278
0.9141445
0.9355603
0.9478632
0.9261386
0.9514042
0.9028171
0.9279435
0.9537238
0.8799202
0.9037794
0.9290768
0.955181
0.8577498
0.8803603
0.9043154
0.9297377
0.9560519
0.8363489
0.8578062
0.8804798
0.9045076
0.93002
0.9563829
0.8156666
0.8360633
0.85756
0.8802777
0.9043559
0.9298538
0.956122
0.7955935
0.815008
0.8354221
0.8569378
0.8796767
0.9037139
0.9291014
0.9551926
0.7759716
0.7944661
0.8138732
0.8342787
0.8557844
0.8784529
0.9023631
0.9276059
0.953311
0.7566351
0.774257
0.792715
0.8120813
0.8324408
0.85384
0.8763492
0.9001037
0.9250901
0.950081
0.737618
0.7544111
0.7719714
0.7903603
0.8096488
0.8298711
0.8510818
0.8734095
0.8969323
0.9215358
0.9463883
0.7195311
0.7355628
0.7523032
0.7698053
0.7881296
0.8073008
0.8273614
0.8484237
0.8705775
0.893878
0.9189039
0.9424172
0.7026177
0.7179595
0.7339606
0.7506674
0.7681326
0.7863739
0.8054244
0.8253824
0.8463286
0.8683469
0.8921843
0.9166546
0.9391288
0.6868831
0.7016007
0.7169354
0.7329286
0.7496267
0.7670423
0.7852016
0.8041915
0.8240823
0.8449526
0.8675358
0.8910189
0.9151502
0.9368712
0.6722563
0.6864078
0.70114
0.7164902
0.7324999
0.7491779
0.7665452
0.7846796
0.8036422
0.8235027
0.8449494
0.8672682
0.8905772
0.9144709
0.9357394
0.9431268
0.9234076
0.9479476
0.901253
0.9262126
0.951574
0.8790839
0.9028836
0.928089
0.9539765
0.8573921
0.8799811
0.9039097
0.9292914
0.9555147
0.8363489
0.8578062
0.8804798
0.9045076
0.93002
0.9563829
0.8159883
0.8364018
0.8579173
0.8806564
0.9047609
0.9302997
0.9566599
0.7962683
0.8157165
0.8361676
0.8577246
0.880511
0.9046074
0.9300879
0.9564003
0.7770927
0.7956409
0.8151067
0.8355772
0.8571559
0.8799089
0.9039251
0.9293371
0.9554727
0.7583168
0.7760168
0.7945599
0.8140201
0.8344842
0.8560016
0.8786482
0.9025764
0.9278438
0.9535928
0.7397868
0.7566779
0.7743457
0.7928534
0.8122742
0.8326436
0.854021
0.8765443
0.9003162
0.9253263
0.9514211
0.7215386
0.7376575
0.7544929
0.7720987
0.7905372
0.809834
0.8300341
0.8512549
0.8735943
0.8971316
0.9225946
0.9474041
0.7041614
0.7195681
0.7356392
0.7524219
0.7699698
0.7883013
0.8074507
0.827519
0.84859
0.8707541
0.8947957
0.9196285
0.9430896
0.6878938
0.7026527
0.7180317
0.7340726
0.7508224
0.7682939
0.7865141
0.805571
0.8255362
0.8464906
0.8691793
0.8928025
0.9171711
0.9395225
0.6727455
0.6869164
0.7016694
0.7170419
0.7330757
0.7497796
0.7671748
0.7853397
0.8043357
0.8242335
0.8457247
0.8680965
0.8914739
0.9154822
0.9370551
0.6586519
0.6722882
0.6864736
0.7012418
0.7166306
0.7326457
0.749304
0.7666762
0.7848161
0.8037847
0.8242279
0.8454711
0.8676864
0.8908776
0.9146344
0.9385311
0.9197175
0.9432061
0.8987928
0.9234807
0.9481131
0.8776255
0.9013196
0.9263579
0.9518244
0.856604
0.879145
0.9030143
0.9283037
0.9543089
0.8360103
0.8574487
0.8801008
0.9041022
0.9295739
0.9558451
0.8159883
0.8364018
0.8579173
0.8806564
0.9047609
0.9302997
0.9566599
0.7965746
0.8160381
0.8365059
0.8580816
0.8808892
0.905012
0.9305335
0.9569383
0.7777366
0.7963154
0.8158148
0.836322
0.8579418
0.8807423
0.9048177
0.9303228
0.95668
0.7593884
0.7771377
0.7957343
0.815253
0.8357818
0.8573722
0.8801033
0.9041373
0.929574
0.9557546
0.7413967
0.7583598
0.7761059
0.794699
0.814214
0.8346882
0.8561838
0.8788449
0.902791
0.9280832
0.9549667
0.7236177
0.7398276
0.7567623
0.7744773
0.7930363
0.8124658
0.8328138
0.8542031
0.8767406
0.9005301
0.9264775
0.9528325
0.7060883
0.7215764
0.7377356
0.7546142
0.7722669
0.7907128
0.8099881
0.830197
0.8514277
0.8737789
0.8980964
0.9234584
0.9483818
0.6893772
0.7041968
0.7196411
0.7357525
0.7525787
0.7701331
0.7884435
0.8075997
0.8276756
0.8487553
0.8716059
0.8954575
0.9202138
0.9435811
0.6737177
0.6879274
0.7027219
0.7181389
0.7342207
0.7509763
0.7684274
0.7866533
0.8057165
0.8256888
0.8472708
0.8697536
0.8932759
0.9175228
0.9397232
0.6591229
0.6727775
0.6869824
0.7017715
0.7171827
0.7332219
0.749906
0.7673063
0.7854767
0.8044789
0.8249616
0.8462504
0.8685196
0.891779
0.9156489
0.6455338
0.6586826
0.6723514
0.6865712
0.7013764
0.7167701
0.7327662
0.749429
0.7668062
0.7849515
0.8044716
0.8247199
0.8458633
0.8679659
0.891028
0.9348469
0.9161518
0.9386067
0.8954764
0.9197874
0.9433616
0.8753342
0.8988587
0.923624
0.9483571
0.8552306
0.8776868
0.9014504
0.9265724
0.9521539
0.8352642
0.8566608
0.879265
0.9032073
0.9285865
0.9546382
0.8156666
0.8360633
0.85756
0.8802777
0.9043559
0.9298538
0.956122
0.7965746
0.8160381
0.8365059
0.8580816
0.8808892
0.905012
0.9305335
0.9569383
0.778029
0.7966217
0.8161361
0.83666
0.8582983
0.8811201
0.9052219
0.9307679
0.9572178
0.7600039
0.7777813
0.7964084
0.8159604
0.8365258
0.8581573
0.8809358
0.9050287
0.9305584
0.9569612
0.7424226
0.7594312
0.7772263
0.7958728
0.8154461
0.835985
0.8575534
0.8802987
0.9043505
0.929812
0.9571263
0.7251609
0.7414377
0.7584446
0.776238
0.7948828
0.8144066
0.8348593
0.8563672
0.8790428
0.903007
0.92925
0.9563911
0.7080837
0.7236566
0.7399082
0.7568877
0.7746511
0.7932179
0.8126265
0.832985
0.8543865
0.8769383
0.9015735
0.9276265
0.9545784
0.6912287
0.7061245
0.721651
0.7378515
0.7547746
0.772434
0.790859
0.810142
0.8303596
0.8516002
0.8746726
0.8988802
0.9242643
0.9492468
0.6751445
0.6894112
0.7042668
0.7197496
0.7359024
0.7527345
0.7702685
0.7885849
0.8077479
0.8278313
0.8495531
0.8722198
0.8959911
0.9206355
0.9438473
0.6600588
0.6737499
0.6879937
0.7028245
0.7182806
0.7343678
0.7511036
0.7685599
0.7867915
0.8058609
0.8264243
0.847809
0.8701934
0.893598
0.9177014
0.6459875
0.6591536
0.6728408
0.6870803
0.7019065
0.7173227
0.7333427
0.7500315
0.7674367
0.7856126
0.8051684
0.8254573
0.8466472
0.8688033
0.8919321
0.6328767
0.6455633
0.6587433
0.6724452
0.6867004
0.7015101
0.7168855
0.7328857
0.7495531
0.7669352
0.7856041
0.8049374
0.8250898
0.8461254
0.8681058
0.9323393
0.9132956
0.9349202
0.8922779
0.9162195
0.9387547
0.8722471
0.8955399
0.9199246
0.9435907
0.8530739
0.8753949
0.8989883
0.9238356
0.9486783
0.8339645
0.8552876
0.8778072
0.9016437
0.9268548
0.9524803
0.8149579
0.8353174
0.8567725
0.8794426
0.9034617
0.9288667
0.9549145
0.7962683
0.8157165
0.8361676
0.8577246
0.880511
0.9046074
0.9300879
0.9564003
0.778029
0.7966217
0.8161361
0.83666
0.8582983
0.8811201
0.9052219
0.9307679
0.9572178
0.7602834
0.7780736
0.7967145
0.8162814
0.8368633
0.8585133
0.8813131
0.9054323
0.931003
0.9574987
0.7430118
0.7600465
0.7778696
0.7965463
0.8161526
0.836728
0.8583375
0.8811299
0.9052405
0.9307949
0.9583273
0.7261443
0.7424634
0.7595156
0.7773579
0.7960557
0.8156378
0.8361551
0.8577355
0.880495
0.9045646
0.9309697
0.9584822
0.7095648
0.7252
0.7415186
0.7585705
0.7764126
0.7950652
0.8145682
0.8350316
0.8565518
0.879242
0.9040606
0.9304007
0.9580853
0.6931458
0.708121
0.7237337
0.7400278
0.7570533
0.7748238
0.7933703
0.8127883
0.8331574
0.854571
0.8779029
0.9026103
0.9289942
0.9567905
0.6769251
0.6912633
0.7061959
0.7217618
0.7380046
0.7549338
0.7725731
0.791005
0.8102957
0.8305219
0.8524362
0.8753984
0.8996094
0.9249577
0.9498407
0.6614322
0.6751771
0.6894783
0.7043707
0.7198929
0.7360512
0.7528636
0.7704031
0.7887255
0.8078952
0.8285828
0.8501277
0.8727147
0.896375
0.9208614
0.6468892
0.6600897
0.6738136
0.6880922
0.7029603
0.7184214
0.7344895
0.75123
0.7686914
0.7869286
0.8065572
0.8269314
0.8482211
0.8704926
0.8937616
0.6333142
0.6460171
0.6592145
0.6729349
0.6872098
0.7020406
0.7174384
0.7334627
0.750156
0.7675662
0.7862677
0.8056376
0.8258313
0.8469131
0.8689457
0.6206574
0.6329051
0.6456217
0.6588335
0.6725693
0.6868288
0.7016208
0.717
0.7330043
0.7496762
0.7675567
0.7860466
0.8052876
0.8253369
0.8462566
0.9310807
0.9113507
0.9324112
0.8897195
0.9133618
0.9350637
0.8692701
0.8923396
0.9163522
0.938973
0.8501688
0.8723058
0.8956646
0.9201272
0.9438922
0.831924
0.8531305
0.8755144
0.8991798
0.9241143
0.9489965
0.8137238
0.8340179
0.8553997
0.8779852
0.9018985
0.9271348
0.9527547
0.7955935
0.815008
0.8354221
0.8569378
0.8796767
0.9037139
0.9291014
0.9551926
0.7777366
0.7963154
0.8158148
0.836322
0.8579418
0.8807423
0.9048177
0.9303228
0.95668
0.7602834
0.7780736
0.7967145
0.8162814
0.8368633
0.8585133
0.8813131
0.9054323
0.931003
0.9574987
0.7432794
0.7603259
0.7781617
0.796852
0.8164732
0.8370651
0.8586931
0.8815066
0.9056433
0.9312387
0.9588618
0.7267091
0.7430524
0.7601305
0.7780005
0.7967284
0.8163435
0.8368972
0.8585184
0.8813247
0.9054529
0.9319437
0.9596329
0.7105085
0.7261832
0.7425439
0.7596408
0.7775316
0.7962373
0.8157983
0.836326
0.8579184
0.8806922
0.9056074
0.9320633
0.9600253
0.6945687
0.7096022
0.7252773
0.7416387
0.7587368
0.776586
0.7952183
0.8147308
0.835205
0.8567376
0.8802143
0.9050967
0.9317216
0.9600649
0.6787687
0.6931816
0.7081947
0.723848
0.7401859
0.7572179
0.7749687
0.7935237
0.8129511
0.8333309
0.8554723
0.8788617
0.9038408
0.9306789
0.9597192
0.6631461
0.6769583
0.6913318
0.706302
0.7219082
0.7381567
0.7550664
0.7727119
0.7911508
0.8104491
0.8313088
0.8531151
0.8760736
0.9002352
0.9254228
0.6482123
0.6614635
0.6752415
0.6895779
0.704508
0.7200354
0.7361746
0.752992
0.7705369
0.7888653
0.8086061
0.829124
0.8505911
0.8730708
0.8965804
0.6341834
0.646919
0.6601509
0.6739082
0.6882225
0.7030953
0.7185379
0.7346103
0.7513555
0.768822
0.7875898
0.8070371
0.8273198
0.8485014
0.8706445
0.6210794
0.6333426
0.6460757
0.6593049
0.6730593
0.6873386
0.7021515
0.7175532
0.7335817
0.7502795
0.76819
0.7867133
0.8059917
0.826082
0.8470466
0.6088545
0.6206848
0.6329613
0.6457085
0.6589528
0.6726927
0.686935
0.7017305
0.7171135
0.733122
0.7502694
0.7679781
0.7863792
0.8055216
0.8254606
0.9103738
0.931152
0.8879793
0.9114161
0.932552
0.8668888
0.8897802
0.9134918
0.9352753
0.8473667
0.8693272
0.8924608
0.9165481
0.9392602
0.8291756
0.8502235
0.872421
0.8958489
0.9203939
0.9441908
0.8117865
0.8319771
0.8532419
0.8756911
0.8994323
0.9243906
0.949264
0.7944185
0.8137741
0.834123
0.8555656
0.87822
0.9021512
0.9273696
0.9530316
0.7770927
0.7956409
0.8151067
0.8355772
0.8571559
0.8799089
0.9039251
0.9293371
0.9554727
0.7600039
0.7777813
0.7964084
0.8159604
0.8365258
0.8581573
0.8809358
0.9050287
0.9305584
0.9569612
0.7432794
0.7603259
0.7781617
0.796852
0.8164732
0.8370651
0.8586931
0.8815066
0.9056433
0.9312387
0.9588618
0.7269657
0.7433199
0.7604097
0.7782923
0.7970337
0.8166636
0.8372338
0.8588733
0.8817007
0.9058549
0.932383
0.9601444
0.7110507
0.7267479
0.7431326
0.7602552
0.7781735
0.7969092
0.8165031
0.8370669
0.8586999
0.8815202
0.906486
0.9329959
0.9610784
0.6954754
0.7105458
0.7262601
0.7426634
0.7598063
0.7777042
0.7963894
0.8159597
0.8364978
0.8581023
0.8816532
0.9065907
0.9332653
0.9617463
0.680137
0.6946046
0.7096762
0.7253921
0.7417975
0.758902
0.7767316
0.7953725
0.8148946
0.8353796
0.8576451
0.8811712
0.9062843
0.9332242
0.9623347
0.6649206
0.678803
0.6932522
0.7083042
0.7239992
0.7403431
0.7573559
0.7751145
0.7936781
0.8131151
0.8341787
0.856369
0.8800005
0.9053532
0.9328685
0.9643987
0.6498632
0.663178
0.6770241
0.6914336
0.7064423
0.7220538
0.7382833
0.7551988
0.7728506
0.7912963
0.8111932
0.8319479
0.853747
0.8766532
0.9006541
0.6354588
0.6482423
0.6615254
0.6753371
0.6897097
0.7046446
0.7201534
0.7362972
0.7531196
0.7706699
0.7895402
0.8091181
0.8295605
0.8509245
0.8732613
0.6219179
0.634212
0.6469778
0.6602419
0.6740334
0.6883521
0.703207
0.7186535
0.7347302
0.7514801
0.7694515
0.7880455
0.8074046
0.8275839
0.8486437
0.6092618
0.6211069
0.633399
0.6461627
0.6594245
0.673183
0.687445
0.7022616
0.7176671
0.7336997
0.7508748
0.7686143
0.7870495
0.806229
0.8262079
0.5974481
0.6088809
0.6207389
0.6330449
0.6458233
0.6590715
0.6727947
0.6870403
0.7018394
0.7172262
0.7336892
0.7506715
0.7682949
0.7866014
0.8056387
0.8871056
0.9104388
0.9312916
0.8652688
0.8880393
0.9115444
0.9327598
0.8451247
0.866945
0.8898993
0.9136836
0.9355538
0.8265241
0.84742
0.8694394
0.8926399
0.9168061
0.9395447
0.8091771
0.829227
0.8503311
0.8725914
0.8960917
0.9206581
0.9444396
0.7925742
0.8118365
0.8320817
0.8534067
0.8759241
0.8996826
0.9246222
0.949534
0.7759716
0.7944661
0.8138732
0.8342787
0.8557844
0.8784529
0.9023631
0.9276059
0.953311
0.7593884
0.7771377
0.7957343
0.815253
0.8357818
0.8573722
0.8801033
0.9041373
0.929574
0.9557546
0.7430118
0.7600465
0.7778696
0.7965463
0.8161526
0.836728
0.8583375
0.8811299
0.9052405
0.9307949
0.9583273
0.7269657
0.7433199
0.7604097
0.7782923
0.7970337
0.8166636
0.8372338
0.8588733
0.8817007
0.9058549
0.932383
0.9601444
0.7112969
0.7270044
0.7433999
0.7605341
0.7784649
0.797214
0.8168228
0.837403
0.8590541
0.8818953
0.9068832
0.9334164
0.9615471
0.6959962
0.7110878
0.7268245
0.7432515
0.7604199
0.7783453
0.7970604
0.8166633
0.8372373
0.858882
0.8824715
0.9074313
0.9341217
0.9626548
0.6810089
0.6955111
0.7106194
0.7263743
0.7428213
0.7599708
0.7778488
0.7965423
0.8161218
0.8366705
0.8589986
0.8825603
0.9076711
0.9345687
0.9636265
0.6662374
0.6801714
0.6946755
0.7097861
0.7255439
0.7419552
0.7590407
0.7768781
0.7955277
0.8150594
0.8362326
0.8585392
0.8822692
0.9076341
0.9349112
0.9652107
0.6515724
0.6649535
0.6788708
0.6933572
0.7084491
0.7241496
0.740475
0.7574949
0.7752613
0.7938335
0.8139163
0.8350228
0.8574351
0.8814009
0.9073164
0.9363477
0.9668629
0.6370502
0.6498939
0.6632412
0.6771217
0.6915681
0.7065818
0.722175
0.7384098
0.755331
0.7729891
0.7920023
0.8117976
0.8325431
0.8542897
0.8770412
0.6231482
0.6354878
0.6483019
0.6616173
0.6754637
0.6898407
0.7047577
0.7202708
0.7364191
0.7532464
0.7713122
0.7900261
0.809531
0.8298746
0.8511029
0.6100712
0.6219455
0.6342687
0.6470653
0.6603622
0.6741578
0.6884593
0.7033179
0.7187683
0.7348493
0.7520807
0.7698853
0.7883944
0.8076546
0.827718
0.5978415
0.6092883
0.6211611
0.6334828
0.6462778
0.6595435
0.6732853
0.6875507
0.7023708
0.7177802
0.7342689
0.7512797
0.7689345
0.7872749
0.8063482
0.5864198
0.5974735
0.6089331
0.6208195
0.6331555
0.6459375
0.6591696
0.6728959
0.6871448
0.7019474
0.7177694
0.7340736
0.7509738
0.7685065
0.7867127
0.8644552
0.8871653
0.9105663
0.9314976
0.843599
0.8653245
0.8881571
0.9117338
0.9330332
0.824402
0.8451772
0.8670555
0.8900752
0.9139363
0.9358296
0.8066591
0.8265742
0.8475249
0.8696054
0.8928758
0.9170617
0.9397805
0.7900901
0.8092255
0.8293281
0.8504902
0.8728161
0.8963324
0.9208781
0.9446884
0.7742121
0.7926216
0.8119351
0.8322365
0.8536242
0.8761553
0.8998925
0.9248554
0.9498063
0.7583168
0.7760168
0.7945599
0.8140201
0.8344842
0.8560016
0.8786482
0.9025764
0.9278438
0.9535928
0.7424226
0.7594312
0.7772263
0.7958728
0.8154461
0.835985
0.8575534
0.8802987
0.9043505
0.929812
0.9571263
0.7267091
0.7430524
0.7601305
0.7780005
0.7967284
0.8163435
0.8368972
0.8585184
0.8813247
0.9054529
0.9319437
0.9596329
0.7112969
0.7270044
0.7433999
0.7605341
0.7784649
0.797214
0.8168228
0.837403
0.8590541
0.8818953
0.9068832
0.9334164
0.9615471
0.6962328
0.7113339
0.7270807
0.7435185
0.7606984
0.7786363
0.7973648
0.8169824
0.8375726
0.8592354
0.8828418
0.9078111
0.9345087
0.9630624
0.6815097
0.6960317
0.711161
0.7269381
0.7434087
0.7605835
0.778489
0.7972121
0.8168241
0.8374083
0.8597688
0.8833428
0.9084428
0.935314
0.9643481
0.6670765
0.6810431
0.6955816
0.7107287
0.7265254
0.7429783
0.7601085
0.7779941
0.7966959
0.8162848
0.8375125
0.8598454
0.8835582
0.9088422
0.9359584
0.9659223
0.6528407
0.6662705
0.6802394
0.6947808
0.7099315
0.7256948
0.7420876
0.7591803
0.7770256
0.7956839
0.8158651
0.8370738
0.8595664
0.8835182
0.9091489
0.9370147
0.9672058
0.6386977
0.651604
0.6650186
0.6789716
0.6934961
0.7085931
0.7242757
0.7406077
0.7576349
0.7754092
0.7945935
0.8147146
0.8360273
0.858747
0.8832192
0.9104375
0.9383029
0.9686845
0.6246832
0.6370798
0.6499546
0.663335
0.6772509
0.6917019
0.7066979
0.722296
0.7385361
0.755463
0.7736607
0.7925758
0.8123606
0.8330543
0.8546531
0.6112586
0.6231761
0.6355451
0.6483903
0.661739
0.6755895
0.6899492
0.7048702
0.7203875
0.7365404
0.7538592
0.7717747
0.7904181
0.8098282
0.8300427
0.5986231
0.6100978
0.6220001
0.634353
0.6471811
0.6604819
0.6742608
0.6885656
0.7034279
0.7188823
0.7354234
0.7524945
0.7702174
0.7886317
0.8077815
0.5867999
0.597867
0.6093406
0.6212419
0.6335937
0.6463923
0.6596419
0.6733868
0.6876555
0.7024792
0.7183252
0.7346559
0.7515852
0.7691491
0.7873881
0.5757525
0.5864443
0.5975239
0.6090107
0.6209261
0.6332655
0.646032
0.659267
0.6729963
0.6872485
0.7024682
0.7181374
0.7343626
0.7511757
0.7686124
0.8428325
0.8645106
0.8872825
0.9107546
0.9317687
0.8229576
0.8436511
0.8654339
0.8883312
0.9119833
0.933304
0.8046435
0.8244514
0.8452806
0.8672188
0.890307
0.9141866
0.9360579
0.7876926
0.8067064
0.8266729
0.8476802
0.8698242
0.8931097
0.9172735
0.940015
0.7718419
0.7901359
0.8093209
0.8294777
0.8507002
0.8730389
0.8965327
0.9210976
0.9449371
0.7566351
0.774257
0.792715
0.8120813
0.8324408
0.85384
0.8763492
0.9001037
0.9250901
0.950081
0.7413967
0.7583598
0.7761059
0.794699
0.814214
0.8346882
0.8561838
0.8788449
0.902791
0.9280832
0.9549667
0.7261443
0.7424634
0.7595156
0.7773579
0.7960557
0.8156378
0.8361551
0.8577355
0.880495
0.9045646
0.9309697
0.9584822
0.7110507
0.7267479
0.7431326
0.7602552
0.7781735
0.7969092
0.8165031
0.8370669
0.8586999
0.8815202
0.906486
0.9329959
0.9610784
0.6962328
0.7113339
0.7270807
0.7435185
0.7606984
0.7786363
0.7973648
0.8169824
0.8375726
0.8592354
0.8828418
0.9078111
0.9345087
0.9630624
0.6817372
0.6962682
0.711407
0.7271941
0.7436754
0.7608617
0.7787795
0.797516
0.8171425
0.8377428
0.8601175
0.8836967
0.9087923
0.9356541
0.9646803
0.6675586
0.6815438
0.696102
0.7112698
0.7270884
0.7435649
0.7607204
0.7786332
0.7973645
0.8169854
0.8382411
0.8605818
0.8842765
0.9095144
0.9365616
0.9664005
0.6536489
0.6671094
0.6811108
0.6956864
0.7108733
0.7266755
0.7431097
0.7602469
0.7781401
0.7968503
0.8170799
0.8383087
0.8607782
0.8846412
0.9100914
0.9376194
0.9676032
0.6399202
0.6528725
0.6663358
0.6803405
0.6949202
0.710076
0.7258215
0.742221
0.7593209
0.7771742
0.7964478
0.8166603
0.8380411
0.8607357
0.8849208
0.9110386
0.9386138
0.9688523
0.6262722
0.6387281
0.6516666
0.6651154
0.6791049
0.6936342
0.7087139
0.7244027
0.7407414
0.7577758
0.776132
0.7953511
0.8156653
0.8372642
0.8604512
0.8861124
0.9121919
0.9398521
0.9700853
0.6127401
0.6247117
0.6371382
0.6500449
0.6634592
0.6773794
0.6918133
0.7068138
0.7224168
0.7386622
0.7561035
0.7742065
0.7931103
0.8128445
0.8333969
0.5997698
0.6112855
0.6232313
0.6356302
0.6485074
0.66186
0.6756938
0.6900572
0.704982
0.7205035
0.7371259
0.7543002
0.7721477
0.7907002
0.8099873
0.5875552
0.5986488
0.6101504
0.6220813
0.6344645
0.6472963
0.6605809
0.674363
0.6886713
0.7035371
0.719432
0.7358189
0.7528114
0.7704434
0.7887523
0.57612
0.5868245
0.5979175
0.6094185
0.6213488
0.633704
0.646487
0.6597396
0.6734876
0.6877596
0.7030018
0.7186957
0.734948
0.75179
0.7692568
0.5654304
0.5757762
0.586493
0.5975988
0.6091136
0.6210322
0.6333565
0.6461257
0.6593635
0.673096
0.6877485
0.7028211
0.7184141
0.7345556
0.7512768
0.8222317
0.8428844
0.8646196
0.8874558
0.9110026
0.9320372
0.8032712
0.8230066
0.8437536
0.8655958
0.8885607
0.9122305
0.933528
0.785773
0.8046902
0.8245487
0.8454336
0.8674342
0.8905369
0.9143937
0.9362845
0.7695542
0.7877374
0.8067996
0.826819
0.8478849
0.8700412
0.8933035
0.9174841
0.9402483
0.7543696
0.7718855
0.7902263
0.8094622
0.8296751
0.8509085
0.8732244
0.8967327
0.9213169
0.9451857
0.7397868
0.7566779
0.7743457
0.7928534
0.8122742
0.8326436
0.854021
0.8765443
0.9003162
0.9253263
0.9514211
0.7251609
0.7414377
0.7584446
0.776238
0.7948828
0.8144066
0.8348593
0.8563672
0.8790428
0.903007
0.92925
0.9563911
0.7105085
0.7261832
0.7425439
0.7596408
0.7775316
0.7962373
0.8157983
0.836326
0.8579184
0.8806922
0.9056074
0.9320633
0.9600253
0.6959962
0.7110878
0.7268245
0.7432515
0.7604199
0.7783453
0.7970604
0.8166633
0.8372373
0.858882
0.8824715
0.9074313
0.9341217
0.9626548
0.6817372
0.6962682
0.711407
0.7271941
0.7436754
0.7608617
0.7787795
0.797516
0.8171425
0.8377428
0.8601175
0.8836967
0.9087923
0.9356541
0.9646803
0.6677775
0.6817712
0.6963383
0.7115155
0.7273441
0.7438312
0.7609981
0.7789232
0.7976677
0.8173031
0.8385712
0.8609151
0.8846021
0.9098218
0.9368445
0.966637
0.6541132
0.6675913
0.6816112
0.6962063
0.7114137
0.7272378
0.7436956
0.7608578
0.778778
0.7975173
0.8177717
0.8390053
0.8614542
0.8852669
0.9106365
0.9380379
0.9679102
0.6406992
0.6536805
0.6671744
0.6812114
0.6958251
0.7110171
0.7268012
0.7432419
0.760386
0.7782869
0.7976039
0.8178323
0.8391867
0.8617915
0.8857973
0.9115857
0.9389811
0.9690773
0.6274513
0.6399507
0.6529353
0.666433
0.6804744
0.6950588
0.7101973
0.725949
0.7423552
0.7594625
0.7779006
0.7972022
0.8175755
0.839143
0.8620496
0.8866718
0.912477
0.9400315
0.9701809
0.6142736
0.6263015
0.6387884
0.6517598
0.6652436
0.6792375
0.6937501
0.7088356
0.7245305
0.7408759
0.7584649
0.776853
0.7962539
0.8168366
0.8388716
0.8631646
0.8877368
0.913586
0.9411162
0.9711734
0.6012004
0.6127675
0.624768
0.6372251
0.6501644
0.6635828
0.6774864
0.6919245
0.7069296
0.7225375
0.7392741
0.756624
0.7747152
0.7935698
0.8131689
0.5886631
0.5997957
0.6113387
0.6233133
0.6357429
0.6486238
0.6619602
0.6757974
0.6901645
0.7050932
0.721064
0.7375474
0.7546561
0.7724163
0.7908513
0.5768501
0.5875799
0.5986995
0.6102287
0.6221888
0.6345754
0.6473916
0.6606792
0.6744645
0.6887761
0.7040641
0.7198106
0.7361218
0.753027
0.7705581
0.5657858
0.5761437
0.5868733
0.5979926
0.6095216
0.6214551
0.6337952
0.646581
0.6598364
0.6735875
0.6882611
0.703357
0.7189753
0.7351437
0.7518928
0.5554387
0.5654533
0.5758232
0.5865653
0.5976981
0.6092159
0.6211199
0.6334468
0.6462187
0.6594594
0.6735764
0.6880872
0.7030864
0.7185989
0.7346523
0.8025814
0.8222805
0.8429865
0.8647807
0.8876841
0.9112483
0.9322592
0.7844659
0.8033176
0.8231031
0.8439053
0.8658091
0.8887881
0.9124349
0.9337503
0.7677222
0.7858173
0.8047821
0.8246927
0.8456353
0.8676478
0.890727
0.9145993
0.9365095
0.7521826
0.7695968
0.7878258
0.8069377
0.8270117
0.8480881
0.870221
0.8934962
0.9176934
0.9404803
0.737618
0.7544111
0.7719714
0.7903603
0.8096488
0.8298711
0.8510818
0.8734095
0.8969323
0.9215358
0.9463883
0.7236177
0.7398276
0.7567623
0.7744773
0.7930363
0.8124658
0.8328138
0.8542031
0.8767406
0.9005301
0.9264775
0.9528325
0.7095648
0.7252
0.7415186
0.7585705
0.7764126
0.7950652
0.8145682
0.8350316
0.8565518
0.879242
0.9040606
0.9304007
0.9580853
0.6954754
0.7105458
0.7262601
0.7426634
0.7598063
0.7777042
0.7963894
0.8159597
0.8364978
0.8581023
0.8816532
0.9065907
0.9332653
0.9617463
0.6815097
0.6960317
0.711161
0.7269381
0.7434087
0.7605835
0.778489
0.7972121
0.8168241
0.8374083
0.8597688
0.8833428
0.9084428
0.935314
0.9643481
0.6677775
0.6817712
0.6963383
0.7115155
0.7273441
0.7438312
0.7609981
0.7789232
0.7976677
0.8173031
0.8385712
0.8609151
0.8846021
0.9098218
0.9368445
0.966637
0.6543241
0.6678101
0.6818384
0.6964423
0.7116591
0.7274931
0.7439615
0.761135
0.7790674
0.7978199
0.8180851
0.8393207
0.8617608
0.8855535
0.9108928
0.9382487
0.9680725
0.6411466
0.6541447
0.667656
0.6817112
0.6963442
0.7115568
0.7273628
0.7438267
0.7609957
0.7789233
0.7982625
0.8184936
0.8398261
0.8623804
0.8863051
0.9119659
0.9392708
0.9692682
0.6282026
0.6407296
0.653743
0.667271
0.6813444
0.6959629
0.7111375
0.7269276
0.7433747
0.7605259
0.7790033
0.7983175
0.8186625
0.8401411
0.862874
0.8871816
0.9128144
0.9402698
0.9703167
0.6154115
0.6274807
0.6400112
0.6530287
0.6665615
0.6806074
0.6951751
0.7103194
0.7260774
0.7424903
0.7601548
0.7786183
0.798071
0.8186186
0.8403819
0.8636909
0.8880044
0.9137556
0.941242
0.9712366
0.6026812
0.6143018
0.6263596
0.638878
0.651883
0.6653711
0.6793488
0.6938668
0.708958
0.7246593
0.7415342
0.7591526
0.7777126
0.7973667
0.8183592
0.8414322
0.8646869
0.8890276
0.9147259
0.9421434
0.97201
0.5900453
0.6012268
0.6128218
0.6248517
0.6373402
0.6502832
0.6636856
0.6775932
0.6920356
0.7070452
0.723123
0.7397714
0.7571093
0.7751527
0.7938779
0.5779211
0.5886881
0.599847
0.6114178
0.6234219
0.6358551
0.6487203
0.6620599
0.6759005
0.6902711