/*--------------------------------*- C++ -*----------------------------------*\
| =========                 |                                                 |
| \\      /  F ield         | OpenFOAM: The Open Source CFD Toolbox           |
|  \\    /   O peration     | Version:  2306                                  |
|   \\  /    A nd           | Website:  www.openfoam.com                      |
|    \\/     M anipulation  |                                                 |
\*---------------------------------------------------------------------------*/
FoamFile
{
    version     2.0;
    format      ascii;
    arch        "LSB;label=32;scalar=64";
    class       volScalarField;
    location    "1.5/interconnect";
    object      T;
}
// * * * * * * * * * * * * * * * * * * * * * * * * * * * * * * * * * * * * * //

dimensions      [0 0 0 1 0 0 0];

internalField   nonuniform List<scalar> 
16000
(
1267.468
1267.466
1269.6
1267.393
1267.461
1269.599
1267.39
1272.404
1269.577
1267.245
1267.454
1269.597
1267.383
1272.404
1269.575
1267.239
1275.277
1272.405
1269.533
1267.027
1267.447
1269.594
1267.374
1272.402
1269.573
1267.228
1275.277
1272.404
1269.531
1267.017
1278.019
1275.286
1272.408
1269.472
1266.753
1267.438
1269.591
1267.363
1272.4
1269.57
1267.213
1275.275
1272.402
1269.527
1266.998
1278.018
1275.285
1272.406
1269.47
1266.734
1280.575
1278.029
1275.305
1272.416
1269.403
1266.526
1267.43
1269.588
1267.351
1272.397
1269.566
1267.194
1275.273
1272.399
1269.522
1266.971
1278.016
1275.283
1272.403
1269.464
1266.697
1280.574
1278.028
1275.303
1272.414
1269.399
1266.493
1282.943
1280.585
1278.052
1275.337
1272.436
1269.354
1266.379
1267.423
1269.585
1267.339
1272.394
1269.561
1267.175
1275.27
1272.395
1269.516
1266.94
1278.014
1275.28
1272.398
1269.457
1266.648
1280.573
1278.026
1275.3
1272.409
1269.39
1266.428
1282.943
1280.584
1278.05
1275.334
1272.433
1269.347
1266.336
1285.137
1282.953
1280.607
1278.089
1275.386
1272.464
1269.326
1266.245
1267.418
1269.582
1267.329
1272.392
1269.557
1267.154
1275.267
1272.391
1269.51
1266.907
1278.011
1275.276
1272.392
1269.448
1266.596
1280.571
1278.023
1275.295
1272.401
1269.379
1266.332
1282.941
1280.582
1278.047
1275.329
1272.426
1269.332
1266.25
1285.137
1282.952
1280.606
1278.086
1275.382
1272.46
1269.316
1266.194
1287.173
1285.146
1282.973
1280.643
1278.144
1275.438
1272.487
1269.305
1266.131
1267.415
1269.58
1267.321
1272.389
1269.553
1267.136
1275.264
1272.388
1269.503
1266.868
1278.009
1275.272
1272.386
1269.438
1266.559
1280.568
1278.02
1275.288
1272.391
1269.367
1266.211
1282.94
1280.58
1278.042
1275.32
1272.415
1269.313
1266.118
1285.136
1282.95
1280.603
1278.081
1275.376
1272.453
1269.297
1266.089
1287.173
1285.145
1282.972
1280.641
1278.141
1275.436
1272.483
1269.293
1266.073
1289.067
1287.181
1285.164
1283.006
1280.696
1278.201
1275.478
1272.516
1269.296
1266.045
1267.415
1269.579
1267.317
1272.388
1269.55
1267.122
1275.262
1272.384
1269.496
1266.83
1278.006
1275.268
1272.379
1269.425
1266.473
1280.566
1278.016
1275.282
1272.379
1269.358
1282.937
1280.576
1278.036
1275.309
1272.398
1269.291
1265.933
1285.134
1282.948
1280.598
1278.073
1275.364
1272.443
1269.269
1265.925
1287.172
1285.144
1282.969
1280.636
1278.134
1275.43
1272.475
1269.269
1265.954
1289.066
1287.18
1285.163
1283.004
1280.694
1278.199
1275.476
1272.512
1269.281
1265.982
1290.832
1289.074
1287.198
1285.194
1283.055
1280.75
1278.243
1275.522
1272.552
1269.299
1265.988
1267.418
1269.579
1267.317
1272.387
1269.549
1267.114
1275.26
1272.382
1269.491
1266.801
1278.004
1275.265
1272.374
1269.413
1266.388
1280.563
1278.012
1275.275
1272.367
1269.334
1282.935
1280.573
1278.029
1275.296
1272.373
1285.132
1282.945
1280.593
1278.062
1275.345
1272.432
1269.233
1265.691
1287.17
1285.141
1282.965
1280.629
1278.123
1275.423
1272.464
1269.232
1265.767
1289.065
1287.179
1285.161
1283
1280.688
1278.194
1275.471
1272.503
1269.253
1265.853
1290.831
1289.073
1287.196
1285.192
1283.052
1280.748
1278.241
1275.52
1272.547
1269.284
1265.923
1292.48
1290.838
1289.089
1287.224
1285.238
1283.104
1280.79
1278.289
1275.571
1272.594
1269.317
1265.963
1267.423
1269.58
1267.321
1272.387
1269.549
1267.114
1275.26
1272.381
1269.489
1266.785
1278.002
1275.262
1272.37
1269.403
1266.323
1280.561
1278.009
1275.269
1272.357
1269.306
1282.933
1280.569
1278.023
1275.284
1272.35
1285.13
1282.942
1280.587
1278.05
1275.314
1287.168
1285.139
1282.96
1280.619
1278.105
1275.415
1272.451
1269.181
1265.502
1289.064
1287.177
1285.157
1282.993
1280.677
1278.188
1275.465
1272.49
1269.208
1265.653
1290.83
1289.072
1287.194
1285.188
1283.047
1280.745
1278.238
1275.516
1272.537
1269.252
1265.791
1292.48
1290.837
1289.088
1287.223
1285.236
1283.102
1280.789
1278.288
1275.569
1272.589
1269.302
1265.898
1294.023
1292.486
1290.852
1289.113
1287.264
1285.282
1283.14
1280.833
1278.338
1275.624
1272.644
1269.351
1265.97
1267.43
1269.582
1267.329
1272.388
1269.55
1267.122
1275.26
1272.381
1269.489
1266.785
1278.001
1275.261
1272.368
1269.397
1266.289
1280.56
1278.007
1275.265
1272.349
1269.283
1282.931
1280.567
1278.018
1275.274
1272.33
1285.128
1282.939
1280.581
1278.038
1275.29
1287.167
1285.136
1282.955
1280.607
1278.074
1289.062
1287.174
1285.153
1282.984
1280.66
1278.181
1275.458
1272.472
1269.146
1265.371
1290.829
1289.07
1287.191
1285.183
1283.038
1280.739
1278.234
1275.51
1272.522
1269.204
1265.586
1292.479
1290.836
1289.086
1287.219
1285.231
1283.099
1280.786
1278.285
1275.565
1272.579
1269.27
1265.767
1294.022
1292.486
1290.851
1289.111
1287.262
1285.281
1283.139
1280.832
1278.338
1275.623
1272.639
1269.336
1265.906
1295.468
1294.028
1292.498
1290.874
1289.148
1287.304
1285.315
1283.179
1280.879
1278.391
1275.681
1272.701
1269.399
1266.006
1267.438
1269.585
1267.339
1272.389
1269.553
1267.136
1275.26
1272.382
1269.491
1266.801
1278.001
1275.261
1272.368
1269.397
1266.289
1280.559
1278.005
1275.263
1272.345
1269.27
1282.93
1280.564
1278.014
1275.267
1272.315
1285.126
1282.936
1280.576
1278.028
1275.272
1287.165
1285.133
1282.95
1280.596
1278.051
1289.061
1287.172
1285.148
1282.974
1280.632
1290.828
1289.068
1287.187
1285.175
1283.023
1280.733
1278.229
1275.503
1272.501
1269.135
1265.299
1292.478
1290.835
1289.083
1287.214
1285.223
1283.094
1280.783
1278.282
1275.56
1272.564
1269.221
1265.564
1294.021
1292.484
1290.849
1289.108
1287.257
1285.278
1283.137
1280.831
1278.336
1275.619
1272.63
1269.307
1265.777
1295.467
1294.027
1292.498
1290.872
1289.147
1287.302
1285.314
1283.179
1280.879
1278.39
1275.68
1272.697
1269.386
1265.943
1296.823
1295.473
1294.039
1292.519
1290.906
1289.184
1287.333
1285.35
1283.221
1280.928
1278.446
1275.742
1272.764
1269.461
1266.07
1267.447
1269.588
1267.351
1272.392
1269.557
1267.154
1275.262
1272.384
1269.496
1266.83
1278.002
1275.262
1272.37
1269.403
1266.323
1280.559
1278.005
1275.263
1272.345
1269.27
1282.929
1280.563
1278.012
1275.263
1272.308
1285.125
1282.934
1280.573
1278.022
1275.26
1287.163
1285.131
1282.945
1280.588
1278.035
1289.059
1287.169
1285.143
1282.964
1280.611
1290.826
1289.065
1287.183
1285.165
1282.996
1292.477
1290.833
1289.079
1287.207
1285.209
1283.089
1280.779
1278.278
1275.551
1272.541
1269.152
1265.284
1294.02
1292.483
1290.846
1289.103
1287.25
1285.273
1283.134
1280.828
1278.333
1275.614
1272.616
1269.261
1265.583
1295.467
1294.026
1292.496
1290.869
1289.143
1287.299
1285.312
1283.177
1280.878
1278.389
1275.678
1272.69
1269.361
1265.818
1296.822
1295.472
1294.039
1292.517
1290.904
1289.183
1287.332
1285.349
1283.22
1280.928
1278.446
1275.742
1272.762
1269.45
1266.007
1298.094
1296.827
1295.483
1294.058
1292.548
1290.939
1289.211
1287.364
1285.387
1283.265
1280.978
1278.504
1275.806
1272.833
1269.535
1267.454
1269.591
1267.363
1272.394
1269.561
1267.175
1275.264
1272.388
1269.503
1266.868
1278.004
1275.265
1272.374
1269.413
1266.388
1280.56
1278.007
1275.265
1272.349
1269.283
1282.929
1280.563
1278.012
1275.263
1272.308
1285.124
1282.933
1280.571
1278.018
1275.254
1287.162
1285.129
1282.942
1280.582
1278.024
1289.058
1287.167
1285.139
1282.956
1280.596
1290.825
1289.063
1287.178
1285.156
1282.978
1292.475
1290.831
1289.075
1287.198
1285.185
1294.019
1292.481
1290.843
1289.097
1287.238
1285.269
1283.131
1280.825
1278.329
1275.606
1272.594
1269.198
1265.321
1295.466
1294.025
1292.493
1290.865
1289.136
1287.296
1285.309
1283.175
1280.876
1278.388
1275.674
1272.679
1269.322
1265.633
1296.822
1295.471
1294.037
1292.515
1290.901
1289.181
1287.33
1285.348
1283.22
1280.927
1278.446
1275.742
1272.758
1269.429
1265.882
1298.094
1296.827
1295.482
1294.057
1292.546
1290.937
1289.21
1287.364
1285.387
1283.265
1280.979
1278.505
1275.807
1272.832
1269.526
1299.288
1298.099
1296.837
1295.5
1294.085
1292.578
1290.963
1289.239
1287.398
1285.426
1283.31
1281.03
1278.563
1275.871
1272.904
1267.461
1269.594
1267.374
1272.397
1269.566
1267.194
1275.267
1272.391
1269.51
1266.907
1278.006
1275.268
1272.379
1269.425
1266.473
1280.561
1278.009
1275.269
1272.357
1269.306
1282.93
1280.564
1278.014
1275.267
1272.315
1285.124
1282.933
1280.571
1278.018
1275.254
1287.162
1285.128
1282.94
1280.579
1278.019
1289.057
1287.166
1285.136
1282.951
1280.587
1290.823
1289.061
1287.175
1285.149
1282.965
1292.474
1290.829
1289.071
1287.19
1285.169
1294.018
1292.479
1290.839
1289.089
1287.216
1295.464
1294.023
1292.49
1290.859
1289.125
1287.292
1285.306
1283.173
1280.874
1278.384
1275.667
1272.66
1269.27
1265.395
1296.821
1295.47
1294.035
1292.511
1290.894
1289.177
1287.328
1285.346
1283.219
1280.926
1278.446
1275.74
1272.751
1269.4
1265.7
1298.093
1296.826
1295.481
1294.054
1292.543
1290.935
1289.208
1287.363
1285.386
1283.264
1280.979
1278.506
1275.809
1272.832
1269.508
1299.288
1298.098
1296.836
1295.499
1294.083
1292.577
1290.962
1289.239
1287.398
1285.426
1283.31
1281.031
1278.565
1275.874
1272.906
1300.409
1299.292
1298.108
1296.853
1295.525
1294.112
1292.6
1290.989
1289.27
1287.433
1285.467
1283.357
1281.083
1278.622
1275.937
1267.466
1269.597
1267.383
1272.4
1269.57
1267.213
1275.27
1272.395
1269.516
1266.94
1278.009
1275.272
1272.386
1269.438
1266.559
1280.563
1278.012
1275.275
1272.367
1269.334
1282.931
1280.567
1278.018
1275.274
1272.33
1285.125
1282.934
1280.573
1278.022
1275.26
1287.162
1285.128
1282.94
1280.579
1278.019
1289.056
1287.165
1285.135
1282.948
1280.583
1290.823
1289.06
1287.172
1285.145
1282.956
1292.473
1290.827
1289.068
1287.184
1285.157
1294.017
1292.477
1290.836
1289.082
1287.201
1295.463
1294.022
1292.487
1290.852
1289.106
1296.82
1295.468
1294.032
1292.505
1290.884
1289.173
1287.325
1285.344
1283.217
1280.925
1278.444
1275.736
1272.74
1269.364
1265.476
1298.093
1296.825
1295.479
1294.051
1292.538
1290.932
1289.206
1287.361
1285.385
1283.264
1280.98
1278.508
1275.812
1272.833
1269.487
1299.287
1298.097
1296.835
1295.497
1294.08
1292.575
1290.96
1289.238
1287.397
1285.426
1283.311
1281.034
1278.568
1275.879
1272.91
1300.409
1299.292
1298.107
1296.852
1295.524
1294.111
1292.599
1290.988
1289.269
1287.433
1285.468
1283.358
1281.085
1278.625
1275.941
1301.461
1300.413
1299.301
1298.123
1296.876
1295.55
1294.132
1292.623
1291.016
1289.302
1287.47
1285.509
1283.404
1281.136
1278.68
1267.468
1269.599
1267.39
1272.402
1269.573
1267.228
1275.273
1272.399
1269.522
1266.971
1278.011
1275.276
1272.392
1269.448
1266.596
1280.566
1278.016
1275.282
1272.379
1269.358
1282.933
1280.569
1278.023
1275.284
1272.35
1285.126
1282.936
1280.576
1278.028
1275.272
1287.162
1285.129
1282.942
1280.582
1278.024
1289.056
1287.165
1285.135
1282.948
1280.583
1290.822
1289.059
1287.171
1285.142
1282.952
1292.472
1290.826
1289.066
1287.18
1285.15
1294.016
1292.476
1290.833
1289.076
1287.191
1295.462
1294.02
1292.484
1290.846
1289.092
1296.819
1295.467
1294.029
1292.499
1290.867
1298.092
1296.823
1295.476
1294.046
1292.528
1290.929
1289.204
1287.36
1285.384
1283.263
1280.979
1278.508
1275.812
1272.832
1269.47
1299.286
1298.096
1296.833
1295.493
1294.075
1292.572
1290.958
1289.236
1287.396
1285.426
1283.312
1281.036
1278.573
1275.888
1272.918
1300.408
1299.291
1298.106
1296.85
1295.521
1294.109
1292.598
1290.987
1289.269
1287.433
1285.468
1283.36
1281.089
1278.632
1275.95
1301.46
1300.412
1299.3
1298.122
1296.875
1295.55
1294.132
1292.623
1291.016
1289.302
1287.47
1285.51
1283.406
1281.14
1278.685
1302.447
1301.464
1300.421
1299.315
1298.144
1296.9
1295.569
1294.154
1292.649
1291.045
1289.335
1287.507
1285.551
1283.451
1281.188
1269.6
1267.393
1272.404
1269.575
1267.239
1275.275
1272.402
1269.527
1266.998
1278.014
1275.28
1272.398
1269.457
1266.648
1280.568
1278.02
1275.288
1272.391
1269.367
1266.211
1282.935
1280.573
1278.029
1275.296
1272.373
1285.128
1282.939
1280.581
1278.038
1275.29
1287.163
1285.131
1282.945
1280.588
1278.035
1289.057
1287.166
1285.136
1282.951
1280.587
1290.822
1289.059
1287.171
1285.142
1282.952
1292.471
1290.825
1289.065
1287.177
1285.146
1294.015
1292.475
1290.831
1289.072
1287.184
1295.461
1294.019
1292.481
1290.84
1289.083
1296.818
1295.465
1294.026
1292.493
1290.855
1298.091
1296.822
1295.473
1294.04
1292.512
1299.286
1298.095
1296.831
1295.489
1294.067
1292.569
1290.956
1289.235
1287.395
1285.425
1283.312
1281.037
1278.578
1275.897
1272.935
1300.407
1299.29
1298.104
1296.847
1295.516
1294.107
1292.596
1290.986
1289.268
1287.433
1285.469
1283.362
1281.095
1278.642
1275.966
1301.46
1300.412
1299.299
1298.12
1296.872
1295.548
1294.131
1292.622
1291.015
1289.302
1287.471
1285.512
1283.41
1281.146
1278.695
1302.447
1301.464
1300.42
1299.314
1298.143
1296.899
1295.569
1294.154
1292.648
1291.045
1289.335
1287.508
1285.553
1283.454
1281.192
1303.372
1302.451
1301.472
1300.434
1299.335
1298.166
1296.917
1295.589
1294.177
1292.675
1291.075
1289.369
1287.545
1285.593
1283.497
1272.404
1269.577
1267.245
1275.277
1272.404
1269.531
1267.017
1278.016
1275.283
1272.403
1269.464
1266.697
1280.571
1278.023
1275.295
1272.401
1269.379
1266.332
1282.937
1280.576
1278.036
1275.309
1272.398
1269.291
1265.933
1285.13
1282.942
1280.587
1278.05
1275.314
1287.165
1285.133
1282.95
1280.596
1278.051
1289.058
1287.167
1285.139
1282.956
1280.596
1290.823
1289.06
1287.172
1285.145
1282.956
1292.471
1290.825
1289.065
1287.177
1285.146
1294.015
1292.474
1290.83
1289.07
1287.181
1295.461
1294.017
1292.479
1290.837
1289.077
1296.817
1295.464
1294.024
1292.488
1290.846
1298.09
1296.82
1295.471
1294.034
1292.501
1299.285
1298.094
1296.828
1295.483
1294.052
1300.406
1299.289
1298.102
1296.842
1295.508
1294.104
1292.594
1290.984
1289.267
1287.432
1285.469
1283.364
1281.1
1278.653
1275.99
1301.459
1300.411
1299.297
1298.117
1296.868
1295.545
1294.129
1292.621
1291.015
1289.301
1287.472
1285.514
1283.415
1281.156
1278.711
1302.446
1301.463
1300.419
1299.312
1298.141
1296.897
1295.567
1294.153
1292.648
1291.045
1289.336
1287.51
1285.557
1283.46
1281.202
1303.372
1302.45
1301.471
1300.433
1299.334
1298.166
1296.916
1295.589
1294.177
1292.675
1291.075
1289.369
1287.547
1285.596
1283.501
1304.237
1303.375
1302.458
1301.484
1300.453
1299.356
1298.182
1296.936
1295.611
1294.202
1292.703
1291.106
1289.403
1287.583
1285.634
1275.277
1272.405
1269.533
1267.027
1278.018
1275.285
1272.406
1269.47
1266.734
1280.573
1278.026
1275.3
1272.409
1269.39
1266.428
1282.94
1280.58
1278.042
1275.32
1272.415
1269.313
1266.118
1285.132
1282.945
1280.593
1278.062
1275.345
1272.432
1269.233
1265.691
1287.167
1285.136
1282.955
1280.607
1278.074
1289.059
1287.169
1285.143
1282.964
1280.611
1290.823
1289.061
1287.175
1285.149
1282.965
1292.472
1290.826
1289.066
1287.18
1285.15
1294.015
1292.474
1290.83
1289.07
1287.181
1295.46
1294.017
1292.478
1290.835
1289.074
1296.816
1295.463
1294.022
1292.485
1290.84
1298.089
1296.819
1295.468
1294.03
1292.493
1299.284
1298.092
1296.826
1295.478
1294.042
1300.406
1299.287
1298.099
1296.837
1295.495
1301.458
1300.409
1299.295
1298.113
1296.861
1295.543
1294.127
1292.62
1291.014
1289.301
1287.472
1285.516
1283.42
1281.167
1278.736
1302.446
1301.462
1300.417
1299.309
1298.137
1296.895
1295.566
1294.152
1292.647
1291.045
1289.336
1287.512
1285.561
1283.469
1281.218
1303.371
1302.45
1301.47
1300.431
1299.332
1298.164
1296.915
1295.588
1294.177
1292.675
1291.076
1289.371
1287.55
1285.602
1283.51
1304.237
1303.375
1302.457
1301.483
1300.452
1299.355
1298.182
1296.935
1295.611
1294.202
1292.703
1291.107
1289.404
1287.586
1285.638
1305.046
1304.24
1303.382
1302.47
1301.502
1300.472
1299.371
1298.2
1296.956
1295.633
1294.227
1292.731
1291.137
1289.437
1287.62
1278.019
1275.286
1272.408
1269.472
1266.753
1280.574
1278.028
1275.303
1272.414
1269.399
1266.493
1282.941
1280.582
1278.047
1275.329
1272.426
1269.332
1266.25
1285.134
1282.948
1280.598
1278.073
1275.364
1272.443
1269.269
1265.925
1287.168
1285.139
1282.96
1280.619
1278.105
1275.415
1272.451
1269.181
1265.502
1289.061
1287.172
1285.148
1282.974
1280.632
1290.825
1289.063
1287.178
1285.156
1282.978
1292.473
1290.827
1289.068
1287.184
1285.157
1294.015
1292.475
1290.831
1289.072
1287.184
1295.46
1294.017
1292.478
1290.835
1289.074
1296.816
1295.462
1294.021
1292.483
1290.838
1298.088
1296.818
1295.467
1294.027
1292.488
1299.283
1298.091
1296.824
1295.474
1294.034
1300.405
1299.286
1298.097
1296.833
1295.485
1301.458
1300.408
1299.293
1298.108
1296.848
1302.445
1301.461
1300.415
1299.305
1298.13
1296.892
1295.564
1294.151
1292.646
1291.044
1289.336
1287.514
1285.566
1283.479
1281.24
1303.37
1302.449
1301.469
1300.429
1299.328
1298.162
1296.914
1295.587
1294.176
1292.675
1291.077
1289.373
1287.554
1285.61
1283.524
1304.236
1303.374
1302.456
1301.482
1300.45
1299.353
1298.181
1296.935
1295.61
1294.202
1292.703
1291.108
1289.407
1287.591
1285.646
1305.045
1304.24
1303.381
1302.469
1301.502
1300.472
1299.37
1298.2
1296.955
1295.633
1294.227
1292.732
1291.138
1289.439
1287.623
1305.8
1305.049
1304.247
1303.393
1302.487
1301.521
1300.487
1299.387
1298.219
1296.977
1295.657
1294.253
1292.759
1291.168
1289.47
1280.575
1278.029
1275.305
1272.416
1269.403
1266.526
1282.943
1280.584
1278.05
1275.334
1272.433
1269.347
1266.336
1285.136
1282.95
1280.603
1278.081
1275.376
1272.453
1269.297
1266.089
1287.17
1285.141
1282.965
1280.629
1278.123
1275.423
1272.464
1269.232
1265.767
1289.062
1287.174
1285.153
1282.984
1280.66
1278.181
1275.458
1272.472
1269.146
1265.371
1290.826
1289.065
1287.183
1285.165
1282.996
1292.474
1290.829
1289.071
1287.19
1285.169
1294.016
1292.476
1290.833
1289.076
1287.191
1295.461
1294.017
1292.479
1290.837
1289.077
1296.816
1295.462
1294.021
1292.483
1290.838
1298.088
1296.818
1295.466
1294.025
1292.486
1299.282
1298.09
1296.822
1295.471
1294.03
1300.404
1299.285
1298.095
1296.829
1295.478
1301.457
1300.407
1299.291
1298.104
1296.839
1302.444
1301.46
1300.413
1299.301
1298.118
1303.37
1302.448
1301.467
1300.425
1299.321
1298.16
1296.913
1295.586
1294.175
1292.674
1291.077
1289.374
1287.559
1285.619
1283.545
1304.236
1303.373
1302.455
1301.479
1300.446
1299.351
1298.18
1296.934
1295.609
1294.202
1292.704
1291.11
1289.411
1287.598
1285.659
1305.045
1304.239
1303.381
1302.467
1301.499
1300.47
1299.369
1298.199
1296.955
1295.633
1294.228
1292.733
1291.141
1289.444
1287.63
1305.799
1305.048
1304.246
1303.392
1302.486
1301.52
1300.486
1299.387
1298.218
1296.977
1295.657
1294.254
1292.761
1291.17
1289.473
1306.501
1305.803
1305.055
1304.258
1303.41
1302.504
1301.534
1300.502
1299.405
1298.238
1296.998
1295.681
1294.279
1292.788
1291.198
1282.943
1280.585
1278.052
1275.337
1272.436
1269.354
1266.379
1285.137
1282.952
1280.606
1278.086
1275.382
1272.46
1269.316
1266.194
1287.172
1285.144
1282.969
1280.636
1278.134
1275.43
1272.475
1269.269
1265.954
1289.064
1287.177
1285.157
1282.993
1280.677
1278.188
1275.465
1272.49
1269.208
1265.653
1290.828
1289.068
1287.187
1285.175
1283.023
1280.733
1278.229
1275.503
1272.501
1269.135
1265.299
1292.475
1290.831
1289.075
1287.198
1285.185
1294.017
1292.477
1290.836
1289.082
1287.201
1295.461
1294.019
1292.481
1290.84
1289.083
1296.816
1295.463
1294.022
1292.485
1290.84
1298.088
1296.818
1295.466
1294.025
1292.486
1299.282
1298.09
1296.821
1295.47
1294.028
1300.403
1299.284
1298.094
1296.826
1295.474
1301.456
1300.406
1299.289
1298.1
1296.833
1302.443
1301.459
1300.411
1299.297
1298.11
1303.369
1302.447
1301.465
1300.421
1299.31
1304.235
1303.372
1302.453
1301.476
1300.44
1299.349
1298.178
1296.933
1295.609
1294.201
1292.704
1291.111
1289.415
1287.607
1285.678
1305.044
1304.239
1303.379
1302.465
1301.496
1300.469
1299.368
1298.198
1296.955
1295.633
1294.228
1292.734
1291.145
1289.451
1287.642
1305.799
1305.048
1304.246
1303.391
1302.484
1301.519
1300.485
1299.386
1298.218
1296.977
1295.657
1294.255
1292.763
1291.174
1289.48
1306.501
1305.802
1305.055
1304.257
1303.409
1302.504
1301.534
1300.502
1299.405
1298.238
1296.999
1295.681
1294.28
1292.79
1291.201
1307.152
1306.504
1305.809
1305.065
1304.273
1303.426
1302.517
1301.549
1300.519
1299.423
1298.258
1297.021
1295.705
1294.305
1292.815
1285.137
1282.953
1280.607
1278.089
1275.386
1272.464
1269.326
1266.245
1287.173
1285.145
1282.972
1280.641
1278.141
1275.436
1272.483
1269.293
1266.073
1289.065
1287.179
1285.161
1283
1280.688
1278.194
1275.471
1272.503
1269.253
1265.853
1290.829
1289.07
1287.191
1285.183
1283.038
1280.739
1278.234
1275.51
1272.522
1269.204
1265.586
1292.477
1290.833
1289.079
1287.207
1285.209
1283.089
1280.779
1278.278
1275.551
1272.541
1269.152
1265.284
1294.018
1292.479
1290.839
1289.089
1287.216
1295.462
1294.02
1292.484
1290.846
1289.092
1296.817
1295.464
1294.024
1292.488
1290.846
1298.088
1296.818
1295.467
1294.027
1292.488
1299.282
1298.09
1296.821
1295.47
1294.028
1300.403
1299.284
1298.093
1296.825
1295.472
1301.455
1300.405
1299.288
1298.098
1296.829
1302.443
1301.458
1300.409
1299.293
1298.104
1303.368
1302.446
1301.463
1300.417
1299.302
1304.234
1303.371
1302.451
1301.472
1300.43
1305.044
1304.238
1303.377
1302.462
1301.49
1300.467
1299.367
1298.197
1296.954
1295.632
1294.228
1292.736
1291.148
1289.458
1287.659
1305.799
1305.047
1304.244
1303.389
1302.481
1301.517
1300.484
1299.386
1298.218
1296.976
1295.658
1294.256
1292.766
1291.181
1289.491
1306.5
1305.802
1305.054
1304.256
1303.407
1302.503
1301.533
1300.501
1299.404
1298.238
1296.999
1295.682
1294.283
1292.793
1291.207
1307.151
1306.504
1305.808
1305.065
1304.273
1303.426
1302.517
1301.549
1300.519
1299.423
1298.259
1297.021
1295.706
1294.307
1292.818
1307.753
1307.154
1306.51
1305.819
1305.081
1304.289
1303.439
1302.531
1301.565
1300.536
1299.442
1298.279
1297.043
1295.729
1294.33
1287.173
1285.146
1282.973
1280.643
1278.144
1275.438
1272.487
1269.305
1266.131
1289.066
1287.18
1285.163
1283.004
1280.694
1278.199
1275.476
1272.512
1269.281
1265.982
1290.83
1289.072
1287.194
1285.188
1283.047
1280.745
1278.238
1275.516
1272.537
1269.252
1265.791
1292.478
1290.835
1289.083
1287.214
1285.223
1283.094
1280.783
1278.282
1275.56
1272.564
1269.221
1265.564
1294.019
1292.481
1290.843
1289.097
1287.238
1285.269
1283.131
1280.825
1278.329
1275.606
1272.594
1269.198
1265.321
1295.463
1294.022
1292.487
1290.852
1289.106
1296.818
1295.465
1294.026
1292.493
1290.855
1298.089
1296.819
1295.468
1294.03
1292.493
1299.282
1298.09
1296.822
1295.471
1294.03
1300.403
1299.284
1298.093
1296.825
1295.472
1301.455
1300.405
1299.287
1298.096
1296.827
1302.442
1301.457
1300.408
1299.291
1298.1
1303.368
1302.445
1301.461
1300.414
1299.297
1304.234
1303.37
1302.449
1301.468
1300.422
1305.043
1304.237
1303.376
1302.458
1301.48
1305.798
1305.046
1304.243
1303.386
1302.475
1301.515
1300.483
1299.385
1298.217
1296.976
1295.658
1294.257
1292.769
1291.188
1289.506
1306.5
1305.801
1305.053
1304.253
1303.404
1302.501
1301.532
1300.501
1299.404
1298.238
1296.999
1295.684
1294.286
1292.799
1291.217
1307.151
1306.503
1305.807
1305.063
1304.271
1303.425
1302.516
1301.548
1300.518
1299.423
1298.259
1297.022
1295.708
1294.311
1292.823
1307.753
1307.154
1306.509
1305.818
1305.08
1304.289
1303.438
1302.531
1301.565
1300.536
1299.442
1298.28
1297.044
1295.73
1294.333
1308.306
1307.755
1307.16
1306.519
1305.833
1305.096
1304.301
1303.452
1302.546
1301.581
1300.554
1299.462
1298.3
1297.065
1295.752
1289.067
1287.181
1285.164
1283.006
1280.696
1278.201
1275.478
1272.516
1269.296
1266.045
1290.831
1289.073
1287.196
1285.192
1283.052
1280.748
1278.241
1275.52
1272.547
1269.284
1265.923
1292.479
1290.836
1289.086
1287.219
1285.231
1283.099
1280.786
1278.285
1275.565
1272.579
1269.27
1265.767
1294.02
1292.483
1290.846
1289.103
1287.25
1285.273
1283.134
1280.828
1278.333
1275.614
1272.616
1269.261
1265.583
1295.464
1294.023
1292.49
1290.859
1289.125
1287.292
1285.306
1283.173
1280.874
1278.384
1275.667
1272.66
1269.27
1265.395
1296.819
1295.467
1294.029
1292.499
1290.867
1298.09
1296.82
1295.471
1294.034
1292.501
1299.283
1298.091
1296.824
1295.474
1294.034
1300.403
1299.284
1298.094
1296.826
1295.474
1301.455
1300.405
1299.287
1298.096
1296.827
1302.442
1301.457
1300.408
1299.29
1298.098
1303.367
1302.444
1301.46
1300.412
1299.293
1304.233
1303.369
1302.448
1301.465
1300.417
1305.042
1304.236
1303.374
1302.455
1301.473
1305.797
1305.045
1304.241
1303.382
1302.466
1306.499
1305.8
1305.051
1304.25
1303.399
1302.499
1301.531
1300.5
1299.403
1298.237
1296.999
1295.685
1294.288
1292.806
1291.231
1307.151
1306.502
1305.806
1305.061
1304.268
1303.423
1302.515
1301.548
1300.518
1299.423
1298.259
1297.023
1295.711
1294.316
1292.832
1307.752
1307.154
1306.509
1305.817
1305.078
1304.288
1303.438
1302.531
1301.564
1300.536
1299.443
1298.281
1297.046
1295.734
1294.338
1308.306
1307.755
1307.16
1306.519
1305.833
1305.095
1304.301
1303.452
1302.546
1301.581
1300.554
1299.462
1298.301
1297.067
1295.754
1308.812
1308.309
1307.761
1307.169
1306.534
1305.848
1305.107
1304.314
1303.466
1302.562
1301.598
1300.572
1299.481
1298.321
1297.087
1290.832
1289.074
1287.198
1285.194
1283.055
1280.75
1278.243
1275.522
1272.552
1269.299
1265.988
1292.48
1290.837
1289.088
1287.223
1285.236
1283.102
1280.789
1278.288
1275.569
1272.589
1269.302
1265.898
1294.021
1292.484
1290.849
1289.108
1287.257
1285.278
1283.137
1280.831
1278.336
1275.619
1272.63
1269.307
1265.777
1295.466
1294.025
1292.493
1290.865
1289.136
1287.296
1285.309
1283.175
1280.876
1278.388
1275.674
1272.679
1269.322
1265.633
1296.82
1295.468
1294.032
1292.505
1290.884
1289.173
1287.325
1285.344
1283.217
1280.925
1278.444
1275.736
1272.74
1269.364
1265.476
1298.091
1296.822
1295.473
1294.04
1292.512
1299.284
1298.092
1296.826
1295.478
1294.042
1300.404
1299.285
1298.095
1296.829
1295.478
1301.455
1300.405
1299.288
1298.098
1296.829
1302.442
1301.457
1300.408
1299.29
1298.098
1303.367
1302.444
1301.46
1300.411
1299.292
1304.233
1303.369
1302.447
1301.463
1300.414
1305.042
1304.235
1303.372
1302.452
1301.469
1305.797
1305.044
1304.239
1303.379
1302.459
1306.499
1305.799
1305.049
1304.247
1303.39
1307.15
1306.502
1305.805
1305.059
1304.263
1303.421
1302.514
1301.547
1300.517
1299.422
1298.259
1297.024
1295.713
1294.322
1292.845
1307.752
1307.153
1306.507
1305.815
1305.075
1304.286
1303.437
1302.53
1301.564
1300.536
1299.443
1298.282
1297.049
1295.739
1294.347
1308.305
1307.755
1307.159
1306.518
1305.831
1305.094
1304.3
1303.451
1302.546
1301.581
1300.555
1299.463
1298.303
1297.07
1295.759
1308.812
1308.308
1307.761
1307.169
1306.533
1305.848
1305.107
1304.314
1303.466
1302.562
1301.598
1300.573
1299.482
1298.323
1297.089
1309.273
1308.815
1308.314
1307.77
1307.183
1306.548
1305.859
1305.119
1304.327
1303.481
1302.578
1301.615
1300.591
1299.501
1298.341
1292.48
1290.838
1289.089
1287.224
1285.238
1283.104
1280.79
1278.289
1275.571
1272.594
1269.317
1265.963
1294.022
1292.486
1290.851
1289.111
1287.262
1285.281
1283.139
1280.832
1278.338
1275.623
1272.639
1269.336
1265.906
1295.467
1294.026
1292.496
1290.869
1289.143
1287.299
1285.312
1283.177
1280.878
1278.389
1275.678
1272.69
1269.361
1265.818
1296.821
1295.47
1294.035
1292.511
1290.894
1289.177
1287.328
1285.346
1283.219
1280.926
1278.446
1275.74
1272.751
1269.4
1265.7
1298.092
1296.823
1295.476
1294.046
1292.528
1290.929
1289.204
1287.36
1285.384
1283.263
1280.979
1278.508
1275.812
1272.832
1269.47
1299.285
1298.094
1296.828
1295.483
1294.052
1300.405
1299.286
1298.097
1296.833
1295.485
1301.456
1300.406
1299.289
1298.1
1296.833
1302.442
1301.457
1300.408
1299.291
1298.1
1303.367
1302.444
1301.46
1300.411
1299.292
1304.232
1303.368
1302.446
1301.462
1300.412
1305.041
1304.234
1303.371
1302.45
1301.465
1305.796
1305.043
1304.238
1303.376
1302.455
1306.498
1305.798
1305.048
1304.244
1303.383
1307.149
1306.501
1305.803
1305.055
1304.254
1307.751
1307.152
1306.506
1305.812
1305.07
1304.285
1303.436
1302.529
1301.563
1300.536
1299.443
1298.283
1297.051
1295.744
1294.359
1308.305
1307.754
1307.158
1306.516
1305.828
1305.093
1304.299
1303.451
1302.545
1301.581
1300.555
1299.464
1298.306
1297.075
1295.767
1308.812
1308.308
1307.76
1307.168
1306.531
1305.847
1305.106
1304.313
1303.466
1302.562
1301.599
1300.574
1299.484
1298.326
1297.094
1309.273
1308.815
1308.314
1307.769
1307.182
1306.547
1305.859
1305.119
1304.327
1303.481
1302.578
1301.616
1300.592
1299.502
1298.343
1309.689
1309.276
1308.82
1308.323
1307.783
1307.197
1306.558
1305.871
1305.132
1304.342
1303.496
1302.594
1301.633
1300.609
1299.52
1294.023
1292.486
1290.852
1289.113
1287.264
1285.282
1283.14
1280.833
1278.338
1275.624
1272.644
1269.351
1265.97
1295.467
1294.027
1292.498
1290.872
1289.147
1287.302
1285.314
1283.179
1280.879
1278.39
1275.68
1272.697
1269.386
1265.943
1296.822
1295.471
1294.037
1292.515
1290.901
1289.181
1287.33
1285.348
1283.22
1280.927
1278.446
1275.742
1272.758
1269.429
1265.882
1298.093
1296.825
1295.479
1294.051
1292.538
1290.932
1289.206
1287.361
1285.385
1283.264
1280.98
1278.508
1275.812
1272.833
1269.487
1299.286
1298.095
1296.831
1295.489
1294.067
1292.569
1290.956
1289.235
1287.395
1285.425
1283.312
1281.037
1278.578
1275.897
1272.935
1300.406
1299.287
1298.099
1296.837
1295.495
1301.457
1300.407
1299.291
1298.104
1296.839
1302.443
1301.458
1300.409
1299.293
1298.104
1303.367
1302.444
1301.46
1300.412
1299.293
1304.232
1303.368
1302.446
1301.462
1300.412
1305.041
1304.234
1303.371
1302.449
1301.464
1305.796
1305.043
1304.237
1303.374
1302.452
1306.498
1305.798
1305.046
1304.241
1303.379
1307.149
1306.5
1305.802