/*--------------------------------*- C++ -*----------------------------------*\
| =========                 |                                                 |
| \\      /  F ield         | OpenFOAM: The Open Source CFD Toolbox           |
|  \\    /   O peration     | Version:  2306                                  |
|   \\  /    A nd           | Website:  www.openfoam.com                      |
|    \\/     M anipulation  |                                                 |
\*---------------------------------------------------------------------------*/
FoamFile
{
    version     2.0;
    format      ascii;
    arch        "LSB;label=32;scalar=64";
    class       volScalarField;
    location    "0.6/electrolyte";
    object      T;
}
// * * * * * * * * * * * * * * * * * * * * * * * * * * * * * * * * * * * * * //

dimensions      [0 0 0 1 0 0 0];

internalField   nonuniform List<scalar> 
4000
(
1222.014
1221.848
1224.01
1222.023
1221.464
1224
1221.857
1225.813
1224.014
1222.031
1220.749
1223.974
1221.473
1225.844
1224.004
1221.866
1227.473
1225.813
1224.018
1222.039
1219.542
1223.922
1220.76
1225.913
1223.977
1221.483
1227.514
1225.844
1224.007
1221.874
1229.057
1227.469
1225.812
1224.021
1222.048
1217.761
1223.823
1219.56
1226.033
1223.923
1220.772
1227.607
1225.912
1223.98
1221.492
1229.1
1227.51
1225.843
1224.01
1221.883
1230.59
1229.05
1227.465
1225.812
1224.025
1215.732
1223.647
1217.795
1226.22
1223.821
1219.578
1227.772
1226.03
1223.924
1220.784
1229.196
1227.602
1225.91
1223.982
1221.502
1230.631
1229.093
1227.506
1225.842
1224.013
1232.079
1230.581
1229.043
1227.46
1225.811
1213.876
1223.36
1215.788
1226.461
1223.641
1217.829
1228.033
1226.212
1223.819
1219.598
1229.367
1227.765
1226.026
1223.925
1220.797
1230.725
1229.188
1227.597
1225.908
1223.984
1232.118
1230.622
1229.085
1227.501
1225.84
1233.523
1232.068
1230.572
1229.036
1227.456
1212.496
1223.022
1213.952
1226.653
1223.352
1215.843
1228.385
1226.446
1223.634
1217.863
1229.641
1228.022
1226.204
1223.817
1219.617
1230.891
1229.358
1227.758
1226.022
1223.925
1232.207
1230.715
1229.18
1227.591
1225.905
1233.561
1232.107
1230.613
1229.078
1227.496
1234.923
1233.511
1232.057
1230.562
1229.029
1211.768
1222.729
1212.587
1226.767
1223.017
1214.026
1228.713
1226.633
1223.345
1215.896
1230.012
1228.367
1226.43
1223.628
1217.896
1231.157
1229.627
1228.011
1226.196
1223.815
1232.366
1230.88
1229.348
1227.75
1226.017
1233.645
1232.196
1230.705
1229.172
1227.585
1234.959
1233.549
1232.096
1230.603
1229.07
1236.275
1234.91
1233.499
1232.046
1230.553
1211.768
1222.561
1211.867
1226.819
1222.727
1212.676
1228.959
1226.744
1223.011
1214.099
1230.368
1228.688
1226.612
1223.337
1215.949
1231.519
1229.992
1228.348
1226.415
1223.621
1232.619
1231.143
1229.614
1227.999
1226.187
1233.796
1232.353
1230.868
1229.338
1227.742
1235.039
1233.633
1232.184
1230.694
1229.163
1236.31
1234.945
1233.536
1232.085
1230.593
1237.58
1236.262
1234.896
1233.487
1232.035
1212.496
1222.561
1211.867
1226.836
1222.561
1211.963
1229.116
1226.795
1222.724
1212.763
1230.647
1228.931
1226.721
1223.005
1214.171
1231.871
1230.343
1228.664
1226.592
1223.329
1232.964
1231.499
1229.972
1228.329
1226.399
1234.036
1232.603
1231.128
1229.6
1227.987
1235.182
1233.782
1232.34
1230.856
1229.327
1236.386
1235.025
1233.62
1232.172
1230.684
1237.613
1236.295
1234.932
1233.524
1232.073
1238.836
1237.566
1236.248
1234.883
1233.474
1213.876
1222.729
1212.587
1226.836
1222.561
1211.963
1229.191
1226.813
1222.56
1212.058
1230.832
1229.087
1226.772
1222.722
1212.849
1232.15
1230.619
1228.904
1226.698
1222.999
1233.301
1231.845
1230.317
1228.639
1226.571
1234.364
1232.943
1231.478
1229.952
1228.31
1235.411
1234.02
1232.587
1231.112
1229.586
1236.523
1235.167
1233.768
1232.326
1230.844
1237.686
1236.372
1235.011
1233.606
1232.16
1238.868
1237.598
1236.281
1234.918
1233.511
1240.043
1238.821
1237.551
1236.233
1234.869
1215.732
1223.022
1213.952
1226.819
1222.727
1212.676
1229.191
1226.813
1222.56
1212.058
1230.923
1229.161
1226.789
1222.559
1212.151
1232.338
1230.802
1229.058
1226.748
1222.718
1233.571
1232.122
1230.59
1228.876
1226.675
1234.685
1233.276
1231.82
1230.292
1228.615
1235.722
1234.343
1232.922
1231.457
1229.931
1236.741
1235.394
1234.003
1232.571
1231.097
1237.817
1236.508
1235.152
1233.753
1232.313
1238.938
1237.671
1236.357
1234.997
1233.593
1240.074
1238.853
1237.584
1236.267
1234.904
1241.202
1240.028
1238.806
1237.536
1236.219
1217.761
1223.36
1215.788
1226.767
1223.017
1214.026
1229.116
1226.795
1222.724
1212.763
1230.923
1229.161
1226.789
1222.559
1212.151
1232.431
1230.892
1229.132
1226.765
1222.558
1233.753
1232.308
1230.772
1229.028
1226.724
1234.943
1233.543
1232.094
1230.562
1228.848
1236.028
1234.66
1233.251
1231.795
1230.267
1237.039
1235.701
1234.322
1232.901
1231.436
1238.027
1236.724
1235.377
1233.986
1232.555
1239.064
1237.802
1236.492
1235.137
1233.739
1240.142
1238.923
1237.656
1236.342
1234.983
1241.231
1240.059
1238.838
1237.569
1236.253
1242.312
1241.187
1240.013
1238.791
1237.522
1219.542
1223.647
1217.795
1226.653
1223.352
1215.843
1228.959
1226.744
1223.011
1214.099
1230.832
1229.087
1226.772
1222.722
1212.849
1232.431
1230.892
1229.132
1226.765
1222.558
1233.844
1232.4
1230.861
1229.102
1226.741
1235.117
1233.724
1232.278
1230.741
1228.999
1236.274
1234.916
1233.516
1232.065
1230.533
1237.331
1236.004
1234.636
1233.226
1231.769
1238.312
1237.018
1235.68
1234.301
1232.88
1239.266
1238.009
1236.706
1235.359
1233.969
1240.264
1239.049
1237.786
1236.476
1235.122
1241.297
1240.127
1238.908
1237.641
1236.327
1242.34
1241.216
1240.043
1238.823
1237.554
1243.373
1242.296
1241.171
1239.998
1238.776
1220.749
1223.823
1219.56
1226.461
1223.641
1217.829
1228.713
1226.633
1223.345
1215.896
1230.647
1228.931
1226.721
1223.005
1214.171
1232.338
1230.802
1229.058
1226.748
1222.718
1233.844
1232.4
1230.861
1229.102
1226.741
1235.205
1233.814
1232.37
1230.831
1229.072
1236.442
1235.089
1233.695
1232.248
1230.711
1237.567
1236.248
1234.889
1233.488
1232.037
1238.592
1237.307
1235.98
1234.611
1233.201
1239.54
1238.291
1236.997
1235.659
1234.28
1240.458
1239.248
1237.991
1236.689
1235.341
1241.415
1240.248
1239.032
1237.77
1236.46
1242.404
1241.282
1240.111
1238.892
1237.626
1243.401
1242.325
1241.201
1240.028
1238.807
1244.387
1243.358
1242.281
1241.156
1239.983
1221.464
1223.922
1220.76
1226.22
1223.821
1219.578
1228.385
1226.446
1223.634
1217.863
1230.368
1228.688
1226.612
1223.337
1215.949
1232.15
1230.619
1228.904
1226.698
1222.999
1233.753
1232.308
1230.772
1229.028
1226.724
1235.205
1233.814
1232.37
1230.831
1229.072
1236.525
1235.176
1233.785
1232.339
1230.8
1237.727
1236.414
1235.061
1233.666
1232.218
1238.819
1237.542
1236.222
1234.862
1233.461
1239.81
1238.569
1237.284
1235.956
1234.587
1240.723
1239.52
1238.27
1236.976
1235.638
1241.604
1240.441
1239.231
1237.974
1236.671
1242.519
1241.399
1240.232
1239.016
1237.753
1243.464
1242.389
1241.266
1240.095
1238.877
1244.414
1243.386
1242.31
1241.185
1240.013
1245.354
1244.372
1243.343
1242.266
1241.141
1221.848
1223.974
1221.473
1226.033
1223.923
1220.772
1228.033
1226.212
1223.819
1219.598
1230.012
1228.367
1226.43
1223.628
1217.896
1231.871
1230.343
1228.664
1226.592
1223.329
1233.571
1232.122
1230.59
1228.876
1226.675
1235.117
1233.724
1232.278
1230.741
1228.999
1236.525
1235.176
1233.785
1232.339
1230.8
1237.808
1236.498
1235.147
1233.755
1232.309
1238.973
1237.701
1236.387
1235.033
1233.637
1240.029
1238.794
1237.516
1236.196
1234.835
1240.984
1239.788
1238.546
1237.26
1235.932
1241.86
1240.703
1239.499
1238.25
1236.955
1242.702
1241.586
1240.423
1239.213
1237.956
1243.575
1242.503
1241.383
1240.215
1239
1244.475
1243.448
1242.373
1241.251
1240.08
1245.38
1244.399
1243.371
1242.294
1241.17
1246.274
1245.339
1244.357
1243.328
1242.251
1222.014
1224
1221.857
1225.913
1223.977
1221.483
1227.772
1226.03
1223.924
1220.784
1229.641
1228.022
1226.204
1223.817
1219.617
1231.519
1229.992
1228.348
1226.415
1223.621
1233.301
1231.845
1230.317
1228.639
1226.571
1234.943
1233.543
1232.094
1230.562
1228.848
1236.442
1235.089
1233.695
1232.248
1230.711
1237.808
1236.498
1235.147
1233.755
1232.309
1239.051
1237.781
1236.47
1235.119
1233.726
1240.178
1238.948
1237.675
1236.36
1235.005
1241.196
1240.005
1238.77
1237.491
1236.17
1242.113
1240.962
1239.765
1238.523
1237.237
1242.95
1241.84
1240.683
1239.479
1238.229
1243.753
1242.685
1241.569
1240.405
1239.195
1244.584
1243.559
1242.487
1241.367
1240.199
1245.44
1244.46
1243.433
1242.358
1241.235
1246.3
1245.365
1244.384
1243.355
1242.279
1247.148
1246.259
1245.324
1244.342
1243.313
1224.01
1222.023
1225.844
1224.004
1221.866
1227.607
1225.912
1223.98
1221.492
1229.367
1227.765
1226.026
1223.925
1220.797
1231.157
1229.627
1228.011
1226.196
1223.815
1232.964
1231.499
1229.972
1228.329
1226.399
1234.685
1233.276
1231.82
1230.292
1228.615
1236.274
1234.916
1233.516
1232.065
1230.533
1237.727
1236.414
1235.061
1233.666
1232.218
1239.051
1237.781
1236.47
1235.119
1233.726
1240.253
1239.025
1237.755
1236.443
1235.09
1241.34
1240.154
1238.923
1237.649
1236.333
1242.319
1241.173
1239.981
1238.745
1237.466
1243.197
1242.091
1240.94
1239.743
1238.5
1243.995
1242.931
1241.82
1240.663
1239.458
1244.758
1243.736
1242.667
1241.551
1240.387
1245.546
1244.568
1243.543
1242.471
1241.35
1246.358
1245.425
1244.445
1243.417
1242.342
1247.173
1246.285
1245.351
1244.369
1243.34
1247.976
1247.133
1246.245
1245.309
1244.327
1225.813
1224.014
1222.031
1227.514
1225.844
1224.007
1221.874
1229.196
1227.602
1225.91
1223.982
1221.502
1230.891
1229.358
1227.758
1226.022
1223.925
1232.619
1231.143
1229.614
1227.999
1226.187
1234.364
1232.943
1231.478
1229.952
1228.31
1236.028
1234.66
1233.251
1231.795
1230.267
1237.567
1236.248
1234.889
1233.488
1232.037
1238.973
1237.701
1236.387
1235.033
1233.637
1240.253
1239.025
1237.755
1236.443
1235.09
1241.413
1240.228
1239
1237.728
1236.415
1242.459
1241.317
1240.129
1238.897
1237.623
1243.397
1242.296
1241.149
1239.957
1238.721
1244.235
1243.176
1242.07
1240.918
1239.72
1244.994
1243.976
1242.912
1241.801
1240.642
1245.716
1244.741
1243.719
1242.65
1241.533
1246.462
1245.531
1244.553
1243.527
1242.454
1247.23
1246.343
1245.41
1244.429
1243.402
1248.001
1247.159
1246.27
1245.336
1244.354
1248.759
1247.962
1247.119
1246.23
1245.294
1227.473
1225.813
1224.018
1222.039
1229.1
1227.51
1225.843
1224.01
1221.883
1230.725
1229.188
1227.597
1225.908
1223.984
1232.366
1230.88
1229.348
1227.75
1226.017
1234.036
1232.603
1231.128
1229.6
1227.987
1235.722
1234.343
1232.922
1231.457
1229.931
1237.331
1236.004
1234.636
1233.226
1231.769
1238.819
1237.542
1236.222
1234.862
1233.461
1240.178
1238.948
1237.675
1236.36
1235.005
1241.413
1240.228
1239
1237.728
1236.415
1242.53
1241.389
1240.203
1238.974
1237.702
1243.534
1242.436
1241.293
1240.105
1238.872
1244.43
1243.375
1242.274
1241.126
1239.934
1245.228
1244.215
1243.155
1242.049
1240.896
1245.947
1244.975
1243.957
1242.893
1241.781
1246.628
1245.7
1244.724
1243.702
1242.632
1247.333
1246.447
1245.515
1244.537
1243.511
1248.057
1247.216
1246.328
1245.395
1244.414
1248.784
1247.987
1247.144
1246.256
1245.32
1249.498
1248.746
1247.948
1247.104
1246.215
1229.057
1227.469
1225.812
1224.021
1222.048
1230.631
1229.093
1227.506
1225.842
1224.013
1232.207
1230.715
1229.18
1227.591
1225.905
1233.796
1232.353
1230.868
1229.338
1227.742
1235.411
1234.02
1232.587
1231.112
1229.586
1237.039
1235.701
1234.322
1232.901
1231.436
1238.592
1237.307
1235.98
1234.611
1233.201
1240.029
1238.794
1237.516
1236.196
1234.835
1241.34
1240.154
1238.923
1237.649
1236.333
1242.53
1241.389
1240.203
1238.974
1237.702
1243.603
1242.506
1241.365
1240.179
1238.948
1244.564
1243.511
1242.413
1241.269
1240.08
1245.419
1244.409
1243.353
1242.251
1241.103
1246.176
1245.208
1244.194
1243.134
1242.027
1246.854
1245.929
1244.957
1243.938
1242.873
1247.495
1246.612
1245.683
1244.707
1243.684
1248.158
1247.318
1246.432
1245.499
1244.521
1248.839
1248.043
1247.201
1246.313
1245.379
1249.523
1248.77
1247.973
1247.13
1246.241
1250.193
1249.485
1248.732
1247.933
1247.09
1230.59
1229.05
1227.465
1225.812
1224.025
1232.118
1230.622
1229.085
1227.501
1225.84
1233.645
1232.196
1230.705
1229.172
1227.585
1235.182
1233.782
1232.34
1230.856
1229.327
1236.741
1235.394
1234.003
1232.571
1231.097
1238.312
1237.018
1235.68
1234.301
1232.88
1239.81
1238.569
1237.284
1235.956
1234.587
1241.196
1240.005
1238.77
1237.491
1236.17
1242.459
1241.317
1240.129
1238.897
1237.623
1243.603
1242.506
1241.365
1240.179
1238.948
1244.631
1243.58
1242.483
1241.341
1240.154
1245.55
1244.542
1243.489
1242.39
1241.245
1246.363
1245.398
1244.388
1243.331
1242.229
1247.079
1246.157
1245.188
1244.174
1243.113
1247.717
1246.837
1245.911
1244.938
1243.919
1248.318
1247.48
1246.596
1245.666
1244.69
1248.938
1248.143
1247.302
1246.416
1245.484
1249.577
1248.825
1248.028
1247.186
1246.298
1250.217
1249.509
1248.756
1247.958
1247.115
1250.845
1250.18
1249.471
1248.718
1247.919
1232.079
1230.581
1229.043
1227.46
1225.811
1233.561
1232.107
1230.613
1229.078
1227.496
1235.039
1233.633
1232.184
1230.694
1229.163
1236.523
1235.167
1233.768
1232.326
1230.844
1238.027
1236.724
1235.377
1233.986
1232.555
1239.54
1238.291
1236.997
1235.659
1234.28
1240.984
1239.788
1238.546
1237.26
1235.932
1242.319
1241.173
1239.981
1238.745
1237.466
1243.534
1242.436
1241.293
1240.105
1238.872
1244.631
1243.58
1242.483
1241.341
1240.154
1245.616
1244.609
1243.557
1242.46
1241.317
1246.491
1245.529
1244.52
1243.467
1242.367
1247.262
1246.343
1245.377
1244.367
1243.309
1247.938
1247.06
1246.137
1245.168
1244.154
1248.535
1247.7
1246.819
1245.892
1244.92
1249.095
1248.302
1247.464
1246.58
1245.649
1249.674
1248.924
1248.128
1247.287
1246.401
1250.271
1249.563
1248.811
1248.014
1247.171
1250.868
1250.204
1249.495
1248.742
1247.944
1251.453
1250.832
1250.167
1249.457
1248.704
1233.523
1232.068
1230.572
1229.036
1227.456
1234.959
1233.549
1232.096
1230.603
1229.07
1236.386
1235.025
1233.62
1232.172
1230.684
1237.817
1236.508
1235.152
1233.753
1232.313
1239.266
1238.009
1236.706
1235.359
1233.969
1240.723
1239.52
1238.27
1236.976
1235.638
1242.113
1240.962
1239.765
1238.523
1237.237
1243.397
1242.296
1241.149
1239.957
1238.721
1244.564
1243.511
1242.413
1241.269
1240.08
1245.616
1244.609
1243.557
1242.46
1241.317
1246.556
1245.594
1244.587
1243.535
1242.437
1247.388
1246.47
1245.507
1244.499
1243.444
1248.118
1247.243
1246.323
1245.357
1244.345
1248.752
1247.919
1247.041
1246.118
1245.149
1249.31
1248.519
1247.683
1246.801
1245.874
1249.829
1249.08
1248.286
1247.448
1246.563
1250.367
1249.66
1248.909
1248.113
1247.272
1250.921
1250.257
1249.549
1248.797
1247.999
1251.476
1250.855
1250.19
1249.481
1248.728
1252.019
1251.44
1250.818
1250.153
1249.444
1234.923
1233.511
1232.057
1230.562
1229.029
1236.31
1234.945
1233.536
1232.085
1230.593
1237.686
1236.372
1235.011
1233.606
1232.16
1239.064
1237.802
1236.492
1235.137
1233.739
1240.458
1239.248
1237.991
1236.689
1235.341
1241.86
1240.703
1239.499
1238.25
1236.955
1243.197
1242.091
1240.94
1239.743
1238.5
1244.43
1243.375
1242.274
1241.126
1239.934
1245.55
1244.542
1243.489
1242.39
1241.245
1246.556
1245.594
1244.587
1243.535
1242.437
1247.452
1246.535
1245.573
1244.566
1243.512
1248.241
1247.368
1246.45
1245.486
1244.477
1248.929
1248.099
1247.223
1246.303
1245.336
1249.523
1248.734
1247.901
1247.022
1246.099
1250.04
1249.293
1248.502
1247.665
1246.783
1250.52
1249.814
1249.065
1248.271
1247.431
1251.016
1250.353
1249.646
1248.894
1248.098
1251.529
1250.908
1250.244
1249.535
1248.782
1252.042
1251.463
1250.842
1250.177
1249.467
1252.542
1252.006
1251.427
1250.805
1250.14
1236.275
1234.91
1233.499
1232.046
1230.553
1237.613
1236.295
1234.932
1233.524
1232.073
1238.938
1237.671
1236.357
1234.997
1233.593
1240.264
1239.049
1237.786
1236.476
1235.122
1241.604
1240.441
1239.231
1237.974
1236.671
1242.95
1241.84
1240.683
1239.479
1238.229
1244.235
1243.176
1242.07
1240.918
1239.72
1245.419
1244.409
1243.353
1242.251
1241.103
1246.491
1245.529
1244.52
1243.467
1242.367
1247.452
1246.535
1245.573
1244.566
1243.512
1248.304
1247.431
1246.514
1245.552
1244.544
1249.051
1248.222
1247.348
1246.429
1245.465
1249.698
1248.911
1248.08
1247.204
1246.283
1250.251
1249.506
1248.716
1247.882
1247.004
1250.728
1250.024
1249.277
1248.485
1247.648
1251.167
1250.505
1249.799
1249.049
1248.255
1251.622
1251.002
1250.339
1249.631
1248.879
1252.094
1251.516
1250.895
1250.23
1249.521
1252.565
1252.029
1251.45
1250.829
1250.163
1253.024
1252.53
1251.994
1251.414
1250.792
1237.58
1236.262
1234.896
1233.487
1232.035
1238.868
1237.598
1236.281
1234.918
1233.511
1240.142
1238.923
1237.656
1236.342
1234.983
1241.415
1240.248
1239.032
1237.77
1236.46
1242.702
1241.586
1240.423
1239.213
1237.956
1243.995
1242.931
1241.82
1240.663
1239.458
1245.228
1244.215
1243.155
1242.049
1240.896
1246.363
1245.398
1244.388
1243.331
1242.229
1247.388
1246.47
1245.507
1244.499
1243.444
1248.304
1247.431
1246.514
1245.552
1244.544
1249.113
1248.284
1247.411
1246.494
1245.531
1249.818
1249.032
1248.203
1247.328
1246.409
1250.423
1249.679
1248.892
1248.061
1247.184
1250.935
1250.233
1249.488
1248.698
1247.864
1251.372
1250.712
1250.008
1249.26
1248.468
1251.771
1251.152
1250.49
1249.784
1249.034
1252.186
1251.609
1250.988
1250.325
1249.617
1252.616
1252.081
1251.502
1250.881
1250.216
1253.046
1252.553
1252.016
1251.437
1250.815
1253.464
1253.012
1252.517
1251.981
1251.401
1238.836
1237.566
1236.248
1234.883
1233.474
1240.074
1238.853
1237.584
1236.267
1234.904
1241.297
1240.127
1238.908
1237.641
1236.327
1242.519
1241.399
1240.232
1239.016
1237.753
1243.753
1242.685
1241.569
1240.405
1239.195
1244.994
1243.976
1242.912
1241.801
1240.642
1246.176
1245.208
1244.194
1243.134
1242.027
1247.262
1246.343
1245.377
1244.367
1243.309
1248.241
1247.368
1246.45
1245.486
1244.477
1249.113
1248.284
1247.411
1246.494
1245.531
1249.878
1249.094
1248.265
1247.391
1246.473
1250.541
1249.799
1249.013
1248.183
1247.309
1251.105
1250.405
1249.661
1248.874
1248.042
1251.577
1250.918
1250.216
1249.47
1248.68
1251.974
1251.357
1250.696
1249.992
1249.243
1252.333
1251.757
1251.138
1250.475
1249.769
1252.708
1252.173
1251.595
1250.975
1250.31
1253.097
1252.604
1252.068
1251.489
1250.867
1253.486
1253.034
1252.54
1252.004
1251.424
1253.862
1253.452
1252.999
1252.505
1251.968
1240.043
1238.821
1237.551
1236.233
1234.869
1241.231
1240.059
1238.838
1237.569
1236.253
1242.404
1241.282
1240.111
1238.892
1237.626
1243.575
1242.503
1241.383
1240.215
1239
1244.758
1243.736
1242.667
1241.551
1240.387
1245.947
1244.975
1243.957
1242.893
1241.781
1247.079
1246.157
1245.188
1244.174
1243.113
1248.118
1247.243
1246.323
1245.357
1244.345
1249.051
1248.222
1247.348
1246.429
1245.465
1249.878
1249.094
1248.265
1247.391
1246.473
1250.601
1249.86
1249.074
1248.245
1247.371
1251.222
1250.523
1249.781
1248.994
1248.164
1251.745
1251.088
1250.387
1249.643
1248.855
1252.177
1251.561
1250.902
1250.199
1249.453
1252.534
1251.959
1251.341
1250.68
1249.975
1252.854
1252.32
1251.743
1251.123
1250.46
1253.188
1252.695
1252.16
1251.582
1250.961
1253.536
1253.085
1252.591
1252.055
1251.476
1253.885
1253.474
1253.022
1252.528
1251.991
1254.22
1253.851
1253.44
1252.987
1252.492
1241.202
1240.028
1238.806
1237.536
1236.219
1242.34
1241.216
1240.043
1238.823
1237.554
1243.464
1242.389
1241.266
1240.095
1238.877
1244.584
1243.559
1242.487
1241.367
1240.199
1245.716
1244.741
1243.719
1242.65
1241.533
1246.854
1245.929
1244.957
1243.938
1242.873
1247.938
1247.06
1246.137
1245.168
1244.154
1248.929
1248.099
1247.223
1246.303
1245.336
1249.818
1249.032
1248.203
1247.328
1246.409
1250.601
1249.86
1249.074
1248.245
1247.371
1251.281
1250.583
1249.841
1249.056
1248.226
1251.861
1251.205
1250.505
1249.762
1248.976
1252.343
1251.728
1251.071
1250.37
1249.625
1252.735
1252.161
1251.544
1250.885
1250.182
1253.052
1252.519
1251.944
1251.326
1250.664
1253.332
1252.84
1252.306
1251.729
1251.109
1253.626
1253.175
1252.682
1252.146
1251.568
1253.934
1253.524
1253.072
1252.578
1252.042
1254.242
1253.873
1253.462
1253.01
1252.515
1254.536
1254.208
1253.839
1253.428
1252.975
1242.312
1241.187
1240.013
1238.791
1237.522
1243.401
1242.325
1241.201
1240.028
1238.807
1244.475
1243.448
1242.373
1241.251
1240.08
1245.546
1244.568
1243.543
1242.471
1241.35
1246.628
1245.7
1244.724
1243.702
1242.632
1247.717
1246.837
1245.911
1244.938
1243.919
1248.752
1247.919
1247.041
1246.118
1245.149
1249.698
1248.911
1248.08
1247.204
1246.283
1250.541
1249.799
1249.013
1248.183
1247.309
1251.281
1250.583
1249.841
1249.056
1248.226
1251.92
1251.264
1250.565
1249.823
1249.037
1252.458
1251.844
1251.187
1250.487
1249.744
1252.899
1252.327
1251.711
1251.053
1250.352
1253.251
1252.719
1252.145
1251.528
1250.868
1253.529
1253.038
1252.504
1251.929
1251.31
1253.769
1253.319
1252.826
1252.292
1251.714
1254.023
1253.614
1253.162
1252.669
1252.133
1254.291
1253.922
1253.512
1253.06
1252.565
1254.558
1254.23
1253.861
1253.45
1252.997
1254.812
1254.525
1254.197
1253.827
1253.416
1243.373
1242.296
1241.171
1239.998
1238.776
1244.414
1243.386
1242.31
1241.185
1240.013
1245.44
1244.46
1243.433
1242.358
1241.235
1246.462
1245.531
1244.553
1243.527
1242.454
1247.495
1246.612
1245.683
1244.707
1243.684
1248.535
1247.7
1246.819
1245.892
1244.92
1249.523
1248.734
1247.901
1247.022
1246.099
1250.423
1249.679
1248.892
1248.061
1247.184
1251.222
1250.523
1249.781
1248.994
1248.164
1251.92
1251.264
1250.565
1249.823
1249.037
1252.516
1251.902
1251.246
1250.547
1249.804
1253.013
1252.441
1251.827
1251.17
1250.47
1253.414
1252.883
1252.31
1251.695
1251.036
1253.726
1253.236
1252.703
1252.129
1251.512
1253.965
1253.515
1253.023
1252.49
1251.913
1254.166
1253.756
1253.306
1252.813
1252.278
1254.38
1254.011
1253.601
1253.149
1252.656
1254.607
1254.28
1253.91
1253.5
1253.047
1254.834
1254.547
1254.219
1253.849
1253.438
1255.048
1254.801
1254.514
1254.185
1253.815
1244.387
1243.358
1242.281
1241.156
1239.983
1245.38
1244.399
1243.371
1242.294
1241.17
1246.358
1245.425
1244.445
1243.417
1242.342
1247.333
1246.447
1245.515
1244.537
1243.511
1248.318
1247.48
1246.596
1245.666
1244.69
1249.31
1248.519
1247.683
1246.801
1245.874
1250.251
1249.506
1248.716
1247.882
1247.004
1251.105
1250.405
1249.661
1248.874
1248.042
1251.861
1251.205
1250.505
1249.762
1248.976
1252.516
1251.902
1251.246
1250.547
1249.804
1253.07
1252.499
1251.885
1251.228
1250.529
1253.527
1252.997
1252.424
1251.81
1251.152
1253.888
1253.399
1252.867
1252.294
1251.678
1254.16
1253.711
1253.22
1252.688
1252.113
1254.359
1253.951
1253.501
1253.009
1252.475
1254.521
1254.153
1253.743
1253.292
1252.799
1254.695
1254.368
1253.999
1253.589
1253.136
1254.883
1254.596
1254.268
1253.898
1253.487
1255.07
1254.823
1254.536
1254.207
1253.837
1255.243
1255.037
1254.79
1254.502
1254.173
1245.354
1244.372
1243.343
1242.266
1241.141
1246.3
1245.365
1244.384
1243.355
1242.279
1247.23
1246.343
1245.41
1244.429
1243.402
1248.158
1247.318
1246.432
1245.499
1244.521
1249.095
1248.302
1247.464
1246.58
1245.649
1250.04
1249.293
1248.502
1247.665
1246.783
1250.935
1250.233
1249.488
1248.698
1247.864
1251.745
1251.088
1250.387
1249.643
1248.855
1252.458
1251.844
1251.187
1250.487
1249.744
1253.07
1252.499
1251.885
1251.228
1250.529
1253.584
1253.054
1252.482
1251.868
1251.211
1254
1253.511
1252.98
1252.408
1251.793
1254.321
1253.873
1253.383
1252.851
1252.277
1254.553
1254.145
1253.696
1253.205
1252.672
1254.713
1254.346
1253.937
1253.486
1252.994
1254.835
1254.508
1254.14
1253.73
1253.279
1254.97
1254.684
1254.356
1253.987
1253.576
1255.118
1254.872
1254.584
1254.256
1253.886
1255.265
1255.059
1254.812
1254.524
1254.195
1255.398
1255.232
1255.026
1254.779
1254.491
1246.274
1245.339
1244.357
1243.328
1242.251
1247.173
1246.285
1245.351
1244.369
1243.34
1248.057
1247.216
1246.328
1245.395
1244.414
1248.938
1248.143
1247.302
1246.416
1245.484
1249.829
1249.08
1248.286
1247.448
1246.563
1250.728
1250.024
1249.277
1248.485
1247.648
1251.577
1250.918
1250.216
1249.47
1248.68
1252.343
1251.728
1251.071
1250.37
1249.625
1253.013
1252.441
1251.827
1251.17
1250.47
1253.584
1253.054
1252.482
1251.868
1251.211
1254.056
1253.568
1253.037
1252.465
1251.851
1254.432
1253.984
1253.495
1252.964
1252.391
1254.713
1254.306
1253.857
1253.367
1252.835
1254.906
1254.539
1254.131
1253.681
1253.19
1255.027
1254.7
1254.332
1253.923
1253.472
1255.11
1254.823
1254.496
1254.127
1253.717
1255.205
1254.959
1254.672
1254.344
1253.974
1255.313
1255.107
1254.86
1254.573
1254.244
1255.42
1255.254
1255.048
1254.8
1254.513
1255.513
1255.388
1255.222
1255.015
1254.768
1247.148
1246.259
1245.324
1244.342
1243.313
1248.001
1247.159
1246.27
1245.336
1244.354
1248.839
1248.043
1247.201
1246.313
1245.379
1249.674
1248.924
1248.128
1247.287
1246.401
1250.52
1249.814
1249.065
1248.271
1247.431
1251.372
1250.712
1250.008
1249.26
1248.468
1252.177
1251.561
1250.902
1250.199
1249.453
1252.899
1252.327
1251.711
1251.053
1250.352
1253.527
1252.997
1252.424
1251.81
1251.152
1254.056
1253.568
1253.037
1252.465
1251.851
1254.488
1254.041
1253.552
1253.021
1252.449
1254.824
1254.417
1253.969
1253.479
1252.948
1255.065
1254.698
1254.291
1253.842
1253.352
1255.219
1254.892
1254.525
1254.116
1253.666
1255.3
1255.014
1254.686
1254.318
1253.909
1255.344
1255.098
1254.811
1254.483
1254.114
1255.399
1255.194
1254.947
1254.66
1254.331
1255.468
1255.302
1255.096
1254.849
1254.561
1255.534
1255.409
1255.243
1255.037
1254.789
1255.588
1255.502
1255.377
1255.211
1255.004
1247.976
1247.133
1246.245
1245.309
1244.327
1248.784
1247.987
1247.144
1246.256
1245.32
1249.577
1248.825
1248.028
1247.186
1246.298
1250.367
1249.66
1248.909
1248.113
1247.272
1251.167
1250.505
1249.799
1249.049
1248.255
1251.974
1251.357
1250.696
1249.992
1249.243
1252.735
1252.161
1251.544
1250.885
1250.182
1253.414
1252.883
1252.31
1251.695
1251.036
1254
1253.511
1252.98
1252.408
1251.793
1254.488
1254.041
1253.552
1253.021
1252.449
1254.879
1254.473
1254.025
1253.536
1253.005
1255.175
1254.808
1254.401
1253.953
1253.463
1255.377
1255.05
1254.684
1254.276
1253.827
1255.491
1255.205
1254.878
1254.51
1254.102
1255.533
1255.287
1255
1254.673
1254.305
1255.537
1255.332
1255.085
1254.798
1254.47
1255.554
1255.388
1255.182
1254.935
1254.648
1255.582
1255.457
1255.291
1255.085
1254.837
1255.609
1255.523
1255.398
1255.232
1255.025
1255.623
1255.578
1255.492
1255.366
1255.2
1248.759
1247.962
1247.119
1246.23
1245.294
1249.523
1248.77
1247.973
1247.13
1246.241
1250.271
1249.563
1248.811
1248.014
1247.171
1251.016
1250.353
1249.646
1248.894
1248.098
1251.771
1251.152
1250.49
1249.784
1249.034
1252.534
1251.959
1251.341
1250.68
1249.975
1253.251
1252.719
1252.145
1251.528
1250.868
1253.888
1253.399
1252.867
1252.294
1251.678
1254.432
1253.984
1253.495
1252.964
1252.391
1254.879
1254.473
1254.025
1253.536
1253.005
1255.23
1254.864
1254.457
1254.009
1253.52
1255.486
1255.16
1254.793
1254.386
1253.938
1255.648
1255.362
1255.036
1254.669
1254.261
1255.723
1255.477
1255.191
1254.864
1254.496
1255.726
1255.52
1255.274
1254.987
1254.66
1255.691
1255.526
1255.32
1255.073
1254.786
1255.668
1255.543
1255.377
1255.171
1254.924
1255.657
1255.571
1255.446
1255.28
1255.073
1255.644
1255.599
1255.513
1255.388
1255.221
1255.612
1255.567
1255.481
1255.356
1249.498
1248.746
1247.948
1247.104
1246.215
1250.217
1249.509
1248.756
1247.958
1247.115
1250.921
1250.257
1249.549
1248.797
1247.999
1251.622
1251.002
1250.339
1249.631
1248.879
1252.333
1251.757
1251.138
1250.475
1249.769
1253.052
1252.519
1251.944
1251.326
1250.664
1253.726
1253.236
1252.703
1252.129
1251.512
1254.321
1253.873
1253.383
1252.851
1252.277
1254.824
1254.417
1253.969
1253.479
1252.948
1255.23
1254.864
1254.457
1254.009
1253.52
1255.541
1255.215
1254.849
1254.442
1253.994
1255.757
1255.471
1255.145
1254.779
1254.371
1255.88
1255.634
1255.348
1255.021
1254.654
1255.915
1255.71
1255.463
1255.177
1254.85
1255.879
1255.713
1255.508
1255.261
1254.974
1255.804
1255.68
1255.514
1255.308
1255.061
1255.742
1255.657
1255.532
1255.366
1255.159
1255.691
1255.647
1255.561
1255.435
1255.269
1255.633
1255.588
1255.502
1255.377
1255.602
1255.557
1255.471
1250.193
1249.485
1248.732
1247.933
1247.09
1250.868
1250.204
1249.495
1248.742
1247.944
1251.529
1250.908
1250.244
1249.535
1248.782
1252.186
1251.609
1250.988
1250.325
1249.617
1252.854
1252.32
1251.743
1251.123
1250.46
1253.529
1253.038
1252.504
1251.929
1251.31
1254.16
1253.711
1253.22
1252.688
1252.113
1254.713
1254.306
1253.857
1253.367
1252.835
1255.175
1254.808
1254.401
1253.953
1253.463
1255.541
1255.215
1254.849
1254.442
1253.994
1255.812
1255.527
1255.201
1254.834
1254.427
1255.988
1255.743
1255.457
1255.131
1254.764
1256.071
1255.866
1255.62
1255.334
1255.007
1256.067
1255.902
1255.696
1255.45
1255.163
1255.991
1255.867
1255.701
1255.495
1255.248
1255.879
1255.793
1255.668
1255.502
1255.296
1255.777
1255.732
1255.646
1255.521
1255.354
1255.681
1255.636
1255.55
1255.424
1255.623
1255.578
1255.492
1255.592
1255.547
1250.845
1250.18
1249.471
1248.718
1247.919
1251.476
1250.855
1250.19
1249.481
1248.728
1252.094
1251.516
1250.895
1250.23
1249.521
1252.708
1252.173
1251.595
1250.975
1250.31
1253.332
1252.84
1252.306
1251.729
1251.109
1253.965
1253.515
1253.023
1252.49
1251.913
1254.553
1254.145
1253.696
1253.205
1252.672
1255.065
1254.698
1254.291
1253.842
1253.352
1255.486
1255.16
1254.793
1254.386
1253.938
1255.812
1255.527
1255.201
1254.834
1254.427
1256.043
1255.798
1255.512
1255.186
1254.819
1256.179
1255.974
1255.728
1255.443
1255.116
1256.223
1256.057
1255.852
1255.606
1255.32
1256.179
1256.054
1255.889
1255.683
1255.436
1256.065
1255.979
1255.854
1255.688
1255.482
1255.913
1255.868
1255.782
1255.657
1255.49
1255.766
1255.721
1255.635
1255.509
1255.671
1255.626
1255.539
1255.613
1255.568
1255.582
1251.453
1250.832
1250.167
1249.457
1248.704
1252.042
1251.463
1250.842
1250.177
1249.467
1252.616
1252.081
1251.502
1250.881
1250.216
1253.188
1252.695
1252.16
1251.582
1250.961
1253.769
1253.319
1252.826
1252.292
1251.714
1254.359
1253.951
1253.501
1253.009
1252.475
1254.906
1254.539
1254.131
1253.681
1253.19
1255.377
1255.05
1254.684
1254.276
1253.827
1255.757
1255.471
1255.145