/*--------------------------------*- C++ -*----------------------------------*\
| =========                 |                                                 |
| \\      /  F ield         | OpenFOAM: The Open Source CFD Toolbox           |
|  \\    /   O peration     | Version:  2306                                  |
|   \\  /    A nd           | Website:  www.openfoam.com                      |
|    \\/     M anipulation  |                                                 |
\*---------------------------------------------------------------------------*/
FoamFile
{
    version     2.0;
    format      ascii;
    arch        "LSB;label=32;scalar=64";
    class       volScalarField;
    location    "0.3/electrolyte";
    object      T;
}
// * * * * * * * * * * * * * * * * * * * * * * * * * * * * * * * * * * * * * //

dimensions      [0 0 0 1 0 0 0];

internalField   nonuniform List<scalar> 
4000
(
1164.832
1164.684
1166.585
1164.837
1164.34
1166.571
1164.689
1168.194
1166.587
1164.843
1163.702
1166.537
1164.346
1168.216
1166.572
1164.694
1169.689
1168.191
1166.587
1164.848
1162.63
1166.469
1163.71
1168.266
1166.537
1164.352
1169.722
1168.213
1166.572
1164.699
1171.125
1169.683
1168.188
1166.588
1164.852
1161.054
1166.349
1162.643
1168.352
1166.468
1163.718
1169.795
1168.262
1166.537
1164.358
1171.16
1169.716
1168.21
1166.573
1164.705
1172.522
1171.117
1169.677
1168.185
1166.589
1159.268
1166.149
1161.08
1168.485
1166.345
1162.657
1169.924
1168.347
1166.467
1163.726
1171.239
1169.788
1168.258
1166.537
1164.364
1172.557
1171.152
1169.71
1168.207
1166.573
1173.883
1172.512
1171.109
1169.671
1168.182
1157.64
1165.852
1159.313
1168.652
1166.142
1161.107
1170.129
1168.476
1166.342
1162.671
1171.378
1169.916
1168.341
1166.466
1163.735
1172.635
1171.23
1169.781
1168.254
1166.536
1173.917
1172.547
1171.143
1169.703
1168.203
1175.209
1173.872
1172.502
1171.1
1169.665
1156.433
1165.522
1157.702
1168.777
1165.845
1159.357
1170.403
1168.637
1166.135
1161.134
1171.6
1170.117
1168.467
1166.338
1162.686
1172.774
1171.368
1169.908
1168.335
1166.464
1173.993
1172.624
1171.221
1169.774
1168.25
1175.242
1173.906
1172.536
1171.135
1169.697
1176.497
1175.197
1173.86
1172.491
1171.092
1155.797
1165.242
1156.507
1168.841
1165.516
1157.762
1170.654
1168.758
1165.837
1159.4
1171.9
1170.385
1168.623
1166.127
1161.16
1172.995
1171.587
1170.105
1168.458
1166.334
1174.129
1172.762
1171.357
1169.899
1168.329
1175.316
1173.981
1172.613
1171.211
1169.767
1176.529
1175.229
1173.894
1172.526
1171.126
1177.746
1176.484
1175.184
1173.849
1172.481
1155.797
1165.084
1155.878
1168.861
1165.239
1156.58
1170.841
1168.82
1165.51
1157.822
1172.186
1170.632
1168.739
1165.829
1159.443
1173.295
1171.881
1170.367
1168.608
1166.12
1174.344
1172.98
1171.573
1170.093
1168.448
1175.447
1174.115
1172.75
1171.347
1169.89
1176.601
1175.303
1173.969
1172.602
1171.202
1177.777
1176.516
1175.217
1173.882
1172.515
1178.955
1177.732
1176.471
1175.171
1173.837
1156.433
1165.084
1155.878
1168.864
1165.083
1155.957
1170.958
1168.84
1165.236
1156.651
1172.409
1170.816
1168.799
1165.504
1157.88
1173.585
1172.163
1170.61
1168.72
1165.821
1174.636
1173.275
1171.862
1170.349
1168.592
1175.655
1174.328
1172.965
1171.559
1170.081
1176.727
1175.432
1174.102
1172.737
1171.335
1177.847
1176.587
1175.289
1173.957
1172.591
1178.985
1177.763
1176.502
1175.204
1173.87
1180.121
1178.94
1177.718
1176.457
1175.158
1157.64
1165.242
1156.507
1168.864
1165.083
1155.957
1171.014
1168.843
1165.081
1156.034
1172.556
1170.932
1168.819
1165.232
1156.721
1173.815
1172.383
1170.791
1168.778
1165.498
1174.92
1173.562
1172.14
1170.587
1168.701
1175.937
1174.616
1173.256
1171.843
1170.331
1176.929
1175.638
1174.312
1172.95
1171.545
1177.97
1176.713
1175.418
1174.088
1172.724
1179.052
1177.832
1176.573
1175.276
1173.944
1180.15
1178.97
1177.749
1176.488
1175.19
1181.245
1180.106
1178.926
1177.704
1176.443
1159.268
1165.522
1157.702
1168.861
1165.239
1156.58
1171.014
1168.843
1165.081
1156.034
1172.628
1170.987
1168.822
1165.079
1156.11
1173.969
1172.529
1170.906
1168.798
1165.228
1175.147
1173.789
1172.357
1170.766
1168.757
1176.214
1174.897
1173.538
1172.116
1170.565
1177.203
1175.917
1174.596
1173.236
1171.824
1178.165
1176.912
1175.622
1174.296
1172.935
1179.172
1177.955
1176.698
1175.404
1174.074
1180.216
1179.037
1177.818
1176.559
1175.262
1181.273
1180.136
1178.956
1177.735
1176.475
1182.326
1181.23
1180.092
1178.911
1177.69
1161.054
1165.852
1159.313
1168.841
1165.516
1157.762
1170.958
1168.84
1165.236
1156.651
1172.628
1170.987
1168.822
1165.079
1156.11
1174.045
1172.6
1170.961
1168.801
1165.076
1175.3
1173.941
1172.501
1170.88
1168.777
1176.435
1175.122
1173.763
1172.331
1170.741
1177.471
1176.191
1174.874
1173.515
1172.093
1178.431
1177.183
1175.897
1174.576
1173.216
1179.363
1178.149
1176.896
1175.605
1174.28
1180.333
1179.157
1177.939
1176.683
1175.389
1181.338
1180.201
1179.023
1177.803
1176.544
1182.354
1181.259
1180.121
1178.941
1177.72
1183.363
1182.311
1181.215
1180.077
1178.897
1162.63
1166.149
1161.08
1168.777
1165.845
1159.357
1170.841
1168.82
1165.51
1157.822
1172.556
1170.932
1168.819
1165.232
1156.721
1174.045
1172.6
1170.961
1168.801
1165.076
1175.376
1174.017
1172.572
1170.934
1168.779
1176.585
1175.273
1173.914
1172.474
1170.853
1177.686
1176.41
1175.096
1173.737
1172.305
1178.692
1177.448
1176.167
1174.85
1173.491
1179.621
1178.411
1177.163
1175.877
1174.556
1180.519
1179.346
1178.131
1176.878
1175.589
1181.453
1180.318
1179.141
1177.924
1176.667
1182.417
1181.323
1180.186
1179.007
1177.788
1183.391
1182.339
1181.244
1180.106
1178.926
1184.358
1183.349
1182.296
1181.2
1180.062
1163.702
1166.349
1162.643
1168.652
1166.142
1161.107
1170.654
1168.758
1165.837
1159.4
1172.409
1170.816
1168.799
1165.504
1157.88
1173.969
1172.529
1170.906
1168.798
1165.228
1175.376
1174.017
1172.572
1170.934
1168.779
1176.659
1175.349
1173.989
1172.544
1170.907
1177.832
1176.559
1175.247
1173.887
1172.447
1178.902
1177.662
1176.385
1175.071
1173.711
1179.876
1178.67
1177.425
1176.144
1174.827
1180.772
1179.602
1178.391
1177.142
1175.857
1181.635
1180.502
1179.328
1178.114
1176.861
1182.53
1181.437
1180.302
1179.125
1177.908
1183.453
1182.402
1181.308
1180.171
1178.992
1184.386
1183.376
1182.324
1181.229
1180.091
1185.31
1184.344
1183.334
1182.281
1181.185
1164.34
1166.469
1163.71
1168.485
1166.345
1162.657
1170.403
1168.637
1166.135
1161.134
1172.186
1170.632
1168.739
1165.829
1159.443
1173.815
1172.383
1170.791
1168.778
1165.498
1175.3
1173.941
1172.501
1170.88
1168.777
1176.659
1175.349
1173.989
1172.544
1170.907
1177.905
1176.633
1175.322
1173.962
1172.516
1179.045
1177.807
1176.533
1175.22
1173.86
1180.081
1178.878
1177.638
1176.36
1175.045
1181.02
1179.854
1178.647
1177.403
1176.121
1181.882
1180.752
1179.582
1178.371
1177.122
1182.708
1181.618
1180.485
1179.311
1178.097
1183.564
1182.514
1181.421
1180.286
1179.109
1184.447
1183.438
1182.387
1181.292
1180.156
1185.337
1184.371
1183.361
1182.309
1181.214
1186.22
1185.296
1184.329
1183.319
1182.266
1164.684
1166.537
1164.346
1168.352
1166.468
1163.718
1170.129
1168.476
1166.342
1162.671
1171.9
1170.385
1168.623
1166.127
1161.16
1173.585
1172.163
1170.61
1168.72
1165.821
1175.147
1173.789
1172.357
1170.766
1168.757
1176.585
1175.273
1173.914
1172.474
1170.853
1177.905
1176.633
1175.322
1173.962
1172.516
1179.116
1177.88
1176.607
1175.295
1173.934
1180.22
1179.02
1177.782
1176.507
1175.194
1181.221
1180.058
1178.854
1177.613
1176.335
1182.125
1180.999
1179.832
1178.625
1177.38
1182.951
1181.863
1180.733
1179.562
1178.351
1183.74
1182.691
1181.601
1180.468
1179.294
1184.556
1183.548
1182.498
1181.405
1180.27
1185.398
1184.432
1183.423
1182.372
1181.277
1186.246
1185.323
1184.356
1183.347
1182.294
1187.086
1186.205
1185.281
1184.314
1183.304
1164.832
1166.571
1164.689
1168.266
1166.537
1164.352
1169.924
1168.347
1166.467
1163.726
1171.6
1170.117
1168.467
1166.338
1162.686
1173.295
1171.881
1170.367
1168.608
1166.12
1174.92
1173.562
1172.14
1170.587
1168.701
1176.435
1175.122
1173.763
1172.331
1170.741
1177.832
1176.559
1175.247
1173.887
1172.447
1179.116
1177.88
1176.607
1175.295
1173.934
1180.29
1179.091
1177.854
1176.58
1175.268
1181.358
1180.197
1178.996
1177.757
1176.481
1182.323
1181.199
1180.035
1178.831
1177.589
1183.19
1182.104
1180.978
1179.81
1178.603
1183.978
1182.932
1181.843
1180.713
1179.542
1184.728
1183.723
1182.674
1181.583
1180.45
1185.505
1184.54
1183.533
1182.482
1181.389
1186.306
1185.383
1184.417
1183.408
1182.356
1187.113
1186.232
1185.308
1184.341
1183.331
1187.911
1187.072
1186.191
1185.267
1184.299
1166.585
1164.837
1168.216
1166.572
1164.694
1169.795
1168.262
1166.537
1164.358
1171.378
1169.916
1168.341
1166.466
1163.735
1172.995
1171.587
1170.105
1168.458
1166.334
1174.636
1173.275
1171.862
1170.349
1168.592
1176.214
1174.897
1173.538
1172.116
1170.565
1177.686
1176.41
1175.096
1173.737
1172.305
1179.045
1177.807
1176.533
1175.22
1173.86
1180.29
1179.091
1177.854
1176.58
1175.268
1181.427
1180.266
1179.066
1177.829
1176.554
1182.457
1181.335
1180.173
1178.971
1177.732
1183.384
1182.301
1181.176
1180.012
1178.807
1184.213
1183.169
1182.084
1180.956
1179.788
1184.963
1183.959
1182.913
1181.824
1180.694
1185.675
1184.712
1183.706
1182.657
1181.566
1186.411
1185.49
1184.525
1183.517
1182.466
1187.171
1186.291
1185.368
1184.402
1183.393
1187.937
1187.098
1186.217
1185.293
1184.326
1188.694
1187.897
1187.058
1186.176
1185.252
1168.194
1166.587
1164.843
1169.722
1168.213
1166.572
1164.699
1171.239
1169.788
1168.258
1166.537
1164.364
1172.774
1171.368
1169.908
1168.335
1166.464
1174.344
1172.98
1171.573
1170.093
1168.448
1175.937
1174.616
1173.256
1171.843
1170.331
1177.471
1176.191
1174.874
1173.515
1172.093
1178.902
1177.662
1176.385
1175.071
1173.711
1180.22
1179.02
1177.782
1176.507
1175.194
1181.427
1180.266
1179.066
1177.829
1176.554
1182.525
1181.404
1180.242
1179.042
1177.803
1183.516
1182.435
1181.312
1180.149
1178.947
1184.404
1183.362
1182.279
1181.154
1179.989
1185.195
1184.193
1183.149
1182.063
1180.935
1185.906
1184.945
1183.94
1182.894
1181.805
1186.579
1185.659
1184.695
1183.689
1182.64
1187.276
1186.396
1185.474
1184.509
1183.501
1187.995
1187.157
1186.276
1185.353
1184.387
1188.72
1187.923
1187.084
1186.203
1185.279
1189.436
1188.68
1187.883
1187.044
1186.162
1169.689
1168.191
1166.587
1164.848
1171.16
1169.716
1168.21
1166.573
1164.705
1172.635
1171.23
1169.781
1168.254
1166.536
1174.129
1172.762
1171.357
1169.899
1168.329
1175.655
1174.328
1172.965
1171.559
1170.081
1177.203
1175.917
1174.596
1173.236
1171.824
1178.692
1177.448
1176.167
1174.85
1173.491
1180.081
1178.878
1177.638
1176.36
1175.045
1181.358
1180.197
1178.996
1177.757
1176.481
1182.525
1181.404
1180.242
1179.042
1177.803
1183.583
1182.502
1181.38
1180.218
1179.017
1184.535
1183.494
1182.412
1181.289
1180.126
1185.383
1184.383
1183.341
1182.257
1181.132
1186.135
1185.175
1184.173
1183.128
1182.042
1186.807
1185.888
1184.926
1183.922
1182.875
1187.442
1186.563
1185.643
1184.679
1183.672
1188.098
1187.261
1186.381
1185.459
1184.493
1188.777
1187.981
1187.143
1186.262
1185.338
1189.461
1188.706
1187.909
1187.07
1186.188
1190.136
1189.422
1188.667
1187.869
1187.03
1171.125
1169.683
1168.188
1166.588
1164.852
1172.557
1171.152
1169.71
1168.207
1166.573
1173.993
1172.624
1171.221
1169.774
1168.25
1175.447
1174.115
1172.75
1171.347
1169.89
1176.929
1175.638
1174.312
1172.95
1171.545
1178.431
1177.183
1175.897
1174.576
1173.216
1179.876
1178.67
1177.425
1176.144
1174.827
1181.221
1180.058
1178.854
1177.613
1176.335
1182.457
1181.335
1180.173
1178.971
1177.732
1183.583
1182.502
1181.38
1180.218
1179.017
1184.6
1183.561
1182.48
1181.357
1180.194
1185.512
1184.513
1183.473
1182.39
1181.266
1186.321
1185.363
1184.362
1183.32
1182.235
1187.033
1186.115
1185.155
1184.153
1183.108
1187.667
1186.79
1185.87
1184.908
1183.903
1188.262
1187.426
1186.547
1185.626
1184.662
1188.879
1188.084
1187.246
1186.366
1185.443
1189.518
1188.763
1187.967
1187.128
1186.247
1190.161
1189.447
1188.692
1187.895
1187.055
1190.795
1190.123
1189.409
1188.653
1187.855
1172.522
1171.117
1169.677
1168.185
1166.589
1173.917
1172.547
1171.143
1169.703
1168.203
1175.316
1173.981
1172.613
1171.211
1169.767
1176.727
1175.432
1174.102
1172.737
1171.335
1178.165
1176.912
1175.622
1174.296
1172.935
1179.621
1178.411
1177.163
1175.877
1174.556
1181.02
1179.854
1178.647
1177.403
1176.121
1182.323
1181.199
1180.035
1178.831
1177.589
1183.516
1182.435
1181.312
1180.149
1178.947
1184.6
1183.561
1182.48
1181.357
1180.194
1185.577
1184.579
1183.539
1182.457
1181.334
1186.448
1185.491
1184.492
1183.451
1182.368
1187.217
1186.301
1185.342
1184.342
1183.298
1187.89
1187.014
1186.096
1185.136
1184.133
1188.485
1187.65
1186.772
1185.852
1184.89
1189.042
1188.247
1187.41
1186.531
1185.61
1189.619
1188.865
1188.069
1187.231
1186.351
1190.217
1189.504
1188.749
1187.952
1187.113
1190.82
1190.148
1189.434
1188.678
1187.881
1191.414
1190.782
1190.109
1189.395
1188.639
1173.883
1172.512
1171.109
1169.671
1168.182
1175.242
1173.906
1172.536
1171.135
1169.697
1176.601
1175.303
1173.969
1172.602
1171.202
1177.97
1176.713
1175.418
1174.088
1172.724
1179.363
1178.149
1176.896
1175.605
1174.28
1180.772
1179.602
1178.391
1177.142
1175.857
1182.125
1180.999
1179.832
1178.625
1177.38
1183.384
1182.301
1181.176
1180.012
1178.807
1184.535
1183.494
1182.412
1181.289
1180.126
1185.577
1184.579
1183.539
1182.457
1181.334
1186.512
1185.556
1184.557
1183.517
1182.434
1187.343
1186.428
1185.471
1184.471
1183.429
1188.072
1187.198
1186.281
1185.322
1184.321
1188.706
1187.872
1186.996
1186.077
1185.117
1189.262
1188.468
1187.632
1186.755
1185.834
1189.78
1189.026
1188.231
1187.394
1186.515
1190.318
1189.605
1188.851
1188.054
1187.216
1190.876
1190.204
1189.49
1188.735
1187.938
1191.439
1190.807
1190.134
1189.42
1188.664
1191.992
1191.401
1190.769
1190.096
1189.381
1175.209
1173.872
1172.502
1171.1
1169.665
1176.529
1175.229
1173.894
1172.526
1171.126
1177.847
1176.587
1175.289
1173.957
1172.591
1179.172
1177.955
1176.698
1175.404
1174.074
1180.519
1179.346
1178.131
1176.878
1175.589
1181.882
1180.752
1179.582
1178.371
1177.122
1183.19
1182.104
1180.978
1179.81
1178.603
1184.404
1183.362
1182.279
1181.154
1179.989
1185.512
1184.513
1183.473
1182.39
1181.266
1186.512
1185.556
1184.557
1183.517
1182.434
1187.407
1186.492
1185.535
1184.536
1183.495
1188.197
1187.323
1186.408
1185.45
1184.45
1188.886
1188.053
1187.178
1186.261
1185.302
1189.48
1188.688
1187.853
1186.977
1186.058
1189.998
1189.245
1188.451
1187.615
1186.737
1190.477
1189.765
1189.011
1188.216
1187.378
1190.975
1190.304
1189.591
1188.836
1188.04
1191.494
1190.863
1190.19
1189.476
1188.721
1192.017
1191.426
1190.794
1190.121
1189.406
1192.53
1191.98
1191.388
1190.756
1190.083
1176.497
1175.197
1173.86
1172.491
1171.092
1177.777
1176.516
1175.217
1173.882
1172.515
1179.052
1177.832
1176.573
1175.276
1173.944
1180.333
1179.157
1177.939
1176.683
1175.389
1181.635
1180.502
1179.328
1178.114
1176.861
1182.951
1181.863
1180.733
1179.562
1178.351
1184.213
1183.169
1182.084
1180.956
1179.788
1185.383
1184.383
1183.341
1182.257
1181.132
1186.448
1185.491
1184.492
1183.451
1182.368
1187.407
1186.492
1185.535
1184.536
1183.495
1188.26
1187.387
1186.472
1185.514
1184.515
1189.01
1188.177
1187.304
1186.388
1185.429
1189.659
1188.867
1188.034
1187.159
1186.242
1190.214
1189.463
1188.67
1187.835
1186.958
1190.693
1189.981
1189.229
1188.434
1187.598
1191.133
1190.462
1189.75
1188.996
1188.2
1191.593
1190.962
1190.29
1189.576
1188.821
1192.072
1191.481
1190.849
1190.177
1189.463
1192.555
1192.004
1191.413
1190.781
1190.107
1193.029
1192.518
1191.967
1191.375
1190.743
1177.746
1176.484
1175.184
1173.849
1172.481
1178.985
1177.763
1176.502
1175.204
1173.87
1180.216
1179.037
1177.818
1176.559
1175.262
1181.453
1180.318
1179.141
1177.924
1176.667
1182.708
1181.618
1180.485
1179.311
1178.097
1183.978
1182.932
1181.843
1180.713
1179.542
1185.195
1184.193
1183.149
1182.063
1180.935
1186.321
1185.363
1184.362
1183.32
1182.235
1187.343
1186.428
1185.471
1184.471
1183.429
1188.26
1187.387
1186.472
1185.514
1184.515
1189.072
1188.24
1187.367
1186.451
1185.494
1189.782
1188.991
1188.158
1187.284
1186.368
1190.391
1189.641
1188.849
1188.015
1187.14
1190.908
1190.197
1189.445
1188.652
1187.817
1191.347
1190.677
1189.965
1189.212
1188.418
1191.749
1191.119
1190.447
1189.735
1188.981
1192.169
1191.579
1190.948
1190.276
1189.562
1192.609
1192.059
1191.468
1190.836
1190.163
1193.053
1192.542
1191.991
1191.4
1190.767
1193.488
1193.017
1192.506
1191.954
1191.362
1178.955
1177.732
1176.471
1175.171
1173.837
1180.15
1178.97
1177.749
1176.488
1175.19
1181.338
1180.201
1179.023
1177.803
1176.544
1182.53
1181.437
1180.302
1179.125
1177.908
1183.74
1182.691
1181.601
1180.468
1179.294
1184.963
1183.959
1182.913
1181.824
1180.694
1186.135
1185.175
1184.173
1183.128
1182.042
1187.217
1186.301
1185.342
1184.342
1183.298
1188.197
1187.323
1186.408
1185.45
1184.45
1189.072
1188.24
1187.367
1186.451
1185.494
1189.843
1189.053
1188.221
1187.347
1186.431
1190.513
1189.763
1188.972
1188.139
1187.264
1191.083
1190.374
1189.623
1188.831
1187.997
1191.56
1190.891
1190.18
1189.428
1188.634
1191.962
1191.332
1190.661
1189.949
1189.196
1192.325
1191.735
1191.104
1190.433
1189.72
1192.706
1192.156
1191.566
1190.934
1190.262
1193.107
1192.597
1192.046
1191.455
1190.823
1193.512
1193.041
1192.53
1191.979
1191.387
1193.907
1193.476
1193.005
1192.493
1191.942
1180.121
1178.94
1177.718
1176.457
1175.158
1181.273
1180.136
1178.956
1177.735
1176.475
1182.417
1181.323
1180.186
1179.007
1177.788
1183.564
1182.514
1181.421
1180.286
1179.109
1184.728
1183.723
1182.674
1181.583
1180.45
1185.906
1184.945
1183.94
1182.894
1181.805
1187.033
1186.115
1185.155
1184.153
1183.108
1188.072
1187.198
1186.281
1185.322
1184.321
1189.01
1188.177
1187.304
1186.388
1185.429
1189.843
1189.053
1188.221
1187.347
1186.431
1190.574
1189.825
1189.034
1188.202
1187.327
1191.204
1190.495
1189.745
1188.953
1188.12
1191.735
1191.066
1190.356
1189.605
1188.812
1192.173
1191.544
1190.874
1190.163
1189.411
1192.536
1191.946
1191.316
1190.645
1189.933
1192.861
1192.311
1191.721
1191.09
1190.418
1193.204
1192.694
1192.143
1191.552
1190.92
1193.566
1193.095
1192.584
1192.033
1191.442
1193.931
1193.5
1193.029
1192.517
1191.966
1194.287
1193.895
1193.464
1192.992
1192.481
1181.245
1180.106
1178.926
1177.704
1176.443
1182.354
1181.259
1180.121
1178.941
1177.72
1183.453
1182.402
1181.308
1180.171
1178.992
1184.556
1183.548
1182.498
1181.405
1180.27
1185.675
1184.712
1183.706
1182.657
1181.566
1186.807
1185.888
1184.926
1183.922
1182.875
1187.89
1187.014
1186.096
1185.136
1184.133
1188.886
1188.053
1187.178
1186.261
1185.302
1189.782
1188.991
1188.158
1187.284
1186.368
1190.574
1189.825
1189.034
1188.202
1187.327
1191.265
1190.556
1189.807
1189.015
1188.183
1191.855
1191.187
1190.477
1189.727
1188.935
1192.347
1191.718
1191.049
1190.339
1189.587
1192.746
1192.157
1191.528
1190.858
1190.146
1193.07
1192.521
1191.931
1191.301
1190.63
1193.357
1192.847
1192.297
1191.707
1191.075
1193.661
1193.191
1192.681
1192.13
1191.539
1193.985
1193.553
1193.083
1192.572
1192.02
1194.311
1193.919
1193.488
1193.016
1192.505
1194.628
1194.276
1193.884
1193.452
1192.98
1182.326
1181.23
1180.092
1178.911
1177.69
1183.391
1182.339
1181.244
1180.106
1178.926
1184.447
1183.438
1182.387
1181.292
1180.156
1185.505
1184.54
1183.533
1182.482
1181.389
1186.579
1185.659
1184.695
1183.689
1182.64
1187.667
1186.79
1185.87
1184.908
1183.903
1188.706
1187.872
1186.996
1186.077
1185.117
1189.659
1188.867
1188.034
1187.159
1186.242
1190.513
1189.763
1188.972
1188.139
1187.264
1191.265
1190.556
1189.807
1189.015
1188.183
1191.916
1191.247
1190.538
1189.788
1188.997
1192.466
1191.838
1191.169
1190.459
1189.709
1192.918
1192.33
1191.701
1191.032
1190.321
1193.279
1192.73
1192.141
1191.512
1190.841
1193.565
1193.056
1192.506
1191.916
1191.285
1193.814
1193.344
1192.834
1192.283
1191.692
1194.08
1193.649
1193.178
1192.668
1192.117
1194.364
1193.973
1193.541
1193.07
1192.559
1194.652
1194.299
1193.907
1193.476
1193.004
1194.931
1194.617
1194.264
1193.872
1193.44
1183.363
1182.311
1181.215
1180.077
1178.897
1184.386
1183.376
1182.324
1181.229
1180.091
1185.398
1184.432
1183.423
1182.372
1181.277
1186.411
1185.49
1184.525
1183.517
1182.466
1187.442
1186.563
1185.643
1184.679
1183.672
1188.485
1187.65
1186.772
1185.852
1184.89
1189.48
1188.688
1187.853
1186.977
1186.058
1190.391
1189.641
1188.849
1188.015
1187.14
1191.204
1190.495
1189.745
1188.953
1188.12
1191.916
1191.247
1190.538
1189.788
1188.997
1192.526
1191.898
1191.23
1190.521
1189.77
1193.037
1192.449
1191.821
1191.152
1190.442
1193.451
1192.902
1192.314
1191.685
1191.015
1193.773
1193.264
1192.715
1192.125
1191.495
1194.021
1193.551
1193.041
1192.491
1191.901
1194.231
1193.801
1193.33
1192.82
1192.269
1194.459
1194.068
1193.637
1193.166
1192.655
1194.705
1194.353
1193.961
1193.529
1193.058
1194.954
1194.641
1194.288
1193.896
1193.464
1195.194
1194.92
1194.606
1194.253
1193.86
1184.358
1183.349
1182.296
1181.2
1180.062
1185.337
1184.371
1183.361
1182.309
1181.214
1186.306
1185.383
1184.417
1183.408
1182.356
1187.276
1186.396
1185.474
1184.509
1183.501
1188.262
1187.426
1186.547
1185.626
1184.662
1189.262
1188.468
1187.632
1186.755
1185.834
1190.214
1189.463
1188.67
1187.835
1186.958
1191.083
1190.374
1189.623
1188.831
1187.997
1191.855
1191.187
1190.477
1189.727
1188.935
1192.526
1191.898
1191.23
1190.521
1189.77
1193.097
1192.509
1191.881
1191.212
1190.503
1193.569
1193.021
1192.432
1191.804
1191.134
1193.944
1193.435
1192.886
1192.297
1191.668
1194.228
1193.758
1193.248
1192.699
1192.109
1194.437
1194.007
1193.537
1193.027
1192.476
1194.61
1194.219
1193.788
1193.317
1192.806
1194.8
1194.447
1194.055
1193.624
1193.153
1195.007
1194.694
1194.341
1193.949
1193.517
1195.218
1194.943
1194.629
1194.276
1193.884
1195.419
1195.183
1194.909
1194.594
1194.241
1185.31
1184.344
1183.334
1182.281
1181.185
1186.246
1185.323
1184.356
1183.347
1182.294
1187.171
1186.291
1185.368
1184.402
1183.393
1188.098
1187.261
1186.381
1185.459
1184.493
1189.042
1188.247
1187.41
1186.531
1185.61
1189.998
1189.245
1188.451
1187.615
1186.737
1190.908
1190.197
1189.445
1188.652
1187.817
1191.735
1191.066
1190.356
1189.605
1188.812
1192.466
1191.838
1191.169
1190.459
1189.709
1193.097
1192.509
1191.881
1191.212
1190.503
1193.628
1193.08
1192.492
1191.864
1191.195
1194.061
1193.553
1193.004
1192.416
1191.787
1194.397
1193.928
1193.419
1192.87
1192.281
1194.643
1194.213
1193.743
1193.233
1192.684
1194.815
1194.424
1193.993
1193.522
1193.012
1194.95
1194.597
1194.206
1193.775
1193.304
1195.101
1194.788
1194.435
1194.043
1193.611
1195.27
1194.996
1194.682
1194.329
1193.937
1195.443
1195.207
1194.932
1194.618
1194.265
1195.605
1195.409
1195.172
1194.897
1194.583
1186.22
1185.296
1184.329
1183.319
1182.266
1187.113
1186.232
1185.308
1184.341
1183.332
1187.995
1187.157
1186.276
1185.353
1184.387
1188.879
1188.084
1187.246
1186.366
1185.443
1189.78
1189.026
1188.231
1187.394
1186.515
1190.693
1189.981
1189.229
1188.434
1187.598
1191.56
1190.891
1190.18
1189.428
1188.634
1192.347
1191.718
1191.049
1190.339
1189.587
1193.037
1192.449
1191.821
1191.152
1190.442
1193.628
1193.08
1192.492
1191.864
1191.195
1194.12
1193.612
1193.064
1192.476
1191.847
1194.514
1194.045
1193.536
1192.988
1192.399
1194.812
1194.382
1193.912
1193.403
1192.854
1195.02
1194.629
1194.198
1193.728
1193.218
1195.154
1194.801
1194.41
1193.979
1193.508
1195.251
1194.937
1194.585
1194.193
1193.761
1195.364
1195.09
1194.776
1194.423
1194.031
1195.495
1195.259
1194.985
1194.671
1194.317
1195.629
1195.432
1195.196
1194.921
1194.607
1195.754
1195.595
1195.398
1195.162
1194.886
1187.086
1186.205
1185.281
1184.314
1183.304
1187.937
1187.098
1186.217
1185.293
1184.326
1188.777
1187.981
1187.143
1186.262
1185.338
1189.619
1188.865
1188.069
1187.231
1186.351
1190.477
1189.765
1189.011
1188.216
1187.378
1191.347
1190.677
1189.965
1189.212
1188.418
1192.173
1191.544
1190.874
1190.163
1189.411
1192.918
1192.33
1191.701
1191.032
1190.321
1193.569
1193.021
1192.432
1191.804
1191.134
1194.12
1193.612
1193.064
1192.476
1191.847
1194.574
1194.105
1193.596
1193.048
1192.459
1194.929
1194.499
1194.03
1193.521
1192.972
1195.188
1194.797
1194.367
1193.897
1193.388
1195.358
1195.006
1194.614
1194.183
1193.713
1195.454
1195.14
1194.788
1194.396
1193.965
1195.513
1195.238
1194.925
1194.572
1194.18
1195.588
1195.353
1195.078
1194.764
1194.411
1195.681
1195.484
1195.248
1194.973
1194.659
1195.777
1195.618
1195.421
1195.185
1194.91
1195.862
1195.743
1195.584
1195.387
1195.151
1187.911
1187.072
1186.191
1185.267
1184.299
1188.72
1187.923
1187.084
1186.203
1185.279
1189.518
1188.763
1187.967
1187.128
1186.247
1190.318
1189.605
1188.851
1188.054
1187.216
1191.133
1190.462
1189.75
1188.996
1188.2
1191.962
1191.332
1190.661
1189.949
1189.196
1192.746
1192.157
1191.528
1190.858
1190.146
1193.451
1192.902
1192.314
1191.685
1191.015
1194.061
1193.553
1193.004
1192.416
1191.787
1194.574
1194.105
1193.596
1193.048
1192.459
1194.988
1194.558
1194.089
1193.58
1193.031
1195.304
1194.914
1194.483
1194.014
1193.505
1195.525
1195.173
1194.782
1194.352
1193.882
1195.657
1195.344
1194.991
1194.6
1194.169
1195.715
1195.441
1195.127
1194.774
1194.382
1195.737
1195.501
1195.226
1194.912
1194.56
1195.774
1195.577
1195.341
1195.066
1194.752
1195.829
1195.67
1195.473
1195.237
1194.962
1195.885
1195.766
1195.608
1195.41
1195.174
1195.934
1195.852
1195.733
1195.574
1195.376
1188.694
1187.897
1187.058
1186.176
1185.252
1189.461
1188.706
1187.909
1187.07
1186.188
1190.217
1189.504
1188.749
1187.952
1187.113
1190.975
1190.304
1189.591
1188.836
1188.04
1191.749
1191.119
1190.447
1189.735
1188.981
1192.536
1191.946
1191.316
1190.645
1189.933
1193.279
1192.73
1192.141
1191.512
1190.841
1193.944
1193.435
1192.886
1192.297
1191.668
1194.514
1194.045
1193.536
1192.988
1192.399
1194.988
1194.558
1194.089
1193.58
1193.031
1195.363
1194.972
1194.542
1194.073
1193.564
1195.641
1195.289
1194.898
1194.468
1193.998
1195.824
1195.511
1195.159
1194.767
1194.337
1195.918
1195.643
1195.33
1194.977
1194.585
1195.939
1195.702
1195.428
1195.114
1194.761
1195.922
1195.725
1195.489
1195.214
1194.9
1195.921
1195.763
1195.566
1195.33
1195.055
1195.937
1195.818
1195.66
1195.462
1195.226
1195.957
1195.875
1195.756
1195.597
1195.399
1195.965
1195.924
1195.842
1195.722
1195.563
1189.436
1188.68
1187.883
1187.044
1186.162
1190.161
1189.447
1188.692
1187.895
1187.055
1190.876
1190.204
1189.49
1188.735
1187.938
1191.593
1190.962
1190.29
1189.576
1188.821
1192.325
1191.735
1191.104
1190.433
1189.72
1193.07
1192.521
1191.931
1191.301
1190.63
1193.773
1193.264
1192.715
1192.125
1191.495
1194.397
1193.928
1193.419
1192.87
1192.281
1194.929
1194.499
1194.03
1193.521
1192.972
1195.363
1194.972
1194.542
1194.073
1193.564
1195.7
1195.348
1194.957
1194.527
1194.057
1195.94
1195.627
1195.275
1194.883
1194.453
1196.085
1195.81
1195.497
1195.144
1194.753
1196.141
1195.904
1195.63
1195.316
1194.963
1196.123
1195.926
1195.69
1195.415
1195.101
1196.069
1195.91
1195.713
1195.477
1195.202
1196.029
1195.911
1195.752
1195.555
1195.318
1196.008
1195.927
1195.808
1195.649
1195.451
1195.988
1195.946
1195.865
1195.745
1195.586
1195.955
1195.913
1195.832
1195.712
1190.136
1189.422
1188.667
1187.869
1187.03
1190.82
1190.148
1189.434
1188.678
1187.881
1191.494
1190.863
1190.19
1189.476
1188.721
1192.169
1191.579
1190.948
1190.276
1189.562
1192.861
1192.311
1191.721
1191.09
1190.418
1193.565
1193.056
1192.506
1191.916
1191.285
1194.228
1193.758
1193.248
1192.699
1192.109
1194.812
1194.382
1193.912
1193.403
1192.854
1195.304
1194.914
1194.483
1194.014
1193.505
1195.7
1195.348
1194.957
1194.527
1194.057
1195.998
1195.685
1195.333
1194.942
1194.512
1196.2
1195.926
1195.612
1195.26
1194.869
1196.307
1196.071
1195.796
1195.482
1195.13
1196.324
1196.127
1195.891
1195.616
1195.302
1196.269
1196.11
1195.913
1195.677
1195.402
1196.176
1196.058
1195.899
1195.701
1195.465
1196.1
1196.019
1195.9
1195.741
1195.543
1196.04
1195.998
1195.916
1195.797
1195.638
1195.978
1195.936
1195.854
1195.735
1195.945
1195.903
1195.821
1190.795
1190.123
1189.409
1188.653
1187.855
1191.439
1190.807
1190.134
1189.42
1188.664
1192.072
1191.481
1190.849
1190.177
1189.463
1192.706
1192.156
1191.566
1190.934
1190.262
1193.357
1192.847
1192.297
1191.707
1191.075
1194.021
1193.551
1193.041
1192.491
1191.901
1194.643
1194.213
1193.743
1193.233
1192.684
1195.188
1194.797
1194.367
1193.897
1193.388
1195.641
1195.289
1194.898
1194.468
1193.998
1195.998
1195.685
1195.333
1194.942
1194.512
1196.258
1195.984
1195.67
1195.318
1194.927
1196.422
1196.186
1195.911
1195.598
1195.245
1196.49
1196.293
1196.057
1195.782
1195.468
1196.47
1196.311
1196.114
1195.877
1195.602
1196.376
1196.257
1196.098
1195.901
1195.664
1196.247
1196.165
1196.046
1195.887
1195.69
1196.132
1196.09
1196.008
1195.889
1195.73
1196.029
1195.988
1195.906
1195.786
1195.968
1195.926
1195.844
1195.935
1195.893
1191.414
1190.782
1190.109
1189.395
1188.639
1192.017
1191.426
1190.794
1190.121
1189.406
1192.609
1192.059
1191.468
1190.836
1190.163
1193.204
1192.694
1192.143
1191.552
1190.92
1193.814
1193.344
1192.834
1192.283
1191.692
1194.437
1194.007
1193.537
1193.027
1192.476
1195.02
1194.629
1194.198
1193.728
1193.218
1195.525
1195.173
1194.782
1194.352
1193.882
1195.94
1195.627
1195.275
1194.883
1194.453
1196.258
1195.984
1195.67
1195.318
1194.927
1196.48
1196.244
1195.97
1195.656
1195.304
1196.605
1196.408
1196.172
1195.897
1195.583
1196.636
1196.477
1196.28
1196.043
1195.768
1196.576
1196.457
1196.298
1196.101
1195.864
1196.446
1196.364
1196.245
1196.086
1195.888
1196.278
1196.236
1196.154
1196.035
1195.875
1196.121
1196.079
1195.997
1195.878
1196.019
1195.977
1195.895
1195.958
1195.916
1195.925
1191.992
1191.401
1190.769
1190.096
1189.381
1192.555
1192.004
1191.413
1190.781
1190.107
1193.107
1192.597
1192.046
1191.455
1190.823
1193.661
1193.191
1192.681
1192.13
1191.539
1194.231
1193.801
1193.33
1192.82
1192.269
1194.815
1194.424
1193.993
1193.522
1193.012
1195.358
1195.006
1194.614
1194.183
1193.713
1195.824
1195.511
1195.159
1194.767