/*--------------------------------*- C++ -*----------------------------------*\
| =========                 |                                                 |
| \\      /  F ield         | OpenFOAM: The Open Source CFD Toolbox           |
|  \\    /   O peration     | Version:  2306                                  |
|   \\  /    A nd           | Website:  www.openfoam.com                      |
|    \\/     M anipulation  |                                                 |
\*---------------------------------------------------------------------------*/
FoamFile
{
    version     2.0;
    format      ascii;
    arch        "LSB;label=32;scalar=64";
    class       volScalarField;
    location    "1.5/interconnect";
    object      T;
}
// * * * * * * * * * * * * * * * * * * * * * * * * * * * * * * * * * * * * * //

dimensions      [0 0 0 1 0 0 0];

internalField   nonuniform List<scalar> 
16000
(
1160.791
1160.789
1162.538
1160.73
1160.785
1162.538
1160.727
1164.882
1162.518
1160.608
1160.78
1162.536
1160.721
1164.881
1162.517
1160.604
1167.326
1164.881
1162.479
1160.431
1160.773
1162.534
1160.714
1164.88
1162.515
1160.594
1167.325
1164.88
1162.478
1160.422
1169.689
1167.332
1164.88
1162.426
1160.208
1160.766
1162.531
1160.705
1164.878
1162.512
1160.582
1167.324
1164.878
1162.474
1160.406
1169.689
1167.331
1164.879
1162.423
1160.192
1171.913
1169.698
1167.346
1164.883
1162.364
1160.023
1160.759
1162.528
1160.695
1164.875
1162.508
1160.567
1167.322
1164.875
1162.47
1160.384
1169.687
1167.329
1164.876
1162.418
1160.161
1171.912
1169.697
1167.345
1164.881
1162.36
1159.996
1173.984
1171.921
1169.716
1167.37
1164.895
1162.32
1159.905
1160.754
1162.525
1160.685
1164.873
1162.504
1160.55
1167.319
1164.872
1162.464
1160.358
1169.685
1167.327
1164.872
1162.411
1160.12
1171.911
1169.695
1167.342
1164.876
1162.352
1159.943
1173.983
1171.92
1169.714
1167.368
1164.891
1162.313
1159.87
1175.909
1173.992
1171.94
1169.746
1167.408
1164.913
1162.295
1159.797
1160.749
1162.522
1160.677
1164.87
1162.5
1160.533
1167.317
1164.868
1162.458
1160.331
1169.683
1167.323
1164.866
1162.403
1160.077
1171.909
1169.692
1167.337
1164.869
1162.341
1159.864
1173.982
1171.919
1169.711
1167.363
1164.885
1162.3
1159.799
1175.908
1173.991
1171.938
1169.744
1167.405
1164.91
1162.285
1159.755
1177.698
1175.916
1174.009
1171.97
1169.791
1167.449
1164.93
1162.276
1159.706
1160.747
1162.52
1160.67
1164.868
1162.497
1160.518
1167.314
1164.865
1162.452
1160.299
1169.681
1167.32
1164.86
1162.393
1160.045
1171.907
1169.689
1167.332
1164.86
1162.33
1159.763
1173.98
1171.916
1169.707
1167.356
1164.875
1162.281
1159.69
1175.907
1173.99
1171.936
1169.739
1167.399
1164.902
1162.267
1159.669
1177.698
1175.915
1174.008
1171.968
1169.788
1167.447
1164.926
1162.264
1159.659
1179.365
1177.705
1175.932
1174.038
1172.015
1169.838
1167.481
1164.952
1162.266
1159.638
1160.747
1162.519
1160.667
1164.867
1162.494
1160.507
1167.312
1164.862
1162.446
1160.268
1169.678
1167.316
1164.854
1162.382
1159.975
1171.904
1169.686
1167.325
1164.849
1162.321
1173.978
1171.913
1169.702
1167.346
1164.86
1162.261
1159.538
1175.906
1173.987
1171.932
1169.732
1167.388
1164.892
1162.241
1159.534
1177.697
1175.914
1174.006
1171.964
1169.782
1167.441
1164.918
1162.241
1159.561
1179.365
1177.705
1175.931
1174.036
1172.012
1169.836
1167.479
1164.947
1162.253
1159.586
1180.92
1179.371
1177.72
1175.958
1174.079
1172.06
1169.873
1167.517
1164.979
1162.268
1159.594
1160.749
1162.519
1160.667
1164.866
1162.493
1160.5
1167.311
1164.86
1162.441
1160.244
1169.676
1167.313
1164.849
1162.37
1159.906
1171.902
1169.682
1167.32
1164.838
1162.298
1173.976
1171.91
1169.696
1167.334
1164.838
1175.904
1173.985
1171.927
1169.722
1167.372
1164.881
1162.208
1159.344
1177.696
1175.912
1174.002
1171.957
1169.772
1167.434
1164.906
1162.207
1159.408
1179.364
1177.703
1175.929
1174.032
1172.007
1169.832
1167.474
1164.937
1162.226
1159.481
1180.92
1179.371
1177.719
1175.956
1174.077
1172.059
1169.871
1167.514
1164.974
1162.254
1159.541
1182.373
1180.926
1179.384
1177.743
1175.996
1174.122
1172.094
1169.911
1167.557
1165.014
1162.283
1159.576
1160.754
1162.52
1160.67
1164.866
1162.493
1160.5
1167.31
1164.859
1162.438
1160.231
1169.675
1167.311
1164.845
1162.36
1159.854
1171.901
1169.68
1167.314
1164.829
1162.271
1173.975
1171.907
1169.69
1167.323
1164.816
1175.902
1173.982
1171.921
1169.711
1167.345
1177.694
1175.91
1173.998
1171.948
1169.756
1167.426
1164.891
1162.159
1159.192
1179.363
1177.702
1175.926
1174.026
1171.998
1169.826
1167.467
1164.923
1162.185
1159.318
1180.919
1179.37
1177.717
1175.953
1174.072
1172.055
1169.868
1167.51
1164.963
1162.225
1159.433
1182.373
1180.925
1179.384
1177.742
1175.994
1174.12
1172.093
1169.91
1167.554
1165.008
1162.269
1159.523
1183.734
1182.378
1180.938
1179.406
1177.778
1176.035
1174.153
1172.131
1169.953
1167.601
1165.055
1162.312
1159.584
1160.759
1162.522
1160.677
1164.867
1162.494
1160.507
1167.31
1164.859
1162.438
1160.231
1169.674
1167.31
1164.843
1162.355
1159.826
1171.899
1169.678
1167.311
1164.821
1162.25
1173.973
1171.905
1169.686
1167.314
1164.797
1175.9
1173.979
1171.916
1169.701
1167.324
1177.692
1175.907
1173.993
1171.938
1169.729
1179.361
1177.699
1175.922
1174.018
1171.983
1169.819
1167.459
1164.903
1162.126
1159.088
1180.918
1179.368
1177.714
1175.948
1174.064
1172.05
1169.863
1167.502
1164.947
1162.179
1159.266
1182.372
1180.924
1179.382
1177.739
1175.99
1174.117
1172.09
1169.907
1167.549
1164.997
1162.24
1159.416
1183.733
1182.378
1180.937
1179.404
1177.776
1176.033
1174.152
1172.13
1169.952
1167.599
1165.05
1162.299
1159.532
1185.008
1183.738
1182.389
1180.957
1179.437
1177.813
1176.063
1174.187
1172.171
1169.998
1167.649
1165.103
1162.354
1159.617
1160.766
1162.525
1160.685
1164.868
1162.497
1160.518
1167.311
1164.86
1162.441
1160.244
1169.674
1167.31
1164.843
1162.355
1159.826
1171.898
1169.677
1167.309
1164.817
1162.237
1173.972
1171.903
1169.682
1167.307
1164.783
1175.899
1173.977
1171.912
1169.692
1167.307
1177.691
1175.905
1173.988
1171.928
1169.709
1179.36
1177.697
1175.917
1174.009
1171.958
1180.916
1179.366
1177.71
1175.94
1174.051
1172.045
1169.858
1167.493
1164.923
1162.115
1159.032
1182.371
1180.923
1179.379
1177.734
1175.982
1174.113
1172.087
1169.903
1167.542
1164.979
1162.194
1159.251
1183.733
1182.377
1180.935
1179.402
1177.772
1176.031
1174.15
1172.128
1169.949
1167.594
1165.039
1162.271
1159.427
1185.008
1183.738
1182.389
1180.956
1179.435
1177.812
1176.062
1174.187
1172.17
1169.997
1167.647
1165.098
1162.342
1159.566
1186.204
1185.013
1183.748
1182.407
1180.986
1179.469
1177.839
1176.094
1174.224
1172.213
1170.045
1167.701
1165.157
1162.408
1159.673
1160.773
1162.528
1160.695
1164.87
1162.5
1160.533
1167.312
1164.862
1162.446
1160.268
1169.675
1167.311
1164.845
1162.36
1159.854
1171.898
1169.677
1167.309
1164.817
1162.237
1173.971
1171.902
1169.681
1167.304
1164.775
1175.898
1173.975
1171.909
1169.686
1167.295
1177.689
1175.903
1173.984
1171.921
1169.694
1179.358
1177.695
1175.913
1174
1171.939
1180.915
1179.364
1177.706
1175.932
1174.028
1182.37
1180.921
1179.376
1177.727
1175.97
1174.108
1172.083
1169.898
1167.531
1164.953
1162.128
1159.023
1183.732
1182.376
1180.933
1179.397
1177.765
1176.027
1174.147
1172.126
1169.945
1167.586
1165.022
1162.228
1159.269
1185.007
1183.737
1182.387
1180.953
1179.432
1177.809
1176.06
1174.185
1172.169
1169.995
1167.643
1165.089
1162.317
1159.464
1186.204
1185.012
1183.748
1182.406
1180.984
1179.468
1177.838
1176.094
1174.223
1172.213
1170.045
1167.7
1165.154
1162.397
1159.622
1187.327
1186.208
1185.022
1183.765
1182.433
1181.015
1179.492
1177.867
1176.127
1174.262
1172.257
1170.095
1167.756
1165.216
1162.472
1160.78
1162.531
1160.705
1164.873
1162.504
1160.55
1167.314
1164.865
1162.452
1160.299
1169.676
1167.313
1164.849
1162.37
1159.906
1171.899
1169.678
1167.311
1164.821
1162.25
1173.971
1171.902
1169.681
1167.304
1164.775
1175.897
1173.974
1171.907
1169.683
1167.289
1177.688
1175.901
1173.981
1171.915
1169.684
1179.357
1177.693
1175.909
1173.993
1171.926
1180.914
1179.362
1177.702
1175.924
1174.011
1182.369
1180.919
1179.372
1177.72
1175.949
1183.731
1182.374
1180.93
1179.391
1177.754
1176.022
1174.144
1172.122
1169.94
1167.575
1164.996
1162.168
1159.055
1185.007
1183.736
1182.385
1180.949
1179.426
1177.806
1176.058
1174.183
1172.166
1169.991
1167.637
1165.075
1162.281
1159.313
1186.203
1185.012
1183.746
1182.404
1180.981
1179.466
1177.836
1176.092
1174.222
1172.212
1170.044
1167.698
1165.148
1162.377
1159.52
1187.326
1186.208
1185.021
1183.764
1182.432
1181.014
1179.492
1177.866
1176.127
1174.262
1172.257
1170.095
1167.756
1165.214
1162.463
1188.38
1187.33
1186.217
1185.037
1183.789
1182.46
1181.036
1179.518
1177.896
1176.162
1174.302
1172.303
1170.146
1167.812
1165.278
1160.785
1162.534
1160.714
1164.875
1162.508
1160.567
1167.317
1164.868
1162.458
1160.331
1169.678
1167.316
1164.854
1162.382
1159.975
1171.901
1169.68
1167.314
1164.829
1162.271
1173.972
1171.903
1169.682
1167.307
1164.783
1175.897
1173.974
1171.907
1169.683
1167.289
1177.688
1175.9
1173.98
1171.912
1169.68
1179.356
1177.692
1175.907
1173.988
1171.917
1180.913
1179.36
1177.699
1175.918
1173.999
1182.368
1180.917
1179.369
1177.713
1175.934
1183.729
1182.372
1180.926
1179.384
1177.735
1185.006
1183.734
1182.382
1180.944
1179.416
1177.802
1176.055
1174.18
1172.163
1169.986
1167.626
1165.053
1162.231
1159.119
1186.203
1185.01
1183.744
1182.4
1180.975
1179.462
1177.834
1176.09
1174.22
1172.21
1170.041
1167.693
1165.138
1162.348
1159.371
1187.326
1186.207
1185.02
1183.762
1182.429
1181.012
1179.49
1177.865
1176.126
1174.261
1172.257
1170.095
1167.756
1165.212
1162.445
1188.38
1187.33
1186.216
1185.036
1183.788
1182.459
1181.035
1179.517
1177.896
1176.162
1174.302
1172.303
1170.148
1167.814
1165.278
1189.37
1188.384
1187.339
1186.231
1185.06
1183.813
1182.479
1181.059
1179.545
1177.928
1176.198
1174.343
1172.349
1170.198
1167.87
1160.789
1162.536
1160.721
1164.878
1162.512
1160.582
1167.319
1164.872
1162.464
1160.358
1169.681
1167.32
1164.86
1162.393
1160.045
1171.902
1169.682
1167.32
1164.838
1162.298
1173.973
1171.905
1169.686
1167.314
1164.797
1175.898
1173.975
1171.909
1169.686
1167.295
1177.688
1175.9
1173.98
1171.912
1169.68
1179.356
1177.691
1175.906
1173.986
1171.913
1180.912
1179.359
1177.697
1175.913
1173.992
1182.367
1180.916
1179.366
1177.707
1175.924
1183.728
1182.371
1180.923
1179.378
1177.722
1185.005
1183.733
1182.379
1180.938
1179.399
1186.202
1185.009
1183.742
1182.395
1180.966
1179.459
1177.831
1176.088
1174.218
1172.207
1170.037
1167.685
1165.123
1162.314
1159.188
1187.325
1186.206
1185.018
1183.758
1182.424
1181.009
1179.488
1177.863
1176.125
1174.26
1172.256
1170.095
1167.755
1165.208
1162.424
1188.38
1187.329
1186.215
1185.034
1183.785
1182.457
1181.034
1179.516
1177.895
1176.161
1174.302
1172.304
1170.15
1167.817
1165.279
1189.37
1188.384
1187.338
1186.23
1185.058
1183.812
1182.479
1181.059
1179.544
1177.928
1176.198
1174.344
1172.351
1170.201
1167.873
1190.298
1189.373
1188.392
1187.352
1186.252
1185.082
1183.831
1182.501
1181.084
1179.573
1177.96
1176.235
1174.385
1172.396
1170.25
1160.791
1162.538
1160.727
1164.88
1162.515
1160.594
1167.322
1164.875
1162.47
1160.384
1169.683
1167.323
1164.866
1162.403
1160.077
1171.904
1169.686
1167.325
1164.849
1162.321
1173.975
1171.907
1169.69
1167.323
1164.816
1175.899
1173.977
1171.912
1169.692
1167.307
1177.688
1175.901
1173.981
1171.915
1169.684
1179.356
1177.691
1175.906
1173.986
1171.913
1180.911
1179.358
1177.696
1175.911
1173.988
1182.366
1180.914
1179.364
1177.703
1175.917
1183.727
1182.369
1180.921
1179.373
1177.712
1185.004
1183.731
1182.376
1180.932
1179.386
1186.201
1185.008
1183.739
1182.389
1180.951
1187.324
1186.205
1185.016
1183.754
1182.416
1181.005
1179.486
1177.861
1176.123
1174.258
1172.254
1170.093
1167.752
1165.203
1162.406
1188.379
1187.328
1186.213
1185.031
1183.78
1182.454
1181.032
1179.515
1177.894
1176.161
1174.302
1172.305
1170.152
1167.822
1165.283
1189.369
1188.383
1187.337
1186.228
1185.056
1183.811
1182.478
1181.058
1179.544
1177.927
1176.198
1174.345
1172.354
1170.206
1167.879
1190.298
1189.373
1188.391
1187.351
1186.251
1185.081
1183.831
1182.5
1181.083
1179.573
1177.961
1176.236
1174.387
1172.399
1170.253
1191.169
1190.302
1189.38
1188.404
1187.371
1186.273
1185.099
1183.851
1182.523
1181.11
1179.603
1177.994
1176.273
1174.427
1172.442
1162.538
1160.73
1164.881
1162.517
1160.604
1167.324
1164.878
1162.474
1160.406
1169.685
1167.327
1164.872
1162.411
1160.12
1171.907
1169.689
1167.332
1164.86
1162.33
1159.763
1173.976
1171.91
1169.696
1167.334
1164.838
1175.9
1173.979
1171.916
1169.701
1167.324
1177.689
1175.903
1173.984
1171.921
1169.694
1179.356
1177.692
1175.907
1173.988
1171.917
1180.911
1179.358
1177.696
1175.911
1173.988
1182.365
1180.914
1179.363
1177.701
1175.914
1183.727
1182.368
1180.919
1179.369
1177.706
1185.003
1183.73
1182.374
1180.927
1179.378
1186.2
1185.006
1183.736
1182.384
1180.939
1187.323
1186.203
1185.013
1183.748
1182.401
1188.378
1187.327
1186.211
1185.027
1183.772
1182.451
1181.03
1179.513
1177.893
1176.159
1174.301
1172.305
1170.154
1167.827
1165.293
1189.368
1188.382
1187.335
1186.225
1185.051
1183.808
1182.476
1181.056
1179.543
1177.927
1176.199
1174.347
1172.357
1170.213
1167.89
1190.298
1189.372
1188.39
1187.349
1186.248
1185.08
1183.829
1182.499
1181.083
1179.573
1177.961
1176.237
1174.39
1172.404
1170.261
1191.169
1190.301
1189.38
1188.403
1187.37
1186.272
1185.098
1183.85
1182.523
1181.11
1179.603
1177.995
1176.274
1174.43
1172.446
1191.986
1191.173
1190.308
1189.392
1188.422
1187.391
1186.288
1185.117
1183.872
1182.547
1181.137
1179.633
1178.028
1176.31
1174.468
1164.882
1162.518
1160.608
1167.325
1164.88
1162.478
1160.422
1169.687
1167.329
1164.876
1162.418
1160.161
1171.909
1169.692
1167.337
1164.869
1162.341
1159.864
1173.978
1171.913
1169.702
1167.346
1164.86
1162.261
1159.538
1175.902
1173.982
1171.921
1169.711
1167.345
1177.691
1175.905
1173.988
1171.928
1169.709
1179.357
1177.693
1175.909
1173.993
1171.926
1180.912
1179.359
1177.697
1175.913
1173.992
1182.365
1180.914
1179.363
1177.701
1175.914
1183.726
1182.368
1180.918
1179.367
1177.703
1185.002
1183.729
1182.372
1180.924
1179.372
1186.199
1185.005
1183.734
1182.38
1180.931
1187.322
1186.202
1185.011
1183.743
1182.391
1188.377
1187.326
1186.209
1185.022
1183.759
1189.368
1188.381
1187.333
1186.222
1185.044
1183.806
1182.474
1181.055
1179.541
1177.926
1176.198
1174.347
1172.36
1170.221
1167.908
1190.297
1189.371
1188.389
1187.346
1186.244
1185.077
1183.828
1182.498
1181.082
1179.572
1177.961
1176.239
1174.393
1172.411
1170.274
1191.169
1190.301
1189.379
1188.402
1187.368
1186.271
1185.097
1183.85
1182.522
1181.109
1179.603
1177.996
1176.277
1174.435
1172.453
1191.986
1191.172
1190.308
1189.391
1188.421
1187.39
1186.288
1185.117
1183.871
1182.547
1181.137
1179.634
1178.029
1176.313
1174.471
1192.75
1191.989
1191.179
1190.32
1189.409
1188.441
1187.405
1186.305
1185.136
1183.893
1182.572
1181.164
1179.664
1178.062
1176.347
1167.326
1164.881
1162.479
1160.431
1169.689
1167.331
1164.879
1162.423
1160.192
1171.911
1169.695
1167.342
1164.876
1162.352
1159.943
1173.98
1171.916
1169.707
1167.356
1164.875
1162.281
1159.69
1175.904
1173.985
1171.927
1169.722
1167.372
1164.881
1162.208
1159.344
1177.692
1175.907
1173.993
1171.938
1169.729
1179.358
1177.695
1175.913
1174
1171.939
1180.913
1179.36
1177.699
1175.918
1173.999
1182.366
1180.914
1179.364
1177.703
1175.917
1183.726
1182.368
1180.918
1179.367
1177.703
1185.002
1183.728
1182.371
1180.922
1179.369
1186.198
1185.004
1183.733
1182.377
1180.926
1187.322
1186.201
1185.009
1183.739
1182.384
1188.376
1187.325
1186.207
1185.017
1183.75
1189.367
1188.38
1187.331
1186.217
1185.032
1190.296
1189.37
1188.387
1187.343
1186.238
1185.075
1183.826
1182.497
1181.081
1179.571
1177.961
1176.24
1174.397
1172.42
1170.294
1191.168
1190.3
1189.377
1188.399
1187.364
1186.268
1185.096
1183.848
1182.522
1181.109
1179.603
1177.997
1176.281
1174.442
1172.466
1191.985
1191.172
1190.307
1189.39
1188.419
1187.389
1186.287
1185.116
1183.871
1182.547
1181.137
1179.635
1178.032
1176.317
1174.479
1192.749
1191.988
1191.179
1190.319
1189.408
1188.44
1187.405
1186.305
1185.136
1183.893
1182.572
1181.165
1179.665
1178.064
1176.35
1193.463
1192.752
1191.995
1191.19
1190.336
1189.427
1188.454
1187.421
1186.323
1185.156
1183.916
1182.597
1181.192
1179.694
1178.094
1169.689
1167.332
1164.88
1162.426
1160.208
1171.912
1169.697
1167.345
1164.881
1162.36
1159.996
1173.982
1171.919
1169.711
1167.363
1164.885
1162.3
1159.799
1175.906
1173.987
1171.932
1169.732
1167.388
1164.892
1162.241
1159.534
1177.694
1175.91
1173.998
1171.948
1169.756
1167.426
1164.891
1162.159
1159.192
1179.36
1177.697
1175.917
1174.009
1171.958
1180.914
1179.362
1177.702
1175.924
1174.011
1182.367
1180.916
1179.366
1177.707
1175.924
1183.727
1182.368
1180.919
1179.369
1177.706
1185.002
1183.728
1182.371
1180.922
1179.369
1186.198
1185.003
1183.732
1182.375
1180.924
1187.321
1186.2
1185.007
1183.737
1182.379
1188.376
1187.324
1186.205
1185.014
1183.743
1189.366
1188.379
1187.329
1186.213
1185.023
1190.296
1189.369
1188.384
1187.338
1186.226
1191.168
1190.299
1189.376
1188.396
1187.358
1186.266
1185.094
1183.847
1182.52
1181.108
1179.603
1177.998
1176.284
1174.45
1172.485
1191.985
1191.171
1190.306
1189.387
1188.416
1187.387
1186.285
1185.115
1183.87
1182.546
1181.137
1179.636
1178.035
1176.324
1174.491
1192.749
1191.988
1191.178
1190.317
1189.406
1188.439
1187.404
1186.304
1185.135
1183.893
1182.572
1181.166
1179.668
1178.068
1176.357
1193.463
1192.752
1191.994
1191.189
1190.335
1189.426
1188.454
1187.421
1186.323
1185.156
1183.916
1182.597
1181.193
1179.696
1178.097
1194.129
1193.466
1192.758
1192.005
1191.205
1190.352
1189.44
1188.469
1187.438
1186.342
1185.177
1183.939
1182.623
1181.22
1179.724
1171.913
1169.698
1167.346
1164.883
1162.364
1160.023
1173.983
1171.92
1169.714
1167.368
1164.891
1162.313
1159.87
1175.907
1173.99
1171.936
1169.739
1167.399
1164.902
1162.267
1159.669
1177.696
1175.912
1174.002
1171.957
1169.772
1167.434
1164.906
1162.207
1159.408
1179.361
1177.699
1175.922
1174.018
1171.983
1169.819
1167.459
1164.903
1162.126
1159.088
1180.915
1179.364
1177.706
1175.932
1174.028
1182.368
1180.917
1179.369
1177.713
1175.934
1183.727
1182.369
1180.921
1179.373
1177.712
1185.002
1183.729
1182.372
1180.924
1179.372
1186.198
1185.003
1183.732
1182.375
1180.924
1187.321
1186.2
1185.007
1183.735
1182.377
1188.375
1187.323
1186.203
1185.011
1183.739
1189.365
1188.378
1187.327
1186.209
1185.017
1190.295
1189.368
1188.382
1187.334
1186.218
1191.167
1190.298
1189.374
1188.392
1187.347
1191.984
1191.17
1190.304
1189.384
1188.41
1187.384
1186.284
1185.113
1183.869
1182.545
1181.137
1179.637
1178.038
1176.332
1174.509
1192.749
1191.987
1191.176
1190.315
1189.403
1188.437
1187.403
1186.303
1185.135
1183.893
1182.572
1181.167
1179.671
1178.074
1176.368
1193.463
1192.752
1191.994
1191.187
1190.333
1189.425
1188.453
1187.42
1186.322
1185.156
1183.917
1182.598
1181.196
1179.7
1178.104
1194.129
1193.466
1192.758
1192.004
1191.204
1190.352
1189.439
1188.469
1187.438
1186.342
1185.178
1183.94
1182.624
1181.222
1179.727
1194.748
1194.132
1193.472
1192.768
1192.02
1191.221
1190.364
1189.453
1188.485
1187.455
1186.361
1185.199
1183.963
1182.648
1181.247
1173.984
1171.921
1169.716
1167.37
1164.895
1162.32
1159.905
1175.908
1173.991
1171.938
1169.744
1167.405
1164.91
1162.285
1159.755
1177.697
1175.914
1174.006
1171.964
1169.782
1167.441
1164.918
1162.241
1159.561
1179.363
1177.702
1175.926
1174.026
1171.998
1169.826
1167.467
1164.923
1162.185
1159.318
1180.916
1179.366
1177.71
1175.94
1174.051
1172.045
1169.858
1167.493
1164.923
1162.115
1159.032
1182.369
1180.919
1179.372
1177.72
1175.949
1183.728
1182.371
1180.923
1179.378
1177.722
1185.003
1183.73
1182.374
1180.927
1179.378
1186.198
1185.004
1183.733
1182.377
1180.926
1187.321
1186.2
1185.007
1183.735
1182.377
1188.375
1187.322
1186.203
1185.01
1183.737
1189.365
1188.377
1187.326
1186.207
1185.013
1190.294
1189.367
1188.381
1187.331
1186.212
1191.166
1190.297
1189.372
1188.388
1187.34
1191.983
1191.169
1190.302
1189.38
1188.4
1192.748
1191.986
1191.175
1190.312
1189.398
1188.435
1187.401
1186.302
1185.134
1183.892
1182.572
1181.168
1179.673
1178.081
1176.384
1193.462
1192.751
1191.992
1191.185
1190.33
1189.423
1188.452
1187.419
1186.322
1185.156
1183.917
1182.6
1181.198
1179.706
1178.114
1194.129
1193.465
1192.757
1192.003
1191.202
1190.351
1189.438
1188.468
1187.437
1186.342
1185.178
1183.941
1182.626
1181.226
1179.733
1194.748
1194.131
1193.471
1192.767
1192.019
1191.22
1190.364
1189.453
1188.485
1187.455
1186.362
1185.2
1183.964
1182.65
1181.25
1195.322
1194.751
1194.137
1193.481
1192.782
1192.035
1191.232
1190.378
1189.468
1188.501
1187.474
1186.382
1185.221
1183.987
1182.673
1175.909
1173.992
1171.94
1169.746
1167.408
1164.913
1162.295
1159.797
1177.698
1175.915
1174.008
1171.968
1169.788
1167.447
1164.926
1162.264
1159.659
1179.364
1177.703
1175.929
1174.032
1172.007
1169.832
1167.474
1164.937
1162.226
1159.481
1180.918
1179.368
1177.714
1175.948
1174.064
1172.05
1169.863
1167.502
1164.947
1162.179
1159.266
1182.37
1180.921
1179.376
1177.727
1175.97
1174.108
1172.083
1169.898
1167.531
1164.953
1162.128
1159.023
1183.729
1182.372
1180.926
1179.384
1177.735
1185.004
1183.731
1182.376
1180.932
1179.386
1186.199
1185.005
1183.734
1182.38
1180.931
1187.321
1186.2
1185.007
1183.737
1182.379
1188.375
1187.322
1186.203
1185.01
1183.737
1189.365
1188.376
1187.325
1186.206
1185.011
1190.294
1189.366
1188.38
1187.329
1186.209
1191.165
1190.296
1189.37
1188.385
1187.334
1191.982
1191.168
1190.3
1189.377
1188.393
1192.747
1191.985
1191.173
1190.308
1189.388
1193.462
1192.75
1191.991
1191.182
1190.325
1189.421
1188.45
1187.418
1186.321
1185.155
1183.916
1182.6
1181.201
1179.713
1178.129
1194.128
1193.465
1192.756
1192.001
1191.199
1190.349
1189.437
1188.467
1187.436
1186.341
1185.178
1183.942
1182.628
1181.231
1179.742
1194.748
1194.131
1193.471
1192.766
1192.017
1191.219
1190.363
1189.453
1188.484
1187.455
1186.362
1185.2
1183.966
1182.653
1181.255
1195.322
1194.75
1194.137
1193.48
1192.781
1192.034
1191.232
1190.377
1189.468
1188.501
1187.474
1186.382
1185.222
1183.988
1182.675
1195.853
1195.325
1194.756
1194.146
1193.495
1192.796
1192.046
1191.245
1190.392
1189.484
1188.519
1187.492
1186.402
1185.243
1184.009
1177.698
1175.916
1174.009
1171.97
1169.791
1167.449
1164.93
1162.276
1159.706
1179.365
1177.705
1175.931
1174.036
1172.012
1169.836
1167.479
1164.947
1162.253
1159.586
1180.919
1179.37
1177.717
1175.953
1174.072
1172.055
1169.868
1167.51
1164.963
1162.225
1159.433
1182.371
1180.923
1179.379
1177.734
1175.982
1174.113
1172.087
1169.903
1167.542
1164.979
1162.194
1159.251
1183.731
1182.374
1180.93
1179.391
1177.754
1176.022
1174.144
1172.122
1169.94
1167.575
1164.996
1162.168
1159.055
1185.005
1183.733
1182.379
1180.938
1179.399
1186.2
1185.006
1183.736
1182.384
1180.939
1187.322
1186.201
1185.009
1183.739
1182.384
1188.375
1187.323
1186.203
1185.011
1183.739
1189.365
1188.376
1187.325
1186.206
1185.011
1190.294
1189.366
1188.379
1187.328
1186.207
1191.165
1190.295
1189.369
1188.383
1187.331
1191.982
1191.167
1190.299
1189.374
1188.388
1192.747
1191.984
1191.171
1190.305
1189.381
1193.461
1192.749
1191.989
1191.179
1190.316
1194.127
1193.464
1192.754
1191.998
1191.194
1190.347
1189.436
1188.466
1187.436
1186.341
1185.178
1183.943
1182.631
1181.237
1179.756
1194.747
1194.13
1193.47
1192.764
1192.014
1191.217
1190.362
1189.452
1188.484
1187.455
1186.362
1185.201
1183.968
1182.658
1181.264
1195.322
1194.75
1194.136
1193.479
1192.78
1192.033
1191.231
1190.377
1189.468
1188.501
1187.474
1186.383
1185.224
1183.991
1182.68
1195.853
1195.325
1194.756
1194.145
1193.494
1192.796
1192.045
1191.244
1190.391
1189.484
1188.519
1187.493
1186.403
1185.244
1184.012
1196.341
1195.855
1195.33
1194.765
1194.159
1193.508
1192.807
1192.058
1191.258
1190.406
1189.5
1188.536
1187.512
1186.422
1185.264
1179.365
1177.705
1175.932
1174.038
1172.015
1169.838
1167.481
1164.952
1162.266
1159.638
1180.92
1179.371
1177.719
1175.956
1174.077
1172.059
1169.871
1167.514
1164.974
1162.254
1159.541
1182.372
1180.924
1179.382
1177.739
1175.99
1174.117
1172.09
1169.907
1167.549
1164.997
1162.24
1159.416
1183.732
1182.376
1180.933
1179.397
1177.765
1176.027
1174.147
1172.126
1169.945
1167.586
1165.022
1162.228
1159.269
1185.006
1183.734
1182.382
1180.944
1179.416
1177.802
1176.055
1174.18
1172.163
1169.986
1167.626
1165.053
1162.231
1159.119
1186.201
1185.008
1183.739
1182.389
1180.951
1187.322
1186.202
1185.011
1183.743
1182.391
1188.376
1187.324
1186.205
1185.014
1183.743
1189.365
1188.377
1187.326
1186.207
1185.013
1190.294
1189.366
1188.379
1187.328
1186.207
1191.165
1190.295
1189.368
1188.382
1187.329
1191.982
1191.166
1190.298
1189.372
1188.384
1192.746
1191.983
1191.17
1190.302
1189.377
1193.461
1192.748
1191.987
1191.176
1190.309
1194.127
1193.463
1192.753
1191.995
1191.186
1194.747
1194.129
1193.468
1192.761
1192.01
1191.216
1190.361
1189.451
1188.483
1187.454
1186.362
1185.202
1183.971
1182.664
1181.276
1195.321
1194.749
1194.135
1193.477
1192.777
1192.031
1191.23
1190.376
1189.467
1188.501
1187.474
1186.384
1185.226
1183.996
1182.688
1195.853
1195.324
1194.755
1194.144
1193.492
1192.795
1192.044
1191.244
1190.391
1189.484
1188.519
1187.494
1186.405
1185.247
1184.016
1196.341
1195.855
1195.33
1194.764
1194.158
1193.508
1192.807
1192.057
1191.258
1190.406
1189.5
1188.537
1187.512
1186.424
1185.266
1196.788
1196.344
1195.86
1195.338
1194.777
1194.172
1193.518
1192.818
1192.07
1191.272
1190.422
1189.517
1188.554
1187.53
1186.442
1180.92
1179.371
1177.72
1175.958
1174.079
1172.06
1169.873
1167.517
1164.979
1162.268
1159.594
1182.373
1180.925
1179.384
1177.742
1175.994
1174.12
1172.093
1169.91
1167.554
1165.008
1162.269
1159.523
1183.733
1182.377
1180.935
1179.402
1177.772
1176.031
1174.15
1172.128
1169.949
1167.594
1165.039
1162.271
1159.427
1185.007
1183.736
1182.385
1180.949
1179.426
1177.806
1176.058
1174.183
1172.166
1169.991
1167.637
1165.075
1162.281
1159.313
1186.202
1185.009
1183.742
1182.395
1180.966
1179.459
1177.831
1176.088
1174.218
1172.207
1170.037
1167.685
1165.123
1162.314
1159.188
1187.323
1186.203
1185.013
1183.748
1182.401
1188.376
1187.325
1186.207
1185.017
1183.75
1189.365
1188.378
1187.327
1186.209
1185.017
1190.294
1189.366
1188.38
1187.329
1186.209
1191.165
1190.295
1189.368
1188.382
1187.329
1191.981
1191.166
1190.297
1189.371
1188.383
1192.746
1191.983
1191.169
1190.3
1189.374
1193.46
1192.747
1191.986
1191.173
1190.305
1194.126
1193.462
1192.751
1191.992
1191.18
1194.746
1194.129
1193.467
1192.758
1192.002
1195.321
1194.749
1194.134
1193.475
1192.773
1192.03
1191.229
1190.375
1189.466
1188.5
1187.474
1186.384
1185.228
1184.001
1182.7
1195.852
1195.324
1194.754
1194.142
1193.49
1192.793
1192.044
1191.243
1190.391
1189.483
1188.519
1187.495
1186.407
1185.251
1184.024
1196.341
1195.855
1195.329
1194.763
1194.157
1193.507
1192.806
1192.057
1191.258
1190.406
1189.5
1188.537
1187.514
1186.426
1185.27
1196.788
1196.343
1195.86
1195.338
1194.776
1194.172
1193.518
1192.818
1192.07
1191.272
1190.422
1189.517
1188.555
1187.532
1186.444
1197.195
1196.79
1196.348
1195.868
1195.35
1194.79
1194.182
1193.529
1192.831
1192.084
1191.287
1190.438
1189.534
1188.572
1187.549
1182.373
1180.926
1179.384
1177.743
1175.996
1174.122
1172.094
1169.911
1167.557
1165.014
1162.283
1159.576
1183.733
1182.378
1180.937
1179.404
1177.776
1176.033
1174.152
1172.13
1169.952
1167.599
1165.05
1162.299
1159.532
1185.007
1183.737
1182.387
1180.953
1179.432
1177.809
1176.06
1174.185
1172.169
1169.995
1167.643
1165.089
1162.317
1159.464
1186.203
1185.01
1183.744
1182.4
1180.975
1179.462
1177.834
1176.09
1174.22
1172.21
1170.041
1167.693
1165.138
1162.348
1159.371
1187.324
1186.205
1185.016
1183.754
1182.416
1181.005
1179.486
1177.861
1176.123
1174.258
1172.254
1170.093
1167.752
1165.203
1162.406
1188.377
1187.326
1186.209
1185.022
1183.759
1189.366
1188.379
1187.329
1186.213
1185.023
1190.294
1189.367
1188.381
1187.331
1186.212
1191.165
1190.295
1189.369
1188.383
1187.331
1191.981
1191.166
1190.297
1189.371
1188.383
1192.745
1191.983
1191.168
1190.3
1189.372
1193.46
1192.747
1191.985
1191.171
1190.302
1194.126
1193.461
1192.75
1191.989
1191.176
1194.746
1194.128
1193.465
1192.755
1191.996
1195.32
1194.748
1194.132
1193.472
1192.765
1195.852
1195.323
1194.753
1194.14
1193.485
1192.792
1192.043
1191.242
1190.39
1189.483
1188.519
1187.495
1186.409
1185.256
1184.034
1196.34
1195.854
1195.328
1194.761
1194.154
1193.506
1192.805
1192.056
1191.257
1190.406
1189.501
1188.538
1187.516
1186.43
1185.277
1196.788
1196.343
1195.859
1195.337
1194.775
1194.171
1193.517
1192.818
1192.07
1191.272
1190.422
1189.518
1188.556
1187.534
1186.448
1197.195
1196.79
1196.348
1195.868
1195.35
1194.789
1194.182
1193.529
1192.83
1192.084
1191.287
1190.438
1189.534
1188.573
1187.55
1197.562
1197.197
1196.795
1196.356
1195.88
1195.363
1194.799
1194.193
1193.541
1192.843
1192.097
1191.302
1190.453
1189.55
1188.589
1183.734
1182.378
1180.938
1179.406
1177.778
1176.035
1174.153
1172.131
1169.953
1167.601
1165.055
1162.312
1159.584
1185.008
1183.738
1182.389
1180.956
1179.435
1177.812
1176.062
1174.187
1172.17
1169.997
1167.647
1165.098
1162.342
1159.566
1186.203
1185.012
1183.746
1182.404
1180.981
1179.466
1177.836
1176.092
1174.222
1172.212
1170.044
1167.698
1165.148
1162.377
1159.52
1187.325
1186.206
1185.018
1183.758
1182.424
1181.009
1179.488
1177.863
1176.125
1174.26
1172.256
1170.095
1167.755
1165.208
1162.424
1188.378
1187.327
1186.211
1185.027
1183.772
1182.451
1181.03
1179.513
1177.893
1176.159
1174.301
1172.305
1170.154
1167.827
1165.293
1189.367
1188.38
1187.331
1186.217
1185.032
1190.295
1189.368
1188.382
1187.334
1186.218
1191.165
1190.296
1189.37
1188.385
1187.334
1191.982
1191.166
1190.298
1189.372
1188.384
1192.745
1191.983
1191.168
1190.3
1189.372
1193.459
1192.747
1191.985
1191.171
1190.301
1194.125
1193.461
1192.749
1191.988
1191.173
1194.745
1194.127
1193.464
1192.753
1191.992
1195.32
1194.747
1194.131
1193.469