/*--------------------------------*- C++ -*----------------------------------*\
| =========                 |                                                 |
| \\      /  F ield         | OpenFOAM: The Open Source CFD Toolbox           |
|  \\    /   O peration     | Version:  2306                                  |
|   \\  /    A nd           | Website:  www.openfoam.com                      |
|    \\/     M anipulation  |                                                 |
\*---------------------------------------------------------------------------*/
FoamFile
{
    version     2.0;
    format      ascii;
    arch        "LSB;label=32;scalar=64";
    class       volScalarField;
    location    "0.9/fuel";
    object      diffSp.H2;
}
// * * * * * * * * * * * * * * * * * * * * * * * * * * * * * * * * * * * * * //

dimensions      [0 2 -1 0 0 0 0];

internalField   nonuniform List<scalar> 
16000
(
0.0001044842
0.0001044714
0.0001047564
0.000104498
0.0001044396
0.0001047599
0.0001044855
0.0001049965
0.0001047676
0.0001045271
0.0001043799
0.0001047656
0.0001044542
0.000105004
0.0001047712
0.000104515
0.00010521
0.0001050055
0.0001047915
0.0001045611
0.0001042693
0.0001047742
0.0001043954
0.000105019
0.000104777
0.0001044847
0.0001052182
0.000105013
0.0001047953
0.0001045495
0.0001054065
0.0001052173
0.0001050252
0.0001048195
0.0001046296
0.0001041156
0.0001047774
0.0001042864
0.0001050444
0.0001047858
0.0001044275
0.000105235
0.000105028
0.0001048015
0.0001045203
0.0001054144
0.0001052255
0.0001050328
0.0001048236
0.0001046191
0.0001055912
0.0001054124
0.0001052337
0.0001050483
0.0001048764
0.0001569688
0.0001039153
0.000104783
0.0001041349
0.0001050765
0.000104789
0.0001043209
0.000105264
0.0001050534
0.0001048109
0.000104465
0.000105431
0.0001052423
0.000105048
0.0001048303
0.000104592
0.0001055988
0.0001054204
0.000105242
0.0001050561
0.000104881
0.0001569534
0.0001057667
0.0001055961
0.0001054264
0.0001052532
0.0001050957
0.0001573347
0.0001569805
0.0001037317
0.0001047583
0.0001039371
0.0001051224
0.0001047946
0.0001041727
0.0001053031
0.0001050853
0.0001048147
0.0001043611
0.0001054597
0.0001052712
0.0001050736
0.0001048403
0.0001045401
0.0001056145
0.0001054369
0.000105259
0.0001050716
0.0001048888
0.0001569137
0.0001057737
0.0001056036
0.0001054344
0.0001052616
0.0001051038
0.0001573418
0.0001569654
0.000105934
0.0001057707
0.0001056082
0.0001054431
0.0001052934
0.0001576602
0.0001573443
0.0001569964
0.0001035926
0.0001047275
0.0001037558
0.0001051474
0.0001047701
0.000103978
0.0001053588
0.0001051307
0.0001048208
0.0001042162
0.0001054992
0.00010531
0.0001051056
0.0001048449
0.000104441
0.0001056416
0.0001054655
0.0001052879
0.0001050975
0.0001049004
0.0001568375
0.0001057884
0.0001056193
0.000105451
0.0001052787
0.0001051199
0.0001573537
0.0001569262
0.0001059405
0.0001057777
0.0001056157
0.0001054511
0.000105302
0.0001576724
0.0001573513
0.0001569816
0.0001060938
0.0001059373
0.0001057811
0.0001056226
0.0001054778
0.0001579541
0.000157668
0.0001573573
0.0001570106
0.0001035191
0.0001046983
0.0001036183
0.000105163
0.0001047397
0.0001037993
0.0001053983
0.0001051553
0.0001047968
0.0001040249
0.0001055553
0.0001053651
0.0001051509
0.0001048516
0.0001043019
0.0001056796
0.0001055048
0.0001053267
0.0001051297
0.0001049068
0.0001566911
0.0001058138
0.0001056464
0.0001054796
0.0001053079
0.0001051468
0.0001573714
0.0001568511
0.0001059542
0.0001057924
0.0001056314
0.0001054679
0.0001053196
0.0001576966
0.0001573633
0.0001569431
0.0001060999
0.0001059438
0.0001057882
0.0001056302
0.000105486
0.000157967
0.0001576801
0.0001573644
0.0001569961
0.0001062465
0.0001060965
0.0001059464
0.0001057938
0.000105653
0.0001582285
0.0001579605
0.0001576786
0.0001573689
0.000157027
0.0001035191
0.0001046814
0.0001035456
0.0001051694
0.0001047109
0.0001036637
0.0001054282
0.0001051708
0.000104767
0.0001038489
0.0001055982
0.0001054041
0.0001051754
0.0001048283
0.0001041154
0.0001057333
0.0001055603
0.0001053815
0.000105175
0.0001049155
0.0001564855
0.0001058496
0.0001056841
0.0001055188
0.0001053466
0.0001051799
0.0001573812
0.0001567063
0.000105978
0.0001058177
0.0001056585
0.0001054965
0.0001053493
0.0001577369
0.000157381
0.0001568692
0.0001061128
0.0001059576
0.0001058029
0.000105646
0.0001055031
0.0001579933
0.0001577043
0.0001573764
0.0001569583
0.0001062522
0.0001061027
0.000105953
0.0001058008
0.0001056607
0.0001582409
0.0001579733
0.0001576908
0.000157376
0.0001570128
0.0001063925
0.0001062488
0.0001061046
0.0001059576
0.0001058207
0.0001584896
0.0001582337
0.0001579693
0.0001576881
0.0001573822
0.0003824609
0.0001035926
0.0001046814
0.0001035456
0.0001051716
0.0001046942
0.0001035919
0.0001054461
0.0001051772
0.0001047387
0.0001037151
0.0001056318
0.0001054338
0.0001051909
0.0001047991
0.0001039431
0.0001057756
0.0001056026
0.0001054202
0.0001051995
0.0001048936
0.0001562093
0.0001059001
0.0001057372
0.000105574
0.0001054012
0.0001052261
0.0001573942
0.0001565029
0.0001060117
0.0001058533
0.000105696
0.0001055356
0.0001053887
0.0001577863
0.0001573906
0.0001567264
0.0001061351
0.0001059813
0.0001058282
0.0001056731
0.0001055322
0.0001580378
0.0001577443
0.0001573942
0.0001568857
0.0001062644
0.0001061155
0.0001059667
0.0001058156
0.0001056768
0.0001582664
0.0001579995
0.0001577149
0.0001573882
0.0001569758
0.0001063979
0.0001062546
0.0001061107
0.0001059642
0.0001058278
0.0001585012
0.0001582461
0.0001579821
0.0001577002
0.0001573894
0.0003824294
0.0001065319
0.0001063944
0.000106256
0.0001061145
0.0001059816
0.0001587397
0.0001584939
0.0001582411
0.0001579771
0.000157699
0.0003833005
0.0003825786
0.0001037317
0.0001046983
0.0001036183
0.0001051716
0.0001046942
0.0001035919
0.0001054547
0.0001051795
0.0001047223
0.0001036443
0.000105653
0.0001054515
0.0001051973
0.0001047713
0.0001038117
0.0001058092
0.0001056359
0.0001054496
0.000105215
0.0001048655
0.0001559539
0.0001059407
0.0001057791
0.0001056159
0.0001054397
0.000105251
0.0001573616
0.0001562294
0.0001060591
0.0001059033
0.0001057488
0.0001055905
0.0001054436
0.0001578549
0.0001574031
0.0001565254
0.0001061668
0.0001060147
0.0001058636
0.0001057105
0.0001055716
0.0001580964
0.0001577931
0.0001574038
0.0001567447
0.0001062854
0.0001061377
0.0001059904
0.0001058409
0.0001057041
0.0001583099
0.0001580437
0.0001577547
0.000157406
0.0001569045
0.0001064093
0.0001062666
0.0001061236
0.0001059779
0.0001058428
0.0001585252
0.0001582715
0.0001580082
0.0001577242
0.0001574017
0.0003823466
0.0001065371
0.0001063998
0.0001062617
0.0001061206
0.0001059882
0.0001587505
0.0001585055
0.0001582534
0.0001579899
0.0001577111
0.0003833182
0.0003825537
0.0001066651
0.0001065335
0.0001064008
0.0001062648
0.0001061361
0.00015898
0.0001587433
0.0001585001
0.0001582476
0.0001579862
0.0003840517
0.0003833879
0.0003827433
0.0001039153
0.0001047275
0.0001037558
0.0001051694
0.0001047109
0.0001036637
0.0001054547
0.0001051795
0.0001047223
0.0001036443
0.0001056634
0.00010546
0.0001051997
0.0001047552
0.0001037421
0.0001058308
0.000105657
0.0001054673
0.0001052215
0.0001048385
0.0001557592
0.000105973
0.0001058124
0.000105649
0.0001054689
0.0001052668
0.0001573201
0.0001559767
0.0001060976
0.0001059434
0.0001057903
0.0001056322
0.0001054822
0.0001578917
0.0001573704
0.0001562547
0.0001062113
0.0001060617
0.0001059133
0.000105763
0.0001056267
0.000158178
0.0001578608
0.000157416
0.0001565459
0.0001063153
0.0001061692
0.0001060237
0.0001058762
0.0001057418
0.0001583686
0.0001581016
0.000157803
0.0001574154
0.0001567655
0.0001064292
0.0001062876
0.0001061458
0.0001060016
0.0001058683
0.0001585661
0.0001583146
0.0001580521
0.0001577638
0.0001574196
0.0003821861
0.0001065479
0.0001064112
0.0001062738
0.0001061335
0.0001060022
0.0001587728
0.0001585293
0.0001582787
0.0001580159
0.0001577351
0.0003833483
0.0003824859
0.0001066699
0.0001065386
0.0001064062
0.0001062706
0.0001061423
0.00015899
0.000158754
0.0001585116
0.0001582599
0.0001579989
0.0003840806
0.0003834055
0.0003827279
0.0001067921
0.0001066664
0.0001065393
0.0001064087
0.0001062844
0.0001592108
0.0001589829
0.0001587485
0.0001585055
0.0001582552
0.000384735
0.000384119
0.0003835095
0.0003828941
0.0001041156
0.0001047583
0.0001039371
0.000105163
0.0001047397
0.0001037993
0.0001054461
0.0001051772
0.0001047387
0.0001037151
0.0001056634
0.00010546
0.0001051997
0.0001047552
0.0001037421
0.0001058415
0.0001056673
0.0001054758
0.0001052239
0.0001048228
0.0001556559
0.000105994
0.0001058338
0.0001056699
0.0001054865
0.0001052735
0.00015728
0.0001557839
0.0001061284
0.0001059755
0.0001058234
0.000105665
0.0001055115
0.0001579152
0.0001573292
0.0001560047
0.0001062478
0.0001060998
0.0001059531
0.0001058042
0.0001056683
0.0001582351
0.0001578969
0.0001573833
0.0001562778
0.0001063573
0.0001062134
0.0001060704
0.0001059257
0.0001057944
0.0001584505
0.0001581823
0.0001578699
0.0001574274
0.0001565692
0.0001064576
0.0001063173
0.0001061771
0.0001060348
0.0001059038
0.0001586222
0.0001583727
0.0001581095
0.0001578117
0.0001574291
0.0003818669
0.0001065667
0.000106431
0.0001062947
0.0001061557
0.000106026
0.000158811
0.0001585699
0.0001583215
0.0001580595
0.0001577745
0.0003833916
0.0003823528
0.0001066803
0.0001065495
0.0001064176
0.0001062827
0.0001061553
0.0001590108
0.0001587762
0.0001585353
0.000158285
0.0001580248
0.0003841374
0.0003834352
0.0003826819
0.0001067967
0.0001066713
0.0001065444
0.0001064142
0.0001062902
0.0001592201
0.0001589928
0.0001587592
0.000158517
0.0001582674
0.0003847651
0.000384146
0.0003835278
0.0003828898
0.0001069132
0.0001067932
0.0001066715
0.0001065464
0.0001064265
0.0001594324
0.0001592132
0.0001589874
0.0001587531
0.0001585119
0.0003853769
0.0003847863
0.0003842129
0.0003836156
0.0003830494
0.0001042693
0.000104783
0.0001041349
0.0001051474
0.0001047701
0.000103978
0.0001054282
0.0001051708
0.000104767
0.0001038489
0.000105653
0.0001054515
0.0001051973
0.0001047713
0.0001038117
0.0001058415
0.0001056673
0.0001054758
0.0001052239
0.0001048228
0.0001556559
0.0001060045
0.0001058445
0.0001056802
0.0001054949
0.000105276
0.0001572569
0.0001556817
0.0001061485
0.0001059964
0.0001058447
0.0001056858
0.0001055291
0.0001579253
0.0001572896
0.000155814
0.0001062771
0.0001061304
0.000105985
0.000105837
0.000105701
0.0001582786
0.0001579201
0.0001573424
0.0001560304
0.000106392
0.0001062495
0.0001061082
0.0001059652
0.0001058355
0.0001585122
0.0001582386
0.0001579053
0.0001573946
0.0001563037
0.0001064973
0.000106359
0.000106221
0.0001060812
0.0001059533
0.0001587004
0.0001584537
0.0001581893
0.0001578778
0.0001574409
0.0003814083
0.0001065937
0.0001064592
0.0001063243
0.0001061869
0.0001060593
0.0001588638
0.0001586255
0.0001583791
0.0001581162
0.0001578219
0.0003834122
0.0003820657
0.0001066982
0.0001065682
0.0001064373
0.0001063035
0.0001061776
0.0001590464
0.0001588141
0.0001585757
0.0001583275
0.0001580681
0.0003842299
0.0003834781
0.0003825884
0.0001068066
0.0001066815
0.0001065552
0.0001064256
0.0001063024
0.0001592395
0.0001590135
0.0001587813
0.0001585406
0.0001582924
0.000384826
0.0003841984
0.0003835592
0.0003828697
0.0001069176
0.0001067978
0.0001066764
0.0001065516
0.000106432
0.0001594411
0.0001592225
0.0001589972
0.0001587636
0.0001585233
0.0003854057
0.0003848141
0.000384238
0.0003836348
0.0003830574
0.0001070285
0.0001069141
0.0001067979
0.0001066781
0.0001065627
0.000159645
0.0001594344
0.000159217
0.0001589912
0.0001587584
0.0003859912
0.0003854148
0.0003848595
0.0003842922
0.0003837227
0.0001043799
0.0001047774
0.0001042864
0.0001051224
0.0001047946
0.0001041727
0.0001053983
0.0001051553
0.0001047968
0.0001040249
0.0001056318
0.0001054338
0.0001051909
0.0001047991
0.0001039431
0.0001058308
0.000105657
0.0001054673
0.0001052215
0.0001048385
0.0001557592
0.0001060045
0.0001058445
0.0001056802
0.0001054949
0.000105276
0.0001572569
0.0001556817
0.0001061585
0.0001060068
0.0001058553
0.000105696
0.0001055375
0.0001579291
0.0001572667
0.0001557128
0.0001062963
0.0001061503
0.0001060057
0.0001058582
0.0001057217
0.0001583048
0.00015793
0.0001573033
0.0001558417
0.0001064199
0.0001062786
0.0001061386
0.0001059968
0.0001058682
0.0001585608
0.0001582815
0.0001579282
0.000157354
0.0001560588
0.0001065304
0.0001063934
0.0001062569
0.0001061188
0.0001059926
0.0001587613
0.0001585146
0.0001582448
0.0001579125
0.000157408
0.0003807885
0.0001066315
0.0001064986
0.0001063657
0.0001062306
0.0001061058
0.0001589374
0.0001587029
0.0001584592
0.0001581952
0.0001578874
0.0003834342
0.0003816227
0.0001067239
0.000106595
0.0001064654
0.0001063331
0.000106209
0.000159096
0.0001588664
0.0001586307
0.0001583845
0.0001581243
0.0003843381
0.0003834937
0.0003823467
0.0001068237
0.0001066994
0.0001065739
0.0001064453
0.0001063234
0.0001592729
0.0001590489
0.0001588189
0.0001585806
0.0001583346
0.0003849272
0.0003842833
0.0003836065
0.0003828259
0.000106927
0.0001068076
0.0001066867
0.0001065624
0.0001064435
0.0001594594
0.0001592418
0.0001590178
0.0001587856
0.0001585468
0.0003854645
0.0003848696
0.0003842865
0.000383669
0.000383067
0.0001070328
0.0001069185
0.0001068025
0.0001066829
0.0001065679
0.0001596532
0.0001594431
0.0001592262
0.000159001
0.000158769
0.000386018
0.0003854412
0.0003848848
0.0003843155
0.0003837433
0.0001071382
0.0001070292
0.0001069183
0.0001068038
0.0001066931
0.0001598487
0.0001596466
0.0001594376
0.0001592202
0.0001589957
0.0003865825
0.0003860179
0.0003854714
0.0003849197
0.0003843714
0.0001044396
0.0001047742
0.0001043954
0.0001050765
0.000104789
0.0001043209
0.0001053588
0.0001051307
0.0001048208
0.0001042162
0.0001055982
0.0001054041
0.0001051754
0.0001048283
0.0001041154
0.0001058092
0.0001056359
0.0001054496
0.000105215
0.0001048655
0.0001559539
0.000105994
0.0001058338
0.0001056699
0.0001054865
0.0001052735
0.00015728
0.0001557839
0.0001061585
0.0001060068
0.0001058553
0.000105696
0.0001055375
0.0001579291
0.0001572667
0.0001557128
0.0001063059
0.0001061603
0.0001060161
0.0001058688
0.000105732
0.0001583174
0.0001579338
0.0001572807
0.0001557416
0.0001064382
0.0001062977
0.0001061584
0.0001060174
0.0001058893
0.0001585916
0.0001583075
0.0001579381
0.0001573153
0.000155872
0.000106557
0.0001064211
0.0001062859
0.000106149
0.0001060242
0.00015881
0.0001585627
0.0001582872
0.000157935
0.0001573678
0.0003802198
0.0001066631
0.0001065315
0.0001063999
0.0001062663
0.0001061432
0.0001589959
0.0001587631
0.0001585194
0.0001582499
0.0001579214
0.0003833524
0.000381019
0.0001067599
0.0001066326
0.0001065047
0.0001063743
0.0001062526
0.0001591651
0.0001589393
0.0001587074
0.0001584639
0.0001582025
0.0003844861
0.0003835059
0.0003819098
0.0001068484
0.000106725
0.0001066006
0.0001064733
0.000106353
0.0001593195
0.0001590981
0.0001588708
0.0001586351
0.0001583911
0.0003850561
0.0003843781
0.0003836234
0.0003826497
0.0001069434
0.0001068247
0.0001067045
0.0001065811
0.0001064633
0.0001594907
0.0001592749
0.000159053
0.000158823
0.0001585866
0.000385563
0.0003849615
0.000384366
0.0003837237
0.0003830855
0.0001070418
0.0001069279
0.0001068123
0.0001066932
0.0001065788
0.0001596704
0.0001594612
0.0001592454
0.0001590215
0.0001587908
0.0003860731
0.0003854946
0.0003849348
0.00038436
0.0003837812
0.0001071423
0.0001070335
0.0001069227
0.0001068084
0.000106698
0.0001598564
0.0001596548
0.0001594462
0.0001592293
0.0001590055
0.0003866073
0.0003860424
0.0003854952
0.0003849423
0.0003843928
0.0001072424
0.0001071388
0.0001070331
0.0001069238
0.0001068176
0.0001600437
0.00015985
0.0001596494
0.0001594403
0.0001592241
0.0003871528
0.0003865996
0.0003860607
0.0003855164
0.0003849793
0.0001044714
0.0001047656
0.0001044542
0.0001050444
0.0001047858
0.0001044275
0.0001053031
0.0001050853
0.0001048147
0.0001043611
0.0001055553
0.0001053651
0.0001051509
0.0001048516
0.0001043019
0.0001057756
0.0001056026
0.0001054202
0.0001051995
0.0001048936
0.0001562093
0.000105973
0.0001058124
0.000105649
0.0001054689
0.0001052668
0.0001573201
0.0001559767
0.0001061485
0.0001059964
0.0001058447
0.0001056858
0.0001055291
0.0001579253
0.0001572896
0.000155814
0.0001063059
0.0001061603
0.0001060161
0.0001058688
0.000105732
0.0001583174
0.0001579338
0.0001572807
0.0001557416
0.0001064473
0.0001063072
0.0001061684
0.0001060277
0.0001058998
0.0001586068
0.0001583199
0.0001579418
0.000157293
0.000155773
0.0001065745
0.0001064393
0.0001063048
0.0001061687
0.0001060447
0.0001588414
0.0001585932
0.0001583129
0.0001579448
0.0001573294
0.0003797864
0.0001066886
0.0001065579
0.0001064275
0.000106295
0.0001061732
0.0001590428
0.0001588113
0.000158567
0.0001582918
0.0001579436
0.0003832575
0.0003804776
0.0001067903
0.000106664
0.0001065373
0.0001064083
0.0001062882
0.0001592207
0.0001589972
0.0001587669
0.0001585232
0.0001582564
0.0003845608
0.0003834121
0.000381298
0.0001068828
0.0001067608
0.000106638
0.0001065124
0.0001063942
0.0001593846
0.0001591666
0.0001589431
0.0001587111
0.0001584698
0.0003852348
0.0003845122
0.0003836345
0.0003821783
0.0001069671
0.0001068492
0.00010673
0.0001066077
0.0001064914
0.0001595348
0.0001593212
0.0001591017
0.0001588744
0.0001586405
0.0003856927
0.0003850754
0.0003844503
0.0003837486
0.0003830198
0.0001070575
0.0001069442
0.0001068293
0.000106711
0.0001065976
0.0001597
0.0001594923
0.0001592783
0.0001590564
0.000158828
0.0003861659
0.0003855838
0.0003850183
0.0003844344
0.0003838476
0.000107151
0.0001070425
0.0001069321
0.0001068182
0.0001067083
0.0001598727
0.0001596719
0.0001594643
0.0001592485
0.0001590259
0.0003866586
0.0003860923
0.0003855428
0.0003849863
0.0003844333
0.0001072463
0.0001071428
0.0001070373
0.0001069282
0.0001068223
0.000160051
0.0001598577
0.0001596575
0.0001594489
0.0001592332
0.0003871758
0.0003866223
0.0003860827
0.0003855373
0.000384999
0.0001073413
0.0001072429
0.0001071423
0.0001070381
0.0001069366
0.0001602301
0.0001600447
0.0001598524
0.0001596516
0.0001594436
0.0003877025
0.0003871619
0.000386631
0.0003860932
0.0003855607
0.0001044842
0.0001047599
0.0001044855
0.000105019
0.000104777
0.0001044847
0.000105264
0.0001050534
0.0001048109
0.000104465
0.0001054992
0.00010531
0.0001051056
0.0001048449
0.000104441
0.0001057333
0.0001055603
0.0001053815
0.000105175
0.0001049155
0.0001564855
0.0001059407
0.0001057791
0.0001056159
0.0001054397
0.000105251
0.0001573616
0.0001562294
0.0001061284
0.0001059755
0.0001058234
0.000105665
0.0001055115
0.0001579152
0.0001573292
0.0001560047
0.0001062963
0.0001061503
0.0001060057
0.0001058582
0.0001057217
0.0001583048
0.00015793
0.0001573033
0.0001558417
0.0001064473
0.0001063072
0.0001061684
0.0001060277
0.0001058998
0.0001586068
0.0001583199
0.0001579418
0.000157293
0.000155773
0.0001065833
0.0001064484
0.0001063143
0.0001061786
0.0001060549
0.000158857
0.0001586083
0.0001583253
0.0001579486
0.0001573074
0.0003795567
0.0001067054
0.0001065754
0.0001064456
0.0001063139
0.0001061929
0.0001590733
0.0001588424
0.0001585972
0.0001583172
0.0001579533
0.0003831687
0.0003800694
0.0001068148
0.0001066893
0.0001065636
0.0001064357
0.0001063168
0.0001592655
0.0001590436
0.0001588146
0.0001585703
0.0001582979
0.0003846107
0.0003833155
0.000380768
0.000106912
0.000106791
0.0001066692
0.0001065448
0.000106428
0.0001594375
0.0001592217
0.0001590003
0.00015877
0.0001585284
0.0003853564
0.000384569
0.0003835223
0.0003815357
0.0001070001
0.0001068835
0.0001067657
0.0001066449
0.0001065304
0.0001595962
0.0001593857
0.0001591697
0.0001589461
0.0001587159
0.0003858735
0.0003852406
0.0003845821
0.000383749
0.0003825089
0.0001070803
0.0001069678
0.0001068537
0.0001067365
0.0001066242
0.0001597418
0.000159536
0.0001593242
0.0001591047
0.0001588789
0.0003862903
0.0003856991
0.0003851188
0.00038451
0.0003838948
0.0001071661
0.0001070581
0.0001069484
0.0001068352
0.0001067261
0.0001599007
0.0001597012
0.0001594952
0.0001592811
0.0001590605
0.0003867453
0.0003861763
0.000385623
0.0003850609
0.000384504
0.0001072547
0.0001071515
0.0001070463
0.0001069376
0.0001068322
0.0001600665
0.0001598739
0.0001596745
0.0001594668
0.0001592522
0.0003872236
0.0003866687
0.0003861269
0.0003855784
0.0003850368
0.0001073451
0.0001072468
0.0001071463
0.0001070423
0.000106941
0.0001602371
0.000160052
0.00015986
0.0001596597
0.0001594521
0.000387724
0.0003871829
0.0003866513
0.0003861123
0.0003855785
0.000107435
0.0001073416
0.0001072461
0.0001071469
0.00010705
0.0001604082
0.000160231
0.0001600468
0.0001598543
0.0001596545
0.0003882318
0.0003877049
0.0003871838
0.0003866531
0.000386125
0.0001047564
0.000104498
0.000105004
0.0001047712
0.000104515
0.000105235
0.000105028
0.0001048015
0.0001045203
0.0001054597
0.0001052712
0.0001050736
0.0001048403
0.0001045401
0.0001056796
0.0001055048
0.0001053267
0.0001051297
0.0001049068
0.0001566911
0.0001059001
0.0001057372
0.000105574
0.0001054012
0.0001052261
0.0001573942
0.0001565029
0.0001060976
0.0001059434
0.0001057903
0.0001056322
0.0001054822
0.0001578917
0.0001573704
0.0001562547
0.0001062771
0.0001061304
0.000105985
0.000105837
0.000105701
0.0001582786
0.0001579201
0.0001573424
0.0001560304
0.0001064382
0.0001062977
0.0001061584
0.0001060174
0.0001058893
0.0001585916
0.0001583075
0.0001579381
0.0001573153
0.000155872
0.0001065833
0.0001064484
0.0001063143
0.0001061786
0.0001060549
0.000158857
0.0001586083
0.0001583253
0.0001579486
0.0001573074
0.0003795567
0.0001067139
0.0001065841
0.0001064547
0.0001063233
0.0001062027
0.0001590886
0.0001588579
0.0001586122
0.0001583295
0.000157957
0.0003831182
0.0003798543
0.000106831
0.0001067061
0.000106581
0.0001064537
0.0001063356
0.0001592948
0.0001590739
0.0001588455
0.0001586003
0.000158323
0.000384633
0.0003832299
0.0003803764
0.0001069356
0.0001068153
0.0001066944
0.000106571
0.0001064553
0.0001594801
0.000159266
0.0001590463
0.0001588172
0.0001585749
0.0003854514
0.000384609
0.0003834192
0.0003810051
0.0001070283
0.0001069125
0.0001067956
0.000106676
0.0001065628
0.0001596466
0.0001594381
0.0001592242
0.0001590027
0.0001587741
0.000386007
0.0003853445
0.0003846194
0.000383614
0.0003817943
0.0001071121
0.0001070006
0.0001068878
0.000106772
0.0001066614
0.0001598
0.000159597
0.0001593883
0.0001591721
0.00015895
0.0003864643
0.0003858682
0.0003852825
0.0003846388
0.0003839148
0.001046881
0.0001071881
0.0001070808
0.0001069719
0.0001068596
0.0001067516
0.0001599405
0.0001597427
0.0001595386
0.0001593267
0.0001591084
0.0003868628
0.0003862875
0.0003857247
0.0003851479
0.0003845748
0.0001072693
0.0001071666
0.0001070619
0.0001069538
0.0001068492
0.0001600931
0.0001599017
0.0001597037
0.0001594975
0.0001592846
0.0003873045
0.0003867472
0.000386202
0.0003856487
0.0003851027
0.0001073532
0.0001072551
0.000107155
0.0001070513
0.0001069504
0.0001602518
0.0001600674
0.0001598761
0.0001596766
0.00015947
0.0003877686
0.0003872261
0.0003866923
0.0003861502
0.0003856128
0.0001074386
0.0001073454
0.00010725
0.000107151
0.0001070542
0.0001604148
0.0001602379
0.000160054
0.0001598619
0.0001596625
0.0003882519
0.0003877245
0.0003872025
0.0003866706
0.000386141
0.0001075235
0.0001074352
0.0001073446
0.0001072503
0.000107158
0.0001605779
0.0001604088
0.0001602327
0.0001600484
0.0001598567
0.0003887408
0.0003882287
0.0003877188
0.0003871972
0.0003866745
0.0001049965
0.0001047676
0.0001045271
0.0001052182
0.000105013
0.0001047953
0.0001045495
0.000105431
0.0001052423
0.000105048
0.0001048303
0.000104592
0.0001056416
0.0001054655
0.0001052879
0.0001050975
0.0001049004
0.0001568375
0.0001058496
0.0001056841
0.0001055188
0.0001053466
0.0001051799
0.0001573812
0.0001567063
0.0001060591
0.0001059033
0.0001057488
0.0001055905
0.0001054436
0.0001578549
0.0001574031
0.0001565254
0.0001062478
0.0001060998
0.0001059531
0.0001058042
0.0001056683
0.0001582351
0.0001578969
0.0001573833
0.0001562778
0.0001064199
0.0001062786
0.0001061386
0.0001059968
0.0001058682
0.0001585608
0.0001582815
0.0001579282
0.000157354
0.0001560588
0.0001065745
0.0001064393
0.0001063048
0.0001061687
0.0001060447
0.0001588414
0.0001585932
0.0001583129
0.0001579448
0.0001573294
0.0003797864
0.0001067139
0.0001065841
0.0001064547
0.0001063233
0.0001062027
0.0001590886
0.0001588579
0.0001586122
0.0001583295
0.000157957
0.0003831182
0.0003798543
0.0001068391
0.0001067145
0.0001065897
0.0001064627
0.000106345
0.0001593094
0.0001590891
0.0001588608
0.0001586151
0.0001583352
0.0003846419
0.0003831823
0.0003801717
0.0001069512
0.0001068314
0.0001067111
0.0001065883
0.0001064733
0.0001595081
0.0001592951
0.0001590764
0.0001588477
0.0001586046
0.0003855095
0.0003846267
0.0003833338
0.0003806231
0.0001070511
0.000106936
0.0001068199
0.0001067011
0.0001065888
0.0001596873
0.0001594804
0.0001592682
0.0001590483
0.0001588208
0.0003861142
0.0003854277
0.0003846476
0.000383502
0.0003812402
0.0001071393
0.0001070286
0.0001069167
0.0001068018
0.0001066924
0.0001598482
0.000159647
0.0001594402
0.0001592262
0.0001590061
0.0003865977
0.0003859858
0.0003853685
0.0003846566
0.0003837369
0.001043764
0.0001072187
0.0001071124
0.0001070046
0.0001068936
0.0001067871
0.000159996
0.0001598006
0.0001595992
0.0001593903
0.0001591754
0.0003870278
0.0003864519
0.0003858936
0.0003853126
0.0003847366
0.001051264
0.001047826
0.0001072906
0.0001071885
0.0001070845
0.0001069772
0.0001068736
0.0001601311
0.0001599412
0.0001597449
0.0001595406
0.0001593298
0.0003874154
0.0003868528
0.0003863004
0.0003857357
0.0003851756
0.0001073672
0.0001072696
0.00010717
0.0001070669
0.0001069667
0.0001602773
0.0001600939
0.0001599038
0.0001597056
0.0001595005
0.0003878444
0.0003872994
0.0003867622
0.0003862153
0.0003856726
0.0001074464
0.0001073535
0.0001072583
0.0001071596
0.0001070633
0.0001604289
0.0001602525
0.0001600693
0.0001598779
0.0001596793
0.0003882938
0.0003877648
0.0003872405
0.0003867055
0.000386172
0.0001075271
0.0001074388
0.0001073484
0.0001072542
0.0001071621
0.0001605843
0.0001604154
0.0001602396
0.0001600556
0.0001598643
0.0003887597
0.000388247
0.0003877362
0.0003872133
0.000386689
0.0001076071
0.0001075237
0.0001074379
0.0001073485
0.0001072607
0.0001607397
0.0001605784
0.0001604103
0.000160234
0.0001600505
0.0003892296
0.0003887331
0.000388236
0.000387725
0.0003872099
0.00010521
0.0001050055
0.0001047915
0.0001045611
0.0001054144
0.0001052255
0.0001050328
0.0001048236
0.0001046191
0.0001056145
0.0001054369
0.000105259
0.0001050716
0.0001048888
0.0001569137
0.0001058138
0.0001056464
0.0001054796
0.0001053079
0.0001051468
0.0001573714
0.0001568511
0.0001060117
0.0001058533
0.000105696
0.0001055356
0.0001053887
0.0001577863
0.0001573906
0.0001567264
0.0001062113
0.0001060617
0.0001059133
0.000105763
0.0001056267
0.000158178
0.0001578608
0.000157416
0.0001565459
0.000106392
0.0001062495
0.0001061082
0.0001059652
0.0001058355
0.0001585122
0.0001582386
0.0001579053
0.0001573946
0.0001563037
0.000106557
0.0001064211
0.0001062859
0.000106149
0.0001060242
0.00015881
0.0001585627
0.0001582872
0.000157935
0.0001573678
0.0003802198
0.0001067054
0.0001065754
0.0001064456
0.0001063139
0.0001061929
0.0001590733
0.0001588424
0.0001585972
0.0001583172
0.0001579533
0.0003831687
0.0003800694
0.0001068391
0.0001067145
0.0001065897
0.0001064627
0.000106345
0.0001593094
0.0001590891
0.0001588608
0.0001586151
0.0001583352
0.0003846419
0.0003831823
0.0003801717
0.0001069591
0.0001068395
0.0001067195
0.0001065969
0.0001064823
0.0001595221
0.0001593097
0.0001590914
0.000158863
0.0001586193
0.0003855379
0.0003846342
0.0003832875
0.0003804257
0.0001070662
0.0001069515
0.0001068359
0.0001067177
0.000106606
0.0001597141
0.0001595082
0.0001592971
0.0001590781
0.0001588511
0.000386183
0.0003854792
0.0003846599
0.0003834151
0.0003808597
0.0001071614
0.0001070513
0.0001069401
0.0001068259
0.0001067174
0.0001598871
0.0001596874
0.0001594822
0.0001592698
0.0001590513
0.0003867058
0.0003860818
0.0003854395
0.0003846732
0.0003836031
0.001041613
0.0001072451
0.0001071395
0.0001070325
0.0001069223
0.0001068169
0.0001600421
0.0001598484
0.0001596488
0.0001594418
0.000159229
0.0003871571
0.0003865716
0.0003859959
0.0003853824
0.0003847213
0.001050464
0.001045037
0.0001073202
0.0001072189
0.000107116
0.0001070099
0.0001069075
0.0001601841
0.0001599964
0.0001598024
0.0001596008
0.0001593931
0.0003875715
0.0003870104
0.0003864663
0.0003859089
0.0003853772
0.001054013
0.001051625
0.001048369
0.0001073879
0.0001072908
0.0001071919
0.0001070894
0.0001069901
0.0001603136
0.0001601316
0.000159943
0.0001597465
0.0001595432
0.0003879492
0.0003873997
0.0003868561
0.0003862991
0.0003857425
0.0001074601
0.0001073675
0.0001072728
0.0001071746
0.0001070789
0.0001604532
0.0001602778
0.0001600956
0.0001599054
0.0001597081
0.0003883651
0.0003878336
0.0003873058
0.0003867657
0.0003862263
0.0001075346
0.0001074466
0.0001073564
0.0001072626
0.0001071707
0.0001605978
0.0001604294
0.0001602542
0.0001600708
0.0001598802
0.0003887992
0.0003882848
0.0003877717
0.0003872455
0.0003867172
0.0001076105
0.0001075272
0.0001074416
0.0001073523
0.0001072646
0.0001607458
0.0001605848
0.0001604169
0.0001602409
0.0001600576
0.0003892474
0.0003887503
0.0003882522
0.0003877399
0.0003872231
0.0001076858
0.0001076072
0.0001075262
0.0001074416
0.0001073582
0.0001608935
0.00016074
0.0001605797
0.0001604114
0.0001602358
0.0003896982
0.0003892181
0.0003887349
0.0003882362
0.0003877305
0.0001054065
0.0001052173
0.0001050252
0.0001048195
0.0001046296
0.0001055988
0.0001054204
0.000105242
0.0001050561
0.000104881
0.0001569534
0.0001057884
0.0001056193
0.000105451
0.0001052787
0.0001051199
0.0001573537
0.0001569262
0.000105978
0.0001058177
0.0001056585
0.0001054965
0.0001053493
0.0001577369
0.000157381
0.0001568692
0.0001061668
0.0001060147
0.0001058636
0.0001057105
0.0001055716
0.0001580964
0.0001577931
0.0001574038
0.0001567447
0.0001063573
0.0001062134
0.0001060704
0.0001059257
0.0001057944
0.0001584505
0.0001581823
0.0001578699
0.0001574274
0.0001565692
0.0001065304
0.0001063934
0.0001062569
0.0001061188
0.0001059926
0.0001587613
0.0001585146
0.0001582448
0.0001579125
0.000157408
0.0003807885
0.0001066886
0.0001065579
0.0001064275
0.000106295
0.0001061732
0.0001590428
0.0001588113
0.000158567
0.0001582918
0.0001579436
0.0003832575
0.0003804776
0.000106831
0.0001067061
0.000106581
0.0001064537
0.0001063356
0.0001592948
0.0001590739
0.0001588455
0.0001586003
0.000158323
0.000384633
0.0003832299