/*--------------------------------*- C++ -*----------------------------------*\
| =========                 |                                                 |
| \\      /  F ield         | OpenFOAM: The Open Source CFD Toolbox           |
|  \\    /   O peration     | Version:  2306                                  |
|   \\  /    A nd           | Website:  www.openfoam.com                      |
|    \\/     M anipulation  |                                                 |
\*---------------------------------------------------------------------------*/
FoamFile
{
    version     2.0;
    format      ascii;
    arch        "LSB;label=32;scalar=64";
    class       volScalarField;
    location    "0.9/fuel";
    object      eta.fuel;
}
// * * * * * * * * * * * * * * * * * * * * * * * * * * * * * * * * * * * * * //

dimensions      [1 2 -3 0 0 -1 0];

internalField   nonuniform List<scalar> 
16000
(
0.1141003
0.1146478
0.1088707
0.1104796
0.1157319
0.1092514
0.1109985
0.1044223
0.105539
0.1078764
0.1173241
0.1099883
0.1120253
0.1047274
0.1059007
0.1083764
0.1008625
0.1013411
0.1031272
0.1062581
0.1193074
0.1110311
0.113533
0.1053116
0.1066006
0.1093657
0.1011217
0.1016316
0.1034759
0.1067483
0.09790479
0.09798537
0.09909986
0.1016071
0.1056046
0.1213354
0.1122544
0.1154101
0.1061227
0.1075903
0.110819
0.1016141
0.1021873
0.1041504
0.1077189
0.09813213
0.09823245
0.09938007
0.1019485
0.1060941
0.09535073
0.0951991
0.09588576
0.09767414
0.1009614
0
0.1226864
0.1134052
0.1173286
0.1070441
0.1087503
0.1126299
0.1022884
0.1029584
0.1051041
0.1091465
0.0985615
0.09870146
0.0999159
0.1026087
0.1070643
0.09555427
0.09541608
0.09612424
0.09794824
0.1013008
0
0.09309009
0.09279359
0.09321997
0.09454203
0.09704858
0
0
0.123417
0.1141007
0.1185987
0.1078673
0.1098399
0.1144838
0.1030362
0.1038332
0.1062217
0.1109297
0.09914325
0.0993433
0.1006591
0.1035427
0.1084943
0.09593695
0.09582554
0.09657669
0.09847231
0.1019578
0
0.0932752
0.09298808
0.09342954
0.09477527
0.09732063
0
0
0.09104808
0.09066416
0.09091978
0.09194802
0.09394052
0
0
0
0.1237621
0.1144315
0.11928
0.1083268
0.1104943
0.1157067
0.103677
0.1046132
0.1072711
0.1127618
0.09977562
0.1000538
0.1015016
0.1046378
0.1102873
0.09645079
0.09637976
0.09719552
0.09919922
0.1028879
0
0.09362195
0.09335339
0.09382477
0.09521766
0.09784086
0
0
0.0912184
0.09084122
0.09110776
0.092153
0.09417179
0
0
0
0.08917685
0.0887398
0.08888399
0.08971178
0.09137093
0
0
0
0
0.1238951
0.1145628
0.1195985
0.1085144
0.110803
0.1163601
0.1040089
0.1050454
0.1078982
0.1139695
0.1002979
0.1006608
0.1022518
0.1056671
0.1121398
0.09699991
0.09698094
0.09787964
0.100023
0.10398
0
0.09408401
0.09384336
0.09435935
0.09582259
0.0985627
0
0
0.09153651
0.09117258
0.0914606
0.09253945
0.09461045
0
0
0
0.08933502
0.08890288
0.08905524
0.08989569
0.09157408
0
0
0
0
0.08744138
0.08697515
0.087044
0.08773362
0.08915842
0
0
0
0
0
0.1238951
0.1146045
0.1197199
0.1085675
0.1109238
0.1166641
0.1041208
0.1052198
0.1081924
0.1146154
0.1005491
0.1009724
0.1026647
0.10628
0.1133639
0.09743855
0.09747562
0.09846281
0.1007561
0.1050086
0
0.09457053
0.09436569
0.09493827
0.09649086
0.09938116
0
0
0.09195763
0.09161357
0.09193344
0.09306194
0.09521033
0
0
0
0.08962977
0.08920718
0.08937551
0.09024076
0.09195706
0
0
0
0
0.08758937
0.08712676
0.08720185
0.08790122
0.08934065
0
0
0
0
0
0.08581652
0.08533707
0.08535612
0.08594611
0.08720287
0
0
0
0
0
0
0.1237621
0.1146045
0.1197199
0.1085749
0.1109614
0.1167796
0.1041333
0.1052675
0.1083066
0.1149167
0.1006143
0.1010753
0.1028296
0.1065669
0.1140222
0.09763402
0.09771073
0.09875952
0.1011573
0.10562
0
0.09494749
0.09478099
0.09541305
0.09705953
0.1001097
0
0
0.09239529
0.09207664
0.09243652
0.09362715
0.09587296
0
0
0
0.09001772
0.08960946
0.08980132
0.09070293
0.09247482
0
0
0
0
0.08786464
0.08740899
0.08749618
0.08821453
0.08968253
0
0
0
0
0
0.08595585
0.08547906
0.08550297
0.08610066
0.08736893
0
0
0
0
0
0
0.084283
0.08380179
0.08378842
0.08430634
0.08543678
0
0
0
0
0
0
0
0.123417
0.1145628
0.1195985
0.1085749
0.1109614
0.1167796
0.104123
0.1052733
0.1083419
0.1150315
0.1006023
0.1010847
0.1028736
0.1066784
0.1143323
0.09766791
0.09776936
0.09885561
0.1013164
0.1059068
0
0.09510286
0.0949633
0.09563614
0.0973465
0.1005065
0
0
0.09272499
0.09243344
0.09283484
0.09408946
0.09643627
0
0
0
0.09041627
0.0900263
0.09024746
0.09119399
0.09303464
0
0
0
0
0.08822513
0.08777993
0.08788485
0.08863082
0.09014034
0
0
0
0
0
0.08621464
0.08574291
0.08577614
0.08638869
0.08767931
0
0
0
0
0
0
0.08441486
0.0839356
0.08392605
0.08445018
0.0855899
0
0
0
0
0
0
0
0.08282589
0.08235111
0.08231805
0.08278304
0.08381722
0
0
0
0
0
0
0
0
0.1226864
0.1144315
0.11928
0.1085675
0.1109238
0.1166641
0.104123
0.1052733
0.1083419
0.1150315
0.1005815
0.1010738
0.1028782
0.1067129
0.1144516
0.0976399
0.0977555
0.09886265
0.1013582
0.1060191
0
0.09511485
0.09499217
0.09568961
0.09743789
0.1006632
0
0
0.09285036
0.09257775
0.09300716
0.09430435
0.09671849
0
0
0
0.09070886
0.09033832
0.09058951
0.09158146
0.09349169
0
0
0
0
0.08859169
0.0881598
0.08828661
0.0890663
0.09062643
0
0
0
0
0
0.08655207
0.08608793
0.08613478
0.08676879
0.08809161
0
0
0
0
0
0
0.08465952
0.0841839
0.08418162
0.08471762
0.08587524
0
0
0
0
0
0
0
0.08295122
0.08247787
0.08244785
0.08291791
0.08395975
0
0
0
0
0
0
0
0
0.08143373
0.08097096
0.08092755
0.08135384
0.082313
0
0
0
0
0
0
0
0
0
0.1213354
0.1141007
0.1185987
0.1085144
0.110803
0.1163601
0.1041333
0.1052675
0.1083066
0.1149167
0.1005815
0.1010738
0.1028782
0.1067129
0.1144516
0.09761247
0.09773456
0.09885114
0.1013622
0.1060543
0
0.09507605
0.09496309
0.09567421
0.09744322
0.1007043
0
0
0.0928465
0.0925858
0.09303199
0.09435401
0.09680721
0
0
0
0.09081126
0.09045422
0.09072533
0.0917468
0.09370209
0
0
0
0
0.08885445
0.08843667
0.08858563
0.08939878
0.09100897
0
0
0
0
0
0.08689203
0.08643755
0.08650107
0.08716099
0.08852253
0
0
0
0
0
0
0.08497728
0.08450714
0.08451541
0.08506847
0.08625168
0
0
0
0
0
0
0
0.08318362
0.08271285
0.08268853
0.08316822
0.08422471
0
0
0
0
0
0
0
0
0.08155329
0.08109156
0.0810506
0.08148109
0.08244666
0
0
0
0
0
0
0
0
0
0.0800973
0.07965057
0.07960342
0.08000168
0.08090181
0
0
0
0
0
0
0
0
0
0
0.1193074
0.1134052
0.1173286
0.1083268
0.1104943
0.1157067
0.1041208
0.1052198
0.1081924
0.1146154
0.1006023
0.1010847
0.1028736
0.1066784
0.1143323
0.09761247
0.09773456
0.09885114
0.1013622
0.1060543
0
0.09504423
0.09493576
0.09565304
0.09743127
0.1007081
0
0
0.09280019
0.09254642
0.0930019
0.09433732
0.09681146
0
0
0
0.0907957
0.09044721
0.09073015
0.0917685
0.09374924
0
0
0
0
0.08893886
0.08853084
0.08869421
0.08952859
0.09117025
0
0
0
0
0
0.08713044
0.08668621
0.08676636
0.08745151
0.0888505
0
0
0
0
0
0
0.08529477
0.08483166
0.08485272
0.08542613
0.08663972
0
0
0
0
0
0
0
0.08348439
0.08301753
0.08300147
0.08349489
0.08457219
0
0
0
0
0
0
0
0
0.08177492
0.08131497
0.08127853
0.08171693
0.08269468
0
0
0
0
0
0
0
0
0
0.08021176
0.07976573
0.07972057
0.08012236
0.08102793
0
0
0
0
0
0
0
0
0
0
0.07880942
0.07838129
0.07833536
0.07871336
0.07956666
0
0
0
0
0
0
0
0
0
0
0.1173241
0.1122544
0.1154101
0.1078673
0.1098399
0.1144838
0.1040089
0.1050454
0.1078982
0.1139695
0.1006143
0.1010753
0.1028296
0.1065669
0.1140222
0.0976399
0.0977555
0.09886265
0.1013582
0.1060191
0
0.09504423
0.09493576
0.09565304
0.09743127
0.1007081
0
0
0.09276544
0.09251488
0.09297455
0.09431587
0.0967992
0
0
0
0.09074413
0.09040066
0.09069013
0.09173745
0.09373149
0
0
0
0
0.0889145
0.08851273
0.08868457
0.08953082
0.09118971
0
0
0
0
0
0.08720056
0.08676338
0.08685414
0.08755484
0.08897666
0
0
0
0
0
0
0.08551294
0.08505732
0.08509097
0.0856838
0.08692612
0
0
0
0
0
0
0
0.08378271
0.08332084
0.08331474
0.08382436
0.08492605
0
0
0
0
0
0
0
0
0.08206092
0.08160364
0.08157371
0.08202332
0.08301824
0
0
0
0
0
0
0
0
0
0.08042393
0.07997898
0.07993744
0.0803458
0.08126164
0
0
0
0
0
0
0
0
0
0
0.07891935
0.07849163
0.07844731
0.07882832
0.07968629
0
0
0
0
0
0
0
0
0
0
0.07756401
0.07715641
0.07711512
0.07747889
0.07829444
0
0
0
0
0
0
0
0
0
0
0.1157319
0.1110311
0.113533
0.1070441
0.1087503
0.1126299
0.103677
0.1046132
0.1072711
0.1127618
0.1005491
0.1009724
0.1026647
0.10628
0.1133639
0.09766791
0.09776936
0.09885561
0.1013164
0.1059068
0
0.09507605
0.09496309
0.09567421
0.09744322
0.1007043
0
0
0.09276544
0.09251488
0.09297455
0.09431587
0.0967992
0
0
0
0.0907074
0.09036628
0.09065869
0.09170994
0.09370972
0
0
0
0
0.08885921
0.08846114
0.08863763
0.08949008
0.09115773
0
0
0
0
0
0.08716953
0.08673693
0.08683385
0.08754303
0.08897693
0
0
0
0
0
0
0.08557152
0.08512101
0.0851625
0.08576695
0.0870262
0
0
0
0
0
0
0
0.08398401
0.0835274
0.08353096
0.08405572
0.08517996
0
0
0
0
0
0
0
0
0.08234279
0.08188887
0.08186668
0.0823294
0.08334421
0
0
0
0
0
0
0
0
0
0.08069703
0.08025372
0.08021729
0.08063493
0.08156516
0
0
0
0
0
0
0
0
0
0
0.07912314
0.07869597
0.07865446
0.07904102
0.07990775
0
0
0
0
0
0
0
0
0
0
0.07766987
0.07726247
0.07722246
0.07758878
0.07840841
0
0
0
0
0
0
0
0
0
0
0.07635621
0.07597023
0.07593633
0.0762902
0.0770752
0
0
0
0
0
0
0
0
0
0
0.1146478
0.1099883
0.1120253
0.1061227
0.1075903
0.110819
0.1030362
0.1038332
0.1062217
0.1109297
0.1002979
0.1006608
0.1022518
0.1056671
0.1121398
0.09763402
0.09771073
0.09875952
0.1011573
0.10562
0
0.09511485
0.09499217
0.09568961
0.09743789
0.1006632
0
0
0.09280019
0.09254642
0.0930019
0.09433732
0.09681146
0
0
0
0.0907074
0.09036628
0.09065869
0.09170994
0.09370972
0
0
0
0
0.08882117
0.08842487
0.08860345
0.08945858
0.09112994
0
0
0
0
0
0.08711161
0.08668179
0.08678206
0.08749557
0.0889354
0
0
0
0
0
0
0.08553541
0.08508824
0.08513423
0.08574483
0.08701266
0
0
0
0
0
0
0
0.08403333
0.08358022
0.08358962
0.08412314
0.08526019
0
0
0
0
0
0
0
0
0.08252991
0.08207952
0.08206463
0.08253937
0.08357214
0
0
0
0
0
0
0
0
0
0.08096468
0.08052346
0.08049298
0.0809213
0.08186802
0
0
0
0
0
0
0
0
0
0
0.07938487
0.07895856
0.078921
0.07931525
0.08019422
0
0
0
0
0
0
0
0
0
0
0.0778662
0.07745892
0.07742109
0.07779203
0.07861926
0
0
0
0
0
0
0
0
0
0
0.07645839
0.07607246
0.07603956
0.07639561
0.07718417
0
0
0
0
0
0
0
0
0
0
0.07518179
0.07481827
0.07479354
0.07514112
0.07590095
0
0
0
0
0
0
0
0
0
0
0.1141003
0.1092514
0.1109985
0.1053116
0.1066006
0.1093657
0.1022884
0.1029584
0.1051041
0.1091465
0.09977562
0.1000538
0.1015016
0.1046378
0.1102873
0.09743855
0.09747562
0.09846281
0.1007561
0.1050086
0
0.09510286
0.0949633
0.09563614
0.0973465
0.1005065
0
0
0.0928465
0.0925858
0.09303199
0.09435401
0.09680721
0
0
0
0.09074413
0.09040066
0.09069013
0.09173745
0.09373149
0
0
0
0
0.08882117
0.08842487
0.08860345
0.08945858
0.09112994
0
0
0
0
0
0.08707274
0.08664426
0.08674604
0.08746139
0.08890366
0
0
0
0
0
0
0.0854757
0.08503059
0.08507902
0.08569267
0.08696454
0
0
0
0
0
0
0
0.08399344
0.08354265
0.08355532
0.0840933
0.08523655
0
0
0
0
0
0
0
0
0.08257175
0.08212365
0.08211293
0.08259435
0.08363692
0
0
0
0
0
0
0
0
0
0.08113979
0.08070078
0.08067574
0.08111353
0.08207484
0
0
0
0
0
0
0
0
0
0
0.07964012
0.07921492
0.07918189
0.07958483
0.08047761
0
0
0
0
0
0
0
0
0
0
0.07811786
0.0777108
0.07767602
0.07805334
0.07889101
0
0
0
0
0
0
0
0
0
0
0.076648
0.07626188
0.07623066
0.0765906
0.07738569
0
0
0
0
0
0
0
0
0
0
0.07528062
0.07491702
0.07489311
0.07524254
0.0760055
0
0
0
0
0
0
0
0
0
0
0.07403733
0.07369656
0.07368251
0.07402637
0.07476557
0
0
0
0
0
0
0
0
0
0
0.1088707
0.1104796
0.1047274
0.1059007
0.1083764
0.1016141
0.1021873
0.1041504
0.1077189
0.09914325
0.0993433
0.1006591
0.1035427
0.1084943
0.09699991
0.09698094
0.09787964
0.100023
0.10398
0
0.09494749
0.09478099
0.09541305
0.09705953
0.1001097
0
0
0.09285036
0.09257775
0.09300716
0.09430435
0.09671849
0
0
0
0.0907957
0.09044721
0.09073015
0.0917685
0.09374924
0
0
0
0
0.08885921
0.08846114
0.08863763
0.08949008
0.09115773
0
0
0
0
0
0.08707274
0.08664426
0.08674604
0.08746139
0.08890366
0
0
0
0
0
0
0.08543636
0.08499224
0.08504179
0.0856567
0.08693017
0
0
0
0
0
0
0
0.08393262
0.0834833
0.08349771
0.08403783
0.08518383
0
0
0
0
0
0
0
0
0.08252908
0.08208253
0.08207406
0.0825587
0.08360576
0
0
0
0
0
0
0
0
0
0.08117556
0.08073789
0.08071577
0.08115851
0.08212744
0
0
0
0
0
0
0
0
0
0
0.07980497
0.07938095
0.07935192
0.07976233
0.08066695
0
0
0
0
0
0
0
0
0
0
0
0.07836223
0.0779555
0.07792414
0.07830855
0.07915783
0
0
0
0
0
0
0
0
0
0
0.07689063
0.0765043
0.07647537
0.07684064
0.07764468
0
0
0
0
0
0
0
0
0
0
0.07546413
0.07510011
0.07507749
0.07543021
0.07619886
0
0
0
0
0
0
0
0
0
0
0.07413309
0.07379214
0.07377876
0.07412424
0.07486619
0
0
0
0
0
0
0
0
0
0
0.07292004
0.07260195
0.0725995
0.07294186
0.07366385
0
0
0
0
0
0
0
0
0
0
0.1044223
0.105539
0.1078764
0.1011217
0.1016316
0.1034759
0.1067483
0.0985615
0.09870146
0.0999159
0.1026087
0.1070643
0.09645079
0.09637976
0.09719552
0.09919922
0.1028879
0
0.09457053
0.09436569
0.09493827
0.09649086
0.09938116
0
0
0.09272499
0.09243344
0.09283484
0.09408946
0.09643627
0
0
0
0.09081126
0.09045422
0.09072533
0.0917468
0.09370209
0
0
0
0
0.0889145
0.08851273
0.08868457
0.08953082
0.09118971
0
0
0
0
0
0.08711161
0.08668179
0.08678206
0.08749557
0.0889354
0
0
0
0
0
0
0.08543636
0.08499224
0.08504179
0.0856567
0.08693017
0
0
0
0
0
0
0
0.0838931
0.0834445
0.08345969
0.08400068
0.08514772
0
0
0
0
0
0
0
0
0.08246766
0.08202213
0.08201483
0.08250091
0.08354981
0
0
0
0
0
0
0
0
0
0.08113088
0.08069417
0.08067354
0.08111846
0.08209061
0
0
0
0
0
0
0
0
0
0
0.0798358
0.07941239
0.07938531
0.07979935
0.08070976
0
0
0
0
0
0
0
0
0
0
0
0.07851824
0.07811192
0.07808342
0.07847374
0.07933266
0
0
0
0
0
0
0
0
0
0
0
0
0.07712532
0.07673878
0.07671236
0.07708346
0.07789732
0
0
0
0
0
0
0
0
0
0
0.07569863
0.07533404
0.07531316
0.07567034
0.07644672
0
0
0
0
0
0
0
0
0
0
0.07431108
0.07396951
0.0739571
0.0743054
0.07505232
0
0
0
0
0
0
0
0
0
0
0.07301298
0.07269464
0.07269272
0.07303649
0.07376094
0
0
0
0
0
0
0
0
0
0
0.07182673
0.07153188
0.07154152
0.07188394
0.0725917
0
0
0
0
0
0
0
0
0
0
0.1008625
0.1013411
0.1031272
0.1062581
0.09813213
0.09823245
0.09938007
0.1019485
0.1060941
0.09593695
0.09582554
0.09657669
0.09847231
0.1019578
0
0.09408401
0.09384336
0.09435935
0.09582259
0.0985627
0
0
0.09239529
0.09207664
0.09243652
0.09362715
0.09587296
0
0
0
0.09070886
0.09033832
0.09058951
0.09158146
0.09349169
0
0
0
0
0.08893886
0.08853084
0.08869421
0.08952859
0.09117025
0
0
0
0
0
0.08716953
0.08673693
0.08683385
0.08754303
0.08897693
0
0
0
0
0
0
0.0854757
0.08503059
0.08507902
0.08569267
0.08696454
0
0
0
0
0
0
0
0.0838931
0.0834445
0.08345969
0.08400068
0.08514772
0
0
0
0
0
0
0
0
0.08242816
0.08198315
0.08197637
0.08246301
0.08351256
0
0
0
0
0
0
0
0
0
0.08106925
0.08063321
0.08061331
0.08105912
0.08203242
0
0
0
0
0
0
0
0
0
0
0.07978973
0.07936682
0.07934063
0.07975608
0.08066866
0
0
0
0
0
0
0
0
0
0
0
0.07854496
0.07813877
0.07811146
0.07850438
0.0793677
0
0
0
0
0
0
0
0
0
0
0
0
0.07727366
0.07688691
0.07686249
0.07723824
0.07806003
0
0
0
0
0
0
0
0
0
0
0
0
0
0.07592472
0.07555943
0.07554042
0.07590238
0.07668715
0
0
0
0
0
0
0
0
0
0
0.07453826
0.07419578
0.07418467
0.07453675
0.0752904
0
0
0
0
0
0
0
0
0
0
0.07318589
0.07286681
0.07286559
0.07321179
0.07394065
0
0
0
0
0
0
0
0
0
0
0.071917
0.07162191
0.07163197
0.07197564
0.07268561
0
0
0
0
0
0
0
0
0
0
0.07075545
0.07048335
0.07050618
0.07084976
0.07154557
0
0
0
0
0
0
0
0
0
0
0.09790479
0.09798537
0.09909986
0.1016071
0.1056046
0.09555427
0.09541608
0.09612424
0.09794824
0.1013008
0
0.09362195
0.09335339
0.09382477
0.09521766
0.09784086
0
0
0.09195763
0.09161357
0.09193344
0.09306194
0.09521033
0
0
0
0.09041627
0.0900263
0.09024746
0.09119399
0.09303464
0
0
0
0
0.08885445
0.08843667
0.08858563
0.08939878
0.09100897
0
0
0
0
0
0.08720056
0.08676338
0.08685414
0.08755484
0.08897666
0
0
0
0
0
0
0.08553541
0.08508824
0.08513423
0.08574483
0.08701266
0
0
0
0
0
0
0
0.08393262
0.0834833
0.08349771
0.08403783
0.08518383
0
0
0
0
0
0
0
0
0.08242816
0.08198315
0.08197637
0.08246301
0.08351256
0
0
0
0
0
0
0
0
0
0.08102994
0.08059426
0.08057468
0.0810208
0.08199443
0
0
0
0
0
0
0
0
0
0
0.07972817
0.07930568
0.07927989
0.07969581
0.08060898
0
0
0
0
0
0
0
0
0
0
0
0.07849791
0.07809192
0.07806504
0.07845878
0.07932349
0
0
0
0
0
0
0
0
0
0
0
0
0.07729711
0.07690996
0.07688621
0.07726375
0.07808885
0
0
0
0
0
0
0
0
0
0
0
0
0
0.07606648
0.0757004
0.07568269
0.07604833
0.07683963
0
0
0
0
0
0
0
0
0
0
0
0
0
0
0.07475675
0.07441311
0.07440327
0.07475936
0.0755202
0
0
0
0
0
0
0
0
0
0
0.07340638
0.0730862
0.07308586
0.07343529
0.07417009
0
0
0
0
0
0
0
0
0
0
0.07208521
0.07178929
0.07179988
0.07214563
0.07285954
0
0
0
0
0
0
0
0
0
0
0.07084339
0.07057086
0.07059408
0.07093877
0.07163657
0
0
0
0
0
0
0
0
0
0
0.06970493
0.06945461
0.06949062
0.06983702
0.0705226
0
0
0
0
0
0
0
0
0
0
0.09535073
0.0951991
0.09588576
0.09767414
0.1009614
0
0.0932752
0.09298808
0.09342954
0.09477527
0.09732063
0
0
0.09153651
0.09117258
0.0914606
0.09253945
0.09461045
0
0
0
0.09001772
0.08960946
0.08980132
0.09070293
0.09247482
0
0
0
0
0.08859169
0.0881598
0.08828661
0.0890663
0.09062643
0
0
0
0
0
0.08713044
0.08668621
0.08676636
0.08745151
0.0888505
0
0
0
0
0
0
0.08557152
0.08512101
0.0851625
0.08576695
0.0870262
0
0
0
0
0
0
0
0.08399344
0.08354265
0.08355532
0.0840933
0.08523655
0
0
0
0
0
0
0
0
0.08246766
0.08202213
0.08201483
0.08250091
0.08354981
0
0
0
0
0
0
0
0
0
0.08102994
0.08059426
0.08057468
0.0810208
0.08199443
0
0
0
0
0
0
0
0
0
0
0.07968915
0.0792669
0.07924128
0.07965732
0.08057059
0
0
0
0
0
0
0
0
0
0
0
0.07843664
0.07803087
0.07800415
0.07839802
0.07926292
0
0
0
0
0
0
0
0
0
0
0
0
0.07724959
0.07686224
0.07683862
0.07721652
0.07804241
0
0
0
0
0
0
0
0
0
0
0
0
0
0.07608736
0.07572044
0.07570284
0.07606971
0.07686346
0
0
0
0
0
0
0
0
0
0
0
0
0
0
0.07489282
0.07454795
0.07453874
0.07489772
0.07566401
0
0
0
0
0
0
0
0
0
0
0
0
0
0
0
0.07361795
0.07329642
0.07329678
0.07364952
0.07439059
0
0
0
0
0
0
0
0
0
0
0.0722996
0.0720024
0.07201359
0.07236205
0.07308123
0
0
0
0
0
0
0
0
0
0
0.07100746
0.07073382
0.07075742
0.07110395
0.07180527
0
0
0
0
0
0
0
0
0
0
0.06979071
0.06953991
0.0695761
0.06992354
0.07061096
0
0
0
0
0
0
0
0
0
0
0.06867491
0.06844451
0.06849321
0.06884293
0.06952055
0
0
0
0
0
0
0
0
0
0
0.09309009
0.09279359
0.09321997
0.09454203
0.09704858
0
0
0.0912184
0.09084122
0.09110776
0.092153
0.09417179
0
0
0
0.08962977
0.08920718
0.08937551
0.09024076
0.09195706
0
0
0
0
0.08822513
0.08777993
0.08788485
0.08863082
0.09014034
0
0
0
0
0
0.08689203
0.08643755
0.08650107
0.08716099
0.08852253
0
0
0
0
0
0
0.08551294
0.08505732
0.08509097
0.0856838
0.08692612
0
0
0
0
0
0
0
0.08403333
0.08358022
0.08358962
0.08412314
0.08526019
0
0
0
0
0
0
0
0
0.08252908
0.08208253
0.08207406
0.0825587
0.08360576
0
0
0
0
0
0
0
0
0
0.08106925
0.08063321
0.08061331
0.08105912
0.08203242
0
0
0
0
0
0
0
0
0
0
0.07968915
0.0792669
0.07924128
0.07965732
0.08057059
0
0
0
0
0
0
0
0
0
0
0
0.07839801
0.07799238
0.07796572
0.07835957
0.07922438
0
0
0
0
0
0
0
0
0
0
0
0
0.07718887
0.07680148
0.07677784
0.07715564
0.07798139
0
0
0
0
0
0
0
0
0
0
0
0
0
0.07603972
0.07567233
0.07565446
0.07602139
0.07681546
0
0
0
0
0
0
0
0
0
0
0
0
0
0
0.0749116
0.07456565
0.07455609
0.07491571
0.07568383
0
0
0
0
0
0
0
0
0
0
0
0
0
0
0
0.07374897
0.07342596
0.07342646
0.07378133
0.07452694
0
0
0
0
0
0
0
0
0
0
0
0
0
0
0
0
0.07250506
0.07220614
0.07221775
0.07256885
0.07329347
0
0
0
0
0
0
0
0
0
0
0.07121651
0.0709412
0.07096514
0.07131402
0.07201997
0
0
0
0
0
0
0
0
0
0
0.06995102
0.06969898
0.06973522
0.07008429
0.07077491
0
0
0
0
0
0
0
0
0
0
0.06875869
0.06852778
0.06857657
0.06892711
0.06960645
0
0
0
0
0
0
0
0
0
0
0.06766337
0.06745295
0.06751291
0.06786595
0.06853666
0
0
0
0
0
0
0
0
0
0
0.09104808
0.09066416
0.09091978
0.09194802
0.09394052
0
0
0
0.08933502
0.08890288
0.08905524
0.08989569
0.09157408
0
0
0
0
0.08786464
0.08740899
0.08749618
0.08821453
0.08968253
0
0
0
0
0
0.08655207
0.08608793
0.08613478
0.08676879
0.08809161
0
0
0
0
0
0
0.08529477
0.08483166
0.08485272
0.08542613
0.08663972
0
0
0
0
0
0
0
0.08398401
0.0835274
0.08353096
0.08405572
0.08517996
0
0
0
0
0
0
0
0
0.08257175
0.08212365
0.08211293
0.08259435
0.08363692
0
0
0
0
0
0
0
0
0
0.08113088
0.08069417
0.08067354
0.08111846
0.08209061
0
0
0
0
0
0
0
0
0
0
0.07972817
0.07930568
0.07927989
0.07969581
0.08060898
0
0
0
0
0
0
0
0
0
0
0
0.07839801
0.07799238
0.07796572
0.07835957
0.07922438
0
0
0
0
0
0
0
0
0
0
0
0
0.07715073
0.07676337
0.07673969
0.07711738
0.07794291
0
0
0
0
0
0
0
0
0
0
0
0
0
0.0759797
0.07561212
0.07559398
0.07596065
0.07675436
0
0
0
0
0
0
0
0
0
0
0
0
0
0
0.07486406
0.07451749
0.07450739
0.07486668
0.07563481
0
0
0
0
0
0
0
0
0
0
0
0
0
0
0
0.07376609
0.07344177
0.07344164
0.07379666
0.07454348
0
0
0
0
0
0
0
0
0
0
0
0
0
0
0
0
0.07263183
0.072331
0.07234243
0.07269508
0.0734234
0
0
0
0
0
0
0
0
0
0
0
0
0
0
0
0
0
0.07141663
0.07113922
0.07116314
0.07151428
0.0722249
0
0
0
0
0
0
0
0
0
0
0.07015523
0.06990135
0.06993748
0.07028855
0.07098334
0
0
0
0
0
0
0
0
0
0
0.06891553
0.06868332
0.06873199
0.06908376
0.06976603
0
0
0
0
0
0
0
0
0
0
0.0677453
0.06753434
0.06759434
0.06794808
0.06862025
0
0
0
0
0
0
0
0
0
0
0.06666929
0.06647804
0.06654972
0.06690512
0.06756942
0
0
0
0
0
0
0
0
0
0
0.08917685
0.0887398
0.08888399
0.08971178
0.09137093
0
0
0
0
0.08758937
0.08712676
0.08720185
0.08790122
0.08934065
0
0
0
0
0
0.08621464
0.08574291
0.08577614
0.08638869
0.08767931
0
0
0
0
0
0
0.08497728
0.08450714
0.08451541
0.08506847
0.08625168
0
0
0
0
0
0
0
0.08378271
0.08332084
0.08331474
0.08382436
0.08492605
0
0
0
0
0
0
0
0
0.08252991
0.08207952
0.08206463
0.08253937
0.08357214
0
0
0
0
0
0
0
0
0
0.08117556
0.08073789
0.08071577
0.08115851
0.08212744
0
0
0
0
0
0
0
0
0
0
0.07978973
0.07936682
0.07934063
0.07975608
0.08066866
0
0
0
0
0
0
0
0
0
0
0
0.07843664
0.07803087
0.07800415
0.07839802
0.07926292
0
0
0
0
0
0
0
0
0
0
0
0
0.07715073
0.07676337
0.07673969
0.07711738
0.07794291
0
0
0
0
0
0
0
0
0
0
0
0
0
0.07594212
0.0755745
0.07555621
0.07592267
0.07671608
0
0
0
0
0
0
0
0
0
0
0
0
0
0
0.07480484
0.07445799
0.07444747
0.07480626
0.07557387
0
0
0
0
0
0
0
0
0
0
0
0
0
0
0
0.07371888
0.07339377
0.07339296
0.07374737
0.0744938
0
0
0
0
0
0
0
0
0
0
0
0
0
0
0
0
0.0726478
0.07234532
0.07235588
0.07270838
0.07343738
0
0
0
0
0
0
0
0
0
0
0
0
0
0
0
0
0
0.07153983
0.07126015
0.0712834
0.07163571
0.07234936
0
0
0
0
0
0
0
0
0
0
0
0
0
0
0
0
0
0
0.07035061
0.07009441
0.07013005
0.07048286
0.07118183
0
0
0
0
0
0
0
0
0
0
0.06911532
0.06888117
0.06892948
0.06928273
0.06996874
0
0
0
0
0
0
0
0
0
0
0.06789894
0.06768662
0.06774639
0.06810114
0.06877578
0
0
0
0
0
0
0
0
0
0
0.06674951
0.06655767
0.06662934
0.06698536
0.06765098
0
0
0
0
0
0
0
0
0
0
0.06569145
0.06551885
0.06560183
0.06596046
0.06661788
0
0
0
0
0
0
0
0
0
0
0.08744138
0.08697515
0.087044
0.08773362
0.08915842
0
0
0
0
0
0.08595585
0.08547906
0.08550297
0.08610066
0.08736893
0
0
0
0
0
0
0.08465952
0.0841839
0.08418162
0.08471762
0.08587524
0
0
0
0
0
0
0
0.08348439
0.08301753
0.08300147
0.08349489
0.08457219
0
0
0
0
0
0
0
0
0.08234279
0.08188887
0.08186668
0.0823294
0.08334421
0
0
0
0
0
0
0
0
0
0.08113979
0.08070078
0.08067574
0.08111353
0.08207484
0
0
0
0
0
0
0
0
0
0
0.0798358
0.07941239
0.07938531
0.07979935
0.08070976
0
0
0
0
0
0
0
0
0
0
0
0.07849791
0.07809192
0.07806504
0.07845878
0.07932349
0
0
0
0
0
0
0
0
0
0
0
0
0.07718887
0.07680148
0.07677784
0.07715564
0.07798139
0
0
0
0
0
0
0
0
0
0
0
0
0
0.07594212
0.0755745
0.07555621
0.07592267
0.07671608
0
0
0
0
0
0
0
0
0
0
0
0
0
0
0.07476784
0.0744209
0.07441018
0.07476865
0.07553588
0
0
0
0
0
0
0
0
0
0
0
0
0
0
0
0.07366055
0.07333505
0.07333375
0.07368752
0.07443321
0
0
0
0
0
0
0
0
0
0
0
0
0
0
0
0
0.07260122
0.0722977
0.07230741
0.07265916
0.07338749
0
0
0
0
0
0
0
0
0
0
0
0
0
0
0
0
0
0.07155509
0.0712735
0.07129552
0.0716474
0.0723614
0
0
0
0
0
0
0
0
0
0
0
0
0
0
0
0
0
0
0.07047078
0.07021207
0.07024663
0.07060006
0.07130159
0
0
0
0
0
0
0
0
0
0
0
0
0
0
0
0
0
0
0
0.06930643
0.06906981
0.06911735
0.0694718
0.07016137
0
0
0
0
0
0
0
0
0
0
0.06809466
0.06788033
0.06793958
0.0682955
0.06897328
0
0
0
0
0
0
0
0
0
0
0.06690021
0.06670694
0.06677829
0.06713516
0.06780297
0
0
0
0
0
0
0
0
0
0
0.06577009
0.06559687
0.06567978
0.06603895
0.06669758
0
0
0
0
0
0
0
0
0
0
0.064731
0.06457429
0.06466841
0.06503026
0.06568211
0
0
0
0
0
0
0
0
0
0
0.08581652
0.08533707
0.08535612
0.08594611
0.08720287
0
0
0
0
0
0
0.08441486
0.0839356
0.08392605
0.08445018
0.0855899
0
0
0
0
0
0
0
0.08318362
0.08271285
0.08268853
0.08316822
0.08422471
0
0
0
0
0
0
0
0
0.08206092
0.08160364
0.08157371
0.08202332
0.08301824
0
0
0
0
0
0
0
0
0
0.08096468
0.08052346
0.08049298
0.0809213
0.08186802
0
0
0
0
0
0
0
0
0
0
0.07980497
0.07938095
0.07935192
0.07976233
0.08066695
0
0
0
0
0
0
0
0
0
0
0
0.07854496
0.07813877
0.07811146
0.07850438
0.0793677
0
0
0
0
0
0
0
0
0
0
0
0
0.07724959
0.07686224
0.07683862
0.07721652
0.07804241
0
0
0
0
0
0
0
0
0
0
0
0
0
0.0759797
0.07561212
0.07559398
0.07596065
0.07675436
0
0
0
0
0
0
0
0
0
0
0
0
0
0
0.07476784
0.0744209
0.07441018
0.07476865
0.07553588
0
0
0
0
0
0
0
0
0
0
0
0
0
0
0
0.07362418
0.07329854
0.07329698
0.07365039
0.0743956
0
0
0
0
0
0
0
0
0
0
0
0
0
0
0
0
0.07254395
0.07223987
0.07224898
0.07260003
0.07332749
0
0
0
0
0
0
0
0
0
0
0
0
0
0
0
0
0
0.07150935
0.07122655
0.07124746
0.07159842
0.07231161
0
0
0
0
0
0
0
0
0
0
0
0
0
0
0
0
0
0
0.07048563
0.07022484
0.07025789
0.07061051
0.07131209
0
0
0
0
0
0
0
0
0
0
0
0
0
0
0
0
0
0
0
0.06942398
0.06918471
0.06923089
0.06958547
0.07027699
0
0
0
0
0
0
0
0
0
0
0
0
0
0
0
0
0
0
0
0
0.0682819
0.068065
0.06812328
0.06848003
0.06916074
0
0
0
0
0
0
0
0
0
0
0.06709226
0.06689686
0.06696755
0.06732536
0.06799593
0
0
0
0
0
0
0
0
0
0
0.0659181
0.06574339
0.06582586
0.06618575
0.06684636
0
0
0
0
0
0
0
0
0
0
0.06480817
0.06465081
0.06474482
0.06510712
0.06576008
0
0
0
0
0
0
0
0
0
0
0.06378675
0.06364556
0.06374844
0.06411371
0.0647604
0
0
0
0
0
0
0
0
0
0
0.084283
0.08380179
0.08378842
0.08430634
0.08543678
0
0
0
0
0
0
0
0.08295122
0.08247787
0.08244785
0.08291791
0.08395975
0
0
0
0
0
0
0
0
0.08177492
0.08131497
0.08127853
0.08171693
0.08269468
0
0
0
0
0
0
0
0
0
0.08069703
0.08025372
0.08021729
0.08063493
0.08156516
0
0
0
0
0
0
0
0
0
0
0.07964012
0.07921492
0.07918189
0.07958483
0.08047761
0
0
0
0
0
0
0
0
0
0
0.07851824
0.07811192
0.07808342
0.07847374
0.07933266
0
0
0
0
0
0
0
0
0
0
0
0
0.07729711
0.07690996
0.07688621
0.07726375
0.07808885
0
0
0
0
0
0
0
0
0
0
0
0
0
0.07603972
0.07567233
0.07565446
0.07602139
0.07681546
0
0
0
0
0
0
0
0
0
0
0
0
0
0
0.07480484
0.07445799
0.07444747
0.07480626
0.07557387
0
0
0
0
0
0
0
0
0
0
0
0
0
0
0
0.07362418
0.07329854
0.07329698
0.07365039
0.0743956
0
0
0
0
0
0
0
0
0
0
0
0
0
0
0
0
0.07250827
0.07220396
0.07221278
0.07256342
0.07329036
0
0
0
0
0
0
0
0
0
0
0
0
0
0
0
0
0
0.07145323
0.07116976
0.07118992
0.07154009
0.07225234
0
0
0
0
0
0
0
0
0
0
0
0
0
0
0
0
0
0
0.07044089
0.07017877
0.07021054
0.07056199
0.07126259
0
0
0
0
0
0
0
0
0
0
0
0
0
0
0
0
0
0
0
0.06943867
0.06919721
0.06924168
0.06959516
0.07028631
0
0
0
0
0
0
0
0
0
0
0
0
0
0
0
0
0
0
0
0
0.0683972
0.06817754
0.06823425
0.06859081
0.06927293
0
0
0
0
0
0
0
0
0
0
0
0
0
0
0
0
0
0
0
0
0.06727606
0.06707794
0.06714751
0.06750588
0.06817894
0
0
0
0
0
0
0
0
0
0
0.0661068
0.06592987
0.06601151
0.06637215
0.06703522
0
0
0
0
0
0
0
0
0
0
0.06495371
0.06479482
0.06488828
0.06525114
0.0659059
0
0
0
0
0
0
0
0
0
0
0.06386253
0.0637207
0.06382341
0.06418907
0.06483676
0
0
0
0
0
0
0
0
0
0
0.06285959
0.06273158
0.06284317
0.06320985
0.06385197
0
0
0
0
0
0
0
0
0
0
0.08282589
0.08235111
0.08231805
0.08278304
0.08381722
0
0
0
0
0
0
0
0
0.08155329
0.08109156
0.0810506
0.08148109
0.08244666
0
0
0
0
0
0
0
0
0
0.08042393
0.07997898
0.07993744
0.0803458
0.08126164
0
0
0
0
0
0
0
0
0
0
0.07938487
0.07895856
0.078921
0.07931525
0.08019422
0
0
0
0
0
0
0
0
0
0
0.07836223
0.0779555
0.07792414
0.07830855
0.07915783
0
0
0
0
0
0
0
0
0
0
0.07727366
0.07688691
0.07686249
0.07723824
0.07806003
0
0
0
0
0
0
0
0
0
0
0
0
0
0.07608736
0.07572044
0.07570284
0.07606971
0.07686346
0
0
0
0
0
0
0
0
0
0
0
0
0
0
0.07486406
0.07451749
0.07450739
0.07486668
0.07563481
0
0
0
0
0
0
0
0
0
0
0
0
0
0
0
0.07366055
0.07333505
0.07333374
0.07368752
0.07443321
0
0
0
0
0
0
0
0
0
0
0
0
0
0
0
0
0.07250827
0.07220396
0.07221278
0.07256342
0.07329036
0
0
0
0
0
0
0
0
0
0
0
0
0
0
0
0
0
0.07141827
0.07113453
0.07115432
0.07150404
0.07221574
0
0
0
0
0
0
0
0
0
0
0
0
0
0
0
0
0
0
0.07038598
0.07012311
0.07015404
0.07050454
0.07120413
0
0
0
0
0
0
0
0
0
0
0
0
0
0
0
0
0
0
0
0.06939503
0.06915215
0.06919523
0.06954738
0.07023731
0
0
0
0
0
0
0
0
0
0
0
0
0
0
0
0
0
0
0
0
0.06841193
0.06818999
0.06824487
0.06860011
0.06928155
0
0
0
0
0
0
0
0
0
0
0
0
0
0
0
0
0
0
0
0
0.06738949
0.06718845
0.06725629
0.06761422
0.06828829
0
0
0
0
0
0
0
0
0
0
0
0
0
0
0
0
0
0
0
0
0.06628754
0.06610778
0.06618809
0.06654907
0.06721429
0
0
0
0
0
0
0
0
0
0
0.06513936
0.06497817
0.06507068
0.06543406
0.06609102
0
0
0
0
0
0
0
0
0
0
0.06400573
0.06386239
0.06396448
0.06433056
0.06497985
0
0
0
0
0
0
0
0
0
0
0.06293412
0.06280541
0.06291682
0.06328382
0.06392686
0
0
0
0
0
0
0
0
0
0
0.06194847
0.06183329
0.06195158
0.06231996
0.06295588
0
0
0
0
0
0
0
0
0
0
0.08143373
0.08097096
0.08092755
0.08135384
0.082313
0
0
0
0
0
0
0
0
0
0.08021176
0.07976573
0.07972057
0.08012236
0.08102793
0
0
0
0
0
0
0
0
0
0
0.07912314
0.07869597
0.07865446
0.07904102
0.07990775
0
0
0
0
0
0
0
0
0
0
0.07811786
0.0777108
0.07767602
0.07805334
0.07889101
0
0
0
0
0
0
0
0
0
0
0.07712532
0.07673878
0.07671236
0.07708346
0.07789732
0
0
0
0
0
0
0
0
0
0
0.07606648
0.0757004
0.07568269
0.07604833
0.07683963
0
0
0
0
0
0
0
0
0
0
0
0
0
0
0.0749116
0.07456565
0.07455609
0.07491571
0.07568383
0
0
0
0
0
0
0
0
0
0
0
0
0
0
0
0.07371888
0.07339377
0.07339296
0.07374737
0.0744938
0
0
0
0
0
0
0
0
0
0
0
0
0
0
0
0
0.07254395
0.07223987
0.07224898
0.07260003
0.07332749
0
0
0
0
0
0
0
0
0
0
0
0
0
0
0
0
0
0.07141827
0.07113453
0.07115432
0.07150404
0.07221574
0
0
0
0
0
0
0
0
0
0
0
0
0
0
0
0
0
0
0.07035177
0.07008859
0.0701191
0.0704691
0.07116809
0
0
0
0
0
0
0
0
0
0
0
0
0
0
0
0
0
0
0
0.06934137
0.0690977
0.06913986
0.06949098
0.07017975
0
0
0
0
0
0
0
0
0
0
0
0
0
0
0
0
0
0
0
0
0.06836947
0.06814606
0.06819947
0.06855327
0.06923331
0
0
0
0
0
0
0
0
0
0
0
0
0
0
0
0
0
0
0
0
0.06740448
0.06720105
0.06726696
0.06762343
0.06829659
0
0
0
0
0
0
0