/*--------------------------------*- C++ -*----------------------------------*\
| =========                 |                                                 |
| \\      /  F ield         | OpenFOAM: The Open Source CFD Toolbox           |
|  \\    /   O peration     | Version:  2306                                  |
|   \\  /    A nd           | Website:  www.openfoam.com                      |
|    \\/     M anipulation  |                                                 |
\*---------------------------------------------------------------------------*/
FoamFile
{
    version     2.0;
    format      ascii;
    arch        "LSB;label=32;scalar=64";
    class       volScalarField;
    location    "0.9/fuel";
    object      H2;
}
// * * * * * * * * * * * * * * * * * * * * * * * * * * * * * * * * * * * * * //

dimensions      [0 0 0 0 0 0 0];

internalField   nonuniform List<scalar> 
16000
(
0.5996762
0.6044991
0.5306209
0.59995
0.6143027
0.5336969
0.604779
0.4673801
0.5308256
0.6004863
0.6291915
0.5399078
0.6145952
0.4696277
0.5339047
0.6053269
0.4165942
0.4675335
0.5312268
0.6012776
0.6486259
0.549243
0.6295051
0.4741555
0.5401221
0.6151681
0.4183423
0.469783
0.5343121
0.6061355
0.3756518
0.4167132
0.4678346
0.5318194
0.6023207
0.6697477
0.5612716
0.6489717
0.4809375
0.549468
0.6301192
0.4218569
0.4743148
0.5405424
0.6160132
0.3770576
0.4184626
0.4700879
0.5349136
0.6072011
0.3420368
0.3757469
0.416947
0.4682795
0.5326005
0.603356
0.6859503
0.574189
0.6701353
0.4896358
0.5615123
0.6496487
0.427106
0.4811033
0.549909
0.6310251
0.3798795
0.4219799
0.4746275
0.5411628
0.6171271
0.3431942
0.3771537
0.418699
0.4705383
0.5357066
0.6082589
0.3139449
0.3421147
0.375934
0.4172927
0.4688661
0.5333758
0.6042145
0.6964079
0.5840944
0.6863639
0.4989274
0.5744496
0.6708943
0.4338118
0.4898112
0.5619841
0.6506475
0.3840841
0.4272333
0.4814287
0.55056
0.6322191
0.3455143
0.3799775
0.4222215
0.4750895
0.5419807
0.6182328
0.3149153
0.3432727
0.3773425
0.4190483
0.4711322
0.5364937
0.609136
0.2901093
0.3140098
0.3422679
0.3762106
0.4177486
0.4694484
0.5340183
0.6050683
0.7024096
0.5905419
0.6968358
0.5060223
0.584366
0.6871737
0.4409437
0.499115
0.5749607
0.6720147
0.389439
0.4339456
0.4901554
0.5626808
0.6519641
0.3489649
0.3841852
0.4274834
0.4819093
0.5514183
0.6334044
0.3168587
0.3455943
0.38017
0.4225786
0.4756986
0.5427925
0.6191501
0.2909353
0.3149808
0.3434273
0.3776218
0.4195092
0.4717218
0.5371461
0.6100086
0.2696227
0.2901644
0.3141378
0.3424946
0.3765757
0.4182012
0.4699308
0.5346572
0.6059175
0.7051211
0.5942883
0.7028453
0.5106327
0.5908189
0.6976733
0.4463703
0.5062161
0.5848985
0.6883688
0.3951144
0.4410859
0.4994834
0.5757156
0.6734925
0.3533485
0.3895447
0.4342085
0.490664
0.5635994
0.6532716
0.3197446
0.3490472
0.3843838
0.427853
0.4825431
0.5522701
0.6343897
0.292588
0.3169253
0.3457516
0.3804548
0.4230497
0.4763033
0.5434656
0.6200632
0.2703346
0.2909908
0.3151097
0.3436559
0.3779903
0.4199666
0.4722102
0.5377947
0.6108764
0.2518196
0.26967
0.2902728
0.3143271
0.3427939
0.376938
0.418576
0.4704103
0.5352923
0.6067621
0.7051211
0.5959987
0.7055603
0.5133121
0.5945679
0.7036977
0.4498898
0.510829
0.5913617
0.698909
0.3994206
0.4465163
0.5065963
0.5856852
0.6899451
0.3579817
0.3952261
0.4413652
0.5000278
0.5767115
0.6749609
0.3234035
0.3534343
0.3897525
0.4345971
0.4913347
0.5645113
0.6543643
0.2950392
0.319813
0.3492089
0.3846775
0.4283406
0.4831721
0.5529776
0.6353722
0.271758
0.2926444
0.3170563
0.3459844
0.3808306
0.4235172
0.4768044
0.5441352
0.6209718
0.2524398
0.2703822
0.2911
0.3153006
0.3439577
0.3783562
0.4203455
0.4726957
0.5384396
0.6117396
0.2362014
0.2518607
0.2697632
0.2904335
0.3145771
0.343091
0.3772381
0.4189485
0.4708868
0.5359237
0.6108473
0.7024096
0.5959987
0.7055603
0.5145362
0.5962794
0.7064193
0.4519338
0.5135095
0.5951159
0.7049552
0.402209
0.4500372
0.5112143
0.5921634
0.7005387
0.3614891
0.3995349
0.4468031
0.5071584
0.5867227
0.6915115
0.3272621
0.3580721
0.395446
0.4417784
0.5007462
0.5777005
0.6761995
0.2981417
0.3234746
0.353603
0.3900599
0.4351098
0.4920006
0.5652719
0.6554597
0.2738669
0.2950969
0.3199474
0.3494484
0.3850651
0.4288246
0.4836943
0.5536824
0.6363518
0.253679
0.2718063
0.2927553
0.3172503
0.3462915
0.3812037
0.4239047
0.4773027
0.5448011
0.621876
0.2367466
0.2524811
0.270476
0.2912618
0.3155525
0.3442574
0.3786591
0.420722
0.4731781
0.5390807
0.6159152
0.2223865
0.2362374
0.2519416
0.2699012
0.2906456
0.3148254
0.3433369
0.3775362
0.4193185
0.4713602
0.5389766
0.6136563
0.6964079
0.5942883
0.7028453
0.5145362
0.5962794
0.7064193
0.4528675
0.5147341
0.5968296
0.7076865
0.4038273
0.4520817
0.513897
0.5959251
0.7066133
0.3637573
0.4023242
0.4503268
0.5117837
0.5932207
0.7021579
0.3301778
0.3615813
0.3997598
0.4472274
0.5079
0.5877531
0.6928332
0.3014076
0.3273368
0.3582499
0.3957713
0.4423237
0.5014595
0.5785321
0.677453
0.2765324
0.2982016
0.3236144
0.3538527
0.3904656
0.4356188
0.4925557
0.5660331
0.6565578
0.2555132
0.2739163
0.2952105
0.3201465
0.3497643
0.3854499
0.4292263
0.4842143
0.5543845
0.6373286
0.2378354
0.2537208
0.2719014
0.2929195
0.3175064
0.3465965
0.3815127
0.4242898
0.4777981
0.5454635
0.6262525
0.2228696
0.2367828
0.2525626
0.270615
0.2914755
0.3158028
0.3445055
0.3789601
0.421096
0.4736576
0.542181
0.6187994
0.2100784
0.2224184
0.2363084
0.2520616
0.2700836
0.2908563
0.3150309
0.3435813
0.3778323
0.4196861
0.473649
0.541069
0.6157848
0.6859503
0.5905419
0.6968358
0.5133121
0.5945679
0.7036977
0.4528675
0.5147341
0.5968296
0.7076865
0.4045665
0.4530157
0.5151225
0.597642
0.7093573
0.3650728
0.4039428
0.4523724
0.5144696
0.5969921
0.7082608
0.3320611
0.36385
0.4025507
0.450755
0.5125348
0.5942707
0.7035216
0.3038715
0.3302538
0.3617628
0.4000926
0.4477872
0.5086363
0.5886198
0.6941709
0.279334
0.3014703
0.3274838
0.3585131
0.3962007
0.4428652
0.502059
0.579371
0.6787214
0.2578289
0.2765836
0.2983195
0.3238215
0.3541823
0.3908684
0.436043
0.4931109
0.5667947
0.6576586
0.2394457
0.255556
0.2740136
0.2953788
0.3204094
0.3500781
0.3857692
0.4296262
0.4847322
0.5550838
0.6420653
0.223834
0.237872
0.2538034
0.2720424
0.2931364
0.3177607
0.3468492
0.3818199
0.4246726
0.4782907
0.5486678
0.6293265
0.2105095
0.2229016
0.2368542
0.2526833
0.2707986
0.2916878
0.3160099
0.344752
0.3792591
0.4214677
0.4759755
0.5443134
0.6209956
0.1990425
0.2101067
0.2224811
0.2364136
0.2522201
0.2702647
0.2910307
0.315235
0.3438239
0.3781264
0.4214626
0.4752141
0.5426515
0.617215
0.6697477
0.5840944
0.6863639
0.5106327
0.5908189
0.6976733
0.4519338
0.5135095
0.5951159
0.7049552
0.4045665
0.4530157
0.5151225
0.597642
0.7093573
0.3656735
0.4046821
0.4533067
0.5156964
0.5987133
0.7110175
0.3331528
0.3651656
0.4041698
0.4528021
0.5152249
0.5980518
0.7096461
0.3054615
0.3321374
0.3640323
0.4028857
0.45132
0.5132806
0.5951523
0.704899
0.2814448
0.3039353
0.3304034
0.3620313
0.4005318
0.4483432
0.5092553
0.5894942
0.6955248
0.2602596
0.2793875
0.301594
0.3277015
0.3588608
0.3966271
0.4433201
0.5026633
0.5802172
0.680005
0.2414768
0.2578732
0.2766844
0.2984942
0.3240949
0.3545096
0.3912041
0.4364672
0.4936663
0.5675569
0.6630259
0.2252594
0.2394832
0.2556403
0.2741578
0.295601
0.3206704
0.3503383
0.386087
0.4300243
0.4852477
0.5584724
0.6455782
0.2113696
0.2238664
0.2379443
0.2539257
0.2722286
0.2933519
0.3179713
0.3471002
0.3821252
0.4250532
0.4806729
0.5509015
0.6317115
0.1994295
0.2105379
0.2229647
0.23696
0.2528428
0.270981
0.2918634
0.3162156
0.3449968
0.3795561
0.423264
0.477566
0.5459324
0.622478
0.189091
0.1990678
0.2101626
0.2225742
0.2365527
0.2523776
0.2704147
0.2912039
0.3154377
0.3440649
0.3795475
0.4226755
0.4763964
0.5437132
0.6179336
0.6486259
0.574189
0.6701353
0.5060223
0.584366
0.6871737
0.4498898
0.510829
0.5913617
0.698909
0.4038273
0.4520817
0.513897
0.5959251
0.7066133
0.3656735
0.4046821
0.4533067
0.5156964
0.5987133
0.7110175
0.3336511
0.3657663
0.4049092
0.453737
0.5164534
0.5997771
0.7124124
0.3063827
0.3332291
0.3653482
0.4045056
0.4533691
0.5159748
0.5989403
0.7110434
0.2828059
0.3055255
0.3322876
0.3643023
0.403328
0.4518812
0.5139064
0.5960403
0.7062904
0.2620889
0.2814992
0.3040609
0.330625
0.3623859
0.4009681
0.4488104
0.5098795
0.5903765
0.6968951
0.2436062
0.2603058
0.279493
0.3017772
0.327989
0.3592061
0.3969854
0.4437787
0.5032727
0.581071
0.6863242
0.2270555
0.2415154
0.2579604
0.2768338
0.2987248
0.3243665
0.3547823
0.3915397
0.4368914
0.4942217
0.5712663
0.6676111
0.2126403
0.2252924
0.2395569
0.2557653
0.2743483
0.2958218
0.3208869
0.3505974
0.3864033
0.4304206
0.487745
0.5609427
0.6484805
0.2002015
0.2113984
0.2239302
0.2380515
0.2540873
0.2724135
0.2935303
0.3181806
0.3473497
0.3824285
0.426893
0.4823287
0.5526233
0.6333513
0.1894404
0.199455
0.2105941
0.2230583
0.2370999
0.2530013
0.2711319
0.2920379
0.3164199
0.3452399
0.3809913
0.4244944
0.4787719
0.5470225
0.6232254
0.1800716
0.1891138
0.1991179
0.2102455
0.2226972
0.2366909
0.2525079
0.2705635
0.2913759
0.3156389
0.3452291
0.3805166
0.423591
0.477189
0.5442461
0.6291915
0.5612716
0.6489717
0.4989274
0.5744496
0.6708943
0.4463703
0.5062161
0.5848985
0.6883688
0.402209
0.4500372
0.5112143
0.5921634
0.7005387
0.3650728
0.4039428
0.4523724
0.5144696
0.5969921
0.7082608
0.3336511
0.3657663
0.4049092
0.453737
0.5164534
0.5997771
0.7124124
0.3068032
0.3337275
0.3659489
0.4052452
0.4543048
0.517205
0.6006685
0.7138183
0.2835941
0.3064467
0.3333794
0.3656184
0.4049488
0.4539322
0.5166033
0.5998341
0.7124527
0.2632676
0.2828603
0.3056515
0.33251
0.3646587
0.4037672
0.4523519
0.5145365
0.5969348
0.7076959
0.2452073
0.2621358
0.2816063
0.3042471
0.3309177
0.3627382
0.4013346
0.4492814
0.510509
0.5912668
0.7036409
0.2289368
0.2436465
0.2603969
0.2796494
0.3020193
0.3282747
0.3594961
0.3973464
0.4442409
0.5038871
0.5852613
0.6930772
0.2142402
0.2270895
0.2415916
0.2580897
0.2770311
0.298954
0.3245927
0.3550549
0.3918752
0.4373155
0.4969238
0.5743207
0.6720695
0.2013414
0.2126696
0.2253575
0.2396663
0.2559304
0.2745375
0.2960048
0.3211023
0.3508552
0.3867181
0.4323396
0.4895585
0.5629504
0.6506144
0.1901371
0.2002273
0.2114553
0.2240249
0.2381931
0.2542479
0.2725667
0.2937075
0.3183885
0.3475976
0.3838951
0.4281697
0.4836029
0.5538003
0.6341899
0.1803886
0.1894633
0.1995053
0.2106775
0.223182
0.2372389
0.2531324
0.2712818
0.2922111
0.3166229
0.3464146
0.3819732
0.4254266
0.4795831
0.5475712
0.1718596
0.1800923
0.1891589
0.1991922
0.2103551
0.2228195
0.2368052
0.2526373
0.2707113
0.2915466
0.3166111
0.3460222
0.3812476
0.4242043
0.4775866
0.6143027
0.549243
0.6295051
0.4896358
0.5615123
0.6496487
0.4409437
0.499115
0.5749607
0.6720147
0.3994206
0.4465163
0.5065963
0.5856852
0.6899451
0.3637573
0.4023242
0.4503268
0.5117837
0.5932207
0.7021579
0.3331528
0.3651656
0.4041698
0.4528021
0.5152249
0.5980518
0.7096461
0.3068032
0.3337275
0.3659489
0.4052452
0.4543048
0.517205
0.6006685
0.7138183
0.2839538
0.3068671
0.3338777
0.3662192
0.4056887
0.4548685
0.5178345
0.6015647
0.7152354
0.26395
0.2836485
0.3065726
0.3336019
0.3659752
0.4053888
0.4544039
0.5172352
0.6007331
0.7138741
0.2462383
0.2633145
0.2829676
0.3058381
0.3328038
0.3650127
0.4041356
0.4528256
0.5151708
0.5978357
0.7146012
0.2303501
0.2452481
0.2622281
0.281765
0.3044931
0.3312085
0.3630341
0.4017041
0.4497563
0.5111438
0.5956362
0.7107492
0.2159144
0.2289722
0.243726
0.2605321
0.2798561
0.3022598
0.3285146
0.3597883
0.3977103
0.4447068
0.5069009
0.589492
0.7015771
0.2027755
0.2142704
0.2271567
0.2417046
0.2582605
0.2772272
0.2991448
0.3248188
0.3553274
0.3922106
0.4393785
0.4991361
0.5771933
0.6760514
0.1911653
0.2013676
0.2127275
0.2254541
0.2398109
0.2560945
0.2746944
0.296187
0.3213167
0.3511117
0.3882424
0.4337306
0.4910283
0.564404
0.6517744
0.1810205
0.1901603
0.2002782
0.2115395
0.2241501
0.2383339
0.2543808
0.2727188
0.2938836
0.3185951
0.3487958
0.3849114
0.4291512
0.4844728
0.5543998
0.1721485
0.1804094
0.1895087
0.19958
0.2107877
0.223305
0.237354
0.2532626
0.2714307
0.2923832
0.3176031
0.3472175
0.3827167
0.4260533
0.4799912
0.1643518
0.1718785
0.1801332
0.1892259
0.1992905
0.2104641
0.2229206
0.2369187
0.2527657
0.2708581
0.2923713
0.3172729
0.3466202
0.3817371
0.424512
0.6044991
0.5399078
0.6145952
0.4809375
0.549468
0.6301192
0.4338118
0.4898112
0.5619841
0.6506475
0.3951144
0.4410859
0.4994834
0.5757156
0.6734925
0.3614891
0.3995349
0.4468031
0.5071584
0.5867227
0.6915115
0.3320611
0.36385
0.4025507
0.450755
0.5125348
0.5942707
0.7035216
0.3063827
0.3332291
0.3653482
0.4045056
0.4533691
0.5159748
0.5989403
0.7110434
0.2839538
0.3068671
0.3338777
0.3662192
0.4056887
0.4548685
0.5178345
0.6015647
0.7152354
0.2642613
0.2840082
0.306993
0.3341002
0.3665761
0.4061291
0.4553406
0.5184671
0.6024656
0.7166636
0.2468349
0.2639968
0.2837557
0.3067592
0.3338957
0.3663295
0.4057575
0.454878
0.5178705
0.6016375
0.7208473
0.2312596
0.2462791
0.263407
0.2831266
0.3060847
0.3330956
0.3653095
0.4045063
0.4533025
0.5158094
0.60225
0.7215429
0.2171713
0.230386
0.2453286
0.2623651
0.2819747
0.3047375
0.3314528
0.3633323
0.4020766
0.4502351
0.5142577
0.5999997
0.7193602
0.2042753
0.2159459
0.2290423
0.243844
0.2607107
0.2800615
0.3024617
0.3287564
0.3600828
0.398077
0.446992
0.5099236
0.5945909
0.7125924
0.1924583
0.2028026
0.2143301
0.2272564
0.241854
0.2584302
0.2773905
0.2993356
0.3250448
0.3555998
0.3938418
0.4410645
0.5012078
0.5796827
0.6788052
0.1819527
0.1911889
0.2014194
0.2128134
0.2255817
0.2399546
0.2562305
0.2748505
0.2963683
0.3215301
0.3523537
0.3893459
0.434857
0.49209
0.5651847
0.1727242
0.1810415
0.1902061
0.2003537
0.211651
0.2242745
0.2384504
0.2545129
0.2728699
0.2940585
0.3195935
0.3496253
0.3856924
0.4298209
0.4849154
0.1646161
0.1721674
0.1804505
0.189576
0.1996788
0.2108972
0.2234067
0.2374682
0.2533919
0.2715785
0.2932142
0.3182726
0.3478252
0.3832163
0.4263684
0.157462
0.164369
0.1719157
0.1801939
0.1893146
0.1993882
0.2105542
0.2230211
0.2370314
0.2528933
0.2715668
0.2929323
0.3177718
0.3470206
0.3819826
0.5996762
0.5336969
0.604779
0.4741555
0.5401221
0.6151681
0.427106
0.4811033
0.549909
0.6310251
0.389439
0.4339456
0.4901554
0.5626808
0.6519641
0.3579817
0.3952261
0.4413652
0.5000278
0.5767115
0.6749609
0.3301778
0.3615813
0.3997598
0.4472274
0.5079
0.5877531
0.6928332
0.3054615
0.3321374
0.3640323
0.4028857
0.45132
0.5132806
0.5951523
0.704899
0.2835941
0.3064467
0.3333794
0.3656184
0.4049488
0.4539322
0.5166033
0.5998341
0.7124527
0.2642613
0.2840082
0.306993
0.3341002
0.3665761
0.4061291
0.4553406
0.5184671
0.6024656
0.7166636
0.2471071
0.2643081
0.2841153
0.3071796
0.334394
0.3669305
0.4064977
0.4558147
0.5191026
0.6033713
0.7236653
0.2317859
0.2468757
0.2640892
0.2839146
0.3070057
0.3341876
0.3666263
0.406128
0.4553546
0.5185093
0.6060628
0.7276259
0.2179798
0.2312955
0.2463597
0.2635441
0.2833367
0.3063297
0.3333403
0.3656082
0.4048794
0.4537824
0.5189367
0.6064734
0.7295841
0.2054004
0.2172031
0.2304568
0.2454481
0.2625462
0.2821831
0.3049427
0.3316989
0.3636329
0.402452
0.4525834
0.5173512
0.605075
0.7296471
0.1938094
0.2043034
0.216008
0.2291462
0.244
0.2608882
0.280234
0.3026652
0.329
0.3603796
0.3998755
0.449281
0.5135477
0.600969
0.7276231
0.1831243
0.1924826
0.2028559
0.2144186
0.2273881
0.2420024
0.2585716
0.2775537
0.2995263
0.3252708
0.3569244
0.3951737
0.4426418
0.5029961
0.5813612
0.1735732
0.1819741
0.1912356
0.2014963
0.2129269
0.2257086
0.2400737
0.2563659
0.2750059
0.2965486
0.3225628
0.3532521
0.390239
0.43567
0.4926594
0.1651428
0.1727433
0.181083
0.1902742
0.2004535
0.2117617
0.2243775
0.2385661
0.2546441
0.2730201
0.2949039
0.3202842
0.3502625
0.386225
0.4301615
0.1577047
0.1646334
0.1722048
0.1805115
0.1896651
0.199777
0.2109878
0.2235077
0.2375816
0.2535203
0.2722923
0.2937814
0.3187791
0.3482334
0.3834675
0.1511175
0.1574778
0.164403
0.1719709
0.1802742
0.1894027
0.1994691
0.2106437
0.2231208
0.2371433
0.2535092
0.2720487
0.2933551
0.3181056
0.3472213
0.5306209
0.59995
0.4696277
0.5339047
0.6053269
0.4218569
0.4743148
0.5405424
0.6160132
0.3840841
0.4272333
0.4814287
0.55056
0.6322191
0.3533485
0.3895447
0.4342085
0.490664
0.5635994
0.6532716
0.3272621
0.3580721
0.395446
0.4417784
0.5007462
0.5777005
0.6761995
0.3038715
0.3302538
0.3617628
0.4000926
0.4477872
0.5086363
0.5886198
0.6941709
0.2828059
0.3055255
0.3322876
0.3643023
0.403328
0.4518812
0.5139064
0.5960403
0.7062904
0.26395
0.2836485
0.3065726
0.3336019
0.3659752
0.4053888
0.4544039
0.5172352
0.6007331
0.7138741
0.2471071
0.2643081
0.2841153
0.3071796
0.334394
0.3669305
0.4064977
0.4558147
0.5191026
0.6033713
0.7236653
0.2320259
0.2471479
0.2644004
0.2842741
0.3074259
0.3346859
0.3672271
0.406868
0.456291
0.5197412
0.6078002
0.7303659
0.2184474
0.2318217
0.2469562
0.2642261
0.2841244
0.3072506
0.3344321
0.3669245
0.4065003
0.4558336
0.5216334
0.6101691
0.7352619
0.2061238
0.2180116
0.2313664
0.2464792
0.2637253
0.2835454
0.3065351
0.3335865
0.3659088
0.4052548
0.4561322
0.5219165
0.6111763
0.7387357
0.1948224
0.2054288
0.2172659
0.2305619
0.245606
0.2627261
0.2823581
0.3051496
0.3319471
0.3639359
0.4042932
0.4549143
0.5209353
0.6109365
0.7417534
0.1843478
0.1938347
0.2043589
0.2161003
0.2292836
0.244155
0.2610373
0.2804078
0.3028702
0.3292455
0.3618349
0.4016764
0.4520228
0.5180574
0.6094252
0.7532163
0.1746396
0.1831462
0.1925306
0.2029351
0.2145356
0.227519
0.242126
0.2587129
0.2777168
0.2997168
0.3263692
0.3580053
0.3964193
0.4440021
0.5041983
0.1659191
0.1735926
0.1820163
0.1913048
0.2015979
0.2130398
0.2258138
0.2401922
0.2565006
0.2751604
0.2974215
0.3233092
0.3539789
0.3908834
0.4361059
0.1581882
0.1651602
0.1727811
0.1811446
0.1903641
0.2005528
0.2118534
0.2244798
0.2386811
0.2547744
0.2737455
0.2954885
0.3208146
0.3506969
0.3864958
0.1513411
0.1577205
0.1646676
0.1722603
0.1805921
0.1897536
0.1998583
0.2110778
0.223608
0.2376942
0.2541404
0.2727793
0.2942104
0.3191193
0.3484386
0.1452568
0.151132
0.1575089
0.1644535
0.1720441
0.1803541
0.1894756
0.1995493
0.2107325
0.2232197
0.2376836
0.2539278
0.2724118
0.2936379
0.318273
0.4673801
0.5308256
0.6004863
0.4183423
0.469783
0.5343121
0.6061355
0.3798795
0.4219799
0.4746275
0.5411628
0.6171271
0.3489649
0.3841852
0.4274834
0.4819093
0.5514183
0.6334044
0.3234035
0.3534343
0.3897525
0.4345971
0.4913347
0.5645113
0.6543643
0.3014076
0.3273368
0.3582499
0.3957713
0.4423237
0.5014595
0.5785321
0.677453
0.2814448
0.3039353
0.3304034
0.3620313
0.4005318
0.4483432
0.5092553
0.5894942
0.6955248
0.2632676
0.2828603
0.3056515
0.33251
0.3646587
0.4037672
0.4523519
0.5145365
0.5969348
0.7076959
0.2468349
0.2639968
0.2837557
0.3067592
0.3338957
0.3663295
0.4057575
0.454878
0.5178705
0.6016375
0.7208473
0.2320259
0.2471479
0.2644004
0.2842741
0.3074259
0.3346859
0.3672271
0.406868
0.456291
0.5197412
0.6078002
0.7303659
0.2186607
0.2320617
0.2472282
0.2645372
0.2844838
0.3076707
0.3349301
0.367525
0.4072398
0.4567695
0.5228627
0.6118516
0.7378195
0.2065421
0.2184792
0.2318924
0.2470754
0.2644071
0.284333
0.3074556
0.3346776
0.3672241
0.4068745
0.458176
0.5245223
0.6146186
0.7437488
0.1954735
0.2061521
0.2180744
0.2314715
0.2466371
0.2639054
0.2837204
0.3067417
0.3338343
0.3662112
0.4070926
0.4583697
0.525225
0.6163475
0.748962
0.1852646
0.1948479
0.2054848
0.2173591
0.2307009
0.245763
0.2628772
0.2825345
0.305358
0.3321971
0.3654216
0.4061205
0.4576131
0.5250585
0.617633
0.7578744
0.1757527
0.1843706
0.1938845
0.2044413
0.2162222
0.2294202
0.2442852
0.2611875
0.2805829
0.3030769
0.330449
0.3632922
0.403833
0.4554289
0.5240037
0.6235088
0.7675393
0.1668938
0.1746595
0.1831896
0.1926018
0.2030398
0.214652
0.227628
0.2422496
0.2588541
0.2778798
0.3006434
0.3272652
0.359016
0.3974932
0.4449161
0.1589007
0.1659368
0.1736309
0.1820789
0.1913963
0.201699
0.2131334
0.2259184
0.2403101
0.2566345
0.2759084
0.2980522
0.323913
0.3545032
0.3912289
0.1517865
0.1582042
0.1651947
0.1728371
0.1812261
0.1904536
0.2006349
0.2119445
0.2245814
0.2387953
0.255404
0.2742469
0.2959372
0.321176
0.3509177
0.1454635
0.1513557
0.1577518
0.1647183
0.1723338
0.1806724
0.1898269
0.1999389
0.2111671
0.2237076
0.238238
0.2545632
0.2731476
0.2944985
0.3192903
0.1398275
0.1452702
0.1511607
0.1575553
0.1645204
0.1721168
0.1804201
0.1895479
0.1996289
0.2108207
0.2236976
0.2380507
0.254243
0.2726547
0.2937797
0.4165942
0.4675335
0.5312268
0.6012776
0.3770576
0.4184626
0.4700879
0.5349136
0.6072011
0.3455143
0.3799775
0.4222215
0.4750895
0.5419807
0.6182328
0.3197446
0.3490472
0.3843838
0.427853
0.4825431
0.5522701
0.6343897
0.2981417
0.3234746
0.353603
0.3900599
0.4351098
0.4920006
0.5652719
0.6554597
0.279334
0.3014703
0.3274838
0.3585131
0.3962007
0.4428652
0.502059
0.579371
0.6787214
0.2620889
0.2814992
0.3040609
0.330625
0.3623859
0.4009681
0.4488104
0.5098795
0.5903765
0.6968951
0.2462383
0.2633145
0.2829676
0.3058381
0.3328038
0.3650127
0.4041356
0.4528256
0.5151708
0.5978357
0.7146012
0.2317859
0.2468757
0.2640892
0.2839146
0.3070057
0.3341876
0.3666263
0.406128
0.4553546
0.5185093
0.6060628
0.7276259
0.2186607
0.2320617
0.2472282
0.2645372
0.2844838
0.3076707
0.3349301
0.367525
0.4072398
0.4567695
0.5228627
0.6118516
0.7378195
0.2067329
0.2186924
0.2321323
0.2473474
0.264718
0.2846922
0.3078755
0.3351753
0.3678241
0.4076133
0.4591077
0.5257093
0.6161883
0.7460226
0.1958499
0.2065704
0.2185418
0.2319973
0.2472331
0.2645869
0.2845076
0.3076616
0.3349244
0.3675252
0.4087039
0.4603409
0.5276459
0.619394
0.753056
0.1858537
0.195499
0.2062082
0.2181675
0.2316104
0.2467941
0.2640563
0.2838964
0.3069496
0.3340835
0.3676914
0.4088424
0.4608533
0.5288527
0.6219463
0.7620076
0.1765864
0.1852876
0.1948983
0.2055681
0.2174824
0.2308391
0.2458948
0.2630295
0.2827123
0.3055681
0.3334231
0.3668962
0.408236
0.4607144
0.5297509
0.6263093
0.7695689
0.1679107
0.1757734
0.1844157
0.1939586
0.2045503
0.2163435
0.2295349
0.2444164
0.2613388
0.2807593
0.3040898
0.3316541
0.3650369
0.4065098
0.4599095
0.5338518
0.6318118
0.7784152
0.1597949
0.166912
0.1746989
0.183254
0.192696
0.2031439
0.2147489
0.227737
0.242373
0.2589951
0.2786724
0.3013988
0.3281028
0.3598872
0.3982147
0.1524427
0.1589169
0.1659718
0.1736879
0.1821618
0.1914873
0.2017828
0.2132264
0.2260225
0.2404274
0.2572829
0.2764486
0.2985621
0.3243485
0.3547842
0.1458751
0.1518012
0.1582358
0.1652459
0.1729112
0.1813071
0.1905276
0.2007165
0.212035
0.2246823
0.2393471
0.2558389
0.2746317
0.2962429
0.3213598
0.140019
0.145477
0.1513845
0.1577984
0.1647854
0.1724068
0.1807388
0.1898996
0.200019
0.2112558
0.2241884
0.2386086
0.2548829
0.2733948
0.2946433
0.1347843
0.1398399
0.1452967
0.1512034
0.1576166
0.1645869
0.1721769
0.1804857
0.1896197
0.199708
0.2112464
0.2240222
0.2383271
0.2544539
0.2727764
0.3756518
0.4167132
0.4678346
0.5318194
0.6023207
0.3431942
0.3771537
0.418699
0.4705383
0.5357066
0.6082589
0.3168587
0.3455943
0.38017
0.4225786
0.4756986
0.5427925
0.6191501
0.2950392
0.319813
0.3492089
0.3846775
0.4283406
0.4831721
0.5529776
0.6353722
0.2765324
0.2982016
0.3236144
0.3538527
0.3904656
0.4356188
0.4925557
0.5660331
0.6565578
0.2602596
0.2793875
0.301594
0.3277015
0.3588608
0.3966271
0.4433201
0.5026633
0.5802172
0.680005
0.2452073
0.2621358
0.2816063
0.3042471
0.3309177
0.3627382
0.4013346
0.4492814
0.510509
0.5912668
0.7036409
0.2312596
0.2462791
0.263407
0.2831266
0.3060847
0.3330956
0.3653095
0.4045063
0.4533025
0.5158094
0.60225
0.7215429
0.2184474
0.2318217
0.2469562
0.2642261
0.2841244
0.3072506
0.3344321
0.3669245
0.4065003
0.4558336
0.5216334
0.6101691
0.7352619
0.2067329
0.2186924
0.2321323
0.2473474
0.264718
0.2846922
0.3078755
0.3351753
0.3678241
0.4076133
0.4591077
0.5257093
0.6161883
0.7460226
0.1960216
0.2067611
0.218755
0.2322371
0.2475049
0.2648977
0.2848666
0.3080811
0.3354216
0.3681245
0.4094382
0.4612386
0.5287507
0.620796
0.7549568
0.1861942
0.1958753
0.2066263
0.2186347
0.2321359
0.2473899
0.2647375
0.284683
0.3078686
0.3351723
0.3689971
0.4103942
0.4626811
0.530991
0.6244624
0.7648104
0.1771219
0.1858767
0.1955493
0.2062913
0.2182907
0.2317485
0.2469257
0.2642082
0.2840735
0.3071588
0.3353032
0.3691007
0.4107845
0.4635743
0.5327698
0.6288744
0.7719377
0.168672
0.1766073
0.1853331
0.1949731
0.2056782
0.217605
0.2309551
0.2460276
0.2631829
0.2828914
0.3065981
0.33464
0.3686032
0.4106655
0.4642379
0.5358091
0.633151
0.7794374
0.1607274
0.1679295
0.1758143
0.1844826
0.1940566
0.2046587
0.2164453
0.2296504
0.2445485
0.2614913
0.2816242
0.305104
0.3330969
0.3672013
0.4100258
0.4673072
0.5396249
0.6385292
0.7869457
0.1532659
0.1598116
0.1669479
0.1747575
0.1833393
0.1927897
0.2032306
0.2148457
0.2278459
0.2424964
0.2596811
0.2793184
0.302105
0.3288248
0.3604725
0.1464812
0.1524576
0.158949
0.1660238
0.1737633
0.1822442
0.1915628
0.2018661
0.213319
0.2261261
0.240995
0.257751
0.2768853
0.2989299
0.3245819
0.1404004
0.1458886
0.1518303
0.1582827
0.1653136
0.172985
0.1813742
0.1906012
0.2007976
0.2121248
0.2251699
0.2397281
0.2561727
0.2748938
0.2963983
0.1349623
0.1400315
0.1455035
0.1514273
0.1578599
0.1648522
0.1724672
0.1808046
0.1899718
0.2000985
0.2116841
0.2245161
0.2388888
0.2550975
0.273519
0.1300883
0.1347958
0.1398644
0.1453361
0.1512598
0.1576776
0.1646418
0.1722366
0.1805508
0.189691
0.2000897
0.2115355
0.2242666
0.238512
0.2545596
0.3420368
0.3757469
0.416947
0.4682795
0.5326005
0.603356
0.3149153
0.3432727
0.3773425
0.4190483
0.4711322
0.5364937
0.609136
0.292588
0.3169253
0.3457516
0.3804548
0.4230497
0.4763033
0.5434656
0.6200632
0.2738669
0.2950969
0.3199474
0.3494484
0.3850651
0.4288246
0.4836943
0.5536824
0.6363518
0.2578289
0.2765836
0.2983195
0.3238215
0.3541823
0.3908684
0.436043
0.4931109
0.5667947
0.6576586
0.2436062
0.2603058
0.279493
0.3017772
0.327989
0.3592061
0.3969854
0.4437787
0.5032727
0.581071
0.6863242
0.2303501
0.2452481
0.2622281
0.281765
0.3044931
0.3312085
0.3630341
0.4017041
0.4497563
0.5111438
0.5956362
0.7107492
0.2179798
0.2312955
0.2463597
0.2635441
0.2833367
0.3063297
0.3333403
0.3656082
0.4048794
0.4537824
0.5189367
0.6064734
0.7295841
0.2065421
0.2184792
0.2318924
0.2470754
0.2644071
0.284333
0.3074556
0.3346776
0.3672241
0.4068745
0.458176
0.5245223
0.6146186
0.7437488
0.1960216
0.2067611
0.218755
0.2322371
0.2475049
0.2648977
0.2848666
0.3080811
0.3354216
0.3681245
0.4094382
0.4612386
0.5287507
0.620796
0.7549568
0.1863494
0.1960469
0.2068169
0.2188478
0.2323756
0.2476615
0.265048
0.2850416
0.3082876
0.3356688
0.369592
0.411101
0.4635153
0.5319762
0.6256508
0.7662042
0.1774313
0.1862171
0.1959255
0.2067092
0.2187577
0.2322738
0.2475211
0.2648887
0.2848592
0.3080765
0.3363842
0.370357
0.4122218
0.4651862
0.5345343
0.6306625
0.7737786
0.1691608
0.1771427
0.1859221
0.1956239
0.2064013
0.2184132
0.2318643
0.2470581
0.2643609
0.2842517
0.3081823
0.3364645
0.370665
0.4129117
0.4665094
0.5376054
0.6347428
0.7808123
0.1614253
0.168691
0.1766485
0.1854007
0.195072
0.2057877
0.217708
0.231072
0.2461615
0.2633375
0.2837696
0.3076205
0.3360487
0.3705628
0.4134229
0.4687781
0.5405727
0.6393229
0.7875445
0.154124
0.1607447
0.1679668
0.1758751
0.1845712
0.1941541
0.2047497
0.2165479
0.2297668
0.2446816
0.2622387
0.2824901
0.3063182
0.334886
0.3700413
0.4158183
0.4716216
0.544291
0.6440996
0.7936701
0.1472415
0.1532812
0.1598445
0.1670014
0.1748349
0.183424
0.1928677
0.2033172
0.2149425
0.2279547
0.2430961
0.2602401
0.2799222
0.3027137
0.3293099
0.140962
0.146495
0.1524871
0.1589967
0.1660926
0.1738382
0.1823125
0.1916379
0.201949
0.2134112
0.2266272
0.2414046
0.2581294
0.2772002
0.299127
0.1353166
0.140413
0.1459155
0.1518735
0.1583448
0.165381
0.173046
0.1814408
0.1906742
0.2008781
0.2125588
0.2255065
0.2400204
0.2564
0.2750271
0.1302541
0.1349739
0.1400561
0.1455431
0.151484
0.1579212
0.1649074
0.1725272
0.1808701
0.1900434
0.2004824
0.2119758
0.2247637
0.2390768
0.2552052
0.1257055
0.130099
0.1348186
0.1399009
0.1453882
0.151316
0.157728
0.1646964
0.1722959
0.1806154
0.1900352
0.2003488
0.2117532
0.22443
0.2386046
0.3139449
0.3421147
0.375934
0.4172927
0.4688661
0.5333758
0.6042145
0.2909353
0.3149808
0.3434273
0.3776218
0.4195092
0.4717218
0.5371461
0.6100086
0.271758
0.2926444
0.3170563
0.3459844
0.3808306
0.4235172
0.4768044
0.5441352
0.6209718
0.2555132
0.2739163
0.2952105
0.3201465
0.3497643
0.3854499
0.4292263
0.4842143
0.5543845
0.6373286
0.2414768
0.2578732
0.2766844
0.2984942
0.3240949
0.3545096
0.3912041
0.4364672
0.4936663
0.5675569
0.6630259
0.2289368
0.2436465
0.2603969
0.2796494
0.3020193
0.3282747
0.3594961
0.3973464
0.4442409
0.5038871
0.5852613
0.6930772
0.2171713
0.230386
0.2453286
0.2623651
0.2819747
0.3047375
0.3314528
0.3633323
0.4020766
0.4502351
0.5142577
0.5999997
0.7193602
0.2061238
0.2180116
0.2313664
0.2464792
0.2637253
0.2835454
0.3065351
0.3335865
0.3659088
0.4052548
0.4561322
0.5219165
0.6111763
0.7387357
0.1958499
0.2065704
0.2185418
0.2319973
0.2472331
0.2645869
0.2845076
0.3076616
0.3349244
0.3675252
0.4087039
0.4603409
0.5276459
0.619394
0.753056
0.1863494
0.1960469
0.2068169
0.2188478
0.2323756
0.2476615
0.265048
0.2850416
0.3082876
0.3356688
0.369592
0.411101
0.4635153
0.5319762
0.6256508
0.7662042
0.1775724
0.1863723
0.196097
0.2068998
0.2189705
0.2325132
0.2477925
0.2651989
0.2852174
0.3084949
0.3368766
0.3709291
0.4128777
0.4659291
0.5353691
0.6315675
0.774755
0.1694432
0.1774521
0.1862624
0.196
0.2068189
0.2188798
0.2323892
0.2476528
0.2650406
0.2850362
0.3090928
0.3375038
0.3718275
0.4141777
0.467838
0.5388613
0.6360043
0.7819829
0.1618733
0.1691798
0.1771839
0.1859895
0.1957227
0.2065106
0.2185159
0.2319808
0.2471913
0.2645146
0.2851235
0.3091568
0.3377536
0.372378
0.4152048
0.4701283
0.5416999
0.6403797
0.7883946
0.154766
0.1614427
0.1687286
0.1767099
0.1854901
0.1951704
0.2058796
0.2178117
0.2311898
0.2462964
0.2640955
0.2846412
0.308804
0.3376653
0.3727853
0.416971
0.4723377
0.5448671
0.6446704
0.7940762
0.1480336
0.1541399
0.1607789
0.1680223
0.1759556
0.1846594
0.194236
0.2048414
0.2166512
0.2298841
0.2453342
0.2629871
0.2835268
0.3078233
0.3372314
0.3747121
0.4191841
0.4750995
0.5481571
0.648683
0.7988952
0.1416661
0.1472556
0.1533115
0.1598935
0.1670721
0.174912
0.1834946
0.1929456
0.2034037
0.2150391
0.2284835
0.2435847
0.2607626
0.2804426
0.3031226
0.1358383
0.1409747
0.1465222
0.1525309
0.1590598
0.1661611
0.1739003
0.1823804
0.1917125
0.2020315
0.2138569
0.2269887
0.2417357