/*--------------------------------*- C++ -*----------------------------------*\
| =========                 |                                                 |
| \\      /  F ield         | OpenFOAM: The Open Source CFD Toolbox           |
|  \\    /   O peration     | Version:  2306                                  |
|   \\  /    A nd           | Website:  www.openfoam.com                      |
|    \\/     M anipulation  |                                                 |
\*---------------------------------------------------------------------------*/
FoamFile
{
    version     2.0;
    format      ascii;
    arch        "LSB;label=32;scalar=64";
    class       volScalarField;
    location    "0.9/fuel";
    object      H2O;
}
// * * * * * * * * * * * * * * * * * * * * * * * * * * * * * * * * * * * * * //

dimensions      [0 0 0 0 0 0 0];

internalField   nonuniform List<scalar> 
16000
(
0.4003465
0.3955234
0.4694014
0.4000727
0.3857195
0.4663254
0.3952436
0.5326411
0.4691968
0.3995364
0.37083
0.4601143
0.3854269
0.5303934
0.4661176
0.3946956
0.5834255
0.5324877
0.4687955
0.398745
0.3513947
0.4507787
0.3705164
0.5258655
0.4598999
0.384854
0.5816774
0.5302381
0.4657102
0.393887
0.6243665
0.5833065
0.5321866
0.4682029
0.3977019
0.3302719
0.4387496
0.3510489
0.5190833
0.4505537
0.3699023
0.5781627
0.5257062
0.4594796
0.3840088
0.6229606
0.5815571
0.5299332
0.4651086
0.3928213
0.6579801
0.6242713
0.5830727
0.5317417
0.4674218
0.3966666
0.3140684
0.4258318
0.3298843
0.5103848
0.4385089
0.3503719
0.5729136
0.5189175
0.4501127
0.3689963
0.6201387
0.5780397
0.5253935
0.4588592
0.3828949
0.6568227
0.6228646
0.5813207
0.5294828
0.4643156
0.3917635
0.6860707
0.6579022
0.6240843
0.5827271
0.531155
0.4666465
0.3958081
0.3036101
0.4159259
0.3136547
0.5010929
0.4255711
0.3291253
0.5662077
0.5102094
0.4380371
0.3493731
0.6159341
0.5727863
0.5185922
0.4494616
0.3678023
0.6545025
0.6200407
0.5777981
0.5249315
0.4580413
0.3817892
0.6851003
0.6567441
0.6226757
0.5809714
0.5288888
0.4635284
0.3908863
0.709905
0.6860057
0.657749
0.6238076
0.5822711
0.5305727
0.4660039
0.3949542
0.2976079
0.4094781
0.3031822
0.4939978
0.4156543
0.3128449
0.5590756
0.5009053
0.42506
0.3280049
0.6105792
0.5660738
0.5098652
0.4373404
0.3480564
0.651052
0.615833
0.5725362
0.5181115
0.4486034
0.366617
0.6831568
0.6544225
0.6198482
0.577441
0.5243223
0.4572294
0.3808718
0.709079
0.6850348
0.6565896
0.6223964
0.5805105
0.5282993
0.4628761
0.3900137
0.7303905
0.7098499
0.6858778
0.6575222
0.6234426
0.5818185
0.5300903
0.465365
0.3941049
0.2948962
0.4057314
0.2971722
0.4893872
0.4092011
0.3023446
0.5536489
0.493804
0.4151217
0.3116498
0.6049037
0.5589334
0.500537
0.424305
0.326527
0.6466684
0.6104735
0.565811
0.5093566
0.4364218
0.3467489
0.680271
0.6509697
0.6156344
0.5721665
0.5174777
0.4477515
0.3656316
0.7074263
0.6830902
0.6542653
0.6195634
0.57697
0.5237177
0.4565563
0.3799587
0.7296786
0.7090236
0.6849058
0.6563609
0.6220279
0.5800531
0.5278109
0.4622274
0.3891458
0.7481925
0.7303432
0.7097415
0.6856884
0.657223
0.6230802
0.5814437
0.5296108
0.4647299
0.3932604
0.2948962
0.404021
0.294457
0.4867078
0.4054518
0.2963198
0.5501293
0.4891909
0.4086582
0.3011089
0.6005975
0.5535029
0.4934238
0.4143351
0.3100734
0.6420351
0.6047919
0.5586541
0.4999925
0.4233092
0.3250585
0.6766121
0.6465826
0.6102656
0.5654223
0.5086858
0.4355099
0.3456562
0.7049752
0.6802026
0.6508079
0.6153406
0.5716789
0.5168486
0.447044
0.3646491
0.7282552
0.70737
0.6829592
0.6540325
0.6191876
0.5765024
0.5232165
0.4558867
0.3790501
0.7475724
0.729631
0.7089143
0.684715
0.6560591
0.6216621
0.5796742
0.5273254
0.4615825
0.3882826
0.7638098
0.7481515
0.7302501
0.7095808
0.6854384
0.6569259
0.6227801
0.5810712
0.5291343
0.4640985
0.3891749
0.2976079
0.404021
0.294457
0.4854836
0.4037402
0.293598
0.5480853
0.4865103
0.4049038
0.2950623
0.597809
0.5499819
0.4888056
0.4078565
0.2994792
0.6385277
0.6004831
0.5532161
0.4928617
0.4132975
0.308507
0.6727535
0.6419448
0.6045721
0.5582409
0.4992741
0.4223201
0.3238198
0.7018727
0.676541
0.6464139
0.6099582
0.5649096
0.50802
0.4347492
0.3445607
0.7261464
0.7049175
0.6800681
0.6505685
0.6149531
0.5711949
0.5163264
0.4463392
0.3636694
0.7463332
0.7282069
0.7072591
0.6827653
0.6537253
0.6188146
0.576115
0.5227182
0.4552207
0.3781458
0.7632647
0.7475311
0.7295372
0.7087525
0.684463
0.6557595
0.6213591
0.5792977
0.5268429
0.4609414
0.3841068
0.7776237
0.7637738
0.7480705
0.730112
0.7093687
0.6851902
0.6566799
0.622482
0.5807012
0.5286608
0.4610455
0.3863658
0.3036101
0.4057314
0.2971722
0.4854836
0.4037402
0.293598
0.5471515
0.4852856
0.40319
0.2923307
0.5961906
0.5479373
0.4861228
0.4040946
0.2934041
0.6362595
0.5976938
0.5496923
0.4882362
0.4067992
0.2978599
0.6698379
0.6384355
0.6002582
0.5527918
0.4921201
0.4122671
0.3071853
0.6986069
0.6726788
0.6417669
0.6042468
0.5576956
0.4985608
0.4214885
0.3225664
0.7234809
0.7018128
0.6764012
0.6461642
0.6095525
0.5644006
0.5074648
0.433988
0.3434625
0.744499
0.726097
0.7048039
0.6798691
0.6502525
0.6145683
0.5707932
0.5158064
0.4456371
0.3626926
0.7621759
0.7462913
0.7281118
0.7070948
0.6825092
0.6534203
0.6185055
0.5757298
0.5222228
0.4545583
0.3737692
0.7771407
0.7632284
0.7474496
0.7293982
0.7085388
0.6842128
0.6555113
0.6210581
0.5789236
0.5263634
0.457841
0.3812225
0.7899311
0.7775919
0.7637028
0.7479506
0.7299296
0.709158
0.6849847
0.6564356
0.6221859
0.5803336
0.526372
0.458953
0.3842372
0.3140684
0.4094781
0.3031822
0.4867078
0.4054518
0.2963198
0.5471515
0.4852856
0.40319
0.2923307
0.5954514
0.5470033
0.4848973
0.4023776
0.2906598
0.634944
0.5960752
0.5476467
0.4855502
0.4030275
0.2917565
0.6679545
0.6361668
0.5974673
0.5492641
0.4874851
0.4057491
0.2964962
0.696143
0.6697618
0.6382541
0.5999255
0.552232
0.4913837
0.4114004
0.3058475
0.7206794
0.6985441
0.6725318
0.6415037
0.6038174
0.5571541
0.4979613
0.4206496
0.3212979
0.7421833
0.7234297
0.7016949
0.6761941
0.6458346
0.6091497
0.5639764
0.5069096
0.4332263
0.3423617
0.7605655
0.7444562
0.7259997
0.7046356
0.6796062
0.6499388
0.614249
0.5703933
0.5152886
0.4449377
0.3579557
0.7761763
0.7621392
0.7462088
0.7279708
0.7068779
0.6822549
0.6531677
0.6181983
0.575347
0.5217302
0.4513539
0.3706951
0.7895
0.7771087
0.763157
0.7473289
0.7292146
0.7083266
0.6840057
0.6552649
0.6207591
0.578552
0.5240454
0.4557085
0.3790262
0.8009662
0.7899027
0.7775292
0.7635976
0.7477921
0.7297485
0.7089836
0.6847806
0.656193
0.6218918
0.578557
0.5248069
0.4573705
0.382807
0.3302719
0.4159259
0.3136547
0.4893872
0.4092011
0.3023446
0.5480853
0.4865103
0.4049038
0.2950623
0.5954514
0.5470033
0.4848973
0.4023776
0.2906598
0.6343433
0.5953359
0.5467123
0.4843233
0.4013063
0.2889997
0.6668628
0.6348512
0.5958482
0.5472169
0.4847949
0.4019679
0.2903712
0.694553
0.6678782
0.6359845
0.5971322
0.548699
0.4867393
0.4048675
0.2951187
0.7185685
0.6960792
0.6696122
0.6379855
0.5994862
0.551676
0.4907647
0.4105259
0.3044936
0.7397527
0.7206258
0.6984204
0.6723141
0.6411561
0.6033909
0.5566992
0.4973569
0.4198033
0.3200142
0.7585345
0.7421391
0.7233289
0.7015202
0.6759207
0.6455073
0.6088141
0.5635522
0.5063542
0.4324642
0.3369943
0.774751
0.7605281
0.7443719
0.7258555
0.7044133
0.6793452
0.6496785
0.6139312
0.5699952
0.514773
0.441549
0.3544427
0.7886398
0.776144
0.7620669
0.7460865
0.7277847
0.7066625
0.6820443
0.6529166
0.6178931
0.5749664
0.519348
0.4491202
0.3683099
0.8005792
0.7894715
0.7770456
0.7630512
0.7471694
0.7290322
0.7081509
0.6837999
0.6550201
0.6204621
0.5767557
0.5224549
0.4540895
0.3775438
0.810917
0.8009408
0.7898469
0.7774361
0.7634585
0.7476346
0.7295986
0.7088105
0.6845779
0.655952
0.6204707
0.5773441
0.5236245
0.4563087
0.3820884
0.3513947
0.4258318
0.3298843
0.4939978
0.4156543
0.3128449
0.5501293
0.4891909
0.4086582
0.3011089
0.5961906
0.5479373
0.4861228
0.4040946
0.2934041
0.6343433
0.5953359
0.5467123
0.4843233
0.4013063
0.2889997
0.6663644
0.6342504
0.5951088
0.546282
0.4835663
0.4002425
0.2876047
0.6936317
0.6667865
0.6346686
0.5955124
0.5466499
0.4840449
0.4010793
0.2889739
0.7172075
0.694489
0.667728
0.6357145
0.59669
0.5481379
0.4861134
0.4039795
0.2937273
0.7379234
0.7185142
0.6959535
0.6693906
0.6376309
0.5990499
0.5512088
0.4901405
0.4096436
0.3031232
0.7564052
0.7397065
0.7205203
0.6982372
0.6720266
0.6408108
0.6030327
0.5562406
0.4967476
0.4189495
0.3136948
0.7729549
0.7584959
0.7420519
0.7231795
0.7012896
0.6756491
0.6452346
0.6084785
0.563128
0.5057988
0.4287546
0.3324088
0.7873693
0.774718
0.7604543
0.7442469
0.725665
0.7041926
0.6791287
0.6494195
0.6136149
0.5695989
0.5122756
0.4390786
0.3515402
0.7998072
0.7886111
0.7760801
0.7619597
0.7459249
0.7275997
0.7064841
0.681835
0.6526672
0.6175897
0.5731266
0.5176921
0.4473983
0.3666701
0.8105676
0.8005537
0.7894154
0.776952
0.7629113
0.7470109
0.7288813
0.7079765
0.6835956
0.654777
0.6190269
0.5755252
0.521249
0.4529993
0.3767964
0.8199357
0.8108942
0.8008908
0.789764
0.7773131
0.7633204
0.7475043
0.7294497
0.7086385
0.6843767
0.6547878
0.6195017
0.5764286
0.522832
0.4557757
0.37083
0.4387496
0.3510489
0.5010929
0.4255711
0.3291253
0.5536489
0.493804
0.4151217
0.3116498
0.597809
0.5499819
0.4888056
0.4078565
0.2994792
0.634944
0.5960752
0.5476467
0.4855502
0.4030275
0.2917565
0.6663644
0.6342504
0.5951088
0.546282
0.4835663
0.4002425
0.2876047
0.6932113
0.6662881
0.6340678
0.5947727
0.5457142
0.4828147
0.399351
0.2861987
0.7164192
0.6935678
0.6666362
0.6343984
0.5950692
0.5460869
0.4834164
0.4001855
0.2875646
0.7367447
0.717153
0.694363
0.6675056
0.6353581
0.5962508
0.5476672
0.4854833
0.403085
0.2923217
0.7548041
0.7378766
0.7184071
0.6957673
0.6690979
0.6372787
0.5986834
0.5507377
0.489511
0.4087533
0.2963772
0.7710737
0.7563648
0.7396154
0.7203639
0.6979952
0.6717409
0.6405208
0.6026717
0.5557784
0.4961332
0.4147591
0.3069416
0.7857694
0.7729209
0.7584197
0.7419226
0.7229822
0.7010605
0.6754229
0.644962
0.608143
0.5627039
0.5030967
0.4257002
0.3279502
0.7986674
0.7873399
0.7746529
0.7603449
0.7440818
0.7254758
0.7040096
0.6789133
0.6491617
0.6133001
0.5676798
0.5104621
0.4370708
0.3494063
0.8098709
0.7997814
0.7885542
0.7759854
0.7618181
0.7457643
0.7274466
0.7063069
0.6816271
0.6524193
0.6161231
0.5718499
0.5164178
0.4462212
0.3658315
0.8196187
0.8105446
0.8005034
0.789332
0.7768283
0.7627723
0.7468798
0.7287314
0.7078032
0.6833927
0.6536023
0.618045
0.574593
0.5204377
0.4524505
0.828147
0.819915
0.810849
0.8008164
0.7896544
0.7771908
0.763206
0.7473749
0.7293019
0.7084678
0.6834045
0.6539947
0.6187707
0.5758153
0.5224343
0.3857195
0.4507787
0.3705164
0.5103848
0.4385089
0.3503719
0.5590756
0.5009053
0.42506
0.3280049
0.6005975
0.5535029
0.4934238
0.4143351
0.3100734
0.6362595
0.5976938
0.5496923
0.4882362
0.4067992
0.2978599
0.6668628
0.6348512
0.5958482
0.5472169
0.4847949
0.4019679
0.2903712
0.6932113
0.6662881
0.6340678
0.5947727
0.5457142
0.4828147
0.399351
0.2861987
0.7160595
0.6931473
0.6661379
0.6337975
0.5943293
0.5451505
0.4821852
0.3984548
0.2847817
0.7360624
0.7163649
0.6934418
0.6664137
0.6340416
0.5946291
0.5456152
0.4827845
0.3992865
0.2861431
0.7537731
0.7366978
0.7170458
0.6941763
0.6672118
0.6350041
0.5958824
0.5471934
0.484849
0.402184
0.2854162
0.7696604
0.7547633
0.7377842
0.7182484
0.6955214
0.6688071
0.6369828
0.5983139
0.5502628
0.4888762
0.4043837
0.2892686
0.7840952
0.7710382
0.7562853
0.7394802
0.7201572
0.6977547
0.671501
0.6402285
0.6023078
0.5553124
0.4931193
0.4105283
0.2984414
0.7972333
0.7857392
0.7728537
0.7583067
0.7417518
0.7227861
0.7008696
0.6751968
0.6446895
0.6078076
0.5606409
0.5008843
0.4228275
0.3239682
0.8088427
0.7986412
0.787282
0.7745563
0.7602004
0.7439177
0.7253189
0.7038274
0.6786989
0.6489051
0.6117758
0.5662888
0.5089923
0.4356172
0.3482463
0.8189868
0.8098477
0.7997305
0.78847
0.7758602
0.7616774
0.7456314
0.7272944
0.7061308
0.6814205
0.6512211
0.6151068
0.5708683
0.515548
0.4456218
0.8278581
0.8195979
0.8104993
0.8004287
0.7892218
0.7767053
0.7626572
0.7467495
0.7285826
0.7076312
0.6824125
0.6527993
0.6173016
0.5739663
0.5200296
0.8356542
0.8281282
0.8198741
0.810782
0.8007182
0.7895454
0.7770897
0.7630925
0.7472464
0.7291551
0.7076431
0.6827427
0.6533967
0.6182811
0.5755076
0.3955234
0.4601143
0.3854269
0.5190833
0.4505537
0.3699023
0.5662077
0.5102094
0.4380371
0.3493731
0.6049037
0.5589334
0.500537
0.424305
0.326527
0.6385277
0.6004831
0.5532161
0.4928617
0.4132975
0.308507
0.6679545
0.6361668
0.5974673
0.5492641
0.4874851
0.4057491
0.2964962
0.6936317
0.6667865
0.6346686
0.5955124
0.5466499
0.4840449
0.4010793
0.2889739
0.7160595
0.6931473
0.6661379
0.6337975
0.5943293
0.5451505
0.4821852
0.3984548
0.2847817
0.735751
0.7160052
0.6930214
0.6659154
0.6334407
0.5938889
0.5446784
0.4815526
0.3975539
0.2833534
0.7531765
0.7360155
0.7162577
0.6932552
0.6661199
0.6336873
0.5942605
0.545141
0.4821492
0.398382
0.2791697
0.7687509
0.7537323
0.7366054
0.7168868
0.6939297
0.66692
0.6347073
0.5955116
0.5467166
0.4842104
0.3977697
0.2784742
0.7828384
0.7696245
0.7546827
0.7376472
0.7180387
0.695277
0.6685628
0.6366845
0.5979414
0.549784
0.4857622
0.4000201
0.2806573
0.7957336
0.7840637
0.7709682
0.7561673
0.7393016
0.7199518
0.6975527
0.6712592
0.639934
0.601941
0.5530273
0.4900965
0.4054292
0.2874257
0.8075498
0.7972062
0.7856795
0.7727541
0.7581573
0.7415821
0.7226228
0.7006788
0.6749708
0.6444171
0.6061763
0.5589549
0.4988125
0.420338
0.3212143
0.8180546
0.8088191
0.7985894
0.7871962
0.7744287
0.7600567
0.7437817
0.7251628
0.7036461
0.6784855
0.6476632
0.6106723
0.5651624
0.5079306
0.4348365
0.8272824
0.8189658
0.8098019
0.799655
0.7883585
0.7757358
0.7615608
0.7454993
0.7271433
0.7059558
0.6804221
0.6503915
0.6143258
0.5701987
0.5151053
0.8353899
0.8278392
0.8195568
0.810432
0.8003299
0.7891123
0.7766036
0.762543
0.7466202
0.7284348
0.7068002
0.6817429
0.6521917
0.6168019
0.5736511
0.8425435
0.835637
0.828091
0.8198134
0.8106934
0.8006205
0.7894553
0.7769893
0.7629798
0.7471189
0.7284464
0.7070821
0.6822438
0.6529963
0.6180356
0.4003465
0.4663254
0.3952436
0.5258655
0.4598999
0.384854
0.5729136
0.5189175
0.4501127
0.3689963
0.6105792
0.5660738
0.5098652
0.4373404
0.3480564
0.6420351
0.6047919
0.5586541
0.4999925
0.4233092
0.3250585
0.6698379
0.6384355
0.6002582
0.5527918
0.4921201
0.4122671
0.3071853
0.694553
0.6678782
0.6359845
0.5971322
0.548699
0.4867393
0.4048675
0.2951187
0.7164192
0.6935678
0.6666362
0.6343984
0.5950692
0.5460869
0.4834164
0.4001855
0.2875646
0.735751
0.7160052
0.6930214
0.6659154
0.6334407
0.5938889
0.5446784
0.4815526
0.3975539
0.2833534
0.7529043
0.7357042
0.7158981
0.6928349
0.6656216
0.6330863
0.5935202
0.5442043
0.480917
0.3966482
0.2763514
0.7682246
0.7531357
0.7359232
0.7160988
0.6930087
0.665828
0.6333905
0.59389
0.5446644
0.4815104
0.3939566
0.2723909
0.7820299
0.768715
0.7536517
0.7364683
0.7166767
0.6936848
0.6666753
0.6344086
0.5951386
0.5462367
0.4810831
0.3935461
0.2704327
0.7946085
0.7828065
0.7695537
0.7545633
0.7374662
0.7178303
0.6950718
0.6683167
0.6363839
0.597566
0.5474357
0.4826687
0.3949446
0.27037
0.8061987
0.7957055
0.7840016
0.7708643
0.7560114
0.7391241
0.7197793
0.6973493
0.6710156
0.6396372
0.6001426
0.5507382
0.4864723
0.3990509
0.2723943
0.8168831
0.8075255
0.7971529
0.785591
0.7726223
0.7580089
0.7414407
0.7224596
0.7004882
0.6747448
0.6430925
0.6048444
0.5573775
0.4970242
0.4186594
0.8264335
0.8180333
0.8087725
0.7985125
0.7870826
0.7743018
0.7599376
0.7436463
0.7250074
0.7034658
0.6774528
0.6467648
0.6097791
0.5643495
0.5073612
0.8348633
0.8272633
0.8189243
0.8097338
0.7995552
0.7882478
0.7756329
0.7614451
0.7453682
0.7269932
0.7051105
0.6797314
0.6497543
0.6137932
0.569858
0.8423008
0.8353726
0.8278019
0.8194958
0.8103429
0.8002317
0.7890217
0.7765026
0.7624296
0.7464919
0.7277209
0.7062329
0.6812364
0.6517835
0.6165508
0.8488875
0.8425277
0.835603
0.8280357
0.8197331
0.8106053
0.8005396
0.7893658
0.7768896
0.7628679
0.746503
0.7279645
0.7066593
0.68191
0.6527956
0.4694014
0.4000727
0.5303934
0.4661176
0.3946956
0.5781627
0.5257062
0.4594796
0.3840088
0.6159341
0.5727863
0.5185922
0.4494616
0.3678023
0.6466684
0.6104735
0.565811
0.5093566
0.4364218
0.3467489
0.6727535
0.6419448
0.6045721
0.5582409
0.4992741
0.4223201
0.3238198
0.696143
0.6697618
0.6382541
0.5999255
0.552232
0.4913837
0.4114004
0.3058475
0.7172075
0.694489
0.667728
0.6357145
0.59669
0.5481379
0.4861134
0.4039795
0.2937273
0.7360624
0.7163649
0.6934418
0.6664137
0.6340416
0.5946291
0.5456152
0.4827845
0.3992865
0.2861431
0.7529043
0.7357042
0.7158981
0.6928349
0.6656216
0.6330863
0.5935202
0.5442043
0.480917
0.3966482
0.2763514
0.7679846
0.7528635
0.7356119
0.7157393
0.6925885
0.6653297
0.6327897
0.59315
0.543728
0.4802784
0.3922191
0.2696506
0.7815623
0.7681888
0.7530553
0.7357862
0.7158889
0.6927639
0.6655836
0.6330923
0.5935176
0.5441854
0.4783863
0.3898502
0.2647545
0.7938851
0.7819981
0.7686441
0.7535322
0.7362871
0.716468
0.6934794
0.6664291
0.634108
0.5947632
0.5438868
0.4781032
0.388843
0.2612808
0.8051857
0.7945801
0.7827437
0.7694486
0.7544054
0.7372863
0.7176552
0.6948649
0.6680686
0.6360809
0.5957248
0.5451048
0.4790845
0.3890829
0.2582632
0.8156597
0.8061735
0.79565
0.7839094
0.7707269
0.7558563
0.738975
0.7196056
0.6971442
0.6707702
0.6381819
0.5983416
0.5479964
0.4819625
0.3905944
0.2467996
0.8253672
0.8168612
0.8074775
0.7970737
0.785474
0.7724914
0.7578853
0.7412994
0.7222965
0.7002976
0.6736464
0.6420116
0.6035988
0.5560172
0.4958219
0.8340871
0.8264141
0.8179911
0.8087033
0.7984108
0.7869698
0.7741966
0.7598191
0.7435117
0.7248529
0.7025929
0.6767064
0.646038
0.6091348
0.5639135
0.8418173
0.8348459
0.8272256
0.8188627
0.8096439
0.799456
0.7881561
0.7755306
0.7613301
0.7452379
0.7262677
0.7045259
0.679201
0.64932
0.6135224
0.8486639
0.842285
0.8353385
0.8277464
0.8194152
0.8102544
0.8001504
0.7889317
0.7764023
0.762317
0.7458718
0.7272339
0.7058039
0.6808963
0.6515783
0.8547476
0.848873
0.8424966
0.8355525
0.8279626
0.8196532
0.8105324
0.8004594
0.789277
0.7767906
0.7623276
0.7460844
0.7276015
0.7063764
0.6817426
0.5326411
0.4691968
0.3995364
0.5816774
0.5302381
0.4657102
0.393887
0.6201387
0.5780397
0.5253935
0.4588592
0.3828949
0.651052
0.615833
0.5725362
0.5181115
0.4486034
0.366617
0.6766121
0.6465826
0.6102656
0.5654223
0.5086858
0.4355099
0.3456562
0.6986069
0.6726788
0.6417669
0.6042468
0.5576956
0.4985608
0.4214885
0.3225664
0.7185685
0.6960792
0.6696122
0.6379855
0.5994862
0.551676
0.4907647
0.4105259
0.3044936
0.7367447
0.717153
0.694363
0.6675056
0.6353581
0.5962508
0.5476672
0.4854833
0.403085
0.2923217
0.7531765
0.7360155
0.7162577
0.6932552
0.6661199
0.6336873
0.5942605
0.545141
0.4821492
0.398382
0.2791697
0.7679846
0.7528635
0.7356119
0.7157393
0.6925885
0.6653297
0.6327897
0.59315
0.543728
0.4802784
0.3922191
0.2696506
0.781349
0.7679488
0.7527832
0.7354751
0.7155296
0.6923438
0.6650855
0.6324918
0.5927781
0.5432495
0.4771568
0.3881676
0.2621967
0.7934668
0.7815305
0.7681181
0.752936
0.7356053
0.7156804
0.6925588
0.665338
0.6327927
0.5931435
0.5418429
0.4754972
0.3854005
0.2562673
0.8045347
0.7938568
0.7819353
0.7685391
0.7533743
0.736107
0.716293
0.6932727
0.6661814
0.6338056
0.5929254
0.5416493
0.4747946
0.3836717
0.251054
0.8147429
0.8051603
0.7945241
0.7826505
0.7693096
0.7542484
0.7371352
0.7174788
0.6946564
0.6678185
0.6345952
0.5938975
0.5424059
0.4749611
0.3823862
0.2421412
0.8242541
0.8156369
0.8061236
0.7955676
0.7837874
0.7705903
0.7557261
0.7388248
0.7194305
0.6969376
0.6695666
0.6367247
0.5961851
0.5445902
0.4760161
0.3765101
0.2324755
0.8331124
0.8253472
0.8168178
0.8074063
0.796969
0.7853576
0.7723824
0.7577618
0.7411582
0.7221335
0.6993711
0.6727504
0.6410009
0.6025249
0.5551032
0.8411049
0.8340693
0.8263758
0.8179285
0.8086117
0.7983098
0.7868762
0.774092
0.7597012
0.7433777
0.7241049
0.7019623
0.6761026
0.6455137
0.6087893
0.8482185
0.8418014
0.8348114
0.8271696
0.8187812
0.8095544
0.7993738
0.788065
0.775429
0.7612159
0.7446082
0.7257664
0.7040772
0.6788396
0.6490991
0.854541
0.8486493
0.8422537
0.8352878
0.8276729
0.8193349
0.8101811
0.8000698
0.7888423
0.7763027
0.7617733
0.745449
0.7268657
0.7055159
0.6807253
0.8601765
0.8547343
0.8488443
0.8424502
0.8354857
0.8278899
0.8195872
0.8104601
0.8003798
0.7891888
0.7763127
0.7619605
0.7457692
0.7273586
0.7062347
0.5834255
0.5324877
0.4687955
0.398745
0.6229606
0.5815571
0.5299332
0.4651086
0.3928213
0.6545025
0.6200407
0.5777981
0.5249315
0.4580413
0.3817892
0.680271
0.6509697
0.6156344
0.5721665
0.5174777
0.4477515
0.3656316
0.7018727
0.676541
0.6464139
0.6099582
0.5649096
0.50802
0.4347492
0.3445607
0.7206794
0.6985441
0.6725318
0.6415037
0.6038174
0.5571541
0.4979613
0.4206496
0.3212979
0.7379234
0.7185142
0.6959535
0.6693906
0.6376309
0.5990499
0.5512088
0.4901405
0.4096436
0.3031232
0.7537731
0.7366978
0.7170458
0.6941763
0.6672118
0.6350041
0.5958824
0.5471934
0.484849
0.402184
0.2854162
0.7682246
0.7531357
0.7359232
0.7160988
0.6930087
0.665828
0.6333905
0.59389
0.5446644
0.4815104
0.3939566
0.2723909
0.781349
0.7679488
0.7527832
0.7354751
0.7155296
0.6923438
0.6650855
0.6324918
0.5927781
0.5432495
0.4771568
0.3881676
0.2621967
0.7932761
0.7813173
0.7678782
0.752664
0.7352943
0.7153212
0.692139
0.6648403
0.6321927
0.5924046
0.5409113
0.4743102
0.3838308
0.2539933
0.8041583
0.7934385
0.7814679
0.7680132
0.7527783
0.7354255
0.7155058
0.6923528
0.6650912
0.6324916
0.5913141
0.5396781
0.4723736
0.3806249
0.2469597
0.8141538
0.8045092
0.7938008
0.7818422
0.7684001
0.7532173
0.735956
0.7161169
0.6930648
0.6659322
0.6323254
0.5911756
0.5391657
0.4711668
0.3780726
0.2380076
0.8234205
0.8147198
0.8051099
0.7944408
0.7825272
0.7691714
0.7541166
0.7369829
0.7173011
0.6944463
0.6665925
0.6331207
0.591782
0.5393046
0.4702686
0.3737094
0.2304458
0.8320956
0.8242334
0.8155918
0.8060495
0.7954586
0.7836661
0.7704756
0.755595
0.7386735
0.7192541
0.6959247
0.6683615
0.63498
0.5935082
0.5401095
0.4661676
0.3682065
0.2215987
0.8402107
0.8330942
0.8253078
0.8167534
0.8073121
0.7968649
0.7852607
0.7722734
0.7576383
0.7410171
0.721341
0.6986157
0.6719128
0.6401297
0.6018034
0.8475624
0.8410886
0.8340343
0.8263188
0.8178456
0.8085207
0.798226
0.7867831
0.7739879
0.7595839
0.7427293
0.7235647
0.7014523
0.6756671
0.6452326
0.8541294
0.8482038
0.8417698
0.8347602
0.8270954
0.8187002
0.8094804
0.7992922
0.7879746
0.775328
0.7606642
0.7441733
0.7253816
0.7037715
0.6786558
0.859985
0.8545275
0.8486205
0.8422071
0.8352207
0.8275999
0.8192686
0.8101084
0.7999897
0.7887537
0.7758219
0.7614026
0.7451293
0.7266185
0.7053711
0.8652192
0.8601641
0.8547078
0.8488016
0.8423889
0.8354192
0.8278298
0.8195216
0.8103882
0.8003007
0.7887631
0.7759881
0.7616841
0.7455583
0.7272369
0.6243665
0.5833065
0.5321866
0.4682029
0.3977019
0.6568227
0.6228646
0.5813207
0.5294828
0.4643156
0.3917635
0.6831568
0.6544225
0.6198482
0.577441
0.5243223
0.4572294
0.3808718
0.7049752
0.6802026
0.6508079
0.6153406
0.5716789
0.5168486
0.447044
0.3646491
0.7234809
0.7018128
0.6764012
0.6461642
0.6095525
0.5644006
0.5074648
0.433988
0.3434625
0.7397527
0.7206258
0.6984204
0.6723141
0.6411561
0.6033909
0.5566992
0.4973569
0.4198033
0.3200142
0.7548041
0.7378766
0.7184071
0.6957673
0.6690979
0.6372787
0.5986834
0.5507377
0.489511
0.4087533
0.2963772
0.7687509
0.7537323
0.7366054
0.7168868
0.6939297
0.66692
0.6347073
0.5955116
0.5467166
0.4842104
0.3977697
0.2784742
0.7815623
0.7681888
0.7530553
0.7357862
0.7158889
0.6927639
0.6655836
0.6330923
0.5935176
0.5441854
0.4783863
0.3898502
0.2647545
0.7932761
0.7813173
0.7678782
0.752664
0.7352943
0.7153212
0.692139
0.6648403
0.6321927
0.5924046
0.5409113
0.4743102
0.3838308
0.2539933
0.8039866
0.7932478
0.7812547
0.7677735
0.7525065
0.7351147
0.7151468
0.6919333
0.664594
0.6318923
0.5905798
0.5387803
0.4712688
0.3792228
0.2450587
0.8138133
0.8041329
0.7933826
0.781375
0.7678746
0.7526216
0.7352749
0.7153304
0.6921459
0.6648433
0.6310197
0.5896237
0.5373378
0.4690284
0.3755563
0.2352046
0.822885
0.8141308
0.8044589
0.7937176
0.781719
0.768262
0.7530857
0.7358042
0.7159399
0.6928557
0.6647124
0.6309161
0.5892334
0.5364446
0.4672496
0.3711441
0.2280768
0.8313343
0.8233996
0.8146744
0.8050351
0.7943307
0.7824047
0.7690554
0.7539838
0.7368295
0.717122
0.6934164
0.6653757
0.6314136
0.5893525
0.5357811
0.4642102
0.3668672
0.2205764
0.8392782
0.8320767
0.8241925
0.8155248
0.8059515
0.7953502
0.7835643
0.7703601
0.7554629
0.738521
0.7183892
0.6949105
0.6669188
0.6328155
0.5899922
0.5327116
0.4603941
0.3614886
0.2130674
0.8467391
0.840194
0.8330582
0.8252493
0.8166681
0.8072184
0.7967783
0.7851639
0.7721646
0.757515
0.7403312
0.720695
0.6979095
0.6711908
0.6395444
0.8535233
0.8475474
0.8410566
0.8339823
0.8262435
0.8177632
0.8084452
0.7981426
0.7866905
0.7738843
0.7590163
0.7422613
0.723128
0.7010845
0.6754337
0.8596036
0.8541159
0.8481747
0.8417228
0.8346925
0.8270217
0.8186331
0.8094069
0.7992111
0.7878847
0.7748405
0.7602832
0.7438396
0.7251195
0.7036161
0.8650413
0.8599725
0.8545009
0.8485777
0.8421456
0.8351539
0.8275395
0.8192027
0.8100362
0.7999102
0.7883254
0.7754943
0.7611225
0.7449148
0.7264943
0.8699149
0.8652077
0.8601396
0.8546684
0.8487452
0.8423279
0.8353642
0.8277701
0.8194565
0.810317
0.799919
0.788474
0.7757438
0.7614993
0.7454526
0.6579801
0.6242713
0.5830727
0.5317417
0.4674218
0.3966666
0.6851003
0.6567441
0.6226757
0.5809714
0.5288888
0.4635284
0.3908863
0.7074263
0.6830902
0.6542653
0.6195634
0.57697
0.5237177
0.4565563
0.3799587
0.7261464
0.7049175
0.6800681
0.6505685
0.6149531
0.5711949
0.5163264
0.4463392
0.3636694
0.7421833
0.7234297
0.7016949
0.6761941
0.6458346
0.6091497
0.5639764
0.5069096
0.4332263
0.3423617
0.7564052
0.7397065
0.7205203
0.6982372
0.6720266
0.6408108
0.6030327
0.5562406
0.4967476
0.4189495
0.3136948
0.7696604
0.7547633
0.7377842
0.7182484
0.6955214
0.6688071
0.6369828
0.5983139
0.5502628
0.4888762
0.4043837
0.2892686
0.7820299
0.768715
0.7536517
0.7364683
0.7166767
0.6936848
0.6666753
0.6344086
0.5951386
0.5462367
0.4810831
0.3935461
0.2704327
0.7934668
0.7815305
0.7681181
0.752936
0.7356053
0.7156804
0.6925588
0.665338
0.6327927
0.5931435
0.5418429
0.4754972
0.3854005
0.2562673
0.8039866
0.7932478
0.7812547
0.7677735
0.7525065
0.7351147
0.7151468
0.6919333
0.664594
0.6318923
0.5905798
0.5387803
0.4712688
0.3792228
0.2450587
0.8136581
0.8039613
0.793192
0.7811619
0.767635
0.75235
0.7349644
0.7149718
0.6917269
0.6643468
0.6304248
0.5889169
0.5365036
0.4680432
0.3743679
0.2338106
0.8225756
0.8137904
0.8040827
0.7932997
0.781252
0.7677368
0.7524904
0.7351237
0.7151542
0.6919379
0.6636314
0.6296598
0.5877961
0.5348326
0.465485
0.3693559
0.2262356
0.8308455
0.8228642
0.8140854
0.8043843
0.7936076
0.7815965
0.7681462
0.7529533
0.7356514
0.7157617
0.6918322
0.6635512
0.6293518
0.5871063
0.5335094
0.4624138
0.3652754
0.2192013
0.8385804
0.8313153
0.8233583
0.8146068
0.8049362
0.7942212
0.7823017
0.7689385
0.7538499
0.7366748
0.7162438
0.6923941
0.663967
0.629454
0.5865951
0.5312407
0.4594463
0.3606949
0.2124686
0.8458811
0.8392609
0.8320394
0.8241317
0.8154362
0.805854
0.7952592
0.7834617
0.7702437
0.7553297
0.7377736
0.7175233
0.6936963
0.6651297
0.6299756
0.5841996
0.5283971
0.4557278
0.3559178
0.2063424
0.8527631
0.8467238
0.8401611
0.8330048
0.8251718
0.8165834
0.8071404
0.7966916
0.7850671
0.7720558
0.7569153
0.7397722
0.7200911
0.6973008
0.6707057
0.8590421
0.8535095
0.8475179
0.8410089
0.8339135
0.8261685
0.8176949
0.8083702
0.7980597
0.7865984
0.7733832
0.7586067
0.7418829
0.7228131
0.7008874
0.8646869
0.8595911
0.854089
0.8481315
0.8416607
0.8346251
0.8269607
0.8185665
0.8093338
0.7991307
0.7874507
0.7745039
0.7599909
0.7436122
0.7249862
0.8697491
0.8650297
0.8599479
0.8544614
0.848521
0.8420843
0.8350987
0.8274795
0.8191373
0.8099646
0.7995264
0.7880337
0.7752467
0.7609344
0.744807
0.8742972
0.8699042
0.865185
0.8601031
0.8546162
0.848689
0.8422775
0.8353097
0.8277108
0.8193919
0.8099728
0.7996599
0.7882564
0.7755803
0.7614066
0.6860707
0.6579022
0.6240843
0.5827271
0.531155
0.4666465
0.3958081
0.709079
0.6850348
0.6565896
0.6223964
0.5805105
0.5282993
0.4628761
0.3900137
0.7282552
0.70737
0.6829592
0.6540325
0.6191876
0.5765024
0.5232165
0.4558867
0.3790501
0.744499
0.726097
0.7048039
0.6798691
0.6502525
0.6145683
0.5707932
0.5158064
0.4456371
0.3626926
0.7585345
0.7421391
0.7233289
0.7015202
0.6759207
0.6455073
0.6088141
0.5635522
0.5063542
0.4324642
0.3369943
0.7710737
0.7563648
0.7396154
0.7203639
0.6979952
0.6717409
0.6405208
0.6026717
0.5557784
0.4961332
0.4147591
0.3069416
0.7828384
0.7696245
0.7546827
0.7376472
0.7180387
0.695277
0.6685628
0.6366845
0.5979414
0.549784
0.4857622
0.4000201
0.2806573
0.7938851
0.7819981
0.7686441
0.7535322
0.7362871
0.716468
0.6934794
0.6664291
0.634108
0.5947632
0.5438868
0.4781032
0.388843
0.2612808
0.8041583
0.7934385
0.7814679
0.7680132
0.7527783
0.7354255
0.7155058
0.6923528
0.6650912
0.6324916
0.5913141
0.5396781
0.4723736
0.3806249
0.2469597
0.8136581
0.8039613
0.793192
0.7811619
0.767635
0.75235
0.7349644
0.7149718
0.6917269
0.6643468
0.6304248
0.5889169
0.5365036
0.4680432
0.3743679
0.2338106
0.8224345
0.8136352
0.8039112
0.7931092
0.7810392
0.7674973
0.752219
0.7348135
0.714796
0.6915196
0.663139
0.6290877
0.5871402
0.5340898
0.4646502
0.3684509
0.2252592
0.830563
0.8225548
0.8137451
0.8040082
0.79319
0.7811299
0.7676214
0.7523586
0.7349718
0.7149772
0.6909217
0.6625118
0.6281893
0.5858402
0.5321808
0.4611579
0.3640137
0.2180307
0.8381324
0.8308265
0.822823
0.814018
0.8042855
0.7934983
0.7814938
0.7680298
0.7528202
0.7354978
0.7148899
0.6908577
0.6622621
0.6276388
0.5848131
0.5298904
0.458319
0.359638
0.2116184
0.8452392
0.838563
0.8312776
0.823297
0.8145174
0.8048378
0.7941293
0.782198
0.7688207
0.7537151
0.7359169
0.7153722
0.6912105
0.6623504
0.6272316
0.5830469
0.527681
0.4551517
0.355347
0.2059362
0.851971
0.8458652
0.8392268
0.8319839
0.8240512
0.8153481
0.8057722
0.7951675
0.7833584
0.7701264
0.7546772
0.7370253
0.7164866
0.6921912
0.6627843
0.6253047
0.5808337
0.524919
0.4518614
0.3513341
0.2011167
0.858338
0.852749
0.8466936
0.8401121
0.8329341
0.8250948
0.8165128
0.8070625
0.7966051
0.7849705
0.7715269
0.7564267
0.7392497
0.7195707
0.6968919
0.8641653
0.8590293
0.8534823
0.8474741
0.8409458
0.8338451
0.8261064
0.8176269
0.8082955
0.7979773