/*--------------------------------*- C++ -*----------------------------------*\
| =========                 |                                                 |
| \\      /  F ield         | OpenFOAM: The Open Source CFD Toolbox           |
|  \\    /   O peration     | Version:  2306                                  |
|   \\  /    A nd           | Website:  www.openfoam.com                      |
|    \\/     M anipulation  |                                                 |
\*---------------------------------------------------------------------------*/
FoamFile
{
    version     2.0;
    format      ascii;
    arch        "LSB;label=32;scalar=64";
    class       volScalarField;
    location    "0.9/fuel";
    object      iDmdtfuel.H2O;
}
// * * * * * * * * * * * * * * * * * * * * * * * * * * * * * * * * * * * * * //

dimensions      [1 -3 -1 0 0 0 0];

internalField   nonuniform List<scalar> 
16000
(
89.72794
90.46961
81.9258
85.84765
91.9642
82.39836
86.53565
75.22409
78.5876
83.10687
94.21678
83.32533
87.92109
75.58159
79.02822
83.7591
69.81721
72.32597
76.21044
81.42053
97.14747
84.65915
90.00725
76.27424
79.89204
85.07225
70.10861
72.66076
76.62926
82.05294
65.31097
67.25697
70.24993
74.72783
80.69184
100.3036
86.2747
92.71852
77.24981
81.13423
87.04927
70.66904
73.30909
77.45014
83.32652
65.55797
67.53083
70.56899
75.13394
81.31822
61.43431
63.02017
65.41535
68.94303
74.06419
0
102.6717
87.84627
95.63459
78.39015
82.63771
89.61918
71.4481
74.22176
78.63036
85.2453
66.03066
68.05726
71.18669
75.92995
82.5806
61.64873
63.253
65.67695
69.25265
74.46551
0
58.02994
59.36603
61.36725
64.24892
68.34561
0
0
104.1529
88.90003
97.81405
79.43808
84.09893
92.3843
72.33838
75.28789
80.05875
87.74312
66.6819
68.78871
72.05604
77.07473
84.48522
62.05763
63.69836
66.17966
69.85205
75.25239
0
58.21931
59.56868
61.59011
64.50304
68.65133
0
0
54.99223
56.14966
57.87001
60.31583
63.70923
0
0
0
104.9846
89.4797
99.1723
80.08358
85.0758
94.44513
73.12628
76.26675
81.44685
90.4364
67.41439
69.62404
73.07135
78.46111
86.97112
62.61728
64.31164
66.87795
70.69572
76.38479
0
58.57952
59.95495
62.01626
64.99133
69.24326
0
0
55.1616
56.32906
58.06434
60.53255
63.96011
0
0
0
52.25087
53.2736
54.78691
56.91535
59.82567
0
0
0
0
105.3549
89.76882
99.93293
80.3928
85.6117
95.72656
73.58258
76.86807
82.37229
92.44046
68.04528
70.36254
74.00317
79.80951
89.66145
63.23926
65.00094
67.67515
71.68131
77.75795
0
59.07001
60.48337
62.60292
65.66959
70.07671
0
0
55.48314
56.67014
58.43464
60.94691
64.44222
0
0
0
52.40385
53.43439
54.95923
57.10452
60.03967
0
0
0
0
49.75426
50.67297
52.0259
53.91511
56.46806
0
0
0
0
0
105.3549
89.88677
100.271
80.51989
85.87844
96.44319
73.77564
77.1553
82.87896
93.68567
68.39386
70.78901
74.57386
80.70626
91.66259
63.7639
65.59391
68.37942
72.58596
79.09559
0
59.61003
61.07018
63.26202
66.44393
71.05104
0
0
55.91919
57.13434
58.94104
61.51728
65.11203
0
0
0
52.69386
53.73951
55.28675
57.46493
60.44884
0
0
0
0
49.89353
50.81849
52.18059
54.08303
56.65492
0
0
0
0
0
47.46427
48.30016
49.5258
51.22612
53.50525
0
0
0
0
0
0
104.9846
89.88677
100.271
80.56194
85.9871
96.76145
73.83735
77.27299
83.1309
94.38214
68.5257
70.96877
74.84569
81.19663
92.90697
64.04296
65.92052
68.78474
73.13822
79.9833
0
60.058
61.56446
63.82842
67.12777
71.94583
0
0
56.39557
57.64499
59.5031
62.158
65.87701
0
0
0
53.08582
54.15307
55.73235
57.95775
61.01213
0
0
0
0
50.15726
51.09424
52.47404
54.40212
57.01092
0
0
0
0
0
47.59187
48.43287
49.666
51.37699
53.67116
0
0
0
0
0
0
45.35124
46.11993
47.24167
48.78926
50.8492
0
0
0
0
0
0
0
104.1529
89.76882
99.93293
80.56194
85.9871
96.76145
73.84999
77.31181
83.23351
94.69158
68.55555
71.02584
74.9568
81.44056
93.60412
64.13798
66.0434
68.95485
73.4006
80.46853
0
60.28883
61.82646
64.1392
67.51978
72.49022
0
0
56.78535
58.06793
59.97596
62.70822
66.55249
0
0
0
53.51129
54.60448
56.22224
58.50462
61.64501
0
0
0
0
50.51268
51.4667
52.87163
54.83618
57.49773
0
0
0
0
0
47.83334
48.68409
49.93157
51.66315
53.98646
0
0
0
0
0
0
45.4688
46.24173
47.3697
48.92612
50.99833
0
0
0
0
0
0
0
43.39179
44.10488
45.14027
46.56115
48.44155
0
0
0
0
0
0
0
0
102.6717
89.4797
99.1723
80.51989
85.87844
96.44319
73.84999
77.31181
83.23351
94.69158
68.55469
71.03734
74.99337
81.54001
93.91433
64.1502
66.07074
69.00847
73.50769
80.71031
0
60.35987
61.91501
64.25539
67.68356
72.74823
0
0
56.98074
58.28503
60.22553
63.00876
66.93803
0
0
0
53.85539
54.9732
56.62743
58.96424
62.18822
0
0
0
0
50.89637
51.87065
53.30534
55.31325
58.03798
0
0
0
0
0
48.15797
49.02245
50.29018
52.0508
54.41537
0
0
0
0
0
0
45.69115
46.47213
47.61197
49.18533
51.28119
0
0
0
0
0
0
0
43.50059
44.21727
45.25792
46.68623
48.57688
0
0
0
0
0
0
0
0
41.56725
42.23339
43.19575
44.50972
46.2395
0
0
0
0
0
0
0
0
0
100.3036
88.90003
97.81405
80.3928
85.6117
95.72656
73.83735
77.27299
83.1309
94.38214
68.55469
71.03734
74.99337
81.54001
93.91433
64.14243
66.0696
69.01909
73.54292
80.8091
0
60.3616
61.92584
64.28076
67.73483
72.85347
0
0
57.03516
58.35118
60.30915
63.12036
67.09831
0
0
0
54.02375
55.15725
56.83444
59.20563
62.48343
0
0
0
0
51.20361
52.19674
53.65906
55.70737
58.49168
0
0
0
0
0
48.50676
49.38738
50.67882
52.47353
54.88678
0
0
0
0
0
0
45.98943
46.7817
47.93817
49.53527
51.66438
0
0
0
0
0
0
0
43.70632
44.42976
45.48039
46.92289
48.83319
0
0
0
0
0
0
0
0
41.66834
42.33756
43.30443
44.62475
46.36323
0
0
0
0
0
0
0
0
0
39.86228
40.48819
41.38769
42.61003
44.21144
0
0
0
0
0
0
0
0
0
0
97.14747
87.84627
95.63459
80.08358
85.0758
94.44513
73.77564
77.1553
82.87896
93.68567
68.55555
71.02584
74.9568
81.44056
93.60412
64.14243
66.0696
69.01909
73.54292
80.8091
0
60.35007
61.91817
64.27932
67.74482
72.88812
0
0
57.03026
58.35214
60.31879
63.14423
67.14815
0
0
0
54.06618
55.20785
56.89681
59.28576
62.59221
0
0
0
0
51.35071
52.35556
53.83473
55.90765
58.72863
0
0
0
0
0
48.78366
49.67903
50.99204
52.81784
55.27584
0
0
0
0
0
0
46.30857
47.11398
48.28973
49.91438
52.08222
0
0
0
0
0
0
0
43.98178
44.71466
45.7792
47.24148
49.17923
0
0
0
0
0
0
0
0
41.85946
42.53446
43.50986
44.84224
46.59734
0
0
0
0
0
0
0
0
0
39.95654
40.58511
41.48854
42.71638
44.32528
0
0
0
0
0
0
0
0
0
0
38.26429
38.85508
39.6998
40.8424
42.33283
0
0
0
0
0
0
0
0
0
0
94.21678
86.2747
92.71852
79.43808
84.09893
92.3843
73.58258
76.86807
82.37229
92.44046
68.5257
70.96877
74.84569
81.19663
92.90697
64.1502
66.07074
69.00847
73.50769
80.71031
0
60.35007
61.91817
64.27932
67.74482
72.88812
0
0
57.01662
58.34091
60.31111
63.14249
67.15769
0
0
0
54.05697
55.20255
56.89703
59.29439
62.61497
0
0
0
0
51.38419
52.39493
53.88233
55.96726
58.80647
0
0
0
0
0
48.91366
49.81798
51.14378
52.98787
55.47239
0
0
0
0
0
0
46.56002
47.37725
48.57022
50.2195
52.42218
0
0
0
0
0
0
0
44.27544
45.01918
46.09971
47.5847
49.55409
0
0
0
0
0
0
0
0
42.11498
42.79795
43.78517
45.13431
46.91249
0
0
0
0
0
0
0
0
0
40.13477
40.76828
41.67909
42.91735
44.5405
0
0
0
0
0
0
0
0
0
0
38.35247
38.94558
39.79373
40.94115
42.4381
0
0
0
0
0
0
0
0
0
0
36.76254
37.32242
38.1187
39.19113
40.58427
0
0
0
0
0
0
0
0
0
0
91.9642
84.65915
90.00725
78.39015
82.63771
89.61918
73.12628
76.26675
81.44685
90.4364
68.39386
70.78901
74.57386
80.70626
91.66259
64.13798
66.0434
68.95485
73.4006
80.46853
0
60.3616
61.92584
64.28076
67.73483
72.85347
0
0
57.01662
58.34091
60.31111
63.14249
67.15769
0
0
0
54.04218
55.18931
56.88593
59.28659
62.61291
0
0
0
0
51.37212
52.38555
53.87658
55.96679
58.81423
0
0
0
0
0
48.94031
49.84895
51.18071
53.03324
55.53011
0
0
0
0
0
0
46.67598
47.50021
48.7031
50.36644
52.58903
0
0
0
0
0
0
0
44.50531
45.2586
46.3532
47.85813
49.85544
0
0
0
0
0
0
0
0
42.38655
43.07856
44.07924
45.44745
47.25198
0
0
0
0
0
0
0
0
0
40.37275
41.01304
41.93401
43.18665
44.82952
0
0
0
0
0
0
0
0
0
0
38.51924
39.11662
39.97119
41.12771
42.63705
0
0
0
0
0
0
0
0
0
0
36.84527
37.40718
38.20648
39.28316
40.68205
0
0
0
0
0
0
0
0
0
0
35.34799
35.88024
36.63337
37.6433
38.95032
0
0
0
0
0
0
0
0
0
0
90.46961
83.32533
87.92109
77.24981
81.13423
87.04927
72.33838
75.28789
80.05875
87.74312
68.04528
70.36254
74.00317
79.80951
89.66145
64.04296
65.92052
68.78474
73.13822
79.9833
0
60.35987
61.91501
64.25539
67.68356
72.74823
0
0
57.03026
58.35214
60.31879
63.14423
67.14815
0
0
0
54.04218
55.18931
56.88593
59.28659
62.61291
0
0
0
0
51.35675
52.3712
53.86355
55.95567
58.8062
0
0
0
0
0
48.92635
49.83688
51.17107
53.027
55.52895
0
0
0
0
0
0
46.69733
47.52478
48.73206
50.40153
52.63281
0
0
0
0
0
0
0
44.60969
45.36841
46.47089
47.98687
49.99964
0
0
0
0
0
0
0
0
42.59795
43.29776
44.31001
45.69474
47.52211
0
0
0
0
0
0
0
0
0
40.62499
41.2729
42.20528
43.47417
45.13937
0
0
0
0
0
0
0
0
0
0
38.74166
39.34488
40.20822
41.37723
42.90363
0
0
0
0
0
0
0
0
0
0
37.00179
37.56743
38.37235
39.45701
40.86679
0
0
0
0
0
0
0
0
0
0
35.4258
35.95986
36.71566
37.72936
39.04148
0
0
0
0
0
0
0
0
0
0
34.01276
34.52018
35.23442
36.18831
37.41827
0
0
0
0
0
0
0
0
0
0
89.72794
82.39836
86.53565
76.27424
79.89204
85.07225
71.4481
74.22176
78.63036
85.2453
67.41439
69.62404
73.07135
78.46111
86.97112
63.7639
65.59391
68.37942
72.58596
79.09559
0
60.28883
61.82646
64.1392
67.51978
72.49022
0
0
57.03516
58.35118
60.30915
63.12036
67.09831
0
0
0
54.05697
55.20255
56.89703
59.29439
62.61497
0
0
0
0
51.35675
52.3712
53.86355
55.95567
58.8062
0
0
0
0
0
48.91075
49.82195
51.15697
53.014
55.51766
0
0
0
0
0
0
46.68215
47.5109
48.71984
50.39154
52.62602
0
0
0
0
0
0
0
44.62692
45.38801
46.49377
48.01429
50.03338
0
0
0
0
0
0
0
0
42.6926
43.39671
44.41522
45.80883
47.64846
0
0
0
0
0
0
0
0
0
40.8204
41.47476
42.41679
43.69946
45.38375
0
0
0
0
0
0
0
0
0
0
38.97684
39.58656
40.4597
41.64265
43.18822
0
0
0
0
0
0
0
0
0
0
37.21031
37.78102
38.59363
39.68918
41.11387
0
0
0
0
0
0
0
0
0
0
35.57307
36.11043
36.87121
37.89197
39.21368
0
0
0
0
0
0
0
0
0
0
34.0861
34.59514
35.31178
36.26904
37.50354
0
0
0
0
0
0
0
0
0
0
32.75008
33.2349
33.91392
34.81711
35.97771
0
0
0
0
0
0
0
0
0
0
81.9258
85.84765
75.58159
79.02822
83.7591
70.66904
73.30909
77.45014
83.32652
66.6819
68.78871
72.05604
77.07473
84.48522
63.23926
65.00094
67.67515
71.68131
77.75795
0
60.058
61.56446
63.82842
67.12777
71.94583
0
0
56.98074
58.28503
60.22553
63.00876
66.93803
0
0
0
54.06618
55.20785
56.89681
59.28576
62.59221
0
0
0
0
51.37212
52.38555
53.87658
55.96679
58.81423
0
0
0
0
0
48.91075
49.82195
51.15697
53.014
55.51766
0
0
0
0
0
0
46.66657
47.49575
48.70518
50.3775
52.6129
0
0
0
0
0
0
0
44.61103
45.37298
46.47984
48.00181
50.02294
0
0
0
0
0
0
0
0
42.70661
43.41245
44.43338
45.8304
47.67473
0
0
0
0
0
0
0
0
0
40.90681
41.5646
42.51167
43.8015
45.49575
0
0
0
0
0
0
0
0
0
0
39.15826
39.77338
40.65467
41.84927
43.41094
0
0
0
0
0
0
0
0
0
0
0
37.43033
38.00664
38.82774
39.9354
41.37668
0
0
0
0
0
0
0
0
0
0
35.76908
36.31092
37.07847
38.10884
39.44366
0
0
0
0
0
0
0
0
0
0
34.22498
34.73697
35.45806
36.42162
37.66466
0
0
0
0
0
0
0
0
0
0
32.81935
33.30562
33.98682
34.89304
36.05772
0
0
0
0
0
0
0
0
0
0
31.55409
32.01812
32.66497
33.52205
34.61971
0
0
0
0
0
0
0
0
0
0
75.22409
78.5876
83.10687
70.10861
72.66076
76.62926
82.05294
66.03066
68.05726
71.18669
75.92995
82.5806
62.61728
64.31164
66.87795
70.69572
76.38479
0
59.61003
61.07018
63.26202
66.44393
71.05104
0
0
56.78535
58.06793
59.97596
62.70822
66.55249
0
0
0
54.02375
55.15725
56.83444
59.20563
62.48343
0
0
0
0
51.38419
52.39493
53.88233
55.96726
58.80647
0
0
0
0
0
48.92635
49.83688
51.17107
53.027
55.52895
0
0
0
0
0
0
46.66657
47.49575
48.70518
50.3775
52.6129
0
0
0
0
0
0
0
44.59565
45.35783
46.46495
47.98725
50.00882
0
0
0
0
0
0
0
0
42.69036
43.39675
44.41835
45.81628
47.66189
0
0
0
0
0
0
0
0
0
40.91826
41.57732
42.52618
43.81853
45.51633
0
0
0
0
0
0
0
0
0
0
39.23762
39.8555
40.7409
41.94135
43.51114
0
0
0
0
0
0
0
0
0
0
0
37.59941
38.18031
39.00837
40.126
41.58101
0
0
0
0
0
0
0
0
0
0
0
0
35.9755
36.52225
37.29723
38.3382
39.68753
0
0
0
0
0
0
0
0
0
0
34.40968
34.92565
35.65278
36.62487
37.87955
0
0
0
0
0
0
0
0
0
0
32.9506
33.43952
34.12473
35.03661
36.20894
0
0
0
0
0
0
0
0
0
0
31.61963
32.08499
32.73381
33.59364
34.69499
0
0
0
0
0
0
0
0
0
0
30.41922
30.86441
31.48161
32.29647
33.33679
0
0
0
0
0
0
0
0
0
0
69.81721
72.32597
76.21044
81.42053
65.55797
67.53083
70.56899
75.13394
81.31822
62.05763
63.69836
66.17966
69.85205
75.25239
0
59.07001
60.48337
62.60292
65.66959
70.07671
0
0
56.39557
57.64499
59.5031
62.158
65.87701
0
0
0
53.85539
54.9732
56.62743
58.96424
62.18822
0
0
0
0
51.35071
52.35556
53.83473
55.90765
58.72863
0
0
0
0
0
48.94031
49.84895
51.18071
53.03324
55.53011
0
0
0
0
0
0
46.68215
47.5109
48.71984
50.39154
52.62602
0
0
0
0
0
0
0
44.59565
45.35783
46.46495
47.98725
50.00882
0
0
0
0
0
0
0
0
42.67528
43.38178
44.40347
45.8015
47.64726
0
0
0
0
0
0
0
0
0
40.90191
41.56128
42.51051
43.80337
45.5019
0
0
0
0
0
0
0
0
0
0
39.24703
39.86583
40.75254
41.95487
43.5273
0
0
0
0
0
0
0
0
0
0
0
37.67262
38.25581
39.08724
40.20972
41.67145
0
0
0
0
0
0
0
0
0
0
0
0
36.13361
36.68429
37.46529
38.51489
39.87608
0
0
0
0
0
0
0
0
0
0
0
0
0
34.60385
35.12413
35.85786
36.83932
38.1068
0
0
0
0
0
0
0
0
0
0
33.12504
33.6175
34.30813
35.22768
36.4104
0
0
0
0
0
0
0
0
0
0
31.74389
32.21166
32.86411
33.72907
34.83733
0
0
0
0
0
0
0
0
0
0
30.4813
30.92773
31.54674
32.36411
33.40778
0
0
0
0
0
0
0
0
0
0
29.34095
29.76855
30.3587
31.13464
32.12236
0
0
0
0
0
0
0
0
0
0
65.31097
67.25697
70.24993
74.72783
80.69184
61.64873
63.253
65.67695
69.25265
74.46551
0
58.57952
59.95495
62.01626
64.99133
69.24326
0
0
55.91919
57.13434
58.94104
61.51728
65.11203
0
0
0
53.51129
54.60448
56.22224
58.50462
61.64501
0
0
0
0
51.20361
52.19674
53.65906
55.70737
58.49168
0
0
0
0
0
48.91366
49.81798
51.14378
52.98787
55.47239
0
0
0
0
0
0
46.69733
47.52478
48.73206
50.40153
52.63281
0
0
0
0
0
0
0
44.61103
45.37298
46.47984
48.00181
50.02294
0
0
0
0
0
0
0
0
42.67528
43.38178
44.40347
45.8015
47.64726
0
0
0
0
0
0
0
0
0
40.88722
41.54659
42.4958
43.7886
45.48707
0
0
0
0
0
0
0
0
0
0
39.23075
39.84969
40.73656
41.93911
43.51187
0
0
0
0
0
0
0
0
0
0
0
37.68035
38.26422
39.09663
40.2205
41.68421
0
0
0
0
0
0
0
0
0
0
0
0
36.20151
36.75402
37.53787
38.59152
39.95833
0
0
0
0
0
0
0
0
0
0
0
0
0
34.75221
35.27584
36.01482
37.00382
38.28164
0
0
0
0
0
0
0
0
0
0
0
0
0
0
33.30818
33.80441
34.50091
35.42884
36.62293
0
0
0
0
0
0
0
0
0
0
31.90895
32.37993
33.03724
33.90913
35.02675
0
0
0
0
0
0
0
0
0
0
30.59914
31.04778
31.6701
32.49213
33.54207
0
0
0
0
0
0
0
0
0
0
29.39991
29.82859
30.42042
31.19867
32.18945
0
0
0
0
0
0
0
0
0
0
28.31543
28.72635
29.29129
30.03159
30.97082
0
0
0
0
0
0
0
0
0
0
61.43431
63.02017
65.41535
68.94303
74.06419
0
58.21931
59.56868
61.59011
64.50304
68.65133
0
0
55.48314
56.67014
58.43464
60.94691
64.44222
0
0
0
53.08582
54.15307
55.73235
57.95775
61.01213
0
0
0
0
50.89637
51.87065
53.30534
55.31325
58.03798
0
0
0
0
0
48.78366
49.67903
50.99204
52.81784
55.27584
0
0
0
0
0
0
46.67598
47.50021
48.7031
50.36644
52.58903
0
0
0
0
0
0
0
44.62692
45.38801
46.49377
48.01429
50.03338
0
0
0
0
0
0
0
0
42.69036
43.39675
44.41835
45.81628
47.66189
0
0
0
0
0
0
0
0
0
40.88722
41.54659
42.4958
43.7886
45.48707
0
0
0
0
0
0
0
0
0
0
39.21647
39.83537
40.72212
41.92451
43.49707
0
0
0
0
0
0
0
0
0
0
0
37.66426
38.24816
39.08057
40.20445
41.66822
0
0
0
0
0
0
0
0
0
0
0
0
36.20794
36.76087
37.54545
38.60014
39.96844
0
0
0
0
0
0
0
0
0
0
0
0
0
34.81548
35.34056
36.0819
37.07437
38.35695
0
0
0
0
0
0
0
0
0
0
0
0
0
0
33.4478
33.94692
34.64798
35.58256
36.78576
0
0
0
0
0
0
0
0
0
0
0
0
0
0
0
32.08202
32.5564
33.21893
34.09833
35.22617
0
0
0
0
0
0
0
0
0
0
30.75562
31.20715
31.83391
32.6622
33.72063
0
0
0
0
0
0
0
0
0
0
29.51193
29.94253
30.53741
31.31993
32.31643
0
0
0
0
0
0
0
0
0
0
28.37152
28.78342
29.34985
30.0923
31.03434
0
0
0
0
0
0
0
0
0
0
27.33955
27.73422
28.2754
28.98254
29.87727
0
0
0
0
0
0
0
0
0
0
58.02994
59.36603
61.36725
64.24892
68.34561
0
0
55.1616
56.32906
58.06434
60.53255
63.96011
0
0
0
52.69386
53.73951
55.28675
57.46493
60.44884
0
0
0
0
50.51268
51.4667
52.87163
54.83618
57.49773
0
0
0
0
0
48.50676
49.38738
50.67882
52.47353
54.88678
0
0
0
0
0
0
46.56002
47.37725
48.57022
50.2195
52.42218
0
0
0
0
0
0
0
44.60969
45.36841
46.47089
47.98687
49.99964
0
0
0
0
0
0
0
0
42.70661
43.41245
44.43338
45.8304
47.67473
0
0
0
0
0
0
0
0
0
40.90191
41.56128
42.51051
43.80337
45.5019
0
0
0
0
0
0
0
0
0
0
39.21647
39.83537
40.72212
41.92451
43.49707
0
0
0
0
0
0
0
0
0
0
0
37.65042
38.23423
39.06648
40.19012
41.65359
0
0
0
0
0
0
0
0
0
0
0
0
36.19216
36.74498
37.52947
38.58403
39.95219
0
0
0
0
0
0
0
0
0
0
0
0
0
34.82088
35.34621
36.08801
37.08128
38.36496
0
0
0
0
0
0
0
0
0
0
0
0
0
0
33.50696
34.0073
34.71031
35.64781
36.85512
0
0
0
0
0
0
0
0
0
0
0
0
0
0
0
32.21371
32.69065
33.35719
34.24245
35.37838
0
0
0
0
0
0
0
0
0
0
0
0
0
0
0
0
30.91954
31.37408
32.00559
32.84061
33.90824
0
0
0
0
0
0
0
0
0
0
29.66063
30.09375
30.69268
31.48092
32.48513
0
0
0
0
0
0
0
0
0
0
28.47818
28.89182
29.46096
30.20735
31.15464
0
0
0
0
0
0
0
0
0
0
27.39299
27.78855
28.3311
29.04016
29.9375
0
0
0
0
0
0
0
0
0
0
26.40971
26.7893
27.30766
27.98366
28.837
0
0
0
0
0
0
0
0
0
0
54.99223
56.14966
57.87001
60.31583
63.70923
0
0
0
52.40385
53.43439
54.95923
57.10452
60.03967
0
0
0
0
50.15726
51.09424
52.47404
54.40212
57.01092
0
0
0
0
0
48.15797
49.02245
50.29018
52.0508
54.41537
0
0
0
0
0
0
46.30857
47.11398
48.28973
49.91438
52.08222
0
0
0
0
0
0
0
44.50531
45.2586
46.3532
47.85813
49.85544
0
0
0
0
0
0
0
0
42.6926
43.39671
44.41522
45.80883
47.64846
0
0
0
0
0
0
0
0
0
40.91826
41.57732
42.52618
43.81853
45.51633
0
0
0
0
0
0
0
0
0
0
39.23075
39.84969
40.73656
41.93911
43.51187
0
0
0
0
0
0
0
0
0
0
0
37.65042
38.23423
39.06648
40.19012
41.65359
0
0
0
0
0
0
0
0
0
0
0
0
36.17881
36.73148
37.51576
38.57004
39.93784
0
0
0
0
0
0
0
0
0
0
0
0
0
34.80549
35.33064
36.07222
37.06526
38.34868
0
0
0
0
0
0
0
0
0
0
0
0
0
0
33.51151
34.01199
34.71529
35.6533
36.86147
0
0
0
0
0
0
0
0
0
0
0
0
0
0
0
32.26921
32.74716
33.41538
34.3031
35.44254
0
0
0
0
0
0
0
0
0
0
0
0
0
0
0
0
31.04411
31.50082
32.13594
32.97617
34.05099
0
0
0
0
0
0
0
0
0
0
0
0
0
0
0
0
0
29.81628
30.25201
30.85518
31.64958
32.66208
0
0
0
0
0
0
0
0
0
0
28.61974
29.03566
29.60839
30.36002
31.31437
0
0
0
0
0
0
0
0
0
0
27.49471
27.89186
28.43689
29.14949
30.05168
0
0
0
0
0
0
0
0
0
0
26.46067
26.8411
27.36072
28.03849
28.89419
0
0
0
0
0
0
0
0
0
0
25.52295
25.88818
26.38536
27.03167
27.84626
0
0
0
0
0
0
0
0
0
0
52.25087
53.2736
54.78691
56.91535
59.82567
0
0
0
0
49.89353
50.81849
52.18059
54.08303
56.65492
0
0
0
0
0
47.83334
48.68409
49.93157
51.66315
53.98646
0
0
0
0
0
0
45.98943
46.7817
47.93817
49.53527
51.66438
0
0
0
0
0
0
0
44.27544
45.01918
46.09971
47.5847
49.55409
0
0
0
0
0
0
0
0
42.59795
43.29776
44.31001
45.69474
47.52211
0
0
0
0
0
0
0
0
0
40.90681
41.5646
42.51167
43.8015
45.49575
0
0
0
0
0
0
0
0
0
0
39.24703
39.86583
40.75254
41.95487
43.5273
0
0
0
0
0
0
0
0
0
0
0
37.66426
38.24816
39.08057
40.20445
41.66822
0
0
0
0
0
0
0
0
0
0
0
0
36.17881
36.73148
37.51576
38.57004
39.93784
0
0
0
0
0
0
0
0
0
0
0
0
0
34.79263
35.31759
36.05892
37.05165
38.33468
0
0
0
0
0
0
0
0
0
0
0
0
0
0
33.49654
33.9968
34.69981
35.63748
36.84531
0
0
0
0
0
0
0
0
0
0
0
0
0
0
0
32.27307
32.75106
33.41947
34.30752
35.44754
0
0
0
0
0
0
0
0
0
0
0
0
0
0
0
0
31.09643
31.5539
32.19045
33.03283
34.11065
0
0
0
0
0
0
0
0
0
0
0
0
0
0
0
0
0
29.93445
30.37203
30.97835
31.77746
32.79639
0
0
0
0
0
0
0
0
0
0
0
0
0
0
0
0
0
0
28.76783
29.18606
29.76257
30.51974
31.4817
0
0
0
0
0
0
0
0
0
0
27.62969
28.02891
28.57721
29.29451
30.20318
0
0
0
0
0
0
0
0
0
0
26.55781
26.9397
27.4616
28.14261
29.0027
0
0
0
0
0
0
0
0
0
0
25.57164
25.93763
26.43597
27.08393
27.90068
0
0
0
0
0
0
0
0
0
0
24.67654
25.02814
25.50526
26.12401
26.90182
0
0
0
0
0
0
0
0
0
0
49.75426
50.67297
52.0259
53.91511
56.46806
0
0
0
0
0
47.59187
48.43287
49.666
51.37699
53.67116
0
0
0
0
0
0
45.69115
46.47213
47.61197
49.18533
51.28119
0
0
0
0
0
0
0
43.98178
44.71466
45.7792
47.24148
49.17923
0
0
0
0
0
0
0
0
42.38655
43.07856
44.07924
45.44745
47.25198
0
0
0
0
0
0
0
0
0
40.8204
41.47476
42.41679
43.69946
45.38375
0
0
0
0
0
0
0
0
0
0
39.23762
39.8555
40.7409
41.94135
43.51114
0
0
0
0
0
0
0
0
0
0
0
37.68035
38.26422
39.09663
40.2205
41.68421
0
0
0
0
0
0
0
0
0
0
0
0
36.19216
36.74498
37.52947
38.58403
39.95219
0
0
0
0
0
0
0
0
0
0
0
0
0
34.79263
35.31759
36.05892
37.05165
38.33468
0
0
0
0
0
0
0
0
0
0
0
0
0
0
33.48415
33.98421
34.68695
35.62428
36.83169
0
0
0
0
0
0
0
0
0
0
0
0
0
0
0
32.25855
32.73628
33.40437
34.29203
35.43159
0
0
0
0
0
0
0
0
0
0
0
0
0
0
0
0
31.0998
31.55717
32.1938
33.03641
34.11462
0
0
0
0
0
0
0
0
0
0
0
0
0
0
0
0
0
29.98396
30.4221
31.02958
31.83056
32.85215
0
0
0
0
0
0
0
0
0
0
0
0
0
0
0
0
0
0
28.88018
29.30002
29.87928
30.64063
31.60843
0
0
0
0
0
0
0
0
0
0
0
0
0
0
0
0
0
0
0
27.77081
28.17213
28.72384
29.44612
30.36168
0
0
0
0
0
0
0
0
0
0
26.6867
27.07048
27.59538
28.28071
29.14665
0
0
0
0
0
0
0
0
0
0
25.66454
26.03187
26.53232
27.18327
28.00406
0
0
0
0
0
0
0
0
0
0
24.72311
25.07541
25.5536
26.17387
26.9537
0
0
0
0
0
0
0
0
0
0
23.8689
24.20658
24.66476
25.25751
26.00116
0
0
0
0
0
0
0
0
0
0
47.46427
48.30016
49.5258
51.22612
53.50525
0
0
0
0
0
0
45.4688
46.24173
47.3697
48.92612
50.99833
0
0
0
0
0
0
0
43.70632
44.42976
45.48039
46.92289
48.83319
0
0
0
0
0
0
0
0
42.11498
42.79795
43.78517
45.13431
46.91249
0
0
0
0
0
0
0
0
0
40.62499
41.2729
42.20528
43.47417
45.13937
0
0
0
0
0
0
0
0
0
0
39.15826
39.77338
40.65467
41.84927
43.41094
0
0
0
0
0
0
0
0
0
0
0
37.67262
38.25581
39.08724
40.20972
41.67145
0
0
0
0
0
0
0
0
0
0
0
0
36.20794
36.76087
37.54545
38.60014
39.96844
0
0
0
0
0
0
0
0
0
0
0
0
0
34.80549
35.33064
36.07222
37.06526
38.34868
0
0
0
0
0
0
0
0
0
0
0
0
0
0
33.48415
33.98421
34.68695
35.62428
36.83169
0
0
0
0
0
0
0
0
0
0
0
0
0
0
0
32.24664
32.72416
33.39197
34.27927
35.41838
0
0
0
0
0
0
0
0
0
0
0
0
0
0
0
0
31.08579
31.54283
32.17911
33.0213
34.09901
0
0
0
0
0
0
0
0
0
0
0
0
0
0
0
0
0
29.98697
30.42493
31.03235
31.83345
32.85532
0
0
0
0
0
0
0
0
0
0
0
0
0
0
0
0
0
0
28.92719
29.34746
29.92765
30.69057
31.6607
0
0
0
0
0
0
0
0
0
0
0
0
0
0
0
0
0
0
0
27.87784
28.28057
28.83473
29.56073
30.48151
0
0
0
0
0
0
0
0
0
0
0
0
0
0
0
0
0
0
0
0
26.82139
27.20708
27.73509
28.42495
29.29713
0
0
0
0
0
0
0
0
0
0
25.7878
26.15684
26.66006
27.31498
28.14115
0
0
0
0
0
0
0
0
0
0
24.81208
25.1656
25.64573
26.26878
27.05234
0
0
0
0
0
0
0
0
0
0
23.91351
24.25183
24.711
25.30515
26.05068
0
0
0
0
0
0
0
0
0
0
23.09774
23.4221
23.86141
24.42966
25.14118
0
0
0
0
0
0
0
0
0
0
45.35124
46.11993
47.24167
48.78926
50.8492
0
0
0
0
0
0
0
43.50059
44.21727
45.25792
46.68623
48.57688
0
0
0
0
0
0
0
0
41.85946
42.53446
43.50986
44.84224
46.59734
0
0
0
0
0
0
0
0
0
40.37275
41.01304
41.93401
43.18665
44.82952
0
0
0
0
0
0
0
0
0
0
38.97684
39.58656
40.4597
41.64265
43.18822
0
0
0
0
0
0
0
0
0
0
37.59941
38.18031
39.00837
40.126
41.58101
0
0
0
0
0
0
0
0
0
0
0
0
36.20151
36.75402
37.53787
38.59152
39.95833
0
0
0
0
0
0
0
0
0
0
0
0
0
34.82088
35.34621
36.08801
37.08128
38.36496
0
0
0
0
0
0
0
0
0
0
0
0
0
0
33.49654
33.9968
34.69981
35.63748
36.84531
0
0
0
0
0
0
0
0
0
0
0
0
0
0
0
32.24664
32.72416
33.39197
34.27927
35.41838
0
0
0
0
0
0
0
0
0
0
0
0
0
0
0
0
31.07435
31.53116
32.16715
33.00898
34.08624
0
0
0
0
0
0
0
0
0
0
0
0
0
0
0
0
0
29.97349
30.41109
31.01809
31.81875
32.84009
0
0
0
0
0
0
0
0
0
0
0
0
0
0
0
0
0
0
28.92994
29.34997
29.93002
30.69292
31.66321
0
0
0
0
0
0
0
0
0
0
0
0
0
0
0
0
0
0
0
27.9226
28.32566
28.88059
29.60791
30.53069
0
0
0
0
0
0
0
0
0
0
0
0
0
0
0
0
0
0
0
0
26.92354
27.31048
27.8407
28.5339
29.41077
0
0
0
0
0
0
0
0
0
0
0
0
0
0
0
0
0
0
0
0
25.91657
26.28732
26.7934
27.45248
28.28436
0
0
0
0
0
0
0
0
0
0
24.93012
25.28521
25.76787
26.3946
27.18313
0
0
0
0
0
0
0
0
0
0
23.99883
24.33827
24.79923
25.39594
26.14494
0
0
0
0
0
0
0
0
0
0
23.14049
23.46546
23.90569
24.47525
25.1885
0
0
0
0
0
0
0
0
0
0
22.36181
22.67251
23.09388
23.6381
24.3194
0
0
0
0
0
0
0
0
0
0
43.39179
44.10488
45.14027
46.56115
48.44155
0
0
0
0
0
0
0
0
41.66834
42.33756
43.30443
44.62475
46.36323
0
0
0
0
0
0
0
0
0
40.13477
40.76828
41.67909
42.91735
44.5405
0
0
0
0
0
0
0
0
0
0
38.74166
39.34488
40.20822
41.37723
42.90363
0
0
0
0
0
0
0
0
0
0
37.43033
38.00664
38.82774
39.9354
41.37668
0
0
0
0
0
0
0
0
0
0
36.13361
36.68429
37.46529
38.51489
39.87608
0
0
0
0
0
0
0
0
0
0
0
0
0
34.81548
35.34056
36.0819
37.07437
38.35695
0
0
0
0
0
0
0
0
0
0
0
0
0
0
33.51151
34.01199
34.71529
35.6533
36.86147
0
0
0
0
0
0
0
0
0
0
0
0
0
0
0
32.25855
32.73628
33.40437
34.29203
35.43159
0
0
0
0
0
0
0
0
0
0
0
0
0
0
0
0
31.07435
31.53116
32.16715
33.00898
34.08624
0
0
0
0
0
0
0
0
0
0
0
0
0
0
0
0
0
29.96253
30.39988
31.00658
31.80687
32.82777
0
0
0
0
0
0
0
0
0
0
0
0
0
0
0
0
0
0
28.91701
29.33665
29.91626
30.67865
31.64841
0
0
0
0
0
0
0
0
0
0
0
0
0
0
0
0
0
0
0
27.92516
28.32795
28.88268
29.60988
30.53268
0
0
0
0
0
0
0
0
0
0
0
0
0
0
0
0
0
0
0
0
26.96625
27.35345
27.88432
28.57866
29.45724
0
0
0
0
0
0
0
0
0
0
0
0
0
0
0
0
0
0
0
0
26.01425
26.38608
26.89416
27.55628
28.39241
0
0
0
0
0
0
0
0
0
0
0
0
0
0
0
0
0
0
0
0
25.05343
25.41005
25.89531
26.52588
27.31967
0
0
0
0
0
0
0
0
0
0
24.11203
24.4529
24.91619
25.51629
26.2699
0
0
0
0
0
0
0
0
0
0
23.22239
23.54841
23.99029
24.56222
25.27868
0
0
0
0
0
0
0
0
0
0
22.40287
22.7141
23.13634
23.68177
24.36468
0
0
0
0
0
0
0
0
0
0
21.65943
21.95669
22.3601
22.88156
23.53349
0
0
0
0
0
0
0
0
0
0
41.56725
42.23339
43.19575
44.50972
46.2395
0
0
0
0
0
0
0
0
0
39.95654
40.58511
41.48854
42.71638
44.32528
0
0
0
0
0
0
0
0
0
0
38.51924
39.11662
39.97119
41.12771
42.63705
0
0
0
0
0
0
0
0
0
0
37.21031
37.78102
38.59363
39.68918
41.11387
0
0
0
0
0
0
0
0
0
0
35.9755
36.52225
37.29723
38.3382
39.68753
0
0
0
0
0
0
0
0
0
0
34.75221
35.27584
36.01482
37.00382
38.28164
0
0
0
0
0
0
0
0
0
0
0
0
0
0
33.50696
34.00729
34.71031
35.64781
36.85512
0
0
0
0
0
0
0
0
0
0
0
0
0
0
0
32.27307
32.75107
33.41947
34.30752
35.44754
0
0
0
0
0
0
0
0
0
0
0
0
0
0
0
0
31.08579
31.54283
32.17911
33.0213
34.09901
0
0
0
0
0
0
0
0
0
0
0
0
0
0
0
0
0
29.96253
30.39988
31.00658
31.80687
32.82777
0
0
0
0
0
0
0
0
0
0
0
0
0
0
0
0
0
0
28.90651
29.3259
29.9052
30.66721
31.63653
0
0
0
0
0
0
0
0
0
0
0
0
0
0
0
0
0
0
0
27.91277
28.31516
28.86943
29.59612
30.51833
0
0
0
0
0
0
0
0
0
0
0
0
0
0
0
0
0
0
0
0
26.96869
27.35558
27.88622
28.58038
29.45889
0
0
0
0
0
0
0
0
0
0
0
0
0
0
0
0
0
0
0
0
26.05513
26.42713
26.93576
27.59888
28.43651
0
0
0
0
0
0
0
0
0
0
0
0
0
0
0
0
0
0
0
0
25.147
25.50456
25.99162
26.62496
27.42264
0
0
0
0
0
0
0
0
0
0
0
0
0
0
0
0
0
0
0
0
24.23028
24.57253
25.03819
25.64181
26.40028
0
0
0
0
0
0
0
0
0
0
23.33107
23.65841
24.10244
24.67751
25.39823
0
0
0
0
0
0
0
0
0
0
22.48161
22.79378
23.21756
23.7652
24.45109
0
0
0
0
0
0
0
0
0
0
21.69887
21.99665
22.40084
22.92345
23.57688
0
0
0
0
0
0
0
0
0
0
20.9913
21.27305
21.65902
22.15803
22.78222
0
0
0
0
0
0
0
0
0
0
39.86228
40.48819
41.38769
42.61003
44.21144
0
0
0
0
0
0
0
0
0
0
38.35247
38.94558
39.79373
40.94115
42.4381
0
0
0
0
0
0
0
0
0
0
37.00179
37.56743
38.37235
39.45701
40.86679
0
0
0
0
0
0
0
0
0
0
35.76908
36.31092
37.07847
38.10884
39.44366
0
0
0
0
0
0
0
0
0
0
34.60385
35.12413
35.85786
36.83932
38.1068
0
0
0
0
0
0
0
0
0
0
33.4478
33.94692
34.64798
35.58256
36.78576
0
0
0
0
0
0
0
0
0
0
0
0
0
0
0
32.26921
32.74716
33.41538
34.3031
35.44254
0
0
0
0
0
0
0
0
0
0
0
0
0
0
0
0
31.0998
31.55717
32.1938
33.03641
34.11462
0
0
0
0
0
0
0
0
0
0
0
0
0
0
0
0
0
29.97349
30.41109
31.01809
31.81875
32.84009
0
0
0
0
0
0
0
0
0
0
0
0
0
0
0
0
0
0
28.90651
29.3259
29.9052
30.66721
31.63653
0
0
0
0
0
0
0
0
0
0
0
0
0
0
0
0
0
0
0
27.90272
28.30486
28.85882
29.58512
30.50688
0
0
0
0
0
0
0
0
0
0
0
0
0
0
0
0
0
0
0
0
26.95682
27.34332
27.8735
28.56713
29.44504
0
0
0
0
0
0
0
0
0
0
0
0
0
0
0
0
0
0
0
0
26.0575
26.42916
26.93753
27.60044
28.43793
0
0
0
0
0
0
0
0
0
0
0
0
0
0
0
0
0
0
0
0
25.18623
25.54389
26.0314
26.66561
27.46463
0
0
0
0
0
0
0
0
0
0
0
0
0
0
0
0
0
0
0
0
24.32006
24.66314
25.13041
25.73655
26.49859
0
0
0
0
0
0
0
0
0
0
0
0
0
0
0
0
0
0
0
0
23.44457
23.77321
24.21941
24.79772
25.52292
0
0
0
0
0
0
0
0
0
0
22.5861
22.89944
23.32525
23.87578
24.56563
0
0
0
0
0
0
0
0
0
0
21.77463
22.0733
22.4789
23.00357
23.65978
0
0
0
0
0
0
0
0
0
0
21.02926
21.31146
21.69818
22.19824
22.82384
0
0
0
0
0
0
0
0
0
0
20.35619
20.62235
20.98913
21.46652
22.0636
0
0
0
0
0
0
0
0
0
0
38.26429
38.85508
39.6998
40.8424
42.33283
0
0
0
0
0
0
0
0
0
0
36.84527
37.40718
38.20648
39.28316
40.68205
0
0
0
0
0
0
0
0
0
0
35.57307
36.11043
36.87121
37.89197
39.21368
0
0
0
0
0
0
0
0
0
0
34.40968
34.92565
35.65278
36.62487
37.87955
0
0
0
0
0
0
0
0
0
0
33.30818
33.80441
34.50091
35.42884
36.62293
0
0
0
0
0
0
0
0
0
0
32.21371
32.69065
33.35719
34.24245
35.37838
0
0
0
0
0
0
0
0
0
0
0
0
0
0
0
0
31.09643
31.5539
32.19045
33.03283
34.11065
0
0
0
0
0
0
0
0
0
0
0
0
0
0
0
0
0
29.98697
30.42493
31.03235
31.83345
32.85532
0
0
0
0
0
0
0
0
0
0
0
0
0
0
0
0
0
0
28.91701
29.33665
29.91626
30.67865
31.64841
0
0
0
0
0
0
0
0
0
0
0
0
0
0
0
0
0
0
0
27.90272
28.30486
28.85882
29.58512
30.50688
0
0
0
0
0
0
0
0
0
0
0
0
0
0
0
0
0
0
0
0
26.9472
27.33346
27.86332
28.55658
29.43404
0
0
0
0
0
0
0
0
0
0
0
0
0
0
0
0
0
0
0
0
26.04616
26.41742
26.92533
27.58771
28.4246
0
0
0
0
0
0
0
0
0
0
0
0
0
0
0
0
0
0
0
0
25.18857
25.54588
26.03308
26.66706
27.4659
0
0
0
0
0
0
0
0
0
0
0
0
0
0
0
0
0
0
0
0
24.3578
24.70091
25.16855
25.77544
26.53867
0
0
0
0
0
0
0
0
0
0
0
0
0
0
0
0
0
0
0
0
23.53082
23.86023
24.30788
24.88848
25.61695
0
0
0
0
0
0
0
0
0
0
0
0
0
0
0
0
0
0
0
0
22.69526
23.00972
23.43756
23.99108
24.68507
0
0
0
0
0
0
0
0
0
0
21.87517
22.17497
22.58239
23.10979
23.76966
0
0
0
0
0
0
0
0
0
0
21.10227
21.38525
21.77331
22.27526
22.90347
0
0
0
0
0
0
0
0
0
0
20.39272
20.65934
21.02679
21.50517
22.10356
0
0
0
0
0
0
0
0
0
0
19.75943
20.00344
20.35122
20.80555
21.37667
0
0
0
0
0
0
0
0
0
0
36.76254
37.32242
38.1187
39.19113
40.58427
0
0
0
0
0
0
0
0
0
0
35.4258
35.95986
36.71566
37.72936
39.04148
0
0
0
0
0
0
0
0
0
0
34.22498
34.73697
35.45806
36.42162
37.66466
0
0
0
0
0
0
0
0
0
0
33.12504
33.6175
34.30813
35.22768
36.4104
0
0
0
0
0
0
0
0
0
0
32.08202
32.5564
33.21893
34.09833
35.22617
0
0
0
0
0
0
0
0
0
0
31.04411
31.50082
32.13594
32.97617
34.05099
0
0
0
0
0
0
0
0
0
0
0
0
0
0
0
0
0
29.98396
30.4221
31.02958
31.83056
32.85215
0
0
0
0
0
0
0
0
0
0
0
0
0
0
0
0
0
0
28.92994
29.34997
29.93002
30.69292
31.66321
0
0
0
0
0
0
0
0
0
0
0
0
0
0
0
0
0
0
0
27.91277
28.31516