/*--------------------------------*- C++ -*----------------------------------*\
| =========                 |                                                 |
| \\      /  F ield         | OpenFOAM: The Open Source CFD Toolbox           |
|  \\    /   O peration     | Version:  2306                                  |
|   \\  /    A nd           | Website:  www.openfoam.com                      |
|    \\/     M anipulation  |                                                 |
\*---------------------------------------------------------------------------*/
FoamFile
{
    version     2.0;
    format      ascii;
    arch        "LSB;label=32;scalar=64";
    class       volScalarField;
    location    "0.9/fuel";
    object      iDmdtfuel.H2;
}
// * * * * * * * * * * * * * * * * * * * * * * * * * * * * * * * * * * * * * //

dimensions      [1 -3 -1 0 0 0 0];

internalField   nonuniform List<scalar> 
16000
(
-10.0407
-10.12369
-9.167624
-9.606485
-10.29094
-9.220505
-9.683473
-8.417692
-8.794074
-9.299787
-10.543
-9.324234
-9.838506
-8.457697
-8.84338
-9.372774
-7.812654
-8.093388
-8.528067
-9.111083
-10.87095
-9.47349
-10.07195
-8.535206
-8.940043
-9.519716
-7.845263
-8.130851
-8.574934
-9.181851
-7.308399
-7.526159
-7.861076
-8.36216
-9.029541
-11.22413
-9.654272
-10.37535
-8.644374
-9.079046
-9.740949
-7.907975
-8.203401
-8.666791
-9.324367
-7.336039
-7.556805
-7.896779
-8.407605
-9.099635
-6.874594
-7.052055
-7.320079
-7.714832
-8.287898
-0
-11.48912
-9.830133
-10.70166
-8.77198
-9.247288
-10.02853
-7.995153
-8.30553
-8.798859
-9.539081
-7.388933
-7.615713
-7.965901
-8.49668
-9.240898
-6.898588
-7.078109
-7.349352
-7.749479
-8.332806
-0
-6.493641
-6.64315
-6.86709
-7.189554
-7.64798
-0
-0
-11.65487
-9.948051
-10.94554
-8.889244
-9.4108
-10.33795
-8.094777
-8.424831
-8.958698
-9.818591
-7.461808
-7.697564
-8.063182
-8.624782
-9.454027
-6.944345
-7.127945
-7.405606
-7.816553
-8.420859
-0
-6.514831
-6.665827
-6.892029
-7.21799
-7.68219
-0
-0
-6.153716
-6.283234
-6.475744
-6.749435
-7.129161
-0
-0
-0
-11.74794
-10.01292
-11.09753
-8.961477
-9.520113
-10.56856
-8.182944
-8.534368
-9.114029
-10.11997
-7.543775
-7.791038
-8.176798
-8.77992
-9.732203
-7.00697
-7.196572
-7.483747
-7.910961
-8.547577
-0
-6.555139
-6.709052
-6.939716
-7.272631
-7.748428
-0
-0
-6.172668
-6.303309
-6.49749
-6.773686
-7.157236
-0
-0
-0
-5.846953
-5.961398
-6.13074
-6.368916
-6.694586
-0
-0
-0
-0
-11.78938
-10.04527
-11.18265
-8.996079
-9.580082
-10.71195
-8.234005
-8.601657
-9.217587
-10.34423
-7.614372
-7.873677
-8.281069
-8.930808
-10.03326
-7.076571
-7.273706
-7.572955
-8.02125
-8.701235
-0
-6.610026
-6.768182
-7.005364
-7.348529
-7.841693
-0
-0
-6.20865
-6.341477
-6.538927
-6.820054
-7.211185
-0
-0
-0
-5.864072
-5.979391
-6.150023
-6.390084
-6.718532
-0
-0
-0
-0
-5.567579
-5.670384
-5.821779
-6.033185
-6.318864
-0
-0
-0
-0
-0
-11.78938
-10.05847
-11.22048
-9.0103
-9.609931
-10.79214
-8.255609
-8.633798
-9.274284
-10.48357
-7.653379
-7.9214
-8.34493
-9.031155
-10.25719
-7.135279
-7.34006
-7.651763
-8.122481
-8.850919
-0
-6.670454
-6.833847
-7.079118
-7.435179
-7.950721
-0
-0
-6.257444
-6.393422
-6.595593
-6.883879
-7.286137
-0
-0
-0
-5.896525
-6.013535
-6.186673
-6.430415
-6.764319
-0
-0
-0
-0
-5.583163
-5.686668
-5.839089
-6.051974
-6.339773
-0
-0
-0
-0
-0
-5.311325
-5.404863
-5.542014
-5.732282
-5.98732
-0
-0
-0
-0
-0
-0
-11.74794
-10.05847
-11.22048
-9.015006
-9.62209
-10.82776
-8.262514
-8.646968
-9.302476
-10.56151
-7.668133
-7.941516
-8.375349
-9.086028
-10.39643
-7.166507
-7.376608
-7.697119
-8.18428
-8.950255
-0
-6.720583
-6.889159
-7.1425
-7.511701
-8.05085
-0
-0
-6.310752
-6.450563
-6.658489
-6.955576
-7.371739
-0
-0
-0
-5.940385
-6.059812
-6.236537
-6.485562
-6.827352
-0
-0
-0
-0
-5.612675
-5.717524
-5.871926
-6.087681
-6.37961
-0
-0
-0
-0
-0
-5.325604
-5.419713
-5.557702
-5.749165
-6.005886
-0
-0
-0
-0
-0
-0
-5.074874
-5.160891
-5.286416
-5.459594
-5.690104
-0
-0
-0
-0
-0
-0
-0
-11.65487
-10.04527
-11.18265
-9.015006
-9.62209
-10.82776
-8.263929
-8.651311
-9.313958
-10.59613
-7.671472
-7.947902
-8.387782
-9.113325
-10.47445
-7.177139
-7.390359
-7.716155
-8.213641
-9.004553
-0
-6.746413
-6.918477
-7.177276
-7.555568
-8.111768
-0
-0
-6.354369
-6.497892
-6.711403
-7.017147
-7.447327
-0
-0
-0
-5.987996
-6.110326
-6.291356
-6.546757
-6.898172
-0
-0
-0
-0
-5.652447
-5.759204
-5.916417
-6.136253
-6.434086
-0
-0
-0
-0
-0
-5.352625
-5.447825
-5.587421
-5.781187
-6.041168
-0
-0
-0
-0
-0
-0
-5.088029
-5.174521
-5.300743
-5.474908
-5.706792
-0
-0
-0
-0
-0
-0
-0
-4.855608
-4.935405
-5.051266
-5.210265
-5.420684
-0
-0
-0
-0
-0
-0
-0
-0
-11.48912
-10.01292
-11.09753
-9.0103
-9.609931
-10.79214
-8.263929
-8.651311
-9.313958
-10.59613
-7.671376
-7.949188
-8.391875
-9.124453
-10.50916
-7.178507
-7.393419
-7.722155
-8.225625
-9.031609
-0
-6.754363
-6.928385
-7.190278
-7.573895
-8.14064
-0
-0
-6.376233
-6.522185
-6.73933
-7.050778
-7.49047
-0
-0
-0
-6.026501
-6.151586
-6.336697
-6.59819
-6.958958
-0
-0
-0
-0
-5.695383
-5.804406
-5.964951
-6.189638
-6.49454
-0
-0
-0
-0
-0
-5.388951
-5.485688
-5.627549
-5.824566
-6.089164
-0
-0
-0
-0
-0
-0
-5.11291
-5.200303
-5.327854
-5.503914
-5.738445
-0
-0
-0
-0
-0
-0
-0
-4.867784
-4.947982
-5.064431
-5.224262
-5.435828
-0
-0
-0
-0
-0
-0
-0
-0
-4.65144
-4.725982
-4.833671
-4.980706
-5.174272
-0
-0
-0
-0
-0
-0
-0
-0
-0
-11.22413
-9.948051
-10.94554
-8.996079
-9.580082
-10.71195
-8.262514
-8.646968
-9.302476
-10.56151
-7.671376
-7.949188
-8.391875
-9.124453
-10.50916
-7.177637
-7.393291
-7.723343
-8.229567
-9.042664
-0
-6.754557
-6.929598
-7.193117
-7.579633
-8.152417
-0
-0
-6.382323
-6.529587
-6.748688
-7.063266
-7.508405
-0
-0
-0
-6.045341
-6.172182
-6.359862
-6.625202
-6.991992
-0
-0
-0
-0
-5.729764
-5.840896
-6.004532
-6.233741
-6.545309
-0
-0
-0
-0
-0
-5.427981
-5.526524
-5.671038
-5.871869
-6.141916
-0
-0
-0
-0
-0
-0
-5.146288
-5.234944
-5.364356
-5.543073
-5.781324
-0
-0
-0
-0
-0
-0
-0
-4.890805
-4.971759
-5.089327
-5.250745
-5.46451
-0
-0
-0
-0
-0
-0
-0
-0
-4.662752
-4.737639
-4.845833
-4.993579
-5.188117
-0
-0
-0
-0
-0
-0
-0
-0
-0
-4.460651
-4.530691
-4.631346
-4.768129
-4.947329
-0
-0
-0
-0
-0
-0
-0
-0
-0
-0
-10.87095
-9.830133
-10.70166
-8.961477
-9.520113
-10.56856
-8.255609
-8.633798
-9.274284
-10.48357
-7.671472
-7.947902
-8.387782
-9.113325
-10.47445
-7.177637
-7.393291
-7.723343
-8.229567
-9.042664
-0
-6.753266
-6.928739
-7.192955
-7.58075
-8.156294
-0
-0
-6.381774
-6.529695
-6.749766
-7.065937
-7.513982
-0
-0
-0
-6.050089
-6.177844
-6.366841
-6.634168
-7.004166
-0
-0
-0
-0
-5.746224
-5.858668
-6.02419
-6.256153
-6.571825
-0
-0
-0
-0
-0
-5.458967
-5.559161
-5.706089
-5.910398
-6.185453
-0
-0
-0
-0
-0
-0
-5.182001
-5.272128
-5.403696
-5.585496
-5.828081
-0
-0
-0
-0
-0
-0
-0
-4.921629
-5.00364
-5.122764
-5.286395
-5.503232
-0
-0
-0
-0
-0
-0
-0
-0
-4.684138
-4.759672
-4.86882
-5.017917
-5.214314
-0
-0
-0
-0
-0
-0
-0
-0
-0
-4.471199
-4.541537
-4.642632
-4.780029
-4.960067
-0
-0
-0
-0
-0
-0
-0
-0
-0
-0
-4.281833
-4.347944
-4.44247
-4.570328
-4.73711
-0
-0
-0
-0
-0
-0
-0
-0
-0
-0
-10.543
-9.654272
-10.37535
-8.889244
-9.4108
-10.33795
-8.234005
-8.601657
-9.217587
-10.34423
-7.668133
-7.941516
-8.375349
-9.086028
-10.39643
-7.178507
-7.393419
-7.722155
-8.225625
-9.031609
-0
-6.753266
-6.928739
-7.192955
-7.58075
-8.156294
-0
-0
-6.380248
-6.528438
-6.748907
-7.065743
-7.51505
-0
-0
-0
-6.049058
-6.177251
-6.366866
-6.635134
-7.006712
-0
-0
-0
-0
-5.74997
-5.863073
-6.029516
-6.262823
-6.580535
-0
-0
-0
-0
-0
-5.473514
-5.574709
-5.723068
-5.929425
-6.207446
-0
-0
-0
-0
-0
-0
-5.210138
-5.301588
-5.435083
-5.61964
-5.866123
-0
-0
-0
-0
-0
-0
-0
-4.95449
-5.037716
-5.158629
-5.324801
-5.54518
-0
-0
-0
-0
-0
-0
-0
-0
-4.712731
-4.789157
-4.899629
-5.050599
-5.24958
-0
-0
-0
-0
-0
-0
-0
-0
-0
-4.491143
-4.562034
-4.663955
-4.802518
-4.984151
-0
-0
-0
-0
-0
-0
-0
-0
-0
-0
-4.291701
-4.35807
-4.45298
-4.581378
-4.74889
-0
-0
-0
-0
-0
-0
-0
-0
-0
-0
-4.113785
-4.176437
-4.265541
-4.385548
-4.541443
-0
-0
-0
-0
-0
-0
-0
-0
-0
-0
-10.29094
-9.47349
-10.07195
-8.77198
-9.247288
-10.02853
-8.182944
-8.534368
-9.114029
-10.11997
-7.653379
-7.9214
-8.34493
-9.031155
-10.25719
-7.177139
-7.390359
-7.716155
-8.213641
-9.004553
-0
-6.754557
-6.929598
-7.193117
-7.579633
-8.152417
-0
-0
-6.380248
-6.528438
-6.748907
-7.065743
-7.51505
-0
-0
-0
-6.047403
-6.175769
-6.365624
-6.634261
-7.006482
-0
-0
-0
-0
-5.74862
-5.862025
-6.028873
-6.26277
-6.581404
-0
-0
-0
-0
-0
-5.476496
-5.578175
-5.727201
-5.934501
-6.213905
-0
-0
-0
-0
-0
-0
-5.223115
-5.315347
-5.449952
-5.636083
-5.884794
-0
-0
-0
-0
-0
-0
-0
-4.980214
-5.064507
-5.186995
-5.355399
-5.578901
-0
-0
-0
-0
-0
-0
-0
-0
-4.74312
-4.820558
-4.932535
-5.08564
-5.287569
-0
-0
-0
-0
-0
-0
-0
-0
-0
-4.517774
-4.589422
-4.69248
-4.832653
-5.016492
-0
-0
-0
-0
-0
-0
-0
-0
-0
-0
-4.310363
-4.377211
-4.472838
-4.602254
-4.771152
-0
-0
-0
-0
-0
-0
-0
-0
-0
-0
-4.123043
-4.185922
-4.275364
-4.395846
-4.552385
-0
-0
-0
-0
-0
-0
-0
-0
-0
-0
-3.955495
-4.015055
-4.099331
-4.212343
-4.358602
-0
-0
-0
-0
-0
-0
-0
-0
-0
-0
-10.12369
-9.324234
-9.838506
-8.644374
-9.079046
-9.740949
-8.094777
-8.424831
-8.958698
-9.818591
-7.614372
-7.873677
-8.281069
-8.930808
-10.03326
-7.166507
-7.376608
-7.697119
-8.18428
-8.950255
-0
-6.754363
-6.928385
-7.190278
-7.573895
-8.14064
-0
-0
-6.381774
-6.529695
-6.749766
-7.065937
-7.513982
-0
-0
-0
-6.047403
-6.175769
-6.365624
-6.634261
-7.006482
-0
-0
-0
-0
-5.7469
-5.860418
-6.027414
-6.261526
-6.580505
-0
-0
-0
-0
-0
-5.474934
-5.576824
-5.726123
-5.933803
-6.213775
-0
-0
-0
-0
-0
-0
-5.225504
-5.318097
-5.453193
-5.640009
-5.889693
-0
-0
-0
-0
-0
-0
-0
-4.991893
-5.076796
-5.200165
-5.369805
-5.595037
-0
-0
-0
-0
-0
-0
-0
-0
-4.766776
-4.845086
-4.958359
-5.113312
-5.317797
-0
-0
-0
-0
-0
-0
-0
-0
-0
-4.546
-4.618502
-4.722836
-4.864827
-5.051165
-0
-0
-0
-0
-0
-0
-0
-0
-0
-0
-4.335252
-4.402753
-4.499363
-4.630176
-4.800983
-0
-0
-0
-0
-0
-0
-0
-0
-0
-0
-4.140557
-4.203853
-4.293926
-4.4153
-4.573057
-0
-0
-0
-0
-0
-0
-0
-0
-0
-0
-3.964202
-4.023964
-4.10854
-4.221974
-4.368802
-0
-0
-0
-0
-0
-0
-0
-0
-0
-0
-3.80608
-3.862861
-3.942786
-4.049528
-4.187163
-0
-0
-0
-0
-0
-0
-0
-0
-0
-0
-10.0407
-9.220505
-9.683473
-8.535206
-8.940043
-9.519716
-7.995153
-8.30553
-8.798859
-9.539081
-7.543775
-7.791038
-8.176798
-8.77992
-9.732203
-7.135279
-7.34006
-7.651763
-8.122481
-8.850919
-0
-6.746413
-6.918477
-7.177276
-7.555568
-8.111768
-0
-0
-6.382323
-6.529587
-6.748688
-7.063266
-7.508405
-0
-0
-0
-6.049058
-6.177251
-6.366866
-6.635134
-7.006712
-0
-0
-0
-0
-5.7469
-5.860418
-6.027414
-6.261526
-6.580505
-0
-0
-0
-0
-0
-5.473188
-5.575154
-5.724544
-5.932349
-6.212512
-0
-0
-0
-0
-0
-0
-5.223805
-5.316544
-5.451826
-5.638891
-5.888933
-0
-0
-0
-0
-0
-0
-0
-4.993822
-5.078989
-5.202725
-5.372873
-5.598813
-0
-0
-0
-0
-0
-0
-0
-0
-4.777368
-4.856159
-4.970132
-5.126079
-5.331937
-0
-0
-0
-0
-0
-0
-0
-0
-0
-4.567866
-4.64109
-4.746504
-4.890038
-5.078512
-0
-0
-0
-0
-0
-0
-0
-0
-0
-0
-4.361569
-4.429798
-4.527503
-4.659877
-4.832829
-0
-0
-0
-0
-0
-0
-0
-0
-0
-0
-4.163892
-4.227755
-4.318687
-4.441281
-4.600706
-0
-0
-0
-0
-0
-0
-0
-0
-0
-0
-3.980681
-4.040813
-4.125946
-4.24017
-4.388072
-0
-0
-0
-0
-0
-0
-0
-0
-0
-0
-3.814287
-3.871249
-3.951443
-4.058562
-4.196705
-0
-0
-0
-0
-0
-0
-0
-0
-0
-0
-3.664784
-3.719036
-3.795021
-3.896088
-4.025961
-0
-0
-0
-0
-0
-0
-0
-0
-0
-0
-9.167624
-9.606485
-8.457697
-8.84338
-9.372774
-7.907975
-8.203401
-8.666791
-9.324367
-7.461808
-7.697564
-8.063182
-8.624782
-9.454027
-7.076571
-7.273706
-7.572955
-8.02125
-8.701235
-0
-6.720583
-6.889159
-7.1425
-7.511701
-8.05085
-0
-0
-6.376233
-6.522185
-6.73933
-7.050778
-7.49047
-0
-0
-0
-6.050089
-6.177844
-6.366841
-6.634168
-7.004166
-0
-0
-0
-0
-5.74862
-5.862025
-6.028873
-6.26277
-6.581404
-0
-0
-0
-0
-0
-5.473188
-5.575154
-5.724544
-5.932349
-6.212512
-0
-0
-0
-0
-0
-0
-5.222062
-5.314848
-5.450185
-5.637321
-5.887465
-0
-0
-0
-0
-0
-0
-0
-4.992044
-5.077307
-5.201166
-5.371477
-5.597645
-0
-0
-0
-0
-0
-0
-0
-0
-4.778936
-4.857921
-4.972164
-5.128492
-5.334877
-0
-0
-0
-0
-0
-0
-0
-0
-0
-4.577535
-4.651143
-4.757122
-4.901456
-5.091045
-0
-0
-0
-0
-0
-0
-0
-0
-0
-0
-4.38187
-4.450703
-4.549321
-4.682998
-4.857752
-0
-0
-0
-0
-0
-0
-0
-0
-0
-0
-0
-4.188512
-4.253002
-4.344885
-4.468833
-4.630115
-0
-0
-0
-0
-0
-0
-0
-0
-0
-0
-4.002616
-4.063248
-4.149138
-4.264438
-4.413807
-0
-0
-0
-0
-0
-0
-0
-0
-0
-0
-3.829828
-3.88712
-3.967812
-4.075635
-4.214734
-0
-0
-0
-0
-0
-0
-0
-0
-0
-0
-3.672536
-3.726951
-3.803178
-3.904585
-4.034915
-0
-0
-0
-0
-0
-0
-0
-0
-0
-0
-3.530951
-3.582877
-3.65526
-3.75117
-3.873999
-0
-0
-0
-0
-0
-0
-0
-0
-0
-0
-8.417692
-8.794074
-9.299787
-7.845263
-8.130851
-8.574934
-9.181851
-7.388933
-7.615713
-7.965901
-8.49668
-9.240898
-7.00697
-7.196572
-7.483747
-7.910961
-8.547577
-0
-6.670454
-6.833847
-7.079118
-7.435179
-7.950721
-0
-0
-6.354369
-6.497892
-6.711403
-7.017147
-7.447327
-0
-0
-0
-6.045341
-6.172182
-6.359862
-6.625202
-6.991992
-0
-0
-0
-0
-5.74997
-5.863073
-6.029516
-6.262823
-6.580535
-0
-0
-0
-0
-0
-5.474934
-5.576824
-5.726123
-5.933803
-6.213775
-0
-0
-0
-0
-0
-0
-5.222062
-5.314848
-5.450185
-5.637321
-5.887465
-0
-0
-0
-0
-0
-0
-0
-4.990322
-5.075612
-5.1995
-5.369847
-5.596065
-0
-0
-0
-0
-0
-0
-0
-0
-4.777118
-4.856163
-4.970482
-5.126913
-5.333439
-0
-0
-0
-0
-0
-0
-0
-0
-0
-4.578817
-4.652566
-4.758745
-4.903362
-5.093347
-0
-0
-0
-0
-0
-0
-0
-0
-0
-0
-4.39075
-4.459892
-4.558969
-4.693302
-4.868964
-0
-0
-0
-0
-0
-0
-0
-0
-0
-0
-0
-4.207432
-4.272436
-4.365097
-4.490161
-4.65298
-0
-0
-0
-0
-0
-0
-0
-0
-0
-0
-0
-0
-4.025714
-4.086896
-4.173617
-4.290104
-4.441097
-0
-0
-0
-0
-0
-0
-0
-0
-0
-0
-3.850496
-3.908234
-3.989601
-4.09838
-4.23878
-0
-0
-0
-0
-0
-0
-0
-0
-0
-0
-3.687223
-3.741934
-3.818611
-3.920651
-4.051836
-0
-0
-0
-0
-0
-0
-0
-0
-0
-0
-3.538285
-3.59036
-3.662964
-3.759181
-3.882423
-0
-0
-0
-0
-0
-0
-0
-0
-0
-0
-3.403957
-3.453775
-3.522841
-3.614025
-3.730438
-0
-0
-0
-0
-0
-0
-0
-0
-0
-0
-7.812654
-8.093388
-8.528067
-9.111083
-7.336039
-7.556805
-7.896779
-8.407605
-9.099635
-6.944345
-7.127945
-7.405606
-7.816553
-8.420859
-0
-6.610026
-6.768182
-7.005364
-7.348529
-7.841693
-0
-0
-6.310752
-6.450563
-6.658489
-6.955576
-7.371739
-0
-0
-0
-6.026501
-6.151586
-6.336697
-6.59819
-6.958958
-0
-0
-0
-0
-5.746224
-5.858668
-6.02419
-6.256153
-6.571825
-0
-0
-0
-0
-0
-5.476496
-5.578175
-5.727201
-5.934501
-6.213905
-0
-0
-0
-0
-0
-0
-5.223805
-5.316544
-5.451826
-5.638891
-5.888933
-0
-0
-0
-0
-0
-0
-0
-4.990322
-5.075612
-5.1995
-5.369847
-5.596065
-0
-0
-0
-0
-0
-0
-0
-0
-4.77543
-4.854488
-4.968817
-5.125259
-5.331802
-0
-0
-0
-0
-0
-0
-0
-0
-0
-4.576988
-4.650771
-4.756992
-4.901665
-5.091733
-0
-0
-0
-0
-0
-0
-0
-0
-0
-0
-4.391803
-4.461048
-4.560273
-4.694815
-4.870773
-0
-0
-0
-0
-0
-0
-0
-0
-0
-0
-0
-4.215625
-4.280884
-4.373923
-4.49953
-4.6631
-0
-0
-0
-0
-0
-0
-0
-0
-0
-0
-0
-0
-4.043407
-4.105029
-4.192424
-4.309876
-4.462195
-0
-0
-0
-0
-0
-0
-0
-0
-0
-0
-0
-0
-0
-3.872225
-3.930445
-4.01255
-4.122377
-4.26421
-0
-0
-0
-0
-0
-0
-0
-0
-0
-0
-3.706743
-3.76185
-3.839133
-3.942032
-4.07438
-0
-0
-0
-0
-0
-0
-0
-0
-0
-0
-3.552191
-3.604535
-3.677545
-3.774335
-3.898351
-0
-0
-0
-0
-0
-0
-0
-0
-0
-0
-3.410905
-3.460861
-3.530129
-3.621594
-3.738382
-0
-0
-0
-0
-0
-0
-0
-0
-0
-0
-3.283298
-3.331147
-3.397185
-3.484015
-3.594542
-0
-0
-0
-0
-0
-0
-0
-0
-0
-0
-7.308399
-7.526159
-7.861076
-8.36216
-9.029541
-6.898588
-7.078109
-7.349352
-7.749479
-8.332806
-0
-6.555139
-6.709052
-6.939716
-7.272631
-7.748428
-0
-0
-6.257444
-6.393422
-6.595593
-6.883879
-7.286137
-0
-0
-0
-5.987996
-6.110326
-6.291356
-6.546757
-6.898172
-0
-0
-0
-0
-5.729764
-5.840896
-6.004532
-6.233741
-6.545309
-0
-0
-0
-0
-0
-5.473514
-5.574709
-5.723068
-5.929425
-6.207446
-0
-0
-0
-0
-0
-0
-5.225504
-5.318097
-5.453193
-5.640009
-5.889693
-0
-0
-0
-0
-0
-0
-0
-4.992044
-5.077307
-5.201166
-5.371477
-5.597645
-0
-0
-0
-0
-0
-0
-0
-0
-4.77543
-4.854488
-4.968817
-5.125259
-5.331802
-0
-0
-0
-0
-0
-0
-0
-0
-0
-4.575343
-4.649128
-4.755346
-4.900012
-5.090073
-0
-0
-0
-0
-0
-0
-0
-0
-0
-0
-4.389981
-4.459242
-4.558484
-4.693051
-4.869046
-0
-0
-0
-0
-0
-0
-0
-0
-0
-0
-0
-4.21649
-4.281826
-4.374973
-4.500736
-4.664528
-0
-0
-0
-0
-0
-0
-0
-0
-0
-0
-0
-0
-4.051005
-4.112831
-4.200546
-4.318451
-4.471399
-0
-0
-0
-0
-0
-0
-0
-0
-0
-0
-0
-0
-0
-3.888827
-3.947421
-4.030114
-4.140785
-4.283775
-0
-0
-0
-0
-0
-0
-0
-0
-0
-0
-0
-0
-0
-0
-3.727237
-3.782766
-3.860706
-3.964542
-4.098162
-0
-0
-0
-0
-0
-0
-0
-0
-0
-0
-3.570661
-3.623364
-3.696918
-3.794485
-3.919548
-0
-0
-0
-0
-0
-0
-0
-0
-0
-0
-3.424091
-3.474295
-3.543933
-3.63592
-3.75341
-0
-0
-0
-0
-0
-0
-0
-0
-0
-0
-3.289896
-3.337866
-3.404092
-3.491179
-3.60205
-0
-0
-0
-0
-0
-0
-0
-0
-0
-0
-3.16854
-3.214523
-3.27774
-3.360582
-3.465682
-0
-0
-0
-0
-0
-0
-0
-0
-0
-0
-6.874594
-7.052055
-7.320079
-7.714832
-8.287898
-0
-6.514831
-6.665827
-6.892029
-7.21799
-7.68219
-0
-0
-6.20865
-6.341477
-6.538927
-6.820054
-7.211185
-0
-0
-0
-5.940385
-6.059812
-6.236537
-6.485562
-6.827352
-0
-0
-0
-0
-5.695383
-5.804406
-5.964951
-6.189638
-6.49454
-0
-0
-0
-0
-0
-5.458967
-5.559161
-5.706089
-5.910398
-6.185453
-0
-0
-0
-0
-0
-0
-5.223115
-5.315347
-5.449952
-5.636083
-5.884794
-0
-0
-0
-0
-0
-0
-0
-4.993822
-5.078989
-5.202725
-5.372873
-5.598813
-0
-0
-0
-0
-0
-0
-0
-0
-4.777118
-4.856163
-4.970482
-5.126913
-5.333439
-0
-0
-0
-0
-0
-0
-0
-0
-0
-4.575343
-4.649128
-4.755346
-4.900012
-5.090073
-0
-0
-0
-0
-0
-0
-0
-0
-0
-0
-4.388383
-4.457639
-4.556869
-4.691417
-4.867389
-0
-0
-0
-0
-0
-0
-0
-0
-0
-0
-0
-4.214689
-4.280028
-4.373176
-4.49894
-4.662738
-0
-0
-0
-0
-0
-0
-0
-0
-0
-0
-0
-0
-4.051724
-4.113598
-4.201394
-4.319415
-4.47253
-0
-0
-0
-0
-0
-0
-0
-0
-0
-0
-0
-0
-0
-3.895907
-3.954664
-4.037621
-4.14868
-4.292202
-0
-0
-0
-0
-0
-0
-0
-0
-0
-0
-0
-0
-0
-0
-3.742861
-3.798713
-3.877163
-3.981744
-4.116384
-0
-0
-0
-0
-0
-0
-0
-0
-0
-0
-0
-0
-0
-0
-0
-3.590028
-3.643111
-3.71725
-3.815656
-3.941863
-0
-0
-0
-0
-0
-0
-0
-0
-0
-0
-3.441601
-3.492128
-3.562264
-3.654951
-3.773391
-0
-0
-0
-0
-0
-0
-0
-0
-0
-0
-3.30243
-3.350615
-3.417184
-3.504749
-3.616259
-0
-0
-0
-0
-0
-0
-0
-0
-0
-0
-3.174817
-3.220909
-3.284294
-3.367375
-3.47279
-0
-0
-0
-0
-0
-0
-0
-0
-0
-0
-3.059339
-3.103502
-3.164062
-3.243192
-3.343312
-0
-0
-0
-0
-0
-0
-0
-0
-0
-0
-6.493641
-6.64315
-6.86709
-7.189554
-7.64798
-0
-0
-6.172668
-6.303309
-6.49749
-6.773686
-7.157236
-0
-0
-0
-5.896525
-6.013535
-6.186673
-6.430415
-6.764319
-0
-0
-0
-0
-5.652447
-5.759204
-5.916417
-6.136253
-6.434086
-0
-0
-0
-0
-0
-5.427981
-5.526524
-5.671038
-5.871869
-6.141916
-0
-0
-0
-0
-0
-0
-5.210138
-5.301588
-5.435083
-5.61964
-5.866123
-0
-0
-0
-0
-0
-0
-0
-4.991893
-5.076796
-5.200165
-5.369805
-5.595037
-0
-0
-0
-0
-0
-0
-0
-0
-4.778936
-4.857921
-4.972164
-5.128492
-5.334877
-0
-0
-0
-0
-0
-0
-0
-0
-0
-4.576988
-4.650771
-4.756992
-4.901665
-5.091733
-0
-0
-0
-0
-0
-0
-0
-0
-0
-0
-4.388383
-4.457639
-4.556869
-4.691417
-4.867389
-0
-0
-0
-0
-0
-0
-0
-0
-0
-0
-0
-4.213141
-4.278469
-4.371599
-4.497337
-4.661102
-0
-0
-0
-0
-0
-0
-0
-0
-0
-0
-0
-0
-4.049959
-4.111821
-4.199606
-4.317613
-4.470712
-0
-0
-0
-0
-0
-0
-0
-0
-0
-0
-0
-0
-0
-3.896511
-3.955295
-4.038304
-4.149452
-4.293099
-0
-0
-0
-0
-0
-0
-0
-0
-0
-0
-0
-0
-0
-0
-3.749481
-3.805469
-3.884137
-3.989045
-4.124145
-0
-0
-0
-0
-0
-0
-0
-0
-0
-0
-0
-0
-0
-0
-0
-3.604764
-3.658134
-3.732722
-3.831783
-3.958896
-0
-0
-0
-0
-0
-0
-0
-0
-0
-0
-0
-0
-0
-0
-0
-0
-3.459944
-3.510808
-3.581475
-3.674915
-3.794385
-0
-0
-0
-0
-0
-0
-0
-0
-0
-0
-3.31907
-3.367537
-3.434558
-3.522764
-3.635136
-0
-0
-0
-0
-0
-0
-0
-0
-0
-0
-3.186753
-3.23304
-3.296728
-3.380249
-3.486253
-0
-0
-0
-0
-0
-0
-0
-0
-0
-0
-3.065318
-3.109582
-3.170294
-3.249639
-3.350053
-0
-0
-0
-0
-0
-0
-0
-0
-0
-0
-2.955287
-2.997764
-3.055769
-3.131415
-3.226905
-0
-0
-0
-0
-0
-0
-0
-0
-0
-0
-6.153716
-6.283234
-6.475744
-6.749435
-7.129161
-0
-0
-0
-5.864072
-5.979391
-6.150023
-6.390084
-6.718532
-0
-0
-0
-0
-5.612675
-5.717524
-5.871926
-6.087681
-6.37961
-0
-0
-0
-0
-0
-5.388951
-5.485688
-5.627549
-5.824566
-6.089164
-0
-0
-0
-0
-0
-0
-5.182001
-5.272128
-5.403696
-5.585496
-5.828081
-0
-0
-0
-0
-0
-0
-0
-4.980214
-5.064507
-5.186995
-5.355399
-5.578901
-0
-0
-0
-0
-0
-0
-0
-0
-4.777368
-4.856159
-4.970132
-5.126079
-5.331937
-0
-0
-0
-0
-0
-0
-0
-0
-0
-4.578817
-4.652566
-4.758745
-4.903362
-5.093347
-0
-0
-0
-0
-0
-0
-0
-0
-0
-0
-4.389981
-4.459242
-4.558484
-4.693051
-4.869046
-0
-0
-0
-0
-0
-0
-0
-0
-0
-0
-0
-4.213141
-4.278469
-4.371599
-4.497337
-4.661102
-0
-0
-0
-0
-0
-0
-0
-0
-0
-0
-0
-0
-4.048465
-4.110309
-4.198072
-4.316048
-4.469107
-0
-0
-0
-0
-0
-0
-0
-0
-0
-0
-0
-0
-0
-3.894789
-3.953553
-4.036537
-4.14766
-4.291277
-0
-0
-0
-0
-0
-0
-0
-0
-0
-0
-0
-0
-0
-0
-3.74999
-3.805994
-3.884694
-3.98966
-4.124856
-0
-0
-0
-0
-0
-0
-0
-0
-0
-0
-0
-0
-0
-0
-0
-3.610975
-3.664458
-3.739233
-3.83857
-3.966076
-0
-0
-0
-0
-0
-0
-0
-0
-0
-0
-0
-0
-0
-0
-0
-0
-3.473885
-3.524991
-3.596062
-3.690085
-3.810358
-0
-0
-0
-0
-0
-0
-0
-0
-0
-0
-0
-0
-0
-0
-0
-0
-0
-3.336488
-3.385247
-3.452743
-3.541637
-3.654938
-0
-0
-0
-0
-0
-0
-0
-0
-0
-0
-3.202594
-3.249135
-3.313225
-3.397333
-3.504127
-0
-0
-0
-0
-0
-0
-0
-0
-0
-0
-3.076701
-3.121143
-3.182132
-3.261873
-3.362829
-0
-0
-0
-0
-0
-0
-0
-0
-0
-0
-2.96099
-3.00356
-3.061707
-3.13755
-3.233305
-0
-0
-0
-0
-0
-0
-0
-0
-0
-0
-2.856058
-2.896928
-2.952562
-3.024886
-3.116039
-0
-0
-0
-0
-0
-0
-0
-0
-0
-0
-5.846953
-5.961398
-6.13074
-6.368916
-6.694586
-0
-0
-0
-0
-5.583163
-5.686668
-5.839089
-6.051974
-6.339773
-0
-0
-0
-0
-0
-5.352625
-5.447825
-5.587421
-5.781187
-6.041168
-0
-0
-0
-0
-0
-0
-5.146288
-5.234944
-5.364356
-5.543073
-5.781324
-0
-0
-0
-0
-0
-0
-0
-4.95449
-5.037716
-5.158629
-5.324801
-5.54518
-0
-0
-0
-0
-0
-0
-0
-0
-4.766776
-4.845086
-4.958359
-5.113312
-5.317797
-0
-0
-0
-0
-0
-0
-0
-0
-0
-4.577535
-4.651143
-4.757122
-4.901456
-5.091045
-0
-0
-0
-0
-0
-0
-0
-0
-0
-0
-4.391803
-4.461048
-4.560273
-4.694815
-4.870773
-0
-0
-0
-0
-0
-0
-0
-0
-0
-0
-0
-4.214689
-4.280028
-4.373176
-4.49894
-4.662738
-0
-0
-0
-0
-0
-0
-0
-0
-0
-0
-0
-0
-4.048465
-4.110309
-4.198072
-4.316048
-4.469107
-0
-0
-0
-0
-0
-0
-0
-0
-0
-0
-0
-0
-0
-3.893349
-3.952093
-4.035049
-4.146138
-4.28971
-0
-0
-0
-0
-0
-0
-0
-0
-0
-0
-0
-0
-0
-0
-3.748314
-3.804294
-3.882962
-3.98789
-4.123047
-0
-0
-0
-0
-0
-0
-0
-0
-0
-0
-0
-0
-0
-0
-0
-3.611407
-3.664895
-3.73969
-3.839065
-3.966635
-0
-0
-0
-0
-0
-0
-0
-0
-0
-0
-0
-0
-0
-0
-0
-0
-3.479739
-3.53093
-3.602161
-3.696425
-3.817035
-0
-0
-0
-0
-0
-0
-0
-0
-0
-0
-0
-0
-0
-0
-0
-0
-0
-3.349711
-3.398677
-3.466525
-3.555947
-3.669967
-0
-0
-0
-0
-0
-0
-0
-0
-0
-0
-0
-0
-0
-0
-0
-0
-0
-0
-3.219164
-3.265966
-3.330477
-3.415207
-3.522851
-0
-0
-0
-0
-0
-0
-0
-0
-0
-0
-3.091805
-3.136478
-3.197834
-3.278101
-3.379783
-0
-0
-0
-0
-0
-0
-0
-0
-0
-0
-2.971861
-3.014595
-3.072996
-3.149202
-3.245447
-0
-0
-0
-0
-0
-0
-0
-0
-0
-0
-2.861506
-2.902461
-2.958227
-3.030733
-3.12213
-0
-0
-0
-0
-0
-0
-0
-0
-0
-0
-2.761343
-2.800687
-2.854078
-2.923317
-3.010355
-0
-0
-0
-0
-0
-0
-0
-0
-0
-0
-5.567579
-5.670384
-5.821779
-6.033185
-6.318864
-0
-0
-0
-0
-0
-5.325604
-5.419713
-5.557702
-5.749165
-6.005886
-0
-0
-0
-0
-0
-0
-5.11291
-5.200303
-5.327854
-5.503914
-5.738445
-0
-0
-0
-0
-0
-0
-0
-4.921629
-5.00364
-5.122764
-5.286395
-5.503232
-0
-0
-0
-0
-0
-0
-0
-0
-4.74312
-4.820558
-4.932535
-5.08564
-5.287569
-0
-0
-0
-0
-0
-0
-0
-0
-0
-4.567865
-4.64109
-4.746504
-4.890038
-5.078512
-0
-0
-0
-0
-0
-0
-0
-0
-0
-0
-4.39075
-4.459892
-4.558969
-4.693302
-4.868964
-0
-0
-0
-0
-0
-0
-0
-0
-0
-0
-0
-4.21649
-4.281826
-4.374973
-4.500736
-4.664528
-0
-0
-0
-0
-0
-0
-0
-0
-0
-0
-0
-0
-4.049959
-4.111821
-4.199606
-4.317613
-4.470712
-0
-0
-0
-0
-0
-0
-0
-0
-0
-0
-0
-0
-0
-3.893349
-3.952093
-4.035049
-4.146138
-4.28971
-0
-0
-0
-0
-0
-0
-0
-0
-0
-0
-0
-0
-0
-0
-3.746928
-3.802886
-3.881524
-3.986412
-4.121523
-0
-0
-0
-0
-0
-0
-0
-0
-0
-0
-0
-0
-0
-0
-0
-3.609782
-3.663241
-3.738
-3.837331
-3.96485
-0
-0
-0
-0
-0
-0
-0
-0
-0
-0
-0
-0
-0
-0
-0
-0
-3.480116
-3.531297
-3.602536
-3.696826
-3.817479
-0
-0
-0
-0
-0
-0
-0
-0
-0
-0
-0
-0
-0
-0
-0
-0
-0
-3.355252
-3.404281
-3.472258
-3.561889
-3.676206
-0
-0
-0
-0
-0
-0
-0
-0
-0
-0
-0
-0
-0
-0
-0
-0
-0
-0
-3.231737
-3.278717
-3.343537
-3.428734
-3.537032
-0
-0
-0
-0
-0
-0
-0
-0
-0
-0
-0
-0
-0
-0
-0
-0
-0
-0
-0
-3.107596
-3.152505
-3.214242
-3.295067
-3.397519
-0
-0
-0
-0
-0
-0
-0
-0
-0
-0
-2.986283
-3.029229
-3.087966
-3.164655
-3.261555
-0
-0
-0
-0
-0
-0
-0
-0
-0
-0
-2.871902
-2.913006
-2.969008
-3.04185
-3.133698
-0
-0
-0
-0
-0
-0
-0
-0
-0
-0
-2.766554
-2.805977
-2.859488
-2.928897
-3.016161
-0
-0
-0
-0
-0
-0
-0
-0
-0
-0
-2.670967
-2.708754
-2.760025
-2.826354
-2.90957
-0
-0
-0
-0
-0
-0
-0
-0
-0
-0
-5.311325
-5.404863
-5.542014
-5.732282
-5.98732
-0
-0
-0
-0
-0
-0
-5.088029
-5.174521
-5.300743
-5.474908
-5.706792
-0
-0
-0
-0
-0
-0
-0
-4.890805
-4.971759
-5.089327
-5.250745
-5.46451
-0
-0
-0
-0
-0
-0
-0
-0
-4.712731
-4.789157
-4.899629
-5.050599
-5.24958
-0
-0
-0
-0
-0
-0
-0
-0
-0
-4.546
-4.618502
-4.722836
-4.864827
-5.051165
-0
-0
-0
-0
-0
-0
-0
-0
-0
-0
-4.38187
-4.450703
-4.549321
-4.682998
-4.857752
-0
-0
-0
-0
-0
-0
-0
-0
-0
-0
-0
-4.215625
-4.280884
-4.373923
-4.49953
-4.6631
-0
-0
-0
-0
-0
-0
-0
-0
-0
-0
-0
-0
-4.051724
-4.113598
-4.201394
-4.319415
-4.47253
-0
-0
-0
-0
-0
-0
-0
-0
-0
-0
-0
-0
-0
-3.894789
-3.953553
-4.036537
-4.14766
-4.291277
-0
-0
-0
-0
-0
-0
-0
-0
-0
-0
-0
-0
-0
-0
-3.746928
-3.802886
-3.881524
-3.986412
-4.121523
-0
-0
-0
-0
-0
-0
-0
-0
-0
-0
-0
-0
-0
-0
-0
-3.608449
-3.661884
-3.736613
-3.835903
-3.963372
-0
-0
-0
-0
-0
-0
-0
-0
-0
-0
-0
-0
-0
-0
-0
-0
-3.478548
-3.529692
-3.600892
-3.695135
-3.815732
-0
-0
-0
-0
-0
-0
-0
-0
-0
-0
-0
-0
-0
-0
-0
-0
-0
-3.355588
-3.404597
-3.472568
-3.562213
-3.676561
-0
-0
-0
-0
-0
-0
-0
-0
-0
-0
-0
-0
-0
-0
-0
-0
-0
-0
-3.236997
-3.284026
-3.348951
-3.434322
-3.542882
-0
-0
-0
-0
-0
-0
-0
-0
-0
-0
-0
-0
-0
-0
-0
-0
-0
-0
-0
-3.119574
-3.16464
-3.226651
-3.307891
-3.410929
-0
-0
-0
-0
-0
-0
-0
-0
-0
-0
-0
-0
-0
-0
-0
-0
-0
-0
-0
-0
-3.001355
-3.044514
-3.1036
-3.180796
-3.278394
-0
-0
-0
-0
-0
-0
-0
-0
-0
-0
-2.885695
-2.926991
-2.983302
-3.056589
-3.149039
-0
-0
-0
-0
-0
-0
-0
-0
-0
-0
-2.77651
-2.81607
-2.869797
-2.939517
-3.027199
-0
-0
-0
-0
-0
-0
-0
-0
-0
-0
-2.675958
-2.713817
-2.765199
-2.831685
-2.915111
-0
-0
-0
-0
-0
-0
-0
-0
-0
-0
-2.584673
-2.620969
-2.670128
-2.733717
-2.813337
-0
-0
-0
-0
-0
-0
-0
-0
-0
-0
-5.074874
-5.160891
-5.286416
-5.459594
-5.690104
-0
-0
-0
-0
-0
-0
-0
-4.867784
-4.947982
-5.064431
-5.224262
-5.435828
-0
-0
-0
-0
-0
-0
-0
-0
-4.684138
-4.759672
-4.86882
-5.017917
-5.214314
-0
-0
-0
-0
-0
-0
-0
-0
-0
-4.517774
-4.589422
-4.69248
-4.832653
-5.016492
-0
-0
-0
-0
-0
-0
-0
-0
-0
-0
-4.361569
-4.429798
-4.527503
-4.659877
-4.832829
-0
-0
-0
-0
-0
-0
-0
-0
-0
-0
-4.207432
-4.272436
-4.365097
-4.490161
-4.65298
-0
-0
-0
-0
-0
-0
-0
-0
-0
-0
-0
-0
-4.051005
-4.112831
-4.200546
-4.318451
-4.471399
-0
-0
-0
-0
-0
-0
-0
-0
-0
-0
-0
-0
-0
-3.896511
-3.955295
-4.038304
-4.149452
-4.293099
-0
-0
-0
-0
-0
-0
-0
-0
-0
-0
-0
-0
-0
-0
-3.748314
-3.804294
-3.882962
-3.98789
-4.123047
-0
-0
-0
-0
-0
-0
-0
-0
-0
-0
-0
-0
-0
-0
-0
-3.608449
-3.661884
-3.736613
-3.835903
-3.963372
-0
-0
-0
-0
-0
-0
-0
-0
-0
-0
-0
-0
-0
-0
-0
-0
-3.477268
-3.528386
-3.599554
-3.693756
-3.814303
-0
-0
-0
-0
-0
-0
-0
-0
-0
-0
-0
-0
-0
-0
-0
-0
-0
-3.35408
-3.403049
-3.470973
-3.560567
-3.674857
-0
-0
-0
-0
-0
-0
-0
-0
-0
-0
-0
-0
-0
-0
-0
-0
-0
-0
-3.237305
-3.284307
-3.349216
-3.434585
-3.543163
-0
-0
-0
-0
-0
-0
-0
-0
-0
-0
-0
-0
-0
-0
-0
-0
-0
-0
-0
-3.124582
-3.169685
-3.231783
-3.313171
-3.416431
-0
-0
-0
-0
-0
-0
-0
-0
-0
-0
-0
-0
-0
-0
-0
-0
-0
-0
-0
-0
-3.012786
-3.056085
-3.115418
-3.192988
-3.29111
-0
-0
-0
-0
-0
-0
-0
-0
-0
-0
-0
-0
-0
-0
-0
-0
-0
-0
-0
-0
-2.900105
-2.941592
-2.998223
-3.071975
-3.165064
-0
-0
-0
-0
-0
-0
-0
-0
-0
-0
-2.789719
-2.829454
-2.883465
-2.953596
-3.041835
-0
-0
-0
-0
-0
-0
-0
-0
-0
-0
-2.685506
-2.72349
-2.775072
-2.841845
-2.925659
-0
-0
-0
-0
-0
-0
-0
-0
-0
-0
-2.589457
-2.625822
-2.675084
-2.738818
-2.818632
-0
-0
-0
-0
-0
-0
-0
-0
-0
-0
-2.502322
-2.537089
-2.584241
-2.64514
-2.721379
-0
-0
-0
-0
-0
-0
-0
-0
-0
-0
-4.855608
-4.935405
-5.051266
-5.210265
-5.420684
-0
-0
-0
-0
-0
-0
-0
-0
-4.662752
-4.737639
-4.845833
-4.993579
-5.188117
-0
-0
-0
-0
-0
-0
-0
-0
-0
-4.491143
-4.562034
-4.663955
-4.802518
-4.984151
-0
-0
-0
-0
-0
-0
-0
-0
-0
-0
-4.335252
-4.402753
-4.499363
-4.630176
-4.800983
-0
-0
-0
-0
-0
-0
-0
-0
-0
-0
-4.188512
-4.253002
-4.344885
-4.468833
-4.630115
-0
-0
-0
-0
-0
-0
-0
-0
-0
-0
-4.043407
-4.105029
-4.192424
-4.309876
-4.462195
-0
-0
-0
-0
-0
-0
-0
-0
-0
-0
-0
-0
-0
-3.895906
-3.954664
-4.037621
-4.14868
-4.292202
-0
-0
-0
-0
-0
-0
-0
-0
-0
-0
-0
-0
-0
-0
-3.74999
-3.805994
-3.884694
-3.98966
-4.124856
-0
-0
-0
-0
-0
-0
-0
-0
-0
-0
-0
-0
-0
-0
-0
-3.609782
-3.663241
-3.738
-3.837331
-3.96485
-0
-0
-0
-0
-0
-0
-0
-0
-0
-0
-0
-0
-0
-0
-0
-0
-3.477268
-3.528386
-3.599554
-3.693756
-3.814303
-0
-0
-0
-0
-0
-0
-0
-0
-0
-0
-0
-0
-0
-0
-0
-0
-0
-3.352854
-3.401794
-3.469684
-3.559238
-3.673479
-0
-0
-0
-0
-0
-0
-0
-0
-0
-0
-0
-0
-0
-0
-0
-0
-0
-0
-3.235858
-3.282817
-3.347676
-3.432989
-3.541506
-0
-0
-0
-0
-0
-0
-0
-0
-0
-0
-0
-0
-0
-0
-0
-0
-0
-0
-0
-3.124869
-3.169942
-3.232017
-3.313392
-3.416655
-0
-0
-0
-0
-0
-0
-0
-0
-0
-0
-0
-0
-0
-0
-0
-0
-0
-0
-0
-0
-3.017566
-3.060893
-3.120299
-3.197996
-3.296311
-0
-0
-0
-0
-0
-0
-0
-0
-0
-0
-0
-0
-0
-0
-0
-0
-0
-0
-0
-0
-2.911035
-2.952643
-3.009498
-3.083591
-3.177155
-0
-0
-0
-0
-0
-0
-0
-0
-0
-0
-0
-0
-0
-0
-0
-0
-0
-0
-0
-0
-2.803518
-2.843424
-2.897726
-2.968287
-3.057113
-0
-0
-0
-0
-0
-0
-0
-0
-0
-0
-2.698174
-2.736317
-2.78816
-2.855312
-2.939642
-0
-0
-0
-0
-0
-0
-0
-0
-0
-0
-2.598622
-2.635104
-2.68455
-2.748551
-2.828724
-0
-0
-0
-0
-0
-0
-0
-0
-0
-0
-2.506915
-2.541743
-2.588992
-2.650027
-2.726446
-0
-0
-0
-0
-0
-0
-0
-0
-0
-0
-2.423724