/*--------------------------------*- C++ -*----------------------------------*\
| =========                 |                                                 |
| \\      /  F ield         | OpenFOAM: The Open Source CFD Toolbox           |
|  \\    /   O peration     | Version:  2306                                  |
|   \\  /    A nd           | Website:  www.openfoam.com                      |
|    \\/     M anipulation  |                                                 |
\*---------------------------------------------------------------------------*/
FoamFile
{
    version     2.0;
    format      ascii;
    arch        "LSB;label=32;scalar=64";
    class       volScalarField;
    location    "0.9/fuel";
    object      nernst;
}
// * * * * * * * * * * * * * * * * * * * * * * * * * * * * * * * * * * * * * //

dimensions      [1 2 -3 0 0 -1 0];

internalField   nonuniform List<scalar> 
16000
(
-1.773403
-1.774367
-1.759746
-1.773468
-1.776319
-1.76038
-1.774434
-1.747423
-1.759792
-1.773592
-1.779263
-1.761658
-1.77639
-1.747903
-1.760426
-1.774562
-1.737453
-1.747457
-1.759882
-1.773774
-1.783064
-1.763577
-1.779341
-1.748873
-1.761706
-1.776525
-1.737843
-1.747937
-1.760517
-1.774748
-1.729231
-1.737478
-1.747523
-1.760013
-1.774012
-1.78711
-1.766044
-1.783155
-1.750329
-1.763627
-1.779489
-1.73863
-1.748907
-1.761799
-1.776721
-1.72956
-1.737868
-1.748004
-1.76065
-1.774992
-1.72227
-1.729251
-1.73753
-1.747621
-1.760185
-1.774251
-1.79002
-1.768674
-1.787219
-1.752207
-1.766096
-1.783323
-1.739813
-1.750364
-1.763724
-1.779703
-1.730224
-1.738655
-1.748975
-1.761936
-1.776979
-1.722555
-1.72958
-1.73792
-1.748103
-1.760825
-1.775238
-1.716243
-1.722285
-1.729293
-1.737607
-1.747751
-1.760359
-1.774453
-1.791703
-1.770638
-1.790145
-1.754224
-1.768728
-1.787417
-1.741339
-1.752241
-1.766198
-1.783567
-1.73122
-1.739838
-1.750433
-1.763867
-1.779985
-1.723128
-1.730243
-1.738708
-1.749076
-1.762116
-1.777238
-1.716494
-1.72257
-1.729622
-1.737998
-1.748234
-1.761001
-1.775445
-1.710932
-1.716255
-1.72232
-1.729356
-1.73771
-1.747881
-1.760505
-1.774654
-1.792546
-1.771857
-1.791842
-1.755768
-1.770694
-1.790368
-1.742983
-1.754258
-1.768838
-1.787702
-1.732505
-1.741363
-1.752313
-1.766351
-1.783886
-1.723988
-1.731239
-1.739891
-1.750537
-1.764056
-1.780267
-1.716998
-1.723143
-1.730285
-1.738787
-1.749209
-1.762297
-1.777457
-1.711156
-1.716506
-1.722604
-1.729685
-1.738101
-1.748366
-1.761149
-1.775651
-1.706184
-1.710942
-1.716284
-1.722373
-1.72944
-1.737813
-1.747992
-1.76065
-1.774854
-1.792883
-1.772527
-1.792694
-1.756766
-1.771916
-1.792083
-1.744257
-1.7558
-1.770809
-1.790685
-1.733892
-1.743006
-1.754331
-1.769002
-1.788073
-1.725097
-1.732523
-1.741417
-1.75242
-1.766552
-1.784207
-1.717756
-1.724003
-1.731281
-1.739972
-1.750674
-1.764245
-1.780507
-1.711607
-1.717011
-1.723178
-1.730349
-1.738892
-1.749344
-1.76245
-1.777675
-1.706387
-1.711166
-1.716535
-1.722658
-1.72977
-1.738206
-1.748477
-1.761297
-1.775856
-1.701891
-1.706192
-1.710966
-1.71633
-1.722444
-1.729526
-1.737901
-1.748101
-1.760795
-1.775054
-1.792883
-1.772818
-1.793037
-1.75734
-1.772588
-1.792947
-1.745097
-1.756798
-1.772034
-1.792424
-1.734972
-1.744278
-1.755874
-1.77098
-1.791097
-1.726295
-1.733908
-1.74306
-1.754443
-1.769219
-1.788446
-1.718732
-1.725111
-1.732566
-1.741499
-1.752563
-1.766754
-1.78448
-1.712284
-1.717767
-1.724038
-1.731346
-1.740079
-1.750813
-1.764405
-1.780746
-1.706795
-1.711617
-1.71704
-1.723231
-1.730435
-1.738998
-1.749457
-1.762602
-1.777893
-1.702076
-1.706395
-1.711191
-1.716581
-1.722729
-1.729856
-1.738294
-1.748588
-1.761444
-1.776061
-1.69797
-1.701897
-1.706213
-1.711006
-1.716391
-1.722517
-1.729598
-1.737988
-1.74821
-1.760939
-1.776021
-1.792546
-1.772818
-1.793037
-1.7576
-1.77288
-1.793296
-1.745591
-1.757373
-1.772708
-1.793302
-1.735692
-1.745117
-1.756872
-1.77221
-1.792863
-1.727231
-1.734987
-1.744331
-1.755987
-1.771206
-1.791511
-1.719786
-1.726308
-1.73395
-1.743144
-1.754593
-1.769437
-1.788766
-1.713155
-1.718743
-1.725146
-1.732631
-1.741609
-1.752707
-1.766925
-1.784754
-1.707407
-1.712293
-1.717797
-1.724092
-1.731433
-1.740187
-1.75093
-1.764565
-1.780985
-1.702449
-1.706803
-1.711641
-1.717085
-1.723304
-1.730522
-1.739087
-1.74957
-1.762753
-1.77811
-1.698141
-1.702082
-1.706416
-1.71123
-1.716642
-1.722802
-1.729929
-1.738381
-1.748698
-1.76159
-1.777055
-1.694361
-1.697975
-1.701916
-1.706248
-1.71106
-1.716454
-1.722578
-1.729669
-1.738074
-1.748318
-1.761637
-1.776788
-1.791703
-1.772527
-1.792694
-1.7576
-1.77288
-1.793296
-1.745818
-1.757633
-1.773002
-1.793658
-1.736119
-1.745611
-1.757446
-1.772887
-1.79376
-1.727858
-1.735705
-1.745169
-1.756986
-1.772443
-1.793304
-1.720611
-1.727242
-1.735028
-1.744415
-1.75614
-1.771434
-1.791866
-1.714096
-1.719795
-1.726342
-1.734017
-1.743258
-1.754744
-1.769622
-1.789091
-1.708195
-1.713164
-1.718771
-1.7252
-1.73272
-1.74172
-1.752829
-1.767096
-1.78503
-1.703007
-1.707414
-1.712318
-1.717843
-1.724165
-1.731522
-1.740278
-1.751046
-1.764724
-1.781224
-1.698484
-1.702455
-1.706824
-1.711681
-1.717148
-1.723377
-1.730595
-1.739175
-1.749682
-1.762904
-1.779164
-1.694519
-1.698146
-1.702101
-1.706451
-1.711284
-1.716705
-1.722863
-1.730001
-1.738468
-1.748807
-1.762298
-1.77785
-1.691015
-1.694365
-1.697992
-1.701947
-1.706296
-1.711115
-1.716506
-1.722638
-1.72974
-1.73816
-1.748843
-1.762188
-1.777417
-1.79002
-1.771857
-1.791842
-1.75734
-1.772588
-1.792947
-1.745818
-1.757633
-1.773002
-1.793658
-1.736318
-1.745838
-1.757706
-1.773183
-1.794123
-1.728232
-1.736132
-1.745662
-1.757561
-1.773124
-1.794218
-1.721165
-1.727868
-1.735745
-1.745252
-1.757139
-1.772677
-1.793683
-1.714834
-1.720619
-1.727275
-1.735094
-1.744529
-1.756293
-1.771627
-1.792226
-1.709046
-1.714104
-1.719823
-1.726397
-1.734108
-1.743373
-1.754871
-1.769809
-1.789419
-1.703727
-1.708201
-1.713188
-1.718818
-1.725275
-1.73281
-1.741814
-1.75295
-1.767268
-1.785307
-1.698998
-1.703013
-1.707435
-1.712358
-1.717905
-1.724239
-1.731596
-1.740368
-1.751161
-1.764882
-1.782388
-1.694837
-1.698489
-1.702473
-1.706859
-1.711736
-1.717211
-1.723439
-1.730668
-1.739263
-1.749793
-1.763635
-1.780026
-1.691162
-1.694523
-1.698162
-1.702132
-1.706499
-1.711339
-1.716758
-1.722924
-1.730072
-1.738555
-1.749336
-1.762857
-1.778507
-1.687895
-1.691018
-1.69438
-1.69802
-1.70199
-1.706345
-1.711161
-1.716559
-1.722698
-1.729811
-1.738576
-1.749255
-1.762633
-1.777901
-1.78711
-1.770638
-1.790145
-1.756766
-1.771916
-1.792083
-1.745591
-1.757373
-1.772708
-1.793302
-1.736318
-1.745838
-1.757706
-1.773183
-1.794123
-1.728407
-1.73633
-1.745889
-1.757821
-1.773421
-1.79459
-1.721497
-1.728241
-1.736171
-1.745744
-1.757715
-1.773362
-1.794612
-1.715331
-1.721172
-1.727899
-1.73581
-1.745366
-1.757294
-1.772875
-1.794067
-1.709713
-1.71484
-1.720646
-1.727329
-1.735184
-1.744644
-1.756423
-1.771822
-1.792591
-1.704504
-1.709051
-1.714128
-1.71987
-1.726472
-1.7342
-1.743469
-1.755
-1.769998
-1.789752
-1.69966
-1.703732
-1.708222
-1.713228
-1.718881
-1.72535
-1.732886
-1.741907
-1.753072
-1.767439
-1.786663
-1.695314
-1.699003
-1.703032
-1.70747
-1.712412
-1.717969
-1.724301
-1.731669
-1.740458
-1.751276
-1.765652
-1.783394
-1.691459
-1.694841
-1.698505
-1.702504
-1.706907
-1.711791
-1.717264
-1.7235
-1.73074
-1.739351
-1.750333
-1.764216
-1.780755
-1.688033
-1.691166
-1.694538
-1.69819
-1.702175
-1.706548
-1.711385
-1.71681
-1.722984
-1.730143
-1.738973
-1.749751
-1.763311
-1.779017
-1.68497
-1.687897
-1.691032
-1.694405
-1.698058
-1.702034
-1.706386
-1.711206
-1.71661
-1.722758
-1.730153
-1.7389
-1.749586
-1.762971
-1.778235
-1.783064
-1.768674
-1.787219
-1.755768
-1.770694
-1.790368
-1.745097
-1.756798
-1.772034
-1.792424
-1.736119
-1.745611
-1.757446
-1.772887
-1.79376
-1.728407
-1.73633
-1.745889
-1.757821
-1.773421
-1.79459
-1.721652
-1.728415
-1.736368
-1.745971
-1.757976
-1.773661
-1.794992
-1.715629
-1.721503
-1.728272
-1.736235
-1.745858
-1.75787
-1.773563
-1.79501
-1.710163
-1.715336
-1.721197
-1.727952
-1.735899
-1.74548
-1.757424
-1.773074
-1.794454
-1.705114
-1.709718
-1.714863
-1.720691
-1.727404
-1.735276
-1.744741
-1.756553
-1.772019
-1.79296
-1.700376
-1.704508
-1.709072
-1.714168
-1.719934
-1.726549
-1.734278
-1.743566
-1.75513
-1.770188
-1.791397
-1.695928
-1.699665
-1.70375
-1.708258
-1.713284
-1.718946
-1.725413
-1.732961
-1.742
-1.753193
-1.768276
-1.787981
-1.691904
-1.695318
-1.699019
-1.703063
-1.707519
-1.712468
-1.718023
-1.724363
-1.731743
-1.740548
-1.751834
-1.766284
-1.784295
-1.688311
-1.691462
-1.694856
-1.698533
-1.702548
-1.706957
-1.711837
-1.717316
-1.72356
-1.730811
-1.739775
-1.750756
-1.764694
-1.781335
-1.6851
-1.688036
-1.691179
-1.694563
-1.698229
-1.702219
-1.706589
-1.711431
-1.716862
-1.723044
-1.730486
-1.739298
-1.750085
-1.763656
-1.779373
-1.682215
-1.684972
-1.687909
-1.691055
-1.69444
-1.698098
-1.70207
-1.706426
-1.711252
-1.716662
-1.723047
-1.730416
-1.739158
-1.749835
-1.763199
-1.779263
-1.766044
-1.783155
-1.754224
-1.768728
-1.787417
-1.744257
-1.7558
-1.770809
-1.790685
-1.735692
-1.745117
-1.756872
-1.77221
-1.792863
-1.728232
-1.736132
-1.745662
-1.757561
-1.773124
-1.794218
-1.721652
-1.728415
-1.736368
-1.745971
-1.757976
-1.773661
-1.794992
-1.715768
-1.721658
-1.728445
-1.736432
-1.746084
-1.758131
-1.773864
-1.795397
-1.710434
-1.715633
-1.721528
-1.728324
-1.736324
-1.745972
-1.758
-1.773765
-1.795411
-1.705526
-1.710167
-1.715358
-1.721242
-1.728026
-1.73599
-1.745576
-1.757555
-1.773275
-1.794846
-1.700938
-1.705117
-1.709737
-1.714902
-1.720755
-1.72748
-1.735353
-1.744838
-1.756685
-1.772218
-1.794784
-1.696591
-1.700379
-1.704526
-1.709107
-1.714224
-1.72
-1.726613
-1.734356
-1.743664
-1.75526
-1.771124
-1.793287
-1.692476
-1.695931
-1.699681
-1.703781
-1.708307
-1.71334
-1.719
-1.725476
-1.733036
-1.742093
-1.753784
-1.769029
-1.789317
-1.688727
-1.691907
-1.695332
-1.699047
-1.703106
-1.707569
-1.712515
-1.718076
-1.724425
-1.731815
-1.740982
-1.752281
-1.766826
-1.785052
-1.685361
-1.688313
-1.691475
-1.694881
-1.698572
-1.702592
-1.706997
-1.711883
-1.717369
-1.723621
-1.731158
-1.740103
-1.751099
-1.765061
-1.781748
-1.682338
-1.685102
-1.688048
-1.691202
-1.694598
-1.698269
-1.702255
-1.706629
-1.711476
-1.716913
-1.723334
-1.730749
-1.739557
-1.750336
-1.76389
-1.67961
-1.682217
-1.684983
-1.687931
-1.691087
-1.694477
-1.698131
-1.702106
-1.706466
-1.711297
-1.71691
-1.723264
-1.730624
-1.739351
-1.750002
-1.776319
-1.763577
-1.779341
-1.752207
-1.766096
-1.783323
-1.742983
-1.754258
-1.768838
-1.787702
-1.734972
-1.744278
-1.755874
-1.77098
-1.791097
-1.727858
-1.735705
-1.745169
-1.756986
-1.772443
-1.793304
-1.721497
-1.728241
-1.736171
-1.745744
-1.757715
-1.773362
-1.794612
-1.715768
-1.721658
-1.728445
-1.736432
-1.746084
-1.758131
-1.773864
-1.795397
-1.710561
-1.715772
-1.721682
-1.728497
-1.736521
-1.746198
-1.758261
-1.774068
-1.795805
-1.705774
-1.710437
-1.715654
-1.721572
-1.728397
-1.736414
-1.746067
-1.758131
-1.773969
-1.795816
-1.701318
-1.705528
-1.710186
-1.715396
-1.721305
-1.728101
-1.736066
-1.745672
-1.757686
-1.773478
-1.796775
-1.697113
-1.700941
-1.705134
-1.709772
-1.714958
-1.72082
-1.727543
-1.73543
-1.744936
-1.756818
-1.773195
-1.79684
-1.693095
-1.696594
-1.700395
-1.704557
-1.709157
-1.714281
-1.720055
-1.726678
-1.734434
-1.743763
-1.755902
-1.772114
-1.795633
-1.689264
-1.692479
-1.695945
-1.699709
-1.703825
-1.708357
-1.713387
-1.719054
-1.725539
-1.733112
-1.742546
-1.754298
-1.769757
-1.790604
-1.685753
-1.68873
-1.69192
-1.695357
-1.699086
-1.703151
-1.70761
-1.712561
-1.718128
-1.724486
-1.732168
-1.741322
-1.752656
-1.767259
-1.785613
-1.682585
-1.685363
-1.688325
-1.691498
-1.694917
-1.698612
-1.702628
-1.707038
-1.711929
-1.71742
-1.723912
-1.731422
-1.740366
-1.751357
-1.765309
-1.679726
-1.682339
-1.685113
-1.688069
-1.691235
-1.694635
-1.698302
-1.702292
-1.706669
-1.711521
-1.717163
-1.723551
-1.730957
-1.739749
-1.750502
-1.677138
-1.679611
-1.682227
-1.685002
-1.687961
-1.691121
-1.694507
-1.698164
-1.702142
-1.706506
-1.711514
-1.717094
-1.723435
-1.730777
-1.739478
-1.774367
-1.761658
-1.77639
-1.750329
-1.763627
-1.779489
-1.741339
-1.752241
-1.766198
-1.783567
-1.733892
-1.743006
-1.754331
-1.769002
-1.788073
-1.727231
-1.734987
-1.744331
-1.755987
-1.771206
-1.791511
-1.721165
-1.727868
-1.735745
-1.745252
-1.757139
-1.772677
-1.793683
-1.715629
-1.721503
-1.728272
-1.736235
-1.745858
-1.75787
-1.773563
-1.79501
-1.710561
-1.715772
-1.721682
-1.728497
-1.736521
-1.746198
-1.758261
-1.774068
-1.795805
-1.70589
-1.710563
-1.715793
-1.721726
-1.72857
-1.73661
-1.746293
-1.758392
-1.774273
-1.796216
-1.701548
-1.705776
-1.710455
-1.715692
-1.721634
-1.728471
-1.736489
-1.746162
-1.758263
-1.774173
-1.797809
-1.697466
-1.70132
-1.705545
-1.710219
-1.71545
-1.721369
-1.728163
-1.736141
-1.745769
-1.757819
-1.774471
-1.798864
-1.693582
-1.697115
-1.700956
-1.705165
-1.709821
-1.715014
-1.720874
-1.727607
-1.735508
-1.745035
-1.75747
-1.77421
-1.799285
-1.689844
-1.693097
-1.696608
-1.700423
-1.704602
-1.709208
-1.714329
-1.72011
-1.726743
-1.734513
-1.744248
-1.75656
-1.773296
-1.798648
-1.686258
-1.689266
-1.692492
-1.695971
-1.699748
-1.70387
-1.708398
-1.713434
-1.719107
-1.725602
-1.733477
-1.742931
-1.754784
-1.770419
-1.791684
-1.682955
-1.685755
-1.688742
-1.691943
-1.695393
-1.699127
-1.703187
-1.70765
-1.712607
-1.71818
-1.724781
-1.73244
-1.741604
-1.752947
-1.767556
-1.67996
-1.682586
-1.685374
-1.688346
-1.691531
-1.694953
-1.698645
-1.702665
-1.707078
-1.711974
-1.717671
-1.72413
-1.731631
-1.74056
-1.751527
-1.677248
-1.679728
-1.682349
-1.685132
-1.688099
-1.691268
-1.694665
-1.698335
-1.702328
-1.706709
-1.711739
-1.717345
-1.723721
-1.731109
-1.739874
-1.674784
-1.677139
-1.67962
-1.682245
-1.68503
-1.687992
-1.691148
-1.694536
-1.698196
-1.702178
-1.706698
-1.71167
-1.717236
-1.723559
-1.730876
-1.773403
-1.76038
-1.774434
-1.748873
-1.761706
-1.776525
-1.739813
-1.750364
-1.763724
-1.779703
-1.732505
-1.741363
-1.752313
-1.766351
-1.783886
-1.726295
-1.733908
-1.74306
-1.754443
-1.769219
-1.788446
-1.720611
-1.727242
-1.735028
-1.744415
-1.75614
-1.771434
-1.791866
-1.715331
-1.721172
-1.727899
-1.73581
-1.745366
-1.757294
-1.772875
-1.794067
-1.710434
-1.715633
-1.721528
-1.728324
-1.736324
-1.745972
-1.758
-1.773765
-1.795411
-1.70589
-1.710563
-1.715793
-1.721726
-1.72857
-1.73661
-1.746293
-1.758392
-1.774273
-1.796216
-1.701655
-1.705892
-1.710581
-1.715831
-1.721788
-1.728644
-1.736685
-1.746388
-1.758524
-1.774479
-1.79824
-1.697679
-1.701549
-1.705792
-1.710488
-1.715746
-1.721697
-1.728533
-1.736564
-1.746259
-1.758395
-1.775177
-1.799913
-1.693912
-1.697468
-1.701335
-1.705574
-1.710267
-1.715506
-1.721422
-1.728226
-1.736218
-1.745867
-1.758469
-1.775461
-1.801232
-1.690301
-1.693584
-1.697128
-1.700983
-1.705209
-1.709871
-1.715061
-1.720928
-1.727672
-1.735587
-1.74552
-1.758126
-1.775382
-1.802187
-1.686805
-1.689846
-1.69311
-1.696633
-1.700463
-1.704647
-1.70925
-1.714377
-1.720166
-1.726809
-1.734901
-1.744737
-1.757344
-1.774761
-1.802762
-1.683432
-1.68626
-1.689278
-1.692515
-1.696007
-1.699789
-1.703907
-1.708439
-1.713481
-1.719161
-1.725907
-1.733781
-1.74329
-1.755213
-1.770933
-1.680311
-1.682956
-1.685766
-1.688763
-1.691975
-1.69543
-1.69916
-1.703224
-1.707691
-1.712652
-1.718434
-1.725004
-1.732661
-1.741817
-1.753135
-1.677471
-1.679962
-1.682596
-1.685394
-1.688377
-1.691565
-1.694983
-1.698678
-1.702701
-1.707118
-1.712192
-1.717853
-1.7243
-1.731783
-1.740684
-1.674889
-1.677249
-1.679737
-1.682367
-1.68516
-1.68813
-1.691296
-1.694695
-1.698367
-1.702363
-1.706902
-1.711895
-1.717487
-1.723844
-1.731205
-1.672536
-1.674785
-1.677147
-1.679637
-1.682271
-1.685059
-1.688017
-1.691175
-1.694566
-1.698228
-1.70235
-1.706833
-1.71179
-1.717337
-1.723636
-1.759746
-1.773468
-1.747903
-1.760426
-1.774562
-1.73863
-1.748907
-1.761799
-1.776721
-1.73122
-1.739838
-1.750433
-1.763867
-1.779985
-1.725097
-1.732523
-1.741417
-1.75242
-1.766552
-1.784207
-1.719786
-1.726308
-1.73395
-1.743144
-1.754593
-1.769437
-1.788766
-1.714834
-1.720619
-1.727275
-1.735094
-1.744529
-1.756293
-1.771627
-1.792226
-1.710163
-1.715336
-1.721197
-1.727952
-1.735899
-1.74548
-1.757424
-1.773074
-1.794454
-1.705774
-1.710437
-1.715654
-1.721572
-1.728397
-1.736414
-1.746067
-1.758131
-1.773969
-1.795816
-1.701655
-1.705892
-1.710581
-1.715831
-1.721788
-1.728644
-1.736685
-1.746388
-1.758524
-1.774479
-1.79824
-1.697779
-1.701656
-1.705907
-1.710614
-1.715884
-1.721851
-1.728705
-1.736759
-1.746484
-1.758656
-1.775488
-1.800353
-1.694112
-1.69768
-1.701563
-1.705821
-1.710536
-1.715801
-1.721749
-1.728594
-1.736639
-1.746355
-1.759043
-1.77615
-1.802226
-1.690611
-1.693913
-1.69748
-1.701361
-1.705618
-1.710317
-1.715552
-1.721475
-1.728289
-1.736295
-1.746345
-1.759092
-1.776557
-1.8039
-1.687235
-1.690302
-1.693596
-1.697153
-1.701023
-1.705254
-1.709912
-1.715109
-1.720983
-1.727737
-1.735972
-1.746
-1.758886
-1.776729
-1.805614
-1.683949
-1.686806
-1.689857
-1.693133
-1.69667
-1.700505
-1.704685
-1.709292
-1.714426
-1.720222
-1.727131
-1.735287
-1.745319
-1.758312
-1.776682
-1.810146
-1.680764
-1.683433
-1.68627
-1.689299
-1.692548
-1.696044
-1.699822
-1.703944
-1.708481
-1.713527
-1.719421
-1.726155
-1.734062
-1.743601
-1.755525
-1.677804
-1.680312
-1.682966
-1.685785
-1.688793
-1.692009
-1.69546
-1.699193
-1.70326
-1.707731
-1.712873
-1.718619
-1.725183
-1.732825
-1.741948
-1.675101
-1.677472
-1.679971
-1.682614
-1.685422
-1.688408
-1.691592
-1.695013
-1.698711
-1.702737
-1.707311
-1.712347
-1.717994
-1.724421
-1.731876
-1.672637
-1.67489
-1.677258
-1.679754
-1.682393
-1.685189
-1.688155
-1.691323
-1.694724
-1.698399
-1.702535
-1.707036
-1.712013
-1.717586
-1.723918
-1.670384
-1.672537
-1.674792
-1.677163
-1.679662
-1.682298
-1.685082
-1.688042
-1.691202
-1.694595
-1.698383
-1.702466
-1.706934
-1.711873
-1.717397
-1.747423
-1.759792
-1.773592
-1.737843
-1.747937
-1.760517
-1.774748
-1.730224
-1.738655
-1.748975
-1.761936
-1.776979
-1.723988
-1.731239
-1.739891
-1.750537
-1.764056
-1.780267
-1.718732
-1.725111
-1.732566
-1.741499
-1.752563
-1.766754
-1.78448
-1.714096
-1.719795
-1.726342
-1.734017
-1.743258
-1.754744
-1.769622
-1.789091
-1.709713
-1.71484
-1.720646
-1.727329
-1.735184
-1.744644
-1.756423
-1.771822
-1.792591
-1.705526
-1.710167
-1.715358
-1.721242
-1.728026
-1.73599
-1.745576
-1.757555
-1.773275
-1.794846
-1.701548
-1.705776
-1.710455
-1.715692
-1.721634
-1.728471
-1.736489
-1.746162
-1.758263
-1.774173
-1.797809
-1.697779
-1.701656
-1.705907
-1.710614
-1.715884
-1.721851
-1.728705
-1.736759
-1.746484
-1.758656
-1.775488
-1.800353
-1.694205
-1.69778
-1.70167
-1.705937
-1.710661
-1.715939
-1.721902
-1.728766
-1.736834
-1.74658
-1.759303
-1.776454
-1.802644
-1.690799
-1.694112
-1.697693
-1.701589
-1.705864
-1.710584
-1.715846
-1.721802
-1.728656
-1.736715
-1.746828
-1.759644
-1.777196
-1.804762
-1.687528
-1.690612
-1.693924
-1.697505
-1.7014
-1.705662
-1.710357
-1.715598
-1.721528
-1.728352
-1.736671
-1.746792
-1.759787
-1.777755
-1.80688
-1.684356
-1.687236
-1.690313
-1.693618
-1.697189
-1.701064
-1.705291
-1.709954
-1.715156
-1.721039
-1.728055
-1.736346
-1.746557
-1.75976
-1.778261
-1.810429
-1.681253
-1.683949
-1.686816
-1.689878
-1.693166
-1.696708
-1.700539
-1.704723
-1.709335
-1.714474
-1.720496
-1.727447
-1.735748
-1.746039
-1.759575
-1.779941
-1.814514
-1.678234
-1.680764
-1.683443
-1.68629
-1.689329
-1.692582
-1.696074
-1.699856
-1.703981
-1.708522
-1.713753
-1.719628
-1.726382
-1.734301
-1.743815
-1.675419
-1.677805
-1.680321
-1.682984
-1.685813
-1.688824
-1.692037
-1.69549
-1.699225
-1.703296
-1.707926
-1.71303
-1.718767
-1.725312
-1.732921
-1.672839
-1.675102
-1.67748
-1.679987
-1.68264
-1.68545
-1.688433
-1.69162
-1.695043
-1.698743
-1.702909
-1.707444
-1.712465
-1.718091
-1.724491
-1.67048
-1.672637
-1.674898
-1.677273
-1.679778
-1.68242
-1.685212
-1.68818
-1.69135
-1.694754
-1.698554
-1.702651
-1.707136
-1.712095
-1.717644
-1.668318
-1.670384
-1.672544
-1.674807
-1.677186
-1.679687
-1.682319
-1.685106
-1.688067
-1.691229
-1.694736
-1.698486
-1.702553
-1.707003
-1.711919
-1.737453
-1.747457
-1.759882
-1.773774
-1.72956
-1.737868
-1.748004
-1.76065
-1.774992
-1.723128
-1.730243
-1.738708
-1.749076
-1.762116
-1.777238
-1.717756
-1.724003
-1.731281
-1.739972
-1.750674
-1.764245
-1.780507
-1.713155
-1.718743
-1.725146
-1.732631
-1.741609
-1.752707
-1.766925
-1.784754
-1.709046
-1.714104
-1.719823
-1.726397
-1.734108
-1.743373
-1.754871
-1.769809
-1.789419
-1.705114
-1.709718
-1.714863
-1.720691
-1.727404
-1.735276
-1.744741
-1.756553
-1.772019
-1.79296
-1.701318
-1.705528
-1.710186
-1.715396
-1.721305
-1.728101
-1.736066
-1.745672
-1.757686
-1.773478
-1.796775
-1.697679
-1.701549
-1.705792
-1.710488
-1.715746
-1.721697
-1.728533
-1.736564
-1.746259
-1.758395
-1.775177
-1.799913
-1.694205
-1.69778
-1.70167
-1.705937
-1.710661
-1.715939
-1.721902
-1.728766
-1.736834
-1.74658
-1.759303
-1.776454
-1.802644
-1.690887
-1.694205
-1.697792
-1.701696
-1.705979
-1.71071
-1.715984
-1.721954
-1.728828
-1.73691
-1.74705
-1.759895
-1.77748
-1.805128
-1.687705
-1.690799
-1.694123
-1.697716
-1.701628
-1.705907
-1.710624
-1.715891
-1.721854
-1.728719
-1.737085
-1.747253
-1.760296
-1.778313
-1.807533
-1.684633
-1.687528
-1.690622
-1.693947
-1.69754
-1.70144
-1.705698
-1.710398
-1.715644
-1.721582
-1.728662
-1.737018
-1.747295
-1.76055
-1.77905
-1.810892
-1.68164
-1.684356
-1.687246
-1.690334
-1.693651
-1.697227
-1.701097
-1.705328
-1.709996
-1.715204
-1.721309
-1.728361
-1.736784
-1.7472
-1.760751
-1.780312
-1.814187
-1.6787
-1.681254
-1.683959
-1.686836
-1.689909
-1.693201
-1.696739
-1.700573
-1.704761
-1.709378
-1.714713
-1.720763
-1.727827
-1.736319
-1.74698
-1.761676
-1.781891
-1.817894
-1.675829
-1.678235
-1.680773
-1.683461
-1.686318
-1.689361
-1.692609
-1.696104
-1.699889
-1.704018
-1.708721
-1.713929
-1.719817
-1.726572
-1.734457
-1.673143
-1.675419
-1.677813
-1.680338
-1.68301
-1.685842
-1.688849
-1.692064
-1.69552
-1.699258
-1.703469
-1.70806
-1.713153
-1.71887
-1.725383
-1.670674
-1.672839
-1.675109
-1.677496
-1.680012
-1.682667
-1.685474
-1.688458
-1.691647
-1.695072
-1.698898
-1.703024
-1.707543
-1.712544
-1.718145
-1.668411
-1.67048
-1.672644
-1.674912
-1.677296
-1.679803
-1.682442
-1.685236
-1.688205
-1.691377
-1.694894
-1.698656
-1.702737
-1.707203
-1.712139
-1.666331
-1.668318
-1.670391
-1.672558
-1.674829
-1.67721
-1.679707
-1.682341
-1.685129
-1.688092
-1.691358
-1.694826
-1.69856
-1.70261
-1.707038
-1.729231
-1.737478
-1.747523
-1.760013
-1.774012
-1.722555
-1.72958
-1.73792
-1.748103
-1.760825
-1.775238
-1.716998
-1.723143
-1.730285
-1.738787
-1.749209
-1.762297
-1.777457
-1.712284
-1.717767
-1.724038
-1.731346
-1.740079
-1.750813
-1.764405
-1.780746
-1.708195
-1.713164
-1.718771
-1.7252
-1.73272
-1.74172
-1.752829
-1.767096
-1.78503
-1.704504
-1.709051
-1.714128
-1.71987
-1.726472
-1.7342
-1.743469
-1.755
-1.769998
-1.789752
-1.700938
-1.705117
-1.709737
-1.714902
-1.720755
-1.72748
-1.735353
-1.744838
-1.756685
-1.772218
-1.794784
-1.697466
-1.70132
-1.705545
-1.710219
-1.71545
-1.721369
-1.728163
-1.736141
-1.745769
-1.757819
-1.774471
-1.798864
-1.694112
-1.69768
-1.701563
-1.705821
-1.710536
-1.715801
-1.721749
-1.728594
-1.736639
-1.746355
-1.759043
-1.77615
-1.802226
-1.690887
-1.694205
-1.697792
-1.701696
-1.705979
-1.71071
-1.715984
-1.721954
-1.728828
-1.73691
-1.74705
-1.759895
-1.77748
-1.805128
-1.687788
-1.690887
-1.694216
-1.697816
-1.701734
-1.706022
-1.710749
-1.716029
-1.722006
-1.728889
-1.737277
-1.747465
-1.760529
-1.778564
-1.807818
-1.684801
-1.687704
-1.690809
-1.694145
-1.697752
-1.701667
-1.705943
-1.710664
-1.715937
-1.721907
-1.729023
-1.737412
-1.747719
-1.760997
-1.779495
-1.811229
-1.681903
-1.684633
-1.687537
-1.690642
-1.693979
-1.697576
-1.701473
-1.705734
-1.710439
-1.715691
-1.721845
-1.728943
-1.737409
-1.747849
-1.761374
-1.780714
-1.814219
-1.679068
-1.68164
-1.684365
-1.687265
-1.690365
-1.693685
-1.697257
-1.701131
-1.705366
-1.710039
-1.715439
-1.721566
-1.72872
-1.737291
-1.747931
-1.762045
-1.781983
-1.817403
-1.676273
-1.6787
-1.681262
-1.683977
-1.686864
-1.689941
-1.693229
-1.69677
-1.700607
-1.7048
-1.709588
-1.714941
-1.721084
-1.728299
-1.737067
-1.748526
-1.762911
-1.783457
-1.82062
-1.673534
-1.675829
-1.678243
-1.68079
-1.683487
-1.686347
-1.689386
-1.692637
-1.696135
-1.699922
-1.704195
-1.708872
-1.714088
-1.719971
-1.72669
-1.670964
-1.673143
-1.675427
-1.677829
-1.680363
-1.683037
-1.685866
-1.688875
-1.692091
-1.695549
-1.699414
-1.703586
-1.708164
-1.713237
-1.718923
-1.668596
-1.670674
-1.672847
-1.675124
-1.677519
-1.680037
-1.682689
-1.685497
-1.688483
-1.691673
-1.695213
-1.698998
-1.703108
-1.707608
-1.712584
-1.66642
-1.668411
-1.670487
-1.672658
-1.674934
-1.67732
-1.679824
-1.682464
-1.685259
-1.68823
-1.691506
-1.694984
-1.698729
-1.702792
-1.707236
-1.664416
-1.666331
-1.668325
-1.670404
-1.672578
-1.674851
-1.677229
-1.679728
-1.682363
-1.685152
-1.68821
-1.691438
-1.694891
-1.698607
-1.702637
-1.72227
-1.729251
-1.73753
-1.747621
-1.760185
-1.774251
-1.716494
-1.72257
-1.729622
-1.737998
-1.748234
-1.761001
-1.775445
-1.711607
-1.717011
-1.723178
-1.730349
-1.738892
-1.749344
-1.76245
-1.777675
-1.707407
-1.712293
-1.717797
-1.724092
-1.731433
-1.740187
-1.75093
-1.764565
-1.780985
-1.703727
-1.708201
-1.713188
-1.718818
-1.725275
-1.73281
-1.741814
-1.75295
-1.767268
-1.785307
-1.700376
-1.704508
-1.709072
-1.714168
-1.719934
-1.726549
-1.734278
-1.743566
-1.75513
-1.770188
-1.791397
-1.697113
-1.700941
-1.705134
-1.709772
-1.714958
-1.72082
-1.727543
-1.73543
-1.744936
-1.756818
-1.773195
-1.79684
-1.693912
-1.697468
-1.701335
-1.705574
-1.710267
-1.715506
-1.721422
-1.728226
-1.736218
-1.745867
-1.758469
-1.775461
-1.801232
-1.690799
-1.694112
-1.697693
-1.701589
-1.705864
-1.710584
-1.715846
-1.721802
-1.728656
-1.736715
-1.746828
-1.759644
-1.777196
-1.804762
-1.687788
-1.690887
-1.694216
-1.697816
-1.701734
-1.706022
-1.710749
-1.716029
-1.722006
-1.728889
-1.737277
-1.747465
-1.760529
-1.778564
-1.807818
-1.684879
-1.687787
-1.690896
-1.694238
-1.697851
-1.701773
-1.706057
-1.710789
-1.716074
-1.722059
-1.72919
-1.737594
-1.747916
-1.761203
-1.779701
-1.811398
-1.682063
-1.6848
-1.687714
-1.690829
-1.694177
-1.697787
-1.701699
-1.705978
-1.710704
-1.715983
-1.722164
-1.729286
-1.737772
-1.748223
-1.76174
-1.781002
-1.814328
-1.679319
-1.681903
-1.684641
-1.687556
-1.690672
-1.694013
-1.697606
-1.701506
-1.705771
-1.71048
-1.715919
-1.72208
-1.729261
-1.737842
-1.74845
-1.762403
-1.782187
-1.817225
-1.676625
-1.679068
-1.681648
-1.684383
-1.687293
-1.690396
-1.693713
-1.697288
-1.701165
-1.705404
-1.710246
-1.71566
-1.72187
-1.729137
-1.737869
-1.748867
-1.763073
-1.783473
-1.820107
-1.673959
-1.676273
-1.678708
-1.681279
-1.684004
-1.686894
-1.689967
-1.693258
-1.696801
-1.700642
-1.704987
-1.709787
-1.715218
-1.721484
-1.728919
-1.738286
-1.749424
-1.763904
-1.784762
-1.822834
-1.671339
-1.673534
-1.675837
-1.678259
-1.680815
-1.683514
-1.686371
-1.689412
-1.692665
-1.696165
-1.700082
-1.704327
-1.709007
-1.714216
-1.720062
-1.668875
-1.670964
-1.67315
-1.675442
-1.677852
-1.680388
-1.683059
-1.685889
-1.6889
-1.692118
-1.695691
-1.699515
-1.703674
-1.708232
-1.713275
-1.666598
-1.668596
-1.670681
-1.672861
-1.675146
-1.677542
-1.680058
-1.682711
-1.68552
-1.688508
-1.691802
-1.695301
-1.69907
-1.703161
-1.707637
-1.664502
-1.66642
-1.668417
-1.6705
-1.672679
-1.674956
-1.677339
-1.679844
-1.682485
-1.685282
-1.688348
-1.691585
-1.695047
-1.698775
-1.702817
-1.662567
-1.664416
-1.666337
-1.668337
-1.670424
-1.672599
-1.674869
-1.677248
-1.679748
-1.682384
-1.685261
-1.688282
-1.691494
-1.69493
-1.698627
-1.716243
-1.722285
-1.729293
-1.737607
-1.747751
-1.760359
-1.774453
-1.711156
-1.716506
-1.722604
-1.729685
-1.738101
-1.748366
-1.761149
-1.775651
-1.706795
-1.711617
-1.71704
-1.723231
-1.730435
-1.738998
-1.749457
-1.762602
-1.777893
-1.703007
-1.707414
-1.712318
-1.717843
-1.724165
-1.731522
-1.740278
-1.751046
-1.764724
-1.781224
-1.69966
-1.703732
-1.708222
-1.713228
-1.718881
-1.72535
-1.732886
-1.741907
-1.753072
-1.767439
-1.786663
-1.696591
-1.700379
-1.704526
-1.709107
-1.714224
-1.72
-1.726613
-1.734356
-1.743664
-1.75526
-1.771124
-1.793287
-1.693582
-1.697115
-1.700956
-1.705165
-1.709821
-1.715014
-1.720874
-1.727607
-1.735508
-1.745035
-1.75747
-1.77421
-1.799285
-1.690611
-1.693913
-1.69748
-1.701361
-1.705618
-1.710317
-1.715552
-1.721475
-1.728289
-1.736295
-1.746345
-1.759092
-1.776557
-1.8039
-1.687705
-1.690799
-1.694123
-1.697716
-1.701628
-1.705907
-1.710624
-1.715891
-1.721854
-1.728719
-1.737085
-1.747253
-1.760296
-1.778313
-1.807533
-1.684879
-1.687787
-1.690896
-1.694238
-1.697851
-1.701773
-1.706057
-1.710789
-1.716074
-1.722059
-1.72919
-1.737594
-1.747916
-1.761203
-1.779701
-1.811398
-1.682138
-1.684879
-1.687796
-1.690916
-1.69427
-1.697886
-1.701805
-1.706093
-1.710829
-1.716119
-1.722313
-1.729446
-1.737941
-1.748398
-1.761914
-1.781149
-1.814402
-1.679471
-1.682062
-1.684808
-1.687732
-1.690858
-1.69421
-1.697817
-1.701731
-1.706014
-1.710745
-1.716206
-1.722384
-1.729578
-1.738163
-1.748761
-1.762657
-1.782369
-1.817187
-1.676864
-1.679318
-1.681911
-1.684659
-1.687584
-1.690703
-1.69404
-1.697636
-1.701539
-1.705808
-1.710681
-1.71612
-1.722348
-1.729617
-1.738314
-1.749182
-1.763287
-1.783584
-1.819846
-1.674295
-1.676624
-1.679076
-1.681665
-1.68441
-1.687323
-1.690422
-1.693742
-1.697319
-1.701199
-1.705588
-1.710438
-1.715922
-1.722223
-1.729614
-1.738598
-1.749596
-1.763996
-1.784763
-1.82235
-1.671746
-1.673959
-1.676281
-1.678724
-1.681305
-1.684032
-1.686918
-1.689994
-1.693287
-1.696833
-1.700811
-1.705163
-1.71003
-1.715565
-1.722013
-1.729921
-1.738988
-1.750148
-1.764728
-1.785844
-1.82461
-1.669235
-1.671339
-1.673541
-1.675851
-1.678282
-1.68084
-1.683537
-1.686395
-1.689437
-1.692692
-1.69631
-1.700197
-1.704443
-1.709114
-1.714286
-1.666866
-1.668875
-1.670971
-1.673164
-1.675463
-1.677876
-1.680408
-1.683081
-1.685912
-1.688924
-1.692248
-1.69578