/*--------------------------------*- C++ -*----------------------------------*\
| =========                 |                                                 |
| \\      /  F ield         | OpenFOAM: The Open Source CFD Toolbox           |
|  \\    /   O peration     | Version:  2306                                  |
|   \\  /    A nd           | Website:  www.openfoam.com                      |
|    \\/     M anipulation  |                                                 |
\*---------------------------------------------------------------------------*/
FoamFile
{
    version     2.0;
    format      ascii;
    arch        "LSB;label=32;scalar=64";
    class       volScalarField;
    location    "0.9/fuel";
    object      p;
}
// * * * * * * * * * * * * * * * * * * * * * * * * * * * * * * * * * * * * * //

dimensions      [1 -1 -2 0 0 0 0];

internalField   nonuniform List<scalar> 
16000
(
100604.7
100597.2
100503.3
100585
100583.6
100495.7
100577.1
100422.6
100487
100541.8
100559.9
100481.7
100563
100415.8
100479.2
100533.3
100361.9
100409
100451.1
100491.7
100537.5
100457.8
100538.3
100403.2
100464.8
100517.9
100355.9
100402.1
100443
100482.5
100316
100350.3
100379.2
100409.5
100387.5
100492.8
100433.5
100514.7
100381.9
100440.4
100491.2
100344.7
100389.2
100427.9
100465.6
100310.7
100344.3
100372
100401
100376.7
100280
100306
100324.9
100344.5
100322.9
100367.5
100484.7
100390.5
100468.6
100359.8
100415.4
100465
100326.1
100367.6
100402.4
100436.6
100300.8
100332.9
100358.6
100385
100356.7
100275.3
100300.6
100318.6
100337
100313.4
100356.5
100251.1
100271.2
100284
100295.4
100272.2
100306.3
100361.2
100478.1
100378.6
100459.5
100322.3
100371.7
100415.9
100306.5
100345
100375.9
100407.3
100284.3
100314
100336.2
100358.2
100322.9
100266.4
100290.6
100306.9
100323
100295.6
100335.9
100246.8
100266.4
100278.4
100288.9
100264.1
100296.7
100350.1
100227.2
100243.2
100251.8
100258.3
100233.8
100258.4
100301.1
100350.5
100477.3
100369.7
100452.3
100310.8
100359.3
100404.6
100274
100307.1
100330.7
100354.8
100266.9
100294.1
100312.7
100330.1
100287.3
100251.6
100273.9
100287.5
100299.8
100266.1
100301.2
100238.8
100257.4
100268.1
100276.7
100248.9
100278.6
100329.2
100223.3
100238.9
100246.9
100252.6
100226.8
100250.2
100291.4
100339.2
100207.2
100220.2
100225.9
100229.2
100204.8
100222
100254
100292.2
100341.5
100476.9
100367
100451.1
100302.5
100350.2
100396.1
100263.6
100295.4
100317.3
100341.1
100238.4
100261.2
100273.7
100283.1
100227.6
100236
100256.2
100266.9
100275.2
100234.7
100264.4
100225.5
100242.5
100251
100256.6
100223.9
100248.5
100294.2
100216
100230.8
100237.6
100241.9
100213.8
100234.7
100273.1
100318
100203.6
100216.2
100221.5
100224.1
100198.7
100214.9
100245.8
100282.4
100330.1
100190.1
100200.8
100204.6
100205.8
100182.1
100194.6
100218.2
100246.6
100284.7
100330.4
100476.9
100365.7
100450.6
100299.6
100347.3
100394.2
100256.2
100286.8
100307.5
100331
100229.1
100250.7
100261.4
100268.5
100208.7
100210.7
100227.5
100233.3
100235.1
100183.9
100203.3
100211.4
100226.7
100232.8
100235.3
100197
100216.4
100257.1
100204
100217.4
100222.4
100224.3
100192.3
100209.3
100242.9
100282.5
100196.9
100208.9
100213.2
100214.7
100187.4
100201.7
100230.2
100263.9
100308.7
100186.8
100197.2
100200.6
100201.3
100176.7
100188.4
100211.2
100238.3
100274.9
100318.8
100175.4
100184.3
100186.7
100186.5
100163.8
100173
100191.3
100211.9
100240.4
100275.5
100302.2
100477.3
100365.7
100450.6
100298.3
100346
100393.3
100253.4
100283.9
100304.3
100328.2
100222.4
100243.1
100252.5
100258
100195.4
100202.4
100218
100222.3
100222
100166.8
100183.4
100188.8
100201.2
100203.5
100200.9
100154.5
100164.9
100195.5
100191.2
100203.1
100206.2
100205.6
100169.3
100182.1
100210.6
100244.7
100186
100196.7
100199.6
100199
100168.7
100180
100204.7
100233.5
100272.8
100180.7
100190.5
100193.1
100192.8
100166.7
100176.9
100197.9
100222.6
100256.3
100297.1
100172.4
100181
100183.1
100182.4
100159.1
100167.6
100185.2
100204.8
100232
100265.5
100290.2
100162.5
100170.1
100171.5
100170.4
100148.8
100155.8
100170.2
100185.8
100206.6
100232.7
100252.1
100308.8
100478.1
100367
100451.1
100298.3
100346
100393.3
100252.2
100282.5
100302.8
100326.9
100219.9
100240.4
100249.3
100254.4
100190.8
100196.3
100211.2
100214.5
100212.7
100154.8
100169.4
100181.2
100192.7
100193.7
100189.4
100139.9
100147.4
100175.3
100170.7
100180.4
100180.3
100175.6
100133.2
100139.1
100158.9
100182.3
100174.2
100183.8
100185
100182.4
100148.8
100156.7
100177.3
100200.8
100234.4
100170.6
100179.4
100180.7
100178.8
100150.3
100158.1
100176.1
100196.9
100225.6
100260.6
100166.7
100174.8
100176.2
100174.7
100150.1
100157.5
100173.6
100191.4
100216.3
100246.8
100267.6
100159.7
100167
100168.1
100166.6
100144.5
100151
100164.8
100179.6
100199.5
100224.3
100241.9
100296.9
100151.1
100157.6
100158.3
100156.5
100136.1
100141.5
100153.2
100165.3
100181.2
100200.1
100213.2
100257.6
100298
100484.7
100369.7
100452.3
100299.6
100347.3
100394.2
100252.2
100282.5
100302.8
100326.9
100218.8
100239.1
100247.9
100252.7
100188.7
100194.1
100208.7
100211.6
100209.3
100150.4
100164.5
100175.7
100186.7
100186.8
100181.3
100129.7
100135.1
100161.2
100163.8
100172.7
100171.6
100165.5
100120.7
100124.2
100141.1
100161.6
100155.7
100163.2
100161.9
100156
100117.5
100120.3
100134.1
100148.6
100171.2
100159.9
100167.6
100167.5
100163.9
100132.6
100137.9
100152.7
100169.3
100192.6
100221.5
100157.4
100164.7
100165
100162.1
100135.4
100140.9
100154.7
100169.5
100190.4
100215.7
100229.9
100154.4
100161.3
100161.8
100159.6
100136.4
100141.9
100154.6
100168
100186
100208.4
100222.6
100274.4
100148.5
100154.8
100155.2
100153.1
100132.2
100137.2
100148.4
100159.9
100175
100192.9
100204.6
100247.4
100285.8
100141
100146.6
100146.8
100144.6
100125.3
100129.6
100139.2
100148.9
100161.3
100175.5
100183.4
100217.8
100248.6
100295.7
100492.8
100378.6
100459.5
100302.5
100350.2
100396.1
100253.4
100283.9
100304.3
100328.2
100218.8
100239.1
100247.9
100252.7
100188.7
100193
100207.6
100210.3
100207.8
100148.4
100162.3
100173.6
100184.4
100184.2
100178.2
100125.8
100130.5
100156.1
100158.8
100167.2
100165.4
100158.4
100112
100113.8
100128.8
100147.1
100149.3
100156.2
100154
100147
100106.6
100107.6
100119.1
100130.6
100150.1
100142.9
100148.9
100146.7
100140.3
100105.2
100106.4
100116.1
100125.8
100140
100157.3
100147.5
100153.8
100152.9
100148.6
100119.7
100123.1
100134.4
100145.9
100162.6
100182.3
100189.1
100145.8
100152
100151.5
100148.1
100123.2
100127.1
100137.9
100149
100164
100182.3
100190.9
100236.4
100143.7
100149.5
100149.4
100146.7
100124.9
100129
100139.3
100149.6
100163.3
100179.3
100188.4
100228.2
100262.8
100138.6
100144
100143.9
100141.5
100121.7
100125.6
100134.9
100144.1
100155.8
100169.3
100176.1
100209.2
100238.3
100283.4
100132
100136.8
100136.6
100134.2
100116
100119.3
100127.5
100135.3
100145.3
100156.3
100161.1
100187.3
100210.3
100246.7
100293.2
100537.5
100390.5
100468.6
100310.8
100359.3
100404.6
100256.2
100286.8
100307.5
100331
100219.9
100240.4
100249.3
100254.4
100190.8
100193
100207.6
100210.3
100207.8
100148.4
100162.3
100172.7
100183.3
100183
100176.9
100124.1
100128.5
100153.8
100156.9
100165.1
100163
100155.7
100108.6
100109.8
100124.2
100141.9
100144.8
100151.2
100148.4
100140.6
100099.1
100098.7
100108.7
100118.2
100135.4
100137
100142.5
100139.5
100132.2
100095.6
100095.4
100103.4
100110.7
100121.8
100135.7
100131.9
100136.7
100134
100127.4
100095.4
100095.5
100102.9
100109.1
100118.8
100129.1
100123.1
100136.6
100141.9
100140.5
100135.8
100109.1
100111.3
100120.1
100128.6
100140.3
100154.2
100156.6
100195.4
100135.7
100140.8
100139.9
100136.2
100112.9
100115.8
100124.5
100132.9
100144.3
100157.1
100161.8
100196.1
100223.2
100134.1
100139.1
100138.5
100135.5
100115
100118.2
100126.7
100134.9
100145.5
100157.5
100162.3
100193
100218.7
100260.2
100129.7
100134.4
100133.9
100131.2
100112.7
100115.7
100123.5
100131
100140.4
100150.8
100154.8
100180
100201.6
100236.3
100280.8
100123.8
100128.1
100127.5
100124.9
100107.8
100110.5
100117.4
100124
100132.1
100140.8
100143.6
100164.5
100181
100208.7
100244.7
100559.9
100433.5
100514.7
100322.3
100371.7
100415.9
100263.6
100295.4
100317.3
100341.1
100222.4
100243.1
100252.5
100258
100195.4
100194.1
100208.7
100211.6
100209.3
100150.4
100164.5
100172.7
100183.3
100183
100176.9
100124.1
100128.5
100153.8
100156.1
100164.1
100161.9
100154.4
100107.1
100108.1
100122.1
100139.6
100143.1
100149.3
100146.3
100138.2
100096.1
100095.3
100104.7
100113.5
100130
100132.9
100138
100134.5
100126.5
100088.9
100087.7
100094.5
100100.1
100109.2
100120.7
100126.5
100130.9
100127.5
100120.1
100086.8
100085.8
100091.8
100096.3
100103.5
100110.8
100100
100122.2
100126.3
100123.2
100116.6
100087.2
100086.8
100092.4
100096.8
100103.3
100110
100102.5
100125
100127.1
100131.6
100129.7
100124.9
100100.1
100101.5
100108.6
100115
100123.7
100133.2
100133.2
100161.6
100180.7
100126.6
100131
100129.8
100125.9
100104.2
100106.2
100113.4
100120.1
100128.8
100138.3
100139.8
100166.2
100185.5
100219.3
100125.5
100129.8
100129
100125.8
100106.5
100109
100116.1
100122.8
100131.3
100140.4
100142.8
100166.2
100185.2
100216.6
100257.4
100121.7
100125.8
100125.1
100122.2
100104.7
100107.2
100113.8
100120
100127.7
100135.9
100138
100158.2
100173.6
100200
100234.2
100116.4
100120.2
100119.4
100116.7
100100.5
100102.7
100108.7
100114.2
100121
100128.1
100129.5
100146.6
100159
100179.6
100207
100583.6
100457.8
100538.3
100359.8
100415.4
100465
100274
100307.1
100330.7
100354.8
100229.1
100250.7
100261.4
100268.5
100208.7
100196.3
100211.2
100214.5
100212.7
100154.8
100169.4
100173.6
100184.4
100184.2
100178.2
100125.8
100130.5
100156.1
100156.1
100164.1
100161.9
100154.4
100107.1
100108.1
100122.1
100139.6
100142.3
100148.5
100145.3
100137.1
100094.8
100093.8
100103
100111.3
100127.6
100131.3
100136.2
100132.5
100124.3
100086.4
100084.8
100091.1
100096.1
100104.5
100115.2
100122.6
100126.7
100122.9
100115
100080.9
100079.1
100084.1
100087.3
100093
100098.1
100084.1
100117.2
100120.8
100117.2
100110
100079.5
100078.1
100082.7
100085.7
100090.3
100094.6
100083.5
100103.5
100113.8
100117.1
100113.9
100107.4
100080.4
100079.5
100084
100087.1
100091.8
100095.9
100088.4
100103.9
100097.2
100118.6
100122.4
100120.4
100115.5
100092.5
100093.3
100099.1
100104.1
100110.7
100117.6
100115.5
100137.3
100149.9
100175.6
100118.5
100122.3
100120.8
100116.9
100096.5
100098
100104.1
100109.4
100116.3
100123.5
100123.4
100143.5
100157.4
100182.4
100214.8
100117.7
100121.5
100120.4
100117.2
100099.1
100101
100107.1
100112.6
100119.5
100126.7
100127.5
100146.2
100159.6
100183.4
100214.3
100114.4
100118
100117.1
100114.2
100097.7
100099.7
100105.4
100110.6
100117.1
100123.7
100124.6
100141
100152.6
100172.2
100198.2
100109.6
100113
100112.1
100109.3
100094
100095.8
100101.1
100105.8
100111.5
100117.4
100117.9
100132.2
100141.7
100157.8
100178.2
100597.2
100481.7
100563
100381.9
100440.4
100491.2
100306.5
100345
100375.9
100407.3
100238.4
100261.2
100273.7
100283.1
100227.6
100202.4
100218
100222.3
100222
100166.8
100183.4
100175.7
100186.7
100186.8
100181.3
100129.7
100135.1
100161.2
100156.9
100165.1
100163
100155.7
100108.6
100109.8
100124.2
100141.9
100142.3
100148.5
100145.3
100137.1
100094.8
100093.8
100103
100111.3
100127.6
100130.5
100135.4
100131.6
100123.4
100085.2
100083.4
100089.5
100094.3
100102.4
100112.7
100121.1
100125.1
100121.1
100113
100078.6
100076.5
100081.1
100083.9
100088.9
100093.2
100078
100113.7
100117
100113
100105.3
100074.2
100072.2
100075.9
100078
100081.4
100084
100070.3
100088.7
100109.1
100112.1
100108.4
100101.3
100073.4
100071.8
100075.4
100077.4
100080.6
100082.8
100072.6
100086
100078.6
100106.2
100109
100105.7
100099.5
100074.5
100073.4
100077.1
100079.4
100082.7
100085.4
100077.8
100089.5
100082
100078.2
100111
100114.3
100112.1
100107.3
100085.8
100086.2
100091.1
100095
100100.3
100105.4
100102.4
100119
100127.7
100145.8
100169.7
100111.2
100114.5
100112.8
100108.9
100089.9
100090.9
100096.1
100100.5
100106.1
100111.7
100110.4
100126.5
100136.1
100154.8
100178.8
100110.6
100114
100112.8
100109.5
100092.4
100093.9
100099.2
100103.8
100109.6
100115.4
100115.2
100130.5
100140.5
100158.1
100181.5
100107.7
100111
100109.9
100107
100091.4
100093
100098
100102.5
100107.9
100113.4
100113.5
100127.2
100136.1
100151.4
100170.7
100103.4
100106.4
100105.4
100102.6
100088.2
100089.7
100094.3
100098.4
100103.3
100108.2
100108.2
100120.3
100127.9
100140.7
100156.6
100604.7
100495.7
100577.1
100403.2
100464.8
100517.9
100326.1
100367.6
100402.4
100436.6
100266.9
100294.1
100312.7
100330.1
100287.3
100210.7
100227.5
100233.3
100235.1
100183.9
100203.3
100181.2
100192.7
100193.7
100189.4
100139.9
100147.4
100175.3
100158.8
100167.2
100165.4
100158.4
100112
100113.8
100128.8
100147.1
100143.1
100149.3
100146.3
100138.2
100096.1
100095.3
100104.7
100113.5
100130
100130.5
100135.4
100131.6
100123.4
100085.2
100083.4
100089.5
100094.3
100102.4
100112.7
100120.4
100124.3
100120.3
100112.1
100077.6
100075.3
100079.8
100082.4
100087.1
100091.1
100075.3
100112.3
100115.5
100111.3
100103.5
100072.1
100069.8
100073.3
100075
100077.9
100079.9
100065.3
100083.4
100105.8
100108.5
100104.5
100097
100068.6
100066.4
100069.4
100070.6
100072.9
100073.9
100061.7
100073.8
100066.1
100101.9
100104.3
100100.6
100093.8
100068.1
100066.4
100069.3
100070.7
100072.9
100074.2
100064.5
100074.6
100066.8
100063.4
100099.4
100101.8
100098.5
100092.5
100069.3
100068.2
100071.2
100072.9
100075.5
100077.2
100069.9
100078.7
100071.6
100066.9
100029.6
100104.2
100107
100104.7
100100
100080
100080.1
100084.2
100087.4
100091.6
100095.6
100092
100105.4
100110.9
100124.3
100141.1
100104.5
100107.5
100105.7
100101.8
100083.9
100084.7
100089.1
100092.8
100097.4
100101.9
100100.1
100113.2
100120.2
100133.9
100151.9
100104.2
100107.2
100105.8
100102.6
100086.5
100087.7
100092.3
100096.2
100101.1
100105.9
100105.1
100117.9
100125.4
100139.2
100156.5
100101.6
100104.5
100103.4
100100.4
100085.8
100087.1
100091.5
100095.3
100100
100104.6
100104.1
100115.9
100122.9
100135
100150.1
100097.7
100100.4
100099.3
100096.6
100082.9
100084.1
100088.3
100091.8
100096.1
100100.3
100099.8
100110.3
100116.4
100127
100139.6
100503.3
100585
100415.8
100479.2
100533.3
100344.7
100389.2
100427.9
100465.6
100284.3
100314
100336.2
100358.2
100322.9
100236
100256.2
100266.9
100275.2
100234.7
100264.4
100188.8
100201.2
100203.5
100200.9
100154.5
100164.9
100195.5
100163.8
100172.7
100171.6
100165.5
100120.7
100124.2
100141.1
100161.6
100144.8
100151.2
100148.4
100140.6
100099.1
100098.7
100108.7
100118.2
100135.4
100131.3
100136.2
100132.5
100124.3
100086.4
100084.8
100091.1
100096.1
100104.5
100115.2
100120.4
100124.3
100120.3
100112.1
100077.6
100075.3
100079.8
100082.4
100087.1
100091.1
100075.3
100111.7
100114.8
100110.6
100102.7
100071.2
100068.8
100072.1
100073.7
100076.4
100078.1
100063
100081
100104.5
100107.1
100102.9
100095.4
100066.7
100064.3
100067
100068
100069.9
100070.4
100057.5
100069.3
100061.7
100098.8
100101
100097
100089.9
100063.7
100061.5
100063.9
100064.7
100066.1
100066.4
100055.3
100064.5
100056.5
100053.6
100095.4
100097.5
100093.8
100087.3
100063.5
100061.8
100064.2
100065.1
100066.8
100067.3
100058.5
100066.2
100059.1
100054.9
100028.8
100093.3
100095.4
100092.1
100086.3
100064.8
100063.6
100066.1
100067.4
100069.4
100070.6
100063.6
100070.7
100063.7
100059.3
100028.5
100028.6
100097.9
100100.4
100098.1
100093.5
100074.8
100074.7
100078.3
100080.9
100084.4
100087.4
100083.7
100094.6
100098.4
100108.1
100120.5
100098.4
100101
100099.2
100095.4
100078.6
100079.1
100083
100086.1
100090
100093.7
100091.5
100102.5
100107.6
100118.3
100131.4
100098.3
100101
100099.5
100096.3
100081.2
100082.1
100086.2
100089.6
100093.8
100097.7
100096.5
100107.5
100113.4
100124.3
100137.8
100096
100098.6
100097.4
100094.5
100080.6
100081.7
100085.7
100089
100093.1
100096.9
100096.1
100106.3
100111.9
100121.9
100133.9
100092.4
100094.8
100093.7
100091
100078.1
100079.1
100082.8
100086
100089.7
100093.3
100092.6
100101.8
100106.8
100115.6
100126
100422.6
100487
100541.8
100355.9
100402.1
100443
100482.5
100300.8
100332.9
100358.6
100385
100356.7
100251.6
100273.9
100287.5
100299.8
100266.1
100301.2
100211.4
100226.7
100232.8
100235.3
100197
100216.4
100257.1
100170.7
100180.4
100180.3
100175.6
100133.2
100139.1
100158.9
100182.3
100149.3
100156.2
100154
100147
100106.6
100107.6
100119.1
100130.6
100150.1
100132.9
100138
100134.5
100126.5
100088.9
100087.7
100094.5
100100.1
100109.2
100120.7
100121.1
100125.1
100121.1
100113
100078.6
100076.5
100081.1
100083.9
100088.9
100093.2
100078
100111.7
100114.8
100110.6
100102.7
100071.2
100068.8
100072.1
100073.7
100076.4
100078.1
100063
100081
100103.9
100106.5
100102.3
100094.6
100065.8
100063.4
100066
100066.8
100068.5
100068.8
100055.6
100067.2
100059.8
100097.6
100099.7
100095.6
100088.4
100062
100059.6
100061.8
100062.3
100063.5
100063.5
100051.7
100060.7
100052.9
100050.6
100092.5
100094.4
100090.4
100083.7
100059.5
100057.3
100059.3
100059.7
100060.7
100060.5
100050.6
100057.6
100050.5
100046.9
100028.5
100089.5
100091.3
100087.7
100081.5
100059.4
100057.7
100059.7
100060.4
100061.6
100061.8
100053.6
100059.9
100053.1
100049.4
100027.9
100028.5
100087.8
100089.5
100086.3
100080.8
100060.7
100059.5
100061.7
100062.7
100064.3
100065
100058.6
100064.3
100057.9
100053.4
100028
100027.7
100028.6
100092.2
100094.4
100092.1
100087.7
100070.1
100069.9
100073
100075.2
100078.1
100080.6
100076.8
100086
100088.5
100096
100104.8
100092.8
100095.2
100093.3
100089.6
100073.8
100074.2
100077.6
100080.3
100083.6
100086.6
100084.2
100093.7
100097.6
100106
100116.1
100092.8
100095.2
100093.8
100090.6
100076.4
100077.1
100080.7
100083.7
100087.3
100090.7
100089.2
100098.7
100103.4
100112.4
100123.1
100090.8
100093.1
100091.9
100089.1
100075.9
100076.8
100080.4
100083.3
100086.9
100090.2
100089.2
100098.1
100102.7
100111.1
100120.9
100087.4
100089.7
100088.5
100085.9
100073.6
100074.5
100077.9
100080.7
100084
100087.1
100086.2
100094.4
100098.6
100106.1
100114.7
100361.9
100409
100451.1
100491.7
100310.7
100344.3
100372
100401
100376.7
100266.4
100290.6
100306.9
100323
100295.6
100335.9
100225.5
100242.5
100251
100256.6
100223.9
100248.5
100294.2
100191.2
100203.1
100206.2
100205.6
100169.3
100182.1
100210.6
100244.7
100155.7
100163.2
100161.9
100156
100117.5
100120.3
100134.1
100148.6
100171.2
100137
100142.5
100139.5
100132.2
100095.6
100095.4
100103.4
100110.7
100121.8
100135.7
100122.6
100126.7
100122.9
100115
100080.9
100079.1
100084.1
100087.3
100093
100098.1
100084.1
100112.3
100115.5
100111.3
100103.5
100072.1
100069.8
100073.3
100075
100077.9
100079.9
100065.3
100083.4
100103.9
100106.5
100102.3
100094.6
100065.8
100063.4
100066
100066.8
100068.5
100068.8
100055.6
100067.2
100059.8
100097
100099.1
100095
100087.7
100061.2
100058.8
100060.9
100061.3
100062.3
100062.1
100050.1
100059
100051.3
100049.3
100091.4
100093.2
100089.1
100082.2
100057.9
100055.6
100057.4
100057.6
100058.4
100057.9
100047.5
100054.4
100047.5
100044.4
100028.5
100086.8
100088.4
100084.6
100078.1
100055.7
100053.6
100055.3
100055.5
100056.2
100055.8
100046.7
100052.5
100045.9
100042.8
100027.7
100028.4
100084.2
100085.7
100082.2
100076.3
100055.8
100054.1
100055.8
100056.3
100057.2
100057.2
100049.7
100054.9
100048.8
100045
100027.5
100027.7
100028.5
100082.7
100084.2
100081.1
100075.8
100057.1
100055.8
100057.8
100058.6
100059.9
100060.3
100054.3
100059.2
100053.1
100049
100027.2
100027.3
100027.7
100028.5
100087
100089
100086.6
100082.4
100065.9
100065.6
100068.4
100070.2
100072.7
100074.6
100071
100078.9
100080.6
100086.4
100093.2
100087.7
100089.8
100087.9
100084.3
100069.5
100069.7
100072.8
100075.1
100077.9
100080.5
100078
100086.2
100089.2
100096.1
100104.1
100087.8
100090
100088.5
100085.4
100071.9
100072.5
100075.8
100078.4
100081.6
100084.4
100082.9
100091.2
100095.1
100102.5
100111.3
100085.9
100088.1
100086.8
100084.1
100071.6
100072.4
100075.6
100078.2
100081.4
100084.3
100083.1
100091
100094.9
100102
100110.2
100082.8
100084.9
100083.7
100081.2
100069.5
100070.3
100073.4
100075.9
100078.9
100081.6
100080.6
100087.9
100091.4
100097.9
100105.3
100316
100350.3
100379.2
100409.5
100387.5
100275.3
100300.6
100318.6
100337
100313.4
100356.5
100238.8
100257.4
100268.1
100276.7
100248.9
100278.6
100329.2
100204
100217.4
100222.4
100224.3
100192.3
100209.3
100242.9
100282.5
100174.2
100183.8
100185
100182.4
100148.8
100156.7
100177.3
100200.8
100234.4
100142.9
100148.9
100146.7
100140.3
100105.2
100106.4
100116.1
100125.8
100140
100157.3
100126.5
100130.9
100127.5
100120.1
100086.8
100085.8
100091.8
100096.3
100103.5
100110.8
100100
100113.7
100117
100113
100105.3
100074.2
100072.2
100075.9
100078
100081.4
100084
100070.3
100088.7
100104.5
100107.1
100102.9
100095.4
100066.7
100064.3
100067
100068
100069.9
100070.4
100057.5
100069.3
100061.7
100097
100099.1
100095
100087.7
100061.2
100058.8
100060.9
100061.3
100062.3
100062.1
100050.1
100059
100051.3
100049.3
100090.9
100092.6
100088.5
100081.6
100057.2
100054.8
100056.6
100056.7
100057.3
100056.7
100046.1
100052.9
100046.2
100043.3
100028.5
100085.8
100087.3
100083.4
100076.8
100054.3
100052.1
100053.6
100053.6
100054.1
100053.5
100044
100049.8
100043.4
100040.7
100027.7
100028.4
100081.7
100083
100079.3
100073.2
100052.3
100050.3
100051.8
100051.8
100052.3
100051.8
100043.6
100048.4
100042.6
100039.5
100027.3
100027.6
100028.5
100079.3
100080.6
100077.2
100071.6
100052.5
100050.8
100052.4
100052.7
100053.4
100053.3
100046.3
100050.8
100045.2
100041.8
100026.8
100027.3
100027.7
100028.5
100078
100079.4
100076.3
100071.3
100053.8
100052.5
100054.3
100054.9
100056
100056.3
100050.7
100054.8
100049.3
100045.4
100026.6
100026.6
100027.3
100027.7
100028.5
100082.2
100083.9
100081.6
100077.6
100062
100061.7
100064.2
100065.8
100067.9
100069.5
100065.9
100072.8
100074
100078.7
100084
100082.9
100084.8
100083
100079.5
100065.5
100065.6
100068.4
100070.4
100072.9
100075.1
100072.6
100079.8
100082.2
100087.9
100094.5
100083.1
100085.1
100083.6
100080.6
100067.9
100068.3
100071.3
100073.6
100076.4
100078.9
100077.3
100084.7
100087.9
100094.2
100101.6
100081.4
100083.4
100082.1
100079.4
100067.6
100068.3
100071.2
100073.6
100076.4
100079
100077.7
100084.8
100088
100094.2
100101.2
100078.5
100080.4
100079.3
100076.8
100065.7
100066.4
100069.2
100071.5
100074.2
100076.6
100075.5
100082.1
100085.2
100090.8
100097.2
100280
100306
100324.9
100344.5
100322.9
100367.5
100246.8
100266.4
100278.4
100288.9
100264.1
100296.7
100350.1
100216
100230.8
100237.6
100241.9
100213.8
100234.7
100273.1
100318
100186
100196.7
100199.6
100199
100168.7
100180
100204.7
100233.5
100272.8
100159.9
100167.6
100167.5
100163.9
100132.6
100137.9
100152.7
100169.3
100192.6
100221.5
100131.9
100136.7
100134
100127.4
100095.4
100095.5
100102.9
100109.1
100118.8
100129.1
100123.1
100117.2
100120.8
100117.2
100110
100079.5
100078.1
100082.7
100085.7
100090.3
100094.6
100083.5
100103.5
100105.8
100108.5
100104.5
100097
100068.6
100066.4
100069.4
100070.6
100072.9
100073.9
100061.7
100073.8
100066.1
100097.6
100099.7
100095.6
100088.4
100062
100059.6
100061.8
100062.3
100063.5
100063.5
100051.7
100060.7
100052.9
100050.6
100090.9
100092.6
100088.5
100081.6
100057.2
100054.8
100056.6
100056.7
100057.3
100056.7
100046.1
100052.9
100046.2
100043.3
100028.5
100085.3
100086.8
100082.8
100076.2
100053.6
100051.3
100052.8
100052.8
100053.2
100052.4
100042.8
100048.5
100042.3
100039.8
100027.7
100028.4
100080.7
100081.9
100078.2
100071.9
100051
100048.9
100050.2
100050.1
100050.4
100049.7
100041.2
100046
100040.4
100037.8
100027.3
100027.6
100028.4
100076.9
100078.1
100074.5
100068.7
100049.3
100047.4
100048.6
100048.6
100049
100048.4
100040.9
100045.1
100039.8
100037.1
100026.6
100027.3
100027.7
100028.5
100074.8
100076
100072.7
100067.4
100049.5
100047.9
100049.3
100049.5
100050.1
100049.8
100043.5
100047.3
100042.2
100039.1
100026.2
100026.6
100027.3
100027.7
100028.5
100073.7
100074.9
100072
100067.2
100050.7
100049.5
100051.1
100051.6
100052.5
100052.7
100047.5
100051.1
100046
100042.4
100025.8
100026.1
100026.6
100027.3
100027.7
100028.5
100077.7
100079.3
100077
100073.1
100058.5
100058.1
100060.4
100061.8
100063.6
100065
100061.5
100067.6
100068.5
100072.3
100076.6
100078.5
100080.2
100078.4
100075
100061.8
100061.9
100064.4
100066.2
100068.4
100070.3
100067.8
100074.3
100076.2
100081
100086.4
100078.7
100080.5
100079.1
100076.2
100064.1
100064.5
100067.2
100069.3
100071.8
100074
100072.3
100078.9
100081.6
100087.1
100093.4
100077.1
100079
100077.7
100075.1
100064
100064.5
100067.2
100069.3
100071.9
100074.1
100072.8
100079.2
100082
100087.4
100093.4
100074.5
100076.2
100075.1
100072.7
100062.2
100062.8
100065.4
100067.4
100069.9
100072.1
100070.9
100076.9
100079.6
100084.6
100090.2
100251.1
100271.2
100284
100295.4
100272.2
100306.3
100361.2
100223.3
100238.9
100246.9
100252.6
100226.8
100250.2
100291.4
100339.2
100196.9
100208.9
100213.2
100214.7
100187.4
100201.7
100230.2
100263.9
100308.7
100170.6
100179.4
100180.7
100178.8
100150.3
100158.1
100176.1
100196.9
100225.6
100260.6
100147.5
100153.8
100152.9
100148.6
100119.7
100123.1
100134.4
100145.9
100162.6
100182.3
100189.1
100122.2
100126.3
100123.2
100116.6
100087.2
100086.8
100092.4
100096.8
100103.3
100110
100102.5
100125
100109.1
100112.1
100108.4
100101.3
100073.4
100071.8
100075.4
100077.4
100080.6
100082.8
100072.6
100086
100078.6
100098.8
100101
100097
100089.9
100063.7
100061.5
100063.9
100064.7
100066.1
100066.4
100055.3
100064.5
100056.5
100053.6
100091.4
100093.2
100089.1
100082.2
100057.9
100055.6
100057.4
100057.6
100058.4
100057.9
100047.5
100054.4
100047.5
100044.4
100028.5
100085.3
100086.8
100082.8
100076.2
100053.6
100051.3
100052.8
100052.8
100053.2
100052.4
100042.8
100048.5
100042.3
100039.8
100027.7
100028.4
100080.2
100081.5
100077.6
100071.4
100050.4
100048.2
100049.5
100049.3
100049.6
100048.8
100040.1
100044.9
100039.5
100037
100027.3
100027.6
100028.4
100076
100077.1
100073.5
100067.6
100048
100046
100047.2
100047.1
100047.2
100046.5
100038.8
100043
100037.9
100035.6
100026.6
100027.3
100027.7
100028.4
100072.6
100073.6
100070.2
100064.6
100046.5
100044.7
100045.8
100045.8
100046
100045.4
100038.5
100042.2
100037.5
100035
100026.1
100026.6
100027.3
100027.7
100028.4
100070.7
100071.7
100068.6
100063.5
100046.7
100045.2
100046.5
100046.6
100047.1
100046.8
100040.9
100044.4
100039.7
100036.9
100025.5
100026.1
100026.6
100027.3
100027.7
100028.4
100069.7
100070.7
100067.9
100063.4
100047.9
100046.8
100048.2
100048.6
100049.4
100049.5
100044.6
100047.9
100043.2
100039.9
100025.2
100025.4
100026.1
100026.6
100027.3
100027.7
100028.4
100073.5
100075
100072.8
100069
100055.3
100054.9
100056.9
100058.1
100059.8
100060.9
100057.6
100063.1
100063.7
100066.9
100070.4
100074.3
100075.9
100074.1
100070.9
100058.4
100058.4
100060.7
100062.3
100064.3
100065.9
100063.5
100069.3
100070.9
100075.1
100079.7
100074.6
100076.3
100074.8
100072.1
100060.6
100060.9
100063.4
100065.3
100067.6
100069.5
100067.8
100073.8
100076.1
100080.9
100086.3
100073.2
100074.9
100073.6
100071.1
100060.5
100061
100063.5
100065.4
100067.7
100069.8
100068.4
100074.3
100076.7
100081.5
100086.7
100070.7
100072.3
100071.2
100068.9
100058.9
100059.4
100061.8
100063.7
100066
100067.9
100066.8
100072.3
100074.6
100079.1
100084
100227.2
100243.2
100251.8
100258.3
100233.8
100258.4
100301.1
100350.5
100203.6
100216.2
100221.5
100224.1
100198.7
100214.9
100245.8
100282.4
100330.1
100180.7
100190.5
100193.1
100192.8
100166.7
100176.9
100197.9
100222.6
100256.3
100297.1
100157.4
100164.7
100165
100162.1
100135.4
100140.9
100154.7
100169.5
100190.4
100215.7
100229.9
100136.6
100141.9
100140.5
100135.8
100109.1
100111.3
100120.1
100128.6
100140.3
100154.2
100156.6
100195.4
100113.8
100117.1
100113.9
100107.4
100080.4
100079.5
100084
100087.1
100091.8
100095.9
100088.4
100103.9
100097.2
100101.9
100104.3
100100.6
100093.8
100068.1
100066.4
100069.3
100070.7
100072.9
100074.2
100064.5
100074.6
100066.8
100063.4
100092.5
100094.4
100090.4
100083.7
100059.5
100057.3
100059.3
100059.7
100060.7
100060.5
100050.6
100057.6
100050.5
100046.9
100028.5
100085.8
100087.3
100083.4
100076.8
100054.3
100052.1
100053.6
100053.6
100054.1
100053.5
100044
100049.8
100043.4
100040.7
100027.7
100028.4
100080.2
100081.5
100077.6
100071.4
100050.4
100048.2
100049.5
100049.3
100049.6
100048.8
100040.1
100044.9
100039.5
100037
100027.3
100027.6
100028.4
100075.6
100076.6
100073
100067
100047.5
100045.4
100046.5
100046.3
100046.5
100045.6
100037.8
100042
100037
100034.9
100026.6
100027.3
100027.6
100028.4
100071.7
100072.6
100069.2
100063.6
100045.3
100043.5
100044.5
100044.3
100044.4
100043.6
100036.6
100040.3
100035.8
100033.7
100026.1
100026.6
100027.3
100027.7
100028.4
100068.6
100069.4
100066.2
100060.9
100043.9
100042.2
100043.2
100043.2
100043.3
100042.7
100036.5
100039.8
100035.4
100033.2
100025.4
100026
100026.6
100027.3
100027.7
100028.4
100066.8
100067.7
100064.7
100059.9
100044.2
100042.8
100043.9
100044
100044.4
100044.1
100038.7
100041.8
100037.5
100034.9
100024.9
100025.4
100026.1
100026.6
100027.3
100027.6
100028.4
100065.9
100066.9
100064.2
100059.9
100045.3
100044.2
100045.5
100045.9
100046.6
100046.6
100042.1
100045
100040.7
100037.6
100024.4
100024.8
100025.4
100026.1
100026.6
100027.3
100027.6
100028.4
100069.6
100070.9
100068.8
100065.3
100052.2
100051.8
100053.7
100054.8
100056.3
100057.3
100054.1
100059.1
100059.5
100062.3
100065.2
100070.4
100071.9
100070.2
100067.1
100055.2
100055.2
100057.3
100058.8
100060.6
100062
100059.7
100065
100066.3
100069.9
100073.9
100070.7
100072.3
100070.9
100068.2
100057.4
100057.6
100059.9
100061.6
100063.7
100065.4
100063.8
100069.2
100071.2
100075.5
100080.2
100069.4
100071
100069.8
100067.4
100057.3
100057.7
100060
100061.8
100063.9
100065.8
100064.4
100069.8
100071.9
100076.2
100080.8
100067.1
100068.6
100067.5
100065.3
100055.8
100056.2
100058.5
100060.2
100062.3
100064.1
100062.9
100068
100070.1
100074.1
100078.5
100207.2
100220.2
100225.9
100229.2
100204.8
100222