/*--------------------------------*- C++ -*----------------------------------*\
| =========                 |                                                 |
| \\      /  F ield         | OpenFOAM: The Open Source CFD Toolbox           |
|  \\    /   O peration     | Version:  2306                                  |
|   \\  /    A nd           | Website:  www.openfoam.com                      |
|    \\/     M anipulation  |                                                 |
\*---------------------------------------------------------------------------*/
FoamFile
{
    version     2.0;
    format      ascii;
    arch        "LSB;label=32;scalar=64";
    class       volScalarField;
    location    "0.9/fuel";
    object      T;
}
// * * * * * * * * * * * * * * * * * * * * * * * * * * * * * * * * * * * * * //

dimensions      [0 0 0 1 0 0 0];

internalField   nonuniform List<scalar> 
16000
(
1197.916
1197.756
1199.826
1197.93
1197.387
1199.815
1197.77
1201.56
1199.835
1197.949
1196.705
1199.786
1197.402
1201.589
1199.823
1197.79
1203.163
1201.563
1199.848
1197.972
1195.565
1199.728
1196.723
1201.653
1199.794
1197.423
1203.203
1201.592
1199.836
1197.814
1204.695
1203.163
1201.572
1199.865
1198.001
1193.904
1199.617
1195.591
1201.763
1199.734
1196.748
1203.293
1201.656
1199.806
1197.45
1204.738
1203.203
1201.6
1199.853
1197.844
1206.177
1204.692
1203.167
1201.584
1199.888
1198.036
1192.025
1199.422
1193.942
1201.929
1199.62
1195.622
1203.45
1201.764
1199.745
1196.778
1204.832
1203.291
1201.662
1199.823
1197.481
1206.219
1204.734
1203.206
1201.612
1199.875
1197.879
1207.614
1206.171
1204.693
1203.175
1201.601
1199.915
1198.071
1190.308
1199.128
1192.081
1202.134
1199.42
1193.986
1203.695
1201.925
1199.628
1195.66
1204.999
1203.447
1201.768
1199.76
1196.813
1206.311
1204.827
1203.294
1201.673
1199.844
1197.518
1207.653
1206.212
1204.734
1203.214
1201.629
1199.903
1197.915
1209.006
1207.606
1206.169
1204.697
1203.188
1201.623
1199.943
1198.106
1189.032
1198.796
1190.381
1202.296
1199.125
1192.141
1204.017
1202.122
1199.424
1194.035
1205.26
1203.687
1201.925
1199.641
1195.703
1206.474
1204.992
1203.447
1201.777
1199.781
1196.855
1207.742
1206.304
1204.827
1203.301
1201.689
1199.871
1197.557
1209.043
1207.645
1206.21
1204.738
1203.226
1201.65
1199.931
1197.951
1210.351
1208.996
1207.601
1206.171
1204.706
1203.205
1201.645
1199.971
1198.142
1188.357
1198.512
1189.117
1202.391
1198.795
1190.459
1204.319
1202.28
1199.128
1192.207
1205.609
1204.001
1202.115
1199.432
1194.089
1206.731
1205.249
1203.683
1201.93
1199.659
1195.752
1207.897
1206.465
1204.989
1203.451
1201.79
1199.806
1196.898
1209.127
1207.732
1206.3
1204.83
1203.312
1201.709
1199.899
1197.595
1210.386
1209.033
1207.64
1206.211
1204.747
1203.243
1201.672
1199.958
1197.988
1211.649
1210.34
1208.989
1207.601
1206.176
1204.719
1203.222
1201.668
1199.999
1198.178
1188.357
1198.35
1188.45
1202.433
1198.515
1189.207
1204.549
1202.372
1198.799
1190.54
1205.947
1204.298
1202.268
1199.135
1192.277
1207.076
1205.591
1203.99
1202.113
1199.446
1194.149
1208.144
1206.718
1205.242
1203.683
1201.939
1199.682
1195.803
1209.274
1207.886
1206.459
1204.99
1203.46
1201.808
1199.833
1196.942
1210.466
1209.116
1207.726
1206.3
1204.837
1203.327
1201.73
1199.926
1197.635
1211.682
1210.375
1209.026
1207.639
1206.216
1204.759
1203.26
1201.694
1199.986
1198.025
1212.898
1211.636
1210.332
1208.987
1207.603
1206.186
1204.732
1203.239
1201.69
1200.028
1198.352
1189.032
1198.35
1188.45
1202.446
1198.355
1188.546
1204.697
1202.414
1198.522
1189.302
1206.215
1204.525
1202.358
1198.809
1190.626
1207.414
1205.924
1204.281
1202.261
1199.148
1192.353
1208.474
1207.057
1205.578
1203.983
1202.116
1199.465
1194.21
1209.508
1208.129
1206.709
1205.239
1203.687
1201.953
1199.705
1195.854
1210.606
1209.262
1207.879
1206.458
1204.995
1203.473
1201.827
1199.859
1196.986
1211.758
1210.453
1209.108
1207.724
1206.305
1204.848
1203.343
1201.751
1199.953
1197.674
1212.93
1211.67
1210.367
1209.023
1207.641
1206.225
1204.772
1203.277
1201.716
1200.014
1198.205
1214.098
1212.885
1211.627
1210.327
1208.987
1207.61
1206.196
1204.745
1203.257
1201.712
1200.166
1198.684
1190.308
1198.512
1189.117
1202.446
1198.355
1188.546
1204.768
1202.427
1198.364
1188.647
1206.395
1204.671
1202.399
1198.533
1189.4
1207.687
1206.189
1204.505
1202.349
1198.823
1190.718
1208.801
1207.391
1205.905
1204.269
1202.259
1199.165
1192.429
1209.823
1208.455
1207.042
1205.568
1203.981
1202.123
1199.484
1194.272
1210.828
1209.493
1208.119
1206.704
1205.24
1203.696
1201.967
1199.729
1195.906
1211.891
1210.592
1209.253
1207.875
1206.46
1205.004
1203.486
1201.845
1199.885
1197.031
1213.002
1211.744
1210.444
1209.104
1207.726
1206.313
1204.86
1203.358
1201.771
1199.981
1197.867
1214.129
1212.916
1211.66
1210.362
1209.023
1207.648
1206.235
1204.785
1203.293
1201.737
1200.151
1198.554
1215.25
1214.084
1212.875
1211.622
1210.327
1208.992
1207.617
1206.205
1204.759
1203.274
1201.822
1200.416
1199.035
1192.025
1198.796
1190.381
1202.433
1198.515
1189.207
1204.768
1202.427
1198.364
1188.647
1206.484
1204.742
1202.412
1198.377
1188.752
1207.871
1206.367
1204.649
1202.389
1198.55
1189.503
1209.065
1207.66
1206.167
1204.489
1202.345
1198.842
1190.809
1210.135
1208.777
1207.371
1205.891
1204.261
1202.261
1199.183
1192.504
1211.127
1209.803
1208.439
1207.032
1205.563
1203.983
1202.13
1199.504
1194.333
1212.102
1210.812
1209.481
1208.112
1206.703
1205.245
1203.704
1201.981
1199.753
1195.959
1213.129
1211.877
1210.582
1209.248
1207.875
1206.466
1205.014
1203.499
1201.864
1199.912
1197.249
1214.198
1212.988
1211.734
1210.439
1209.104
1207.732
1206.321
1204.872
1203.374
1201.792
1200.116
1198.255
1215.279
1214.115
1212.906
1211.654
1210.361
1209.028
1207.654
1206.244
1204.797
1203.31
1201.845
1200.402
1198.926
1216.352
1215.235
1214.074
1212.868
1211.619
1210.329
1208.996
1207.624
1206.215
1204.772
1203.361
1202.017
1200.669
1199.399
1193.904
1199.128
1192.081
1202.391
1198.795
1190.459
1204.697
1202.414
1198.522
1189.302
1206.484
1204.742
1202.412
1198.377
1188.752
1207.963
1206.455
1204.719
1202.402
1198.395
1188.861
1209.245
1207.843
1206.343
1204.632
1202.384
1198.572
1189.606
1210.388
1209.039
1207.638
1206.149
1204.478
1202.345
1198.861
1190.899
1211.424
1210.111
1208.757
1207.356
1205.881
1204.257
1202.264
1199.201
1192.579
1212.388
1211.107
1209.787
1208.428
1207.025
1205.562
1203.985
1202.138
1199.523
1194.395
1213.331
1212.086
1210.799
1209.473
1208.108
1206.705
1205.251
1203.713
1201.995
1199.777
1196.216
1214.32
1213.114
1211.865
1210.575
1209.246
1207.879
1206.473
1205.023
1203.513
1201.882
1200.042
1197.703
1215.345
1214.183
1212.977
1211.728
1210.437
1209.107
1207.737
1206.329
1204.883
1203.39
1201.894
1200.365
1198.679
1216.381
1215.265
1214.104
1212.899
1211.652
1210.363
1209.032
1207.661
1206.253
1204.81
1203.394
1202.035
1200.655
1199.318
1217.407
1216.338
1215.224
1214.066
1212.865
1211.62
1210.332
1209.001
1207.631
1206.225
1204.838
1203.512
1202.209
1200.924
1199.773
1195.565
1199.422
1193.942
1202.296
1199.125
1192.141
1204.549
1202.372
1198.799
1190.54
1206.395
1204.671
1202.399
1198.533
1189.4
1207.963
1206.455
1204.719
1202.402
1198.395
1188.861
1209.336
1207.934
1206.43
1204.702
1202.397
1198.419
1188.971
1210.561
1209.217
1207.819
1206.324
1204.62
1202.383
1198.593
1189.708
1211.666
1210.362
1209.016
1207.619
1206.136
1204.471
1202.345
1198.88
1190.989
1212.671
1211.401
1210.091
1208.742
1207.345
1205.875
1204.254
1202.266
1199.219
1192.654
1213.604
1212.368
1211.091
1209.775
1208.42
1207.022
1205.562
1203.987
1202.145
1199.543
1194.69
1214.513
1213.314
1212.072
1210.79
1209.468
1208.109
1206.708
1205.256
1203.722
1202.009
1199.896
1196.75
1215.462
1214.304
1213.102
1211.858
1210.572
1209.247
1207.883
1206.479
1205.032
1203.526
1201.972
1200.288
1198.217
1216.444
1215.33
1214.172
1212.969
1211.725
1210.439
1209.111
1207.743
1206.338
1204.895
1203.467
1202.073
1200.622
1199.134
1217.434
1216.366
1215.253
1214.096
1212.896
1211.652
1210.365
1209.036
1207.667
1206.262
1204.874
1203.539
1202.222
1200.912
1199.723
1218.414
1217.392
1216.326
1215.216
1214.062
1212.864
1211.621
1210.334
1209.006
1207.638
1206.274
1204.953
1203.658
1202.398
1201.18
1196.705
1199.617
1195.591
1202.134
1199.42
1193.986
1204.319
1202.28
1199.128
1192.207
1206.215
1204.525
1202.358
1198.809
1190.626
1207.871
1206.367
1204.649
1202.389
1198.55
1189.503
1209.336
1207.934
1206.43
1204.702
1202.397
1198.419
1188.971
1210.647
1209.307
1207.909
1206.41
1204.688
1202.396
1198.442
1189.079
1211.831
1210.533
1209.194
1207.799
1206.308
1204.611
1202.382
1198.615
1189.809
1212.902
1211.64
1210.34
1208.998
1207.605
1206.127
1204.465
1202.345
1198.9
1191.077
1213.875
1212.648
1211.381
1210.075
1208.73
1207.337
1205.869
1204.251
1202.269
1199.237
1193.008
1214.775
1213.584
1212.351
1211.078
1209.766
1208.416
1207.019
1205.561
1203.989
1202.153
1199.64
1195.237
1215.648
1214.496
1213.3
1212.062
1210.784
1209.467
1208.109
1206.71
1205.261
1203.73
1202.078
1200.129
1197.368
1216.557
1215.446
1214.292
1213.094
1211.853
1210.572
1209.249
1207.886
1206.485
1205.041
1203.59
1202.131
1200.549
1198.789
1217.495
1216.429
1215.318
1214.163
1212.965
1211.725
1210.44
1209.114
1207.748
1206.346
1204.952
1203.598
1202.249
1200.884
1199.612
1218.44
1217.419
1216.354
1215.245
1214.092
1212.895
1211.653
1210.367
1209.04
1207.674
1206.309
1204.982
1203.679
1202.406
1201.171
1219.373
1218.399
1217.38
1216.318
1215.211
1214.061
1212.864
1211.622
1210.337
1209.01
1207.673
1206.358
1205.063
1203.801
1202.587
1197.387
1199.728
1196.723
1201.929
1199.62
1195.622
1204.017
1202.122
1199.424
1194.035
1205.947
1204.298
1202.268
1199.135
1192.277
1207.687
1206.189
1204.505
1202.349
1198.823
1190.718
1209.245
1207.843
1206.343
1204.632
1202.384
1198.572
1189.606
1210.647
1209.307
1207.909
1206.41
1204.688
1202.396
1198.442
1189.079
1211.914
1210.62
1209.282
1207.889
1206.394
1204.679
1202.395
1198.465
1189.185
1213.06
1211.804
1210.51
1209.174
1207.783
1206.297
1204.603
1202.382
1198.637
1189.908
1214.096
1212.877
1211.619
1210.322
1208.984
1207.595
1206.117
1204.458
1202.345
1198.919
1191.494
1215.035
1213.852
1212.629
1211.365
1210.063
1208.722
1207.33
1205.863
1204.248
1202.272
1199.326
1193.604
1215.9
1214.755
1213.567
1212.338
1211.069
1209.761
1208.411
1207.016
1205.56
1203.991
1202.19
1199.827
1195.796
1216.736
1215.631
1214.482
1213.289
1212.056
1210.781
1209.466
1208.11
1206.712
1205.265
1203.772
1202.202
1200.386
1198.097
1217.605
1216.541
1215.434
1214.282
1213.088
1211.852
1210.572
1209.251
1207.89
1206.491
1205.086
1203.697
1202.287
1200.824
1199.413
1218.499
1217.48
1216.417
1215.309
1214.158
1212.964
1211.725
1210.441
1209.117
1207.754
1206.387
1205.047
1203.723
1202.422
1201.151
1219.399
1218.425
1217.407
1216.346
1215.24
1214.09
1212.894
1211.654
1210.37
1209.044
1207.707
1206.388
1205.085
1203.815
1202.589
1220.287
1219.359
1218.387
1217.372
1216.312
1215.209
1214.059
1212.864
1211.623
1210.339
1209.033
1207.731
1206.438
1205.169
1203.942
1197.756
1199.786
1197.402
1201.763
1199.734
1196.748
1203.695
1201.925
1199.628
1195.66
1205.609
1204.001
1202.115
1199.432
1194.089
1207.414
1205.924
1204.281
1202.261
1199.148
1192.353
1209.065
1207.66
1206.167
1204.489
1202.345
1198.842
1190.809
1210.561
1209.217
1207.819
1206.324
1204.62
1202.383
1198.593
1189.708
1211.914
1210.62
1209.282
1207.889
1206.394
1204.679
1202.395
1198.465
1189.185
1213.139
1211.887
1210.596
1209.262
1207.872
1206.382
1204.67
1202.394
1198.488
1189.291
1214.247
1213.034
1211.782
1210.49
1209.158
1207.771
1206.286
1204.594
1202.381
1198.658
1190.376
1215.247
1214.072
1212.856
1211.601
1210.307
1208.973
1207.584
1206.108
1204.451
1202.346
1199.013
1192.166
1216.15
1215.012
1213.833
1212.613
1211.353
1210.055
1208.714
1207.323
1205.857
1204.244
1202.286
1199.49
1194.159
1216.979
1215.88
1214.738
1213.554
1212.328
1211.063
1209.756
1208.407
1207.014
1205.559
1204.002
1202.262
1200.023
1196.359
1217.778
1216.719
1215.616
1214.47
1213.282
1212.052
1210.779
1209.464
1208.11
1206.714
1205.29
1203.841
1202.327
1200.676
1198.99
1218.605
1217.589
1216.528
1215.424
1214.276
1213.086
1211.85
1210.572
1209.252
1207.893
1206.52
1205.157
1203.797
1202.444
1201.113
1219.456
1218.484
1217.468
1216.408
1215.304
1214.156
1212.963
1211.724
1210.443
1209.12
1207.781
1206.452
1205.134
1203.844
1202.595
1220.312
1219.384
1218.413
1217.398
1216.34
1215.237
1214.088
1212.894
1211.654
1210.372
1209.065
1207.759
1206.46
1205.184
1203.948
1221.155
1220.272
1219.347
1218.378
1217.365
1216.309
1215.207
1214.058
1212.863
1211.624
1210.352
1209.07
1207.785
1206.513
1205.272
1197.916
1199.815
1197.77
1201.653
1199.794
1197.423
1203.45
1201.764
1199.745
1196.778
1205.26
1203.687
1201.925
1199.641
1195.703
1207.076
1205.591
1203.99
1202.113
1199.446
1194.149
1208.801
1207.391
1205.905
1204.269
1202.259
1199.165
1192.429
1210.388
1209.039
1207.638
1206.149
1204.478
1202.345
1198.861
1190.899
1211.831
1210.533
1209.194
1207.799
1206.308
1204.611
1202.382
1198.615
1189.809
1213.139
1211.887
1210.596
1209.262
1207.872
1206.382
1204.67
1202.394
1198.488
1189.291
1214.324
1213.113
1211.864
1210.576
1209.245
1207.859
1206.37
1204.661
1202.394
1198.511
1189.786
1215.393
1214.222
1213.012
1211.763
1210.475
1209.146
1207.759
1206.275
1204.586
1202.381
1198.762
1191.114
1216.355
1215.224
1214.051
1212.838
1211.587
1210.296
1208.962
1207.574
1206.099
1204.445
1202.348
1199.178
1192.762
1217.221
1216.128
1214.994
1213.817
1212.6
1211.344
1210.046
1208.705
1207.315
1205.851
1204.229
1202.318
1199.655
1194.666
1218.012
1216.959
1215.863
1214.724
1213.543
1212.322
1211.057
1209.75
1208.403
1207.011
1205.554
1204.022
1202.334
1200.222
1196.906
1218.773
1217.76
1216.704
1215.605
1214.463
1213.278
1212.048
1210.776
1209.463
1208.11
1206.725
1205.323
1203.903
1202.457
1201.014
1219.559
1218.589
1217.575
1216.518
1215.417
1214.273
1213.083
1211.849
1210.572
1209.253
1207.91
1206.562
1205.218
1203.891
1202.601
1220.368
1219.441
1218.472
1217.458
1216.401
1215.301
1214.154
1212.961
1211.724
1210.444
1209.136
1207.821
1206.509
1205.216
1203.961
1221.179
1220.297
1219.372
1218.404
1217.392
1216.337
1215.235
1214.087
1212.893
1211.655
1210.383
1209.096
1207.807
1206.528
1205.279
1221.977
1221.14
1220.26
1219.337
1218.371
1217.362
1216.306
1215.204
1214.056
1212.863
1211.629
1210.371
1209.102
1207.835
1206.586
1199.826
1197.93
1201.589
1199.823
1197.79
1203.293
1201.656
1199.806
1197.45
1204.999
1203.447
1201.768
1199.76
1196.813
1206.731
1205.249
1203.683
1201.93
1199.659
1195.752
1208.474
1207.057
1205.578
1203.983
1202.116
1199.465
1194.21
1210.135
1208.777
1207.371
1205.891
1204.261
1202.261
1199.183
1192.504
1211.666
1210.362
1209.016
1207.619
1206.136
1204.471
1202.345
1198.88
1190.989
1213.06
1211.804
1210.51
1209.174
1207.783
1206.297
1204.603
1202.382
1198.637
1189.908
1214.324
1213.113
1211.864
1210.576
1209.245
1207.859
1206.37
1204.661
1202.394
1198.511
1189.786
1215.466
1214.298
1213.091
1211.844
1210.559
1209.233
1207.846
1206.358
1204.652
1202.393
1198.622
1190.563
1216.495
1215.369
1214.201
1212.993
1211.747
1210.463
1209.133
1207.746
1206.264
1204.578
1202.379
1198.938
1191.758
1217.418
1216.332
1215.203
1214.034
1212.824
1211.576
1210.285
1208.951
1207.564
1206.09
1204.414
1202.36
1199.337
1193.283
1218.246
1217.199
1216.11
1214.978
1213.805
1212.591
1211.335
1210.037
1208.697
1207.308
1205.822
1204.209
1202.354
1199.816
1195.114
1219
1217.993
1216.943
1215.85
1214.714
1213.537
1212.315
1211.05
1209.745
1208.399
1206.996
1205.546
1204.04
1202.404
1200.416
1197.934
1219.722
1218.756
1217.746
1216.693
1215.597
1214.457
1213.273
1212.044
1210.773
1209.461
1208.109
1206.733
1205.347
1203.959
1202.597
1220.467
1219.543
1218.576
1217.565
1216.511
1215.413
1214.269
1213.08
1211.847
1210.571
1209.26
1207.929
1206.594
1205.271
1203.981
1221.233
1220.352
1219.429
1218.462
1217.452
1216.398
1215.298
1214.151
1212.96
1211.724
1210.45
1209.156
1207.854
1206.561
1205.294
1222.001
1221.164
1220.285
1219.362
1218.397
1217.388
1216.333
1215.232
1214.085
1212.892
1211.658
1210.396
1209.123
1207.85
1206.593
1222.756
1221.963
1221.128
1220.251
1219.331
1218.368
1217.358
1216.303
1215.202
1214.055
1212.86
1211.632
1210.385
1209.131
1207.883
1201.56
1199.835
1197.949
1203.203
1201.592
1199.836
1197.814
1204.832
1203.291
1201.662
1199.823
1197.481
1206.474
1204.992
1203.447
1201.777
1199.781
1196.855
1208.144
1206.718
1205.242
1203.683
1201.939
1199.682
1195.803
1209.823
1208.455
1207.042
1205.568
1203.981
1202.123
1199.484
1194.272
1211.424
1210.111
1208.757
1207.356
1205.881
1204.257
1202.264
1199.201
1192.579
1212.902
1211.64
1210.34
1208.998
1207.605
1206.127
1204.465
1202.345
1198.9
1191.077
1214.247
1213.034
1211.782
1210.49
1209.158
1207.771
1206.286
1204.594
1202.381
1198.658
1190.376
1215.466
1214.298
1213.091
1211.844
1210.559
1209.233
1207.846
1206.358
1204.652
1202.393
1198.622
1190.563
1216.566
1215.442
1214.276
1213.072
1211.828
1210.547
1209.219
1207.833
1206.347
1204.644
1202.391
1198.807
1191.235
1217.554
1216.472
1215.348
1214.183
1212.978
1211.735
1210.45
1209.121
1207.735
1206.253
1204.539
1202.382
1199.103
1192.311
1218.438
1217.396
1216.312
1215.187
1214.02
1212.813
1211.565
1210.274
1208.941
1207.553
1206.045
1204.368
1202.376
1199.489
1193.727
1219.227
1218.225
1217.181
1216.095
1214.966
1213.796
1212.582
1211.326
1210.029
1208.689
1207.272
1205.778
1204.194
1202.392
1199.967
1195.894
1219.943
1218.981
1217.977
1216.929
1215.839
1214.707
1213.529
1212.308
1211.044
1209.74
1208.377
1206.969
1205.535
1204.056
1202.468
1200.792
1198.552
1220.626
1219.705
1218.741
1217.734
1216.684
1215.591
1214.452
1213.268
1212.04
1210.77
1209.452
1208.098
1206.73
1205.36
1204.01
1221.33
1220.451
1219.53
1218.565
1217.557
1216.506
1215.409
1214.266
1213.078
1211.845
1210.569
1209.26
1207.938
1206.618
1205.319
1222.054
1221.218
1220.34
1219.419
1218.455
1217.448
1216.394
1215.294
1214.149
1212.958
1211.722
1210.453
1209.169
1207.882
1206.609
1222.779
1221.987
1221.152
1220.275
1219.356
1218.393
1217.385
1216.33
1215.23
1214.083
1212.888
1211.657
1210.405
1209.145
1207.89
1223.492
1222.742
1221.951
1221.119
1220.244
1219.326
1218.364
1217.355
1216.3
1215.2
1214.047
1212.852
1211.632
1210.396
1209.157
1203.163
1201.563
1199.848
1197.972
1204.738
1203.203
1201.6
1199.853
1197.844
1206.311
1204.827
1203.294
1201.673
1199.844
1197.518
1207.897
1206.465
1204.989
1203.451
1201.79
1199.806
1196.898
1209.508
1208.129
1206.709
1205.239
1203.687
1201.953
1199.705
1195.854
1211.127
1209.803
1208.439
1207.032
1205.563
1203.983
1202.13
1199.504
1194.333
1212.671
1211.401
1210.091
1208.742
1207.345
1205.875
1204.254
1202.266
1199.219
1192.654
1214.096
1212.877
1211.619
1210.322
1208.984
1207.595
1206.117
1204.458
1202.345
1198.919
1191.494
1215.393
1214.222
1213.012
1211.763
1210.475
1209.146
1207.759
1206.275
1204.586
1202.381
1198.762
1191.114
1216.566
1215.442
1214.276
1213.072
1211.828
1210.547
1209.219
1207.833
1206.347
1204.644
1202.391
1198.807
1191.235
1217.623
1216.542
1215.42
1214.258
1213.056
1211.816
1210.534
1209.206
1207.821
1206.335
1204.601
1202.391
1198.978
1191.81
1218.569
1217.531
1216.451
1215.33
1214.168
1212.967
1211.723
1210.438
1209.109
1207.723
1206.199
1204.478
1202.389
1199.258
1192.776
1219.413
1218.416
1217.377
1216.296
1215.173
1214.009
1212.802
1211.554
1210.263
1208.93
1207.503
1205.975
1204.33
1202.395
1199.632
1194.484
1220.163
1219.207
1218.208
1217.166
1216.083
1214.957
1213.786
1212.573
1211.317
1210.02
1208.649
1207.214
1205.738
1204.182
1202.427
1200.269
1196.727
1220.84
1219.924
1218.965
1217.963
1216.919
1215.832
1214.699
1213.522
1212.301
1211.038
1209.712
1208.337
1206.94
1205.522
1204.066
1202.583
1201.028
1198.906
1221.485
1220.609
1219.69
1218.729
1217.725
1216.678
1215.585
1214.447
1213.263
1212.036
1210.754
1209.425
1208.075
1206.715
1205.361
1222.149
1221.315
1220.438
1219.519
1218.557
1217.553
1216.502
1215.405
1214.262
1213.075
1211.836
1210.553
1209.25
1207.938
1206.635
1222.831
1222.039
1221.206
1220.33
1219.412
1218.45
1217.443
1216.39
1215.291
1214.147
1212.95
1211.711
1210.449
1209.176
1207.905
1223.514
1222.765
1221.974
1221.142
1220.268
1219.351
1218.389
1217.381
1216.327
1215.227
1214.073
1212.875
1211.651
1210.41
1209.164
1224.184
1223.478
1222.73
1221.942
1221.112
1220.239
1219.322
1218.359
1217.351
1216.297
1215.187
1214.028
1212.839
1211.628
1210.405
1204.695
1203.163
1201.572
1199.865
1198.001
1206.219
1204.734
1203.206
1201.612
1199.875
1197.879
1207.742
1206.304
1204.827
1203.301
1201.689
1199.871
1197.557
1209.274
1207.886
1206.459
1204.99
1203.46
1201.808
1199.833
1196.942
1210.828
1209.493
1208.119
1206.704
1205.24
1203.696
1201.967
1199.729
1195.906
1212.388
1211.107
1209.787
1208.428
1207.025
1205.562
1203.985
1202.138
1199.523
1194.395
1213.875
1212.648
1211.381
1210.075
1208.73
1207.337
1205.869
1204.251
1202.269
1199.237
1193.008
1215.247
1214.072
1212.856
1211.601
1210.307
1208.973
1207.584
1206.108
1204.451
1202.346
1199.013
1192.166
1216.495
1215.369
1214.201
1212.993
1211.747
1210.463
1209.133
1207.746
1206.264
1204.578
1202.379
1198.938
1191.758
1217.623
1216.542
1215.42
1214.258
1213.056
1211.816
1210.534
1209.206
1207.821
1206.335
1204.601
1202.391
1198.978
1191.81
1218.636
1217.599
1216.521
1215.402
1214.243
1213.044
1211.803
1210.521
1209.193
1207.808
1206.277
1204.534
1202.395
1199.137
1192.291
1219.54
1218.547
1217.511
1216.434
1215.316
1214.157
1212.954
1211.711
1210.426
1209.097
1207.663
1206.114
1204.427
1202.4
1199.401
1193.563
1220.344
1219.391
1218.397
1217.361
1216.282
1215.162
1213.998
1212.791
1211.543
1210.253
1208.876
1207.422
1205.915
1204.299
1202.416
1199.918
1195.414
1221.055
1220.143
1219.189
1218.193
1217.154
1216.073
1214.947
1213.777
1212.564
1211.308
1209.977
1208.582
1207.162
1205.703
1204.172
1202.5
1200.593
1197.326
1221.694
1220.822
1219.908
1218.952
1217.953
1216.911
1215.824
1214.692
1213.515
1212.295
1211.007
1209.662
1208.295
1206.909
1205.505
1204.07
1202.653
1201.167
1199.172
1222.3
1221.468
1220.594
1219.679
1218.72
1217.719
1216.672
1215.579
1214.441
1213.259
1212.015
1210.714
1209.386
1208.038
1206.682
1222.924
1222.133
1221.302
1220.428
1219.511
1218.552
1217.547
1216.497
1215.4
1214.259
1213.059
1211.808
1210.528
1209.231
1207.931
1223.565
1222.817
1222.027
1221.196
1220.323
1219.407
1218.446
1217.439
1216.386
1215.288
1214.133
1212.928
1211.693
1210.44
1209.179
1224.206
1223.5
1222.753
1221.965
1221.135
1220.263
1219.347
1218.384
1217.377
1216.323
1215.212
1214.05
1212.857
1211.641
1210.412
1224.835
1224.171
1223.466
1222.721
1221.935
1221.107
1220.235
1219.318
1218.355
1217.348
1216.28
1215.159
1214.005
1212.823
1211.623
1206.177
1204.692
1203.167
1201.584
1199.888
1198.036
1207.653
1206.212
1204.734
1203.214
1201.629
1199.903
1197.915
1209.127
1207.732
1206.3
1204.83
1203.312
1201.709
1199.899
1197.595
1210.606
1209.262
1207.879
1206.458
1204.995
1203.473
1201.827
1199.859
1196.986
1212.102
1210.812
1209.481
1208.112
1206.703
1205.245
1203.704
1201.981
1199.753
1195.959
1213.604
1212.368
1211.091
1209.775
1208.42
1207.022
1205.562
1203.987
1202.145
1199.543
1194.69
1215.035
1213.852
1212.629
1211.365
1210.063
1208.722
1207.33
1205.863
1204.248
1202.272
1199.326
1193.604
1216.355
1215.224
1214.051
1212.838
1211.587
1210.296
1208.962
1207.574
1206.099
1204.445
1202.348
1199.178
1192.762
1217.554
1216.472
1215.348
1214.183
1212.978
1211.735
1210.45
1209.121
1207.735
1206.253
1204.539
1202.382
1199.103
1192.311
1218.636
1217.599
1216.521
1215.402
1214.243
1213.044
1211.803
1210.521
1209.193
1207.808
1206.277
1204.534
1202.395
1199.137
1192.291
1219.605
1218.613
1217.579
1216.504
1215.388
1214.231
1213.031
1211.79
1210.508
1209.181
1207.745
1206.186
1204.477
1202.403
1199.283
1193.103
1220.468
1219.519
1218.528
1217.495
1216.42
1215.304
1214.145
1212.943
1211.699
1210.414
1209.035
1207.569
1206.041
1204.385
1202.413
1199.69
1194.557
1221.231
1220.323
1219.373
1218.381
1217.348
1216.272
1215.152
1213.988
1212.781
1211.532
1210.198
1208.791
1207.351
1205.863
1204.274
1202.463
1200.275
1196.153
1221.903
1221.036
1220.126
1219.175
1218.181
1217.145
1216.064
1214.938
1213.768
1212.555
1211.263
1209.905
1208.522
1207.114
1205.672
1204.149
1202.577
1200.826
1197.795
1222.504
1221.676
1220.807
1219.895
1218.941
1217.945
1216.903
1215.816
1214.684
1213.508
1212.259
1210.948
1209.61
1208.251
1206.876
1205.452
1204.069
1202.695
1201.275
1199.403
1223.071
1222.283
1221.454
1220.583
1219.67
1218.714
1217.712
1216.665
1215.573
1214.436
1213.232
1211.964
1210.662
1209.332
1207.982
1223.656
1222.909
1222.12
1221.291
1220.419
1219.506
1218.547
1217.542
1216.492
1215.396
1214.238
1213.021
1211.77
1210.494
1209.205
1224.256
1223.551
1222.804
1222.017
1221.188
1220.317
1219.402
1218.441
1217.434
1216.382
1215.27
1214.101
1212.898
1211.67
1210.426
1224.857
1224.193
1223.488
1222.743
1221.958
1221.13
1220.258
1219.342
1218.38
1217.373
1216.305
1215.181
1214.023
1212.836
1211.629
1225.444
1224.821
1224.159
1223.457
1222.714
1221.93
1221.102
1220.23
1219.313
1218.351
1217.328
1216.246
1215.128
1213.979
1212.806
1207.614
1206.171
1204.693
1203.175
1201.601
1199.915
1198.071
1209.043
1207.645
1206.21
1204.738
1203.226
1201.65
1199.931
1197.951
1210.466
1209.116
1207.726
1206.3
1204.837
1203.327
1201.73
1199.926
1197.635
1211.891
1210.592
1209.253
1207.875
1206.46
1205.004
1203.486
1201.845
1199.885
1197.031
1213.331
1212.086
1210.799
1209.473
1208.108
1206.705
1205.251
1203.713
1201.995
1199.777
1196.216
1214.775
1213.584
1212.351
1211.078
1209.766
1208.416
1207.019
1205.561
1203.989
1202.153
1199.64
1195.237
1216.15
1215.012
1213.833
1212.613
1211.353
1210.055
1208.714
1207.323
1205.857
1204.244
1202.286
1199.49
1194.159
1217.418
1216.332
1215.203
1214.034
1212.824
1211.576
1210.285
1208.951
1207.564
1206.09
1204.414
1202.36
1199.337
1193.283
1218.569
1217.531
1216.451
1215.33
1214.168
1212.967
1211.723
1210.438
1209.109
1207.723
1206.199
1204.478
1202.389
1199.258
1192.776
1219.605
1218.613
1217.579
1216.504
1215.388
1214.231
1213.031
1211.79
1210.508
1209.181
1207.745
1206.186
1204.477
1202.403
1199.283
1193.103
1220.531
1219.583
1218.594
1217.562
1216.49
1215.376
1214.219
1213.019
1211.778
1210.495
1209.116
1207.644
1206.106
1204.43
1202.413
1199.576
1194.132
1221.352
1220.447
1219.5
1218.511
1217.481
1216.409
1215.293
1214.133
1212.931
1211.687
1210.352
1208.937
1207.486
1205.977
1204.35
1202.447
1200.065
1195.379
1222.075
1221.211
1220.305
1219.358
1218.369
1217.337
1216.261
1215.141
1213.977
1212.77
1211.476
1210.109
1208.714
1207.289
1205.818
1204.224
1202.53
1200.559
1196.763
1222.709
1221.884
1221.019
1220.112
1219.163
1218.172
1217.136
1216.054
1214.929
1213.759
1212.508
1211.187
1209.839
1208.467
1207.072
1205.602
1204.121
1202.633
1201.007
1198.198
1223.271
1222.487
1221.661
1220.794
1219.885
1218.934
1217.937
1216.895
1215.808
1214.677
1213.47
1212.195
1210.889
1209.558
1208.207
1206.789
1205.415
1204.07
1202.73
1201.368
1199.622
1223.8
1223.055
1222.269
1221.442
1220.574
1219.663
1218.707
1217.706
1216.659
1215.567
1214.405
1213.173
1211.902
1210.595
1209.257
1224.345
1223.641
1222.896
1222.11
1221.283
1220.414
1219.5
1218.541
1217.536
1216.487
1215.371
1214.191
1212.972
1211.723
1210.452
1224.905
1224.242
1223.538
1222.794
1222.009
1221.183
1220.312
1219.397
1218.436
1217.43
1216.361
1215.23
1214.062
1212.864
1211.643
1225.465
1224.843
1224.181
1223.479
1222.736
1221.953
1221.125
1220.254
1219.337
1218.376
1217.352
1216.267
1215.146
1213.992
1212.812
1226.012
1225.431
1224.81
1224.15
1223.449
1222.709
1221.925
1221.097
1220.225
1219.309
1218.329
1217.288
1216.209
1215.095
1213.952
1209.006
1207.606
1206.169
1204.697
1203.188
1201.623
1199.943
1198.106
1210.386
1209.033
1207.64
1206.211
1204.747
1203.243
1201.672
1199.958
1197.988
1211.758
1210.453
1209.108
1207.724
1206.305
1204.848
1203.343
1201.751
1199.953
1197.674
1213.129
1211.877
1210.582
1209.248
1207.875
1206.466
1205.014
1203.499
1201.864
1199.912
1197.249
1214.513
1213.314
1212.072
1210.79
1209.468
1208.109
1206.708
1205.256
1203.722
1202.009
1199.896
1196.75
1215.9
1214.755
1213.567
1212.338
1211.069
1209.761
1208.411
1207.016
1205.56
1203.991
1202.19
1199.827
1195.796
1217.221
1216.128
1214.994
1213.817
1212.6
1211.344
1210.046
1208.705
1207.315
1205.851
1204.229
1202.318
1199.655
1194.666
1218.438
1217.396
1216.312
1215.187
1214.02
1212.813
1211.565
1210.274
1208.941
1207.553
1206.045
1204.368
1202.376
1199.489
1193.727
1219.54
1218.547
1217.511
1216.434
1215.316
1214.157
1212.954
1211.711
1210.426
1209.097
1207.663
1206.114
1204.427
1202.4
1199.401
1193.563
1220.531
1219.583
1218.594
1217.562
1216.49
1215.376
1214.219
1213.019
1211.778
1210.495
1209.116
1207.644
1206.106
1204.43
1202.413
1199.576
1194.132
1221.414
1220.509
1219.564
1218.577
1217.549
1216.478
1215.364
1214.207
1213.007
1211.765
1210.431
1209.012
1207.556
1206.037
1204.39
1202.44
1199.961
1194.995
1222.194
1221.332
1220.429
1219.484
1218.498
1217.47
1216.398
1215.281
1214.121
1212.919
1211.626
1210.253
1208.851
1207.414
1205.923
1204.281
1202.503
1200.377
1196.078
1222.877
1222.056
1221.194
1220.29
1219.345
1218.359
1217.327
1216.251
1215.13
1213.966
1212.714
1211.386
1210.03
1208.648
1207.236
1205.723
1204.169
1202.588
1200.791
1197.299
1223.471
1222.69
1221.868
1221.005
1220.101
1219.154
1218.163
1217.126
1216.045
1214.919
1213.711
1212.429
1211.117
1209.779
1208.418
1206.975
1205.523
1204.103
1202.679
1201.16
1198.578
1223.996
1223.254
1222.472
1221.648
1220.784
1219.877
1218.925
1217.929
1216.887
1215.801
1214.637
1213.401
1212.13
1210.83
1209.506
1208.096
1206.73
1205.395
1204.073
1202.762
1201.456
1199.844
1224.486
1223.784
1223.041
1222.258
1221.433
1220.567
1219.656
1218.7
1217.699
1216.652
1215.534
1214.34
1213.102
1211.823
1210.505
1224.993
1224.33
1223.628
1222.885
1222.102
1221.277
1220.408
1219.494
1218.535
1217.531
1216.459
1215.317
1214.134
1212.915
1211.668
1225.513
1224.891
1224.23
1223.529
1222.787
1222.004
1221.177
1220.307
1219.391
1218.431
1217.405
1216.315
1215.184
1214.019
1212.826
1226.033
1225.452
1224.831
1224.171
1223.471
1222.731
1221.947
1221.12