/*--------------------------------*- C++ -*----------------------------------*\
| =========                 |                                                 |
| \\      /  F ield         | OpenFOAM: The Open Source CFD Toolbox           |
|  \\    /   O peration     | Version:  2306                                  |
|   \\  /    A nd           | Website:  www.openfoam.com                      |
|    \\/     M anipulation  |                                                 |
\*---------------------------------------------------------------------------*/
FoamFile
{
    version     2.0;
    format      ascii;
    arch        "LSB;label=32;scalar=64";
    class       volVectorField;
    location    "0.9/fuel";
    object      U;
}
// * * * * * * * * * * * * * * * * * * * * * * * * * * * * * * * * * * * * * //

dimensions      [0 1 -1 0 0 0 0];

internalField   nonuniform List<vector> 
16000
(
(9.898145e-05 7.490421e-05 -0.004876925)
(9.90426e-05 0.0002057026 -0.004950172)
(0.0001773399 7.50945e-05 -0.004036007)
(9.693886e-05 7.967982e-05 -0.01550601)
(9.95199e-05 0.0003640358 -0.005099513)
(0.0001766233 0.0002105082 -0.004078883)
(9.688172e-05 0.0002171106 -0.01573697)
(0.0001375846 6.715076e-05 -0.003353899)
(0.0001734504 7.851266e-05 -0.01284914)
(8.976828e-05 8.647193e-05 -0.02304587)
(9.965133e-05 0.0004503647 -0.005329854)
(0.0001757438 0.0003690158 -0.004164565)
(9.711556e-05 0.0003836455 -0.01620764)
(0.0001360241 0.0001892752 -0.003383127)
(0.0001725506 0.0002182565 -0.0129846)
(8.945449e-05 0.0002361597 -0.02338695)
(0.0001036033 5.904913e-05 -0.002850093)
(0.0001345497 6.979843e-05 -0.01069013)
(0.0001603589 8.264899e-05 -0.01911544)
(8.119151e-05 9.200134e-05 -0.03794326)
(0.0001016633 0.0006550432 -0.005634339)
(0.0001733063 0.0004699578 -0.004292732)
(9.684906e-05 0.0004771711 -0.01693358)
(0.00013325 0.0003300124 -0.003441017)
(0.0001712986 0.0003821419 -0.01325521)
(8.915132e-05 0.0004161033 -0.02408197)
(0.000102152 0.0001668673 -0.002871638)
(0.000132885 0.00019511 -0.01078263)
(0.0001590861 0.000229359 -0.01931578)
(8.057584e-05 0.0002583873 -0.03850268)
(7.953962e-05 5.230365e-05 -0.002467856)
(0.000101347 6.119393e-05 -0.009093391)
(0.0001243318 7.269865e-05 -0.0159172)
(0.0001451298 8.54943e-05 -0.03149172)
(6.727425e-05 0.0001146217 -0.03088847)
(0.0001000549 0.0005161419 -0.005981422)
(0.0001730833 0.0006560617 -0.004454151)
(9.832774e-05 0.0006889305 -0.01789298)
(0.0001281764 0.0004224494 -0.003526513)
(0.0001682597 0.0004873617 -0.01366012)
(8.802495e-05 0.0005227776 -0.0251538)
(9.950246e-05 0.0002900534 -0.002914051)
(0.0001299046 0.0003398513 -0.01096577)
(0.0001570607 0.0004006193 -0.01971601)
(7.964128e-05 0.0004539811 -0.03964231)
(7.833665e-05 0.0001480381 -0.002484477)
(9.982749e-05 0.0001714983 -0.009161662)
(0.000122485 0.0002026742 -0.01605416)
(0.0001434231 0.0002423483 -0.03182054)
(6.597928e-05 0.000320064 -0.03134278)
(6.305604e-05 4.675538e-05 -0.002168197)
(7.780202e-05 5.409516e-05 -0.007880695)
(9.370204e-05 6.33809e-05 -0.01354953)
(0.0001124356 7.443356e-05 -0.02623904)
(0.0001194262 0.0001009433 -0.02564088)
(0.0005746565 0.001047566 -0.06162179)
(0.0001038801 0.0001433399 -0.006235574)
(0.0001660625 0.0005347077 -0.004630476)
(9.603603e-05 0.0005461855 -0.01898837)
(0.000123526 0.0005802556 -0.003631849)
(0.0001672517 0.0006776848 -0.01417016)
(8.830404e-05 0.0007443797 -0.02657007)
(9.486227e-05 0.0003720769 -0.002976169)
(0.0001245061 0.0004353419 -0.01123635)
(0.0001528004 0.0005123765 -0.02031489)
(7.750438e-05 0.000575979 -0.04140085)
(7.612018e-05 0.0002567549 -0.002517049)
(9.704426e-05 0.0002978431 -0.009296013)
(0.0001191356 0.000352317 -0.01632534)
(0.0001404981 0.0004222446 -0.03247711)
(6.36401e-05 0.000559821 -0.03226941)
(6.206103e-05 0.0001324776 -0.002181426)
(7.655099e-05 0.0001518441 -0.007933423)
(9.207423e-05 0.0001770704 -0.01365072)
(0.0001103764 0.0002115416 -0.02646398)
(0.0001166883 0.0002830916 -0.02590778)
(0.0005619444 0.002970967 -0.06253082)
(5.12324e-05 4.2138e-05 -0.00192712)
(6.167883e-05 4.828521e-05 -0.006929168)
(7.191263e-05 5.581692e-05 -0.01174995)
(8.479562e-05 6.452805e-05 -0.02234879)
(9.230438e-05 8.60878e-05 -0.02136834)
(0.001021394 0.0009154222 -0.0511502)
(0.0005898378 0.0010806 -0.04346134)
(0.0001062236 7.247233e-05 -0.006397288)
(0.0001693105 0.0002022239 -0.00474938)
(9.938671e-05 0.0001613215 -0.01978703)
(0.0001133287 0.0004758236 -0.003745102)
(0.0001592313 0.0005531087 -0.01472892)
(8.458545e-05 0.0005969808 -0.02818725)
(9.027229e-05 0.0005065628 -0.003051567)
(0.0001194573 0.0005962209 -0.01156984)
(0.0001501209 0.0007069097 -0.02106934)
(7.637519e-05 0.0008090483 -0.04372605)
(7.229833e-05 0.0003297093 -0.002564462)
(9.219493e-05 0.0003822138 -0.009492878)
(0.0001131741 0.0004519473 -0.01672608)
(0.0001348168 0.0005416462 -0.03346026)
(5.921912e-05 0.0007215866 -0.03369913)
(6.021826e-05 0.0002293641 -0.002207259)
(7.42409e-05 0.0002631478 -0.008036714)
(8.907382e-05 0.0003069659 -0.01384985)
(0.0001065967 0.0003669378 -0.02690911)
(0.000111655 0.0004910543 -0.02644156)
(0.0005384683 0.005193046 -0.06438137)
(5.039972e-05 0.000119488 -0.001937907)
(6.064824e-05 0.0001356845 -0.00697118)
(7.058998e-05 0.0001561406 -0.01182815)
(8.304144e-05 0.0001836128 -0.02251508)
(8.967803e-05 0.0002417322 -0.02155088)
(0.0009952454 0.002603087 -0.05168446)
(0.0005760863 0.003145786 -0.04410642)
(4.254356e-05 3.824861e-05 -0.001729005)
(5.01147e-05 4.346671e-05 -0.006163071)
(5.70049e-05 4.968174e-05 -0.01033702)
(6.50479e-05 5.660678e-05 -0.01939076)
(6.975194e-05 7.379445e-05 -0.01820394)
(0.0007889724 0.000778251 -0.04262821)
(0.001052964 0.0009429227 -0.03606206)
(0.0005760238 0.001117571 -0.04824458)
(0.0001081438 1.238165e-05 -0.006488253)
(0.000171091 0.0001128794 -0.004821528)
(0.000101417 8.310072e-05 -0.02029443)
(0.0001117761 0.0001922275 -0.003817337)
(0.0001618173 0.0002123225 -0.01510386)
(8.68209e-05 0.0001959418 -0.02936455)
(8.151284e-05 0.0004162747 -0.003131925)
(0.0001087552 0.0004891725 -0.01192971)
(0.0001401468 0.0005785838 -0.02189624)
(7.098212e-05 0.0006561894 -0.04638891)
(6.841906e-05 0.0004461243 -0.002621354)
(8.735533e-05 0.0005191059 -0.009731939)
(0.0001073941 0.0006153144 -0.01722007)
(0.0001301937 0.0007411055 -0.03469941)
(5.499522e-05 0.0009920892 -0.03559135)
(5.707029e-05 0.0002947006 -0.002244681)
(7.027321e-05 0.0003379888 -0.008187145)
(8.389775e-05 0.000394233 -0.01414169)
(9.99789e-05 0.0004714202 -0.02756737)
(0.0001025861 0.0006332957 -0.02724054)
(0.0004947909 0.006710367 -0.06724477)
(4.885232e-05 0.0002065761 -0.001958907)
(5.873644e-05 0.0002347458 -0.007053177)
(6.813715e-05 0.0002701477 -0.01198137)
(7.978737e-05 0.000317684 -0.02284212)
(8.476792e-05 0.0004176569 -0.02191276)
(0.0009464816 0.004512152 -0.05274987)
(0.0005505792 0.005498148 -0.0454195)
(4.183777e-05 0.0001085233 -0.001737969)
(4.925469e-05 0.000122242 -0.006197356)
(5.592394e-05 0.000139103 -0.01039937)
(6.364152e-05 0.000161192 -0.01951938)
(6.763315e-05 0.0002073095 -0.01833886)
(0.0007646127 0.002214566 -0.04299376)
(0.001024988 0.002748143 -0.03644138)
(0.0005616402 0.003200739 -0.04896292)
(3.59248e-05 3.492766e-05 -0.001563406)
(4.161982e-05 3.941816e-05 -0.005533057)
(4.631575e-05 4.462576e-05 -0.009198783)
(5.155453e-05 5.023768e-05 -0.01706742)
(5.343328e-05 6.42324e-05 -0.01579767)
(0.0005965133 0.0006658794 -0.03631825)
(0.0008132074 0.0008011288 -0.03004463)
(0.001024467 0.0009701224 -0.04002427)
(0.0005621246 0.001124696 -0.04898328)
(0.0001090128 3.99328e-06 -0.006528697)
(0.0001730932 3.894675e-05 -0.004860702)
(0.0001031649 1.754098e-05 -0.02057965)
(0.0001104556 0.0001092254 -0.003859433)
(0.0001631644 0.000118676 -0.01533117)
(8.812245e-05 0.0001038504 -0.03011177)
(7.943204e-05 0.0001731285 -0.003181037)
(0.00010691 0.0001992082 -0.01215795)
(0.000141238 0.0002286548 -0.02245054)
(7.191181e-05 0.0002362549 -0.04831894)
(6.138039e-05 0.0003669287 -0.00268168)
(7.827724e-05 0.0004266531 -0.009987787)
(9.587621e-05 0.0005053747 -0.01775343)
(0.0001179475 0.0006083866 -0.03606267)
(4.570044e-05 0.0008193731 -0.0377544)
(5.382962e-05 0.0003968794 -0.002289164)
(6.622258e-05 0.0004563723 -0.008367746)
(7.864286e-05 0.0005327879 -0.01449617)
(9.334641e-05 0.0006377072 -0.0283792)
(9.348506e-05 0.0008540132 -0.02824846)
(0.000451362 0.009192596 -0.07103401)
(4.622687e-05 0.0002654984 -0.00198921)
(5.548119e-05 0.0003016462 -0.007172027)
(6.39567e-05 0.0003471335 -0.01220456)
(7.422955e-05 0.0004083525 -0.02332179)
(7.638065e-05 0.0005381141 -0.02244762)
(0.0008593641 0.0058245 -0.05435054)
(0.0005033437 0.007110182 -0.04747847)
(4.052307e-05 0.0001873922 -0.001755376)
(4.765449e-05 0.0002111954 -0.006264071)
(5.391228e-05 0.0002402938 -0.01052109)
(6.102177e-05 0.0002783838 -0.01977114)
(6.366006e-05 0.0003573771 -0.01860476)
(0.0007187016 0.003823782 -0.04371591)
(0.0009726827 0.004763084 -0.03719796)
(0.0005348161 0.005593275 -0.0504248)
(3.531937e-05 9.914609e-05 -0.001570972)
(4.089246e-05 0.0001109241 -0.00556157)
(4.541885e-05 0.0001250286 -0.0092497)
(5.041463e-05 0.0001431272 -0.01717002)
(5.177284e-05 0.0001804924 -0.015902)
(0.0005770209 0.0018953 -0.03658858)
(0.0007873841 0.002335247 -0.03030429)
(0.0009955102 0.002782805 -0.04044682)
(0.0005470964 0.003258287 -0.04971878)
(3.07903e-05 3.206349e-05 -0.001422996)
(3.514955e-05 3.596828e-05 -0.005006099)
(3.847159e-05 4.039768e-05 -0.008262252)
(4.188401e-05 4.502187e-05 -0.01519508)
(4.232494e-05 5.666854e-05 -0.01390753)
(0.0004567977 0.0005788312 -0.03152076)
(0.0006149519 0.0006850935 -0.02559103)
(0.0007909438 0.0008225251 -0.03334165)
(0.001001365 0.0009729968 -0.04062591)
(0.0005894239 0.001257906 -0.0414111)
(0.0001090128 -3.993279e-06 -0.006528697)
(0.0001739993 1.222545e-05 -0.00487775)
(0.0001039568 5.572601e-06 -0.02070639)
(0.0001104151 4.092035e-05 -0.003881381)
(0.0001649321 4.163763e-05 -0.01545465)
(8.945427e-05 2.819876e-05 -0.03053154)
(7.782562e-05 9.902633e-05 -0.003208768)
(0.0001054009 0.0001131538 -0.01229087)
(0.0001416182 0.0001281331 -0.02278652)
(7.236118e-05 0.0001279966 -0.04954238)
(5.948216e-05 0.0001552434 -0.002717217)
(7.602544e-05 0.0001783845 -0.01014316)
(9.344555e-05 0.0002091421 -0.01809147)
(0.0001173025 0.0002477526 -0.03697108)
(4.385944e-05 0.0003361431 -0.03932712)
(4.812268e-05 0.0003265423 -0.002336197)
(5.896398e-05 0.000375347 -0.008560127)
(6.910974e-05 0.0004380432 -0.01487576)
(8.087709e-05 0.0005243777 -0.02925961)
(7.563292e-05 0.0007047988 -0.02935334)
(0.0003612145 0.007614346 -0.07543899)
(4.349924e-05 0.0003562105 -0.002024941)
(5.211589e-05 0.0004054834 -0.007313381)
(5.963972e-05 0.000466709 -0.01247257)
(6.848964e-05 0.0005488632 -0.02390467)
(6.754896e-05 0.0007195125 -0.02310785)
(0.0007699785 0.007833128 -0.05636831)
(0.0004558322 0.009734712 -0.05018318)
(3.830431e-05 0.0002408766 -0.001780411)
(4.494707e-05 0.0002714437 -0.006360398)
(5.050924e-05 0.0003088443 -0.01069754)
(5.65924e-05 0.0003578926 -0.02013818)
(5.698525e-05 0.000460143 -0.0189945)
(0.0006405754 0.004929097 -0.04478799)
(0.0008794532 0.006150304 -0.03835695)
(0.0004854328 0.007242481 -0.05272688)
(3.418961e-05 0.000171023 -0.001585632)
(3.953616e-05 0.0001914177 -0.005616915)
(4.374582e-05 0.0002157036 -0.009348792)
(4.828608e-05 0.0002468304 -0.01737012)
(4.86553e-05 0.0003106546 -0.01610673)
(0.0005402215 0.003265295 -0.03711919)
(0.0007386612 0.004031794 -0.03081748)
(0.0009411874 0.004822189 -0.04128938)
(0.0005189283 0.005693394 -0.05121205)
(3.026567e-05 9.104893e-05 -0.001429464)
(3.452668e-05 0.0001012644 -0.005030184)
(3.771633e-05 0.0001132394 -0.008304622)
(4.094391e-05 0.0001283128 -0.01527891)
(4.099851e-05 0.0001592636 -0.01399076)
(0.0004415768 0.001647759 -0.03172994)
(0.0005943425 0.001997279 -0.02578314)
(0.0007646071 0.002360211 -0.03363101)
(0.0009714615 0.002821003 -0.04105938)
(0.0005723389 0.00361034 -0.04202759)
(2.670911e-05 2.956796e-05 -0.001302506)
(3.013153e-05 3.299771e-05 -0.004559018)
(3.249899e-05 3.680842e-05 -0.007478542)
(3.47977e-05 4.068083e-05 -0.01365395)
(3.437462e-05 5.054791e-05 -0.01238413)
(0.0003617808 0.0005101509 -0.02775258)
(0.0004708646 0.0005952923 -0.02220614)
(0.0005983117 0.000702648 -0.02839689)
(0.0007728844 0.0008238099 -0.03383562)
(0.001046959 0.001082079 -0.03433664)
(0.004889197 0.01170554 -0.1086494)
(0.0001081438 -1.238165e-05 -0.006488253)
(0.0001739993 -1.222545e-05 -0.00487775)
(0.0001039568 -5.5726e-06 -0.02070639)
(0.0001103996 1.286043e-05 -0.003890637)
(0.0001657334 1.30437e-05 -0.01550839)
(9.005995e-05 8.827832e-06 -0.03071799)
(7.742233e-05 3.829331e-05 -0.003222731)
(0.0001052632 4.268173e-05 -0.01236024)
(0.0001428367 4.638502e-05 -0.02296905)
(7.320712e-05 4.059107e-05 -0.05022937)
(5.805052e-05 8.908336e-05 -0.002736744)
(7.431032e-05 0.0001019467 -0.01023083)
(9.156782e-05 0.0001187179 -0.01828834)
(0.0001165606 0.0001391912 -0.03752111)
(4.249524e-05 0.0001870813 -0.0403234)
(4.647892e-05 0.000139766 -0.002362982)
(5.695336e-05 0.000159404 -0.008672655)
(6.654556e-05 0.0001851236 -0.01510616)
(7.776431e-05 0.0002207925 -0.0298136)
(7.116878e-05 0.0003019605 -0.03009374)
(0.0003396604 0.003185343 -0.07856482)
(3.879609e-05 0.0002931087 -0.002062668)
(4.62481e-05 0.0003335722 -0.007463579)
(5.209268e-05 0.0003838205 -0.01275823)
(5.842472e-05 0.0004514289 -0.02453192)
(5.235511e-05 0.0005928866 -0.02382041)
(0.0006004487 0.006470766 -0.05863593)
(0.0003588318 0.008069553 -0.05362592)
(3.598443e-05 0.0003221802 -0.001809724)
(4.212507e-05 0.0003635833 -0.006474047)
(4.696107e-05 0.0004135778 -0.01090746)
(5.196392e-05 0.000478873 -0.02057911)
(4.98932e-05 0.0006122979 -0.0194685)
(0.0005576945 0.006575658 -0.04610998)
(0.0007831923 0.008268542 -0.03980534)
(0.0004349783 0.009907411 -0.05574768)
(3.229128e-05 0.0002198468 -0.001606659)
(3.725289e-05 0.0002460466 -0.005696563)
(4.093121e-05 0.000277259 -0.009491892)
(4.470992e-05 0.0003173252 -0.01766047)
(4.345616e-05 0.0003997693 -0.01640495)
(0.0004785679 0.004205529 -0.03790085)
(0.0006558323 0.005198184 -0.0315978)
(0.0008447109 0.006229808 -0.04258797)
(0.0004673382 0.007380522 -0.0535946)
(2.928534e-05 0.0001569154 -0.001441976)
(3.336339e-05 0.0001745742 -0.00507683)
(3.630516e-05 0.0001951537 -0.00838687)
(3.918554e-05 0.0002210219 -0.01544189)
(3.850621e-05 0.0002737799 -0.01415349)
(0.0004128204 0.002834424 -0.0321385)
(0.0005554036 0.003440719 -0.02616044)
(0.0007148535 0.004074179 -0.03420269)
(0.000915182 0.004887818 -0.04192102)
(0.0005399241 0.006308337 -0.04329071)
(2.625029e-05 8.398709e-05 -0.001308098)
(2.959254e-05 9.293669e-05 -0.004579626)
(3.185449e-05 0.0001032186 -0.007514349)
(3.400975e-05 0.0001159712 -0.01372375)
(3.32924e-05 0.0001420769 -0.01245213)
(0.0003496504 0.001452366 -0.02791954)
(0.0004547902 0.001735627 -0.02235486)
(0.0005773821 0.002016482 -0.02861104)
(0.0007460263 0.002388609 -0.0341329)
(0.001013334 0.003107966 -0.03469825)
(0.00472825 0.03376644 -0.1104569)
(2.342171e-05 2.737641e-05 -0.001198039)
(2.614321e-05 3.041297e-05 -0.004175143)
(2.787016e-05 3.37272e-05 -0.00681333)
(2.940491e-05 3.700975e-05 -0.01236384)
(2.857381e-05 4.550003e-05 -0.01113008)
(0.0002937993 0.0004546827 -0.02471559)
(0.0003729054 0.0005244931 -0.01954825)
(0.0004580345 0.0006101071 -0.02463937)
(0.0005848378 0.0007031397 -0.02881296)
(0.0008077425 0.0009140468 -0.02859175)
(0.008671363 0.009968882 -0.09004375)
(0.005032209 0.01164103 -0.01111968)
(0.0001062236 -7.247233e-05 -0.006397288)
(0.0001730932 -3.894675e-05 -0.004860702)
(0.0001031649 -1.754098e-05 -0.02057965)
(0.0001103996 -1.286043e-05 -0.003890637)
(0.0001657334 -1.30437e-05 -0.01550839)
(9.005995e-05 -8.827832e-06 -0.03071799)
(7.723737e-05 1.203697e-05 -0.00322845)
(0.0001052043 1.339152e-05 -0.01238951)
(0.0001433928 1.447762e-05 -0.02304851)
(7.35955e-05 1.261219e-05 -0.05053448)
(5.761551e-05 3.504707e-05 -0.002746266)
(7.385341e-05 3.957036e-05 -0.01027503)
(9.122312e-05 4.539292e-05 -0.01839115)
(0.0001171425 5.193298e-05 -0.03781996)
(4.23383e-05 6.961858e-05 -0.04088272)
(4.525497e-05 8.034944e-05 -0.002377332)
(5.545087e-05 9.1374e-05 -0.00873442)
(6.463936e-05 0.0001056174 -0.01523617)
(7.545711e-05 0.000125246 -0.03013587)
(6.794525e-05 0.0001703385 -0.03054184)
(0.0003241509 0.001778987 -0.08054241)
(3.738311e-05 0.0001265058 -0.00208348)
(4.452517e-05 0.0001431724 -0.007548451)
(4.989036e-05 0.000164261 -0.01292523)
(5.549575e-05 0.000193046 -0.02490951)
(4.759809e-05 0.0002574137 -0.02427221)
(0.0005536509 0.00279751 -0.06009674)
(0.0003344566 0.003390953 -0.0557457)
(3.20479e-05 0.000265098 -0.001840661)
(3.72994e-05 0.0002991074 -0.006594677)
(4.089681e-05 0.00034012 -0.01113062)
(4.407924e-05 0.0003937958 -0.0210516)
(3.814556e-05 0.0005039226 -0.01997563)
(0.0004170856 0.00542078 -0.0475818)
(0.0006022203 0.006831603 -0.041671)
(0.0003341673 0.008222755 -0.05971579)
(3.029704e-05 0.0002932944 -0.001631122)
(3.485927e-05 0.0003285991 -0.005789876)
(3.797782e-05 0.0003700969 -0.00966077)
(4.094761e-05 0.0004231166 -0.01800599)
(3.791083e-05 0.0005301618 -0.01676352)
(0.0004127556 0.005584793 -0.03885033)
(0.0005677714 0.006933185 -0.0325508)
(0.0007441081 0.008371432 -0.04420912)
(0.0004139148 0.01009202 -0.05670421)
(2.764412e-05 0.0002017116 -0.001459878)
(3.141308e-05 0.0002243997 -0.005143775)
(3.39415e-05 0.0002508415 -0.008505259)
(3.624524e-05 0.0002841195 -0.01567748)
(3.436915e-05 0.0003521534 -0.0143894)
(0.0003649764 0.003648175 -0.032737)
(0.0004902101 0.004431999 -0.02673183)
(0.0006304071 0.005254444 -0.03507843)
(0.0008155244 0.00631759 -0.04327406)
(0.0004809425 0.008190843 -0.04529392)
(2.539206e-05 0.0001446321 -0.001318898)
(2.858467e-05 0.0001600798 -0.004619464)
(3.064879e-05 0.0001777205 -0.007583707)
(3.253423e-05 0.0001995663 -0.0138591)
(3.125794e-05 0.0002439923 -0.0125847)
(0.0003267223 0.002495327 -0.02824435)
(0.000424401 0.002985369 -0.02264556)
(0.0005378069 0.003473252 -0.02903146)
(0.0006952181 0.004122811 -0.03471808)
(0.000949494 0.005384538 -0.0354262)
(0.004402384 0.05896019 -0.1139547)
(2.301731e-05 7.778071e-05 -0.001202919)
(2.567239e-05 8.56835e-05 -0.004192971)
(2.731404e-05 9.46078e-05 -0.006843981)
(2.873504e-05 0.0001055268 -0.01242285)
(2.767437e-05 0.0001278984 -0.01118669)
(0.00028392 0.001294516 -0.02485208)
(0.0003601045 0.001529283 -0.01966701)
(0.0004417411 0.00175101 -0.0248052)
(0.0005635728 0.002038826 -0.02903324)
(0.0007780277 0.002625531 -0.02883889)
(0.008359175 0.02874932 -0.09114682)
(0.004872911 0.03394005 -0.01159136)
(2.072756e-05 2.543695e-05 -0.001106649)
(2.293116e-05 2.814564e-05 -0.003842129)
(2.419204e-05 3.105301e-05 -0.006241919)
(2.522964e-05 3.386806e-05 -0.01126839)
(2.416612e-05 4.126299e-05 -0.01008014)
(0.0002442516 0.0004090057 -0.02221552)
(0.0003028264 0.0004673476 -0.01740662)
(0.0003627172 0.0005372517 -0.02168927)
(0.0004476412 0.0006101555 -0.02499729)
(0.0006115155 0.0007791908 -0.0243438)
(0.006684265 0.008385778 -0.07494825)
(0.00895154 0.009940553 -0.009171842)
(0.004860623 0.01196392 -0.03201327)
(0.0001038801 -0.0001433399 -0.006235574)
(0.000171091 -0.0001128794 -0.004821528)
(0.000101417 -8.310073e-05 -0.02029443)
(0.0001104151 -4.092035e-05 -0.003881381)
(0.0001649321 -4.163763e-05 -0.01545465)
(8.945427e-05 -2.819877e-05 -0.03053154)
(7.723737e-05 -1.203697e-05 -0.00322845)
(0.0001052043 -1.339152e-05 -0.01238951)
(0.0001433928 -1.447762e-05 -0.02304851)
(7.35955e-05 -1.261219e-05 -0.05053448)
(5.741512e-05 1.101412e-05 -0.002750054)
(7.364489e-05 1.241972e-05 -0.01029314)
(9.107204e-05 1.419571e-05 -0.01843455)
(0.0001174143 1.615366e-05 -0.0379501)
(4.227889e-05 2.148823e-05 -0.04113112)
(4.48524e-05 3.19615e-05 -0.002384113)
(5.498202e-05 3.602909e-05 -0.008764584)
(6.407783e-05 4.131094e-05 -0.01530178)
(7.487148e-05 4.857248e-05 -0.0303042)
(6.717171e-05 6.664207e-05 -0.03078533)
(0.0003209097 0.000674801 -0.08165287)
(3.634018e-05 7.280676e-05 -0.002094362)
(4.325158e-05 8.22117e-05 -0.007593858)
(4.827319e-05 9.39529e-05 -0.01301692)
(5.33663e-05 0.000109936 -0.0251223)
(4.423892e-05 0.0001458279 -0.02453496)
(0.000520368 0.001579076 -0.06097828)
(0.0003170378 0.001895634 -0.05708021)
(3.082981e-05 0.0001151426 -0.001857214)
(3.582799e-05 0.0001293653 -0.006660656)
(3.90468e-05 0.0001468155 -0.01125667)
(4.165268e-05 0.0001699832 -0.02132531)
(3.427304e-05 0.0002201407 -0.02028376)
(0.0003715928 0.002367609 -0.04846858)
(0.0005509691 0.002957728 -0.04262783)
(0.0003071504 0.003479656 -0.06203639)
(2.695601e-05 0.0002413044 -0.00165695)
(3.082648e-05 0.0002703031 -0.00588891)
(3.301181e-05 0.0003043149 -0.009840101)
(3.465311e-05 0.0003478408 -0.01837547)
(2.888056e-05 0.0004358801 -0.01714517)
(0.0003047981 0.004597144 -0.03990366)
(0.0004188702 0.005715527 -0.03380633)
(0.0005575356 0.006918368 -0.04639406)
(0.0003090916 0.008384209 -0.06112072)
(2.591374e-05 0.0002685108 -0.001480587)
(2.935977e-05 0.0002989539 -0.005221712)
(3.145013e-05 0.0003339533 -0.008643995)
(3.313784e-05 0.0003777829 -0.01595559)
(2.994667e-05 0.0004658005 -0.0146704)
(0.0003137688 0.004829149 -0.03345561)
(0.0004205256 0.005884731 -0.02741881)
(0.0005403097 0.007006256 -0.03614695)
(0.000710745 0.008488427 -0.04495258)
(0.0004188307 0.01119849 -0.04792094)
(2.395971e-05 0.0001859154 -0.001334317)
(2.690074e-05 0.0002057628 -0.0046765)
(2.863657e-05 0.0002284197 -0.007683264)
(3.00762e-05 0.0002565052 -0.0140541)
(2.789265e-05 0.0003137102 -0.01277612)
(0.0002887439 0.003209976 -0.02871812)
(0.0003738694 0.003842775 -0.02308482)
(0.0004716217 0.004474829 -0.02967362)
(0.000609094 0.005318742 -0.0356351)
(0.000836874 0.00696454 -0.03655945)
(0.003817994 0.07678017 -0.1203437)
(2.226023e-05 0.0001338524 -0.001212332)
(2.479116e-05 0.0001474757 -0.004227379)
(2.627268e-05 0.0001627651 -0.006903245)
(2.747955e-05 0.0001814408 -0.01253704)
(2.598292e-05 0.0002194614 -0.0112968)
(0.000265241 0.002221972 -0.02511674)
(0.0003358947 0.002627325 -0.01989828)
(0.0004109197 0.003011405 -0.02512924)
(0.0005233244 0.003511464 -0.02946396)
(0.0007214868 0.00453146 -0.02933286)
(0.00773519 0.04977105 -0.09320403)
(0.004549976 0.0597342 -0.01254792)
(2.036861e-05 7.228479e-05 -0.001110943)
(2.251659e-05 7.931603e-05 -0.003857698)
(2.370742e-05 8.712851e-05 -0.006268448)
(2.465341e-05 9.658355e-05 -0.01131894)
(2.340673e-05 0.0001159944 -0.010128)
(0.0002360527 0.001164507 -0.02232923)
(0.000292407 0.001362697 -0.01750376)
(0.000349758 0.001541961 -0.02182175)
(0.0004311139 0.001769249 -0.02516809)
(0.0005881036 0.002238147 -0.02452641)
(0.006415686 0.02417804 -0.07572387)
(0.008641186 0.02897267 -0.009516107)
(0.004693251 0.0346414 -0.03293068)
(1.849571e-05 2.371001e-05 -0.001026073)
(2.029889e-05 2.614105e-05 -0.003550645)
(2.12312e-05 2.871222e-05 -0.005746017)
(2.191312e-05 3.114849e-05 -0.01032707)
(2.076379e-05 3.7659e-05 -0.009188511)
(0.0002066181 0.0003707133 -0.02012229)
(0.0002517688 0.0004203124 -0.01564397)
(0.000294541 0.0004785078 -0.01931244)
(0.000354464 0.0005370378 -0.02200218)
(0.0004679426 0.0006755678 -0.02111753)
(0.005066406 0.007131601 -0.06379394)
(0.00690226 0.008371262 -0.007610162)
(0.008624816 0.01016926 -0.02648141)
(0.004816195 0.01203913 -0.01181036)
(0.0001000549 -0.0005161419 -0.005981422)
(0.0001693105 -0.0002022239 -0.00474938)
(9.938671e-05 -0.0001613215 -0.01978703)
(0.0001104556 -0.0001092254 -0.003859433)
(0.0001631644 -0.000118676 -0.01533117)
(8.812245e-05 -0.0001038504 -0.03011177)
(7.742233e-05 -3.829331e-05 -0.003222731)
(0.0001052632 -4.268173e-05 -0.01236024)
(0.0001428367 -4.638502e-05 -0.02296905)
(7.320712e-05 -4.059107e-05 -0.05022937)
(5.741512e-05 -1.101412e-05 -0.002750054)
(7.364489e-05 -1.241972e-05 -0.01029314)
(9.107204e-05 -1.419571e-05 -0.01843455)
(0.0001174143 -1.615366e-05 -0.0379501)
(4.227889e-05 -2.148823e-05 -0.04113112)
(4.466684e-05 1.004112e-05 -0.00238673)
(5.476689e-05 1.130713e-05 -0.008776591)
(6.382347e-05 1.292696e-05 -0.01532868)
(7.461301e-05 1.513927e-05 -0.03037529)
(6.683912e-05 2.062238e-05 -0.03089139)
(0.0003195593 0.0002081213 -0.08214613)
(3.598138e-05 2.918273e-05 -0.002099341)
(4.28259e-05 3.274683e-05 -0.007615343)
(4.774287e-05 3.722001e-05 -0.01306175)
(5.268261e-05 4.335809e-05 -0.02522969)
(4.309952e-05 5.795889e-05 -0.02467226)
(0.0005110108 0.000622433 -0.06145714)
(0.0003129849 0.0007228746 -0.05783068)
(2.993663e-05 6.631424e-05 -0.001865664)
(3.474855e-05 7.436124e-05 -0.006695093)
(3.769857e-05 8.409881e-05 -0.01132413)
(3.990125e-05 9.699465e-05 -0.02147534)
(3.15494e-05 0.000124933 -0.0204574)
(0.000339671 0.001340959 -0.04898186)
(0.000514659 0.001669676 -0.04319641)
(0.0002880041 0.001948105 -0.06349105)
(2.589905e-05 0.0001053266 -0.001670367)
(2.956369e-05 0.0001175895 -0.005941409)
(3.14518e-05 0.0001321809 -0.009938155)
(3.265423e-05 0.0001511164 -0.01858205)
(2.584206e-05 0.0001911155 -0.01736868)
(0.0002684745 0.002017225 -0.04050589)
(0.000370309 0.002497592 -0.03436988)
(0.000502596 0.0030017 -0.04742657)
(0.0002795025 0.003566482 -0.06338344)
(2.304482e-05 0.000220883 -0.00150247)
(2.594122e-05 0.0002458812 -0.005304479)
(2.731335e-05 0.0002745382 -0.008791293)
(2.800717e-05 0.0003104643 -0.01625276)
(2.282344e-05 0.0003826388 -0.01496858)
(0.0002310476 0.003970493 -0.03425249)
(0.0003064557 0.004843664 -0.02834378)
(0.0003887628 0.005775655 -0.03763317)
(0.0005185231 0.007016045 -0.0474758)
(0.0002997093 0.009314851 -0.05157977)
(2.244527e-05 0.000247017 -0.00135206)
(2.51221e-05 0.0002735528 -0.004742524)
(2.650852e-05 0.0003034323 -0.007799198)
(2.747014e-05 0.0003402792 -0.01428268)
(2.428977e-05 0.0004140843 -0.01300231)
(0.0002480325 0.004238661 -0.02928158)
(0.0003197314 0.005086317 -0.02360657)
(0.0004007209 0.005940617 -0.03044502)
(0.0005169277 0.007092361 -0.03674628)
(0.0007171798 0.009360023 -0.03797418)
(0.003182089 0.1044197 -0.1282549)
(2.100007e-05 0.0001720501 -0.001225745)
(2.332317e-05 0.0001895515 -0.004276538)
(2.454004e-05 0.0002091802 -0.006988107)
(2.53946e-05 0.0002331738 -0.01270111)
(2.31929e-05 0.0002820682 -0.01145525)
(0.0002344032 0.002857 -0.02550144)
(0.0002958136 0.003379974 -0.02024735)
(0.0003597172 0.003876851 -0.02562356)
(0.0004560738 0.004525004 -0.03013912)
(0.0006258071 0.00584865 -0.03009887)
(0.006644349 0.06445456 -0.09708236)
(0.00396078 0.07794799 -0.01728673)
(1.969614e-05 0.0001243189 -0.001119216)
(2.174005e-05 0.0001364261 -0.003887706)
(2.279929e-05 0.0001497938 -0.006319658)
(2.357271e-05 0.0001659438 -0.01141655)
(2.197829e-05 0.000198896 -0.01022091)
(0.0002205473 0.001997215 -0.02254908)
(0.0002726961 0.002338885 -0.01769232)
(0.0003252371 0.002648774 -0.02207962)
(0.0003998255 0.003042577 -0.02550032)
(0.000543563 0.003854588 -0.02488976)
(0.005882205 0.0417013 -0.07714054)
(0.008019938 0.05053935 -0.0102191)
(0.004354195 0.06178173 -0.03470364)
(1.817511e-05 6.738832e-05 -0.00102988)
(1.993123e-05 7.368283e-05 -0.003564354)
(2.080535e-05 8.057754e-05 -0.005769195)
(2.14123e-05 8.883857e-05 -0.01037085)
(2.011429e-05 0.0001058674 -0.009229506)
(0.000199704 0.001055502 -0.02021849)
(0.0002431256 0.001225565 -0.01572494)
(0.0002840025 0.001373376 -0.01942084)
(0.000341333 0.001557241 -0.02213879)
(0.000449787 0.001940449 -0.02125876)
(0.004856589 0.02055846 -0.06438043)
(0.006633244 0.02439202 -0.007879946)
(0.008302016 0.02943453 -0.02711692)
(0.004645803 0.03497381 -0.01238119)
(1.662316e-05 2.216257e-05 -0.0009545425)
(1.811856e-05 2.435759e-05 -0.003293523)
(1.880526e-05 2.664649e-05 -0.005311792)
(1.92452e-05 2.877322e-05 -0.009509863)
(1.806428e-05 3.455545e-05 -0.008422235)
(0.0001775907 0.0003381757 -0.01834458)
(0.0002129934 0.0003808963 -0.01416842)
(0.0002449013 0.0004301951 -0.01735636)
(0.0002878296 0.0004781355 -0.0195895)
(0.0003705068 0.0005942198 -0.0185856)
(0.003874849 0.006172822 -0.05532688)
(0.005230293 0.007123319 -0.006461399)
(0.006648663 0.008547733 -0.02201764)
(0.008551118 0.01022228 -0.009751603)
(0.004717378 0.01202155 -0.006047784)
(0.0001016633 -0.0006550432 -0.005634339)
(0.0001660625 -0.0005347077 -0.004630476)
(9.603603e-05 -0.0005461855 -0.01898837)
(0.0001117761 -0.0001922275 -0.003817337)
(0.0001618173 -0.0002123225 -0.01510386)
(8.68209e-05 -0.0001959418 -0.02936455)
(7.782562e-05 -9.902633e-05 -0.003208768)
(0.0001054009 -0.0001131538 -0.01229087)
(0.0001416182 -0.0001281331 -0.02278652)
(7.236118e-05 -0.0001279967 -0.04954238)
(5.761551e-05 -3.504707e-05 -0.002746266)
(7.385341e-05 -3.957036e-05 -0.01027503)
(9.122312e-05 -4.539292e-05 -0.01839115)
(0.0001171425 -5.193298e-05 -0.03781996)
(4.23383e-05 -6.961858e-05 -0.04088272)
(4.466684e-05 -1.004112e-05 -0.00238673)
(5.476689e-05 -1.130713e-05 -0.008776591)
(6.382347e-05 -1.292696e-05 -0.01532868)
(7.461301e-05 -1.513927e-05 -0.03037529)
(6.683912e-05 -2.062238e-05 -0.03089139)
(0.0003195593 -0.0002081213 -0.08214613)
(3.581607e-05 9.164973e-06 -0.0021012)
(4.263035e-05 1.027463e-05 -0.00762364)
(4.750124e-05 1.164798e-05 -0.0130796)
(5.23747e-05 1.352401e-05 -0.02527375)
(4.259425e-05 1.796262e-05 -0.02473027)
(0.0005069491 0.0001924552 -0.06166567)
(0.0003112762 0.0002229022 -0.05816388)
(2.96203e-05 2.672998e-05 -0.001869401)
(3.437311e-05 2.982914e-05 -0.00671087)
(3.723362e-05 3.359498e-05 -0.01135608)
(3.9299e-05 3.862449e-05 -0.02154868)
(3.056523e-05 5.001656e-05 -0.02054509)
(0.0003284865 0.0005352228 -0.04924964)
(0.0005040547 0.0006594549 -0.04350463)
(0.0002829799 0.0007491212 -0.06431071)
(2.5128e-05 6.068867e-05 -0.001677053)
(2.864265e-05 6.763832e-05 -0.005968147)
(3.032118e-05 7.578431e-05 -0.009989345)
(3.121848e-05 8.633021e-05 -0.0186924)
(2.370929e-05 0.0001085565 -0.01749122)
(0.0002430567 0.001144107 -0.04084299)
(0.0003362955 0.001414339 -0.03468695)
(0.0004638996 0.001694686 -0.04803357)
(0.0002586765 0.001999084 -0.06478898)
(2.212155e-05 9.679636e-05 -0.001513515)
(2.484911e-05 0.0001074525 -0.005347047)
(2.59864e-05 0.0001198165 -0.008869357)
(2.634324e-05 0.0001355117 -0.01641346)
(2.039852e-05 0.0001681949 -0.0151374)
(0.0002027777 0.001746986 -0.0346876)
(0.0002679068 0.002125483 -0.02871596)
(0.0003387154 0.002525473 -0.03823355)