/*--------------------------------*- C++ -*----------------------------------*\
| =========                 |                                                 |
| \\      /  F ield         | OpenFOAM: The Open Source CFD Toolbox           |
|  \\    /   O peration     | Version:  2306                                  |
|   \\  /    A nd           | Website:  www.openfoam.com                      |
|    \\/     M anipulation  |                                                 |
\*---------------------------------------------------------------------------*/
FoamFile
{
    version     2.0;
    format      ascii;
    arch        "LSB;label=32;scalar=64";
    class       volScalarField;
    location    "0.9/fuel";
    object      X.H2O;
}
// * * * * * * * * * * * * * * * * * * * * * * * * * * * * * * * * * * * * * //

dimensions      [0 0 0 0 0 0 0];

internalField   nonuniform List<scalar> 
16000
(
0.0695154
0.06822446
0.09007798
0.06944165
0.06565223
0.0890704
0.06815008
0.1131075
0.09001064
0.06929737
0.06187347
0.0870643
0.06557651
0.1122051
0.08900267
0.0680046
0.1354878
0.1130457
0.08987875
0.06908484
0.05715958
0.08411847
0.06179546
0.1104079
0.08699573
0.06542843
0.134648
0.112143
0.08887001
0.06779033
0.1568292
0.1354304
0.1129244
0.08968429
0.06880544
0.05229754
0.08044072
0.05707785
0.1077661
0.08404848
0.06164293
0.1329758
0.1103452
0.08686144
0.06521038
0.1560388
0.1345903
0.1120212
0.08867443
0.06750865
0.1771423
0.1567756
0.1353178
0.1127456
0.08942845
0.06852889
0.04873928
0.07663195
0.05221073
0.104463
0.08036844
0.05691805
0.1305179
0.1077022
0.08391143
0.06141837
0.1544654
0.1329176
0.1102221
0.08666347
0.06492375
0.1763945
0.1559849
0.1344773
0.1118415
0.08841714
0.06722986
0.1964987
0.1770918
0.1566702
0.1351516
0.1125101
0.08917513
0.06830018
0.04651712
0.07380513
0.0486503
0.1010362
0.07655654
0.05204098
0.127445
0.1043974
0.0802269
0.0566828
0.1521535
0.1304589
0.107577
0.08370942
0.06112322
0.1749064
0.1544111
0.1328035
0.1100405
0.08640306
0.06464008
0.1957889
0.1763438
0.1558791
0.1343103
0.1116049
0.08816238
0.06699928
0.2149718
0.1964511
0.1769926
0.1565145
0.1349326
0.1122768
0.08896564
0.06807323
0.04526712
0.07200711
0.04642739
0.09848736
0.07372873
0.04847637
0.1242566
0.100968
0.07640884
0.051791
0.1492636
0.1273844
0.1042686
0.08001826
0.0563736
0.1727203
0.1520984
0.130343
0.1073924
0.08344372
0.06083114
0.1943767
0.1748554
0.1543044
0.132635
0.1098016
0.08614522
0.06440537
0.2142963
0.1957411
0.1762443
0.1557228
0.1340904
0.1113705
0.08795168
0.06677047
0.232628
0.2149266
0.1963574
0.176846
0.1563093
0.1347156
0.1120839
0.08875775
0.06784803
0.0447083
0.07097712
0.04517709
0.09686154
0.0719306
0.04625205
0.1218838
0.09841856
0.07357909
0.0482203
0.1462656
0.1241938
0.1008344
0.07619106
0.05146235
0.1699884
0.1492072
0.1272655
0.1040787
0.07974382
0.05606759
0.1923024
0.1726686
0.1519901
0.1301719
0.1071493
0.08318065
0.06058903
0.2129526
0.1943285
0.1747551
0.1541468
0.1324131
0.1095648
0.0859319
0.06417233
0.2319838
0.214251
0.195647
0.1760971
0.1555168
0.1338725
0.1111767
0.0877426
0.06654341
0.2495263
0.2325852
0.2148378
0.1962187
0.1766527
0.1561058
0.1345361
0.1118925
0.08855148
0.0676246
0.0447083
0.07051046
0.04461815
0.09592746
0.07090069
0.04500122
0.1203688
0.09679284
0.07178081
0.045994
0.1440341
0.1218206
0.09828365
0.07335849
0.04788371
0.1671548
0.1462072
0.1240706
0.1006371
0.07590452
0.05113698
0.1897108
0.1699355
0.1490963
0.1270899
0.1038287
0.0794721
0.05581264
0.2109793
0.1922536
0.1725669
0.1518302
0.1299466
0.1069085
0.08296268
0.06034823
0.2307027
0.212907
0.1942338
0.1746068
0.1539391
0.1321933
0.109369
0.08572014
0.06394099
0.2489109
0.2319408
0.2141618
0.1955079
0.1759031
0.1553126
0.1336922
0.1109844
0.08753513
0.06631812
0.2657186
0.2494855
0.2325007
0.2147063
0.1960359
0.176461
0.1559376
0.134358
0.1117026
0.08834682
0.06655101
0.04526712
0.07051046
0.04461815
0.0955033
0.07043408
0.04444206
0.1194974
0.09585893
0.07075105
0.04474243
0.1426085
0.1203057
0.09665813
0.07156
0.04565487
0.1650455
0.1439753
0.1216965
0.09808454
0.07306826
0.04755052
0.1870231
0.1671
0.1460925
0.1238887
0.1003773
0.07562073
0.05086345
0.2085143
0.1896609
0.1698314
0.1489324
0.1268587
0.1035811
0.07924599
0.05555777
0.2288215
0.2109331
0.1921576
0.1724165
0.1516195
0.1297233
0.106709
0.08274599
0.06010874
0.2476873
0.2306594
0.2128172
0.1940937
0.1744112
0.1537332
0.1320113
0.1091746
0.08550993
0.06371133
0.2651299
0.24887
0.2318561
0.2140299
0.1953245
0.1757107
0.1551437
0.1335134
0.1107935
0.08732928
0.06523564
0.2812512
0.2656797
0.2494051
0.2323757
0.2145328
0.1958545
0.1763025
0.1557707
0.1341814
0.1115142
0.08736269
0.06581971
0.04651712
0.07097712
0.04517709
0.0955033
0.07043408
0.04444206
0.1191014
0.09543488
0.07028455
0.04418298
0.141788
0.1194346
0.09572458
0.07053051
0.04440238
0.1636975
0.1425499
0.120182
0.09645934
0.07126956
0.04531922
0.1850224
0.1649904
0.1438598
0.1215131
0.09782238
0.07278085
0.04727037
0.2059581
0.1869715
0.1669924
0.1459228
0.1236489
0.1001199
0.07538273
0.05058752
0.2264718
0.208467
0.1895627
0.1696774
0.1487164
0.1266295
0.103375
0.07902023
0.05530298
0.2458906
0.2287776
0.2108422
0.1920157
0.1722183
0.1514106
0.1295383
0.1065107
0.08253057
0.05987058
0.2639594
0.2476461
0.2305741
0.2126844
0.1939088
0.1742173
0.1535628
0.1318307
0.1089816
0.08530127
0.06260754
0.2806873
0.2650909
0.2487893
0.2317307
0.2138559
0.1951425
0.1755516
0.1549761
0.133336
0.1106042
0.0863394
0.06449503
0.2961653
0.281214
0.265603
0.2492859
0.2322107
0.2143607
0.1957045
0.1761452
0.1556051
0.1340061
0.1106076
0.08669338
0.06526926
0.04873928
0.07200711
0.04642739
0.09592746
0.07090069
0.04500122
0.1191014
0.09543488
0.07028455
0.04418298
0.1414149
0.1190386
0.09530072
0.07006418
0.04384257
0.1629214
0.1417296
0.1193112
0.09552635
0.07024043
0.04406585
0.1837435
0.1636427
0.1424348
0.1199992
0.09619765
0.07098196
0.04503758
0.2040554
0.1849705
0.1648822
0.1436891
0.1212716
0.09756266
0.07253976
0.04698775
0.2240356
0.2059094
0.1868701
0.1668332
0.1456992
0.1234112
0.09990409
0.07514322
0.05030916
0.2436469
0.226427
0.2083741
0.1894174
0.1694745
0.1485023
0.1264388
0.1031693
0.07879482
0.05504829
0.262241
0.2458489
0.2286913
0.2107077
0.1918284
0.1720218
0.1512376
0.1293543
0.1063135
0.08231643
0.05872423
0.2795662
0.2639201
0.2475649
0.2304479
0.2125091
0.1937255
0.1740569
0.1533937
0.1316515
0.10879
0.08429764
0.06183989
0.2956245
0.28065
0.2650139
0.2486698
0.2315652
0.2136832
0.194992
0.1753937
0.1548098
0.1331599
0.1096931
0.08566384
0.06393493
0.3104981
0.2961297
0.2811407
0.2654893
0.2491287
0.2320469
0.2142184
0.1955557
0.1759891
0.1554408
0.1331623
0.1099916
0.08618997
0.06490117
0.05229754
0.07380513
0.0486503
0.09686154
0.0719306
0.04625205
0.1194974
0.09585893
0.07075105
0.04474243
0.1414149
0.1190386
0.09530072
0.07006418
0.04384257
0.1625684
0.1413567
0.1189155
0.09510279
0.06977433
0.04350569
0.1830071
0.1628668
0.141615
0.1191291
0.0952654
0.06995322
0.0437839
0.202839
0.183692
0.1635349
0.1422648
0.1197584
0.09593841
0.07074114
0.04475402
0.2222221
0.2040064
0.1848686
0.1647221
0.1434641
0.1210323
0.09734481
0.0722971
0.04670264
0.2413208
0.2239893
0.2058134
0.18672
0.1666233
0.1454775
0.1232119
0.09968691
0.07490217
0.05002835
0.2600952
0.2436043
0.2263388
0.2082365
0.1892258
0.1692732
0.1483242
0.1262484
0.1029639
0.07856977
0.05381664
0.2779204
0.2622012
0.2457668
0.2285635
0.2105302
0.1916427
0.1718589
0.1510655
0.1291715
0.1061176
0.08128506
0.05788314
0.2945495
0.2795286
0.2638427
0.2474446
0.2302812
0.2123352
0.1935738
0.1738977
0.1532259
0.1314736
0.1078681
0.08360363
0.06124859
0.309979
0.2955888
0.2805764
0.2648999
0.2485121
0.2314009
0.2135404
0.1948426
0.1752371
0.1546449
0.1323123
0.109072
0.08515382
0.06355872
0.3242834
0.310464
0.2960595
0.281032
0.2653391
0.2489725
0.2319115
0.2140772
0.1954081
0.1758343
0.1546496
0.1325894
0.1095284
0.08585355
0.06471675
0.05715958
0.07663195
0.05221073
0.09848736
0.07372873
0.04847637
0.1203688
0.09679284
0.07178081
0.045994
0.141788
0.1194346
0.09572458
0.07053051
0.04440238
0.1625684
0.1413567
0.1189155
0.09510279
0.06977433
0.04350569
0.182672
0.162514
0.1412423
0.1187337
0.09484225
0.06948736
0.04322366
0.2021384
0.1829557
0.1627595
0.1414456
0.1188891
0.09500691
0.06971304
0.04350047
0.2210627
0.2027903
0.1835904
0.1633755
0.1420406
0.1195198
0.09572133
0.07049916
0.04446854
0.2395893
0.2221757
0.20391
0.1847177
0.164511
0.1432411
0.1208315
0.09712556
0.07205286
0.04641504
0.2578707
0.2412768
0.2238983
0.2056713
0.1865219
0.166415
0.1452915
0.1230114
0.09946836
0.07465957
0.04865892
0.2758655
0.2600546
0.2435204
0.2262081
0.208055
0.1890358
0.1691057
0.1481463
0.1260583
0.1027589
0.07748139
0.05277764
0.2929715
0.2778825
0.2621229
0.2456451
0.2283948
0.2103541
0.1914888
0.1716971
0.1508945
0.1289897
0.105173
0.08053959
0.05719399
0.3089472
0.2945136
0.2794546
0.2637279
0.2472858
0.2301158
0.2121913
0.1934233
0.1737396
0.1530593
0.1306167
0.1072314
0.08307178
0.0608442
0.3237846
0.3099448
0.2955184
0.2804674
0.2647493
0.2483555
0.2312651
0.2133987
0.1946945
0.1750817
0.1538504
0.1317349
0.1086032
0.08481177
0.06336962
0.3375517
0.3242507
0.3103968
0.2959555
0.2808884
0.26519
0.2488434
0.2317772
0.213937
0.1952616
0.1750886
0.1541127
0.1321586
0.1092189
0.08568508
0.06187347
0.08044072
0.05707785
0.1010362
0.07655654
0.05204098
0.1218838
0.09841856
0.07357909
0.0482203
0.1426085
0.1203057
0.09665813
0.07156
0.04565487
0.1629214
0.1417296
0.1193112
0.09552635
0.07024043
0.04406585
0.182672
0.162514
0.1412423
0.1187337
0.09484225
0.06948736
0.04322366
0.2018196
0.1826207
0.1624068
0.1410732
0.1184943
0.09458417
0.06924753
0.04294035
0.2203948
0.2020899
0.1828546
0.1626008
0.1412224
0.1186514
0.09479074
0.06947203
0.04321555
0.2384823
0.2210165
0.2026943
0.1834402
0.1631653
0.1418184
0.1193199
0.09550322
0.07025603
0.04418114
0.256215
0.2395452
0.2220842
0.2037672
0.1845186
0.1643016
0.1430539
0.1206293
0.09690489
0.07180703
0.04501304
0.2737355
0.2578289
0.2411902
0.2237633
0.2054837
0.1863253
0.1662403
0.1451044
0.1228095
0.09924842
0.07347733
0.04721883
0.2910014
0.2758268
0.2599745
0.243396
0.2260356
0.2078749
0.1888776
0.1689385
0.1479687
0.1258685
0.1017665
0.07659387
0.05177883
0.3074327
0.2929352
0.2778076
0.2620068
0.2454844
0.2282274
0.2102082
0.1913358
0.1715361
0.1507244
0.1281133
0.104492
0.07993766
0.05669061
0.3227933
0.3089128
0.2944428
0.2793449
0.2635763
0.2471282
0.229979
0.2120485
0.1932738
0.1735828
0.1522566
0.1300255
0.1067439
0.08270977
0.06063807
0.3370721
0.3237518
0.3098774
0.2954141
0.2803234
0.2645997
0.248226
0.2311303
0.2132581
0.1945474
0.174333
0.1533094
0.1312992
0.1082889
0.08464003
0.350331
0.3375203
0.3241862
0.3102971
0.295818
0.2807457
0.2650667
0.2487153
0.2316439
0.213798
0.1945559
0.1745827
0.153709
0.1318708
0.1090639
0.06565223
0.08411847
0.06179546
0.104463
0.08036844
0.05691805
0.1242566
0.100968
0.07640884
0.051791
0.1440341
0.1218206
0.09828365
0.07335849
0.04788371
0.1636975
0.1425499
0.120182
0.09645934
0.07126956
0.04531922
0.1830071
0.1628668
0.141615
0.1191291
0.0952654
0.06995322
0.0437839
0.2018196
0.1826207
0.1624068
0.1410732
0.1184943
0.09458417
0.06924753
0.04294035
0.2200909
0.2017712
0.1825199
0.1622485
0.1408505
0.118257
0.09436849
0.06900702
0.04265575
0.2378445
0.2203488
0.2019943
0.1827051
0.1623915
0.141001
0.1184525
0.09457383
0.06923019
0.04292915
0.2551564
0.2384384
0.2209255
0.2025522
0.1832421
0.1629568
0.1416323
0.1191191
0.09528408
0.07001174
0.04278307
0.2721501
0.256173
0.2394582
0.2219487
0.2035788
0.1843212
0.164126
0.1428655
0.1204259
0.0966828
0.07060924
0.04356018
0.2889595
0.2736956
0.2577463
0.2410618
0.2235852
0.2052976
0.1861605
0.1660645
0.144916
0.1226064
0.09817576
0.07229775
0.04543961
0.3055419
0.2909644
0.2757503
0.2598559
0.2432318
0.2258645
0.207725
0.1887196
0.1687715
0.1477913
0.1249495
0.1009604
0.0757662
0.05089618
0.3213384
0.3073979
0.2928636
0.2776967
0.2618534
0.2453249
0.2280887
0.2100631
0.1911837
0.1713761
0.1499042
0.1274817
0.1039429
0.07950406
0.05641813
0.3361189
0.3227604
0.308845
0.2943378
0.2792
0.2634258
0.2469978
0.2298432
0.2119067
0.1931255
0.1728267
0.151703
0.1295728
0.1064122
0.08252588
0.3498695
0.3370406
0.3236872
0.3097774
0.2952762
0.2801804
0.264476
0.2480975
0.2309965
0.2131186
0.1938391
0.1738234
0.1529012
0.1310071
0.1081311
0.362647
0.3503009
0.3374584
0.3240905
0.3101653
0.2956814
0.2806278
0.2649443
0.2485883
0.2315116
0.2131282
0.1940773
0.1742023
0.1534393
0.1317267
0.06822446
0.0870643
0.06557651
0.1077661
0.08404848
0.06164293
0.127445
0.1043974
0.0802269
0.0566828
0.1462656
0.1241938
0.1008344
0.07619106
0.05146235
0.1650455
0.1439753
0.1216965
0.09808454
0.07306826
0.04755052
0.1837435
0.1636427
0.1424348
0.1199992
0.09619765
0.07098196
0.04503758
0.2021384
0.1829557
0.1627595
0.1414456
0.1188891
0.09500691
0.06971304
0.04350047
0.2200909
0.2017712
0.1825199
0.1622485
0.1408505
0.118257
0.09436849
0.06900702
0.04265575
0.2375542
0.220045
0.2016759
0.1823707
0.1620396
0.1406296
0.1180586
0.09415219
0.06876584
0.04236988
0.2545464
0.2378007
0.2202582
0.2018529
0.1825078
0.1621839
0.1408159
0.118253
0.09435618
0.06898753
0.04153805
0.2711364
0.2551145
0.2383518
0.2207907
0.2023647
0.1830455
0.1627822
0.1414452
0.1189173
0.0950639
0.06882356
0.04140058
0.2874397
0.27211
0.2560901
0.2393293
0.2217698
0.2033918
0.1841554
0.1639492
0.1426759
0.1202211
0.09559969
0.06942749
0.04183288
0.3035824
0.2889213
0.2736167
0.2576239
0.2408923
0.2234084
0.2051414
0.1859945
0.1658876
0.1447264
0.1216149
0.09711014
0.0708945
0.04318752
0.3195222
0.3055065
0.2908913
0.275637
0.2596992
0.2430688
0.225722
0.2075753
0.1885619
0.1686048
0.1469322
0.1242033
0.1002107
0.07505438
0.05029084
0.3347201
0.3213051
0.3073293
0.2927575
0.2775501
0.2617012
0.2451927
0.2279507
0.2099189
0.1910325
0.170604
0.1493133
0.1269726
0.1035479
0.07927192
0.3489524
0.3360873
0.3226953
0.3087444
0.2941991
0.2790561
0.2633013
0.2468683
0.2297083
0.211766
0.1924104
0.1723055
0.1512792
0.1292649
0.1062438
0.3622026
0.3498393
0.3369786
0.3235912
0.3096452
0.2951392
0.2800621
0.2643533
0.24797
0.2308638
0.2124463
0.1933571
0.1734388
0.1526275
0.1308604
0.3745234
0.3626181
0.3502414
0.3373665
0.323964
0.3100343
0.2955684
0.2805108
0.264823
0.2484622
0.2308743
0.2126741
0.1937175
0.1739482
0.1533042
0.0695154
0.0890704
0.06815008
0.1104079
0.08699573
0.06542843
0.1305179
0.1077022
0.08391143
0.06141837
0.1492636
0.1273844
0.1042686
0.08001826
0.0563736
0.1671548
0.1462072
0.1240706
0.1006371
0.07590452
0.05113698
0.1850224
0.1649904
0.1438598
0.1215131
0.09782238
0.07278085
0.04727037
0.202839
0.183692
0.1635349
0.1422648
0.1197584
0.09593841
0.07074114
0.04475402
0.2203948
0.2020899
0.1828546
0.1626008
0.1412224
0.1186514
0.09479074
0.06947203
0.04321555
0.2375542
0.220045
0.2016759
0.1823707
0.1620396
0.1406296
0.1180586
0.09415219
0.06876584
0.04236988
0.2542688
0.2375106
0.2199546
0.2015348
0.1821739
0.1618326
0.140445
0.1178597
0.09393528
0.06852398
0.04098233
0.2705523
0.2545048
0.2377146
0.220124
0.2016663
0.1823121
0.1620103
0.1406302
0.1180528
0.09413778
0.06780875
0.04020757
0.2864679
0.2710965
0.2550321
0.2382236
0.2206127
0.2021787
0.1828809
0.1626068
0.1412573
0.1187146
0.09399191
0.06770013
0.03982717
0.302124
0.2874014
0.2720309
0.2559672
0.2391591
0.2215923
0.2032349
0.1839886
0.1637711
0.142485
0.1192218
0.09453411
0.06807069
0.03981501
0.31764
0.3035458
0.2888459
0.2734998
0.2574622
0.2407239
0.22326
0.2049842
0.1858275
0.1657094
0.1438005
0.1206296
0.09584576
0.06916692
0.04020825
0.332974
0.3194882
0.3054365
0.2907829
0.2754873
0.2595437
0.2429331
0.2255798
0.2074258
0.1884044
0.1677966
0.1462346
0.1235092
0.09956751
0.07457727
0.3476065
0.3346882
0.3212393
0.3072276
0.2926172
0.2774045
0.261575
0.2450613
0.2278136
0.2097755
0.1903026
0.170048
0.148837
0.1266065
0.1033366
0.3613196
0.348922
0.3360249
0.3225988
0.3086114
0.2940613
0.2789371
0.2631777
0.2467398
0.2295745
0.2110876
0.1919176
0.1719064
0.1509909
0.1291085
0.3740952
0.3621736
0.3497797
0.3368865
0.3234644
0.3095139
0.295026
0.2799447
0.2642316
0.2478435
0.2302242
0.211989
0.1929934
0.1731811
0.1524902
0.3859819
0.3744955
0.3625609
0.3501531
0.337245
0.3238383
0.309926
0.2954564
0.2803947
0.2647026
0.2478545
0.2304422
0.2123326
0.1934772
0.173821
0.09007798
0.06944165
0.1122051
0.08900267
0.0680046
0.1329758
0.1103452
0.08686144
0.06521038
0.1521535
0.1304589
0.107577
0.08370942
0.06112322
0.1699884
0.1492072
0.1272655
0.1040787
0.07974382
0.05606759
0.1870231
0.1671
0.1460925
0.1238887
0.1003773
0.07562073
0.05086345
0.2040554
0.1849705
0.1648822
0.1436891
0.1212716
0.09756266
0.07253976
0.04698775
0.2210627
0.2027903
0.1835904
0.1633755
0.1420406
0.1195198
0.09572133
0.07049916
0.04446854
0.2378445
0.2203488
0.2019943
0.1827051
0.1623915
0.141001
0.1184525
0.09457383
0.06923019
0.04292915
0.2542688
0.2375106
0.2199546
0.2015348
0.1821739
0.1618326
0.140445
0.1178597
0.09393528
0.06852398
0.04098233
0.2702864
0.2542272
0.2374247
0.2198207
0.2013486
0.1819787
0.1616595
0.1402599
0.1176602
0.09371776
0.06734984
0.03967571
0.2859079
0.2705126
0.2544227
0.237587
0.2199469
0.2014811
0.1821485
0.1618361
0.1404437
0.1178518
0.0930758
0.06672765
0.03873386
0.3011915
0.2864298
0.2710178
0.2549099
0.2380542
0.220436
0.2020228
0.1827154
0.1624304
0.1410684
0.1177268
0.09298008
0.06646432
0.03807209
0.3162392
0.3020873
0.2873257
0.2719136
0.2558049
0.23899
0.2214433
0.203077
0.1838207
0.1635919
0.1415527
0.1182378
0.09331226
0.06652697
0.03750151
0.3311646
0.317605
0.3034737
0.2887341
0.2733453
0.2573015
0.2405826
0.2231107
0.204826
0.1856593
0.1648392
0.1428796
0.1194596
0.09429231
0.06692268
0.03536966
0.3459266
0.3329414
0.3194211
0.3053326
0.2906396
0.2753386
0.2594142
0.2427976
0.2254377
0.2072766
0.187641
0.1671405
0.1455855
0.1229138
0.09913718
0.3600237
0.3475758
0.3346251
0.3211418
0.3070932
0.2924778
0.2772839
0.2614496
0.2449306
0.2276773
0.2090833
0.1897771
0.1695997
0.1484944
0.1264106
0.3732444
0.3612904
0.3488621
0.3359323
0.3224712
0.3084793
0.2939473
0.2788189
0.263055
0.2466123
0.2289292
0.2106201
0.1915402
0.1716349
0.1508445
0.3855691
0.3740673
0.3621163
0.3496911
0.3367646
0.3233384
0.3094053
0.2949136
0.2798283
0.2641108
0.2472337
0.2297891
0.2116439
0.1927496
0.1730517
0.3970428
0.3859551
0.3744405
0.3624759
0.3500363
0.3371243
0.3237344
0.3098186
0.2953452
0.2802796
0.2641221
0.2474426
0.2301174
0.2121046
0.1933568
0.1131075
0.09001064
0.06929737
0.134648
0.112143
0.08887001
0.06779033
0.1544654
0.1329176
0.1102221
0.08666347
0.06492375
0.1727203
0.1520984
0.130343
0.1073924
0.08344372
0.06083114
0.1897108
0.1699355
0.1490963
0.1270899
0.1038287
0.0794721
0.05581264
0.2059581
0.1869715
0.1669924
0.1459228
0.1236489
0.1001199
0.07538273
0.05058752
0.2222221
0.2040064
0.1848686
0.1647221
0.1434641
0.1210323
0.09734481
0.0722971
0.04670264
0.2384823
0.2210165
0.2026943
0.1834402
0.1631653
0.1418184
0.1193199
0.09550322
0.07025603
0.04418114
0.2545464
0.2378007
0.2202582
0.2018529
0.1825078
0.1621839
0.1408159
0.118253
0.09435618
0.06898753
0.04153805
0.2702864
0.2542272
0.2374247
0.2198207
0.2013486
0.1819787
0.1616595
0.1402599
0.1176602
0.09371776
0.06734984
0.03967571
0.285653
0.2702468
0.2541454
0.2372973
0.219644
0.2011638
0.1818155
0.1614858
0.1400742
0.1174602
0.0926607
0.06628814
0.03824606
0.3006541
0.28587
0.2704343
0.254301
0.2374185
0.2197711
0.2013262
0.1819842
0.1616612
0.1402566
0.116874
0.09210283
0.06556969
0.0371263
0.3153435
0.301155
0.2863546
0.2709011
0.2547484
0.2378861
0.2202881
0.2018662
0.1825491
0.1622532
0.1401477
0.1167935
0.09186749
0.06512353
0.03615433
0.329818
0.316204
0.3020149
0.2872135
0.2717585
0.2556437
0.2388482
0.2212933
0.2029179
0.1836516
0.1627164
0.1406339
0.1171083
0.09192324
0.06479314
0.03451915
0.3441858
0.331131
0.3175358
0.3033666
0.2885863
0.2731918
0.2571668
0.2404404
0.2229604
0.2046667
0.1848375
0.163973
0.1417852
0.1180216
0.09227693
0.06329728
0.03278272
0.3584063
0.3458953
0.3328771
0.3193215
0.3051954
0.2904973
0.2752149
0.2592849
0.2426623
0.2252959
0.2065528
0.187021
0.1665296
0.1450284
0.1225152
0.3719959
0.3599942
0.3475152
0.3345314
0.3210128
0.3069596
0.2923624
0.277164
0.2613249
0.2448008
0.2270191
0.2085849
0.1893533
0.1692771
0.148311
0.3847489
0.3732163
0.3612327
0.348773
0.3358097
0.3223445
0.30837
0.2938341
0.2787015
0.2629332
0.2459971
0.2284845
0.2102621
0.1912835
0.1714971
0.3966446
0.3855422
0.3740121
0.3620311
0.349574
0.3366436
0.3232342
0.3092976
0.2948021
0.2797128
0.2635284
0.246819
0.2294609
0.2114126
0.1926272
0.4077248
0.397017
0.3859021
0.3743587
0.3623636
0.3499202
0.3370244
0.3236313
0.309712
0.2952349
0.2797243
0.2637288
0.2471329
0.2299004
0.2119904
0.1354878
0.1130457
0.08987875
0.06908484
0.1560388
0.1345903
0.1120212
0.08867443
0.06750865
0.1749064
0.1544111
0.1328035
0.1100405
0.08640306
0.06464008
0.1923024
0.1726686
0.1519901
0.1301719
0.1071493
0.08318065
0.06058903
0.2085143
0.1896609
0.1698314
0.1489324
0.1268587
0.1035811
0.07924599
0.05555777
0.2240356
0.2059094
0.1868701
0.1668332
0.1456992
0.1234112
0.09990409
0.07514322
0.05030916
0.2395893
0.2221757
0.20391
0.1847177
0.164511
0.1432411
0.1208315
0.09712556
0.07205286
0.04641504
0.2551564
0.2384384
0.2209255
0.2025522
0.1832421
0.1629568
0.1416323
0.1191191
0.09528408
0.07001174
0.04278307
0.2705523
0.2545048
0.2377146
0.220124
0.2016663
0.1823121
0.1620103
0.1406302
0.1180528
0.09413778
0.06780875
0.04020757
0.285653
0.2702468
0.2541454
0.2372973
0.219644
0.2011638
0.1818155
0.1614858
0.1400742
0.1174602
0.0926607
0.06628814
0.03824606
0.3004095
0.2856152
0.2701687
0.254024
0.2371292
0.2194686
0.2010094
0.1816518
0.1613117
0.139888
0.1164872
0.09170556
0.0651645
0.0367009
0.3148273
0.3006178
0.2857951
0.2703181
0.2541404
0.2372511
0.219624
0.2011707
0.1818193
0.1614857
0.1393456
0.1159772
0.09106051
0.06434231
0.03539906
0.328957
0.3153085
0.301083
0.2862429
0.2707469
0.254588
0.2377453
0.2201393
0.2017087
0.182382
0.1613889
0.1392769
0.1157659
0.09066051
0.06369276
0.03377194
0.3428903
0.3297843
0.3161346
0.3019074
0.2870652
0.2716045
0.2555084
0.2387054
0.2211422
0.2027578
0.1828252
0.1618526
0.139578
0.1158232
0.09036373
0.06259255
0.03242285
0.3567304
0.3441535
0.3310647
0.3174331
0.303225
0.2884394
0.273063
0.2570311
0.2402973
0.222809
0.2038879
0.184019
0.1629426
0.140439
0.1161554
0.08901897
0.06122304
0.03087311
0.3704377
0.3583762
0.3458334
0.3327815
0.3191899
0.305059
0.2903789
0.2750913
0.2591558
0.2425272
0.2246079
0.205965
0.1864436
0.1660051
0.1446553
0.3835453
0.3719675
0.359936
0.3474252
0.3344076
0.3208847
0.306849
0.2922476
0.2770448
0.2612009
0.2441735
0.2265452
0.208183
0.1890484
0.1691045
0.3958534
0.3847219
0.3731608
0.3611471
0.3486553
0.335688
0.3222396
0.3082615
0.2937218
0.2785851
0.2623458
0.2455734
0.2281441
0.2100186
0.1911532
0.4073405
0.3966187
0.3854891
0.3739301
0.3619185
0.3494576
0.3365435
0.3231308
0.3091907
0.2946914
0.2791557
0.2631324
0.2465061
0.2292409
0.2112965
0.4180454
0.4076999
0.3969659
0.3858233
0.3742506
0.3622519
0.3498242
0.3369254
0.323529
0.3096062
0.2947031
0.2793481
0.2634331
0.2469261
0.2297918
0.1568292
0.1354304
0.1129244
0.08968429
0.06880544
0.1763945
0.1559849
0.1344773
0.1118415
0.08841714
0.06722986
0.1943767
0.1748554
0.1543044
0.132635
0.1098016
0.08614522
0.06440537
0.2109793
0.1922536
0.1725669
0.1518302
0.1299466
0.1069085
0.08296268
0.06034823
0.2264718
0.208467
0.1895627
0.1696774
0.1487164
0.1266295
0.103375
0.07902023
0.05530298
0.2413208
0.2239893
0.2058134
0.18672
0.1666233
0.1454775
0.1232119
0.09968691
0.07490217
0.05002835
0.256215
0.2395452
0.2220842
0.2037672
0.1845186
0.1643016
0.1430539
0.1206293
0.09690489
0.07180703
0.04501304
0.2711364
0.2551145
0.2383518
0.2207907
0.2023647
0.1830455
0.1627822
0.1414452
0.1189173
0.0950639
0.06882356
0.04140058
0.2859079
0.2705126
0.2544227
0.237587
0.2199469
0.2014811
0.1821485
0.1618361
0.1404437
0.1178518
0.0930758
0.06672765
0.03873386
0.3004095
0.2856152
0.2701687
0.254024
0.2371292
0.2194686
0.2010094
0.1816518
0.1613117
0.139888
0.1164872
0.09170556
0.0651645
0.0367009
0.3145924
0.3003732
0.2855405
0.2700528
0.2538638
0.2369623
0.219322
0.2008545
0.1814876
0.161137
0.1389817
0.1156073
0.09069425
0.06398493
0.03505077
0.3284608
0.3147925
0.3005461
0.2856841
0.2701647
0.2539808
0.2371112
0.2194764
0.2010146
0.1816538
0.1606308
0.1385094
0.1150152
0.08995528
0.0630567
0.03326919
0.342062
0.3289235
0.3152395
0.3009761
0.2860954
0.2705937
0.2544537
0.2376037
0.2199898
0.2015505
0.1815665
0.1605708
0.1383171
0.1146501
0.08937216
0.06195164
0.03200488
0.3554833
0.342858
0.3297178
0.3160316
0.3017654
0.2869178
0.2714752
0.2553722
0.2385616
0.2209901
0.201975
0.1820094
0.1608591
0.1383757
0.1143795
0.08838299
0.06089272
0.03069599
0.3688232
0.3566994
0.3440898
0.3309661
0.3172973
0.3030842
0.2883162
0.2729334
0.2568945
0.2401532
0.2220689
0.2031118
0.1830447
0.1616745
0.1386913
0.1131359
0.08715389
0.05957787
0.02940714
0.3820433
0.3704088
0.3583168
0.3457416
0.3326551
0.319059
0.3049455
0.2902606
0.2749679
0.2590269
0.2418717
0.2240491
0.2054174
0.1859476
0.1656537
0.3946926
0.383518
0.3719115
0.3598494
0.3473062
0.3342845
0.3207785
0.3067389
0.2921334
0.2769262
0.260602
0.243722
0.2261631
0.2078938
0.1888851
0.406577
0.3958274
0.3846684
0.3730784
0.3610338
0.3485382
0.3355872
0.3221355
0.3081538
0.2936103
0.2780233
0.2619413
0.2452489
0.2279125
0.209895
0.4176744
0.4073155
0.3965675
0.3854101
0.3738217
0.3618065
0.3493614
0.3364441
0.3230281
0.3090846
0.2941579
0.278777
0.2628336
0.2462964
0.2291304
0.4280211
0.4180214
0.4076506
0.39689
0.3857191
0.374143
0.3621595
0.3497289
0.3368271
0.3234275
0.3090963
0.2943428
0.2790653
0.2632355
0.2468225
0.1771423
0.1567756
0.1353178
0.1127456
0.08942845
0.06852889
0.1957889
0.1763438
0.1558791
0.1343103
0.1116049
0.08816238
0.06699928
0.2129526
0.1943285
0.1747551
0.1541468
0.1324131
0.1095648
0.0859319
0.06417233
0.2288215
0.2109331
0.1921576
0.1724165
0.1516195
0.1297233
0.106709
0.08274599
0.06010874
0.2436469
0.226427
0.2083741
0.1894174
0.1694745
0.1485023
0.1264388
0.1031693
0.07879482
0.05504829
0.2578707
0.2412768
0.2238983
0.2056713
0.1865219
0.166415
0.1452915
0.1230114
0.09946836
0.07465957
0.04865892
0.2721501
0.256173
0.2394582
0.2219487
0.2035788
0.1843212
0.164126
0.1428655
0.1204259
0.0966828
0.07060924
0.04356018
0.2864679
0.2710965
0.2550321
0.2382236
0.2206127
0.2021787
0.1828809
0.1626068
0.1412573
0.1187146
0.09399191
0.06770013
0.03982717
0.3006541
0.28587
0.2704343
0.254301
0.2374185
0.2197711
0.2013262
0.1819842
0.1616612
0.1402566
0.116874
0.09210283
0.06556969
0.0371263
0.3145924
0.3003732
0.2855405
0.2700528
0.2538638
0.2369623
0.219322
0.2008545
0.1814876
0.161137
0.1389817
0.1156073
0.09069425
0.06398493
0.03505077
0.328235
0.3145577
0.3003018
0.2854297
0.2698998
0.2537046
0.2368228
0.2191749
0.2006991
0.1813229
0.1602867
0.1381613
0.1146741
0.08963191
0.06275777
0.03302034
0.3415847
0.3284275
0.3147239
0.3004398
0.2855373
0.2700123
0.2538474
0.2369707
0.2193282
0.2008579
0.1808475
0.1598455
0.1376112
0.1139939
0.08879676
0.06150743
0.03168156
0.3546859
0.3420298
0.3288573
0.3151371
0.3008348
0.2859489
0.2704654
0.2543187
0.2374614
0.2198396
0.2007783
0.1807942
0.1596682
0.1372738
0.1134579
0.08780265
0.06050164
0.03045837
0.3676219
0.3554522
0.342794
0.3296189
0.3158954
0.3016242
0.2867942
0.2713451
0.255235
0.2384168
0.2202465
0.2012018
0.1810703
0.159727
0.1370243
0.1125445
0.08685079
0.0593854
0.02930526
0.3804871
0.3687934
0.3566381
0.3439951
0.3308357
0.3171623
0.3029662
0.2881921
0.2728029
0.256757
0.2394482
0.221331
0.2021874
0.181845
0.1600275
0.1358613
0.1114094
0.08566993
0.05823538
0.02827071
0.3932439
0.3820154
0.3703516
0.3582285
0.3456201
0.3325295
0.3189502
0.3048322
0.2901425
0.2748446
0.2584013
0.2413393
0.2235283
0.2049468
0.1856152
0.4054567
0.3946663
0.383464
0.3718282
0.3597349
0.3471879
0.3341825
0.3206729
0.3066295
0.2920199
0.2763536
0.260171
0.2433578
0.225888
0.2077389
0.4169372
0.4065519
0.3957759
0.3845891
0.3729694
0.3609212
0.3484414
0.3354872
0.3220321
0.3080469
0.2930723
0.2776365
0.2616315
0.2450282
0.2277949
0.4276627
0.4176503
0.4072662
0.3964914
0.3853057
0.3737139
0.3617139
0.3492659
0.3363455
0.3229263
0.308573
0.2937952
0.2784912
0.2626333
0.2461911
0.4376671
0.4279979
0.4179739
0.4075774
0.3967895
0.3856155
0.3740541
0.3620678
0.3496344
0.3367296
0.322938
0.3087508
0.294072
0.2788764
0.2631366
0.1964987
0.1770918
0.1566702
0.1351516
0.1125101
0.08917513
0.06830018
0.2142963
0.1957411
0.1762443
0.1557228
0.1340904
0.1113705
0.08795168
0.06677047
0.2307027
0.212907
0.1942338
0.1746068
0.1539391
0.1321933
0.109369
0.08572014
0.06394099
0.2458906
0.2287776
0.2108422
0.1920157
0.1722183
0.1514106
0.1295383
0.1065107
0.08253057
0.05987058
0.2600952
0.2436043
0.2263388
0.2082365
0.1892258
0.1692732
0.1483242
0.1262484
0.1029639
0.07856977
0.05381664
0.2737355
0.2578289
0.2411902
0.2237633
0.2054837
0.1863253
0.1662403
0.1451044
0.1228095
0.09924842
0.07347733
0.04721883
0.2874397
0.27211
0.2560901
0.2393293
0.2217698
0.2033918
0.1841554
0.1639492
0.1426759
0.1202211
0.09559969
0.06942749
0.04183288
0.3011915
0.2864298
0.2710178
0.2549099
0.2380542
0.220436
0.2020228
0.1827154
0.1624304
0.1410684
0.1177268
0.09298008
0.06646432
0.03807209
0.3148273
0.3006178
0.2857951
0.2703181
0.2541404
0.2372511
0.219624
0.2011707
0.1818193
0.1614857
0.1393456
0.1159772
0.09106051
0.06434231
0.03539906
0.328235
0.3145577
0.3003018
0.2854297
0.2698998
0.2537046
0.2368228
0.2191749
0.2006991
0.1813229
0.1602867
0.1381613
0.1146741
0.08963191
0.06275777
0.03302034
0.3413674
0.3282017
0.3144892
0.3001957
0.2852833
0.2697478
0.2535716
0.2366828
0.2190274
0.2005432
0.180521
0.1595164
0.1372903
0.1136927
0.08852564
0.06128343
0.03151063
0.3542263
0.3415527
0.3283616
0.3146219
0.3002992
0.2853915
0.2698848
0.2537134
0.2368297
0.2191795
0.2000945
0.1801062
0.1590011
0.1366567
0.1129221
0.08739875
0.06019284
0.03025665
0.3668537
0.354655
0.3419663
0.328759
0.3150016
0.3006944
0.2858261
0.2703364
0.254183
0.2373184
0.2191062
0.2000465
0.1799414
0.1586863
0.1361582
0.1120041
0.08649142