/*--------------------------------*- C++ -*----------------------------------*\
| =========                 |                                                 |
| \\      /  F ield         | OpenFOAM: The Open Source CFD Toolbox           |
|  \\    /   O peration     | Version:  2306                                  |
|   \\  /    A nd           | Website:  www.openfoam.com                      |
|    \\/     M anipulation  |                                                 |
\*---------------------------------------------------------------------------*/
FoamFile
{
    version     2.0;
    format      ascii;
    arch        "LSB;label=32;scalar=64";
    class       volScalarField;
    location    "0.9/fuel";
    object      X.H2;
}
// * * * * * * * * * * * * * * * * * * * * * * * * * * * * * * * * * * * * * //

dimensions      [0 0 0 0 0 0 0];

internalField   nonuniform List<scalar> 
16000
(
0.9304846
0.9317755
0.909922
0.9305584
0.9343478
0.9109296
0.9318499
0.8868925
0.9099894
0.9307026
0.9381265
0.9129357
0.9344235
0.8877949
0.9109973
0.9319954
0.8645122
0.8869543
0.9101212
0.9309152
0.9428404
0.9158815
0.9382045
0.8895921
0.9130043
0.9345716
0.865352
0.887857
0.91113
0.9322097
0.8431708
0.8645696
0.8870756
0.9103157
0.9311946
0.9477025
0.9195593
0.9429222
0.8922339
0.9159515
0.9383571
0.8670242
0.8896548
0.9131386
0.9347896
0.8439612
0.8654097
0.8879788
0.9113256
0.9324914
0.8228577
0.8432244
0.8646822
0.8872544
0.9105715
0.9314711
0.9512607
0.9233681
0.9477893
0.895537
0.9196316
0.9430819
0.8694821
0.8922978
0.9160886
0.9385816
0.8455346
0.8670824
0.8897779
0.9133365
0.9350763
0.8236055
0.8440151
0.8655227
0.8881585
0.9115829
0.9327701
0.8035013
0.8229082
0.8433298
0.8648484
0.8874899
0.9108249
0.9316998
0.9534829
0.9261949
0.9513497
0.8989638
0.9234435
0.947959
0.872555
0.8956026
0.9197731
0.9433172
0.8478465
0.8695411
0.892423
0.9162906
0.9388768
0.8250936
0.8455889
0.8671965
0.8899595
0.9135969
0.9353599
0.8042111
0.8236562
0.8441209
0.8656897
0.8883951
0.9118376
0.9330007
0.7850282
0.8035489
0.8230074
0.8434855
0.8650674
0.8877232
0.9110344
0.9319268
0.9547329
0.9279929
0.9535726
0.9015126
0.9262713
0.9515236
0.8757434
0.899032
0.9235912
0.948209
0.8507364
0.8726156
0.8957314
0.9199817
0.9436264
0.8272797
0.8479016
0.869657
0.8926076
0.9165563
0.9391689
0.8056233
0.8251446
0.8456956
0.867365
0.8901984
0.9138548
0.9355946
0.7857037
0.8042589
0.8237557
0.8442772
0.8659096
0.8886295
0.9120483
0.9332295
0.767372
0.7850734
0.8036426
0.823154
0.8436907
0.8652844
0.8879161
0.9112422
0.932152
0.9552917
0.9290229
0.9548229
0.9031385
0.9280694
0.9537479
0.8781162
0.9015814
0.9264209
0.9517797
0.8537344
0.8758062
0.8991656
0.9238089
0.9485377
0.8300116
0.8507928
0.8727345
0.8959213
0.9202562
0.9439324
0.8076976
0.8273314
0.8480099
0.8698281
0.8928507
0.9168194
0.939411
0.7870474
0.8056715
0.8252449
0.8458532
0.8675869
0.8904352
0.9140681
0.9358277
0.7680162
0.785749
0.804353
0.8239029
0.8444832
0.8661275
0.8888233
0.9122574
0.9334566
0.7504737
0.7674148
0.7851622
0.8037813
0.8233473
0.8438942
0.8654639
0.8881075
0.9114485
0.9323754
0.9552917
0.9294895
0.9553818
0.9040725
0.9290993
0.9549988
0.8796312
0.9032072
0.9282192
0.954006
0.8559659
0.8781794
0.9017163
0.9266415
0.9521163
0.8328452
0.8537928
0.8759294
0.8993629
0.9240955
0.948863
0.8102892
0.8300645
0.8509037
0.8729101
0.8961713
0.9205279
0.9441874
0.7890207
0.8077464
0.8274331
0.8481698
0.8700534
0.8930915
0.9170373
0.9396518
0.7692973
0.787093
0.8057662
0.8253932
0.8460609
0.8678067
0.890631
0.9142799
0.936059
0.7510891
0.7680592
0.7858382
0.8044921
0.8240969
0.8446874
0.8663078
0.8890156
0.9124649
0.9336819
0.7342814
0.7505145
0.7674993
0.7852937
0.8039641
0.823539
0.8440624
0.865642
0.8882974
0.9116532
0.933449
0.9547329
0.9294895
0.9553818
0.9044967
0.9295659
0.9555579
0.8805026
0.9041411
0.9292489
0.9552576
0.8573915
0.8796943
0.9033419
0.92844
0.9543451
0.8349545
0.8560247
0.8783035
0.9019155
0.9269317
0.9524495
0.8129769
0.8329
0.8539075
0.8761113
0.8996227
0.9243793
0.9491365
0.7914857
0.8103391
0.8301686
0.8510676
0.8731413
0.8964189
0.920754
0.9444422
0.7711785
0.7890669
0.8078424
0.8275835
0.8483805
0.8702767
0.893291
0.917254
0.9398913
0.7523127
0.7693406
0.7871828
0.8059063
0.8255888
0.8462668
0.8679887
0.8908254
0.9144901
0.9362887
0.7348701
0.75113
0.7681439
0.7859701
0.8046755
0.8242893
0.8448563
0.8664866
0.8892065
0.9126707
0.9347644
0.7187488
0.7343203
0.7505949
0.7676243
0.7854672
0.8041455
0.8236975
0.8442293
0.8658186
0.8884858
0.9126373
0.9341803
0.9534829
0.9290229
0.9548229
0.9044967
0.9295659
0.9555579
0.8808986
0.9045651
0.9297155
0.955817
0.858212
0.8805654
0.9042754
0.9294695
0.9555976
0.8363025
0.8574501
0.879818
0.9035407
0.9287304
0.9546808
0.8149776
0.8350096
0.8561402
0.8784869
0.9021776
0.9272192
0.9527296
0.7940419
0.8130285
0.8330076
0.8540772
0.8763511
0.8998801
0.9246173
0.9494125
0.7735282
0.791533
0.8104373
0.8303226
0.8512836
0.8733705
0.896625
0.9209798
0.944697
0.7541094
0.7712224
0.7891578
0.8079843
0.8277817
0.8485894
0.8704617
0.8934893
0.9174694
0.9401294
0.7360406
0.7523539
0.7694259
0.7873156
0.8060912
0.8257827
0.8464372
0.8681693
0.8910184
0.9146987
0.9373925
0.7193127
0.7349091
0.7512107
0.7682693
0.7861441
0.8048575
0.8244484
0.8450239
0.866664
0.8893958
0.9136606
0.935505
0.7038347
0.718786
0.734397
0.7507141
0.7677893
0.7856393
0.8042955
0.8238548
0.8443949
0.8659939
0.8893924
0.9133066
0.9347307
0.9512607
0.9279929
0.9535726
0.9040725
0.9290993
0.9549988
0.8808986
0.9045651
0.9297155
0.955817
0.8585851
0.8809614
0.9046993
0.9299358
0.9561574
0.8370786
0.8582704
0.8806888
0.9044737
0.9297596
0.9559342
0.8162565
0.8363573
0.8575652
0.8800008
0.9038023
0.929018
0.9549624
0.7959446
0.8150295
0.8351178
0.8563109
0.8787284
0.9024373
0.9274602
0.9530122
0.7759644
0.7940906
0.8131299
0.8331668
0.8543008
0.8765888
0.9000959
0.9248568
0.9496908
0.7563531
0.773573
0.7916259
0.8105826
0.8305255
0.8514977
0.8735612
0.8968307
0.9212052
0.9449517
0.737759
0.7541511
0.7713087
0.7892923
0.8081716
0.8279782
0.8487624
0.8706457
0.8936865
0.9176836
0.9412758
0.7204338
0.7360799
0.7524351
0.7695521
0.7874909
0.8062745
0.8259431
0.8466063
0.8683485
0.89121
0.9157024
0.9381601
0.7043755
0.71935
0.7349861
0.7513302
0.7684348
0.7863168
0.805008
0.8246063
0.8451902
0.8668401
0.8903069
0.9143362
0.9360651
0.6895019
0.7038703
0.7188593
0.7345107
0.7508713
0.7679531
0.7857816
0.8044443
0.8240109
0.8445592
0.8668377
0.8900084
0.91381
0.9350988
0.9477025
0.9261949
0.9513497
0.9031385
0.9280694
0.9537479
0.8805026
0.9041411
0.9292489
0.9552576
0.8585851
0.8809614
0.9046993
0.9299358
0.9561574
0.8374316
0.8586433
0.8810845
0.9048972
0.9302257
0.9564943
0.8169929
0.8371332
0.858385
0.8808709
0.9047346
0.9300468
0.9562161
0.797161
0.816308
0.8364651
0.8577352
0.8802416
0.9040616
0.9292589
0.955246
0.7777779
0.7959936
0.8151314
0.8352779
0.8565359
0.8789677
0.9026552
0.9277029
0.9532974
0.7586792
0.7760107
0.7941866
0.81328
0.8333767
0.8545225
0.8767881
0.9003131
0.9250978
0.9499716
0.7399048
0.7563957
0.7736612
0.7917635
0.8107742
0.8307268
0.8516758
0.8737516
0.8970361
0.9214302
0.9461834
0.7220796
0.7377988
0.7542332
0.7714365
0.7894698
0.8083573
0.8281411
0.8489345
0.8708285
0.8938824
0.9187149
0.9421169
0.7054505
0.7204714
0.7361573
0.7525554
0.7697188
0.7876648
0.8064262
0.8261023
0.8467741
0.8685264
0.8921319
0.9163964
0.9387514
0.690021
0.7044112
0.7194236
0.7351001
0.7514879
0.7685991
0.7864596
0.8051574
0.8247629
0.8453551
0.8676877
0.890928
0.9148462
0.9364413
0.6757166
0.689536
0.7039405
0.718968
0.7346609
0.7510275
0.7680885
0.7859228
0.8045919
0.8241657
0.8453504
0.8674106
0.8904716
0.9141464
0.9352832
0.9428404
0.9233681
0.9477893
0.9015126
0.9262713
0.9515236
0.8796312
0.9032072
0.9282192
0.954006
0.858212
0.8805654
0.9042754
0.9294695
0.9555976
0.8374316
0.8586433
0.8810845
0.9048972
0.9302257
0.9564943
0.817328
0.837486
0.8587577
0.8812663
0.9051577
0.9305126
0.9567763
0.7978616
0.8170443
0.8372405
0.8585544
0.8811109
0.9049931
0.930287
0.9564995
0.7789373
0.7972097
0.8164096
0.8366245
0.8579594
0.8804802
0.9042787
0.9295008
0.9555315
0.7604107
0.7778243
0.79609
0.8152823
0.835489
0.8567589
0.8791685
0.9028744
0.9279471
0.953585
0.7421293
0.7587232
0.7761017
0.7943287
0.8134781
0.833585
0.8547085
0.8769886
0.9005316
0.9253404
0.9513411
0.7241345
0.7399454
0.7564796
0.7737919
0.791945
0.8109642
0.8308943
0.8518537
0.8739417
0.8972411
0.9225186
0.9472224
0.7070285
0.7221175
0.7378771
0.7543549
0.7716052
0.7896459
0.8085112
0.8283029
0.8491055
0.8710103
0.894827
0.9194604
0.942806
0.6910528
0.7054864
0.7205454
0.7362721
0.7527142
0.7698842
0.7878087
0.8065767
0.8262604
0.8469407
0.8693833
0.8927686
0.9169282
0.9391558
0.6762154
0.6900552
0.7044816
0.7195326
0.7352507
0.7516445
0.7687349
0.7866013
0.8053055
0.8249183
0.8461496
0.8682651
0.8913968
0.9151882
0.9366304
0.6624483
0.6757493
0.6896032
0.7040445
0.7191116
0.73481
0.7511566
0.7682228
0.786063
0.8047384
0.8249114
0.8458873
0.8678414
0.8907811
0.9143149
0.9381265
0.9195593
0.9429222
0.8989638
0.9234435
0.947959
0.8781162
0.9015814
0.9264209
0.9517797
0.8573915
0.8796943
0.9033419
0.92844
0.9543451
0.8370786
0.8582704
0.8806888
0.9044737
0.9297596
0.9559342
0.817328
0.837486
0.8587577
0.8812663
0.9051577
0.9305126
0.9567763
0.7981804
0.8173793
0.8375932
0.8589268
0.8815057
0.9054158
0.9307525
0.9570597
0.7796052
0.7979101
0.8171454
0.8373992
0.8587776
0.8813486
0.9052093
0.930528
0.9567844
0.7615177
0.7789835
0.7973057
0.8165598
0.8368347
0.8581816
0.8806801
0.9044968
0.929744
0.9558189
0.743785
0.7604548
0.7779158
0.7962328
0.8154814
0.8356984
0.8569461
0.8793707
0.9030951
0.928193
0.954987
0.7262645
0.7421711
0.7588098
0.7762367
0.7945163
0.8136747
0.8337597
0.8548956
0.8771905
0.9007516
0.9265227
0.9527812
0.7089986
0.7241732
0.7400255
0.756604
0.7739644
0.7921251
0.8111224
0.8310615
0.8520313
0.8741315
0.8982335
0.9234061
0.9482212
0.6925673
0.7070648
0.7221924
0.7379932
0.7545156
0.7717726
0.7897918
0.8086642
0.8284639
0.8492756
0.8718867
0.895508
0.9200623
0.9433094
0.6772067
0.6910872
0.7055572
0.7206551
0.7364237
0.7528718
0.770021
0.7879515
0.8067262
0.8264172
0.8477434
0.8699745
0.8932561
0.9172902
0.9393619
0.6629279
0.6762482
0.6901226
0.7045859
0.7196766
0.7354003
0.751774
0.7688697
0.7867419
0.8054526
0.825667
0.8466906
0.8687008
0.8917111
0.91536
0.649669
0.6624797
0.6758138
0.6897029
0.704182
0.7192543
0.7349333
0.7512847
0.7683561
0.786202
0.8054441
0.8254173
0.846291
0.8681292
0.8909361
0.9343478
0.9158815
0.9382045
0.895537
0.9196316
0.9430819
0.8757434
0.899032
0.9235912
0.948209
0.8559659
0.8781794
0.9017163
0.9266415
0.9521163
0.8363025
0.8574501
0.879818
0.9035407
0.9287304
0.9546808
0.8169929
0.8371332
0.858385
0.8808709
0.9047346
0.9300468
0.9562161
0.7981804
0.8173793
0.8375932
0.8589268
0.8815057
0.9054158
0.9307525
0.9570597
0.7799091
0.7982288
0.8174801
0.8377515
0.8591495
0.881743
0.9056315
0.930993
0.9573442
0.7621555
0.7796512
0.7980057
0.8172949
0.8376085
0.858999
0.8815475
0.9054262
0.9307698
0.9570708
0.7448436
0.7615616
0.7790745
0.7974478
0.8167579
0.8370432
0.8583677
0.8808809
0.9047159
0.9299883
0.9572169
0.7278499
0.743827
0.7605418
0.7780513
0.7964212
0.8156788
0.835874
0.8571345
0.8795741
0.9033172
0.9293908
0.9564398
0.7110405
0.7263044
0.7422537
0.7589382
0.7764148
0.7947024
0.8138395
0.8339355
0.855084
0.8773936
0.9018242
0.9277022
0.9545604
0.6944581
0.7090356
0.7242497
0.7401441
0.7567682
0.7741355
0.792275
0.8112804
0.8312285
0.8522087
0.8750505
0.8990396
0.9242338
0.9491038
0.6786616
0.6926021
0.7071364
0.7223033
0.7381466
0.7546751
0.7719113
0.7899369
0.8088163
0.8286239
0.8500958
0.8725183
0.8960571
0.9204959
0.9435819
0.6638811
0.6772396
0.691155
0.7056622
0.7208
0.7365742
0.7530022
0.7701568
0.7880933
0.8068745
0.8271733
0.848297
0.8704272
0.8935878
0.9174741
0.6501305
0.6629594
0.6763128
0.6902226
0.7047238
0.7198196
0.735524
0.7519025
0.7690035
0.7868814
0.8061609
0.8261766
0.8470988
0.8689929
0.8918689
0.637353
0.6496991
0.6625416
0.6759095
0.6898347
0.7043186
0.7193722
0.7350557
0.7514117
0.7684884
0.7868718
0.8059227
0.8257977
0.8465607
0.8682733
0.9317755
0.9129357
0.9344235
0.8922339
0.9159515
0.9383571
0.872555
0.8956026
0.9197731
0.9433172
0.8537344
0.8758062
0.8991656
0.9238089
0.9485377
0.8349545
0.8560247
0.8783035
0.9019155
0.9269317
0.9524495
0.8162565
0.8363573
0.8575652
0.8800008
0.9038023
0.929018
0.9549624
0.7978616
0.8170443
0.8372405
0.8585544
0.8811109
0.9049931
0.930287
0.9564995
0.7799091
0.7982288
0.8174801
0.8377515
0.8591495
0.881743
0.9056315
0.930993
0.9573442
0.7624458
0.779955
0.7983241
0.8176293
0.8379604
0.8593704
0.8819414
0.9058478
0.9312342
0.9576301
0.7454536
0.7621993
0.7797418
0.7981471
0.8174922
0.8378161
0.8591841
0.881747
0.9056438
0.9310125
0.9584619
0.7288636
0.7448855
0.7616482
0.7792093
0.7976353
0.8169545
0.8372178
0.8585548
0.8810827
0.9049361
0.9311764
0.9585994
0.7125603
0.72789
0.7439099
0.7606707
0.7782302
0.7966082
0.8158446
0.8360508
0.8573241
0.8797789
0.9044003
0.9305725
0.9581671
0.6964176
0.7110787
0.7263833
0.7423761
0.7591077
0.7765916
0.7948586
0.8140055
0.8341124
0.8552736
0.8783851
0.9028899
0.9291055
0.9568125
0.6804778
0.6944935
0.7091087
0.724363
0.7403008
0.7569312
0.774278
0.7924247
0.8114381
0.8313952
0.8530678
0.8757967
0.8997893
0.9249456
0.9497092
0.6652799
0.6786949
0.6926707
0.7072425
0.7224499
0.7382988
0.7548073
0.7720493
0.7900811
0.8089675
0.829396
0.8506867
0.8730274
0.8964521
0.9207281
0.6510476
0.6639127
0.6773047
0.6912556
0.7058009
0.7209439
0.7366987
0.7531317
0.7702917
0.788234
0.8075896
0.8276945
0.8487208
0.8707351
0.8937562
0.6377974
0.6501607
0.6630214
0.6764088
0.6903548
0.7048608
0.7199379
0.7356467
0.75203
0.7691362
0.7875537
0.8066429
0.8265612
0.8473725
0.8691396
0.6254766
0.6373819
0.6497586
0.6626335
0.676036
0.6899657
0.7044316
0.7194892
0.735177
0.7515378
0.7691257
0.7873259
0.8062825
0.8260518
0.8466958
0.9304846
0.9109296
0.9318499
0.8895921
0.9130043
0.9345716
0.8694821
0.8922978
0.9160886
0.9385816
0.8507364
0.8726156
0.8957314
0.9199817
0.9436264
0.8328452
0.8537928
0.8759294
0.8993629
0.9240955
0.948863
0.8149776
0.8350096
0.8561402
0.8784869
0.9021776
0.9272192
0.9527296
0.797161
0.816308
0.8364651
0.8577352
0.8802416
0.9040616
0.9292589
0.955246
0.7796052
0.7979101
0.8171454
0.8373992
0.8587776
0.8813486
0.9052093
0.930528
0.9567844
0.7624458
0.779955
0.7983241
0.8176293
0.8379604
0.8593704
0.8819414
0.9058478
0.9312342
0.9576301
0.7457312
0.7624894
0.7800454
0.7984652
0.8178261
0.8381674
0.859555
0.8821403
0.9060647
0.931476
0.9590177
0.7294477
0.7454952
0.7622854
0.779876
0.7983337
0.8176879
0.8379897
0.8593698
0.8819472
0.9058622
0.9321913
0.9597924
0.7135321
0.7289035
0.7449679
0.7617764
0.7793873
0.7978213
0.8171191
0.8373932
0.8587427
0.8812854
0.9060081
0.9322999
0.9601728
0.697876
0.7125986
0.7279691
0.7440328
0.7608409
0.7784077
0.7967651
0.8160114
0.8362289
0.857515
0.8807782
0.9054659
0.9319293
0.960185
0.68236
0.6964542
0.7111541
0.7265002
0.7425378
0.7592761
0.77674
0.7950158
0.8141725
0.8342906
0.8561995
0.8793704
0.9041542
0.9308331
0.9597918
0.667026
0.6805118
0.6945635
0.7092171
0.7245127
0.7404563
0.7570669
0.7744202
0.7925742
0.8115956
0.8322034
0.8537654
0.8764908
0.9004325
0.9254227
0.6523935
0.6653118
0.6787607
0.6927724
0.7073828
0.7225955
0.738425
0.7549387
0.7721864
0.7902245
0.8096974
0.829952
0.851163
0.8733935
0.8966634
0.6386804
0.651078
0.6639751
0.6774012
0.6913886
0.7059387
0.7210629
0.7368223
0.7532602
0.7704255
0.7889124
0.8080824
0.8280936
0.8490091
0.8708915
0.6259048
0.6378264
0.6502203
0.6631135
0.6765356
0.6904861
0.704974
0.7200553
0.7357684
0.7521565
0.7697758
0.788011
0.8070066
0.8268189
0.8475098
0.6140181
0.6255045
0.6374391
0.6498469
0.662755
0.6761617
0.690074
0.7045436
0.7196053
0.7352974
0.7521455
0.7695578
0.7876674
0.8065228
0.826179
0.909922
0.9305584
0.8877949
0.9109973
0.9319954
0.8670242
0.8896548
0.9131386
0.9347896
0.8478465
0.8695411
0.892423
0.9162906
0.9388768
0.8300116
0.8507928
0.8727345
0.8959213
0.9202562
0.9439324
0.8129769
0.8329
0.8539075
0.8761113
0.8996227
0.9243793
0.9491365
0.7959446
0.8150295
0.8351178
0.8563109
0.8787284
0.9024373
0.9274602
0.9530122
0.7789373
0.7972097
0.8164096
0.8366245
0.8579594
0.8804802
0.9042787
0.9295008
0.9555315
0.7621555
0.7796512
0.7980057
0.8172949
0.8376085
0.858999
0.8815475
0.9054262
0.9307698
0.9570708
0.7457312
0.7624894
0.7800454
0.7984652
0.8178261
0.8381674
0.859555
0.8821403
0.9060647
0.931476
0.9590177
0.7297136
0.7457728
0.7625753
0.7801793
0.7986514
0.8180213
0.8383405
0.8597401
0.8823398
0.9062822
0.9326502
0.9603243
0.7140921
0.7294874
0.7455773
0.762413
0.7800531
0.7985189
0.8178515
0.8381639
0.8595563
0.8821482
0.9069242
0.9332724
0.9612661
0.6988085
0.7135702
0.7289822
0.7450901
0.7619458
0.779564
0.7979772
0.8172846
0.8375696
0.8589316
0.8822732
0.9070199
0.9335357
0.9619279
0.6837608
0.6979127
0.7126743
0.7280864
0.7441951
0.76101
0.7785567
0.796923
0.8161793
0.8364081
0.8584473
0.8817622
0.9066877
0.933473
0.9624985
0.6688354
0.682395
0.6965263
0.7112659
0.7266547
0.7426985
0.7594174
0.7768893
0.795174
0.8143407
0.8351608
0.8571204
0.8805404
0.9057077
0.9330773
0.9646303
0.6540734
0.6670586
0.6805789
0.6946674
0.7093604
0.7246614
0.7405858
0.7572024
0.7745623
0.7927234
0.812359
0.8328595
0.8544145
0.8770862
0.9008628
0.6399763
0.6524242
0.6653749
0.6788582
0.6929068
0.7075222
0.7227161
0.7385504
0.7550694
0.7723227
0.7909167
0.8102229
0.8304003
0.8515056
0.8735894
0.6267556
0.6387096
0.6511379
0.6640677
0.6775288
0.6915207
0.7060527
0.7211811
0.736945
0.7533877
0.7710708
0.7893799
0.8084598
0.8283651
0.8491555
0.6144309
0.6259327
0.6378837
0.6503089
0.6632354
0.6766616
0.6905947
0.7050864
0.7201717
0.7358892
0.7527663
0.7702109
0.7883561
0.8072504
0.8269483
0.6029572
0.6140449
0.6255595
0.6375241
0.6499637
0.6628757
0.6762656
0.6901814
0.7046548
0.7197204
0.7358779
0.7525574
0.7698826
0.7878954
0.8066432
0.8868925
0.9099894
0.9307026
0.865352
0.887857
0.91113
0.9322097
0.8455346
0.8670824
0.8897779
0.9133365
0.9350763
0.8272797
0.8479016
0.869657
0.8926076
0.9165563
0.9391689
0.8102892
0.8300645
0.8509037
0.8729101
0.8961713
0.9205279
0.9441874
0.7940419
0.8130285
0.8330076
0.8540772
0.8763511
0.8998801
0.9246173
0.9494125
0.7777779
0.7959936
0.8151314
0.8352779
0.8565359
0.8789677
0.9026552
0.9277029
0.9532974
0.7615177
0.7789835
0.7973057
0.8165598
0.8368347
0.8581816
0.8806801
0.9044968
0.929744
0.9558189
0.7454536
0.7621993
0.7797418
0.7981471
0.8174922
0.8378161
0.8591841
0.881747
0.9056438
0.9310125
0.9584619
0.7297136
0.7457728
0.7625753
0.7801793
0.7986514
0.8180213
0.8383405
0.8597401
0.8823398
0.9062822
0.9326502
0.9603243
0.714347
0.7297532
0.7458546
0.7627027
0.780356
0.7988362
0.8181845
0.8385142
0.8599258
0.8825398
0.9073393
0.9337119
0.9617539
0.6993459
0.71413
0.7295657
0.745699
0.7625815
0.7802289
0.7986738
0.8180158
0.8383388
0.8597434
0.883126
0.9078972
0.9344303
0.9628737
0.6846565
0.698845
0.7136454
0.7290989
0.7452516
0.7621139
0.7797119
0.7981338
0.8174509
0.8377468
0.8598523
0.8832065
0.9081325
0.9348765
0.9638457
0.670182
0.683796
0.6979851
0.7127865
0.7282415
0.7443563
0.7611518
0.7787067
0.7970821
0.8163484
0.8372836
0.8593661
0.8828917
0.9080768
0.9352069
0.9654809
0.6558142
0.668869
0.6824642
0.6966334
0.7114137
0.7268082
0.7428332
0.7595596
0.7770396
0.7953333
0.8151625
0.836027
0.8582148
0.8819784
0.9077231
0.9367027
0.9672173
0.6415937
0.6541047
0.6671229
0.6806785
0.6948046
0.7095027
0.7247851
0.7407151
0.7573377
0.7747041
0.7934472
0.812979
0.8334704
0.8549716
0.8774848
0.6280041
0.6400058
0.6524848
0.6654686
0.6789872
0.6930404
0.7076376
0.722836
0.7386751
0.7551992
0.7729809
0.7914151
0.8106467
0.8307229
0.851689
0.6152511
0.6267837
0.6387673
0.651227
0.6641903
0.6776555
0.69163
0.7061659
0.7212985
0.7370668
0.7540029
0.7715155
0.7897379
0.8087165
0.8285029
0.6033554
0.6144578
0.6259879
0.6379689
0.650426
0.6633564
0.6767658
0.6907024
0.7051979
0.7202872
0.7364716
0.753181
0.7705391
0.7885874
0.8073728
0.5922752
0.602983
0.6140979
0.6256413
0.6376364
0.6500798
0.6629756
0.6763687
0.690288
0.7047651
0.7202757
0.7362712
0.7528671
0.7700996
0.7880096
0.8645122
0.8869543
0.9101212
0.9309152
0.8439612
0.8654097
0.8879788
0.9113256
0.9324914
0.8250936
0.8455889
0.8671965
0.8899595
0.9135969
0.9353599
0.8076976
0.8273314
0.8480099
0.8698281
0.8928507
0.9168194
0.939411
0.7914857
0.8103391
0.8301686
0.8510676
0.8731413
0.8964189
0.920754
0.9444422
0.7759644
0.7940906
0.8131299
0.8331668
0.8543008
0.8765888
0.9000959
0.9248568
0.9496908
0.7604107
0.7778243
0.79609
0.8152823
0.835489
0.8567589
0.8791685
0.9028744
0.9279471
0.953585
0.7448436
0.7615616
0.7790745
0.7974478
0.8167579
0.8370432
0.8583677
0.8808809
0.9047159
0.9299883
0.9572169
0.7294477
0.7454952
0.7622854
0.779876
0.7983337
0.8176879
0.8379897
0.8593698
0.8819472
0.9058622
0.9321913
0.9597924
0.714347
0.7297532
0.7458546
0.7627027
0.780356
0.7988362
0.8181845
0.8385142
0.8599258
0.8825398
0.9073393
0.9337119
0.9617539
0.6995905
0.7143848
0.7298313
0.745976
0.7628708
0.7805314
0.7989906
0.8183482
0.8386883
0.860112
0.8835128
0.9082944
0.9348355
0.9632991
0.6851727
0.6993822
0.7142049
0.7296819
0.7458596
0.7627489
0.780376
0.7988293
0.8181807
0.8385143
0.8606544
0.8840228
0.9089395
0.9356577
0.9646009
0.671043
0.6846915
0.698917
0.7137571
0.7292531
0.745412
0.7622547
0.7798607
0.7982913
0.817618
0.8386111
0.8607231
0.8842341
0.9093395
0.9363072
0.9662281
0.6571097
0.6702157
0.6838654
0.6980926
0.7129348
0.7283955
0.7444916
0.7612946
0.7788578
0.7972422
0.8171748
0.8381474
0.860422
0.8841768
0.9096363
0.9374075
0.9675772
0.6432696
0.6558465
0.6689353
0.6825669
0.696775
0.7115606
0.726937
0.7429689
0.7597027
0.777191
0.7961121
0.815981
0.8370574
0.859561
0.8838446
0.910981
0.938777
0.9691269
0.6295623
0.6416238
0.6541666
0.6672185
0.6808101
0.694941
0.7096211
0.7249087
0.7408442
0.7574728
0.7753921
0.794035
0.8135564
0.8339949
0.8553447
0.6164547
0.6280325
0.640064
0.6525748
0.6655924
0.6791153
0.693151
0.7077524
0.7229552
0.7387991
0.7558265
0.7734548
0.791817
0.8109516
0.8308955
0.6041466
0.6152781
0.6268392
0.6388529
0.6513447
0.664312
0.6777604
0.6917385
0.7062782
0.7214149
0.7376542
0.7544266
0.7718559
0.7899814
0.8088468
0.5926595
0.6033813
0.6145109
0.6260699
0.6380815
0.6505424
0.6634565
0.6768692
0.6908093
0.7053086
0.7208443
0.7368676
0.7534939
0.7707591
0.7887035
0.5819546
0.5923001
0.6030341
0.6141767
0.6257494
0.6377481
0.6501758
0.6630746
0.676471
0.6903938
0.7052969
0.7206519
0.7365669
0.7530739
0.7702082
0.8431708
0.8645696
0.8870756
0.9103157
0.9311946
0.8236055
0.8440151
0.8655227
0.8881585
0.9115829
0.9327701
0.8056233
0.8251446
0.8456956
0.867365
0.8901984
0.9138548
0.9355946
0.7890207
0.8077464
0.8274331
0.8481698
0.8700534
0.8930915
0.9170373
0.9396518
0.7735282
0.791533
0.8104373
0.8303226
0.8512836
0.8733705
0.896625
0.9209798
0.944697
0.7586792
0.7760107
0.7941866
0.81328
0.8333767
0.8545225
0.8767881
0.9003131
0.9250978
0.9499716
0.743785
0.7604548
0.7779158
0.7962328
0.8154814
0.8356984
0.8569461
0.8793707
0.9030951
0.928193
0.954987
0.7288636
0.7448855
0.7616482
0.7792093
0.7976353
0.8169545
0.8372178
0.8585548
0.8810827
0.9049361
0.9311764
0.9585994
0.7140921
0.7294874
0.7455773
0.762413
0.7800531
0.7985189
0.8178515
0.8381639
0.8595563
0.8821482
0.9069242
0.9332724
0.9612661
0.6995905
0.7143848
0.7298313
0.745976
0.7628708
0.7805314
0.7989906
0.8183482
0.8386883
0.860112
0.8835128
0.9082944
0.9348355
0.9632991
0.6854076
0.6996268
0.7144595
0.7299472
0.7461362
0.7630377
0.780678
0.7991455
0.8185124
0.838863
0.8610183
0.8843927
0.9093057
0.9360151
0.9649492
0.6715392
0.6852075
0.6994539
0.7143159
0.7298353
0.7460192
0.7628888
0.7805236
0.7989854
0.8183462
0.8393692
0.8614906
0.8849848
0.9100447
0.9369433
0.9667308
0.657938
0.6710765
0.6847605
0.6990239
0.7139046
0.7294063
0.7455463
0.7623963
0.7800102
0.7984495
0.8184335
0.8394292
0.8616829
0.8853499
0.9106278
0.9380484
0.9679951
0.6445167
0.657142
0.6702822
0.6839684
0.6982346
0.7130822
0.7285248
0.7446278
0.7614384
0.7790099
0.798025
0.8179906
0.8391409
0.8616243
0.8856205
0.911617
0.9391073
0.969304
0.6311768
0.6433006
0.6559102
0.6690339
0.6827027
0.6969158
0.7116838
0.7270666
0.7431055
0.7598468
0.7779311
0.7968882
0.8169553
0.8383255
0.8613087
0.8868641
0.9128461
0.9404221
0.9705929
0.6179567
0.6295912
0.6416832
0.6542584
0.6673449
0.680941
0.6950545
0.7097394
0.7250321
0.7409731
0.7581283
0.7759509
0.7945826
0.8140524
0.8343463
0.6053074
0.616482
0.6280885
0.6401506
0.6526938
0.6657155
0.6792215
0.6932611
0.7078666
0.7230738
0.739398
0.756278
0.7738369
0.7921062
0.8111149
0.593423
0.6041726
0.6153316
0.6269216
0.6389662
0.6514618
0.6644128
0.6778645
0.6918462
0.7063897
0.7219767
0.7380587
0.7547511
0.7720875
0.790105
0.5823256
0.5926845
0.6034325
0.6145899
0.6261783
0.6381935
0.6506386
0.6635559
0.6769719
0.6909154
0.7058421
0.721223
0.7371664
0.7537036
0.7708696
0.5719789
0.5819786
0.5923494
0.60311
0.6142809
0.625857
0.6378405
0.6502711
0.6631729
0.6765725
0.6909037
0.7056572
0.7209347
0.7367645
0.7531775
0.8228577
0.8432244
0.8646822
0.8872544
0.9105715
0.9314711
0.8042111
0.8236562
0.8441209
0.8656897
0.8883951
0.9118376
0.9330007
0.7870474
0.8056715
0.8252449
0.8458532
0.8675869
0.8904352
0.9140681
0.9358277
0.7711785
0.7890669
0.8078424
0.8275835
0.8483805
0.8702767
0.893291
0.917254
0.9398913
0.7563531
0.773573
0.7916259
0.8105826
0.8305255
0.8514977
0.8735612
0.8968307
0.9212052
0.9449517
0.7421293
0.7587232
0.7761017
0.7943287
0.8134781
0.833585
0.8547085
0.8769886
0.9005316
0.9253404
0.9513411
0.7278499
0.743827
0.7605418
0.7780513
0.7964212
0.8156788
0.835874
0.8571345
0.8795741
0.9033172
0.9293908
0.9564398
0.7135321
0.7289035
0.7449679
0.7617764
0.7793873
0.7978213
0.8171191
0.8373932
0.8587427
0.8812854
0.9060081
0.9322999
0.9601728
0.6993459
0.71413
0.7295657
0.745699
0.7625815
0.7802289
0.7986738
0.8180158
0.8383388
0.8597434
0.883126
0.9078972
0.9344303
0.9628737
0.6854076
0.6996268
0.7144595
0.7299472
0.7461362
0.7630377
0.780678
0.7991455
0.8185124
0.838863
0.8610183
0.8843927
0.9093057
0.9360151
0.9649492
0.671765
0.6854423
0.6996982
0.7145703
0.7301002
0.7462954
0.7631772
0.7808251
0.7993009
0.8186771
0.8397133
0.8618387
0.8853259
0.9103681
0.9372422
0.9669797
0.6584153
0.6715725
0.6852761
0.6995602
0.7144627
0.7299877
0.7461526
0.7630293
0.7806718
0.7991421
0.8191525
0.8401545
0.8623888
0.8860061
0.9112032
0.9384926
0.9683184
0.6453141
0.6579702
0.6711427
0.6848629
0.6991652
0.7140511
0.7295346
0.7456813
0.7625386
0.7801604
0.7992217
0.8192058
0.8403318
0.8627262
0.8865421
0.9121974
0.9394984
0.9695416
0.6323781
0.6445478
0.657206
0.6703811
0.6841046
0.6983758
0.7132058
0.7286549
0.744765
0.7615832
0.7797535
0.7987982
0.8189297
0.840273
0.8629757
0.8874555
0.9131492
0.9406146
0.9706947
0.6195129
0.6312066
0.6433619
0.6560049
0.6691643
0.6828377
0.6970338
0.7118079
0.7271971
0.743243
0.7605518
0.778669
0.7978126
0.818155
0.8399725
0.8641387
0.8885906
0.9143301
0.9417646
0.9717293
0.6067561
0.6179846
0.6296484
0.6417715
0.6543799
0.6674705
0.6810498
0.6951678
0.7098575
0.7251554
0.7415987
0.7586607
0.7764717
0.7950532
0.8143848
0.5945433
0.6053337
0.616536
0.6281718
0.6402651
0.6528121
0.6658175
0.6793271
0.6933705
0.7079801
0.7236464
0.739829
0.7566422
0.774112
0.7922611
0.5830628
0.5934481
0.6042241
0.6154109
0.6270306
0.6390788
0.6515586
0.6645128
0.6779679
0.6919531
0.7069277
0.7223635
0.7383685
0.7549718
0.7722051
0.5723373
0.5823497
0.5927338
0.6035086
0.6146943
0.6262861
0.6382861
0.6507341
0.6636545
0.6770737
0.691427
0.7062048
0.7215088
0.7373667
0.7538089
0.5623329
0.5720021
0.5820261
0.5924226
0.6032105
0.6143845
0.6259459
0.6379322
0.6503656
0.6632704
0.677062
0.6912492
0.705928
0.7211236
0.7368634
0.8035013
0.8229082
0.8433298
0.8648484
0.8874899
0.9108249
0.9316998
0.7857037
0.8042589
0.8237557
0.8442772
0.8659096
0.8886295
0.9120483
0.9332295
0.7692973
0.787093
0.8057662
0.8253932
0.8460609
0.8678067
0.890631
0.9142799
0.936059
0.7541094
0.7712224
0.7891578
0.8079843
0.8277817
0.8485894
0.8704617
0.8934893
0.9174694
0.9401294
0.7399048
0.7563957
0.7736612
0.7917635
0.8107742
0.8307268
0.8516758
0.8737516
0.8970361
0.9214302
0.9461834
0.7262645
0.7421711
0.7588098
0.7762367
0.7945163
0.8136747
0.8337597
0.8548956
0.8771905
0.9007516
0.9265227
0.9527812
0.7125603
0.72789
0.7439099
0.7606707
0.7782302
0.7966082
0.8158446
0.8360508
0.8573241
0.8797789
0.9044003
0.9305725
0.9581671
0.6988085
0.7135702
0.7289822
0.7450901
0.7619458
0.779564
0.7979772
0.8172846
0.8375696
0.8589316
0.8822732
0.9070199
0.9335357
0.9619279
0.6851727
0.6993822
0.7142049
0.7296819
0.7458596
0.7627489
0.780376
0.7988293
0.8181807
0.8385143
0.8606544
0.8840228
0.9089395
0.9356577
0.9646009
0.671765
0.6854423
0.6996982
0.7145703
0.7301002
0.7462954
0.7631772
0.7808251
0.7993009
0.8186771
0.8397133
0.8618387
0.8853259
0.9103681
0.9372422
0.9669797
0.6586326
0.6717983
0.6855108
0.6998043
0.7147167
0.7302522
0.7464284
0.7633172
0.7809726
0.7994568
0.819479
0.8404836
0.8627097
0.8863073
0.9114744
0.9387166
0.9684894
0.6457737
0.6584473
0.6716384
0.6853781
0.6997008
0.7146085
0.7301152
0.7462866
0.7631703
0.7808205
0.7999055
0.8198938
0.8409989
0.8633433
0.8870779
0.9126012
0.9398072
0.9697433
0.6331463
0.645345
0.6580337
0.671241
0.6849984
0.6993056
0.7141739
0.7296636
0.745817
0.7626816
0.7808938
0.7999535
0.8200586
0.8413137
0.8638418
0.8879959
0.9135086
0.9408703
0.9708391
0.6206709
0.632408
0.6446093
0.6573009
0.6705119
0.68424
0.6984943
0.7133304
0.728786
0.7449031
0.7622913
0.7804885
0.7996889
0.8200004
0.8415461
0.8646946
0.8888748
0.9145118
0.9419011
0.9717974
0.608257
0.6195416
0.6312655
0.6434529
0.6561302
0.6692939
0.6829509
0.6971527
0.7119328
0.7273285
0.7439157
0.7612548
0.7795482
0.7989512
0.8197137
0.8426408
0.8657554
0.8899644
0.915544
0.9428548
0.9726009
0.5959413
0.606783
0.6180396
0.6297334
0.6418883
0.6545006
0.6675751
0.6811586
0.6952811
0.7099755
0.7257534
0.7421069
0.759157
0.7769192
0.7953686
0.5841444
0.5945686
0.6053857
0.6166162
0.628282
0.6403789
0.6529101
0.6659189
0.6794321
0.6934793
0.7085283