/*--------------------------------*- C++ -*----------------------------------*\
| =========                 |                                                 |
| \\      /  F ield         | OpenFOAM: The Open Source CFD Toolbox           |
|  \\    /   O peration     | Version:  2306                                  |
|   \\  /    A nd           | Website:  www.openfoam.com                      |
|    \\/     M anipulation  |                                                 |
\*---------------------------------------------------------------------------*/
FoamFile
{
    version     2.0;
    format      ascii;
    arch        "LSB;label=32;scalar=64";
    class       volVectorField;
    location    "1.5/phiI";
    object      i;
}
// * * * * * * * * * * * * * * * * * * * * * * * * * * * * * * * * * * * * * //

dimensions      [0 -2 0 0 0 1 0];

internalField   nonuniform List<vector> 
12000
(
(36.21275 6.52544 1635.338)
(36.35487 19.59019 1649.44)
(72.83557 7.94667 1500.536)
(36.75196 5.961324 4922.86)
(36.51233 33.60473 1677.812)
(73.04337 22.58596 1509.718)
(36.91376 17.8912 4965.319)
(67.0222 8.603458 1386.469)
(73.83105 7.579389 4517.087)
(37.83585 4.827078 8258.932)
(36.37225 50.46699 1720.243)
(73.30674 33.77846 1527.717)
(37.11271 30.77264 5050.733)
(67.09766 24.30188 1393.511)
(74.06709 21.49872 4544.735)
(38.03721 14.47529 8330.468)
(55.4776 8.701274 1294.816)
(67.84508 8.321754 4173.697)
(75.83222 6.84072 7576.687)
(39.48094 3.099848 11679.1)
(35.40057 71.9078 1774.744)
(73.24176 39.34942 1553.342)
(37.03985 46.58971 5178.456)
(67.2242 35.58861 1407.16)
(74.38935 32.03348 4598.939)
(38.3195 25.07928 8474.378)
(55.48123 24.60598 1300.603)
(67.93412 23.47421 4194.902)
(76.12504 19.31186 7623.28)
(39.74252 9.273354 11781.22)
(45.99319 8.639793 1218.497)
(56.14948 8.469802 3897.772)
(69.49945 7.755232 6999.638)
(78.86822 5.715657 10709.24)
(41.71529 0.7423635 15226.74)
(33.03517 92.31763 1833.404)
(72.1802 38.53704 1583.688)
(36.1648 67.38134 5342.434)
(67.32421 39.2016 1426.165)
(74.41807 37.11058 4676.137)
(38.38152 38.79894 8689.559)
(55.49749 36.04396 1311.744)
(68.08809 34.28244 4236.007)
(76.56564 28.52239 7714.644)
(40.15164 16.40902 11986.68)
(45.97039 24.50084 1223.43)
(56.16155 23.92887 3915.195)
(69.61582 21.80945 7035.37)
(79.24748 15.98044 10775.76)
(42.05906 2.172423 15361.72)
(38.72934 8.47327 1152.756)
(46.56143 8.442467 3667.998)
(57.50039 8.004359 6536.117)
(72.00736 6.89249 9890.022)
(82.98855 4.180081 13951.93)
(44.5802 -2.299181 17048.36)
(29.57166 101.4438 1879.531)
(69.36419 34.02853 1612.607)
(33.91836 88.12617 5518.695)
(67.24138 33.13206 1447.79)
(73.48802 36.16644 4767.609)
(37.69987 58.29822 8965.679)
(55.53134 39.5212 1327.055)
(68.22936 37.5764 4293.274)
(76.78249 32.60263 7844.837)
(40.41874 26.93765 12293.91)
(45.94203 36.08968 1232.887)
(56.19459 34.98587 3948.745)
(69.82498 31.65376 7104.653)
(79.86825 23.17123 10906.23)
(42.64127 4.57159 15633.35)
(38.69138 24.09433 1157.058)
(46.54457 23.92524 3682.85)
(57.52944 22.56708 6565.469)
(72.16536 19.27362 9941.019)
(83.48585 11.43227 14039.83)
(45.03007 -6.990821 17200.27)
(33.22375 8.260139 1094.965)
(39.22348 8.301217 3470.058)
(47.70405 8.04574 6150.202)
(59.54723 7.295703 9232.533)
(75.4063 5.715345 12877.28)
(88.26606 2.19957 15616.05)
(47.44453 -5.333985 17068.86)
(25.94335 92.20144 1910.059)
(65.01519 30.52551 1632.576)
(30.55948 98.37754 5657.081)
(66.72027 20.66755 1466.983)
(70.82987 32.07301 4854.854)
(35.69053 79.73174 9262.032)
(55.5718 32.49768 1344.059)
(68.19989 31.49935 4358.507)
(76.11591 31.38834 7999.247)
(40.03052 44.48241 12688.07)
(45.93596 39.9447 1245.774)
(56.2529 38.2286 3994.882)
(70.04923 34.30161 7201.255)
(80.37128 25.72644 11092.29)
(43.18803 10.74327 16039.67)
(38.63365 35.69963 1165.279)
(46.52789 35.19593 3711.325)
(57.59622 32.85651 6622.01)
(72.45863 27.64703 10039.94)
(84.35257 15.86127 14212.33)
(45.83571 -10.70916 17506.05)
(33.17748 23.54391 1098.777)
(39.18999 23.59344 3483.006)
(47.69915 22.76778 6175.218)
(59.60216 20.49314 9274.413)
(75.62121 15.81255 12944.64)
(88.91578 5.564319 15714.92)
(48.00045 -16.13497 17220.44)
(28.94901 8.010541 1043.344)
(33.6614 8.107642 3296.033)
(40.21721 7.955348 5817.793)
(49.43472 7.441845 8685.446)
(62.31869 6.329166 12015.94)
(79.7513 4.19803 14409.58)
(93.54369 0.2252278 15636.87)
(50.30818 -8.362051 17089.25)
(23.06524 63.78572 1927.915)
(60.27677 27.13719 1644.288)
(27.00643 90.26609 5748.497)
(65.62549 10.56958 1478.771)
(66.61823 29.25829 4915.086)
(32.53964 92.25165 9494.26)
(55.54581 17.86962 1358.467)
(67.73683 19.42834 4416.533)
(73.77283 28.12945 8146.722)
(38.3796 66.98293 13110.63)
(45.98529 33.27682 1259.86)
(56.32352 31.24122 4046.192)
(70.12705 28.20169 7311.48)
(80.10481 24.09103 11313.21)
(43.19928 25.62951 16561)
(38.58898 39.95382 1176.415)
(46.53852 38.86579 3750.154)
(57.70382 35.62334 6699.837)
(72.80936 29.30333 10178.01)
(85.2461 16.32339 14458.53)
(46.7433 -10.16839 17963.62)
(33.10184 35.06569 1106.048)
(39.14101 34.92533 3507.757)
(47.70598 33.3975 6223.198)
(59.7204 29.61116 9355.123)
(76.02942 22.17404 13075.38)
(90.10009 6.423069 15909)
(49.02947 -25.96222 17525.6)
(28.89749 22.87518 1046.763)
(33.61866 23.10058 3307.508)
(40.19275 22.58635 5839.599)
(49.44805 21.00539 8721.127)
(62.40901 17.66348 12071.23)
(80.03975 11.34954 14485.31)
(94.34571 -0.2855628 15735.44)
(50.97008 -25.26022 17240.48)
(25.58102 7.74496 996.7349)
(29.34193 7.873778 3140.568)
(34.54171 7.801118 5525.564)
(41.72203 7.428987 8214.402)
(51.77657 6.618494 11299.9)
(65.85675 5.084062 13443.08)
(84.09819 2.686227 14430.05)
(98.8213 -1.743088 15657.61)
(53.17106 -11.38339 17109.41)
(21.50381 22.69119 1936.065)
(56.41422 19.39041 1650.528)
(24.17478 62.74549 5801.868)
(64.19816 6.191703 1484.593)
(61.97864 26.41912 4950.354)
(29.13592 86.40996 9647.321)
(55.3459 5.304391 1366.534)
(66.68966 9.865208 4452.244)
(69.83454 26.70551 8248.526)
(35.54242 82.96601 13441.2)
(46.08319 18.40851 1271.425)
(56.32805 16.97063 4089.8)
(69.78049 16.9181 7409.842)
(78.23863 22.10187 11524.58)
(42.03476 49.60651 17119.55)
(38.6033 33.97004 1188.454)
(46.60771 32.2508 3792.663)
(57.83518 28.70093 6786.569)
(73.05061 23.15588 10335.85)
(85.52476 14.09687 14751.31)
(47.26927 1.287407 18550.92)
(33.02851 39.64116 1115.854)
(39.10866 39.02682 3541.31)
(47.75024 36.6912 6288.692)
(59.90316 31.64621 9466.344)
(76.553 22.46523 13258.07)
(91.4977 4.167217 16186.15)
(50.29789 -31.05161 17982.42)
(28.80952 34.20999 1053.272)
(33.54986 34.3826 3329.396)
(40.16137 33.36746 5881.297)
(49.49074 30.65697 8789.599)
(62.5976 25.17924 12177.85)
(80.59654 15.11 14632.32)
(95.84748 -2.987751 15928.93)
(52.22241 -41.18868 17545.04)
(25.52709 22.14899 999.8296)
(29.29328 22.47805 3150.859)
(34.50606 22.20936 5544.887)
(41.71132 21.05327 8245.496)
(51.81482 18.60165 11346.99)
(65.99279 14.01669 13505.21)
(84.46006 6.902957 14505.51)
(99.77549 -6.117933 15755.88)
(53.93884 -34.36678 17260.31)
(22.8705 7.471238 954.274)
(25.9373 7.621168 3000.174)
(30.13244 7.598905 5264.506)
(35.87455 7.334737 7800.431)
(43.75727 6.7116 10683.81)
(54.76325 5.55842 12639.92)
(69.39733 3.843848 13462.97)
(88.44689 1.179769 14450.49)
(104.0987 -3.705527 15678.19)
(56.03304 -14.39802 17129.25)
(21.50381 -22.69119 1936.065)
(54.28375 7.076976 1653.218)
(22.6352 22.36517 5826.2)
(62.9053 3.855493 1487.092)
(58.17751 19.03321 4969.097)
(26.39632 60.67761 9736.495)
(54.98219 -0.06462926 1369.854)
(65.2959 5.858829 4469.908)
(65.39113 24.97674 8308.027)
(32.36361 80.57668 13658.66)
(46.15333 4.933309 1277.449)
(56.15118 4.848907 4114.322)
(68.82854 8.434571 7470.556)
(74.71305 22.8061 11670.49)
(39.62247 70.33064 17555.84)
(38.69755 19.54999 1198.116)
(46.7246 17.70494 3827.685)
(57.9012 15.14442 6860.61)
(72.88128 13.06529 10477.21)
(84.3065 13.83835 15031.98)
(46.72987 27.18923 19179.97)
(33.00486 34.36256 1126.369)
(39.13726 33.10201 3577.637)
(47.85951 30.17557 6360.553)
(60.12723 24.81028 9590.585)
(77.01757 16.23359 13467.38)
(92.47928 1.153153 16516.1)
(51.33855 -23.02469 18569.15)
(28.71383 38.98409 1062.023)
(33.48608 38.82829 3358.94)
(40.15384 37.15863 5937.882)
(49.58634 33.37162 8883.177)
(62.88316 26.20485 12324.97)
(81.34359 13.62344 14837.87)
(97.74909 -7.960803 16205.33)
(53.85168 -51.91042 18001.17)
(25.43249 33.22905 1005.713)
(29.21085 33.5996 3170.454)
(34.45105 33.00843 5581.755)
(41.70678 30.99401 8304.986)
(51.90652 26.91553 11437.4)
(66.27234 19.46145 13625.05)
(85.16521 8.071533 14651.99)
(101.5945 -12.37263 15948.81)
(55.41439 -56.38967 17564.28)
(22.81585 21.38984 957.0956)
(25.88576 21.78985 3009.489)
(30.08957 21.67975 5281.831)
(35.84973 20.85295 7827.977)
(43.76535 18.963 10724.82)
(54.83369 15.50539 12692.81)
(69.57898 10.38465 13524.87)
(88.88203 2.472197 14525.68)
(105.2049 -11.93339 15776.17)
(56.90662 -43.45493 17279.82)
(20.65687 7.1985 915.3305)
(23.19612 7.358375 2872.249)
(26.6543 7.372377 5028.748)
(31.32919 7.180764 7430.712)
(37.67647 6.699312 10142.67)
(46.35096 5.788428 11949.05)
(57.75268 4.502712 12659.15)
(72.94038 2.608356 13482.85)
(92.79726 -0.3215221 14470.8)
(109.3758 -5.662256 15698.51)
(58.89402 -17.40601 15309.66)
(23.06524 -63.78572 1927.915)
(54.28375 -7.076976 1653.218)
(22.6352 -22.36517 5826.2)
(62.14973 1.386476 1487.97)
(56.07613 6.969376 4977.159)
(24.89998 21.71791 9777.092)
(54.60485 -1.093939 1370.836)
(64.02407 3.720386 4477.499)
(61.71169 18.31823 8339.556)
(29.76254 57.55462 13785.14)
(46.14119 -1.218767 1279.51)
(55.80252 -0.2367184 4124.48)
(67.50166 5.181484 7500.663)
(70.56527 22.77793 11755.66)
(36.74792 72.65232 17842.39)
(38.82252 5.884312 1202.868)
(46.80799 4.609884 3846.04)
(57.77071 3.917186 6902.489)
(72.0738 6.232345 10564.74)
(81.34036 17.4622 15225.78)
(44.86266 54.05238 19670.5)
(33.06339 20.60079 1134.669)
(39.24458 18.97341 3606.905)
(48.01477 16.27339 6420.064)
(60.28716 12.33383 9697.163)
(77.09014 7.762477 13655.57)
(92.09452 3.1231 16832.86)
(51.4232 4.823435 19197.51)
(28.65535 34.31877 1071.346)
(33.47329 33.60999 3390.667)
(40.21128 31.34622 5999.289)
(49.75683 26.9959 8986.118)
(63.23412 19.4682 12489.76)
(82.09681 7.255683 15073.72)
(99.43354 -11.77162 16534.7)
(55.40706 -47.31601 18587.47)
(25.32266 38.09951 1013.602)
(29.12284 38.26112 3196.813)
(34.4065 37.19035 5631.569)
(41.73715 34.30716 8385.815)
(52.07236 28.83044 11561.14)
(66.69086 19.16997 13790.52)
(86.13553 4.808975 14856.83)
(104.0001 -20.06386 16224.52)
(57.4045 -72.74887 18019.75)
(22.71824 32.16571 962.4537)
(25.79576 32.67816 3027.2)
(30.0183 32.37182 5314.832)
(35.81572 30.9153 7880.561)
(43.79752 27.75471 10803.34)
(54.98877 22.09073 12794.4)
(69.94928 13.76701 13644.22)
(89.73536 1.057218 14671.65)
(107.3411 -21.73305 15968.56)
(58.60528 -71.56643 17583.21)
(20.60283 20.62636 917.9184)
(23.1435 21.06266 2880.741)
(26.60756 21.06796 5044.427)
(31.29512 20.46502 7455.404)
(37.66643 19.00418 10178.99)
(46.38332 16.27186 11995.11)
(57.85521 12.42242 12711.83)
(73.16753 6.766765 13544.51)
(93.30555 -1.943394 14545.74)
(110.6338 -17.73258 15796.21)
(59.87328 -52.52503 15443.39)
(18.82007 6.93086 879.4083)
(20.95633 7.094984 2754.893)
(23.85162 7.131549 4813.915)
(27.73967 6.993983 7096.895)
(32.94659 6.611247 9659.601)
(39.97138 5.882001 11342.35)
(48.94752 4.869175 11967.58)
(60.74482 3.451209 12678.37)
(76.48581 1.37741 13502.63)
(97.14916 -1.817835 14490.89)
(114.6522 -7.613453 14037.37)
(61.12222 -19.7473 11732.11)
(25.94335 -92.20144 1910.059)
(56.41422 -19.3904 1650.528)
(24.17478 -62.74549 5801.868)
(62.14973 -1.386476 1487.97)
(56.07613 -6.969376 4977.159)
(24.89998 -21.71791 9777.092)
(54.37033 -0.4788092 1370.997)
(63.27861 1.351356 4480.166)
(59.66788 6.754523 8353.08)
(28.33125 20.7413 13842.65)
(46.08202 -2.263031 1279.785)
(55.43408 -1.139667 4127.532)
(66.27156 3.445175 7513.628)
(67.06898 17.23107 11800.68)
(34.33414 53.31772 18008.83)
(38.91016 -0.777701 1204.214)
(46.80374 -1.312205 3852.404)
(57.4522 -0.5930659 6920.007)
(70.84797 4.135929 10608.29)
(77.59261 19.76908 15338.78)
(42.37804 62.45716 19992)
(33.17532 7.059362 1138.563)
(39.37807 5.640398 3621.405)
(48.12499 3.944574 6451.513)
(60.22735 2.473028 9757.817)
(76.47925 3.191707 13772.47)
(89.84651 10.53411 17051.52)
(50.09836 37.84946 19686.34)
(28.67148 21.25453 1078.609)
(33.54141 20.11303 3415.806)
(40.34507 17.79928 6049.039)
(49.97088 14.0665 9071.855)
(63.52264 8.455161 12631.86)
(82.48178 0.8615653 15286.32)
(99.8811 -7.578403 16851.22)
(56.11504 -17.49827 19215.45)
(25.23887 33.9391 1021.965)
(29.07297 33.65532 3224.943)
(34.41564 32.0879 5685.192)
(41.8387 28.65571 8473.772)
(52.32676 22.62844 11697.67)
(67.20608 12.53504 13976.15)
(87.17738 -1.704576 15092.1)
(106.3875 -24.68242 16553.42)
(59.47476 -71.59589 18605.8)
(22.60004 37.04791 969.6216)
(25.69227 37.44946 3050.961)
(29.94574 36.80454 5359.27)
(35.80053 34.6908 7951.7)
(43.87975 30.40721 10910.19)
(55.24548 22.96091 12933.52)
(70.50056 12.16086 13809.04)
(90.92875 -3.980918 14875.83)
(110.2504 -32.14522 16243.62)
(60.9562 -93.57117 18038.09)
(20.50509 31.07095 922.8278)
(23.04978 31.66467 2896.87)
(26.52682 31.57014 5074.251)
(31.24087 30.50205 7502.459)
(37.66116 28.0595 10248.37)
(46.46293 23.57936 12083.31)
(58.07349 17.28728 12812.98)
(73.62838 8.094614 13663.4)
(94.30684 -5.934405 14691.21)
(113.0868 -31.07058 15988.08)
(61.79491 -86.72029 15712.88)
(18.76741 19.87212 881.7937)
(20.90404 20.32647 2762.682)
(23.80308 20.405 4828.209)
(27.70025 19.96971 7119.236)
(32.92453 18.80988 9692.144)
(39.98044 16.62506 11383.13)
(49.00407 13.59273 12013.45)
(60.87935 9.352165 12730.84)
(76.75834 3.162405 13564.06)
(97.73047 -6.344497 14565.59)
(116.0618 -23.51618 14124.16)
(62.18354 -59.58383 11833.69)
(17.27788 6.671891 846.1196)
(19.09692 6.835447 2646.615)
(21.5594 6.886936 4616.814)
(24.84385 6.78662 6792.761)
(29.2061 6.478756 9223.622)
(35.00538 5.879037 10800.84)
(42.2693 5.06823 11360.15)
(51.54693 3.953692 11986.12)
(63.7396 2.403745 12697.51)
(80.03351 0.1508285 13522.22)
(101.5024 -3.309368 12962.78)
(118.7633 -9.134122 10765.18)
(62.76178 -21.46901 8293.209)
(29.57166 -101.4438 1879.531)
(60.27677 -27.13719 1644.288)
(27.00643 -90.26609 5748.497)
(62.9053 -3.855492 1487.092)
(58.17751 -19.03321 4969.097)
(26.39632 -60.67761 9736.495)
(54.37033 0.4788096 1370.997)
(63.27861 -1.351356 4480.166)
(59.66788 -6.754522 8353.08)
(28.33125 -20.7413 13842.65)
(46.03353 -0.9587144 1279.629)
(55.2037 -0.485246 4128.059)
(65.54612 1.279789 7518.192)
(65.11173 6.428405 11819.96)
(32.99077 19.4173 18084.44)
(38.95244 -2.170546 1204.126)
(46.74886 -2.267779 3853.329)
(57.10153 -1.237089 6925.388)
(69.68074 3.019249 10627.1)
(74.34384 15.74629 15398.42)
(40.20418 47.87235 20178.47)
(33.27573 0.08038105 1139.47)
(39.47032 -0.8279943 3625.601)
(48.1367 -1.510324 6462.626)
(59.95467 -1.152653 9783.459)
(75.39045 2.687174 13830.84)
(86.61144 15.87237 17178.78)
(48.00081 52.33347 20005.78)
(28.74933 8.007726 1081.884)
(33.65926 6.86731 3427.7)
(40.49588 5.136479 6073.938)
(50.12219 2.907427 9117.559)
(63.55945 0.4653171 12713.23)
(82.124 -0.7784329 15418.65)
(98.34773 3.625592 17069.5)
(55.33001 21.72152 19702.64)
(25.21988 21.5406 1028.409)
(29.09652 20.83305 3246.94)
(34.50325 19.11943 5727.927)
(42.01313 15.98743 8545.474)
(52.62153 11.01576 11812.07)
(67.66117 3.394949 14136.74)
(87.8746 -6.034718 15304.49)
(107.6666 -18.26879 16869.83)
(60.80566 -39.78334 19233.7)
(22.49874 33.29093 977.1879)
(25.6155 33.34683 3076.189)
(29.91326 32.31371 5406.804)
(35.84323 29.75567 8028.492)
(44.04179 24.95987 11026.82)
(55.60859 16.95871 13087.27)
(71.17995 5.619095 13994.09)
(92.25925 -10.65091 15110.6)
(113.341 -37.58429 16572.17)
(63.54158 -95.8739 18624.03)
(20.38336 35.90454 929.3831)
(22.93692 36.45854 2918.459)
(26.43608 36.13996 5114.304)
(31.1919 34.58224 7565.905)
(37.68614 31.2731 10342.37)
(46.61225 25.3682 12203.39)
(58.42087 17.11564 12951.49)
(74.3122 5.175121 13827.61)
(95.72315 -12.74905 14894.79)
(116.4999 -44.20819 16262.56)
(64.50662 -114.3817 16117.01)
(18.67132 29.97106 886.3147)
(20.80965 30.61236 2777.461)
(23.71719 30.65696 4855.365)
(27.63363 29.8831 7161.751)
(32.89354 27.95179 9754.204)
(40.01228 24.38008 11461.04)
(49.13097 19.42356 12101.25)
(61.16065 12.50399 12831.58)
(77.30956 2.442922 13682.52)
(98.87951 -12.90484 14710.6)
(118.8315 -40.38682 14294.63)
(64.2783 -98.51088 12038.35)
(17.22714 19.13887 848.3275)
(19.04578 19.59586 2653.794)
(21.51061 19.72366 4629.924)
(24.80151 19.40465 6813.122)
(29.17669 18.47372 9253.056)
(34.99884 16.68089 10837.37)
(42.29739 14.25687 11400.76)
(51.62759 10.92511 12031.8)
(63.90605 6.294061 12749.79)
(80.35131 -0.4290729 13583.45)
(102.1566 -10.73182 13029.16)
(120.2907 -28.02299 10831.16)
(63.8834 -64.77454 8364.588)
(15.9679 6.423484 815.1496)
(17.53491 6.583575 2546.246)
(19.65466 6.64367 4434.937)
(22.47224 6.570609 6513.772)
(26.18412 6.317091 8826.553)
(31.07186 5.816623 10312.16)
(37.06736 5.150033 10817.87)
(44.57022 4.257859 11377.97)
(54.14913 3.041826 12004.59)
(66.73695 1.36015 12716.51)
(83.58335 -1.071581 12100.35)
(104.8972 -4.473259 9947.974)
(121.7887 -10.25278 7613.222)
(63.84217 -22.60247 4946.809)
(33.03517 -92.31763 1833.404)
(65.01519 -30.52551 1632.576)
(30.55948 -98.37754 5657.081)
(64.19816 -6.191702 1484.593)
(61.97864 -26.41912 4950.354)
(29.13592 -86.40996 9647.321)
(54.60485 1.093939 1370.836)
(64.02407 -3.720385 4477.499)
(61.71169 -18.31823 8339.556)
(29.76254 -57.55462 13785.14)
(46.03353 0.9587149 1279.629)
(55.2037 0.4852464 4128.059)
(65.54612 -1.279788 7518.192)
(65.11173 -6.428404 11819.96)
(32.99077 -19.4173 18084.44)
(38.96624 -0.9637375 1203.818)
(46.70224 -0.952455 3852.903)
(56.87938 -0.4998778 6926.384)
(68.98539 1.168825 10633.75)
(72.50351 5.983618 15423.9)
(38.97342 17.71662 20263.11)
(33.34118 -1.70222 1139.184)
(39.51485 -2.154726 3625.426)
(48.09044 -2.283019 6464.429)
(59.63088 -1.394723 9791.531)
(74.30818 2.426759 13856.18)
(83.67955 13.82608 17245.79)
(46.06485 42.47342 20190.69)
(28.83218 0.8809444 1082.499)
(33.76259 0.05555802 3430.559)
(40.59754 -0.9385463 6081.369)
(50.1583 -1.828814 9134.043)
(63.34918 -1.94163 12748.03)
(81.21099 0.7876098 15484.79)
(95.62143 11.99833 17196.13)
(53.61666 42.2831 20019.98)
(25.26416 8.666367 1031.214)
(29.17873 7.852109 3256.947)
(34.63315 6.469228 5748.384)
(42.19059 4.347216 8581.75)
(52.82926 1.457067 11873.6)
(67.82284 -2.173794 14229.1)
(87.76892 -4.747186 15436.83)
(106.8445 -3.262239 17087.73)
(60.55801 5.668157 19719.33)
(22.45287 21.50746 982.9651)
(25.60245 21.17062 3095.704)
(29.95189 19.97436 5444.194)
(35.96079 17.58534 8090.09)
(44.27213 13.48014 11122.53)
(56.00818 7.029137 13216.58)
(71.80163 -1.663051 14154.48)
(93.26873 -12.92793 15322.89)
(115.4513 -28.95079 16888.62)
(65.49535 -62.03944 19252.19)
(20.27153 32.46734 936.2774)
(22.84149 32.75719 2941.283)
(26.37351 32.14938 5156.926)
(31.18603 30.25835 7633.961)
(37.77488 26.55229 10444.16)
(46.85272 20.16204 12334.69)
(58.8926 11.30612 13104.69)
(75.15572 -1.282639 14012.17)
(97.34239 -19.58709 15129.15)
(120.2941 -50.48239 16590.86)
(67.60746 -120.1599 16637.8)
(18.54919 34.71228 892.3415)
(20.69248 35.36656 2797.205)
(23.61507 35.27139 4891.752)
(27.56234 34.14247 7218.921)
(32.87686 31.54447 9838.009)
(40.08925 26.85882 11566.65)
(49.34721 20.35197 12220.78)
(61.59851 11.29249 12969.53)
(78.12574 -1.789698 13846.16)
(100.5186 -21.49827 14913.62)
(122.7483 -56.25618 14538.51)
(67.27017 -130.5678 12345.22)
(17.13398 28.88873 852.509)
(18.9526 29.54915 2667.405)
(21.42295 29.69004 4654.804)
(24.72757 29.12293 6851.826)
(29.12936 27.58275 9309.108)
(34.9979 24.66744 10907.04)
(42.36621 20.71863 11478.3)
(51.80162 15.28624 12119.22)
(64.25021 7.73962 12850.13)
(80.99271 -3.189442 13701.49)
(103.4532 -19.85562 13158.04)
(123.3062 -47.64452 10960.73)
(66.10541 -107.1813 8508.417)
(15.91936 18.43309 817.2007)
(17.48551 18.88329 2552.892)
(19.60657 19.04052 4447.02)
(22.42879 18.80686 6532.442)
(26.15025 18.0424 8853.37)
(31.05535 16.55024 10345.2)
(37.07627 14.56185 10854.24)
(44.61726 11.89913 11418.4)
(54.25383 8.268449 12050.1)
(66.93521 3.247507 12768.59)
(83.94631 -4.008337 12154.78)
(105.608 -14.15491 9998.49)
(123.4026 -31.33815 7659.59)
(65.00353 -68.19214 4989.21)
(14.84406 6.186465 786.2395)
(16.20742 6.341439 2452.839)
(18.05298 6.406039 4266.321)
(20.49889 6.352119 6256.361)
(23.705 6.140128 8462.43)
(27.88862 5.713925 9867.12)
(32.941 5.157402 10328.37)
(39.13251 4.424107 10834.92)
(46.8741 3.450747 11395.73)
(56.75407 2.133416 12022.94)
(69.73675 0.320244 11382.66)
(86.35399 -2.026524 9291.693)
(107.3964 -5.329986 7038.486)
(123.7822 -10.98886 4542.309)
(64.37978 -23.16505 1645.595)
(35.40057 -71.9078 1774.744)
(69.36419 -34.02853 1612.607)
(33.91836 -88.12617 5518.695)
(65.62549 -10.56958 1478.771)
(66.61823 -29.25829 4915.086)
(32.53964 -92.25165 9494.26)
(54.98219 0.06462987 1369.854)
(65.2959 -5.858828 4469.908)
(65.39113 -24.97674 8308.027)
(32.36361 -80.57668 13658.66)
(46.08202 2.263032 1279.785)
(55.43408 1.139667 4127.532)
(66.27156 -3.445174 7513.628)
(67.06898 -17.23107 11800.68)
(34.33414 -53.31772 18008.83)
(38.96624 0.9637378 1203.818)
(46.70224 0.9524554 3852.903)
(56.87938 0.4998782 6926.384)
(68.98539 -1.168824 10633.75)
(72.50351 -5.983618 15423.9)
(38.97342 -17.71662 20263.11)
(33.37158 -0.820697 1138.804)
(39.52954 -0.9514493 3624.544)
(48.04759 -0.9416772 6463.826)
(59.42116 -0.5250815 9793.135)
(73.65341 1.013998 13865.17)
(81.98881 5.408982 17274.37)
(44.94571 16.03167 20274.53)
(28.8922 -1.211988 1082.1)
(33.82929 -1.675573 3429.78)
(40.64664 -2.128263 6081.303)
(50.1252 -2.315791 9137.015)
(63.06188 -1.624119 12759.27)
(80.23735 1.646039 15513.53)
(93.00358 11.92239 17262.59)
(51.91656 37.12236 20203.28)
(25.32369 1.509057 1031.628)
(29.26355 0.8723039 3258.916)
(34.74247 -0.002807007 5753.527)
(42.30672 -1.122599 8592.935)
(52.8988 -2.288541 11896.27)
(67.69295 -2.994143 14268.82)
(87.03027 -1.107985 15502.87)
(104.6231 8.14858 17213.68)
(59.22602 32.30783 20034.52)
(22.469 9.045835 985.4016)
(25.65009 8.537615 3104.282)
(30.04301 7.528687 5461.425)
(36.10931 5.84331 8119.95)
(44.48632 3.238007 11171.5)
(56.28912 -0.4606081 13286.55)
(72.08787 -4.81774 14246.96)
(93.41414 -8.713333 15455.22)
(115.3374 -10.12831 17106.13)
(65.7828 -10.31113 19736.31)
(20.20699 21.24319 941.4993)
(22.80051 21.17892 2958.777)
(26.37253 20.41687 5190.094)
(31.24785 18.64821 7687.853)
(37.93373 15.4611 10526.4)
(47.15582 10.20026 12442.86)
(59.39708 3.044571 13233.76)
(75.9441 -6.719919 14172.42)
(98.66426 -19.8197 15341.44)
(123.2356 -39.6272 16907.5)
(70.18441 -84.27451 17196.22)
(18.43169 31.52719 898.6597)
(20.58564 31.98269 2818)
(23.53149 31.67825 4930.307)
(27.52149 30.31521 7279.93)
(32.90751 27.43576 9928.199)
(40.23771 22.39439 11681.22)
(49.666 15.38118 12351.54)
(62.1788 5.668122 13122.24)
(79.13339 -8.173214 14030.3)
(102.4267 -28.51695 15147.66)
(127.2465 -63.38201 14830.38)
(70.77127 -139.0424 12740.6)
(17.01377 33.50819 858.0748)
(18.83442 34.21848 2685.558)
(21.31497 34.28296 4688.078)
(24.64182 33.46087 6903.752)
(29.08469 31.4128 9384.597)
(35.02298 27.62244 11001.18)
(42.49499 22.46595 11583.4)
(52.08461 15.35662 12238.23)
(64.77838 5.489311 12987.57)
(81.94109 -8.736065 13864.62)
(105.3149 -30.23147 13338.47)
(127.6141 -65.63813 11146.06)
(69.30326 -142.4718 8724.107)
(15.82982 27.83732 821.0823)
(17.39491 28.49884 2565.481)
(19.51924 28.70053 4469.933)
(22.35138 28.28619 6567.895)
(26.09262 27.0318 8904.38)
(31.03292 24.62146 10408.11)
(37.10525 21.39962 10923.59)
(44.72294 17.07417 11495.6)
(54.47486 11.16626 12137.16)
(67.34208 2.992939 12868.56)
(84.67772 -8.803881 12259.72)
(107.0191 -25.27732 10096.54)
(126.5988 -52.98275 7750.637)
(67.30942 -112.8916 5074.665)
(14.79786 17.75801 788.1511)
(16.16006 18.19578 2459.014)
(18.00626 18.36946 4277.506)
(20.45545 18.19603 6273.567)
(23.66884 17.55873 8487.012)
(27.86569 16.29157 9897.212)
(32.93733 14.63585 10361.26)
(39.15682 12.45233 10871.14)
(46.94003 9.551348 11436.01)
(56.88273 5.622212 12068.27)
(69.96674 0.211885 11428.98)
(86.75203 -6.804057 9333.151)
(108.1486 -16.6744 7073.998)
(125.4531 -33.51961 4569.833)
(65.56091 -69.88878 1659.66)
(13.87213 5.961506 759.1751)
(15.06796 6.110002 2365.617)
(16.69041 6.176483 4109.375)
(18.83716 6.136169 6017.744)
(21.63877 5.955451 8126.569)
(25.27218 5.58733 9459.012)
(29.59672 5.113406 9882.455)
(34.81352 4.500973 10344.6)
(41.20082 3.701127 10851.93)
(49.18089 2.646746 11413.38)
(59.36163 1.228298 10764.59)
(72.08 -0.4929279 8745.192)
(88.39448 -2.72991 6576.827)
(109.0428 -5.893731 4200.493)
(124.774 -11.35372 1511.194)
(36.37225 -50.46699 1720.243)
(72.1802 -38.53704 1583.688)
(36.1648 -67.38134 5342.434)
(66.72027 -20.66755 1466.983)
(70.82987 -32.07301 4854.854)
(35.69053 -79.73174 9262.032)
(55.3459 -5.304391 1366.534)
(66.68966 -9.865208 4452.244)
(69.83454 -26.70551 8248.526)
(35.54242 -82.96601 13441.2)
(46.14119 1.218767 1279.51)
(55.80252 0.236719 4124.48)
(67.50166 -5.181484 7500.663)
(70.56527 -22.77793 11755.66)
(36.74792 -72.65232 17842.39)
(38.95244 2.170547 1204.126)
(46.74886 2.26778 3853.329)
(57.10153 1.23709 6925.388)
(69.68074 -3.019248 10627.1)
(74.34384 -15.74629 15398.42)
(40.20418 -47.87235 20178.47)
(33.37158 0.8206972 1138.804)
(39.52954 0.9514497 3624.544)
(48.04759 0.9416776 6463.826)
(59.42116 0.525082 9793.135)
(73.65341 -1.013997 13865.17)
(81.98881 -5.408981 17274.37)
(44.94571 -16.03167 20274.53)
(28.92217 -0.6597127 1081.684)
(33.86012 -0.8054909 3428.675)
(40.66316 -0.9284596 6079.928)
(50.08806 -0.9283478 9136.346)
(62.86899 -0.5640544 12761.66)
(79.63436 0.8091697 15523.74)
(91.461 4.840275 17290.87)
(50.90804 14.36294 20286.3)
(25.37067 -0.8022967 1031.161)
(29.32429 -1.17939 3257.785)
(34.81174 -1.626838 5752.425)
(42.36286 -2.097088 8593.222)
(52.88368 -2.375166 11900.79)
(67.45247 -1.940176 14281.81)
(86.16411 0.8690744 15531.48)
(102.3164 10.03616 17279.57)
(57.7597 31.82056 20216.17)
(22.50689 1.946057 985.6675)
(25.71102 1.511195 3105.628)
(30.13191 0.8474029 5465.036)
(36.22792 -0.1060784 8127.822)
(44.62242 -1.397437 11187.11)
(56.40196 -2.916109 13312.63)
(72.03784 -4.049745 14286.77)
(92.84842 -2.998193 15521.11)
(113.6169 4.32473 17231.36)
(64.82931 22.40937 20049.31)
(20.20181 9.206635 943.6381)
(22.8193 8.93774 2966.228)
(26.42704 8.269416 5204.876)
(31.35276 7.018447 7713.04)
(38.10799 4.959945 10566.79)
(47.41786 1.763994 12498.62)
(59.75119 -2.385011 13303.88)
(76.35464 -7.465353 14265.01)
(99.05979 -12.67568 15473.74)
(123.8269 -16.97159 17124.61)
(71.00482 -26.21697 17625.76)
(18.35464 20.81021 903.4108)
(20.52521 20.94877 2833.811)
(23.50044 20.50964 4960.033)
(27.5391 19.25263 7327.731)
(33.00132 16.8112 10000.14)
(40.45034 12.68052 11774.13)
(50.04191 6.922887 12459.45)
(62.78829 -0.9387529 13251.13)
(80.08866 -11.77677 14190.49)
(104.0613 -26.71169 15360.05)
(131.0199 -50.30097 15112.01)
(73.83217 -101.5579 13164.55)
(16.89431 30.52187 863.8931)
(18.72123 31.08441 2704.615)
(21.2182 31.0031 4723.202)
(24.57639 30.02594 6958.925)
(29.07365 27.79694 9465.422)
(35.101 23.773 11102.64)
(42.70306 18.25319 11697.45)
(52.48165 10.61509 12368.52)
(65.4672 0.04214855 13139.84)
(83.11294 -15.05571 14048.41)
(107.5122 -37.44439 13546.59)
(132.6589 -73.42243 11367.77)
(73.0988 -152.9332 9002.126)
(15.71295 32.31565 826.2424)
(17.27816 33.05282 2582.247)
(19.40902 33.22387 4500.523)
(22.2574 32.63066 6615.367)
(26.02928 30.98742 8972.921)
(31.02269 27.88989 10492.88)
(37.17195 23.72047 11017.24)
(44.90338 18.09276 11600.23)
(54.82444 10.38023 12255.69)
(67.96041 -0.2960621 13005.52)
(85.75814 -15.66648 12404.75)
(109.0536 -37.04044 10233.78)
(131.194 -72.53797 7880.871)
(70.64312 -150.3162 5202.879)
(14.71237 26.8246 791.7661)
(16.07279 27.47565 2470.702)
(17.92079 27.71454 4298.699)
(20.37702 27.40904 6306.209)
(23.60542 26.37304 8533.723)
(27.82911 24.34088 9954.454)
(32.93971 21.67539 10423.87)
(39.21561 18.14743 10940.17)
(47.08245 13.44567 11512.88)
(57.15062 7.062519 12155)
(70.43617 -1.737324 11517.88)
(87.55333 -13.18807 9413.062)
(109.6439 -29.26735 7142.92)
(128.7682 -56.49575 4623.88)
(67.90856 -115.7281 1688.011)
(13.82831 17.11616 760.9616)
(15.02282 17.53695 2371.373)
(16.64543 17.71859 4119.767)
(18.79453 17.58818 6033.668)
(21.60167 17.04661 8149.215)
(25.24541 15.95517 9486.592)
(29.58467 14.54903 9912.418)
(34.82265 12.73014 10377.35)
(41.24047 10.35186 10888)
(49.26564 7.213015 11453.51)
(59.51418 2.985829 10804.93)
(72.33464 -2.16154 8780.505)
(88.81825 -8.863128 6605.986)
(109.8224 -18.33225 4221.568)
(126.4732 -34.60098 1520.316)
(13.02488 5.748299 733.774)
(14.08199 5.890045 2283.935)
(15.51968 5.956238 3962.793)
(17.42153 5.925757 5795.659)
(19.89579 5.769084 7815.308)
(23.08738 5.446254 9082.575)
(26.84318 5.036937 9473.419)
(31.30842 4.515424 9897.815)
(36.6894 3.847215 10360.8)
(43.27222 2.980957 10868.84)
(51.49049 1.845704 10221.15)
(61.40008 0.5198977 8274.246)
(73.80654 -1.092271 6192.272)
(89.73885 -3.192861 3925.948)
(109.8618 -6.173002 1397.642)
(36.51233 -33.60473 1677.812)
(73.24176 -39.34942 1553.342)
(37.03985 -46.58971 5178.456)
(67.24138 -33.13206 1447.79)
(73.48802 -36.16644 4767.609)
(37.69987 -58.29822 8965.679)
(55.54581 -17.86962 1358.467)
(67.73683 -19.42834 4416.533)
(73.77283 -28.12945 8146.722)
(38.3796 -66.98293 13110.63)
(46.15333 -4.933308 1277.449)
(56.15118 -4.848907 4114.322)
(68.82854 -8.43457 7470.556)
(74.71305 -22.8061 11670.49)
(39.62247 -70.33064 17555.84)
(38.91016 0.7777014 1204.214)
(46.80374 1.312206 3852.404)
(57.4522 0.5930665 6920.007)
(70.84797 -4.135929 10608.29)
(77.59261 -19.76908 15338.78)
(42.37804 -62.45716 19992)
(33.34118 1.70222 1139.184)
(39.51485 2.154727 3625.426)
(48.09044 2.283019 6464.429)
(59.63088 1.394724 9791.531)
(74.30818 -2.426758 13856.18)
(83.67955 -13.82608 17245.79)
(46.06485 -42.47342 20190.69)
(28.92217 0.6597128 1081.684)
(33.86012 0.8054911 3428.675)
(40.66316 0.92846 6079.928)
(50.08806 0.9283482 9136.346)
(62.86899 0.5640548 12761.66)
(79.63436 -0.8091693 15523.74)
(91.461 -4.840275 17290.87)
(50.90804 -14.36294 20286.3)