/*--------------------------------*- C++ -*----------------------------------*\
| =========                 |                                                 |
| \\      /  F ield         | OpenFOAM: The Open Source CFD Toolbox           |
|  \\    /   O peration     | Version:  2306                                  |
|   \\  /    A nd           | Website:  www.openfoam.com                      |
|    \\/     M anipulation  |                                                 |
\*---------------------------------------------------------------------------*/
FoamFile
{
    version     2.0;
    format      ascii;
    arch        "LSB;label=32;scalar=64";
    class       volScalarField;
    location    "1.5/phiI";
    object      J;
}
// * * * * * * * * * * * * * * * * * * * * * * * * * * * * * * * * * * * * * //

dimensions      [0 -3 0 0 0 1 0];

internalField   nonuniform List<scalar> 
12000
(
-8.150302e+08
-8.221222e+08
-7.476229e+08
-8.210036e+08
-8.363805e+08
-7.522656e+08
-8.282148e+08
-6.906393e+08
-7.52866e+08
-8.368422e+08
-8.576912e+08
-7.61369e+08
-8.42711e+08
-6.942111e+08
-7.575899e+08
-8.443391e+08
-6.448876e+08
-6.953397e+08
-7.666367e+08
-8.630325e+08
-8.850571e+08
-7.743309e+08
-8.643652e+08
-7.01141e+08
-7.668554e+08
-8.594128e+08
-6.478276e+08
-6.989742e+08
-7.715476e+08
-8.709955e+08
-6.068126e+08
-6.49183e+08
-7.075344e+08
-7.893136e+08
-9.005556e+08
-9.146466e+08
-7.896509e+08
-8.921226e+08
-7.108001e+08
-7.800563e+08
-8.819303e+08
-6.534971e+08
-7.060288e+08
-7.811854e+08
-8.870147e+08
-6.093216e+08
-6.521742e+08
-7.113107e+08
-7.945251e+08
-9.091915e+08
-5.7403e+08
-6.107849e+08
-6.601981e+08
-7.275259e+08
-8.216662e+08
0
-9.380314e+08
-8.042048e+08
-9.220137e+08
-7.217731e+08
-7.95678e+08
-9.107694e+08
-6.613027e+08
-7.158721e+08
-7.949321e+08
-9.109592e+08
-6.141415e+08
-6.579453e+08
-7.186456e+08
-8.04761e+08
-9.265782e+08
-5.762193e+08
-6.133372e+08
-6.633041e+08
-7.315283e+08
-8.273068e+08
0
-5.452262e+08
-5.777303e+08
-6.208664e+08
-6.781826e+08
-7.559332e+08
0
0
-9.536478e+08
-8.142128e+08
-9.455568e+08
-7.314487e+08
-8.105518e+08
-9.417373e+08
-6.699642e+08
-7.270829e+08
-8.112325e+08
-9.41628e+08
-6.207258e+08
-6.659008e+08
-7.288964e+08
-8.193839e+08
-9.525976e+08
-5.804139e+08
-6.182427e+08
-6.693013e+08
-7.393099e+08
-8.383966e+08
0
-5.471677e+08
-5.799569e+08
-6.235151e+08
-6.814708e+08
-7.602562e+08
0
0
-5.195126e+08
-5.486914e+08
-5.87037e+08
-6.372683e+08
-7.036512e+08
0
0
0
-9.628378e+08
-8.201412e+08
-9.612165e+08
-7.372939e+08
-8.207863e+08
-9.660625e+08
-6.772457e+08
-7.370278e+08
-8.268019e+08
-9.745089e+08
-6.279234e+08
-6.747571e+08
-7.406109e+08
-8.367693e+08
-9.85957e+08
-5.861136e+08
-6.249528e+08
-6.775835e+08
-7.502068e+08
-8.542702e+08
0
-5.508805e+08
-5.842251e+08
-6.2861e+08
-6.878262e+08
-7.686704e+08
0
0
-5.212545e+08
-5.506656e+08
-5.893464e+08
-6.400695e+08
-7.071964e+08
0
0
0
-4.96311e+08
-5.227705e+08
-5.573382e+08
-6.021313e+08
-6.604283e+08
0
0
0
0
-9.670471e+08
-8.23341e+08
-9.703985e+08
-7.401807e+08
-8.268275e+08
-9.821897e+08
-6.812125e+08
-7.430782e+08
-8.37529e+08
-1.000287e+09
-6.337858e+08
-6.822646e+08
-7.510758e+08
-8.534405e+08
-1.021713e+09
-5.922808e+08
-6.32314e+08
-6.868419e+08
-7.627095e+08
-8.732027e+08
0
-5.559063e+08
-5.900326e+08
-6.355927e+08
-6.966233e+08
-7.80481e+08
0
0
-5.245806e+08
-5.544427e+08
-5.937769e+08
-6.454633e+08
-7.140569e+08
0
0
0
-4.978881e+08
-5.245412e+08
-5.593847e+08
-6.045713e+08
-6.634438e+08
0
0
0
0
-4.751897e+08
-4.993839e+08
-5.308438e+08
-5.713242e+08
-6.233918e+08
0
0
0
0
0
-9.670471e+08
-8.247353e+08
-9.745937e+08
-7.414322e+08
-8.300689e+08
-9.916179e+08
-6.828148e+08
-7.460807e+08
-8.438464e+08
-1.017335e+09
-6.367305e+08
-6.864091e+08
-7.574938e+08
-8.64948e+08
-1.049712e+09
-5.971941e+08
-6.383676e+08
-6.947654e+08
-7.739646e+08
-8.91439e+08
0
-5.613049e+08
-5.963394e+08
-6.432877e+08
-7.065044e+08
-7.940924e+08
0
0
-5.2907e+08
-5.595622e+08
-5.998172e+08
-6.528738e+08
-7.235777e+08
0
0
0
-5.008962e+08
-5.279242e+08
-5.633033e+08
-6.092576e+08
-6.692576e+08
0
0
0
0
-4.766278e+08
-5.009868e+08
-5.326785e+08
-5.734845e+08
-6.260149e+08
0
0
0
0
0
-4.558336e+08
-4.780959e+08
-5.069524e+08
-5.438708e+08
-5.909804e+08
0
0
0
0
0
9.195119e+08
-9.628378e+08
-8.247353e+08
-9.745937e+08
-7.41879e+08
-8.314738e+08
-9.95917e+08
-6.832779e+08
-7.473857e+08
-8.472209e+08
-1.02728e+09
-6.376931e+08
-6.881164e+08
-7.607013e+08
-8.717168e+08
-1.068201e+09
-5.995069e+08
-6.414649e+08
-6.99204e+08
-7.809257e+08
-9.040546e+08
0
-5.655378e+08
-6.014161e+08
-6.496864e+08
-7.150476e+08
-8.064427e+08
0
0
-5.338659e+08
-5.650817e+08
-6.064082e+08
-6.610835e+08
-7.343278e+08
0
0
0
-5.049469e+08
-5.324961e+08
-5.686254e+08
-6.156626e+08
-6.772673e+08
0
0
0
0
-4.793682e+08
-5.040455e+08
-5.361863e+08
-5.776257e+08
-6.310592e+08
0
0
0
0
0
-4.571528e+08
-4.795573e+08
-5.086123e+08
-5.458059e+08
-5.932999e+08
0
0
0
0
0
9.277632e+08
-4.37995e+08
-4.585887e+08
-4.85215e+08
-5.191386e+08
-5.621438e+08
0
0
0
0
0
8.405562e+08
8.787719e+08
-9.536478e+08
-8.23341e+08
-9.703985e+08
-7.41879e+08
-8.314738e+08
-9.95917e+08
-6.833493e+08
-7.47852e+08
-8.486772e+08
-1.031809e+09
-6.377916e+08
-6.886315e+08
-7.621047e+08
-8.753215e+08
-1.078972e+09
-6.001106e+08
-6.425194e+08
-7.010753e+08
-7.844344e+08
-9.11473e+08
0
-5.674276e+08
-6.038604e+08
-6.530276e+08
-7.199059e+08
-8.141453e+08
0
0
-5.3758e+08
-5.694556e+08
-6.117777e+08
-6.679916e+08
-7.43719e+08
0
0
0
-5.092553e+08
-5.373978e+08
-5.74391e+08
-6.226903e+08
-6.861916e+08
0
0
0
0
-4.830515e+08
-5.081696e+08
-5.409366e+08
-5.832644e+08
-6.379735e+08
0
0
0
0
0
-4.596644e+08
-4.823431e+08
-5.117823e+08
-5.4951e+08
-5.97752e+08
0
0
0
0
0
9.444326e+08
-4.39211e+08
-4.599289e+08
-4.867276e+08
-5.20888e+08
-5.642191e+08
0
0
0
0
0
8.45871e+08
8.864353e+08
-4.214799e+08
-4.406122e+08
-4.653047e+08
-4.966557e+08
-5.362026e+08
0
0
0
0
0
7.739544e+08
8.053449e+08
8.500328e+08
-9.380314e+08
-8.201412e+08
-9.612165e+08
-7.414322e+08
-8.300689e+08
-9.916179e+08
-6.833493e+08
-7.47852e+08
-8.486772e+08
-1.031809e+09
-6.376978e+08
-6.887236e+08
-7.626089e+08
-8.768726e+08
-1.083871e+09
-6.000241e+08
-6.426647e+08
-7.016694e+08
-7.85984e+08
-9.154169e+08
0
-5.678137e+08
-6.045438e+08
-6.542179e+08
-7.220051e+08
-8.180633e+08
0
0
-5.391654e+08
-5.714595e+08
-6.144286e+08
-6.716746e+08
-7.491378e+08
0
0
0
-5.12559e+08
-5.412349e+08
-5.790176e+08
-6.284902e+08
-6.937916e+08
0
0
0
0
-4.86955e+08
-5.125715e+08
-5.460542e+08
-5.89408e+08
-6.456059e+08
0
0
0
0
0
-4.63035e+08
-4.860921e+08
-5.16065e+08
-5.545388e+08
-6.03832e+08
0
0
0
0
0
9.695362e+08
-4.415245e+08
-4.624816e+08
-4.896135e+08
-5.242327e+08
-5.681967e+08
0
0
0
0
0
8.563301e+08
9.01907e+08
-4.226055e+08
-4.418473e+08
-4.666913e+08
-4.982487e+08
-5.380767e+08
0
0
0
0
0
7.779928e+08
8.103052e+08
8.57305e+08
-4.061308e+08
-4.239706e+08
-4.469639e+08
-4.760788e+08
-5.126508e+08
0
0
0
0
0
7.206066e+08
7.431913e+08
7.803005e+08
8.324038e+08
-9.146466e+08
-8.142128e+08
-9.455568e+08
-7.401807e+08
-8.268275e+08
-9.821897e+08
-6.832779e+08
-7.473857e+08
-8.472209e+08
-1.02728e+09
-6.376978e+08
-6.887236e+08
-7.626089e+08
-8.768726e+08
-1.083871e+09
-5.998527e+08
-6.425899e+08
-7.017921e+08
-7.865457e+08
-9.171106e+08
0
-5.676283e+08
-6.044984e+08
-6.544287e+08
-7.22707e+08
-8.198124e+08
0
0
-5.394091e+08
-5.719151e+08
-6.15227e+08
-6.730482e+08
-7.515362e+08
0
0
0
-5.139145e+08
-5.4292e+08
-5.811997e+08
-6.314283e+08
-6.979256e+08
0
0
0
0
-4.89923e+08
-5.159833e+08
-5.501124e+08
-5.944057e+08
-6.519881e+08
0
0
0
0
0
-4.66596e+08
-4.900789e+08
-5.206585e+08
-5.599882e+08
-6.104979e+08
0
0
0
0
0
1.002149e+09
-4.446248e+08
-4.659114e+08
-4.935047e+08
-5.287632e+08
-5.736132e+08
0
0
0
0
0
8.713574e+08
9.251838e+08
-4.247454e+08
-4.441981e+08
-4.693344e+08
-5.012913e+08
-5.416647e+08
0
0
0
0
0
7.858445e+08
8.20062e+08
8.719839e+08
-4.071765e+08
-4.251137e+08
-4.482412e+08
-4.77538e+08
-5.143557e+08
0
0
0
0
0
7.239002e+08
7.469757e+08
7.850192e+08
8.394595e+08
-3.918182e+08
-4.085053e+08
-4.299915e+08
-4.571377e+08
-4.911208e+08
0
0
0
0
0
6.76309e+08
6.932587e+08
7.211791e+08
7.647229e+08
8.249147e+08
-8.850571e+08
-8.042048e+08
-9.220137e+08
-7.372939e+08
-8.207863e+08
-9.660625e+08
-6.828148e+08
-7.460807e+08
-8.438464e+08
-1.017335e+09
-6.377916e+08
-6.886315e+08
-7.621047e+08
-8.753215e+08
-1.078972e+09
-5.998527e+08
-6.425899e+08
-7.017921e+08
-7.865457e+08
-9.171106e+08
0
-5.674199e+08
-6.043439e+08
-6.543793e+08
-7.228711e+08
-8.204532e+08
0
0
-5.391679e+08
-5.717656e+08
-6.152368e+08
-6.733443e+08
-7.523778e+08
0
0
0
-5.140603e+08
-5.432246e+08
-5.817542e+08
-6.323793e+08
-6.995352e+08
0
0
0
0
-4.910979e+08
-5.174269e+08
-5.519531e+08
-5.968343e+08
-6.553025e+08
0
0
0
0
0
-4.692836e+08
-4.931428e+08
-5.242657e+08
-5.643708e+08
-6.159965e+08
0
0
0
0
0
1.037306e+09
-4.478914e+08
-4.69547e+08
-4.976628e+08
-5.336509e+08
-5.795201e+08
0
0
0
0
0
8.89512e+08
9.553877e+08
-4.276097e+08
-4.47352e+08
-4.728925e+08
-5.054047e+08
-5.465393e+08
0
0
0
0
0
7.968803e+08
8.340701e+08
8.940641e+08
-4.09163e+08
-4.272877e+08
-4.506742e+08
-4.803228e+08
-5.176164e+08
0
0
0
0
0
7.302569e+08
7.543305e+08
7.942987e+08
8.537054e+08
-3.927926e+08
-4.095669e+08
-4.311731e+08
-4.584811e+08
-4.926811e+08
0
0
0
0
0
6.790994e+08
6.963554e+08
7.247878e+08
7.693008e+08
8.319061e+08
-3.784347e+08
-3.940852e+08
-4.142241e+08
-4.396215e+08
-4.713234e+08
0
0
0
0
0
6.382487e+08
6.516911e+08
6.736076e+08
7.073557e+08
7.578496e+08
-8.576912e+08
-7.896509e+08
-8.921226e+08
-7.314487e+08
-8.105518e+08
-9.417373e+08
-6.812125e+08
-7.430782e+08
-8.37529e+08
-1.000287e+09
-6.376931e+08
-6.881164e+08
-7.607013e+08
-8.717168e+08
-1.068201e+09
-6.000241e+08
-6.426647e+08
-7.016694e+08
-7.85984e+08
-9.154169e+08
0
-5.674199e+08
-6.043439e+08
-6.543793e+08
-7.228711e+08
-8.204532e+08
0
0
-5.389423e+08
-5.715719e+08
-6.151036e+08
-6.733272e+08
-7.525951e+08
0
0
0
-5.137872e+08
-5.430149e+08
-5.816519e+08
-6.324595e+08
-6.999385e+08
0
0
0
0
-4.911731e+08
-5.176264e+08
-5.52344e+08
-5.975192e+08
-6.564478e+08
0
0
0
0
0
-4.703128e+08
-4.94396e+08
-5.258466e+08
-5.664265e+08
-6.187468e+08
0
0
0
0
0
1.063884e+09
-4.503404e+08
-4.723202e+08
-5.009008e+08
-5.37545e+08
-5.843402e+08
0
0
0
0
0
9.07184e+08
9.879054e+08
-4.306203e+08
-4.506859e+08
-4.766824e+08
-5.09826e+08
-5.518325e+08
0
0
0
0
0
8.09734e+08
8.509788e+08
9.227181e+08
-4.118193e+08
-4.302008e+08
-4.539447e+08
-4.840814e+08
-5.220379e+08
0
0
0
0
0
7.390721e+08
7.646615e+08
8.07618e+08
8.751481e+08
-3.946427e+08
-4.115847e+08
-4.334221e+08
-4.610427e+08
-4.956626e+08
0
0
0
0
0
6.844577e+08
7.023296e+08
7.317995e+08
7.783043e+08
8.460324e+08
-3.793452e+08
-3.950744e+08
-4.153211e+08
-4.408634e+08
-4.727585e+08
0
0
0
0
0
6.406686e+08
6.54322e+08
6.765668e+08
7.108591e+08
7.623753e+08
-3.658886e+08
-3.806022e+08
-3.995272e+08
-4.233589e+08
-4.530332e+08
0
0
0
0
0
6.048546e+08
6.158944e+08
6.33946e+08
6.611887e+08
7.011139e+08
-8.363805e+08
-7.743309e+08
-8.643652e+08
-7.217731e+08
-7.95678e+08
-9.107694e+08
-6.772457e+08
-7.370278e+08
-8.268019e+08
-9.745089e+08
-6.367305e+08
-6.864091e+08
-7.574938e+08
-8.64948e+08
-1.049712e+09
-6.001106e+08
-6.425194e+08
-7.010753e+08
-7.844344e+08
-9.11473e+08
0
-5.676283e+08
-6.044984e+08
-6.544287e+08
-7.22707e+08
-8.198124e+08
0
0
-5.389423e+08
-5.715719e+08
-6.151036e+08
-6.733272e+08
-7.525951e+08
0
0
0
-5.135545e+08
-5.428022e+08
-5.814766e+08
-6.323527e+08
-6.999612e+08
0
0
0
0
-4.908818e+08
-5.17381e+08
-5.521754e+08
-5.974765e+08
-6.566149e+08
0
0
0
0
0
-4.703357e+08
-4.945189e+08
-5.261221e+08
-5.669305e+08
-6.195965e+08
0
0
0
0
0
1.080695e+09
-4.512494e+08
-4.734196e+08
-5.022764e+08
-5.393157e+08
-5.866757e+08
0
0
0
0
0
9.191216e+08
1.012399e+09
-4.328637e+08
-4.53212e+08
-4.79612e+08
-5.133201e+08
-5.561133e+08
0
0
0
0
0
8.215363e+08
8.674212e+08
9.535783e+08
-4.14605e+08
-4.332725e+08
-4.574184e+08
-4.881085e+08
-5.268217e+08
0
0
0
0
0
7.491033e+08
7.766843e+08
8.236927e+08
9.030137e+08
-3.97114e+08
-4.142856e+08
-4.364416e+08
-4.644952e+08
-4.996991e+08
0
0
0
0
0
6.918211e+08
7.106094e+08
7.416454e+08
7.912305e+08
8.673251e+08
-3.810729e+08
-3.969531e+08
-4.174077e+08
-4.432299e+08
-4.754988e+08
0
0
0
0
0
6.452986e+08
6.593721e+08
6.822743e+08
7.176661e+08
7.71279e+08
-3.667416e+08
-3.815264e+08
-4.005488e+08
-4.245113e+08
-4.543589e+08
0
0
0
0
0
6.069894e+08
6.181816e+08
6.364647e+08
6.640641e+08
7.045741e+08
-3.541033e+08
-3.679638e+08
-3.857894e+08
-4.082092e+08
-4.360674e+08
0
0
0
0
0
5.750663e+08
5.844207e+08
5.997408e+08
6.22681e+08
6.555037e+08
-8.221222e+08
-7.61369e+08
-8.42711e+08
-7.108001e+08
-7.800563e+08
-8.819303e+08
-6.699642e+08
-7.270829e+08
-8.112325e+08
-9.41628e+08
-6.337858e+08
-6.822646e+08
-7.510758e+08
-8.534405e+08
-1.021713e+09
-5.995069e+08
-6.414649e+08
-6.99204e+08
-7.809257e+08
-9.040546e+08
0
-5.678137e+08
-6.045438e+08
-6.542179e+08
-7.220051e+08
-8.180633e+08
0
0
-5.391679e+08
-5.717656e+08
-6.152368e+08
-6.733443e+08
-7.523778e+08
0
0
0
-5.135545e+08
-5.428022e+08
-5.814766e+08
-6.323527e+08
-6.999612e+08
0
0
0
0
-4.906478e+08
-5.171598e+08
-5.519785e+08
-5.973234e+08
-6.565397e+08
0
0
0
0
0
-4.700348e+08
-4.942523e+08
-5.259129e+08
-5.668134e+08
-6.196267e+08
0
0
0
0
0
1.090237e+09
-4.512327e+08
-4.734853e+08
-5.02467e+08
-5.396908e+08
-5.873224e+08
0
0
0
0
0
9.257883e+08
1.027843e+09
-4.336718e+08
-4.541841e+08
-4.808212e+08
-5.148647e+08
-5.581306e+08
0
0
0
0
0
8.288366e+08
8.784972e+08
9.767634e+08
-4.166689e+08
-4.355854e+08
-4.600856e+08
-4.912684e+08
-5.306607e+08
0
0
0
0
0
7.579612e+08
7.877122e+08
8.393221e+08
9.330878e+08
-3.997005e+08
-4.171269e+08
-4.396405e+08
-4.681839e+08
-5.040526e+08
0
0
0
0
0
7.000653e+08
7.200234e+08
7.530998e+08
8.068396e+08
8.950674e+08
-3.833788e+08
-3.994654e+08
-4.20206e+08
-4.464154e+08
-4.792033e+08
0
0
0
0
0
6.516188e+08
6.663076e+08
6.901816e+08
7.272249e+08
7.840702e+08
-3.683591e+08
-3.832806e+08
-4.024909e+08
-4.267056e+08
-4.568883e+08
0
0
0
0
0
6.110625e+08
6.22556e+08
6.412983e+08
6.696095e+08
7.112984e+08
-3.549041e+08
-3.688294e+08
-3.867436e+08
-4.092818e+08
-4.372964e+08
0
0
0
0
0
5.76973e+08
5.864428e+08
6.019342e+08
6.251307e+08
6.583431e+08
-3.430113e+08
-3.560925e+08
-3.729159e+08
-3.940557e+08
-4.202757e+08
0
0
0
0
0
5.481884e+08
5.562907e+08
5.696246e+08
5.894514e+08
6.174785e+08
-8.150302e+08
-7.522656e+08
-8.282148e+08
-7.01141e+08
-7.668554e+08
-8.594128e+08
-6.613027e+08
-7.158721e+08
-7.949321e+08
-9.109592e+08
-6.279234e+08
-6.747571e+08
-7.406109e+08
-8.367693e+08
-9.85957e+08
-5.971941e+08
-6.383676e+08
-6.947654e+08
-7.739646e+08
-8.91439e+08
0
-5.674276e+08
-6.038604e+08
-6.530276e+08
-7.199059e+08
-8.141453e+08
0
0
-5.394091e+08
-5.719151e+08
-6.15227e+08
-6.730482e+08
-7.515362e+08
0
0
0
-5.137872e+08
-5.430149e+08
-5.816519e+08
-6.324595e+08
-6.999385e+08
0
0
0
0
-4.906478e+08
-5.171598e+08
-5.519785e+08
-5.973234e+08
-6.565397e+08
0
0
0
0
0
-4.698027e+08
-4.940285e+08
-5.257057e+08
-5.666356e+08
-6.194998e+08
0
0
0
0
0
1.094519e+09
-4.509275e+08
-4.732064e+08
-5.022325e+08
-5.395267e+08
-5.872678e+08
0
0
0
0
0
9.291751e+08
1.036588e+09
-4.336246e+08
-4.54206e+08
-4.809476e+08
-5.151439e+08
-5.586309e+08
0
0
0
0
0
8.32375e+08
8.846678e+08
9.913549e+08
-4.173912e+08
-4.364508e+08
-4.611571e+08
-4.926294e+08
-5.324249e+08
0
0
0
0
0
7.630927e+08
7.945146e+08
8.498233e+08
9.556504e+08
-4.016065e+08
-4.19254e+08
-4.420818e+08
-4.710595e+08
-5.075226e+08
0
0
0
0
0
7.071434e+08
7.283263e+08
7.63601e+08
8.220286e+08
9.251187e+08
-3.857876e+08
-4.021028e+08
-4.231637e+08
-4.498102e+08
-4.831877e+08
0
0
0
0
0
6.586098e+08
6.740659e+08
6.991678e+08
7.383474e+08
7.99536e+08
-3.705162e+08
-3.856242e+08
-4.050928e+08
-4.296559e+08
-4.603036e+08
0
0
0
0
0
6.16594e+08
6.285234e+08
6.47934e+08
6.772919e+08
7.207443e+08
-3.564218e+08
-3.704714e+08
-3.885563e+08
-4.11323e+08
-4.3964e+08
0
0
0
0
0
5.806028e+08
5.902994e+08
6.061281e+08
6.298313e+08
6.638196e+08
-3.437647e+08
-3.569051e+08
-3.738093e+08
-3.95057e+08
-4.214189e+08
0
0
0
0
0
5.499082e+08
5.581003e+08
5.715668e+08
5.915866e+08
6.198978e+08
-3.325545e+08
-3.449204e+08
-3.608269e+08
-3.807992e+08
-4.05534e+08
0
0
0
0
0
5.237065e+08
5.30863e+08
5.426719e+08
5.601748e+08
5.846706e+08
-7.476229e+08
-8.210036e+08
-6.942111e+08
-7.575899e+08
-8.443391e+08
-6.534971e+08
-7.060288e+08
-7.811854e+08
-8.870147e+08
-6.207258e+08
-6.659008e+08
-7.288964e+08
-8.193839e+08
-9.525976e+08
-5.922808e+08
-6.32314e+08
-6.868419e+08
-7.627095e+08
-8.732027e+08
0
-5.655378e+08
-6.014161e+08
-6.496864e+08
-7.150476e+08
-8.064427e+08
0
0
-5.391654e+08
-5.714595e+08
-6.144286e+08
-6.716746e+08
-7.491378e+08
0
0
0
-5.140603e+08
-5.432246e+08
-5.817542e+08
-6.323793e+08
-6.995352e+08
0
0
0
0
-4.908818e+08
-5.17381e+08
-5.521754e+08
-5.974765e+08
-6.566149e+08
0
0
0
0
0
-4.698027e+08
-4.940285e+08
-5.257057e+08
-5.666356e+08
-6.194998e+08
0
0
0
0
0
1.094519e+09
-4.506992e+08
-4.729834e+08
-5.02021e+08
-5.39336e+08
-5.871123e+08
0
0
0
0
0
9.305812e+08
1.040508e+09
-4.333188e+08
-4.539207e+08
-4.806975e+08
-5.149494e+08
-5.585215e+08
0
0
0
0
0
8.338571e+08
8.877975e+08
9.996092e+08
-4.173203e+08
-4.364386e+08
-4.612337e+08
-4.928352e+08
-5.328153e+08
0
0
0
0
0
7.652726e+08
7.978022e+08
8.556637e+08
9.698422e+08
-4.02255e+08
-4.200285e+08
-4.430374e+08
-4.722682e+08
-5.090807e+08
0
0
0
0
0
7.110437e+08
7.331217e+08
7.700595e+08
8.322111e+08
9.476588e+08
-3.875534e+08
-4.040665e+08
-4.25408e+08
-4.52441e+08
-4.863439e+08
0
0
0
0
0
6.644844e+08
6.807176e+08
7.070867e+08
7.485454e+08
8.146099e+08
-3.727654e+08
-3.880796e+08
-4.07837e+08
-4.327929e+08
-4.639677e+08
0
0
0
0
0
6.226551e+08
6.351182e+08
6.553526e+08
6.86022e+08
7.317429e+08
-3.584442e+08
-3.726633e+08
-3.909825e+08
-4.140647e+08
-4.428007e+08
0
0
0
0
0
5.855118e+08
5.955336e+08
6.118471e+08
6.362837e+08
6.714079e+08
-3.451916e+08
-3.584455e+08
-3.755054e+08
-3.969611e+08
-4.235973e+08
0
0
0
0
0
5.53176e+08
5.61544e+08
5.7527e+08
5.956689e+08
6.245404e+08
-3.332647e+08
-3.456848e+08
-3.616653e+08
-3.817363e+08
-4.066004e+08
0
0
0
0
0
5.252697e+08
5.324981e+08
5.444125e+08
5.620672e+08
5.867799e+08
-3.226826e+08
-3.343888e+08
-3.494528e+08
-3.683565e+08
-3.917364e+08
0
0
0
0
0
5.012438e+08
5.076622e+08
5.182774e+08
5.339553e+08
5.557649e+08
-6.906393e+08
-7.52866e+08
-8.368422e+08
-6.478276e+08
-6.989742e+08
-7.715476e+08
-8.709955e+08
-6.141415e+08
-6.579453e+08
-7.186457e+08
-8.04761e+08
-9.265782e+08
-5.861136e+08
-6.249528e+08
-6.775835e+08
-7.502068e+08
-8.542702e+08
0
-5.613049e+08
-5.963394e+08
-6.432877e+08
-7.065044e+08
-7.940924e+08
0
0
-5.3758e+08
-5.694556e+08
-6.117777e+08
-6.679916e+08
-7.43719e+08
0
0
0
-5.139145e+08
-5.4292e+08
-5.811997e+08
-6.314283e+08
-6.979256e+08
0
0
0
0
-4.911731e+08
-5.176264e+08
-5.52344e+08
-5.975192e+08
-6.564478e+08
0
0
0
0
0
-4.700348e+08
-4.942523e+08
-5.259129e+08
-5.668134e+08
-6.196267e+08
0
0
0
0
0
1.090237e+09
-4.506992e+08
-4.729834e+08
-5.02021e+08
-5.39336e+08
-5.871123e+08
0
0
0
0
0
9.305812e+08
1.040508e+09
-4.330955e+08
-4.537006e+08
-4.804855e+08
-5.147526e+08
-5.583502e+08
0
0
0
0
0
8.343611e+08
8.890956e+08
1.003307e+09
-4.170164e+08
-4.361509e+08
-4.609744e+08
-4.926209e+08
-5.326691e+08
0
0
0
0
0
7.659746e+08
7.99175e+08
8.586241e+08
9.778723e+08
-4.021655e+08
-4.199895e+08
-4.430749e+08
-4.724166e+08
-5.093861e+08
0
0
0
0
0
7.125124e+08
7.351504e+08
7.731724e+08
8.37869e+08
9.618476e+08
-3.881378e+08
-4.047627e+08
-4.262648e+08
-4.535214e+08
-4.877307e+08
0
0
0
0
0
6.675942e+08
6.843706e+08
7.116445e+08
7.547982e+08
8.246964e+08
-3.744061e+08
-3.898983e+08
-4.099081e+08
-4.352104e+08
-4.668537e+08
0
0
0
0
0
6.276623e+08
6.406512e+08
6.61706e+08
6.937122e+08
7.418335e+08
-3.605494e+08
-3.749556e+08
-3.935364e+08
-4.169737e+08
-4.461841e+08
0
0
0
0
0
5.908497e+08
6.012635e+08
6.181632e+08
6.434959e+08
6.800342e+08
-3.470916e+08
-3.605001e+08
-3.777738e+08
-3.995164e+08
-4.265324e+08
0
0
0
0
0
5.575804e+08
5.661984e+08
5.802939e+08
6.012347e+08
6.309135e+08
-3.346086e+08
-3.471327e+08
-3.63256e+08
-3.835171e+08
-4.086311e+08
0
0
0
0
0
5.282353e+08
5.35604e+08
5.477239e+08
5.65675e+08
5.908126e+08
-3.233531e+08
-3.351091e+08
-3.502412e+08
-3.692354e+08
-3.927338e+08
0
0
0
0
0
5.026738e+08
5.09151e+08
5.198523e+08
5.356528e+08
5.576349e+08
-3.133507e+08
-3.244468e+08
-3.387333e+08
-3.566546e+08
-3.787946e+08
0
0
0
0
0
4.805057e+08
4.863404e+08
4.959922e+08
5.102078e+08
5.298745e+08
-6.448876e+08
-6.953397e+08
-7.666367e+08
-8.630325e+08
-6.093216e+08
-6.521742e+08
-7.113107e+08
-7.945251e+08
-9.091915e+08
-5.804139e+08
-6.182427e+08
-6.693013e+08
-7.393099e+08
-8.383966e+08
0
-5.559063e+08
-5.900326e+08
-6.355927e+08
-6.966233e+08
-7.80481e+08
0
0
-5.338659e+08
-5.650817e+08
-6.064082e+08
-6.610835e+08
-7.343278e+08
0
0
0
-5.12559e+08
-5.412349e+08
-5.790176e+08
-6.284902e+08
-6.937916e+08
0
0
0
0
-4.910979e+08
-5.174269e+08
-5.519531e+08
-5.968343e+08
-6.553025e+08
0
0
0
0
0
-4.703357e+08
-4.945189e+08
-5.261221e+08
-5.669305e+08
-6.195965e+08
0
0
0
0
0
1.080695e+09
-4.509275e+08
-4.732064e+08
-5.022325e+08
-5.395267e+08
-5.872678e+08
0
0
0
0
0
9.291751e+08
1.036588e+09
-4.330955e+08
-4.537006e+08
-4.804855e+08
-5.147526e+08
-5.583502e+08
0
0
0
0
0
8.343611e+08
8.890956e+08
1.003307e+09
-4.167987e+08
-4.359349e+08
-4.607642e+08
-4.92422e+08
-5.324894e+08
0
0
0
0
0
7.66122e+08
7.996403e+08
8.59852e+08
9.814716e+08
-4.018652e+08
-4.197021e+08
-4.428107e+08
-4.721895e+08
-5.09215e+08
0
0
0
0
0
7.128372e+08
7.357986e+08
7.744694e+08
8.407385e+08
9.698883e+08
-3.880336e+08
-4.047025e+08
-4.262713e+08
-4.536241e+08
-4.87969e+08
0
0
0
0
0
6.686401e+08
6.85738e+08
7.135643e+08
7.578052e+08
8.303e+08
-3.749344e+08
-3.905266e+08
-4.1068e+08
-4.361813e+08
-4.68096e+08
0
0
0
0
0
6.302266e+08
6.435693e+08
6.651815e+08
6.981216e+08
7.480013e+08
-3.620776e+08
-3.766449e+08
-3.95454e+08
-4.192038e+08
-4.488349e+08
0
0
0
0
0
5.951976e+08
6.059889e+08
6.234554e+08
6.496679e+08
6.876325e+08
-3.490663e+08
-3.626451e+08
-3.801571e+08
-4.022222e+08
-4.296677e+08
0
0
0
0
0
5.623386e+08
5.712544e+08
5.857898e+08
6.073799e+08
6.380384e+08
-3.36397e+08
-3.490626e+08
-3.653815e+08
-3.859049e+08
-4.113647e+08
0
0
0
0
0
5.322207e+08
5.397875e+08
5.521977e+08
5.705686e+08
5.96311e+08
-3.246211e+08
-3.364727e+08
-3.51736e+08
-3.709047e+08
-3.946318e+08
0
0
0
0
0
5.053833e+08
5.119744e+08
5.228428e+08
5.388815e+08
5.611999e+08
-3.139848e+08
-3.251268e+08
-3.394761e+08
-3.574807e+08
-3.797294e+08
0
0
0
0
0
4.81821e+08
4.877045e+08
4.974278e+08
5.117449e+08
5.315523e+08
-3.045189e+08
-3.150492e+08
-3.286162e+08
-3.456306e+08
-3.666309e+08
0
0
0
0
0
4.612624e+08
4.666254e+08
4.75488e+08
4.884985e+08
5.064205e+08
-6.068126e+08
-6.49183e+08
-7.075344e+08
-7.893136e+08
-9.005556e+08
-5.762193e+08
-6.133372e+08
-6.633041e+08
-7.315283e+08
-8.273068e+08
0
-5.508805e+08
-5.842251e+08
-6.2861e+08
-6.878262e+08
-7.686704e+08
0
0
-5.2907e+08
-5.595622e+08
-5.998172e+08
-6.528738e+08
-7.235777e+08
0
0
0
-5.092553e+08
-5.373978e+08
-5.74391e+08
-6.226903e+08
-6.861916e+08
0
0
0
0
-4.89923e+08
-5.159833e+08
-5.501124e+08
-5.944057e+08
-6.519881e+08
0
0
0
0
0
-4.703128e+08
-4.94396e+08
-5.258466e+08
-5.664265e+08
-6.187468e+08
0
0
0
0
0
1.063884e+09
-4.512327e+08
-4.734853e+08
-5.02467e+08
-5.396908e+08
-5.873224e+08
0
0
0
0
0
9.257883e+08
1.027843e+09
-4.333188e+08
-4.539207e+08
-4.806975e+08
-5.149494e+08
-5.585215e+08
0
0
0
0
0
8.338571e+08
8.877975e+08
9.996092e+08
-4.167987e+08
-4.359349e+08
-4.607642e+08
-4.92422e+08
-5.324894e+08
0
0
0
0
0
7.66122e+08
7.996403e+08
8.59852e+08
9.814716e+08
-4.016535e+08
-4.194911e+08
-4.426038e+08
-4.719911e+08
-5.090314e+08
0
0
0
0
0
7.128221e+08
7.359322e+08
7.749082e+08
8.419302e+08
9.734973e+08
-3.87738e+08
-4.044173e+08
-4.260053e+08
-4.533893e+08
-4.877809e+08
0
0
0
0
0
6.687602e+08
6.860343e+08
7.141731e+08
7.590566e+08
8.331469e+08
-3.748187e+08
-3.904494e+08
-4.106614e+08
-4.362473e+08
-4.682804e+08
0
0
0
0
0
6.310008e+08
6.445426e+08
6.664738e+08
6.999707e+08
7.509615e+08
-3.625564e+08
-3.772137e+08
-3.961519e+08
-4.200803e+08
-4.499537e+08
0
0
0
0
0
5.973613e+08
6.08399e+08
6.262343e+08
6.530291e+08
6.919715e+08
-3.504929e+08
-3.642182e+08
-3.819377e+08
-4.042862e+08
-4.321119e+08
0
0
0
0
0
5.661681e+08
5.753651e+08
5.903155e+08
6.125236e+08
6.441327e+08
-3.382528e+08
-3.510742e+08
-3.676109e+08
-3.884286e+08
-4.142791e+08
0
0
0
0
0
5.365023e+08
5.443025e+08
5.570538e+08
5.759199e+08
6.02382e+08
-3.263073e+08
-3.382889e+08
-3.537319e+08
-3.731411e+08
-3.971845e+08
0
0
0
0
0
5.09015e+08
5.157663e+08
5.268692e+08
5.432429e+08
5.660355e+08
-3.151829e+08
-3.264131e+08
-3.408833e+08
-3.590486e+08
-3.815074e+08
0
0
0
0
0
4.843102e+08
4.902881e+08
5.001497e+08
5.146631e+08
5.347438e+08
-3.051194e+08
-3.156922e+08
-3.293172e+08
-3.464086e+08
-3.67509e+08
0
0
0
0
0
4.624777e+08
4.678819e+08
4.768049e+08
4.899007e+08
5.079403e+08
-2.961516e+08
-3.061558e+08
-3.19055e+08
-3.352301e+08
-3.551785e+08
0
0
0
0
0
4.433276e+08
4.483045e+08
4.565077e+08
4.685104e+08
4.849748e+08
-5.7403e+08
-6.107849e+08
-6.601981e+08
-7.275259e+08
-8.216662e+08
0
-5.471677e+08
-5.799569e+08
-6.235151e+08
-6.814708e+08
-7.602562e+08
0
0
-5.245806e+08
-5.544427e+08
-5.937769e+08
-6.454633e+08
-7.140569e+08
0
0
0
-5.049469e+08
-5.324961e+08
-5.686254e+08
-6.156626e+08
-6.772673e+08
0
0
0
0
-4.86955e+08
-5.125715e+08
-5.460542e+08
-5.89408e+08
-6.456059e+08
0
0
0
0
0
-4.692836e+08
-4.931428e+08
-5.242657e+08
-5.643708e+08
-6.159965e+08
0
0
0
0
0
1.037306e+09
-4.512494e+08
-4.734196e+08
-5.022764e+08
-5.393157e+08
-5.866757e+08
0
0
0
0
0
9.191216e+08
1.012399e+09
-4.336246e+08
-4.54206e+08
-4.809476e+08
-5.151439e+08
-5.586309e+08
0
0
0
0
0
8.32375e+08
8.846678e+08
9.913549e+08
-4.170164e+08
-4.361509e+08
-4.609744e+08
-4.926209e+08
-5.326691e+08
0
0
0
0
0
7.659746e+08
7.99175e+08
8.586241e+08
9.778723e+08
-4.016535e+08
-4.194911e+08
-4.426038e+08
-4.719911e+08
-5.090314e+08
0
0
0
0
0
7.128221e+08
7.359322e+08
7.749082e+08
8.419302e+08
9.734973e+08
-3.875325e+08
-4.042118e+08
-4.258025e+08
-4.53193e+08
-4.875963e+08
0
0
0
0
0
6.686637e+08
6.860157e+08
7.142963e+08
7.5948e+08
8.343317e+08
-3.745286e+08
-3.901677e+08
-4.103959e+08
-4.360081e+08
-4.680809e+08
0
0
0
0
0
6.31002e+08
6.446472e+08
6.667478e+08
7.005532e+08
7.521935e+08
-3.624316e+08
-3.771229e+08
-3.96113e+08
-4.201163e+08
-4.500943e+08
0
0
0
0
0
5.979484e+08
6.091187e+08
6.271526e+08
6.542705e+08
6.93783e+08
-3.509279e+08
-3.647346e+08
-3.825709e+08
-4.050806e+08
-4.331241e+08
0
0
0
0
0
5.68026e+08
5.774017e+08
5.926127e+08
6.152112e+08
6.474356e+08
-3.395873e+08
-3.525425e+08
-3.692686e+08
-3.903447e+08
-4.165404e+08
0
0
0
0
0
5.399123e+08
5.479292e+08
5.609957e+08
5.803213e+08
6.074598e+08
-3.280546e+08
-3.40179e+08
-3.558219e+08
-3.755008e+08
-3.999012e+08
0
0
0
0
0
5.128977e+08
5.198357e+08
5.312114e+08
5.479751e+08
5.713232e+08
-3.167754e+08
-3.281253e+08
-3.42761e+08
-3.611477e+08
-3.838969e+08
0
0
0
0
0
4.876392e+08
4.93749e+08
5.038038e+08
5.185915e+08
5.390548e+08
-3.062532e+08
-3.169075e+08
-3.306443e+08
-3.478841e+08
-3.691781e+08
0
0
0
0
0
4.647757e+08
4.702589e+08
4.792984e+08
4.925589e+08
5.108258e+08
-2.967211e+08
-3.067646e+08
-3.197176e+08
-3.35964e+08
-3.56005e+08
0
0
0
0
0
4.444552e+08
4.494671e+08
4.57722e+08
4.697976e+08
4.863617e+08
-2.882185e+08
-2.977304e+08
-3.100085e+08
-3.254046e+08
-3.443798e+08
0
0
0
0
0
4.265502e+08
4.312056e+08
4.388506e+08
4.499954e+08
4.652246e+08
-5.452262e+08
-5.777303e+08
-6.208664e+08
-6.781826e+08
-7.559332e+08
0
0
-5.212545e+08
-5.506656e+08
-5.893464e+08
-6.400695e+08
-7.071964e+08
0
0
0
-5.008962e+08
-5.279242e+08
-5.633033e+08
-6.092576e+08
-6.692576e+08
0
0
0
0
-4.830515e+08
-5.081696e+08
-5.409366e+08
-5.832644e+08
-6.379735e+08
0
0
0
0
0
-4.66596e+08
-4.900789e+08
-5.206585e+08
-5.599882e+08
-6.104979e+08
0
0
0
0
0
1.002149e+09
-4.503404e+08
-4.723202e+08
-5.009008e+08
-5.37545e+08
-5.843402e+08
0
0
0
0
0
9.07184e+08
9.879054e+08
-4.336718e+08
-4.541841e+08
-4.808212e+08
-5.148647e+08
-5.581306e+08
0
0
0
0
0
8.288366e+08
8.784972e+08
9.767634e+08
-4.173203e+08
-4.364386e+08
-4.612337e+08
-4.928352e+08
-5.328153e+08
0
0
0
0
0
7.652726e+08
7.978022e+08
8.556637e+08
9.698422e+08
-4.018652e+08
-4.197021e+08
-4.428107e+08
-4.721895e+08
-5.09215e+08
0
0
0
0
0
7.128372e+08
7.357986e+08
7.744694e+08
8.407385e+08
9.698883e+08
-3.875325e+08
-4.042118e+08
-4.258025e+08
-4.53193e+08
-4.875963e+08
0
0
0
0
0
6.686637e+08
6.860157e+08
7.142963e+08
7.5948e+08
8.343317e+08
-3.743293e+08
-3.899678e+08
-4.101979e+08
-4.358151e+08
-4.678971e+08
0
0
0
0
0
6.308628e+08
6.44552e+08
6.667258e+08
7.006693e+08
7.526109e+08
-3.621476e+08
-3.768457e+08
-3.958495e+08
-4.198754e+08
-4.498874e+08
0
0
0
0
0
5.978756e+08
6.091116e+08
6.272441e+08
6.54528e+08
6.943503e+08
-3.507959e+08
-3.646329e+08
-3.825156e+08
-4.050921e+08
-4.332286e+08
0
0
0
0
0
5.684781e+08
5.779465e+08
5.932904e+08
6.160908e+08
6.486466e+08
-3.399831e+08
-3.530124e+08
-3.698447e+08
-3.91067e+08
-4.174597e+08
0
0
0
0
0
5.415288e+08
5.496804e+08
5.629386e+08
5.825435e+08
6.100986e+08
-3.293052e+08
-3.415522e+08
-3.573688e+08
-3.77284e+08
-4.019996e+08
0
0
0
0
0
5.159615e+08
5.230702e+08
5.346932e+08
5.518111e+08
5.756682e+08
-3.184231e+08
-3.299045e+08
-3.447242e+08
-3.633589e+08
-3.864355e+08
0
0
0
0
0
4.911828e+08
4.974449e+08
5.077221e+08
5.22826e+08
5.437319e+08
-3.077593e+08
-3.185242e+08
-3.32414e+08
-3.49858e+08
-3.714196e+08
0
0
0
0
0
4.678426e+08
4.734359e+08
4.826373e+08
4.961266e+08
5.147101e+08
-2.977955e+08
-3.079145e+08
-3.209712e+08
-3.37355e+08
-3.575749e+08
0
0
0
0
0
4.465854e+08
4.516645e+08
4.600187e+08
4.722345e+08
4.889909e+08
-2.887593e+08
-2.983078e+08
-3.106358e+08
-3.260981e+08
-3.451591e+08
0
0
0
0
0
4.276001e+08
4.322857e+08
4.399754e+08
4.511831e+08
4.664981e+08
-2.806898e+08
-2.897428e+08
-3.014397e+08
-3.161111e+08
-3.341833e+08
0
0
0
0
0
4.108037e+08
4.151886e+08
4.223543e+08
4.327599e+08
4.469252e+08
-5.195126e+08
-5.486914e+08
-5.87037e+08
-6.372683e+08
-7.036512e+08
0
0
0
-4.978881e+08
-5.245412e+08
-5.593847e+08
-6.045713e+08
-6.634438e+08
0
0
0
0
-4.793682e+08
-5.040455e+08
-5.361863e+08
-5.776257e+08