/*--------------------------------*- C++ -*----------------------------------*\
| =========                 |                                                 |
| \\      /  F ield         | OpenFOAM: The Open Source CFD Toolbox           |
|  \\    /   O peration     | Version:  2306                                  |
|   \\  /    A nd           | Website:  www.openfoam.com                      |
|    \\/     M anipulation  |                                                 |
\*---------------------------------------------------------------------------*/
FoamFile
{
    version     2.0;
    format      ascii;
    arch        "LSB;label=32;scalar=64";
    class       volScalarField;
    location    "1.5/phiI";
    object      phi;
}
// * * * * * * * * * * * * * * * * * * * * * * * * * * * * * * * * * * * * * //

dimensions      [1 2 -3 0 0 -1 0];

internalField   nonuniform List<scalar> 
12000
(
1.616537
1.61645
1.611708
1.617409
1.616276
1.611602
1.617329
1.606825
1.612509
1.619162
1.616002
1.611407
1.61717
1.606711
1.612408
1.619098
1.602772
1.607565
1.614117
1.621814
1.615603
1.611152
1.616919
1.606501
1.612222
1.618969
1.602656
1.607454
1.614026
1.621772
1.599428
1.603463
1.609051
1.61655
1.625391
1.615043
1.610883
1.616549
1.606236
1.61198
1.618764
1.602444
1.607252
1.61386
1.62169
1.599313
1.60335
1.608948
1.616473
1.625381
1.59664
1.600078
1.604851
1.611298
1.619829
1.629935
1.614372
1.610638
1.616021
1.605979
1.611727
1.618452
1.602175
1.606997
1.613646
1.621554
1.599102
1.603144
1.608761
1.616336
1.625362
1.596527
1.599966
1.604744
1.611206
1.619773
1.629965
1.594264
1.597254
1.601385
1.606949
1.614326
1.623991
1.634484
1.61369
1.610429
1.615374
1.605794
1.611498
1.617986
1.601917
1.606751
1.613425
1.621331
1.598832
1.602883
1.608526
1.616164
1.62532
1.596318
1.599759
1.60455
1.611041
1.619677
1.630028
1.594154
1.597144
1.601277
1.606851
1.61425
1.623961
1.634555
1.59221
1.594848
1.59849
1.603358
1.609775
1.618166
1.628158
1.639038
1.613142
1.610231
1.614709
1.605703
1.6113
1.617389
1.601742
1.606577
1.613227
1.62096
1.598569
1.602634
1.608303
1.615993
1.625219
1.596051
1.599496
1.604306
1.610837
1.619562
1.630108
1.59395
1.59694
1.601081
1.606675
1.614115
1.623916
1.634699
1.592103
1.59474
1.598384
1.603259
1.609691
1.61811
1.628155
1.63915
1.590405
1.592766
1.596022
1.600357
1.606017
1.613357
1.622011
1.63233
1.643598
1.61284
1.610067
1.614171
1.605653
1.611108
1.616756
1.601679
1.606492
1.61305
1.620438
1.598388
1.602467
1.60815
1.615843
1.624979
1.595786
1.599241
1.604075
1.61065
1.619459
1.630163
1.593687
1.596678
1.600832
1.606456
1.613954
1.623876
1.634901
1.591905
1.59454
1.598189
1.603078
1.609539
1.618014
1.628161
1.639375
1.590301
1.592661
1.595918
1.600258
1.605929
1.613289
1.621975
1.632354
1.64375
1.588799
1.590936
1.593885
1.597795
1.602871
1.609385
1.616945
1.625862
1.636508
1.648163
1.61284
1.609973
1.613872
1.605621
1.610947
1.616237
1.601671
1.606445
1.612871
1.619854
1.598324
1.602408
1.608078
1.615699
1.624558
1.595598
1.599066
1.603923
1.610529
1.619374
1.630091
1.593422
1.59642
1.600592
1.606253
1.613816
1.623861
1.635113
1.591647
1.594282
1.597939
1.60285
1.609355
1.617908
1.628194
1.639699
1.590109
1.592467
1.595726
1.600077
1.605769
1.61317
1.621919
1.632412
1.644056
1.588699
1.590835
1.593783
1.597698
1.602782
1.609311
1.616893
1.625846
1.636558
1.648355
1.587355
1.589308
1.592005
1.595574
1.600183
1.606055
1.612758
1.620537
1.629718
1.640692
1.652733
1.613142
1.609973
1.613872
1.605602
1.610854
1.615947
1.60168
1.606414
1.612717
1.619363
1.598322
1.602402
1.608037
1.615539
1.624041
1.595525
1.599005
1.603873
1.610476
1.619275
1.629801
1.593229
1.596237
1.60043
1.606126
1.613738
1.62386
1.635208
1.591385
1.594023
1.597694
1.602633
1.60919
1.617833
1.628268
1.640067
1.589858
1.592213
1.595478
1.599845
1.60557
1.61303
1.621868
1.632518
1.644501
1.588514
1.590646
1.593596
1.597517
1.602619
1.609178
1.616806
1.625829
1.636667
1.648742
1.587259
1.58921
1.591906
1.595478
1.600093
1.605978
1.612698
1.620503
1.629722
1.640767
1.652966
1.586045
1.587843
1.590331
1.593618
1.597848
1.603205
1.609244
1.616136
1.624135
1.63358
1.644881
1.656328
1.61369
1.610067
1.614171
1.605602
1.610854
1.615947
1.601686
1.606396
1.612627
1.619087
1.59834
1.602411
1.608009
1.615395
1.623589
1.595519
1.599005
1.603871
1.610446
1.619141
1.62937
1.593147
1.596167
1.600375
1.606089
1.613712
1.623819
1.635048
1.591189
1.593834
1.597521
1.60249
1.609095
1.617812
1.628351
1.64033
1.589601
1.591956
1.59523
1.599619
1.605384
1.612915
1.621855
1.632679
1.645026
1.588271
1.590399
1.593352
1.597285
1.602412
1.609016
1.61671
1.625832
1.636848
1.649309
1.58708
1.589027
1.591724
1.595301
1.599929
1.605838
1.612592
1.620447
1.629744
1.640928
1.653434
1.585952
1.587749
1.590236
1.593525
1.59776
1.603126
1.609179
1.61609
1.624117
1.633604
1.644982
1.656591
1.584846
1.586514
1.588824
1.591875
1.59579
1.600726
1.606232
1.612438
1.61952
1.627739
1.637447
1.648179
1.658991
1.614372
1.610231
1.614709
1.605621
1.610947
1.616237
1.601686
1.606396
1.612627
1.619087
1.598353
1.602417
1.607991
1.615309
1.62333
1.595535
1.599022
1.603881
1.610421
1.619011
1.628968
1.593134
1.596162
1.600377
1.606093
1.613695
1.62372
1.634703
1.591102
1.593755
1.597456
1.602446
1.609077
1.617821
1.628369
1.6403
1.589406
1.591765
1.59505
1.599463
1.605268
1.612863
1.62189
1.632848
1.645456
1.58802
1.590146
1.593105
1.597055
1.602213
1.608872
1.616644
1.625882
1.637096
1.64999
1.586845
1.588788
1.591485
1.595072
1.599719
1.605664
1.612468
1.620395
1.629801
1.641182
1.654122
1.58578
1.587572
1.590059
1.593352
1.597597
1.602983
1.609063
1.616012
1.624093
1.633664
1.645194
1.657123
1.584757
1.586423
1.588733
1.591785
1.595703
1.600647
1.606164
1.612385
1.619488
1.627737
1.637491
1.6483
1.659277
1.583741
1.585297
1.587456
1.590306
1.593954
1.598537
1.603608
1.609264
1.615637
1.622908
1.631347
1.640493
1.650622
1.660751
1.615043
1.610429
1.615374
1.605653
1.611108
1.616756
1.60168
1.606414
1.612717
1.619363
1.598353
1.602417
1.607991
1.615309
1.62333
1.595548
1.599035
1.603888
1.610405
1.618931
1.628732
1.593146
1.596178
1.600395
1.606104
1.613676
1.623608
1.634351
1.591083
1.593742
1.597453
1.602452
1.609089
1.617822
1.628303
1.64004
1.589314
1.591679
1.594975
1.599406
1.605238
1.612869
1.621935
1.632923
1.645557
1.587827
1.589954
1.592921
1.596889
1.602079
1.60879
1.616635
1.625974
1.637349
1.650588
1.586601
1.588541
1.591242
1.59484
1.599512
1.6055
1.612364
1.620378
1.629914
1.641518
1.654959
1.585553
1.587341
1.589827
1.593126
1.597387
1.602801
1.60892
1.615924
1.624084
1.633776
1.645521
1.657905
1.584591
1.586253
1.588561
1.591617
1.595543
1.600503
1.606042
1.612292
1.619436
1.627744
1.63759
1.648552
1.659854
1.583655
1.585209
1.587368
1.590218
1.593869
1.59846
1.60354
1.609207
1.615596
1.62289
1.631362
1.640553
1.650759
1.661053
1.582717
1.584176
1.586204
1.588879
1.592298
1.596583
1.601289
1.606495
1.6123
1.61884
1.626302
1.634192
1.642752
1.652239
1.661629
1.615603
1.610638
1.616021
1.605703
1.6113
1.617389
1.601671
1.606445
1.612871
1.619854
1.59834
1.602411
1.608009
1.615395
1.623589
1.595548
1.599035
1.603888
1.610405
1.618931
1.628732
1.593157
1.59619
1.600408
1.606111
1.613663
1.623535
1.634137
1.59109
1.593754
1.597469
1.60247
1.609103
1.617811
1.628209
1.639736
1.58929
1.59166
1.594964
1.599405
1.605249
1.612892
1.621954
1.632891
1.645381
1.587733
1.589864
1.592839
1.59682
1.602033
1.608778
1.616666
1.626054
1.637482
1.650817
1.586412
1.588351
1.591057
1.594668
1.599365
1.605395
1.612317
1.620412
1.630063
1.641855
1.655724
1.585317
1.587101
1.589589
1.592897
1.597176
1.602625
1.608792
1.615861
1.624117
1.633951
1.645945
1.658864
1.584372
1.586029
1.588337
1.591397
1.595335
1.600319
1.605888
1.612182
1.619385
1.627779
1.637755
1.648936
1.660706
1.583495
1.585045
1.587202
1.590055
1.593713
1.598317
1.603414
1.609105
1.615527
1.622865
1.631401
1.640682
1.65104
1.66166
1.582634
1.584091
1.586118
1.588794
1.592217
1.596507
1.601221
1.606436
1.612254
1.618812
1.626298
1.634219
1.642823
1.652385
1.661938
1.581762
1.583136
1.585049
1.587572
1.590793
1.594819
1.599216
1.604046
1.609387
1.615341
1.622049
1.628979
1.636303
1.644247
1.653045
1.616002
1.610883
1.616549
1.605794
1.611498
1.617986
1.601679
1.606492
1.61305
1.620438
1.598322
1.602402
1.608037
1.615539
1.624041
1.595535
1.599022
1.603881
1.610421
1.619011
1.628968
1.593157
1.59619
1.600408
1.606111
1.613663
1.623535
1.634137
1.591099
1.593765
1.597481
1.602482
1.609111
1.6178
1.628144
1.639545
1.589294
1.591667
1.594975
1.599421
1.605268
1.612909
1.62195
1.632814
1.645126
1.587706
1.58984
1.592821
1.596811
1.602036
1.608796
1.616699
1.62609
1.637484
1.650725
1.586318
1.588259
1.59097
1.594591
1.599306
1.605364
1.612324
1.620468
1.630178
1.642046
1.656083
1.585132
1.586914
1.589405
1.592722
1.597021
1.602503
1.608715
1.615848
1.624193
1.634156
1.646366
1.659759
1.584144
1.585796
1.588104
1.591171
1.595124
1.600135
1.605742
1.612088
1.619363
1.627861
1.637993
1.649427
1.661754
1.583284
1.584829
1.586985
1.589841
1.593509
1.598132
1.603254
1.608979
1.615447
1.62285
1.631479
1.64089
1.651465
1.662558
1.58248
1.583933
1.585959
1.588636
1.592064
1.596366
1.601094
1.606329
1.612173
1.618766
1.626299
1.634283
1.642974
1.652686
1.662561
1.581682
1.583055
1.584967
1.587491
1.590714
1.594744
1.599148
1.603986
1.609338
1.615306
1.622033
1.628986
1.636339
1.644326
1.653196
1.580867
1.582167
1.583978
1.586367
1.589413
1.593213
1.597343
1.601854
1.606807
1.612283
1.618387
1.624582
1.630966
1.6377
1.644992
1.616276
1.611152
1.616919
1.605979
1.611727
1.618452
1.601742
1.606577
1.613227
1.62096
1.598324
1.602408
1.608078
1.615699
1.624558
1.595519
1.599005
1.603871
1.610446
1.619141
1.62937
1.593146
1.596178
1.600395
1.606104
1.613676
1.623608
1.634351
1.591099
1.593765
1.597481
1.602482
1.609111
1.6178
1.628144
1.639545
1.589301
1.591676
1.594986
1.599433
1.60528
1.612918
1.621942
1.632757
1.644956
1.587707
1.589844
1.592827
1.596822
1.602052
1.608817
1.61672
1.626094
1.637424
1.650518
1.586289
1.588232
1.590946
1.594575
1.599299
1.605371
1.612349
1.620511
1.630232
1.642081
1.656074
1.58504
1.586821
1.589315
1.59264
1.596952
1.602456
1.608699
1.615874
1.624274
1.634307
1.646615
1.660218
1.583965
1.585614
1.587923
1.590996
1.594965
1.600002
1.605645
1.61204
1.619384
1.62798
1.638255
1.649915
1.662745
1.583064
1.584605
1.586759
1.58962
1.5933
1.597945
1.603098
1.608864
1.615388
1.622869
1.63161
1.641176
1.652007
1.663665
1.582277
1.583725
1.585749
1.588429
1.591865
1.596182
1.600932
1.606194
1.612075
1.618718
1.626321
1.634395
1.643213
1.653139
1.663481
1.581534
1.582902
1.584813
1.587338
1.590566
1.594606
1.599022
1.603876
1.609249
1.615245
1.622009
1.629008
1.636421
1.644491
1.653506
1.58079
1.582088
1.583899
1.586288
1.589336
1.593141
1.597276
1.601793
1.606755
1.612243
1.618363
1.624575
1.630981
1.637742
1.645075
1.580025
1.581258
1.58298
1.58525
1.58814
1.591741
1.595637
1.599871
1.604495
1.609572
1.615184
1.620793
1.626462
1.632282
1.638397
1.61645
1.611407
1.61717
1.606236
1.61198
1.618764
1.601917
1.606751
1.613425
1.621331
1.598388
1.602467
1.60815
1.615843
1.624979
1.595525
1.599005
1.603873
1.610476
1.619275
1.629801
1.593134
1.596162
1.600377
1.606093
1.613695
1.62372
1.634703
1.59109
1.593754
1.597469
1.60247
1.609103
1.617811
1.628209
1.639736
1.589301
1.591676
1.594986
1.599433
1.60528
1.612918
1.621942
1.632757
1.644956
1.587713
1.589851
1.592836
1.596832
1.602063
1.608829
1.616729
1.626089
1.637375
1.650371
1.586289
1.588233
1.59095
1.594581
1.59931
1.605388
1.612371
1.620536
1.630243
1.642039
1.655915
1.58501
1.586793
1.589289
1.592618
1.596937
1.602452
1.608711
1.615906
1.624328
1.634378
1.646683
1.660273
1.583874
1.585522
1.587833
1.590911
1.594889
1.599943
1.60561
1.612039
1.619428
1.628085
1.638441
1.650209
1.663278
1.582891
1.584428
1.586583
1.589447
1.593139
1.597804
1.602986
1.608791
1.615369
1.622925
1.631771
1.641482
1.652543
1.664719
1.582065
1.583508
1.58553
1.588214
1.591659
1.595995
1.600769
1.606065
1.61199
1.618693
1.62638
1.634564
1.643535
1.653714
1.664617
1.581338
1.582701
1.58461
1.587137
1.590372
1.594426
1.598859
1.603736
1.609139
1.615175
1.621993
1.629058
1.636558
1.644751
1.653973
1.580647
1.581941
1.583751
1.586141
1.589193
1.593006
1.597152
1.601683
1.606662
1.612173
1.618322
1.624569
1.631018
1.637836
1.645248
1.579951
1.581183
1.582903
1.585173
1.588066
1.59167
1.595571
1.599812
1.604443
1.609529
1.615153
1.620776
1.626462
1.632302
1.638442
1.57923
1.580404
1.582044
1.584207
1.586959
1.590381
1.594071
1.598064
1.602403
1.607141
1.612341
1.617475
1.622579
1.627707
1.632938
1.616537
1.611602
1.617329
1.606501
1.612222
1.618969
1.602175
1.606997
1.613646
1.621554
1.598569
1.602634
1.608303
1.615993
1.625219
1.595598
1.599066
1.603923
1.610529
1.619374
1.630091
1.593147
1.596167
1.600375
1.606089
1.613712
1.623819
1.635048
1.591083
1.593742
1.597453
1.602452
1.609089
1.617822
1.628303
1.64004
1.589294
1.591667
1.594975
1.599421
1.605268
1.612909
1.62195
1.632814
1.645126
1.587713
1.589851
1.592836
1.596832
1.602063
1.608829
1.616729
1.626089
1.637375
1.650371
1.586293
1.588238
1.590956
1.594588
1.599319
1.605399
1.612383
1.620546
1.630241
1.641997
1.655789
1.585008
1.586792
1.589289
1.59262
1.596943
1.602463
1.608728
1.61593
1.624356
1.634397
1.646658
1.660152
1.583844
1.585493
1.587804
1.590885
1.594868
1.599931
1.60561
1.612056
1.619467
1.62815
1.638529
1.650303
1.663381
1.582802
1.584338
1.586493
1.589361
1.593059
1.597738
1.602938
1.608769
1.615383
1.622988
1.631902
1.641695
1.65287
1.6653
1.581897
1.583337
1.585358
1.588045
1.591499
1.595851
1.600648
1.605974
1.611941
1.618703
1.62647
1.634759
1.643874
1.654281
1.665703
1.581133
1.582492
1.584399
1.586928
1.590171
1.59424
1.598694
1.603597
1.609036
1.61512
1.622003
1.629149
1.636755
1.645096
1.654564
1.580458
1.581748
1.583555
1.585947
1.589004
1.592829
1.59699
1.60154
1.606544
1.612087
1.618279
1.624578
1.63109
1.63799
1.645517
1.579813
1.581041
1.58276
1.585031
1.587927
1.591538
1.595449
1.599701
1.604347
1.609452
1.615101
1.620752
1.62647
1.632349
1.638542
1.579158
1.580331
1.58197
1.584133
1.586887
1.590313
1.594007
1.598005
1.602351
1.607096
1.612307
1.617453
1.622569
1.627712
1.63296
1.578475
1.579596
1.581164
1.58323
1.585857
1.589119
1.592625
1.596405
1.600495
1.604939
1.60979
1.61453
1.619178
1.623763
1.628329
1.611708
1.617409
1.606711
1.612408
1.619098
1.602444
1.607252
1.61386
1.62169
1.598832
1.602883
1.608526
1.616164
1.62532
1.595786
1.599241
1.604075
1.61065
1.619459
1.630163
1.593229
1.596237
1.60043
1.606126
1.613738
1.62386
1.635208
1.591102
1.593755
1.597456
1.602446
1.609077
1.617821
1.628369
1.6403
1.58929
1.59166
1.594964
1.599405
1.605249
1.612892
1.621954
1.632891
1.645381
1.587707
1.589844
1.592827
1.596822
1.602052
1.608817
1.61672
1.626094
1.637424
1.650518
1.586293
1.588238
1.590956
1.594588
1.599319
1.605399
1.612383
1.620546
1.630241
1.641997
1.655789
1.585012
1.586796
1.589294
1.592626
1.59695
1.602471
1.608739
1.615941
1.624367
1.634397
1.646623
1.660042
1.583841
1.58549
1.587803
1.590884
1.59487
1.599936
1.60562
1.612073
1.619493
1.628182
1.638556
1.650291
1.663286
1.582773
1.584308
1.586463
1.589333
1.593034
1.597719
1.602928
1.608772
1.615405
1.623034
1.631977
1.641797
1.652983
1.665435
1.581812
1.583249
1.58527
1.587958
1.591417
1.595779
1.60059
1.605937
1.611931
1.618732
1.626552
1.634909
1.644107
1.65463
1.666308
1.580972
1.582327
1.584232
1.586763
1.590012
1.594095
1.598567
1.603495
1.608967
1.615096
1.622041
1.629266
1.636975
1.645456
1.655147
1.580261
1.581546
1.583351
1.585744
1.588809
1.592646
1.596824
1.601396
1.60643
1.612011
1.618254
1.624614
1.631204
1.638205
1.645874
1.57963
1.580854
1.582571
1.584843
1.587744
1.591366
1.595289
1.599558
1.604225
1.609357
1.61504
1.620731
1.626496
1.632434
1.638704
1.579024
1.580194
1.581832
1.583996
1.586752
1.590185
1.593887
1.597896
1.602254
1.607016
1.612247
1.617415
1.622556
1.627729
1.633013
1.578406
1.579526
1.581092
1.583159
1.585787
1.589052
1.592562
1.596347
1.600443
1.604894
1.609754
1.614503
1.619161
1.623757
1.628336
1.577757
1.57883
1.580332
1.582311
1.584824
1.587941
1.591282
1.594872
1.598742
1.60293
1.607479
1.611885
1.616157
1.620306
1.624353
1.606825
1.612509
1.619162
1.602656
1.607454
1.614026
1.621772
1.599102
1.603144
1.608761
1.616336
1.625362
1.596051
1.599496
1.604306
1.610837
1.619562
1.630108
1.593422
1.59642
1.600592
1.606253
1.613816
1.623861
1.635113
1.591189
1.593834
1.597521
1.60249
1.609095
1.617812
1.628351
1.64033
1.589314
1.591679
1.594975
1.599406
1.605238
1.612869
1.621935
1.632923
1.645557
1.587706
1.58984
1.592821
1.596811
1.602036
1.608796
1.616699
1.62609
1.637484
1.650725
1.586289
1.588233
1.59095
1.594581
1.59931
1.605388
1.612371
1.620536
1.630243
1.642039
1.655915
1.585012
1.586796
1.589294
1.592626
1.59695
1.602471
1.608739
1.615941
1.624367
1.634397
1.646623
1.660042
1.583845
1.585494
1.587807
1.590889
1.594875
1.599941
1.605628
1.612083
1.619505
1.628193
1.638558
1.650262
1.663189
1.58277
1.584305
1.58646
1.58933
1.593033
1.59772
1.602932
1.608782
1.615423
1.623061
1.632012
1.64183
1.652981
1.665358
1.581783
1.58322
1.58524
1.587929
1.59139
1.595756
1.600573
1.605929
1.611938
1.618759
1.626605
1.634992
1.644219
1.654755
1.666458
1.580889
1.582242
1.584146
1.586678
1.58993
1.594021
1.598503
1.603447
1.60894
1.615099
1.622085
1.629362
1.637138
1.645703
1.655507
1.580106
1.581386
1.58319
1.585584
1.588654
1.592502
1.596695
1.601287
1.606347
1.611964
1.618255
1.624675
1.63134
1.638441
1.646245
1.579441
1.58066
1.582374
1.584647
1.587554
1.591187
1.595125
1.599412
1.604103
1.609266
1.614991
1.620729
1.626553
1.632564
1.638928
1.578848
1.580014
1.58165
1.583814
1.586575
1.590017
1.59373
1.597753
1.602129
1.606913
1.612173
1.617373
1.622551
1.627767
1.633105
1.578277
1.579393
1.580959
1.583026
1.585657
1.588928
1.592445
1.596239
1.600346
1.604811
1.609688
1.614455
1.619133
1.623752
1.628357
1.57769
1.578762
1.580263
1.582242
1.584756
1.587877
1.591221
1.594815
1.59869
1.602884
1.607441
1.611855
1.616134
1.620293
1.624349
1.577072
1.578102
1.579543
1.581442
1.583852
1.586838
1.590028
1.593448
1.597122
1.601083
1.605368
1.609488
1.613443
1.617235
1.620869
1.602772
1.607565
1.614117
1.621814
1.599313
1.60335
1.608948
1.616473
1.625381
1.596318
1.599759
1.60455
1.611041
1.619677
1.630028
1.593687
1.596678
1.600832
1.606456
1.613954
1.623876
1.634901
1.591385
1.594023
1.597694
1.602633
1.60919
1.617833
1.628268
1.640067
1.589406
1.591765
1.59505
1.599463
1.605268
1.612863
1.62189
1.632848
1.645456
1.587733
1.589864
1.592839
1.59682
1.602033
1.608778
1.616666
1.626054
1.637482
1.650817
1.586289
1.588232
1.590946
1.594575
1.599299
1.605371
1.612349
1.620511
1.630232
1.642081
1.656074
1.585008
1.586792
1.589289
1.59262
1.596943
1.602463
1.608728
1.61593
1.624356
1.634397
1.646658
1.660152
1.583845
1.585494
1.587807
1.590889
1.594875
1.599941
1.605628
1.612083
1.619505
1.628193
1.638558
1.650262
1.663189
1.582774
1.584308
1.586464
1.589333
1.593036
1.597723
1.602937
1.608789
1.615432
1.623072
1.632024
1.641834
1.652956
1.66527
1.581781
1.583217
1.585237
1.587925
1.591387
1.595754
1.600573
1.605933
1.611948
1.618777
1.626634
1.63503
1.644256
1.65476
1.666391
1.580862
1.582213
1.584117
1.586648
1.589902
1.593994
1.598481
1.603432
1.608935
1.615109
1.622117
1.629421
1.637228
1.645821
1.655638
1.580027
1.581304
1.583106
1.5855
1.588572
1.592426
1.596627
1.601231
1.606307
1.611947
1.61827
1.624731
1.631447
1.638614
1.646498
1.579291
1.580506
1.582219
1.584492
1.587403
1.591045
1.594995
1.599298
1.60401
1.609202
1.614965
1.620749
1.62663
1.632713
1.639172
1.578666
1.579826
1.58146
1.583625
1.586391
1.589842
1.593568
1.597607
1.602003
1.606813
1.612106
1.617344
1.622567
1.627837
1.633242
1.578107
1.579219
1.580783
1.58285
1.585485
1.588765
1.592292
1.596098
1.600221
1.604705
1.609606
1.614399
1.619106
1.623757
1.628401
1.577565
1.578634
1.580134
1.582113
1.58463
1.587756
1.591107
1.594709
1.598594
1.6028
1.607372
1.611801
1.616097
1.620272
1.624348
1.577007
1.578035
1.579476
1.581375
1.583786
1.586775
1.589969
1.593392
1.597071
1.601037
1.605329
1.609455
1.613417
1.617216
1.620858
1.576415
1.577406
1.578793
1.580618
1.582934
1.585799
1.588853
1.592118
1.595616
1.599375
1.603427
1.607297
1.610982
1.614475
1.617773
1.599428
1.603463
1.609051
1.61655
1.625391
1.596527
1.599966
1.604744
1.611206
1.619773
1.629965
1.59395
1.59694
1.601081
1.606675
1.614115
1.623916
1.634699
1.591647
1.594282
1.597939
1.60285
1.609355
1.617908
1.628194
1.639699
1.589601
1.591956
1.59523
1.599619
1.605384
1.612915
1.621855
1.632679
1.645026
1.587827
1.589954
1.592921
1.596889
1.602079
1.60879
1.616635
1.625974
1.637349
1.650588
1.586318
1.588259
1.59097
1.594591
1.599306
1.605364
1.612324
1.620468
1.630178
1.642046
1.656083
1.58501
1.586793
1.589289
1.592618
1.596937
1.602452
1.608711
1.615906
1.624328
1.634378
1.646683
1.660273
1.583841
1.58549
1.587803
1.590884
1.59487
1.599936
1.60562
1.612073
1.619493
1.628182
1.638556
1.650291
1.663286
1.582774
1.584308
1.586464
1.589333
1.593036
1.597723
1.602937
1.608789
1.615432
1.623072
1.632024
1.641834
1.652956
1.66527
1.581784
1.58322
1.58524
1.587928
1.591389
1.595756
1.600576
1.605937
1.611954
1.618786
1.626645
1.635042
1.644262
1.654737
1.666306
1.58086
1.58221
1.584113
1.586644
1.589897
1.59399
1.598478
1.603431
1.608939
1.615119
1.622136
1.629451
1.637268
1.645861
1.655646
1.580001
1.581277
1.583077
1.585471
1.588543
1.592398
1.596602
1.60121
1.606294
1.611945
1.618285
1.624767
1.63151
1.638708
1.64662
1.579215
1.580427
1.582138
1.584411
1.587323
1.590969
1.594925
1.599237
1.603962
1.609171
1.614959
1.620774
1.626695
1.632828
1.63935
1.578522
1.579678
1.58131
1.583475
1.586244
1.589703
1.593439
1.597491
1.601905
1.606738
1.612061
1.617335
1.622601
1.627925
1.633398
1.57793
1.579038
1.5806
1.582667
1.585306
1.588595
1.592133
1.595953
1.600092
1.604598
1.609527
1.614351
1.619093
1.623784
1.628477
1.577401
1.578466
1.579964
1.581943
1.584464
1.587597
1.590957
1.59457
1.598469
1.602692
1.607284
1.611735
1.616053
1.620254
1.624359
1.576886
1.577912
1.579351
1.581251
1.583664
1.586658
1.589858
1.593288
1.596976
1.600953
1.605258
1.609397
1.613372
1.617184
1.620841
1.576352
1.577342
1.578728
1.580554
1.58287
1.585738
1.588795
1.592063
1.595565
1.599329
1.603387
1.607263
1.610953
1.614452
1.617756
1.575785
1.57674
1.578077
1.579835
1.582063
1.584818
1.587748
1.590871
1.59421
1.597787
1.601631
1.605282
1.608732
1.611972
1.61499
1.59664
1.600078
1.604851
1.611298
1.619829
1.629935
1.594154
1.597144
1.601277
1.606851
1.61425
1.623961
1.634555
1.591905
1.59454
1.598189
1.603078
1.609539
1.618014
1.628161
1.639375
1.589858
1.592213
1.595478
1.599845
1.60557
1.61303
1.621868
1.632518
1.644501
1.58802
1.590146
1.593105
1.597055
1.602213
1.608872
1.616644
1.625882
1.637096
1.64999
1.586412
1.588351
1.591057
1.594668
1.599365
1.605395
1.612317
1.620412
1.630063
1.641855
1.655724
1.58504
1.586821
1.589315
1.59264
1.596952
1.602456
1.608699
1.615874
1.624274
1.634307
1.646615
1.660218
1.583844
1.585493
1.587804
1.590885
1.594868
1.599931
1.60561
1.612056
1.619467
1.62815
1.638529
1.650303
1.663381
1.58277
1.584305
1.58646
1.58933
1.593033
1.59772
1.602932
1.608782
1.615423
1.623061
1.632012
1.64183
1.652981
1.665358
1.581784
1.58322
1.58524
1.587928
1.591389
1.595756
1.600576
1.605937
1.611954
1.618786
1.626645
1.635042
1.644262
1.654737
1.666306
1.580863
1.582213
1.584116
1.586646
1.589899
1.593991
1.598479
1.603433
1.608942
1.615124
1.622144
1.629462
1.637281
1.645868
1.655625
1.579999
1.581275
1.583074
1.585467
1.588538
1.592392
1.596596
1.601206
1.606292
1.611948
1.618294
1.624786
1.631541
1.638749
1.646661
1.579191
1.580401
1.582111
1.584382
1.587294
1.59094
1.594898
1.599213
1.603943
1.60916
1.614959
1.620791
1.626733
1.632893
1.639445
1.578449
1.579603
1.581232
1.583396
1.586166
1.589628
1.593369
1.597427
1.601851
1.606697
1.61204
1.617337
1.622633
1.627995
1.633516
1.577792
1.578896
1.580455
1.582523
1.585164
1.588459
1.592005
1.595836
1.599991
1.604515
1.609469
1.614321
1.619096
1.623828
1.628571
1.57723
1.578291
1.579787
1.581767
1.584291
1.587432
1.590801
1.594426
1.59834
1.602581
1.607197
1.611673
1.616019
1.620251
1.624392
1.576726
1.577749
1.579187
1.581087
1.583503
1.586504
1.589712
1.593152
1.596851
1.600843
1.605166
1.609323
1.613317
1.617149
1.620827
1.576235
1.577222
1.578607
1.580433
1.582752
1.585624
1.588687
1.591962
1.595472
1.599245
1.603315
1.607202
1.610903
1.614413
1.617727
1.575724
1.576678
1.578014
1.579773
1.582002
1.584759
1.587691
1.590818
1.59416
1.597742
1.601591
1.605247
1.608702
1.611947
1.614969
1.575178
1.5761
1.577391
1.579088
1.581236
1.583888
1.586703
1.589698
1.592891
1.596304
1.599961
1.603417
1.606662
1.609684
1.612466
1.594264
1.597254
1.601385
1.606949
1.614326
1.623991
1.634484
1.592103
1.59474
1.598384
1.603259
1.609691
1.61811
1.628155
1.63915
1.590109
1.592467
1.595726
1.600077
1.605769
1.61317
1.621919
1.632412
1.644056
1.588271
1.590399
1.593352
1.597285
1.602412
1.609016
1.61671
1.625832
1.636848
1.649309
1.586601
1.588541
1.591242
1.59484
1.599512
1.6055
1.612364
1.620378
1.629914
1.641518
1.654959
1.585132
1.586914
1.589405
1.592722
1.597021
1.602503
1.608715
1.615848
1.624193
1.634156
1.646366
1.659759
1.583874
1.585522
1.587833
1.590911
1.594889
1.599943
1.60561
1.612039
1.619428
1.628085
1.638441
1.650209
1.663278
1.582773
1.584308
1.586463
1.589333
1.593034
1.597719
1.602928
1.608772
1.615405
1.623034
1.631977
1.641797
1.652983
1.665435
1.581781
1.583217
1.585237
1.587925
1.591387
1.595754
1.600573
1.605933
1.611948
1.618777
1.626634
1.63503
1.644256
1.65476
1.666391
1.580863
1.582213
1.584116
1.586646
1.589899
1.593991
1.598479
1.603433
1.608942
1.615124
1.622144
1.629462
1.637281
1.645868
1.655625
1.580002
1.581278
1.583077
1.585469
1.588539
1.592393
1.596597
1.601206
1.606293
1.61195
1.618299
1.624794
1.631552
1.638762
1.646668
1.57919
1.580399
1.582108
1.584378
1.587288
1.590934
1.594891
1.599206
1.603938
1.609158
1.614962
1.620801
1.626753
1.632924
1.639487
1.578426
1.579578
1.581206
1.583369
1.586137
1.589599
1.59334
1.597401
1.601828
1.60668
1.612031
1.61734
1.622652
1.628035
1.633582
1.577723
1.578824
1.580381
1.582447
1.585089
1.588385
1.591935
1.595771
1.599933
1.604468
1.609436
1.614306
1.619104
1.623864
1.628643
1.577098
1.578155
1.579648
1.581627
1.584153
1.5873
1.590676
1.594311
1.598237
1.602493
1.607129
1.611627
1.615999
1.620262
1.62444
1.576562
1.57758
1.579016
1.580916
1.583336
1.586343
1.58956
1.59301
1.596723
1.600731
1.605073
1.609252
1.613267
1.617124
1.620829
1.576081
1.577064
1.578448
1.580274
1.582596
1.585474
1.588545
1.591828
1.595349
1.599136
1.60322
1.607123
1.61084
1.614366
1.617697
1.57561
1.576561
1.577896
1.579655
1.581887
1.584648
1.587586
1.590719
1.594068
1.597658
1.601518
1.605184
1.608648
1.611901
1.614933
1.575119
1.57604
1.57733
1.579027
1.581176
1.58383
1.586648
1.589646
1.592842
1.596259
1.599921
1.603382
1.606631
1.609656
1.612442
1.574593
1.575485
1.576733
1.578373
1.580446
1.583004
1.585713
1.58859
1.59165
1.594913
1.5984
1.601682
1.604746
1.607577
1.610159
1.59221
1.594848
1.59849
1.603358
1.609775
1.618166
1.628158
1.639038
1.590301
1.592661
1.595918
1.600258
1.605929
1.613289
1.621975
1.632354
1.64375
1.588514
1.590646
1.593596
1.597517
1.602619
1.609178
1.616806
1.625829
1.636667
1.648742
1.586845
1.588788
1.591485
1.595072
1.599719
1.605664
1.612468
1.620395
1.629801
1.641182
1.654122
1.585317
1.587101
1.589589
1.592897
1.597176
1.602625
1.608792
1.615861
1.624117
1.633951
1.645945
1.658864
1.583965
1.585614
1.587923
1.590996
1.594965
1.600002
1.605645
1.61204
1.619384
1.62798
1.638255
1.649915
1.662745
1.582802
1.584338
1.586493
1.589361
1.593059
1.597738
1.602938
1.608769
1.615383
1.622988
1.631902
1.641695
1.65287
1.6653
1.581783
1.58322
1.58524
1.587929
1.59139
1.595756
1.600573
1.605929
1.611938
1.618759
1.626605
1.634992
1.644219
1.654755
1.666458
1.58086
1.58221
1.584113
1.586644
1.589897
1.59399
1.598478
1.603431
1.608939
1.615119
1.622136
1.629451
1.637268
1.645861
1.655646
1.580002
1.581278
1.583077
1.585469
1.588539
1.592393
1.596597
1.601206
1.606293
1.61195
1.618299
1.624794
1.631552
1.638762
1.646668
1.579193
1.580403
1.58211
1.58438
1.587289
1.590934
1.594891
1.599206
1.603937
1.609158
1.614963
1.620804
1.62676
1.632935
1.6395
1.578426
1.579577
1.581204
1.583365
1.586132
1.589592
1.593333
1.597393
1.60182
1.606674
1.612028
1.617342
1.622662
1.628055
1.633614
1.577701
1.578801
1.580356
1.582421
1.585061
1.588357
1.591907
1.595744
1.599907
1.604446
1.60942
1.614299
1.619108
1.623885
1.628685
1.577031
1.578086
1.579576
1.581554
1.58408
1.587228
1.590607
1.594246
1.598177
1.602442
1.607089
1.611601
1.61599
1.620274
1.624478
1.576434
1.577449
1.578882
1.580781
1.583203
1.586215
1.589438
1.592896
1.596619
1.60064
1.604999
1.609196
1.613232
1.617112
1.620844
1.575922
1.576902
1.578283
1.58011
1.582434
1.585319
1.588397
1.59169
1.595222
1.599022
1.603124
1.607045
1.610779
1.614324
1.617676
1.57546
1.576409
1.577742
1.579502
1.581736
1.584503
1.587447
1.590588
1.593947
1.597549
1.601422
1.605102
1.608579
1.611845
1.614889
1.575008
1.575927
1.577216
1.578913
1.581064
1.583723
1.586545
1.589549
1.592752
1.596177
1.599847
1.603317
1.606574
1.609607
1.6124
1.574535
1.575426
1.576674
1.578314
1.580388
1.582948
1.58566
1.588539
1.591602
1.594869
1.598361
1.601647
1.604714
1.607549
1.610132
1.574026
1.574891
1.5761
1.577687
1.579691
1.582161
1.584773
1.58754
1.590478
1.593604
1.596937
1.600061
1.602963
1.605628
1.608034
1.590405
1.592766
1.596022
1.600357
1.606017
1.613357
1.622011
1.63233
1.643598
1.588699
1.590835
1.593783
1.597698
1.602782
1.609311
1.616893
1.625846
1.636558
1.648355
1.58708
1.589027
1.591724
1.595301
1.599929
1.605838
1.612592
1.620447
1.629744
1.640928
1.653434
1.585553
1.587341
1.589827
1.593126
1.597387
1.602801
1.60892
1.615924
1.624084
1.633776
1.645521
1.657905
1.584144
1.585796
1.588104
1.591171
1.595124
1.600135
1.605742
1.612088
1.619363
1.627861
1.637993
1.649427
1.661754
1.582891
1.584428
1.586583
1.589447
1.593139
1.597804
1.602986
1.608791
1.615369
1.622925
1.631771