/*--------------------------------*- C++ -*----------------------------------*\
| =========                 |                                                 |
| \\      /  F ield         | OpenFOAM: The Open Source CFD Toolbox           |
|  \\    /   O peration     | Version:  2306                                  |
|   \\  /    A nd           | Website:  www.openfoam.com                      |
|    \\/     M anipulation  |                                                 |
\*---------------------------------------------------------------------------*/
FoamFile
{
    version     2.0;
    format      ascii;
    arch        "LSB;label=32;scalar=64";
    class       volScalarField;
    location    "1.5/phiI";
    object      T;
}
// * * * * * * * * * * * * * * * * * * * * * * * * * * * * * * * * * * * * * //

dimensions      [0 0 0 1 0 0 0];

internalField   nonuniform List<scalar> 
12000
(
1169.286
1169.13
1171.187
1169.363
1168.764
1171.177
1169.207
1172.929
1171.254
1169.425
1168.077
1171.153
1168.842
1172.959
1171.244
1169.269
1174.549
1172.986
1171.307
1169.471
1166.897
1171.105
1168.158
1173.028
1171.22
1168.905
1174.591
1173.017
1171.297
1169.314
1176.095
1174.598
1173.03
1171.345
1169.5
1165.113
1171.018
1166.988
1173.151
1171.171
1168.224
1174.686
1173.084
1171.272
1168.951
1176.14
1174.64
1173.061
1171.335
1169.344
1177.583
1176.137
1174.635
1173.061
1171.368
1169.51
1163.057
1170.859
1165.229
1173.351
1171.081
1167.063
1174.859
1173.206
1171.221
1168.273
1176.241
1174.735
1173.128
1171.309
1168.981
1177.627
1176.182
1174.676
1173.091
1171.357
1169.354
1179.018
1177.619
1176.167
1174.659
1173.078
1171.374
1169.519
1161.173
1170.554
1163.204
1173.619
1170.917
1165.327
1175.143
1173.401
1171.128
1167.121
1176.424
1174.906
1173.247
1171.257
1168.306
1177.726
1176.282
1174.771
1173.157
1171.331
1168.992
1179.06
1177.663
1176.212
1174.7
1173.107
1171.363
1169.363
1180.399
1179.049
1177.645
1176.186
1174.67
1173.08
1171.379
1169.528
1159.775
1170.175
1161.348
1173.813
1170.612
1163.333
1175.539
1173.66
1170.959
1165.407
1176.726
1175.185
1173.438
1171.161
1167.162
1177.906
1176.464
1174.94
1173.275
1171.277
1168.318
1179.154
1177.762
1176.312
1174.794
1173.173
1171.336
1169.001
1180.438
1179.091
1177.688
1176.23
1174.711
1173.109
1171.368
1169.372
1181.727
1180.426
1179.07
1177.659
1176.193
1174.668
1173.081
1171.384
1169.537
1159.039
1169.839
1159.971
1173.905
1170.238
1161.505
1175.891
1173.848
1170.655
1163.442
1177.149
1175.571
1173.687
1170.986
1165.469
1178.202
1176.761
1175.214
1173.46
1171.177
1167.182
1179.326
1177.94
1176.492
1174.961
1173.288
1171.28
1168.33
1180.528
1179.185
1177.786
1176.33
1174.804
1173.173
1171.34
1169.011
1181.764
1180.466
1179.111
1177.702
1176.236
1174.709
1173.11
1171.372
1169.381
1183.001
1181.75
1180.443
1179.08
1177.661
1176.187
1174.666
1173.082
1171.389
1169.545
1159.039
1169.645
1159.245
1173.93
1169.908
1160.147
1176.142
1173.938
1170.286
1161.642
1177.544
1175.916
1173.869
1170.683
1163.532
1178.618
1177.175
1175.59
1173.7
1170.997
1165.506
1179.607
1178.232
1176.785
1175.23
1173.468
1171.176
1167.2
1180.69
1179.355
1177.963
1176.508
1174.969
1173.286
1171.283
1168.341
1181.849
1180.555
1179.205
1177.8
1176.335
1174.8
1173.173
1171.343
1169.02
1183.036
1181.788
1180.483
1179.122
1177.705
1176.231
1174.706
1173.11
1171.377
1169.39
1184.221
1183.022
1181.765
1180.451
1179.08
1177.653
1176.182
1174.663
1173.083
1171.393
1169.554
1159.775
1169.645
1159.245
1173.931
1169.718
1159.432
1176.293
1173.964
1169.961
1160.304
1177.843
1176.162
1173.957
1170.318
1161.758
1179.012
1177.563
1175.927
1173.875
1170.694
1163.593
1180.003
1178.64
1177.189
1175.596
1173.698
1170.992
1165.538
1180.956
1179.634
1178.251
1176.796
1175.233
1173.461
1171.176
1167.217
1182.002
1180.716
1179.374
1177.975
1176.511
1174.963
1173.284
1171.285
1168.353
1183.116
1181.872
1180.572
1179.215
1177.802
1176.328
1174.797
1173.173
1171.347
1169.03
1184.254
1183.057
1181.802
1180.49
1179.121
1177.696
1176.225
1174.704
1173.111
1171.381
1169.398
1185.388
1184.239
1183.034
1181.77
1180.448
1179.07
1177.646
1176.177
1174.661
1173.083
1171.397
1169.567
1161.173
1169.839
1159.971
1173.931
1169.718
1159.432
1176.363
1173.964
1169.774
1159.598
1178.035
1176.312
1173.983
1169.998
1160.439
1179.318
1177.857
1176.17
1173.962
1170.333
1161.841
1180.382
1179.027
1177.569
1175.926
1173.868
1170.688
1163.645
1181.329
1180.022
1178.65
1177.191
1175.588
1173.682
1170.987
1165.57
1182.252
1180.979
1179.649
1178.259
1176.795
1175.222
1173.455
1171.175
1167.236
1183.261
1182.024
1180.732
1179.383
1177.975
1176.503
1174.958
1173.282
1171.287
1168.366
1184.33
1183.137
1181.886
1180.578
1179.214
1177.792
1176.322
1174.794
1173.173
1171.35
1169.04
1185.42
1184.273
1183.069
1181.807
1180.487
1179.111
1177.689
1176.22
1174.701
1173.111
1171.385
1169.412
1186.502
1185.404
1184.249
1183.036
1181.765
1180.436
1179.061
1177.639
1176.172
1174.658
1173.083
1171.406
1169.586
1163.057
1170.175
1161.348
1173.93
1169.908
1160.147
1176.363
1173.964
1169.774
1159.598
1178.128
1176.381
1173.984
1169.815
1159.743
1179.519
1178.048
1176.318
1173.988
1170.018
1160.538
1180.679
1179.329
1177.86
1176.165
1173.952
1170.33
1161.912
1181.688
1180.395
1179.031
1177.564
1175.911
1173.847
1170.683
1163.696
1182.603
1181.345
1180.03
1178.649
1177.181
1175.569
1173.669
1170.982
1165.602
1183.497
1182.272
1180.991
1179.654
1178.254
1176.782
1175.213
1173.448
1171.174
1167.255
1184.468
1183.281
1182.037
1180.737
1179.38
1177.964
1176.495
1174.953
1173.279
1171.289
1168.378
1185.492
1184.349
1183.148
1181.89
1180.575
1179.203
1177.784
1176.316
1174.79
1173.172
1171.353
1169.055
1186.533
1185.436
1184.283
1183.072
1181.802
1180.475
1179.101
1177.681
1176.214
1174.697
1173.111
1171.393
1169.431
1187.565
1186.517
1185.413
1184.251
1183.03
1181.752
1180.425
1179.051
1177.631
1176.166
1174.654
1173.088
1171.419
1169.609
1165.113
1170.554
1163.204
1173.905
1170.238
1161.505
1176.293
1173.964
1169.961
1160.304
1178.128
1176.381
1173.984
1169.815
1159.743
1179.617
1178.14
1176.387
1173.99
1169.838
1159.851
1180.876
1179.528
1178.048
1176.312
1173.978
1170.02
1160.623
1181.971
1180.688
1179.329
1177.85
1176.146
1173.929
1170.328
1161.981
1182.942
1181.699
1180.397
1179.024
1177.546
1175.885
1173.829
1170.677
1163.747
1183.828
1182.617
1181.351
1180.027
1178.637
1177.159
1175.552
1173.655
1170.977
1165.633
1184.692
1183.515
1182.282
1180.994
1179.647
1178.24
1176.77
1175.203
1173.441
1171.173
1167.274
1185.623
1184.485
1183.291
1182.041
1180.732
1179.367
1177.955
1176.487
1174.947
1173.276
1171.29
1168.397
1186.602
1185.508
1184.358
1183.151
1181.885
1180.562
1179.193
1177.776
1176.31
1174.785
1173.171
1171.361
1169.076
1187.594
1186.548
1185.445
1184.284
1183.065
1181.788
1180.464
1179.092
1177.673
1176.208
1174.694
1173.115
1171.406
1169.455
1188.577
1187.578
1186.524
1185.413
1184.243
1183.016
1181.74
1180.415
1179.042
1177.623
1176.16
1174.655
1173.096
1171.437
1169.637
1166.897
1170.859
1165.229
1173.813
1170.612
1163.333
1176.142
1173.938
1170.286
1161.642
1178.035
1176.312
1173.983
1169.998
1160.439
1179.617
1178.14
1176.387
1173.99
1169.838
1159.851
1180.973
1179.626
1178.14
1176.38
1173.98
1169.842
1159.943
1182.16
1180.883
1179.526
1178.037
1176.291
1173.955
1170.021
1160.706
1183.21
1181.978
1180.686
1179.318
1177.828
1176.117
1173.91
1170.325
1162.05
1184.149
1182.952
1181.7
1180.388
1179.005
1177.519
1175.863
1173.811
1170.672
1163.796
1185.005
1183.841
1182.622
1181.347
1180.013
1178.615
1177.141
1175.535
1173.642
1170.972
1165.665
1185.835
1184.707
1183.523
1182.283
1180.986
1179.631
1178.226
1176.758
1175.193
1173.434
1171.172
1167.299
1186.726
1185.638
1184.494
1183.293
1182.034
1180.718
1179.356
1177.944
1176.479
1174.94
1173.273
1171.297
1168.42
1187.66
1186.616
1185.517
1184.359
1183.144
1181.871
1180.551
1179.183
1177.767
1176.303
1174.781
1173.174
1171.373
1169.101
1188.605
1187.607
1186.554
1185.444
1184.276
1183.051
1181.777
1180.453
1179.082
1177.665
1176.202
1174.694
1173.123
1171.423
1169.484
1189.538
1188.589
1187.584
1186.523
1185.404
1184.228
1183.003
1181.728
1180.404
1179.032
1177.614
1176.157
1174.66
1173.109
1171.459
1168.077
1171.018
1166.988
1173.619
1170.917
1165.327
1175.891
1173.848
1170.655
1163.442
1177.843
1176.162
1173.957
1170.318
1161.758
1179.519
1178.048
1176.318
1173.988
1170.018
1160.538
1180.973
1179.626
1178.14
1176.38
1173.98
1169.842
1159.943
1182.253
1180.979
1179.623
1178.127
1176.359
1173.958
1169.846
1160.033
1183.39
1182.165
1180.88
1179.512
1178.013
1176.26
1173.936
1170.022
1160.788
1184.403
1183.217
1181.976
1180.674
1179.294
1177.797
1176.091
1173.89
1170.322
1162.117
1185.308
1184.157
1182.951
1181.69
1180.369
1178.977
1177.495
1175.84
1173.792
1170.666
1163.845
1186.132
1185.015
1183.844
1182.616
1181.332
1179.991
1178.595
1177.122
1175.518
1173.628
1170.966
1165.702
1186.929
1185.849
1184.714
1183.522
1182.273
1180.968
1179.617
1178.213
1176.746
1175.182
1173.427
1171.176
1167.329
1187.779
1186.74
1185.646
1184.494
1183.285
1182.019
1180.706
1179.344
1177.934
1176.47
1174.934
1173.274
1171.308
1168.449
1188.668
1187.673
1186.623
1185.516
1184.351
1183.129
1181.859
1180.539
1179.172
1177.758
1176.295
1174.78
1173.181
1171.39
1169.132
1189.565
1188.617
1187.613
1186.553
1185.436
1184.261
1183.038
1181.765
1180.442
1179.072
1177.656
1176.198
1174.698
1173.135
1171.445
1190.452
1189.549
1188.593
1187.582
1186.514
1185.389
1184.215
1182.991
1181.716
1180.393
1179.021
1177.609
1176.158
1174.668
1173.126
1168.764
1171.105
1168.158
1173.351
1171.081
1167.063
1175.539
1173.66
1170.959
1165.407
1177.544
1175.916
1173.869
1170.683
1163.532
1179.318
1177.857
1176.17
1173.962
1170.333
1161.841
1180.876
1179.528
1178.048
1176.312
1173.978
1170.02
1160.623
1182.253
1180.979
1179.623
1178.127
1176.359
1173.958
1169.846
1160.033
1183.479
1182.258
1180.975
1179.609
1178.102
1176.328
1173.938
1169.849
1160.121
1184.573
1183.395
1182.161
1180.866
1179.487
1177.98
1176.234
1173.915
1170.022
1160.867
1185.549
1184.408
1183.214
1181.963
1180.651
1179.263
1177.77
1176.066
1173.87
1170.319
1162.182
1186.421
1185.315
1184.156
1182.941
1181.67
1180.341
1178.953
1177.471
1175.817
1173.774
1170.66
1163.899
1187.212
1186.142
1185.018
1183.838
1182.601
1181.31
1179.971
1178.576
1177.104
1175.5
1173.613
1170.966
1165.744
1187.973
1186.942
1185.855
1184.712
1183.512
1182.256
1180.953
1179.602
1178.199
1176.733
1175.171
1173.423
1171.184
1167.365
1188.782
1187.792
1186.747
1185.645
1184.485
1183.269
1182.006
1180.693
1179.333
1177.923
1176.46
1174.93
1173.279
1171.323
1168.484
1189.626
1188.68
1187.679
1186.622
1185.507
1184.336
1183.116
1181.846
1180.528
1179.161
1177.748
1176.291
1174.783
1173.192
1171.411
1190.478
1189.576
1188.621
1187.611
1186.544
1185.42
1184.248
1183.025
1181.752
1180.431
1179.061
1177.65
1176.199
1174.706
1173.152
1191.317
1190.462
1189.553
1188.591
1187.572
1186.498
1185.375
1184.202
1182.978
1181.704
1180.381
1179.014
1177.607
1176.163
1174.681
1169.13
1171.153
1168.842
1173.151
1171.171
1168.224
1175.143
1173.401
1171.128
1167.121
1177.149
1175.571
1173.687
1170.986
1165.469
1179.012
1177.563
1175.927
1173.875
1170.694
1163.593
1180.679
1179.329
1177.86
1176.165
1173.952
1170.33
1161.912
1182.16
1180.883
1179.526
1178.037
1176.291
1173.955
1170.021
1160.706
1183.479
1182.258
1180.975
1179.609
1178.102
1176.328
1173.938
1169.849
1160.121
1184.658
1183.483
1182.254
1180.961
1179.583
1178.069
1176.3
1173.919
1169.851
1160.208
1185.712
1184.578
1183.39
1182.147
1180.841
1179.454
1177.951
1176.207
1173.895
1170.022
1160.946
1186.651
1185.554
1184.405
1183.201
1181.941
1180.62
1179.236
1177.743
1176.04
1173.85
1170.315
1162.252
1187.487
1186.427
1185.314
1184.146
1182.922
1181.643
1180.317
1178.929
1177.447
1175.795
1173.755
1170.658
1163.957
1188.243
1187.22
1186.143
1185.011
1183.822
1182.578
1181.29
1179.951
1178.556
1177.085
1175.482
1173.603
1170.97
1165.791
1188.968
1187.984
1186.946
1185.852
1184.7
1183.493
1182.24
1180.938
1179.587
1178.185
1176.719
1175.164
1173.424
1171.197
1167.407
1189.736
1188.794
1187.797
1186.745
1185.635
1184.469
1183.255
1181.992
1180.68
1179.32
1177.912
1176.454
1174.931
1173.288
1171.343
1190.536
1189.637
1188.685
1187.677
1186.612
1185.491
1184.322
1183.103
1181.834
1180.516
1179.15
1177.741
1176.291
1174.79
1173.207
1191.342
1190.488
1189.58
1188.619
1187.601
1186.528
1185.407
1184.235
1183.012
1181.74
1180.418
1179.053
1177.648
1176.204
1174.718
1192.137
1191.327
1190.465
1189.55
1188.58
1187.556
1186.484
1185.362
1184.189
1182.965
1181.691
1180.371
1179.01
1177.609
1176.172
1169.286
1171.177
1169.207
1173.028
1171.22
1168.905
1174.859
1173.206
1171.221
1168.273
1176.726
1175.185
1173.438
1171.161
1167.162
1178.618
1177.175
1175.59
1173.7
1170.997
1165.506
1180.382
1179.027
1177.569
1175.926
1173.868
1170.688
1163.645
1181.971
1180.688
1179.329
1177.85
1176.146
1173.929
1170.328
1161.981
1183.39
1182.165
1180.88
1179.512
1178.013
1176.26
1173.936
1170.022
1160.788
1184.658
1183.483
1182.254
1180.961
1179.583
1178.069
1176.3
1173.919
1169.851
1160.208
1185.793
1184.662
1183.478
1182.239
1180.935
1179.549
1178.04
1176.273
1173.899
1169.853
1160.293
1186.806
1185.716
1184.573
1183.376
1182.123
1180.808
1179.426
1177.922
1176.18
1173.875
1170.022
1161.028
1187.706
1186.655
1185.551
1184.392
1183.179
1181.911
1180.594
1179.209
1177.716
1176.015
1173.829
1170.316
1162.327
1188.506
1187.492
1186.425
1185.303
1184.126
1182.895
1181.62
1180.293
1178.904
1177.423
1175.771
1173.74
1170.662
1164.02
1189.226
1188.25
1187.221
1186.136
1184.995
1183.799
1182.559
1181.27
1179.931
1178.537
1177.065
1175.467
1173.597
1170.979
1165.843
1189.915
1188.978
1187.988
1186.942
1185.84
1184.682
1183.477
1182.224
1180.922
1179.572
1178.17
1176.709
1175.16
1173.429
1171.215
1190.642
1189.747
1188.798
1187.794
1186.734
1185.618
1184.455
1183.241
1181.978
1180.667
1179.307
1177.903
1176.452
1174.936
1173.301
1191.399
1190.546
1189.641
1188.682
1187.666
1186.596
1185.477
1184.308
1183.089
1181.821
1180.503
1179.141
1177.738
1176.294
1174.801
1192.161
1191.352
1190.491
1189.577
1188.608
1187.585
1186.514
1185.393
1184.221
1182.999
1181.726
1180.409
1179.049
1177.649
1176.212
1192.91
1192.145
1191.329
1190.461
1189.54
1188.564
1187.542
1186.47
1185.348
1184.175
1182.951
1181.68
1180.365
1179.009
1177.615
1171.187
1169.363
1172.959
1171.244
1169.269
1174.686
1173.084
1171.272
1168.951
1176.424
1174.906
1173.247
1171.257
1168.306
1178.202
1176.761
1175.214
1173.46
1171.177
1167.182
1180.003
1178.64
1177.189
1175.596
1173.698
1170.992
1165.538
1181.688
1180.395
1179.031
1177.564
1175.911
1173.847
1170.683
1163.696
1183.21
1181.978
1180.686
1179.318
1177.828
1176.117
1173.91
1170.325
1162.05
1184.573
1183.395
1182.161
1180.866
1179.487
1177.98
1176.234
1173.915
1170.022
1160.867
1185.793
1184.662
1183.478
1182.239
1180.935
1179.549
1178.04
1176.273
1173.899
1169.853
1160.293
1186.883
1185.796
1184.657
1183.464
1182.214
1180.902
1179.52
1178.01
1176.246
1173.878
1169.854
1160.382
1187.855
1186.809
1185.711
1184.559
1183.352
1182.091
1180.78
1179.397
1177.894
1176.153
1173.854
1170.025
1161.115
1188.716
1187.71
1186.651
1185.538
1184.37
1183.149
1181.885
1180.567
1179.182
1177.689
1175.988
1173.812
1170.321
1162.405
1189.478
1188.511
1187.49
1186.415
1185.284
1184.1
1182.872
1181.596
1180.269
1178.88
1177.398
1175.751
1173.729
1170.67
1164.087
1190.163
1189.233
1188.251
1187.213
1186.12
1184.973
1183.78
1182.539
1181.25
1179.911
1178.516
1177.048
1175.457
1173.595
1170.992
1190.814
1189.924
1188.981
1187.983
1186.93
1185.821
1184.666
1183.461
1182.208
1180.906
1179.556
1178.158
1176.703
1175.16
1173.438
1191.501
1190.652
1189.75
1188.795
1187.783
1186.717
1185.604
1184.44
1183.227
1181.964
1180.652
1179.297
1177.898
1176.453
1174.945
1192.216
1191.408
1190.55
1189.638
1188.671
1187.65
1186.582
1185.463
1184.294
1183.076
1181.807
1180.492
1179.136
1177.739
1176.302
1192.934
1192.169
1191.354
1190.487
1189.566
1188.592
1187.571
1186.5
1185.379
1184.207
1182.985
1181.715
1180.402
1179.048
1177.655
1193.64
1192.918
1192.147
1191.325
1190.451
1189.524
1188.551
1187.528
1186.456
1185.334
1184.16
1182.939
1181.673
1180.363
1179.012
1172.929
1171.254
1169.425
1174.591
1173.017
1171.297
1169.314
1176.241
1174.735
1173.128
1171.309
1168.981
1177.906
1176.464
1174.94
1173.275
1171.277
1168.318
1179.607
1178.232
1176.785
1175.23
1173.468
1171.176
1167.2
1181.329
1180.022
1178.65
1177.191
1175.588
1173.682
1170.987
1165.57
1182.942
1181.699
1180.397
1179.024
1177.546
1175.885
1173.829
1170.677
1163.747
1184.403
1183.217
1181.976
1180.674
1179.294
1177.797
1176.091
1173.89
1170.322
1162.117
1185.712
1184.578
1183.39
1182.147
1180.841
1179.454
1177.951
1176.207
1173.895
1170.022
1160.946
1186.883
1185.796
1184.657
1183.464
1182.214
1180.902
1179.52
1178.01
1176.246
1173.878
1169.854
1160.382
1187.929
1186.886
1185.791
1184.642
1183.439
1182.182
1180.873
1179.49
1177.981
1176.219
1173.857
1169.86
1160.474
1188.858
1187.857
1186.804
1185.697
1184.536
1183.322
1182.064
1180.752
1179.368
1177.865
1176.125
1173.836
1170.034
1161.205
1189.68
1188.719
1187.706
1186.639
1185.517
1184.342
1183.124
1181.859
1180.54
1179.155
1177.661
1175.965
1173.799
1170.332
1162.487
1190.405
1189.483
1188.508
1187.479
1186.396
1185.258
1184.077
1182.849
1181.572
1180.245
1178.854
1177.376
1175.735
1173.723
1170.683
1191.053
1190.169
1189.233
1188.243
1187.197
1186.098
1184.953
1183.76
1182.519
1181.23
1179.89
1178.497
1177.035
1175.451
1173.598
1191.667
1190.823
1189.926
1188.976
1187.971
1186.911
1185.805
1184.649
1183.445
1182.191
1180.889
1179.542
1178.149
1176.7
1175.165
1192.314
1191.51
1190.655
1189.746
1188.783
1187.766
1186.702
1185.589
1184.425
1183.212
1181.949
1180.64
1179.29
1177.897
1176.458
1192.987
1192.224
1191.411
1190.546
1189.627
1188.655
1187.636
1186.567
1185.449
1184.28
1183.061
1181.795
1180.485
1179.134
1177.743
1193.663
1192.942
1192.172
1191.35
1190.477
1189.55
1188.578
1187.557
1186.486
1185.365
1184.193
1182.973
1181.708
1180.4
1179.051
1194.326
1193.647
1192.92
1192.143
1191.315
1190.435
1189.51
1188.537
1187.514
1186.442
1185.319
1184.148
1182.931
1181.669
1180.364
1174.549
1172.986
1171.307
1169.471
1176.14
1174.64
1173.061
1171.335
1169.344
1177.726
1176.282
1174.771
1173.157
1171.331
1168.992
1179.326
1177.94
1176.492
1174.961
1173.288
1171.28
1168.33
1180.956
1179.634
1178.251
1176.796
1175.233
1173.461
1171.176
1167.217
1182.603
1181.345
1180.03
1178.649
1177.181
1175.569
1173.669
1170.982
1165.602
1184.149
1182.952
1181.7
1180.388
1179.005
1177.519
1175.863
1173.811
1170.672
1163.796
1185.549
1184.408
1183.214
1181.963
1180.651
1179.263
1177.77
1176.066
1173.87
1170.319
1162.182
1186.806
1185.716
1184.573
1183.376
1182.123
1180.808
1179.426
1177.922
1176.18
1173.875
1170.022
1161.028
1187.929
1186.886
1185.791
1184.642
1183.439
1182.182
1180.873
1179.49
1177.981
1176.219
1173.857
1169.86
1160.474
1188.929
1187.931
1186.88
1185.777
1184.618
1183.408
1182.154
1180.845
1179.461
1177.952
1176.19
1173.84
1169.87
1160.571
1189.817
1188.861
1187.852
1186.791
1185.674
1184.506
1183.296
1182.037
1180.724
1179.34
1177.835
1176.1
1173.823
1170.047
1161.299
1190.599
1189.683
1188.715
1187.694
1186.618
1185.489
1184.318
1183.099
1181.833
1180.514
1179.126
1177.635
1175.946
1173.791
1170.346
1191.286
1190.409
1189.48
1188.498
1187.461
1186.371
1185.236
1184.055
1182.826
1181.549
1180.219
1178.831
1177.357
1175.723
1173.721
1191.897
1191.058
1190.168
1189.225
1188.227
1187.176
1186.079
1184.933
1183.74
1182.499
1181.208
1179.871
1178.483
1177.026
1175.449
1192.475
1191.675
1190.824
1189.921
1188.963
1187.952
1186.895
1185.788
1184.633
1183.428
1182.174
1180.874
1179.532
1178.144
1176.701
1193.083
1192.323
1191.513
1190.65
1189.735
1188.766
1187.752
1186.687
1185.574
1184.41
1183.196
1181.936
1180.632
1179.286
1177.899
1193.714
1192.995
1192.226
1191.407
1190.535
1189.611
1188.64
1187.621
1186.553
1185.434
1184.265
1183.048
1181.787
1180.482
1179.136
1194.348
1193.67
1192.944
1192.167
1191.34
1190.461
1189.536
1188.564
1187.543
1186.472
1185.35
1184.18
1182.964
1181.703
1180.4
1194.97
1194.333
1193.649
1192.916
1192.132
1191.299
1190.421
1189.496
1188.522
1187.5
1186.427
1185.306
1184.138
1182.925
1181.668
1176.095
1174.598
1173.03
1171.345
1169.5
1177.627
1176.182
1174.676
1173.091
1171.357
1169.354
1179.154
1177.762
1176.312
1174.794
1173.173
1171.336
1169.001
1180.69
1179.355
1177.963
1176.508
1174.969
1173.286
1171.283
1168.341
1182.252
1180.979
1179.649
1178.259
1176.795
1175.222
1173.455
1171.175
1167.236
1183.828
1182.617
1181.351
1180.027
1178.637
1177.159
1175.552
1173.655
1170.977
1165.633
1185.308
1184.157
1182.951
1181.69
1180.369
1178.977
1177.495
1175.84
1173.792
1170.666
1163.845
1186.651
1185.554
1184.405
1183.201
1181.941
1180.62
1179.236
1177.743
1176.04
1173.85
1170.315
1162.252
1187.855
1186.809
1185.711
1184.559
1183.352
1182.091
1180.78
1179.397
1177.894
1176.153
1173.854
1170.025
1161.115
1188.929
1187.931
1186.88
1185.777
1184.618
1183.408
1182.154
1180.845
1179.461
1177.952
1176.19
1173.84
1169.87
1160.571
1189.886
1188.932
1187.926
1186.867
1185.754
1184.589
1183.382
1182.126
1180.816
1179.432
1177.921
1176.165
1173.827
1169.885
1160.671
1190.731
1189.819
1188.856
1187.839
1186.769
1185.646
1184.481
1183.27
1182.01
1180.696
1179.31
1177.808
1176.08
1173.815
1170.064
1191.474
1190.602
1189.679
1188.703
1187.673
1186.591
1185.466
1184.293
1183.074
1181.807
1180.486
1179.1
1177.614
1175.931
1173.787
1192.122
1191.29
1190.406
1189.47
1188.479
1187.436
1186.349
1185.214
1184.032
1182.802
1181.523
1180.196
1178.812
1177.343
1175.716
1192.697
1191.902
1191.057
1190.16
1189.209
1188.206
1187.157
1186.059
1184.914
1183.72
1182.477
1181.189
1179.856
1178.473
1177.021
1193.238
1192.482
1191.676
1190.819
1189.908
1188.945
1187.936
1186.878
1185.772
1184.616
1183.41
1182.158
1180.863
1179.525
1178.143
1193.807
1193.09
1192.325
1191.508
1190.639
1189.718
1188.752
1187.736
1186.672
1185.558
1184.393
1183.182
1181.926
1180.627
1179.286
1194.398
1193.722
1192.997
1192.222
1191.396
1190.519
1189.596
1188.626
1187.607
1186.538
1185.419
1184.251
1183.039
1181.781
1180.482
1194.991
1194.355
1193.671
1192.939
1192.156
1191.324
1190.447
1189.522
1188.55
1187.528
1186.456
1185.336
1184.17
1182.958
1181.702
1195.572
1194.976
1194.334
1193.644
1192.905
1192.117
1191.285
1190.407
1189.482
1188.508
1187.484
1186.413
1185.295
1184.132
1182.923
1177.583
1176.137
1174.635
1173.061
1171.368
1169.51
1179.06
1177.663
1176.212
1174.7
1173.107
1171.363
1169.363
1180.528
1179.185
1177.786
1176.33
1174.804
1173.173
1171.34
1169.011
1182.002
1180.716
1179.374
1177.975
1176.511
1174.963
1173.284
1171.285
1168.353
1183.497
1182.272
1180.991
1179.654
1178.254
1176.782
1175.213
1173.448
1171.174
1167.255
1185.005
1183.841
1182.622
1181.347
1180.013
1178.615
1177.141
1175.535
1173.642
1170.972
1165.665
1186.421
1185.315
1184.156
1182.941
1181.67
1180.341
1178.953
1177.471
1175.817
1173.774
1170.66
1163.899
1187.706
1186.655
1185.551
1184.392
1183.179
1181.911
1180.594
1179.209
1177.716
1176.015
1173.829
1170.316
1162.327
1188.858
1187.857
1186.804
1185.697
1184.536
1183.322
1182.064
1180.752
1179.368
1177.865
1176.125
1173.836
1170.034
1161.205
1189.886
1188.932
1187.926
1186.867
1185.754
1184.589
1183.382
1182.126
1180.816
1179.432
1177.921
1176.165
1173.827
1169.885
1160.671
1190.797
1189.888
1188.926
1187.912
1186.844
1185.725
1184.563
1183.355
1182.099
1180.788
1179.401
1177.893
1176.144
1173.819
1169.904
1191.601
1190.733
1189.814
1188.843
1187.818
1186.741
1185.622
1184.456
1183.243
1181.983
1180.667
1179.282
1177.785
1176.064
1173.811
1192.304
1191.476
1190.598
1189.667
1188.683
1187.648
1186.568
1185.442
1184.269
1183.049
1181.779
1180.46
1179.078
1177.597
1175.921
1192.915
1192.126
1191.287
1190.396
1189.452
1188.456
1187.416
1186.328
1185.192
1184.009
1182.778
1181.5
1180.177
1178.797
1177.334
1193.453
1192.702
1191.901
1191.049
1190.145
1189.188
1188.187
1187.138
1186.04
1184.894
1183.698
1182.457
1181.173
1179.844
1178.466
1193.957
1193.245
1192.483
1191.67
1190.806
1189.89
1188.929
1187.92
1186.862
1185.755
1184.597
1183.393
1182.146
1180.855
1179.522
1194.488
1193.814
1193.092
1192.32
1191.496
1190.622
1189.703
1188.737
1187.721
1186.657
1185.541
1184.379
1183.171
1181.919
1180.625
1195.04
1194.405
1193.723
1192.992
1192.211
1191.38
1190.504
1189.582
1188.611
1187.592
1186.522
1185.405
1184.241
1183.032
1181.78
1195.593
1194.998
1194.356
1193.667
1192.928
1192.141
1191.31
1190.433
1189.508
1188.535
1187.513
1186.442
1185.326
1184.163
1182.956
1196.133
1195.578
1194.977
1194.329
1193.633
1192.89
1192.103
1191.271
1190.393
1189.467
1188.492
1187.47
1186.402
1185.288
1184.129
1179.018
1177.619
1176.167
1174.659
1173.078
1171.374
1169.519
1180.438
1179.091
1177.688
1176.23
1174.711
1173.109
1171.368
1169.372
1181.849
1180.555
1179.205
1177.8
1176.335
1174.8
1173.173
1171.343
1169.02
1183.261
1182.024
1180.732
1179.383
1177.975
1176.503
1174.958
1173.282
1171.287
1168.366
1184.692
1183.515
1182.282
1180.994
1179.647
1178.24
1176.77
1175.203
1173.441
1171.173
1167.274
1186.132
1185.015
1183.844
1182.616
1181.332
1179.991
1178.595
1177.122
1175.518
1173.628
1170.966
1165.702
1187.487
1186.427
1185.314
1184.146
1182.922
1181.643
1180.317
1178.929
1177.447
1175.795
1173.755
1170.658
1163.957
1188.716
1187.71
1186.651
1185.538
1184.37
1183.149
1181.885
1180.567
1179.182
1177.689
1175.988
1173.812
1170.321
1162.405
1189.817
1188.861
1187.852
1186.791
1185.674
1184.506
1183.296
1182.037
1180.724
1179.34
1177.835
1176.1
1173.823
1170.047
1161.299
1190.797
1189.888
1188.926
1187.912
1186.844
1185.725
1184.563
1183.355
1182.099
1180.788
1179.401
1177.893
1176.144
1173.819
1169.904
1191.665
1190.799
1189.882
1188.913
1187.891
1186.817
1185.7
1184.537
1183.328
1182.071
1180.757
1179.373
1177.87
1176.127
1173.815
1192.427
1191.603
1190.728
1189.802
1188.822
1187.792
1186.718
1185.597
1184.431
1183.217
1181.954
1180.639
1179.258
1177.766
1176.052
1193.091
1192.306
1191.472
1190.586
1189.648
1188.659
1187.625
1186.545
1185.418
1184.245
1183.022
1181.754
1180.438
1179.06
1177.583
1193.664
1192.918
1192.123
1191.277
1190.378
1189.429
1188.435
1187.395
1186.306
1185.17
1183.985
1182.755
1181.481
1180.161
1178.786
1194.166
1193.457
1192.7
1191.893
1191.034
1190.124
1189.17
1188.168
1187.119
1186.021
1184.873
1183.679
1182.441
1181.161
1179.837
1194.634
1193.964
1193.245
1192.477
1191.658
1190.788
1189.874
1188.913
1187.903
1186.845
1185.736
1184.581
1183.381
1182.137
1180.85
1195.128
1194.495
1193.815
1193.087
1192.308
1191.48
1190.608
1189.688
1188.721
1187.706
1186.64
1185.526
1184.368
1183.164
1181.916
1195.64
1195.046
1194.406
1193.718
1192.981
1192.195
1191.366
1190.49
1189.567
1188.597
1187.576
1186.508
1185.394
1184.234
1183.029
1196.154
1195.599
1194.999
1194.351
1193.656
1192.913
1192.127
1191.296
1190.418
1189.494
1188.52
1187.498
1186.431
1185.318
1184.16
1196.655
1196.139
1195.579
1194.972
1194.319
1193.618
1192.876
1192.09
1191.257
1190.379
1189.452
1188.478
1187.459
1186.395
1185.284
1180.399
1179.049
1177.645
1176.186
1174.67
1173.08
1171.379
1169.528
1181.764
1180.466
1179.111
1177.702
1176.236
1174.709
1173.11
1171.372
1169.381
1183.116
1181.872
1180.572
1179.215
1177.802
1176.328
1174.797
1173.173
1171.347
1169.03
1184.468
1183.281
1182.037
1180.737
1179.38
1177.964
1176.495
1174.953
1173.279
1171.289
1168.378
1185.835
1184.707
1183.523
1182.283
1180.986
1179.631
1178.226
1176.758
1175.193
1173.434
1171.172
1167.299
1187.212
1186.142
1185.018
1183.838
1182.601
1181.31
1179.971
1178.576
1177.104
1175.5
1173.613
1170.966
1165.744
1188.506
1187.492
1186.425
1185.303
1184.126
1182.895
1181.62
1180.293
1178.904
1177.423
1175.771
1173.74
1170.662
1164.02
1189.68
1188.719
1187.706
1186.639
1185.517
1184.342
1183.124
1181.859
1180.54
1179.155
1177.661
1175.965
1173.799
1170.332
1162.487
1190.731
1189.819
1188.856
1187.839
1186.769
1185.646
1184.481
1183.27
1182.01
1180.696
1179.31
1177.808
1176.08
1173.815
1170.064
1191.665
1190.799
1189.882
1188.913
1187.891
1186.817
1185.7
1184.537
1183.328
1182.071
1180.757
1179.373
1177.87
1176.127
1173.815
1192.489
1191.666
1190.794
1189.87
1188.892
1187.864
1186.793
1185.675
1184.512
1183.302
1182.042
1180.729
1179.348
1177.85
1176.115
1193.21
1192.429
1191.598
1190.716
1189.782
1188.797
1187.769
1186.694
1185.573
1184.405
1183.189
1181.927
1180.616
1179.239
1177.751
1193.835
1193.093
1192.302
1191.461
1190.567
1189.624
1188.637
1187.603
1186.523
1185.395
1184.218
1182.997
1181.732
1180.42
1179.046
1194.371
1193.667
1192.915
1192.113
1191.259
1190.356
1189.409
1188.415
1187.374
1186.285
1185.146
1183.962
1182.735
1181.465
1180.15
1194.837
1194.17
1193.456
1192.692
1191.878
1191.014
1190.106
1189.152
1188.15
1187.1
1185.999
1184.853
1183.662
1182.429
1181.152
1195.27
1194.64
1193.964
1193.239
1192.464
1191.64
1190.772
1189.858
1188.896
1187.886
1186.826
1185.719
1184.567
1183.371
1182.131
1195.726
1195.134
1194.496
1193.81
1193.076
1192.292
1191.466
1190.593
1189.673
1188.706
1187.689
1186.625
1185.515
1184.359
1183.159
1196.2
1195.646
1195.047
1194.401
1193.707
1192.965
1192.181
1191.352
1190.476
1189.553
1188.581
1187.561
1186.496
1185.386
1184.23
1196.675
1196.16
1195.6
1194.994
1194.341
1193.641
1192.899
1192.113
1191.282
1190.404
1189.478
1188.505
1187.487
1186.423
1185.314
1197.138
1196.661
1196.14
1195.574
1194.962
1194.304
1193.605
1192.863
1192.076
1191.243
1190.363
1189.438
1188.467
1187.451
1186.39
1181.727
1180.426
1179.07
1177.659
1176.193
1174.668
1173.081
1171.384
1169.537
1183.036
1181.788
1180.483
1179.122
1177.705
1176.231
1174.706
1173.11
1171.377
1169.39
1184.33
1183.137
1181.886
1180.578
1179.214
1177.792
1176.322
1174.794
1173.173
1171.35
1169.04
1185.623
1184.485
1183.291
1182.041
1180.732
1179.367
1177.955
1176.487
1174.947
1173.276
1171.29
1168.397
1186.929
1185.849
1184.714
1183.522
1182.273
1180.968
1179.617
1178.213
1176.746
1175.182
1173.427
1171.176
1167.329
1188.243
1187.22
1186.143
1185.011
1183.822
1182.578
1181.29
1179.951
1178.556
1177.085
1175.482
1173.603
1170.97
1165.791
1189.478