/*--------------------------------*- C++ -*----------------------------------*\
| =========                 |                                                 |
| \\      /  F ield         | OpenFOAM: The Open Source CFD Toolbox           |
|  \\    /   O peration     | Version:  2306                                  |
|   \\  /    A nd           | Website:  www.openfoam.com                      |
|    \\/     M anipulation  |                                                 |
\*---------------------------------------------------------------------------*/
FoamFile
{
    version     2.0;
    format      ascii;
    arch        "LSB;label=32;scalar=64";
    class       volScalarField;
    location    "1.2/air";
    object      nernst;
}
// * * * * * * * * * * * * * * * * * * * * * * * * * * * * * * * * * * * * * //

dimensions      [1 2 -3 0 0 -1 0];

internalField   nonuniform List<scalar> 
16000
(
-0.7702848
-0.7608111
-0.7815924
-0.7606454
-0.7555009
-0.7795011
-0.7375838
-0.7847502
-0.7794924
-0.7552022
-0.7524574
-0.7776842
-0.7231339
-0.7839985
-0.7733474
-0.7229073
-0.7873416
-0.7840747
-0.777693
-0.7520111
-0.7510393
-0.7763446
-0.7144425
-0.7833217
-0.7679522
-0.7012474
-0.7870118
-0.7819054
-0.7679236
-0.7138372
-0.7896494
-0.787116
-0.7834965
-0.7763853
-0.7504022
-0.7510393
-0.7756342
-0.7103131
-0.7828033
-0.7639497
-0.6876548
-0.7867218
-0.7799265
-0.7592092
-0.687135
-0.7894677
-0.7862236
-0.7800232
-0.7638498
-0.7091168
-0.7917583
-0.7895749
-0.7869499
-0.7831084
-0.7757233
-0.7501521
-0.7862523
-0.7524574
-0.7756342
-0.7103131
-0.7825211
-0.7618204
-0.6810453
-0.7865019
-0.7783992
-0.7526675
-0.6698875
-0.7893137
-0.7854212
-0.776806
-0.7525283
-0.6795966
-0.7916332
-0.7891257
-0.7855594
-0.7786194
-0.7616066
-0.7082779
-0.7937074
-0.791735
-0.7895467
-0.7868903
-0.7829976
-0.7758073
-0.7512536
-0.7859999
-0.7887838
-0.7876597
-0.7555009
-0.7763446
-0.7144425
-0.7825211
-0.7618204
-0.6810453
-0.7863827
-0.7775645
-0.7491646
-0.66136
-0.7891998
-0.7848068
-0.7742944
-0.7439434
-0.6602231
-0.7915303
-0.7887338
-0.7842858
-0.7744093
-0.7487636
-0.6781976
-0.7936063
-0.7914495
-0.788878
-0.7851344
-0.7779527
-0.7614911
-0.7112975
-0.7955216
-0.7937003
-0.7917518
-0.7895945
-0.786978
-0.7832267
-0.7766756
-0.7538978
-0.7854835
-0.788602
-0.787381
-0.7910958
-0.7900656
-0.7891076
-0.7608111
-0.7776842
-0.7231339
-0.7828033
-0.7639497
-0.6876548
-0.7863827
-0.7775645
-0.7491646
-0.66136
-0.789139
-0.7844719
-0.7729132
-0.7393179
-0.6505538
-0.7914558
-0.7884415
-0.7832971
-0.7710907
-0.7389633
-0.6583851
-0.7935241
-0.7912079
-0.7882824
-0.7835016
-0.7731807
-0.7484356
-0.6829349
-0.7954327
-0.7934796
-0.7913461
-0.788786
-0.7850602
-0.7782036
-0.7635951
-0.7185623
-0.7972178
-0.7955191
-0.7937301
-0.7918316
-0.789741
-0.787244
-0.7838237
-0.7783137
-0.7586459
-0.7846459
-0.7882415
-0.7867928
-0.7909373
-0.789885
-0.7888078
-0.7931731
-0.7922177
-0.7913764
-0.7906003
-0.7702848
-0.7795011
-0.7375838
-0.7833217
-0.7679522
-0.7012474
-0.7865019
-0.7783992
-0.7526675
-0.6698875
-0.789139
-0.7844719
-0.7729132
-0.7393179
-0.6505538
-0.7914165
-0.7882848
-0.7827541
-0.7692554
-0.7336619
-0.6484749
-0.7934653
-0.7910328
-0.7878317
-0.7822186
-0.7693932
-0.7384535
-0.6644071
-0.7953608
-0.7932963
-0.7909957
-0.7880532
-0.7832539
-0.773424
-0.7516829
-0.6941894
-0.7971367
-0.7953287
-0.7934253
-0.7913638
-0.7889041
-0.7854197
-0.779435
-0.7678081
-0.7311278
-0.7988093
-0.7972162
-0.7955514
-0.7938161
-0.7919902
-0.7900044
-0.7877085
-0.7847937
-0.7807002
-0.7670888
-0.7831217
-0.78771
-0.7857778
-0.7906257
-0.7895295
-0.788167
-0.7930277
-0.7920674
-0.7911966
-0.7902863
-0.7950797
-0.7941493
-0.7933637
-0.792717
-0.7921392
-0.7815924
-0.7606454
-0.7839985
-0.7733474
-0.7229073
-0.7867218
-0.7799265
-0.7592092
-0.687135
-0.7891998
-0.7848068
-0.7742944
-0.7439434
-0.6602231
-0.7914165
-0.7882848
-0.7827541
-0.7692554
-0.7336619
-0.6484749
-0.7934345
-0.7909406
-0.787588
-0.7815088
-0.7672904
-0.7330472
-0.6551842
-0.7953093
-0.7931659
-0.7907384
-0.7874907
-0.78182
-0.7696139
-0.7425909
-0.6785703
-0.7970708
-0.7951717
-0.7931676
-0.7909528
-0.7881318
-0.7836766
-0.7752258
-0.7582506
-0.712963
-0.7987341
-0.7970432
-0.7952914
-0.7934755
-0.791536
-0.7892753
-0.7862547
-0.781601
-0.7738537
-0.7515044
-0.8003068
-0.7988077
-0.7972478
-0.7956358
-0.7939712
-0.7922405
-0.7904009
-0.7883926
-0.786173
-0.7839741
-0.7769031
-0.7870585
-0.7838595
-0.7901778
-0.7890187
-0.7870515
-0.7927422
-0.7917789
-0.7908439
-0.7896147
-0.7949433
-0.7940136
-0.7932201
-0.7925372
-0.7918182
-0.7968596
-0.7959322
-0.7951472
-0.7945334
-0.7940861
-0.793078
-0.7847502
-0.7794924
-0.7552022
-0.7870118
-0.7819054
-0.7679236
-0.7138372
-0.7893137
-0.7854212
-0.776806
-0.7525283
-0.6795966
-0.7914558
-0.7884415
-0.7832971
-0.7710907
-0.7389633
-0.6583851
-0.7934345
-0.7909406
-0.787588
-0.7815088
-0.7672904
-0.7330472
-0.6551842
-0.7952825
-0.7930982
-0.790602
-0.787184
-0.7810217
-0.7674934
-0.7376722
-0.670881
-0.7970237
-0.7950609
-0.7929826
-0.7906468
-0.7875301
-0.7822778
-0.7718547
-0.7509741
-0.701616
-0.7986727
-0.7969008
-0.7950737
-0.7931833
-0.7911287
-0.7885825
-0.784821
-0.7784521
-0.7675107
-0.7415063
-0.8002366
-0.7986472
-0.7970121
-0.7953489
-0.7936551
-0.7918904
-0.7899311
-0.7875742
-0.7845962
-0.7813525
-0.7705632
-0.8017191
-0.800305
-0.7988377
-0.7973282
-0.7957835
-0.7942061
-0.7925964
-0.7909561
-0.7893656
-0.7882304
-0.7871139
-0.7790382
-0.7897061
-0.7884365
-0.7850582
-0.7923344
-0.7913938
-0.7903421
-0.7884636
-0.7946752
-0.7937549
-0.7929487
-0.7921846
-0.7911358
-0.7967301
-0.7958054
-0.7950195
-0.7943943
-0.7939059
-0.792757
-0.7985293
-0.7976086
-0.796805
-0.7961662
-0.795725
-0.7949172
-0.7931978
-0.7873416
-0.7840747
-0.777693
-0.7520111
-0.7894677
-0.7862236
-0.7800232
-0.7638498
-0.7091168
-0.7915303
-0.7887338
-0.7842858
-0.7744093
-0.7487636
-0.6781976
-0.7934653
-0.7910328
-0.7878317
-0.7822186
-0.7693932
-0.7384535
-0.6644071
-0.7952825
-0.7930982
-0.790602
-0.787184
-0.7810217
-0.7674934
-0.7376722
-0.670881
-0.7969992
-0.7950038
-0.7928861
-0.7904833
-0.7871991
-0.7814942
-0.7699744
-0.7470447
-0.6961051
-0.7986288
-0.7968005
-0.7949191
-0.7929712
-0.7908201
-0.7880307
-0.783647
-0.7758949
-0.7626525
-0.7352897
-0.8001789
-0.7985149
-0.7968154
-0.7951056
-0.7933785
-0.7915616
-0.789441
-0.7866549
-0.7827926
-0.7785189
-0.7656255
-0.8016532
-0.8001548
-0.7986189
-0.7970687
-0.7955219
-0.7939855
-0.7924532
-0.790901
-0.7893933
-0.7883673
-0.7862555
-0.7738994
-0.8030535
-0.8017171
-0.8003334
-0.798914
-0.7974679
-0.796004
-0.7945332
-0.7930834
-0.7917463
-0.7909265
-0.7907299
-0.7881688
-0.7812193
-0.7919217
-0.7910835
-0.7897692
-0.786549
-0.7942918
-0.7934171
-0.7926
-0.7916809
-0.7899946
-0.7964754
-0.7955636
-0.794781
-0.7941326
-0.7935508
-0.7920779
-0.7984056
-0.7974882
-0.7966861
-0.796044
-0.7955882
-0.7947367
-0.7928769
-0.800103
-0.799192
-0.7983768
-0.7976972
-0.7972042
-0.7964515
-0.7950238
-0.793318
-0.7896494
-0.787116
-0.7834965
-0.7763853
-0.7504022
-0.7916332
-0.7891257
-0.7855594
-0.7786194
-0.7616066
-0.7082779
-0.7935241
-0.7912079
-0.7882824
-0.7835016
-0.7731807
-0.7484356
-0.6829349
-0.7953093
-0.7931659
-0.7907384
-0.7874907
-0.78182
-0.7696139
-0.7425909
-0.6785703
-0.7969992
-0.7950038
-0.7928861
-0.7904833
-0.7871991
-0.7814942
-0.7699744
-0.7470447
-0.6961051
-0.7986058
-0.7967489
-0.7948392
-0.7928599
-0.7906533
-0.787723
-0.7829824
-0.7744601
-0.7600242
-0.7322731
-0.8001374
-0.7984217
-0.7966762
-0.7949313
-0.7931744
-0.7913035
-0.7890272
-0.7858521
-0.781244
-0.7762425
-0.762319
-0.8015987
-0.8000306
-0.7984362
-0.7968496
-0.7952961
-0.7937813
-0.7922799
-0.7907162
-0.7890905
-0.7878751
-0.7851092
-0.7697264
-0.8029915
-0.801576
-0.8001283
-0.7986727
-0.7972317
-0.7958289
-0.7944894
-0.793258
-0.7922405
-0.7918025
-0.791076
-0.7874078
-0.7770652
-0.8043165
-0.8030517
-0.8017443
-0.800406
-0.7990463
-0.7976755
-0.7963087
-0.7949762
-0.7937744
-0.7930569
-0.7930692
-0.7916016
-0.7893177
-0.7834467
-0.7939013
-0.7931798
-0.7923311
-0.7910889
-0.7882254
-0.79611
-0.7952479
-0.7944854
-0.7937962
-0.793037
-0.790958
-0.798162
-0.7972582
-0.7964644
-0.7958176
-0.795329
-0.7943796
-0.7921984
-0.7999843
-0.7990768
-0.798264
-0.797584
-0.7970851
-0.7963148
-0.7948433
-0.7929973
-0.8015888
-0.8006934
-0.799873
-0.7991635
-0.7986071
-0.7978422
-0.7965454
-0.7951306
-0.7934389
-0.7917583
-0.7895749
-0.7869499
-0.7831084
-0.7757233
-0.7501521
-0.7936063
-0.7914495
-0.788878
-0.7851344
-0.7779527
-0.7614911
-0.7112975
-0.7953608
-0.7932963
-0.7909957
-0.7880532
-0.7832539
-0.773424
-0.7516829
-0.6941894
-0.7970237
-0.7950609
-0.7929826
-0.7906468
-0.7875301
-0.7822778
-0.7718547
-0.7509741
-0.701616
-0.7986058
-0.7967489
-0.7948392
-0.7928599
-0.7906533
-0.787723
-0.7829824
-0.7744601
-0.7600242
-0.7322731
-0.8001158
-0.7983738
-0.7966045
-0.7948407
-0.7930662
-0.7911611
-0.7887896
-0.7853849
-0.7803564
-0.7749898
-0.7606675
-0.8015596
-0.7999431
-0.7983071
-0.7966934
-0.795132
-0.7936242
-0.7921233
-0.7905053
-0.7887171
-0.7873032
-0.7841213
-0.7668767
-0.8029401
-0.801459
-0.7999567
-0.798469
-0.7970289
-0.7956687
-0.7944159
-0.7933046
-0.7924034
-0.7920279
-0.7910397
-0.7864546
-0.7735934
-0.804258
-0.8029187
-0.8015512
-0.8001791
-0.7988258
-0.7975176
-0.7962902
-0.7952
-0.7943688
-0.794077
-0.7937063
-0.7918243
-0.788608
-0.7801095
-0.8055133
-0.8043148
-0.8030777
-0.8018135
-0.8005317
-0.7992427
-0.7979615
-0.7967193
-0.7956025
-0.7949305
-0.7949505
-0.79383
-0.7925273
-0.7905213
-0.785705
-0.7957298
-0.7950258
-0.794298
-0.7935076
-0.7924098
-0.7892796
-0.797811
-0.7969558
-0.7961905
-0.7955385
-0.7949863
-0.7938582
-0.7910813
-0.7997503
-0.7988561
-0.7980532
-0.7973748
-0.796863
-0.7960541
-0.794486
-0.7923195
-0.8014745
-0.8005826
-0.7997649
-0.7990562
-0.7984971
-0.7977234
-0.7964087
-0.79495
-0.7931184
-0.8029946
-0.8021185
-0.8013015
-0.8005717
-0.7999669
-0.7991719
-0.7979256
-0.7966395
-0.7952378
-0.7935601
-0.7937074
-0.791735
-0.7895467
-0.7868903
-0.7829976
-0.7758073
-0.7512536
-0.7954327
-0.7934796
-0.7913461
-0.788786
-0.7850602
-0.7782036
-0.7635951
-0.7185623
-0.7970708
-0.7951717
-0.7931676
-0.7909528
-0.7881318
-0.7836766
-0.7752258
-0.7582506
-0.712963
-0.7986288
-0.7968005
-0.7949191
-0.7929712
-0.7908201
-0.7880307
-0.783647
-0.7758949
-0.7626525
-0.7352897
-0.8001158
-0.7983738
-0.7966045
-0.7948407
-0.7930662
-0.7911611
-0.7887896
-0.7853849
-0.7803564
-0.7749898
-0.7606675
-0.801539
-0.7998981
-0.7982406
-0.7966126
-0.795046
-0.7935387
-0.7920309
-0.7903701
-0.7884759
-0.7869472
-0.7835626
-0.7654412
-0.8029029
-0.8013765
-0.7998354
-0.7983239
-0.7968824
-0.7955472
-0.7943422
-0.7932853
-0.7924102
-0.792024
-0.7908837
-0.7856374
-0.7711823
-0.8042093
-0.8028084
-0.8013894
-0.7999873
-0.7986364
-0.797374
-0.7962449
-0.7953059
-0.7946567
-0.7944938
-0.7939877
-0.7917923
-0.7877984
-0.7772731
-0.8054581
-0.8041895
-0.8028957
-0.8015994
-0.8003231
-0.7990932
-0.7979448
-0.7969366
-0.7961793
-0.7959144
-0.7956122
-0.7942919
-0.7926184
-0.7898398
-0.7830612
-0.8066485
-0.8055119
-0.8043401
-0.8031441
-0.8019335
-0.8007182
-0.7995128
-0.7983459
-0.7972972
-0.7966482
-0.796632
-0.795631
-0.7946257
-0.7934763
-0.7917524
-0.7870198
-0.7974371
-0.7967319
-0.7960196
-0.7953362
-0.7946453
-0.7932089
-0.7894135
-0.7994119
-0.7985632
-0.7977904
-0.7971185
-0.7965805
-0.7957018
-0.7939638
-0.7912054
-0.801249
-0.8003699
-0.7995622
-0.7988575
-0.7982928
-0.7975004
-0.7961478
-0.7945925
-0.7924414
-0.8028843
-0.8020116
-0.8011974
-0.8004689
-0.7998628
-0.7990624
-0.7978068
-0.7965027
-0.7950573
-0.7932399
-0.8043264
-0.803473
-0.8026652
-0.8019266
-0.8012864
-0.8004711
-0.7992465
-0.7980091
-0.796734
-0.7953452
-0.7936857
-0.7955216
-0.7937003
-0.7917518
-0.7895945
-0.786978
-0.7832267
-0.7766756
-0.7538978
-0.7971367
-0.7953287
-0.7934253
-0.7913638
-0.7889041
-0.7854197
-0.779435
-0.7678081
-0.7311278
-0.7986727
-0.7969008
-0.7950737
-0.7931833
-0.7911287
-0.7885825
-0.784821
-0.7784521
-0.7675107
-0.7415063
-0.8001374
-0.7984217
-0.7966762
-0.7949313
-0.7931744
-0.7913035
-0.7890272
-0.7858521
-0.781244
-0.7762425
-0.762319
-0.801539
-0.7998981
-0.7982406
-0.7966126
-0.795046
-0.7935387
-0.7920309
-0.7903701
-0.7884759
-0.7869472
-0.7835626
-0.7654412
-0.8028834
-0.801334
-0.7997728
-0.7982489
-0.7968059
-0.7954818
-0.7942971
-0.793259
-0.7923832
-0.7919813
-0.7907676
-0.7851752
-0.7699579
-0.804174
-0.8027304
-0.8012748
-0.7998507
-0.7985
-0.7972659
-0.7961961
-0.7953405
-0.7947755
-0.7946582
-0.7940911
-0.791671
-0.787119
-0.7752774
-0.8054119
-0.8040853
-0.8027429
-0.8014181
-0.8001439
-0.7989576
-0.7979043
-0.7970475
-0.7964788
-0.7963551
-0.7959613
-0.7945207
-0.7925648
-0.7891394
-0.7808019
-0.8065964
-0.8053938
-0.8041683
-0.8029418
-0.8017356
-0.8005745
-0.7994919
-0.7985416
-0.7978254
-0.7975472
-0.7972421
-0.7961142
-0.7949174
-0.7934412
-0.7910856
-0.7846978
-0.8077262
-0.8066476
-0.8055366
-0.804404
-0.803259
-0.8021113
-0.8009744
-0.799875
-0.7988845
-0.7982559
-0.7981943
-0.7972492
-0.7963349
-0.7954319
-0.7944295
-0.7925091
-0.7871823
-0.7990432
-0.798333
-0.7976168
-0.7969378
-0.7963283
-0.7953253
-0.7933125
-0.7895481
-0.8009217
-0.800085
-0.7993065
-0.7986124
-0.7980353
-0.7972092
-0.7957945
-0.7940696
-0.7913305
-0.8026665
-0.8018059
-0.8010015
-0.8002777
-0.7996693
-0.7988576
-0.7975836
-0.7962416
-0.7946995
-0.7925639
-0.8042198
-0.8033697
-0.8025647
-0.8018275
-0.8011867
-0.8003675
-0.799137
-0.7978902
-0.7965971
-0.7951646
-0.7933658
-0.8055899
-0.8047614
-0.8039679
-0.8032283
-0.802567
-0.80174
-0.8005384
-0.7993212
-0.7980929
-0.7968285
-0.7954567
-0.7938006
-0.7972178
-0.7955191
-0.7937301
-0.7918316
-0.789741
-0.787244
-0.7838237
-0.7783137
-0.7586459
-0.7987341
-0.7970432
-0.7952914
-0.7934755
-0.791536
-0.7892753
-0.7862547
-0.781601
-0.7738537
-0.7515044
-0.8001789
-0.7985149
-0.7968154
-0.7951056
-0.7933785
-0.7915616
-0.789441
-0.7866549
-0.7827926
-0.7785189
-0.7656255
-0.8015596
-0.7999431
-0.7983071
-0.7966934
-0.795132
-0.7936242
-0.7921233
-0.7905053
-0.7887171
-0.7873032
-0.7841213
-0.7668767
-0.8028834
-0.801334
-0.7997728
-0.7982489
-0.7968059
-0.7954818
-0.7942971
-0.793259
-0.7923832
-0.7919813
-0.7907676
-0.7851752
-0.7699579
-0.8041555
-0.8026901
-0.8012158
-0.79978
-0.7984288
-0.7972081
-0.7961657
-0.7953463
-0.794814
-0.7947125
-0.7941196
-0.7915803
-0.7867369
-0.7742565
-0.8053783
-0.8040115
-0.8026345
-0.8012888
-0.8000147
-0.7988559
-0.7978614
-0.7970917
-0.7966188
-0.7965564
-0.7961323
-0.7946131
-0.7924595
-0.7885725
-0.7791976
-0.8065525
-0.8052952
-0.8040239
-0.8027702
-0.8015654
-0.8004442
-0.7994502
-0.7986414
-0.7981039
-0.7979599
-0.7975818
-0.7963971
-0.7950782
-0.7933513
-0.7904721
-0.782718
-0.8076768
-0.8065362
-0.8053746
-0.8042128
-0.8030713
-0.801973
-0.8009488
-0.8000479
-0.7993604
-0.7990656
-0.798736
-0.7976915
-0.7966501
-0.7955671
-0.7942759
-0.791845
-0.7848944
-0.8087497
-0.8077258
-0.8066718
-0.8055984
-0.8045143
-0.8034291
-0.8023553
-0.8013174
-0.8003806
-0.7997715
-0.7996726
-0.7987598
-0.7978819
-0.7970427
-0.796234
-0.7950224
-0.792609
-0.7873447
-0.8005582
-0.7998488
-0.7991251
-0.7984334
-0.7978113
-0.7969221
-0.7954144
-0.7934162
-0.7896838
-0.8023494
-0.8015283
-0.8007515
-0.8000395
-0.7994246
-0.7985928
-0.7972915
-0.7958872
-0.7941758
-0.7914562
-0.8040089
-0.8031704
-0.8023748
-0.8016426
-0.8010009
-0.8001738
-0.7989321
-0.7976668
-0.7963357
-0.7948066
-0.7926908
-0.8054866
-0.8046614
-0.8038706
-0.8031325
-0.8024709
-0.8016408
-0.8004348
-0.7992117
-0.797974
-0.7966916
-0.7952761
-0.793481
-0.8067898
-0.8059879
-0.8052124
-0.8044788
-0.8038064
-0.8029782
-0.8018013
-0.8006059
-0.7993962
-0.7981767
-0.796927
-0.7955587
-0.7938888
-0.7988093
-0.7972162
-0.7955514
-0.7938161
-0.7919902
-0.7900044
-0.7877085
-0.7847937
-0.7807002
-0.7670888
-0.8002366
-0.7986472
-0.7970121
-0.7953489
-0.7936551
-0.7918904
-0.7899311
-0.7875742
-0.7845962
-0.7813525
-0.7705632
-0.8015987
-0.8000306
-0.7984362
-0.7968496
-0.7952961
-0.7937813
-0.7922799
-0.7907162
-0.7890905
-0.7878751
-0.7851092
-0.7697264
-0.8029029
-0.8013765
-0.7998354
-0.7983239
-0.7968824
-0.7955472
-0.7943422
-0.7932853
-0.7924102
-0.792024
-0.7908837
-0.7856374
-0.7711823
-0.8041555
-0.8026901
-0.8012158
-0.79978
-0.7984288
-0.7972081
-0.7961657
-0.7953463
-0.794814
-0.7947125
-0.7941196
-0.7915803
-0.7867369
-0.7742565
-0.8053607
-0.8039734
-0.8025787
-0.801222
-0.7999474
-0.7988016
-0.7978348
-0.7971044
-0.7966722
-0.7966352
-0.7962013
-0.7946416
-0.792385
-0.7882579
-0.7783718
-0.8065205
-0.8052254
-0.8039214
-0.8026477
-0.8014425
-0.8003467
-0.7994077
-0.7986815
-0.7982375
-0.7981554
-0.7977587
-0.7965438
-0.795148
-0.7932494
-0.7900001
-0.7813082
-0.8076351
-0.806443
-0.8052381
-0.8040504
-0.8029095
-0.8018477
-0.8009047
-0.800134
-0.7996105
-0.7994389
-0.7990445
-0.7979647
-0.7968561
-0.7956532
-0.7941432
-0.7912689
-0.782944
-0.808703
-0.8076208
-0.806519
-0.8054179
-0.8043365
-0.8032965
-0.8023262
-0.80147
-0.8008089
-0.8004997
-0.8001488
-0.7991472
-0.7981693
-0.7972059
-0.796226
-0.7948087
-0.7919451
-0.7850902
-0.809722
-0.8087499
-0.8077497
-0.8067318
-0.8057047
-0.8046776
-0.8036623
-0.8026815
-0.8017944
-0.8012067
-0.801079
-0.8001949
-0.7993348
-0.7985146
-0.797743
-0.796738
-0.795103
-0.7927088
-0.7875073
-0.8019912
-0.8012873
-0.8005625
-0.7998565
-0.7992093
-0.7983376
-0.7970008
-0.7955034
-0.7935202
-0.78982
-0.8037012
-0.8028996
-0.8021299
-0.8014097
-0.8007643
-0.7999231
-0.7986665
-0.7973737
-0.7959801
-0.7942821
-0.7915865
-0.8052822
-0.804468
-0.8036863
-0.8029533
-0.8022915
-0.8014551
-0.8002411
-0.7990066
-0.7977503
-0.7964298
-0.7949179
-0.7928071
-0.8066895
-0.8058908
-0.805118
-0.804386
-0.8037135
-0.8028827
-0.8017022
-0.8005023
-0.7992867
-0.7980578
-0.7967901
-0.7953779
-0.7935695
-0.8079303
-0.8071561
-0.8064014
-0.8056788
-0.805004
-0.8041816
-0.8030343
-0.8018627
-0.8006736
-0.7994713
-0.7982645
-0.7970171
-0.7956359
-0.7939526
-0.8003068
-0.7988077
-0.7972478
-0.7956358
-0.7939712
-0.7922405
-0.7904009
-0.7883926
-0.786173
-0.7839741
-0.7769031
-0.8016532
-0.8001548
-0.7986189
-0.7970687
-0.7955219
-0.7939855
-0.7924532
-0.790901
-0.7893933
-0.7883673
-0.7862555
-0.7738994
-0.8029401
-0.801459
-0.7999567
-0.798469
-0.7970289
-0.7956687
-0.7944159
-0.7933046
-0.7924034
-0.7920279
-0.7910397
-0.7864546
-0.7735934
-0.804174
-0.8027304
-0.8012748
-0.7998507
-0.7985
-0.7972659
-0.7961961
-0.7953405
-0.7947755
-0.7946582
-0.7940911
-0.791671
-0.787119
-0.7752774
-0.8053607
-0.8039734
-0.8025787
-0.801222
-0.7999474
-0.7988016
-0.7978348
-0.7971044
-0.7966722
-0.7966352
-0.7962013
-0.7946416
-0.792385
-0.7882579
-0.7783718
-0.8065037
-0.8051893
-0.8038685
-0.8025844
-0.8013785
-0.8002947
-0.7993817
-0.7986933
-0.79829
-0.7982347
-0.7978342
-0.7966049
-0.7951709
-0.7931842
-0.7897437
-0.7805805
-0.8076047
-0.8063769
-0.8051411
-0.8039344
-0.8027926
-0.8017538
-0.8008614
-0.8001671
-0.7997305
-0.7996174
-0.7992087
-0.7981147
-0.7969702
-0.7956933
-0.7940371
-0.7908401
-0.7815548
-0.8086634
-0.8075327
-0.8063901
-0.8052643
-0.8041829
-0.8031761
-0.8022803
-0.8015434
-0.8010322
-0.8008345
-0.8004236
-0.7993931
-0.7983684
-0.797332
-0.7962368
-0.7946513
-0.7913726
-0.783169
-0.8096778
-0.8086509
-0.8076057
-0.8065615
-0.8055366
-0.804551
-0.8036311
-0.8028172
-0.8021818
-0.8018644
-0.8014974
-0.8005297
-0.7995822
-0.7986634
-0.7977684
-0.796659
-0.7948828
-0.7920449
-0.7852857
-0.8106458
-0.809723
-0.8087737
-0.8078081
-0.8068346
-0.8058619
-0.8049013
-0.8039736
-0.8031335
-0.8025682
-0.8024209
-0.8015644
-0.8007217
-0.7999069
-0.7991379
-0.7981873
-0.7968078
-0.7951833
-0.7928088
-0.7876697
-0.8033485
-0.8026553
-0.8019346
-0.801222
-0.8005512
-0.7996809
-0.7984082
-0.7970792
-0.7955924
-0.7936241
-0.7899603
-0.8049832
-0.8042035
-0.8034464
-0.8027251
-0.8020611
-0.8012137
-0.7999898
-0.7987401
-0.797456
-0.7960729
-0.7943925
-0.791706
-0.8064911
-0.8057029
-0.8049388
-0.8042118
-0.8035396
-0.8027035
-0.8015164
-0.8003084
-0.7990814
-0.7978338
-0.7965279
-0.7950195
-0.7928965
-0.8078329
-0.8070618
-0.8063097
-0.8055887
-0.804914
-0.8040894
-0.8029389
-0.8017635
-0.80057
-0.7993616
-0.7981455
-0.79688
-0.7954551
-0.7936335
-0.8090152
-0.8082694
-0.8075375
-0.8068299
-0.8061591
-0.8053488
-0.8042335
-0.8030906
-0.8019243
-0.8007414
-0.7995504
-0.7983447
-0.7970843
-0.7956908
-0.7939902
-0.7831217
-0.8017191
-0.800305
-0.7988377
-0.7973282
-0.7957835
-0.7942061
-0.7925964
-0.7909561
-0.7893656
-0.7882304
-0.7871139
-0.7790382
-0.8029915
-0.801576
-0.8001283
-0.7986727
-0.7972317
-0.7958289
-0.7944894
-0.793258
-0.7922405
-0.7918025
-0.791076
-0.7874078
-0.7770652
-0.8042093
-0.8028084
-0.8013894
-0.7999873
-0.7986364
-0.797374
-0.7962449
-0.7953059
-0.7946567
-0.7944938
-0.7939877
-0.7917923
-0.7877984
-0.7772731
-0.8053783
-0.8040115
-0.8026345
-0.8012888
-0.8000147
-0.7988559
-0.7978614
-0.7970917
-0.7966188
-0.7965564
-0.7961323
-0.7946131
-0.7924595
-0.7885725
-0.7791976
-0.8065037
-0.8051893
-0.8038685
-0.8025844
-0.8013785
-0.8002947
-0.7993817
-0.7986933
-0.79829
-0.7982347
-0.7978342
-0.7966049
-0.7951709
-0.7931842
-0.7897437
-0.7805805
-0.8075887
-0.8063427
-0.805091
-0.8038743
-0.8027317
-0.8017038
-0.8008354
-0.8001762
-0.7997778
-0.7996904
-0.7992799
-0.7981804
-0.7970197
-0.7957069
-0.793977
-0.7906107
-0.7808375
-0.8086344
-0.8074701
-0.8062983
-0.8051544
-0.8040718
-0.803086
-0.8022365
-0.8015698
-0.8011384
-0.8009944
-0.8005711
-0.7995311
-0.7984851
-0.797409
-0.7962441
-0.7945401
-0.7909481
-0.7818001
-0.8096401
-0.8085677
-0.8074839
-0.8064163
-0.805391
-0.8044359
-0.8035845
-0.80288
-0.8023816
-0.8021651
-0.8017412
-0.8007463
-0.7997597
-0.7987869
-0.7978161
-0.79663
-0.7947223
-0.791476
-0.7833931
-0.8106039
-0.8096297
-0.8086381
-0.8076477
-0.8066759
-0.8057416
-0.8048692
-0.8040956
-0.8034863
-0.8031656
-0.8027901
-0.801853
-0.8009304
-0.8000304
-0.799162
-0.7981449
-0.7967211
-0.7949566
-0.7921449
-0.7854802
-0.8115233
-0.8106475
-0.8097466
-0.8088306
-0.8079077
-0.8069863
-0.8060769
-0.8051993
-0.8044036
-0.8038619
-0.8037023
-0.8028748
-0.8020506
-0.8012437
-0.8004686
-0.7995371
-0.7982497
-0.7968774
-0.7952637
-0.7929086
-0.7878342
-0.8046362
-0.8039574
-0.8032463
-0.8025335
-0.8018487
-0.8009776
-0.7997448
-0.7984785
-0.7971577
-0.7956812
-0.7937324
-0.7900892
-0.8062002
-0.8054446
-0.8047037
-0.8039881
-0.8033148
-0.8024694
-0.8012745
-0.8000564
-0.7988139
-0.7975382
-0.7961697
-0.7944933
-0.7917983
-0.80764
-0.806879
-0.8061353
-0.8054192
-0.8047452
-0.8039159
-0.8027597
-0.8015777
-0.800376
-0.7991561
-0.7979212
-0.7966174
-0.7950962
-0.7929613
-0.8089204
-0.8081777
-0.8074484
-0.8067424
-0.8060718
-0.8052595
-0.8041412
-0.8029951
-0.8018252
-0.8006377
-0.7994406
-0.7982256
-0.796947
-0.7955097
-0.7936712
-0.8100476
-0.8093308
-0.8086232
-0.8079335
-0.8072719
-0.8064779
-0.8053969
-0.8042854
-0.8031471
-0.801986
-0.8008132
-0.7996225
-0.7984037
-0.7971309
-0.7957215
-0.7846459
-0.7870585
-0.7838595
-0.8030535
-0.8017171
-0.8003334
-0.798914
-0.7974679
-0.796004
-0.7945332
-0.7930834
-0.7917463
-0.7909265
-0.7907299
-0.7881688
-0.7812193
-0.804258
-0.8029187
-0.8015512
-0.8001791
-0.7988258
-0.7975176
-0.7962902
-0.7952
-0.7943688
-0.794077
-0.7937063
-0.7918243
-0.788608
-0.7801095
-0.8054119
-0.8040853
-0.8027429
-0.8014181
-0.8001439
-0.7989576
-0.7979043
-0.7970475
-0.7964788
-0.7963551
-0.7959613
-0.7945207
-0.7925648
-0.7891394
-0.7808019
-0.8065205
-0.8052254
-0.8039214
-0.8026477
-0.8014425
-0.8003467
-0.7994077
-0.7986815
-0.7982375
-0.7981554
-0.7977587
-0.7965438
-0.795148
-0.7932494
-0.7900001
-0.7813082
-0.8075887
-0.8063427
-0.805091
-0.8038743
-0.8027317
-0.8017038
-0.8008354
-0.8001762
-0.7997778
-0.7996904
-0.7992799
-0.7981804
-0.7970197
-0.7957069
-0.793977
-0.7906107
-0.7808375
-0.8086191
-0.8074377
-0.8062509
-0.8050974
-0.8040139
-0.8030379
-0.8022105
-0.801576
-0.8011798
-0.8010599
-0.8006355
-0.7995926
-0.7985381
-0.7974443
-0.7962463
-0.794481
-0.7907215
-0.7810932
-0.8096125
-0.8085084
-0.8073971
-0.8063123
-0.8052855
-0.8043496
-0.8035408
-0.8029007
-0.8024754
-0.8023082
-0.8018726
-0.8008693
-0.7998665
-0.7988672
-0.7978548
-0.7966188
-0.7946104
-0.7910559
-0.7820445
-0.8105681
-0.809551
-0.8085231
-0.8075105
-0.8065381
-0.8056319
-0.8048228
-0.8041501
-0.8036663
-0.8034371
-0.803007
-0.8020429
-0.8010847
-0.8001392
-0.7992127
-0.7981521
-0.7966876
-0.7947933
-0.7915795
-0.7836161
-0.8114837
-0.8105597
-0.8096191
-0.8086797
-0.8077583
-0.8068726
-0.8060452
-0.8053102
-0.8047272
-0.8044081
-0.8040297
-0.803124
-0.8022252
-0.8013417
-0.8004812
-0.7995001
-0.7982
-0.7967831
-0.7950306
-0.7922446
-0.7856743
-0.8123566
-0.8115258
-0.8106711
-0.8098023
-0.8089274
-0.8080544
-0.8071935
-0.806363
-0.8056097
-0.8050923
-0.8049265
-0.8041289
-0.8033263
-0.8025303
-0.8017545
-0.8008316
-0.7995939
-0.7983119
-0.796947
-0.7953438
-0.7930129
-0.787985
-0.805859
-0.8051977
-0.8045004
-0.8037939
-0.803103
-0.8022373
-0.801036
-0.7998086
-0.7985488
-0.7972359
-0.7957741
-0.793831
-0.7901903
-0.8073568
-0.8066266
-0.8059049
-0.8052
-0.8045255
-0.8036882
-0.8025251
-0.8013351
-0.8001231
-0.7988875
-0.7976243
-0.7962578
-0.794569
-0.7918658
-0.8087327
-0.8079997
-0.8072785
-0.8065773
-0.8059076
-0.8050912
-0.8039678
-0.8028159
-0.8016392
-0.8004435
-0.7992348
-0.7980009
-0.796684
-0.7951503
-0.7929996
-0.8099553
-0.8092415
-0.8085365
-0.8078484
-0.8071871
-0.8063912
-0.8053076
-0.8041932
-0.8030517
-0.8018868
-0.8007095
-0.7995127
-0.7982844
-0.7969934
-0.7955402
-0.8110304
-0.8103428
-0.8096607
-0.8089912
-0.8083426
-0.8075683
-0.8065228
-0.8054451
-0.8043375
-0.8032036
-0.8020517
-0.8008786
-0.7996747
-0.7984435
-0.7971553
-0.7854835
-0.78771
-0.7857778
-0.7897061
-0.7884365
-0.7850582
-0.8043165
-0.8030517
-0.8017443
-0.800406
-0.7990463
-0.7976755
-0.7963087
-0.7949762
-0.7937744
-0.7930569
-0.7930692
-0.7916016
-0.7893177
-0.7834467
-0.8054581
-0.8041895
-0.8028957
-0.8015994
-0.8003231
-0.7990932
-0.7979448
-0.7969366
-0.7961793
-0.7959144
-0.7956122
-0.7942919
-0.7926184
-0.7898398
-0.7830612
-0.8065525
-0.8052952
-0.8040239
-0.8027702
-0.8015654
-0.8004442
-0.7994502
-0.7986414
-0.7981039
-0.7979599
-0.7975818
-0.7963971
-0.7950782
-0.7933513
-0.7904721
-0.782718
-0.8076047
-0.8063769
-0.8051411
-0.8039344
-0.8027926
-0.8017538
-0.8008614
-0.8001671
-0.7997305
-0.7996174
-0.7992087
-0.7981147
-0.7969702
-0.7956933
-0.7940371
-0.7908401
-0.7815548
-0.8086191
-0.8074377
-0.8062509
-0.8050974
-0.8040139
-0.8030379
-0.8022105
-0.801576
-0.8011798
-0.8010599
-0.8006355
-0.7995926
-0.7985381
-0.7974443
-0.7962463
-0.794481
-0.7907215
-0.7810932
-0.8095979
-0.8084777
-0.8073522
-0.8062583
-0.8052304
-0.8043035
-0.8035149
-0.8029045
-0.8025116
-0.8023667
-0.8019301
-0.8009245
-0.7999158
-0.7989057
-0.797875
-0.7966143
-0.7945512
-0.7908319
-0.7813478
-0.8105418
-0.809495
-0.8084411
-0.8074122
-0.8064382
-0.8055496
-0.8047798
-0.8041663
-0.8037496
-0.8035657
-0.8031242
-0.8021516
-0.801179
-0.8002124
-0.7992561
-0.79817
-0.7966741
-0.7946805
-0.7911635
-0.7822874
-0.8114497
-0.8104855
-0.8095107
-0.8085504
-0.8076281
-0.8067685
-0.8059999
-0.8053582
-0.8048907
-0.8046548
-0.8042237
-0.8032908
-0.8023582
-0.8014341
-0.8005245
-0.7995134
-0.7982026
-0.796745
-0.7948643
-0.7916826
-0.7838364
-0.8123191
-0.8114432
-0.8105514
-0.8096606
-0.808787
-0.8079474
-0.8071631
-0.8064653
-0.8059088
-0.8055948
-0.8052186
-0.8043449
-0.8034719
-0.8026058
-0.8017542
-0.8007902
-0.7995503
-0.798255
-0.7968451
-0.7951043
-0.7923488
-0.785852
-0.8131474
-0.8123599
-0.8115495
-0.8107258
-0.8098966
-0.8090696
-0.8082546
-0.8074688
-0.8067559
-0.8062634
-0.8060964
-0.8053293
-0.8045506
-0.80377
-0.8029984
-0.8020875
-0.8008839
-0.7996505
-0.7983741
-0.7970162
-0.7954287
-0.7931081
-0.7881067
-0.8070214
-0.8063799
-0.8056996
-0.8050042
-0.8043147
-0.8034594
-0.8022911
-0.8010943
-0.7998723
-0.7986188
-0.7973182
-0.7958587
-0.7939043
-0.790266
-0.8084566
-0.8077529
-0.8070528
-0.8063624
-0.8056929
-0.8048693
-0.8037397
-0.8025809
-0.8013959
-0.8001896
-0.798965
-0.7977027
-0.7963229
-0.7946219
-0.7919065
-0.8097724
-0.809068
-0.8083708
-0.8076875
-0.8070273
-0.8062278
-0.8051394
-0.8040197
-0.8028723
-0.8017007
-0.8005149
-0.7993064
-0.7980592
-0.7967297
-0.7951802
-0.8109405
-0.8102558
-0.8095762
-0.8089083
-0.8082601
-0.8074841
-0.8064362
-0.8053558
-0.8042453
-0.8031082
-0.8019525
-0.8007748
-0.7995647
-0.798324
-0.7970176
-0.8119662
-0.8113079
-0.8106519
-0.8100044
-0.8093719
-0.8086197
-0.8076104
-0.8065678
-0.8054935
-0.8043897
-0.8032642
-0.8021116
-0.8009252
-0.7997088
-0.7984626
-0.7859999
-0.7882415
-0.7867928
-0.7901778
-0.7890187
-0.7870515
-0.7919217
-0.7910835
-0.7897692
-0.786549
-0.8055133
-0.8043148
-0.8030777
-0.8018135
-0.8005317
-0.7992427
-0.7979615
-0.7967193
-0.7956025
-0.7949305
-0.7949505
-0.79383
-0.7925273
-0.7905213
-0.785705
-0.8065964
-0.8053938
-0.8041683
-0.8029418
-0.8017356
-0.8005745
-0.7994919
-0.7985416
-0.7978254
-0.7975472
-0.7972421
-0.7961142
-0.7949174
-0.7934412
-0.7910856
-0.7846978
-0.8076351
-0.806443
-0.8052381
-0.8040504
-0.8029095
-0.8018477
-0.8009047
-0.800134
-0.7996105
-0.7994389
-0.7990445
-0.7979647
-0.7968561
-0.7956532
-0.7941432
-0.7912689
-0.782944
-0.8086344
-0.8074701
-0.8062983
-0.8051544
-0.8040718
-0.803086
-0.8022365
-0.8015698
-0.8011384
-0.8009944
-0.8005711
-0.7995311
-0.7984851
-0.797409
-0.7962441
-0.7945401
-0.7909481
-0.7818001
-0.8095979
-0.8084777
-0.8073522
-0.8062583
-0.8052304
-0.8043035
-0.8035149
-0.8029045
-0.8025116
-0.8023667
-0.8019301
-0.8009245
-0.7999158
-0.7989057
-0.797875
-0.7966143
-0.7945512
-0.7908319
-0.7813478
-0.8105279
-0.8094659
-0.8083987
-0.8073611
-0.8063859
-0.8055056
-0.8047545
-0.8041683
-0.8037814
-0.8036181
-0.8031756
-0.8022006
-0.8012231
-0.8002482
-0.7992795
-0.7981817
-0.7966687
-0.7946213
-0.7909422
-0.7816009
-0.8114246
-0.8104325
-0.8094333
-0.8084575
-0.8075336
-0.8066902
-0.805958
-0.8053712
-0.8049655
-0.804771
-0.8043288
-0.8033871
-0.8024408
-0.801498
-0.8005642
-0.7995372
-0.7982181
-0.7967294
-0.7947507
-0.7912708
-0.7825263
-0.8122868
-0.8113733
-0.8104493
-0.8095389
-0.8086644
-0.8078491