/*--------------------------------*- C++ -*----------------------------------*\
| =========                 |                                                 |
| \\      /  F ield         | OpenFOAM: The Open Source CFD Toolbox           |
|  \\    /   O peration     | Version:  2306                                  |
|   \\  /    A nd           | Website:  www.openfoam.com                      |
|    \\/     M anipulation  |                                                 |
\*---------------------------------------------------------------------------*/
FoamFile
{
    version     2.0;
    format      ascii;
    arch        "LSB;label=32;scalar=64";
    class       volScalarField;
    location    "1.2/air";
    object      O2;
}
// * * * * * * * * * * * * * * * * * * * * * * * * * * * * * * * * * * * * * //

dimensions      [0 0 0 0 0 0 0];

internalField   nonuniform List<scalar> 
16000
(
0.2298595
0.229892
0.2276467
0.229815
0.2299347
0.2277457
0.2298607
0.224773
0.2275182
0.2296882
0.2299709
0.2278791
0.2299176
0.2248878
0.2276495
0.2297528
0.2217975
0.2246233
0.2271916
0.2294327
0.2299912
0.2279952
0.2299641
0.2250453
0.227818
0.2298321
0.2219097
0.224772
0.2273631
0.2295186
0.2189234
0.2216479
0.2242511
0.2266004
0.2289885
0.2299912
0.2280603
0.2299895
0.2251862
0.2279605
0.2298957
0.2220636
0.2249671
0.2275805
0.2296255
0.21903
0.2217926
0.2244392
0.2268114
0.2290969
0.2161933
0.2187812
0.221278
0.2235933
0.2256838
0.2282765
0.1900767
0.2299709
0.2280603
0.2299895
0.2252685
0.2280388
0.2299296
0.2222007
0.2251372
0.2277636
0.2297105
0.2191762
0.2219827
0.2246826
0.2270802
0.2292357
0.2162937
0.2189186
0.2214595
0.2238164
0.2259315
0.2284093
0.2136067
0.2160589
0.2184301
0.220629
0.2226001
0.224386
0.2271924
0.1914112
0.1883555
0.1898658
0.2299347
0.2279952
0.2299641
0.2252685
0.2280388
0.2299296
0.2222798
0.2252355
0.2278655
0.2297564
0.2193062
0.2221478
0.2248915
0.2273072
0.2293497
0.2164312
0.2190987
0.2216945
0.2241057
0.2262498
0.2285865
0.2137015
0.2161882
0.2186016
0.2208411
0.2228511
0.2246693
0.2273594
0.2111503
0.21348
0.2157272
0.2178151
0.2196573
0.2212348
0.2226546
0.225592
0.1941071
0.1895466
0.1911955
0.1875741
0.1881633
0.1894449
0.229892
0.2278791
0.2299176
0.2251862
0.2279605
0.2298957
0.2222798
0.2252355
0.2278655
0.2297564
0.2193811
0.2222419
0.2250099
0.2274342
0.2294127
0.2165535
0.219255
0.2218964
0.2243539
0.2265204
0.2287378
0.2138313
0.2163576
0.2188234
0.2211165
0.2231795
0.2250371
0.2275915
0.21124
0.213602
0.2158885
0.2180147
0.2198921
0.2215092
0.2229803
0.2258329
0.2088105
0.2110303
0.2131671
0.2151465
0.2168969
0.2183354
0.2194713
0.2204356
0.2232514
0.1982631
0.1919469
0.1938743
0.1886755
0.1893508
0.1907661
0.1869194
0.1873977
0.1877797
0.1888152
0.2298595
0.2277457
0.2298607
0.2250453
0.227818
0.2298321
0.2222007
0.2251372
0.2277636
0.2297105
0.2193811
0.2222419
0.2250099
0.2274342
0.2294127
0.2166241
0.219344
0.2220108
0.2244941
0.2266723
0.2288235
0.2139468
0.2165046
0.2190138
0.2213532
0.2234625
0.2253516
0.2277949
0.211363
0.213762
0.216097
0.2182732
0.2201992
0.221872
0.2234062
0.2261653
0.2088958
0.2111459
0.2133195
0.2153341
0.2171167
0.2185876
0.2197742
0.2208358
0.2236969
0.2065747
0.2086965
0.2107339
0.2126194
0.21428
0.2156511
0.2166467
0.2172845
0.217652
0.2197495
0.2042687
0.1956303
0.1979654
0.1908941
0.1917377
0.1934165
0.1879449
0.1884958
0.1889608
0.1901261
0.1861931
0.1867554
0.1870452
0.1872055
0.1879783
0.2276467
0.229815
0.2248878
0.2276495
0.2297528
0.2220636
0.2249671
0.2275805
0.2296255
0.2193062
0.2221478
0.2248915
0.2273072
0.2293497
0.2166241
0.219344
0.2220108
0.2244941
0.2266723
0.2288235
0.2140133
0.2165883
0.2191214
0.2214871
0.2236227
0.2255288
0.2279111
0.2114723
0.2139007
0.2162758
0.2184951
0.2204646
0.2221865
0.2237711
0.226452
0.2090126
0.2112973
0.2135163
0.2155768
0.2174036
0.2189214
0.2201776
0.2213521
0.224236
0.206656
0.2088064
0.2108783
0.2127966
0.2144864
0.2158864
0.2169218
0.2176477
0.218235
0.220809
0.2044323
0.206466
0.208415
0.2102149
0.2118019
0.213105
0.2140637
0.2145756
0.2146242
0.2141341
0.2140528
0.200909
0.2036542
0.1942965
0.195368
0.1974111
0.1900105
0.1907025
0.1913257
0.1927446
0.1871551
0.1877781
0.188138
0.1883792
0.1892787
0.1853412
0.1860393
0.1864278
0.1865177
0.1864418
0.1867737
0.224773
0.2275182
0.2296882
0.2219097
0.224772
0.2273631
0.2295186
0.2191762
0.2219827
0.2246826
0.2270802
0.2292357
0.2165535
0.219255
0.2218964
0.2243539
0.2265204
0.2287378
0.2140133
0.2165883
0.2191214
0.2214871
0.2236227
0.2255288
0.2279111
0.2115353
0.2139797
0.216377
0.2186204
0.2206152
0.2223649
0.2239767
0.2266134
0.2091165
0.2114287
0.213685
0.2157851
0.217651
0.2192116
0.2205278
0.221788
0.224663
0.2067674
0.2089504
0.2110647
0.2130258
0.2147556
0.2161971
0.2172891
0.2181237
0.2189258
0.2217584
0.2045101
0.2065708
0.2085523
0.2103829
0.211997
0.213326
0.2143202
0.2149052
0.2151533
0.2152451
0.2170845
0.2023749
0.2043285
0.2061977
0.2079218
0.20944
0.2106929
0.2116086
0.2121205
0.2120805
0.2113439
0.2093721
0.211205
0.1991678
0.2003824
0.2027386
0.1931771
0.1940569
0.1948779
0.1966431
0.1890925
0.1898327
0.1903253
0.19072
0.1918688
0.1862482
0.1869987
0.1874456
0.1876042
0.1876085
0.1880636
0.1844049
0.1851962
0.1857322
0.1859374
0.185816
0.1853424
0.1865256
0.2217975
0.2246233
0.2271916
0.2294327
0.21903
0.2217926
0.2244392
0.2268114
0.2290969
0.2164312
0.2190987
0.2216945
0.2241057
0.2262498
0.2285865
0.2139468
0.2165046
0.2190138
0.2213532
0.2234625
0.2253516
0.2277949
0.2115353
0.2139797
0.216377
0.2186204
0.2206152
0.2223649
0.2239767
0.2266134
0.2091764
0.2115034
0.2137804
0.2159027
0.2177911
0.2193768
0.2207262
0.2220313
0.2248923
0.2068665
0.2090752
0.2112245
0.2132223
0.2149876
0.2164666
0.217609
0.2185299
0.2194772
0.2224067
0.2046166
0.2067081
0.2087295
0.2106001
0.2122514
0.2136175
0.2146618
0.2153387
0.2157851
0.2162788
0.2186933
0.2024494
0.2044287
0.2063286
0.2080818
0.2096252
0.2109022
0.2118497
0.2124285
0.2125657
0.2123635
0.2121551
0.2147694
0.200395
0.2022754
0.204072
0.2057274
0.2071853
0.2083885
0.20928
0.2097777
0.2097818
0.2090248
0.2069662
0.2069756
0.2089903
0.1977085
0.1986862
0.1995925
0.2016738
0.1920622
0.1929551
0.1936091
0.1941958
0.1956938
0.1880747
0.188926
0.1894826
0.1897705
0.1899289
0.1906299
0.1852642
0.1861007
0.1866872
0.1869497
0.1868968
0.1865024
0.1878133
0.1834032
0.1842675
0.1849065
0.1852724
0.185285
0.1848055
0.1851158
0.1862753
0.2189234
0.2216479
0.2242511
0.2266004
0.2289885
0.2162937
0.2189186
0.2214595
0.2238164
0.2259315
0.2284093
0.2138313
0.2163576
0.2188234
0.2211165
0.2231795
0.2250371
0.2275915
0.2114723
0.2139007
0.2162758
0.2184951
0.2204646
0.2221865
0.2237711
0.226452
0.2091764
0.2115034
0.2137804
0.2159027
0.2177911
0.2193768
0.2207262
0.2220313
0.2248923
0.2069235
0.2091462
0.2113148
0.2133333
0.215119
0.2166196
0.2177908
0.2187575
0.2197757
0.2227308
0.2047113
0.2068271
0.2088815
0.2107863
0.2124705
0.2138703
0.2149585
0.2157095
0.2162926
0.2170121
0.2196255
0.2025515
0.20456
0.2064977
0.2082884
0.2098665
0.211178
0.2121706
0.2128325
0.2131459
0.2133137
0.213728
0.2167191
0.2004666
0.2023715
0.2041973
0.2058801
0.2073618
0.2085873
0.2095086
0.2100677
0.2102365
0.2099697
0.209534
0.2102107
0.2127184
0.1984862
0.2002995
0.2020297
0.2036225
0.2050249
0.2061854
0.2070479
0.2075496
0.2075745
0.2069184
0.2049589
0.2047667
0.2051008
0.2071783
0.1963111
0.1972623
0.1979647
0.1986669
0.2005324
0.1908743
0.1918544
0.1925401
0.192986
0.1933487
0.1944094
0.1869946
0.1879178
0.1885982
0.1889678
0.1890459
0.1888079
0.1903748
0.1842201
0.1851245
0.185807
0.1862223
0.1862923
0.1858813
0.1862746
0.1875609
0.1823622
0.1832724
0.183993
0.1844727
0.1846606
0.1843454
0.1845973
0.1848874
0.1860229
0.2161933
0.2187812
0.221278
0.2235933
0.2256838
0.2282765
0.2137015
0.2161882
0.2186016
0.2208411
0.2228511
0.2246693
0.2273594
0.211363
0.213762
0.216097
0.2182732
0.2201992
0.221872
0.2234062
0.2261653
0.2091165
0.2114287
0.213685
0.2157851
0.217651
0.2192116
0.2205278
0.221788
0.224663
0.2069235
0.2091462
0.2113148
0.2133333
0.215119
0.2166196
0.2177908
0.2187575
0.2197757
0.2227308
0.2047659
0.2068948
0.2089673
0.2108915
0.2125945
0.2140139
0.2151269
0.2159177
0.2165678
0.2173873
0.2200623
0.2026422
0.2046738
0.2066426
0.2084656
0.2100743
0.2114169
0.2124493
0.2131772
0.2136122
0.2139891
0.2146827
0.2178194
0.2005646
0.2024973
0.204359
0.2060773
0.2075916
0.2088493
0.2098127
0.2104479
0.210779
0.2108494
0.2109871
0.2120654
0.2148899
0.1985551
0.2003918
0.2021498
0.2037685
0.2051934
0.206375
0.2072654
0.2078251
0.2080033
0.2078048
0.2073468
0.207755
0.2084791
0.2109221
0.1966431
0.1983944
0.2000636
0.2015989
0.2029507
0.2040706
0.2049098
0.2054053
0.2054657
0.2048769
0.2031085
0.2029174
0.2030501
0.2035555
0.2056487
0.1948793
0.1958936
0.196594
0.1971203
0.1976668
0.1991617
0.1896468
0.1906787
0.1914661
0.1919626
0.1922123
0.1921979
0.1941454
0.1858653
0.186846
0.1876088
0.188116
0.1882952
0.1880188
0.188577
0.1901177
0.1831414
0.1840873
0.1848462
0.1853686
0.1856061
0.1853486
0.1856721
0.1860448
0.1873064
0.1812946
0.1822375
0.1830114
0.1835819
0.1838956
0.1837796
0.1841518
0.1843874
0.184657
0.1857685
0.2136067
0.2160589
0.2184301
0.220629
0.2226001
0.224386
0.2271924
0.21124
0.213602
0.2158885
0.2180147
0.2198921
0.2215092
0.2229803
0.2258329
0.2090126
0.2112973
0.2135163
0.2155768
0.2174036
0.2189214
0.2201776
0.2213521
0.224236
0.2068665
0.2090752
0.2112245
0.2132223
0.2149876
0.2164666
0.217609
0.2185299
0.2194772
0.2224067
0.2047659
0.2068948
0.2089673
0.2108915
0.2125945
0.2140139
0.2151269
0.2159177
0.2165678
0.2173873
0.2200623
0.2026945
0.2047385
0.2067245
0.2085656
0.210192
0.2115525
0.2126075
0.2133704
0.2138652
0.2143351
0.2151426
0.218325
0.2006517
0.2026064
0.2044976
0.2062463
0.2077894
0.2090762
0.2100765
0.2107724
0.2112142
0.2114745
0.2118702
0.2131545
0.2161183
0.1986494
0.2005126
0.2023048
0.2039573
0.2054129
0.2066248
0.2075547
0.2081859
0.2085149
0.2086294
0.2086973
0.209471
0.2105199
0.2132199
0.1967095
0.1984832
0.2001789
0.201739
0.2031121
0.204252
0.2051175
0.2056675
0.2058729
0.2057133
0.2053488
0.2056981
0.2061743
0.2069548
0.2093629
0.1948609
0.1965547
0.1981674
0.1996499
0.200955
0.2020379
0.2028529
0.2033457
0.2034258
0.2029118
0.2012869
0.2011963
0.2013258
0.2016393
0.2022398
0.2041421
0.1934408
0.1944863
0.1952684
0.1958122
0.1962091
0.1964561
0.1988813
0.1883869
0.1894616
0.1903129
0.1909257
0.1912455
0.1911612
0.1919613
0.1938799
0.1847106
0.1857241
0.1865534
0.1871543
0.1874859
0.1873417
0.1878074
0.1883444
0.1898587
0.1820397
0.1830147
0.1838226
0.1844308
0.1847875
0.1847215
0.1851542
0.1854612
0.1858132
0.1870499
0.1802125
0.1811753
0.1819884
0.1826204
0.183035
0.1830645
0.1835981
0.1839566
0.1841756
0.1844247
0.1854579
0.2111503
0.21348
0.2157272
0.2178151
0.2196573
0.2212348
0.2226546
0.225592
0.2088958
0.2111459
0.2133195
0.2153341
0.2171167
0.2185876
0.2197742
0.2208358
0.2236969
0.2067674
0.2089504
0.2110647
0.2130258
0.2147556
0.2161971
0.2172891
0.2181237
0.2189258
0.2217584
0.2047113
0.2068271
0.2088815
0.2107863
0.2124705
0.2138703
0.2149585
0.2157095
0.2162926
0.2170121
0.2196255
0.2026945
0.2047385
0.2067245
0.2085656
0.210192
0.2115525
0.2126075
0.2133704
0.2138652
0.2143351
0.2151426
0.218325
0.2007019
0.2026684
0.2045759
0.2063417
0.2079014
0.209205
0.2102261
0.2109543
0.21145
0.2117946
0.2122961
0.213668
0.2166789
0.1987332
0.2006173
0.2024376
0.204119
0.2056018
0.2068411
0.2078056
0.2084934
0.2089253
0.2092146
0.2095176
0.2104802
0.211714
0.2145333
0.1968003
0.1985994
0.2003278
0.20192
0.2033223
0.2044908
0.2053937
0.2060111
0.2063585
0.2064915
0.2066158
0.2072947
0.208065
0.2091052
0.2117152
0.194925
0.1966402
0.1982785
0.1997845
0.2011099
0.2022117
0.2030517
0.2035964
0.2038136
0.2037053
0.2034001
0.2038053
0.2042344
0.2047866
0.2056244
0.2078188
0.1931354
0.1947756
0.196336
0.1977695
0.1990315
0.2000798
0.2008725
0.2013589
0.2014596
0.2009988
0.1995114
0.1994854
0.1997064
0.2000192
0.2004419
0.2009313
0.2038365
0.191994
0.1930689
0.1938978
0.1945371
0.1949688
0.1951076
0.1962083
0.1986006
0.1871157
0.1882109
0.1891154
0.1898039
0.1902546
0.1902713
0.1909452
0.1917233
0.1936128
0.1835402
0.1845759
0.1854459
0.1861229
0.1865604
0.1865928
0.1871454
0.1875942
0.1881099
0.1895977
0.1809267
0.1819185
0.1827623
0.1834277
0.1838802
0.1839532
0.1845393
0.1849582
0.1852485
0.1855796
0.1867368
0.1791233
0.1800983
0.1809371
0.1816155
0.1821003
0.1822474
0.1828933
0.183415
0.1837597
0.1839621
0.1841412
0.1851404
0.2088105
0.2110303
0.2131671
0.2151465
0.2168969
0.2183354
0.2194713
0.2204356
0.2232514
0.206656
0.2088064
0.2108783
0.2127966
0.2144864
0.2158864
0.2169218
0.2176477
0.218235
0.220809
0.2046166
0.2067081
0.2087295
0.2106001
0.2122514
0.2136175
0.2146618
0.2153387
0.2157851
0.2162788
0.2186933
0.2026422
0.2046738
0.2066426
0.2084656
0.2100743
0.2114169
0.2124493
0.2131772
0.2136122
0.2139891
0.2146827
0.2178194
0.2007019
0.2026684
0.2045759
0.2063417
0.2079014
0.209205
0.2102261
0.2109543
0.21145
0.2117946
0.2122961
0.213668
0.2166789
0.1987815
0.2006769
0.2025127
0.2042103
0.2057088
0.2069639
0.2079479
0.2086657
0.2091477
0.209514
0.2099131
0.2109565
0.2122716
0.2151319
0.1968811
0.1987001
0.2004554
0.2020751
0.2035032
0.2046976
0.2056332
0.206304
0.2067478
0.2070438
0.207385
0.2082334
0.209173
0.2103713
0.2130711
0.1950127
0.1967522
0.1984217
0.1999585
0.2013116
0.2024407
0.203316
0.2039247
0.2042762
0.2044436
0.2045958
0.2053037
0.205995
0.2067815
0.2078276
0.2101683
0.1931973
0.1948581
0.196443
0.1978991
0.1991804
0.2002468
0.2010633
0.201599
0.2018302
0.2017541
0.2015148
0.2019465
0.2024358
0.2029509
0.2035799
0.2043001
0.2075056
0.1914627
0.1930529
0.1945646
0.1959526
0.1971744
0.1981907
0.198962
0.1994422
0.1995565
0.1991454
0.1977661
0.1978053
0.1980822
0.198484
0.1989116
0.1992559
0.2006657
0.203533
0.1905561
0.1916407
0.1925119
0.1932094
0.1937485
0.1939497
0.1948822
0.1959602
0.1983195
0.18584
0.1869479
0.187882
0.1886336
0.1891717
0.189343
0.1900711
0.1907278
0.1914838
0.1933441
0.1823648
0.1834115
0.1843107
0.1850367
0.1855604
0.1857186
0.1864089
0.1869476
0.1873794
0.1878737
0.1892794
0.1798091
0.1808106
0.1816771
0.1823856
0.182904
0.1830898
0.1837814
0.1843556
0.1847605
0.185034
0.1852946
0.1864167
0.1780323
0.1790135
0.1798699
0.1805805
0.1811193
0.1813512
0.1820852
0.1827206
0.1832304
0.1835612
0.1837016
0.1838514
0.1848992
0.2065747
0.2086965
0.2107339
0.2126194
0.21428
0.2156511
0.2166467
0.2172845
0.217652
0.2197495
0.2045101
0.2065708
0.2085523
0.2103829
0.211997
0.213326
0.2143202
0.2149052
0.2151533
0.2152451
0.2170845
0.2025515
0.20456
0.2064977
0.2082884
0.2098665
0.211178
0.2121706
0.2128325
0.2131459
0.2133137
0.213728
0.2167191
0.2006517
0.2026064
0.2044976
0.2062463
0.2077894
0.2090762
0.2100765
0.2107724
0.2112142
0.2114745
0.2118702
0.2131545
0.2161183
0.1987815
0.2006769
0.2025127
0.2042103
0.2057088
0.2069639
0.2079479
0.2086657
0.2091477
0.209514
0.2099131
0.2109565
0.2122716
0.2151319
0.1969277
0.1987574
0.2005275
0.2021627
0.2036056
0.2048149
0.2057689
0.206468
0.2069587
0.2073264
0.2077556
0.2086765
0.2096911
0.2109608
0.2136894
0.1950906
0.1968493
0.1985445
0.2001075
0.2014852
0.2026388
0.2035451
0.2042044
0.204647
0.2049675
0.2053217
0.2061844
0.2070267
0.2079582
0.2091332
0.2115261
0.193282
0.1949662
0.1965811
0.1980665
0.1993743
0.2004666
0.2013168
0.2019134
0.2022721
0.2024571
0.2026488
0.2033605
0.2040884
0.2048096
0.2056266
0.206513
0.209854
0.1915226
0.1931327
0.1946679
0.1960775
0.1973179
0.1983513
0.1991455
0.1996727
0.1999114
0.1998667
0.199672
0.2001384
0.2006571
0.2012356
0.2018361
0.2023844
0.2040314
0.2071946
0.1898394
0.1913829
0.1928491
0.1941946
0.1953791
0.1963653
0.1971165
0.1975896
0.1977156
0.1973441
0.1960621
0.1961444
0.1964769
0.1969314
0.1974485
0.1978161
0.1990152
0.2004018
0.2032314
0.1891299
0.1902193
0.1911115
0.1918604
0.1924669
0.1927958
0.1937412
0.1946565
0.1957116
0.198038
0.184569
0.1856796
0.1866343
0.1874241
0.1880351
0.188313
0.1891556
0.1898696
0.190509
0.1912428
0.193017
0.1811901
0.1822414
0.1831578
0.1839204
0.1845019
0.1847631
0.1855452
0.1862236
0.1867482
0.1871629
0.1875855
0.1889539
0.178692
0.1796976
0.1805792
0.1813169
0.181886
0.1821523
0.1829269
0.1836081
0.1841703
0.1845612
0.1847723
0.1850033
0.1861736
0.1769434
0.1779267
0.1787943
0.1795281
0.1801058
0.1804046
0.1811968
0.1819215
0.1825465
0.1830443
0.1833189
0.1834354
0.1836315
0.1847357
0.2044323
0.206466
0.208415
0.2102149
0.2118019
0.213105
0.2140637
0.2145756
0.2146242
0.2141341
0.2140528
0.2024494
0.2044287
0.2063286
0.2080818
0.2096252
0.2109022
0.2118497
0.2124285
0.2125657
0.2123635
0.2121551
0.2147694
0.2005646
0.2024973
0.204359
0.2060773
0.2075916
0.2088493
0.2098127
0.2104479
0.210779
0.2108494
0.2109871
0.2120654
0.2148899
0.1987332
0.2006173
0.2024376
0.204119
0.2056018
0.2068411
0.2078056
0.2084934
0.2089253
0.2092146
0.2095176
0.2104802
0.211714
0.2145333
0.1969277
0.1987574
0.2005275
0.2021627
0.2036056
0.2048149
0.2057689
0.206468
0.2069587
0.2073264
0.2077556
0.2086765
0.2096911
0.2109608
0.2136894
0.1951355
0.1969045
0.1986138
0.2001916
0.2015834
0.2027512
0.203675
0.204361
0.2048478
0.2052356
0.2056716
0.2065999
0.207509
0.2085066
0.2097408
0.2121454
0.1933573
0.1950599
0.1966994
0.1982099
0.1995412
0.2006569
0.2015366
0.2021812
0.2026264
0.202956
0.2033374
0.2041918
0.2050567
0.2059061
0.2068419
0.2078279
0.2112118
0.1916045
0.1932372
0.1948012
0.1962389
0.1975046
0.1985628
0.1993891
0.1999744
0.2003346
0.2005381
0.2007513
0.2014794
0.2022166
0.2029807
0.2037444
0.2044442
0.2062459
0.2095414
0.1898974
0.1914601
0.1929489
0.1943152
0.1955175
0.1965201
0.1972931
0.1978113
0.1980563
0.1980344
0.1978811
0.1983639
0.1989178
0.1995274
0.200194
0.2007338
0.2021419
0.2037645
0.2068856
0.1882625
0.1897622
0.1911857
0.1924915
0.1936411
0.1945991
0.1953312
0.1957972
0.1959323
0.1955956
0.1943956
0.1945156
0.194882
0.1953876
0.1959568
0.1964253
0.1975939
0.1987761
0.2001395
0.2029319
0.1877221
0.188808
0.1897149
0.1904925
0.1911578
0.1915702
0.1926009
0.1935324
0.1944303
0.1954625
0.1976969
0.1833068
0.1844153
0.1853799
0.1861978
0.1868553
0.1872221
0.1881364
0.188967
0.1896669
0.190289
0.1909494
0.1926824
0.1800206
0.1810716
0.1819984
0.1827847
0.1834104
0.1837439
0.1845989
0.1853705
0.1860368
0.1865472
0.1868989
0.187291
0.1887066
0.177579
0.1785848
0.1794754
0.1802339
0.1808392
0.1811691
0.1819975
0.1827627
0.1834333
0.1839835
0.184318
0.184505
0.1847821
0.1860087
0.1758594
0.1768416
0.1777158
0.1784659
0.1790731
0.1794223
0.1802574
0.1810412
0.1817565
0.1823709
0.1828171
0.1830715
0.1832334
0.1834826
0.1846523
0.2042687
0.2023749
0.2043285
0.2061977
0.2079218
0.20944
0.2106929
0.2116086
0.2121205
0.2120805
0.2113439
0.2093721
0.211205
0.2004666
0.2023715
0.2041973
0.2058801
0.2073618
0.2085873
0.2095086
0.2100677
0.2102365
0.2099697
0.209534
0.2102107
0.2127184
0.1986494
0.2005126
0.2023048
0.2039573
0.2054129
0.2066248
0.2075547
0.2081859
0.2085149
0.2086294
0.2086973
0.209471
0.2105199
0.2132199
0.1968811
0.1987001
0.2004554
0.2020751
0.2035032
0.2046976
0.2056332
0.206304
0.2067478
0.2070438
0.207385
0.2082334
0.209173
0.2103713
0.2130711
0.1951355
0.1969045
0.1986138
0.2001916
0.2015834
0.2027512
0.203675
0.204361
0.2048478
0.2052356
0.2056716
0.2065999
0.207509
0.2085066
0.2097408
0.2121454
0.1934007
0.1951132
0.1967663
0.1982909
0.1996356
0.2007648
0.2016612
0.2023312
0.2028182
0.2032112
0.2036692
0.204584
0.2055094
0.2064172
0.2074083
0.20844
0.2118312
0.1916774
0.1933277
0.1949154
0.1963772
0.1976653
0.1987458
0.1996003
0.2002314
0.2006739
0.2010146
0.2014069
0.2022678
0.2031307
0.2040101
0.2048776
0.2056708
0.2075624
0.2108988
0.1899768
0.1915612
0.1930777
0.1944711
0.1956976
0.1967238
0.1975276
0.1981014
0.1984625
0.1986772
0.1989115
0.19964
0.2003967
0.2011744
0.201986
0.2026556
0.204204
0.2059801
0.2092303
0.1883187
0.1898369
0.1912823
0.1926082
0.1937747
0.1947485
0.1955015
0.1960107
0.1962599
0.1962578
0.196136
0.1966337
0.197204
0.1978487
0.1985473
0.1991652
0.2005102
0.201901
0.2034992
0.2065788
0.1867291
0.1881876
0.1895711
0.1908398
0.1919566
0.1928882
0.1936021
0.1940607
0.1942035
0.1938967
0.1927696
0.1929169
0.1933119
0.193847
0.1944654
0.1949941
0.1962177
0.197373
0.1985384
0.1998787
0.2025718
0.1863348
0.1874138
0.1883259
0.1891249
0.1898251
0.1903093
0.1913867
0.1924057
0.1933232
0.1942038
0.1951606
0.197348
0.1820568
0.1831593
0.1841281
0.1849626
0.1856555
0.1860827
0.187055
0.1879588
0.1887773
0.1894629
0.190021
0.1906495
0.1924281
0.1788591
0.1799066
0.1808383
0.1816408
0.1822971
0.1826875
0.1835878
0.1844334
0.1851945
0.1858485
0.1863021
0.1866291
0.1870673
0.1885389
0.1764728
0.1774757
0.178371
0.1791438
0.179776
0.1801535
0.1810214
0.1818414
0.1825972
0.1832572
0.1837555
0.1840697
0.1843021
0.1846324
0.1859247
0.1747824
0.1757612
0.1766384
0.1773999
0.178029
0.178418
0.1792815
0.1801089
0.1808842
0.1815901
0.1821566
0.1825851
0.1828838
0.1830968
0.1834067
0.1982631
0.200909
0.2036542
0.200395
0.2022754
0.204072
0.2057274
0.2071853
0.2083885
0.20928
0.2097777
0.2097818
0.2090248
0.2069662
0.2069756
0.2089903
0.1985551
0.2003918
0.2021498
0.2037685
0.2051934
0.206375
0.2072654
0.2078251
0.2080033
0.2078048
0.2073468
0.207755
0.2084791
0.2109221
0.1968003
0.1985994
0.2003278
0.20192
0.2033223
0.2044908
0.2053937
0.2060111
0.2063585
0.2064915
0.2066158
0.2072947
0.208065
0.2091052
0.2117152
0.1950906
0.1968493
0.1985445
0.2001075
0.2014852
0.2026388
0.2035451
0.2042044
0.204647
0.2049675
0.2053217
0.2061844
0.2070267
0.2079582
0.2091332
0.2115261
0.1934007
0.1951132
0.1967663
0.1982909
0.1996356
0.2007648
0.2016612
0.2023312
0.2028182
0.2032112
0.2036692
0.204584
0.2055094
0.2064172
0.2074083
0.20844
0.2118312
0.1917194
0.1933792
0.1949799
0.1964552
0.1977562
0.1988496
0.19972
0.2003753
0.2008576
0.2012584
0.2017228
0.2026399
0.203558
0.20449
0.2054058
0.2062427
0.2081753
0.211518
0.1900474
0.1916488
0.1931881
0.1946045
0.1958525
0.1969002
0.1977309
0.1983485
0.1987881
0.1991335
0.1995375
0.2003905
0.2012636
0.2021461
0.2030503
0.2038003
0.2054326
0.2072979
0.2105869
0.1883957
0.1899349
0.191407
0.1927588
0.1939487
0.1949451
0.1957276
0.19629
0.1966505
0.1968746
0.1971221
0.1978519
0.1986113
0.1994104
0.2002387
0.2009704
0.2024344
0.203965
0.2057156
0.2089209
0.1867837
0.1882601
0.1896648
0.1909527
0.1920859
0.1930325
0.1937665
0.1942666
0.1945189
0.1945331
0.1944384
0.1949433
0.1955278
0.1961882
0.1969214
0.1975798
0.1989565
0.2002881
0.2016618
0.2032357
0.2062099
0.1852366
0.1866564
0.1880023
0.1892361
0.1903222
0.1912288
0.1919255
0.1923768
0.1925256
0.1922453
0.1911826
0.1913524
0.1917661
0.1923252
0.1929709
0.1935549
0.1947988
0.1960114
0.1971536
0.1983023
0.1995651
0.2022034
0.1849699
0.1860389
0.1869519
0.1877621
0.1884887
0.189019
0.1901357
0.1912029
0.1922101
0.1931136
0.1939291
0.1948519
0.1970827
0.1808212
0.181915
0.1828836
0.1837284
0.1844443
0.184919
0.1859239
0.1868869
0.1877801
0.1885864
0.1892145
0.1897471
0.1904217
0.1922557
0.177708
0.1787494
0.1796822
0.180495
0.1811735
0.1816059
0.1825387
0.1834305
0.1842667
0.185017
0.185619
0.1860518
0.1864245
0.1869159
0.1884534
0.175375
0.1763731
0.1772697
0.178052
0.1787041
0.1791189
0.1800123
0.1808724
0.1816839
0.1824303
0.1830422
0.1835228
0.1838813
0.1841649
0.1845561
0.1737137
0.1746875
0.1755651
0.176334
0.1769795
0.1773998
0.178283
0.1791396
0.1799592
0.180726
0.181387
0.1819378
0.1824093
0.182757
0.1830273
0.1941071
0.1956303
0.1979654
0.1991678
0.2003824
0.2027386
0.1984862
0.2002995
0.2020297
0.2036225
0.2050249
0.2061854
0.2070479
0.2075496
0.2075745
0.2069184
0.2049589
0.2047667
0.2051008
0.2071783
0.1967095
0.1984832
0.2001789
0.201739
0.2031121
0.204252
0.2051175
0.2056675
0.2058729
0.2057133
0.2053488
0.2056981
0.2061743
0.2069548
0.2093629
0.1950127
0.1967522
0.1984217
0.1999585
0.2013116
0.2024407
0.203316
0.2039247
0.2042762
0.2044436
0.2045958
0.2053037
0.205995
0.2067815
0.2078276
0.2101683
0.1933573
0.1950599
0.1966994
0.1982099
0.1995412
0.2006569
0.2015366
0.2021812
0.2026264
0.202956
0.2033374
0.2041918
0.2050567
0.2059061
0.2068419
0.2078279
0.2112118
0.1917194
0.1933792
0.1949799
0.1964552
0.1977562
0.1988496
0.19972
0.2003753
0.2008576
0.2012584
0.2017228
0.2026399
0.203558
0.20449
0.2054058
0.2062427
0.2081753
0.211518
0.1900881
0.1916986
0.1932504
0.1946799
0.1959402
0.1970002
0.1978461
0.1984868
0.1989644
0.1993669
0.1998392
0.2007447
0.2016689
0.2025991
0.2035463
0.2043341
0.2060055
0.2079114
0.2112058
0.1884642
0.1900197
0.1915137
0.1928878
0.1940983
0.1951153
0.1959235
0.196528
0.1969635
0.1973123
0.1977212
0.1985684
0.1994364
0.200332
0.2012434
0.2020458
0.2035812
0.2051954
0.2070344
0.2102763
0.1868584
0.188355
0.1897855
0.1910985
0.1922541
0.1932225
0.1939848
0.1945361
0.1948951
0.195126
0.1953843
0.196109
0.1968711
0.1976743
0.1985253
0.1992839
0.2007641
0.2022144
0.2037273
0.2054525
0.2085482
0.1852896
0.1867268
0.1880931
0.1893455
0.1904473
0.1913685
0.1920845
0.1925757
0.1928298
0.192858
0.1927859
0.1932954
0.1938861
0.1945595
0.1953074
0.1960064
0.1973835
0.1987493
0.2000675
0.2014241
0.2029188
0.2058325
0.1837827
0.1851659
0.1864766
0.1876774
0.1887346
0.1896178
0.1902981
0.1907422
0.1908959
0.1906389
0.1896341
0.1898217
0.1902497
0.190823
0.1914902
0.1921062
0.1933701
0.1946048
0.1958065
0.1969355
0.1980182
0.1992444
0.2019234
0.1836281
0.1846853
0.1855955
0.1864118
0.1871541
0.1877206
0.1888541
0.1899619
0.1910188
0.1920142
0.1928595
0.1936485
0.1946175
0.1969028
0.1796012
0.1806845
0.1816499
0.1824998
0.1832318
0.1837403
0.1847676
0.1857641
0.1867177
0.1876003
0.188354
0.1889608
0.1895393
0.1902674
0.1921676
0.1765685
0.1776021
0.1785331
0.179352
0.1800463
0.1805112
0.1814636
0.1823887
0.183272
0.1840986
0.1848006
0.1853845
0.1858619
0.186286
0.1868387
0.174287
0.1752787
0.1761743
0.1769624
0.177629
0.178073
0.1789835
0.1798699
0.1807223
0.1815252
0.1822266
0.1828227
0.1833463
0.183754
0.1840951
0.1726544
0.1736219
0.174498
0.1752714
0.1759289
0.1763742
0.1772702
0.1781469
0.1789964
0.1798082
0.1805328
0.1811797
0.1817721
0.1822905
0.1826925
0.1914112
0.1919469
0.1938743
0.1942965
0.195368
0.1974111
0.1977085
0.1986862
0.1995925
0.2016738
0.1966431
0.1983944
0.2000636
0.2015989
0.2029507
0.2040706
0.2049098
0.2054053
0.2054657
0.2048769
0.2031085
0.2029174
0.2030501
0.2035555
0.2056487
0.194925
0.1966402
0.1982785
0.1997845
0.2011099
0.2022117
0.2030517
0.2035964
0.2038136
0.2037053
0.2034001
0.2038053
0.2042344
0.2047866
0.2056244
0.2078188
0.193282
0.1949662
0.1965811
0.1980665
0.1993743
0.2004666
0.2013168
0.2019134
0.2022721
0.2024571
0.2026488
0.2033605
0.2040884
0.2048096
0.2056266
0.206513
0.209854
0.1916774
0.1933277
0.1949154
0.1963772
0.1976653
0.1987458
0.1996003
0.2002314
0.2006739
0.2010146
0.2014069
0.2022678
0.2031307
0.2040101
0.2048776
0.2056708
0.2075624
0.2108988
0.1900881
0.1916986
0.1932504
0.1946799
0.1959402
0.1970002
0.1978461
0.1984868
0.1989644
0.1993669
0.1998392
0.2007447
0.2016689
0.2025991
0.2035463
0.2043341
0.2060055
0.2079114
0.2112058
0.1885036
0.190068
0.1915741
0.1929606
0.194183
0.1952118
0.1960345
0.1966612
0.197133
0.1975363
0.19801
0.1989065
0.1998222
0.2007617
0.2017117
0.2025473
0.2041161
0.2057692
0.2076484
0.2108946
0.1869248
0.1884373
0.1898889
0.1912233
0.1923988
0.1933869
0.194174
0.1947656
0.1951965
0.1955467
0.195959
0.1967948
0.1976588
0.1985515
0.1994782
0.2002992
0.2018416
0.203363
0.2049591
0.2067719
0.2099017
0.1853622
0.1868189
0.1882102
0.1894867
0.1906102
0.1915523
0.1922955
0.192836
0.1931926
0.1934288
0.1936949
0.1944134
0.1951715
0.1959779
0.1968336
0.1976225
0.1990899
0.2005589
0.2019956
0.2034908
0.2051356
0.208167
0.1838343
0.1852343
0.1865647
0.1877835
0.1888559
0.1897531
0.190452
0.1909345
0.1911897
0.1912297
0.1911771
0.1916884
0.1922823
0.1929605
0.19372
0.1944386
0.1958208
0.1971886
0.1985434
0.1998485
0.2011384
0.2025949
0.2055457
0.182365
0.183714
0.1849913
0.1861612
0.1871911
0.1880522
0.188717
0.1891538
0.1893116
0.1890754
0.1881227
0.1883249
0.1887629
0.1893461
0.190025
0.1906662
0.1919307
0.1931866
0.194412
0.1956029
0.1966733
0.197728
0.199001
0.2017335
0.1823098
0.1833539
0.184259
0.185077
0.1858293
0.18642
0.1875634
0.188689
0.1897877
0.1908344
0.1917768
0.1926
0.1934355
0.1944587
0.1968109
0.1783977
0.1794694
0.1804292
0.1812808
0.1820231
0.1825573
0.1835956
0.1846153
0.1856034
0.1865475
0.1873814
0.1881166
0.1887683
0.1893987
0.1901888
0.1754416
0.1764662
0.1773934
0.178215
0.1789204
0.1794104
0.1803749
0.1813202
0.1822375
0.1831122
0.1838937
0.1845797
0.1852068
0.1857336
0.1862155
0.1732097
0.1741938
0.1750867
0.1758778
0.1765548
0.177022
0.1779431
0.178847
0.1797263
0.1805709
0.1813315
0.1820187
0.1826564
0.1832271
0.1836892
0.1716052
0.1725655
0.1734386
0.1742142
0.1748805
0.1753457
0.1762495
0.1771395
0.1780097
0.178852
0.179624
0.1803357
0.1810227
0.1816601
0.1822301
0.1900767
0.1895466
0.1911955
0.1908941
0.1917377
0.1934165
0.1931771
0.1940569
0.1948779
0.1966431
0.1963111
0.1972623
0.1979647
0.1986669
0.2005324
0.1948609
0.1965547
0.1981674
0.1996499
0.200955
0.2020379
0.2028529
0.2033457
0.2034258
0.2029118
0.2012869
0.2011963
0.2013258
0.2016393
0.2022398
0.2041421
0.1931973
0.1948581
0.196443
0.1978991
0.1991804
0.2002468
0.2010633
0.201599
0.2018302
0.2017541
0.2015148
0.2019465
0.2024358
0.2029509
0.2035799
0.2043001
0.2075056
0.1916045
0.1932372
0.1948012
0.1962389
0.1975046
0.1985628
0.1993891
0.1999744
0.2003346
0.2005381
0.2007513
0.2014794
0.2022166
0.2029807
0.2037444
0.2044442
0.2062459
0.2095414
0.1900474
0.1916488
0.1931881
0.1946045
0.1958525
0.1969002
0.1977309
0.1983485
0.1987881
0.1991335
0.1995375
0.2003905
0.2012636
0.2021461
0.2030503
0.2038003
0.2054326
0.2072979
0.2105869
0.1885036
0.190068
0.1915741
0.1929606
0.194183
0.1952118
0.1960345
0.1966612
0.197133
0.1975363
0.19801
0.1989065
0.1998222
0.2007617
0.2017117
0.2025473
0.2041161
0.2057692
0.2076484
0.2108946
0.1869631
0.1884841
0.1899474
0.1912938
0.1924806
0.1934802
0.1942812
0.194894
0.1953598
0.195762
0.196236
0.1971185
0.1980271
0.1989604
0.1999224
0.2007727
0.202344
0.2038988
0.2055337
0.2073863
0.2105192
0.1854268
0.1868988
0.1883106
0.1896077
0.1907503
0.1917114
0.1924783