/*--------------------------------*- C++ -*----------------------------------*\
| =========                 |                                                 |
| \\      /  F ield         | OpenFOAM: The Open Source CFD Toolbox           |
|  \\    /   O peration     | Version:  2306                                  |
|   \\  /    A nd           | Website:  www.openfoam.com                      |
|    \\/     M anipulation  |                                                 |
\*---------------------------------------------------------------------------*/
FoamFile
{
    version     2.0;
    format      ascii;
    arch        "LSB;label=32;scalar=64";
    class       volScalarField;
    location    "1.2/air";
    object      T;
}
// * * * * * * * * * * * * * * * * * * * * * * * * * * * * * * * * * * * * * //

dimensions      [0 0 0 1 0 0 0];

internalField   nonuniform List<scalar> 
16000
(
1242.962
1229.126
1259.065
1228.871
1221.365
1256.035
1195.094
1263.143
1255.982
1220.886
1216.916
1253.41
1173.868
1262.07
1247.045
1173.508
1266.367
1262.133
1253.3
1216.171
1214.842
1251.478
1161.078
1261.113
1239.2
1141.592
1265.908
1259.001
1239.078
1160.114
1269.188
1266.012
1261.224
1251.288
1213.74
1214.842
1250.453
1154.995
1260.383
1233.379
1121.503
1265.515
1256.154
1226.383
1120.691
1268.944
1264.74
1256.199
1233.03
1153.087
1271.737
1269.054
1265.702
1260.539
1250.158
1213.251
1258.52
1216.916
1250.453
1154.995
1259.987
1230.281
1111.717
1265.22
1253.959
1216.845
1095.128
1268.748
1263.608
1251.555
1216.522
1109.461
1271.574
1268.426
1263.713
1254.042
1229.597
1151.737
1274.073
1271.678
1268.947
1265.495
1260.197
1250.047
1214.677
1258.437
1261.818
1260.514
1221.365
1251.478
1161.078
1259.987
1230.281
1111.717
1265.061
1252.76
1211.734
1082.46
1268.606
1262.744
1247.931
1203.987
1080.707
1271.451
1267.89
1261.903
1247.958
1210.865
1107.284
1273.944
1271.288
1268.007
1262.98
1252.895
1229.205
1156.015
1276.229
1274.038
1271.639
1268.901
1265.443
1260.28
1251
1218.268
1258.254
1261.81
1260.393
1264.997
1263.632
1262.521
1229.126
1253.41
1173.868
1260.383
1233.379
1121.503
1265.061
1252.76
1211.734
1082.46
1268.532
1262.274
1245.938
1197.226
1066.317
1271.366
1267.494
1260.501
1243.162
1196.549
1077.877
1273.85
1270.969
1267.183
1260.655
1245.999
1210.174
1114.146
1276.118
1273.741
1271.081
1267.764
1262.697
1253.016
1231.977
1166.46
1278.23
1276.202
1274.021
1271.645
1268.942
1265.584
1260.823
1252.981
1224.799
1257.896
1261.797
1260.103
1265.005
1263.625
1262.368
1267.859
1266.582
1265.447
1264.547
1242.962
1256.035
1195.094
1261.113
1239.2
1141.592
1265.22
1253.959
1216.845
1095.128
1268.532
1262.274
1245.938
1197.226
1066.317
1271.322
1267.283
1259.731
1240.51
1188.795
1063.128
1273.786
1270.742
1266.563
1258.831
1240.526
1195.6
1086.687
1276.037
1273.506
1270.611
1266.747
1260.126
1246.118
1214.641
1130.568
1278.129
1275.948
1273.608
1271.001
1267.767
1262.978
1254.492
1237.741
1184.567
1280.093
1278.206
1276.192
1274.041
1271.711
1269.089
1265.943
1261.828
1255.942
1236.498
1256.891
1261.797
1259.477
1265.028
1263.618
1261.999
1267.871
1266.601
1265.441
1264.373
1270.457
1269.235
1268.163
1267.261
1266.595
1259.065
1228.871
1262.07
1247.045
1173.508
1265.515
1256.154
1226.383
1120.691
1268.606
1262.744
1247.931
1203.987
1080.707
1271.322
1267.283
1259.731
1240.51
1188.795
1063.128
1273.754
1270.624
1266.229
1257.823
1237.486
1187.697
1072.985
1275.984
1273.343
1270.271
1265.97
1258.088
1240.619
1201.391
1107.496
1278.057
1275.75
1273.272
1270.45
1266.698
1260.505
1248.435
1223.879
1157.947
1280
1277.976
1275.842
1273.58
1271.09
1268.075
1263.881
1257.251
1246.08
1213.923
1281.832
1280.069
1278.196
1276.213
1274.108
1271.849
1269.364
1266.546
1263.332
1260.044
1249.746
1261.932
1257.84
1265.096
1263.639
1261.211
1267.902
1266.656
1265.435
1263.955
1270.469
1269.261
1268.192
1267.255
1266.41
1272.842
1271.656
1270.607
1269.74
1269.077
1267.691
1263.143
1255.982
1220.886
1265.908
1259.001
1239.078
1160.114
1268.748
1263.608
1251.555
1216.522
1109.461
1271.366
1267.494
1260.501
1243.162
1196.549
1077.877
1273.754
1270.624
1266.229
1257.823
1237.486
1187.697
1072.985
1275.957
1273.26
1270.092
1265.548
1256.954
1237.557
1194.216
1096.116
1278.009
1275.615
1273.035
1270.045
1265.87
1258.523
1243.586
1213.317
1141.289
1279.933
1277.798
1275.563
1273.2
1270.55
1267.127
1261.865
1252.756
1236.959
1199.453
1281.746
1279.857
1277.881
1275.83
1273.687
1271.383
1268.73
1265.419
1261.14
1256.441
1241.076
1283.46
1281.809
1280.059
1278.215
1276.276
1274.234
1272.078
1269.798
1267.483
1265.696
1263.694
1252.31
1265.419
1263.824
1259.398
1267.983
1266.808
1265.455
1263.099
1270.501
1269.329
1268.269
1267.246
1265.974
1272.854
1271.682
1270.644
1269.775
1269.07
1267.506
1275.048
1273.893
1272.851
1271.972
1271.311
1270.037
1267.809
1266.367
1262.133
1253.3
1216.171
1268.944
1264.74
1256.199
1233.03
1153.087
1271.451
1267.89
1261.903
1247.958
1210.865
1107.284
1273.786
1270.742
1266.563
1258.831
1240.526
1195.6
1086.687
1275.957
1273.26
1270.092
1265.548
1256.954
1237.557
1194.216
1096.116
1277.985
1275.546
1272.914
1269.83
1265.415
1257.413
1240.88
1207.61
1133.19
1279.889
1277.677
1275.37
1272.93
1270.146
1266.375
1260.217
1249.107
1229.971
1190.451
1281.684
1279.693
1277.631
1275.519
1273.335
1270.962
1268.083
1264.165
1258.636
1252.511
1234.17
1283.379
1281.611
1279.768
1277.871
1275.933
1273.955
1271.917
1269.777
1267.616
1266.09
1262.983
1245.505
1284.985
1283.437
1281.799
1280.076
1278.273
1276.39
1274.434
1272.43
1270.493
1269.158
1268.473
1264.755
1255.055
1268.329
1267.317
1265.596
1261.348
1270.581
1269.504
1268.46
1267.251
1265.123
1272.883
1271.75
1270.738
1269.863
1269.056
1267.073
1275.059
1273.917
1272.888
1272.017
1271.349
1270.03
1267.624
1277.098
1275.975
1274.939
1274.039
1273.331
1272.137
1270.141
1267.928
1269.188
1266.012
1261.224
1251.288
1213.74
1271.574
1268.426
1263.713
1254.042
1229.597
1151.737
1273.85
1270.969
1267.183
1260.655
1245.999
1210.174
1114.146
1275.984
1273.343
1270.271
1265.97
1258.088
1240.619
1201.391
1107.496
1277.985
1275.546
1272.914
1269.83
1265.415
1257.413
1240.88
1207.61
1133.19
1279.867
1277.616
1275.271
1272.79
1269.929
1265.957
1259.285
1247.059
1226.187
1186.081
1281.643
1279.582
1277.459
1275.302
1273.081
1270.635
1267.539
1263.068
1256.479
1249.333
1229.514
1283.321
1281.458
1279.537
1277.594
1275.652
1273.712
1271.727
1269.587
1267.288
1265.557
1261.617
1239.787
1284.91
1283.252
1281.527
1279.757
1277.965
1276.175
1274.415
1272.74
1271.299
1270.613
1269.477
1264.281
1249.727
1286.416
1284.962
1283.426
1281.813
1280.128
1278.375
1276.567
1274.737
1273.001
1271.834
1271.466
1269.3
1266.052
1257.938
1270.907
1270.06
1268.977
1267.32
1263.551
1272.958
1271.92
1270.963
1270.061
1269.038
1266.25
1275.086
1273.981
1272.982
1272.127
1271.439
1270.013
1267.193
1277.108
1275.998
1274.974
1274.084
1273.379
1272.176
1270.133
1267.743
1279.009
1277.921
1276.898
1275.98
1275.22
1274.044
1272.227
1270.244
1268.047
1271.737
1269.054
1265.702
1260.539
1250.158
1213.251
1273.944
1271.288
1268.007
1262.98
1252.895
1229.205
1156.015
1276.037
1273.506
1270.611
1266.747
1260.126
1246.118
1214.641
1130.568
1278.009
1275.615
1273.035
1270.045
1265.87
1258.523
1243.586
1213.317
1141.289
1279.867
1277.616
1275.271
1272.79
1269.929
1265.957
1259.285
1247.059
1226.187
1186.081
1281.623
1279.526
1277.372
1275.191
1272.948
1270.456
1267.225
1262.428
1255.239
1247.578
1227.181
1283.283
1281.354
1279.379
1277.402
1275.455
1273.53
1271.553
1269.346
1266.834
1264.855
1260.362
1235.834
1284.855
1283.108
1281.311
1279.501
1277.716
1275.994
1274.368
1272.881
1271.64
1271.111
1269.707
1263.254
1245.081
1286.346
1284.789
1283.171
1281.514
1279.842
1278.184
1276.584
1275.116
1273.948
1273.488
1272.863
1270.214
1265.687
1253.812
1287.76
1286.394
1284.952
1283.439
1281.86
1280.221
1278.535
1276.837
1275.233
1274.143
1273.821
1272.158
1270.298
1267.489
1260.918
1273.255
1272.448
1271.541
1270.507
1269.03
1264.799
1275.153
1274.139
1273.202
1272.364
1271.62
1269.983
1266.372
1277.133
1276.056
1275.063
1274.194
1273.494
1272.265
1270.116
1267.312
1279.019
1277.942
1276.93
1276.022
1275.269
1274.094
1272.265
1270.237
1267.863
1280.797
1279.746
1278.741
1277.815
1277.013
1275.839
1274.121
1272.316
1270.348
1268.166
1274.073
1271.678
1268.947
1265.495
1260.197
1250.047
1214.677
1276.118
1273.741
1271.081
1267.764
1262.697
1253.016
1231.977
1166.46
1278.057
1275.75
1273.272
1270.45
1266.698
1260.505
1248.435
1223.879
1157.947
1279.889
1277.677
1275.37
1272.93
1270.146
1266.375
1260.217
1249.107
1229.971
1190.451
1281.623
1279.526
1277.372
1275.191
1272.948
1270.456
1267.225
1262.428
1255.239
1247.578
1227.181
1283.264
1281.302
1279.299
1277.305
1275.353
1273.433
1271.45
1269.187
1266.532
1264.403
1259.636
1233.833
1284.819
1283.011
1281.163
1279.325
1277.543
1275.862
1274.312
1272.916
1271.735
1271.226
1269.65
1262.275
1241.797
1286.295
1284.654
1282.968
1281.274
1279.611
1278.026
1276.575
1275.34
1274.466
1274.255
1273.536
1270.503
1264.908
1250.123
1287.694
1286.232
1284.712
1283.157
1281.59
1280.041
1278.553
1277.204
1276.15
1275.736
1275.229
1273.384
1271.053
1267.175
1257.804
1289.024
1287.74
1286.384
1284.963
1283.481
1281.945
1280.367
1278.779
1277.278
1276.237
1275.887
1274.419
1272.989
1271.388
1269.011
1262.527
1275.422
1274.622
1273.757
1272.882
1271.966
1269.935
1264.935
1277.194
1276.201
1275.268
1274.428
1273.72
1272.431
1270.085
1266.496
1279.042
1277.997
1277.013
1276.127
1275.385
1274.207
1272.354
1270.219
1267.433
1280.806
1279.766
1278.771
1277.855
1277.06
1275.89
1274.171
1272.355
1270.341
1267.982
1282.473
1281.461
1280.479
1279.556
1278.726
1277.555
1275.906
1274.198
1272.405
1270.452
1268.279
1276.229
1274.038
1271.639
1268.901
1265.443
1260.28
1251
1218.268
1278.129
1275.948
1273.608
1271.001
1267.767
1262.978
1254.492
1237.741
1184.567
1279.933
1277.798
1275.563
1273.2
1270.55
1267.127
1261.865
1252.756
1236.959
1199.453
1281.643
1279.582
1277.459
1275.302
1273.081
1270.635
1267.539
1263.068
1256.479
1249.333
1229.514
1283.264
1281.302
1279.299
1277.305
1275.353
1273.433
1271.45
1269.187
1266.532
1264.403
1259.636
1233.833
1284.801
1282.962
1281.088
1279.235
1277.454
1275.793
1274.276
1272.913
1271.741
1271.226
1269.564
1261.701
1240.117
1286.261
1284.563
1282.829
1281.109
1279.451
1277.912
1276.554
1275.451
1274.718
1274.608
1273.846
1270.523
1264.151
1247.466
1287.647
1286.105
1284.521
1282.932
1281.373
1279.892
1278.549
1277.433
1276.68
1276.53
1275.986
1274.032
1271.349
1266.58
1254.972
1288.962
1287.587
1286.159
1284.698
1283.226
1281.772
1280.377
1279.113
1278.121
1277.699
1277.198
1275.646
1273.998
1271.97
1268.721
1259.879
1290.213
1289.005
1287.73
1286.394
1285.001
1283.559
1282.078
1280.589
1279.177
1278.176
1277.786
1276.412
1275.134
1273.89
1272.527
1269.842
1262.7
1277.437
1276.639
1275.779
1274.932
1274.142
1272.72
1270.033
1265.072
1279.098
1278.129
1277.201
1276.347
1275.611
1274.42
1272.518
1270.187
1266.62
1280.827
1279.816
1278.848
1277.952
1277.171
1276.005
1274.284
1272.443
1270.323
1267.554
1282.481
1281.479
1280.508
1279.593
1278.77
1277.604
1275.957
1274.248
1272.444
1270.444
1268.095
1284.045
1283.074
1282.121
1281.208
1280.364
1279.204
1277.614
1275.973
1274.275
1272.494
1270.549
1268.366
1278.23
1276.202
1274.021
1271.645
1268.942
1265.584
1260.823
1252.981
1224.799
1280
1277.976
1275.842
1273.58
1271.09
1268.075
1263.881
1257.251
1246.08
1213.923
1281.684
1279.693
1277.631
1275.519
1273.335
1270.962
1268.083
1264.165
1258.636
1252.511
1234.17
1283.283
1281.354
1279.379
1277.402
1275.455
1273.53
1271.553
1269.346
1266.834
1264.855
1260.362
1235.834
1284.801
1282.962
1281.088
1279.235
1277.454
1275.793
1274.276
1272.913
1271.741
1271.226
1269.564
1261.701
1240.117
1286.244
1284.517
1282.759
1281.025
1279.37
1277.852
1276.538
1275.493
1274.818
1274.745
1273.965
1270.484
1263.703
1246.091
1287.615
1286.019
1284.391
1282.776
1281.223
1279.786
1278.535
1277.555
1276.96
1276.931
1276.386
1274.351
1271.413
1266.003
1252.896
1288.917
1287.468
1285.979
1284.485
1283.021
1281.63
1280.37
1279.323
1278.618
1278.445
1277.93
1276.356
1274.583
1272.236
1268.265
1257.458
1290.155
1288.861
1287.518
1286.144
1284.761
1283.393
1282.08
1280.888
1279.942
1279.502
1278.979
1277.554
1276.146
1274.681
1272.939
1269.557
1260.103
1291.33
1290.195
1288.995
1287.739
1286.43
1285.074
1283.682
1282.282
1280.952
1279.989
1279.564
1278.251
1277.039
1275.907
1274.826
1273.142
1269.932
1262.875
1279.318
1278.526
1277.667
1276.815
1276.031
1274.786
1272.801
1270.131
1265.21
1280.879
1279.938
1279.021
1278.156
1277.385
1276.22
1274.495
1272.605
1270.289
1266.745
1282.5
1281.526
1280.579
1279.683
1278.874
1277.714
1276.072
1274.361
1272.531
1270.426
1267.668
1284.053
1283.091
1282.148
1281.243
1280.406
1279.249
1277.662
1276.023
1274.325
1272.533
1270.542
1268.183
1285.524
1284.594
1283.673
1282.777
1281.931
1280.788
1279.255
1277.672
1276.04
1274.352
1272.578
1270.624
1268.436
1280.093
1278.206
1276.192
1274.041
1271.711
1269.089
1265.943
1261.828
1255.942
1236.498
1281.746
1279.857
1277.881
1275.83
1273.687
1271.383
1268.73
1265.419
1261.14
1256.441
1241.076
1283.321
1281.458
1279.537
1277.594
1275.652
1273.712
1271.727
1269.587
1267.288
1265.557
1261.617
1239.787
1284.819
1283.011
1281.163
1279.325
1277.543
1275.862
1274.312
1272.916
1271.735
1271.226
1269.65
1262.275
1241.797
1286.244
1284.517
1282.759
1281.025
1279.37
1277.852
1276.538
1275.493
1274.818
1274.745
1273.965
1270.484
1263.703
1246.091
1287.599
1285.976
1284.325
1282.697
1281.146
1279.731
1278.523
1277.606
1277.08
1277.101
1276.559
1274.479
1271.406
1265.66
1251.812
1288.888
1287.387
1285.857
1284.339
1282.879
1281.529
1280.354
1279.438
1278.885
1278.833
1278.332
1276.744
1274.889
1272.32
1267.836
1255.669
1290.112
1288.75
1287.35
1285.944
1284.567
1283.257
1282.068
1281.076
1280.394
1280.185
1279.655
1278.236
1276.778
1275.18
1273.156
1269.161
1257.725
1291.276
1290.06
1288.796
1287.504
1286.202
1284.915
1283.678
1282.55
1281.645
1281.191
1280.646
1279.292
1277.983
1276.707
1275.412
1273.469
1269.647
1260.325
1292.381
1291.314
1290.186
1289.004
1287.772
1286.497
1285.188
1283.87
1282.616
1281.691
1281.242
1279.98
1278.807
1277.715
1276.708
1275.329
1273.209
1270.022
1263.05
1281.08
1280.3
1279.445
1278.585
1277.78
1276.59
1274.856
1272.882
1270.229
1265.349
1282.549
1281.638
1280.738
1279.871
1279.074
1277.919
1276.285
1274.57
1272.692
1270.391
1266.864
1284.072
1283.135
1282.214
1281.327
1280.502
1279.353
1277.772
1276.138
1274.438
1272.62
1270.523
1267.757
1285.531
1284.61
1283.698
1282.81
1281.97
1280.831
1279.301
1277.721
1276.09
1274.401
1272.616
1270.616
1268.253
1286.915
1286.028
1285.14
1284.267
1283.427
1282.309
1280.834
1279.307
1277.731
1276.106
1274.424
1272.641
1270.683
1268.489
1281.832
1280.069
1278.196
1276.213
1274.108
1271.849
1269.364
1266.546
1263.332
1260.044
1249.746
1283.379
1281.611
1279.768
1277.871
1275.933
1273.955
1271.917
1269.777
1267.616
1266.09
1262.983
1245.505
1284.855
1283.108
1281.311
1279.501
1277.716
1275.994
1274.368
1272.881
1271.64
1271.111
1269.707
1263.254
1245.081
1286.261
1284.563
1282.829
1281.109
1279.451
1277.912
1276.554
1275.451
1274.718
1274.608
1273.846
1270.523
1264.151
1247.466
1287.599
1285.976
1284.325
1282.697
1281.146
1279.731
1278.523
1277.606
1277.08
1277.101
1276.559
1274.479
1271.406
1265.66
1251.812
1288.873
1287.347
1285.794
1284.264
1282.806
1281.476
1280.343
1279.486
1279.002
1279.002
1278.511
1276.915
1275.017
1272.333
1267.582
1254.729
1290.085
1288.674
1287.234
1285.806
1284.432
1283.16
1282.05
1281.179
1280.639
1280.544
1280.032
1278.62
1277.137
1275.456
1273.243
1268.797
1255.967
1291.236
1289.955
1288.638
1287.316
1286.019
1284.785
1283.662
1282.718
1282.055
1281.813
1281.264
1279.922
1278.589
1277.244
1275.813
1273.655
1269.258
1257.991
1292.33
1291.187
1289.999
1288.783
1287.558
1286.346
1285.18
1284.113
1283.247
1282.786
1282.226
1280.926
1279.671
1278.467
1277.31
1275.813
1273.527
1269.738
1260.548
1293.368
1292.366
1291.305
1290.194
1289.035
1287.835
1286.603
1285.362
1284.179
1283.293
1282.831
1281.618
1280.478
1279.406
1278.415
1277.137
1275.383
1273.275
1270.113
1263.225
1282.733
1281.97
1281.126
1280.265
1279.44
1278.27
1276.65
1274.925
1272.962
1270.327
1265.481
1284.116
1283.24
1282.362
1281.501
1280.689
1279.545
1277.976
1276.351
1274.645
1272.779
1270.487
1266.956
1285.548
1284.652
1283.76
1282.888
1282.06
1280.928
1279.404
1277.831
1276.205
1274.514
1272.703
1270.598
1267.828
1286.921
1286.043
1285.164
1284.298
1283.464
1282.349
1280.876
1279.352
1277.779
1276.157
1274.473
1272.679
1270.675
1268.306
1288.224
1287.38
1286.529
1285.682
1284.857
1283.768
1282.35
1280.88
1279.358
1277.789
1276.169
1274.477
1272.69
1270.726
1268.523
1256.891
1283.46
1281.809
1280.059
1278.215
1276.276
1274.234
1272.078
1269.798
1267.483
1265.696
1263.694
1252.31
1284.91
1283.252
1281.527
1279.757
1277.965
1276.175
1274.415
1272.74
1271.299
1270.613
1269.477
1264.281
1249.727
1286.295
1284.654
1282.968
1281.274
1279.611
1278.026
1276.575
1275.34
1274.466
1274.255
1273.536
1270.503
1264.908
1250.123
1287.615
1286.019
1284.391
1282.776
1281.223
1279.786
1278.535
1277.555
1276.96
1276.931
1276.386
1274.351
1271.413
1266.003
1252.896
1288.873
1287.347
1285.794
1284.264
1282.806
1281.476
1280.343
1279.486
1279.002
1279.002
1278.511
1276.915
1275.017
1272.333
1267.582
1254.729
1290.071
1288.636
1287.176
1285.736
1284.363
1283.11
1282.038
1281.222
1280.746
1280.702
1280.202
1278.794
1277.299
1275.578
1273.268
1268.584
1255.042
1291.21
1289.884
1288.53
1287.186
1285.892
1284.692
1283.642
1282.809
1282.278
1282.142
1281.611
1280.282
1278.943
1277.563
1276.05
1273.739
1268.901
1256.263
1292.293
1291.089
1289.851
1288.606
1287.386
1286.222
1285.161
1284.264
1283.62
1283.354
1282.791
1281.503
1280.232
1278.983
1277.744
1276.161
1273.709
1269.354
1258.256
1293.32
1292.247
1291.13
1289.987
1288.834
1287.693
1286.593
1285.584
1284.757
1284.296
1283.73
1282.479
1281.265
1280.098
1278.987
1277.643
1275.857
1273.584
1269.829
1260.77
1294.295
1293.354
1292.358
1291.313
1290.223
1289.094
1287.934
1286.766
1285.649
1284.803
1284.336
1283.172
1282.066
1281.013
1280.025
1278.789
1277.183
1275.437
1273.342
1270.204
1263.39
1284.287
1283.545
1282.719
1281.864
1281.028
1279.873
1278.323
1276.71
1274.993
1273.043
1270.42
1265.586
1285.59
1284.749
1283.898
1283.051
1282.234
1281.108
1279.596
1278.033
1276.416
1274.72
1272.86
1270.56
1267.032
1286.938
1286.082
1285.222
1284.372
1283.549
1282.441
1280.974
1279.456
1277.889
1276.271
1274.586
1272.766
1270.656
1267.882
1288.231
1287.395
1286.551
1285.712
1284.891
1283.806
1282.39
1280.922
1279.404
1277.837
1276.219
1274.527
1272.728
1270.718
1268.341
1289.458
1288.656
1287.842
1287.026
1286.22
1285.165
1283.805
1282.391
1280.925
1279.41
1277.844
1276.214
1274.518
1272.723
1270.752
1257.896
1261.932
1257.84
1284.985
1283.437
1281.799
1280.076
1278.273
1276.39
1274.434
1272.43
1270.493
1269.158
1268.473
1264.755
1255.055
1286.346
1284.789
1283.171
1281.514
1279.842
1278.184
1276.584
1275.116
1273.948
1273.488
1272.863
1270.214
1265.687
1253.812
1287.647
1286.105
1284.521
1282.932
1281.373
1279.892
1278.549
1277.433
1276.68
1276.53
1275.986
1274.032
1271.349
1266.58
1254.972
1288.888
1287.387
1285.857
1284.339
1282.879
1281.529
1280.354
1279.438
1278.885
1278.833
1278.332
1276.744
1274.889
1272.32
1267.836
1255.669
1290.071
1288.636
1287.176
1285.736
1284.363
1283.11
1282.038
1281.222
1280.746
1280.702
1280.202
1278.794
1277.299
1275.578
1273.268
1268.584
1255.042
1291.197
1289.848
1288.475
1287.12
1285.827
1284.644
1283.629
1282.848
1282.375
1282.286
1281.769
1280.446
1279.106
1277.71
1276.159
1273.766
1268.692
1255.353
1292.268
1291.022
1289.749
1288.484
1287.266
1286.134
1285.14
1284.345
1283.823
1283.655
1283.11
1281.835
1280.563
1279.297
1278.016
1276.376
1273.792
1269.005
1256.557
1293.285
1292.155
1290.991
1289.821
1288.672
1287.576
1286.573
1285.721
1285.099
1284.817
1284.249
1283.008
1281.78
1280.578
1279.409
1278.023
1276.199
1273.764
1269.451
1258.519
1294.25
1293.243
1292.195
1291.12
1290.035
1288.96
1287.924
1286.97
1286.183
1285.727
1285.163
1283.961
1282.786
1281.648
1280.558
1279.275
1277.679
1275.901
1273.642
1269.92
1260.977
1295.163
1294.282
1293.348
1292.366
1291.341
1290.279
1289.188
1288.087
1287.033
1286.228
1285.764
1284.649
1283.579
1282.549
1281.567
1280.357
1278.83
1277.23
1275.492
1273.409
1270.289
1263.524
1285.749
1285.033
1284.228
1283.387
1282.549
1281.414
1279.92
1278.375
1276.769
1275.062
1273.118
1270.489
1265.673
1286.978
1286.173
1285.352
1284.525
1283.713
1282.61
1281.153
1279.646
1278.09
1276.481
1274.789
1272.921
1270.617
1267.089
1288.247
1287.431
1286.607
1285.782
1284.972
1283.892
1282.482
1281.019
1279.507
1277.947
1276.333
1274.639
1272.814
1270.698
1267.917
1289.464
1288.67
1287.864
1287.054
1286.253
1285.201
1283.843
1282.431
1280.968
1279.455
1277.892
1276.265
1274.567
1272.761
1270.744
1290.62
1289.861
1289.086
1288.302
1287.519
1286.501
1285.198
1283.842
1282.432
1280.971
1279.458
1277.883
1276.247
1274.544
1272.742
1258.254
1261.797
1259.477
1265.419
1263.824
1259.398
1286.416
1284.962
1283.426
1281.813
1280.128
1278.375
1276.567
1274.737
1273.001
1271.834
1271.466
1269.3
1266.052
1257.938
1287.694
1286.232
1284.712
1283.157
1281.59
1280.041
1278.553
1277.204
1276.15
1275.736
1275.229
1273.384
1271.053
1267.175
1257.804
1288.917
1287.468
1285.979
1284.485
1283.021
1281.63
1280.37
1279.323
1278.618
1278.445
1277.93
1276.356
1274.583
1272.236
1268.265
1257.458
1290.085
1288.674
1287.234
1285.806
1284.432
1283.16
1282.05
1281.179
1280.639
1280.544
1280.032
1278.62
1277.137
1275.456
1273.243
1268.797
1255.967
1291.197
1289.848
1288.475
1287.12
1285.827
1284.644
1283.629
1282.848
1282.375
1282.286
1281.769
1280.446
1279.106
1277.71
1276.159
1273.766
1268.692
1255.353
1292.256
1290.988
1289.697
1288.422
1287.204
1286.088
1285.127
1284.379
1283.912
1283.788
1283.255
1281.987
1280.717
1279.444
1278.145
1276.476
1273.82
1268.8
1255.663
1293.262
1292.092
1290.896
1289.707
1288.559
1287.492
1286.552
1285.794
1285.285
1285.094
1284.543
1283.313
1282.087
1280.873
1279.677
1278.268
1276.411
1273.846
1269.108
1256.85
1294.217
1293.157
1292.064
1290.964
1289.883
1288.85
1287.904
1287.096
1286.499
1286.209
1285.643
1284.447
1283.26
1282.091
1280.954
1279.647
1278.053
1276.237
1273.818
1269.548
1258.765
1295.121
1294.179
1293.195
1292.185
1291.166
1290.154
1289.178
1288.277
1287.53
1287.085
1286.529
1285.375
1284.241
1283.132
1282.06
1280.813
1279.307
1277.715
1275.945
1273.7
1270.006
1261.15
1295.976
1295.152
1294.277
1293.355
1292.393
1291.394
1290.367
1289.331
1288.337
1287.573
1287.118
1286.051
1285.02
1284.017
1283.047
1281.863
1280.393
1278.87
1277.276
1275.547
1273.472
1270.353
1263.64
1287.126
1286.438
1285.659
1284.837
1284.006
1282.896
1281.455
1279.966
1278.427
1276.828
1275.126
1273.174
1270.542
1265.742
1288.284
1287.518
1286.728
1285.925
1285.126
1284.051
1282.65
1281.198
1279.696
1278.147
1276.541
1274.841
1272.967
1270.657
1267.128
1289.479
1288.705
1287.917
1287.121
1286.329
1285.283
1283.929
1282.523
1281.065
1279.558
1278.001
1276.379
1274.678
1272.846
1270.723
1290.626
1289.874
1289.106
1288.328
1287.551
1286.535
1285.234
1283.88
1282.472
1281.013
1279.503
1277.931
1276.298
1274.593
1272.779
1291.714
1290.998
1290.261
1289.512
1288.756
1287.777
1286.531
1285.232
1283.878
1282.473
1281.013
1279.491
1277.91
1276.267
1274.556
1258.437
1261.797
1260.103
1265.096
1263.639
1261.211
1268.329
1267.317
1265.596
1261.348
1287.76
1286.394
1284.952
1283.439
1281.86
1280.221
1278.535
1276.837
1275.233
1274.143
1273.821
1272.158
1270.298
1267.489
1260.918
1288.962
1287.587
1286.159
1284.698
1283.226
1281.772
1280.377
1279.113
1278.121
1277.699
1277.198
1275.646
1273.998
1271.97
1268.721
1259.879
1290.112
1288.75
1287.35
1285.944
1284.567
1283.257
1282.068
1281.076
1280.394
1280.185
1279.655
1278.236
1276.778
1275.18
1273.156
1269.161
1257.725
1291.21
1289.884
1288.53
1287.186
1285.892
1284.692
1283.642
1282.809
1282.278
1282.142
1281.611
1280.282
1278.943
1277.563
1276.05
1273.739
1268.901
1256.263
1292.256
1290.988
1289.697
1288.422
1287.204
1286.088
1285.127
1284.379
1283.912
1283.788
1283.255
1281.987
1280.717
1279.444
1278.145
1276.476
1273.82
1268.8
1255.663
1293.251
1292.061
1290.848
1289.648
1288.502
1287.449
1286.539
1285.825
1285.366
1285.217
1284.678
1283.454
1282.23
1281.013
1279.806
1278.386
1276.511
1273.874
1268.908
1255.971
1294.195
1293.099
1291.975
1290.857
1289.778
1288.772
1287.884
1287.163
1286.67
1286.465
1285.915
1284.73
1283.543
1282.365
1281.207
1279.89
1278.295
1276.447
1273.9
1269.212
1257.123
1295.091
1294.098
1293.073
1292.04
1291.024
1290.052
1289.16
1288.395
1287.824
1287.533
1286.974
1285.825
1284.678
1283.542
1282.429
1281.164
1279.673
1278.084
1276.276
1273.873
1269.639
1258.973
1295.937
1295.056
1294.134
1293.187
1292.229
1291.279
1290.36
1289.511
1288.803
1288.372
1287.829
1286.725
1285.632
1284.556
1283.505
1282.289
1280.84
1279.338
1277.752
1275.989
1273.755
1270.069
1261.303
1296.735
1295.967
1295.148
1294.285
1293.381
1292.443
1291.478
1290.503
1289.566
1288.843
1288.401
1287.383
1286.393
1285.42
1284.469
1283.314
1281.895
1280.429
1278.911
1277.323
1275.598
1273.516
1270.399
1263.735
1288.423
1287.766
1287.016
1286.217
1285.401
1284.32
1282.933
1281.497
1280.012
1278.479
1276.884
1275.171
1273.213
1270.578
1265.791
1289.514
1288.787
1288.032
1287.256
1286.475
1285.433
1284.087
1282.69
1281.242
1279.747
1278.2
1276.585
1274.878
1272.997
1270.679
1290.64
1289.908
1289.156
1288.392
1287.623
1286.613
1285.316
1283.966
1282.563
1281.11
1279.606
1278.04
1276.411
1274.703
1272.863
1291.72
1291.01
1290.281
1289.537
1288.786
1287.809
1286.565
1285.268
1283.916
1282.513
1281.056
1279.537
1277.958
1276.317
1274.604
1292.744
1292.07
1291.373
1290.659
1289.934
1288.994
1287.805
1286.562
1285.265
1283.915
1282.511
1281.043
1279.514
1277.925
1276.274
1258.52
1261.81
1260.393
1265.028
1263.618
1261.999
1267.983
1266.808
1265.455
1263.099
1270.907
1270.06
1268.977
1267.32
1263.551
1289.024
1287.74
1286.384
1284.963
1283.481
1281.945
1280.367
1278.779
1277.278
1276.237
1275.887
1274.419
1272.989
1271.388
1269.011
1262.527
1290.155
1288.861
1287.518
1286.144
1284.761
1283.393
1282.08
1280.888
1279.942
1279.502
1278.979
1277.554
1276.146
1274.681
1272.939
1269.557
1260.103
1291.236
1289.955
1288.638
1287.316
1286.019
1284.785
1283.662
1282.718
1282.055
1281.813
1281.264
1279.922
1278.589
1277.244
1275.813
1273.655
1269.258
1257.991
1292.268
1291.022
1289.749
1288.484
1287.266
1286.134
1285.14
1284.345
1283.823
1283.655
1283.11
1281.835
1280.563
1279.297
1278.016
1276.376
1273.792
1269.005
1256.557
1293.251
1292.061
1290.848
1289.648
1288.502
1287.449
1286.539
1285.825
1285.366
1285.217
1284.678
1283.454
1282.23
1281.013
1279.806
1278.386
1276.511
1273.874
1268.908
1255.971
1294.185
1293.069
1291.93
1290.803
1289.724
1288.732
1287.871
1287.192
1286.745
1286.579
1286.04
1284.86
1283.676
1282.496
1281.331
1280.008
1278.412
1276.545
1273.928
1269.015
1256.258
1295.07
1294.044
1292.99
1291.94
1290.925
1289.979
1289.141
1288.458
1287.983
1287.771
1287.228
1286.088
1284.941
1283.797
1282.667
1281.395
1279.913
1278.323
1276.482
1273.954
1269.308
1257.356
1295.908
1294.981
1294.021
1293.052
1292.098
1291.184
1290.344
1289.622
1289.078
1288.791
1288.245
1287.144
1286.038
1284.937
1283.849
1282.618
1281.187
1279.699
1278.114
1276.314
1273.924
1269.706
1259.16
1296.698
1295.877
1295.016
1294.128
1293.23
1292.337
1291.473
1290.674
1290.005
1289.593
1289.067
1288.011
1286.962
1285.921
1284.896
1283.712
1282.313
1280.868
1279.37
1277.788
1276.03
1273.791
1270.115
1261.434
1297.443
1296.727
1295.963
1295.156
1294.31
1293.429
1292.523
1291.606
1290.725
1290.042
1289.618
1288.648
1287.699
1286.761
1285.833
1284.711
1283.343
1281.927
1280.464
1278.951
1277.367
1275.632
1273.544
1270.428
1263.81
1289.646
1289.02
1288.302
1287.531
1286.734
1285.686
1284.353
1282.97
1281.538
1280.058
1278.528
1276.922
1275.203
1273.238
1270.596
1290.674
1289.985
1289.266
1288.52
1287.762
1286.755
1285.466
1284.124
1282.73
1281.287
1279.793
1278.237
1276.615
1274.9
1273.011
1291.733
1291.043
1290.329
1289.598
1288.856
1287.884
1286.643
1285.349
1284.003
1282.604
1281.153
1279.64
1278.066
1276.43
1274.713
1292.75
1292.082
1291.392
1290.683
1289.962
1289.025
1287.837
1286.596
1285.301
1283.953
1282.551
1281.085
1279.559
1277.972
1276.324
1293.713
1293.08
1292.423
1291.746
1291.052
1290.154
1289.02
1287.833
1286.592
1285.298
1283.949
1282.536
1281.061
1279.524
1277.927
1261.818
1260.514
1265.005
1263.625
1262.368
1267.902
1266.656
1265.435
1263.955
1270.581
1269.504
1268.46
1267.251
1265.123
1273.255
1272.448
1271.541
1270.507
1269.03
1264.799
1290.213
1289.005
1287.73
1286.394
1285.001
1283.559
1282.078
1280.589
1279.177
1278.176
1277.786
1276.412
1275.134
1273.89
1272.527
1269.842
1262.7
1291.276
1290.06
1288.796
1287.504
1286.202
1284.915
1283.678
1282.55
1281.645
1281.191
1280.646
1279.292
1277.983
1276.707
1275.412
1273.469
1269.647
1260.325
1292.293
1291.089
1289.851
1288.606
1287.386
1286.222
1285.161
1284.264
1283.62
1283.354
1282.791
1281.503
1280.232
1278.983
1277.744
1276.161
1273.709
1269.354
1258.256
1293.262
1292.092
1290.896
1289.707
1288.559
1287.492
1286.552
1285.794
1285.285
1285.094
1284.543
1283.313
1282.087
1280.873
1279.677
1278.268
1276.411
1273.846
1269.108
1256.85
1294.185
1293.069
1291.93
1290.803
1289.724
1288.732
1287.871
1287.192
1286.745
1286.579
1286.04
1284.86
1283.676
1282.496
1281.331
1280.008
1278.412
1276.545
1273.928
1269.015
1256.258
1295.06
1294.016
1292.948
1291.889
1290.875
1289.941
1289.129
1288.484
1288.053
1287.877
1287.345
1286.209
1285.064
1283.918
1282.782
1281.509
1280.03
1278.439
1276.58
1273.983
1269.116
1256.503
1295.889
1294.93
1293.943
1292.959
1292.006
1291.116
1290.327
1289.681
1289.228
1289.015
1288.483
1287.389
1286.283
1285.174
1284.072
1282.836
1281.416
1279.936
1278.35
1276.518
1274.005
1269.381
1257.567
1296.672
1295.807
1294.91
1294.003
1293.108
1292.25
1291.461
1290.78
1290.265
1289.986