/*--------------------------------*- C++ -*----------------------------------*\
| =========                 |                                                 |
| \\      /  F ield         | OpenFOAM: The Open Source CFD Toolbox           |
|  \\    /   O peration     | Version:  2306                                  |
|   \\  /    A nd           | Website:  www.openfoam.com                      |
|    \\/     M anipulation  |                                                 |
\*---------------------------------------------------------------------------*/
FoamFile
{
    version     2.0;
    format      ascii;
    arch        "LSB;label=32;scalar=64";
    class       volVectorField;
    location    "1.2/air";
    object      U;
}
// * * * * * * * * * * * * * * * * * * * * * * * * * * * * * * * * * * * * * //

dimensions      [0 1 -1 0 0 0 0];

internalField   nonuniform List<vector> 
16000
(
(0.3595594 0.0552469 -0.05533054)
(0.6435499 0.1048091 -0.08539565)
(0.3904075 0.003793996 -0.00368048)
(0.6437667 0.08503403 -0.1060567)
(0.7731345 0.08968239 -0.08525694)
(0.7696874 0.009183986 -0.006792553)
(1.294402 0.1767063 -0.180211)
(0.2978376 -0.001297583 0.001308851)
(0.7698878 0.006908126 -0.008834386)
(0.7739135 0.08465395 -0.09318924)
(0.8366246 0.05581797 -0.08286867)
(0.9774026 0.009642013 -0.007090358)
(1.63374 0.166982 -0.1998041)
(0.6138199 -0.001819561 0.00221523)
(1.70261 0.01741684 -0.01718966)
(1.635124 0.194481 -0.1758339)
(0.3381388 0.0008358131 -0.0008251781)
(0.6140423 -0.002231445 0.001756142)
(0.9783353 0.007169977 -0.009222228)
(0.838449 0.08203863 -0.06238255)
(0.8625884 0.01889254 -0.08166113)
(1.088494 0.006806401 -0.006726593)
(1.815744 0.1101176 -0.1997498)
(0.8002677 -0.001639446 0.002445444)
(2.262263 0.01960552 -0.01975877)
(2.110587 0.192559 -0.2054618)
(0.6900531 0.001410803 -0.001486417)
(1.408467 -0.00339345 0.003097482)
(2.264092 0.01955265 -0.01970534)
(1.820203 0.1929555 -0.1257342)
(0.3150902 -0.0004246314 0.0004364239)
(0.690265 0.00145849 -0.001509082)
(0.8013584 -0.002493735 0.00136158)
(1.091049 0.006726712 -0.006594505)
(0.8662021 0.08051127 -0.02917689)
(0.8625884 -0.01889254 -0.08166113)
(1.137913 0.002339228 -0.006315608)
(1.890781 0.03818922 -0.1976776)
(0.9086832 -0.0009532332 0.002493377)
(2.56905 0.01534184 -0.0219254)
(2.352183 0.1329798 -0.2122229)
(0.8953387 0.001370624 -0.001629477)
(1.918722 -0.003207569 0.00384483)
(3.079456 0.02345973 -0.02449927)
(2.356397 0.196174 -0.155365)
(0.6473302 -0.0007594467 0.000735282)
(1.56972 0.002367064 -0.002769362)
(1.920853 -0.004387404 0.002383477)
(2.575397 0.0210532 -0.01636324)
(1.900734 0.1892257 -0.06152733)
(0.3280915 0.0002957576 -0.0002845429)
(0.647535 -0.0007581518 0.0006805582)
(0.8964121 0.001562461 -0.001749156)
(0.9116877 -0.002581356 0.0003208522)
(1.143437 0.006170096 -0.002699434)
(0.8691936 0.07999323 0.004112534)
(0.0003034787 -0.001341939 -0.0006489206)
(0.8366246 -0.05581797 -0.08286867)
(1.137913 -0.002339228 -0.006315608)
(1.890781 -0.03818922 -0.1976776)
(0.9590154 -0.0003109398 0.002536063)
(2.709059 0.005562521 -0.02195231)
(2.455192 0.04690425 -0.2115102)
(1.013434 0.0008813981 -0.00163543)
(2.224438 -0.001965802 0.004476045)
(3.56055 0.01768181 -0.02572258)
(2.639927 0.1368887 -0.1637201)
(0.8434331 -0.0007573206 0.0007781564)
(2.127068 0.002373252 -0.003135755)
(2.67205 -0.00460921 0.003317845)
(3.566976 0.02365404 -0.01981265)
(2.467522 0.1927039 -0.07917241)
(0.6716598 0.0004972077 -0.0005375242)
(1.481879 -0.001459379 0.001108208)
(2.129218 0.002450192 -0.00346189)
(2.231776 -0.005305901 0.0003912579)
(2.723945 0.02025369 -0.007929137)
(1.909886 0.1871873 0.006675889)
(0.3203062 -0.0001204276 0.0001318748)
(0.6718678 0.0005121627 -0.0005834145)
(0.8444718 -0.0008372566 0.0004332796)
(1.016438 0.001528196 -0.00169299)
(0.9653793 -0.002694946 -0.000862691)
(1.148378 0.005918713 0.0008674836)
(0.8482501 0.08046448 0.03583241)
(0.0003179935 -0.003884942 -0.0006705496)
(0.0003071568 -0.001199629 -0.0005928181)
(0.0003049601 -0.001344829 -0.001260834)
(0.7731345 -0.08968239 -0.08525694)
(1.088494 -0.006806401 -0.006726593)
(1.815744 -0.1101176 -0.1997498)
(0.9590154 0.0003109398 0.002536063)
(2.709059 -0.005562521 -0.02195231)
(2.455192 -0.04690425 -0.2115102)
(1.067975 0.0002975911 -0.001628023)
(2.367958 -0.0006560389 0.004859952)
(3.779931 0.006567393 -0.02609094)
(2.760754 0.04870896 -0.1646576)
(0.9572617 -0.0005078929 0.00077648)
(2.458345 0.001574015 -0.003141436)
(3.13276 -0.003104769 0.004258755)
(4.154261 0.01864957 -0.02200197)
(2.77029 0.1347659 -0.08596737)
(0.8732346 0.0004902095 -0.000612484)
(2.016098 -0.001559554 0.001202261)
(2.945816 0.002428289 -0.004072191)
(3.139927 -0.006009145 0.0009194955)
(3.799374 0.02281272 -0.01010808)
(2.481245 0.1900871 0.005460756)
(0.6571083 -0.0002168366 0.0001981647)
(1.532415 0.0008058786 -0.001177384)
(2.018181 -0.001813752 0.0005956868)
(2.465818 0.002184867 -0.003594797)
(2.384742 -0.006114556 -0.001915629)
(2.738243 0.01915714 0.001314632)
(1.849676 0.1870789 0.07104815)
(0.3242863 0.0001179566 -0.0001074097)
(0.6573141 -0.0002195357 0.0001441434)
(0.8742869 0.0005497612 -0.0008333786)
(0.9601693 -0.0008727429 -0.0001993755)
(1.074406 0.00145686 -0.001715175)
(0.9705788 -0.002841155 -0.00235326)
(1.106787 0.005896671 0.003497974)
(0.7935982 0.08240214 0.06449315)
(0.0003445809 -0.007004753 -0.0007197002)
(0.0003296536 -0.003473474 -0.0006104593)
(0.0003194869 -0.003899942 -0.001312564)
(0.0002266254 -0.001119383 -0.0005459673)
(0.0003065913 -0.00120296 -0.001151598)
(0.0003022586 -0.001337075 -0.003446607)
(0.6435499 -0.1048091 -0.08539565)
(0.9774026 -0.009642013 -0.007090358)
(1.63374 -0.166982 -0.1998041)
(0.9086832 0.0009532332 0.002493377)
(2.56905 -0.01534184 -0.0219254)
(2.352183 -0.1329798 -0.2122229)
(1.067975 -0.0002975912 -0.001628023)
(2.367958 0.0006560389 0.004859952)
(3.779931 -0.006567393 -0.02609094)
(2.760754 -0.04870896 -0.1646576)
(1.010119 -0.0001767195 0.0007757135)
(2.613273 0.0005387655 -0.003079647)
(3.351264 -0.001063846 0.004837484)
(4.425187 0.006961851 -0.02269268)
(2.899594 0.04808625 -0.08782136)
(0.9897373 0.0003194556 -0.0006318917)
(2.336215 -0.001104953 0.00122897)
(3.442695 0.001590151 -0.004139156)
(3.704972 -0.004185572 0.001549972)
(4.440503 0.01814022 -0.01152111)
(2.787143 0.1326835 0.002820777)
(0.8554356 -0.0002108826 0.000189652)
(2.0805 0.0008156311 -0.001448606)
(2.803128 -0.00203183 0.0005533789)
(3.450048 0.002044221 -0.004387626)
(3.372429 -0.007182787 -0.002130525)
(3.821497 0.02145996 0.001407561)
(2.400067 0.1890315 0.08483542)
(0.664485 0.0001984953 -0.0002224576)
(1.50222 -0.0004566823 0.0001271885)
(2.082607 0.0008088822 -0.001827712)
(2.343451 -0.002088329 -0.0006941876)
(2.630443 0.001767306 -0.003715536)
(2.399455 -0.006802719 -0.004586465)
(2.620748 0.01771695 0.008779954)
(1.691641 0.1859604 0.1234798)
(0.3215833 -2.516405e-05 3.537509e-05)
(0.6646918 0.0002006982 -0.0002723649)
(0.8564747 -0.0002453838 -9.134374e-05)
(0.992681 0.0005322897 -0.001058181)
(1.01634 -0.000930252 -0.001068662)
(1.079812 0.001327548 -0.002010896)
(0.9278752 -0.003092714 -0.004375824)
(1.007923 0.005776767 0.003922183)
(0.6812224 0.08336851 0.07101617)
(0.0003933448 -0.009190525 -0.001101486)
(0.0003710427 -0.006239234 -0.0006509963)
(0.0003460664 -0.006909212 -0.001415968)
(0.000242953 -0.003240862 -0.000561737)
(0.000329095 -0.003489177 -0.001194413)
(0.0003165977 -0.003864668 -0.003522693)
(0.0003613737 -0.001037665 -0.0005086118)
(0.0002259121 -0.001122922 -0.001060759)
(0.0003025442 -0.001196887 -0.003149718)
(0.0002933617 -0.001307839 -0.001178108)
(0.3595594 -0.0552469 -0.05533054)
(0.7696874 -0.009183986 -0.006792553)
(1.294402 -0.1767063 -0.180211)
(0.8002677 0.001639446 0.002445444)
(2.262263 -0.01960552 -0.01975877)
(2.110587 -0.192559 -0.2054618)
(1.013434 -0.0008813981 -0.00163543)
(2.224438 0.001965802 0.004476045)
(3.56055 -0.01768181 -0.02572258)
(2.639927 -0.1368887 -0.1637201)
(1.010119 0.0001767195 0.0007757135)
(2.613273 -0.0005387654 -0.003079647)
(3.351264 0.001063846 0.004837484)
(4.425187 -0.006961851 -0.02269268)
(2.899594 -0.04808625 -0.08782136)
(1.043707 0.0001086354 -0.000637957)
(2.486672 -0.0003940205 0.001242688)
(3.677661 0.0005405373 -0.004071062)
(3.974901 -0.001464301 0.001990242)
(4.737498 0.006781216 -0.01209178)
(2.917784 0.04730479 0.001072857)
(0.9703704 -0.000140032 0.0001770559)
(2.407651 0.0005424268 -0.001552911)
(3.284402 -0.001491617 0.0005257007)
(4.058002 0.001266521 -0.004557871)
(3.991334 -0.00512177 -0.001953731)
(4.467575 0.0170919 0.00135877)
(2.693557 0.1313116 0.08600858)
(0.8644062 0.0001999891 -0.0002679037)
(2.042065 -0.0004849287 3.975075e-05)
(2.886662 0.0008022435 -0.002348577)
(3.291524 -0.002422027 -0.001033381)
(3.699381 0.001480496 -0.004598068)
(3.394612 -0.008033131 -0.00542933)
(3.63674 0.0197144 0.01104983)
(2.191539 0.1835747 0.1441555)
(0.6594069 -5.283457e-05 3.179321e-05)
(1.517374 0.0002908846 -0.0006169974)
(2.044144 -0.0006155659 -0.0004219008)
(2.414971 0.0006656514 -0.002419005)
(2.503305 -0.002422947 -0.002436655)
(2.645809 0.001198107 -0.004076945)
(2.277441 -0.007502508 -0.007706078)
(2.348299 0.01387449 0.01087633)
(1.39552 0.1681144 0.128589)
(0.3227528 5.597279e-05 -4.693988e-05)
(0.6596129 -5.159183e-05 -1.451799e-05)
(0.8654474 0.0002127497 -0.000500139)
(0.9732751 -0.00026736 -0.0005204266)
(1.050003 0.0004825084 -0.001391078)
(1.021534 -0.00104947 -0.002217943)
(1.033355 0.001067997 -0.002756748)
(0.830348 -0.003421154 -0.006998754)
(0.8198896 0.005825811 -0.0006426697)
(0.4325315 0.056821 -0.003175991)
(0.0004459549 -0.018266 -0.001469017)
(0.0004465303 -0.008180497 -0.0009789141)
(0.0003934389 -0.008993848 -0.002120682)
(0.000273063 -0.005814778 -0.0005981694)
(0.0003704572 -0.006160412 -0.00128005)
(0.0003427973 -0.006755571 -0.003670313)
(0.000376041 -0.003003975 -0.0005229098)
(0.0002422823 -0.003256697 -0.001099351)
(0.0003247701 -0.003459904 -0.003209565)
(0.0003072442 -0.003806121 -0.001220203)
(0.0003588023 -0.000977165 -0.0004776778)
(0.0003628838 -0.001041175 -0.0009881822)
(0.0002226582 -0.001117601 -0.002901226)
(0.0002846076 -0.001173216 -0.001076067)
(0.00029462 -0.001308911 -0.01177913)
(0.3904075 -0.003793996 -0.00368048)
(0.6437667 -0.08503403 -0.1060567)
(0.6138199 0.001819561 0.00221523)
(1.70261 -0.01741684 -0.01718967)
(1.635124 -0.194481 -0.1758339)
(0.8953387 -0.001370624 -0.001629477)
(1.918722 0.003207569 0.00384483)
(3.079456 -0.02345973 -0.02449927)
(2.356397 -0.196174 -0.155365)
(0.9572617 0.0005078929 0.00077648)
(2.458345 -0.001574015 -0.003141436)
(3.13276 0.003104769 0.004258755)
(4.154261 -0.01864957 -0.02200197)
(2.77029 -0.1347659 -0.08596737)
(1.043707 -0.0001086354 -0.000637957)
(2.486672 0.0003940206 0.001242688)
(3.677661 -0.0005405371 -0.004071062)
(3.974901 0.001464301 0.001990242)
(4.737498 -0.006781216 -0.01209178)
(2.917784 -0.04730479 0.001072857)
(1.023699 -4.871394e-05 0.0001716761)
(2.561087 0.0001857684 -0.00158369)
(3.513056 -0.0005412016 0.0005260166)
(4.347742 0.0004163956 -0.004528914)
(4.288053 -0.001816955 -0.001748888)
(4.767064 0.006400491 0.001114864)
(2.818187 0.04664077 0.08454233)
(0.9800941 0.0001316137 -0.0002846167)
(2.365083 -0.0003447161 -2.15277e-05)
(3.377848 0.0005201184 -0.002572557)
(3.881492 -0.001824165 -0.001170191)
(4.364575 0.0008072804 -0.00483449)
(4.018471 -0.005783376 -0.00561878)
(4.238965 0.01577562 0.01242337)
(2.452144 0.1259958 0.1466416)
(0.8581735 -5.054136e-05 1.128893e-05)
(2.061214 0.00029562 -0.0008122787)
(2.83683 -0.0006957874 -0.0007017305)
(3.385052 0.0006017401 -0.003157599)
(3.534133 -0.002870843 -0.003116402)
(3.722562 0.0008036146 -0.004856339)
(3.208464 -0.008588737 -0.008789602)
(3.207727 0.01716879 0.01560784)
(1.784614 0.1587505 0.1455788)
(0.6614459 9.513822e-05 -0.0001124244)
(1.506775 -0.0001560324 -0.0001460075)
(2.063295 0.0002466519 -0.001188395)
(2.372305 -0.0007851233 -0.001347543)
(2.5779 0.0003882505 -0.003111323)
(2.518091 -0.0029411 -0.004504311)
(2.513687 0.0003379222 -0.00478674)
(2.001556 -0.008334309 -0.0111037)
(1.836796 0.01094168 0.006545367)
(0.8098779 0.1102871 0.02235982)
(0.321485 1.248993e-05 -2.825509e-06)
(0.6616513 9.211631e-05 -0.0001641643)
(0.8592086 -6.238894e-05 -0.0002270283)
(0.9830026 0.000196252 -0.000782311)
(1.02991 -0.0003146665 -0.001109897)
(1.055288 0.0003703531 -0.001956483)
(0.9763993 -0.001298243 -0.00374982)
(0.9271006 0.000731355 -0.00398945)
(0.6602708 -0.003322148 -0.01118989)
(0.4798254 -0.001861402 -0.02754549)
(0.002146857 -0.01342912 -0.01183265)
(0.0005268211 -0.01608604 -0.001313785)
(0.0004432298 -0.01433652 -0.002785)
(0.0003264059 -0.007619399 -0.0009003047)
(0.0004436017 -0.008013058 -0.001885254)
(0.000388403 -0.008742618 -0.004338638)
(0.0004024776 -0.005387161 -0.0005560025)
(0.000272444 -0.00574381 -0.00117652)
(0.0003655682 -0.006028932 -0.003324442)
(0.000332521 -0.006571173 -0.001308527)
(0.0003709425 -0.002828828 -0.0004909102)
(0.0003776123 -0.003019364 -0.00102332)
(0.0002388638 -0.003230525 -0.002953572)
(0.0003061423 -0.003415733 -0.001110452)
(0.0003084983 -0.003768988 -0.01190328)
(0.0004170082 -0.0009210645 -0.0004512268)
(0.0003607462 -0.000980654 -0.0009281795)
(0.000360157 -0.00103649 -0.002702809)
(0.000208003 -0.001096848 -0.0009913946)
(0.0002921907 -0.00117322 -0.01077233)
(3.002538e-05 -0.0001425407 -0.004502611)
(0.2978376 0.001297583 0.001308851)
(0.7698878 -0.006908126 -0.008834386)
(0.7739135 -0.08465395 -0.09318924)
(0.6900531 -0.001410803 -0.001486417)
(1.408467 0.00339345 0.003097482)
(2.264092 -0.01955265 -0.01970534)
(1.820203 -0.1929555 -0.1257342)
(0.8434331 0.0007573205 0.0007781565)
(2.127068 -0.002373252 -0.003135755)
(2.67205 0.00460921 0.003317845)
(3.566976 -0.02365404 -0.01981265)
(2.467522 -0.1927039 -0.07917241)
(0.9897373 -0.0003194556 -0.0006318917)
(2.336215 0.001104953 0.00122897)
(3.442695 -0.001590151 -0.004139156)
(3.704972 0.004185573 0.001549972)
(4.440503 -0.01814022 -0.01152111)
(2.787143 -0.1326835 0.002820777)
(1.023699 4.871397e-05 0.0001716761)
(2.561087 -0.0001857684 -0.00158369)
(3.513056 0.0005412016 0.0005260167)
(4.347742 -0.0004163957 -0.004528914)
(4.288053 0.001816955 -0.001748888)
(4.767064 -0.006400491 0.001114864)
(2.818187 -0.04664077 0.08454233)
(1.033727 4.481232e-05 -0.0002907648)
(2.516799 -0.0001234752 -4.79902e-05)
(3.610761 0.0001752129 -0.002646271)
(4.163932 -0.0006700795 -0.001199153)
(4.682865 0.0002426528 -0.004841635)
(4.317598 -0.002065046 -0.005609872)
(4.517797 0.005946132 0.01248614)
(2.559711 0.04441886 0.1451388)
(0.9732972 -3.499822e-05 -1.410084e-06)
(2.386188 0.0001948333 -0.0009053024)
(3.322181 -0.0005178957 -0.0008615064)
(3.986592 0.0003506407 -0.00347844)
(4.180319 -0.002192171 -0.003348926)
(4.392951 0.0002982472 -0.005018758)
(3.788545 -0.006131156 -0.009058363)
(3.71273 0.01391105 0.0178429)
(1.980951 0.1064516 0.1473007)
(0.8605302 9.878467e-05 -0.0001456184)
(2.047673 -0.0001728798 -0.000265042)
(2.861424 0.0002307108 -0.001600922)
(3.329291 -0.0009312758 -0.001872554)
(3.632045 0.0002396081 -0.003979362)
(3.556484 -0.003481921 -0.005383082)
(3.521885 -4.194851e-05 -0.00511374)
(2.79169 -0.008853196 -0.01158144)
(2.448755 0.01502031 0.01358507)
(0.9921018 0.09818168 0.03308233)
(0.6591708 2.421693e-05 -3.414358e-05)
(1.510642 0.0001131942 -0.0004109485)
(2.04974 -0.000261397 -0.0006567722)
(2.393416 0.0001173083 -0.001855069)
(2.533393 -0.001048636 -0.002528842)
(2.592934 -9.748304e-05 -0.004005952)
(2.389466 -0.003784762 -0.006777769)
(2.214766 -0.0009316283 -0.005741433)
(1.53272 -0.00869526 -0.01402649)
(0.9853896 0.004333812 -0.01766744)
(0.003462371 0.0005195776 -0.008223564)
(0.3216412 2.87121e-05 -1.994046e-05)
(0.659376 1.629594e-05 -8.52247e-05)
(0.8615609 9.52584e-05 -0.0003740267)
(0.9761874 -8.113018e-05 -0.0005700252)
(1.039945 0.0001521335 -0.001179463)
(1.035113 -0.0004210188 -0.001932929)
(1.009213 0.0001310313 -0.002899753)
(0.8737809 -0.001617301 -0.005609499)
(0.7401649 0.0006087801 -0.007317201)
(0.3729734 -0.007575801 -0.02831742)
(0.002476346 -0.01206291 -0.01031513)
(0.0005674489 -0.01103821 -0.01620778)
(0.0003844644 -0.01494354 -0.001210299)
(0.0005201571 -0.01267793 -0.002457237)
(0.0004364886 -0.01285689 -0.004988709)
(0.0004489472 -0.007055661 -0.000834574)
(0.0003244093 -0.007466787 -0.001733951)
(0.000436067 -0.007796049 -0.003882952)
(0.0003755984 -0.008453527 -0.001770437)
(0.000392583 -0.005070926 -0.000521625)
(0.0004041257 -0.005322754 -0.001093508)
(0.0002686854 -0.005623563 -0.00305372)
(0.0003455801 -0.005880491 -0.001182803)
(0.0003337872 -0.006459366 -0.01213342)
(0.0004278825 -0.002666334 -0.0004635478)
(0.0003729443 -0.002843843 -0.000960813)
(0.000374756 -0.002995802 -0.002749698)
(0.0002238367 -0.003193007 -0.001022242)
(0.0003137282 -0.003378608 -0.01085804)
(3.14301e-05 -0.0004088707 -0.004542495)
(0.0004257227 -0.0008746626 -0.0004281062)
(0.000419974 -0.0009244793 -0.0008768068)
(0.0003584552 -0.0009764088 -0.002538667)
(0.0003481639 -0.001017851 -0.0009236131)
(0.000214546 -0.001096181 -0.009924056)
(2.760294e-05 -0.0001284128 -0.004117809)
(2.652791e-05 -0.0001284085 -0.005334848)
(0.3381388 -0.0008358132 -0.0008251781)
(0.6140423 0.002231445 0.001756142)
(0.9783353 -0.007169977 -0.009222229)
(0.838449 -0.08203863 -0.06238255)
(0.6473302 0.0007594468 0.000735282)
(1.56972 -0.002367064 -0.002769362)
(1.920853 0.004387404 0.002383477)
(2.575397 -0.0210532 -0.01636324)
(1.900734 -0.1892257 -0.06152733)
(0.8732346 -0.0004902095 -0.0006124841)
(2.016098 0.001559554 0.001202261)
(2.945816 -0.00242829 -0.004072191)
(3.139927 0.006009145 0.0009194956)
(3.799374 -0.02281272 -0.01010808)
(2.481245 -0.1900871 0.005460756)
(0.9703704 0.000140032 0.0001770559)
(2.407651 -0.0005424267 -0.001552911)
(3.284402 0.001491617 0.0005257007)
(4.058002 -0.001266521 -0.004557871)
(3.991334 0.00512177 -0.001953731)
(4.467575 -0.0170919 0.00135877)
(2.693557 -0.1313116 0.08600858)
(1.033727 -4.481234e-05 -0.0002907648)
(2.516799 0.0001234754 -4.799024e-05)
(3.610761 -0.0001752128 -0.002646271)
(4.163932 0.0006700794 -0.001199153)
(4.682865 -0.0002426529 -0.004841635)
(4.317598 0.002065046 -0.005609872)
(4.517797 -0.005946132 0.01248614)
(2.559711 -0.04441886 0.1451388)
(1.026697 -1.270897e-05 -6.477991e-06)
(2.538709 6.605961e-05 -0.0009397362)
(3.552634 -0.0001895243 -0.0009261841)
(4.274061 0.0001099302 -0.003583264)
(4.490884 -0.0008100707 -0.00339232)
(4.713798 5.704872e-05 -0.004999822)
(4.065777 -0.002186942 -0.009096774)
(3.947301 0.00529049 0.01794994)
(2.052627 0.03734664 0.1469396)
(0.9757537 6.585415e-05 -0.0001602364)
(2.371153 -0.0001297591 -0.0003334883)
(3.349492 0.0001369931 -0.001804472)
(3.924023 -0.0007161537 -0.002129813)
(4.290575 5.965087e-05 -0.004316097)
(4.207733 -0.002648477 -0.005585233)
(4.145608 -0.0002474327 -0.004968897)
(3.277498 -0.006134637 -0.01148109)
(2.801201 0.01186606 0.01548513)
(1.079634 0.06357597 0.03450722)
(0.85784 3.036311e-05 -5.959602e-05)
(2.052233 0.0001137077 -0.0005673322)
(2.843795 -0.0003146957 -0.0009618229)
(3.356609 5.256236e-05 -0.002477364)
(3.573661 -0.001276275 -0.003265954)
(3.654764 -0.0003320129 -0.004815563)
(3.360737 -0.004324843 -0.007477136)
(3.072518 -0.00106292 -0.005091467)
(2.098378 -0.008342734 -0.01206911)
(1.270566 0.006480984 -0.008883017)
(0.004093834 0.000444692 -0.005814474)
(0.6593356 4.248833e-05 -6.131238e-05)
(1.506165 -6.979241e-06 -0.0002697708)
(2.054291 5.423065e-05 -0.0009249536)
(2.378334 -0.0004029413 -0.001416939)
(2.555314 -0.0001253334 -0.002659462)
(2.548207 -0.001508537 -0.00394537)
(2.461799 -0.0009246298 -0.005146597)
(2.100072 -0.004971285 -0.008890884)
(1.703786 -0.002267941 -0.007675651)
(0.798412 -0.007256719 -0.02091321)
(0.004246983 -7.729691e-05 -0.007184264)
(0.0005816916 -0.002201015 -0.01172366)
(0.3212022 1.908417e-05 -1.072285e-05)
(0.6595404 4.362191e-05 -0.0001028563)
(0.8588686 1.297258e-05 -0.0002842577)
(0.9786307 7.996974e-05 -0.0006592044)
(1.032876 -0.0001239387 -0.001046979)
(1.045165 5.104724e-05 -0.001789171)
(0.9895445 -0.000647514 -0.003105148)
(0.904256 -0.0001818616 -0.004231248)
(0.694876 -0.001658817 -0.008936455)
(0.421411 -0.00444595 -0.02519988)
(0.001872712 -0.01122415 -0.009542577)
(0.0007024069 -0.009805813 -0.01407786)
(0.0005329192 -0.01009162 -0.01144219)
(0.0004998006 -0.01382686 -0.001118423)
(0.0003798597 -0.01178837 -0.002259254)
(0.0005101496 -0.01138912 -0.00441719)
(0.0004207803 -0.01148524 -0.002207509)
(0.0004305709 -0.006640753 -0.00078273)
(0.0004494673 -0.006916405 -0.001607346)
(0.0003189947 -0.007267746 -0.003561533)
(0.0004123381 -0.00756223 -0.001576508)
(0.0003762659 -0.008286091 -0.01257822)
(0.0004469111 -0.004778323 -0.0004921915)
(0.0003946579 -0.005011369 -0.001026037)
(0.0004010016 -0.00521263 -0.002839158)
(0.0002529489 -0.005491777 -0.001087187)
(0.000353172 -0.005774831 -0.01100956)
(3.403221e-05 -0.0007010322 -0.004623176)
(0.0004352898 -0.002532007 -0.0004396856)
(0.0004309077 -0.002680869 -0.0009072663)
(0.0003705518 -0.002822159 -0.002581665)
(0.0003625008 -0.00296294 -0.0009516077)
(0.0002303188 -0.003156768 -0.009992646)
(2.980453e-05 -0.000368523 -0.004143796)
(2.777342e-05 -0.0003718068 -0.005382899)
(0.000452923 -0.0008320519 -0.0004075841)
(0.0004290517 -0.0008780092 -0.0008319303)
(0.0004179702 -0.00092061 -0.002398148)
(0.0003483714 -0.0009593304 -0.0008676398)
(0.0003515966 -0.00101708 -0.009247116)
(1.985302e-05 -0.0001202698 -0.00379355)
(2.317823e-05 -0.0001159634 -0.004878821)
(2.5418e-05 -0.0001281937 -0.005262641)
(0.3150902 0.0004246315 0.0004364239)
(0.690265 -0.00145849 -0.001509082)
(0.8013584 0.002493735 0.00136158)
(1.091049 -0.006726712 -0.006594505)
(0.8662021 -0.08051127 -0.02917689)
(0.6716598 -0.0004972077 -0.0005375242)
(1.481879 0.001459379 0.001108208)
(2.129218 -0.002450192 -0.00346189)
(2.231776 0.005305901 0.000391258)
(2.723945 -0.02025369 -0.007929137)
(1.909886 -0.1871873 0.006675889)
(0.8554356 0.0002108825 0.000189652)
(2.0805 -0.0008156311 -0.001448606)
(2.803128 0.00203183 0.0005533788)
(3.450048 -0.002044221 -0.004387626)
(3.372429 0.007182787 -0.002130525)
(3.821497 -0.02145996 0.001407561)
(2.400067 -0.1890315 0.08483542)
(0.9800941 -0.0001316137 -0.0002846167)
(2.365083 0.0003447161 -2.152765e-05)
(3.377848 -0.0005201184 -0.002572557)
(3.881492 0.001824165 -0.001170191)
(4.364575 -0.0008072805 -0.00483449)
(4.018471 0.005783376 -0.00561878)
(4.238965 -0.01577562 0.01242337)
(2.452144 -0.1259958 0.1466416)
(1.026697 1.270903e-05 -6.47802e-06)
(2.538709 -6.605952e-05 -0.0009397363)
(3.552634 0.0001895243 -0.0009261839)
(4.274061 -0.0001099301 -0.003583264)
(4.490884 0.0008100707 -0.00339232)
(4.713798 -5.704879e-05 -0.004999822)
(4.065777 0.002186942 -0.009096775)
(3.947301 -0.00529049 0.01794994)
(2.052627 -0.03734664 0.1469396)
(1.029177 2.244307e-05 -0.0001659224)
(2.523047 -4.80626e-05 -0.0003612805)
(3.581078 4.31706e-05 -0.0018817)
(4.208596 -0.0002658917 -0.002223226)
(4.606544 5.167921e-07 -0.004408718)
(4.52078 -0.0009758353 -0.005579884)
(4.443058 -0.0001268735 -0.004822165)
(3.508185 -0.002173176 -0.0113717)
(2.971272 0.004222387 0.01453552)
(1.113227 0.02185528 0.03457754)
(0.9728992 2.17464e-05 -7.286927e-05)
(2.37591 7.203254e-05 -0.0006474225)
(3.329749 -0.0002476742 -0.001125871)
(3.954471 -1.214216e-05 -0.002769789)
(4.224939 -0.0009943916 -0.00356)
(4.318438 -0.000366272 -0.005016071)
(3.966066 -0.003195797 -0.007411881)
(3.595904 -0.0007783884 -0.004410975)
(2.439004 -0.005460031 -0.01115976)
(1.428661 0.00493674 -0.007270244)
(0.004396597 0.0002821645 -0.005094319)
(0.8579349 4.283791e-05 -8.647528e-05)
(2.046783 -5.85618e-06 -0.0004060967)
(2.849144 3.135595e-05 -0.001270685)
(3.336821 -0.0005101796 -0.001934723)
(3.602117 -0.0002623914 -0.003420718)
(3.596072 -0.001817394 -0.004734114)
(3.455455 -0.0011777 -0.005564589)
(2.924721 -0.00528148 -0.008790383)
(2.320701 -0.001853885 -0.004978201)
(1.055203 -0.005559295 -0.01264424)
(0.005244619 3.447337e-06 -0.005056062)
(0.0005903098 -0.001132145 -0.008659623)
(0.6584713 2.992634e-05 -4.437858e-05)
(1.506198 2.195587e-05 -0.0002894014)
(2.048836 -7.75014e-05 -0.0007560761)
(2.383057 -6.541134e-05 -0.001576882)
(2.539549 -0.0006387005 -0.002374239)
(2.570175 -0.0005624956 -0.003656017)
(2.418431 -0.002292642 -0.005566974)
(2.16625 -0.002143341 -0.006373316)
(1.609474 -0.00589807 -0.0108343)
(0.8935217 -0.003044194 -0.01768956)
(0.003376509 -0.0001315529 -0.006627405)
(0.0007251009 -0.002109673 -0.01019301)
(0.0005445057 -0.002913464 -0.009566034)
(0.3210055 2.316726e-05 -1.516972e-05)
(0.6586753 2.728388e-05 -8.836541e-05)
(0.8589605 4.132397e-05 -0.0002892343)
(0.9757694 -2.669463e-06 -0.0005764691)
(1.035329 4.011219e-05 -0.001054398)
(1.03806 -0.0002205042 -0.0017335)
(0.9993325 -0.0001653353 -0.002737226)
(0.8859347 -0.0009412311 -0.004605819)
(0.7205422 -0.0002778613 -0.007239721)
(0.3933694 -0.005713522 -0.02429876)
(0.002136734 -0.01036909 -0.008822877)
(0.0005051411 -0.009117358 -0.01301632)
(0.0006563478 -0.008985379 -0.00997773)
(0.0005003127 -0.009194585 -0.006413313)
(0.0004721777 -0.01300007 -0.001049662)
(0.0004978045 -0.01091072 -0.002089449)
(0.0003728066 -0.01059672 -0.004043173)
(0.0004823384 -0.01022016 -0.001944614)
(0.000421056 -0.01087316 -0.01309962)
(0.0004802344 -0.006256404 -0.0007375775)
(0.0004317394 -0.006511014 -0.001507651)
(0.0004449672 -0.006734 -0.003304099)
(0.0003011554 -0.00705911 -0.001448677)
(0.0004190037 -0.00740457 -0.01131553)
(3.843383e-05 -0.000898288 -0.004749374)
(0.0004518067 -0.004536479 -0.0004666548)
(0.0004500074 -0.004722942 -0.0009681417)
(0.0003920564 -0.004908685 -0.002663658)
(0.0003882549 -0.005093814 -0.001010575)
(0.0002592882 -0.005390833 -0.01011095)
(3.389375e-05 -0.0006302578 -0.004195355)
(3.007771e-05 -0.0006374418 -0.005478694)
(0.0004616578 -0.002408618 -0.0004185092)
(0.0004386753 -0.002546107 -0.0008606179)
(0.0004288182 -0.002660803 -0.002437914)
(0.0003602711 -0.002792558 -0.0008935883)
(0.0003658351 -0.002928712 -0.009305307)
(2.149788e-05 -0.0003452151 -0.003813504)
(2.51346e-05 -0.0003360521 -0.004910333)
(2.662561e-05 -0.0003672718 -0.005309511)
(0.0004629733 -0.0007947074 -0.0003891587)
(0.000456783 -0.0008353135 -0.000792071)
(0.0004272881 -0.000874432 -0.002275373)
(0.0004092195 -0.0009048126 -0.000819661)
(0.0003507004 -0.0009584413 -0.00868645)
(3.576128e-05 -0.0001117383 -0.0035348)
(1.644702e-05 -0.0001087629 -0.004494535)
(2.150647e-05 -0.0001159999 -0.004812855)
(2.460474e-05 -0.0001247939 -0.004745891)
(0.3280915 -0.0002957576 -0.0002845429)
(0.647535 0.0007581518 0.0006805583)
(0.8964121 -0.001562461 -0.001749156)
(0.9116877 0.002581356 0.0003208522)
(1.143437 -0.006170096 -0.002699434)
(0.8691936 -0.07999323 0.004112534)
(0.6571083 0.0002168365 0.0001981646)
(1.532415 -0.0008058788 -0.001177384)
(2.018181 0.001813752 0.0005956869)
(2.465818 -0.002184867 -0.003594796)
(2.384742 0.006114556 -0.001915629)
(2.738243 -0.01915714 0.001314632)
(1.849676 -0.1870789 0.07104815)
(0.8644062 -0.0001999891 -0.0002679037)
(2.042065 0.0004849286 3.975082e-05)
(2.886662 -0.0008022435 -0.002348577)
(3.291524 0.002422027 -0.001033381)
(3.699381 -0.001480496 -0.004598068)
(3.394612 0.008033131 -0.00542933)
(3.63674 -0.0197144 0.01104983)
(2.191539 -0.1835747 0.1441555)
(0.9732972 3.499831e-05 -1.410119e-06)
(2.386188 -0.0001948332 -0.0009053025)
(3.322181 0.0005178957 -0.0008615063)
(3.986592 -0.0003506406 -0.00347844)
(4.180319 0.002192171 -0.003348926)
(4.392951 -0.0002982472 -0.005018758)
(3.788545 0.006131156 -0.009058363)
(3.71273 -0.01391105 0.0178429)
(1.980951 -0.1064516 0.1473007)
(1.029177 -2.244277e-05 -0.0001659224)
(2.523047 4.806269e-05 -0.0003612806)
(3.581078 -4.317044e-05 -0.0018817)
(4.208596 0.0002658917 -0.002223226)
(4.606544 -5.167332e-07 -0.004408718)
(4.52078 0.0009758352 -0.005579884)
(4.443058 0.0001268736 -0.004822165)
(3.508185 0.002173176 -0.0113717)
(2.971272 -0.004222387 0.01453552)
(1.113227 -0.02185528 0.03457754)
(1.026267 7.474126e-06 -7.809705e-05)
(2.527837 2.355117e-05 -0.0006786426)
(3.560435 -9.329648e-05 -0.001191014)
(4.240363 -1.404934e-05 -0.002874633)
(4.537805 -0.0003708191 -0.003643713)
(4.636936 -0.0001538651 -0.005021254)
(4.256002 -0.001160382 -0.007260212)
(3.843692 -0.0002835295 -0.004065835)
(2.599352 -0.00191694 -0.01087264)
(1.501573 0.001691481 -0.006833179)
(0.004512119 9.45805e-05 -0.004779281)
(0.9729245 2.654348e-05 -9.79447e-05)
(2.370073 -7.142117e-06 -0.0004808389)
(3.335273 1.371011e-06 -0.001446722)
(3.932212 -0.0004116095 -0.002185071)
(4.256709 -0.0002643179 -0.003725734)
(4.252449 -0.001397594 -0.004926985)
(4.072602 -0.000929091 -0.005417162)
(3.431731 -0.003685572 -0.008214993)
(2.68905 -0.001012337 -0.003696511)
(1.205878 -0.003133881 -0.01068661)
(0.005797932 1.377131e-05 -0.004399713)
(0.0005917049 -0.0003545759 -0.007613936)
(0.8568251 3.182826e-05 -6.763596e-05)
(2.046568 1.288669e-05 -0.0004170885)
(2.84245 -0.0001006616 -0.001073458)
(3.342314 -0.0001338661 -0.002114326)
(3.581355 -0.0008174074 -0.003060065)
(3.624605 -0.0007765953 -0.004388347)
(3.398719 -0.002618383 -0.00607948)
(3.010781 -0.002225995 -0.005914461)
(2.200938 -0.005633105 -0.008731582)
(1.175925 -0.001517461 -0.009913153)
(0.004283257 -4.627257e-05 -0.004642681)
(0.0007399444 -0.001103589 -0.007492063)
(0.0005524102 -0.001559975 -0.008251278)
(0.6580455 3.806959e-05 -5.116025e-05)
(1.504291 3.362266e-06 -0.0002609695)
(2.048613 -4.762076e-05 -0.0007460671)
(2.377204 -0.0001963345 -0.001414345)
(2.544266 -0.0002845448 -0.002371277)
(2.554315 -0.00105633 -0.00353552)
(2.439705 -0.001315099 -0.004866935)
(2.126447 -0.00342298 -0.007152228)
(1.663396 -0.003309713 -0.008106403)
(0.8395077 -0.005310028 -0.01763745)
(0.003806519 -0.0001011628 -0.006117151)
(0.0005305167 -0.001979597 -0.009399487)
(0.000676158 -0.00272764 -0.008322406)
(0.0005150066 -0.003487556 -0.005187521)
(0.3206665 1.928577e-05 -1.158762e-05)
(0.658249 3.4612e-05 -9.461781e-05)
(0.8578458 2.417568e-05 -0.0002693718)
(0.9757852 2.522821e-05 -0.0005620722)
(1.032404 -4.146149e-05 -0.0009797813)