/*--------------------------------*- C++ -*----------------------------------*\
| =========                 |                                                 |
| \\      /  F ield         | OpenFOAM: The Open Source CFD Toolbox           |
|  \\    /   O peration     | Version:  2306                                  |
|   \\  /    A nd           | Website:  www.openfoam.com                      |
|    \\/     M anipulation  |                                                 |
\*---------------------------------------------------------------------------*/
FoamFile
{
    version     2.0;
    format      ascii;
    arch        "LSB;label=32;scalar=64";
    class       volScalarField;
    location    "1.2/air";
    object      X.N2;
}
// * * * * * * * * * * * * * * * * * * * * * * * * * * * * * * * * * * * * * //

dimensions      [0 0 0 0 0 0 0];

internalField   nonuniform List<scalar> 
16000
(
0.7931142
0.7931051
0.7947644
0.7931575
0.793094
0.7946671
0.7931427
0.7975265
0.7948909
0.7932627
0.793085
0.7945373
0.7931262
0.7974201
0.7947631
0.7932344
0.8003034
0.7976666
0.7952135
0.7934657
0.7930802
0.7944241
0.7931139
0.7972746
0.7946
0.7932031
0.8001995
0.7975288
0.7950484
0.7934136
0.8029684
0.8004422
0.7980146
0.7957928
0.793831
0.7930802
0.7943598
0.7931075
0.7971453
0.7944618
0.7931804
0.8000571
0.7973483
0.7948393
0.7933537
0.8028698
0.8003082
0.7978402
0.7955938
0.7937458
0.8054947
0.8031001
0.8007852
0.7986284
0.796675
0.7944487
0.8295679
0.793085
0.7943598
0.7931075
0.7970709
0.7943843
0.7931688
0.7999302
0.7971919
0.7946632
0.793309
0.8027347
0.8001323
0.7976147
0.7953383
0.7936396
0.8054019
0.802973
0.8006173
0.7984219
0.7964483
0.7943338
0.8078857
0.805619
0.803425
0.8013869
0.7995532
0.7978992
0.7954187
0.8283431
0.831143
0.8297614
0.793094
0.7944241
0.7931139
0.7970709
0.7943843
0.7931688
0.7998571
0.797103
0.794565
0.7932861
0.8026144
0.7999796
0.7974214
0.795121
0.7935569
0.8052748
0.8028064
0.8003998
0.798154
0.7961543
0.7941809
0.8077981
0.8054995
0.8032664
0.8011906
0.7993213
0.7976403
0.7952682
0.8101546
0.8080028
0.8059257
0.8039941
0.802287
0.8008218
0.7995155
0.7968749
0.8258679
0.8300496
0.8285411
0.8318585
0.8313193
0.8301476
0.7931051
0.7945373
0.7931262
0.7971453
0.7944618
0.7931804
0.7998571
0.797103
0.794565
0.7932861
0.802545
0.7998925
0.7973122
0.7949991
0.7935136
0.8051617
0.8026618
0.800213
0.797924
0.7958994
0.7940495
0.8076782
0.8053429
0.8030613
0.8009358
0.7990177
0.7973026
0.7950587
0.8100717
0.80789
0.8057765
0.8038095
0.8020699
0.8005685
0.7992167
0.796654
0.8123145
0.8102654
0.8082918
0.8064625
0.8048435
0.803511
0.8024575
0.8015762
0.7990235
0.8220493
0.8278453
0.8260817
0.8308475
0.8302293
0.8289353
0.8324592
0.8320205
0.8316715
0.8307254
0.7931142
0.7946671
0.7931427
0.7972746
0.7946
0.7932031
0.7999302
0.7971919
0.7946632
0.793309
0.802545
0.7998925
0.7973122
0.7949991
0.7935136
0.8050965
0.8025795
0.8001072
0.7977942
0.7957547
0.7939757
0.8075715
0.8052069
0.8028852
0.8007168
0.7987558
0.7970122
0.7948736
0.8099582
0.8077422
0.8055839
0.8035704
0.8017859
0.8002335
0.798825
0.7963489
0.8122357
0.8101587
0.808151
0.8062891
0.8046403
0.8032779
0.8021779
0.8012076
0.7986124
0.814377
0.8124196
0.8105391
0.8087978
0.8072634
0.8059955
0.8050736
0.8044829
0.8041542
0.8022517
0.816525
0.82446
0.8223228
0.8288101
0.8280374
0.8265021
0.831518
0.8310124
0.8305873
0.8295226
0.8331258
0.8326097
0.8323439
0.8321983
0.8314932
0.7947644
0.7931575
0.7974201
0.7947631
0.7932344
0.8000571
0.7973483
0.7948393
0.7933537
0.8026144
0.7999796
0.7974214
0.795121
0.7935569
0.8050965
0.8025795
0.8001072
0.7977942
0.7957547
0.7939757
0.80751
0.8051296
0.8027856
0.8005929
0.7986075
0.7968478
0.7947676
0.8098573
0.807614
0.8054185
0.8033652
0.8015403
0.7999428
0.7984887
0.7960853
0.8121279
0.8100188
0.8079693
0.8060648
0.804375
0.8029692
0.8018055
0.8007316
0.7981149
0.814302
0.8123182
0.8104058
0.8086341
0.8070727
0.805778
0.8048194
0.8041476
0.803616
0.8012728
0.8163524
0.8144772
0.8126794
0.8110182
0.8095529
0.8083491
0.8074628
0.8069887
0.8069437
0.8074066
0.8075096
0.8196032
0.8170903
0.8256832
0.8247011
0.8228321
0.8296215
0.828986
0.8284158
0.827119
0.832243
0.8316712
0.8313409
0.8311212
0.8303001
0.8339074
0.8332668
0.8329104
0.832828
0.832899
0.8325979
0.7975265
0.7948909
0.7932627
0.8001995
0.7975288
0.7950484
0.7934136
0.8027347
0.8001323
0.7976147
0.7953383
0.7936396
0.8051617
0.8026618
0.800213
0.797924
0.7958994
0.7940495
0.80751
0.8051296
0.8027856
0.8005929
0.7986075
0.7968478
0.7947676
0.8097991
0.8075411
0.805325
0.8032493
0.801401
0.7997778
0.7982989
0.7959366
0.812032
0.8098976
0.8078133
0.8058723
0.8041462
0.8027008
0.801482
0.8003294
0.7977209
0.8141993
0.8121853
0.8102337
0.8084224
0.8068239
0.8054908
0.8044799
0.8037079
0.8029783
0.8003958
0.8162807
0.8143806
0.8125527
0.8108631
0.8093727
0.8081449
0.8072258
0.8066842
0.8064552
0.8063806
0.8047111
0.8182483
0.8164481
0.8147247
0.8131344
0.8117335
0.8105769
0.8097312
0.8092581
0.8092943
0.8099749
0.811803
0.8101351
0.8212016
0.820088
0.8179325
0.826712
0.8259035
0.8251517
0.8235377
0.8304646
0.8297847
0.8293325
0.8289721
0.8279229
0.8330753
0.8323865
0.8319763
0.8318309
0.8318285
0.8314149
0.8347662
0.8340404
0.8335486
0.8333603
0.8334718
0.8339074
0.8328255
0.8003034
0.7976666
0.7952135
0.7934657
0.8028698
0.8003082
0.7978402
0.7955938
0.7937458
0.8052748
0.8028064
0.8003998
0.798154
0.7961543
0.7941809
0.8075715
0.8052069
0.8028852
0.8007168
0.7987558
0.7970122
0.7948736
0.8097991
0.8075411
0.805325
0.8032493
0.801401
0.7997778
0.7982989
0.7959366
0.8119767
0.8098285
0.8077252
0.8057635
0.8040166
0.8025481
0.8012986
0.8001048
0.7975092
0.8141079
0.8120701
0.8100861
0.8082409
0.8066094
0.8052417
0.8041842
0.8033328
0.802469
0.7997968
0.8161825
0.814254
0.8123892
0.8106626
0.8091377
0.8078756
0.8069102
0.8062837
0.8058716
0.805426
0.8032253
0.8181797
0.8163557
0.814604
0.8129869
0.8115625
0.8103837
0.8095086
0.8089736
0.8088462
0.8090335
0.8092346
0.8068468
0.8200719
0.81834
0.8166845
0.8151584
0.8138138
0.8127039
0.8118812
0.8114217
0.8114175
0.8121157
0.8140154
0.8140134
0.8121754
0.8225445
0.821645
0.8208149
0.8189118
0.8277368
0.8269161
0.8263151
0.8257787
0.8244098
0.8313991
0.8306174
0.8301062
0.829842
0.8296985
0.82906
0.8339781
0.8332106
0.8326724
0.8324314
0.8324801
0.8328433
0.8316445
0.8356848
0.8348922
0.8343061
0.8339704
0.8339588
0.8343986
0.8341152
0.833055
0.8029684
0.8004422
0.7980146
0.7957928
0.793831
0.8054019
0.802973
0.8006173
0.7984219
0.7964483
0.7943338
0.8076782
0.8053429
0.8030613
0.8009358
0.7990177
0.7973026
0.7950587
0.8098573
0.807614
0.8054185
0.8033652
0.8015403
0.7999428
0.7984887
0.7960853
0.8119767
0.8098285
0.8077252
0.8057635
0.8040166
0.8025481
0.8012986
0.8001048
0.7975092
0.8140553
0.8120046
0.8100027
0.8081383
0.806488
0.8051002
0.8040161
0.8031225
0.8021933
0.7994974
0.8160952
0.8141442
0.8122489
0.8104907
0.8089354
0.807642
0.806636
0.8059411
0.8054029
0.8047486
0.8023642
0.8180856
0.8162346
0.8144481
0.8127962
0.8113398
0.810129
0.8092122
0.8086005
0.8083104
0.8081561
0.8077824
0.8050467
0.820006
0.8182514
0.816569
0.8150176
0.8136511
0.8125204
0.8116701
0.811154
0.8109979
0.8112436
0.8116463
0.8110293
0.8087377
0.8218291
0.8201598
0.8185664
0.8170988
0.8158061
0.8147361
0.8139407
0.8134778
0.8134548
0.8140598
0.8158663
0.8160438
0.8157416
0.8138439
0.8238305
0.8229551
0.822309
0.8216666
0.8199612
0.8288283
0.8279277
0.8272975
0.8268879
0.8265571
0.8255894
0.8323904
0.831543
0.8309184
0.8305789
0.8305074
0.8307276
0.8292941
0.8349357
0.8341062
0.8334801
0.8330989
0.8330347
0.8334118
0.8330523
0.831876
0.8366391
0.8358046
0.8351439
0.8347039
0.8345315
0.8348206
0.8345896
0.8343247
0.8332864
0.8054947
0.8031001
0.8007852
0.7986284
0.796675
0.7944487
0.8077981
0.8054995
0.8032664
0.8011906
0.7993213
0.7976403
0.7952682
0.8099582
0.8077422
0.8055839
0.8035704
0.8017859
0.8002335
0.798825
0.7963489
0.812032
0.8098976
0.8078133
0.8058723
0.8041462
0.8027008
0.801482
0.8003294
0.7977209
0.8140553
0.8120046
0.8100027
0.8081383
0.806488
0.8051002
0.8040161
0.8031225
0.8021933
0.7994974
0.8160449
0.8140817
0.8121697
0.8103935
0.8088209
0.8075094
0.8064804
0.8057488
0.8051487
0.8044021
0.8019607
0.818002
0.8161297
0.8143144
0.8126327
0.811148
0.8099084
0.8089548
0.8082821
0.8078798
0.8075323
0.8069008
0.8040306
0.8199157
0.8181355
0.81642
0.8148358
0.8134391
0.8122787
0.8113895
0.810803
0.810497
0.8104316
0.810305
0.8093175
0.8067336
0.8217657
0.8200749
0.8184557
0.8169641
0.8156508
0.8145612
0.81374
0.8132237
0.8130592
0.813242
0.8136642
0.813288
0.8126267
0.8103928
0.823525
0.8219136
0.8203771
0.8189632
0.8177178
0.8166857
0.8159123
0.8154555
0.8153998
0.8159425
0.8175722
0.817748
0.817626
0.8171654
0.8152517
0.8251474
0.8242145
0.82357
0.823086
0.8225867
0.8212211
0.8299557
0.829008
0.8282845
0.8278282
0.8275989
0.8276144
0.8258318
0.8334266
0.8325268
0.8318267
0.8313611
0.8311965
0.8314503
0.8309395
0.82953
0.8359248
0.8350575
0.8343615
0.8338822
0.8336643
0.8339004
0.8336038
0.8332631
0.8321094
0.8376176
0.8367534
0.836044
0.8355208
0.8352331
0.8353395
0.8349981
0.8347821
0.834536
0.8335198
0.8078857
0.805619
0.803425
0.8013869
0.7995532
0.7978992
0.7954187
0.8100717
0.80789
0.8057765
0.8038095
0.8020699
0.8005685
0.7992167
0.796654
0.8121279
0.8100188
0.8079693
0.8060648
0.804375
0.8029692
0.8018055
0.8007316
0.7981149
0.8141079
0.8120701
0.8100861
0.8082409
0.8066094
0.8052417
0.8041842
0.8033328
0.802469
0.7997968
0.8160449
0.8140817
0.8121697
0.8103935
0.8088209
0.8075094
0.8064804
0.8057488
0.8051487
0.8044021
0.8019607
0.8179538
0.8160701
0.8142389
0.8125404
0.8110394
0.8097832
0.8088088
0.8081036
0.807646
0.8072128
0.806476
0.8035636
0.8198355
0.8180351
0.8162922
0.8146799
0.8132566
0.8120693
0.811146
0.8105034
0.8100953
0.8098545
0.8094897
0.808312
0.8055995
0.821679
0.8199636
0.8183129
0.8167902
0.8154484
0.8143308
0.8134732
0.8128908
0.8125871
0.8124812
0.8124182
0.8117047
0.8107438
0.8082729
0.823464
0.8218319
0.8202708
0.8188341
0.8175691
0.8165186
0.8157207
0.8152137
0.8150243
0.8151714
0.8155073
0.8151848
0.8147461
0.8140323
0.8118289
0.8251642
0.8236064
0.8221225
0.8207579
0.8195562
0.8185588
0.817808
0.8173539
0.8172801
0.8177538
0.8192506
0.8193339
0.8192143
0.8189258
0.8183772
0.8166378
0.82647
0.8255088
0.8247895
0.8242892
0.8239243
0.8237002
0.8214788
0.8311125
0.8301258
0.8293439
0.8287809
0.8284871
0.8285646
0.8278317
0.8260757
0.8344859
0.8335562
0.8327953
0.8322438
0.8319394
0.8320716
0.8316444
0.831153
0.8297678
0.8369347
0.8360409
0.8353002
0.8347424
0.8344153
0.8344757
0.8340787
0.8337973
0.8334756
0.8323447
0.838609
0.8377268
0.8369816
0.8364023
0.8360222
0.8359951
0.8355059
0.8351771
0.8349763
0.834749
0.8338046
0.8101546
0.8080028
0.8059257
0.8039941
0.802287
0.8008218
0.7995155
0.7968749
0.8122357
0.8101587
0.808151
0.8062891
0.8046403
0.8032779
0.8021779
0.8012076
0.7986124
0.8141993
0.8121853
0.8102337
0.8084224
0.8068239
0.8054908
0.8044799
0.8037079
0.8029783
0.8003958
0.8160952
0.8141442
0.8122489
0.8104907
0.8089354
0.807642
0.806636
0.8059411
0.8054029
0.8047486
0.8023642
0.8179538
0.8160701
0.8142389
0.8125404
0.8110394
0.8097832
0.8088088
0.8081036
0.807646
0.8072128
0.806476
0.8035636
0.8197893
0.8179779
0.81622
0.8145919
0.8131533
0.8119504
0.8110079
0.8103355
0.8098775
0.8095589
0.8090965
0.8078379
0.8050818
0.8216018
0.8198672
0.8181905
0.8166411
0.8152742
0.8141313
0.8132417
0.812607
0.8122084
0.8119412
0.8116612
0.8107733
0.8096417
0.8070607
0.8233804
0.8217249
0.8201338
0.8186674
0.8173754
0.8162985
0.8154661
0.8148969
0.8145765
0.8144538
0.8143389
0.8137123
0.8130022
0.8120489
0.8096594
0.8251053
0.8235277
0.8220203
0.820634
0.8194136
0.8183987
0.8176248
0.8171229
0.8169227
0.8170225
0.8173037
0.8169301
0.8165343
0.8160256
0.8152585
0.8132504
0.8267506
0.8252427
0.8238076
0.8224887
0.8213273
0.8203622
0.8196322
0.8191843
0.8190916
0.8195161
0.8208856
0.8209095
0.8207059
0.8204176
0.8200286
0.8195819
0.8169189
0.8277997
0.8268118
0.8260499
0.8254619
0.8250649
0.8249374
0.823928
0.8217368
0.8322794
0.8312741
0.8304437
0.8298114
0.8293974
0.8293819
0.8287631
0.8280504
0.826321
0.8355592
0.8346094
0.8338114
0.8331902
0.8327888
0.832759
0.8322518
0.83184
0.8313682
0.8300073
0.8379547
0.8370457
0.8362723
0.8356623
0.8352473
0.8351803
0.8346428
0.8342585
0.8339924
0.8336899
0.8326319
0.8396067
0.8387137
0.8379451
0.8373234
0.8368791
0.8367442
0.8361521
0.8356737
0.8353576
0.8351721
0.835009
0.8340958
0.8123145
0.8102654
0.8082918
0.8064625
0.8048435
0.803511
0.8024575
0.8015762
0.7990235
0.814302
0.8123182
0.8104058
0.8086341
0.8070727
0.805778
0.8048194
0.8041476
0.803616
0.8012728
0.8161825
0.814254
0.8123892
0.8106626
0.8091377
0.8078756
0.8069102
0.8062837
0.8058716
0.805426
0.8032253
0.818002
0.8161297
0.8143144
0.8126327
0.811148
0.8099084
0.8089548
0.8082821
0.8078798
0.8075323
0.8069008
0.8040306
0.8197893
0.8179779
0.81622
0.8145919
0.8131533
0.8119504
0.8110079
0.8103355
0.8098775
0.8095589
0.8090965
0.8078379
0.8050818
0.8215573
0.8198123
0.8181214
0.8165569
0.8151756
0.8140181
0.8131104
0.8124481
0.8120032
0.8116649
0.8112962
0.8103336
0.809127
0.8065081
0.8233061
0.8216322
0.8200163
0.8185245
0.8172087
0.8161078
0.8152453
0.8146268
0.8142175
0.8139444
0.8136294
0.8128463
0.8119799
0.8108807
0.8084082
0.8250247
0.8234247
0.8218885
0.8204738
0.8192278
0.8181878
0.8173812
0.8168203
0.8164964
0.816342
0.8162017
0.8155489
0.8149112
0.8141863
0.8132271
0.811084
0.8266937
0.8251668
0.8237091
0.8223695
0.8211902
0.8202084
0.8194565
0.8189631
0.8187503
0.8188204
0.8190408
0.818643
0.8181921
0.8177173
0.817138
0.8164787
0.8135387
0.8282877
0.8268263
0.8254367
0.8241603
0.8230363
0.8221011
0.8213912
0.8209493
0.8208441
0.8212225
0.822492
0.8224559
0.822201
0.8218312
0.8214374
0.8211207
0.8198264
0.8171982
0.8291207
0.8281243
0.8273237
0.8266827
0.826187
0.8260019
0.8251446
0.8241562
0.8219952
0.8334499
0.8324333
0.8315761
0.8308861
0.8303919
0.8302346
0.8295658
0.8289628
0.8282704
0.8265678
0.8366368
0.8356772
0.8348526
0.8341867
0.8337063
0.8335612
0.8329278
0.8324334
0.8320372
0.8315851
0.8302994
0.8389786
0.8380611
0.837267
0.8366177
0.8361424
0.8359721
0.8353379
0.8348113
0.8344398
0.8341891
0.8339513
0.8329255
0.8406058
0.8397073
0.8389228
0.8382719
0.8377782
0.8375656
0.8368929
0.8363104
0.835843
0.8355396
0.835411
0.8352747
0.834317
0.814377
0.8124196
0.8105391
0.8087978
0.8072634
0.8059955
0.8050736
0.8044829
0.8041542
0.8022517
0.8162807
0.8143806
0.8125527
0.8108631
0.8093727
0.8081449
0.8072258
0.8066842
0.8064552
0.8063806
0.8047111
0.8180856
0.8162346
0.8144481
0.8127962
0.8113398
0.810129
0.8092122
0.8086005
0.8083104
0.8081561
0.8077824
0.8050467
0.8198355
0.8180351
0.8162922
0.8146799
0.8132566
0.8120693
0.811146
0.8105034
0.8100953
0.8098545
0.8094897
0.808312
0.8055995
0.8215573
0.8198123
0.8181214
0.8165569
0.8151756
0.8140181
0.8131104
0.8124481
0.8120032
0.8116649
0.8112962
0.8103336
0.809127
0.8065081
0.8232633
0.8215795
0.8199499
0.8184438
0.8171143
0.8159997
0.8151202
0.8144755
0.814023
0.8136837
0.8132875
0.8124376
0.8115018
0.8103367
0.8078375
0.824953
0.8233354
0.8217755
0.8203367
0.8190679
0.8180052
0.8171701
0.8165625
0.8161546
0.8158591
0.8155324
0.8147368
0.8139597
0.8131009
0.8120228
0.8098315
0.8266158
0.8250674
0.8235821
0.8222154
0.8210116
0.820006
0.819223
0.8186736
0.8183431
0.8181727
0.8179961
0.8173402
0.8166692
0.8160041
0.8152513
0.814439
0.8113734
0.8282327
0.826753
0.8253417
0.8240453
0.8229043
0.8219533
0.8212224
0.8207371
0.8205173
0.8205585
0.8207377
0.8203083
0.8198306
0.8192977
0.8187444
0.8182395
0.8167263
0.8138251
0.8297787
0.828361
0.8270137
0.8257769
0.8246877
0.8237807
0.8230896
0.8226543
0.8225384
0.8228803
0.8240597
0.823984
0.8236781
0.82326
0.8227841
0.8224456
0.8213422
0.8200694
0.8174756
0.8304304
0.82943
0.8286105
0.8279224
0.827365
0.8270627
0.8261935
0.8253522
0.8243848
0.822254
0.8346158
0.833597
0.8327211
0.8319963
0.8314355
0.8311804
0.8304067
0.8297509
0.8291637
0.8284917
0.8268682
0.8377134
0.8367498
0.8359097
0.8352105
0.8346772
0.8344377
0.8337202
0.8330978
0.8326164
0.8322359
0.8318495
0.8305982
0.8400017
0.8390808
0.8382731
0.8375971
0.8370755
0.8368314
0.8361213
0.8354968
0.8349812
0.8346226
0.8344291
0.8342185
0.8331486
0.8416027
0.8407025
0.8399081
0.839236
0.8387067
0.8384329
0.8377071
0.8370429
0.83647
0.8360136
0.8357618
0.8356551
0.8354763
0.8344669
0.8163524
0.8144772
0.8126794
0.8110182
0.8095529
0.8083491
0.8074628
0.8069887
0.8069437
0.8074066
0.8075096
0.8181797
0.8163557
0.814604
0.8129869
0.8115625
0.8103837
0.8095086
0.8089736
0.8088462
0.8090335
0.8092346
0.8068468
0.8199157
0.8181355
0.81642
0.8148358
0.8134391
0.8122787
0.8113895
0.810803
0.810497
0.8104316
0.810305
0.8093175
0.8067336
0.8216018
0.8198672
0.8181905
0.8166411
0.8152742
0.8141313
0.8132417
0.812607
0.8122084
0.8119412
0.8116612
0.8107733
0.8096417
0.8070607
0.8232633
0.8215795
0.8199499
0.8184438
0.8171143
0.8159997
0.8151202
0.8144755
0.814023
0.8136837
0.8132875
0.8124376
0.8115018
0.8103367
0.8078375
0.8249117
0.8232846
0.8217117
0.8202592
0.8189774
0.8179016
0.8170504
0.8164181
0.8159694
0.8156119
0.8152098
0.8143536
0.8135148
0.8125949
0.8114622
0.8092599
0.8265466
0.8249812
0.8234733
0.8220834
0.820858
0.8198308
0.8190206
0.8184268
0.8180167
0.8177131
0.8173616
0.8165741
0.8157766
0.8149932
0.8141307
0.8132264
0.8101209
0.8281573
0.826657
0.8252192
0.8238969
0.8227325
0.8217587
0.8209981
0.8204593
0.8201276
0.8199403
0.8197439
0.8190734
0.8183942
0.81769
0.8169861
0.8163414
0.8146852
0.8116614
0.8297255
0.82829
0.8269219
0.825666
0.8245605
0.8236383
0.8229271
0.8224504
0.8222249
0.822245
0.8223862
0.8219418
0.821432
0.8208708
0.8202569
0.8197597
0.818463
0.8169722
0.8141096
0.8312267
0.8298497
0.8285421
0.8273423
0.8262857
0.825405
0.8247318
0.8243033
0.824179
0.8244888
0.8255922
0.8254819
0.825145
0.8246801
0.8241565
0.8237255
0.8226501
0.8215624
0.8203108
0.8177513
0.8317228
0.830726
0.8298932
0.829179
0.8285679
0.828189
0.8272418
0.8263855
0.8255602
0.8246137
0.8225677
0.8357732
0.8347567
0.833872
0.8331217
0.8325183
0.8321817
0.8313424
0.8305798
0.8299371
0.8293659
0.8287612
0.8271756
0.8387849
0.8378219
0.8369726
0.8362518
0.8356781
0.8353724
0.8345883
0.8338805
0.8332692
0.8328008
0.8324782
0.8321198
0.8308252
0.8410209
0.8401
0.8392843
0.8385894
0.8380348
0.8377325
0.8369733
0.8362718
0.835657
0.8351525
0.8348457
0.8346743
0.8344213
0.8332997
0.8425949
0.8416959
0.8408957
0.8402088
0.8396527
0.8393328
0.8385678
0.8378497
0.8371941
0.836631
0.8362219
0.8359886
0.8358403
0.8356128
0.8345433
0.816525
0.8182483
0.8164481
0.8147247
0.8131344
0.8117335
0.8105769
0.8097312
0.8092581
0.8092943
0.8099749
0.811803
0.8101351
0.820006
0.8182514
0.816569
0.8150176
0.8136511
0.8125204
0.8116701
0.811154
0.8109979
0.8112436
0.8116463
0.8110293
0.8087377
0.821679
0.8199636
0.8183129
0.8167902
0.8154484
0.8143308
0.8134732
0.8128908
0.8125871
0.8124812
0.8124182
0.8117047
0.8107438
0.8082729
0.8233061
0.8216322
0.8200163
0.8185245
0.8172087
0.8161078
0.8152453
0.8146268
0.8142175
0.8139444
0.8136294
0.8128463
0.8119799
0.8108807
0.8084082
0.8249117
0.8232846
0.8217117
0.8202592
0.8189774
0.8179016
0.8170504
0.8164181
0.8159694
0.8156119
0.8152098
0.8143536
0.8135148
0.8125949
0.8114622
0.8092599
0.8265067
0.8249322
0.8234118
0.8220089
0.8207711
0.8197314
0.8189058
0.8182886
0.81784
0.8174778
0.8170558
0.8162125
0.8153593
0.8145219
0.8136083
0.8126618
0.8095494
0.8280904
0.8265738
0.8251142
0.8237697
0.8225846
0.8215902
0.8208037
0.8202226
0.8198152
0.8195014
0.8191402
0.8183471
0.817552
0.8167414
0.8159415
0.8152107
0.8134713
0.8104094
0.8296525
0.8281972
0.8268036
0.8255227
0.8243948
0.8234508
0.8227113
0.8221834
0.821851
0.8216534
0.8214378
0.8207672
0.8200705
0.8193543
0.8186065
0.8179895
0.8165629
0.8149302
0.811948
0.831175
0.829781
0.8284534
0.8272351
0.8261629
0.8252676
0.8245752
0.8241069
0.8238777
0.8238796
0.8239918
0.8235339
0.8230092
0.822416
0.821773
0.8212042
0.8199656
0.8186849
0.8172166
0.8143922
0.832634
0.8312954
0.8300251
0.8288599
0.8278339
0.8269778
0.8263216
0.8259
0.8257688
0.8260509
0.827087
0.8269516
0.8265885
0.8260966
0.8255281
0.8250419
0.8239164
0.8228534
0.8217811
0.8205508
0.8180828
0.8329959
0.8320058
0.8311685
0.830435
0.829792
0.8293473
0.8283576
0.8274212
0.8265778
0.8257685
0.8248914
0.8228885
0.836919
0.8359084
0.8350201
0.8342547
0.8336191
0.8332272
0.832335
0.8315054
0.830754
0.8301244
0.829612
0.8290367
0.8274091
0.8398487
0.8388893
0.8380357
0.8373003
0.8366988
0.8363409
0.8355155
0.83474
0.834042
0.8334419
0.8330257
0.8327257
0.832325
0.8309791
0.8420335
0.8411155
0.8402957
0.839588
0.8390088
0.838663
0.8378679
0.8371164
0.8364236
0.8358185
0.8353616
0.8350734
0.8348603
0.8345586
0.8333769
0.8435804
0.8426847
0.8418819
0.8411848
0.8406089
0.8402526
0.8394617
0.8387038
0.8379935
0.8373466
0.8368274
0.8364345
0.8361607
0.8359655
0.8356824
0.8220493
0.8196032
0.8170903
0.8200719
0.81834
0.8166845
0.8151584
0.8138138
0.8127039
0.8118812
0.8114217
0.8114175
0.8121157
0.8140154
0.8140134
0.8121754
0.8217657
0.8200749
0.8184557
0.8169641
0.8156508
0.8145612
0.81374
0.8132237
0.8130592
0.813242
0.8136642
0.813288
0.8126267
0.8103928
0.8233804
0.8217249
0.8201338
0.8186674
0.8173754
0.8162985
0.8154661
0.8148969
0.8145765
0.8144538
0.8143389
0.8137123
0.8130022
0.8120489
0.8096594
0.824953
0.8233354
0.8217755
0.8203367
0.8190679
0.8180052
0.8171701
0.8165625
0.8161546
0.8158591
0.8155324
0.8147368
0.8139597
0.8131009
0.8120228
0.8098315
0.8265067
0.8249322
0.8234118
0.8220089
0.8207711
0.8197314
0.8189058
0.8182886
0.81784
0.8174778
0.8170558
0.8162125
0.8153593
0.8145219
0.8136083
0.8126618
0.8095494
0.8280518
0.8265265
0.8250548
0.8236979
0.822501
0.8214946
0.8206935
0.8200901
0.819646
0.8192769
0.8188492
0.8180043
0.8171583
0.8162991
0.8154546
0.8146833
0.812906
0.809838
0.8295877
0.8281167
0.8267021
0.8254
0.8242523
0.8232886
0.8225243
0.821956
0.8215514
0.8212335
0.8208616
0.8200762
0.8192722
0.8184592
0.817626
0.8169346
0.8154303
0.8137151
0.8106967
0.8311043
0.8296911
0.8283389
0.8270967
0.826003
0.8250868
0.8243673
0.8238499
0.8235184
0.8233123
0.8230845
0.8224131
0.8217142
0.8209786
0.820216
0.819542
0.8181933
0.8167831
0.8151739
0.8122331
0.8325839
0.8312288
0.8299391
0.8287562
0.8277151
0.8268451
0.8261705
0.8257107
0.8254788
0.8254657
0.8255529
0.8250886
0.8245511
0.8239437
0.8232692
0.8226634
0.8213963
0.8201701
0.8189053
0.8174593
0.814732
0.8340034
0.8327008
0.8314654
0.8303328
0.8293354
0.8285025
0.8278625
0.8274478
0.8273111
0.8275688
0.8285451
0.8283892
0.828009
0.8274953
0.8269019
0.8263651
0.8252214
0.8241062
0.8230553
0.8219984
0.8208395
0.8184219
0.8342481
0.8332675
0.8324297
0.8316861
0.8310191
0.8305322
0.8295067
0.8285264
0.8276009
0.8267705
0.826021
0.8251752
0.8231324
0.8380515
0.837049
0.8361612
0.8353867
0.8347301
0.8342947
0.8333729
0.8324893
0.8316695
0.8309292
0.8303525
0.8298635
0.8292459
0.8275675
0.8409029
0.8399493
0.8390949
0.8383503
0.8377285
0.8373322
0.8364773
0.8356597
0.8348929
0.8342047
0.8336525
0.8332553
0.8329135
0.832464
0.8310576
0.8430382
0.8421248
0.841304
0.8405878
0.8399906
0.8396107
0.8387924
0.8380043
0.8372607
0.8365766
0.8360156
0.835575
0.8352461
0.8349861
0.8346285
0.844558
0.8436672
0.8428642
0.8421605
0.8415697
0.8411849
0.8403762
0.8395918
0.838841
0.8381385
0.8375327
0.8370279
0.8365957
0.8362769
0.8360292
0.8258679
0.82446
0.8223228
0.8212016
0.820088
0.8179325
0.8218291
0.8201598
0.8185664
0.8170988
0.8158061
0.8147361
0.8139407
0.8134778
0.8134548
0.8140598
0.8158663
0.8160438
0.8157416
0.8138439
0.823464
0.8218319
0.8202708
0.8188341
0.8175691
0.8165186
0.8157207
0.8152137
0.8150243
0.8151714
0.8155073
0.8151848
0.8147461
0.8140323
0.8118289
0.8250247
0.8234247
0.8218885
0.8204738
0.8192278
0.8181878
0.8173812
0.8168203
0.8164964
0.816342
0.8162017
0.8155489
0.8149112
0.8141863
0.8132271
0.811084
0.8265466
0.8249812
0.8234733
0.8220834
0.820858
0.8198308
0.8190206
0.8184268
0.8180167
0.8177131
0.8173616
0.8165741
0.8157766
0.8149932
0.8141307
0.8132264
0.8101209
0.8280518
0.8265265
0.8250548
0.8236979
0.822501
0.8214946
0.8206935
0.8200901
0.819646
0.8192769
0.8188492
0.8180043
0.8171583
0.8162991
0.8154546
0.8146833
0.812906
0.809838
0.8295504
0.8280709
0.8266448
0.8253307
0.8241717
0.8231966
0.8224183
0.8218286
0.8213891
0.8210186
0.8205838
0.81975
0.8188988
0.8180418
0.8171689
0.8164426
0.8149021
0.8131493
0.8101258
0.8310415
0.8296132
0.8282408
0.8269781
0.8258654
0.8249303
0.824187
0.8236311
0.8232304
0.8229095
0.8225333
0.8217537
0.8209547
0.82013
0.8192907
0.8185514
0.8171365
0.815649
0.8139581
0.8109831
0.8325154
0.8311417
0.8298282
0.8286223
0.8275605
0.8266705
0.8259698
0.825463
0.8251329
0.8249206
0.8246831
0.8240165
0.8233155
0.8225764
0.8217933
0.821095
0.819732
0.818396
0.8170022
0.8154165
0.8125766
0.8339547
0.8326362
0.8313821
0.8302323
0.8292204
0.8283742
0.8277164
0.827265
0.8270315
0.8270056
0.8270719
0.8266036
0.8260607
0.8254416
0.8247538
0.8241109
0.822844
0.821587
0.8203732
0.8191242
0.8177512
0.8150796
0.8353368
0.8340682
0.8328657
0.8317637
0.8307932
0.8299823
0.8293575
0.8289497
0.8288085
0.8290446
0.8299674
0.8297952
0.8294021
0.8288755
0.8282626
0.8276966
0.8265349
0.8253999
0.8242947
0.8232559
0.8222598
0.8211346
0.8186796
0.8354787
0.8345091
0.8336742
0.8329253
0.8322442
0.8317242
0.8306836
0.8296664
0.8286955
0.8277809
0.827004
0.8262789
0.8253907
0.8232978
0.8391691
0.8381766
0.837292
0.836513
0.835842
0.8353757
0.8344336
0.8335195
0.8326445
0.8318345
0.8311426
0.8305854
0.8300543
0.8293876
0.8276484
0.841946
0.8409998
0.8401473
0.8393973
0.8387613
0.8383353
0.8374626
0.8366148
0.835805
0.835047
0.8344032
0.8338676
0.8334295
0.8330406
0.8325348
0.8440336
0.8431263
0.8423067
0.8415853
0.840975
0.8405685
0.8397347
0.8389229
0.8381419
0.8374061
0.8367633
0.8362168
0.8357367
0.8353629
0.8350502
0.8455267
0.8446419
0.8438405
0.8431329
0.8425312
0.8421237
0.8413035
0.8405008
0.8397229
0.8389793
0.8383155
0.8377227
0.8371798
0.8367046
0.8363361
0.8283431
0.8278453
0.8260817
0.8256832
0.8247011
0.8228321
0.8225445
0.821645
0.8208149
0.8189118
0.823525
0.8219136
0.8203771
0.8189632
0.8177178
0.8166857
0.8159123
0.8154555
0.8153998
0.8159425
0.8175722
0.817748
0.817626
0.8171654
0.8152517
0.8251053
0.8235277
0.8220203
0.820634
0.8194136
0.8183987
0.8176248
0.8171229
0.8169227
0.8170225
0.8173037
0.8169301
0.8165343
0.8160256
0.8152585
0.8132504
0.8266158
0.8250674
0.8235821
0.8222154
0.8210116
0.820006
0.819223
0.8186736
0.8183431
0.8181727
0.8179961
0.8173402
0.8166692
0.8160041
0.8152513
0.814439
0.8113734
0.8280904
0.8265738
0.8251142
0.8237697
0.8225846
0.8215902
0.8208037
0.8202226
0.8198152
0.8195014
0.8191402
0.8183471
0.817552
0.8167414
0.8159415
0.8152107
0.8134713
0.8104094
0.8295504
0.8280709
0.8266448
0.8253307
0.8241717
0.8231966
0.8224183
0.8218286
0.8213891
0.8210186
0.8205838
0.81975
0.8188988
0.8180418
0.8171689
0.8164426
0.8149021
0.8131493
0.8101258
0.8310053
0.8295688
0.8281853
0.8269112
0.8257876
0.8248416
0.8240849
0.8235085
0.8230744
0.8227034
0.8222675
0.8214424
0.8205995
0.8197344
0.8188593
0.8180894
0.8166436
0.81512
0.8133918
0.8104127
0.8324544
0.8310661
0.8297332
0.8285076
0.8274275
0.8265194
0.8257959
0.825252
0.8248557
0.8245337
0.8241545
0.8233857
0.8225908
0.8217692
0.8209162
0.8201602
0.8187396
0.8173376
0.8158668
0.8142
0.8113284
0.8338881
0.8325516
0.8312746
0.8301026
0.8290708
0.8282053
0.8275225
0.8270258
0.826698
0.826481
0.8262364
0.8255758
0.8248788
0.8241371
0.82335
0.8226242
0.8212736
0.819921
0.8185976
0.8172202
0.8157085
0.8129279
0.8352895
0.8340054
0.8327848
0.8316663
0.8306818
0.829858
0.8292162
0.828773
0.8285385
0.8285019
0.8285501
0.8280805
0.8275347
0.8269115
0.8262134
0.8255528
0.8242816
0.8230233
0.8217765
0.8205749
0.8193873
0.8180497
0.8153438
0.8366365
0.8353998
0.8342284
0.8331551
0.83221
0.8314197
0.8308095
0.8304084
0.8302635
0.8304804
0.8313551
0.8311695
0.8307674
0.8302319
0.8296085
0.8290195
0.8278578
0.8267036
0.8255771
0.8244819
0.8234971
0.8225269
0.8213587
0.8188544
0.8366873
0.83573
0.8349001
0.8341498
0.8334597
0.8329178
0.8318685
0.8308352
0.8298264
0.8288649
0.8279991
0.8272425
0.8264747
0.8255367
0.8233823
0.8402713
0.8392898
0.8384106
0.8376303
0.83695
0.8364603
0.8355084
0.8345733
0.833667
0.8328007
0.8320355
0.8313605
0.8307621
0.8301834
0.8294598
0.8429773
0.8420396
0.8411908
0.8404386
0.8397926
0.8393438
0.8384603
0.8375941
0.8367533
0.8359515
0.835235
0.8346058
0.8340306
0.8335473
0.8331053
0.845019
0.8441188
0.843302
0.8425781
0.8419584
0.8415308
0.8406875
0.8398597
0.8390544
0.8382806
0.8375836
0.8369538
0.8363692
0.835846
0.8354223
0.846486
0.845608
0.8448096
0.8441002
0.8434906
0.8430649
0.8422378
0.8414232
0.8406265
0.8398552
0.8391481
0.838496
0.8378665
0.8372824
0.83676
0.8295679
0.8300496
0.8285411
0.8288101
0.8280374
0.8265021
0.826712
0.8259035
0.8251517
0.8235377
0.8238305
0.8229551
0.822309
0.8216666
0.8199612
0.8251642
0.8236064
0.8221225
0.8207579
0.8195562
0.8185588
0.817808
0.8173539
0.8172801
0.8177538
0.8192506
0.8193339
0.8192143
0.8189258
0.8183772
0.8166378
0.8266937
0.8251668
0.8237091
0.8223695
0.8211902
0.8202084
0.8194565
0.8189631
0.8187503
0.8188204
0.8190408
0.818643
0.8181921
0.8177173
0.817138
0.8164787
0.8135387
0.8281573
0.826657
0.8252192
0.8238969
0.8227325
0.8217587
0.8209981
0.8204593
0.8201276
0.8199403
0.8197439
0.8190734
0.8183942
0.81769
0.8169861
0.8163414
0.8146852
0.8116614
0.8295877
0.8281167
0.8267021
0.8254
0.8242523
0.8232886
0.8225243
0.821956
0.8215514
0.8212335
0.8208616
0.8200762
0.8192722
0.8184592
0.817626
0.8169346
0.8154303
0.8137151
0.8106967
0.8310053
0.8295688
0.8281853
0.8269112
0.8257876
0.8248416
0.8240849
0.8235085
0.8230744
0.8227034
0.8222675
0.8214424
0.8205995
0.8197344
0.8188593
0.8180894
0.8166436
0.81512
0.8133918
0.8104127
0.8324193
0.8310232
0.8296796
0.8284428
0.8273523
0.8264337
0.8256973
0.8251339
0.8247056
0.8243356
0.8238997
0.8230879
0.8222518
0.8213928
0.8205072
0.8197242
0.8182767
0.8168439
0.8153372
0.8136335
0.8107588
0.8338289
0.8324783
0.8311825
0.8299915
0.8289421
0.8280592
0.8273545
0.8268222
0.8264308
0.8261085
0.8257286