/*--------------------------------*- C++ -*----------------------------------*\
| =========                 |                                                 |
| \\      /  F ield         | OpenFOAM: The Open Source CFD Toolbox           |
|  \\    /   O peration     | Version:  2306                                  |
|   \\  /    A nd           | Website:  www.openfoam.com                      |
|    \\/     M anipulation  |                                                 |
\*---------------------------------------------------------------------------*/
FoamFile
{
    version     2.0;
    format      ascii;
    arch        "LSB;label=32;scalar=64";
    class       volScalarField;
    location    "1.2/air";
    object      X.O2;
}
// * * * * * * * * * * * * * * * * * * * * * * * * * * * * * * * * * * * * * //

dimensions      [0 0 0 0 0 0 0];

internalField   nonuniform List<scalar> 
16000
(
0.2068858
0.2068949
0.2052356
0.2068425
0.206906
0.2053329
0.2068573
0.2024735
0.2051091
0.2067373
0.206915
0.2054627
0.2068738
0.2025799
0.2052369
0.2067656
0.1996966
0.2023334
0.2047865
0.2065343
0.2069198
0.2055759
0.2068861
0.2027254
0.2054
0.2067969
0.1998005
0.2024712
0.2049516
0.2065864
0.1970316
0.1995578
0.2019854
0.2042072
0.206169
0.2069198
0.2056402
0.2068925
0.2028547
0.2055382
0.2068196
0.1999429
0.2026517
0.2051607
0.2066463
0.1971302
0.1996918
0.2021598
0.2044062
0.2062542
0.1945053
0.1968999
0.1992148
0.2013716
0.203325
0.2055513
0.1704321
0.206915
0.2056402
0.2068925
0.2029291
0.2056157
0.2068312
0.2000698
0.2028081
0.2053368
0.206691
0.1972653
0.1998677
0.2023853
0.2046617
0.2063604
0.1945981
0.197027
0.1993827
0.2015781
0.2035517
0.2056662
0.1921143
0.194381
0.196575
0.1986131
0.2004468
0.2021008
0.2045813
0.1716569
0.168857
0.1702386
0.206906
0.2055759
0.2068861
0.2029291
0.2056157
0.2068312
0.2001429
0.202897
0.205435
0.2067139
0.1973856
0.2000204
0.2025786
0.204879
0.2064431
0.1947252
0.1971936
0.1996002
0.201846
0.2038457
0.2058191
0.1922019
0.1945005
0.1967336
0.1988094
0.2006787
0.2023597
0.2047318
0.1898454
0.1919972
0.1940743
0.1960059
0.197713
0.1991782
0.2004845
0.2031251
0.1741321
0.1699504
0.1714589
0.1681415
0.1686807
0.1698524
0.2068949
0.2054627
0.2068738
0.2028547
0.2055382
0.2068196
0.2001429
0.202897
0.205435
0.2067139
0.197455
0.2001075
0.2026878
0.2050009
0.2064864
0.1948383
0.1973382
0.199787
0.202076
0.2041006
0.2059505
0.1923218
0.1946571
0.1969387
0.1990642
0.2009823
0.2026974
0.2049413
0.1899283
0.19211
0.1942235
0.1961905
0.1979301
0.1994315
0.2007833
0.203346
0.1876855
0.1897346
0.1917082
0.1935375
0.1951565
0.196489
0.1975425
0.1984238
0.2009765
0.1779507
0.1721547
0.1739183
0.1691525
0.1697707
0.1710647
0.1675408
0.1679795
0.1683285
0.1692746
0.2068858
0.2053329
0.2068573
0.2027254
0.2054
0.2067969
0.2000698
0.2028081
0.2053368
0.206691
0.197455
0.2001075
0.2026878
0.2050009
0.2064864
0.1949035
0.1974205
0.1998928
0.2022058
0.2042453
0.2060243
0.1924285
0.1947931
0.1971148
0.1992832
0.2012442
0.2029878
0.2051264
0.1900418
0.1922578
0.1944161
0.1964296
0.1982141
0.1997665
0.201175
0.2036511
0.1877643
0.1898413
0.191849
0.1937109
0.1953597
0.1967221
0.1978221
0.1987924
0.2013876
0.185623
0.1875804
0.1894609
0.1912022
0.1927366
0.1940045
0.1949264
0.1955171
0.1958458
0.1977483
0.183475
0.17554
0.1776772
0.1711899
0.1719626
0.1734979
0.168482
0.1689876
0.1694127
0.1704774
0.1668742
0.1673903
0.1676561
0.1678017
0.1685068
0.2052356
0.2068425
0.2025799
0.2052369
0.2067656
0.1999429
0.2026517
0.2051607
0.2066463
0.1973856
0.2000204
0.2025786
0.204879
0.2064431
0.1949035
0.1974205
0.1998928
0.2022058
0.2042453
0.2060243
0.19249
0.1948704
0.1972144
0.1994071
0.2013925
0.2031522
0.2052324
0.1901427
0.192386
0.1945815
0.1966348
0.1984597
0.2000572
0.2015113
0.2039147
0.1878721
0.1899812
0.1920307
0.1939352
0.195625
0.1970308
0.1981945
0.1992684
0.2018851
0.185698
0.1876818
0.1895942
0.1913659
0.1929273
0.194222
0.1951806
0.1958524
0.196384
0.1987272
0.1836476
0.1855228
0.1873206
0.1889818
0.1904471
0.1916509
0.1925372
0.1930113
0.1930563
0.1925934
0.1924904
0.1803968
0.1829097
0.1743168
0.1752989
0.1771679
0.1703785
0.171014
0.1715842
0.172881
0.167757
0.1683288
0.1686591
0.1688788
0.1696999
0.1660926
0.1667332
0.1670896
0.167172
0.167101
0.1674021
0.2024735
0.2051091
0.2067373
0.1998005
0.2024712
0.2049516
0.2065864
0.1972653
0.1998677
0.2023853
0.2046617
0.2063604
0.1948383
0.1973382
0.199787
0.202076
0.2041006
0.2059505
0.19249
0.1948704
0.1972144
0.1994071
0.2013925
0.2031522
0.2052324
0.1902009
0.1924589
0.194675
0.1967507
0.198599
0.2002222
0.2017011
0.2040634
0.187968
0.1901024
0.1921867
0.1941277
0.1958538
0.1972992
0.198518
0.1996706
0.2022791
0.1858007
0.1878147
0.1897663
0.1915776
0.1931761
0.1945092
0.1955201
0.1962921
0.1970217
0.1996042
0.1837193
0.1856194
0.1874473
0.1891369
0.1906273
0.1918551
0.1927742
0.1933158
0.1935448
0.1936194
0.1952889
0.1817517
0.1835519
0.1852753
0.1868656
0.1882665
0.1894231
0.1902688
0.1907419
0.1907057
0.1900251
0.188197
0.1898649
0.1787984
0.179912
0.1820675
0.173288
0.1740965
0.1748483
0.1764623
0.1695354
0.1702153
0.1706675
0.1710279
0.1720771
0.1669247
0.1676135
0.1680237
0.1681691
0.1681715
0.1685851
0.1652338
0.1659596
0.1664514
0.1666397
0.1665282
0.1660926
0.1671745
0.1996966
0.2023334
0.2047865
0.2065343
0.1971302
0.1996918
0.2021598
0.2044062
0.2062542
0.1947252
0.1971936
0.1996002
0.201846
0.2038457
0.2058191
0.1924285
0.1947931
0.1971148
0.1992832
0.2012442
0.2029878
0.2051264
0.1902009
0.1924589
0.194675
0.1967507
0.198599
0.2002222
0.2017011
0.2040634
0.1880233
0.1901715
0.1922748
0.1942365
0.1959834
0.1974519
0.1987014
0.1998952
0.2024908
0.1858921
0.1879299
0.1899139
0.1917591
0.1933906
0.1947583
0.1958158
0.1966672
0.197531
0.2002032
0.1838175
0.185746
0.1876108
0.1893374
0.1908623
0.1921244
0.1930898
0.1937163
0.1941284
0.194574
0.1967747
0.1818203
0.1836443
0.185396
0.1870131
0.1884375
0.1896163
0.1904914
0.1910264
0.1911538
0.1909665
0.1907654
0.1931532
0.1799281
0.18166
0.1833155
0.1848416
0.1861862
0.1872961
0.1881188
0.1885783
0.1885825
0.1878843
0.1859846
0.1859866
0.1878246
0.1774555
0.178355
0.1791851
0.1810882
0.1722632
0.1730839
0.1736849
0.1742213
0.1755902
0.1686009
0.1693826
0.1698938
0.170158
0.1703015
0.17094
0.1660219
0.1667894
0.1673276
0.1675686
0.1675199
0.1671567
0.1683555
0.1643152
0.1651078
0.1656939
0.1660296
0.1660412
0.1656014
0.1658848
0.166945
0.1970316
0.1995578
0.2019854
0.2042072
0.206169
0.1945981
0.197027
0.1993827
0.2015781
0.2035517
0.2056662
0.1923218
0.1946571
0.1969387
0.1990642
0.2009823
0.2026974
0.2049413
0.1901427
0.192386
0.1945815
0.1966348
0.1984597
0.2000572
0.2015113
0.2039147
0.1880233
0.1901715
0.1922748
0.1942365
0.1959834
0.1974519
0.1987014
0.1998952
0.2024908
0.1859447
0.1879954
0.1899973
0.1918617
0.193512
0.1948998
0.1959839
0.1968775
0.1978067
0.2005026
0.1839048
0.1858558
0.1877511
0.1895093
0.1910646
0.192358
0.193364
0.1940589
0.1945971
0.1952514
0.1976358
0.1819144
0.1837654
0.1855519
0.1872038
0.1886602
0.189871
0.1907878
0.1913995
0.1916896
0.1918439
0.1922176
0.1949533
0.179994
0.1817486
0.183431
0.1849824
0.1863489
0.1874796
0.1883299
0.188846
0.1890021
0.1887564
0.1883537
0.1889707
0.1912623
0.1781709
0.1798402
0.1814336
0.1829012
0.1841939
0.1852639
0.1860593
0.1865222
0.1865452
0.1859402
0.1841337
0.1839562
0.1842584
0.1861561
0.1761695
0.1770449
0.177691
0.1783334
0.1800388
0.1711717
0.1720723
0.1727025
0.1731121
0.1734429
0.1744106
0.1676096
0.168457
0.1690816
0.1694211
0.1694926
0.1692724
0.1707059
0.1650643
0.1658938
0.1665199
0.1669011
0.1669653
0.1665882
0.1669477
0.168124
0.1633609
0.1641954
0.1648561
0.1652961
0.1654685
0.1651794
0.1654104
0.1656753
0.1667136
0.1945053
0.1968999
0.1992148
0.2013716
0.203325
0.2055513
0.1922019
0.1945005
0.1967336
0.1988094
0.2006787
0.2023597
0.2047318
0.1900418
0.1922578
0.1944161
0.1964296
0.1982141
0.1997665
0.201175
0.2036511
0.187968
0.1901024
0.1921867
0.1941277
0.1958538
0.1972992
0.198518
0.1996706
0.2022791
0.1859447
0.1879954
0.1899973
0.1918617
0.193512
0.1948998
0.1959839
0.1968775
0.1978067
0.2005026
0.1839551
0.1859183
0.1878303
0.1896065
0.1911791
0.1924906
0.1935196
0.1942512
0.1948513
0.1955979
0.1980393
0.181998
0.1838703
0.1856856
0.1873673
0.188852
0.1900916
0.1910452
0.1917179
0.1921202
0.1924677
0.1930992
0.1959694
0.1800843
0.1818645
0.18358
0.1851642
0.1865609
0.1877213
0.1886105
0.189197
0.189503
0.1895684
0.189695
0.1906825
0.1932664
0.1782343
0.1799251
0.1815443
0.1830359
0.1843492
0.1854388
0.18626
0.1867763
0.1869408
0.186758
0.1863358
0.186712
0.1873733
0.1896072
0.176475
0.1780864
0.1796229
0.1810368
0.1822822
0.1833143
0.1840877
0.1845445
0.1846002
0.1840575
0.1824278
0.182252
0.182374
0.1828346
0.1847483
0.1748526
0.1757855
0.17643
0.176914
0.1774133
0.1787789
0.1700443
0.170992
0.1717155
0.1721718
0.1724011
0.1723856
0.1741682
0.1665734
0.1674732
0.1681733
0.1686389
0.1688035
0.1685497
0.1690605
0.17047
0.1640752
0.1649425
0.1656385
0.1661178
0.1663357
0.1660996
0.1663962
0.1667369
0.1678906
0.1623824
0.1632466
0.163956
0.1644792
0.1647669
0.1646605
0.1650019
0.1652179
0.165464
0.1664802
0.1921143
0.194381
0.196575
0.1986131
0.2004468
0.2021008
0.2045813
0.1899283
0.19211
0.1942235
0.1961905
0.1979301
0.1994315
0.2007833
0.203346
0.1878721
0.1899812
0.1920307
0.1939352
0.195625
0.1970308
0.1981945
0.1992684
0.2018851
0.1858921
0.1879299
0.1899139
0.1917591
0.1933906
0.1947583
0.1958158
0.1966672
0.197531
0.2002032
0.1839551
0.1859183
0.1878303
0.1896065
0.1911791
0.1924906
0.1935196
0.1942512
0.1948513
0.1955979
0.1980393
0.1820462
0.1839299
0.1857611
0.1874596
0.1889606
0.1902168
0.1911912
0.1918964
0.192354
0.1927872
0.193524
0.1964364
0.1801645
0.1819649
0.1837078
0.1853201
0.1867434
0.1879307
0.188854
0.1894966
0.1899047
0.1901455
0.1905103
0.191688
0.1944005
0.178321
0.1800364
0.1816871
0.1832098
0.1845516
0.1856692
0.1865268
0.1871092
0.1874129
0.1875188
0.1875818
0.1882953
0.1892562
0.1917271
0.176536
0.1781681
0.1797292
0.1811659
0.1824309
0.1834814
0.1842793
0.1847863
0.1849757
0.1848286
0.1844927
0.1848152
0.1852539
0.1859677
0.1881711
0.1748358
0.1763936
0.1778775
0.1792421
0.1804438
0.1814412
0.182192
0.1826461
0.1827199
0.1822462
0.1807494
0.1806661
0.1807857
0.1810742
0.1816228
0.1833622
0.17353
0.1744912
0.1752105
0.1757108
0.1760757
0.1762998
0.1785212
0.1688875
0.1698742
0.1706561
0.1712191
0.1715129
0.1714354
0.1721683
0.1739243
0.1655141
0.1664438
0.1672047
0.1677562
0.1680606
0.1679284
0.1683556
0.168847
0.1702322
0.1630653
0.1639591
0.1646998
0.1652576
0.1655847
0.1655243
0.1659213
0.1662027
0.1665244
0.1676553
0.161391
0.1622732
0.1630184
0.1635977
0.1639778
0.1640049
0.1644941
0.1648229
0.1650237
0.165251
0.1661954
0.1898454
0.1919972
0.1940743
0.1960059
0.197713
0.1991782
0.2004845
0.2031251
0.1877643
0.1898413
0.191849
0.1937109
0.1953597
0.1967221
0.1978221
0.1987924
0.2013876
0.1858007
0.1878147
0.1897663
0.1915776
0.1931761
0.1945092
0.1955201
0.1962921
0.1970217
0.1996042
0.1839048
0.1858558
0.1877511
0.1895093
0.1910646
0.192358
0.193364
0.1940589
0.1945971
0.1952514
0.1976358
0.1820462
0.1839299
0.1857611
0.1874596
0.1889606
0.1902168
0.1911912
0.1918964
0.192354
0.1927872
0.193524
0.1964364
0.1802107
0.1820221
0.18378
0.1854081
0.1868467
0.1880496
0.1889921
0.1896645
0.1901225
0.1904411
0.1909035
0.1921621
0.1949182
0.1783982
0.1801328
0.1818095
0.1833589
0.1847258
0.1858687
0.1867583
0.187393
0.1877916
0.1880588
0.1883388
0.1892267
0.1903583
0.1929393
0.1766196
0.1782751
0.1798662
0.1813326
0.1826246
0.1837015
0.1845339
0.1851031
0.1854235
0.1855462
0.1856611
0.1862877
0.1869978
0.1879511
0.1903406
0.1748947
0.1764723
0.1779797
0.179366
0.1805864
0.1816013
0.1823752
0.1828771
0.1830773
0.1829775
0.1826963
0.1830699
0.1834657
0.1839744
0.1847415
0.1867496
0.1732494
0.1747573
0.1761924
0.1775113
0.1786727
0.1796378
0.1803678
0.1808157
0.1809084
0.1804839
0.1791144
0.1790905
0.1792941
0.1795824
0.1799714
0.1804181
0.1830811
0.1722003
0.1731882
0.1739501
0.1745381
0.1749351
0.1750626
0.176072
0.1782632
0.1677206
0.1687259
0.1695563
0.1701886
0.1706026
0.1706181
0.1712369
0.1719496
0.173679
0.1644408
0.1653906
0.1661886
0.1668098
0.1672112
0.167241
0.1677482
0.16816
0.1686318
0.1699927
0.1620453
0.1629543
0.1637277
0.1643377
0.1647527
0.1648197
0.1653572
0.1657415
0.1660076
0.1663101
0.1673681
0.1603933
0.1612863
0.1620549
0.1626766
0.1631209
0.1632558
0.1638479
0.1643263
0.1646424
0.1648279
0.164991
0.1659042
0.1876855
0.1897346
0.1917082
0.1935375
0.1951565
0.196489
0.1975425
0.1984238
0.2009765
0.185698
0.1876818
0.1895942
0.1913659
0.1929273
0.194222
0.1951806
0.1958524
0.196384
0.1987272
0.1838175
0.185746
0.1876108
0.1893374
0.1908623
0.1921244
0.1930898
0.1937163
0.1941284
0.194574
0.1967747
0.181998
0.1838703
0.1856856
0.1873673
0.188852
0.1900916
0.1910452
0.1917179
0.1921202
0.1924677
0.1930992
0.1959694
0.1802107
0.1820221
0.18378
0.1854081
0.1868467
0.1880496
0.1889921
0.1896645
0.1901225
0.1904411
0.1909035
0.1921621
0.1949182
0.1784427
0.1801877
0.1818786
0.1834431
0.1848244
0.1859819
0.1868896
0.1875519
0.1879968
0.1883351
0.1887038
0.1896664
0.190873
0.1934919
0.1766939
0.1783678
0.1799837
0.1814755
0.1827913
0.1838922
0.1847547
0.1853732
0.1857825
0.1860556
0.1863706
0.1871537
0.1880201
0.1891193
0.1915918
0.1749753
0.1765753
0.1781115
0.1795262
0.1807722
0.1818122
0.1826188
0.1831797
0.1835036
0.183658
0.1837983
0.1844511
0.1850888
0.1858137
0.1867729
0.188916
0.1733063
0.1748332
0.1762909
0.1776305
0.1788098
0.1797916
0.1805435
0.1810369
0.1812497
0.1811796
0.1809592
0.181357
0.1818079
0.1822827
0.182862
0.1835213
0.1864613
0.1717123
0.1731737
0.1745633
0.1758397
0.1769637
0.1778989
0.1786088
0.1790507
0.1791559
0.1787775
0.177508
0.1775441
0.177799
0.1781688
0.1785626
0.1788793
0.1801736
0.1828018
0.1708793
0.1718757
0.1726763
0.1733173
0.173813
0.1739981
0.1748554
0.1758438
0.1780048
0.1665501
0.1675667
0.1684239
0.1691139
0.1696081
0.1697654
0.1704342
0.1710372
0.1717296
0.1734322
0.1633632
0.1643228
0.1651474
0.1658133
0.1662937
0.1664388
0.1670722
0.1675666
0.1679628
0.1684149
0.1697006
0.1610214
0.1619389
0.162733
0.1633823
0.1638576
0.1640279
0.1646621
0.1651887
0.1655602
0.1658109
0.1660487
0.1670745
0.1593942
0.1602927
0.1610772
0.1617281
0.1622218
0.1624344
0.1631071
0.1636896
0.164157
0.1644604
0.164589
0.1647253
0.165683
0.185623
0.1875804
0.1894609
0.1912022
0.1927366
0.1940045
0.1949264
0.1955171
0.1958458
0.1977483
0.1837193
0.1856194
0.1874473
0.1891369
0.1906273
0.1918551
0.1927742
0.1933158
0.1935448
0.1936194
0.1952889
0.1819144
0.1837654
0.1855519
0.1872038
0.1886602
0.189871
0.1907878
0.1913995
0.1916896
0.1918439
0.1922176
0.1949533
0.1801645
0.1819649
0.1837078
0.1853201
0.1867434
0.1879307
0.188854
0.1894966
0.1899047
0.1901455
0.1905103
0.191688
0.1944005
0.1784427
0.1801877
0.1818786
0.1834431
0.1848244
0.1859819
0.1868896
0.1875519
0.1879968
0.1883351
0.1887038
0.1896664
0.190873
0.1934919
0.1767367
0.1784205
0.1800501
0.1815562
0.1828857
0.1840003
0.1848798
0.1855245
0.185977
0.1863163
0.1867125
0.1875624
0.1884982
0.1896633
0.1921625
0.175047
0.1766646
0.1782245
0.1796633
0.1809321
0.1819948
0.1828299
0.1834375
0.1838454
0.1841409
0.1844676
0.1852632
0.1860403
0.1868991
0.1879772
0.1901685
0.1733842
0.1749326
0.1764179
0.1777846
0.1789884
0.179994
0.180777
0.1813264
0.1816569
0.1818273
0.1820039
0.1826598
0.1833308
0.1839959
0.1847487
0.185561
0.1886266
0.1717673
0.173247
0.1746583
0.1759547
0.1770957
0.1780467
0.1787776
0.1792629
0.1794827
0.1794415
0.1792623
0.1796917
0.1801694
0.1807023
0.1812556
0.1817605
0.1832737
0.1861749
0.1702213
0.171639
0.1729863
0.1742231
0.1753123
0.1762193
0.1769104
0.1773457
0.1774616
0.1771197
0.1759403
0.176016
0.1763219
0.17674
0.1772159
0.1775544
0.1786578
0.1799306
0.1825244
0.1695696
0.17057
0.1713895
0.1720776
0.172635
0.1729373
0.1738065
0.1746478
0.1756152
0.177746
0.1653842
0.166403
0.1672789
0.1680037
0.1685645
0.1688196
0.1695933
0.1702491
0.1708363
0.1715083
0.1731318
0.1622866
0.1632502
0.1640903
0.1647895
0.1653228
0.1655623
0.1662798
0.1669022
0.1673836
0.1677641
0.1681505
0.1694018
0.1599983
0.1609192
0.1617269
0.1624029
0.1629245
0.1631686
0.1638787
0.1645032
0.1650188
0.1653774
0.1655709
0.1657815
0.1668514
0.1583973
0.1592975
0.1600919
0.160764
0.1612933
0.1615671
0.1622929
0.1629571
0.16353
0.1639864
0.1642382
0.1643449
0.1645237
0.1655331
0.1836476
0.1855228
0.1873206
0.1889818
0.1904471
0.1916509
0.1925372
0.1930113
0.1930563
0.1925934
0.1924904
0.1818203
0.1836443
0.185396
0.1870131
0.1884375
0.1896163
0.1904914
0.1910264
0.1911538
0.1909665
0.1907654
0.1931532
0.1800843
0.1818645
0.18358
0.1851642
0.1865609
0.1877213
0.1886105
0.189197
0.189503
0.1895684
0.189695
0.1906825
0.1932664
0.1783982
0.1801328
0.1818095
0.1833589
0.1847258
0.1858687
0.1867583
0.187393
0.1877916
0.1880588
0.1883388
0.1892267
0.1903583
0.1929393
0.1767367
0.1784205
0.1800501
0.1815562
0.1828857
0.1840003
0.1848798
0.1855245
0.185977
0.1863163
0.1867125
0.1875624
0.1884982
0.1896633
0.1921625
0.1750883
0.1767154
0.1782883
0.1797408
0.1810226
0.1820984
0.1829496
0.1835819
0.1840306
0.1843881
0.1847902
0.1856464
0.1864852
0.1874051
0.1885378
0.1907401
0.1734534
0.1750188
0.1765267
0.1779166
0.179142
0.1801692
0.1809794
0.1815732
0.1819833
0.1822869
0.1826384
0.1834259
0.1842234
0.1850068
0.1858693
0.1867736
0.1898791
0.1718427
0.173343
0.1747808
0.1761031
0.1772675
0.1782413
0.1790019
0.1795407
0.1798724
0.1800597
0.1802561
0.1809266
0.1816058
0.18231
0.1830139
0.1836586
0.1853148
0.1883386
0.1702745
0.17171
0.1730781
0.174334
0.1754395
0.1763617
0.1770729
0.1775496
0.1777751
0.177755
0.1776138
0.1780582
0.178568
0.1791292
0.1797431
0.1802403
0.181537
0.1830278
0.1858904
0.1687733
0.1701503
0.1714579
0.1726577
0.1737143
0.174595
0.1752682
0.1756967
0.175821
0.1755112
0.1744078
0.1745181
0.174855
0.1753199
0.1758435
0.1762745
0.1773499
0.1784376
0.1796892
0.1822487
0.1682772
0.169274
0.1701068
0.170821
0.1714321
0.171811
0.1727582
0.1736145
0.1744398
0.1753863
0.1774323
0.1642268
0.1652433
0.166128
0.1668783
0.1674817
0.1678183
0.1686576
0.1694202
0.1700629
0.1706341
0.1712388
0.1728244
0.1612151
0.1621781
0.1630274
0.1637482
0.1643219
0.1646276
0.1654117
0.1661195
0.1667308
0.1671992
0.1675218
0.1678802
0.1691748
0.1589791
0.1599
0.1607157
0.1614106
0.1619652
0.1622675
0.1630267
0.1637282
0.164343
0.1648475
0.1651543
0.1653257
0.1655787
0.1667003
0.1574051
0.1583041
0.1591043
0.1597912
0.1603473
0.1606672
0.1614322
0.1621503
0.1628059
0.163369
0.1637781
0.1640114
0.1641597
0.1643872
0.1654567
0.183475
0.1817517
0.1835519
0.1852753
0.1868656
0.1882665
0.1894231
0.1902688
0.1907419
0.1907057
0.1900251
0.188197
0.1898649
0.179994
0.1817486
0.183431
0.1849824
0.1863489
0.1874796
0.1883299
0.188846
0.1890021
0.1887564
0.1883537
0.1889707
0.1912623
0.178321
0.1800364
0.1816871
0.1832098
0.1845516
0.1856692
0.1865268
0.1871092
0.1874129
0.1875188
0.1875818
0.1882953
0.1892562
0.1917271
0.1766939
0.1783678
0.1799837
0.1814755
0.1827913
0.1838922
0.1847547
0.1853732
0.1857825
0.1860556
0.1863706
0.1871537
0.1880201
0.1891193
0.1915918
0.1750883
0.1767154
0.1782883
0.1797408
0.1810226
0.1820984
0.1829496
0.1835819
0.1840306
0.1843881
0.1847902
0.1856464
0.1864852
0.1874051
0.1885378
0.1907401
0.1734933
0.1750678
0.1765882
0.1779911
0.1792289
0.1802686
0.1810942
0.1817114
0.18216
0.1825222
0.1829442
0.1837875
0.1846407
0.1854781
0.1863917
0.1873382
0.1904506
0.1719096
0.1734262
0.1748858
0.1762303
0.1774154
0.1784098
0.1791963
0.1797774
0.1801848
0.1804986
0.1808598
0.1816529
0.182448
0.1832586
0.1840585
0.1847893
0.1865287
0.1895906
0.1703475
0.1718028
0.1731964
0.1744773
0.1756052
0.1765492
0.1772887
0.1778166
0.178149
0.1783466
0.1785622
0.1792328
0.1799295
0.1806457
0.1813935
0.1820105
0.1834371
0.1850698
0.188052
0.168825
0.170219
0.1715466
0.1727649
0.1738371
0.1747324
0.1754248
0.1758931
0.1761223
0.1761204
0.1760082
0.1764661
0.1769908
0.177584
0.178227
0.1787958
0.1800344
0.1813151
0.1827834
0.1856078
0.167366
0.1687046
0.1699749
0.1711401
0.1721661
0.1730222
0.1736784
0.1741
0.1742312
0.1739491
0.172913
0.1730484
0.1734115
0.1739034
0.1744719
0.1749581
0.1760836
0.1771466
0.1782189
0.1794492
0.1819172
0.1670041
0.1679942
0.1688315
0.169565
0.170208
0.1706527
0.1716424
0.1725788
0.1734222
0.1742315
0.1751086
0.1771115
0.163081
0.1640916
0.1649799
0.1657453
0.1663809
0.1667728
0.167665
0.1684946
0.169246
0.1698756
0.170388
0.1709633
0.1725909
0.1601513
0.1611107
0.1619643
0.1626997
0.1633012
0.1636591
0.1644845
0.16526
0.165958
0.1665581
0.1669743
0.1672743
0.167675
0.1690209
0.1579665
0.1588845
0.1597043
0.160412
0.1609912
0.161337
0.1621321
0.1628836
0.1635764
0.1641815
0.1646384
0.1649266
0.1651397
0.1654414
0.1666231
0.1564196
0.1573153
0.1581181
0.1588152
0.1593911
0.1597474
0.1605383
0.1612962
0.1620065
0.1626534
0.1631726
0.1635655
0.1638393
0.1640345
0.1643176
0.1779507
0.1803968
0.1829097
0.1799281
0.18166
0.1833155
0.1848416
0.1861862
0.1872961
0.1881188
0.1885783
0.1885825
0.1878843
0.1859846
0.1859866
0.1878246
0.1782343
0.1799251
0.1815443
0.1830359
0.1843492
0.1854388
0.18626
0.1867763
0.1869408
0.186758
0.1863358
0.186712
0.1873733
0.1896072
0.1766196
0.1782751
0.1798662
0.1813326
0.1826246
0.1837015
0.1845339
0.1851031
0.1854235
0.1855462
0.1856611
0.1862877
0.1869978
0.1879511
0.1903406
0.175047
0.1766646
0.1782245
0.1796633
0.1809321
0.1819948
0.1828299
0.1834375
0.1838454
0.1841409
0.1844676
0.1852632
0.1860403
0.1868991
0.1879772
0.1901685
0.1734933
0.1750678
0.1765882
0.1779911
0.1792289
0.1802686
0.1810942
0.1817114
0.18216
0.1825222
0.1829442
0.1837875
0.1846407
0.1854781
0.1863917
0.1873382
0.1904506
0.1719482
0.1734735
0.1749452
0.1763021
0.177499
0.1785054
0.1793065
0.1799099
0.180354
0.1807231
0.1811508
0.1819957
0.1828417
0.1837009
0.1845454
0.1853167
0.187094
0.190162
0.1704123
0.1718833
0.1732979
0.1746
0.1757477
0.1767114
0.1774757
0.178044
0.1784486
0.1787665
0.1791384
0.1799238
0.1807278
0.1815408
0.182374
0.1830654
0.1845697
0.1862849
0.1893033
0.1688957
0.1703089
0.1716611
0.1729033
0.173997
0.1749132
0.1756327
0.1761501
0.1764816
0.1766877
0.1769155
0.1775869
0.1782858
0.1790214
0.179784
0.180458
0.1818067
0.1832169
0.1848261
0.1877669
0.1674161
0.1687712
0.1700609
0.1712438
0.1722849
0.1731549
0.1738295
0.1742893
0.1745212
0.1745343
0.1744471
0.1749114
0.1754489
0.1760563
0.1767308
0.1773366
0.1786037
0.1798299
0.1810947
0.1825407
0.185268
0.1659966
0.1672992
0.1685346
0.1696672
0.1706646
0.1714975
0.1721375
0.1725522
0.1726889
0.1724312
0.1714549
0.1716108
0.171991
0.1725047
0.1730981
0.1736349
0.1747786
0.1758938
0.1769447
0.1780016
0.1791605
0.1815781
0.1657519
0.1667325
0.1675703
0.1683139
0.1689809
0.1694678
0.1704933
0.1714736
0.1723991
0.1732295
0.173979
0.1748248
0.1768676
0.1619485
0.162951
0.1638388
0.1646133
0.1652699
0.1657053
0.1666271
0.1675107
0.1683305
0.1690708
0.1696475
0.1701365
0.1707541
0.1724325
0.1590971
0.1600507
0.1609051
0.1616497
0.1622715
0.1626678
0.1635227
0.1643403
0.1651071
0.1657953
0.1663475
0.1667447
0.1670865
0.167536
0.1689424
0.1569618
0.1578752
0.158696
0.1594122
0.1600094
0.1603893
0.1612076
0.1619957
0.1627393
0.1634234
0.1639844
0.164425
0.1647539
0.1650139
0.1653715
0.155442
0.1563328
0.1571358
0.1578395
0.1584303
0.1588151
0.1596238
0.1604082
0.161159
0.1618615
0.1624673
0.1629721
0.1634043
0.1637231
0.1639708
0.1741321
0.17554
0.1776772
0.1787984
0.179912
0.1820675
0.1781709
0.1798402
0.1814336
0.1829012
0.1841939
0.1852639
0.1860593
0.1865222
0.1865452
0.1859402
0.1841337
0.1839562
0.1842584
0.1861561
0.176536
0.1781681
0.1797292
0.1811659
0.1824309
0.1834814
0.1842793
0.1847863
0.1849757
0.1848286
0.1844927
0.1848152
0.1852539
0.1859677
0.1881711
0.1749753
0.1765753
0.1781115
0.1795262
0.1807722
0.1818122
0.1826188
0.1831797
0.1835036
0.183658
0.1837983
0.1844511
0.1850888
0.1858137
0.1867729
0.188916
0.1734534
0.1750188
0.1765267
0.1779166
0.179142
0.1801692
0.1809794
0.1815732
0.1819833
0.1822869
0.1826384
0.1834259
0.1842234
0.1850068
0.1858693
0.1867736
0.1898791
0.1719482
0.1734735
0.1749452
0.1763021
0.177499
0.1785054
0.1793065
0.1799099
0.180354
0.1807231
0.1811508
0.1819957
0.1828417
0.1837009
0.1845454
0.1853167
0.187094
0.190162
0.1704496
0.1719291
0.1733552
0.1746693
0.1758283
0.1768034
0.1775817
0.1781714
0.1786109
0.1789814
0.1794162
0.18025
0.1811012
0.1819582
0.1828311
0.1835574
0.1850979
0.1868507
0.1898742
0.1689585
0.1703868
0.1717592
0.1730219
0.1741346
0.1750697
0.175813
0.1763689
0.1767696
0.1770905
0.1774667
0.1782463
0.1790453
0.17987
0.1807093
0.1814486
0.1828635
0.184351
0.1860419
0.1890169
0.1674846
0.1688583
0.1701718
0.1713777
0.1724395
0.1733295
0.1740302
0.174537
0.1748671
0.1750794
0.1753169
0.1759835
0.1766845
0.1774236
0.1782067
0.178905
0.180268
0.181604
0.1829978
0.1845835
0.1874234
0.1660453
0.1673638
0.1686179
0.1697677
0.1707796
0.1716258
0.1722836
0.172735
0.1729685
0.1729944
0.1729281
0.1733964
0.1739393
0.1745584
0.1752462
0.1758891
0.177156
0.178413
0.1796268
0.1808758
0.1822488
0.1849204
0.1646632
0.1659318
0.1671343
0.1682363
0.1692068
0.1700177
0.1706425
0.1710503
0.1711915
0.1709554
0.1700326
0.1702048
0.1705979
0.1711245
0.1717374
0.1723034
0.1734651
0.1746001
0.1757053
0.1767441
0.1777402
0.1788654
0.1813204
0.1645213
0.1654909
0.1663258
0.1670747
0.1677558
0.1682758
0.1693164
0.1703336
0.1713045
0.1722191
0.172996
0.1737211
0.1746093
0.1767022
0.1608309
0.1618234
0.162708
0.163487
0.164158
0.1646243
0.1655664
0.1664805
0.1673555
0.1681655
0.1688574
0.1694146
0.1699457
0.1706124
0.1723516
0.158054
0.1590002
0.1598527
0.1606027
0.1612387
0.1616647
0.1625374
0.1633852
0.164195
0.164953
0.1655968
0.1661324
0.1665705
0.1669594
0.1674652
0.1559664
0.1568737
0.1576933
0.1584147
0.159025
0.1594315
0.1602653
0.1610771
0.1618581
0.1625939
0.1632367
0.1637832
0.1642633
0.1646371
0.1649498
0.1544733
0.1553581
0.1561595
0.1568671
0.1574688
0.1578763
0.1586965
0.1594992
0.1602771
0.1610207
0.1616845
0.1622773
0.1628202
0.1632954
0.1636639
0.1716569
0.1721547
0.1739183
0.1743168
0.1752989
0.1771679
0.1774555
0.178355
0.1791851
0.1810882
0.176475
0.1780864
0.1796229
0.1810368
0.1822822
0.1833143
0.1840877
0.1845445
0.1846002
0.1840575
0.1824278
0.182252
0.182374
0.1828346
0.1847483
0.1748947
0.1764723
0.1779797
0.179366
0.1805864
0.1816013
0.1823752
0.1828771
0.1830773
0.1829775
0.1826963
0.1830699
0.1834657
0.1839744
0.1847415
0.1867496
0.1733842
0.1749326
0.1764179
0.1777846
0.1789884
0.179994
0.180777
0.1813264
0.1816569
0.1818273
0.1820039
0.1826598
0.1833308
0.1839959
0.1847487
0.185561
0.1886266
0.1719096
0.1734262
0.1748858
0.1762303
0.1774154
0.1784098
0.1791963
0.1797774
0.1801848
0.1804986
0.1808598
0.1816529
0.182448
0.1832586
0.1840585
0.1847893
0.1865287
0.1895906
0.1704496
0.1719291
0.1733552
0.1746693
0.1758283
0.1768034
0.1775817
0.1781714
0.1786109
0.1789814
0.1794162
0.18025
0.1811012
0.1819582
0.1828311
0.1835574
0.1850979
0.1868507
0.1898742
0.1689947
0.1704312
0.1718147
0.1730888
0.1742124
0.1751584
0.1759151
0.1764915
0.1769256
0.1772966
0.1777325
0.1785576
0.1794005
0.1802656
0.1811407
0.1819106
0.1833564
0.18488
0.1866082
0.1895873
0.1675456
0.1689339
0.1702668
0.1714924
0.1725725
0.1734806
0.1742041
0.174748
0.1751443
0.1754663
0.1758455
0.1766143
0.1774092
0.1782308
0.1790838
0.1798398
0.1812604
0.1826624
0.1841332
0.1858
0.1886716
0.1661119
0.1674484
0.1687254
0.1698974
0.1709292
0.1717947
0.1724775
0.1729742
0.173302
0.173519
0.1737636
0.1744242
0.1751212
0.1758629
0.17665
0.1773758
0.1787264
0.180079
0.1814024
0.1827798
0.1842915
0.1870721
0.1647105
0.1659946
0.1672152
0.1683337
0.1693182
0.170142
0.1707838
0.171227
0.1714615
0.1714981
0.1714499
0.1719195
0.1724653
0.1730885
0.1737866
0.1744472
0.1757184
0.1769767
0.1782235
0.1794251
0.1806127
0.1819503
0.1846562
0.1633635
0.1646002
0.1657716
0.1668449
0.16779
0.1685803
0.1691905
0.1695916
0.1697365
0.1695196
0.1686449
0.1688305
0.1692326
0.1697681
0.1703915
0.1709805
0.1721422
0.1732964
0.1744229
0.1755181
0.1765029
0.1774731
0.1786413
0.1811456
0.1633127
0.16427
0.1650999
0.1658502
0.1665403
0.1670822
0.1681315
0.1691648
0.1701736
0.1711351
0.1720009
0.1727575
0.1735253
0.1744633
0.1766177
0.1597287
0.1607102
0.1615894
0.1623697
0.16305
0.1635397
0.1644916
0.1654267
0.166333
0.1671993
0.1679645
0.1686395
0.1692379
0.1698166
0.1705402
0.1570227
0.1579604
0.1588092
0.1595614
0.1602074
0.1606562
0.1615397
0.1624059
0.1632467
0.1640485
0.164765
0.1653942
0.1659694
0.1664527
0.1668947
0.154981
0.1558812
0.156698
0.1574219
0.1580416
0.1584692
0.1593125
0.1601403
0.1609456
0.1617194
0.1624164
0.1630462
0.1636308
0.164154
0.1645777
0.153514
0.154392
0.1551904
0.1558998
0.1565094
0.1569351
0.1577622
0.1585768
0.1593735
0.1601448
0.1608519
0.161504
0.1621335
0.1627176
0.16324
0.1704321
0.1699504
0.1714589
0.1711899
0.1719626
0.1734979
0.173288
0.1740965
0.1748483
0.1764623
0.1761695
0.1770449
0.177691
0.1783334
0.1800388
0.1748358
0.1763936
0.1778775
0.1792421
0.1804438
0.1814412
0.182192
0.1826461
0.1827199
0.1822462
0.1807494
0.1806661
0.1807857
0.1810742
0.1816228
0.1833622
0.1733063
0.1748332
0.1762909
0.1776305
0.1788098
0.1797916
0.1805435
0.1810369
0.1812497
0.1811796
0.1809592
0.181357
0.1818079
0.1822827
0.182862
0.1835213
0.1864613
0.1718427
0.173343
0.1747808
0.1761031
0.1772675
0.1782413
0.1790019
0.1795407
0.1798724
0.1800597
0.1802561
0.1809266
0.1816058
0.18231
0.1830139
0.1836586
0.1853148
0.1883386
0.1704123
0.1718833
0.1732979
0.1746
0.1757477
0.1767114
0.1774757
0.178044
0.1784486
0.1787665
0.1791384
0.1799238
0.1807278
0.1815408
0.182374
0.1830654
0.1845697
0.1862849
0.1893033
0.1689947
0.1704312
0.1718147
0.1730888
0.1742124
0.1751584
0.1759151
0.1764915
0.1769256
0.1772966
0.1777325
0.1785576
0.1794005
0.1802656
0.1811407
0.1819106
0.1833564
0.18488
0.1866082
0.1895873
0.1675807
0.1689768
0.1703204
0.1715572
0.1726477
0.1735663
0.1743027
0.1748661
0.1752944
0.1756644
0.1761003
0.1769121
0.1777482
0.1786072
0.1794928
0.1802758
0.1817233
0.1831561
0.1846628
0.1863665
0.1892412
0.1661711
0.1675217
0.1688175
0.1700085
0.1710579
0.1719408
0.1726455
0.1731778
0.1735692
0.1738915
0.1742714