/*--------------------------------*- C++ -*----------------------------------*\
| =========                 |                                                 |
| \\      /  F ield         | OpenFOAM: The Open Source CFD Toolbox           |
|  \\    /   O peration     | Version:  2306                                  |
|   \\  /    A nd           | Website:  www.openfoam.com                      |
|    \\/     M anipulation  |                                                 |
\*---------------------------------------------------------------------------*/
FoamFile
{
    version     2.0;
    format      ascii;
    arch        "LSB;label=32;scalar=64";
    class       volScalarField;
    location    "0.9/electrolyte";
    object      T;
}
// * * * * * * * * * * * * * * * * * * * * * * * * * * * * * * * * * * * * * //

dimensions      [0 0 0 1 0 0 0];

internalField   nonuniform List<scalar> 
4000
(
1150.764
1150.617
1152.509
1150.771
1150.278
1152.499
1150.624
1154.113
1152.513
1150.778
1149.645
1152.473
1150.285
1154.141
1152.502
1150.632
1155.613
1154.113
1152.516
1150.785
1148.576
1152.42
1149.655
1154.201
1152.476
1150.293
1155.651
1154.14
1152.505
1150.639
1157.053
1155.61
1154.113
1152.52
1150.792
1146.999
1152.32
1148.591
1154.306
1152.421
1149.664
1155.737
1154.2
1152.478
1150.301
1157.094
1155.648
1154.14
1152.508
1150.646
1158.446
1157.047
1155.607
1154.113
1152.523
1145.198
1152.142
1147.027
1154.467
1152.319
1148.607
1155.889
1154.303
1152.422
1149.674
1157.185
1155.733
1154.199
1152.48
1150.309
1158.486
1157.088
1155.645
1154.139
1152.511
1159.796
1158.438
1157.041
1155.603
1154.112
1143.549
1151.851
1145.245
1154.671
1152.136
1147.055
1156.13
1154.461
1152.317
1148.623
1157.348
1155.884
1154.3
1152.423
1149.684
1158.577
1157.179
1155.729
1154.197
1152.482
1159.834
1158.478
1157.082
1155.641
1154.138
1161.101
1159.786
1158.43
1157.035
1155.6
1142.323
1151.51
1143.614
1154.82
1151.845
1145.291
1156.452
1154.657
1152.131
1147.084
1157.609
1156.121
1154.454
1152.315
1148.639
1158.738
1157.34
1155.877
1154.296
1152.424
1159.921
1158.568
1157.172
1155.724
1154.195
1161.138
1159.825
1158.47
1157.075
1155.637
1162.362
1161.091
1159.777
1158.422
1157.029
1141.676
1151.215
1142.4
1154.892
1151.507
1143.677
1156.744
1154.802
1151.839
1145.337
1157.96
1156.435
1154.644
1152.125
1147.112
1158.995
1157.597
1156.11
1154.446
1152.313
1160.075
1158.728
1157.332
1155.871
1154.293
1161.22
1159.911
1158.559
1157.165
1155.719
1162.397
1161.127
1159.815
1158.462
1157.069
1163.577
1162.35
1161.08
1159.767
1158.414
1141.676
1151.046
1141.76
1154.912
1151.215
1142.476
1156.957
1154.873
1151.503
1143.739
1158.294
1156.722
1154.784
1151.833
1145.381
1159.345
1157.942
1156.418
1154.63
1152.119
1160.323
1158.982
1157.585
1156.1
1154.438
1161.367
1160.064
1158.717
1157.323
1155.864
1162.475
1161.209
1159.9
1158.55
1157.157
1163.61
1162.385
1161.116
1159.805
1158.453
1164.745
1163.565
1162.339
1161.069
1159.757
1142.323
1151.046
1141.76
1154.913
1151.048
1141.842
1157.089
1154.893
1151.215
1142.55
1158.552
1156.933
1154.853
1151.499
1143.8
1159.683
1158.271
1156.7
1154.766
1151.826
1160.659
1159.326
1157.924
1156.401
1154.616
1161.602
1160.308
1158.969
1157.572
1156.089
1162.614
1161.355
1160.052
1158.707
1157.314
1163.684
1162.463
1161.197
1159.89
1158.541
1164.777
1163.597
1162.373
1161.105
1159.795
1165.867
1164.732
1163.552
1162.327
1161.058
1143.549
1151.215
1142.4
1154.913
1151.048
1141.842
1157.15
1154.893
1151.05
1141.923
1158.721
1157.063
1154.873
1151.214
1142.623
1159.949
1158.526
1156.908
1154.833
1151.495
1160.986
1159.659
1158.248
1156.678
1154.747
1161.922
1160.64
1159.307
1157.905
1156.384
1162.837
1161.587
1160.294
1158.955
1157.559
1163.816
1162.601
1161.342
1160.04
1158.696
1164.847
1163.671
1162.45
1161.186
1159.879
1165.897
1164.764
1163.585
1162.361
1161.093
1166.943
1165.854
1164.719
1163.539
1162.314
1145.198
1151.51
1143.614
1154.912
1151.215
1142.476
1157.15
1154.893
1151.05
1141.923
1158.803
1157.124
1154.874
1151.051
1142.002
1160.127
1158.693
1157.037
1154.853
1151.212
1161.246
1159.923
1158.5
1156.883
1154.813
1162.234
1160.963
1159.636
1158.224
1156.656
1163.14
1161.902
1160.62
1159.288
1157.887
1164.028
1162.821
1161.572
1160.279
1158.941
1164.973
1163.802
1162.587
1161.329
1160.028
1165.965
1164.834
1163.658
1162.437
1161.173
1166.971
1165.884
1164.75
1163.572
1162.348
1167.972
1166.929
1165.84
1164.706
1163.526
1146.999
1151.851
1145.245
1154.892
1151.507
1143.677
1157.089
1154.893
1151.215
1142.55
1158.803
1157.124
1154.874
1151.051
1142.002
1160.214
1158.775
1157.098
1154.854
1151.051
1161.421
1160.099
1158.666
1157.011
1154.833
1162.484
1161.221
1159.897
1158.474
1156.858
1163.437
1162.211
1160.939
1159.612
1158.201
1164.316
1163.12
1161.883
1160.601
1159.269
1165.175
1164.012
1162.805
1161.556
1160.264
1166.085
1164.959
1163.788
1162.573
1161.316
1167.036
1165.951
1164.82
1163.645
1162.424
1167.999
1166.958
1165.87
1164.737
1163.559
1168.955
1167.958
1166.915
1165.827
1164.693
1148.576
1152.142
1147.027
1154.82
1151.845
1145.291
1156.957
1154.873
1151.503
1143.739
1158.721
1157.063
1154.873
1151.214
1142.623
1160.214
1158.775
1157.098
1154.854
1151.051
1161.508
1160.186
1158.747
1157.071
1154.834
1162.652
1161.394
1160.071
1158.638
1156.985
1163.675
1162.459
1161.195
1159.87
1158.447
1164.598
1163.414
1162.188
1160.916
1159.589
1165.449
1164.296
1163.101
1161.863
1160.581
1166.277
1165.159
1163.996
1162.789
1161.54
1167.151
1166.071
1164.945
1163.774
1162.559
1168.062
1167.022
1165.937
1164.806
1163.631
1168.982
1167.986
1166.944
1165.856
1164.723
1169.894
1168.942
1167.944
1166.901
1165.813
1149.645
1152.32
1148.591
1154.671
1152.136
1147.055
1156.744
1154.802
1151.839
1145.337
1158.552
1156.933
1154.853
1151.499
1143.8
1160.127
1158.693
1157.037
1154.853
1151.212
1161.508
1160.186
1158.747
1157.071
1154.834
1162.736
1161.481
1160.158
1158.719
1157.045
1163.836
1162.626
1161.367
1160.044
1158.61
1164.825
1163.651
1162.433
1161.169
1159.844
1165.718
1164.576
1163.392
1162.165
1160.893
1166.539
1165.43
1164.277
1163.081
1161.843
1167.336
1166.261
1165.143
1163.98
1162.773
1168.173
1167.137
1166.056
1164.93
1163.759
1169.042
1168.048
1167.008
1165.923
1164.792
1169.92
1168.968
1167.972
1166.93
1165.842
1170.789
1169.881
1168.928
1167.93
1166.887
1150.278
1152.42
1149.655
1154.467
1152.319
1148.607
1156.452
1154.657
1152.131
1147.084
1158.294
1156.722
1154.784
1151.833
1145.381
1159.949
1158.526
1156.908
1154.833
1151.495
1161.421
1160.099
1158.666
1157.011
1154.833
1162.736
1161.481
1160.158
1158.719
1157.045
1163.917
1162.71
1161.453
1160.13
1158.69
1164.98
1163.811
1162.6
1161.34
1160.016
1165.936
1164.802
1163.626
1162.408
1161.143
1166.797
1165.697
1164.554
1163.369
1162.142
1167.587
1166.521
1165.411
1164.258
1163.062
1168.35
1167.32
1166.245
1165.126
1163.963
1169.149
1168.158
1167.122
1166.041
1164.915
1169.978
1169.028
1168.033
1166.994
1165.908
1170.814
1169.906
1168.954
1167.958
1166.916
1171.64
1170.775
1169.867
1168.914
1167.916
1150.617
1152.473
1150.285
1154.306
1152.421
1149.664
1156.13
1154.461
1152.317
1148.623
1157.96
1156.435
1154.644
1152.125
1147.112
1159.683
1158.271
1156.7
1154.766
1151.826
1161.246
1159.923
1158.5
1156.883
1154.813
1162.652
1161.394
1160.071
1158.638
1156.985
1163.917
1162.71
1161.453
1160.13
1158.69
1165.057
1163.891
1162.683
1161.426
1160.101
1166.083
1164.955
1163.786
1162.574
1161.313
1167.005
1165.913
1164.778
1163.602
1162.383
1167.834
1166.776
1165.675
1164.532
1163.347
1168.591
1167.568
1166.502
1165.392
1164.238
1169.32
1168.334
1167.304
1166.229
1165.11
1170.081
1169.134
1168.143
1167.107
1166.026
1170.87
1169.964
1169.014
1168.019
1166.979
1171.664
1170.8
1169.892
1168.94
1167.943
1172.448
1171.626
1170.761
1169.853
1168.9
1150.764
1152.499
1150.624
1154.201
1152.476
1150.293
1155.889
1154.303
1152.422
1149.674
1157.609
1156.121
1154.454
1152.315
1148.639
1159.345
1157.942
1156.418
1154.63
1152.119
1160.986
1159.659
1158.248
1156.678
1154.747
1162.484
1161.221
1159.897
1158.474
1156.858
1163.836
1162.626
1161.367
1160.044
1158.61
1165.057
1163.891
1162.683
1161.426
1160.101
1166.157
1165.032
1163.866
1162.656
1161.398
1167.147
1166.06
1164.931
1163.76
1162.548
1168.034
1166.983
1165.89
1164.755
1163.578
1168.829
1167.814
1166.755
1165.654
1164.51
1169.553
1168.573
1167.55
1166.483
1165.372
1170.247
1169.304
1168.318
1167.287
1166.212
1170.97
1170.067
1169.12
1168.128
1167.092
1171.719
1170.856
1169.95
1168.999
1168.004
1172.472
1171.651
1170.786
1169.878
1168.926
1173.215
1172.435
1171.613
1170.748
1169.839
1152.509
1150.771
1154.141
1152.502
1150.632
1155.737
1154.2
1152.478
1150.301
1157.348
1155.884
1154.3
1152.423
1149.684
1158.995
1157.597
1156.11
1154.446
1152.313
1160.659
1159.326
1157.924
1156.401
1154.616
1162.234
1160.963
1159.636
1158.224
1156.656
1163.675
1162.459
1161.195
1159.87
1158.447
1164.98
1163.811
1162.6
1161.34
1160.016
1166.157
1165.032
1163.866
1162.656
1161.398
1167.218
1166.133
1165.007
1163.84
1162.63
1168.171
1167.124
1166.036
1164.906
1163.735
1169.022
1168.013
1166.961
1165.867
1164.731
1169.782
1168.809
1167.793
1166.734
1165.632
1170.471
1169.535
1168.555
1167.531
1166.464
1171.13
1170.231
1169.288
1168.302
1167.271
1171.816
1170.956
1170.052
1169.105
1168.113
1172.525
1171.705
1170.842
1169.935
1168.985
1173.238
1172.458
1171.637
1170.772
1169.864
1173.94
1173.201
1172.421
1171.599
1170.734
1154.113
1152.513
1150.778
1155.651
1154.14
1152.505
1150.639
1157.185
1155.733
1154.199
1152.48
1150.309
1158.738
1157.34
1155.877
1154.296
1152.424
1160.323
1158.982
1157.585
1156.1
1154.438
1161.922
1160.64
1159.307
1157.905
1156.384
1163.437
1162.211
1160.939
1159.612
1158.201
1164.825
1163.651
1162.433
1161.169
1159.844
1166.083
1164.955
1163.786
1162.574
1161.313
1167.218
1166.133
1165.007
1163.84
1162.63
1168.239
1167.195
1166.109
1164.982
1163.814
1169.154
1168.149
1167.101
1166.012
1164.882
1169.969
1169.001
1167.991
1166.939
1165.844
1170.694
1169.763
1168.79
1167.773
1166.713
1171.348
1170.454
1169.517
1168.537
1167.513
1171.971
1171.115
1170.215
1169.272
1168.285
1172.619
1171.802
1170.941
1170.037
1169.09
1173.289
1172.511
1171.691
1170.828
1169.921
1173.962
1173.224
1172.445
1171.623
1170.758
1174.624
1173.927
1173.188
1172.408
1171.585
1155.613
1154.113
1152.516
1150.785
1157.094
1155.648
1154.14
1152.508
1150.646
1158.577
1157.179
1155.729
1154.197
1152.482
1160.075
1158.728
1157.332
1155.871
1154.293
1161.602
1160.308
1158.969
1157.572
1156.089
1163.14
1161.902
1160.62
1159.288
1157.887
1164.598
1163.414
1162.188
1160.916
1159.589
1165.936
1164.802
1163.626
1162.408
1161.143
1167.147
1166.06
1164.931
1163.76
1162.548
1168.239
1167.195
1166.109
1164.982
1163.814
1169.22
1168.217
1167.172
1166.085
1164.958
1170.096
1169.132
1168.126
1167.078
1165.989
1170.874
1169.948
1168.98
1167.97
1166.917
1171.563
1170.675
1169.744
1168.77
1167.753
1172.182
1171.331
1170.436
1169.499
1168.518
1172.77
1171.956
1171.099
1170.199
1169.256
1173.381
1172.605
1171.787
1170.926
1170.022
1174.012
1173.276
1172.497
1171.677
1170.813
1174.646
1173.949
1173.211
1172.431
1171.609
1175.269
1174.612
1173.914
1173.175
1172.394
1157.053
1155.61
1154.113
1152.52
1150.792
1158.486
1157.088
1155.645
1154.139
1152.511
1159.921
1158.568
1157.172
1155.724
1154.195
1161.367
1160.064
1158.717
1157.323
1155.864
1162.837
1161.587
1160.294
1158.955
1157.559
1164.316
1163.12
1161.883
1160.601
1159.269
1165.718
1164.576
1163.392
1162.165
1160.893
1167.005
1165.913
1164.778
1163.602
1162.383
1168.171
1167.124
1166.036
1164.906
1163.735
1169.22
1168.217
1167.172
1166.085
1164.958
1170.16
1169.198
1168.194
1167.149
1166.061
1170.997
1170.075
1169.111
1168.104
1167.056
1171.738
1170.854
1169.928
1168.959
1167.948
1172.392
1171.545
1170.656
1169.724
1168.75
1172.976
1172.166
1171.314
1170.419
1169.481
1173.528
1172.755
1171.941
1171.083
1170.183
1174.102
1173.367
1172.591
1171.773
1170.912
1174.695
1173.999
1173.262
1172.484
1171.663
1175.29
1174.633
1173.936
1173.198
1172.417
1175.874
1175.256
1174.599
1173.901
1173.161
1158.446
1157.047
1155.607
1154.113
1152.523
1159.834
1158.478
1157.082
1155.641
1154.138
1161.22
1159.911
1158.559
1157.165
1155.719
1162.614
1161.355
1160.052
1158.707
1157.314
1164.028
1162.821
1161.572
1160.279
1158.941
1165.449
1164.296
1163.101
1161.863
1160.581
1166.797
1165.697
1164.554
1163.369
1162.142
1168.034
1166.983
1165.89
1164.755
1163.578
1169.154
1168.149
1167.101
1166.012
1164.882
1170.16
1169.198
1168.194
1167.149
1166.061
1171.059
1170.139
1169.176
1168.172
1167.126
1171.858
1170.977
1170.054
1169.089
1168.082
1172.562
1171.719
1170.835
1169.908
1168.939
1173.18
1172.374
1171.527
1170.637
1169.705
1173.729
1172.96
1172.149
1171.296
1170.401
1174.246
1173.514
1172.74
1171.925
1171.068
1174.783
1174.089
1173.354
1172.577
1171.758
1175.338
1174.682
1173.986
1173.249
1172.47
1175.895
1175.278
1174.62
1173.923
1173.184
1176.441
1175.862
1175.244
1174.586
1173.887
1159.796
1158.438
1157.041
1155.603
1154.112
1161.138
1159.825
1158.47
1157.075
1155.637
1162.475
1161.209
1159.9
1158.55
1157.157
1163.816
1162.601
1161.342
1160.04
1158.696
1165.175
1164.012
1162.805
1161.556
1160.264
1166.539
1165.43
1164.277
1163.081
1161.843
1167.834
1166.776
1165.675
1164.532
1163.347
1169.022
1168.013
1166.961
1165.867
1164.731
1170.096
1169.132
1168.126
1167.078
1165.989
1171.059
1170.139
1169.176
1168.172
1167.126
1171.918
1171.039
1170.118
1169.155
1168.15
1172.679
1171.839
1170.957
1170.034
1169.068
1173.346
1172.544
1171.7
1170.815
1169.888
1173.928
1173.162
1172.356
1171.508
1170.618
1174.441
1173.713
1172.943
1172.132
1171.279
1174.923
1174.232
1173.499
1172.725
1171.91
1175.424
1174.77
1174.075
1173.339
1172.562
1175.942
1175.326
1174.669
1173.972
1173.235
1176.461
1175.883
1175.265
1174.607
1173.909
1176.969
1176.429
1175.85
1175.231
1174.573
1161.101
1159.786
1158.43
1157.035
1155.6
1162.397
1161.127
1159.815
1158.462
1157.069
1163.684
1162.463
1161.197
1159.89
1158.541
1164.973
1163.802
1162.587
1161.329
1160.028
1166.277
1165.159
1163.996
1162.789
1161.54
1167.587
1166.521
1165.411
1164.258
1163.062
1168.829
1167.814
1166.755
1165.654
1164.51
1169.969
1169.001
1167.991
1166.939
1165.844
1170.997
1170.075
1169.111
1168.104
1167.056
1171.918
1171.039
1170.118
1169.155
1168.15
1172.737
1171.899
1171.019
1170.097
1169.133
1173.459
1172.66
1171.819
1170.937
1170.013
1174.09
1173.328
1172.525
1171.681
1170.795
1174.636
1173.911
1173.145
1172.338
1171.49
1175.115
1174.426
1173.697
1172.927
1172.115
1175.562
1174.909
1174.217
1173.484
1172.71
1176.027
1175.411
1174.756
1174.061
1173.325
1176.508
1175.93
1175.313
1174.656
1173.959
1176.99
1176.449
1175.87
1175.252
1174.594
1177.46
1176.958
1176.417
1175.837
1175.218
1162.362
1161.091
1159.777
1158.422
1157.029
1163.61
1162.385
1161.116
1159.805
1158.453
1164.847
1163.671
1162.45
1161.186
1159.879
1166.085
1164.959
1163.788
1162.573
1161.316
1167.336
1166.261
1165.143
1163.98
1162.773
1168.591
1167.568
1166.502
1165.392
1164.238
1169.782
1168.809
1167.793
1166.734
1165.632
1170.874
1169.948
1168.98
1167.97
1166.917
1171.858
1170.977
1170.054
1169.089
1168.082
1172.737
1171.899
1171.019
1170.097
1169.133
1173.517
1172.718
1171.879
1170.998
1170.076
1174.201
1173.441
1172.641
1171.8
1170.917
1174.794
1174.072
1173.31
1172.506
1171.662
1175.305
1174.619
1173.894
1173.127
1172.32
1175.749
1175.099
1174.41
1173.681
1172.91
1176.161
1175.548
1174.895
1174.203
1173.469
1176.59
1176.014
1175.398
1174.743
1174.047
1177.035
1176.495
1175.917
1175.3
1174.643
1177.48
1176.978
1176.437
1175.858
1175.239
1177.914
1177.449
1176.946
1176.404
1175.825
1163.577
1162.35
1161.08
1159.767
1158.414
1164.777
1163.597
1162.373
1161.105
1159.795
1165.965
1164.834
1163.658
1162.437
1161.173
1167.151
1166.071
1164.945
1163.774
1162.559
1168.35
1167.32
1166.245
1165.126
1163.963
1169.553
1168.573
1167.55
1166.483
1165.372
1170.694
1169.763
1168.79
1167.773
1166.713
1171.738
1170.854
1169.928
1168.959
1167.948
1172.679
1171.839
1170.957
1170.034
1169.068
1173.517
1172.718
1171.879
1170.998
1170.076
1174.257
1173.498
1172.699
1171.859
1170.978
1174.903
1174.183
1173.423
1172.622
1171.78
1175.46
1174.777
1174.054
1173.292
1172.488
1175.935
1175.289
1174.603
1173.877
1173.11
1176.345
1175.734
1175.084
1174.395
1173.665
1176.723
1176.148
1175.534
1174.881
1174.188
1177.116
1176.578
1176.001
1175.385
1174.729
1177.525
1177.023
1176.483
1175.904
1175.287
1177.934
1177.468
1176.966
1176.425
1175.845
1178.331
1177.903
1177.437
1176.934
1176.392
1164.745
1163.565
1162.339
1161.069
1159.757
1165.897
1164.764
1163.585
1162.361
1161.093
1167.036
1165.951
1164.82
1163.645
1162.424
1168.173
1167.137
1166.056
1164.93
1163.759
1169.32
1168.334
1167.304
1166.229
1165.11
1170.471
1169.535
1168.555
1167.531
1166.464
1171.563
1170.675
1169.744
1168.77
1167.753
1172.562
1171.719
1170.835
1169.908
1168.939
1173.459
1172.66
1171.819
1170.937
1170.013
1174.257
1173.498
1172.699
1171.859
1170.978
1174.957
1174.238
1173.48
1172.68
1171.84
1175.566
1174.885
1174.165
1173.404
1172.603
1176.087
1175.443
1174.76
1174.037
1173.273
1176.528
1175.919
1175.272
1174.586
1173.86
1176.903
1176.33
1175.719
1175.069
1174.379
1177.246
1176.709
1176.134
1175.52
1174.867
1177.605
1177.104
1176.565
1175.988
1175.371
1177.978
1177.513
1177.011
1176.471
1175.892
1178.35
1177.922
1177.457
1176.954
1176.412
1178.711
1178.32
1177.891
1177.425
1176.922
1165.867
1164.732
1163.552
1162.327
1161.058
1166.971
1165.884
1164.75
1163.572
1162.348
1168.062
1167.022
1165.937
1164.806
1163.631
1169.149
1168.158
1167.122
1166.041
1164.915
1170.247
1169.304
1168.318
1167.287
1166.212
1171.348
1170.454
1169.517
1168.537
1167.513
1172.392
1171.545
1170.656
1169.724
1168.75
1173.346
1172.544
1171.7
1170.815
1169.888
1174.201
1173.441
1172.641
1171.8
1170.917
1174.957
1174.238
1173.48
1172.68
1171.84
1175.62
1174.94
1174.22
1173.461
1172.661
1176.192
1175.549
1174.868
1174.147
1173.386
1176.677
1176.071
1175.426
1174.743
1174.019
1177.083
1176.512
1175.904
1175.256
1174.569
1177.424
1176.889
1176.316
1175.704
1175.054
1177.733
1177.233
1176.696
1176.121
1175.506
1178.056
1177.593
1177.092
1176.552
1175.975
1178.394
1177.966
1177.501
1176.999
1176.458
1178.73
1178.339
1177.91
1177.445
1176.941
1179.056
1178.7
1178.308
1177.879
1177.413
1166.943
1165.854
1164.719
1163.539
1162.314
1167.999
1166.958
1165.87
1164.737
1163.559
1169.042
1168.048
1167.008
1165.923
1164.792
1170.081
1169.134
1168.143
1167.107
1166.026
1171.13
1170.231
1169.288
1168.302
1167.271
1172.182
1171.331
1170.436
1169.499
1168.518
1173.18
1172.374
1171.527
1170.637
1169.705
1174.09
1173.328
1172.525
1171.681
1170.795
1174.903
1174.183
1173.423
1172.622
1171.78
1175.62
1174.94
1174.22
1173.461
1172.661
1176.245
1175.603
1174.922
1174.202
1173.443
1176.78
1176.175
1175.532
1174.851
1174.129
1177.23
1176.661
1176.055
1175.41
1174.726
1177.6
1177.068
1176.497
1175.888
1175.24
1177.907
1177.41
1176.874
1176.301
1175.689
1178.182
1177.72
1177.22
1176.683
1176.107
1178.471
1178.044
1177.581
1177.079
1176.539
1178.773
1178.382
1177.954
1177.489
1176.986
1179.075
1178.719
1178.328
1177.899
1177.433
1179.365
1179.045
1178.689
1178.297
1177.868
1167.972
1166.929
1165.84
1164.706
1163.526
1168.982
1167.986
1166.944
1165.856
1164.723
1169.978
1169.028
1168.033
1166.994
1165.908
1170.97
1170.067
1169.12
1168.128
1167.092
1171.971
1171.115
1170.215
1169.272
1168.285
1172.976
1172.166
1171.314
1170.419
1169.481
1173.928
1173.162
1172.356
1171.508
1170.618
1174.794
1174.072
1173.31
1172.506
1171.662
1175.566
1174.885
1174.165
1173.404
1172.603
1176.245
1175.603
1174.922
1174.202
1173.443
1176.832
1176.228
1175.586
1174.905
1174.185
1177.331
1176.764
1176.159
1175.516
1174.833
1177.745
1177.214
1176.645
1176.039
1175.393
1178.081
1177.586
1177.053
1176.482
1175.872
1178.354
1177.894
1177.396
1176.86
1176.287
1178.596
1178.17
1177.707
1177.207
1176.669
1178.85
1178.46
1178.033
1177.568
1177.066
1179.117
1178.762
1178.371
1177.942
1177.477
1179.383
1179.064
1178.708
1178.316
1177.887
1179.638
1179.354
1179.034
1178.678
1178.286
1168.955
1167.958
1166.915
1165.827
1164.693
1169.92
1168.968
1167.972
1166.93
1165.842
1170.87
1169.964
1169.014
1168.019
1166.979
1171.816
1170.956
1170.052
1169.105
1168.113
1172.77
1171.956
1171.099
1170.199
1169.256
1173.729
1172.96
1172.149
1171.296
1170.401
1174.636
1173.911
1173.145
1172.338
1171.49
1175.46
1174.777
1174.054
1173.292
1172.488
1176.192
1175.549
1174.868
1174.147
1173.386
1176.832
1176.228
1175.586
1174.905
1174.185
1177.382
1176.815
1176.211
1175.569
1174.887
1177.845
1177.315
1176.748
1176.142
1175.499
1178.224
1177.73
1177.199
1176.63
1176.022
1178.526
1178.067
1177.571
1177.038
1176.466
1178.765
1178.341
1177.88
1177.382
1176.846
1178.973
1178.584
1178.158
1177.695
1177.194
1179.193
1178.839
1178.448
1178.02
1177.556
1179.425
1179.106
1178.751
1178.359
1177.931
1179.656
1179.373
1179.053
1178.697
1178.305
1179.876
1179.628
1179.343
1179.023
1178.667
1169.894
1168.942
1167.944
1166.901
1165.813
1170.814
1169.906
1168.954
1167.958
1166.916
1171.719
1170.856
1169.95
1168.999
1168.004
1172.619
1171.802
1170.941
1170.037
1169.09
1173.528
1172.755
1171.941
1171.083
1170.183
1174.441
1173.713
1172.943
1172.132
1171.279
1175.305
1174.619
1173.894
1173.127
1172.32
1176.087
1175.443
1174.76
1174.037
1173.273
1176.78
1176.175
1175.532
1174.851
1174.129
1177.382
1176.815
1176.211
1175.569
1174.887
1177.895
1177.366
1176.799
1176.195
1175.552
1178.322
1177.829
1177.299
1176.732
1176.126
1178.667
1178.209
1177.715
1177.183
1176.614
1178.935
1178.512
1178.053
1177.556
1177.023
1179.141
1178.752
1178.328
1177.866
1177.368
1179.314
1178.961
1178.571
1178.145
1177.682
1179.5
1179.182
1178.827
1178.436
1178.008
1179.698
1179.414
1179.095
1178.74
1178.348
1179.894
1179.646
1179.362
1179.042
1178.686
1180.079
1179.866
1179.617
1179.333
1179.012
1170.789
1169.881
1168.928
1167.93
1166.887
1171.664
1170.8
1169.892
1168.94
1167.943
1172.525
1171.705
1170.842
1169.935
1168.985
1173.381
1172.605
1171.787
1170.926
1170.022
1174.246
1173.514
1172.74
1171.925
1171.068
1175.115
1174.426
1173.697
1172.927
1172.115
1175.935
1175.289
1174.603
1173.877
1173.11
1176.677
1176.071
1175.426
1174.743
1174.019
1177.331
1176.764
1176.159
1175.516
1174.833
1177.895
1177.366
1176.799
1176.195
1175.552
1178.372
1177.879
1177.35
1176.783
1176.178
1178.764
1178.307
1177.814
1177.284
1176.716
1179.074
1178.653
1178.195
1177.7
1177.168
1179.308
1178.921
1178.498
1178.038
1177.542
1179.48
1179.128
1178.739
1178.314
1177.853
1179.62
1179.303
1178.949
1178.559
1178.132
1179.772
1179.489
1179.17
1178.816
1178.424
1179.936
1179.687
1179.404
1179.084
1178.728
1180.097
1179.884
1179.635
1179.351
1179.031
1180.248
1180.069
1179.856
1179.607
1179.322
1171.64
1170.775
1169.867
1168.914
1167.916
1172.472
1171.651
1170.786
1169.878
1168.926
1173.289
1172.511
1171.691
1170.828
1169.921
1174.102
1173.367
1172.591
1171.773
1170.912
1174.923
1174.232
1173.499
1172.725
1171.91
1175.749
1175.099
1174.41
1173.681
1172.91
1176.528
1175.919
1175.272
1174.586
1173.86
1177.23
1176.661
1176.055
1175.41
1174.726
1177.845
1177.315
1176.748
1176.142
1175.499
1178.372
1177.879
1177.35
1176.783
1176.178
1178.813
1178.357
1177.864
1177.334
1176.767
1179.17
1178.749
1178.292
1177.799
1177.268
1179.446
1179.06
1178.638
1178.18
1177.685
1179.646
1179.295
1178.908
1178.484
1178.024
1179.785
1179.468
1179.115
1178.726
1178.301
1179.891
1179.609
1179.291
1178.937
1178.547
1180.009
1179.762
1179.478
1179.159
1178.804
1180.138
1179.925
1179.677
1179.393
1179.073
1180.266
1180.087
1179.874
1179.625
1179.34
1180.382
1180.238
1180.059
1179.845
1179.596
1172.448
1171.626
1170.761
1169.853
1168.9
1173.238
1172.458
1171.637
1170.772
1169.864
1174.012
1173.276
1172.497
1171.677
1170.813
1174.783
1174.089
1173.354
1172.577
1171.758
1175.562
1174.909
1174.217
1173.484
1172.71
1176.345
1175.734
1175.084
1174.395
1173.665
1177.083
1176.512
1175.904
1175.256
1174.569
1177.745
1177.214
1176.645
1176.039
1175.393
1178.322
1177.829
1177.299
1176.732
1176.126
1178.813
1178.357
1177.864
1177.334
1176.767
1179.219
1178.798
1178.342
1177.849
1177.319
1179.541
1179.156
1178.735
1178.278
1177.784
1179.783
1179.432
1179.046
1178.624
1178.165
1179.949
1179.633
1179.281
1178.894
1178.47
1180.054
1179.772
1179.455
1179.102
1178.713
1180.127
1179.88
1179.598
1179.279
1178.925
1180.211
1179.999
1179.751
1179.467
1179.148
1180.306
1180.128
1179.915
1179.666
1179.382
1180.4
1180.256
1180.077
1179.863
1179.614
1180.481
1180.372
1180.228
1180.049
1179.835
1173.215
1172.435
1171.613
1170.748
1169.839
1173.962
1173.224
1172.445
1171.623
1170.758
1174.695
1173.999
1173.262
1172.484
1171.663
1175.424
1174.77
1174.075
1173.339
1172.562
1176.161
1175.548
1174.895
1174.203
1173.469
1176.903
1176.33
1175.719
1175.069
1174.379
1177.6
1177.068
1176.497
1175.888
1175.24
1178.224
1177.73
1177.199
1176.63
1176.022
1178.764
1178.307
1177.814
1177.284
1176.716
1179.219
1178.798
1178.342
1177.849
1177.319
1179.589
1179.204
1178.784
1178.327
1177.833
1179.877
1179.527
1179.142
1178.72
1178.263
1180.084
1179.769
1179.418
1179.032
1178.61
1180.217
1179.936
1179.62
1179.268
1178.88
1180.289
1180.042
1179.76
1179.443
1179.089
1180.329
1180.116
1179.869
1179.586
1179.267
1180.379
1180.201
1179.988
1179.74
1179.456
1180.44
1180.296
1180.118
1179.904
1179.655
1180.499
1180.39
1180.246
1180.067
1179.853
1180.547
1180.471
1180.362
1180.218
1180.039
1173.94
1173.201
1172.421
1171.599
1170.734
1174.646
1173.949
1173.211
1172.431
1171.609
1175.338
1174.682
1173.986
1173.249
1172.47
1176.027
1175.411
1174.756
1174.061
1173.325
1176.723
1176.148
1175.534
1174.881
1174.188
1177.424
1176.889
1176.316
1175.704
1175.054
1178.081
1177.586
1177.053
1176.482
1175.872
1178.667
1178.209
1177.715
1177.183
1176.614
1179.17
1178.749
1178.292
1177.799
1177.268
1179.589
1179.204
1178.784
1178.327
1177.833
1179.924
1179.575
1179.19
1178.769
1178.312
1180.178
1179.863
1179.513
1179.127
1178.706
1180.351
1180.071
1179.756
1179.405
1179.018
1180.451
1180.205
1179.923
1179.607
1179.255
1180.489
1180.277
1180.03
1179.748
1179.43
1180.495
1180.318
1180.105
1179.858
1179.574
1180.512
1180.369
1180.191
1179.977
1179.729
1180.539
1180.43
1180.286
1180.108
1179.894
1180.564
1180.489
1180.38
1180.236
1180.057
1180.578
1180.537
1180.462
1180.352
1180.208
1174.624
1173.927
1173.188
1172.408
1171.585
1175.29
1174.633
1173.936
1173.198
1172.417
1175.942
1175.326
1174.669
1173.972
1173.235
1176.59
1176.014
1175.398
1174.743
1174.047
1177.246
1176.709
1176.134
1175.52
1174.867
1177.907
1177.41
1176.874
1176.301
1175.689
1178.526
1178.067
1177.571
1177.038
1176.466
1179.074
1178.653
1178.195
1177.7
1177.168
1179.541
1179.156
1178.735
1178.278
1177.784
1179.924
1179.575
1179.19
1178.769
1178.312
1180.225
1179.911
1179.561
1179.176
1178.755
1180.444
1180.164
1179.849
1179.499
1179.113
1180.584
1180.338
1180.058
1179.742
1179.391
1180.65
1180.438
1180.192
1179.911
1179.594
1180.655
1180.477
1180.265
1180.018
1179.736
1180.628
1180.485
1180.307
1180.094
1179.846
1180.611
1180.502
1180.358
1180.18
1179.966
1180.604
1180.529
1180.42
1180.276
1180.097
1180.596
1180.555
1180.479
1180.37
1180.226
1180.569
1180.528
1180.452
1180.343
1175.269
1174.612
1173.914
1173.175
1172.394
1175.895
1175.278
1174.62
1173.923
1173.184
1176.508
1175.93
1175.313
1174.656
1173.959
1177.116
1176.578
1176.001
1175.385
1174.729
1177.733
1177.233
1176.696
1176.121
1175.506
1178.354
1177.894
1177.396
1176.86
1176.287
1178.935
1178.512
1178.053
1177.556
1177.023
1179.446
1179.06
1178.638
1178.18
1177.685
1179.877
1179.527
1179.142
1178.72
1178.263
1180.225
1179.911
1179.561
1179.176
1178.755
1180.491
1180.211
1179.897
1179.547
1179.161
1180.676
1180.431
1180.151
1179.836
1179.485
1180.782
1180.571
1180.325
1180.045
1179.729
1180.815
1180.638
1180.426
1180.179
1179.898
1180.787
1180.643
1180.466
1180.253
1180.006
1180.726
1180.618
1180.474
1180.296
1180.083
1180.676
1180.601
1180.492
1180.348
1180.169
1180.636
1180.595
1180.519
1180.41
1180.266
1180.586
1180.545
1180.47
1180.36
1180.559
1180.518
1180.442
1175.874
1175.256
1174.599
1173.901
1173.161
1176.461
1175.883
1175.265
1174.607
1173.909
1177.035
1176.495
1175.917
1175.3
1174.643
1177.605
1177.104
1176.565
1175.988
1175.371
1178.182
1177.72
1177.22
1176.683
1176.107
1178.765
1178.341
1177.88
1177.382
1176.846
1179.308
1178.921
1178.498
1178.038
1177.542
1179.783
1179.432
1179.046
1178.624
1178.165
1180.178
1179.863
1179.513
1179.127
1178.706
1180.491
1180.211
1179.897
1179.547
1179.161
1180.723
1180.478
1180.198
1179.883
1179.533
1180.874
1180.663
1180.418
1180.137
1179.822
1180.947
1180.77
1180.558
1180.313
1180.032
1180.946
1180.803
1180.626
1180.414
1180.167
1180.884
1180.775
1180.632
1180.454
1180.242
1180.791
1180.716
1180.607
1180.463
1180.285
1180.708
1180.666
1180.591
1180.482
1180.338
1180.626
1180.585
1180.51
1180.4
1180.577
1180.536
1180.46
1180.55
1180.508
1176.441
1175.862
1175.244
1174.586
1173.887
1176.99
1176.449
1175.87
1175.252
1174.594
1177.525
1177.023
1176.483
1175.904
1175.287
1178.056
1177.593
1177.092
1176.552
1175.975
1178.596
1178.17
1177.707
1177.207
1176.669
1179.141
1178.752
1178.328
1177.866
1177.368
1179.646
1179.295
1178.908
1178.484
1178.024
1180.084
1179.769
1179.418
1179.032
1178.61
1180.444
1180.164
1179.849
1179.499
1179.113
1180.723
1180.478
1180.198
1179.883
1179.533
1180.92
1180.71
1180.465
1180.185
1179.869
1181.038
1180.861
1180.65
1180.405
1180.124
1181.077
1180.934
1180.757
1180.546
1180.3
1181.043
1180.934
1180.791
1180.613
1180.401
1180.948
1180.873
1180.764
1180.621
1180.443
1180.823
1180.781
1180.706
1180.596
1180.452
1180.698
1180.656
1180.581
1180.472
1180.617
1180.575
1180.5
1180.568
1180.526
1180.54
1176.969
1176.429
1175.85
1175.231
1174.573
1177.48
1176.978
1176.437
1175.858
1175.239
1177.978
1177.513
1177.011
1176.471
1175.892
1178.471
1178.044
1177.581
1177.079
1176.539
1178.973
1178.584
1178.158
1177.695
1177.194
1179.48
1179.128
1178.739
1178.314
1177.853
1179.949
1179.633
1179.281
1178.894
1178.47
1180.351
1180.071
1179.756
1179.405
1179.018
1180.676
1180.431
1180.151
1179.836
1179.485