/*--------------------------------*- C++ -*----------------------------------*\
| =========                 |                                                 |
| \\      /  F ield         | OpenFOAM: The Open Source CFD Toolbox           |
|  \\    /   O peration     | Version:  2306                                  |
|   \\  /    A nd           | Website:  www.openfoam.com                      |
|    \\/     M anipulation  |                                                 |
\*---------------------------------------------------------------------------*/
FoamFile
{
    version     2.0;
    format      ascii;
    arch        "LSB;label=32;scalar=64";
    class       volVectorField;
    location    "0.9/phiEC";
    object      i;
}
// * * * * * * * * * * * * * * * * * * * * * * * * * * * * * * * * * * * * * //

dimensions      [0 -2 0 0 0 1 0];

internalField   nonuniform List<vector> 
20000
(
(39.98574 85.65147 18552.01)
(39.55536 250.4761 18367.66)
(95.8102 81.34764 17738.86)
(122.6446 283.0397 19321.92)
(38.72666 395.4394 18011.08)
(94.82067 237.8854 17563.82)
(121.2131 831.3776 19088.76)
(111.447 75.75623 16607.98)
(292.9962 268.7246 18451.71)
(214.027 551.9663 21059.26)
(37.56629 506.4002 17508.38)
(92.91577 375.5487 17225.26)
(118.4373 1323.123 18626.99)
(110.3582 221.5319 16445)
(289.7126 789.3041 18230.51)
(211.2053 1640.33 20758.63)
(105.3118 70.45924 15483.78)
(339.5674 250.2042 17259.63)
(508.2676 523.7489 20062.24)
(322.049 884.297 24039)
(36.17761 569.6408 16902.33)
(90.24921 480.9097 16748)
(114.5101 1711.101 17952.2)
(108.2626 349.7248 16129.76)
(283.3477 1256.093 17792.46)
(205.6318 2668.562 20128.37)
(104.3218 206.0413 15332.21)
(335.9645 734.8922 17053.76)
(501.8203 1556.378 19777.32)
(317.4764 2693.167 23786.31)
(92.71845 65.85579 14480.65)
(320.1539 232.6956 16085.25)
(584.7387 487.4931 18734.05)
(758.0391 838.571 22825.71)
(456.6856 1057.354 28078.05)
(34.69731 575.1033 16252.97)
(87.05886 540.951 16172.65)
(109.7583 1941.183 17104.76)
(105.3302 447.831 15685.4)
(274.3469 1624.311 17152.43)
(197.5197 3550.857 19118.58)
(102.4166 325.2684 15039.03)
(328.9832 1169.466 16646.1)
(489.0937 2531.706 19180.09)
(308.0928 4603.227 23185.76)
(91.86415 192.5796 14338.97)
(316.8827 683.4628 15893.81)
(577.6974 1448.591 18469.02)
(747.6346 2553.605 22586.42)
(451.183 3346.823 28253.42)
(80.25701 61.91621 13612.35)
(281.5673 217.492 15041.95)
(548.8478 453.3358 17447.23)
(862.5698 780.2519 21266.91)
(1062.687 1002.328 26560.16)
(583.392 664.5114 31006.95)
(33.28059 520.5792 15631.57)
(83.65854 546.133 15556.21)
(104.655 1966.415 16168.99)
(101.8228 503.7341 15149.73)
(263.4611 1842.632 16348.76)
(187.3775 4136.063 17690.79)
(99.75096 416.5113 14625.76)
(319.1165 1512.236 16050.51)
(470.5872 3368.314 18223.49)
(293.5285 6586.266 21992.81)
(90.22025 304.0168 14064.95)
(310.5454 1087.614 15514.73)
(563.8088 2356.232 17913.56)
(726.3088 4363.749 22017.94)
(439.1956 6255.557 28659.43)
(79.52345 181.0593 13479.15)
(278.7461 638.8072 14863.02)
(542.4701 1347.078 17200.82)
(851.2637 2375.863 21044.43)
(1050.195 3171.923 26725.99)
(580.018 1984.517 31521.38)
(69.75157 58.52014 12861.23)
(243.6271 204.4841 14140.47)
(481.6749 423.7153 16313.3)
(804.3041 725.51 19788.72)
(1192.137 932.438 24686.43)
(1342.944 630.7709 29243.06)
(675.3093 411.9713 32209.3)
(32.07548 412.7389 15104.65)
(80.40419 494.3608 14966.3)
(99.77281 1776.051 15280.26)
(98.08529 508.5566 14575.81)
(251.7731 1866.56 15461.39)
(176.2158 4224.11 15925.12)
(96.56327 468.5022 14127.59)
(307.1899 1715.445 15302.7)
(447.4712 3923.024 16871.27)
(273.6612 8328.106 19661.07)
(87.92037 389.2981 13678.69)
(301.5912 1406.377 14960.91)
(543.6344 3134.632 17023.98)
(693.2668 6241.949 20889.2)
(418.2424 10600.24 29466.4)
(78.1119 285.8306 13221.52)
(273.2812 1016.551 14508.71)
(529.8949 2191.076 16684.39)
(828.1225 4059.549 20516)
(1023.044 5926.152 27110.18)
(573.256 3196.84 32714.66)
(69.11529 171.1284 12735.33)
(241.205 600.6018 13972.24)
(476.1795 1259.061 16082.99)
(794.0896 2209.133 19581.9)
(1178.602 2950.397 24840.5)
(1335.212 1883.156 29729.22)
(673.3443 1185.008 32663.28)
(61.28139 55.55342 12205)
(211.7184 193.2711 13361.01)
(416.4442 398.3827 15336.63)
(703.6859 678.1067 18499.58)
(1102.313 866.9789 22949.93)
(1486.495 587.1944 27131.27)
(1543.674 392.3214 30303.08)
(774.0142 210.5334 32976.74)
(31.20275 264.303 14724.49)
(77.63553 391.9605 14466.07)
(95.64054 1401.431 14543.2)
(94.50814 460.3491 14026.6)
(240.5906 1685.906 14618.59)
(165.6145 3772.149 14348.72)
(93.16674 472.9865 13593.84)
(294.3882 1737.71 14477.05)
(422.0461 4006.479 15199.4)
(249.7993 8650.539 14953.21)
(85.17021 437.8919 13213.06)
(290.7705 1595.349 14265.56)
(518.4629 3650.652 15766.68)
(648.2817 7890.814 18683.8)
(382.8309 18215.27 31174.87)
(76.13712 366.0108 12858.36)
(265.5603 1314.487 13991.07)
(511.6379 2914.855 15857.36)
(792.3424 5805.996 19467.02)
(975.7453 10036.59 27874.29)
(563.5226 3816.6 35005.46)
(67.89094 270.1535 12491.83)
(236.5132 955.7558 13639.1)
(465.3458 2047.911 15600.3)
(773.1968 3774.536 19090.67)
(1149.262 5511.057 25197.58)
(1319.769 3031.886 30857.47)
(669.601 1751.909 33601.61)
(60.72212 162.4531 12085.49)
(209.6175 567.6681 13202)
(411.7273 1183.788 15120.09)
(694.8931 2064.79 18306.27)
(1090.103 2743.173 23093.11)
(1478.029 1752.769 27582.8)
(1539.059 1127.925 30730.87)
(773.2588 592.2067 33340.14)
(54.4721 52.92742 11624.75)
(186.0148 183.4754 12680.02)
(361.8406 376.5466 14492.91)
(607.7037 637.5819 17393.68)
(960.6829 810.3425 21451.79)
(1364.002 546.1083 25207.02)
(1693.861 365.8213 28076.74)
(1756.201 202.9796 30938.5)
(879.1328 48.56456 33401.15)
(30.74547 90.89528 14525.84)
(75.63013 251.0029 14105.14)
(92.66557 893.3282 14023.18)
(91.46434 364.9983 13560.86)
(231.1229 1330.358 13919.54)
(156.8084 2926.896 13138.56)
(89.91591 428.1513 13083.07)
(282.1389 1569.548 13692.84)
(397.8885 3578.074 13706.42)
(228.2333 7349.176 11977.96)
(82.23997 442.083 12714.19)
(279.1577 1616.051 13497.84)
(490.7957 3728.282 14212.32)
(594.3325 8196.26 14232.28)
(320.4023 19590.33 7079.729)
(73.77574 411.6982 12420.58)
(256.231 1491.11 13341.16)
(488.871 3394.638 14688.51)
(743.742 7338.763 17417.84)
(896.1155 17236.87 29492.35)
(553.3307 1939.765 39260.93)
(66.17806 345.9365 12148.58)
(229.8848 1235.875 13152.41)
(449.6202 2724.394 14827.31)
(740.9251 5398.144 18115.62)
(1098.351 9330.952 25908.02)
(1297.643 3617.347 33024.51)
(664.7637 1792.759 35026.23)
(59.64595 256.4583 11854.33)
(205.5479 903.3493 12887.12)
(402.4285 1925.483 14666.24)
(676.9128 3527.904 17847.13)
(1063.669 5123.641 23425)
(1461.183 2821.15 28630.99)
(1530.32 1666.102 31615.92)
(771.8248 833.8853 34022.13)
(53.97439 154.774 11510.88)
(184.1681 538.897 12529.07)
(357.7492 1118.905 14288.22)
(600.1582 1941.401 17211.9)
(950.1784 2563.961 21585.59)
(1356.329 1630.037 25626.61)
(1688.672 1051.467 28473.5)
(1754.191 570.3128 31278.51)
(879.5077 139.6189 33719.05)
(48.9273 50.57632 11105.86)
(165.3566 174.8042 12077.75)
(317.9332 357.4691 13755.73)
(527.9003 602.6517 16439.31)
(828.4981 761.9343 20171.76)
(1184.661 510.4701 23559.67)
(1546.702 340.428 26074.14)
(1909.389 190.434 28623.21)
(1979.027 52.3136 31236.69)
(990.4603 -107.367 33529.31)
(30.74547 -90.89528 14525.84)
(74.57921 86.32249 13916.54)
(91.11357 306.4001 13755.62)
(89.25916 233.7398 13224.81)
(224.3043 848.0585 13426.27)
(150.5842 1839.466 12335.9)
(87.14954 339.4707 12649.93)
(271.7643 1238.568 13042.34)
(377.8069 2776.593 12559.99)
(211.3537 5427.081 10127.03)
(79.43542 400.1771 12236.79)
(268.0454 1459.667 12768.65)
(464.4963 3329.757 12824.13)
(545.5084 6964.719 11417.66)
(277.674 13424.51 5132.294)
(71.25977 415.6387 11951.54)
(246.2193 1510.458 12623.61)
(463.8551 3466.814 13243.54)
(685.5597 7622.806 13282.19)
(756.2501 18538.76 6726.714)
(64.12985 389.1184 11734.8)
(221.8757 1401.938 12541.34)
(430.0138 3172.824 13734.84)
(697.1385 6822.987 16210.96)
(1013.031 16020.32 27412.54)
(1274.589 1837.846 37050.98)
(660.6594 813.8875 36628.67)
(58.14036 328.3999 11528.48)
(199.7986 1168.112 12427.1)
(388.9317 2561.535 13939.41)
(649.1497 5045.412 16935.78)
(1017.886 8674.287 24085.42)
(1437.176 3364.795 30644.74)
(1519.116 1703.343 32961.22)
(770.0237 789.5355 34889.84)
(53.01667 244.3359 11290.64)
(180.5909 857.5663 12230.14)
(349.6836 1819.954 13859.22)
(584.7295 3317.102 16780.17)
(927.4464 4788.885 21895.75)
(1341.089 2623.358 26600.76)
(1678.908 1552.484 29294.74)
(1750.456 801.534 31917.48)
(880.0659 202.2138 34277.96)
(48.47971 147.8988 10997.05)
(163.7131 513.4288 11933.93)
(314.3366 1062.218 13561.4)
(521.3553 1835.048 16267.48)
(819.4847 2410.808 20297.56)
(1178.048 1523.646 23951.79)
(1541.947 978.3919 26442.64)
(1906.852 534.76 28937.44)
(1979.33 148.9493 31529.98)
(992.1654 -284.6029 33878.84)
(44.33111 48.45158 10637.44)
(148.5343 167.0405 11539.08)
(282.6615 340.5804 13103.52)
(463.8926 572.1321 15605.34)
(719.5081 720.2086 19068.22)
(1020.438 479.9827 22156.04)
(1340.44 318.2683 24369.27)
(1734.749 177.6074 26569.78)
(2130.733 51.59132 28852.83)
(2211.033 -90.31608 31243.77)
(1107.686 -300.967 33330.79)
(31.20275 -264.303 14724.49)
(74.57921 -86.32249 13916.54)
(91.11357 -306.4001 13755.62)
(88.10335 80.38611 13049.21)
(220.7463 290.8802 13172.46)
(147.3775 626.0145 11938.49)
(85.14514 217.393 12337.4)
(264.2897 789.5631 12583.32)
(363.6027 1745.157 11799.43)
(199.9584 3293.466 9049.076)
(77.04876 317.2906 11831.95)
(258.6322 1151.866 12163.78)
(442.6154 2584.038 11758.02)
(507.2295 5144.333 9665.899)
(249.0346 8784.657 4042.063)
(68.85173 376.2393 11502.7)
(236.6389 1364.293 11942.06)
(440.0709 3096.271 11953.01)
(632.8212 6478.146 10666.67)
(660.1467 12710.83 4885.091)
(61.94755 392.8429 11291.48)
(213.2809 1420.129 11866.67)
(408.4732 3240.281 12384.3)
(644.7629 7087.053 12367.11)
(863.8294 17230.64 6270.141)
(56.34002 369.3931 11135.67)
(192.8517 1325.071 11849.51)
(372.105 2983.168 12912.19)
(611.4958 6377.141 15155.58)
(941.3237 14891.65 25484.09)
(1412.303 1709.219 34386.81)
(1509.685 772.8439 34475.91)
(768.6066 337.3235 35620.39)
(51.6768 312.8772 10980.19)
(175.5371 1108.913 11793.42)
(337.9766 2421.158 13172.19)
(560.9086 4743.974 15923.21)
(888.1018 8107.499 22512.97)
(1319.423 3128.547 28472.46)
(1666.498 1586.413 30543.79)
(1745.887 757.3536 32732.06)
(880.5414 194.4957 34912.18)
(47.61845 233.4824 10786.6)
(160.5294 817.0389 11649.12)
(307.2462 1727.756 13154.11)
(507.9724 3135.408 15859.37)
(799.9819 4502.875 20589.17)
(1164.922 2452.086 24862.18)
(1533.024 1444.369 27205.54)
(1902.222 750.8523 29528.38)
(1979.694 212.5505 32046.26)
(994.9946 -359.2481 34480.79)
(43.92517 141.6855 10533.2)
(147.0563 490.6256 11401.64)
(279.4604 1012.035 12918.37)
(458.1386 1742.123 15442.2)
(711.6896 2278.8 19187.12)
(1014.761 1432.649 22524.72)
(1336.325 914.6833 24713.58)
(1732.321 498.6404 26861.25)
(2130.397 146.2923 29122.01)
(2213.894 -239.26 31560.67)
(1111.325 -811.8688 33809.38)
(40.45342 46.51683 10211.26)
(134.5884 160.0239 11052.7)
(253.9383 325.4579 12519.96)
(412.5091 545.1115 14867.16)
(632.3632 683.7489 18103.68)
(886.0142 453.697 20946.67)
(1153.778 299.2717 22919.35)
(1500.14 166.1565 24832)
(1925.823 48.95477 26770.79)
(2355.979 -78.75055 28810.25)
(2450.933 -264.5791 30935.45)
(1229.994 -585.9632 32677.62)
(32.07548 -412.7389 15104.65)
(75.63013 -251.0029 14105.14)
(92.66557 -893.3282 14023.18)
(88.10335 -80.38611 13049.21)
(220.7463 -290.8802 13172.46)
(147.3775 -626.0144 11938.49)
(84.09448 74.76441 12174.09)
(260.3881 270.8201 12347.11)
(356.2811 593.9478 11422.81)
(194.2488 1101.219 8552.346)
(75.31941 203.1891 11539.84)
(251.8489 734.2968 11736.94)
(427.125 1624.208 11050.67)
(481.3504 3122.417 8645.34)
(231.3313 4988.836 3453.506)
(66.80247 298.3105 11122.07)
(228.5229 1076.603 11376.72)
(420.2744 2402.88 10961.86)
(591.3902 4785.501 9038.461)
(595.5208 8321.231 3853.658)
(59.85886 355.6041 10867.25)
(205.0564 1282.703 11225.86)
(387.9918 2893.95 11178.1)
(597.2523 6023.024 9935.982)
(760.8318 11817.21 4559.103)
(54.42182 372.9288 10714.82)
(185.3967 1342.266 11211.81)
(353.6188 3046.593 11642.29)
(566.4693 6623.944 11562.91)
(807.7105 16016.76 5835.366)
(50.07461 351.933 10605.95)
(169.4305 1257.919 11245.09)
(323.3813 2819.695 12201.2)
(528.6046 5996.183 14249.24)
(822.3575 13918.56 23820.22)
(1297.033 1589.118 31950.78)
(1656.142 719.5747 31950.8)
(1742.376 323.1528 33419.27)
(880.7712 83.33622 35364.67)
(46.41351 298.9793 10489.94)
(156.0316 1056.509 11233.03)
(296.9546 2298.512 12501.85)
(487.3102 4484.163 15049.28)
(766.2325 7623.398 21169.49)
(1146.277 2924.233 26611.47)
(1521.725 1475.685 28366.1)
(1896.689 708.7372 30282.49)
(1979.851 201.5491 32633.19)
(997.9226 -297.1732 35139.06)
(43.14402 223.6738 10331.59)
(144.1931 780.7521 11129.48)
(273.1497 1646.135 12530.31)
(446.3728 2976.651 15054.73)
(694.7723 4256.363 19462.75)
(1003.493 2305.648 23380.71)
(1328.61 1350.264 25426.45)
(1727.919 699.899 27409.55)
(2129.701 207.4304 29596.15)
(2218.637 -301.6756 32106.57)
(1117.488 -1058.006 34651.06)
(40.08268 136.0278 10111.19)
(133.2478 470.0171 10921.03)
(251.0593 967.0993 12343.03)
(407.3873 1659.85 14711.72)
(625.489 2163.449 18216.56)
(881.0887 1354.198 21295.16)
(1150.239 860.0861 23243.06)
(1498.006 466.4639 25104.23)
(1925.267 138.6237 27019.85)
(2357.865 -208.5622 29098.58)
(2457.356 -713.8512 31363.77)
(1236.727 -1604.88 33401.3)
(37.13009 44.74421 9821.065)
(122.821 153.6346 10610.13)
(230.1209 311.79 11992.88)
(370.6623 520.9145 14206.34)
(562.4622 651.4668 17249.48)
(778.8213 430.7277 19889.42)
(1001.672 282.8826 21670.55)
(1290.31 156.2638 23356.92)
(1661.726 46.03463 25019.87)
(2118.045 -71.45444 26719.43)
(2583.168 -236.7391 28475.91)
(2696.521 -518.6429 30199.43)
(1355.505 -1024.642 31325.57)
(33.28059 -520.5792 15631.57)
(77.63553 -391.9605 14466.07)
(95.64054 -1401.431 14543.2)
(89.25916 -233.7398 13224.81)
(224.3043 -848.0585 13426.27)
(150.5842 -1839.466 12335.9)
(84.09448 -74.76441 12174.09)
(260.3881 -270.8201 12347.11)
(356.2811 -593.9478 11422.81)
(194.2488 -1101.219 8552.346)
(74.4129 69.8795 11387.2)
(248.3077 251.8647 11517.3)
(419.1356 552.7983 10700.36)
(468.3714 1044.123 8174.951)
(222.8565 1619.475 3194.378)
(65.31759 191.0343 10847.43)
(222.6739 686.3179 10977.77)
(406.2538 1510.36 10304.22)
(563.3321 2904.885 8089.715)
(555.4748 4727.054 3296.642)
(58.08139 281.9492 10507.5)
(198.0889 1012.217 10694.32)
(370.9417 2245.867 10251.72)
(559.8924 4449.441 8422.48)
(691.2994 7737.938 3600.607)
(52.5859 337.5777 10312.09)
(178.263 1212.373 10606.11)
(336.0414 2720.955 10508.13)
(525.6144 5629.442 9290.654)
(715.2732 10985.53 4245.038)
(48.36753 355.3016 10204.99)
(162.8774 1274.242 10639.68)
(307.3467 2879.645 11000.81)
(489.9786 6228.239 10870.94)
(707.7071 14970.13 5455.403)
(44.97267 336.3004 10132.32)
(150.5969 1198.475 10710.59)
(284.1238 2676.869 11580)
(459.2897 5667.84 13466.86)
(709.8492 13087.7 22398.64)
(1127.029 1485.322 29862.44)
(1512.331 669.2807 29673.68)
(1892.527 302.2109 30919.32)
(1979.792 85.63416 33052.83)
(999.7908 -115.1611 35584.55)
(42.05116 286.4194 10047.38)
(140.1481 1009.587 10731.85)
(263.9895 2189.934 11908.84)
(428.2069 4257.147 14285.6)
(665.4973 7206.171 20011.28)
(987.4933 2749.614 25025.52)
(1318.854 1379.482 26510.99)
(1722.703 660.3999 28109.49)
(2128.755 195.4696 30135.69)
(2223.536 -249.2108 32703.81)
(1124.066 -909.2591 35603.06)
(39.36929 214.7423 9917.625)
(130.6509 747.9575 10660.3)
(245.3834 1573.047 11972.19)
(396.9142 2836.091 14342.52)
(610.6146 4040.951 18478.23)
(871.3137 2179.409 22104.29)
(1143.608 1269.662 23913.31)
(1494.145 654.6711 25616.38)
(1924.224 196.13 27458.65)
(2360.983 -262.8308 29595.38)
(2468.235 -930.5947 32116.93)
(1248.408 -2152.921 34736.36)
(36.7896 130.8443 9724.803)
(121.5967 451.2507 10483.71)
(227.5094 926.4859 11823.37)
(366.0556 1586.174 14057.79)
(556.3429 2061.314 17357.02)
(774.4907 1285.644 20220.27)
(998.6003 812.987 21976.54)
(1288.465 438.6858 23612.85)
(1661.165 130.3008 25252.31)
(2119.291 -189.2236 26985.37)
(2587.927 -638.8463 28863.17)
(2708.515 -1420.741 30842.6)
(1367.195 -2870.609 32407.41)
(34.24342 43.11191 9461.94)
(112.7348 147.7806 10204.87)
(210.0187 299.3433 11513.15)
(335.9506 499.0437 13609.22)
(505.528 622.5562 16484.36)
(692.8958 410.3908 18952.72)
(880.578 268.5598 20578.59)
(1120.09 147.7082 22086.86)
(1428.291 43.34795 23536.53)
(1823.566 -66.2865 24972.62)
(2309.585 -216.9821 26398.69)
(2809.655 -466.018 27750.48)
(2943.648 -907.7475 28819.96)
(1480.556 -1667.809 28916.72)
(34.69731 -575.1033 16252.97)
(80.40419 -494.3608 14966.3)
(99.77281 -1776.051 15280.26)
(91.46434 -364.9983 13560.86)
(231.1229 -1330.358 13919.54)
(156.8084 -2926.896 13138.56)
(85.14514 -217.393 12337.4)
(264.2897 -789.5631 12583.32)
(363.6027 -1745.157 11799.43)
(199.9584 -3293.466 9049.076)
(74.4129 -69.8795 11387.2)
(248.3077 -251.8647 11517.3)
(419.1356 -552.7983 10700.36)
(468.3714 -1044.123 8174.951)
(222.8565 -1619.475 3194.378)
(64.53922 65.69927 10703.92)
(219.6203 235.4079 10772.48)
(399.0203 514.0539 9978.531)
(549.2443 971.4284 7652.375)
(536.2752 1534.726 3051.34)
(56.79344 180.5566 10247.92)
(193.0676 645.2714 10319.22)
(358.8643 1411.667 9637.058)
(534.5707 2700.959 7540.528)
(648.0874 4396.38 3082.884)
(51.02353 267.6563 9970.568)
(172.2195 956.7156 10103.69)
(321.4082 2111.605 9637.09)
(493.4773 4158.686 7876.059)
(652.7549 7193.787 3354.113)
(46.73368 321.6213 9821.287)
(156.6067 1150.931 10064.66)
(292.1003 2571.843 9928.737)
(454.929 5293.103 8734.302)
(628.3278 10267.66 3968.998)
(43.4375 339.5195 9749.161)
(144.7647 1214.027 10133.78)
(270.0275 2733.783 10440.35)
(425.7855 5887.187 10273.3)
(611.541 14076.47 5129.177)
(40.74433 322.1728 9704.785)
(135.2604 1145.25 10232.61)
(252.5691 2550.424 11030.5)
(403.5708 5380.935 12783.2)
(616.5892 12371.65 21173.13)
(970.9796 1396.633 28082.38)
(1310.755 625.6326 27733.02)
(1718.811 281.5339 28700.81)
(2127.988 82.74022 30521.87)
(2226.656 -96.47913 33108.2)
(1128.406 -362.1553 36274.68)
(38.37122 274.9825 9644.77)
(126.982 967.1816 10279.37)
(237.1448 2092.707 11378.29)
(380.7436 4056.143 13609.68)
(584.8737 6841.567 18998.98)
(857.4335 2599.094 23659.07)
(1135.227 1297.132 24933.04)
(1489.583 617.6593 26270.26)
(1922.948 184.4255 27958.17)
(2364.19 -216.9797 30139.07)
(2479.85 -800.0801 32968.57)
(1261.371 -1920.794 36373.76)
(36.1344 206.5592 9538.615)
(119.225 718.0943 10233.39)
(222.3611 1506.989 11468.1)
(356.6353 2710.214 13704.97)
(543.1016 3850.21 17606.33)
(765.8961 2069.096 20988.44)
(992.8456 1200.141 22610.08)
(1285.13 615.6725 24094.33)
(1660.132 184.2346 25661.87)
(2121.347 -238.4225 27443.64)
(2595.994 -833.0672 29544.14)
(2729.329 -1906.473 32029.18)
(1388.207 -4030.467 34546.4)
(33.92925 126.071 9369.189)
(111.6103 434.0566 10083.27)
(207.6336 889.5011 11350.41)
(331.7717 1519.58 13466.9)
(500.0237 1969.844 16587.13)
(689.0408 1224.946 19267.95)
(877.8776 771.8265 20869.09)
(1118.486 414.6676 22328.76)
(1427.786 122.6833 23755)
(1824.491 -175.5369 25220.58)
(2313.067 -585.5847 26755.06)
(2818.736 -1276.799 28330.15)
(2964.471 -2543.594 29777.56)
(1499.712 -4825.715 30382.68)
(31.70736 41.60248 9129.983)
(103.9729 142.3899 9831.856)
(192.7844 287.9391 11073.78)
(306.6421 479.126 13065.54)
(458.2796 596.4236 15792.68)
(622.8997 392.1786 18113.35)
(783.5471 255.8791 19610.82)
(984.7944 140.2283 20976.01)
(1239.763 40.98018 22259.68)
(1566.329 -62.21053 23495.59)
(1984.109 -201.9193 24674.72)
(2498.163 -427.8244 25718.05)
(3031.306 -816.4071 26441.21)
(3184.956 -1476.245 26481.61)
(1599.016 -2490.602 48884.49)
(36.17761 -569.6408 16902.33)
(83.65854 -546.133 15556.21)
(104.655 -1966.415 16168.99)
(94.50814 -460.3491 14026.6)
(240.5906 -1685.906 14618.59)
(165.6145 -3772.149 14348.72)
(87.14954 -339.4707 12649.93)
(271.7643 -1238.568 13042.34)
(377.8069 -2776.593 12559.99)
(211.3537 -5427.081 10127.03)
(75.31941 -203.1891 11539.84)
(251.8489 -734.2968 11736.94)
(427.125 -1624.208 11050.67)
(481.3504 -3122.417 8645.34)
(231.3313 -4988.836 3453.506)
(64.53922 -65.69927 10703.92)
(219.6203 -235.4078 10772.48)
(399.0203 -514.0539 9978.531)
(549.2443 -971.4284 7652.375)
(536.2752 -1534.726 3051.34)
(56.11829 62.09578 10112.27)
(190.4461 221.3286 10126.2)
(352.6328 480.4638 9332.652)
(521.85 903.2456 7133.965)
(627.3328 1427.479 2854.859)
(49.89145 171.4034 9724.145)
(167.8642 609.8892 9749.148)
(311.0425 1327.271 9059.146)
(471.6889 2524.461 7051.743)
(613.8482 4087.389 2872.865)
(45.34327 255.0047 9495.907)
(151.2943 908.2289 9587.685)
(279.4077 1995.878 9105.387)
(427.3561 3910.186 7404.158)
(574.606 6723.689 3136.294)
(41.96817 307.3351 9382.501)
(139.1838 1096.542 9585.921)
(256.6242 2441.566 9422.528)
(395.3836 5003.216 8253.541)
(543.464 9654.519 3731.471)
(39.35194 325.2566 9337.724)
(130.0153 1160.111 9681.406)
(240.0222 2604.649 9944.632)
(374.1128 5589.178 9751.102)
(531.3142 13306.28 4847.591)
(37.17774 309.3083 9315.85)
(122.5488 1097.146 9801.093)
(226.873 2437.196 10538.92)
(358.8129 5126.899 12178.14)
(541.8676 11745.87 20102.02)
(843.1084 1320.186 26548.65)
(1128.271 588.2837 26082.07)
(1486.19 263.2957 26822.73)
(1921.99 77.96452 28315.84)
(2366.225 -83.96064 30507.33)
(2487.514 -318.7574 33569.22)
(1270.338 -786.7903 37663.5)
(35.21775 264.5039 9276.157)
(115.8742 928.5662 9867.669)
(214.888 2004.83 10899.14)
(342.09 3876.133 13004.62)
(520.1857 6518.701 18102.49)
(753.6917 2467.561 22464.55)
(985.5726 1226.114 23573.98)
(1281.195 580.8531 24709.07)
(1658.896 173.1294 26128.16)
(2123.457 -196.7899 27945.23)
(2604.613 -716.4767 30314.18)
(2752.424 -1701.502 33484.52)
(1412.99 -3836.399 37521.01)
(33.32469 199.0239 9189.792)
(109.432 690.7329 9842.487)
(202.9315 1446.833 11009.31)
(323.2264 2596.435 13128.88)
(488.1127 3679.38 16825.36)
(681.3901 1971.42 19999.86)
(872.8177 1139.385 21470.56)
(1115.588 581.9648 22783.87)
(1426.859 173.4357 24139.96)
(1826.014 -221.1738 25647.88)
(2318.974 -763.7348 27381.74)
(2834.501 -1713.833 29399.74)
(3001.898 -3572.518 31671.87)
(1535.861 -7266.519 33549.57)
(31.41634 121.657 9040.48)
(102.9354 418.2232 9714.694)
(190.5937 855.6136 10917.23)
(302.8253 1458.932 12928.9)
(453.2863 1887.161 15891.12)
(619.4323 1170.588 18414.59)
(781.1435 735.3843 19887.6)
(983.3843 393.6698 21205.67)
(1239.318 115.9802 22466.18)
(1567.078 -164.7454 23728.59)
(1986.843 -544.9592 25006.76)
(2504.932 -1172.272 26250.85)
(3047.103 -2288.106 27302.86)
(3218.971 -4272.656 27774.26)
(1628.037 -7503.455 52165.04)
(29.45765 40.20173 8822.029)
(96.2747 137.4049 9487.038)
(177.8102 277.437 10669.3)
(281.5061 460.8756 12567.48)
(418.3658 572.6236 15162.67)
(564.7861 375.7169 17354.28)
(704.4961 244.5242 18743.32)
(876.4222 133.607 19991.13)
(1090.152 38.90349 21142.52)
(1359.49 -58.79045 22224.41)
(1703.113 -189.6486 23219.6)
(2141.475 -398.3231 24042.1)
(2680.423 -749.781 24501.04)
(3241.546 -1327.665 24265.92)
(3408.728 -2200.392 44501.78)
(218.746 -505.324 15396.73)
(37.56629 -506.4002 17508.38)
(87.05886 -540.951 16172.65)
(109.7583 -1941.183 17104.76)
(98.08529 -508.5566 14575.81)
(251.7731 -1866.56 15461.39)
(176.2158 -4224.11 15925.12)
(89.91591 -428.1513 13083.07)
(282.1389 -1569.548 13692.84)
(397.8885 -3578.074 13706.42)
(228.2333 -7349.176 11977.96)
(77.04876 -317.2906 11831.95)
(258.6322 -1151.866 12163.78)
(442.6154 -2584.038 11758.02)
(507.2295 -5144.333 9665.899)
(249.0346 -8784.657 4042.063)
(65.31759 -191.0343 10847.43)
(222.6739 -686.3179 10977.77)
(406.2538 -1510.36 10304.22)
(563.3321 -2904.885 8089.715)
(555.4748 -4727.054 3296.642)
(56.11829 -62.09578 10112.27)
(190.4461 -221.3286 10126.2)
(352.6328 -480.4638 9332.652)
(521.85 -903.2456 7133.965)
(627.3328 -1427.479 2854.859)
(49.29802 58.94787 9595.376)
(165.5903 209.1923 9566.707)
(305.6939 451.7385 8772.927)
(460.7412 844.2215 6671.749)
(595.1455 1327.18 2660.897)
(44.3358 163.3014 9261.13)
(147.4659 578.979 9251.101)
(270.4167 1254.525 8559.092)
(408.6609 2373.598 6629.064)
(541.1571 3820.287 2686.497)
(40.71779 243.6775 9071.572)
(134.4559 865.308 9131.478)
(245.4662 1894.77 8640.852)
(371.4672 3696.005 6996.179)
(497.3841 6322.08 2948.469)
(38.01929 294.4242 8986.465)
(124.9961 1047.843 9157.865)
(228.0923 2326.231 8974.855)
(347.3831 4749.92 7833.486)
(472.2634 9126.089 3526.324)
(35.90612 312.269 8963.444)
(117.7913 1111.384 9273.03)
(215.588 2489.015 9501.225)
(332.589 5325.31 9289.046)
(466.8787 12633.21 4601.534)
(34.12163 297.5218 8959.77)
(111.8254 1053.342 9408.481)
(205.5707 2334.857 10094.98)
(322.363 4899.39 11636.56)
(481.8971 11191.7 19153.46)
(741.0958 1253.382 25207.96)
(979.5375 556.0775 24660.12)
(1278.27 247.6027 25228.5)
(1657.985 73.16097 26462.08)
(2124.79 -76.13655 28285.03)
(2610.306 -285.5167 30857.27)
(2768.398 -697.1263 34630.94)
(1431.662 -1651.899 40372.39)
(32.4789 254.8548 8936.908)
(106.3545 893.1857 9490.697)
(196.1061 1924.803 10463.05)
(310.0318 3713.42 12457.91)
(467.4983 6229.522 17299.5)
(670.5256 2351.091 21406.3)
(866.4228 1164.051 22385.69)
(1112.169 549.0528 23364.95)
(1425.758 162.9556 24578.26)
(1827.575 -182.5486 26115.62)
(2325.293 -656.9665 28090.44)
(2852.004 -1530.102 30711.92)
(3046.034 -3401.848 34308.24)
(1582.649 -7746.783 38823.62)
(30.85635 192.0557 8867.364)
(100.9254 665.5368 9482.688)
(186.275 1391.714 10589.13)
(295.0202 2492.815 12604.37)
(442.481 3524.956 16119.36)
(612.5505 1883.944 19114.03)
(776.6396 1085.593 20460.68)
(980.8358 552.4975 21637.74)
(1238.504 163.9558 22830.04)
(1568.313 -207.5817 24130.13)
(1991.482 -710.8077 25590.68)
(2516.693 -1573.802 27234.1)
(3075.502 -3214.837 29008.1)
(3283.159 -6437.153 30570.41)
(1686.123 -12471.41 60016.42)
(29.1872 117.5608 8735.539)
(95.31359 403.5815 9373.977)
(175.7888 824.4071 10518.46)
(278.0004 1403.362 12436.04)
(413.805 1811.858 15257.19)
(561.6407 1121.454 17642.87)
(702.3343 702.7516 19007.82)
(875.1673 375.0817 20209.94)
(1089.76 110.1027 21338.57)
(1360.13 -155.691 22444.63)
(1705.381 -511.8555 23531.55)
(2146.841 -1091.497 24538.33)
(2692.249 -2101.639 25292.51)
(3267.242 -3843.689 25427.34)
(3460.006 -6632.389 47368.63)
(224.8749 -1610.567 16448.11)
(27.44544 38.89795 8535.469)
(89.44528 132.7787 9167.134)
(164.6517 267.7252 10295.34)
(259.6604 444.0686 12108.87)
(384.1192 550.8153 14585.35)
(515.6711 360.7249 16662.71)
(638.8458 234.2613 17958.61)
(788.1202 127.6796 19107.97)
(970.3515 37.06707 20151.6)
(1195.602 -55.81601 21111.73)
(1478.149 -179.2369 21967.33)
(1837.068 -374.1585 22629.64)
(2292.95 -698.1456 22910.61)
(2851.223 -1219.292 22489.07)
(3430.56 -1977.826 40754.26)
(458.5445 -444.0342 13996.33)
(259.4109 -807.9051 22036.03)
(38.72666 -395.4394 18011.08)
(90.24921 -480.9097 16748)
(114.5101 -1711.101 17952.2)
(101.8228 -503.7341 15149.73)
(263.4611 -1842.632 16348.76)
(187.3775 -4136.063 17690.79)
(93.16674 -472.9865 13593.84)
(294.3882 -1737.71 14477.05)
(422.0461 -4006.479 15199.4)
(249.7993 -8650.539 14953.21)
(79.43542 -400.1771 12236.79)
(268.0454 -1459.667 12768.65)
(464.4963 -3329.757 12824.13)
(545.5084 -6964.719 11417.66)
(277.674 -13424.51 5132.294)
(66.80247 -298.3105 11122.07)
(228.5229 -1076.603 11376.72)
(420.2744 -2402.88 10961.86)
(591.3902 -4785.501 9038.461)
(595.5208 -8321.231 3853.658)
(56.79344 -180.5566 10247.92)
(193.0676 -645.2714 10319.22)
(358.8643 -1411.667 9637.058)
(534.5707 -2700.959 7540.528)
(648.0874 -4396.38 3082.884)
(49.29802 -58.94787 9595.376)
(165.5903 -209.1923 9566.707)
(305.6939 -451.7385 8772.927)
(460.7412 -844.2215 6671.749)
(595.1455 -1327.18 2660.897)
(43.80769 56.16147 9138.447)
(145.4671 198.5899 9077.902)
(265.7775 426.9785 8288.548)
(399.2668 793.7678 6271.763)
(525.0731 1240.452 2488.381)
(39.81177 156.0475 8847.223)
(131.0487 551.6171 8810.794)
(237.5624 1190.969 8122.211)
(355.2512 2243.568 6263.506)
(468.6898 3592.06 2525.524)
(36.88521 233.4407 8688.597)
(120.7442 826.8779 8723.597)
(218.1609 1805.259 8230.079)
(326.3561 3508.862 6639.728)
(432.2937 5975.948 2786.155)
(34.68905 282.6677 8626.21)
(113.2388 1003.831 8771.472)
(204.858 2222.953 8574.474)
(308.7945 4525.649 7461.89)
(414.9545 8664.315 3347.072)
(32.95374 300.3697 8620.792)
(107.4804 1067.012 8901.494)
(195.3342 2384.499 9100.84)
(298.7737 5088.994 8875.564)
(415.1299 12037.15 4383.761)
(31.4675 286.6682 8632.063)
(102.6359 1013.208 9049.001)
(187.5962 2241.658 9690.979)
(292.1362 4693.736 11147.24)
(433.0531 10695.31 18303.83)
(659.312 1194.226 24020.26)
(861.1163 527.9327 23416.87)
(1109.628 234.0474 23855.94)
(1424.951 68.8552 24892.15)
(1828.56 -70.62518 26432.51)
(2329.472 -261.8342 28590.31)
(2864.115 -627.0506 31745.84)
(3079.28 -1465.177 36837.61)
(1623.816 -3638.17 45968.01)
(30.07288 245.9319 8623.333)
(98.08577 860.605 9143.728)
(180.006 1851.477 10063.66)
(282.9685 3565.231 11960.17)
(423.7795 5968.105 16573.59)
(602.7776 2246.78 20458.07)
(770.9472 1109.099 21332.61)
(977.8289 521.2545 22189.41)
(1237.539 154.0453 23244.33)
(1569.578 -171.3344 24569.69)
(1996.45 -611.4944 26251.09)
(2529.765 -1405.367 28440.63)
(3109.003 -3062.582 31382.89)
(3366.236 -6867.242 35236.08)
(1771.744 -16254.84 77191.13)
(28.66678 185.5893 8568.252)
(93.45176 642.237 9150.092)
(171.8037 1340.955 10202.31)
(270.8314 2397.867 12123.86)
(403.9353 3384.312 15476.31)
(555.3979 1804.872 18312.95)
(698.2833 1037.422 19555.47)
(872.8994 526.4111 20621.6)
(1089.044 155.647 21684.01)
(1361.183 -196.1788 22824.15)
(1709.232 -667.6606 24080.18)
(2156.17 -1465.506 25454.2)
(2713.528 -2953.516 26859.34)
(3315.755 -5793.864 27941.78)
(3562.678 -11034.33 54252.2)
(238.1322 -3161.55 18965.06)
(27.1934 113.7482 8451.783)
(88.55207 389.9938 9057.879)
(162.7793 795.5486 10149.78)
(256.4254 1352.185 11982.22)
(379.9299 1742.856 14676.27)
(512.7982 1076.706 16939.79)
(636.8849 673.257 18212)
(786.9918 358.4414 19317.07)
(970.0038 104.9049 20338.39)
(1196.163 -147.8162 21320.79)
(1480.098 -483.7633 22262.16)
(1841.539 -1025.317 23095.78)
(2302.35 -1957.056 23647.55)
(2870.464 -3530.569 23555.16)
(3469.013 -5963.962 43320.59)
(469.2471 -1416.704 14911.81)
(269.4637 -2632.101 23465.98)
(25.63289 37.68131 8268.12)
(83.33649 128.4728 8869.442)
(152.9769 258.7124 9948.372)