/*--------------------------------*- C++ -*----------------------------------*\
| =========                 |                                                 |
| \\      /  F ield         | OpenFOAM: The Open Source CFD Toolbox           |
|  \\    /   O peration     | Version:  2306                                  |
|   \\  /    A nd           | Website:  www.openfoam.com                      |
|    \\/     M anipulation  |                                                 |
\*---------------------------------------------------------------------------*/
FoamFile
{
    version     2.0;
    format      ascii;
    arch        "LSB;label=32;scalar=64";
    class       volScalarField;
    location    "0.9/phiEC";
    object      phi;
}
// * * * * * * * * * * * * * * * * * * * * * * * * * * * * * * * * * * * * * //

dimensions      [1 2 -3 0 0 -1 0];

internalField   nonuniform List<scalar> 
20000
(
0.75759
0.7575891
0.757586
0.7577773
0.7575875
0.7575852
0.7577745
0.7575804
0.757765
0.7579764
0.7575852
0.7575836
0.757769
0.7575797
0.7577624
0.7579709
0.7575749
0.757748
0.757955
0.7581985
0.7575824
0.7575814
0.7577612
0.7575782
0.7577572
0.75796
0.7575741
0.7577455
0.7579498
0.7581897
0.7575699
0.7577311
0.7579256
0.7581663
0.7584572
0.7575795
0.7575788
0.7577519
0.7575762
0.7577498
0.7579442
0.7575728
0.7577407
0.7579395
0.7581716
0.7575692
0.7577288
0.7579207
0.7581579
0.7584466
0.7575656
0.757716
0.7578966
0.7581227
0.7584115
0.7586843
0.7575767
0.757576
0.7577418
0.7575737
0.7577409
0.7579245
0.7575709
0.7577338
0.7579245
0.7581436
0.757568
0.7577243
0.7579111
0.7581408
0.7584237
0.757565
0.7577138
0.757892
0.7581149
0.7584015
0.7586777
0.7575619
0.7577029
0.7578707
0.75808
0.7583509
0.758626
0.758843
0.7575743
0.7575733
0.7577322
0.7575711
0.7577314
0.7579029
0.7575686
0.7577255
0.7579058
0.7581057
0.7575662
0.7577179
0.7578972
0.7581143
0.7583841
0.7575638
0.7577096
0.7578831
0.7580989
0.7583798
0.7586645
0.7575613
0.7577009
0.7578665
0.7580728
0.7583416
0.7586197
0.7588389
0.7575586
0.7576916
0.7578484
0.7580423
0.7582923
0.7585501
0.7587755
0.7590064
0.7575725
0.7575711
0.7577241
0.7575686
0.7577222
0.7578823
0.7575662
0.7577167
0.7578852
0.7580603
0.7575641
0.7577102
0.7578798
0.7580783
0.7583177
0.7575621
0.7577037
0.7578701
0.7580743
0.7583423
0.7586457
0.7575601
0.7576969
0.7578581
0.7580579
0.7583214
0.7586072
0.7588311
0.7575581
0.7576897
0.7578444
0.7580355
0.7582837
0.7585442
0.7587715
0.7590043
0.7575557
0.7576818
0.7578291
0.7580097
0.7582407
0.7584774
0.7586886
0.758929
0.7591728
0.7575716
0.7575694
0.7577182
0.7575665
0.7577145
0.7578651
0.7575639
0.7577082
0.7578657
0.7580192
0.7575618
0.7577019
0.7578607
0.7580354
0.7582019
0.7575601
0.7576965
0.7578539
0.7580409
0.7582795
0.7586263
0.7575586
0.7576913
0.757846
0.758035
0.7582865
0.7585894
0.7588214
0.757557
0.757686
0.7578366
0.7580216
0.7582649
0.7585325
0.7587642
0.7590005
0.7575552
0.7576799
0.7578253
0.7580033
0.7582326
0.7584719
0.758685
0.758927
0.7591723
0.7575532
0.757673
0.7578122
0.7579815
0.7581963
0.7584137
0.7586061
0.7588308
0.7590848
0.7593404
0.7575716
0.7575686
0.7577151
0.757565
0.7577089
0.757853
0.7575619
0.757701
0.7578495
0.7579868
0.7575596
0.757694
0.7578425
0.7579964
0.7581218
0.757558
0.7576887
0.7578362
0.7580009
0.7581699
0.7575567
0.7576846
0.7578309
0.758004
0.7582281
0.758571
0.7588132
0.7575555
0.7576807
0.7578252
0.7580002
0.7582324
0.758516
0.7587549
0.758996
0.7575542
0.7576764
0.7578179
0.7579903
0.7582151
0.7584611
0.7586781
0.7589233
0.7591714
0.7575527
0.7576713
0.7578086
0.7579755
0.7581886
0.7584085
0.7586027
0.7588289
0.7590843
0.7593415
0.7575508
0.7576652
0.7577973
0.7579569
0.7581579
0.7583589
0.758534
0.7587381
0.7589749
0.7592414
0.7595081
0.7575725
0.7575686
0.7577151
0.7575642
0.757706
0.7578468
0.7575605
0.7576958
0.757838
0.7579649
0.7575578
0.7576873
0.7578274
0.7579657
0.7580677
0.757556
0.7576814
0.7578193
0.7579646
0.7580941
0.7575547
0.7576773
0.7578143
0.7579668
0.7581263
0.7575537
0.7576743
0.7578109
0.7579712
0.7581782
0.7584989
0.7587472
0.7589926
0.7575528
0.7576713
0.7578071
0.7579701
0.7581847
0.7584457
0.7586694
0.758919
0.7591703
0.7575517
0.7576679
0.7578016
0.7579631
0.7581722
0.7583984
0.7585963
0.7588255
0.7590834
0.7593433
0.7575504
0.7576636
0.7577939
0.7579512
0.7581507
0.7583541
0.7585308
0.7587363
0.7589743
0.7592423
0.7595111
0.7575487
0.7576582
0.7577839
0.7579351
0.7581243
0.7583116
0.758472
0.7586573
0.7588718
0.7591193
0.7593973
0.7596738
0.7575743
0.7575694
0.7577182
0.7575642
0.757706
0.7578468
0.7575598
0.7576931
0.757832
0.7579539
0.7575565
0.7576825
0.7578167
0.7579449
0.758034
0.7575542
0.7576751
0.7578052
0.7579361
0.7580428
0.7575528
0.7576704
0.7577985
0.7579331
0.7580558
0.7575518
0.7576674
0.7577953
0.7579364
0.7580835
0.7575511
0.7576653
0.7577937
0.7579428
0.758134
0.7584298
0.7586622
0.7589158
0.7591694
0.7575503
0.7576631
0.7577914
0.7579441
0.7581436
0.758384
0.7585882
0.7588214
0.7590822
0.7593451
0.7575494
0.7576603
0.7577872
0.7579395
0.7581351
0.7583446
0.7585248
0.7587331
0.7589734
0.7592438
0.7595162
0.7575483
0.7576566
0.7577807
0.7579296
0.7581175
0.7583071
0.758469
0.7586557
0.7588713
0.7591201
0.7593999
0.7596796
0.7575468
0.7576518
0.7577719
0.7579156
0.7580946
0.7582703
0.7584186
0.7585881
0.7587823
0.7590058
0.759263
0.7595508
0.7598348
0.7575767
0.7575711
0.7577241
0.757565
0.7577089
0.757853
0.7575598
0.7576931
0.757832
0.7579539
0.7575558
0.75768
0.7578111
0.7579345
0.7580178
0.757553
0.7576706
0.7577952
0.7579168
0.7580109
0.7575511
0.7576645
0.7577853
0.7579066
0.7580081
0.75755
0.7576609
0.7577805
0.7579049
0.758018
0.7575492
0.7576588
0.7577789
0.7579102
0.7580455
0.7575487
0.7576573
0.7577786
0.7579183
0.7580959
0.7583692
0.7585815
0.7588184
0.7590813
0.7593463
0.7575481
0.7576557
0.7577774
0.7579214
0.7581081
0.758331
0.7585173
0.7587293
0.7589723
0.7592453
0.7595216
0.7575474
0.7576535
0.7577743
0.7579185
0.7581027
0.7582981
0.7584634
0.7586527
0.7588704
0.7591214
0.7594044
0.7596898
0.7575463
0.7576502
0.7577688
0.7579104
0.7580881
0.758266
0.7584158
0.7585865
0.7587818
0.7590065
0.7592653
0.7595559
0.7598451
0.757545
0.7576459
0.7577609
0.757898
0.7580681
0.7582337
0.7583719
0.7585283
0.7587056
0.7589075
0.759139
0.7594041
0.7596993
0.759987
0.7575795
0.7575733
0.7577322
0.7575665
0.7577145
0.7578651
0.7575605
0.7576958
0.757838
0.7579649
0.7575558
0.75768
0.7578111
0.7579345
0.7580178
0.7575523
0.7576682
0.7577901
0.7579071
0.7579955
0.7575499
0.7576602
0.757776
0.7578886
0.7579784
0.7575484
0.7576553
0.7577681
0.7578801
0.7579737
0.7575475
0.7576525
0.7577649
0.7578805
0.7579843
0.757547
0.7576511
0.7577646
0.7578874
0.7580127
0.7575466
0.7576502
0.7577653
0.7578969
0.758063
0.7583171
0.758511
0.7587265
0.7589714
0.7592463
0.7595253
0.7575461
0.7576491
0.757765
0.7579013
0.7580771
0.7582853
0.7584563
0.7586491
0.7588693
0.7591228
0.7594092
0.7597011
0.7575455
0.7576473
0.7577626
0.7578998
0.758074
0.7582574
0.7584104
0.7585837
0.758781
0.7590077
0.7592693
0.759565
0.7598635
0.7575446
0.7576444
0.7577579
0.757893
0.7580618
0.7582296
0.7583692
0.7585268
0.7587052
0.7589082
0.7591411
0.7594088
0.7597084
0.7600037
0.7575434
0.7576405
0.7577509
0.757882
0.7580441
0.758201
0.7583305
0.7584761
0.7586394
0.7588234
0.759032
0.7592698
0.7595405
0.759839
0.760124
0.7575824
0.757576
0.7577418
0.7575686
0.7577222
0.7578823
0.7575619
0.757701
0.7578495
0.7579868
0.7575565
0.7576825
0.7578167
0.7579449
0.758034
0.7575523
0.7576682
0.7577901
0.7579071
0.7579955
0.7575493
0.757658
0.7577712
0.7578796
0.7579642
0.7575473
0.7576513
0.7577594
0.7578633
0.7579461
0.757546
0.7576473
0.7577532
0.7578572
0.7579429
0.7575453
0.7576452
0.7577513
0.7578594
0.7579552
0.7575449
0.7576443
0.7577519
0.7578676
0.7579844
0.7575446
0.7576438
0.7577533
0.7578779
0.7580343
0.7582721
0.7584505
0.7586465
0.7588685
0.7591236
0.7594124
0.759709
0.7575443
0.757643
0.7577537
0.7578833
0.7580496
0.7582453
0.7584037
0.7585804
0.75878
0.7590089
0.7592737
0.759575
0.7598854
0.7575438
0.7576416
0.757752
0.7578828
0.7580484
0.7582215
0.7583641
0.7585242
0.7587044
0.7589093
0.7591448
0.7594169
0.7597247
0.7600353
0.757543
0.7576391
0.757748
0.7578772
0.7580381
0.7581971
0.758328
0.7584747
0.758639
0.7588241
0.759034
0.7592741
0.7595486
0.7598537
0.7601489
0.7575418
0.7576355
0.7577416
0.7578674
0.7580222
0.7581714
0.7582935
0.7584298
0.7585816
0.7587509
0.7589406
0.7591543
0.7593961
0.7596685
0.7599641
0.7603703
0.7575852
0.7575788
0.7577519
0.7575711
0.7577314
0.7579029
0.7575639
0.7577082
0.7578657
0.7580192
0.7575578
0.7576873
0.7578274
0.7579657
0.7580677
0.757553
0.7576706
0.7577952
0.7579168
0.7580109
0.7575493
0.757658
0.7577712
0.7578796
0.7579642
0.7575467
0.7576492
0.7577548
0.7578549
0.7579328
0.757545
0.7576435
0.7577449
0.7578414
0.7579171
0.7575439
0.7576402
0.7577402
0.7578374
0.7579162
0.7575433
0.7576386
0.7577392
0.757841
0.75793
0.757543
0.7576381
0.7577406
0.75785
0.7579596
0.7575428
0.757638
0.7577426
0.757861
0.7580088
0.7582328
0.7583982
0.7585779
0.7587792
0.7590097
0.7592765
0.759582
0.7599019
0.7575426
0.7576375
0.7577435
0.7578671
0.758025
0.7582099
0.7583578
0.758521
0.7587034
0.7589104
0.7591488
0.7594259
0.7597441
0.7600764
0.7575422
0.7576363
0.7577423
0.7578674
0.7580252
0.7581893
0.7583232
0.7584721
0.7586383
0.7588251
0.7590375
0.7592815
0.7595633
0.7598817
0.760199
0.7575414
0.7576341
0.7577389
0.7578628
0.7580165
0.7581677
0.7582911
0.7584285
0.7585812
0.7587515
0.7589425
0.7591583
0.7594036
0.7596818
0.7599861
0.7604124
0.7575404
0.7576309
0.7577331
0.7578539
0.7580022
0.7581445
0.7582601
0.7583884
0.7585304
0.7586875
0.7588617
0.7590556
0.7592724
0.7595148
0.7597831
0.760188
0.7607428
0.7575875
0.7575814
0.7577612
0.7575737
0.7577409
0.7579245
0.7575662
0.7577167
0.7578852
0.7580603
0.7575596
0.757694
0.7578425
0.7579964
0.7581218
0.7575542
0.7576751
0.7578052
0.7579361
0.7580428
0.7575499
0.7576602
0.757776
0.7578886
0.7579784
0.7575467
0.7576492
0.7577548
0.7578549
0.7579328
0.7575444
0.7576415
0.7577407
0.7578335
0.7579047
0.7575429
0.7576365
0.7577323
0.7578225
0.7578919
0.757542
0.7576338
0.7577287
0.7578201
0.7578931
0.7575415
0.7576327
0.7577285
0.7578247
0.7579079
0.7575413
0.7576325
0.7577304
0.7578343
0.7579377
0.7575412
0.7576326
0.7577328
0.7578457
0.7579861
0.758198
0.7583525
0.7585187
0.7587027
0.7589111
0.7591514
0.7594322
0.7597587
0.7601127
0.757541
0.7576324
0.7577341
0.7578523
0.7580029
0.7581782
0.7583171
0.7584691
0.7586374
0.7588261
0.7590411
0.7592898
0.7595808
0.7599181
0.7602736
0.7575407
0.7576315
0.7577334
0.7578533
0.7580041
0.7581602
0.7582865
0.7584261
0.7585805
0.7587525
0.7589457
0.7591652
0.7594172
0.759707
0.7600304
0.7605045
0.75754
0.7576295
0.7577304
0.7578494
0.7579967
0.7581409
0.7582577
0.7583872
0.7585301
0.7586881
0.7588635
0.7590594
0.7592794
0.759527
0.7598029
0.760225
0.7608101
0.7575391
0.7576266
0.7577252
0.7578414
0.7579838
0.7581199
0.7582296
0.758351
0.7584846
0.7586313
0.7587927
0.7589706
0.7591669
0.7593834
0.759621
0.7599882
0.7605266
0.7611048
0.7575891
0.7575836
0.757769
0.7575762
0.7577498
0.7579442
0.7575686
0.7577255
0.7579058
0.7581057
0.7575618
0.7577019
0.7578607
0.7580354
0.7582019
0.757556
0.7576814
0.7578193
0.7579646
0.7580941
0.7575511
0.7576645
0.7577853
0.7579066
0.7580081
0.7575473
0.7576513
0.7577594
0.7578633
0.7579461
0.7575444
0.7576415
0.7577407
0.7578335
0.7579047
0.7575423
0.7576346
0.7577283
0.757815
0.7578803
0.757541
0.7576304
0.7577212
0.7578059
0.7578702
0.7575402
0.7576281
0.7577184
0.7578048
0.757873
0.7575398
0.7576273
0.7577187
0.7578101
0.7578885
0.7575397
0.7576274
0.757721
0.7578201
0.7579181
0.7575397
0.7576277
0.7577238
0.7578318
0.7579655
0.7581668
0.7583121
0.7584669
0.7586367
0.7588268
0.7590436
0.7592956
0.759594
0.7599504
0.7603616
0.7575396
0.7576277
0.7577255
0.7578388
0.7579827
0.7581496
0.7582807
0.7584232
0.7585797
0.7587535
0.7589491
0.7591729
0.7594332
0.7597397
0.7600964
0.7606759
0.7575393
0.757627
0.7577252
0.7578404
0.7579848
0.7581338
0.7582533
0.7583848
0.7585294
0.758689
0.7588665
0.7590659
0.759292
0.7595501
0.7598428
0.7603061
0.7609621
0.7575387
0.7576253
0.7577226
0.7578371
0.7579785
0.7581164
0.7582274
0.7583498
0.7584842
0.7586319
0.7587944
0.7589741
0.7591734
0.7593947
0.7596392
0.7600214
0.7605856
0.7611946
0.7575379
0.7576225
0.7577178
0.7578298
0.7579668
0.7580972
0.7582017
0.758317
0.7584432
0.7585811
0.7587317
0.7588962
0.7590758
0.7592714
0.7594828
0.7598114
0.7602983
0.7608558
0.7614529
0.75759
0.7575852
0.7577745
0.7575782
0.7577572
0.75796
0.7575709
0.7577338
0.7579245
0.7581436
0.7575641
0.7577102
0.7578798
0.7580783
0.7583177
0.757558
0.7576887
0.7578362
0.7580009
0.7581699
0.7575528
0.7576704
0.7577985
0.7579331
0.7580558
0.7575484
0.7576553
0.7577681
0.7578801
0.7579737
0.757545
0.7576435
0.7577449
0.7578414
0.7579171
0.7575423
0.7576346
0.7577283
0.757815
0.7578803
0.7575405
0.7576285
0.7577173
0.7577988
0.7578592
0.7575393
0.7576248
0.7577112
0.7577913
0.7578512
0.7575386
0.7576229
0.7577091
0.7577911
0.7578551
0.7575383
0.7576224
0.7577099
0.757797
0.757871
0.7575383
0.7576226
0.7577125
0.7578072
0.7579004
0.7575383
0.7576232
0.7577156
0.757819
0.7579468
0.7581387
0.7582759
0.7584211
0.7585791
0.7587541
0.7589514
0.7591783
0.7594453
0.7597688
0.7601744
0.7610954
0.7575382
0.7576233
0.7577175
0.7578263
0.7579642
0.7581236
0.7582478
0.7583821
0.7585286
0.7586899
0.7588698
0.7590732
0.7593069
0.7595802
0.7599022
0.7604573
0.7612554
0.757538
0.7576228
0.7577175
0.7578284
0.757967
0.7581095
0.7582232
0.7583476
0.7584836
0.7586328
0.7587973
0.7589803
0.7591852
0.7594163
0.7596758
0.7600942
0.7607189
0.7613975
0.7575375
0.7576213
0.7577153
0.7578257
0.7579617
0.7580938
0.7581996
0.7583158
0.7584428
0.7585816
0.7587333
0.7588996
0.759082
0.759282
0.7594997
0.7598418
0.7603511
0.7609342
0.7615614
0.7575367
0.7576188
0.7577109
0.7578191
0.757951
0.7580762
0.7581761
0.7582857
0.7584054
0.7585356
0.758677
0.7588303
0.7589962
0.7591748
0.759365
0.7596612
0.7600992
0.7605999
0.7611724
0.7617841
0.757586
0.7577773
0.7575797
0.7577624
0.7579709
0.7575728
0.7577407
0.7579395
0.7581716
0.7575662
0.7577179
0.7578972
0.7581143
0.7583841
0.7575601
0.7576965
0.7578539
0.7580409
0.7582795
0.7586263
0.7575547
0.7576773
0.7578143
0.7579668
0.7581263
0.75755
0.7576609
0.7577805
0.7579049
0.758018
0.757546
0.7576473
0.7577532
0.7578572
0.7579429
0.7575429
0.7576365
0.7577323
0.7578225
0.7578919
0.7575405
0.7576285
0.7577173
0.7577988
0.7578592
0.7575388
0.757623
0.7577075
0.7577845
0.7578407
0.7575377
0.7576197
0.7577022
0.7577782
0.7578344
0.7575371
0.7576181
0.7577006
0.7577787
0.7578392
0.7575369
0.7576178
0.7577018
0.757785
0.7578553
0.7575369
0.7576183
0.7577047
0.7577954
0.7578843
0.7635531
0.757537
0.7576189
0.7577079
0.7578073
0.7579297
0.7581131
0.7582432
0.7583801
0.758528
0.7586905
0.758872
0.7590782
0.7593182
0.759607
0.7599725
0.7608292
0.7618986
0.757537
0.7576193
0.7577101
0.7578148
0.7579472
0.7580997
0.7582178
0.758345
0.7584828
0.7586337
0.7588004
0.7589871
0.7591993
0.7594443
0.7597304
0.7602302
0.7609772
0.7617793
0.7575368
0.7576189
0.7577104
0.7578172
0.7579506
0.7580872
0.7581955
0.7583137
0.7584422
0.7585824
0.7587361
0.7589054
0.7590932
0.7593022
0.7595338
0.7599086
0.7604707
0.7611118
0.7618048
0.7575363
0.7576176
0.7577085
0.7578151
0.7579461
0.758073
0.758174
0.7582846
0.7584051
0.7585361
0.7586785
0.7588335
0.7590021
0.7591848
0.7593809
0.7596895
0.7601476
0.7606701
0.761267
0.7619071
0.7575356
0.7576152
0.7577045
0.757809
0.7579363
0.7580567
0.7581523
0.758257
0.7583709
0.7584942
0.7586275
0.7587713
0.7589257
0.7590903
0.7592635
0.7595333
0.759931
0.7603793
0.7608903
0.761474
0.7619479
0.7575804
0.757765
0.7579764
0.7575741
0.7577455
0.7579498
0.7581897
0.757568
0.7577243
0.7579111
0.7581408
0.7584237
0.7575621
0.7577037
0.7578701
0.7580743
0.7583423
0.7586457
0.7575567
0.7576846
0.7578309
0.758004
0.7582281
0.758571
0.7588132
0.7575518
0.7576674
0.7577953
0.7579364
0.7580835
0.7575475
0.7576525
0.7577649
0.7578805
0.7579843
0.7575439
0.7576402
0.7577402
0.7578374
0.7579162
0.757541
0.7576304
0.7577212
0.7578059
0.7578702
0.7575388
0.757623
0.7577075
0.7577845
0.7578407
0.7575372
0.757618
0.7576987
0.7577717
0.7578244
0.7575362
0.757615
0.757694
0.7577663
0.7578194
0.7575357
0.7576137
0.7576929
0.7577675
0.7578248
0.7575356
0.7576136
0.7576943
0.757774
0.757841
0.7649759
0.7575357
0.7576142
0.7576974
0.7577846
0.7578695
0.7630153
0.7637195
0.7575358
0.757615
0.7577009
0.7577965
0.7579139
0.7580896
0.7582134
0.758343
0.7584823
0.7586342
0.7588025
0.7589919
0.7592099
0.7594692
0.7597951
0.7605657
0.7615464
0.762514
0.7575358
0.7576155
0.7577032
0.7578041
0.7579314
0.7580778
0.7581904
0.7583112
0.7584415
0.7585833
0.758739
0.7589119
0.7591065
0.7593286
0.7595847
0.7600336
0.7607028
0.7614473
0.7622473
0.7575357
0.7576152
0.7577037
0.7578069
0.7579354
0.7580666
0.7581701
0.7582826
0.7584045
0.7585369
0.7586812
0.7588391
0.7590127
0.759204
0.7594129
0.7597516
0.7602573
0.7608293
0.7614795
0.7621806
0.7575353
0.7576141
0.7577021
0.7578051
0.7579315
0.7580536
0.7581503
0.7582559
0.7583706
0.7584947
0.758629
0.7587743
0.7589313
0.7590998
0.7592785
0.7595599
0.759976
0.7604436
0.7609748
0.7615809
0.7620763
0.7575346
0.7576119
0.7576985
0.7577996
0.7579226
0.7580386
0.7581303
0.7582304
0.758339
0.7584563
0.7585825
0.7587179
0.7588625
0.7590154
0.7591747
0.759423
0.7597879
0.7601936
0.7606491
0.761167
0.7616233
0.7619633
0.7575749
0.757748
0.757955
0.7581985
0.7575692
0.7577288
0.7579207
0.7581579
0.7584466
0.7575638
0.7577096
0.7578831
0.7580989
0.7583798
0.7586645
0.7575586
0.7576913
0.757846
0.758035
0.7582865
0.7585894
0.7588214
0.7575537
0.7576743
0.7578109
0.7579712
0.7581782
0.7584989
0.7587472
0.7589926
0.7575492
0.7576588
0.7577789
0.7579102
0.7580455
0.7575453
0.7576452
0.7577513
0.7578594
0.7579552
0.757542
0.7576338
0.7577287
0.7578201
0.7578931
0.7575393
0.7576248
0.7577112
0.7577913
0.7578512
0.7575372
0.757618
0.7576987
0.7577717
0.7578244
0.7575358
0.7576134
0.7576906
0.7577601
0.7578099
0.7575349
0.7576108
0.7576865
0.7577556
0.7578058
0.7575345
0.7576097
0.7576857
0.7577572
0.7578117
0.7659351
0.7575344
0.7576097
0.7576875
0.7577639
0.7578279
0.7642763
0.7650512
0.7575345
0.7576105
0.7576907
0.7577745
0.757856
0.7625415
0.7631632
0.7639651
0.7575346
0.7576114
0.7576943
0.7577864
0.7578993
0.758068
0.7581861
0.7583093
0.7584409
0.7585838
0.758741
0.7589164
0.7591165
0.759352
0.759645
0.7603423
0.7612157
0.7620958
0.7630155
0.7575347
0.7576119
0.7576968
0.7577942
0.7579168
0.7580575
0.7581651
0.7582802
0.7584038
0.7585377
0.758684
0.7588453
0.7590253
0.7592289
0.7594608
0.759868
0.7604705
0.7611305
0.7618674
0.7626639
0.7575346
0.7576118
0.7576975
0.7577972
0.7579212
0.7580474
0.7581465
0.758254
0.75837
0.7584954
0.7586315
0.7587797
0.7589414
0.759118
0.7593088
0.7596182
0.760078
0.7605895
0.761165
0.761819
0.7623607
0.7575343
0.7576108
0.7576962
0.7577959
0.757918
0.7580356
0.7581283
0.7582294
0.7583387
0.7584567
0.7585839
0.7587208
0.7588678
0.7590245
0.7591889
0.7594481
0.7598301
0.7602533
0.7607265
0.7612625
0.7617346
0.7620922
0.7575336
0.7576088
0.7576928
0.7577908
0.7579098
0.7580217
0.7581098
0.7582058
0.7583096
0.7584213
0.7585412
0.7586693
0.7588053
0.7589483
0.7590959
0.7593264
0.7596643
0.7600356
0.7604466
0.7609064
0.7613043
0.7616373
0.7619785
0.7575699
0.7577311
0.7579256
0.7581663
0.7584572
0.757565
0.7577138
0.757892
0.7581149
0.7584015
0.7586777
0.7575601
0.7576969
0.7578581
0.7580579
0.7583214
0.7586072
0.7588311
0.7575555
0.7576807
0.7578252
0.7580002
0.7582324
0.758516
0.7587549
0.758996
0.7575511
0.7576653
0.7577937
0.7579428
0.758134
0.7584298
0.7586622
0.7589158
0.7591694
0.757547
0.7576511
0.7577646
0.7578874
0.7580127
0.7575433
0.7576386
0.7577392
0.757841
0.75793
0.7575402
0.7576281
0.7577184
0.7578048
0.757873
0.7575377
0.7576197
0.7577022
0.7577782
0.7578344
0.7575358
0.7576134
0.7576906
0.7577601
0.7578099
0.7575345
0.7576092
0.7576833
0.7577496
0.7577967
0.7575337
0.7576068
0.7576796
0.7577458
0.7577935
0.7665512
0.7575333
0.7576059
0.7576792
0.7577477
0.7577997
0.7651239
0.7659913
0.7575332
0.7576061
0.7576811
0.7577546
0.7578159
0.7636783
0.7643423
0.7651904
0.7575334
0.7576069
0.7576845
0.7577652
0.7578434
0.7621624
0.7626755
0.7633811
0.7642477
0.7575336
0.7576079
0.7576881
0.757777
0.7578858
0.7580481
0.758161
0.7582784
0.7584033
0.7585382
0.7586858
0.7588496
0.7590348
0.759251
0.7595174
0.7601558
0.7609422
0.7617142
0.7625433
0.7634434
0.7575337
0.7576086
0.7576908
0.7577849
0.7579032
0.7580386
0.7581418
0.7582516
0.7583693
0.7584962
0.7586342
0.7587856
0.7589534
0.7591416
0.759354
0.7597276
0.7602765
0.760866
0.7615129
0.7622413
0.762858
0.7575336
0.7576086
0.7576917
0.7577882
0.7579079
0.7580296
0.7581247
0.7582275
0.7583382
0.7584575
0.7585863
0.7587259
0.7588775
0.7590418
0.7592176
0.7595032
0.7599259
0.760389
0.7609007
0.7614754
0.7619818
0.7623775
0.7575333
0.7576077
0.7576906
0.7577872
0.7579053
0.7580188
0.7581079
0.7582048
0.7583093
0.7584218
0.7585426
0.7586721
0.7588104
0.758957
0.7591095
0.7593502
0.7597042
0.7600916
0.7605184
0.7609937
0.7614036
0.7617491
0.7621078
0.7575327
0.7576059
0.7576875
0.7577826
0.7578978
0.7580059
0.7580906
0.7581828
0.7582823
0.758389
0.7585032
0.7586247
0.7587532
0.7588875
0.7590253
0.7592408
0.7595561
0.7598993
0.7602744
0.760688
0.7610341
0.7613172
0.7616512
0.7619935
0.7575656
0.757716
0.7578966
0.7581227
0.7584115
0.7586843
0.7575613
0.7577009
0.7578665
0.7580728
0.7583416
0.7586197
0.7588389
0.757557
0.757686
0.7578366
0.7580216
0.7582649
0.7585325
0.7587642
0.7590005
0.7575528
0.7576713
0.7578071
0.7579701
0.7581847
0.7584457
0.7586694
0.758919
0.7591703
0.7575487
0.7576573
0.7577786
0.7579183
0.7580959
0.7583692
0.7585815
0.7588184
0.7590813
0.7593463
0.7575449
0.7576443
0.7577519
0.7578676
0.7579844
0.7575415
0.7576327
0.7577285
0.7578247
0.7579079
0.7575386
0.7576229
0.7577091
0.7577911
0.7578551
0.7575362
0.757615
0.757694
0.7577663
0.7578194
0.7575345
0.7576092
0.7576833
0.7577496
0.7577967
0.7575332
0.7576053
0.7576765
0.75774
0.7577847
0.7668552
0.7575325
0.7576031
0.7576733
0.7577367
0.7577822
0.7656673
0.7666025
0.7575322
0.7576024
0.757673
0.7577389
0.7577887
0.7644411
0.7651724
0.7661014
0.7575322
0.7576027
0.7576751
0.757746
0.7578047
0.7632083
0.763738
0.7644639
0.7653809
0.7575323
0.7576036
0.7576786
0.7577565
0.7578318
0.7618539
0.7622862
0.762873
0.7636312
0.7645471
0.7575326
0.7576047
0.7576824
0.7577683
0.7578732
0.7580295
0.7581378
0.7582499
0.7583688
0.7584967
0.758636
0.7587897
0.7589625
0.7591627
0.7594075
0.7599981
0.760716
0.7614024
0.7621205
0.7629249
0.7636413
0.7575327
0.7576055
0.7576852
0.7577763
0.7578905
0.7580211
0.7581201
0.7582252
0.7583375
0.7584582
0.7585889
0.7587316
0.7588889
0.7590643
0.7592605
0.7596066
0.7601122
0.7606463
0.7612198
0.7618536
0.7624156
0.762876
0.7575327
0.7576056
0.7576862
0.7577797
0.7578955
0.758013
0.7581044
0.7582029
0.7583088
0.7584225
0.7585449
0.758677
0.7588197
0.7589735
0.7591368
0.7594026
0.7597947
0.760219
0.7606804
0.7611887
0.7616245
0.761997
0.7623939
0.7575324
0.7576048
0.7576853
0.757779
0.7578934
0.758003
0.7580888
0.7581818
0.758282
0.7583894
0.7585045
0.7586274
0.7587582
0.7588959
0.7590382
0.7592634
0.7595939
0.7599521
0.7603418
0.7607691
0.761125
0.7614169
0.7617633
0.7621231
0.7575319
0.7576032
0.7576825
0.7577748
0.7578865
0.757991
0.7580727
0.7581614
0.7582568
0.758359
0.758468
0.7585837
0.7587055
0.7588322
0.7589614
0.7591639
0.75946
0.7597797
0.7601257
0.7605024
0.7608079
0.7610462
0.7613299
0.7616649
0.7620083
0.7575619
0.7577029
0.7578707
0.75808
0.7583509
0.758626
0.758843
0.7575581
0.7576897
0.7578444
0.7580355
0.7582837
0.7585442
0.7587715
0.7590043
0.7575542
0.7576764
0.7578179
0.7579903
0.7582151
0.7584611
0.7586781
0.7589233
0.7591714
0.7575503
0.7576631
0.7577914
0.7579441
0.7581436
0.758384
0.7585882
0.7588214
0.7590822
0.7593451
0.7575466
0.7576502
0.7577653
0.7578969
0.758063
0.7583171
0.758511
0.7587265
0.7589714
0.7592463
0.7595253
0.757543
0.7576381
0.7577406
0.75785
0.7579596
0.7575398
0.7576273
0.7577187
0.7578101
0.7578885
0.7575371
0.7576181
0.7577006
0.7577787
0.7578392
0.7575349
0.7576108
0.7576865
0.7577556
0.7578058
0.7575332
0.7576053
0.7576765
0.75774
0.7577847
0.7668552
0.7575321
0.7576017
0.7576702
0.7577312
0.7577738
0.7659352
0.7669054
0.7575314
0.7575997
0.7576674
0.7577283
0.7577718
0.7649294
0.7657112
0.7667046
0.7575312
0.7575991
0.7576674
0.7577308
0.7577785
0.7639093
0.7644847
0.7652673
0.7662621
0.7575312
0.7575995
0.7576696
0.7577379
0.7577944
0.7628288
0.7632634
0.763848
0.7646301
0.765613
0.7575314
0.7576006
0.7576732
0.7577484
0.7578209
0.7615951
0.7619695
0.7624686
0.7630998
0.7638954
0.7647081
0.7575316
0.7576017
0.757677
0.7577601
0.7578615
0.7580123
0.7581163
0.7582236
0.758337
0.7584587
0.7585906
0.7587355
0.7588976
0.7590844
0.7593114
0.7598624
0.7605253
0.761146
0.7617778
0.7624671
0.763101
0.7636597
0.7575318
0.7576025
0.7576799
0.7577681
0.7578787
0.7580047
0.7580999
0.7582008
0.7583081
0.7584232
0.7585474
0.7586824
0.7588307
0.758995
0.7591777
0.7595007
0.7599708
0.7604606
0.7609773
0.7615353
0.7620127
0.7624318
0.7628936
0.7575318
0.7576027
0.7576811
0.7577717
0.7578839
0.7579974
0.7580854
0.7581801
0.7582815
0.7583901
0.7585067
0.7586321
0.758767
0.7589117
0.7590644
0.7593133
0.7596797
0.7600724
0.7604937
0.7609502
0.7613271
0.7616384
0.7620119
0.7624101
0.7575315
0.7576021
0.7576804
0.7577713
0.7578822
0.7579883
0.758071
0.7581605
0.7582566
0.7583594
0.7584693
0.7585863
0.7587102
0.7588402
0.7589738
0.7591856
0.759496
0.7598298
0.7601893
0.7605784
0.7608922
0.7611373
0.7614299
0.7617773
0.7621383
0.7575311
0.7576006
0.7576778
0.7577675
0.7578759
0.7579771
0.758056
0.7581414
0.7582331
0.7583311
0.7584354
0.7585457
0.7586615
0.7587815
0.7589032
0.7590943
0.7593737
0.7596734
0.7599952
0.7603419
0.7606156
0.7608192
0.761058
0.7613425
0.7616784
0.7620256
0.7575586
0.7576916
0.7578484
0.7580423
0.7582923
0.7585501
0.7587755
0.7590064
0.7575552
0.7576799
0.7578253
0.7580033
0.7582326
0.7584719
0.758685
0.758927
0.7591723
0.7575517
0.7576679
0.7578016
0.7579631
0.7581722
0.7583984
0.7585963
0.7588255
0.7590834
0.7593433
0.7575481
0.7576557
0.7577774
0.7579214
0.7581081
0.758331
0.7585173
0.7587293
0.7589723
0.7592453
0.7595216
0.7575446
0.7576438
0.7577533
0.7578779
0.7580343
0.7582721
0.7584505
0.7586465
0.7588685
0.7591236
0.7594124
0.759709
0.7575413
0.7576325
0.7577304
0.7578343
0.7579377
0.7575383
0.7576224
0.7577099
0.757797
0.757871
0.7575357
0.7576137
0.7576929
0.7577675
0.7578248
0.7575337
0.7576068
0.7576796
0.7577458
0.7577935
0.7665512
0.7575321
0.7576017
0.7576702
0.7577312
0.7577738
0.7659352
0.7669054
0.757531
0.7575983
0.7576644
0.757723
0.7577637
0.76517
0.7659779
0.7670054
0.7575304
0.7575965
0.7576619
0.7577206
0.7577622
0.7643578
0.7649688
0.7657983
0.7668566
0.7575302
0.7575961
0.7576621
0.7577233
0.7577691
0.7634818
0.7639495
0.7645702
0.7654055
0.7664701
0.7575302
0.7575966
0.7576644
0.7577304
0.7577847
0.7625115
0.7628802
0.7633648
0.7639981
0.7648319
0.765753
0.7575305
0.7575977
0.7576681
0.7577409
0.7578108
0.761373
0.7617039
0.7621398
0.762678
0.7633394
0.7640369
0.7647235
0.7575307
0.7575989
0.757672
0.7577525
0.7578505
0.7579962
0.7580962
0.7581992
0.7583077
0.7584237
0.758549
0.7586862
0.758839
0.7590142
0.7592262
0.7597436
0.7603613
0.7609301
0.7614968
0.7620983
0.7626274
0.7631174
0.7636776
0.7575309
0.7575998
0.7576749
0.7577605
0.7578676
0.7579894
0.7580811
0.758178
0.7582809
0.7583908
0.7585091
0.7586374
0.7587776
0.7589323
0.7591034
0.7594067
0.7598469
0.7603006
0.7607724
0.7612725
0.7616827
0.7620275
0.7624476
0.7629108
0.757531
0.7576001
0.7576763
0.7577643
0.757873
0.7579828
0.7580677
0.7581587
0.7582561
0.7583601
0.7584714
0.7585908
0.7587188
0.7588554
0.7589988
0.7592332
0.7595777
0.7599439
0.7603327
0.7607482
0.7610799
0.76134
0.761652
0.7620265
0.7624259
0.7575307
0.7575995
0.7576757
0.7577641
0.7578718
0.7579745
0.7580543
0.7581405
0.7582329
0.7583315
0.7584366
0.7585482
0.7586661
0.7587892
0.7589151
0.7591151
0.7594081
0.7597212
0.7600555
0.7604136
0.7606947
0.7609038
0.7611494
0.7614428
0.761791
0.7621559
0.7575303
0.7575981
0.7576733
0.7577606
0.7578659
0.7579641
0.7580402
0.7581226
0.7582109
0.7583051
0.758405
0.7585105
0.7586208
0.7587348
0.7588498
0.7590309
0.7592956
0.759578
0.7598792
0.7602011
0.7604494
0.7606263
0.7608304
0.7610698
0.7613549
0.7616942
0.7620417
0.7575557
0.7576818
0.7578291
0.7580097
0.7582407
0.7584774
0.7586886
0.758929
0.7591728
0.7575527
0.7576713
0.7578086
0.7579755
0.7581886
0.7584085
0.7586027
0.7588289
0.7590843
0.7593415
0.7575494
0.7576603
0.7577872
0.7579395
0.7581351
0.7583446
0.7585248
0.7587331
0.7589734
0.7592438
0.7595162
0.7575461
0.7576491
0.757765
0.7579013
0.7580771
0.7582853
0.7584563
0.7586491
0.7588693
0.7591228
0.7594092
0.7597011
0.7575428
0.757638
0.7577426
0.757861
0.7580088
0.7582328
0.7583982
0.7585779
0.7587792
0.7590097
0.7592765
0.759582
0.7599019
0.7575397
0.7576274
0.757721
0.7578201
0.7579181
0.7575369
0.7576178
0.7577018
0.757785
0.7578553
0.7575345
0.7576097
0.7576857
0.7577572
0.7578117
0.7659351
0.7575325
0.7576031
0.7576733
0.7577367
0.7577822
0.7656673
0.7666025
0.757531
0.7575983
0.7576644
0.757723
0.7577637
0.76517
0.7659779
0.7670054
0.75753
0.7575952
0.757659
0.7577154
0.7577544
0.7645787
0.7652083
0.7660629
0.7671551
0.7575295
0.7575936
0.7576567
0.7577133
0.7577533
0.7638995
0.764394
0.7650471
0.7659278
0.7670573
0.7575293
0.7575932
0.7576571
0.7577162
0.7577603
0.7631252
0.7635193
0.7640282
0.7646946
0.765584
0.7666027
0.7575294
0.7575938
0.7576595
0.7577234
0.7577758
0.7622396
0.7625599
0.7629749
0.7635034
0.7641804
0.7649532
0.7657667
0.7575296
0.757595
0.7576633
0.7577338
0.7578014
0.7611787
0.761476
0.7618643
0.7623356
0.7628993
0.7634677
0.7640504
0.7647389
0.7575299
0.7575962
0.7576672
0.7577453
0.7578402
0.7579812
0.7580775
0.7581764
0.7582804
0.7583913
0.7585107
0.758641
0.7587855
0.7589507
0.7591498
0.7596383
0.7602178
0.7607444
0.7612604
0.7617965
0.7622465
0.7626422
0.7631334
0.7636952
0.7575301
0.7575972
0.7576702
0.7577534
0.7578571
0.7579751
0.7580635
0.7581567