/*--------------------------------*- C++ -*----------------------------------*\
| =========                 |                                                 |
| \\      /  F ield         | OpenFOAM: The Open Source CFD Toolbox           |
|  \\    /   O peration     | Version:  2306                                  |
|   \\  /    A nd           | Website:  www.openfoam.com                      |
|    \\/     M anipulation  |                                                 |
\*---------------------------------------------------------------------------*/
FoamFile
{
    version     2.0;
    format      ascii;
    arch        "LSB;label=32;scalar=64";
    class       volScalarField;
    location    "0.9/phiEC";
    object      T;
}
// * * * * * * * * * * * * * * * * * * * * * * * * * * * * * * * * * * * * * //

dimensions      [0 0 0 1 0 0 0];

internalField   nonuniform List<scalar> 
20000
(
1189.25
1189.248
1191.059
1189.187
1189.244
1191.058
1189.184
1193.465
1191.038
1189.061
1189.238
1191.056
1189.178
1193.464
1191.037
1189.056
1195.956
1193.465
1190.999
1188.876
1189.232
1191.054
1189.17
1193.463
1191.035
1189.046
1195.955
1193.464
1190.998
1188.868
1198.353
1195.963
1193.465
1190.946
1188.644
1189.225
1191.051
1189.161
1193.461
1191.032
1189.034
1195.954
1193.462
1190.995
1188.851
1198.352
1195.962
1193.464
1190.943
1188.628
1200.602
1198.362
1195.978
1193.47
1190.884
1188.452
1189.218
1191.048
1189.151
1193.459
1191.029
1189.018
1195.952
1193.459
1190.99
1188.829
1198.351
1195.96
1193.461
1190.938
1188.597
1200.601
1198.361
1195.976
1193.468
1190.88
1188.424
1202.696
1200.611
1198.38
1196.003
1193.483
1190.839
1188.328
1189.212
1191.046
1189.141
1193.456
1191.025
1189.001
1195.95
1193.456
1190.985
1188.803
1198.349
1195.957
1193.457
1190.932
1188.555
1200.6
1198.359
1195.973
1193.463
1190.872
1188.369
1202.696
1200.61
1198.379
1196.001
1193.48
1190.832
1188.292
1204.644
1202.705
1200.63
1198.411
1196.043
1193.504
1190.813
1188.215
1189.207
1191.043
1189.132
1193.454
1191.021
1188.984
1195.947
1193.453
1190.979
1188.774
1198.347
1195.954
1193.451
1190.924
1188.511
1200.598
1198.356
1195.969
1193.456
1190.862
1188.288
1202.694
1200.608
1198.376
1195.996
1193.474
1190.819
1188.219
1204.643
1202.704
1200.628
1198.409
1196.04
1193.5
1190.805
1188.172
1206.458
1204.651
1202.722
1200.66
1198.457
1196.086
1193.522
1190.794
1188.12
1189.205
1191.041
1189.126
1193.452
1191.018
1188.968
1195.945
1193.449
1190.973
1188.741
1198.344
1195.951
1193.446
1190.915
1188.479
1200.596
1198.353
1195.963
1193.448
1190.851
1188.185
1202.693
1200.606
1198.372
1195.989
1193.464
1190.802
1188.107
1204.642
1202.702
1200.626
1198.404
1196.034
1193.494
1190.787
1188.083
1206.457
1204.651
1202.721
1200.658
1198.455
1196.083
1193.518
1190.783
1188.07
1208.15
1206.465
1204.667
1202.75
1200.705
1198.505
1196.119
1193.545
1190.785
1188.047
1189.205
1191.04
1189.122
1193.45
1191.015
1188.956
1195.943
1193.446
1190.967
1188.71
1198.342
1195.947
1193.44
1190.903
1188.407
1200.594
1198.35
1195.957
1193.437
1190.843
1202.691
1200.603
1198.367
1195.979
1193.45
1190.782
1187.951
1204.641
1202.7
1200.622
1198.397
1196.024
1193.484
1190.762
1187.944
1206.456
1204.649
1202.718
1200.654
1198.449
1196.079
1193.511
1190.761
1187.969
1208.15
1206.464
1204.666
1202.748
1200.703
1198.503
1196.116
1193.541
1190.772
1187.994
1209.733
1208.157
1206.479
1204.693
1202.792
1200.751
1198.541
1196.155
1193.574
1190.786
1188
1189.207
1191.04
1189.122
1193.449
1191.014
1188.95
1195.941
1193.444
1190.962
1188.685
1198.34
1195.944
1193.435
1190.892
1188.335
1200.592
1198.347
1195.952
1193.426
1190.821
1202.689
1200.6
1198.361
1195.968
1193.428
1204.639
1202.697
1200.617
1198.388
1196.008
1193.474
1190.729
1187.747
1206.455
1204.647
1202.715
1200.647
1198.439
1196.072
1193.5
1190.727
1187.811
1208.149
1206.463
1204.664
1202.745
1200.697
1198.499
1196.112
1193.532
1190.746
1187.885
1209.733
1208.156
1206.478
1204.691
1202.79
1200.749
1198.539
1196.153
1193.569
1190.772
1187.945
1211.217
1209.739
1208.17
1206.502
1204.731
1202.834
1200.785
1198.579
1196.196
1193.609
1190.801
1187.979
1189.212
1191.041
1189.126
1193.449
1191.014
1188.95
1195.94
1193.443
1190.96
1188.672
1198.339
1195.942
1193.431
1190.883
1188.281
1200.59
1198.344
1195.947
1193.417
1190.796
1202.687
1200.597
1198.355
1195.957
1193.408
1204.637
1202.695
1200.612
1198.377
1195.981
1206.453
1204.645
1202.71
1200.639
1198.423
1196.064
1193.486
1190.682
1187.588
1208.148
1206.461
1204.661
1202.739
1200.688
1198.493
1196.106
1193.519
1190.705
1187.716
1209.732
1208.155
1206.476
1204.688
1202.785
1200.746
1198.536
1196.149
1193.559
1190.744
1187.833
1211.216
1209.738
1208.169
1206.501
1204.729
1202.833
1200.784
1198.578
1196.194
1193.604
1190.787
1187.924
1212.609
1211.222
1209.751
1208.191
1206.536
1204.769
1202.865
1200.822
1198.622
1196.241
1193.65
1190.83
1187.985
1189.218
1191.043
1189.132
1193.45
1191.015
1188.956
1195.94
1193.443
1190.96
1188.672
1198.338
1195.941
1193.43
1190.878
1188.252
1200.589
1198.342
1195.943
1193.41
1190.775
1202.686
1200.594
1198.351
1195.948
1193.389
1204.636
1202.692
1200.607
1198.367
1195.96
1206.452
1204.642
1202.706
1200.629
1198.396
1208.146
1206.459
1204.657
1202.731
1200.674
1198.487
1196.099
1193.501
1190.649
1187.478
1209.731
1208.153
1206.473
1204.683
1202.777
1200.741
1198.532
1196.143
1193.544
1190.7
1187.66
1211.216
1209.737
1208.167
1206.498
1204.725
1202.83
1200.781
1198.576
1196.19
1193.594
1190.759
1187.813
1212.609
1211.221
1209.75
1208.189
1206.534
1204.768
1202.864
1200.821
1198.621
1196.239
1193.646
1190.816
1187.931
1213.918
1212.614
1211.233
1209.77
1208.222
1206.571
1204.797
1202.899
1200.862
1198.666
1196.289
1193.698
1190.871
1188.017
1189.225
1191.046
1189.141
1193.452
1191.018
1188.968
1195.941
1193.444
1190.962
1188.685
1198.338
1195.941
1193.43
1190.878
1188.252
1200.588
1198.341
1195.941
1193.406
1190.763
1202.684
1200.593
1198.347
1195.942
1193.376
1204.634
1202.69
1200.602
1198.358
1195.944
1206.45
1204.64
1202.701
1200.619
1198.377
1208.145
1206.456
1204.653
1202.722
1200.649
1209.73
1208.151
1206.469
1204.676
1202.764
1200.736
1198.527
1196.135
1193.523
1190.638
1187.418
1211.215
1209.736
1208.164
1206.493
1204.717
1202.825
1200.778
1198.572
1196.184
1193.578
1190.714
1187.642
1212.608
1211.221
1209.748
1208.186
1206.531
1204.765
1202.862
1200.819
1198.618
1196.235
1193.636
1190.789
1187.823
1213.918
1212.614
1211.232
1209.769
1208.22
1206.57
1204.796
1202.898
1200.861
1198.666
1196.288
1193.695
1190.859
1187.963
1215.149
1213.922
1212.624
1211.25
1209.798
1208.253
1206.596
1204.828
1202.935
1200.903
1198.714
1196.341
1193.752
1190.924
1188.072
1189.232
1191.048
1189.151
1193.454
1191.021
1188.984
1195.943
1193.446
1190.967
1188.71
1198.339
1195.942
1193.431
1190.883
1188.281
1200.588
1198.341
1195.941
1193.406
1190.763
1202.684
1200.592
1198.346
1195.939
1193.369
1204.633
1202.688
1200.599
1198.353
1195.933
1206.449
1204.638
1202.697
1200.612
1198.362
1208.144
1206.454
1204.648
1202.713
1200.631
1209.728
1208.149
1206.466
1204.667
1202.741
1211.214
1209.734
1208.161
1206.486
1204.705
1202.821
1200.775
1198.568
1196.175
1193.555
1190.651
1187.406
1212.607
1211.219
1209.746
1208.182
1206.524
1204.761
1202.859
1200.817
1198.615
1196.229
1193.621
1190.748
1187.659
1213.917
1212.613
1211.231
1209.766
1208.216
1206.567
1204.795
1202.897
1200.86
1198.664
1196.285
1193.687
1190.836
1187.858
1215.149
1213.922
1212.623
1211.249
1209.797
1208.252
1206.596
1204.827
1202.935
1200.903
1198.714
1196.341
1193.75
1190.914
1188.019
1216.309
1215.154
1213.932
1212.64
1211.276
1209.827
1208.276
1206.624
1204.86
1202.973
1200.947
1198.763
1196.396
1193.811
1190.988
1188.994
1189.238
1191.051
1189.161
1193.456
1191.025
1189.001
1195.945
1193.449
1190.973
1188.741
1198.34
1195.944
1193.435
1190.892
1188.335
1200.589
1198.342
1195.943
1193.41
1190.775
1202.684
1200.592
1198.346
1195.939
1193.369
1204.633
1202.687
1200.598
1198.35
1195.927
1206.448
1204.637
1202.694
1200.606
1198.353
1208.142
1206.452
1204.645
1202.706
1200.618
1209.727
1208.147
1206.462
1204.66
1202.724
1211.212
1209.732
1208.157
1206.479
1204.685
1212.606
1211.218
1209.743
1208.176
1206.513
1204.757
1202.857
1200.814
1198.611
1196.22
1193.599
1190.69
1187.437
1213.916
1212.611
1211.228
1209.762
1208.21
1206.564
1204.792
1202.895
1200.858
1198.662
1196.28
1193.675
1190.8
1187.702
1215.149
1213.921
1212.622
1211.247
1209.794
1208.25
1206.594
1204.826
1202.934
1200.903
1198.713
1196.339
1193.745
1190.895
1187.913
1216.308
1215.153
1213.931
1212.639
1211.275
1209.826
1208.275
1206.623
1204.86
1202.973
1200.947
1198.764
1196.397
1193.81
1190.979
1188.922
1217.401
1216.313
1215.162
1213.947
1212.664
1211.303
1209.848
1208.301
1206.653
1204.895
1203.013
1200.992
1198.814
1196.452
1193.873
1191.834
1190.766
1189.244
1191.054
1189.17
1193.459
1191.029
1189.018
1195.947
1193.453
1190.979
1188.774
1198.342
1195.947
1193.44
1190.903
1188.407
1200.59
1198.344
1195.947
1193.417
1190.796
1202.684
1200.593
1198.347
1195.942
1193.376
1204.633
1202.687
1200.598
1198.35
1195.927
1206.447
1204.636
1202.693
1200.604
1198.348
1208.142
1206.451
1204.643
1202.702
1200.61
1209.726
1208.146
1206.459
1204.653
1202.713
1211.211
1209.73
1208.154
1206.472
1204.67
1212.605
1211.216
1209.74
1208.17
1206.495
1213.915
1212.61
1211.226
1209.757
1208.201
1206.56
1204.79
1202.893
1200.855
1198.658
1196.272
1193.655
1190.752
1187.501
1215.148
1213.92
1212.62
1211.243
1209.788
1208.247
1206.592
1204.824
1202.933
1200.901
1198.712
1196.336
1193.737
1190.867
1187.759
1216.308
1215.152
1213.93
1212.637
1211.272
1209.824
1208.274
1206.622
1204.859
1202.973
1200.948
1198.765
1196.397
1193.809
1190.963
1188.762
1217.4
1216.312
1215.162
1213.946
1212.663
1211.302
1209.847
1208.301
1206.653
1204.895
1203.013
1200.993
1198.816
1196.454
1193.874
1191.826
1190.66
1218.429
1217.404
1216.321
1215.176
1213.969
1212.688
1211.322
1209.871
1208.328
1206.684
1204.93
1203.053
1201.038
1198.866
1196.509
1194.618
1193.455
1192.55
1189.248
1191.056
1189.178
1193.461
1191.032
1189.034
1195.95
1193.456
1190.985
1188.803
1198.344
1195.951
1193.446
1190.915
1188.479
1200.592
1198.347
1195.952
1193.426
1190.821
1202.686
1200.594
1198.351
1195.948
1193.389
1204.633
1202.688
1200.599
1198.353
1195.933
1206.447
1204.636
1202.693
1200.604
1198.348
1208.141
1206.45
1204.641
1202.699
1200.605
1209.725
1208.144
1206.457
1204.649
1202.706
1211.21
1209.729
1208.151
1206.466
1204.66
1212.604
1211.214
1209.737
1208.163
1206.481
1213.914
1212.608
1211.223
1209.751
1208.184
1215.147
1213.919
1212.617
1211.239
1209.779
1208.243
1206.59
1204.823
1202.931
1200.899
1198.708
1196.331
1193.724
1190.834
1187.57
1216.307
1215.151
1213.928
1212.634
1211.267
1209.821
1208.272
1206.621
1204.858
1202.972
1200.947
1198.765
1196.398
1193.807
1190.942
1188.45
1217.4
1216.311
1215.16
1213.944
1212.66
1211.3
1209.846
1208.3
1206.652
1204.894
1203.013
1200.995
1198.818
1196.458
1193.876
1191.813
1190.407
1218.429
1217.404
1216.32
1215.175
1213.968
1212.687
1211.321
1209.87
1208.327
1206.684
1204.931
1203.054
1201.04
1198.868
1196.512
1194.624
1193.448
1192.416
1219.397
1218.432
1217.412
1216.334
1215.197
1213.991
1212.706
1211.343
1209.895
1208.356
1206.716
1204.967
1203.095
1201.085
1198.917
1197.158
1196.041
1195.076
1194.35
1189.25
1191.058
1189.184
1193.463
1191.035
1189.046
1195.952
1193.459
1190.99
1188.829
1198.347
1195.954
1193.451
1190.924
1188.511
1200.594
1198.35
1195.957
1193.437
1190.843
1202.687
1200.597
1198.355
1195.957
1193.408
1204.634
1202.69
1200.602
1198.358
1195.944
1206.448
1204.637
1202.694
1200.606
1198.353
1208.141
1206.45
1204.641
1202.699
1200.605
1209.725
1208.144
1206.455
1204.647
1202.702
1211.209
1209.728
1208.149
1206.463
1204.653
1212.603
1211.213
1209.734
1208.158
1206.472
1213.913
1212.607
1211.22
1209.745
1208.172
1215.146
1213.917
1212.615
1211.233
1209.764
1216.306
1215.15
1213.926
1212.629
1211.259
1209.818
1208.27
1206.619
1204.857
1202.971
1200.946
1198.764
1196.397
1193.804
1190.925
1187.572
1217.399
1216.31
1215.159
1213.941
1212.655
1211.297
1209.844
1208.298
1206.651
1204.894
1203.014
1200.996
1198.822
1196.464
1193.881
1191.809
1189.859
1218.428
1217.403
1216.319
1215.173
1213.965
1212.686
1211.32
1209.869
1208.327
1206.684
1204.931
1203.056
1201.043
1198.874
1196.519
1194.642
1193.438
1192.092
1219.397
1218.432
1217.411
1216.333
1215.196
1213.991
1212.706
1211.342
1209.895
1208.356
1206.717
1204.968
1203.096
1201.087
1198.92
1197.168
1196.057
1195.069
1194.197
1220.308
1219.4
1218.44
1217.424
1216.353
1215.218
1214.008
1212.725
1211.365
1209.921
1208.385
1206.749
1205.004
1203.136
1201.13
1199.484
1198.399
1197.461
1196.698
1196.17
1191.059
1189.187
1193.464
1191.037
1189.056
1195.954
1193.462
1190.995
1188.851
1198.349
1195.957
1193.457
1190.932
1188.555
1200.596
1198.353
1195.963
1193.448
1190.851
1188.185
1202.689
1200.6
1198.361
1195.968
1193.428
1204.636
1202.692
1200.607
1198.367
1195.96
1206.449
1204.638
1202.697
1200.612
1198.362
1208.142
1206.451
1204.643
1202.702
1200.61
1209.725
1208.144
1206.455
1204.647
1202.702
1211.209
1209.727
1208.148
1206.461
1204.65
1212.602
1211.212
1209.732
1208.155
1206.466
1213.912
1212.605
1211.218
1209.74
1208.163
1215.145
1213.916
1212.612
1211.227
1209.753
1216.305
1215.149
1213.923
1212.624
1211.245
1181.318
1217.398
1216.309
1215.156
1213.937
1212.648
1211.294
1209.842
1208.297
1206.65
1204.893
1203.013
1200.997
1198.824
1196.47
1193.893
1191.917
1188.425
1218.427
1217.402
1216.317
1215.171
1213.961
1212.683
1211.318
1209.868
1208.326
1206.684
1204.931
1203.057
1201.047
1198.881
1196.532
1194.7
1193.449
1191.4
1219.396
1218.431
1217.41
1216.331
1215.193
1213.989
1212.704
1211.342
1209.894
1208.356
1206.717
1204.969
1203.099
1201.093
1198.928
1197.195
1196.103
1195.06
1193.83
1220.308
1219.4
1218.439
1217.423
1216.352
1215.217
1214.007
1212.725
1211.365
1209.921
1208.385
1206.75
1205.005
1203.138
1201.133
1199.495
1198.421
1197.485
1196.691
1196.007
1221.165
1220.311
1219.407
1218.451
1217.443
1216.373
1215.233
1214.026
1212.746
1211.388
1209.947
1208.415
1206.783
1205.041
1203.176
1201.628
1200.568
1199.636
1198.877
1198.321
1197.143
1193.465
1191.038
1189.061
1195.955
1193.464
1190.998
1188.868
1198.351
1195.96
1193.461
1190.938
1188.597
1200.598
1198.356
1195.969
1193.456
1190.862
1188.288
1202.691
1200.603
1198.367
1195.979
1193.45
1190.782
1187.951
1204.637
1202.695
1200.612
1198.377
1195.981
1206.45
1204.64
1202.701
1200.619
1198.377
1208.142
1206.452
1204.645
1202.706
1200.618
1209.725
1208.144
1206.457
1204.649
1202.706
1211.209
1209.727
1208.148
1206.461
1204.65
1212.602
1211.211
1209.731
1208.153
1206.463
1213.912
1212.605
1211.216
1209.737
1208.158
1215.144
1213.915
1212.61
1211.223
1209.745
1216.304
1215.147
1213.921
1212.619
1211.235
1173.754
1217.397
1216.308
1215.154
1213.932
1212.635
1193.396
1183.584
1218.427
1217.401
1216.315
1215.167
1213.954
1212.681
1211.317
1209.867
1208.325
1206.683
1204.931
1203.059
1201.051
1198.89
1196.551
1194.977
1193.593
1189.811
1219.396
1218.43
1217.409
1216.329
1215.189
1213.987
1212.703
1211.34
1209.893
1208.355
1206.717
1204.971
1203.103
1201.101
1198.942
1197.266
1196.231
1195.068
1193.078
1220.307
1219.399
1218.438
1217.422
1216.35
1215.216
1214.006
1212.724
1211.364
1209.92
1208.386
1206.751
1205.008
1203.144
1201.141
1199.522
1198.481
1197.55
1196.678
1195.623
1221.164
1220.311
1219.407
1218.451
1217.442
1216.372
1215.233
1214.025
1212.746
1211.388
1209.947
1208.415
1206.784
1205.043
1203.18
1201.639
1200.591
1199.668
1198.907
1198.313
1196.98
1221.969
1221.168
1220.318
1219.418
1218.469
1217.461
1216.387
1215.25
1214.045
1212.768
1211.413
1209.974
1208.445
1206.816
1205.077
1203.617
1202.581
1201.649
1200.868
1200.288
1199.179
1197.248
1195.956
1193.465
1190.999
1188.876
1198.352
1195.962
1193.464
1190.943
1188.628
1200.6
1198.359
1195.973
1193.463
1190.872
1188.369
1202.693
1200.606
1198.372
1195.989
1193.464
1190.802
1188.107
1204.639
1202.697
1200.617
1198.388
1196.008
1193.474
1190.729
1187.747
1206.452
1204.642
1202.706
1200.629
1198.396
1208.144
1206.454
1204.648
1202.713
1200.631
1209.726
1208.146
1206.459
1204.653
1202.713
1211.209
1209.728
1208.149
1206.463
1204.653
1212.602
1211.211
1209.731
1208.153
1206.463
1213.911
1212.604
1211.215
1209.736
1208.155
1215.143
1213.914
1212.608
1211.22
1209.74
1216.304
1215.146
1213.919
1212.615
1211.227
1167.747
1217.397
1216.307
1215.152
1213.927
1212.626
1192.633
1177.643
1218.426
1217.4
1216.313
1215.162
1213.942
1197.634
1194.349
1186.007
1219.395
1218.429
1217.407
1216.325
1215.183
1213.984
1212.701
1211.339
1209.892
1208.354
1206.717
1204.972
1203.107
1201.11
1198.962
1197.57
1196.668
1195.17
1191.54
1220.307
1219.399
1218.437
1217.419
1216.346
1215.213
1214.005
1212.723
1211.364
1209.92
1208.386
1206.753
1205.012
1203.151
1201.155
1199.593
1198.634
1197.712
1196.671
1194.874
1221.164
1220.31
1219.406
1218.449
1217.439
1216.371
1215.232
1214.025
1212.745
1211.388
1209.948
1208.417
1206.787
1205.048
1203.187
1201.665
1200.652
1199.751
1198.981
1198.295
1196.599
1221.968
1221.167
1220.317
1219.418
1218.468
1217.46
1216.387
1215.25
1214.045
1212.768
1211.413
1209.975
1208.446
1206.818
1205.08
1203.627
1202.603
1201.682
1200.906
1200.32
1199.17
1197.085
1222.722
1221.972
1221.174
1220.329
1219.435
1218.486
1217.475
1216.403
1215.268
1214.065
1212.79
1211.438
1210.002
1208.475
1206.848
1205.47
1204.46
1203.531
1202.724
1202.092
1201.031
1199.271
1197.353
1198.353
1195.963
1193.465
1190.946
1188.644
1200.601
1198.361
1195.976
1193.468
1190.88
1188.424
1202.694
1200.608
1198.376
1195.996
1193.474
1190.819
1188.219
1204.641
1202.7
1200.622
1198.397
1196.024
1193.484
1190.762
1187.944
1206.453
1204.645
1202.71
1200.639
1198.423
1196.064
1193.486
1190.682
1187.588
1208.145
1206.456
1204.653
1202.722
1200.649
1209.727
1208.147
1206.462
1204.66
1202.724
1211.21
1209.729
1208.151
1206.466
1204.66
1212.602
1211.212
1209.732
1208.155
1206.466
1213.911
1212.604
1211.215
1209.736
1208.155
1215.143
1213.913
1212.607
1211.219
1209.738
1216.303
1215.145
1213.917
1212.612
1211.223
1163.704
1217.396
1216.306
1215.15
1213.923
1212.619
1191.293
1172.663
1218.425
1217.399
1216.311
1215.158
1213.933
1198.416
1193.824
1181.35
1219.394
1218.428
1217.405
1216.321
1215.172
1200.352
1198.379
1195.517
1188.549
1220.306
1219.398
1218.435
1217.416
1216.34
1215.211
1214.003
1212.722
1211.362
1209.919
1208.386
1206.754
1205.016
1203.16
1201.174
1199.885
1199.123
1198.152
1196.709
1193.49
1221.163
1220.31
1219.404
1218.447
1217.436
1216.369
1215.23
1214.024
1212.745
1211.388
1209.948
1208.418
1206.79
1205.055
1203.199
1201.732
1200.803
1199.947
1199.147
1198.268
1195.873
1221.968
1221.167
1220.316
1219.416
1218.466
1217.459
1216.386
1215.249
1214.044
1212.767
1211.413
1209.976
1208.449
1206.823
1205.087
1203.651
1202.661
1201.766
1201.002
1200.396
1199.15
1196.705
1222.722
1221.971
1221.173
1220.328
1219.434
1218.486
1217.474
1216.403
1215.268
1214.065
1212.79
1211.438
1210.003
1208.477
1206.851
1205.479
1204.481
1203.562
1202.764
1202.135
1201.064
1199.262
1197.19
1223.427
1222.725
1221.978
1221.184
1220.344
1219.452
1218.499
1217.49
1216.42
1215.287
1214.086
1212.813
1211.463
1210.029
1208.504
1207.201
1206.22
1205.3
1204.474
1203.792
1202.736
1201.111
1199.363
1197.458
1200.602
1198.362
1195.978
1193.47
1190.884
1188.452
1202.696
1200.61
1198.379
1196.001
1193.48
1190.832
1188.292
1204.642
1202.702
1200.626
1198.404
1196.034
1193.494
1190.787
1188.083
1206.455
1204.647
1202.715
1200.647
1198.439
1196.072
1193.5
1190.727
1187.811
1208.146
1206.459
1204.657
1202.731
1200.674
1198.487
1196.099
1193.501
1190.649
1187.478
1209.728
1208.149
1206.466
1204.667
1202.741
1211.211
1209.73
1208.154
1206.472
1204.67
1212.603
1211.213
1209.734
1208.158
1206.472
1213.912
1212.605
1211.216
1209.737
1208.158
1215.143
1213.913
1212.607
1211.219
1209.738
1216.303
1215.145
1213.916
1212.611
1211.221
1161.68
1217.395
1216.305
1215.149
1213.921
1212.615
1190.082
1169.225
1218.424
1217.398
1216.309
1215.154
1213.927
1198.507
1192.81
1177.298
1219.393
1218.427
1217.403
1216.317
1215.163
1201.537
1199.104
1195.111
1184.937
1220.305
1219.396
1218.433
1217.412
1216.329
1202.502
1200.975
1199.282
1196.812
1191.176
1221.163
1220.309
1219.403
1218.443
1217.43
1216.367
1215.229
1214.023
1212.744
1211.387
1209.948
1208.419
1206.794
1205.063
1203.217
1202
1201.275
1200.455
1199.525
1198.239
1194.594
1221.968
1221.166
1220.315
1219.414
1218.462
1217.457
1216.385
1215.248
1214.044
1212.767
1211.414
1209.977
1208.452
1206.829
1205.098
1203.713
1202.803
1201.961
1201.21
1200.548
1199.113
1195.981
1222.722
1221.971
1221.173
1220.326
1219.432
1218.484
1217.473
1216.402
1215.267
1214.065
1212.791
1211.439
1210.005
1208.481
1206.858
1205.501
1204.534
1203.642
1202.862
1202.235
1201.138
1199.242
1196.811
1223.427
1222.725
1221.977
1221.184
1220.343
1219.451
1218.499
1217.489
1216.42
1215.287
1214.086
1212.814
1211.464
1210.031
1208.507
1207.209
1206.24
1205.329
1204.513
1203.836
1202.779
1201.143
1199.355
1197.296
1224.085
1223.43
1222.731
1221.988
1221.199
1220.36
1219.464
1218.513
1217.505
1216.437
1215.306
1214.107
1212.837
1211.488
1210.056
1208.823
1207.874
1206.968
1206.134
1205.412
1204.353
1202.805
1201.191
1199.456
1197.564
1202.696
1200.611
1198.38
1196.003
1193.483
1190.839
1188.328
1204.643
1202.704
1200.628
1198.409
1196.04
1193.5
1190.805
1188.172
1206.456
1204.649
1202.718
1200.654
1198.449
1196.079
1193.511
1190.761
1187.969
1208.148
1206.461
1204.661
1202.739
1200.688
1198.493
1196.106
1193.519
1190.705
1187.716
1209.73
1208.151
1206.469
1204.676
1202.764
1200.736
1198.527
1196.135
1193.523
1190.638
1187.418
1211.212
1209.732
1208.157
1206.479
1204.685
1212.604
1211.214
1209.737
1208.163
1206.481
1213.912
1212.605
1211.218
1209.74
1208.163
1215.143
1213.914
1212.608
1211.22
1209.74
1216.303
1215.145
1213.916
1212.611
1211.221
1161.68
1217.395
1216.304
1215.148
1213.92
1212.613
1189.386
1167.486
1218.424
1217.397
1216.308
1215.152
1213.923
1198.368
1191.862
1174.436
1219.393
1218.426
1217.401
1216.313
1215.158
1202.072
1199.271
1194.338
1181.713
1220.305
1219.395
1218.431
1217.408
1216.322
1203.734
1202.022
1199.885
1196.469
1188.442
1221.162
1220.308
1219.401
1218.439
1217.42
1204.384
1203.04
1201.727
1200.271
1198.185
1192.593
1221.967
1221.165
1220.314
1219.411
1218.457
1217.455
1216.383
1215.247
1214.043
1212.766
1211.413
1209.978
1208.455
1206.836
1205.114
1203.956
1203.239
1202.457
1201.662
1200.838
1199.051
1194.714
1222.721
1221.97
1221.171
1220.324
1219.429
1218.483
1217.472
1216.401
1215.267
1214.064
1212.791
1211.441
1210.008
1208.487
1206.868
1205.557
1204.665
1203.827
1203.071
1202.432
1201.277
1199.203
1196.09
1223.427
1222.724
1221.976
1221.182
1220.342
1219.45
1218.498
1217.489
1216.419
1215.286
1214.086
1212.815
1211.466
1210.035
1208.513
1207.23
1206.289
1205.404
1204.607
1203.939
1202.879
1201.218
1199.334
1196.917
1224.085
1223.43
1222.731
1221.987
1221.199
1220.36
1219.464
1218.513
1217.505
1216.437
1215.306
1214.108
1212.838
1211.49
1210.059
1208.831
1207.892
1206.996
1206.17
1205.454
1204.397
1202.849
1201.223
1199.447
1197.402
1224.697
1224.088
1223.436
1222.741
1222.002
1221.215
1220.372
1219.477
1218.528
1217.522
1216.456
1215.326
1214.129
1212.86
1211.513
1210.345
1209.431
1208.544
1207.711
1206.962
1205.903
1204.413
1202.874
1201.27
1199.548
1197.663
1204.644
1202.705
1200.63
1198.411
1196.043
1193.504
1190.813
1188.215
1206.457
1204.651
1202.721
1200.658
1198.455
1196.083
1193.518
1190.783
1188.07
1208.149
1206.463
1204.664
1202.745
1200.697
1198.499
1196.112
1193.532
1190.746
1187.885
1209.731
1208.153
1206.473
1204.683
1202.777
1200.741
1198.532
1196.143
1193.544
1190.7
1187.66
1211.214
1209.734
1208.161
1206.486
1204.705
1202.821
1200.775
1198.568
1196.175
1193.555
1190.651
1187.406
1212.605
1211.216
1209.74
1208.17
1206.495
1213.913
1212.607
1211.22
1209.745
1208.172
1215.144
1213.915
1212.61
1211.223
1209.745
1216.303
1215.145
1213.917
1212.612
1211.223
1163.704
1217.395
1216.304
1215.148
1213.92
1212.613
1189.386
1167.486
1218.424
1217.397
1216.307
1215.151
1213.921
1198.242
1191.31
1172.973
1219.392
1218.425
1217.4
1216.311
1215.154
1202.296
1199.217
1193.603
1179.391
1220.304
1219.394
1218.429
1217.405
1216.316
1204.379
1202.548
1200.076
1195.878
1185.959
1221.161
1220.307
1219.399
1218.436
1217.413
1205.551
1204.118
1202.59
1200.734
1197.879
1190.264
1221.966
1221.164
1220.312
1219.407
1218.447
1206.109
1204.857
1203.687
1202.545
1201.305
1198.934
1192.745
1222.721
1221.969
1221.17
1220.321
1219.424
1218.481
1217.471
1216.4
1215.266
1214.064
1212.791
1211.441
1210.011
1208.493
1206.882
1205.778
1205.063
1204.288
1203.52
1202.8
1201.517
1199.138
1194.835
1223.426
1222.724
1221.975
1221.18
1220.339
1219.448
1218.497
1217.488
1216.419
1215.286
1214.087
1212.816
1211.469
1210.04
1208.522
1207.282
1206.41
1205.575
1204.805
1204.141
1203.064
1201.355
1199.294
1196.2
1224.084
1223.429
1222.73
1221.986
1221.197
1220.359
1219.463
1218.512
1217.505
1216.437
1215.307
1214.109
1212.84
1211.493
1210.064
1208.85
1207.938
1207.065
1206.258
1205.554
1204.5
1202.948
1201.297
1199.426
1197.024
1224.697
1224.087
1223.435
1222.74
1222.001
1221.214
1220.372
1219.477
1218.528
1217.522
1216.456
1215.327
1214.13
1212.861
1211.515
1210.353
1209.448
1208.57
1207.745
1207.003
1205.947
1204.458
1202.918
1201.303
1199.539
1197.501
1225.264
1224.699
1224.093
1223.445
1222.755
1222.017
1221.226
1220.385
1219.492
1218.544
1217.539
1216.475
1215.346
1214.151
1212.882
1211.778
1210.898
1210.036
1209.21
1208.448
1207.397
1205.956
1204.473
1202.943
1201.35
1199.634
1197.74
1206.458
1204.651
1202.722
1200.66
1198.457
1196.086
1193.522
1190.794
1188.12
1208.15
1206.464
1204.666
1202.748
1200.703
1198.503
1196.116
1193.541
1190.772
1187.994
1209.732
1208.155
1206.476
1204.688
1202.785
1200.746
1198.536
1196.149
1193.559
1190.744
1187.833
1211.215
1209.736
1208.164
1206.493
1204.717
1202.825
1200.778
1198.572
1196.184
1193.578
1190.714
1187.642
1212.606
1211.218
1209.743
1208.176
1206.513
1204.757
1202.857
1200.814
1198.611
1196.22
1193.599
1190.69
1187.437
1213.914
1212.608
1211.223
1209.751
1208.184
1215.145
1213.916
1212.612
1211.227
1209.753
1216.304
1215.146
1213.919
1212.615
1211.227
1167.747
1217.395
1216.305
1215.149
1213.921
1212.615
1190.082
1169.225
1218.424
1217.397
1216.307
1215.151
1213.921
1198.242
1191.31
1172.973
1219.392
1218.425
1217.399
1216.31
1215.152
1202.373
1199.142
1193.171
1178.192
1220.304
1219.394
1218.428
1217.403
1216.313
1204.709
1202.79
1200.075
1195.315
1184.14
1221.161
1220.306
1219.398
1218.433
1217.408
1206.193
1204.728
1203.07
1200.914
1197.426
1188.135
1221.965
1221.163
1220.31
1219.404
1218.441
1207.182
1205.876
1204.577
1203.221
1201.63
1198.64
1190.459
1222.72
1221.968
1221.168
1220.318
1219.415
1207.724
1206.529
1205.424
1204.388
1203.394
1201.864
1199.015
1192.898
1223.426
1222.723
1221.974
1221.177
1220.334
1219.446
1218.496
1217.487
1216.418
1215.285
1214.086
1212.817
1211.472
1210.046
1208.536
1207.483
1206.772
1205.998
1205.227
1204.514
1203.382
1201.589
1199.225
1194.956
1224.084
1223.429
1222.729
1221.984
1221.194
1220.357
1219.462
1218.512
1217.504
1216.437
1215.307
1214.11
1212.842
1211.498
1210.073
1208.898
1208.049
1207.223
1206.443
1205.747
1204.692
1203.131
1201.433
1199.385
1196.311
1224.696
1224.087
1223.434
1222.739
1222
1221.213
1220.371
1219.477
1218.528
1217.522
1216.456
1215.327
1214.132
1212.865
1211.52
1210.371
1209.491
1208.635
1207.827
1207.097
1206.047
1204.56
1203.017
1201.377
1199.518
1197.124
1225.264
1224.699
1224.093
1223.444
1222.754
1222.016
1221.226
1220.385
1219.491
1218.544
1217.539
1216.475
1215.347
1214.152
1212.884
1211.784
1210.914
1210.06
1209.242
1208.486
1207.438
1206
1204.518
1202.987
1201.383
1199.626
1197.578
1225.787
1225.266
1224.705
1224.102
1223.459
1222.769
1222.028
1221.238
1220.398
1219.507
1218.56
1217.557
1216.494
1215.366
1214.171
1213.126
1212.283
1211.448
1210.637
1209.871
1208.834
1207.443
1206.009
1204.533
1203.012
1201.425
1199.701
1197.801
1208.15
1206.465
1204.667
1202.75
1200.705
1198.505
1196.119
1193.545
1190.785
1188.047
1209.733
1208.156
1206.478
1204.691
1202.79
1200.749
1198.539
1196.153
1193.569
1190.772
1187.945
1211.216
1209.737
1208.167
1206.498
1204.725
1202.83
1200.781
1198.576
1196.19
1193.594
1190.759
1187.813
1212.607
1211.219
1209.746
1208.182
1206.524
1204.761
1202.859
1200.817
1198.615
1196.229
1193.621
1190.748
1187.659
1213.915
1212.61
1211.226
1209.757
1208.201
1206.56
1204.79
1202.893
1200.855
1198.658
1196.272
1193.655
1190.752
1187.501
1215.146
1213.917
1212.615
1211.233
1209.764
1216.304
1215.147
1213.921
1212.619
1211.235
1173.754
1217.396
1216.306
1215.15
1213.923
1212.619
1191.293
1172.663
1218.424
1217.397
1216.308
1215.152
1213.923
1198.368
1191.862
1174.436
1219.392
1218.425
1217.399
1216.31
1215.152
1202.373
1199.142
1193.171
1178.192
1220.303
1219.393
1218.428
1217.402
1216.311
1204.848
1202.88
1200.037
1194.984
1183.19
1221.16
1220.305
1219.396
1218.431
1217.405
1206.539
1205.053
1203.309
1200.944
1197.007
1186.564
1221.965
1221.162
1220.309
1219.401
1218.436
1207.784
1206.477
1205.122
1203.633
1201.78
1198.248
1188.368
1222.719
1221.967
1221.166
1220.315
1219.408
1208.702
1207.467
1206.268
1205.091
1203.894
1202.119
1198.722
1190.654
1223.425
1222.722
1221.972
1221.174
1220.325
1209.248
1208.101
1207.033
1206.038
1205.115
1203.851
1201.925
1199.096
1193.052
1224.083
1223.428
1222.727
1221.981
1221.189
1220.355
1219.461
1218.511
1217.503
1216.436
1215.307
1214.11
1212.844
1211.504
1210.085
1209.082
1208.381
1207.61
1206.833
1206.103
1205.02
1203.444
1201.662
1199.313
1195.079
1224.696
1224.086
1223.433
1222.737
1221.997
1221.211
1220.37
1219.476
1218.527
1217.522
1216.456
1215.328
1214.134
1212.869
1211.528
1210.415
1209.594
1208.781
1207.999
1207.278
1206.231
1204.751
1203.199
1201.511
1199.476
1196.415
1225.263
1224.699
1224.092
1223.443
1222.752
1222.015
1221.225
1220.384
1219.491
1218.544
1217.54
1216.476
1215.349
1214.155
1212.889
1211.801
1210.954
1210.121
1209.319
1208.574
1207.532
1206.099
1204.621
1203.085
1201.456