/*--------------------------------*- C++ -*----------------------------------*\
| =========                 |                                                 |
| \\      /  F ield         | OpenFOAM: The Open Source CFD Toolbox           |
|  \\    /   O peration     | Version:  2306                                  |
|   \\  /    A nd           | Website:  www.openfoam.com                      |
|    \\/     M anipulation  |                                                 |
\*---------------------------------------------------------------------------*/
FoamFile
{
    version     2.0;
    format      ascii;
    arch        "LSB;label=32;scalar=64";
    class       volScalarField;
    location    "0.6/air";
    object      diffSp.O2;
}
// * * * * * * * * * * * * * * * * * * * * * * * * * * * * * * * * * * * * * //

dimensions      [0 2 -1 0 0 0 0];

internalField   nonuniform List<scalar> 
16000
(
0.0002202189
0.0002163967
0.0002247014
0.00021633
0.0002142929
0.0002237754
0.0002071661
0.0002258271
0.0002237598
0.0002141681
0.0002131003
0.0002229764
0.0002015502
0.0002254666
0.0002210367
0.0002014589
0.0002267341
0.0002254817
0.0002229436
0.0002129059
0.0002125474
0.0002223905
0.0001982169
0.0002251445
0.0002186638
0.0001931602
0.0002265686
0.0002244254
0.0002186264
0.0001979745
0.0002275313
0.0002265953
0.0002251702
0.000222333
0.0002122598
0.0002125474
0.0002220808
0.0001966461
0.000224899
0.0002169154
0.0001880422
0.000226425
0.000223466
0.0002148127
0.0001878415
0.0002274406
0.0002261284
0.0002234741
0.0002168089
0.0001961654
0.0002282577
0.0002274697
0.000226473
0.0002249335
0.0002219901
0.0002121319
0.0001306588
0.0002131003
0.0002220808
0.0001966461
0.0002247658
0.0002159892
0.0001855788
0.0002263168
0.0002227277
0.0002119751
0.000181431
0.0002273658
0.0002257105
0.0002219101
0.0002118775
0.0001850227
0.0002281979
0.0002272275
0.0002257364
0.0002227377
0.0002157796
0.0001958229
0.0002289265
0.0002282258
0.0002274186
0.0002263869
0.0002248103
0.0002219536
0.0002125142
0.0001306448
0.0001311541
0.0001309622
0.0002142929
0.0002223905
0.0001982169
0.0002247658
0.0002159892
0.0001855788
0.0002262583
0.000222325
0.0002104644
0.0001783011
0.0002273112
0.0002253908
0.0002206933
0.0002081769
0.0001778755
0.0002281509
0.0002270179
0.0002250644
0.0002206893
0.0002102022
0.0001844841
0.0002288801
0.0002280744
0.0002270486
0.0002254479
0.0002223369
0.0002156565
0.0001969312
0.0002295485
0.0002289058
0.0002282019
0.0002273892
0.0002263548
0.0002248275
0.0002222365
0.0002134797
0.0001306143
0.0001311514
0.0001309423
0.000131638
0.0001314326
0.000131268
0.0002163967
0.0002229764
0.0002015502
0.000224899
0.0002169154
0.0001880422
0.0002262583
0.000222325
0.0002104644
0.0001783011
0.0002272822
0.0002252165
0.0002200257
0.0002061971
0.0001743585
0.0002281179
0.0002268618
0.0002245431
0.0002190813
0.0002059944
0.0001771885
0.0002288449
0.0002279483
0.0002267212
0.0002245788
0.0002200122
0.00020999
0.0001862141
0.0002295087
0.0002287923
0.0002279785
0.0002269321
0.0002253178
0.0002223545
0.0002164742
0.0001996529
0.000230129
0.0002295321
0.0002288919
0.0002281934
0.0002273905
0.0002263903
0.0002249953
0.0002228282
0.0002152552
0.0001305553
0.0001311465
0.0001308953
0.0001316378
0.00013143
0.0001312431
0.000132085
0.0001318833
0.0001317114
0.0001315778
0.0002202189
0.0002237754
0.0002071661
0.0002251445
0.0002186638
0.0001931602
0.0002263168
0.0002227277
0.0002119751
0.000181431
0.0002272822
0.0002252165
0.0002200257
0.0002061971
0.0001743585
0.0002281007
0.0002267781
0.0002242567
0.0002181946
0.0002037358
0.0001735921
0.0002288207
0.0002278573
0.0002264733
0.0002238967
0.0002181761
0.0002057075
0.0001793676
0.0002294791
0.0002287007
0.000227788
0.0002265208
0.0002243474
0.0002200193
0.0002112942
0.0001903914
0.0002300932
0.0002294365
0.0002287288
0.0002279273
0.0002269041
0.0002253863
0.0002228164
0.0002181855
0.0002044417
0.0002306734
0.0002301145
0.0002295219
0.0002288906
0.0002282059
0.0002274297
0.0002265005
0.0002253108
0.000223711
0.0002184923
0.0001303968
0.0001311412
0.0001307948
0.0001316386
0.0001314256
0.0001311836
0.0001320856
0.0001318849
0.0001317087
0.0001315496
0.0001324953
0.0001322996
0.0001321283
0.0001319914
0.0001318895
0.0002247014
0.00021633
0.0002254666
0.0002210367
0.0002014589
0.000226425
0.000223466
0.0002148127
0.0001878415
0.0002273112
0.0002253908
0.0002206933
0.0002081769
0.0001778755
0.0002281007
0.0002267781
0.0002242567
0.0002181946
0.0002037358
0.0001735921
0.0002288085
0.0002278096
0.0002263391
0.0002235194
0.00021716
0.0002034062
0.0001760064
0.0002294591
0.0002286363
0.0002276484
0.0002262052
0.000223579
0.0002181683
0.0002073838
0.0001845732
0.0002300666
0.0002293604
0.000228594
0.0002276967
0.0002264603
0.0002244373
0.000220748
0.0002140144
0.0001974875
0.0002306403
0.0002300285
0.0002293862
0.0002287018
0.0002279356
0.0002269851
0.0002256707
0.0002236947
0.0002206724
0.0002123839
0.0002311849
0.0002306597
0.0002301055
0.0002295227
0.0002289058
0.0002282437
0.0002275125
0.0002266908
0.0002257789
0.0002249221
0.0001292893
0.0001311542
0.0001305393
0.0001316443
0.0001314227
0.000131058
0.0001320879
0.0001318903
0.0001317042
0.0001314825
0.000132496
0.0001323023
0.0001321312
0.0001319886
0.0001318595
0.0001328765
0.0001326835
0.0001325137
0.0001323736
0.00013227
5.584728e-05
0.0002258271
0.0002237598
0.0002141681
0.0002265686
0.0002244254
0.0002186264
0.0001979745
0.0002273658
0.0002257105
0.0002219101
0.0002118775
0.0001850227
0.0002281179
0.0002268618
0.0002245431
0.0002190813
0.0002059944
0.0001771885
0.0002288085
0.0002278096
0.0002263391
0.0002235194
0.00021716
0.0002034062
0.0001760064
0.000229449
0.0002286032
0.0002275743
0.0002260329
0.0002231517
0.0002171419
0.0002052836
0.0001817434
0.0002300488
0.000229308
0.000228498
0.0002275253
0.0002261156
0.00022368
0.0002191032
0.0002108707
0.000193215
0.0002306157
0.0002299606
0.000229276
0.0002285435
0.0002276978
0.0002265721
0.0002248714
0.000222131
0.0002178996
0.0002085529
0.0002311539
0.0002305801
0.000229984
0.0002293678
0.0002287211
0.0002280154
0.0002271877
0.0002261686
0.0002249293
0.0002237723
0.000127982
0.0002316667
0.0002311717
0.0002306512
0.0002301067
0.0002295377
0.0002289407
0.0002283117
0.000227647
0.0002269824
0.0002264895
0.0001313884
0.0001296832
0.0001316873
0.0001314411
0.0001307749
0.0001320964
0.0001319082
0.0001317007
0.0001313461
0.0001324987
0.0001323103
0.0001321399
0.0001319835
0.0001317893
0.0001328773
0.0001326864
0.0001325181
0.0001323774
0.0001322671
5.58343e-05
0.0001332316
0.0001330426
0.0001328712
0.0001327277
0.0001326165
5.600306e-05
5.585559e-05
0.0002267341
0.0002254817
0.0002229436
0.0002129059
0.0002274406
0.0002261284
0.0002234741
0.0002168089
0.0001961654
0.0002281509
0.0002270179
0.0002250644
0.0002206893
0.0002102022
0.0001844841
0.0002288207
0.0002278573
0.0002264733
0.0002238967
0.0002181761
0.0002057075
0.0001793676
0.000229449
0.0002286032
0.0002275743
0.0002260329
0.0002231517
0.0002171419
0.0002052836
0.0001817434
0.0002300399
0.0002292812
0.0002284482
0.0002274336
0.000225926
0.0002232569
0.0002181897
0.0002091835
0.0001911606
0.0002305993
0.0002299142
0.000229199
0.0002284296
0.0002275187
0.0002262466
0.0002242252
0.0002208752
0.0002157962
0.0002062004
0.000231131
0.0002305175
0.0002298863
0.0002292407
0.0002285645
0.0002278096
0.0002268717
0.0002256274
0.0002240171
0.0002225619
0.0001269489
0.0002316376
0.0002310971
0.0002305388
0.0002299687
0.0002293893
0.0002287955
0.0002281772
0.000227521
0.0002268753
0.0002264794
0.000131249
0.0001286521
0.0002321212
0.000231654
0.0002311635
0.0002306521
0.0002301206
0.0002295697
0.0002289997
0.0002284187
0.0002278596
0.0002274829
0.0001321302
0.0001315564
0.000130101
0.0001321448
0.0001319785
0.0001317118
0.0001310717
0.0001325074
0.0001323331
0.0001321636
0.0001319775
0.0001316532
0.0001328799
0.0001326948
0.0001325302
0.0001323877
0.0001322611
5.580421e-05
0.0001332323
0.0001330454
0.0001328758
0.0001327333
0.0001326208
5.600178e-05
5.584263e-05
0.0001335642
0.0001333791
0.0001332081
0.0001330587
0.0001329392
5.614418e-05
5.601042e-05
5.586382e-05
0.0002275313
0.0002265953
0.0002251702
0.000222333
0.0002122598
0.0002281979
0.0002272275
0.0002257364
0.0002227377
0.0002157796
0.0001958229
0.0002288449
0.0002279483
0.0002267212
0.0002245788
0.0002200122
0.00020999
0.0001862141
0.0002294591
0.0002286363
0.0002276484
0.0002262052
0.000223579
0.0002181683
0.0002073838
0.0001845732
0.0002300399
0.0002292812
0.0002284482
0.0002274336
0.000225926
0.0002232569
0.0002181897
0.0002091835
0.0001911606
0.0002305911
0.0002298906
0.0002291595
0.0002283699
0.000227422
0.000226066
0.0002238618
0.0002201746
0.0002146637
0.0002050666
0.0002311156
0.0002304747
0.0002298185
0.0002291511
0.0002284503
0.0002276512
0.0002266143
0.000225172
0.0002232522
0.0002215968
0.0001262559
0.0002316159
0.0002310383
0.0002304487
0.0002298567
0.0002292663
0.0002286692
0.0002280442
0.0002273586
0.0002266529
0.0002262264
0.0001310115
0.0001277919
0.0002320937
0.0002315835
0.000231058
0.0002305245
0.0002299892
0.0002294574
0.0002289339
0.0002284334
0.0002280022
0.0002278168
0.0001322606
0.0001314579
0.0001292901
0.0002325505
0.0002321089
0.000231646
0.0002311641
0.0002306648
0.0002301497
0.0002296223
0.0002290912
0.000228591
0.0002282563
0.0001326135
0.0001322625
0.0001317589
0.0001305407
0.0001325541
0.0001324134
0.0001322345
0.0001319775
0.0001314054
0.0001328881
0.0001327176
0.0001325604
0.0001324123
0.0001322515
5.574718e-05
0.0001332347
0.0001330535
0.0001328884
0.0001327477
0.0001326314
5.599902e-05
5.581259e-05
0.0001335648
0.0001333817
0.0001332126
0.0001330646
0.0001329454
5.614606e-05
5.600915e-05
5.585087e-05
0.0001338765
0.0001336962
0.000133526
0.0001333734
0.0001332437
5.62762e-05
5.61506e-05
5.601768e-05
5.587216e-05
0.0002282577
0.0002274697
0.000226473
0.0002249335
0.0002219901
0.0002121319
0.0002288801
0.0002280744
0.0002270486
0.0002254479
0.0002223369
0.0002156565
0.0001969312
0.0002294791
0.0002287007
0.000227788
0.0002265208
0.0002243474
0.0002200193
0.0002112942
0.0001903914
0.0002300488
0.000229308
0.000228498
0.0002275253
0.0002261156
0.00022368
0.0002191032
0.0002108707
0.000193215
0.0002305911
0.0002298906
0.0002291595
0.0002283699
0.000227422
0.000226066
0.0002238618
0.0002201746
0.0002146637
0.0002050666
0.0002311079
0.000230453
0.000229784
0.0002291048
0.0002283901
0.0002275645
0.0002264689
0.0002249111
0.0002228179
0.000221067
0.0001259098
0.0002316015
0.0002309983
0.0002303864
0.0002297785
0.0002291788
0.0002285749
0.0002279348
0.0002272074
0.0002264257
0.000225952
0.0001307982
0.0001272002
0.0002320733
0.0002315281
0.0002309734
0.0002304213
0.0002298817
0.0002293625
0.0002288679
0.0002284089
0.0002280236
0.000227892
0.000132272
0.0001312764
0.0001285873
0.0002325245
0.0002320423
0.0002315462
0.0002310441
0.0002305432
0.0002300514
0.0002295803
0.0002291492
0.0002288079
0.0002286791
0.0001328161
0.0001323827
0.0001316816
0.0001299091
0.0002329564
0.0002325388
0.0002321012
0.0002316462
0.0002311756
0.0002306915
0.0002301975
0.0002297035
0.0002292398
0.0002289271
0.0001329976
0.0001327249
0.0001324199
0.0001319845
0.0001309924
0.0001329311
0.0001327958
0.000132644
0.0001324725
0.0001322402
5.564805e-05
0.0001332421
0.000133075
0.0001329189
0.00013278
0.0001326535
5.599411e-05
5.575577e-05
0.000133567
0.0001333892
0.0001332247
0.0001330796
0.0001329606
5.615054e-05
5.600637e-05
5.582089e-05
0.000133877
0.0001336987
0.0001335303
0.0001333792
0.0001332503
5.627896e-05
5.615248e-05
5.601641e-05
5.585923e-05
0.0001341705
0.0001339954
0.0001338277
0.0001336729
0.0001335363
5.640157e-05
5.628181e-05
5.615692e-05
5.602503e-05
5.58803e-05
0.0002289265
0.0002282258
0.0002274186
0.0002263869
0.0002248103
0.0002219536
0.0002125142
0.0002295087
0.0002287923
0.0002279785
0.0002269321
0.0002253178
0.0002223545
0.0002164742
0.0001996529
0.0002300666
0.0002293604
0.000228594
0.0002276967
0.0002264603
0.0002244373
0.000220748
0.0002140144
0.0001974875
0.0002305993
0.0002299142
0.000229199
0.0002284296
0.0002275187
0.0002262466
0.0002242252
0.0002208752
0.0002157962
0.0002062004
0.0002311079
0.000230453
0.000229784
0.0002291048
0.0002283901
0.0002275645
0.0002264689
0.0002249111
0.0002228179
0.000221067
0.0001259098
0.0002315942
0.000230978
0.0002303548
0.0002297384
0.0002291334
0.0002285244
0.0002278727
0.0002271168
0.0002262863
0.0002257837
0.0001306758
0.0001269015
0.0002320596
0.0002314903
0.000230915
0.0002303496
0.0002298061
0.0002292934
0.0002288132
0.00022837
0.0002279932
0.0002278756
0.0001322446
0.0001311086
0.0001280928
0.0002325052
0.0002319898
0.0002314663
0.0002309471
0.0002304442
0.0002299696
0.0002295382
0.0002291702
0.0002289099
0.0002288576
0.0001329062
0.000132407
0.0001315422
0.0001293475
0.0002329318
0.0002324756
0.0002320066
0.0002315326
0.0002310609
0.0002306002
0.0002301628
0.0002297703
0.0002294663
0.0002293525
0.0001332102
0.0001329029
0.0001325192
0.0001319186
0.000130512
0.0002333404
0.0002329452
0.0002325312
0.0002321011
0.0002316567
0.0002312001
0.0002307353
0.0002302711
0.000229836
0.0002295354
0.0001333369
0.0001330944
0.0001328565
0.000132593
0.0001322211
5.549322e-05
0.0001332813
0.0001331475
0.0001330013
0.0001328542
0.0001326986
5.598681e-05
5.565752e-05
0.0001335737
0.0001334091
0.0001332536
0.0001331126
0.0001329912
5.615911e-05
5.600138e-05
5.576432e-05
0.000133879
0.0001337056
0.0001335416
0.0001333937
0.0001332663
5.628546e-05
5.615696e-05
5.601362e-05
5.582932e-05
0.000134171
0.0001339977
0.0001338317
0.0001336783
0.0001335428
5.64045e-05
5.628457e-05
5.61588e-05
5.602376e-05
5.58674e-05
0.0001344479
0.0001342786
0.0001341139
0.000133959
0.0001338173
5.652288e-05
5.640651e-05
5.628733e-05
5.616332e-05
5.603218e-05
3.648013e-05
0.0002295485
0.0002289058
0.0002282019
0.0002273892
0.0002263548
0.0002248275
0.0002222365
0.0002134797
0.0002300932
0.0002294365
0.0002287288
0.0002279273
0.0002269041
0.0002253863
0.0002228164
0.0002181855
0.0002044417
0.0002306157
0.0002299606
0.000229276
0.0002285435
0.0002276978
0.0002265721
0.0002248714
0.000222131
0.0002178996
0.0002085529
0.0002311156
0.0002304747
0.0002298185
0.0002291511
0.0002284503
0.0002276512
0.0002266143
0.000225172
0.0002232522
0.0002215968
0.0001262559
0.0002315942
0.000230978
0.0002303548
0.0002297384
0.0002291334
0.0002285244
0.0002278727
0.0002271168
0.0002262863
0.0002257837
0.0001306758
0.0001269015
0.0002320527
0.0002314711
0.0002308854
0.0002303129
0.0002297672
0.000229257
0.0002287822
0.0002283429
0.0002279641
0.0002278491
0.000132221
0.0001310111
0.0001278404
0.0002324922
0.000231954
0.0002314112
0.0002308798
0.000230375
0.0002299109
0.0002295035
0.0002291701
0.000228948
0.0002289289
0.000132943
0.0001323945
0.0001314113
0.0001289446
0.0002329135
0.0002324258
0.0002319309
0.0002314408
0.0002309677
0.0002305248
0.0002301286
0.0002298035
0.0002295876
0.0002295549
0.0001333207
0.0001329911
0.0001325479
0.0001318108
0.0001300773
0.0002333171
0.0002328853
0.0002324416
0.0002319933
0.0002315478
0.0002311135
0.0002307025
0.0002303349
0.0002300512
0.0002299351
0.0001335396
0.0001332795
0.0001330028
0.0001326684
0.000132162
5.531611e-05
0.0002337037
0.0002333297
0.000232938
0.0002325311
0.0002321108
0.0002316795
0.0002312406
0.0002308029
0.0002303915
0.0002301015
0.000133649
0.0001334224
0.0001332081
0.0001330002
0.0001327716
5.5974e-05
5.550518e-05
0.0001336093
0.0001334755
0.0001333306
0.000133187
0.0001330508
5.61749e-05
5.599384e-05
5.566696e-05
0.0001338851
0.0001337239
0.0001335685
0.0001334252
0.000133298
5.629775e-05
5.616543e-05
5.600856e-05
5.577302e-05
0.0001341728
0.0001340042
0.0001338422
0.000133692
0.0001335583
5.641137e-05
5.629107e-05
5.616327e-05
5.602096e-05
5.583757e-05
0.0001344484
0.0001342807
0.0001341177
0.0001339641
0.0001338235
5.652574e-05
5.640944e-05
5.62901e-05
5.61652e-05
5.603091e-05
3.647176e-05
0.00013471
0.0001345467
0.0001343861
0.0001342323
0.0001340881
5.664003e-05
5.652725e-05
5.641136e-05
5.629292e-05
5.616952e-05
3.65783e-05
3.648725e-05
0.000230129
0.0002295321
0.0002288919
0.0002281934
0.0002273905
0.0002263903
0.0002249953
0.0002228282
0.0002152552
0.0002306403
0.0002300285
0.0002293862
0.0002287018
0.0002279356
0.0002269851
0.0002256707
0.0002236947
0.0002206724
0.0002123839
0.000231131
0.0002305175
0.0002298863
0.0002292407
0.0002285645
0.0002278096
0.0002268717
0.0002256274
0.0002240171
0.0002225619
0.0001269489
0.0002316015
0.0002309983
0.0002303864
0.0002297785
0.0002291788
0.0002285749
0.0002279348
0.0002272074
0.0002264257
0.000225952
0.0001307982
0.0001272002
0.0002320527
0.0002314711
0.0002308854
0.0002303129
0.0002297672
0.000229257
0.0002287822
0.0002283429
0.0002279641
0.0002278491
0.000132221
0.0001310111
0.0001278404
0.0002324857
0.0002319359
0.0002313832
0.0002308455
0.0002303394
0.0002298803
0.0002294838
0.0002291653
0.0002289582
0.0002289525
0.0001329551
0.0001323799
0.0001313347
0.0001287367
0.0002329012
0.0002323918
0.0002318786
0.0002313772
0.0002309026
0.0002304711
0.0002301008
0.0002298151
0.0002296455
0.0002296518
0.0001333768
0.000133031
0.000132545
0.0001317101
0.0001297601
0.0002332997
0.0002328381
0.0002323697
0.0002319062
0.0002314593
0.000231042
0.0002306708
0.0002303685
0.0002301709
0.0002301329
0.0001336505
0.0001333834
0.0001330831
0.0001326956
0.0001320787
5.515483e-05
0.0002336816
0.0002332729
0.0002328529
0.0002324287
0.0002320072
0.0002315966
0.0002312081
0.0002308606
0.0002305898
0.0002304693
0.0001338363
0.0001335986
0.0001333605
0.0001331141
0.0001328235
5.594952e-05
5.533124e-05
0.0002340475
0.0002336936
0.0002333228
0.0002329377
0.0002325401
0.0002321321
0.0002317172
0.0002313033
0.0002309136
0.000230633
0.0001339428
0.0001337256
0.0001335226
0.0001333319
0.0001331473
5.619754e-05
5.598058e-05
5.551704e-05
0.0001339176
0.0001337845
0.0001336394
0.0001334955
0.0001333593
5.631981e-05
5.618082e-05
5.600077e-05
5.567656e-05
0.0001341784
0.000134021
0.0001338671
0.0001337215
0.0001335891
5.642434e-05
5.630327e-05
5.617163e-05
5.601583e-05
5.578155e-05
0.00013445
0.0001342867
0.0001341275
0.000133977
0.0001338382
5.653246e-05
5.641631e-05
5.629658e-05
5.616965e-05
5.602811e-05
3.645243e-05
0.0001347105
0.0001345487
0.0001343896
0.0001342371
0.0001340939
5.664276e-05
5.653012e-05
5.641429e-05
5.629569e-05
5.617141e-05
3.657748e-05
3.647892e-05
0.000134958
0.0001348009
0.000134645
0.0001344936
0.0001343485
5.675347e-05
5.664394e-05
5.653154e-05
5.641627e-05
5.629833e-05
3.666704e-05
3.658465e-05
3.649183e-05
0.0002306734
0.0002301145
0.0002295219
0.0002288906
0.0002282059
0.0002274297
0.0002265005
0.0002253108
0.000223711
0.0002184923
0.0002311539
0.0002305801
0.000229984
0.0002293678
0.0002287211
0.0002280154
0.0002271877
0.0002261686
0.0002249293
0.0002237723
0.000127982
0.0002316159
0.0002310383
0.0002304487
0.0002298567
0.0002292663
0.0002286692
0.0002280442
0.0002273586
0.0002266529
0.0002262264
0.0001310115
0.0001277919
0.0002320596
0.0002314903
0.000230915
0.0002303496
0.0002298061
0.0002292934
0.0002288132
0.00022837
0.0002279932
0.0002278756
0.0001322446
0.0001311086
0.0001280928
0.0002324857
0.0002319359
0.0002313832
0.0002308455
0.0002303394
0.0002298803
0.0002294838
0.0002291653
0.0002289582
0.0002289525
0.0001329551
0.0001323799
0.0001313347
0.0001287367
0.000232895
0.0002323747
0.0002318521
0.0002313447
0.0002308693
0.0002304432
0.0002300851
0.0002298175
0.0002296679
0.000229691
0.0001334004
0.0001330457
0.000132537
0.000131651
0.0001295946
0.000233288
0.0002328058
0.0002323201
0.0002318458
0.0002313976
0.0002309912
0.0002306453
0.0002303821
0.0002302315
0.0002302325
0.0001337101
0.0001334386
0.0001331227
0.0001326982
0.000132003
5.503617e-05
0.0002336651
0.0002332281
0.0002327846
0.000232346
0.000231923
0.0002315283
0.0002311771
0.0002308911
0.0002307014
0.0002306542
0.000133941
0.0001337019
0.0001334532
0.0001331828
0.0001328459
5.591815e-05
5.517275e-05
0.0002340266
0.0002336397
0.0002332421
0.0002328405
0.0002324415
0.0002320527
0.0002316848
0.0002313548
0.0002310951
0.0002309701
0.0001341146
0.0001338885
0.0001336681
0.0001334517
0.0001332307
5.621479e-05
5.595621e-05
5.534622e-05
0.0002343727
0.000234038
0.0002336871
0.0002333226
0.0002329462
0.00023256
0.0002321673
0.0002317756
0.0002314058
0.0002311354
0.0001342212
0.000134012
0.000133815
0.0001336315
0.0001334581
5.635215e-05
5.620255e-05
5.598707e-05
5.552904e-05
0.0001342082
0.0001340766
0.0001339322
0.0001337867
0.0001336478
5.644743e-05
5.632494e-05
5.618664e-05
5.600781e-05
5.568601e-05
0.0001344551
0.0001343023
0.0001341506
0.0001340045
0.0001338673
5.654511e-05
5.64292e-05
5.630868e-05
5.617791e-05
5.60229e-05
3.641618e-05
0.000134712
0.0001345543
0.0001343989
0.0001342491
0.0001341078
5.664916e-05
5.653684e-05
5.642116e-05
5.630216e-05
5.617584e-05
3.657565e-05
3.64597e-05
0.0001349584
0.0001348028
0.0001346483
0.0001344981
0.000134354
5.675605e-05
5.664667e-05
5.653442e-05
5.641921e-05
5.63011e-05
3.666828e-05
3.658384e-05
3.648352e-05
0.0001351928
0.0001350422
0.0001348914
0.0001347432
0.0001345989
5.6863e-05
5.675698e-05
5.664777e-05
5.65359e-05
5.642101e-05
3.675033e-05
3.667269e-05
3.658865e-05
3.649539e-05
0.0002311849
0.0002306597
0.0002301055
0.0002295227
0.0002289058
0.0002282437
0.0002275125
0.0002266908
0.0002257789
0.0002249221
0.0001292893
0.0002316376
0.0002310971
0.0002305388
0.0002299687
0.0002293893
0.0002287955
0.0002281772
0.000227521
0.0002268753
0.0002264794
0.000131249
0.0001286521
0.0002320733
0.0002315281
0.0002309734
0.0002304213
0.0002298817
0.0002293625
0.0002288679
0.0002284089
0.0002280236
0.000227892
0.000132272
0.0001312764
0.0001285873
0.0002324922
0.000231954
0.0002314112
0.0002308798
0.000230375
0.0002299109
0.0002295035
0.0002291701
0.000228948
0.0002289289
0.000132943
0.0001323945
0.0001314113
0.0001289446
0.000232895
0.0002323747
0.0002318521
0.0002313447
0.0002308693
0.0002304432
0.0002300851
0.0002298175
0.0002296679
0.000229691
0.0001334004
0.0001330457
0.000132537
0.000131651
0.0001295946
0.0002332822
0.0002327895
0.0002322949
0.000231815
0.000231366
0.0002309649
0.0002306311
0.000230386
0.0002302563
0.0002302747
0.0001337363
0.0001334624
0.0001331383
0.0001326946
0.0001319588
5.497392e-05
0.0002336541
0.0002331975
0.0002327376
0.0002322885
0.0002318643
0.0002314798
0.0002311525
0.0002309036
0.0002307588
0.0002307492
0.0001339986
0.0001337593
0.0001335049
0.0001332194
0.0001328511
5.589036e-05
5.505602e-05
0.0002340109
0.0002335973
0.0002331773
0.0002327619
0.0002323614
0.0002319874
0.0002316542
0.0002313816
0.0002311975
0.0002311407
0.0001342117
0.0001339858
0.0001337599
0.0001335305
0.0001332859
5.622296e-05
5.592531e-05
5.519046e-05
0.0002343528
0.0002339869
0.0002336106
0.0002332303
0.0002328525
0.0002324842
0.0002321354
0.0002318217
0.0002315724
0.0002314451
0.000134379
0.0001341616
0.0001339499
0.0001337467
0.0001335476
5.63817e-05
5.621926e-05
5.59628e-05
5.536126e-05
0.0002346801
0.0002343638
0.0002340319
0.0002336869
0.0002333306
0.0002329649
0.0002325932
0.0002322221
0.0002318712
0.000231611
0.0001344865
0.0001342843
0.0001340926
0.0001339121
0.0001337422
5.648136e-05
5.635631e-05
5.620747e-05
5.599368e-05
5.554081e-05
0.0001344826
0.0001343536
0.0001342106
0.0001340648
0.0001339225
5.656752e-05
5.645193e-05
5.632996e-05
5.619252e-05
5.601464e-05
3.63546e-05
0.0001347167
0.0001345689
0.0001344204
0.0001342748
0.0001341351
5.666118e-05
5.654942e-05
5.643395e-05
5.631415e-05
5.618399e-05
3.657223e-05
3.64237e-05
0.0001349598
0.0001348082
0.000134657
0.0001345095
0.0001343671
5.676212e-05
5.665308e-05
5.654114e-05
5.642607e-05
5.630755e-05
3.667115e-05
3.658204e-05
3.646437e-05
0.0001351931
0.000135044
0.0001348946
0.0001347475
0.0001346041
5.686545e-05
5.675958e-05
5.665051e-05
5.653878e-05
5.642396e-05
3.675213e-05
3.667394e-05
3.658785e-05
3.64871e-05
0.0001354152
0.0001352713
0.000135126
0.0001349818
0.0001348394
5.69687e-05
5.686619e-05
5.676043e-05
5.665165e-05
5.654009e-05
3.682972e-05
3.67554e-05
3.667616e-05
3.659171e-05
3.649735e-05
0.0001303968
0.0002316667
0.0002311717
0.0002306512
0.0002301067
0.0002295377
0.0002289407
0.0002283117
0.000227647
0.0002269824
0.0002264895
0.0001313884
0.0001296832
0.0002320937
0.0002315835
0.000231058
0.0002305245
0.0002299892
0.0002294574
0.0002289339
0.0002284334
0.0002280022
0.0002278168
0.0001322606
0.0001314579
0.0001292901
0.0002325052
0.0002319898
0.0002314663
0.0002309471
0.0002304442
0.0002299696
0.0002295382
0.0002291702
0.0002289099
0.0002288576
0.0001329062
0.000132407
0.0001315422
0.0001293475
0.0002329012
0.0002323918
0.0002318786
0.0002313772
0.0002309026
0.0002304711
0.0002301008
0.0002298151
0.0002296455
0.0002296518
0.0001333768
0.000133031
0.000132545
0.0001317101
0.0001297601
0.0002332822
0.0002327895
0.0002322949
0.000231815
0.000231366
0.0002309649
0.0002306311
0.000230386
0.0002302563
0.0002302747
0.0001337363
0.0001334624
0.0001331383
0.0001326946
0.0001319588
5.497392e-05
0.0002336485
0.000233182
0.0002327136
0.0002322593
0.0002318342
0.0002314547
0.0002311389
0.0002309074
0.0002307827
0.00023079
0.0001340243
0.000133785
0.0001335278
0.0001332347
0.0001328505
5.587426e-05
5.499474e-05
0.0002340004
0.0002335682
0.0002331327
0.0002327074
0.0002323055
0.000231941
0.0002316302
0.0002313923
0.0002312504
0.000231229
0.0001342656
0.0001340409
0.000133813
0.0001335767
0.0001333177
5.622545e-05
5.589804e-05
5.507563e-05
0.000234338
0.0002339466
0.0002335491
0.0002331557
0.0002327763
0.0002324218
0.0002321055
0.0002318453
0.0002316663
0.0002316025
0.0001344687
0.0001342519
0.0001340365
0.0001338249
0.0001336112
5.640233e-05
5.622727e-05
5.593236e-05
5.52082e-05
0.0002346612
0.0002343154
0.0002339593
0.0002335994
0.0002332417
0.0002328928
0.0002325621
0.000232264
0.000232025
0.0002318972
0.0001346319
0.0001344219
0.0001342169
0.0001340197
0.0001338295
5.651367e-05
5.638517e-05
5.622363e-05
5.596949e-05
5.537603e-05
0.0002349703
0.0002346717
0.000234358
0.0002340317
0.0002336945
0.0002333483
0.0002329963
0.0002326448
0.0002323117
0.0002320622
0.0001347393
0.0001345444
0.0001343576
0.0001341801
0.0001340106
5.660041e-05
5.648496e-05
5.636039e-05
5.621248e-05
5.600009e-05
3.626154e-05
0.0001347422
0.0001346165
0.000134476
0.0001343308
0.0001341867
5.668242e-05
5.657152e-05
5.645633e-05
5.633504e-05
5.619821e-05
3.656673e-05
3.636274e-05
0.0001349642
0.0001348218
0.0001346772
0.0001345336
0.0001343928
5.677347e-05
5.666504e-05
5.655364e-05
5.643877e-05
5.631943e-05
3.667638e-05
3.657862e-05
3.642857e-05
0.0001351945
0.0001350491
0.0001349028
0.0001347583
0.0001346166
5.687119e-05
5.676564e-05
5.665691e-05
5.654549e-05
5.64308e-05
3.675632e-05
3.667682e-05
3.658604e-05
3.646801e-05
0.0001354156
0.000135273
0.000135129
0.0001349859
0.0001348444
5.697103e-05
5.686864e-05
5.676302e-05
5.66544e-05
5.654297e-05
3.683164e-05
3.675721e-05
3.66774e-05
3.65909e-05
3.648908e-05
0.000135626
0.0001354888
0.0001353493
0.0001352097
0.0001350702
5.707051e-05
5.697162e-05
5.68693e-05
5.676392e-05
5.665539e-05
3.690683e-05
3.683431e-05
3.675842e-05
3.667876e-05
3.65933e-05
0.0001305553
0.0001311542
0.0001305393
0.0002321212
0.000231654
0.0002311635
0.0002306521
0.0002301206
0.0002295697
0.0002289997
0.0002284187
0.0002278596
0.0002274829
0.0001321302
0.0001315564
0.000130101
0.0002325245
0.0002320423
0.0002315462
0.0002310441
0.0002305432
0.0002300514
0.0002295803
0.0002291492
0.0002288079
0.0002286791
0.0001328161
0.0001323827
0.0001316816
0.0001299091
0.0002329135
0.0002324258
0.0002319309
0.0002314408
0.0002309677
0.0002305248
0.0002301286
0.0002298035
0.0002295876
0.0002295549
0.0001333207
0.0001329911
0.0001325479
0.0001318108
0.0001300773
0.000233288
0.0002328058
0.0002323201
0.0002318458
0.0002313976
0.0002309912
0.0002306453
0.0002303821
0.0002302315
0.0002302325
0.0001337101
0.0001334386
0.0001331227
0.0001326982
0.000132003
5.503617e-05
0.0002336485
0.000233182
0.0002327136
0.0002322593
0.0002318342
0.0002314547
0.0002311389
0.0002309074
0.0002307827
0.00023079
0.0001340243
0.000133785
0.0001335278
0.0001332347
0.0001328505
5.587426e-05
5.499474e-05
0.0002339951
0.0002335535
0.00023311
0.0002326796
0.0002322769
0.000231917
0.0002316169
0.0002313954
0.0002312726
0.0002312673
0.0001342899
0.0001340659
0.0001338373
0.0001335977
0.0001333318
5.622564e-05
5.588225e-05
5.501532e-05
0.000234328
0.0002339191
0.0002335067
0.0002331039
0.0002327232
0.0002323775
0.000232082
0.0002318544
0.0002317148
0.0002316843
0.0001345189
0.0001343036
0.0001340875
0.0001338721
0.0001336507
5.641477e-05
5.622977e-05
5.590559e-05
5.509526e-05
0.0002346471
0.0002342772
0.0002339011
0.0002335287
0.0002331694
0.0002328333
0.0002325331
0.000232285
0.0002321116
0.0002320429
0.0001347152
0.0001345055
0.0001342975
0.0001340938
0.0001338931
5.653767e-05
5.640546e-05
5.623148e-05
5.593951e-05
5.522561e-05
0.0002349524
0.0002346259
0.0002342894
0.0002339489
0.0002336103
0.0002332799
0.0002329665
0.0002326833
0.0002324549
0.0002323283
0.0001348743
0.0001346715
0.0001344723
0.0001342798
0.000134093
5.663227e-05
5.65166e-05
5.638857e-05
5.622811e-05
5.597599e-05
3.615613e-05
0.000235244
0.0002349626
0.0002346664
0.000234358
0.000234039
0.0002337114
0.0002333781
0.0002330451
0.0002327292
0.0002324906
0.0001349806
0.0001347929
0.0001346115
0.0001344372
0.0001342687
5.671347e-05
5.66036e-05
5.648848e-05
5.636455e-05
5.621731e-05
3.655702e-05
3.627104e-05
0.0001349881
0.0001348663
0.0001347291
0.0001345857
0.0001344411
5.679348e-05
5.6686e-05
5.657542e-05
5.646078e-05
5.633992e-05
3.668541e-05
3.657304e-05
3.636815e-05
0.0001351986
0.0001350619
0.0001349219
0.000134781
0.0001346409
5.688193e-05
5.677696e-05
5.666881e-05
5.655791e-05
5.64434e-05
3.676399e-05
3.668202e-05
3.658258e-05
3.643239e-05
0.0001354168
0.0001352778
0.0001351369
0.0001349962
0.0001348563
5.69765e-05
5.68744e-05
5.676909e-05
5.66608e-05
5.654967e-05
3.683608e-05
3.676141e-05
3.668027e-05
3.658908e-05
3.647003e-05
0.0001356264
0.0001354904
0.0001353522
0.0001352136
0.000135075
5.707274e-05
5.697395e-05
5.687177e-05
5.676653e-05
5.665814e-05
3.690871e-05
3.683623e-05
3.676023e-05
3.667999e-05
3.659248e-05
0.0001358258
0.0001356953
0.0001355619
0.0001354273
0.0001352915
5.716847e-05
5.707319e-05
5.697446e-05