/*--------------------------------*- C++ -*----------------------------------*\
| =========                 |                                                 |
| \\      /  F ield         | OpenFOAM: The Open Source CFD Toolbox           |
|  \\    /   O peration     | Version:  2306                                  |
|   \\  /    A nd           | Website:  www.openfoam.com                      |
|    \\/     M anipulation  |                                                 |
\*---------------------------------------------------------------------------*/
FoamFile
{
    version     2.0;
    format      ascii;
    arch        "LSB;label=32;scalar=64";
    class       volScalarField;
    location    "0.6/air";
    object      N2;
}
// * * * * * * * * * * * * * * * * * * * * * * * * * * * * * * * * * * * * * //

dimensions      [0 0 0 0 0 0 0];

internalField   nonuniform List<scalar> 
16000
(
0.7703297
0.7703237
0.7715947
0.7703681
0.7703153
0.7715024
0.7703583
0.7739848
0.7717166
0.7704594
0.7703072
0.771382
0.7703466
0.7738741
0.7715935
0.770439
0.7764796
0.7741298
0.7720311
0.7706352
0.7703024
0.7712794
0.770336
0.7737227
0.7714401
0.770417
0.7763684
0.7739859
0.7718679
0.7705932
0.7789234
0.7766276
0.7744909
0.7726045
0.7709564
0.7703024
0.7712218
0.7703296
0.7735886
0.7713139
0.7704003
0.7762158
0.7737977
0.7716653
0.7705476
0.7788162
0.7764839
0.7743078
0.7724019
0.7708793
0.7812676
0.7790661
0.7769937
0.7751304
0.773494
0.7715256
0.8084982
0.7703072
0.7712218
0.7703296
0.7735114
0.7712446
0.7703902
0.7760799
0.7736351
0.7714989
0.7705142
0.7786691
0.7762953
0.7740715
0.7721456
0.7707919
0.7811657
0.7789278
0.7768132
0.7749119
0.773258
0.7714129
0.7835037
0.7814037
0.7794186
0.7776373
0.776099
0.7747422
0.7724554
0.8071934
0.810123
0.8087045
0.7703153
0.7712794
0.770336
0.7735114
0.7712446
0.7703902
0.7760015
0.7735428
0.7714087
0.7704967
0.7785382
0.7761315
0.7738694
0.7719319
0.7707248
0.781026
0.7787465
0.7765795
0.7746289
0.7729509
0.771267
0.7834068
0.7812725
0.7792458
0.7774255
0.7758511
0.7744685
0.7723013
0.7856379
0.7836329
0.7817399
0.7800364
0.7786024
0.777435
0.77641
0.7738979
0.8045571
0.808952
0.8074045
0.8107709
0.810312
0.8091164
0.7703237
0.771382
0.7703466
0.7735886
0.7713139
0.7704003
0.7760015
0.7735428
0.7714087
0.7704967
0.7784627
0.7760382
0.7737555
0.7718139
0.7706891
0.7809017
0.778589
0.7763785
0.7743866
0.7726901
0.7711437
0.7832741
0.7811003
0.7790223
0.7771507
0.7755271
0.7741134
0.77209
0.7855457
0.7835081
0.781576
0.779835
0.7783672
0.7771616
0.7760893
0.7736676
0.7876796
0.7857609
0.783952
0.7823285
0.7809594
0.779918
0.7791683
0.7785625
0.7760858
0.8004918
0.8065919
0.8047852
0.8096809
0.8091447
0.8078249
0.8112548
0.8109456
0.8106894
0.8097324
0.7703297
0.7715024
0.7703583
0.7737227
0.7714401
0.770417
0.7760799
0.7736351
0.7714989
0.7705142
0.7784627
0.7760382
0.7737555
0.7718139
0.7706891
0.78083
0.7784995
0.7762648
0.7742501
0.7725442
0.7710748
0.783156
0.780951
0.7788304
0.7769143
0.7752483
0.7738107
0.7719054
0.7854194
0.7833446
0.7813642
0.7795742
0.7780593
0.7768006
0.7756712
0.7733519
0.7875916
0.7856422
0.7837963
0.782138
0.7807375
0.7796645
0.7788643
0.7781635
0.7756549
0.7896384
0.787797
0.7860649
0.7845108
0.783207
0.7822126
0.781602
0.7813273
0.781285
0.7794515
0.7946148
0.802969
0.8007836
0.807485
0.8067978
0.8052336
0.8102335
0.8098588
0.8095284
0.8084513
0.8117815
0.8114182
0.8112945
0.8112543
0.8105513
0.7715947
0.7703681
0.7738741
0.7715935
0.770439
0.7762158
0.7737977
0.7716653
0.7705476
0.7785382
0.7761315
0.7738694
0.7719319
0.7707248
0.78083
0.7784995
0.7762648
0.7742501
0.7725442
0.7710748
0.783088
0.7808659
0.7787219
0.7767805
0.7750907
0.7736406
0.7718005
0.785307
0.7832028
0.7811824
0.7793503
0.7777932
0.776488
0.7753143
0.7730809
0.7874709
0.7854865
0.7835952
0.7818913
0.7804477
0.7793287
0.7784599
0.77765
0.7751344
0.7895541
0.7876836
0.7859166
0.7843298
0.7829975
0.7819749
0.7813251
0.780962
0.7807029
0.7784207
0.7915228
0.7897508
0.7880871
0.7865972
0.7853448
0.7843984
0.7838104
0.783671
0.7839639
0.7847498
0.7850374
0.797775
0.7952171
0.8041165
0.8032273
0.8013269
0.8081763
0.8076748
0.8072035
0.8058917
0.8108177
0.8103998
0.8102132
0.8101008
0.8092807
0.8124262
0.8119356
0.8117446
0.8118168
0.8120055
0.8117326
0.7739848
0.7717166
0.7704594
0.7763684
0.7739859
0.7718679
0.7705932
0.7786691
0.7762953
0.7740715
0.7721456
0.7707919
0.7809017
0.778589
0.7763785
0.7743866
0.7726901
0.7711437
0.783088
0.7808659
0.7787219
0.7767805
0.7750907
0.7736406
0.7718005
0.7852422
0.7831221
0.7810796
0.7792237
0.7776422
0.7763109
0.7751134
0.7729289
0.7873636
0.7853515
0.7834227
0.7816796
0.7801977
0.7790366
0.7781093
0.7772178
0.7747239
0.7894385
0.7875349
0.7857251
0.7840957
0.782724
0.7816609
0.7809549
0.7804835
0.7800139
0.7774985
0.7914418
0.7896421
0.7879454
0.7864247
0.7851457
0.7841742
0.7835513
0.7833393
0.7834339
0.783647
0.7820719
0.7933395
0.7916307
0.7900286
0.7885953
0.7873918
0.7864759
0.7859154
0.785767
0.7861666
0.7872242
0.7894442
0.7878267
0.7992924
0.7982935
0.7961148
0.8050219
0.804354
0.8037101
0.8020798
0.8088764
0.8083535
0.8080485
0.8077999
0.8067496
0.8115123
0.8109744
0.810731
0.8107419
0.8108592
0.8104729
0.813156
0.8125724
0.8122434
0.8122332
0.8125116
0.8130897
0.8119762
0.7764796
0.7741298
0.7720311
0.7706352
0.7788162
0.7764839
0.7743078
0.7724019
0.7708793
0.781026
0.7787465
0.7765795
0.7746289
0.7729509
0.771267
0.783156
0.780951
0.7788304
0.7769143
0.7752483
0.7738107
0.7719054
0.7852422
0.7831221
0.7810796
0.7792237
0.7776422
0.7763109
0.7751134
0.7729289
0.7873018
0.7852747
0.7833252
0.78156
0.780056
0.7788704
0.7779107
0.7769767
0.7745042
0.7893358
0.7874061
0.7855609
0.7838949
0.7824881
0.7813884
0.7806323
0.7800755
0.7794646
0.7768708
0.7913308
0.7894998
0.7877625
0.7862017
0.784886
0.7838782
0.7832062
0.7829029
0.7828005
0.7826197
0.7805014
0.7932615
0.7915263
0.7898929
0.7884304
0.7872019
0.7862625
0.7856711
0.7854564
0.7856798
0.7862077
0.7866969
0.78434
0.7950946
0.7934433
0.7918974
0.7905154
0.7893542
0.78847
0.7879165
0.7877712
0.7881222
0.7892248
0.7915674
0.791803
0.789997
0.8005072
0.7997696
0.7990715
0.7971593
0.8059004
0.8052433
0.8047978
0.8043821
0.8030107
0.8096718
0.8090433
0.8087024
0.8085982
0.8085788
0.8079662
0.8122854
0.8116609
0.8112866
0.8112252
0.8114425
0.8119503
0.8107186
0.813958
0.8132952
0.8128643
0.8127041
0.8128831
0.8135146
0.8133132
0.8122218
0.7789234
0.7766276
0.7744909
0.7726045
0.7709564
0.7811657
0.7789278
0.7768132
0.7749119
0.773258
0.7714129
0.7832741
0.7811003
0.7790223
0.7771507
0.7755271
0.7741134
0.77209
0.785307
0.7832028
0.7811824
0.7793503
0.7777932
0.776488
0.7753143
0.7730809
0.7873018
0.7852747
0.7833252
0.78156
0.780056
0.7788704
0.7779107
0.7769767
0.7745042
0.7892766
0.7873327
0.7854681
0.7837815
0.7823545
0.7812336
0.7804489
0.7798469
0.7791672
0.7765579
0.7912322
0.7893764
0.7876057
0.7860105
0.7846623
0.7836214
0.7829063
0.7825293
0.7822916
0.7818906
0.7795937
0.7931548
0.7913895
0.7897176
0.7882172
0.7869544
0.7859813
0.7853457
0.7850488
0.7850971
0.7852592
0.7851403
0.7824355
0.7950194
0.7933428
0.7917669
0.7903573
0.7891725
0.7882663
0.7876837
0.7874777
0.7876644
0.788279
0.7890177
0.7886127
0.7863506
0.7967934
0.7951948
0.7937
0.7923648
0.7912427
0.7903844
0.7898438
0.7896798
0.7900031
0.7910056
0.7932825
0.7937459
0.7936491
0.791774
0.8016423
0.8009519
0.8004846
0.7999836
0.7982793
0.8068506
0.8061087
0.805657
0.8054154
0.8052168
0.8042734
0.8105323
0.8098299
0.809372
0.8092156
0.8093162
0.8096854
0.8082169
0.813126
0.812427
0.811957
0.8117525
0.8118803
0.8124507
0.8121752
0.8109665
0.8148079
0.8140911
0.8135733
0.8133014
0.8133172
0.8138215
0.8137214
0.8135386
0.8124695
0.7812676
0.7790661
0.7769937
0.7751304
0.773494
0.7715256
0.7834068
0.7812725
0.7792458
0.7774255
0.7758511
0.7744685
0.7723013
0.7854194
0.7833446
0.7813642
0.7795742
0.7780593
0.7768006
0.7756712
0.7733519
0.7873636
0.7853515
0.7834227
0.7816796
0.7801977
0.7790366
0.7781093
0.7772178
0.7747239
0.7892766
0.7873327
0.7854681
0.7837815
0.7823545
0.7812336
0.7804489
0.7798469
0.7791672
0.7765579
0.7911753
0.7893062
0.7875171
0.7859025
0.7845356
0.7834755
0.782736
0.7823194
0.7820154
0.7815175
0.7791691
0.7930598
0.791271
0.7895674
0.7880345
0.7867412
0.7857376
0.7850629
0.7847008
0.7846284
0.7845843
0.7841944
0.7813626
0.7949165
0.7932112
0.7915985
0.790153
0.7889356
0.7879979
0.787374
0.7870926
0.787118
0.7873976
0.7875719
0.7867804
0.7842288
0.7967208
0.7950978
0.7935744
0.7922128
0.7910682
0.7901892
0.7896213
0.7893998
0.7895696
0.7901139
0.7908985
0.7907811
0.7903193
0.7881127
0.7984403
0.7968901
0.7954422
0.7941499
0.7930633
0.7922302
0.7916978
0.7915262
0.7918022
0.7927347
0.7948297
0.7953163
0.7954465
0.7951715
0.7932752
0.8028145
0.8020606
0.801618
0.8013216
0.8009695
0.7996282
0.8078451
0.8070478
0.806498
0.8062328
0.8061825
0.8063538
0.804533
0.8114504
0.8106828
0.8101414
0.8098554
0.8098861
0.8103365
0.8099135
0.8084695
0.8140102
0.8132613
0.812709
0.8123988
0.8123702
0.812823
0.8126586
0.812402
0.8112164
0.8156939
0.8149355
0.814357
0.8139897
0.8138829
0.8142023
0.814015
0.8139299
0.813766
0.8127193
0.7835037
0.7814037
0.7794186
0.7776373
0.776099
0.7747422
0.7724554
0.7855457
0.7835081
0.781576
0.779835
0.7783672
0.7771616
0.7760893
0.7736676
0.7874709
0.7854865
0.7835952
0.7818913
0.7804477
0.7793287
0.7784599
0.77765
0.7751344
0.7893358
0.7874061
0.7855609
0.7838949
0.7824881
0.7813884
0.7806323
0.7800755
0.7794646
0.7768708
0.7911753
0.7893062
0.7875171
0.7859025
0.7845356
0.7834755
0.782736
0.7823194
0.7820154
0.7815175
0.7791691
0.7930051
0.7912036
0.7894825
0.7879313
0.7866205
0.7855992
0.7849024
0.7845057
0.7843739
0.7842383
0.7837384
0.7808702
0.7948249
0.7930971
0.7914542
0.7899778
0.7887317
0.7877653
0.7871053
0.7867638
0.7866794
0.7867708
0.786692
0.785703
0.7830302
0.7966213
0.7949709
0.7934123
0.7920163
0.790841
0.789932
0.7893253
0.7890328
0.789052
0.7892841
0.7895482
0.7890759
0.7883049
0.7858676
0.7983699
0.7967965
0.795321
0.7940034
0.7928955
0.7920427
0.7914843
0.7912583
0.7913885
0.7918891
0.7925806
0.7925419
0.7923481
0.7918222
0.7896437
0.800039
0.7985338
0.7971292
0.7958761
0.7948224
0.7940122
0.79349
0.7933076
0.7935525
0.7944019
0.7963576
0.7967455
0.7969022
0.7968448
0.7964687
0.7947588
0.8040011
0.8032104
0.8026873
0.8023975
0.8022252
0.8021666
0.7999043
0.8088823
0.8080328
0.8074164
0.8070399
0.8069479
0.8072273
0.8065877
0.8047943
0.8124039
0.8115943
0.8109794
0.8105996
0.8104871
0.810839
0.8105467
0.8101433
0.8087241
0.8149273
0.8141399
0.8135308
0.8131298
0.8129845
0.813259
0.8130174
0.8128681
0.8126307
0.8114683
0.8166039
0.8158165
0.8151904
0.8147551
0.8145439
0.8147226
0.8143848
0.8142101
0.8141402
0.8139952
0.8130241
0.7856379
0.7836329
0.7817399
0.7800364
0.7786024
0.777435
0.77641
0.7738979
0.7875916
0.7856422
0.7837963
0.782138
0.7807375
0.7796645
0.7788643
0.7781635
0.7756549
0.7894385
0.7875349
0.7857251
0.7840957
0.782724
0.7816609
0.7809549
0.7804835
0.7800139
0.7774985
0.7912322
0.7893764
0.7876057
0.7860105
0.7846623
0.7836214
0.7829063
0.7825293
0.7822916
0.7818906
0.7795937
0.7930051
0.7912036
0.7894825
0.7879313
0.7866205
0.7855992
0.7849024
0.7845057
0.7843739
0.7842383
0.7837384
0.7808702
0.7947722
0.7930322
0.7913727
0.7898789
0.7886163
0.7876333
0.7869528
0.7865795
0.7864416
0.7864495
0.7862673
0.7851946
0.7824838
0.7965328
0.7948609
0.7932733
0.791848
0.7906453
0.7897093
0.7890685
0.7887198
0.7886367
0.788695
0.7887272
0.7880718
0.7871249
0.7845857
0.7982737
0.7966738
0.7951647
0.7938142
0.7926768
0.7917957
0.7912004
0.7909071
0.7908949
0.7911022
0.7913073
0.7909469
0.7904706
0.7897008
0.7873456
0.7999709
0.7984432
0.7970121
0.7957348
0.7946605
0.7938316
0.7932846
0.7930501
0.7931565
0.7935955
0.7942248
0.7941276
0.7940009
0.7937241
0.7931345
0.7911653
0.8015931
0.8001297
0.7987652
0.7975485
0.7965249
0.7957362
0.7952233
0.7950348
0.7952477
0.7960356
0.7978515
0.7981722
0.7982385
0.7982046
0.7980321
0.797763
0.79506
0.8052088
0.8043778
0.8038036
0.8034204
0.8032386
0.8033208
0.8024117
0.8001809
0.809942
0.8090615
0.8083836
0.8079296
0.807713
0.807922
0.8074422
0.806823
0.8050572
0.8133837
0.8125418
0.8118776
0.8114156
0.8111983
0.8113848
0.8110353
0.8107586
0.8103749
0.8089807
0.8158656
0.815052
0.8143983
0.8139331
0.8136878
0.8138275
0.8134423
0.8132133
0.8130795
0.8128612
0.8117757
0.8175306
0.816722
0.8160616
0.8155722
0.8152849
0.8153439
0.8148957
0.8145688
0.8144069
0.8143523
0.814275
0.8133361
0.7876796
0.7857609
0.783952
0.7823285
0.7809594
0.779918
0.7791683
0.7785625
0.7760858
0.7895541
0.7876836
0.7859166
0.7843298
0.7829975
0.7819749
0.7813251
0.780962
0.7807029
0.7784207
0.7913308
0.7894998
0.7877625
0.7862017
0.784886
0.7838782
0.7832062
0.7829029
0.7828005
0.7826197
0.7805014
0.7930598
0.791271
0.7895674
0.7880345
0.7867412
0.7857376
0.7850629
0.7847008
0.7846284
0.7845843
0.7841944
0.7813626
0.7947722
0.7930322
0.7913727
0.7898789
0.7886163
0.7876333
0.7869528
0.7865795
0.7864416
0.7864495
0.7862673
0.7851946
0.7824838
0.7964818
0.7947983
0.7931948
0.7917529
0.7905346
0.789583
0.7889229
0.7885445
0.7884115
0.7883935
0.7883311
0.7875974
0.7865735
0.7840019
0.7981881
0.7965675
0.7950306
0.7936521
0.7924886
0.7915818
0.7909541
0.7906077
0.7904991
0.7905435
0.7905337
0.7900082
0.7893691
0.7884505
0.7860223
0.7998776
0.7983245
0.7968609
0.7955522
0.7944498
0.7935938
0.7930116
0.792713
0.792684
0.7928451
0.7930168
0.7926228
0.792243
0.7917439
0.7909618
0.7888707
0.801527
0.8000418
0.7986518
0.7974118
0.7963686
0.795562
0.7950253
0.794787
0.7948673
0.7952641
0.7958189
0.7956894
0.7955003
0.7952806
0.7949211
0.794445
0.7914742
0.8031057
0.8016811
0.8003539
0.7991709
0.7981754
0.7974067
0.7969031
0.7967092
0.7968977
0.7976269
0.7993317
0.799579
0.7995858
0.7994637
0.799309
0.7992119
0.7980259
0.7953592
0.8064206
0.8055685
0.8049421
0.8044975
0.8042113
0.8042578
0.8035451
0.8026573
0.8004579
0.8110179
0.8101138
0.8093966
0.8088719
0.8085671
0.8086296
0.8081223
0.8076585
0.8070598
0.8053216
0.814379
0.8135162
0.8128134
0.8122945
0.8119857
0.8120492
0.8115698
0.8112332
0.8109722
0.8106083
0.8092935
0.8168183
0.8159857
0.8153003
0.814784
0.8144665
0.8144908
0.8140013
0.813627
0.8134109
0.8132925
0.8131426
0.8120903
0.8184684
0.8176446
0.816958
0.8164285
0.8160801
0.8160498
0.8155088
0.8150703
0.8147544
0.8146053
0.814611
0.8145611
0.8135734
0.7896384
0.787797
0.7860649
0.7845108
0.783207
0.7822126
0.781602
0.7813273
0.781285
0.7794515
0.7914418
0.7896421
0.7879454
0.7864247
0.7851457
0.7841742
0.7835513
0.7833393
0.7834339
0.783647
0.7820719
0.7931548
0.7913895
0.7897176
0.7882172
0.7869544
0.7859813
0.7853457
0.7850488
0.7850971
0.7852592
0.7851403
0.7824355
0.7948249
0.7930971
0.7914542
0.7899778
0.7887317
0.7877653
0.7871053
0.7867638
0.7866794
0.7867708
0.786692
0.785703
0.7830302
0.7964818
0.7947983
0.7931948
0.7917529
0.7905346
0.789583
0.7889229
0.7885445
0.7884115
0.7883935
0.7883311
0.7875974
0.7865735
0.7840019
0.7981387
0.796507
0.7949549
0.7935605
0.7923822
0.7914604
0.7908145
0.79044
0.7902846
0.7902575
0.7901608
0.789565
0.7888537
0.7878679
0.7854192
0.7997946
0.7982216
0.7967314
0.7953957
0.7942684
0.7933878
0.7927748
0.7924256
0.7923051
0.7923126
0.792283
0.7917376
0.791212
0.7905748
0.789673
0.7875458
0.8014365
0.7999268
0.7985055
0.7972352
0.7961651
0.7953325
0.7947622
0.7944626
0.7944136
0.794546
0.7946673
0.7942617
0.7938412
0.7934251
0.7928898
0.7922632
0.7891808
0.8030414
0.8015958
0.8002439
0.7990385
0.7980242
0.7972383
0.7967119
0.7964702
0.7965317
0.7968866
0.797388
0.7972129
0.7969887
0.7967035
0.7963923
0.7961104
0.7947111
0.7917811
0.8045793
0.8031911
0.8018986
0.8007471
0.7997777
0.7990278
0.7985331
0.7983354
0.798502
0.7991833
0.8007863
0.800982
0.8009243
0.8007455
0.8005018
0.8004045
0.7994515
0.7982872
0.7956566
0.807634
0.8067652
0.8061073
0.8056022
0.805246
0.8051693
0.8044665
0.8037698
0.8029033
0.8007353
0.8121006
0.8111829
0.8104348
0.8098631
0.8094786
0.8094352
0.8088182
0.8083239
0.8078761
0.8072981
0.8056435
0.8153839
0.8145065
0.8137771
0.8132129
0.8128393
0.8127959
0.8122245
0.8117562
0.8114326
0.8111873
0.8108929
0.8096137
0.8177799
0.8169341
0.8162249
0.815671
0.8152953
0.8152341
0.8146563
0.8141765
0.8138133
0.8136101
0.8135525
0.8134303
0.8123296
0.819413
0.8185786
0.8178724
0.8173114
0.8169167
0.8168136
0.8162075
0.8156751
0.8152463
0.8149416
0.8148474
0.8148756
0.8147786
0.8137345
0.7915228
0.7897508
0.7880871
0.7865972
0.7853448
0.7843984
0.7838104
0.783671
0.7839639
0.7847498
0.7850374
0.7932615
0.7915263
0.7898929
0.7884304
0.7872019
0.7862625
0.7856711
0.7854564
0.7856798
0.7862077
0.7866969
0.78434
0.7949165
0.7932112
0.7915985
0.790153
0.7889356
0.7879979
0.787374
0.7870926
0.787118
0.7873976
0.7875719
0.7867804
0.7842288
0.7965328
0.7948609
0.7932733
0.791848
0.7906453
0.7897093
0.7890685
0.7887198
0.7886367
0.788695
0.7887272
0.7880718
0.7871249
0.7845857
0.7981387
0.796507
0.7949549
0.7935605
0.7923822
0.7914604
0.7908145
0.79044
0.7902846
0.7902575
0.7901608
0.789565
0.7888537
0.7878679
0.7854192
0.7997468
0.7981631
0.7966583
0.7953074
0.7941658
0.793271
0.7926406
0.7922647
0.7920998
0.79204
0.7919292
0.7913198
0.7907296
0.7900294
0.7890727
0.7869419
0.801356
0.7998271
0.7983801
0.797084
0.79599
0.7951339
0.794534
0.7941861
0.7940499
0.7940363
0.7939677
0.7934219
0.7928683
0.7923297
0.7916825
0.7909653
0.787856
0.8029535
0.8014842
0.8001021
0.7988676
0.7978274
0.7970165
0.7964578
0.7961573
0.796095
0.7961973
0.7962864
0.7958519
0.7954145
0.7949517
0.7944875
0.7940663
0.7925278
0.7894894
0.8045168
0.8031083
0.8017919
0.8006187
0.7996312
0.7988648
0.7983481
0.7981045
0.798149
0.7984712
0.7989221
0.7987196
0.7984492
0.7981271
0.7977477
0.7974947
0.7963519
0.7949755
0.792086
0.8060167
0.8046624
0.8034025
0.8022802
0.8013353
0.800603
0.800117
0.7999162
0.8000643
0.8007026
0.8022192
0.802368
0.802267
0.8020276
0.8017277
0.8015306
0.8006269
0.7996895
0.7985469
0.7959521
0.8088416
0.8079649
0.8072814
0.8067377
0.8063142
0.8061526
0.8053655
0.8046755
0.8039948
0.8031498
0.8010714
0.8131854
0.8122594
0.8114912
0.8108817
0.8104425
0.8103048
0.8096138
0.8090079
0.8085267
0.808095
0.8075882
0.8059731
0.8163935
0.8155069
0.8147578
0.814161
0.8137351
0.8136136
0.8129628
0.8124012
0.8119441
0.8116336
0.8114498
0.8111841
0.8098574
0.8187466
0.8178918
0.8171649
0.8165818
0.8161624
0.8160313
0.8153923
0.8148232
0.8143531
0.8140011
0.8138532
0.8138182
0.8136491
0.8124921
0.8203613
0.8195197
0.8187987
0.8182134
0.8177817
0.8176217
0.8169647
0.8163665
0.8158429
0.8154238
0.8151699
0.8150948
0.8150766
0.8149261
0.8138168
0.7946148
0.7933395
0.7916307
0.7900286
0.7885953
0.7873918
0.7864759
0.7859154
0.785767
0.7861666
0.7872242
0.7894442
0.7878267
0.7950194
0.7933428
0.7917669
0.7903573
0.7891725
0.7882663
0.7876837
0.7874777
0.7876644
0.788279
0.7890177
0.7886127
0.7863506
0.7966213
0.7949709
0.7934123
0.7920163
0.790841
0.789932
0.7893253
0.7890328
0.789052
0.7892841
0.7895482
0.7890759
0.7883049
0.7858676
0.7981881
0.7965675
0.7950306
0.7936521
0.7924886
0.7915818
0.7909541
0.7906077
0.7904991
0.7905435
0.7905337
0.7900082
0.7893691
0.7884505
0.7860223
0.7997468
0.7981631
0.7966583
0.7953074
0.7941658
0.793271
0.7926406
0.7922647
0.7920998
0.79204
0.7919292
0.7913198
0.7907296
0.7900294
0.7890727
0.7869419
0.8013096
0.7997704
0.7983093
0.7969986
0.7958909
0.7950212
0.7944047
0.7940313
0.7938529
0.7937755
0.7936305
0.7930255
0.7924134
0.7918187
0.7911195
0.7903607
0.7872521
0.8028753
0.8013874
0.7999806
0.7987211
0.797658
0.7968246
0.7962375
0.7958907
0.795745
0.7957081
0.795617
0.7950513
0.7944914
0.7939176
0.7933554
0.7928477
0.7912284
0.7881651
0.8044313
0.8029998
0.8016543
0.800453
0.7994405
0.7986501
0.7981024
0.7978022
0.7977279
0.7978081
0.7978651
0.7974179
0.7969487
0.7964648
0.7959489
0.7955762
0.7943055
0.7927911
0.7897966
0.8059558
0.8045818
0.8032988
0.8021556
0.8011932
0.8004449
0.7999378
0.7996927
0.7997232
0.8000162
0.8004269
0.8001982
0.7999004
0.7995322
0.7991148
0.798782
0.7977184
0.7965917
0.7952383
0.792389
0.8074198
0.8060976
0.804868
0.8037732
0.8028511
0.8021354
0.8016578
0.8014548
0.8015864
0.8021872
0.8036264
0.803739
0.8035993
0.8033206
0.8029619
0.8027007
0.8017395
0.800848
0.7999261
0.7988051
0.7963075
0.8100408
0.8091602
0.8084607
0.8078852
0.8074176
0.8071765
0.8063382
0.8055619
0.8048849
0.8042203
0.8034486
0.8014157
0.8142686
0.8133386
0.8125562
0.8119205
0.8114369
0.8112317
0.8104747
0.8097935
0.8091988
0.8087308
0.8083615
0.807885
0.806224
0.8174045
0.8165124
0.8157493
0.8151274
0.8146627
0.8144772
0.8137731
0.8131311
0.8125793
0.8121334
0.8118787
0.8117181
0.8114055
0.8100229
0.8197153
0.8188549
0.8181149
0.8175093
0.8170551
0.8168697
0.8161829
0.8155519
0.8149915
0.8145313
0.8142303
0.8141016
0.8140202
0.8137975
0.8125752
0.8213109
0.8204647
0.8197328
0.8191283
0.8186672
0.8184607
0.817767
0.8171172
0.8165269
0.816012
0.8156405
0.8154033
0.8152827
0.8152128
0.8150014
0.8004918
0.797775
0.7952171
0.7950946
0.7934433
0.7918974
0.7905154
0.7893542
0.78847
0.7879165
0.7877712
0.7881222
0.7892248
0.7915674
0.791803
0.789997
0.7967208
0.7950978
0.7935744
0.7922128
0.7910682
0.7901892
0.7896213
0.7893998
0.7895696
0.7901139
0.7908985
0.7907811
0.7903193
0.7881127
0.7982737
0.7966738
0.7951647
0.7938142
0.7926768
0.7917957
0.7912004
0.7909071
0.7908949
0.7911022
0.7913073
0.7909469
0.7904706
0.7897008
0.7873456
0.7997946
0.7982216
0.7967314
0.7953957
0.7942684
0.7933878
0.7927748
0.7924256
0.7923051
0.7923126
0.792283
0.7917376
0.791212
0.7905748
0.789673
0.7875458
0.8013096
0.7997704
0.7983093
0.7969986
0.7958909
0.7950212
0.7944047
0.7940313
0.7938529
0.7937755
0.7936305
0.7930255
0.7924134
0.7918187
0.7911195
0.7903607
0.7872521
0.8028302
0.8013324
0.799912
0.7986385
0.7975622
0.7967157
0.7961127
0.7957414
0.7955554
0.7954577
0.7952943
0.7946734
0.7940596
0.7934354
0.7928274
0.7922791
0.790623
0.7875614
0.8043552
0.8029058
0.8015364
0.800311
0.7992765
0.7984644
0.7978894
0.7975447
0.7973903
0.7973374
0.7972228
0.7966519
0.7960686
0.7954835
0.7948798
0.7944324
0.7930849
0.7914905
0.7884731
0.8058725
0.8044763
0.803165
0.8019947
0.8010082
0.8002369
0.7996998
0.7994003
0.7993163
0.7993769
0.7994104
0.7989493
0.7984652
0.7979476
0.7974077
0.7969696
0.7957975
0.7945434
0.7930532
0.7901023
0.8073605
0.8060191
0.8047671
0.8036521
0.8027131
0.801982
0.8014839
0.8012383
0.8012564
0.8015243
0.8018995
0.8016529
0.8013296
0.8009345
0.8004715
0.8000924
0.7989919
0.7979407
0.7968299
0.7954994
0.7927532
0.8087911
0.8074987
0.8062977
0.8052286
0.804328
0.8036278
0.8031583
0.8029537
0.803071
0.803638
0.8050083
0.8050899
0.8049218
0.8046088
0.8042126
0.8038869
0.8028982
0.801947
0.8010676
0.8001612
0.7991157
0.7966713
0.8112293
0.8103481
0.8096373
0.8090406
0.8085364
0.8082409
0.8073531
0.8065241
0.8057588
0.8050947
0.8044936
0.8037543
0.8016777
0.8153477
0.8144166
0.8136249
0.8129695
0.8124539
0.8121931
0.8113941
0.8106457
0.8099743
0.8093909
0.8089793
0.8086341
0.8081107
0.8063944
0.8184144
0.8175196
0.8167466
0.8161059
0.8156106
0.8153758
0.8146301
0.8139338
0.8133006
0.8127587
0.8123643
0.8121292
0.811922
0.8115557
0.8101075
0.8206838
0.8198203
0.8190708
0.8184478
0.817966
0.8177363
0.8170154
0.8163359
0.8157127
0.8151612
0.8147486
0.8144645
0.8142903
0.814157
0.8138732
0.8222599
0.8214112
0.8206713
0.8200519
0.819567
0.8193224
0.8186007
0.8179135
0.817271
0.8166886
0.8162184
0.8158617
0.8155804
0.81541
0.8152823
0.8045571
0.802969
0.8007836
0.7992924
0.7982935
0.7961148
0.7967934
0.7951948
0.7937
0.7923648
0.7912427
0.7903844
0.7898438
0.7896798
0.7900031
0.7910056
0.7932825
0.7937459
0.7936491
0.791774
0.7983699
0.7967965
0.795321
0.7940034
0.7928955
0.7920427
0.7914843
0.7912583
0.7913885
0.7918891
0.7925806
0.7925419
0.7923481
0.7918222
0.7896437
0.7998776
0.7983245
0.7968609
0.7955522
0.7944498
0.7935938
0.7930116
0.792713
0.792684
0.7928451
0.7930168
0.7926228
0.792243
0.7917439
0.7909618
0.7888707
0.801356
0.7998271
0.7983801
0.797084
0.79599
0.7951339
0.794534
0.7941861
0.7940499
0.7940363
0.7939677
0.7934219
0.7928683
0.7923297
0.7916825
0.7909653
0.787856
0.8028302
0.8013324
0.799912
0.7986385
0.7975622
0.7967157
0.7961127
0.7957414
0.7955554
0.7954577
0.7952943
0.7946734
0.7940596
0.7934354
0.7928274
0.7922791
0.790623
0.7875614
0.8043114
0.8028523
0.8014698
0.8002309
0.7991837
0.798359
0.7977687
0.7974005
0.7972075
0.7970965
0.7969132
0.7962903
0.7956569
0.7950258
0.7943813
0.7938987
0.7925153
0.7908845
0.7878699
0.8057984
0.8043849
0.8030504
0.8018568
0.8008491
0.8000568
0.7994936
0.7991511
0.7989903
0.7989231
0.7987926
0.7982144
0.7976233
0.797012
0.796393
0.7958891
0.7946516
0.7933211
0.7917516
0.7887801
0.8072793
0.8059164
0.804637
0.8034957
0.8025334
0.8017801
0.8012531
0.8009549
0.8008627
0.8009069
0.8009198
0.800452
0.7999528
0.799419
0.7988441
0.7983722
0.797177
0.7960177
0.7947801
0.7933139
0.7904705
0.8087332
0.8074222
0.8061995
0.8051107
0.8041938
0.8034787
0.8029895
0.8027436
0.8027511
0.8029969
0.8033414
0.8030801
0.8027398
0.8023203
0.8018312
0.8014007
0.8002909
0.7992004
0.7981614
0.7970666
0.7958133
0.7931262
0.810132
0.808868
0.8076937
0.8066489
0.8057683
0.8050829
0.804621
0.8044154
0.8045198
0.8050566
0.8063648
0.8064203
0.8062287
0.8058914
0.8054632
0.8050956
0.8040747
0.8030945
0.8021532
0.8012858
0.800444
0.7994335
0.7969482
0.8124055
0.8115261
0.8108083
0.8101955
0.809666
0.809325
0.8084094
0.8075299
0.8067104
0.8059559
0.8053489
0.8047732
0.8039868
0.8018558
0.8164205
0.8154908
0.8146932
0.8140235
0.8134829
0.8131802
0.8123486
0.8115574
0.8108178
0.8101562
0.8096247
0.8092333
0.8088413
0.8082638
0.8064816
0.8194212
0.8185259
0.8177463
0.8170912
0.816572
0.8162972
0.8155227
0.8147841
0.8140959
0.8134715
0.8129776
0.8126002
0.8123194
0.8120602
0.8116324
0.8216506
0.8207858
0.8200296
0.8193931
0.8188892
0.8186233
0.8178767
0.8171624
0.8164901
0.8158749
0.8153682
0.8149706
0.8146422
0.8144181
0.8142269
0.8232072
0.8223574
0.8216117
0.8209806
0.8204766
0.8202003
0.8194575
0.8187418
0.8180613
0.817426
0.8168859
0.8164292
0.8160297
0.8157003
0.8154749
0.8071934
0.8065919
0.8047852
0.8041165
0.8032273
0.8013269
0.8005072
0.7997696
0.7990715
0.7971593
0.7984403
0.7968901
0.7954422
0.7941499
0.7930633
0.7922302
0.7916978
0.7915262
0.7918022
0.7927347
0.7948297
0.7953163
0.7954465
0.7951715
0.7932752
0.7999709
0.7984432
0.7970121
0.7957348
0.7946605
0.7938316
0.7932846
0.7930501
0.7931565
0.7935955
0.7942248
0.7941276
0.7940009
0.7937241
0.7931345
0.7911653
0.8014365
0.7999268
0.7985055
0.7972352
0.7961651
0.7953325
0.7947622
0.7944626
0.7944136
0.794546
0.7946673
0.7942617
0.7938412
0.7934251
0.7928898
0.7922632
0.7891808
0.8028753
0.8013874
0.7999806
0.7987211
0.797658
0.7968246
0.7962375
0.7958907
0.795745
0.7957081
0.795617
0.7950513
0.7944914
0.7939176
0.7933554
0.7928477
0.7912284
0.7881651
0.8043114
0.8028523
0.8014698
0.8002309
0.7991837
0.798359
0.7977687
0.7974005
0.7972075
0.7970965
0.7969132
0.7962903
0.7956569
0.7950258
0.7943813
0.7938987
0.7925153
0.7908845
0.7878699
0.8057557
0.8043329
0.8029857
0.801779
0.8007591
0.7999547
0.7993767
0.7990117
0.7988137
0.7986909
0.7984947
0.7978675
0.7972295
0.7965757
0.7959198
0.7953849
0.7941169
0.7927506
0.7911451
0.7881774
0.8072071
0.8058273
0.8045255
0.8033617
0.8023789
0.8016053
0.8010531
0.8007135
0.8005473
0.8004686
0.8003244
0.7997452
0.799145
0.798524
0.7978767
0.7973465
0.7960945
0.7948699
0.7935563
0.7920117
0.7891503
0.808654
0.807322
0.8060728
0.8049585
0.8040191
0.8032825
0.8027653
0.8024687
0.8023697
0.8023996
0.8023955
0.8019227
0.8014159
0.8008665
0.8002747
0.7997607
0.7985683
0.7973834
0.7962366
0.7950156
0.7936279
0.7908475
0.8100754
0.8087934
0.8075979
0.8065341
0.8056377
0.8049378
0.8044569
0.8042113
0.8042095
0.8044356
0.804753
0.8044803
0.8041265
0.8036913
0.8031791
0.802718
0.8015893
0.8004879
0.7994074
0.7983807
0.7973511
0.7961345
0.7934102
0.811445
0.8102071
0.8090583
0.808036
0.8071745
0.8065029
0.8060484
0.805842
0.8059349
0.8064444
0.8076963
0.8077294
0.807519
0.8071622
0.806712
0.8063087
0.8052748
0.8042613
0.8032895
0.8023581
0.8015483
0.8007331
0.7996751
0.7971364
0.8135686
0.8126928
0.8119708
0.8113467
0.8107976
0.8104233
0.8094864
0.8085782
0.807707
0.8068969
0.8061949
0.8056089
0.8049856
0.8041446
0.801947
0.817486
0.8165593
0.8157586
0.8150784
0.8145188
0.8141822
0.8133296
0.8125051
0.8117217
0.8109909
0.8103777
0.8098637
0.8094263
0.8089817
0.8083421
0.8204237
0.8195294
0.8187456
0.8180799
0.8175417
0.8172344
0.8164386
0.8156707
0.8149394
0.8142591
0.8136799
0.8132011
0.8127794
0.8124483
0.8121307
0.8226145
0.8217497
0.8209889
0.820342
0.8198204
0.8195244
0.8187587
0.8180182
0.8173106
0.8166456
0.8160728
0.8155796
0.8151391
0.8147626
0.8144833
0.8241518
0.8233021
0.8225523
0.821912
0.8213923
0.8210896
0.8203309
0.8195937
0.8188841
0.8182103
0.8176152
0.8170874
0.8165891
0.8161433
0.8157614
0.8084982
0.808952
0.8074045
0.807485
0.8067978
0.8052336
0.8050219
0.804354
0.8037101
0.8020798
0.8016423
0.8009519
0.8004846
0.7999836
0.7982793
0.800039
0.7985338
0.7971292
0.7958761
0.7948224
0.7940122
0.79349
0.7933076
0.7935525
0.7944019
0.7963576
0.7967455
0.7969022
0.7968448
0.7964687
0.7947588
0.801527
0.8000418
0.7986518
0.7974118
0.7963686
0.795562
0.7950253
0.794787
0.7948673
0.7952641
0.7958189
0.7956894
0.7955003
0.7952806
0.7949211
0.794445
0.7914742
0.8029535
0.8014842
0.8001021
0.7988676
0.7978274
0.7970165
0.7964578
0.7961573
0.796095
0.7961973
0.7962864
0.7958519
0.7954145
0.7949517
0.7944875
0.7940663
0.7925278
0.7894894
0.8043552
0.8029058
0.8015364
0.800311
0.7992765
0.7984644
0.7978894
0.7975447
0.7973903
0.7973374
0.7972228
0.7966519
0.7960686
0.7954835
0.7948798
0.7944324
0.7930849
0.7914905
0.7884731
0.8057557
0.8043329
0.8029857
0.801779
0.8007591
0.7999547
0.7993767
0.7990117
0.7988137
0.7986909
0.7984947
0.7978675
0.7972295
0.7965757
0.7959198
0.7953849
0.7941169
0.7927506
0.7911451
0.7881774
0.8071655
0.8057767
0.8044625
0.8032861
0.8022915
0.8015063
0.8009398
0.8005784
0.8003764
0.8002444
0.8000372
0.7994115
0.7987672
0.7981066
0.7974255
0.796868
0.7955893
0.7943342
0.7929851
0.7914049
0.7885485
0.8085835
0.8072352
0.8059642
0.8048282
0.8038688
0.8031128