/*--------------------------------*- C++ -*----------------------------------*\
| =========                 |                                                 |
| \\      /  F ield         | OpenFOAM: The Open Source CFD Toolbox           |
|  \\    /   O peration     | Version:  2306                                  |
|   \\  /    A nd           | Website:  www.openfoam.com                      |
|    \\/     M anipulation  |                                                 |
\*---------------------------------------------------------------------------*/
FoamFile
{
    version     2.0;
    format      ascii;
    arch        "LSB;label=32;scalar=64";
    class       volScalarField;
    location    "0.6/air";
    object      nernst;
}
// * * * * * * * * * * * * * * * * * * * * * * * * * * * * * * * * * * * * * //

dimensions      [1 2 -3 0 0 -1 0];

internalField   nonuniform List<scalar> 
16000
(
-0.7041824
-0.6964555
-0.7133438
-0.6963268
-0.6921798
-0.7114799
-0.6776047
-0.7158445
-0.7114713
-0.6919469
-0.6897485
-0.7098654
-0.6659851
-0.7151111
-0.7059902
-0.6658089
-0.7179243
-0.7151707
-0.7098679
-0.6893987
-0.6886194
-0.708679
-0.6590339
-0.7144493
-0.7011903
-0.6484261
-0.7175811
-0.713041
-0.701159
-0.6585637
-0.7197877
-0.7176643
-0.7145891
-0.7087029
-0.688121
-0.6886194
-0.7080509
-0.6557438
-0.7139421
-0.6976409
-0.637574
-0.7172767
-0.7110966
-0.6934097
-0.6371682
-0.7195944
-0.7167154
-0.7111714
-0.6975372
-0.6548103
-0.7214977
-0.7196815
-0.7174626
-0.7141883
-0.7081097
-0.6879271
-0.7177093
-0.6897485
-0.7080509
-0.6557438
-0.7136662
-0.6957562
-0.6323139
-0.717045
-0.709596
-0.6876115
-0.6234224
-0.7194279
-0.7158586
-0.7080043
-0.6874779
-0.6311795
-0.7213665
-0.7191823
-0.7159702
-0.7097622
-0.6955397
-0.6541529
-0.7230839
-0.7214503
-0.7196209
-0.717365
-0.7140523
-0.7081746
-0.6888132
-0.7174901
-0.7196827
-0.71882
-0.6921798
-0.708679
-0.6590339
-0.7136662
-0.6957562
-0.6323139
-0.7169192
-0.7087762
-0.6845136
-0.6166492
-0.7193038
-0.7152004
-0.7055325
-0.6798736
-0.6157576
-0.7212563
-0.718743
-0.7145993
-0.7056109
-0.6841335
-0.6300807
-0.7229799
-0.7211329
-0.7188626
-0.715464
-0.7090638
-0.6954212
-0.6565752
-0.7245658
-0.7230582
-0.7214424
-0.7196348
-0.7174131
-0.7142401
-0.7089311
-0.6909439
-0.7170422
-0.7195193
-0.7185797
-0.7214958
-0.7207013
-0.7199659
-0.6964555
-0.7098654
-0.6659851
-0.7139421
-0.6976409
-0.637574
-0.7169192
-0.7087762
-0.6845136
-0.6166492
-0.7192371
-0.7148412
-0.7041738
-0.6757857
-0.6080888
-0.7211757
-0.7184132
-0.7135325
-0.7023404
-0.6754561
-0.6143151
-0.7228939
-0.7208612
-0.718183
-0.7136929
-0.7043473
-0.6838221
-0.6338723
-0.7244756
-0.7228173
-0.7209778
-0.7186991
-0.7153128
-0.7092484
-0.6972602
-0.6624136
-0.7259568
-0.7245483
-0.7230687
-0.7214955
-0.7197461
-0.7176375
-0.7147765
-0.7103661
-0.694803
-0.7163193
-0.7191949
-0.7180743
-0.7213515
-0.7205385
-0.7197086
-0.7231446
-0.7223936
-0.7217461
-0.7211505
-0.7041824
-0.7114799
-0.6776047
-0.7144493
-0.7011903
-0.6484261
-0.717045
-0.709596
-0.6876115
-0.6234224
-0.7192371
-0.7148412
-0.7041738
-0.6757857
-0.6080888
-0.7211331
-0.7182356
-0.7129458
-0.700533
-0.6707724
-0.6064592
-0.7228317
-0.7206623
-0.7176656
-0.7122991
-0.7006076
-0.6749804
-0.6191249
-0.7244013
-0.7226152
-0.7205729
-0.7178473
-0.7133342
-0.7045056
-0.6866621
-0.6428992
-0.7258747
-0.7243435
-0.7227253
-0.7209424
-0.7187493
-0.7156007
-0.7103719
-0.7009607
-0.6725793
-0.7272671
-0.7259422
-0.7245647
-0.7231333
-0.721625
-0.7199726
-0.7180559
-0.7156605
-0.7124545
-0.7017499
-0.7150263
-0.7187137
-0.7172104
-0.721067
-0.7202168
-0.7191613
-0.7230115
-0.7222555
-0.7215836
-0.7208818
-0.7246711
-0.7239308
-0.7233135
-0.7228176
-0.722375
-0.7133438
-0.6963268
-0.7151111
-0.7059902
-0.6658089
-0.7172767
-0.7110966
-0.6934097
-0.6371682
-0.7193038
-0.7152004
-0.7055325
-0.6798736
-0.6157576
-0.7211331
-0.7182356
-0.7129458
-0.700533
-0.6707724
-0.6064592
-0.7227991
-0.720557
-0.7173849
-0.7115271
-0.6985331
-0.670202
-0.6118116
-0.7243479
-0.7224701
-0.720273
-0.7171906
-0.7117631
-0.7007312
-0.6785978
-0.6304633
-0.7258071
-0.7241734
-0.7224327
-0.7204532
-0.7178289
-0.7136615
-0.7061638
-0.6924346
-0.658045
-0.7271909
-0.7257573
-0.7242766
-0.7227355
-0.7210612
-0.719057
-0.7163642
-0.7123787
-0.706275
-0.6892155
-0.728505
-0.7272538
-0.72596
-0.7246311
-0.7232641
-0.721843
-0.720328
-0.7186814
-0.716909
-0.7152924
-0.709953
-0.7181066
-0.7156076
-0.7206544
-0.7197493
-0.7182177
-0.7227493
-0.7219886
-0.7212634
-0.7203098
-0.7245456
-0.7238052
-0.7231805
-0.722655
-0.7221007
-0.7261064
-0.7253616
-0.724737
-0.7242552
-0.723915
-0.7231333
-0.7158445
-0.7114713
-0.6919469
-0.7175811
-0.713041
-0.701159
-0.6585637
-0.7194279
-0.7158586
-0.7080043
-0.6874779
-0.6311795
-0.7211757
-0.7184132
-0.7135325
-0.7023404
-0.6754561
-0.6143151
-0.7227991
-0.720557
-0.7173849
-0.7115271
-0.6985331
-0.670202
-0.6118116
-0.72432
-0.7223944
-0.7201131
-0.7168315
-0.7108882
-0.6986332
-0.6742441
-0.6243639
-0.7257586
-0.7240526
-0.7222209
-0.7200863
-0.7171107
-0.7121092
-0.7028049
-0.685966
-0.6490184
-0.7271278
-0.7256042
-0.7240341
-0.7223921
-0.7205544
-0.7181951
-0.7147208
-0.7091817
-0.7005931
-0.6812621
-0.7284334
-0.7270822
-0.725701
-0.7243018
-0.7228723
-0.721361
-0.7196489
-0.7175982
-0.7151451
-0.7128554
-0.7049278
-0.7296772
-0.7284923
-0.7272714
-0.7260247
-0.7247578
-0.7234707
-0.7221614
-0.7208314
-0.7195633
-0.718722
-0.7179434
-0.7116776
-0.7201954
-0.7191928
-0.7165589
-0.7223713
-0.7216241
-0.7208019
-0.719338
-0.7242985
-0.7235641
-0.7229267
-0.7223345
-0.7215199
-0.7259869
-0.7252439
-0.7246178
-0.7241258
-0.7237521
-0.722859
-0.7274606
-0.7267166
-0.7260709
-0.7255627
-0.7252174
-0.7245915
-0.7232311
-0.7179243
-0.7151707
-0.7098679
-0.6893987
-0.7195944
-0.7167154
-0.7111714
-0.6975372
-0.6548103
-0.7212563
-0.718743
-0.7145993
-0.7056109
-0.6841335
-0.6300807
-0.7228317
-0.7206623
-0.7176656
-0.7122991
-0.7006076
-0.6749804
-0.6191249
-0.72432
-0.7223944
-0.7201131
-0.7168315
-0.7108882
-0.6986332
-0.6742441
-0.6243639
-0.7257332
-0.7239901
-0.7221099
-0.7198892
-0.7167151
-0.711241
-0.7009354
-0.68248
-0.6446512
-0.7270825
-0.725496
-0.723861
-0.7221411
-0.720169
-0.7175125
-0.7133883
-0.706606
-0.6962641
-0.6763474
-0.7283739
-0.7269401
-0.7254841
-0.7240218
-0.7225289
-0.7209151
-0.7189768
-0.7164638
-0.7132413
-0.7103026
-0.7010411
-0.7296095
-0.728331
-0.7270312
-0.72573
-0.7244391
-0.7231555
-0.7218637
-0.7205425
-0.7192905
-0.7185789
-0.7171142
-0.7075817
-0.7307891
-0.729665
-0.7285094
-0.7273336
-0.7261458
-0.7249533
-0.7237637
-0.7226001
-0.7215414
-0.7209349
-0.7208356
-0.7188172
-0.7134258
-0.7219664
-0.7212913
-0.7202544
-0.7177438
-0.7239422
-0.7232416
-0.7225906
-0.7218716
-0.7205557
-0.7257514
-0.7250179
-0.7243927
-0.7238795
-0.7234297
-0.7222809
-0.727346
-0.7266045
-0.7259596
-0.725448
-0.7250898
-0.7244284
-0.722957
-0.7287438
-0.7280036
-0.7273446
-0.7267984
-0.7264064
-0.7258135
-0.7246792
-0.7233294
-0.7197877
-0.7176643
-0.7145891
-0.7087029
-0.688121
-0.7213665
-0.7191823
-0.7159702
-0.7097622
-0.6955397
-0.6541529
-0.7228939
-0.7208612
-0.718183
-0.7136929
-0.7043473
-0.6838221
-0.6338723
-0.7243479
-0.7224701
-0.720273
-0.7171906
-0.7117631
-0.7007312
-0.6785978
-0.6304633
-0.7257332
-0.7239901
-0.7221099
-0.7198892
-0.7167151
-0.711241
-0.7009354
-0.68248
-0.6446512
-0.7270589
-0.7254402
-0.7237711
-0.7220086
-0.7199602
-0.7171332
-0.7126381
-0.7051669
-0.6939274
-0.6739711
-0.7283311
-0.7268398
-0.7253302
-0.7238201
-0.7222745
-0.7205684
-0.7184269
-0.715508
-0.7116462
-0.7082753
-0.698447
-0.7295531
-0.7281973
-0.7268303
-0.725481
-0.7241643
-0.7228698
-0.7215593
-0.7201694
-0.7187763
-0.7179589
-0.7160825
-0.7042813
-0.730725
-0.7295125
-0.7282834
-0.7270604
-0.725862
-0.7247049
-0.7236041
-0.7225936
-0.7217701
-0.7214858
-0.720985
-0.7180799
-0.7100963
-0.7318455
-0.7307775
-0.7296815
-0.7285691
-0.7274493
-0.7263312
-0.7252272
-0.7241623
-0.7232174
-0.7226872
-0.7227492
-0.7215638
-0.7197612
-0.7152027
-0.7235602
-0.7229775
-0.7222926
-0.7213126
-0.7190771
-0.7254111
-0.7247164
-0.7241041
-0.7235534
-0.7229593
-0.7213336
-0.7271201
-0.7263892
-0.72575
-0.7252327
-0.7248457
-0.7241046
-0.7223794
-0.7286335
-0.7278961
-0.7272388
-0.7266917
-0.7262942
-0.725686
-0.7245161
-0.7230554
-0.7299614
-0.7292306
-0.7285638
-0.7279899
-0.7275425
-0.7269338
-0.7258915
-0.7247672
-0.7234283
-0.7214977
-0.7196815
-0.7174626
-0.7141883
-0.7081097
-0.6879271
-0.7229799
-0.7211329
-0.7188626
-0.715464
-0.7090638
-0.6954212
-0.6565752
-0.7244013
-0.7226152
-0.7205729
-0.7178473
-0.7133342
-0.7045056
-0.6866621
-0.6428992
-0.7257586
-0.7240526
-0.7222209
-0.7200863
-0.7171107
-0.7121092
-0.7028049
-0.685966
-0.6490184
-0.7270589
-0.7254402
-0.7237711
-0.7220086
-0.7199602
-0.7171332
-0.7126381
-0.7051669
-0.6939274
-0.6739711
-0.7283087
-0.7267881
-0.7252507
-0.7237149
-0.7221392
-0.7203781
-0.7181162
-0.7149607
-0.7107412
-0.7071648
-0.6971538
-0.7295124
-0.7281028
-0.7266879
-0.725303
-0.7239641
-0.7226525
-0.721307
-0.7198256
-0.718266
-0.7173293
-0.7152105
-0.7020358
-0.7306713
-0.7293858
-0.7280943
-0.7268298
-0.725619
-0.724483
-0.7234349
-0.7224978
-0.7217463
-0.7215284
-0.720849
-0.7172151
-0.7073358
-0.7317846
-0.7306329
-0.7294676
-0.7283116
-0.7271858
-0.7261114
-0.7251161
-0.7242435
-0.7235963
-0.7234205
-0.7231714
-0.7216262
-0.7190795
-0.7125106
-0.7328504
-0.7318346
-0.7307936
-0.7297389
-0.7286798
-0.7276257
-0.7265895
-0.7255975
-0.7247215
-0.7242265
-0.7242956
-0.7233882
-0.7223315
-0.7207461
-0.7169988
-0.725041
-0.7244719
-0.7238823
-0.7232429
-0.7223761
-0.7199268
-0.7267925
-0.7261006
-0.7254827
-0.7249578
-0.7245151
-0.723629
-0.7214344
-0.7284157
-0.7276891
-0.7270393
-0.7264924
-0.7260826
-0.7254408
-0.7241923
-0.7224784
-0.7298548
-0.729127
-0.7284622
-0.7278887
-0.7274386
-0.7268218
-0.725764
-0.7246041
-0.7231545
-0.7311191
-0.7304011
-0.729734
-0.7291405
-0.7286511
-0.7280126
-0.7270035
-0.7259696
-0.7248556
-0.7235274
-0.7230839
-0.7214503
-0.7196209
-0.717365
-0.7140523
-0.7081746
-0.6888132
-0.7244756
-0.7228173
-0.7209778
-0.7186991
-0.7153128
-0.7092484
-0.6972602
-0.6624136
-0.7258071
-0.7241734
-0.7224327
-0.7204532
-0.7178289
-0.7136615
-0.7061638
-0.6924346
-0.658045
-0.7270825
-0.725496
-0.723861
-0.7221411
-0.720169
-0.7175125
-0.7133883
-0.706606
-0.6962641
-0.6763474
-0.7283087
-0.7267881
-0.7252507
-0.7237149
-0.7221392
-0.7203781
-0.7181162
-0.7149607
-0.7107412
-0.7071648
-0.6971538
-0.7294911
-0.7280542
-0.7266145
-0.7252106
-0.7238589
-0.722535
-0.7211638
-0.7196213
-0.7179568
-0.7169512
-0.7147209
-0.700907
-0.7306325
-0.7292963
-0.7279603
-0.7266654
-0.7254435
-0.7243171
-0.7232932
-0.7223804
-0.7216325
-0.7214195
-0.7206451
-0.7164893
-0.7054264
-0.7317334
-0.7305126
-0.7292884
-0.7280943
-0.7269607
-0.7259168
-0.7249959
-0.7242402
-0.7237359
-0.723674
-0.7233241
-0.7215054
-0.7183412
-0.7102408
-0.7327925
-0.7316973
-0.7305906
-0.7294948
-0.7284307
-0.7274208
-0.7264939
-0.7256973
-0.7251211
-0.7249689
-0.724767
-0.723675
-0.7223009
-0.7201004
-0.7148478
-0.7338072
-0.7328403
-0.7318505
-0.730849
-0.7298452
-0.7288483
-0.727871
-0.7269377
-0.726115
-0.7256362
-0.7256785
-0.7248704
-0.7240514
-0.7231158
-0.7217513
-0.7180545
-0.7264298
-0.7258599
-0.7252824
-0.7247268
-0.724166
-0.7230302
-0.720036
-0.7280991
-0.7274097
-0.7267837
-0.72624
-0.7258055
-0.7251032
-0.7237161
-0.7215358
-0.7296443
-0.728927
-0.7282702
-0.7276993
-0.7272435
-0.7266096
-0.7255187
-0.7242802
-0.7225782
-0.7310159
-0.7303008
-0.729636
-0.7290434
-0.7285526
-0.7279091
-0.7268916
-0.7258421
-0.7246925
-0.7232539
-0.7322211
-0.7315191
-0.7308568
-0.7302534
-0.7297325
-0.7290736
-0.7280756
-0.7270734
-0.7260482
-0.7249442
-0.7236309
-0.7245658
-0.7230582
-0.7214424
-0.7196348
-0.7174131
-0.7142401
-0.7089311
-0.6909439
-0.7258747
-0.7243435
-0.7227253
-0.7209424
-0.7187493
-0.7156007
-0.7103719
-0.7009607
-0.6725793
-0.7271278
-0.7256042
-0.7240341
-0.7223921
-0.7205544
-0.7181951
-0.7147208
-0.7091817
-0.7005931
-0.6812621
-0.7283311
-0.7268398
-0.7253302
-0.7238201
-0.7222745
-0.7205684
-0.7184269
-0.715508
-0.7116462
-0.7082753
-0.698447
-0.7294911
-0.7280542
-0.7266145
-0.7252106
-0.7238589
-0.722535
-0.7211638
-0.7196213
-0.7179568
-0.7169512
-0.7147209
-0.700907
-0.7306121
-0.7292501
-0.7278913
-0.7265803
-0.7253519
-0.7242284
-0.7232128
-0.722304
-0.7215457
-0.7213278
-0.72051
-0.7160821
-0.7044588
-0.7316964
-0.7304274
-0.7291614
-0.7279396
-0.7267987
-0.7257725
-0.7248951
-0.7242015
-0.7237609
-0.7237439
-0.7233535
-0.7213392
-0.7177343
-0.7086507
-0.7327436
-0.7315828
-0.7304202
-0.7292886
-0.728218
-0.72724
-0.7263906
-0.7257197
-0.7253014
-0.725274
-0.7249997
-0.7237918
-0.7221737
-0.7194603
-0.7130246
-0.733752
-0.7327097
-0.7316575
-0.730617
-0.7296083
-0.7286532
-0.7277799
-0.7270323
-0.7264935
-0.7263308
-0.7261266
-0.7251986
-0.7242081
-0.7229957
-0.7211292
-0.7161543
-0.7347187
-0.7337978
-0.732856
-0.7319042
-0.7309514
-0.7300067
-0.7290823
-0.7282009
-0.7274224
-0.7269577
-0.7269635
-0.7262031
-0.72546
-0.7247208
-0.7239021
-0.7223768
-0.7181862
-0.7277424
-0.7271674
-0.7265868
-0.7260343
-0.7255368
-0.7247273
-0.7231161
-0.7201458
-0.7293373
-0.7286552
-0.7280221
-0.7274589
-0.7269906
-0.726326
-0.7251804
-0.7238035
-0.7216381
-0.7308119
-0.730107
-0.7294502
-0.7288612
-0.7283677
-0.7277137
-0.7266793
-0.7255967
-0.7243684
-0.7226784
-0.732121
-0.7314219
-0.7307619
-0.7301596
-0.729638
-0.7289756
-0.727972
-0.7269615
-0.7259206
-0.7247811
-0.7233576
-0.7332714
-0.7325875
-0.7319346
-0.731328
-0.7307874
-0.7301153
-0.7291308
-0.7281386
-0.7271436
-0.7261268
-0.7250369
-0.7237256
-0.7259568
-0.7245483
-0.7230687
-0.7214955
-0.7197461
-0.7176375
-0.7147765
-0.7103661
-0.694803
-0.7271909
-0.7257573
-0.7242766
-0.7227355
-0.7210612
-0.719057
-0.7163642
-0.7123787
-0.706275
-0.6892155
-0.7283739
-0.7269401
-0.7254841
-0.7240218
-0.7225289
-0.7209151
-0.7189768
-0.7164638
-0.7132413
-0.7103026
-0.7010411
-0.7295124
-0.7281028
-0.7266879
-0.725303
-0.7239641
-0.7226525
-0.721307
-0.7198256
-0.718266
-0.7173293
-0.7152105
-0.7020358
-0.7306121
-0.7292501
-0.7278913
-0.7265803
-0.7253519
-0.7242284
-0.7232128
-0.722304
-0.7215457
-0.7213278
-0.72051
-0.7160821
-0.7044588
-0.7316769
-0.7303835
-0.7290959
-0.7278595
-0.7267143
-0.725696
-0.724838
-0.7241704
-0.7237536
-0.7237538
-0.7233479
-0.72123
-0.7173959
-0.707839
-0.7327082
-0.7315017
-0.7302995
-0.7291417
-0.7280651
-0.7271065
-0.7263046
-0.7257056
-0.7253676
-0.7253977
-0.7251025
-0.723818
-0.7220291
-0.7189513
-0.7117359
-0.7337053
-0.7326007
-0.7314954
-0.7304207
-0.7294058
-0.7284811
-0.7276825
-0.7270567
-0.7266726
-0.7266302
-0.7263673
-0.7253803
-0.7242762
-0.7228495
-0.7205685
-0.7145473
-0.7346661
-0.7336737
-0.7326725
-0.7316834
-0.7307256
-0.7298199
-0.7289925
-0.7282842
-0.7277686
-0.7275918
-0.7273673
-0.7265136
-0.7256555
-0.7247582
-0.7236973
-0.7217622
-0.7163125
-0.7355874
-0.7347102
-0.7338135
-0.7329082
-0.7320031
-0.7311068
-0.730231
-0.7293965
-0.7286585
-0.7282068
-0.728182
-0.7274473
-0.7267361
-0.7260503
-0.7253852
-0.724398
-0.7224604
-0.718318
-0.7289861
-0.7284104
-0.7278226
-0.72726
-0.7267518
-0.7260303
-0.7248018
-0.7232021
-0.7202564
-0.7305137
-0.729842
-0.7292081
-0.7286281
-0.7281281
-0.7274553
-0.726395
-0.7252576
-0.7238913
-0.721741
-0.7319229
-0.7312337
-0.7305816
-0.7299833
-0.7294604
-0.7287907
-0.7277766
-0.726749
-0.725675
-0.7244569
-0.7227831
-0.7331741
-0.7324931
-0.7318426
-0.7312371
-0.7306962
-0.7300213
-0.7290328
-0.7280351
-0.7270317
-0.7259992
-0.7248737
-0.7234526
-0.7342734
-0.7336094
-0.7329691
-0.7323652
-0.7318134
-0.7311369
-0.7301677
-0.7291882
-0.7282019
-0.7272139
-0.7262094
-0.7251215
-0.7237978
-0.7272671
-0.7259422
-0.7245647
-0.7231333
-0.721625
-0.7199726
-0.7180559
-0.7156605
-0.7124545
-0.7017499
-0.7284334
-0.7270822
-0.725701
-0.7243018
-0.7228723
-0.721361
-0.7196489
-0.7175982
-0.7151451
-0.7128554
-0.7049278
-0.7295531
-0.7281973
-0.7268303
-0.725481
-0.7241643
-0.7228698
-0.7215593
-0.7201694
-0.7187763
-0.7179589
-0.7160825
-0.7042813
-0.7306325
-0.7292963
-0.7279603
-0.7266654
-0.7254435
-0.7243171
-0.7232932
-0.7223804
-0.7216325
-0.7214195
-0.7206451
-0.7164893
-0.7054264
-0.7316769
-0.7303835
-0.7290959
-0.7278595
-0.7267143
-0.725696
-0.724838
-0.7241704
-0.7237536
-0.7237538
-0.7233479
-0.72123
-0.7173959
-0.707839
-0.7326896
-0.7314598
-0.7302372
-0.7290657
-0.7279855
-0.7270359
-0.7262561
-0.7256895
-0.7253856
-0.7254404
-0.7251396
-0.7238156
-0.7219377
-0.7186711
-0.7110741
-0.7336714
-0.7325234
-0.7313804
-0.7302808
-0.7292602
-0.7283543
-0.7276021
-0.7270477
-0.7267456
-0.7267617
-0.7264864
-0.7254661
-0.7242893
-0.7227155
-0.7201428
-0.7134085
-0.7346215
-0.7335699
-0.7325182
-0.7314965
-0.7305324
-0.7296549
-0.7288975
-0.7283037
-0.7279332
-0.7278686
-0.7275917
-0.7267007
-0.7257776
-0.724772
-0.7235262
-0.7212363
-0.7147282
-0.7355373
-0.7345922
-0.7336391
-0.7326982
-0.7317879
-0.7309276
-0.7301421
-0.7294683
-0.7289726
-0.7287824
-0.7285397
-0.7277228
-0.7269217
-0.7261262
-0.7253135
-0.7241498
-0.7218465
-0.7164702
-0.7364155
-0.7355799
-0.734726
-0.7338646
-0.7330041
-0.7321531
-0.7313223
-0.7305315
-0.729831
-0.7293941
-0.7293447
-0.7286319
-0.7279348
-0.7272664
-0.7266326
-0.7258091
-0.7244662
-0.7225439
-0.7184498
-0.7301679
-0.7295951
-0.7290049
-0.7284296
-0.7279013
-0.727192
-0.7260966
-0.7248763
-0.7232883
-0.7203676
-0.7316328
-0.7309748
-0.7303446
-0.7297559
-0.7292293
-0.7285465
-0.7275175
-0.7264639
-0.725335
-0.7239792
-0.7218484
-0.7329815
-0.7323101
-0.7316671
-0.7310659
-0.7305246
-0.7298439
-0.7288479
-0.7278395
-0.726819
-0.7257534
-0.7245494
-0.7228789
-0.7341787
-0.7335175
-0.7328796
-0.732277
-0.7317251
-0.7310463
-0.7300738
-0.7290902
-0.7280984
-0.727102
-0.7260818
-0.7249583
-0.723525
-0.7352301
-0.7345871
-0.733962
-0.7333652
-0.7328095
-0.7321348
-0.7311853
-0.7302203
-0.7292458
-0.7282653
-0.7272882
-0.7262848
-0.7251854
-0.7238492
-0.728505
-0.7272538
-0.72596
-0.7246311
-0.7232641
-0.721843
-0.720328
-0.7186814
-0.716909
-0.7152924
-0.709953
-0.7296095
-0.728331
-0.7270312
-0.72573
-0.7244391
-0.7231555
-0.7218637
-0.7205425
-0.7192905
-0.7185789
-0.7171142
-0.7075817
-0.7306713
-0.7293858
-0.7280943
-0.7268298
-0.725619
-0.724483
-0.7234349
-0.7224978
-0.7217463
-0.7215284
-0.720849
-0.7172151
-0.7073358
-0.7316964
-0.7304274
-0.7291614
-0.7279396
-0.7267987
-0.7257725
-0.7248951
-0.7242015
-0.7237609
-0.7237439
-0.7233535
-0.7213392
-0.7177343
-0.7086507
-0.7326896
-0.7314598
-0.7302372
-0.7290657
-0.7279855
-0.7270359
-0.7262561
-0.7256895
-0.7253856
-0.7254404
-0.7251396
-0.7238156
-0.7219377
-0.7186711
-0.7110741
-0.7336535
-0.7324835
-0.731321
-0.7302084
-0.7291844
-0.7282873
-0.727557
-0.7270354
-0.7267693
-0.7268116
-0.7265349
-0.7254986
-0.7242853
-0.722636
-0.7199132
-0.7128222
-0.7345889
-0.7334961
-0.7324085
-0.7313631
-0.7303934
-0.7295334
-0.7288197
-0.7282936
-0.7280013
-0.727993
-0.7277069
-0.726799
-0.7258396
-0.7247658
-0.7233961
-0.7208488
-0.7136052
-0.7354946
-0.7344932
-0.7334921
-0.7325201
-0.7316035
-0.7307693
-0.7300489
-0.7294815
-0.7291205
-0.7290335
-0.7287422
-0.7278955
-0.7270494
-0.7261865
-0.7252721
-0.7239634
-0.721324
-0.7149082
-0.7363677
-0.7354677
-0.7345602
-0.7336649
-0.7327992
-0.7319816
-0.7312349
-0.7305933
-0.7301165
-0.7299179
-0.7296605
-0.7288708
-0.7280959
-0.727341
-0.7266003
-0.7256829
-0.7242134
-0.7219307
-0.7166274
-0.7372049
-0.736409
-0.7355959
-0.734776
-0.7339578
-0.7331493
-0.7323609
-0.7316108
-0.7309459
-0.7305249
-0.7304586
-0.729766
-0.7290817
-0.7284174
-0.7277872
-0.7270079
-0.7258686
-0.7245344
-0.7226276
-0.7185816
-0.7312924
-0.7307268
-0.7301383
-0.7295562
-0.7290076
-0.7282983
-0.7272519
-0.7261627
-0.7249508
-0.7233746
-0.720483
-0.7326988
-0.732057
-0.731435
-0.7308435
-0.7303
-0.7296091
-0.7286032
-0.7275798
-0.7265331
-0.7254124
-0.7240712
-0.7219468
-0.7339911
-0.7333392
-0.7327087
-0.7321104
-0.7315585
-0.730875
-0.7298964
-0.7289051
-0.7279027
-0.7268891
-0.7258357
-0.7246339
-0.7229521
-0.7351378
-0.7344976
-0.7338749
-0.7332795
-0.7327238
-0.732047
-0.7310947
-0.7301264
-0.7291478
-0.7281618
-0.7271761
-0.7261571
-0.7250221
-0.7235766
-0.7361439
-0.7355229
-0.7349151
-0.7343289
-0.7337748
-0.7331071
-0.7321798
-0.7312339
-0.7302731
-0.7293035
-0.7283327
-0.7273559
-0.7263409
-0.72523
-0.7238782
-0.7150263
-0.7296772
-0.7284923
-0.7272714
-0.7260247
-0.7247578
-0.7234707
-0.7221614
-0.7208314
-0.7195633
-0.718722
-0.7179434
-0.7116776
-0.730725
-0.7295125
-0.7282834
-0.7270604
-0.725862
-0.7247049
-0.7236041
-0.7225936
-0.7217701
-0.7214858
-0.720985
-0.7180799
-0.7100963
-0.7317334
-0.7305126
-0.7292884
-0.7280943
-0.7269607
-0.7259168
-0.7249959
-0.7242402
-0.7237359
-0.723674
-0.7233241
-0.7215054
-0.7183412
-0.7102408
-0.7327082
-0.7315017
-0.7302995
-0.7291417
-0.7280651
-0.7271065
-0.7263046
-0.7257056
-0.7253676
-0.7253977
-0.7251025
-0.723818
-0.7220291
-0.7189513
-0.7117359
-0.7336535
-0.7324835
-0.731321
-0.7302084
-0.7291844
-0.7282873
-0.727557
-0.7270354
-0.7267693
-0.7268116
-0.7265349
-0.7254986
-0.7242853
-0.722636
-0.7199132
-0.7128222
-0.7345718
-0.733458
-0.7323519
-0.731294
-0.730321
-0.7294692
-0.7287762
-0.7282815
-0.728024
-0.7280413
-0.7277553
-0.7268403
-0.7258641
-0.724757
-0.7233248
-0.7206427
-0.7130267
-0.7354634
-0.7344229
-0.7333876
-0.7323929
-0.7314707
-0.7306527
-0.7299729
-0.7294688
-0.7291809
-0.7291466
-0.7288476
-0.7279896
-0.7271216
-0.7262208
-0.7252439
-0.7238328
-0.7209403
-0.7138008
-0.7363269
-0.7353734
-0.7344203
-0.7334952
-0.7326232
-0.7318298
-0.7311438
-0.7306011
-0.7302488
-0.730145
-0.7298415
-0.7290245
-0.7282127
-0.7274084
-0.7266
-0.7256121
-0.724025
-0.7214114
-0.7150876
-0.7371593
-0.7363023
-0.7354384
-0.7345862
-0.7337628
-0.7329855
-0.7322758
-0.7316648
-0.7312071
-0.7310041
-0.7307382
-0.7299716
-0.7292166
-0.7284779
-0.7277621
-0.7269223
-0.7257366
-0.7242768
-0.7220149
-0.7167841
-0.7379571
-0.7371993
-0.7364252
-0.735645
-0.7348668
-0.7340986
-0.7333502
-0.7326386
-0.7320075
-0.7316038
-0.7315264
-0.7308552
-0.7301841
-0.7295249
-0.7288895
-0.7281263
-0.7270615
-0.725928
-0.7246025
-0.7227111
-0.7187159
-0.7323638
-0.7318088
-0.7312265
-0.7306426
-0.7300812
-0.729369
-0.7283529
-0.7273116
-0.7262289
-0.7250252
-0.7234651
-0.7205888
-0.7337153
-0.7330916
-0.7324812
-0.7318926
-0.7313395
-0.7306475
-0.7296612
-0.7286599
-0.7276422
-0.7266022
-0.7254937
-0.7241551
-0.7220222
-0.7349548
-0.7343237
-0.7337083
-0.7331172
-0.7325619
-0.731881
-0.7309234
-0.7299489
-0.7289626
-0.7279658
-0.726963
-0.7259107
-0.7246973
-0.7230042
-0.7360539
-0.7354357
-0.7348301
-0.7342454
-0.7336915
-0.733022
-0.7320921
-0.7311433
-0.7301792
-0.7292054
-0.728229
-0.7272438
-0.7262131
-0.7250665
-0.7236056
-0.7370173
-0.7364189
-0.7358297
-0.7352569
-0.7347088
-0.734052
-0.7331492
-0.7322249
-0.7312827
-0.730326
-0.729365
-0.728394
-0.7274055
-0.7263791
-0.7252539
-0.7163193
-0.7181066
-0.7156076
-0.7307891
-0.729665
-0.7285094
-0.7273336
-0.7261458
-0.7249533
-0.7237637
-0.7226001
-0.7215414
-0.7209349
-0.7208356
-0.7188172
-0.7134258
-0.7317846
-0.7306329
-0.7294676
-0.7283116
-0.7271858
-0.7261114
-0.7251161
-0.7242435
-0.7235963
-0.7234205
-0.7231714
-0.7216262
-0.7190795
-0.7125106
-0.7327436
-0.7315828
-0.7304202
-0.7292886
-0.728218
-0.72724
-0.7263906
-0.7257197
-0.7253014
-0.725274
-0.7249997
-0.7237918
-0.7221737
-0.7194603
-0.7130246
-0.7336714
-0.7325234
-0.7313804
-0.7302808
-0.7292602
-0.7283543
-0.7276021
-0.7270477
-0.7267456
-0.7267617
-0.7264864
-0.7254661
-0.7242893
-0.7227155
-0.7201428
-0.7134085
-0.7345718
-0.733458
-0.7323519
-0.731294
-0.730321
-0.7294692
-0.7287762
-0.7282815
-0.728024
-0.7280413
-0.7277553
-0.7268403
-0.7258641
-0.724757
-0.7233248
-0.7206427
-0.7130267
-0.735447
-0.7343866
-0.7333336
-0.732327
-0.7314015
-0.730591
-0.7299306
-0.7294559
-0.7292008
-0.7291907
-0.7288925
-0.7280304
-0.7271533
-0.7262352
-0.7252285
-0.7237642
-0.7207365
-0.7132302
-0.736297
-0.7353064
-0.7343207
-0.7333739
-0.7324964
-0.7317179
-0.7310697
-0.7305859
-0.7303017
-0.7302469
-0.7299363
-0.7291098
-0.7282816
-0.727452
-0.7266056
-0.7255712
-0.7238941
-0.7210315
-0.7139956
-0.7371202
-0.7362126
-0.7353052
-0.7344247
-0.7335951
-0.7328403
-0.7321872
-0.7316684
-0.7313262
-0.7312103
-0.7309
-0.7301069
-0.7293186
-0.7285389
-0.7277716
-0.7268904
-0.7256624
-0.7240865
-0.7214989
-0.715266
-0.7379136
-0.7370981
-0.7362757
-0.7354648
-0.7346816
-0.7339427
-0.7332681
-0.7326867
-0.7322485
-0.7320451
-0.7317754
-0.7310323
-0.7302949
-0.7295692
-0.7288603
-0.7280522
-0.72697
-0.7257901
-0.7243403
-0.7220988
-0.7169413
-0.7386736
-0.7379526
-0.737216
-0.7364737
-0.7357337
-0.7350038
-0.7342932
-0.7336183
-0.7330197
-0.732634
-0.732551
-0.731902
-0.7312464
-0.7305943
-0.7299571
-0.7291997
-0.7281753
-0.7271148
-0.7259873
-0.7246704
-0.722799
-0.7188389
-0.7333857
-0.732844
-0.7322715
-0.7316911
-0.7311231
-0.7304128
-0.7294192
-0.7284074
-0.7273713
-0.7262949
-0.7251037
-0.7235476
-0.7206711
-0.7346855
-0.7340813
-0.7334852
-0.7329037
-0.732348
-0.7316597
-0.7306956
-0.7297132
-0.7287167
-0.7277045
-0.7266751
-0.7255678
-0.7242178
-0.7220764
-0.7358752
-0.7352658
-0.7346675
-0.734087
-0.7335338
-0.7328607
-0.7319261
-0.730972
-0.7300016
-0.7290201
-0.7280329
-0.7270303
-0.7259663
-0.7247414
-0.7230337
-0.7369293
-0.7363337
-0.7357468
-0.7351755
-0.7346277
-0.7339693
-0.7330641
-0.7321372
-0.7311921
-0.7302321
-0.729267
-0.7282903
-0.7272932
-0.7262511
-0.7250903
-0.737852
-0.7372767
-0.7367074
-0.73615
-0.7356114
-0.7349686
-0.7340916
-0.7331914
-0.7322703
-0.7313315
-0.7303828
-0.7294211
-0.7284383
-0.7274383
-0.7263982
-0.7170422
-0.7187137
-0.7172104
-0.7201954
-0.7191928
-0.7165589
-0.7318455
-0.7307775
-0.7296815
-0.7285691
-0.7274493
-0.7263312
-0.7252272
-0.7241623
-0.7232174
-0.7226872
-0.7227492
-0.7215638
-0.7197612
-0.7152027
-0.7327925
-0.7316973
-0.7305906
-0.7294948
-0.7284307
-0.7274208
-0.7264939
-0.7256973
-0.7251211
-0.7249689
-0.724767
-0.723675
-0.7223009
-0.7201004
-0.7148478
-0.7337053
-0.7326007
-0.7314954
-0.7304207
-0.7294058
-0.7284811
-0.7276825
-0.7270567
-0.7266726
-0.7266302
-0.7263673
-0.7253803
-0.7242762
-0.7228495
-0.7205685
-0.7145473
-0.7345889
-0.7334961
-0.7324085
-0.7313631
-0.7303934
-0.7295334
-0.7288197
-0.7282936
-0.7280013
-0.727993
-0.7277069
-0.726799
-0.7258396
-0.7247658
-0.7233961
-0.7208488
-0.7136052
-0.735447
-0.7343866
-0.7333336
-0.732327
-0.7314015
-0.730591
-0.7299306
-0.7294559
-0.7292008
-0.7291907
-0.7288925
-0.7280304
-0.7271533
-0.7262352
-0.7252285
-0.7237642
-0.7207365
-0.7132302
-0.7362812
-0.7352717
-0.7342692
-0.733311
-0.7324303
-0.7316587
-0.7310286
-0.7305721
-0.7303186
-0.7302866
-0.7299768
-0.7291473
-0.7283128
-0.7274726
-0.7266091
-0.7255514
-0.7238256
-0.7208301
-0.7134329
-0.7370915
-0.7361486
-0.7352103
-0.7343091
-0.7334741
-0.7327331
-0.7321153
-0.7316514
-0.7313725
-0.7313023
-0.7309851
-0.7301828
-0.7293803
-0.7285808
-0.7277864
-0.7268804
-0.7256199
-0.7239553
-0.7211226
-0.7141893
-0.7378762
-0.7370126
-0.736149
-0.7353112
-0.7345219
-0.733804
-0.7331825
-0.7326874
-0.7323566
-0.7322336
-0.7319209
-0.7311514
-0.7303826
-0.7296203
-0.7288683
-0.7280319
-0.7269346
-0.7257125
-0.724148
-0.721586
-0.7154435
-0.7386322
-0.7378565
-0.7370741
-0.7363027
-0.735558
-0.7348557
-0.7342148
-0.7336622
-0.7332439
-0.7330434
-0.7327742
-0.732055
-0.7313367
-0.7306235
-0.7299211
-0.7291267
-0.7280959
-0.7270177
-0.7258437
-0.7244035
-0.7221871
-0.7170852
-0.7393556
-0.7386701
-0.7379696
-0.7372638
-0.7365605
-0.7358671
-0.7351927
-0.7345527
-0.7339854
-0.7336186
-0.7335341
-0.7329081
-0.7322701
-0.7316288
-0.7309933
-0.7302437
-0.7292451
-0.7282241
-0.7271682
-0.7260464
-0.7247429
-0.7228792
-0.7189373
-0.7343613
-0.7338349
-0.7332752
-0.7327023
-0.7321339
-0.7314296
-0.7304595
-0.7294694
-0.7284619
-0.7274308
-0.7263649
-0.7251751
-0.7236086
-0.7207317
-0.7356119
-0.7350285
-0.7344488
-0.7338778
-0.7333247
-0.7326451
-0.7317045
-0.7307438
-0.7297654
-0.7287735
-0.7277707
-0.7267414
-0.7256222
-0.724261
-0.7221077
-0.7367547
-0.7361677
-0.7355879
-0.7350208
-0.734474
-0.7338123
-0.7329028
-0.7319712
-0.7310207
-0.7300544
-0.7290815
-0.7280939
-0.7270794
-0.7260038
-0.7247646
-0.7377659
-0.7371934
-0.7366265
-0.7360706
-0.7355323
-0.734888
-0.7340089
-0.7331064
-0.7321826
-0.7312409
-0.7302888
-0.729323
-0.7283345
-0.7273259
-0.72627
-0.7386499
-0.738098
-0.7375495
-0.7370092
-0.7364828
-0.7358562
-0.735006
-0.7341313
-0.7332339
-0.7323157
-0.7313842
-0.7304345
-0.729461
-0.7284667
-0.7274533
-0.7174901
-0.7191949
-0.7180743
-0.7206544
-0.7197493
-0.7182177
-0.7219664
-0.7212913
-0.7202544
-0.7177438
-0.7328504
-0.7318346
-0.7307936
-0.7297389
-0.7286798
-0.7276257
-0.7265895
-0.7255975
-0.7247215
-0.7242265
-0.7242956
-0.7233882
-0.7223315
-0.7207461
-0.7169988
-0.733752
-0.7327097
-0.7316575
-0.730617
-0.7296083
-0.7286532
-0.7277799
-0.7270323
-0.7264935
-0.7263308
-0.7261266
-0.7251986
-0.7242081
-0.7229957
-0.7211292
-0.7161543
-0.7346215
-0.7335699
-0.7325182
-0.7314965
-0.7305324
-0.7296549
-0.7288975
-0.7283037
-0.7279332
-0.7278686
-0.7275917
-0.7267007
-0.7257776
-0.724772
-0.7235262
-0.7212363
-0.7147282
-0.7354634
-0.7344229
-0.7333876
-0.7323929
-0.7314707
-0.7306527
-0.7299729
-0.7294688
-0.7291809
-0.7291466
-0.7288476
-0.7279896
-0.7271216
-0.7262208
-0.7252439
-0.7238328
-0.7209403
-0.7138008
-0.7362812
-0.7352717
-0.7342692
-0.733311
-0.7324303
-0.7316587
-0.7310286
-0.7305721
-0.7303186
-0.7302866
-0.7299768
-0.7291473
-0.7283128
-0.7274726
-0.7266091
-0.7255514
-0.7238256
-0.7208301
-0.7134329
-0.7370764
-0.7361155
-0.7351612
-0.7342492
-0.733411
-0.7326764
-0.7320754
-0.7316371
-0.7313867
-0.7313379
-0.7310215
-0.7302164
-0.7294088
-0.7286013
-0.7277954
-0.7268777
-0.7255995
-0.723887
-0.7209235
-0.7136344
-0.7378487
-0.7369517
-0.7360587
-0.7352011
-0.7344066
-0.7337016
-0.7331131
-0.7326694
-0.7323976
-0.7323171
-0.7319975
-0.7312187
-0.7304367
-0.7296573
-0.7288835
-0.7280314
-0.7269227
-0.7256685
-0.7240165
-0.7212134
-0.7143809
-0.7385964
-0.7377752
-0.7369538
-0.7361568
-0.7354062
-0.7347237