/*--------------------------------*- C++ -*----------------------------------*\
| =========                 |                                                 |
| \\      /  F ield         | OpenFOAM: The Open Source CFD Toolbox           |
|  \\    /   O peration     | Version:  2306                                  |
|   \\  /    A nd           | Website:  www.openfoam.com                      |
|    \\/     M anipulation  |                                                 |
\*---------------------------------------------------------------------------*/
FoamFile
{
    version     2.0;
    format      ascii;
    arch        "LSB;label=32;scalar=64";
    class       volScalarField;
    location    "0.6/air";
    object      O2;
}
// * * * * * * * * * * * * * * * * * * * * * * * * * * * * * * * * * * * * * //

dimensions      [0 0 0 0 0 0 0];

internalField   nonuniform List<scalar> 
16000
(
0.2299578
0.2299848
0.2282636
0.2299253
0.2300196
0.2283501
0.2299637
0.225999
0.2281495
0.2298269
0.2300487
0.2284625
0.2300105
0.2261122
0.2282665
0.2298821
0.223516
0.2258536
0.2278548
0.2296202
0.2300647
0.2285578
0.2300478
0.2262696
0.2284107
0.2299481
0.2236275
0.2259994
0.2280118
0.2296955
0.2210738
0.223368
0.2254928
0.2273135
0.2292477
0.2300647
0.2286111
0.2300678
0.2264111
0.228528
0.2299992
0.2237806
0.2261937
0.228206
0.2297862
0.2211811
0.2235119
0.2256768
0.2275116
0.2293457
0.2187297
0.2209311
0.2230019
0.224855
0.226462
0.2286302
0.1915031
0.2300487
0.2286111
0.2300678
0.2264931
0.2285921
0.2300256
0.223917
0.2263649
0.2283622
0.2298555
0.2213282
0.223701
0.2259162
0.2277602
0.2294674
0.2188316
0.2210694
0.2231826
0.2250738
0.2266998
0.2287541
0.2164934
0.2185936
0.2205786
0.2223584
0.2238894
0.2252393
0.22766
0.1928092
0.189873
0.1912966
0.2300196
0.2285578
0.2300478
0.2264931
0.2285921
0.2300256
0.2239957
0.226463
0.2284464
0.2298921
0.2214592
0.2238654
0.2261253
0.2279664
0.2295644
0.2189713
0.2212509
0.2234167
0.2253579
0.2270023
0.2289156
0.2165903
0.2187249
0.2207515
0.2225703
0.2241377
0.2255167
0.2278197
0.214359
0.2163642
0.2182574
0.2199608
0.2213936
0.2225565
0.2235861
0.2261864
0.1954484
0.1910444
0.1925979
0.189224
0.1896839
0.1908844
0.2299848
0.2284625
0.2300105
0.2264111
0.228528
0.2299992
0.2239957
0.226463
0.2284464
0.2298921
0.2215347
0.2239592
0.226245
0.2280802
0.229617
0.2190956
0.2214083
0.2236181
0.2256023
0.2272568
0.2290508
0.216723
0.218897
0.2209751
0.2228454
0.2244622
0.225874
0.2280383
0.2144512
0.216489
0.2184213
0.2201622
0.2216288
0.2228304
0.2239099
0.2264195
0.212317
0.2142359
0.216045
0.2176688
0.2190378
0.2200782
0.2208259
0.2214409
0.2239759
0.1995187
0.1934053
0.1952201
0.190314
0.1908516
0.1921772
0.1887403
0.1890492
0.1893064
0.1902678
0.2299578
0.2283501
0.2299637
0.2262696
0.2284107
0.2299481
0.223917
0.2263649
0.2283622
0.2298555
0.2215347
0.2239592
0.226245
0.2280802
0.229617
0.2191673
0.221498
0.2237323
0.2257405
0.2273986
0.2291263
0.2168411
0.2190464
0.221167
0.2230821
0.2247417
0.2261772
0.2282273
0.2145775
0.2166525
0.2186331
0.2204231
0.2219369
0.2231922
0.2243309
0.2267391
0.2124051
0.2143547
0.2162008
0.2178593
0.2192597
0.2203318
0.2211304
0.2218419
0.2244086
0.210358
0.2121996
0.213932
0.2154862
0.2167902
0.2177845
0.2183945
0.2186686
0.218721
0.2205945
0.205404
0.1970295
0.1992265
0.1925102
0.1931993
0.1947711
0.1897617
0.1901361
0.1904678
0.1915501
0.188214
0.1885769
0.1887002
0.1887414
0.1894483
0.2282636
0.2299253
0.2261122
0.2282665
0.2298821
0.2237806
0.2261937
0.228206
0.2297862
0.2214592
0.2238654
0.2261253
0.2279664
0.2295644
0.2191673
0.221498
0.2237323
0.2257405
0.2273986
0.2291263
0.2169092
0.2191314
0.2212756
0.2232161
0.2248997
0.2263472
0.2283344
0.2146899
0.2167943
0.2188149
0.2206471
0.2222032
0.2235053
0.2246897
0.2270124
0.2125257
0.2145103
0.2164019
0.218106
0.2195495
0.2206677
0.2215355
0.2223576
0.2249315
0.2104424
0.212313
0.2140803
0.2156673
0.2169998
0.2180223
0.2186715
0.2190344
0.2193043
0.2216274
0.2084735
0.2102456
0.2119095
0.2133997
0.2146522
0.2155988
0.2161867
0.2163257
0.2160328
0.215256
0.2149975
0.2022254
0.2048006
0.1958791
0.1967711
0.1986823
0.191819
0.1923204
0.1927935
0.1941122
0.1891779
0.1895954
0.1897817
0.1898952
0.19072
0.1875697
0.1880599
0.1882505
0.1881779
0.1879899
0.188266
0.225999
0.2281495
0.2298269
0.2236275
0.2259994
0.2280118
0.2296955
0.2213282
0.223701
0.2259162
0.2277602
0.2294674
0.2190956
0.2214083
0.2236181
0.2256023
0.2272568
0.2290508
0.2169092
0.2191314
0.2212756
0.2232161
0.2248997
0.2263472
0.2283344
0.2147546
0.2168751
0.2189178
0.2207737
0.2223544
0.2236827
0.2248913
0.2271654
0.212633
0.2146453
0.2165744
0.2183177
0.2197996
0.22096
0.2218867
0.2227913
0.2253439
0.2105579
0.2124617
0.2142717
0.2159014
0.2172733
0.2183363
0.2190419
0.2195135
0.2199948
0.2225518
0.2085545
0.2103543
0.2120512
0.2135721
0.2148514
0.215823
0.2164458
0.2166574
0.2165633
0.2163598
0.2179678
0.2066567
0.2083656
0.2099678
0.2114013
0.212605
0.2135211
0.2140817
0.21423
0.2138301
0.2127728
0.2105597
0.2122025
0.2007036
0.2017067
0.2039011
0.1949737
0.1956416
0.1962881
0.1979282
0.1911193
0.1916419
0.1919466
0.1921968
0.1932534
0.1884836
0.1890212
0.1892641
0.189253
0.1891366
0.1895267
0.1868402
0.1874235
0.1877521
0.1877619
0.187483
0.1869054
0.1880223
0.223516
0.2258536
0.2278548
0.2296202
0.2211811
0.2235119
0.2256768
0.2275116
0.2293457
0.2189713
0.2212509
0.2234167
0.2253579
0.2270023
0.2289156
0.2168411
0.2190464
0.221167
0.2230821
0.2247417
0.2261772
0.2282273
0.2147546
0.2168751
0.2189178
0.2207737
0.2223544
0.2236827
0.2248913
0.2271654
0.2126948
0.2147221
0.216672
0.2184374
0.2199413
0.2211264
0.2220856
0.2230331
0.2255645
0.2106606
0.2125906
0.2144359
0.2161022
0.2175092
0.2186089
0.2193646
0.2199221
0.2205452
0.2231811
0.2086655
0.2104966
0.2122341
0.2137951
0.2151111
0.216119
0.2167909
0.217094
0.2171972
0.2173883
0.2195409
0.2067346
0.20847
0.2101036
0.2115662
0.2127949
0.2137345
0.214326
0.2145407
0.214317
0.2137896
0.2133084
0.2156944
0.2049014
0.2065528
0.2080989
0.209481
0.2106424
0.2115268
0.2120805
0.2122259
0.2118747
0.2107718
0.2084294
0.2081998
0.2100277
0.1994887
0.2002265
0.2009284
0.2028547
0.1940955
0.1947523
0.1951977
0.1956157
0.1969959
0.1903242
0.1909524
0.1912929
0.1913969
0.1914176
0.1920354
0.1877108
0.188335
0.1887089
0.1887699
0.1885522
0.1880451
0.1892807
0.1860384
0.186701
0.1871316
0.1872913
0.1871118
0.1864799
0.1866818
0.1877765
0.2210738
0.223368
0.2254928
0.2273135
0.2292477
0.2188316
0.2210694
0.2231826
0.2250738
0.2266998
0.2287541
0.216723
0.218897
0.2209751
0.2228454
0.2244622
0.225874
0.2280383
0.2146899
0.2167943
0.2188149
0.2206471
0.2222032
0.2235053
0.2246897
0.2270124
0.2126948
0.2147221
0.216672
0.2184374
0.2199413
0.2211264
0.2220856
0.2230331
0.2255645
0.2107198
0.2126639
0.2145288
0.2162156
0.2176428
0.2187638
0.2195481
0.2201509
0.2208432
0.2234948
0.2087641
0.2106201
0.2123909
0.2139864
0.2153348
0.2163758
0.217091
0.2174678
0.2177065
0.2181182
0.2204503
0.2068414
0.2086067
0.2102788
0.2117794
0.2130424
0.2140157
0.2146515
0.2149483
0.2148998
0.2147385
0.214866
0.2176018
0.2049766
0.2066533
0.2082294
0.2096391
0.2108242
0.2117305
0.2123133
0.2125194
0.2123325
0.2117177
0.2109795
0.2113916
0.2136792
0.2032026
0.2048013
0.2062962
0.2076315
0.2087538
0.2096123
0.210153
0.2103171
0.2099938
0.2089912
0.2067139
0.2062507
0.2063529
0.208247
0.1983539
0.199044
0.1995114
0.2000158
0.2017326
0.1931456
0.1938872
0.1943386
0.19458
0.1947806
0.1957316
0.189464
0.1901661
0.1906237
0.1907797
0.1906788
0.1903106
0.1917845
0.1868704
0.1875692
0.1880389
0.188243
0.1881148
0.1875439
0.1878202
0.1890327
0.1851888
0.1859053
0.1864228
0.1866945
0.1866782
0.1861734
0.1862731
0.1864563
0.1875286
0.2187297
0.2209311
0.2230019
0.224855
0.226462
0.2286302
0.2165903
0.2187249
0.2207515
0.2225703
0.2241377
0.2255167
0.2278197
0.2145775
0.2166525
0.2186331
0.2204231
0.2219369
0.2231922
0.2243309
0.2267391
0.212633
0.2146453
0.2165744
0.2183177
0.2197996
0.22096
0.2218867
0.2227913
0.2253439
0.2107198
0.2126639
0.2145288
0.2162156
0.2176428
0.2187638
0.2195481
0.2201509
0.2208432
0.2234948
0.208821
0.2106903
0.2124796
0.2140944
0.2154614
0.2165217
0.2172612
0.2176778
0.2179829
0.2184918
0.2208756
0.2069363
0.2087253
0.210429
0.2119621
0.2132556
0.2142594
0.2149343
0.2152963
0.2153686
0.2154138
0.2158127
0.2186764
0.2050796
0.2067849
0.2083977
0.2098435
0.211061
0.2119989
0.2126229
0.2129045
0.2128791
0.2125993
0.2124256
0.213225
0.2158038
0.2032752
0.2048982
0.2064218
0.2077835
0.2089282
0.2098074
0.2103755
0.2105971
0.2104273
0.209883
0.2090981
0.2092159
0.2096841
0.211913
0.2015557
0.2031059
0.2045538
0.2058463
0.206933
0.2077663
0.2082988
0.2084705
0.2081946
0.2072621
0.2051669
0.20468
0.20455
0.2048296
0.2067427
0.1971819
0.1979355
0.1983779
0.1986742
0.1990293
0.2003812
0.1921513
0.1929484
0.1934978
0.1937627
0.1938128
0.1936432
0.1954715
0.188546
0.1893135
0.1898546
0.1901403
0.1901091
0.1896583
0.1900825
0.1915317
0.1859864
0.1867352
0.1872872
0.1875971
0.1876253
0.1871719
0.187336
0.1875933
0.1887827
0.184303
0.1850612
0.1856394
0.1860064
0.1861129
0.185793
0.1859799
0.1860645
0.1862289
0.1872787
0.2164934
0.2185936
0.2205786
0.2223584
0.2238894
0.2252393
0.22766
0.2144512
0.216489
0.2184213
0.2201622
0.2216288
0.2228304
0.2239099
0.2264195
0.2125257
0.2145103
0.2164019
0.218106
0.2195495
0.2206677
0.2215355
0.2223576
0.2249315
0.2106606
0.2125906
0.2144359
0.2161022
0.2175092
0.2186089
0.2193646
0.2199221
0.2205452
0.2231811
0.208821
0.2106903
0.2124796
0.2140944
0.2154614
0.2165217
0.2172612
0.2176778
0.2179829
0.2184918
0.2208756
0.206991
0.2087927
0.2105139
0.2120653
0.2133763
0.2143978
0.2150948
0.2154915
0.2156232
0.2157599
0.2162692
0.2191696
0.2051711
0.206899
0.2085421
0.2100186
0.2112649
0.2122315
0.2128917
0.2132333
0.2133177
0.2132262
0.2133058
0.2143031
0.2170042
0.2033747
0.2050251
0.2065839
0.20798
0.2091555
0.2100646
0.2106714
0.2109641
0.210945
0.2107128
0.2104485
0.2109215
0.2116995
0.2141609
0.201626
0.2031995
0.204675
0.2059927
0.2071009
0.2079538
0.2085123
0.2087385
0.2086083
0.2081077
0.2074161
0.2074546
0.2076488
0.2081803
0.2103783
0.1999569
0.2014621
0.2028668
0.2041199
0.2051738
0.2059841
0.2065065
0.2066891
0.2064442
0.2055949
0.203639
0.2032509
0.203094
0.2031515
0.2035318
0.2052558
0.1959954
0.1967859
0.1973088
0.1975983
0.1977705
0.1978316
0.2001047
0.1911142
0.1919636
0.1925797
0.1929559
0.1930475
0.1927679
0.1934092
0.19521
0.1875927
0.1884022
0.1890169
0.1893964
0.1895086
0.1891561
0.1894481
0.1898526
0.1912769
0.1850695
0.1858567
0.1864656
0.1868664
0.1870113
0.1867364
0.1869776
0.1871264
0.1873645
0.1885306
0.1833932
0.1841803
0.1848062
0.1852413
0.1854523
0.1852732
0.1856106
0.1857848
0.1858542
0.1859996
0.1869737
0.214359
0.2163642
0.2182574
0.2199608
0.2213936
0.2225565
0.2235861
0.2261864
0.2124051
0.2143547
0.2162008
0.2178593
0.2192597
0.2203318
0.2211304
0.2218419
0.2244086
0.2105579
0.2124617
0.2142717
0.2159014
0.2172733
0.2183363
0.2190419
0.2195135
0.2199948
0.2225518
0.2087641
0.2106201
0.2123909
0.2139864
0.2153348
0.2163758
0.217091
0.2174678
0.2177065
0.2181182
0.2204503
0.206991
0.2087927
0.2105139
0.2120653
0.2133763
0.2143978
0.2150948
0.2154915
0.2156232
0.2157599
0.2162692
0.2191696
0.2052239
0.2069639
0.2086236
0.2101175
0.2113803
0.2123635
0.2130441
0.2134176
0.2135555
0.2135475
0.2137306
0.2148119
0.2175513
0.2034631
0.2051352
0.2067228
0.2081483
0.2093511
0.2102873
0.2109283
0.2112771
0.2113603
0.211302
0.2112696
0.2119259
0.2128801
0.2154444
0.2017223
0.2033221
0.2048314
0.206182
0.2073195
0.2082008
0.2087962
0.2090896
0.209102
0.2088947
0.2086895
0.2090498
0.2095266
0.2103027
0.212679
0.200025
0.2015528
0.2029839
0.2042613
0.2053356
0.2061647
0.2067119
0.2069465
0.2068403
0.2064013
0.205772
0.205869
0.2059955
0.2062727
0.2068672
0.208853
0.1984028
0.1998662
0.2012308
0.2024476
0.2034712
0.20426
0.204773
0.2049617
0.2047489
0.2039611
0.2021452
0.2018243
0.2017579
0.2017915
0.2019641
0.2022367
0.204954
0.1947878
0.1956186
0.1961927
0.1965757
0.1967571
0.1966749
0.1975864
0.1998277
0.1900546
0.190935
0.1916127
0.1920665
0.1922828
0.1920734
0.1925529
0.1931738
0.1949469
0.1866131
0.1874549
0.1881188
0.1885806
0.1887977
0.1886107
0.1889598
0.1892362
0.1896209
0.1910201
0.1841314
0.1849449
0.1855983
0.1860633
0.1863084
0.1861683
0.1865532
0.1867816
0.1869151
0.1871339
0.1882231
0.1824667
0.1832751
0.1839353
0.1844245
0.1847115
0.1846522
0.1851001
0.1854265
0.185588
0.1856421
0.1857198
0.1866617
0.212317
0.2142359
0.216045
0.2176688
0.2190378
0.2200782
0.2208259
0.2214409
0.2239759
0.2104424
0.212313
0.2140803
0.2156673
0.2169998
0.2180223
0.2186715
0.2190344
0.2193043
0.2216274
0.2086655
0.2104966
0.2122341
0.2137951
0.2151111
0.216119
0.2167909
0.217094
0.2171972
0.2173883
0.2195409
0.2069363
0.2087253
0.210429
0.2119621
0.2132556
0.2142594
0.2149343
0.2152963
0.2153686
0.2154138
0.2158127
0.2186764
0.2052239
0.2069639
0.2086236
0.2101175
0.2113803
0.2123635
0.2130441
0.2134176
0.2135555
0.2135475
0.2137306
0.2148119
0.2175513
0.2035141
0.2051977
0.2068013
0.2082433
0.2094618
0.2104137
0.2110739
0.2114524
0.2115855
0.2116035
0.2116658
0.2124003
0.2134319
0.2160289
0.2018078
0.2034284
0.2049654
0.2063441
0.2075076
0.2084147
0.2090425
0.209389
0.2094978
0.2094534
0.2094631
0.2099885
0.2106283
0.2115536
0.2140039
0.2001183
0.2016714
0.203135
0.2044439
0.2055464
0.2064026
0.2069849
0.2072836
0.2073127
0.2071517
0.20698
0.207374
0.2077535
0.2082531
0.2090408
0.21115
0.1984689
0.1999541
0.2013442
0.2025842
0.2036275
0.2044343
0.2049711
0.2052094
0.2051293
0.2047326
0.2041779
0.2043073
0.2044962
0.2047157
0.2050755
0.2055558
0.2085434
0.1968902
0.1983148
0.1996421
0.2008251
0.2018207
0.2025895
0.2030932
0.2032872
0.2030988
0.2023697
0.200665
0.2004176
0.2004107
0.2005326
0.2006871
0.2007842
0.2019737
0.2046542
0.193576
0.194428
0.1950543
0.1954988
0.1957847
0.1957379
0.1964505
0.1973407
0.1995504
0.1889789
0.1898829
0.1905999
0.1911244
0.191429
0.1913661
0.1918731
0.1923367
0.1929369
0.1946822
0.185618
0.1864807
0.1871833
0.187702
0.1880105
0.1879467
0.1884258
0.1887619
0.1890226
0.1893875
0.1907071
0.183179
0.1840114
0.1846965
0.1852127
0.1855299
0.1855054
0.1859945
0.1863684
0.186584
0.186702
0.1868525
0.1879083
0.1815291
0.1823527
0.1830391
0.1835684
0.1839165
0.1839466
0.1844873
0.1849255
0.1852409
0.1853896
0.1853833
0.1854336
0.1864243
0.210358
0.2121996
0.213932
0.2154862
0.2167902
0.2177845
0.2183945
0.2186686
0.218721
0.2205945
0.2085545
0.2103543
0.2120512
0.2135721
0.2148514
0.215823
0.2164458
0.2166574
0.2165633
0.2163598
0.2179678
0.2068414
0.2086067
0.2102788
0.2117794
0.2130424
0.2140157
0.2146515
0.2149483
0.2148998
0.2147385
0.214866
0.2176018
0.2051711
0.206899
0.2085421
0.2100186
0.2112649
0.2122315
0.2128917
0.2132333
0.2133177
0.2132262
0.2133058
0.2143031
0.2170042
0.2035141
0.2051977
0.2068013
0.2082433
0.2094618
0.2104137
0.2110739
0.2114524
0.2115855
0.2116035
0.2116658
0.2124003
0.2134319
0.2160289
0.2018572
0.2034889
0.2050411
0.2064356
0.2076141
0.208536
0.2091821
0.2095568
0.2097122
0.2097394
0.2098361
0.2104318
0.2111439
0.2121365
0.2146076
0.2002013
0.2017743
0.2032645
0.2046004
0.2057277
0.2066085
0.2072216
0.207571
0.2076916
0.2076843
0.2077139
0.2082592
0.2087847
0.2094225
0.2103302
0.2124761
0.1985594
0.2000691
0.2014904
0.2027608
0.203831
0.2046637
0.2052342
0.2055339
0.205583
0.2054507
0.2053295
0.205735
0.2061555
0.2065714
0.2071071
0.2077385
0.2108391
0.1969545
0.1984001
0.199752
0.2009574
0.2019719
0.2027579
0.2032844
0.2035262
0.2034649
0.2031101
0.2026087
0.2027838
0.2030079
0.203293
0.203604
0.203886
0.2052895
0.2082359
0.1954166
0.1968048
0.1980973
0.1992489
0.2002183
0.2009683
0.2014631
0.201661
0.2014944
0.2008133
0.1992103
0.1990146
0.1990723
0.199251
0.1994944
0.1995915
0.2005446
0.2017122
0.2043564
0.1923628
0.1932315
0.1938892
0.1943942
0.1947503
0.1948266
0.1955292
0.1962258
0.1970946
0.1992727
0.1878964
0.1888139
0.1895618
0.1901334
0.1905177
0.1905608
0.1911776
0.1916715
0.1921191
0.1926986
0.19436
0.1846133
0.1854905
0.1862197
0.1867838
0.1871572
0.1872003
0.1877714
0.1882393
0.1885625
0.1888074
0.1891028
0.1903867
0.1822175
0.1830631
0.1837722
0.1843259
0.1847013
0.1847623
0.1853398
0.1858193
0.1861821
0.1863848
0.186442
0.1865647
0.1876689
0.1805847
0.1814189
0.1821249
0.1826857
0.1830802
0.1831831
0.1837889
0.184321
0.1847494
0.1850538
0.1851474
0.1851187
0.1852161
0.1862631
0.2084735
0.2102456
0.2119095
0.2133997
0.2146522
0.2155988
0.2161867
0.2163257
0.2160328
0.215256
0.2149975
0.2067346
0.20847
0.2101036
0.2115662
0.2127949
0.2137345
0.214326
0.2145407
0.214317
0.2137896
0.2133084
0.2156944
0.2050796
0.2067849
0.2083977
0.2098435
0.211061
0.2119989
0.2126229
0.2129045
0.2128791
0.2125993
0.2124256
0.213225
0.2158038
0.2034631
0.2051352
0.2067228
0.2081483
0.2093511
0.2102873
0.2109283
0.2112771
0.2113603
0.211302
0.2112696
0.2119259
0.2128801
0.2154444
0.2018572
0.2034889
0.2050411
0.2064356
0.2076141
0.208536
0.2091821
0.2095568
0.2097122
0.2097394
0.2098361
0.2104318
0.2111439
0.2121365
0.2146076
0.200249
0.2018328
0.2033377
0.2046887
0.2058304
0.2067253
0.2073558
0.2077319
0.2078969
0.2079568
0.2080676
0.208677
0.2092671
0.209968
0.2109307
0.2130806
0.1986399
0.2001688
0.2016158
0.202912
0.2040061
0.2048624
0.2054623
0.2058104
0.2059467
0.2059604
0.2060291
0.2065749
0.2071284
0.207667
0.2083146
0.2090368
0.2121651
0.1970424
0.1985117
0.1998938
0.2011284
0.2021687
0.2029796
0.2035385
0.2038391
0.2039015
0.2037993
0.2037103
0.2041448
0.2045822
0.2050449
0.2055089
0.2059305
0.2074737
0.2105298
0.1954791
0.1968876
0.198204
0.1993772
0.2003648
0.2011313
0.2016481
0.2018919
0.2018475
0.2015254
0.2010746
0.201277
0.2015474
0.2018695
0.2022487
0.2025016
0.2036446
0.205025
0.2079305
0.1939793
0.1953335
0.1965935
0.1977158
0.1986608
0.1993931
0.1998792
0.2000801
0.1999322
0.1992939
0.1977774
0.1976286
0.1977296
0.1979689
0.1982687
0.1984656
0.199369
0.2003065
0.2014524
0.2040605
0.1911552
0.1920318
0.1927153
0.1932589
0.1936822
0.1938436
0.1946305
0.1953201
0.1960007
0.1968481
0.1989362
0.1868117
0.1877376
0.1885056
0.1891149
0.189554
0.1896915
0.1903822
0.1909878
0.1914686
0.1919001
0.1924084
0.1940302
0.1836039
0.1844903
0.1852392
0.1858359
0.1862616
0.1863829
0.1870333
0.1875947
0.1880515
0.1883615
0.188545
0.1888116
0.1901429
0.181251
0.1821056
0.1828324
0.1834153
0.1838345
0.1839654
0.1846041
0.1851729
0.1856426
0.1859943
0.1861417
0.1861762
0.1863459
0.1875063
0.1796366
0.180478
0.1811988
0.1817839
0.1822154
0.1823752
0.1830319
0.1836299
0.1841532
0.1845719
0.1848254
0.1849
0.1849177
0.1850685
0.1861807
0.205404
0.2066567
0.2083656
0.2099678
0.2114013
0.212605
0.2135211
0.2140817
0.21423
0.2138301
0.2127728
0.2105597
0.2122025
0.2049766
0.2066533
0.2082294
0.2096391
0.2108242
0.2117305
0.2123133
0.2125194
0.2123325
0.2117177
0.2109795
0.2113916
0.2136792
0.2033747
0.2050251
0.2065839
0.20798
0.2091555
0.2100646
0.2106714
0.2109641
0.210945
0.2107128
0.2104485
0.2109215
0.2116995
0.2141609
0.2018078
0.2034284
0.2049654
0.2063441
0.2075076
0.2084147
0.2090425
0.209389
0.2094978
0.2094534
0.2094631
0.2099885
0.2106283
0.2115536
0.2140039
0.200249
0.2018328
0.2033377
0.2046887
0.2058304
0.2067253
0.2073558
0.2077319
0.2078969
0.2079568
0.2080676
0.208677
0.2092671
0.209968
0.2109307
0.2130806
0.1986863
0.2002255
0.2016866
0.2029974
0.2041052
0.204975
0.2055917
0.2059652
0.2061437
0.2062212
0.2063663
0.2069713
0.2075834
0.208178
0.2088777
0.2096417
0.2127696
0.1971206
0.1986084
0.2000153
0.2012748
0.2023381
0.2031715
0.2037587
0.2041057
0.2042515
0.2042885
0.2043797
0.2049454
0.2055054
0.2060791
0.2066412
0.2071492
0.2087736
0.2118553
0.1955647
0.1969961
0.1983416
0.199543
0.2005555
0.201346
0.2018938
0.2021942
0.2022686
0.2021885
0.2021315
0.2025788
0.203048
0.2035318
0.2040477
0.2044202
0.2056913
0.2072102
0.210222
0.1940402
0.1954141
0.1966972
0.1978404
0.1988028
0.1995512
0.2000584
0.2003036
0.2002733
0.1999803
0.1995697
0.1997984
0.2000962
0.2004644
0.2008817
0.2012144
0.2022778
0.2034047
0.2047621
0.207627
0.1925763
0.1938984
0.195128
0.1962228
0.1971449
0.1978607
0.1983385
0.1985415
0.19841
0.1978094
0.1963703
0.1962577
0.1963973
0.196676
0.1970346
0.1972957
0.1982567
0.199148
0.2000699
0.2011941
0.2037047
0.1899561
0.1908367
0.1915361
0.1921115
0.192579
0.1928198
0.193658
0.194434
0.1951107
0.1957752
0.1965492
0.1985917
0.1857286
0.1866585
0.1874407
0.1880763
0.1885597
0.1887647
0.1895215
0.1902025
0.1907969
0.1912645
0.1916335
0.1921115
0.1937792
0.182593
0.183485
0.1842479
0.1848696
0.1853341
0.1855195
0.1862234
0.1868651
0.1874166
0.1878621
0.1881164
0.1882766
0.1885901
0.1899773
0.1802825
0.1811427
0.1818826
0.182488
0.182942
0.1831272
0.1838137
0.1844446
0.1850046
0.1854645
0.1857651
0.1858933
0.1859743
0.1861975
0.1874232
0.1786872
0.1795332
0.1802649
0.1808692
0.1813301
0.1815364
0.1822299
0.1828795
0.1834695
0.1839841
0.1843553
0.184592
0.184712
0.1847815
0.1849932
0.1995187
0.2022254
0.2048006
0.2049014
0.2065528
0.2080989
0.209481
0.2106424
0.2115268
0.2120805
0.2122259
0.2118747
0.2107718
0.2084294
0.2081998
0.2100277
0.2032752
0.2048982
0.2064218
0.2077835
0.2089282
0.2098074
0.2103755
0.2105971
0.2104273
0.209883
0.2090981
0.2092159
0.2096841
0.211913
0.2017223
0.2033221
0.2048314
0.206182
0.2073195
0.2082008
0.2087962
0.2090896
0.209102
0.2088947
0.2086895
0.2090498
0.2095266
0.2103027
0.212679
0.2002013
0.2017743
0.2032645
0.2046004
0.2057277
0.2066085
0.2072216
0.207571
0.2076916
0.2076843
0.2077139
0.2082592
0.2087847
0.2094225
0.2103302
0.2124761
0.1986863
0.2002255
0.2016866
0.2029974
0.2041052
0.204975
0.2055917
0.2059652
0.2061437
0.2062212
0.2063663
0.2069713
0.2075834
0.208178
0.2088777
0.2096417
0.2127696
0.1971657
0.1986635
0.2000839
0.2013575
0.2024339
0.2032804
0.2038835
0.204255
0.2044411
0.2045389
0.2047023
0.2053234
0.2059371
0.2065613
0.2071692
0.2077179
0.2093792
0.2124596
0.1956407
0.1970901
0.1984595
0.1996849
0.2007195
0.2015317
0.2021068
0.2024517
0.2026061
0.2026592
0.2027738
0.2033448
0.2039281
0.2045132
0.2051169
0.205564
0.206912
0.2085113
0.2115467
0.1941235
0.1955196
0.1968309
0.1980013
0.1989878
0.1997592
0.2002964
0.200596
0.2006801
0.2006196
0.2005862
0.2010473
0.2015315
0.202049
0.2025889
0.2030269
0.2041988
0.2054533
0.206948
0.2099158
0.1926356
0.1939769
0.1952289
0.1963439
0.197283
0.1980141
0.1985123
0.198758
0.19874
0.1984722
0.1980971
0.1983437
0.198667
0.1990621
0.1995251
0.199904
0.2010045
0.2020555
0.2031664
0.2045009
0.2072623
0.1912051
0.1924974
0.1936983
0.1947674
0.1956681
0.1963683
0.196838
0.1970426
0.1969255
0.1963586
0.1949884
0.1949068
0.1950749
0.1953879
0.1957839
0.1961096
0.1970982
0.1980492
0.1989283
0.1998348
0.2008834
0.2033406
0.1887678
0.1896489
0.1903595
0.1909562
0.1914602
0.1917557
0.1926433
0.193472
0.1942372
0.194901
0.1955018
0.1962434
0.1983294
0.1846497
0.1855806
0.1863722
0.1870275
0.187543
0.1878036
0.1886024
0.1893505
0.1900217
0.1906048
0.191016
0.1913609
0.1918858
0.1936086
0.1815833
0.1824779
0.1832508
0.1838913
0.1843865
0.1846211
0.1853666
0.1860626
0.1866955
0.1872372
0.1876312
0.1878659
0.1880727
0.1884399
0.1898927
0.1793142
0.1801775
0.1809268
0.1815497
0.1820313
0.1822608
0.1829815
0.1836608
0.1842837
0.184835
0.1852472
0.1855309
0.1857046
0.1858374
0.1861217
0.1777384
0.1785869
0.1793266
0.1799458
0.1804305
0.1806749
0.1813965
0.1820834
0.1827257
0.1833078
0.1837777
0.184134
0.1844149
0.1845848
0.184712
0.1954484
0.1970295
0.1992265
0.2007036
0.2017067
0.2039011
0.2032026
0.2048013
0.2062962
0.2076315
0.2087538
0.2096123
0.210153
0.2103171
0.2099938
0.2089912
0.2067139
0.2062507
0.2063529
0.208247
0.201626
0.2031995
0.204675
0.2059927
0.2071009
0.2079538
0.2085123
0.2087385
0.2086083
0.2081077
0.2074161
0.2074546
0.2076488
0.2081803
0.2103783
0.2001183
0.2016714
0.203135
0.2044439
0.2055464
0.2064026
0.2069849
0.2072836
0.2073127
0.2071517
0.20698
0.207374
0.2077535
0.2082531
0.2090408
0.21115
0.1986399
0.2001688
0.2016158
0.202912
0.2040061
0.2048624
0.2054623
0.2058104
0.2059467
0.2059604
0.2060291
0.2065749
0.2071284
0.207667
0.2083146
0.2090368
0.2121651
0.1971657
0.1986635
0.2000839
0.2013575
0.2024339
0.2032804
0.2038835
0.204255
0.2044411
0.2045389
0.2047023
0.2053234
0.2059371
0.2065613
0.2071692
0.2077179
0.2093792
0.2124596
0.1956846
0.1971435
0.1985261
0.1997651
0.2008123
0.201637
0.2022275
0.2025959
0.2027889
0.2029
0.2030834
0.2037064
0.2043398
0.2049709
0.2056154
0.2060978
0.2074817
0.2091176
0.2121505
0.1941975
0.1956111
0.1969455
0.1981391
0.1991469
0.1999392
0.2005026
0.2008451
0.2010061
0.2010734
0.201204
0.2017822
0.2023734
0.2029846
0.2036037
0.2041075
0.2053448
0.2066758
0.20825
0.2112392
0.1927168
0.1940796
0.195359
0.1965003
0.1974626
0.198216
0.198743
0.1990414
0.1991337
0.1990896
0.1990767
0.1995446
0.2000438
0.2005777
0.2011525
0.2016243
0.2028194
0.2039787
0.2052166
0.2066871
0.2095472
0.1912629
0.1925739
0.1937966
0.1948853
0.1958023
0.1965174
0.1970067
0.1972527
0.1972453
0.1969997
0.1966553
0.1969166
0.1972569
0.1976764
0.1981654
0.1985958
0.1997056
0.200796
0.2018348
0.2029298
0.2041868
0.2068889
0.1898643
0.1911281
0.1923024
0.1933472
0.1942278
0.1949133
0.1953752
0.195581
0.1954767
0.19494
0.193632
0.1935765
0.193768
0.1941053
0.1945334
0.194901
0.1959218
0.1969019
0.197843
0.1987101
0.199552
0.2005655
0.2030633
0.1875916
0.1884709
0.1891886
0.1898013
0.1903308
0.1906717
0.1915871
0.1924665
0.1932858
0.19404
0.1946467
0.1952223
0.1960108
0.1981512
0.183577
0.1845065
0.185304
0.1859736
0.186514
0.1868166
0.1876481
0.1884391
0.1891785
0.1898398
0.190371
0.1907619
0.1911537
0.1917326
0.1935214
0.1805767
0.1814718
0.1822512
0.1829062
0.1834252
0.1836999
0.1844742
0.1852125
0.1859006
0.1865247
0.1870183
0.1873953
0.1876756
0.1879344
0.1883631
0.1783476
0.1792122
0.1799682
0.1806046
0.1811083
0.1813741
0.1821205
0.1828345
0.1835065
0.1841215
0.1846279
0.1850251
0.1853531
0.1855768
0.1857675
0.1767913
0.1776408
0.1783864
0.1790173
0.1795212
0.1797973
0.1805399
0.1812553
0.1819356
0.1825707
0.1831105
0.1835669
0.183966
0.184295
0.1845199
0.1928092
0.1934053
0.1952201
0.1958791
0.1967711
0.1986823
0.1994887
0.2002265
0.2009284
0.2028547
0.2015557
0.2031059
0.2045538
0.2058463
0.206933
0.2077663
0.2082988
0.2084705
0.2081946
0.2072621
0.2051669
0.20468
0.20455
0.2048296
0.2067427
0.200025
0.2015528
0.2029839
0.2042613
0.2053356
0.2061647
0.2067119
0.2069465
0.2068403
0.2064013
0.205772
0.205869
0.2059955
0.2062727
0.2068672
0.208853
0.1985594
0.2000691
0.2014904
0.2027608
0.203831
0.2046637
0.2052342
0.2055339
0.205583
0.2054507
0.2053295
0.205735
0.2061555
0.2065714
0.2071071
0.2077385
0.2108391
0.1971206
0.1986084
0.2000153
0.2012748
0.2023381
0.2031715
0.2037587
0.2041057
0.2042515
0.2042885
0.2043797
0.2049454
0.2055054
0.2060791
0.2066412
0.2071492
0.2087736
0.2118553
0.1956846
0.1971435
0.1985261
0.1997651
0.2008123
0.201637
0.2022275
0.2025959
0.2027889
0.2029
0.2030834
0.2037064
0.2043398
0.2049709
0.2056154
0.2060978
0.2074817
0.2091176
0.2121505
0.1942402
0.195663
0.1970102
0.1982169
0.1992369
0.2000413
0.2006194
0.2009846
0.2011827
0.2013056
0.2015018
0.2021292
0.2027672
0.203421
0.2040769
0.2046116
0.2058796
0.2072464
0.2088568
0.2118424
0.192789
0.1941687
0.1954704
0.1966343
0.1976171
0.1983907
0.198943
0.1992827
0.1994491
0.1995278
0.1996722
0.2002514
0.2008516
0.2014726
0.20212
0.2026501
0.2039021
0.2051265
0.2064406
0.2079898
0.2108685
0.1913422
0.1926741
0.1939233
0.1950375
0.1959769
0.1967136
0.1972308
0.1975276
0.1976267
0.1975969
0.1976011
0.1980739
0.1985807
0.1991301
0.1997219
0.2002359
0.2014283
0.2026131
0.2037597
0.2049811
0.206373
0.2091696
0.1899208
0.1912028
0.1923982
0.193462
0.1943584
0.1950583
0.1955393
0.1957851
0.195787
0.1955609
0.1952437
0.1955163
0.1958702
0.1963054
0.1968175
0.1972786
0.1984072
0.1995085
0.2005889
0.2016155
0.2026453
0.2038655
0.2066045
0.1885514
0.1897892
0.1909379
0.1919601
0.1928217
0.1934934
0.1939479
0.1941544
0.1940616
0.1935523
0.1923005
0.1922674
0.1924778
0.1928346
0.1932847
0.1936879
0.1947217
0.1957352
0.1967069
0.1976381
0.1984476
0.1992628
0.2003238
0.202875
0.1864287
0.1873044
0.1880263
0.1886503
0.1891993
0.1895735
0.1905102
0.1914183
0.1922893
0.1930992
0.193801
0.1943867
0.1950098
0.195853
0.19806
0.1825117
0.1834382
0.1842388
0.1849189
0.1854784
0.1858149
0.1866673
0.1874916
0.1882747
0.1890054
0.1896183
0.190132
0.190569
0.1910133
0.1916543
0.1795744
0.1804685
0.1812521
0.1819177
0.1824557
0.1827629
0.1835585
0.1843262
0.1850572
0.1857373
0.1863163
0.1867947
0.1872161
0.1875467
0.1878639
0.1773839
0.1782485
0.1790091
0.1796559
0.1801773
0.1804731
0.1812386
0.1819789
0.1826863
0.1833511
0.1839236
0.1844165
0.1848566
0.1852327
0.1855116
0.1758469
0.1766964
0.177446
0.1780862
0.1786057
0.1789082
0.1796667
0.1804037
0.181113
0.1817866
0.1823815
0.182909
0.183407
0.1838524
0.1842339
0.1915031
0.1910444
0.1925979
0.1925102
0.1931993
0.1947711
0.1949737
0.1956416
0.1962881
0.1979282
0.1983539
0.199044
0.1995114
0.2000158
0.2017326
0.1999569
0.2014621
0.2028668
0.2041199
0.2051738
0.2059841
0.2065065
0.2066891
0.2064442
0.2055949
0.203639
0.2032509
0.203094
0.2031515
0.2035318
0.2052558
0.1984689
0.1999541
0.2013442
0.2025842
0.2036275
0.2044343
0.2049711
0.2052094
0.2051293
0.2047326
0.2041779
0.2043073
0.2044962
0.2047157
0.2050755
0.2055558
0.2085434
0.1970424
0.1985117
0.1998938
0.2011284
0.2021687
0.2029796
0.2035385
0.2038391
0.2039015
0.2037993
0.2037103
0.2041448
0.2045822
0.2050449
0.2055089
0.2059305
0.2074737
0.2105298
0.1956407
0.1970901
0.1984595
0.1996849
0.2007195
0.2015317
0.2021068
0.2024517
0.2026061
0.2026592
0.2027738
0.2033448
0.2039281
0.2045132
0.2051169
0.205564
0.206912
0.2085113
0.2115467
0.1942402
0.195663
0.1970102
0.1982169
0.1992369
0.2000413
0.2006194
0.2009846
0.2011827
0.2013056
0.2015018
0.2021292
0.2027672
0.203421
0.2040769
0.2046116
0.2058796
0.2072464
0.2088568
0.2118424
0.1928306
0.1942193
0.1955334
0.1967099
0.1977045
0.1984898
0.1990563
0.1994178
0.19962
0.1997521
0.1999593
0.2005851
0.2012294
0.2018901
0.2025711
0.2031287
0.2044073
0.2056623
0.2070119
0.2085969
0.2114708
0.1914126
0.1927608
0.1940318
0.1951678
0.1961272
0.1968833
0.197425
0.1977617