/*--------------------------------*- C++ -*----------------------------------*\
| =========                 |                                                 |
| \\      /  F ield         | OpenFOAM: The Open Source CFD Toolbox           |
|  \\    /   O peration     | Version:  2306                                  |
|   \\  /    A nd           | Website:  www.openfoam.com                      |
|    \\/     M anipulation  |                                                 |
\*---------------------------------------------------------------------------*/
FoamFile
{
    version     2.0;
    format      ascii;
    arch        "LSB;label=32;scalar=64";
    class       volScalarField;
    location    "0.6/air";
    object      T;
}
// * * * * * * * * * * * * * * * * * * * * * * * * * * * * * * * * * * * * * //

dimensions      [0 0 0 1 0 0 0];

internalField   nonuniform List<scalar> 
16000
(
1146.05
1134.636
1159.288
1134.437
1128.317
1156.555
1106.712
1162.592
1156.509
1127.942
1124.723
1154.193
1089.461
1161.531
1148.443
1089.179
1165.232
1161.575
1154.095
1124.137
1123.053
1152.458
1079.125
1160.582
1141.38
1063.301
1164.746
1158.462
1141.268
1078.371
1167.555
1164.825
1160.658
1152.287
1122.186
1123.053
1151.541
1074.228
1159.859
1136.155
1047.103
1164.324
1155.629
1129.846
1046.465
1167.289
1163.452
1155.653
1135.835
1072.727
1169.661
1167.374
1164.465
1159.961
1151.27
1121.8
1159.075
1124.723
1151.541
1074.228
1159.466
1133.379
1039.239
1164.006
1153.445
1121.29
1025.897
1167.069
1162.223
1151.023
1120.995
1037.459
1169.486
1166.664
1162.299
1153.475
1132.749
1071.657
1171.599
1169.568
1167.224
1164.212
1159.597
1151.162
1122.956
1159.01
1161.644
1160.663
1128.317
1152.458
1079.125
1159.466
1133.379
1039.239
1163.834
1152.253
1116.716
1015.742
1166.909
1161.282
1147.412
1109.762
1014.356
1169.349
1166.049
1160.32
1147.4
1115.919
1035.733
1171.463
1169.124
1166.139
1161.45
1152.288
1132.379
1075.12
1173.396
1171.539
1169.498
1167.138
1164.118
1159.648
1152
1125.87
1158.864
1161.636
1160.566
1164.17
1163.098
1162.261
1134.636
1154.193
1089.461
1159.859
1136.155
1047.103
1163.834
1152.253
1116.716
1015.742
1166.824
1160.768
1145.427
1103.717
1002.842
1169.252
1165.59
1158.784
1142.614
1103.096
1012.116
1171.36
1168.755
1165.177
1158.889
1145.387
1115.275
1041.274
1173.28
1171.207
1168.844
1165.797
1161.067
1152.34
1134.831
1083.59
1175.071
1173.348
1171.498
1169.473
1167.142
1164.222
1160.142
1153.752
1131.214
1158.58
1161.623
1160.334
1164.175
1163.091
1162.138
1166.485
1165.45
1164.553
1163.874
1146.05
1156.555
1106.712
1160.582
1141.38
1063.301
1164.006
1153.445
1121.29
1025.897
1166.824
1160.768
1145.427
1103.717
1002.842
1169.201
1165.345
1157.939
1139.969
1096.166
1000.321
1171.29
1168.489
1164.449
1156.876
1139.913
1102.217
1019.213
1173.193
1170.939
1168.285
1164.589
1158.206
1145.408
1119.229
1054.564
1174.966
1173.069
1171.021
1168.694
1165.715
1161.269
1153.708
1139.95
1098.372
1176.638
1175.028
1173.318
1171.494
1169.51
1167.257
1164.546
1161.072
1156.363
1140.908
1157.776
1161.618
1159.833
1164.192
1163.081
1161.841
1166.494
1165.464
1164.546
1163.734
1168.613
1167.603
1166.727
1166.009
1165.505
1159.288
1134.437
1161.531
1148.443
1089.179
1164.324
1155.629
1129.846
1046.465
1166.909
1161.282
1147.412
1109.762
1014.356
1169.201
1165.345
1157.939
1139.969
1096.166
1000.321
1171.254
1168.349
1164.055
1155.762
1136.876
1095.151
1008.251
1173.135
1170.75
1167.876
1163.661
1155.938
1139.89
1107.342
1036.019
1174.889
1172.847
1170.627
1168.018
1164.411
1158.472
1147.574
1127.442
1076.856
1176.541
1174.777
1172.922
1170.942
1168.718
1165.952
1162.106
1156.305
1147.359
1122.564
1178.107
1176.598
1175.002
1173.321
1171.539
1169.62
1167.5
1165.105
1162.45
1159.937
1152.038
1161.71
1158.52
1164.242
1163.087
1161.208
1166.518
1165.505
1164.535
1163.397
1168.622
1167.623
1166.748
1166.001
1165.356
1170.581
1169.592
1168.718
1168
1167.465
1166.378
1162.592
1156.509
1127.942
1164.746
1158.462
1141.268
1078.371
1167.069
1162.223
1151.023
1120.995
1037.459
1169.252
1165.59
1158.784
1142.614
1103.096
1012.116
1171.254
1168.349
1164.055
1155.762
1136.876
1095.151
1008.251
1173.105
1170.653
1167.659
1163.155
1154.675
1136.822
1100.918
1026.909
1174.837
1172.693
1170.346
1167.515
1163.398
1156.236
1142.679
1117.946
1063.476
1176.469
1174.579
1172.6
1170.479
1168.021
1164.74
1159.752
1151.679
1139.096
1110.943
1178.017
1176.366
1174.648
1172.868
1170.999
1168.952
1166.547
1163.571
1159.949
1156.544
1145.147
1179.489
1178.069
1176.573
1175.006
1173.365
1171.641
1169.82
1167.894
1165.962
1164.54
1163.002
1154.082
1164.489
1163.207
1159.751
1166.582
1165.618
1164.538
1162.707
1168.647
1167.676
1166.805
1165.987
1165.003
1170.59
1169.613
1168.747
1168.026
1167.457
1166.228
1172.412
1171.444
1170.568
1169.827
1169.269
1168.235
1166.471
1165.232
1161.575
1154.095
1124.137
1167.289
1163.452
1155.653
1135.835
1072.727
1169.349
1166.049
1160.32
1147.4
1115.919
1035.733
1171.29
1168.489
1164.449
1156.876
1139.913
1102.217
1019.213
1173.105
1170.653
1167.659
1163.155
1154.675
1136.822
1100.918
1026.909
1174.811
1172.615
1170.2
1167.246
1162.84
1154.986
1139.954
1112.824
1056.997
1176.422
1174.444
1172.375
1170.145
1167.496
1163.783
1157.846
1147.953
1132.798
1103.762
1177.95
1176.183
1174.362
1172.497
1170.54
1168.349
1165.62
1161.979
1157.258
1152.964
1139.683
1179.404
1177.851
1176.245
1174.603
1172.931
1171.216
1169.426
1167.525
1165.647
1164.511
1162.273
1148.664
1180.79
1179.452
1178.045
1176.576
1175.046
1173.458
1171.814
1170.133
1168.518
1167.431
1166.864
1163.857
1156.266
1166.855
1166.007
1164.618
1161.296
1168.711
1167.814
1166.949
1165.976
1164.315
1170.614
1169.667
1168.821
1168.092
1167.438
1165.878
1172.421
1171.464
1170.598
1169.862
1169.297
1168.227
1166.322
1174.124
1173.178
1172.303
1171.538
1170.931
1169.937
1168.318
1166.565
1167.555
1164.825
1160.658
1152.287
1122.186
1169.486
1166.664
1162.299
1153.475
1132.749
1071.657
1171.36
1168.755
1165.177
1158.889
1145.387
1115.275
1041.274
1173.135
1170.75
1167.876
1163.661
1155.938
1139.89
1107.342
1036.019
1174.811
1172.615
1170.2
1167.246
1162.84
1154.986
1139.954
1112.824
1056.997
1176.398
1174.375
1172.259
1169.971
1167.212
1163.252
1156.773
1145.87
1129.396
1100.289
1177.905
1176.058
1174.165
1172.235
1170.206
1167.885
1164.864
1160.638
1154.998
1150.104
1136.008
1179.341
1177.68
1175.983
1174.276
1172.572
1170.847
1169.037
1167.049
1164.995
1163.767
1161.031
1144.13
1180.71
1179.247
1177.738
1176.204
1174.663
1173.13
1171.621
1170.176
1168.936
1168.41
1167.545
1163.35
1152.015
1182.016
1180.754
1179.429
1178.047
1176.613
1175.131
1173.612
1172.081
1170.637
1169.68
1169.357
1167.533
1164.905
1158.556
1168.974
1168.253
1167.34
1165.998
1163.045
1170.674
1169.804
1168.997
1168.239
1167.409
1165.211
1172.444
1171.516
1170.673
1169.948
1169.365
1168.206
1165.973
1174.132
1173.197
1172.332
1171.575
1170.969
1169.966
1168.309
1166.416
1175.728
1174.808
1173.941
1173.158
1172.503
1171.511
1170.008
1168.401
1166.66
1169.661
1167.374
1164.465
1159.961
1151.27
1121.8
1171.463
1169.124
1166.139
1161.45
1152.288
1132.379
1075.12
1173.193
1170.939
1168.285
1164.589
1158.206
1145.408
1119.229
1054.564
1174.837
1172.693
1170.346
1167.515
1163.398
1156.236
1142.679
1117.946
1063.476
1176.398
1174.375
1172.259
1169.971
1167.212
1163.252
1156.773
1145.87
1129.396
1100.289
1177.883
1175.995
1174.064
1172.1
1170.03
1167.631
1164.437
1159.869
1153.713
1148.532
1134.169
1179.299
1177.564
1175.801
1174.048
1172.316
1170.571
1168.716
1166.605
1164.327
1162.96
1159.914
1141.002
1180.65
1179.086
1177.491
1175.903
1174.349
1172.853
1171.428
1170.105
1168.999
1168.631
1167.604
1162.406
1148.321
1181.941
1180.56
1179.138
1177.697
1176.258
1174.845
1173.489
1172.251
1171.272
1170.918
1170.412
1168.166
1164.511
1155.255
1183.174
1181.982
1180.732
1179.429
1178.08
1176.69
1175.271
1173.849
1172.516
1171.621
1171.339
1169.917
1168.345
1166.07
1160.922
1170.917
1170.23
1169.452
1168.573
1167.371
1164.036
1172.499
1171.645
1170.85
1170.134
1169.499
1168.167
1165.308
1174.153
1173.246
1172.405
1171.663
1171.059
1170.031
1168.288
1166.067
1175.736
1174.826
1173.968
1173.193
1172.543
1171.55
1170.037
1168.392
1166.511
1177.235
1176.344
1175.49
1174.699
1174.007
1173.009
1171.573
1170.08
1168.483
1166.754
1171.599
1169.568
1167.224
1164.212
1159.597
1151.162
1122.956
1173.28
1171.207
1168.844
1165.797
1161.067
1152.34
1134.831
1083.59
1174.889
1172.847
1170.627
1168.018
1164.411
1158.472
1147.574
1127.442
1076.856
1176.422
1174.444
1172.375
1170.145
1167.496
1163.783
1157.846
1147.953
1132.798
1103.762
1177.883
1175.995
1174.064
1172.1
1170.03
1167.631
1164.437
1159.869
1153.713
1148.532
1134.169
1179.278
1177.505
1175.709
1173.931
1172.183
1170.423
1168.534
1166.34
1163.917
1162.465
1159.274
1139.421
1180.611
1178.976
1177.321
1175.694
1174.129
1172.651
1171.268
1169.991
1168.91
1168.583
1167.462
1161.529
1145.715
1181.885
1180.408
1178.906
1177.415
1175.97
1174.606
1173.367
1172.312
1171.571
1171.441
1170.881
1168.298
1163.789
1152.312
1183.103
1181.799
1180.457
1179.099
1177.746
1176.425
1175.17
1174.044
1173.178
1172.865
1172.445
1170.85
1168.871
1165.737
1158.419
1184.267
1183.141
1181.96
1180.732
1179.46
1178.152
1176.818
1175.485
1174.236
1173.379
1173.08
1171.823
1170.594
1169.234
1167.305
1162.199
1172.721
1172.041
1171.297
1170.54
1169.754
1168.1
1164.143
1174.204
1173.365
1172.572
1171.852
1171.236
1170.154
1168.248
1165.406
1175.755
1174.871
1174.036
1173.279
1172.637
1171.639
1170.103
1168.371
1166.163
1177.243
1176.361
1175.515
1174.732
1174.046
1173.05
1171.612
1170.109
1168.475
1166.605
1178.655
1177.794
1176.958
1176.167
1175.451
1174.452
1173.064
1171.635
1170.151
1168.566
1166.843
1173.396
1171.539
1169.498
1167.138
1164.118
1159.648
1152
1125.87
1174.966
1173.069
1171.021
1168.694
1165.715
1161.269
1153.708
1139.95
1098.372
1176.469
1174.579
1172.6
1170.479
1168.021
1164.74
1159.752
1151.679
1139.096
1110.943
1177.905
1176.058
1174.165
1172.235
1170.206
1167.885
1164.864
1160.638
1154.998
1150.104
1136.008
1179.278
1177.505
1175.709
1173.931
1172.183
1170.423
1168.534
1166.34
1163.917
1162.465
1159.274
1139.421
1180.591
1178.92
1177.235
1175.587
1174.015
1172.545
1171.178
1169.912
1168.825
1168.505
1167.339
1161.02
1144.383
1181.847
1180.304
1178.745
1177.219
1175.768
1174.435
1173.265
1172.312
1171.682
1171.65
1171.073
1168.234
1163.107
1150.195
1183.049
1181.654
1180.237
1178.832
1177.475
1176.205
1175.07
1174.142
1173.532
1173.456
1173.019
1171.313
1169.027
1165.182
1156.148
1184.2
1182.968
1181.7
1180.418
1179.143
1177.899
1176.723
1175.672
1174.864
1174.547
1174.134
1172.792
1171.364
1169.637
1167.008
1160.064
1185.3
1184.236
1183.121
1181.96
1180.76
1179.526
1178.27
1177.015
1175.837
1175.011
1174.682
1173.507
1172.407
1171.33
1170.165
1167.979
1162.336
1174.406
1173.728
1172.99
1172.257
1171.565
1170.365
1168.178
1164.252
1175.802
1174.982
1174.192
1173.459
1172.819
1171.805
1170.224
1168.329
1165.504
1177.261
1176.403
1175.579
1174.812
1174.137
1173.143
1171.701
1170.174
1168.453
1166.258
1178.662
1177.81
1176.982
1176.198
1175.488
1174.492
1173.104
1171.674
1170.18
1168.557
1166.694
1179.994
1179.166
1178.351
1177.567
1176.839
1175.845
1174.5
1173.118
1171.697
1170.223
1168.644
1166.911
1175.071
1173.348
1171.498
1169.473
1167.142
1164.222
1160.142
1153.752
1131.214
1176.541
1174.777
1172.922
1170.942
1168.718
1165.952
1162.106
1156.305
1147.359
1122.564
1177.95
1176.183
1174.362
1172.497
1170.54
1168.349
1165.62
1161.979
1157.258
1152.964
1139.683
1179.299
1177.564
1175.801
1174.048
1172.316
1170.571
1168.716
1166.605
1164.327
1162.96
1159.914
1141.002
1180.591
1178.92
1177.235
1175.587
1174.015
1172.545
1171.178
1169.912
1168.825
1168.505
1167.339
1161.02
1144.383
1181.828
1180.251
1178.664
1177.119
1175.664
1174.345
1173.208
1172.298
1171.712
1171.718
1171.136
1168.159
1162.708
1149.101
1183.014
1181.556
1180.085
1178.647
1177.285
1176.048
1174.989
1174.175
1173.702
1173.74
1173.311
1171.522
1169.014
1164.659
1154.486
1184.149
1182.831
1181.491
1180.165
1178.886
1177.691
1176.63
1175.77
1175.214
1175.125
1174.71
1173.336
1171.787
1169.786
1166.582
1158.114
1185.236
1184.071
1182.874
1181.663
1180.459
1179.285
1178.175
1177.184
1176.415
1176.084
1175.654
1174.428
1173.207
1171.933
1170.446
1167.695
1160.239
1186.275
1185.27
1184.216
1183.12
1181.986
1180.821
1179.636
1178.452
1177.338
1176.541
1176.185
1175.062
1174.02
1173.04
1172.096
1170.669
1168.051
1162.473
1175.987
1175.313
1174.577
1173.841
1173.155
1172.09
1170.43
1168.257
1164.361
1177.305
1176.506
1175.724
1174.981
1174.312
1173.316
1171.866
1170.294
1168.411
1165.603
1178.679
1177.85
1177.042
1176.274
1175.574
1174.583
1173.198
1171.763
1170.246
1168.536
1166.348
1180.001
1179.181
1178.373
1177.597
1176.874
1175.883
1174.54
1173.159
1171.736
1170.252
1168.635
1166.763
1181.259
1180.464
1179.674
1178.903
1178.172
1177.191
1175.888
1174.548
1173.172
1171.759
1170.29
1168.703
1166.966
1176.638
1175.028
1173.318
1171.494
1169.51
1167.257
1164.546
1161.072
1156.363
1140.908
1178.017
1176.366
1174.648
1172.868
1170.999
1168.952
1166.547
1163.571
1159.949
1156.544
1145.147
1179.341
1177.68
1175.983
1174.276
1172.572
1170.847
1169.037
1167.049
1164.995
1163.767
1161.031
1144.13
1180.611
1178.976
1177.321
1175.694
1174.129
1172.651
1171.268
1169.991
1168.91
1168.583
1167.462
1161.529
1145.715
1181.828
1180.251
1178.664
1177.119
1175.664
1174.345
1173.208
1172.298
1171.712
1171.718
1171.136
1168.159
1162.708
1149.101
1182.996
1181.506
1180.008
1178.552
1177.188
1175.967
1174.943
1174.182
1173.767
1173.854
1173.433
1171.599
1168.973
1164.351
1153.618
1184.115
1182.737
1181.347
1179.989
1178.706
1177.544
1176.556
1175.81
1175.391
1175.415
1175.019
1173.624
1171.995
1169.803
1166.19
1156.675
1185.188
1183.942
1182.676
1181.422
1180.214
1179.086
1178.085
1177.273
1176.741
1176.624
1176.198
1174.968
1173.694
1172.297
1170.57
1167.324
1158.324
1186.214
1185.114
1183.982
1182.838
1181.7
1180.591
1179.542
1178.602
1177.867
1177.524
1177.076
1175.913
1174.783
1173.672
1172.54
1170.888
1167.769
1160.415
1187.195
1186.247
1185.251
1184.215
1183.144
1182.044
1180.924
1179.806
1178.751
1177.984
1177.608
1176.528
1175.52
1174.576
1173.696
1172.508
1170.723
1168.124
1162.611
1177.475
1176.81
1176.078
1175.336
1174.635
1173.612
1172.146
1170.495
1168.335
1164.471
1178.72
1177.945
1177.176
1176.431
1175.74
1174.751
1173.369
1171.926
1170.364
1168.493
1165.697
1180.017
1179.218
1178.43
1177.668
1176.955
1175.97
1174.63
1173.252
1171.825
1170.317
1168.613
1166.418
1181.265
1180.478
1179.695
1178.931
1178.205
1177.227
1175.926
1174.587
1173.213
1171.798
1170.319
1168.694
1166.818
1182.454
1181.693
1180.931
1180.178
1179.451
1178.488
1177.228
1175.93
1174.595
1173.226
1171.817
1170.34
1168.749
1167.005
1178.107
1176.598
1175.002
1173.321
1171.539
1169.62
1167.5
1165.105
1162.45
1159.937
1152.038
1179.404
1177.851
1176.245
1174.603
1172.931
1171.216
1169.426
1167.525
1165.647
1164.511
1162.273
1148.664
1180.65
1179.086
1177.491
1175.903
1174.349
1172.853
1171.428
1170.105
1168.999
1168.631
1167.604
1162.406
1148.321
1181.847
1180.304
1178.745
1177.219
1175.768
1174.435
1173.265
1172.312
1171.682
1171.65
1171.073
1168.234
1163.107
1150.195
1182.996
1181.506
1180.008
1178.552
1177.188
1175.967
1174.943
1174.182
1173.767
1173.854
1173.433
1171.599
1168.973
1164.351
1153.618
1184.098
1182.69
1181.274
1179.9
1178.614
1177.467
1176.515
1175.821
1175.463
1175.539
1175.155
1173.748
1172.077
1169.785
1165.961
1155.92
1185.156
1183.853
1182.539
1181.256
1180.043
1178.945
1178.013
1177.309
1176.908
1176.901
1176.496
1175.267
1173.964
1172.489
1170.601
1166.991
1156.909
1186.169
1184.991
1183.794
1182.61
1181.467
1180.401
1179.453
1178.68
1178.165
1178.021
1177.58
1176.422
1175.265
1174.087
1172.834
1170.994
1167.403
1158.533
1187.138
1186.099
1185.03
1183.948
1182.873
1181.824
1180.831
1179.94
1179.236
1178.886
1178.426
1177.309
1176.227
1175.182
1174.171
1172.874
1170.935
1167.843
1160.59
1188.064
1187.169
1186.229
1185.251
1184.239
1183.199
1182.14
1181.083
1180.084
1179.348
1178.962
1177.92
1176.939
1176.014
1175.151
1174.048
1172.553
1170.777
1168.197
1162.749
1178.878
1178.227
1177.503
1176.76
1176.043
1175.037
1173.661
1172.202
1170.56
1168.414
1164.575
1180.055
1179.307
1178.556
1177.815
1177.111
1176.129
1174.798
1173.422
1171.987
1170.434
1168.569
1165.769
1181.28
1180.513
1179.749
1178.999
1178.282
1177.308
1176.012
1174.678
1173.306
1171.887
1170.384
1168.672
1166.474
1182.46
1181.707
1180.951
1180.205
1179.483
1178.522
1177.264
1175.968
1174.635
1173.267
1171.856
1170.369
1168.74
1166.858
1183.585
1182.859
1182.126
1181.395
1180.678
1179.738
1178.522
1177.266
1175.972
1174.643
1173.277
1171.86
1170.378
1168.782
1167.03
1157.776
1179.489
1178.069
1176.573
1175.006
1173.365
1171.641
1169.82
1167.894
1165.962
1164.54
1163.002
1154.082
1180.71
1179.247
1177.738
1176.204
1174.663
1173.13
1171.621
1170.176
1168.936
1168.41
1167.545
1163.35
1152.015
1181.885
1180.408
1178.906
1177.415
1175.97
1174.606
1173.367
1172.312
1171.571
1171.441
1170.881
1168.298
1163.789
1152.312
1183.014
1181.556
1180.085
1178.647
1177.285
1176.048
1174.989
1174.175
1173.702
1173.74
1173.311
1171.522
1169.014
1164.659
1154.486
1184.098
1182.69
1181.274
1179.9
1178.614
1177.467
1176.515
1175.821
1175.463
1175.539
1175.155
1173.748
1172.077
1169.785
1165.961
1155.92
1185.14
1183.808
1182.469
1181.171
1179.956
1178.872
1177.974
1177.32
1176.978
1177.02
1176.63
1175.401
1174.084
1172.57
1170.599
1166.798
1156.165
1186.138
1184.907
1183.665
1182.451
1181.305
1180.266
1179.383
1178.712
1178.319
1178.278
1177.859
1176.709
1175.542
1174.329
1173.002
1171.027
1167.077
1157.141
1187.095
1185.982
1184.852
1183.732
1182.652
1181.643
1180.744
1180.009
1179.509
1179.344
1178.891
1177.78
1176.681
1175.594
1174.508
1173.129
1171.039
1167.483
1158.74
1188.009
1187.029
1186.019
1184.997
1183.981
1182.99
1182.05
1181.205
1180.531
1180.181
1179.715
1178.638
1177.59
1176.58
1175.613
1174.446
1172.91
1170.983
1167.917
1160.764
1188.882
1188.039
1187.153
1186.229
1185.273
1184.29
1183.29
1182.29
1181.344
1180.639
1180.25
1179.247
1178.293
1177.384
1176.525
1175.459
1174.086
1172.597
1170.832
1168.271
1162.879
1180.202
1179.569
1178.859
1178.121
1177.394
1176.401
1175.08
1173.71
1172.257
1170.625
1168.488
1164.657
1181.317
1180.598
1179.867
1179.137
1178.429
1177.46
1176.171
1174.844
1173.475
1172.047
1170.499
1168.627
1165.827
1182.475
1181.741
1181.002
1180.269
1179.556
1178.6
1177.346
1176.054
1174.726
1173.36
1171.945
1170.433
1168.717
1166.514
1183.591
1182.872
1182.145
1181.42
1180.708
1179.771
1178.556
1177.302
1176.01
1174.683
1173.318
1171.899
1170.407
1168.772
1166.882
1184.655
1183.964
1183.261
1182.555
1181.854
1180.94
1179.769
1178.556
1177.304
1176.014
1174.687
1173.313
1171.891
1170.404
1168.8
1158.58
1161.71
1158.52
1180.79
1179.452
1178.045
1176.576
1175.046
1173.458
1171.814
1170.133
1168.518
1167.431
1166.864
1163.857
1156.266
1181.941
1180.56
1179.138
1177.697
1176.258
1174.845
1173.489
1172.251
1171.272
1170.918
1170.412
1168.166
1164.511
1155.255
1183.049
1181.654
1180.237
1178.832
1177.475
1176.205
1175.07
1174.142
1173.532
1173.456
1173.019
1171.313
1169.027
1165.182
1156.148
1184.115
1182.737
1181.347
1179.989
1178.706
1177.544
1176.556
1175.81
1175.391
1175.415
1175.019
1173.624
1171.995
1169.803
1166.19
1156.675
1185.14
1183.808
1182.469
1181.171
1179.956
1178.872
1177.974
1177.32
1176.978
1177.02
1176.63
1175.401
1174.084
1172.57
1170.599
1166.798
1156.165
1186.123
1184.864
1183.599
1182.371
1181.222
1180.197
1179.344
1178.721
1178.384
1178.39
1177.985
1176.839
1175.669
1174.44
1173.077
1171.03
1166.888
1156.409
1187.066
1185.903
1184.729
1183.581
1182.497
1181.514
1180.676
1180.035
1179.65
1179.582
1179.151
1178.049
1176.947
1175.841
1174.716
1173.282
1171.072
1167.163
1157.371
1187.968
1186.919
1185.851
1184.792
1183.771
1182.817
1181.966
1181.266
1180.783
1180.604
1180.146
1179.074
1178.013
1176.97
1175.95
1174.742
1173.161
1171.085
1167.563
1158.947
1188.83
1187.907
1186.954
1185.989
1185.029
1184.092
1183.203
1182.402
1181.76
1181.413
1180.948
1179.909
1178.894
1177.908
1176.962
1175.851
1174.476
1172.946
1171.031
1167.991
1160.927
1189.652
1188.86
1188.024
1187.153
1186.25
1185.322
1184.377
1183.431
1182.535
1181.863
1181.477
1180.512
1179.588
1178.696
1177.843
1176.799
1175.492
1174.124
1172.641
1170.886
1168.34
1162.985
1181.455
1180.842
1180.15
1179.422
1178.695
1177.715
1176.439
1175.123
1173.758
1172.313
1170.686
1168.543
1164.724
1182.509
1181.821
1181.114
1180.4
1179.695
1178.743
1177.497
1176.212
1174.891
1173.528
1172.104
1170.547
1168.671
1165.871
1183.604
1182.904
1182.194
1181.481
1180.778
1179.844
1178.634
1177.384
1176.096
1174.773
1173.41
1171.987
1170.471
1168.749
1166.539
1184.66
1183.976
1183.28
1182.579
1181.883
1180.971
1179.801
1178.59
1177.34
1176.052
1174.727
1173.354
1171.93
1170.432
1168.79
1185.667
1185.011
1184.341
1183.661
1182.98
1182.095
1180.968
1179.8
1178.59
1177.341
1176.054
1174.719
1173.339
1171.911
1170.417
1158.864
1161.618
1159.833
1164.489
1163.207
1159.751
1182.016
1180.754
1179.429
1178.047
1176.613
1175.131
1173.612
1172.081
1170.637
1169.68
1169.357
1167.533
1164.905
1158.556
1183.103
1181.799
1180.457
1179.099
1177.746
1176.425
1175.17
1174.044
1173.178
1172.865
1172.445
1170.85
1168.871
1165.737
1158.419
1184.149
1182.831
1181.491
1180.165
1178.886
1177.691
1176.63
1175.77
1175.214
1175.125
1174.71
1173.336
1171.787
1169.786
1166.582
1158.114
1185.156
1183.853
1182.539
1181.256
1180.043
1178.945
1178.013
1177.309
1176.908
1176.901
1176.496
1175.267
1173.964
1172.489
1170.601
1166.991
1156.909
1186.123
1184.864
1183.599
1182.371
1181.222
1180.197
1179.344
1178.721
1178.384
1178.39
1177.985
1176.839
1175.669
1174.44
1173.077
1171.03
1166.888
1156.409
1187.051
1185.862
1184.666
1183.505
1182.418
1181.448
1180.639
1180.042
1179.709
1179.686
1179.269
1178.172
1177.069
1175.957
1174.813
1173.352
1171.076
1166.977
1156.651
1187.941
1186.843
1185.734
1184.65
1183.625
1182.695
1181.9
1181.289
1180.913
1180.825
1180.388
1179.324
1178.262
1177.208
1176.162
1174.929
1173.312
1171.118
1167.248
1157.601
1188.792
1187.803
1186.795
1185.795
1184.83
1183.928
1183.123
1182.458
1181.994
1181.807
1181.35
1180.314
1179.286
1178.273
1177.283
1176.148
1174.767
1173.193
1171.131
1167.642
1159.14
1189.603
1188.734
1187.836
1186.926
1186.02
1185.135
1184.295
1183.537
1182.925
1182.587
1182.128
1181.128
1180.145
1179.183
1178.252
1177.173
1175.877
1174.506
1172.983
1171.079
1168.061
1161.063
1190.375
1189.632
1188.846
1188.024
1187.173
1186.297
1185.404
1184.511
1183.663
1183.024
1182.646
1181.72
1180.827
1179.957
1179.113
1178.089
1176.829
1175.525
1174.162
1172.686
1170.937
1168.391
1163.074
1182.639
1182.051
1181.38
1180.667
1179.945
1178.984
1177.75
1176.477
1175.166
1173.806
1172.365
1170.73
1168.584
1164.776
1183.637
1182.98
1182.3
1181.605
1180.91
1179.98
1178.777
1177.534
1176.254
1174.937
1173.577
1172.145
1170.583
1168.701
1165.898
1184.673
1184.007
1183.327
1182.638
1181.95
1181.042
1179.875
1178.668
1177.422
1176.139
1174.817
1173.446
1172.018
1170.495
1168.766
1185.672
1185.023
1184.359
1183.684
1183.008
1182.124
1180.999
1179.832
1178.624
1177.378
1176.092
1174.759
1173.38
1171.95
1170.445
1186.624
1186.004
1185.366
1184.715
1184.056
1183.202
1182.12
1180.996
1179.83
1178.624
1177.377
1176.081
1174.74
1173.354
1171.919
1159.01
1161.623
1160.334
1164.242
1163.087
1161.208
1166.855
1166.007
1164.618
1161.296
1183.174
1181.982
1180.732
1179.429
1178.08
1176.69
1175.271
1173.849
1172.516
1171.621
1171.339
1169.917
1168.345
1166.07
1160.922
1184.2
1182.968
1181.7
1180.418
1179.143
1177.899
1176.723
1175.672
1174.864
1174.547
1174.134
1172.792
1171.364
1169.637
1167.008
1160.064
1185.188
1183.942
1182.676
1181.422
1180.214
1179.086
1178.085
1177.273
1176.741
1176.624
1176.198
1174.968
1173.694
1172.297
1170.57
1167.324
1158.324
1186.138
1184.907
1183.665
1182.451
1181.305
1180.266
1179.383
1178.712
1178.319
1178.278
1177.859
1176.709
1175.542
1174.329
1173.002
1171.027
1167.077
1157.141
1187.051
1185.862
1184.666
1183.505
1182.418
1181.448
1180.639
1180.042
1179.709
1179.686
1179.269
1178.172
1177.069
1175.957
1174.813
1173.352
1171.076
1166.977
1156.651
1187.927
1186.805
1185.675
1184.577
1183.55
1182.631
1181.864
1181.294
1180.967
1180.921
1180.498
1179.439
1178.378
1177.32
1176.264
1175.019
1173.381
1171.123
1167.066
1156.892
1188.766
1187.731
1186.684
1185.66
1184.692
1183.812
1183.06
1182.478
1182.114
1182.014
1181.576
1180.548
1179.519
1178.497
1177.489
1176.341
1174.952
1173.342
1171.164
1167.334
1157.815
1189.567
1188.636
1187.686
1186.743
1185.832
1184.98
1184.218
1183.588
1183.145
1182.956
1182.504
1181.506
1180.51
1179.524
1178.556
1177.459
1176.169
1174.792
1173.226
1171.177
1167.717
1159.302
1190.329
1189.514
1188.669
1187.811
1186.956
1186.121
1185.328
1184.611
1184.032
1183.705
1183.257
1182.296
1181.346
1180.411
1179.496
1178.442
1177.195
1175.902
1174.536
1173.019
1171.124
1168.112
1161.181
1191.054
1190.357
1189.619
1188.846
1188.045
1187.218
1186.376
1185.532
1184.731
1184.125
1183.759
1182.873
1182.012
1181.166
1180.337
1179.336
1178.116
1176.858
1175.558
1174.2
1172.728
1170.973
1168.427
1163.146
1183.761
1183.198
1182.551
1181.858
1181.147
1180.209
1179.015
1177.784
1176.515
1175.208
1173.851
1172.401
1170.761
1168.611
1164.812
1184.705
1184.08
1183.428
1182.756
1182.076
1181.171
1180.011
1178.81
1177.571
1176.295
1174.98
1173.612
1172.174
1170.606
1168.717
1185.685
1185.053
1184.404
1183.741
1183.072
1182.192
1181.07
1179.906
1178.702
1177.459
1176.178
1174.849
1173.472
1172.036
1170.507
1186.629
1186.016
1185.384
1184.737
1184.083
1183.231
1182.15
1181.027
1179.863
1178.658
1177.413
1176.119
1174.78
1173.395
1171.957
1187.528
1186.944
1186.34
1185.718
1185.085
1184.263
1183.226
1182.146
1181.024
1179.861
1178.656
1177.4
1176.098
1174.751
1173.357
1159.075
1161.636
1160.566
1164.192
1163.081
1161.841
1166.582
1165.618
1164.538
1162.707
1168.974
1168.253
1167.34
1165.998
1163.045
1184.267
1183.141
1181.96
1180.732
1179.46
1178.152
1176.818
1175.485
1174.236
1173.379
1173.08
1171.823
1170.594
1169.234
1167.305
1162.199
1185.236
1184.071
1182.874
1181.663
1180.459
1179.285
1178.175
1177.184
1176.415
1176.084
1175.654
1174.428
1173.207
1171.933
1170.446
1167.695
1160.239
1186.169
1184.991
1183.794
1182.61
1181.467
1180.401
1179.453
1178.68
1178.165
1178.021
1177.58
1176.422
1175.265
1174.087
1172.834
1170.994
1167.403
1158.533
1187.066
1185.903
1184.729
1183.581
1182.497
1181.514
1180.676
1180.035
1179.65
1179.582
1179.151
1178.049
1176.947
1175.841
1174.716
1173.282
1171.072
1167.163
1157.371
1187.927
1186.805
1185.675
1184.577
1183.55
1182.631
1181.864
1181.294
1180.967
1180.921
1180.498
1179.439
1178.378
1177.32
1176.264
1175.019
1173.381
1171.123
1167.066
1156.892
1188.753
1187.695
1186.628
1185.592
1184.621
1183.752
1183.025
1182.482
1182.165
1182.104
1181.679
1180.656
1179.628
1178.603
1177.588
1176.435
1175.041
1173.411
1171.169
1167.155
1157.117
1189.542
1188.568
1187.582
1186.615
1185.701
1184.87
1184.159
1183.607
1183.257
1183.15
1182.717
1181.725
1180.729
1179.734
1178.751
1177.646
1176.36
1174.976
1173.373
1171.21
1167.414
1157.997
1190.295
1189.42
1188.526
1187.638
1186.779
1185.975
1185.256
1184.661
1184.239
1184.053
1183.611
1182.651
1181.688
1180.73
1179.782
1178.714
1177.478
1176.191
1174.818
1173.258
1171.22
1167.772
1159.447
1191.01
1190.246
1189.452
1188.645
1187.84
1187.053
1186.306
1185.629
1185.081
1184.769
1184.336
1183.414
1182.498
1181.591
1180.698
1179.669
1178.463
1177.218
1175.928
1174.566
1173.054
1171.154
1168.149
1161.281
1191.688
1191.037
1190.345
1189.62
1188.866
1188.088
1187.294
1186.498
1185.742
1185.169
1184.819
1183.972
1183.145
1182.326
1181.517
1180.541
1179.36
1178.142
1176.888
1175.592
1174.236
1172.755
1170.995
1168.449
1163.202
1184.822
1184.287
1183.666
1182.996
1182.301
1181.389
1180.237
1179.046
1177.818
1176.553
1175.248
1173.882
1172.426
1170.779
1168.624
1185.715
1185.123
1184.501
1183.854
1183.193
1182.316
1181.199
1180.041
1178.843
1177.608
1176.333
1175.01
1173.636
1172.191
1170.615
1186.641
1186.045
1185.427
1184.792
1184.145
1183.296
1182.218
1181.098
1179.937
1178.736
1177.495
1176.205
1174.869
1173.486
1172.043
1187.533
1186.956
1186.357
1185.74
1185.111
1184.291
1183.255
1182.176
1181.055
1179.894
1178.69
1177.436
1176.136
1174.79
1173.398
1188.383
1187.834
1187.263
1186.672
1186.066
1185.278
1184.285
1183.25
1182.172
1181.052
1179.89
1178.676
1177.415
1176.106
1174.751
1161.644
1160.663
1164.175
1163.091
1162.138
1166.518
1165.505
1164.535
1163.397
1168.711
1167.814
1166.949
1165.976
1164.315
1170.917
1170.23
1169.452
1168.573
1167.371
1164.036
1185.3
1184.236
1183.121
1181.96
1180.76
1179.526
1178.27
1177.015
1175.837
1175.011
1174.682
1173.507
1172.407
1171.33
1170.165
1167.979
1162.336
1186.214
1185.114
1183.982
1182.838
1181.7
1180.591
1179.542
1178.602
1177.867
1177.524
1177.076
1175.913
1174.783
1173.672
1172.54
1170.888
1167.769
1160.415
1187.095
1185.982
1184.852
1183.732
1182.652
1181.643
1180.744
1180.009
1179.509
1179.344
1178.891
1177.78
1176.681
1175.594
1174.508
1173.129
1171.039
1167.483
1158.74
1187.941
1186.843
1185.734
1184.65
1183.625
1182.695
1181.9
1181.289
1180.913
1180.825
1180.388
1179.324
1178.262
1177.208
1176.162
1174.929
1173.312
1171.118
1167.248
1157.601
1188.753
1187.695
1186.628
1185.592
1184.621
1183.752
1183.025
1182.482
1182.165
1182.104
1181.679
1180.656
1179.628
1178.603
1177.588
1176.435
1175.041
1173.411
1171.169
1167.155
1157.117
1189.53
1188.534
1187.529
1186.55
1185.634
1184.813
1184.126
1183.611
1183.305
1183.235
1182.814
1181.826
1180.831
1179.834
1178.845
1177.738
1176.453
1175.064
1173.441
1171.216
1167.239
1157.308
1190.272
1189.357
1188.428
1187.518
1186.655
1185.872
1185.2
1184.678
1184.345
1184.236
1183.812
1182.857
1181.893
1180.928
1179.967
1178.893
1177.663
1176.38
1174.999
1173.404
1171.253
1167.474
1158.16
1190.978
1190.158
1189.318
1188.482
1187.674
1186.917
1186.239
1185.678
1185.279
1185.1
1184.671