/*--------------------------------*- C++ -*----------------------------------*\
| =========                 |                                                 |
| \\      /  F ield         | OpenFOAM: The Open Source CFD Toolbox           |
|  \\    /   O peration     | Version:  2306                                  |
|   \\  /    A nd           | Website:  www.openfoam.com                      |
|    \\/     M anipulation  |                                                 |
\*---------------------------------------------------------------------------*/
FoamFile
{
    version     2.0;
    format      ascii;
    arch        "LSB;label=32;scalar=64";
    class       volVectorField;
    location    "0.6/air";
    object      U;
}
// * * * * * * * * * * * * * * * * * * * * * * * * * * * * * * * * * * * * * //

dimensions      [0 1 -1 0 0 0 0];

internalField   nonuniform List<vector> 
16000
(
(0.381281 0.05573539 -0.0558169)
(0.6747809 0.1056033 -0.08608899)
(0.4044052 0.004212063 -0.004093664)
(0.6750105 0.08574101 -0.106814)
(0.8053047 0.09010222 -0.08607798)
(0.794875 0.01049736 -0.007574022)
(1.340011 0.1778922 -0.1812942)
(0.301052 -0.001418191 0.001427715)
(0.7950583 0.007701138 -0.01010424)
(0.8061424 0.08549307 -0.09352162)
(0.8686043 0.05586066 -0.08366431)
(1.006459 0.01111703 -0.00789697)
(1.678092 0.1677702 -0.2011441)
(0.6211852 -0.00191468 0.002416598)
(1.753734 0.02014501 -0.01982183)
(1.679579 0.195955 -0.1764453)
(0.3448648 0.0008915923 -0.0008815237)
(0.6214107 -0.002433311 0.001851206)
(1.007315 0.007994743 -0.01058507)
(0.8706017 0.08287086 -0.06225724)
(0.8941962 0.01889213 -0.08250267)
(1.119243 0.007977902 -0.00765497)
(1.86 0.1100968 -0.2005304)
(0.8108328 -0.001606881 0.002635162)
(2.325036 0.02287485 -0.02310217)
(2.144048 0.194496 -0.2072631)
(0.703075 0.001501166 -0.001586745)
(1.426071 -0.003519052 0.003235257)
(2.326722 0.02302468 -0.02273097)
(1.86484 0.1939482 -0.1254396)
(0.3200764 -0.0004539265 0.0004642021)
(0.7032922 0.001563303 -0.001584141)
(0.8119316 -0.002681345 0.001343701)
(1.121589 0.007662606 -0.007585723)
(0.8982666 0.08142391 -0.02886599)
(0.8941962 -0.01889213 -0.08250267)
(1.168802 0.002749553 -0.007229919)
(1.933863 0.03816036 -0.1983465)
(0.9196739 -0.0008943974 0.00270465)
(2.63183 0.01813728 -0.02623684)
(2.382575 0.1336032 -0.2131825)
(0.9116575 0.001471931 -0.001734291)
(1.943419 -0.003081844 0.003975882)
(3.161952 0.02711334 -0.02781566)
(2.387087 0.1973481 -0.1558505)
(0.6576247 -0.0008018331 0.0007887814)
(1.597835 0.002551031 -0.002899338)
(1.945559 -0.004492543 0.002304155)
(2.637688 0.02546408 -0.01878791)
(1.944914 0.1902156 -0.06114009)
(0.3339838 0.0003018509 -0.0002923181)
(0.6578354 -0.0008079603 0.0007354264)
(0.9127505 0.00167635 -0.001798532)
(0.922693 -0.002788472 0.0002991776)
(1.173834 0.007068784 -0.002898647)
(0.9019436 0.08096967 0.00470027)
(0.0003731077 -0.001151968 -0.000552875)
(0.8686043 -0.05586066 -0.08366431)
(1.168802 -0.002749553 -0.007229919)
(1.933863 -0.03816036 -0.1983465)
(0.9703994 -0.0002789152 0.002748164)
(2.771061 0.006574518 -0.02652967)
(2.481681 0.04711319 -0.2121802)
(1.031457 0.000961224 -0.001736146)
(2.252807 -0.0016956 0.00452885)
(3.64204 0.021085 -0.03071694)
(2.656991 0.1375186 -0.1642695)
(0.8568827 -0.0007964266 0.0008403944)
(2.163853 0.002572496 -0.003267524)
(2.707173 -0.004399703 0.003184642)
(3.648031 0.02891923 -0.02275789)
(2.494992 0.1936269 -0.07935987)
(0.6834327 0.0004999981 -0.0005459629)
(1.505588 -0.001524945 0.001226661)
(2.166037 0.00266841 -0.003520021)
(2.260168 -0.005322504 0.0002251625)
(2.784711 0.02492255 -0.008416827)
(1.955908 0.1882822 0.007112007)
(0.3259433 -0.0001269889 0.0001370613)
(0.6836464 0.0005233967 -0.000576793)
(0.8579457 -0.0008905921 0.0005212659)
(1.034509 0.001642163 -0.001667312)
(0.9767802 -0.002897064 -0.0008132577)
(1.178187 0.00678086 0.001460167)
(0.8828712 0.08154342 0.03694528)
(0.0003863005 -0.00333458 -0.0005717959)
(0.0004074771 -0.00102497 -0.0005073169)
(0.0003757995 -0.001154451 -0.001075297)
(0.8053047 -0.09010222 -0.08607798)
(1.119243 -0.007977902 -0.00765497)
(1.86 -0.1100968 -0.2005304)
(0.9703994 0.0002789152 0.002748164)
(2.771061 -0.006574517 -0.02652967)
(2.481681 -0.04711319 -0.2121802)
(1.08673 0.000325624 -0.00172343)
(2.397928 -0.0005337975 0.004886121)
(3.860328 0.007833488 -0.03173373)
(2.769283 0.04892036 -0.1650357)
(0.9725359 -0.0005316068 0.0008421237)
(2.499812 0.001725748 -0.003247326)
(3.173825 -0.002695715 0.004078346)
(4.239437 0.02291608 -0.02590613)
(2.779107 0.1351744 -0.08628223)
(0.8883118 0.0004885847 -0.0006173131)
(2.048452 -0.001619113 0.001357242)
(2.994997 0.002662583 -0.004100789)
(3.18102 -0.005738916 0.0006701861)
(3.878483 0.02878933 -0.01073905)
(2.510333 0.1909721 0.005519144)
(0.6685784 -0.0002266009 0.0002111787)
(1.558677 0.0008134231 -0.001140526)
(2.050579 -0.001878657 0.000798738)
(2.507396 0.002404402 -0.003490306)
(2.414754 -0.006088953 -0.001844513)
(2.797374 0.02393882 0.003068905)
(1.901643 0.1881528 0.07179316)
(0.3301172 0.0001153648 -0.0001060881)
(0.6687898 -0.0002298156 0.0001631121)
(0.8893876 0.000562111 -0.0007914357)
(0.9755049 -0.0009245128 -7.137343e-05)
(1.093256 0.001572112 -0.001566138)
(0.9819547 -0.003027936 -0.002153176)
(1.135339 0.006696695 0.004750502)
(0.8307983 0.08329383 0.06560926)
(0.0004100174 -0.006017636 -0.0006146742)
(0.0004267366 -0.002968132 -0.0005225791)
(0.0003890062 -0.00334739 -0.001120437)
(0.000299163 -0.0009647325 -0.0004700742)
(0.0004088961 -0.001027838 -0.0009863284)
(0.0003735093 -0.001147754 -0.002936578)
(0.6747809 -0.1056033 -0.08608899)
(1.006459 -0.01111703 -0.00789697)
(1.678092 -0.1677702 -0.2011441)
(0.9196739 0.0008943972 0.002704649)
(2.63183 -0.01813728 -0.02623684)
(2.382575 -0.1336032 -0.2131825)
(1.08673 -0.0003256239 -0.00172343)
(2.397928 0.0005337975 0.004886121)
(3.860328 -0.007833488 -0.03173373)
(2.769283 -0.04892036 -0.1650357)
(1.026235 -0.0001844836 0.0008429965)
(2.65678 0.0005940891 -0.003167106)
(3.394942 -0.0008812639 0.004640135)
(4.510327 0.008573566 -0.02725127)
(2.896784 0.0482042 -0.08805309)
(1.006656 0.0003159661 -0.0006338073)
(2.37374 -0.001140345 0.001405361)
(3.498734 0.00176991 -0.004126924)
(3.753589 -0.00374818 0.001300105)
(4.524984 0.02308569 -0.01277907)
(2.796166 0.1329598 0.002795651)
(0.8702955 -0.0002204003 0.0002068374)
(2.115651 0.0008141865 -0.001382407)
(2.848283 -0.002087903 0.0008275173)
(3.506196 0.002283562 -0.004216925)
(3.416211 -0.006893451 -0.002025721)
(3.899067 0.02777552 0.003591949)
(2.436944 0.1899876 0.08529798)
(0.6762535 0.0001912257 -0.0002163738)
(1.528266 -0.0004668796 0.0001785799)
(2.117801 0.0008209034 -0.00170331)
(2.381121 -0.002141628 -0.0003938272)
(2.6742 0.002002428 -0.00337601)
(2.429485 -0.006737148 -0.004127939)
(2.676753 0.02275209 0.01249421)
(1.756169 0.1857448 0.1235203)
(0.3274407 -2.698972e-05 3.615537e-05)
(0.6764658 0.0001970567 -0.0002568535)
(0.8713587 -0.0002555799 -4.407848e-05)
(1.009659 0.0005463998 -0.0009660778)
(1.032582 -0.0009763342 -0.0008816619)
(1.098741 0.001457155 -0.001702479)
(0.9387361 -0.003239702 -0.003958764)
(1.033701 0.006763815 0.006268626)
(0.7159187 0.08426614 0.0727554)
(0.0004539166 -0.007893789 -0.0009456768)
(0.0004615488 -0.005332687 -0.0005576191)
(0.0004127148 -0.005934664 -0.001210577)
(0.0003121456 -0.002793556 -0.0004837803)
(0.0004281587 -0.002981597 -0.001023289)
(0.0003865457 -0.003317076 -0.003003409)
(0.0004318415 -0.0008986566 -0.0004405849)
(0.0003000043 -0.0009678151 -0.0009140152)
(0.0004055338 -0.001022682 -0.002695689)
(0.0003662414 -0.001122391 -0.001004925)
(0.381281 -0.05573539 -0.0558169)
(0.794875 -0.01049736 -0.007574022)
(1.340011 -0.1778922 -0.1812942)
(0.8108328 0.00160688 0.002635162)
(2.325036 -0.02287485 -0.02310217)
(2.144048 -0.194496 -0.2072631)
(1.031457 -0.000961224 -0.001736146)
(2.252807 0.001695599 0.00452885)
(3.64204 -0.021085 -0.03071694)
(2.656991 -0.1375186 -0.1642695)
(1.026235 0.0001844836 0.0008429966)
(2.65678 -0.0005940892 -0.003167106)
(3.394942 0.0008812639 0.004640135)
(4.510327 -0.008573566 -0.02725127)
(2.896784 -0.0482042 -0.08805309)
(1.061459 0.0001070334 -0.0006385534)
(2.526607 -0.0004053505 0.001429406)
(3.736725 0.0006072749 -0.004033034)
(4.026836 -0.001264439 0.001741741)
(4.822545 0.008670757 -0.01385481)
(2.913977 0.04735511 0.001128746)
(0.9871681 -0.0001460133 0.000196265)
(2.447945 0.0005366405 -0.00146648)
(3.337359 -0.001522584 0.0008411387)
(4.12237 0.001451912 -0.004337406)
(4.043417 -0.004686846 -0.001806164)
(4.551479 0.02241843 0.003302402)
(2.711471 0.1315509 0.08646268)
(0.8795769 0.0001912655 -0.0002584105)
(2.077323 -0.0004936013 0.0001138963)
(2.934789 0.0008037977 -0.002159249)
(3.344623 -0.002462102 -0.0006299589)
(3.75877 0.001738477 -0.004156215)
(3.43855 -0.007746727 -0.004774276)
(3.712443 0.02616253 0.01566237)
(2.240007 0.1848635 0.1453364)
(0.6712862 -5.557731e-05 3.624241e-05)
(1.543886 0.0002831557 -0.0005720841)
(2.079448 -0.0006180792 -0.0003002792)
(2.455408 0.0006886084 -0.002183447)
(2.543572 -0.002446836 -0.002014936)
(2.689799 0.001492157 -0.003457669)
(2.305856 -0.007363389 -0.006843434)
(2.393791 0.02029359 0.01682159)
(1.450524 0.1702309 0.1305729)
(0.3286585 5.282976e-05 -4.489306e-05)
(0.6714976 -5.366241e-05 -4.025828e-06)
(0.8806419 0.0002095595 -0.0004573789)
(0.9901354 -0.0002753821 -0.0004324513)
(1.067877 0.0005021769 -0.001234365)
(1.037872 -0.001080723 -0.001940284)
(1.051677 0.001234341 -0.002237598)
(0.840114 -0.003486587 -0.006242598)
(0.8441099 0.006727092 0.0024004)
(0.4583086 0.05842475 0.001507529)
(0.0005008586 -0.01574095 -0.001258451)
(0.0005256529 -0.006993986 -0.0008386903)
(0.0004553021 -0.007724095 -0.001821451)
(0.0003356474 -0.005012742 -0.0005154377)
(0.0004629298 -0.005265341 -0.001097277)
(0.0004099134 -0.005802127 -0.003133267)
(0.0004437831 -0.002601913 -0.0004530543)
(0.0003130189 -0.002807275 -0.000947506)
(0.0004245519 -0.002956657 -0.00274779)
(0.000378866 -0.003265734 -0.001041728)
(0.0004160451 -0.0008517588 -0.0004162187)
(0.0004347742 -0.0009017195 -0.0008565976)
(0.0002973564 -0.0009632609 -0.002498249)
(0.0003910042 -0.001002248 -0.0009217574)
(0.0003658431 -0.001123581 -0.01003711)
(0.4044052 -0.004212063 -0.004093664)
(0.6750105 -0.08574101 -0.106814)
(0.6211852 0.00191468 0.002416597)
(1.753734 -0.02014501 -0.01982183)
(1.679579 -0.195955 -0.1764453)
(0.9116575 -0.001471931 -0.001734291)
(1.943419 0.003081844 0.003975882)
(3.161952 -0.02711334 -0.02781567)
(2.387087 -0.1973481 -0.1558505)
(0.9725359 0.000531607 0.0008421238)
(2.499812 -0.001725748 -0.003247326)
(3.173825 0.002695715 0.004078346)
(4.239437 -0.02291608 -0.02590613)
(2.779107 -0.1351744 -0.08628223)
(1.061459 -0.0001070333 -0.0006385534)
(2.526607 0.0004053502 0.001429406)
(3.736725 -0.0006072748 -0.004033034)
(4.026836 0.001264439 0.001741741)
(4.822545 -0.008670757 -0.01385481)
(2.913977 -0.04735511 0.001128746)
(1.041387 -5.068146e-05 0.0001917523)
(2.603743 0.0001829329 -0.001487482)
(3.569689 -0.0005505421 0.000860736)
(4.415763 0.0004861698 -0.004282434)
(4.343824 -0.0016176 -0.001579349)
(4.852321 0.00845314 0.002705869)
(2.823351 0.04666114 0.08516407)
(0.997191 0.0001251342 -0.0002732933)
(2.405794 -0.0003493019 6.594899e-05)
(3.433651 0.0005156543 -0.002342102)
(3.944166 -0.001841728 -0.0007119072)
(4.43286 0.001006201 -0.004343239)
(4.070922 -0.005380926 -0.004840604)
(4.322887 0.02123975 0.0170287)
(2.484082 0.1264035 0.1478336)
(0.8735333 -5.310268e-05 1.827273e-05)
(2.09693 0.0002853117 -0.0007458988)
(2.885644 -0.0006938126 -0.000529889)
(3.440994 0.0006164115 -0.002825748)
(3.59119 -0.002874074 -0.002570627)
(3.782324 0.001124337 -0.00411591)
(3.250074 -0.008324406 -0.007643927)
(3.278373 0.02320464 0.02119661)
(1.838076 0.1607159 0.1474964)
(0.673406 8.856629e-05 -0.0001060251)
(1.533663 -0.0001542294 -0.0001135257)
(2.099056 0.0002450771 -0.001075991)
(2.413168 -0.0007729178 -0.001132831)
(2.620875 0.000439212 -0.002749621)
(2.558636 -0.002902066 -0.003932817)
(2.556001 0.000757571 -0.003861999)
(2.026304 -0.008069892 -0.009778691)
(1.884155 0.01464674 0.01121399)
(0.8490956 0.1124256 0.02574473)
(0.327462 1.087142e-05 -2.193001e-06)
(0.6736107 8.749113e-05 -0.0001503112)
(0.8745928 -6.354438e-05 -0.0001931628)
(1.000162 0.0001950623 -0.0007017328)
(1.047727 -0.0003173014 -0.0009650545)
(1.073257 0.0004037649 -0.001707601)
(0.9920332 -0.001296637 -0.003332799)
(0.9439277 0.0009455252 -0.003215452)
(0.6678647 -0.003405831 -0.00990497)
(0.4960185 -0.0005311344 -0.02286592)
(0.002279877 -0.0115219 -0.01022095)
(0.0005933384 -0.01376048 -0.00112573)
(0.0004995342 -0.01233837 -0.002392758)
(0.0003774296 -0.006570811 -0.0007762363)
(0.0005249392 -0.006850789 -0.001616162)
(0.0004508767 -0.007507965 -0.003714629)
(0.0004648066 -0.004666513 -0.0004819017)
(0.0003365461 -0.004951725 -0.001014542)
(0.0004588308 -0.005153041 -0.00284799)
(0.0004014 -0.005641433 -0.001118788)
(0.0004258411 -0.002466106 -0.0004278184)
(0.0004467676 -0.002615299 -0.0008871999)
(0.0003102359 -0.002784808 -0.002543981)
(0.0004094083 -0.002918258 -0.0009514845)
(0.0003784588 -0.003235026 -0.01014797)
(0.000469958 -0.0008071055 -0.0003953878)
(0.0004191679 -0.0008548199 -0.0008092672)
(0.0004325583 -0.0008976902 -0.002341569)
(0.0002856707 -0.0009452666 -0.0008543598)
(0.0003953694 -0.001002553 -0.009221627)
(3.84008e-05 -0.0001222388 -0.003835543)
(0.301052 0.001418191 0.001427715)
(0.7950583 -0.007701138 -0.01010424)
(0.8061424 -0.08549307 -0.09352162)
(0.703075 -0.001501166 -0.001586745)
(1.426071 0.003519052 0.003235257)
(2.326722 -0.02302468 -0.02273097)
(1.86484 -0.1939482 -0.1254396)
(0.8568827 0.0007964269 0.0008403944)
(2.163853 -0.002572496 -0.003267524)
(2.707173 0.004399703 0.003184642)
(3.648031 -0.02891923 -0.02275789)
(2.494992 -0.1936269 -0.07935987)
(1.006656 -0.0003159661 -0.0006338076)
(2.37374 0.001140345 0.001405361)
(3.498734 -0.00176991 -0.004126925)
(3.753589 0.00374818 0.001300105)
(4.524984 -0.02308569 -0.01277907)
(2.796166 -0.1329598 0.002795651)
(1.041387 5.06814e-05 0.0001917523)
(2.603743 -0.0001829329 -0.001487482)
(3.569689 0.0005505418 0.0008607361)
(4.415763 -0.0004861698 -0.004282434)
(4.343824 0.0016176 -0.001579349)
(4.852321 -0.00845314 0.002705869)
(2.823351 -0.04666114 0.08516407)
(1.051705 4.248891e-05 -0.0002787014)
(2.560048 -0.0001247828 4.544397e-05)
(3.670133 0.0001727144 -0.002396642)
(4.231148 -0.0006742526 -0.0007174251)
(4.75512 0.0003174601 -0.004331062)
(4.373886 -0.001883981 -0.004769868)
(4.60471 0.008060639 0.01675807)
(2.578691 0.04450816 0.1464821)
(0.9906405 -3.630233e-05 6.818748e-06)
(2.427306 0.00018686 -0.0008265186)
(3.379185 -0.0005135437 -0.0006612008)
(4.05189 0.00035632 -0.003092441)
(4.247872 -0.002181065 -0.002748425)
(4.461717 0.0005386171 -0.004245011)
(3.838363 -0.005810248 -0.007756205)
(3.794197 0.01902387 0.02349174)
(2.02483 0.1075122 0.1490403)
(0.8759709 9.154713e-05 -0.0001361802)
(2.084 -0.0001691047 -0.0002168341)
(2.910636 0.0002279914 -0.00144095)
(3.386442 -0.0009092695 -0.001579713)
(3.691821 0.0002890849 -0.003504539)
(3.613971 -0.003412414 -0.004692335)
(3.579196 0.0004005665 -0.004102858)
(2.827799 -0.008649808 -0.0101836)
(2.509433 0.01932067 0.01826699)
(1.032367 0.1000163 0.03523378)
(0.6712812 2.073555e-05 -3.025589e-05)
(1.537656 0.0001061696 -0.0003726534)
(2.086114 -0.0002503208 -0.0005671128)
(2.434685 0.0001288908 -0.001657019)
(2.576983 -0.001007979 -0.002199661)
(2.636185 1.234111e-05 -0.003495751)
(2.427996 -0.003630097 -0.00602944)
(2.252974 -0.0003199793 -0.004528792)
(1.551334 -0.008322687 -0.01241022)
(1.015234 0.006286405 -0.01397104)
(0.003642653 0.0005500387 -0.007096021)
(0.3276534 2.645467e-05 -1.850585e-05)
(0.6714976 1.443687e-05 -7.561311e-05)
(0.877025 9.104581e-05 -0.0003377596)
(0.9935944 -8.008356e-05 -0.0005007676)
(1.058051 0.0001559316 -0.001047809)
(1.053031 -0.0004111402 -0.001704575)
(1.026492 0.0001942704 -0.002512484)
(0.8877856 -0.001572539 -0.005005375)
(0.7540744 0.0008347809 -0.006073664)
(0.3769798 -0.00693093 -0.02455662)
(0.002567579 -0.01031472 -0.008832394)
(0.0006143222 -0.00948803 -0.01400707)
(0.0004231835 -0.01288822 -0.001044669)
(0.0005891722 -0.01084376 -0.00210735)
(0.0004936278 -0.0110599 -0.004277645)
(0.0005018112 -0.00611355 -0.0007234384)
(0.0003772126 -0.006439282 -0.001495837)
(0.0005185202 -0.00666529 -0.003328523)
(0.0004400419 -0.007256662 -0.00151925)
(0.0004428398 -0.004420933 -0.0004547338)
(0.0004678439 -0.004610858 -0.000948367)
(0.0003334839 -0.004848238 -0.002631624)
(0.0004424733 -0.005025108 -0.001014056)
(0.0004010111 -0.005547198 -0.01035524)
(0.0004788275 -0.002336709 -0.0004062392)
(0.0004290128 -0.00247924 -0.0008378417)
(0.0004444454 -0.002594968 -0.00238265)
(0.0002982316 -0.002752087 -0.000881163)
(0.0004137842 -0.002887405 -0.009298077)
(3.966053e-05 -0.0003505656 -0.00387141)
(0.0004727214 -0.0007707414 -0.0003771701)
(0.0004739887 -0.0008101112 -0.0007687394)
(0.0004173141 -0.0008511408 -0.002212295)
(0.0004230269 -0.0008814589 -0.000800706)
(0.0002895793 -0.0009448844 -0.008547625)
(3.996027e-05 -0.0001096473 -0.003524061)
(3.442509e-05 -0.0001100824 -0.00454469)
(0.3448648 -0.0008915922 -0.0008815237)
(0.6214107 0.002433312 0.001851206)
(1.007315 -0.007994743 -0.01058507)
(0.8706017 -0.08287086 -0.06225724)
(0.6576247 0.0008018331 0.0007887812)
(1.597835 -0.002551031 -0.002899338)
(1.945559 0.004492544 0.002304155)
(2.637688 -0.02546408 -0.01878791)
(1.944914 -0.1902156 -0.06114009)
(0.8883118 -0.0004885848 -0.0006173134)
(2.048452 0.001619113 0.001357242)
(2.994997 -0.002662583 -0.004100789)
(3.18102 0.005738916 0.0006701862)
(3.878483 -0.02878933 -0.01073905)
(2.510333 -0.1909721 0.005519144)
(0.9871681 0.0001460133 0.000196265)
(2.447945 -0.0005366405 -0.00146648)
(3.337359 0.001522584 0.0008411386)
(4.12237 -0.001451912 -0.004337406)
(4.043417 0.004686846 -0.001806164)
(4.551479 -0.02241843 0.003302402)
(2.711471 -0.1315509 0.08646268)
(1.051705 -4.248907e-05 -0.0002787015)
(2.560048 0.0001247827 4.54439e-05)
(3.670133 -0.0001727142 -0.002396642)
(4.231148 0.0006742523 -0.0007174252)
(4.75512 -0.0003174602 -0.004331062)
(4.373886 0.00188398 -0.004769868)
(4.60471 -0.008060639 0.01675807)
(2.578691 -0.04450816 0.1464821)
(1.044951 -1.304779e-05 2.23909e-06)
(2.582331 6.31667e-05 -0.0008556236)
(3.613494 -0.0001873973 -0.000713504)
(4.343748 0.0001111915 -0.00317397)
(4.563432 -0.0008036382 -0.002772735)
(4.786595 0.0001457057 -0.004221244)
(4.119397 -0.002052336 -0.007703096)
(4.035015 0.007262616 0.02327327)
(2.079104 0.03794108 0.1496163)
(0.9931785 6.0796e-05 -0.0001493757)
(2.413053 -0.0001256471 -0.0002766528)
(3.406795 0.0001351176 -0.001617993)
(3.991204 -0.000695251 -0.001796721)
(4.360576 9.240624e-05 -0.003789808)
(4.275822 -0.002584126 -0.004861942)
(4.211462 6.745374e-05 -0.003972941)
(3.320822 -0.005975221 -0.01004856)
(2.870674 0.01540093 0.02020726)
(1.116677 0.06475856 0.03630143)
(0.8735 2.676452e-05 -5.360455e-05)
(2.088701 0.0001060081 -0.0005120376)
(2.893992 -0.000298129 -0.000834998)
(3.414058 6.739264e-05 -0.002206654)
(3.634952 -0.001217685 -0.002839357)
(3.714961 -0.0002136159 -0.004201254)
(3.415158 -0.004135876 -0.006661396)
(3.123836 -0.0004585252 -0.003916208)
(2.12499 -0.008139713 -0.01079922)
(1.307506 0.008276913 -0.006559833)
(0.004277728 0.0004597366 -0.005017752)
(0.6715149 3.776978e-05 -5.643678e-05)
(1.53357 -7.77822e-06 -0.0002406813)
(2.090805 5.322195e-05 -0.0008313602)
(2.42039 -0.0003773364 -0.001247433)
(2.599273 -8.757321e-05 -0.002359777)
(2.592086 -0.001414 -0.003477379)
(2.503093 -0.0007083521 -0.004458823)
(2.133975 -0.004644732 -0.007966143)
(1.734241 -0.001492853 -0.006179284)
(0.807793 -0.006819801 -0.01822158)
(0.004385508 -5.345883e-05 -0.006152856)
(0.0006271367 -0.001860808 -0.0101229)
(0.3272716 1.768584e-05 -1.009731e-05)
(0.6717252 4.057047e-05 -9.209974e-05)
(0.8745538 1.180631e-05 -0.0002546292)
(0.9961195 7.758015e-05 -0.0005915252)
(1.051261 -0.0001181504 -0.0009281613)
(1.063372 6.632621e-05 -0.001582616)
(1.00672 -0.0006107629 -0.002752132)
(0.9199037 -7.947628e-05 -0.003658162)
(0.7060108 -0.001601083 -0.007926449)
(0.4297142 -0.003642056 -0.02176774)
(0.001890831 -0.009683427 -0.008232978)
(0.0007479833 -0.008386932 -0.01205761)
(0.0005814429 -0.008671085 -0.009862321)
(0.0005427 -0.01198164 -0.0009699098)
(0.0004205901 -0.01016757 -0.001950719)
(0.0005806791 -0.009740817 -0.003789047)
(0.0004801789 -0.009872116 -0.001896568)
(0.0004727204 -0.005791045 -0.0006824965)
(0.000503933 -0.005993015 -0.001393986)
(0.0003728231 -0.006267755 -0.003071142)
(0.0004988376 -0.006464082 -0.001351854)
(0.0004391141 -0.007115425 -0.01075236)
(0.0004938723 -0.00418778 -0.0004314546)
(0.0004460626 -0.004369138 -0.0008949846)
(0.0004653012 -0.004515617 -0.002461114)
(0.0003208667 -0.004734103 -0.0009376238)
(0.0004468955 -0.004936174 -0.00943441)
(4.197806e-05 -0.0006013849 -0.003944327)
(0.0004805237 -0.002231409 -0.0003874206)
(0.0004829097 -0.002349478 -0.0007955374)
(0.0004270768 -0.002460401 -0.00225014)
(0.0004346913 -0.002566221 -0.0008251111)
(0.0003021051 -0.002721457 -0.008608902)
(4.181095e-05 -0.0003146781 -0.00354748)
(3.554016e-05 -0.0003186373 -0.004587865)
(0.0004964267 -0.0007369943 -0.000360988)
(0.0004769935 -0.0007736996 -0.0007333296)
(0.0004723669 -0.000806737 -0.002101603)
(0.0004093159 -0.0008361883 -0.0007565533)
(0.0004241872 -0.0008809509 -0.008013117)
(2.897136e-05 -0.0001036106 -0.003266562)
(3.495529e-05 -9.89841e-05 -0.004175534)
(3.345404e-05 -0.0001098534 -0.004482907)
(0.3200764 0.0004539267 0.000464202)
(0.7032922 -0.001563303 -0.001584141)
(0.8119316 0.002681345 0.001343701)
(1.121589 -0.007662606 -0.007585724)
(0.8982666 -0.08142391 -0.02886599)
(0.6834327 -0.0004999982 -0.000545963)
(1.505588 0.001524945 0.001226661)
(2.166037 -0.00266841 -0.003520021)
(2.260168 0.005322504 0.0002251626)
(2.784711 -0.02492255 -0.008416827)
(1.955908 -0.1882822 0.007112007)
(0.8702955 0.0002204001 0.0002068374)
(2.115651 -0.0008141865 -0.001382406)
(2.848283 0.002087903 0.0008275172)
(3.506196 -0.002283562 -0.004216924)
(3.416211 0.006893451 -0.002025721)
(3.899067 -0.02777552 0.003591949)
(2.436944 -0.1899876 0.08529798)
(0.997191 -0.0001251342 -0.0002732934)
(2.405794 0.0003493019 6.594897e-05)
(3.433651 -0.0005156543 -0.002342102)
(3.944166 0.001841728 -0.0007119073)
(4.43286 -0.001006201 -0.004343239)
(4.070922 0.005380926 -0.004840604)
(4.322887 -0.02123975 0.0170287)
(2.484082 -0.1264035 0.1478336)
(1.044951 1.304779e-05 2.239041e-06)
(2.582331 -6.316648e-05 -0.0008556238)
(3.613494 0.0001873973 -0.000713504)
(4.343748 -0.0001111911 -0.00317397)
(4.563432 0.0008036381 -0.002772735)
(4.786595 -0.0001457057 -0.004221244)
(4.119397 0.002052336 -0.007703096)
(4.035015 -0.007262616 0.02327327)
(2.079104 -0.03794108 0.1496163)
(1.047513 2.067922e-05 -0.0001545215)
(2.567539 -4.628328e-05 -0.0003009137)
(3.642177 4.259035e-05 -0.001684049)
(4.280538 -0.0002574595 -0.001874038)
(4.681363 1.180135e-05 -0.003864275)
(4.593917 -0.0009503297 -0.004853223)
(4.512753 -1.473817e-05 -0.003848045)
(3.555002 -0.002131656 -0.009865311)
(3.054633 0.005376847 0.01824975)
(1.14566 0.02235641 0.03621962)
(0.9905766 1.931969e-05 -6.569569e-05)
(2.417956 6.6808e-05 -0.000582886)
(3.388304 -0.0002328205 -0.0009792709)
(4.021811 4.08759e-07 -0.002462152)
(4.297216 -0.0009444409 -0.003091968)
(4.388958 -0.0002823665 -0.00437489)
(4.03038 -0.003051413 -0.00661492)
(3.654621 -0.0003791024 -0.003333096)
(2.470789 -0.005495353 -0.01006392)
(1.469881 0.006126697 -0.005229878)
(0.004569106 0.0002900311 -0.004399964)
(0.8736712 3.78508e-05 -7.955378e-05)
(2.08379 -6.104868e-06 -0.0003628599)
(2.899503 3.160034e-05 -0.001139387)
(3.395527 -0.0004735739 -0.001704792)
(3.66364 -0.0002139996 -0.00303236)
(3.657806 -0.001695536 -0.004170723)
(3.512697 -0.0009476275 -0.004822739)
(2.972151 -0.004941085 -0.007918688)
(2.360894 -0.001153275 -0.003801806)
(1.06791 -0.005450997 -0.01111354)
(0.005407543 1.299976e-05 -0.004333543)
(0.0006345869 -0.0009525646 -0.007477662)
(0.6707733 2.687643e-05 -4.114933e-05)
(1.533732 1.846783e-05 -0.0002592771)
(2.08589 -7.134952e-05 -0.0006780274)
(2.425259 -5.441892e-05 -0.001412179)
(2.584389 -0.0005878531 -0.002104989)
(2.614423 -0.0004752815 -0.003233675)
(2.460193 -0.00210361 -0.004935899)
(2.202972 -0.001769976 -0.005499237)
(1.635444 -0.005410617 -0.009681561)
(0.9102587 -0.002319374 -0.01520245)
(0.003412844 -0.0001165215 -0.00571869)
(0.0007672516 -0.001802053 -0.008731632)
(0.0005908878 -0.002476873 -0.008239898)
(0.3271107 2.139854e-05 -1.412236e-05)
(0.6709826 2.568306e-05 -7.980868e-05)
(0.8747215 3.88938e-05 -0.0002598649)
(0.9935116 -2.082245e-06 -0.0005173633)
(1.053797 4.198502e-05 -0.0009437811)
(1.056549 -0.0002041938 -0.001542484)
(1.016806 -0.0001254948 -0.002417494)
(0.9013824 -0.0008694425 -0.004088005)
(0.7332098 -0.0001651321 -0.006284939)
(0.3996546 -0.005090556 -0.02123958)
(0.002180494 -0.008985088 -0.007647775)
(0.0005210841 -0.007864945 -0.01123207)
(0.0007062382 -0.007684721 -0.008552407)
(0.0005522722 -0.007893989 -0.005534782)
(0.0005057908 -0.01133655 -0.0009157765)
(0.0005424599 -0.009455078 -0.00181289)
(0.0004148819 -0.0091399 -0.003488989)
(0.000557405 -0.008739509 -0.001668274)
(0.0004789468 -0.009347211 -0.01121827)
(0.000520239 -0.005484377 -0.0006466087)
(0.0004752163 -0.005678024 -0.001315175)
(0.0005002808 -0.005835121 -0.002865079)
(0.0003584633 -0.00608727 -0.001249916)
(0.0005025186 -0.006330884 -0.009705295)
(4.592085e-05 -0.000770484 -0.004058208)
(0.0004935318 -0.003998045 -0.0004112832)
(0.0004980059 -0.004139339 -0.000849115)
(0.0004439569 -0.004279751 -0.002322368)
(0.0004551259 -0.004412336 -0.000876534)
(0.0003246657 -0.004648027 -0.008715421)
(4.522505e-05 -0.0005383009 -0.003594131)
(3.759122e-05 -0.0005465742 -0.004674439)
(0.0005035966 -0.002133653 -0.0003707068)
(0.0004848452 -0.002243855 -0.0007587)
(0.0004812184 -0.002331941 -0.002136757)
(0.0004189132 -0.002434378 -0.0007792936)
(0.0004357764 -0.002537043 -0.008065205)
(3.024998e-05 -0.0002974309 -0.003284583)
(3.659381e-05 -0.0002868513 -0.0042039)
(3.453494e-05 -0.0003146314 -0.004525037)
(0.0005031155 -0.0007075679 -0.0003464462)
(0.0005011477 -0.0007398883 -0.0007018524)
(0.0004755676 -0.0007705586 -0.002004855)
(0.000465421 -0.0007928338 -0.0007186909)
(0.0004097539 -0.0008355351 -0.007571437)
(4.446821e-05 -9.673638e-05 -0.003062372)
(2.519248e-05 -9.367873e-05 -0.003870347)
(3.352855e-05 -9.899075e-05 -0.004118851)
(3.276578e-05 -0.0001069116 -0.004043156)
(0.3339838 -0.0003018509 -0.0002923181)
(0.6578354 0.0008079604 0.0007354264)
(0.9127505 -0.00167635 -0.001798533)
(0.922693 0.002788472 0.0002991777)
(1.173834 -0.007068784 -0.002898647)
(0.9019436 -0.08096967 0.00470027)
(0.6685784 0.0002266008 0.0002111787)
(1.558677 -0.000813423 -0.001140526)
(2.050579 0.001878657 0.0007987379)
(2.507396 -0.002404402 -0.003490306)
(2.414754 0.006088952 -0.001844513)
(2.797374 -0.02393882 0.003068906)
(1.901643 -0.1881528 0.07179316)
(0.8795769 -0.0001912656 -0.0002584105)
(2.077323 0.0004936013 0.0001138964)
(2.934789 -0.0008037977 -0.002159249)
(3.344623 0.002462102 -0.0006299589)
(3.75877 -0.001738477 -0.004156215)
(3.43855 0.007746727 -0.004774276)
(3.712443 -0.02616253 0.01566237)
(2.240007 -0.1848635 0.1453364)
(0.9906405 3.630225e-05 6.818728e-06)
(2.427306 -0.0001868598 -0.0008265187)
(3.379185 0.0005135435 -0.0006612007)
(4.05189 -0.0003563199 -0.003092441)
(4.247872 0.002181064 -0.002748425)
(4.461717 -0.0005386173 -0.004245011)
(3.838363 0.005810248 -0.007756205)
(3.794197 -0.01902387 0.02349174)
(2.02483 -0.1075122 0.1490403)
(1.047513 -2.067934e-05 -0.0001545215)
(2.567539 4.62834e-05 -0.0003009136)
(3.642177 -4.259004e-05 -0.001684049)
(4.280538 0.0002574594 -0.001874038)
(4.681363 -1.180109e-05 -0.003864275)
(4.593917 0.0009503296 -0.004853223)
(4.512753 1.473808e-05 -0.003848045)
(3.555002 0.002131656 -0.009865311)
(3.054633 -0.005376847 0.01824975)
(1.14566 -0.02235641 0.03621962)
(1.04487 6.652778e-06 -7.045796e-05)
(2.572478 2.178217e-05 -0.0006103459)
(3.622924 -8.737805e-05 -0.001036457)
(4.312384 -9.136585e-06 -0.0025526)
(4.615318 -0.0003515337 -0.003162276)
(4.712324 -0.0001240815 -0.00437838)
(4.325015 -0.001107463 -0.006487389)
(3.905737 -0.0001476257 -0.003043773)
(2.633889 -0.002003427 -0.009856374)
(1.546764 0.002051935 -0.004835627)
(0.004668253 9.817974e-05 -0.004129552)
(0.9906895 2.323135e-05 -9.001659e-05)
(2.41274 -6.644967e-06 -0.0004295547)
(3.394003 2.774377e-06 -0.001295414)
(4.001147 -0.0003800058 -0.001925761)
(4.329056 -0.0002251089 -0.003300139)
(4.325271 -0.001300593 -0.004339156)
(4.139495 -0.0007690456 -0.004698495)
(3.487478 -0.003453495 -0.007436603)
(2.734633 -0.0005918259 -0.002702589)
(1.220807 -0.003246948 -0.009450886)
(0.0059756 1.718864e-05 -0.003773044)
(0.000635396 -0.0002919738 -0.006579369)
(0.8727269 2.845601e-05 -6.256713e-05)
(2.083739 9.550406e-06 -0.0003735793)
(2.893553 -9.147235e-05 -0.0009628805)
(3.401195 -0.0001173251 -0.001891284)
(3.644282 -0.0007480171 -0.002712906)
(3.686566 -0.0006701039 -0.003881128)
(3.457233 -0.002398854 -0.0053933)
(3.061186 -0.001854961 -0.005093952)
(2.236615 -0.005192687 -0.007884797)
(1.197265 -0.00101008 -0.008457947)
(0.004331044 -4.336185e-05 -0.004007274)
(0.0007797619 -0.0009432776 -0.006421412)
(0.0005973232 -0.001321225 -0.007107893)
(0.6704186 3.430305e-05 -4.733482e-05)
(1.532121 2.216397e-06 -0.0002356352)
(2.085833 -4.511638e-05 -0.0006700813)
(2.420028 -0.0001786128 -0.001269842)
(2.589256 -0.0002510098 -0.002120901)
(2.599451 -0.0009600875 -0.003145089)
(2.481868 -0.001141359 -0.0042982)
(2.163333 -0.003095581 -0.00635747)
(1.692027 -0.002793309 -0.007002771)
(0.8529975 -0.004799856 -0.0154565)
(0.003879435 -8.584102e-05 -0.005302284)
(0.000542862 -0.001708928 -0.008112099)
(0.0007213338 -0.00233114 -0.007136302)
(0.0005645745 -0.002971034 -0.004474033)
(0.3268187 1.806156e-05 -1.102043e-05)
(0.6706275 3.226114e-05 -8.584831e-05)
(0.8737718 2.321016e-05 -0.0002437758)