/*--------------------------------*- C++ -*----------------------------------*\
| =========                 |                                                 |
| \\      /  F ield         | OpenFOAM: The Open Source CFD Toolbox           |
|  \\    /   O peration     | Version:  2306                                  |
|   \\  /    A nd           | Website:  www.openfoam.com                      |
|    \\/     M anipulation  |                                                 |
\*---------------------------------------------------------------------------*/
FoamFile
{
    version     2.0;
    format      ascii;
    arch        "LSB;label=32;scalar=64";
    class       volScalarField;
    location    "0.6/air";
    object      X.N2;
}
// * * * * * * * * * * * * * * * * * * * * * * * * * * * * * * * * * * * * * //

dimensions      [0 0 0 0 0 0 0];

internalField   nonuniform List<scalar> 
16000
(
0.7930139
0.7930084
0.7941873
0.7930495
0.7930005
0.7941018
0.7930405
0.7964034
0.7943004
0.7931343
0.7929931
0.7939901
0.7930296
0.7963008
0.7941863
0.7931153
0.7987151
0.7965378
0.794592
0.7932973
0.7929886
0.7938949
0.7930198
0.7961605
0.794044
0.7930949
0.7986121
0.7964045
0.7944407
0.7932584
0.8009782
0.7988522
0.7968725
0.7951238
0.7935953
0.7929886
0.7938415
0.7930138
0.7960362
0.793927
0.7930794
0.7984707
0.79623
0.7942529
0.7932161
0.8008788
0.7987191
0.7967028
0.7949359
0.7935238
0.8031476
0.8011102
0.7991913
0.7974652
0.7959485
0.7941233
0.8282531
0.7929931
0.7938415
0.7930138
0.7959646
0.7938627
0.7930701
0.7983448
0.7960793
0.7940985
0.7931851
0.8007427
0.7985444
0.7964838
0.7946982
0.7934427
0.8030533
0.8009822
0.7990241
0.7972626
0.7957297
0.7940187
0.8052158
0.8032735
0.8014365
0.7997873
0.7983625
0.7971054
0.7949856
0.8270541
0.8297456
0.8284426
0.7930005
0.7938949
0.7930198
0.7959646
0.7938627
0.7930701
0.7982722
0.7959937
0.7940148
0.7931688
0.8006215
0.7983926
0.7962965
0.7945001
0.7933804
0.8029241
0.8008143
0.7988076
0.7970004
0.795445
0.7938834
0.8051262
0.8031521
0.8012765
0.7995912
0.7981329
0.7968517
0.7948427
0.8071886
0.8053352
0.8035845
0.8020083
0.8006809
0.7996
0.7986507
0.7963229
0.8246304
0.82867
0.8272481
0.8303405
0.8299191
0.828821
0.7930084
0.7939901
0.7930296
0.7960362
0.793927
0.7930794
0.7982722
0.7959937
0.7940148
0.7931688
0.8005517
0.7983062
0.7961908
0.7943907
0.7933474
0.8028091
0.8006686
0.7986215
0.7967758
0.7952032
0.793769
0.8050034
0.8029928
0.8010696
0.7993367
0.7978327
0.7965226
0.7946467
0.8071034
0.8052199
0.8034329
0.801822
0.8004632
0.7993468
0.7983536
0.7961094
0.8090749
0.8073023
0.8056303
0.804129
0.8028624
0.8018988
0.8012048
0.800644
0.7983503
0.8208896
0.8265012
0.8248401
0.8293396
0.828847
0.8276344
0.8307848
0.8305009
0.8302657
0.8293868
0.7930139
0.7941018
0.7930405
0.7961605
0.794044
0.7930949
0.7983448
0.7960793
0.7940985
0.7931851
0.8005517
0.7983062
0.7961908
0.7943907
0.7933474
0.8027427
0.8005857
0.7985162
0.7966493
0.7950679
0.7937052
0.8048943
0.8028546
0.800892
0.7991177
0.7975743
0.796242
0.7944755
0.8069866
0.8050687
0.8032369
0.8015806
0.8001782
0.7990125
0.7979662
0.7958168
0.8089936
0.8071925
0.8054863
0.8039527
0.8026571
0.8016642
0.8009234
0.8002746
0.7979511
0.8108837
0.8091834
0.8075831
0.8061469
0.8049414
0.8040218
0.803457
0.8032028
0.8031636
0.801467
0.815475
0.8231695
0.8211582
0.8273221
0.8266905
0.8252524
0.8298471
0.8295029
0.8291995
0.82821
0.8312683
0.8309349
0.8308213
0.8307843
0.8301389
0.7941873
0.7930495
0.7963008
0.7941863
0.7931153
0.7984707
0.79623
0.7942529
0.7932161
0.8006215
0.7983926
0.7962965
0.7945001
0.7933804
0.8027427
0.8005857
0.7985162
0.7966493
0.7950679
0.7937052
0.8048313
0.8027759
0.8007915
0.7989939
0.7974283
0.7960844
0.7943782
0.8068828
0.8049375
0.8030688
0.8013733
0.7999317
0.7987229
0.7976355
0.7955655
0.8088822
0.8070487
0.8053004
0.8037246
0.802389
0.8013533
0.800549
0.7997991
0.7974688
0.8108058
0.8090786
0.8074461
0.8059795
0.8047476
0.8038019
0.8032007
0.8028648
0.8026251
0.8005127
0.8126229
0.8109875
0.8094513
0.808075
0.8069177
0.8060429
0.8054993
0.8053704
0.8056413
0.8063678
0.8066336
0.8183876
0.8160302
0.8242251
0.8234071
0.8216584
0.8279573
0.8274965
0.8270633
0.8258576
0.8303835
0.8299997
0.8298284
0.8297251
0.8289719
0.8318601
0.8314098
0.8312345
0.8313008
0.8314739
0.8312235
0.7964034
0.7943004
0.7931343
0.7986121
0.7964045
0.7944407
0.7932584
0.8007427
0.7985444
0.7964838
0.7946982
0.7934427
0.8028091
0.8006686
0.7986215
0.7967758
0.7952032
0.793769
0.8048313
0.8027759
0.8007915
0.7989939
0.7974283
0.7960844
0.7943782
0.8068229
0.8048629
0.8029736
0.8012561
0.7997919
0.7985589
0.7974494
0.7954245
0.8087831
0.806924
0.8051408
0.8035288
0.8021576
0.8010829
0.8002244
0.7993988
0.7970884
0.8106992
0.8089413
0.8072692
0.8057631
0.8044947
0.8035114
0.8028582
0.8024221
0.8019875
0.7996588
0.8125482
0.8108872
0.8093204
0.8079156
0.8067337
0.8058356
0.8052598
0.8050638
0.8051512
0.8053483
0.8038916
0.8142989
0.8127225
0.811244
0.8099206
0.8088091
0.8079629
0.807445
0.8073079
0.8076771
0.8086542
0.8107045
0.8092108
0.8197853
0.8188652
0.8168577
0.8250578
0.8244435
0.8238513
0.8223513
0.8286006
0.8281201
0.8278399
0.8276114
0.8266462
0.8310213
0.8305274
0.8303039
0.8303139
0.8304216
0.8300669
0.8325299
0.8319943
0.8316923
0.8316829
0.8319385
0.832469
0.8314471
0.7987151
0.7965378
0.794592
0.7932973
0.8008788
0.7987191
0.7967028
0.7949359
0.7935238
0.8029241
0.8008143
0.7988076
0.7970004
0.795445
0.7938834
0.8048943
0.8028546
0.800892
0.7991177
0.7975743
0.796242
0.7944755
0.8068229
0.8048629
0.8029736
0.8012561
0.7997919
0.7985589
0.7974494
0.7954245
0.808726
0.806853
0.8050507
0.8034181
0.8020265
0.8009291
0.8000406
0.7991756
0.7968848
0.8106044
0.8088222
0.8071174
0.8055774
0.8042766
0.8032593
0.8025598
0.8020445
0.8014791
0.7990775
0.8124458
0.8107558
0.8091515
0.8077096
0.8064937
0.805562
0.8049407
0.8046602
0.8045655
0.8043983
0.8024386
0.814227
0.8126262
0.8111186
0.8097683
0.8086337
0.8077658
0.8072193
0.8070209
0.8072273
0.8077151
0.8081671
0.805989
0.8159174
0.8143947
0.8129686
0.8116933
0.8106214
0.8098049
0.8092937
0.8091595
0.8094837
0.8105018
0.8126641
0.8128815
0.8112148
0.8209038
0.8202246
0.8195818
0.8178203
0.8258656
0.8252613
0.8248517
0.8244694
0.8232079
0.8293312
0.8287538
0.8284407
0.8283449
0.8283271
0.8277643
0.8317309
0.8311577
0.8308141
0.8307577
0.8309572
0.8314233
0.8302925
0.8332658
0.8326576
0.8322622
0.8321152
0.8322795
0.832859
0.8326742
0.8316725
0.8009782
0.7988522
0.7968725
0.7951238
0.7935953
0.8030533
0.8009822
0.7990241
0.7972626
0.7957297
0.7940187
0.8050034
0.8029928
0.8010696
0.7993367
0.7978327
0.7965226
0.7946467
0.8068828
0.8049375
0.8030688
0.8013733
0.7999317
0.7987229
0.7976355
0.7955655
0.808726
0.806853
0.8050507
0.8034181
0.8020265
0.8009291
0.8000406
0.7991756
0.7968848
0.8105497
0.8087545
0.8070317
0.8054726
0.804153
0.8031161
0.8023901
0.801833
0.8012038
0.7987876
0.8123548
0.8106418
0.8090067
0.8075329
0.8062869
0.8053246
0.8046633
0.8043146
0.8040948
0.8037239
0.8015986
0.8141285
0.8125
0.8109569
0.8095715
0.808405
0.8075059
0.8069185
0.8066442
0.8066888
0.8068386
0.8067288
0.8042279
0.815848
0.814302
0.8128482
0.8115474
0.8104535
0.8096168
0.8090787
0.8088884
0.8090609
0.8096285
0.8103106
0.8099367
0.8078472
0.8174831
0.8160097
0.8146314
0.8133998
0.8123645
0.8115723
0.8110733
0.8109219
0.8112204
0.8121457
0.8142464
0.8146737
0.8145845
0.8128547
0.8219486
0.8213132
0.820883
0.8204217
0.8188521
0.826739
0.8260571
0.8256417
0.8254196
0.825237
0.8243694
0.8301214
0.8294764
0.8290558
0.8289121
0.8290045
0.8293437
0.8279946
0.8325024
0.8318608
0.8314295
0.8312418
0.8313591
0.8318827
0.8316297
0.8305201
0.8340454
0.8333879
0.8329129
0.8326633
0.8326778
0.8331406
0.8330487
0.832881
0.8318999
0.8031476
0.8011102
0.7991913
0.7974652
0.7959485
0.7941233
0.8051262
0.8031521
0.8012765
0.7995912
0.7981329
0.7968517
0.7948427
0.8069866
0.8050687
0.8032369
0.8015806
0.8001782
0.7990125
0.7979662
0.7958168
0.8087831
0.806924
0.8051408
0.8035288
0.8021576
0.8010829
0.8002244
0.7993988
0.7970884
0.8105497
0.8087545
0.8070317
0.8054726
0.804153
0.8031161
0.8023901
0.801833
0.8012038
0.7987876
0.8123023
0.810577
0.8089248
0.8074331
0.8061698
0.8051897
0.8045059
0.8041205
0.8038394
0.8033787
0.8012056
0.814041
0.8123906
0.8108182
0.8094027
0.808208
0.8072807
0.8066572
0.8063225
0.8062556
0.8062148
0.8058544
0.8032354
0.8157531
0.8141806
0.8126929
0.8113587
0.8102349
0.8093689
0.8087927
0.8085327
0.8085561
0.8088144
0.8089754
0.8082442
0.8058862
0.8174162
0.8159203
0.8145155
0.8132596
0.8122035
0.8113921
0.8108679
0.8106634
0.8108202
0.8113227
0.8120469
0.8119385
0.8115122
0.809475
0.8190004
0.8175723
0.8162378
0.8150463
0.8140442
0.8132757
0.8127845
0.8126261
0.8128808
0.8137411
0.8156731
0.8161217
0.8162417
0.8159883
0.8142396
0.8230273
0.8223337
0.8219263
0.8216535
0.8213294
0.8200945
0.827653
0.8269202
0.8264149
0.8261711
0.8261249
0.8262824
0.8246082
0.8309644
0.8302596
0.8297625
0.8294998
0.829528
0.8299417
0.8295531
0.8282267
0.8333137
0.8326265
0.8321197
0.831835
0.8318087
0.8322244
0.8320734
0.8318379
0.8307495
0.8348581
0.8341625
0.8336319
0.8332949
0.8331969
0.83349
0.8333181
0.83324
0.8330896
0.8321292
0.8052158
0.8032735
0.8014365
0.7997873
0.7983625
0.7971054
0.7949856
0.8071034
0.8052199
0.8034329
0.801822
0.8004632
0.7993468
0.7983536
0.7961094
0.8088822
0.8070487
0.8053004
0.8037246
0.802389
0.8013533
0.800549
0.7997991
0.7974688
0.8106044
0.8088222
0.8071174
0.8055774
0.8042766
0.8032593
0.8025598
0.8020445
0.8014791
0.7990775
0.8123023
0.810577
0.8089248
0.8074331
0.8061698
0.8051897
0.8045059
0.8041205
0.8038394
0.8033787
0.8012056
0.8139905
0.8123284
0.8107398
0.8093074
0.8080965
0.8071529
0.8065088
0.8061421
0.8060203
0.805895
0.8054328
0.8027799
0.8156687
0.8140754
0.8125597
0.8111971
0.8100466
0.8091541
0.8085444
0.8082289
0.8081509
0.8082354
0.8081626
0.8072487
0.8047779
0.8173245
0.8158033
0.814366
0.8130783
0.8119938
0.8111548
0.8105947
0.8103246
0.8103423
0.8105566
0.8108005
0.8103643
0.8096524
0.8074008
0.8189356
0.817486
0.8161261
0.8149112
0.8138894
0.8131026
0.8125874
0.8123789
0.812499
0.812961
0.8135989
0.8135632
0.8133844
0.8128992
0.8108886
0.8204728
0.8190866
0.8177926
0.8166378
0.8156664
0.8149193
0.8144378
0.8142695
0.8144954
0.8152787
0.8170816
0.817439
0.8175834
0.8175305
0.8171839
0.8156077
0.824119
0.8233916
0.8229103
0.8226436
0.8224851
0.8224312
0.8203487
0.8286059
0.8278254
0.8272591
0.826913
0.8268285
0.8270853
0.8264973
0.8248485
0.8318397
0.8310965
0.8305319
0.8301832
0.8300799
0.8304031
0.8301347
0.8297642
0.8284606
0.834155
0.8334327
0.8328739
0.8325059
0.8323726
0.8326245
0.8324027
0.8322657
0.8320478
0.8309808
0.8356925
0.8349706
0.8343963
0.8339971
0.8338033
0.8339672
0.8336574
0.8334971
0.833433
0.8333
0.8324089
0.8071886
0.8053352
0.8035845
0.8020083
0.8006809
0.7996
0.7986507
0.7963229
0.8089936
0.8071925
0.8054863
0.8039527
0.8026571
0.8016642
0.8009234
0.8002746
0.7979511
0.8106992
0.8089413
0.8072692
0.8057631
0.8044947
0.8035114
0.8028582
0.8024221
0.8019875
0.7996588
0.8123548
0.8106418
0.8090067
0.8075329
0.8062869
0.8053246
0.8046633
0.8043146
0.8040948
0.8037239
0.8015986
0.8139905
0.8123284
0.8107398
0.8093074
0.8080965
0.8071529
0.8065088
0.8061421
0.8060203
0.805895
0.8054328
0.8027799
0.8156201
0.8140155
0.8124844
0.8111058
0.80994
0.8090322
0.8084036
0.8080586
0.8079313
0.8079386
0.8077702
0.8067789
0.8042725
0.817243
0.8157018
0.8142379
0.812923
0.8118132
0.8109492
0.8103576
0.8100356
0.8099588
0.8100127
0.8100424
0.8094371
0.8085626
0.806216
0.8188469
0.8173729
0.8159819
0.8147367
0.8136877
0.8128748
0.8123254
0.8120548
0.8120435
0.8122348
0.8124241
0.8120915
0.8116519
0.8109413
0.8087664
0.82041
0.8190031
0.8176846
0.8165075
0.8155172
0.8147528
0.8142483
0.814032
0.8141301
0.8145351
0.8151153
0.8150258
0.8149089
0.8146536
0.8141098
0.8122931
0.8219034
0.8205562
0.8192997
0.8181789
0.8172357
0.8165088
0.816036
0.8158622
0.8160585
0.8167847
0.8184581
0.8187535
0.8188145
0.8187833
0.8186244
0.8183765
0.8158854
0.8252296
0.8244655
0.8239373
0.8235848
0.8234175
0.8234931
0.8226567
0.8206034
0.8295794
0.8287706
0.8281478
0.8277306
0.8275315
0.8277236
0.8272828
0.8267137
0.8250902
0.8327389
0.8319662
0.8313566
0.8309324
0.8307329
0.8309042
0.8305833
0.8303292
0.8299769
0.8286963
0.8350156
0.8342694
0.8336698
0.833243
0.8330179
0.8331461
0.8327926
0.8325825
0.8324597
0.8322594
0.831263
0.8365421
0.8358008
0.8351953
0.8347464
0.834483
0.8345371
0.834126
0.8338262
0.8336776
0.8336275
0.8335566
0.8326951
0.8090749
0.8073023
0.8056303
0.804129
0.8028624
0.8018988
0.8012048
0.800644
0.7983503
0.8108058
0.8090786
0.8074461
0.8059795
0.8047476
0.8038019
0.8032007
0.8028648
0.8026251
0.8005127
0.8124458
0.8107558
0.8091515
0.8077096
0.8064937
0.805562
0.8049407
0.8046602
0.8045655
0.8043983
0.8024386
0.814041
0.8123906
0.8108182
0.8094027
0.808208
0.8072807
0.8066572
0.8063225
0.8062556
0.8062148
0.8058544
0.8032354
0.8156201
0.8140155
0.8124844
0.8111058
0.80994
0.8090322
0.8084036
0.8080586
0.8079313
0.8079386
0.8077702
0.8067789
0.8042725
0.817196
0.8156441
0.8141655
0.8128353
0.811711
0.8108325
0.8102231
0.8098737
0.8097508
0.8097342
0.8096766
0.808999
0.8080531
0.8056764
0.8187681
0.817275
0.8158584
0.8145872
0.8135141
0.8126774
0.8120982
0.8117785
0.8116782
0.8117192
0.8117102
0.8112251
0.8106351
0.8097869
0.8075438
0.8203241
0.8188937
0.8175454
0.8163391
0.8153229
0.8145334
0.8139965
0.813721
0.8136943
0.8138429
0.8140013
0.8136378
0.8132875
0.812827
0.8121053
0.8101749
0.8218425
0.8204753
0.8191952
0.8180529
0.8170916
0.8163482
0.8158534
0.8156338
0.8157078
0.8160736
0.816585
0.8164657
0.8162914
0.8160888
0.8157574
0.8153184
0.8125781
0.8232953
0.8219844
0.8207626
0.8196733
0.8187564
0.8180483
0.8175842
0.8174056
0.8175793
0.8182511
0.8198214
0.8200491
0.8200554
0.819943
0.8198005
0.8197111
0.8186187
0.8161613
0.8263438
0.8255604
0.8249844
0.8245755
0.8243123
0.8243551
0.8236995
0.8228827
0.8208584
0.8305673
0.8297371
0.8290784
0.8285964
0.8283163
0.8283738
0.8279077
0.8274815
0.8269313
0.8253334
0.8336521
0.8328604
0.8322155
0.8317392
0.8314558
0.8315141
0.831074
0.830765
0.8305253
0.8301912
0.8289837
0.8358891
0.8351257
0.8344971
0.8340235
0.8337323
0.8337546
0.8333055
0.8329621
0.8327638
0.8326552
0.8325176
0.8315518
0.8374016
0.8366466
0.8360172
0.8355317
0.8352123
0.8351845
0.8346883
0.8342861
0.8339964
0.8338596
0.8338649
0.8338191
0.8329129
0.8108837
0.8091834
0.8075831
0.8061469
0.8049414
0.8040218
0.803457
0.8032028
0.8031636
0.801467
0.8125482
0.8108872
0.8093204
0.8079156
0.8067337
0.8058356
0.8052598
0.8050638
0.8051512
0.8053483
0.8038916
0.8141285
0.8125
0.8109569
0.8095715
0.808405
0.8075059
0.8069185
0.8066442
0.8066888
0.8068386
0.8067288
0.8042279
0.8156687
0.8140754
0.8125597
0.8111971
0.8100466
0.8091541
0.8085444
0.8082289
0.8081509
0.8082354
0.8081626
0.8072487
0.8047779
0.817196
0.8156441
0.8141655
0.8128353
0.811711
0.8108325
0.8102231
0.8098737
0.8097508
0.8097342
0.8096766
0.808999
0.8080531
0.8056764
0.8187227
0.8172192
0.8157886
0.8145028
0.8134159
0.8125654
0.8119693
0.8116237
0.8114803
0.8114553
0.811366
0.8108159
0.8101592
0.8092489
0.8069865
0.8202477
0.818799
0.817426
0.8161949
0.8151556
0.8143435
0.8137781
0.813456
0.8133448
0.8133516
0.8133244
0.8128212
0.8123361
0.8117481
0.8109156
0.8089513
0.8217592
0.8203694
0.8190605
0.8178903
0.8169041
0.8161367
0.8156108
0.8153346
0.8152895
0.8154115
0.8155234
0.8151494
0.8147616
0.8143779
0.8138842
0.8133061
0.8104612
0.8232361
0.8219059
0.8206614
0.8195514
0.8186171
0.8178931
0.817408
0.8171853
0.8172419
0.817569
0.818031
0.8178697
0.8176631
0.8174003
0.8171135
0.8168537
0.8155638
0.8128613
0.8246508
0.8233739
0.8221846
0.8211246
0.8202321
0.8195416
0.8190859
0.8189038
0.8190573
0.8196848
0.8211607
0.8213409
0.8212878
0.8211232
0.8208989
0.8208092
0.8199317
0.8188594
0.8164354
0.827459
0.8266605
0.8260558
0.8255914
0.8252638
0.8251934
0.824547
0.8239062
0.8231091
0.8211138
0.8315612
0.8307188
0.8300319
0.8295068
0.8291537
0.8291139
0.828547
0.8280929
0.8276814
0.8271503
0.8256294
0.8345738
0.833769
0.8330998
0.8325821
0.8322392
0.8321995
0.831675
0.8312451
0.8309481
0.8307229
0.8304525
0.8292778
0.8367706
0.8359953
0.835345
0.8348371
0.8344926
0.8344364
0.8339064
0.8334662
0.833133
0.8329466
0.8328937
0.8327816
0.8317715
0.8382672
0.8375026
0.8368553
0.8363412
0.8359794
0.8358848
0.8353291
0.8348409
0.8344476
0.8341681
0.8340817
0.8341076
0.8340186
0.8330607
0.8126229
0.8109875
0.8094513
0.808075
0.8069177
0.8060429
0.8054993
0.8053704
0.8056413
0.8063678
0.8066336
0.814227
0.8126262
0.8111186
0.8097683
0.8086337
0.8077658
0.8072193
0.8070209
0.8072273
0.8077151
0.8081671
0.805989
0.8157531
0.8141806
0.8126929
0.8113587
0.8102349
0.8093689
0.8087927
0.8085327
0.8085561
0.8088144
0.8089754
0.8082442
0.8058862
0.817243
0.8157018
0.8142379
0.812923
0.8118132
0.8109492
0.8103576
0.8100356
0.8099588
0.8100127
0.8100424
0.8094371
0.8085626
0.806216
0.8187227
0.8172192
0.8157886
0.8145028
0.8134159
0.8125654
0.8119693
0.8116237
0.8114803
0.8114553
0.811366
0.8108159
0.8101592
0.8092489
0.8069865
0.8202037
0.8187451
0.8173586
0.8161135
0.815061
0.8142358
0.8136543
0.8133075
0.8131554
0.8131002
0.812998
0.8124357
0.811891
0.8112446
0.8103615
0.8083935
0.8216851
0.8202776
0.818945
0.8177509
0.8167427
0.8159535
0.8154005
0.8150797
0.8149541
0.8149415
0.8148783
0.8143749
0.8138643
0.8133674
0.8127704
0.8121085
0.8092378
0.8231552
0.8218031
0.8205309
0.819394
0.8184358
0.8176887
0.8171739
0.8168969
0.8168395
0.8169338
0.8170159
0.8166155
0.8162123
0.8157856
0.8153576
0.8149692
0.8135502
0.8107461
0.8245933
0.8232976
0.8220864
0.8210065
0.8200973
0.8193914
0.8189155
0.8186911
0.8187321
0.8190289
0.8194442
0.8192577
0.8190087
0.8187119
0.8183624
0.8181293
0.8170762
0.8158076
0.8131426
0.8259724
0.8247272
0.8235683
0.8225357
0.8216661
0.820992
0.8205446
0.8203597
0.820496
0.8210837
0.8224796
0.8226165
0.8225235
0.8223033
0.8220273
0.8218458
0.821014
0.8201509
0.8190986
0.8167078
0.8285685
0.8277631
0.8271349
0.8266352
0.826246
0.8260974
0.8253737
0.8247392
0.8241132
0.8233358
0.8214232
0.8325569
0.831707
0.8310019
0.8304423
0.830039
0.8299125
0.8292779
0.8287213
0.8282793
0.8278826
0.8274169
0.8259324
0.8354996
0.8346866
0.8339995
0.833452
0.8330613
0.8329498
0.8323527
0.8318372
0.8314176
0.8311326
0.8309638
0.8307199
0.8295016
0.8376565
0.8368732
0.8362068
0.8356723
0.8352877
0.8351675
0.8345815
0.8340595
0.8336283
0.8333054
0.8331696
0.8331376
0.8329824
0.8319207
0.8391359
0.8383649
0.8377043
0.8371679
0.8367723
0.8366256
0.8360234
0.8354749
0.8349947
0.8346104
0.8343775
0.8343087
0.8342919
0.8341539
0.8331363
0.815475
0.8142989
0.8127225
0.811244
0.8099206
0.8088091
0.8079629
0.807445
0.8073079
0.8076771
0.8086542
0.8107045
0.8092108
0.815848
0.814302
0.8128482
0.8115474
0.8104535
0.8096168
0.8090787
0.8088884
0.8090609
0.8096285
0.8103106
0.8099367
0.8078472
0.8173245
0.8158033
0.814366
0.8130783
0.8119938
0.8111548
0.8105947
0.8103246
0.8103423
0.8105566
0.8108005
0.8103643
0.8096524
0.8074008
0.8187681
0.817275
0.8158584
0.8145872
0.8135141
0.8126774
0.8120982
0.8117785
0.8116782
0.8117192
0.8117102
0.8112251
0.8106351
0.8097869
0.8075438
0.8202037
0.8187451
0.8173586
0.8161135
0.815061
0.8142358
0.8136543
0.8133075
0.8131554
0.8131002
0.812998
0.8124357
0.811891
0.8112446
0.8103615
0.8083935
0.8216424
0.8202254
0.8188798
0.8176722
0.8166514
0.8158497
0.8152812
0.8149369
0.8147724
0.814701
0.8145673
0.8140093
0.8134446
0.812896
0.8122508
0.8115504
0.8086801
0.8230832
0.8217141
0.820419
0.8192591
0.8182798
0.8175119
0.8169709
0.8166512
0.8165169
0.8164829
0.8163989
0.8158774
0.8153612
0.8148321
0.8143136
0.8138453
0.8123513
0.8095233
0.8245146
0.8231978
0.8219597
0.8208539
0.8199217
0.8191937
0.8186892
0.8184126
0.8183442
0.818418
0.8184706
0.8180585
0.8176262
0.8171804
0.8167048
0.8163613
0.8151898
0.8137931
0.8110297
0.8259165
0.8246531
0.8234729
0.822421
0.8215353
0.8208465
0.8203796
0.8201539
0.8201819
0.8204517
0.8208299
0.8206193
0.8203451
0.8200061
0.8196217
0.8193152
0.8183354
0.8172973
0.8160498
0.8134221
0.8272622
0.8260468
0.8249162
0.8239093
0.823061
0.8224025
0.8219629
0.8217761
0.8218972
0.8224501
0.8237743
0.8238778
0.8237494
0.823493
0.823163
0.8229226
0.8220381
0.8212175
0.8203688
0.8193365
0.8170353
0.8296701
0.8288612
0.8282186
0.8276898
0.8272601
0.8270386
0.826268
0.8255544
0.8249318
0.8243206
0.8236107
0.8217401
0.8335508
0.8326974
0.8319795
0.831396
0.830952
0.8307636
0.8300685
0.8294429
0.8288967
0.8284668
0.8281275
0.8276896
0.826163
0.8364265
0.8356086
0.8349089
0.8343386
0.8339123
0.8337421
0.8330961
0.832507
0.8320006
0.8315914
0.8313575
0.8312101
0.8309231
0.8296536
0.8385441
0.8377558
0.8370776
0.8365226
0.8361062
0.8359362
0.8353066
0.8347278
0.8342139
0.8337917
0.8335156
0.8333976
0.8333228
0.8331185
0.8319969
0.8400056
0.8392306
0.8385601
0.8380063
0.8375838
0.8373946
0.8367587
0.8361631
0.8356219
0.8351498
0.8348091
0.8345915
0.834481
0.8344169
0.834223
0.8208896
0.8183876
0.8160302
0.8159174
0.8143947
0.8129686
0.8116933
0.8106214
0.8098049
0.8092937
0.8091595
0.8094837
0.8105018
0.8126641
0.8128815
0.8112148
0.8174162
0.8159203
0.8145155
0.8132596
0.8122035
0.8113921
0.8108679
0.8106634
0.8108202
0.8113227
0.8120469
0.8119385
0.8115122
0.809475
0.8188469
0.8173729
0.8159819
0.8147367
0.8136877
0.8128748
0.8123254
0.8120548
0.8120435
0.8122348
0.8124241
0.8120915
0.8116519
0.8109413
0.8087664
0.8202477
0.818799
0.817426
0.8161949
0.8151556
0.8143435
0.8137781
0.813456
0.8133448
0.8133516
0.8133244
0.8128212
0.8123361
0.8117481
0.8109156
0.8089513
0.8216424
0.8202254
0.8188798
0.8176722
0.8166514
0.8158497
0.8152812
0.8149369
0.8147724
0.814701
0.8145673
0.8140093
0.8134446
0.812896
0.8122508
0.8115504
0.8086801
0.8230418
0.8216634
0.8203558
0.819183
0.8181915
0.8174116
0.8168558
0.8165136
0.8163421
0.8162521
0.8161015
0.815529
0.814963
0.8143873
0.8138266
0.8133208
0.8117926
0.8089658
0.8244446
0.8231114
0.8218512
0.8207232
0.8197706
0.8190226
0.818493
0.8181754
0.8180332
0.8179844
0.8178788
0.8173527
0.8168151
0.8162758
0.8157193
0.8153068
0.8140641
0.8125931
0.8098078
0.8258399
0.824556
0.8233499
0.8222729
0.821365
0.8206549
0.8201604
0.8198846
0.8198073
0.8198631
0.8198939
0.8194693
0.8190233
0.8185466
0.8180492
0.8176455
0.8165653
0.8154092
0.8140348
0.8113119
0.8272076
0.8259747
0.8248235
0.8237979
0.822934
0.8222613
0.8218029
0.8215768
0.8215934
0.8218401
0.8221854
0.8219584
0.8216608
0.8212972
0.8208709
0.8205219
0.8195085
0.8185402
0.8175168
0.8162905
0.8137582
0.8285222
0.8273346
0.8262308
0.8252479
0.8244196
0.8237756
0.8233436
0.8231555
0.8232633
0.8237849
0.8250453
0.8251203
0.8249658
0.8246779
0.8243135
0.8240139
0.8231044
0.8222291
0.8214197
0.8205853
0.8196225
0.8173706
0.8307614
0.8299523
0.8292995
0.8287513
0.8282882
0.8280166
0.8272008
0.8264389
0.8257353
0.8251247
0.824572
0.8238919
0.8219813
0.8345405
0.8336865
0.8329602
0.8323588
0.8318855
0.8316462
0.8309127
0.8302256
0.829609
0.8290731
0.8286951
0.8283779
0.827897
0.8263197
0.8373521
0.836532
0.8358234
0.8352359
0.8347817
0.8345663
0.8338823
0.8332436
0.8326626
0.8321653
0.8318033
0.8315875
0.8313973
0.831061
0.8297313
0.8394313
0.8386403
0.8379537
0.8373827
0.8369412
0.8367306
0.8360698
0.8354468
0.8348754
0.8343695
0.8339911
0.8337304
0.8335707
0.8334484
0.833188
0.8408746
0.8400975
0.8394198
0.8388525
0.8384083
0.8381842
0.8375228
0.8368931
0.8363041
0.8357702
0.835339
0.835012
0.834754
0.8345977
0.8344806
0.8246304
0.8231695
0.8211582
0.8197853
0.8188652
0.8168577
0.8174831
0.8160097
0.8146314
0.8133998
0.8123645
0.8115723
0.8110733
0.8109219
0.8112204
0.8121457
0.8142464
0.8146737
0.8145845
0.8128547
0.8189356
0.817486
0.8161261
0.8149112
0.8138894
0.8131026
0.8125874
0.8123789
0.812499
0.812961
0.8135989
0.8135632
0.8133844
0.8128992
0.8108886
0.8203241
0.8188937
0.8175454
0.8163391
0.8153229
0.8145334
0.8139965
0.813721
0.8136943
0.8138429
0.8140013
0.8136378
0.8132875
0.812827
0.8121053
0.8101749
0.8216851
0.8202776
0.818945
0.8177509
0.8167427
0.8159535
0.8154005
0.8150797
0.8149541
0.8149415
0.8148783
0.8143749
0.8138643
0.8133674
0.8127704
0.8121085
0.8092378
0.8230418
0.8216634
0.8203558
0.819183
0.8181915
0.8174116
0.8168558
0.8165136
0.8163421
0.8162521
0.8161015
0.815529
0.814963
0.8143873
0.8138266
0.8133208
0.8117926
0.8089658
0.8244043
0.8230622
0.8217898
0.8206494
0.8196851
0.8189256
0.8183818
0.8180425
0.8178647
0.8177624
0.8175935
0.8170195
0.8164357
0.8158539
0.8152596
0.8148147
0.8135387
0.8120339
0.8092507
0.8257718
0.8244719
0.8232444
0.8221461
0.8212185
0.8204892
0.8199705
0.8196552
0.819507
0.8194452
0.8193249
0.8187924
0.8182478
0.8176846
0.8171141
0.8166497
0.8155089
0.8142819
0.8128341
0.8100913
0.827133
0.8258802
0.8247038
0.823654
0.8227687
0.8220754
0.8215905
0.8213159
0.8212311
0.8212718
0.8212837
0.820853
0.8203934
0.8199018
0.8193724
0.8189377
0.8178366
0.8167682
0.8156274
0.8142753
0.8116518
0.828469
0.8272643
0.8261405
0.8251395
0.8242962
0.8236384
0.8231883
0.8229621
0.8229691
0.8231951
0.8235121
0.8232717
0.8229586
0.8225726
0.8221225
0.8217263
0.8207046
0.8197005
0.8187435
0.8177349
0.8165798
0.8141022
0.8297538
0.8285928
0.8275139
0.8265536
0.8257441
0.8251139
0.8246891
0.8245
0.824596
0.8250897
0.8262924
0.8263435
0.8261674
0.8258573
0.8254636
0.8251255
0.8241867
0.8232849
0.8224188
0.8216206
0.8208456
0.8199151
0.8176258
0.8318412
0.8310339
0.8303749
0.8298122
0.8293258
0.8290126
0.8281715
0.8273633
0.8266101
0.8259166
0.8253585
0.824829
0.8241058
0.8221452
0.8355244
0.8346719
0.8339403
0.8333259
0.8328299
0.8325521
0.8317889
0.8310626
0.8303836
0.829776
0.8292879
0.8289284
0.8285683
0.8280377
0.8263999
0.8382747
0.8374543
0.8367398
0.8361393
0.8356633
0.8354113
0.834701
0.8340237
0.8333923
0.8328194
0.8323662
0.8320199
0.8317621
0.8315242
0.8311315
0.8403167
0.8395247
0.8388321
0.8382489
0.8377872
0.8375435
0.8368593
0.8362046
0.8355882
0.8350241
0.8345594
0.8341947
0.8338935
0.8336879
0.8335125
0.8417417
0.8409639
0.8402811
0.8397031
0.8392415
0.8389884
0.8383079
0.8376522
0.8370285
0.8364462
0.8359511
0.8355323
0.835166
0.834864
0.8346572
0.8270541
0.8265012
0.8248401
0.8242251
0.8234071
0.8216584
0.8209038
0.8202246
0.8195818
0.8178203
0.8190004
0.8175723
0.8162378
0.8150463
0.8140442
0.8132757
0.8127845
0.8126261
0.8128808
0.8137411
0.8156731
0.8161217
0.8162417
0.8159883
0.8142396
0.82041
0.8190031
0.8176846
0.8165075
0.8155172
0.8147528
0.8142483
0.814032
0.8141301
0.8145351
0.8151153
0.8150258
0.8149089
0.8146536
0.8141098
0.8122931
0.8217592
0.8203694
0.8190605
0.8178903
0.8169041
0.8161367
0.8156108
0.8153346
0.8152895
0.8154115
0.8155234
0.8151494
0.8147616
0.8143779
0.8138842
0.8133061
0.8104612
0.8230832
0.8217141
0.820419
0.8192591
0.8182798
0.8175119
0.8169709
0.8166512
0.8165169
0.8164829
0.8163989
0.8158774
0.8153612
0.8148321
0.8143136
0.8138453
0.8123513
0.8095233
0.8244043
0.8230622
0.8217898
0.8206494
0.8196851
0.8189256
0.8183818
0.8180425
0.8178647
0.8177624
0.8175935
0.8170195
0.8164357
0.8158539
0.8152596
0.8148147
0.8135387
0.8120339
0.8092507
0.8257325
0.8244241
0.8231849
0.8220745
0.8211357
0.8203952
0.8198629
0.8195267
0.8193443
0.8192313
0.8190506
0.8184727
0.8178849
0.8172825
0.816678
0.816185
0.8150159
0.8137557
0.8122744
0.8095347
0.8270666
0.8257983
0.8246013
0.8235308
0.8226265
0.8219146
0.8214064
0.8210938
0.8209407
0.8208683
0.8207355
0.8202022
0.8196495
0.8190775
0.8184812
0.8179928
0.816839
0.8157102
0.8144989
0.8130741
0.8104331
0.8283962
0.8271723
0.826024
0.8249995
0.8241355
0.8234579
0.8229821
0.8227091
0.8226181
0.8226456
0.8226418
0.8222068
0.8217403
0.8212346
0.8206898
0.8202165
0.8191183
0.8180268
0.81697
0.8158445
0.8145649
0.8119998
0.8297019
0.8285242
0.8274259
0.8264481
0.825624
0.8249805
0.8245382
0.8243123
0.8243106
0.8245186
0.8248105
0.8245597
0.8242343
0.823834
0.8233628
0.8229386
0.8218999
0.8208861
0.8198912
0.8189455
0.817997
0.8168759
0.8143642
0.8309594
0.8298228
0.8287677
0.8278284
0.8270367
0.8264194
0.8260016
0.8258118
0.8258972
0.8263656
0.8275162
0.8275467
0.8273533
0.8270254
0.8266116
0.8262409
0.8252904
0.8243583
0.8234643
0.8226074
0.8218621
0.8211118
0.8201377
0.8177992
0.8329085
0.8321048
0.8314421
0.8308692
0.830365
0.8300213
0.8291609
0.8283266
0.8275261
0.8267816
0.8261363
0.8255975
0.8250244
0.824251
0.822229
0.8365012
0.8356517
0.8349174
0.8342936
0.8337803
0.8334714
0.8326892
0.8319325
0.8312135
0.8305425
0.8299794
0.8295074
0.8291057
0.8286973
0.8281096
0.839193
0.8383738
0.8376557
0.8370455
0.8365522
0.8362705
0.835541
0.8348368
0.8341661
0.8335421
0.8330106
0.8325713
0.8321843
0.8318805
0.8315889
0.8411992
0.8404074
0.8397107
0.8391182
0.8386404
0.8383693
0.8376677
0.836989
0.8363404
0.8357308
0.8352056
0.8347533
0.8343493
0.8340039
0.8337477
0.8426062
0.8418286
0.8411422
0.840556
0.8400801
0.839803
0.839108
0.8384327
0.8377826
0.8371651
0.8366196
0.8361358
0.8356789
0.8352702
0.83492
0.8282531
0.82867
0.8272481
0.8273221
0.8266905
0.8252524
0.8250578
0.8244435
0.8238513
0.8223513
0.8219486
0.8213132
0.820883
0.8204217
0.8188521
0.8204728
0.8190866
0.8177926
0.8166378
0.8156664
0.8149193
0.8144378
0.8142695
0.8144954
0.8152787
0.8170816
0.817439
0.8175834
0.8175305
0.8171839
0.8156077
0.8218425
0.8204753
0.8191952
0.8180529
0.8170916
0.8163482
0.8158534
0.8156338
0.8157078
0.8160736
0.816585
0.8164657
0.8162914
0.8160888
0.8157574
0.8153184
0.8125781
0.8231552
0.8218031
0.8205309
0.819394
0.8184358
0.8176887
0.8171739
0.8168969
0.8168395
0.8169338
0.8170159
0.8166155
0.8162123
0.8157856
0.8153576
0.8149692
0.8135502
0.8107461
0.8244446
0.8231114
0.8218512
0.8207232
0.8197706
0.8190226
0.818493
0.8181754
0.8180332
0.8179844
0.8178788
0.8173527
0.8168151
0.8162758
0.8157193
0.8153068
0.8140641
0.8125931
0.8098078
0.8257325
0.8244241
0.8231849
0.8220745
0.8211357
0.8203952
0.8198629
0.8195267
0.8193443
0.8192313
0.8190506
0.8184727
0.8178849
0.8172825
0.816678
0.816185
0.8150159
0.8137557
0.8122744
0.8095347
0.8270284
0.8257518
0.8245434
0.8234612
0.8225461
0.8218235
0.821302
0.8209694
0.8207834
0.8206618
0.8204711
0.8198949
0.8193016
0.818693
0.8180656
0.8175518
0.8163734
0.8152163
0.813972
0.8125141
0.8098774