/*--------------------------------*- C++ -*----------------------------------*\
| =========                 |                                                 |
| \\      /  F ield         | OpenFOAM: The Open Source CFD Toolbox           |
|  \\    /   O peration     | Version:  2306                                  |
|   \\  /    A nd           | Website:  www.openfoam.com                      |
|    \\/     M anipulation  |                                                 |
\*---------------------------------------------------------------------------*/
FoamFile
{
    version     2.0;
    format      ascii;
    arch        "LSB;label=32;scalar=64";
    class       volScalarField;
    location    "0.6/air";
    object      X.O2;
}
// * * * * * * * * * * * * * * * * * * * * * * * * * * * * * * * * * * * * * //

dimensions      [0 0 0 0 0 0 0];

internalField   nonuniform List<scalar> 
16000
(
0.2069861
0.2069916
0.2058127
0.2069505
0.2069995
0.2058982
0.2069595
0.2035966
0.2056996
0.2068657
0.2070069
0.2060099
0.2069704
0.2036992
0.2058137
0.2068847
0.2012849
0.2034622
0.205408
0.2067027
0.2070114
0.2061051
0.2069802
0.2038395
0.205956
0.2069051
0.2013879
0.2035955
0.2055593
0.2067416
0.1990218
0.2011478
0.2031275
0.2048762
0.2064047
0.2070114
0.2061585
0.2069862
0.2039638
0.206073
0.2069206
0.2015293
0.20377
0.2057471
0.2067839
0.1991212
0.2012809
0.2032972
0.2050641
0.2064762
0.1968524
0.1988898
0.2008087
0.2025348
0.2040515
0.2058767
0.1717469
0.2070069
0.2061585
0.2069862
0.2040354
0.2061373
0.2069299
0.2016552
0.2039207
0.2059015
0.2068149
0.1992573
0.2014556
0.2035162
0.2053018
0.2065573
0.1969467
0.1990178
0.2009759
0.2027374
0.2042703
0.2059813
0.1947842
0.1967265
0.1985635
0.2002127
0.2016375
0.2028946
0.2050144
0.1729459
0.1702544
0.1715574
0.2069995
0.2061051
0.2069802
0.2040354
0.2061373
0.2069299
0.2017278
0.2040063
0.2059852
0.2068312
0.1993785
0.2016074
0.2037035
0.2054999
0.2066196
0.1970759
0.1991857
0.2011924
0.2029996
0.204555
0.2061166
0.1948738
0.1968479
0.1987235
0.2004088
0.2018671
0.2031483
0.2051573
0.1928114
0.1946648
0.1964155
0.1979917
0.1993191
0.2004
0.2013493
0.2036771
0.1753696
0.17133
0.1727519
0.1696595
0.1700809
0.171179
0.2069916
0.2060099
0.2069704
0.2039638
0.206073
0.2069206
0.2017278
0.2040063
0.2059852
0.2068312
0.1994483
0.2016938
0.2038092
0.2056093
0.2066526
0.1971909
0.1993314
0.2013785
0.2032242
0.2047968
0.206231
0.1949966
0.1970072
0.1989304
0.2006633
0.2021673
0.2034774
0.2053533
0.1928966
0.1947801
0.1965671
0.198178
0.1995368
0.2006532
0.2016464
0.2038906
0.1909251
0.1926977
0.1943697
0.195871
0.1971376
0.1981012
0.1987952
0.199356
0.2016497
0.1791104
0.1734988
0.1751599
0.1706604
0.171153
0.1723656
0.1692152
0.1694991
0.1697343
0.1706132
0.2069861
0.2058982
0.2069595
0.2038395
0.205956
0.2069051
0.2016552
0.2039207
0.2059015
0.2068149
0.1994483
0.2016938
0.2038092
0.2056093
0.2066526
0.1972573
0.1994143
0.2014838
0.2033507
0.2049321
0.2062948
0.1951057
0.1971454
0.199108
0.2008823
0.2024257
0.203758
0.2055245
0.1930134
0.1949313
0.1967631
0.1984194
0.1998218
0.2009875
0.2020338
0.2041832
0.1910064
0.1928075
0.1945137
0.1960473
0.1973429
0.1983358
0.1990766
0.1997254
0.2020489
0.1891163
0.1908166
0.1924169
0.1938531
0.1950586
0.1959782
0.196543
0.1967972
0.1968364
0.198533
0.184525
0.1768305
0.1788418
0.1726779
0.1733095
0.1747476
0.1701529
0.1704971
0.1708005
0.17179
0.1687317
0.1690651
0.1691787
0.1692157
0.1698611
0.2058127
0.2069505
0.2036992
0.2058137
0.2068847
0.2015293
0.20377
0.2057471
0.2067839
0.1993785
0.2016074
0.2037035
0.2054999
0.2066196
0.1972573
0.1994143
0.2014838
0.2033507
0.2049321
0.2062948
0.1951687
0.1972241
0.1992085
0.2010061
0.2025717
0.2039156
0.2056218
0.1931172
0.1950625
0.1969312
0.1986267
0.2000683
0.2012771
0.2023645
0.2044345
0.1911178
0.1929513
0.1946996
0.1962754
0.197611
0.1986467
0.199451
0.2002009
0.2025312
0.1891942
0.1909214
0.1925539
0.1940205
0.1952524
0.1961981
0.1967993
0.1971352
0.1973749
0.1994873
0.1873771
0.1890125
0.1905487
0.191925
0.1930823
0.1939571
0.1945007
0.1946296
0.1943587
0.1936322
0.1933664
0.1816124
0.1839698
0.1757749
0.1765929
0.1783416
0.1720427
0.1725035
0.1729367
0.1741424
0.1696165
0.1700003
0.1701716
0.1702749
0.1710281
0.1681399
0.1685902
0.1687655
0.1686992
0.1685261
0.1687765
0.2035966
0.2056996
0.2068657
0.2013879
0.2035955
0.2055593
0.2067416
0.1992573
0.2014556
0.2035162
0.2053018
0.2065573
0.1971909
0.1993314
0.2013785
0.2032242
0.2047968
0.206231
0.1951687
0.1972241
0.1992085
0.2010061
0.2025717
0.2039156
0.2056218
0.1931771
0.1951371
0.1970264
0.1987439
0.2002081
0.2014411
0.2025506
0.2045755
0.1912169
0.193076
0.1948592
0.1964712
0.1978424
0.1989171
0.1997756
0.2006012
0.2029116
0.1893008
0.1910587
0.1927308
0.1942369
0.1955053
0.1964886
0.1971418
0.1975779
0.1980125
0.2003412
0.1874518
0.1891128
0.1906796
0.1920844
0.1932663
0.1941644
0.1947402
0.1949362
0.1948488
0.1946517
0.1961084
0.1857011
0.1872775
0.188756
0.1900794
0.1911909
0.1920371
0.192555
0.1926921
0.1923229
0.1913458
0.1892955
0.1907892
0.1802147
0.1811348
0.1831423
0.1749422
0.1755565
0.1761487
0.1776487
0.1713994
0.1718799
0.1721601
0.1723886
0.1733538
0.1689787
0.1694726
0.1696961
0.1696861
0.1695784
0.1699331
0.1674701
0.1680057
0.1683077
0.1683171
0.1680615
0.167531
0.1685529
0.2012849
0.2034622
0.205408
0.2067027
0.1991212
0.2012809
0.2032972
0.2050641
0.2064762
0.1970759
0.1991857
0.2011924
0.2029996
0.204555
0.2061166
0.1951057
0.1971454
0.199108
0.2008823
0.2024257
0.203758
0.2055245
0.1931771
0.1951371
0.1970264
0.1987439
0.2002081
0.2014411
0.2025506
0.2045755
0.191274
0.193147
0.1949493
0.1965819
0.1979735
0.1990709
0.1999594
0.2008244
0.2031152
0.1893956
0.1911778
0.1928826
0.1944226
0.1957234
0.1967407
0.1974402
0.1979555
0.1985209
0.2009225
0.1875542
0.1892442
0.1908485
0.1922904
0.1935063
0.194438
0.1950593
0.1953398
0.1954345
0.1956017
0.1975614
0.185773
0.1873738
0.1888814
0.1902317
0.1913663
0.1922342
0.1927807
0.1929791
0.1927727
0.1922849
0.1918329
0.194011
0.1840826
0.1856053
0.1870314
0.1883067
0.1893786
0.1901951
0.1907063
0.1908405
0.1905163
0.1894982
0.1873359
0.1871185
0.1887852
0.1790962
0.1797754
0.1804182
0.1821797
0.1741344
0.1747387
0.1751483
0.1755306
0.1767921
0.1706688
0.1712462
0.1715593
0.1716551
0.1716729
0.1722357
0.1682691
0.1688423
0.1691859
0.1692423
0.1690428
0.1685767
0.1697075
0.1667342
0.1673424
0.1677378
0.1678848
0.1677205
0.167141
0.1673258
0.1683275
0.1990218
0.2011478
0.2031275
0.2048762
0.2064047
0.1969467
0.1990178
0.2009759
0.2027374
0.2042703
0.2059813
0.1949966
0.1970072
0.1989304
0.2006633
0.2021673
0.2034774
0.2053533
0.1931172
0.1950625
0.1969312
0.1986267
0.2000683
0.2012771
0.2023645
0.2044345
0.191274
0.193147
0.1949493
0.1965819
0.1979735
0.1990709
0.1999594
0.2008244
0.2031152
0.1894503
0.1912455
0.1929683
0.1945274
0.195847
0.1968839
0.1976099
0.198167
0.1987962
0.2012124
0.1876452
0.1893582
0.1909933
0.1924671
0.1937131
0.1946754
0.1953367
0.1956854
0.1959052
0.1962761
0.1984014
0.1858715
0.1875
0.1890431
0.1904285
0.191595
0.1924941
0.1930815
0.1933558
0.1933112
0.1931614
0.1932712
0.1957721
0.184152
0.185698
0.1871518
0.1884526
0.1895465
0.1903832
0.1909213
0.1911116
0.1909391
0.1903715
0.1896894
0.1900633
0.1921528
0.1825169
0.1839903
0.1853686
0.1866002
0.1876355
0.1884277
0.1889267
0.1890781
0.1887796
0.1878543
0.1857536
0.1853263
0.1854155
0.1871453
0.1780514
0.1786868
0.179117
0.1795783
0.1811479
0.173261
0.1739429
0.1743583
0.1745804
0.174763
0.1756306
0.1698786
0.1705236
0.1709442
0.1710879
0.1709955
0.1706563
0.1720054
0.1674976
0.1681392
0.1685705
0.1687582
0.1686409
0.1681173
0.1683703
0.1694799
0.1659546
0.1666121
0.1670871
0.1673367
0.1673222
0.1668594
0.1669513
0.167119
0.1681001
0.1968524
0.1988898
0.2008087
0.2025348
0.2040515
0.2058767
0.1948738
0.1968479
0.1987235
0.2004088
0.2018671
0.2031483
0.2051573
0.1930134
0.1949313
0.1967631
0.1984194
0.1998218
0.2009875
0.2020338
0.2041832
0.1912169
0.193076
0.1948592
0.1964712
0.1978424
0.1989171
0.1997756
0.2006012
0.2029116
0.1894503
0.1912455
0.1929683
0.1945274
0.195847
0.1968839
0.1976099
0.198167
0.1987962
0.2012124
0.1876977
0.189423
0.1910752
0.1925669
0.1938302
0.1948103
0.1954941
0.1958795
0.1961606
0.1966213
0.1987944
0.185959
0.1876094
0.1891818
0.1905973
0.191792
0.1927193
0.1933428
0.1936775
0.1937444
0.1937852
0.1941456
0.1967646
0.1842469
0.1858194
0.1873071
0.1886413
0.1897651
0.1906311
0.1912073
0.1914673
0.1914439
0.1911856
0.1910246
0.1917558
0.1941138
0.1825838
0.1840797
0.1854845
0.1867404
0.1877965
0.1886079
0.1891321
0.1893366
0.1891798
0.1886773
0.1879531
0.1880615
0.1884878
0.190525
0.1809996
0.1824277
0.1837622
0.1849537
0.1859558
0.1867243
0.1872155
0.1873739
0.1871192
0.1862589
0.1843269
0.1838783
0.1837583
0.1840117
0.1857604
0.1769727
0.1776663
0.1780737
0.1783465
0.1786706
0.1799055
0.172347
0.1730798
0.1735851
0.1738289
0.1738751
0.1737176
0.1753918
0.1690356
0.1697404
0.1702375
0.1705002
0.170472
0.1700583
0.1704469
0.1717733
0.1666863
0.1673735
0.1678803
0.168165
0.1681913
0.1677756
0.1679266
0.1681621
0.1692505
0.1651419
0.1658375
0.1663681
0.1667051
0.1668031
0.16651
0.1666819
0.16676
0.1669104
0.1678708
0.1947842
0.1967265
0.1985635
0.2002127
0.2016375
0.2028946
0.2050144
0.1928966
0.1947801
0.1965671
0.198178
0.1995368
0.2006532
0.2016464
0.2038906
0.1911178
0.1929513
0.1946996
0.1962754
0.197611
0.1986467
0.199451
0.2002009
0.2025312
0.1893956
0.1911778
0.1928826
0.1944226
0.1957234
0.1967407
0.1974402
0.1979555
0.1985209
0.2009225
0.1876977
0.189423
0.1910752
0.1925669
0.1938302
0.1948103
0.1954941
0.1958795
0.1961606
0.1966213
0.1987944
0.1860095
0.1876716
0.1892602
0.1906926
0.1919035
0.1928471
0.1934912
0.1938579
0.1939797
0.194105
0.1945672
0.1972201
0.1843313
0.1859246
0.1874403
0.1888029
0.1899534
0.1908459
0.1914556
0.1917711
0.1918491
0.1917646
0.1918374
0.1927513
0.1952221
0.1826755
0.1841967
0.185634
0.1869217
0.1880062
0.1888452
0.1894053
0.1896754
0.1896577
0.1894434
0.1891995
0.1896357
0.1903476
0.1925992
0.1810644
0.182514
0.1838739
0.1850888
0.1861106
0.1868974
0.1874126
0.1876211
0.187501
0.187039
0.1864011
0.1864368
0.1866156
0.1871008
0.1891114
0.1795272
0.1809134
0.1822074
0.1833622
0.1843336
0.1850807
0.1855622
0.1857305
0.1855046
0.1847213
0.1829184
0.182561
0.1824166
0.1824695
0.1828161
0.1843923
0.175881
0.1766084
0.1770897
0.1773564
0.1775149
0.1775688
0.1796513
0.1713941
0.1721746
0.1727409
0.173087
0.1731715
0.1729147
0.1735027
0.1751515
0.1681603
0.1689035
0.1694681
0.1698168
0.1699201
0.1695969
0.1698653
0.1702358
0.1715394
0.165845
0.1665673
0.1671261
0.1674941
0.1676274
0.1673755
0.1675973
0.1677343
0.1679522
0.1690192
0.1643075
0.1650294
0.1656037
0.1660029
0.1661967
0.1660328
0.1663426
0.1665029
0.166567
0.1667
0.1675911
0.1928114
0.1946648
0.1964155
0.1979917
0.1993191
0.2004
0.2013493
0.2036771
0.1910064
0.1928075
0.1945137
0.1960473
0.1973429
0.1983358
0.1990766
0.1997254
0.2020489
0.1893008
0.1910587
0.1927308
0.1942369
0.1955053
0.1964886
0.1971418
0.1975779
0.1980125
0.2003412
0.1876452
0.1893582
0.1909933
0.1924671
0.1937131
0.1946754
0.1953367
0.1956854
0.1959052
0.1962761
0.1984014
0.1860095
0.1876716
0.1892602
0.1906926
0.1919035
0.1928471
0.1934912
0.1938579
0.1939797
0.194105
0.1945672
0.1972201
0.1843799
0.1859845
0.1875156
0.1888942
0.19006
0.1909678
0.1915964
0.1919414
0.1920687
0.1920614
0.1922298
0.1932211
0.1957275
0.182757
0.1842982
0.1857621
0.187077
0.1881868
0.1890508
0.1896424
0.1899644
0.1900412
0.1899873
0.1899576
0.1905629
0.1914374
0.193784
0.1811531
0.1826271
0.1840181
0.1852633
0.1863123
0.1871252
0.1876746
0.1879452
0.1879565
0.1877652
0.1875759
0.1879085
0.1883481
0.1890587
0.1912336
0.17959
0.1809969
0.1823154
0.1834925
0.1844828
0.1852472
0.1857517
0.185968
0.1858699
0.1854649
0.1848847
0.1849742
0.1850911
0.1853464
0.1858902
0.1877069
0.1780966
0.1794438
0.1807003
0.1818211
0.1827643
0.1834912
0.183964
0.1841378
0.1839415
0.1832153
0.1815419
0.1812465
0.1811855
0.1812167
0.1813756
0.1816235
0.1841146
0.1747704
0.1755345
0.1760627
0.1764152
0.1765825
0.1765069
0.1773433
0.1793966
0.1704206
0.1712294
0.1718522
0.1722694
0.1724685
0.1722764
0.1727172
0.1732863
0.1749098
0.1672611
0.1680338
0.1686434
0.1690676
0.1692671
0.1690958
0.1694167
0.1696708
0.1700231
0.1713037
0.1649844
0.1657306
0.1663302
0.166757
0.1669821
0.1668539
0.1672074
0.1674175
0.1675403
0.1677406
0.168737
0.1634579
0.1641992
0.1648047
0.1652536
0.165517
0.1654629
0.165874
0.1661738
0.1663224
0.1663725
0.1664434
0.1673049
0.1909251
0.1926977
0.1943697
0.195871
0.1971376
0.1981012
0.1987952
0.199356
0.2016497
0.1891942
0.1909214
0.1925539
0.1940205
0.1952524
0.1961981
0.1967993
0.1971352
0.1973749
0.1994873
0.1875542
0.1892442
0.1908485
0.1922904
0.1935063
0.194438
0.1950593
0.1953398
0.1954345
0.1956017
0.1975614
0.185959
0.1876094
0.1891818
0.1905973
0.191792
0.1927193
0.1933428
0.1936775
0.1937444
0.1937852
0.1941456
0.1967646
0.1843799
0.1859845
0.1875156
0.1888942
0.19006
0.1909678
0.1915964
0.1919414
0.1920687
0.1920614
0.1922298
0.1932211
0.1957275
0.182804
0.1843559
0.1858345
0.1871647
0.188289
0.1891675
0.1897769
0.1901263
0.1902492
0.1902658
0.1903234
0.191001
0.1919469
0.1943236
0.1812319
0.182725
0.1841416
0.1854128
0.1864859
0.1873226
0.1879018
0.1882215
0.1883218
0.1882808
0.1882898
0.1887749
0.1893649
0.1902131
0.1924562
0.1796759
0.1811063
0.1824546
0.1836609
0.1846771
0.1854666
0.1860035
0.186279
0.1863057
0.1861571
0.1859987
0.1863622
0.1867125
0.187173
0.1878947
0.1898251
0.1781575
0.1795247
0.1808048
0.1819471
0.1829084
0.1836518
0.1841466
0.1843662
0.1842922
0.1839264
0.183415
0.1835343
0.1837086
0.1839112
0.1842426
0.1846816
0.1874219
0.1767047
0.1780156
0.1792374
0.1803267
0.1812436
0.1819517
0.1824158
0.1825944
0.1824207
0.1817489
0.1801786
0.1799509
0.1799446
0.180057
0.1801995
0.1802889
0.1813813
0.1838387
0.1736562
0.1744396
0.1750156
0.1754245
0.1756877
0.1756449
0.1763005
0.1771173
0.1791416
0.1694327
0.1702629
0.1709216
0.1714036
0.1716837
0.1716262
0.1720923
0.1725185
0.1730687
0.1746666
0.1663479
0.1671396
0.1677845
0.1682608
0.1685442
0.1684859
0.168926
0.169235
0.1694747
0.1698088
0.1710163
0.1641109
0.1648743
0.1655029
0.1659765
0.1662677
0.1662454
0.1666945
0.1670379
0.1672362
0.1673448
0.1674824
0.1684482
0.1625984
0.1633534
0.1639828
0.1644683
0.1647877
0.1648155
0.1653117
0.1657139
0.1660036
0.1661404
0.1661351
0.1661809
0.1670871
0.1891163
0.1908166
0.1924169
0.1938531
0.1950586
0.1959782
0.196543
0.1967972
0.1968364
0.198533
0.1874518
0.1891128
0.1906796
0.1920844
0.1932663
0.1941644
0.1947402
0.1949362
0.1948488
0.1946517
0.1961084
0.1858715
0.1875
0.1890431
0.1904285
0.191595
0.1924941
0.1930815
0.1933558
0.1933112
0.1931614
0.1932712
0.1957721
0.1843313
0.1859246
0.1874403
0.1888029
0.1899534
0.1908459
0.1914556
0.1917711
0.1918491
0.1917646
0.1918374
0.1927513
0.1952221
0.182804
0.1843559
0.1858345
0.1871647
0.188289
0.1891675
0.1897769
0.1901263
0.1902492
0.1902658
0.1903234
0.191001
0.1919469
0.1943236
0.1812773
0.1827808
0.1842114
0.1854972
0.1865841
0.1874346
0.1880307
0.1883763
0.1885197
0.1885447
0.188634
0.1891841
0.1898408
0.1907511
0.1930135
0.1797523
0.181201
0.182574
0.1838051
0.1848444
0.1856565
0.1862219
0.186544
0.1866552
0.1866484
0.1866756
0.1871788
0.1876639
0.1882519
0.1890844
0.1910487
0.1782408
0.1796306
0.1809395
0.1821097
0.1830959
0.1838633
0.1843892
0.1846654
0.1847105
0.1845885
0.1844766
0.1848506
0.1852384
0.1856221
0.1861158
0.1866939
0.1895388
0.1767639
0.1780941
0.1793386
0.1804486
0.1813829
0.1821069
0.182592
0.1828147
0.1827581
0.182431
0.181969
0.1821303
0.1823369
0.1825997
0.1828865
0.1831463
0.1844362
0.1871387
0.1753492
0.1766261
0.1778154
0.1788754
0.1797679
0.1804584
0.1809141
0.1810962
0.1809427
0.1803152
0.1788393
0.1786591
0.1787122
0.1788768
0.1791011
0.1791908
0.1800683
0.1811406
0.1835646
0.172541
0.1733395
0.1739442
0.1744086
0.1747362
0.1748066
0.175453
0.1760938
0.1768909
0.1788862
0.1684388
0.1692812
0.1699681
0.1704932
0.1708463
0.1708861
0.171453
0.1719071
0.1723186
0.1728497
0.1743706
0.1654262
0.166231
0.1669002
0.1674179
0.1677608
0.1678005
0.168325
0.1687549
0.1690519
0.1692771
0.1695475
0.1707222
0.1632294
0.1640047
0.164655
0.1651629
0.1655074
0.1655636
0.1660936
0.1665338
0.166867
0.1670534
0.1671063
0.1672184
0.1682285
0.1617328
0.1624974
0.1631447
0.1636588
0.1640206
0.1641152
0.1646709
0.1651591
0.1655524
0.1658319
0.1659183
0.1658924
0.1659814
0.1669393
0.1873771
0.1890125
0.1905487
0.191925
0.1930823
0.1939571
0.1945007
0.1946296
0.1943587
0.1936322
0.1933664
0.185773
0.1873738
0.1888814
0.1902317
0.1913663
0.1922342
0.1927807
0.1929791
0.1927727
0.1922849
0.1918329
0.194011
0.1842469
0.1858194
0.1873071
0.1886413
0.1897651
0.1906311
0.1912073
0.1914673
0.1914439
0.1911856
0.1910246
0.1917558
0.1941138
0.182757
0.1842982
0.1857621
0.187077
0.1881868
0.1890508
0.1896424
0.1899644
0.1900412
0.1899873
0.1899576
0.1905629
0.1914374
0.193784
0.1812773
0.1827808
0.1842114
0.1854972
0.1865841
0.1874346
0.1880307
0.1883763
0.1885197
0.1885447
0.188634
0.1891841
0.1898408
0.1907511
0.1930135
0.1797963
0.1812549
0.1826414
0.1838865
0.184939
0.1857642
0.1863457
0.1866925
0.1868446
0.1868998
0.187002
0.1875643
0.188109
0.1887554
0.1896385
0.1916065
0.1783149
0.1797224
0.181055
0.1822491
0.1832573
0.1840465
0.1845995
0.1849203
0.1850459
0.1850585
0.1851217
0.1856251
0.1861357
0.1866326
0.1872296
0.1878915
0.1907622
0.1768448
0.1781969
0.1794691
0.180606
0.1815642
0.1823113
0.1828261
0.1831031
0.1831605
0.1830662
0.1829841
0.1833845
0.1837877
0.1842144
0.1846424
0.1850308
0.1864498
0.1892539
0.1754067
0.1767024
0.1779136
0.1789935
0.1799027
0.1806086
0.1810845
0.1813089
0.1812679
0.1809711
0.1805558
0.1807423
0.1809913
0.1812881
0.1816376
0.1818707
0.1829238
0.1841924
0.1868574
0.1740276
0.1752728
0.1764317
0.1774643
0.1783339
0.179008
0.1794554
0.1796403
0.179504
0.1789163
0.1775204
0.1773835
0.1774765
0.1776967
0.1779727
0.1781542
0.178986
0.1798491
0.1809014
0.1832922
0.1714315
0.1722369
0.1728651
0.1733648
0.173754
0.1739026
0.1746263
0.1752608
0.1758868
0.1766642
0.1785768
0.1674431
0.168293
0.1689981
0.1695577
0.169961
0.1700875
0.1707221
0.1712787
0.1717207
0.1721174
0.1725831
0.1740676
0.1645004
0.1653134
0.1660005
0.166548
0.1669387
0.1670502
0.1676473
0.1681628
0.1685824
0.1688674
0.1690362
0.1692801
0.1704984
0.1623435
0.1631268
0.1637932
0.1643277
0.1647123
0.1648325
0.1654185
0.1659405
0.1663717
0.1666946
0.1668304
0.1668624
0.1670176
0.1680793
0.1608641
0.1616351
0.1622957
0.1628321
0.1632277
0.1633744
0.1639766
0.1645251
0.1650053
0.1653896
0.1656225
0.1656913
0.1657081
0.1658461
0.1668637
0.184525
0.1857011
0.1872775
0.188756
0.1900794
0.1911909
0.1920371
0.192555
0.1926921
0.1923229
0.1913458
0.1892955
0.1907892
0.184152
0.185698
0.1871518
0.1884526
0.1895465
0.1903832
0.1909213
0.1911116
0.1909391
0.1903715
0.1896894
0.1900633
0.1921528
0.1826755
0.1841967
0.185634
0.1869217
0.1880062
0.1888452
0.1894053
0.1896754
0.1896577
0.1894434
0.1891995
0.1896357
0.1903476
0.1925992
0.1812319
0.182725
0.1841416
0.1854128
0.1864859
0.1873226
0.1879018
0.1882215
0.1883218
0.1882808
0.1882898
0.1887749
0.1893649
0.1902131
0.1924562
0.1797963
0.1812549
0.1826414
0.1838865
0.184939
0.1857642
0.1863457
0.1866925
0.1868446
0.1868998
0.187002
0.1875643
0.188109
0.1887554
0.1896385
0.1916065
0.1783576
0.1797746
0.1811202
0.1823278
0.1833486
0.1841503
0.1847188
0.1850631
0.1852276
0.185299
0.1854327
0.1859907
0.1865554
0.187104
0.1877492
0.1884496
0.1913199
0.1769168
0.1782859
0.179581
0.1807409
0.1817202
0.1824881
0.1830291
0.1833488
0.1834831
0.1835171
0.1836011
0.1841226
0.1846388
0.1851679
0.1856864
0.1861547
0.1876487
0.1904767
0.1754854
0.1768022
0.1780403
0.1791461
0.1800783
0.1808063
0.1813108
0.1815874
0.1816558
0.181582
0.1815294
0.1819415
0.1823738
0.1828196
0.1832952
0.1836387
0.1848102
0.1862069
0.1889703
0.1740835
0.1753469
0.1765271
0.177579
0.1784647
0.1791535
0.1796204
0.1798461
0.1798181
0.1795483
0.1791701
0.1793807
0.1796549
0.1799939
0.1803783
0.1806848
0.1816646
0.1827027
0.1839502
0.1865779
0.1727378
0.1739532
0.1750838
0.1760907
0.176939
0.1775975
0.1780371
0.1782239
0.1781028
0.1775499
0.1762257
0.1761222
0.1762506
0.176507
0.176837
0.1770774
0.1779619
0.1787825
0.1796312
0.1806635
0.1829647
0.1703299
0.1711388
0.1717814
0.1723102
0.1727399
0.1729614
0.173732
0.1744456
0.1750682
0.1756794
0.1763893
0.1782599
0.1664492
0.1673026
0.1680205
0.168604
0.169048
0.1692364
0.1699315
0.1705571
0.1711033
0.1715332
0.1718725
0.1723104
0.173837
0.1635735
0.1643914
0.1650911
0.1656614
0.1660877
0.1662579
0.1669039
0.167493
0.1679994
0.1684086
0.1686425
0.1687899
0.1690769
0.1703464
0.1614559
0.1622442
0.1629224
0.1634774
0.1638938
0.1640638
0.1646934
0.1652722
0.1657861
0.1662083
0.1664844
0.1666024
0.1666772
0.1668815
0.1680031
0.1599944
0.1607694
0.1614399
0.1619937
0.1624162
0.1626054
0.1632413
0.1638369
0.1643781
0.1648502
0.1651909
0.1654085
0.165519
0.1655831
0.165777
0.1791104
0.1816124
0.1839698
0.1840826
0.1856053
0.1870314
0.1883067
0.1893786
0.1901951
0.1907063
0.1908405
0.1905163
0.1894982
0.1873359
0.1871185
0.1887852
0.1825838
0.1840797
0.1854845
0.1867404
0.1877965
0.1886079
0.1891321
0.1893366
0.1891798
0.1886773
0.1879531
0.1880615
0.1884878
0.190525
0.1811531
0.1826271
0.1840181
0.1852633
0.1863123
0.1871252
0.1876746
0.1879452
0.1879565
0.1877652
0.1875759
0.1879085
0.1883481
0.1890587
0.1912336
0.1797523
0.181201
0.182574
0.1838051
0.1848444
0.1856565
0.1862219
0.186544
0.1866552
0.1866484
0.1866756
0.1871788
0.1876639
0.1882519
0.1890844
0.1910487
0.1783576
0.1797746
0.1811202
0.1823278
0.1833486
0.1841503
0.1847188
0.1850631
0.1852276
0.185299
0.1854327
0.1859907
0.1865554
0.187104
0.1877492
0.1884496
0.1913199
0.1769582
0.1783366
0.1796442
0.180817
0.1818085
0.1825884
0.1831442
0.1834864
0.1836579
0.1837479
0.1838985
0.184471
0.185037
0.1856127
0.1861734
0.1866792
0.1882074
0.1910342
0.1755554
0.1768886
0.1781488
0.1792768
0.1802294
0.1809774
0.181507
0.1818246
0.1819668
0.1820156
0.1821212
0.1826473
0.1831849
0.1837242
0.1842807
0.1846932
0.1859359
0.1874069
0.1901922
0.1741601
0.175444
0.1766501
0.1777271
0.178635
0.1793451
0.1798396
0.1801154
0.1801927
0.1801369
0.1801061
0.1805307
0.1809767
0.1814534
0.1819508
0.1823545
0.1834347
0.1845908
0.1859652
0.1886881
0.1727924
0.1740253
0.1751765
0.1762021
0.177066
0.1777387
0.1781971
0.1784232
0.1784066
0.1781599
0.1778146
0.1780416
0.1783392
0.1787028
0.1791291
0.1794781
0.1804915
0.1814598
0.1824832
0.1837095
0.1862418
0.1714778
0.1726654
0.1737692
0.1747521
0.1755804
0.1762244
0.1766564
0.1768445
0.1767367
0.1762151
0.1749547
0.1748797
0.1750342
0.1753221
0.1756865
0.1759861
0.1768956
0.1777709
0.1785803
0.1794147
0.1803775
0.1826294
0.1692386
0.1700477
0.1707005
0.1712487
0.1717118
0.1719834
0.1727992
0.1735611
0.1742647
0.1748753
0.175428
0.1761081
0.1780187
0.1654595
0.1663135
0.1670398
0.1676412
0.1681145
0.1683538
0.1690873
0.1697744
0.170391
0.1709269
0.1713049
0.1716221
0.172103
0.1736803
0.1626479
0.163468
0.1641766
0.1647641
0.1652183
0.1654337
0.1661177
0.1667564
0.1673374
0.1678347
0.1681967
0.1684125
0.1686027
0.168939
0.1702687
0.1605687
0.1613597
0.1620463
0.1626173
0.1630588
0.1632694
0.1639302
0.1645532
0.1651246
0.1656305
0.1660089
0.1662696
0.1664293
0.1665516
0.166812
0.1591254
0.1599025
0.1605802
0.1611475
0.1615917
0.1618158
0.1624772
0.1631069
0.1636959
0.1642298
0.164661
0.164988
0.165246
0.1654023
0.1655194
0.1753696
0.1768305
0.1788418
0.1802147
0.1811348
0.1831423
0.1825169
0.1839903
0.1853686
0.1866002
0.1876355
0.1884277
0.1889267
0.1890781
0.1887796
0.1878543
0.1857536
0.1853263
0.1854155
0.1871453
0.1810644
0.182514
0.1838739
0.1850888
0.1861106
0.1868974
0.1874126
0.1876211
0.187501
0.187039
0.1864011
0.1864368
0.1866156
0.1871008
0.1891114
0.1796759
0.1811063
0.1824546
0.1836609
0.1846771
0.1854666
0.1860035
0.186279
0.1863057
0.1861571
0.1859987
0.1863622
0.1867125
0.187173
0.1878947
0.1898251
0.1783149
0.1797224
0.181055
0.1822491
0.1832573
0.1840465
0.1845995
0.1849203
0.1850459
0.1850585
0.1851217
0.1856251
0.1861357
0.1866326
0.1872296
0.1878915
0.1907622
0.1769582
0.1783366
0.1796442
0.180817
0.1818085
0.1825884
0.1831442
0.1834864
0.1836579
0.1837479
0.1838985
0.184471
0.185037
0.1856127
0.1861734
0.1866792
0.1882074
0.1910342
0.1755957
0.1769378
0.1782102
0.1793506
0.1803149
0.1810744
0.1816182
0.1819575
0.1821353
0.1822376
0.1824065
0.1829805
0.1835643
0.1841461
0.1847404
0.1851853
0.1864613
0.1879661
0.1907493
0.1742282
0.1755281
0.1767556
0.1778539
0.1787815
0.1795108
0.1800295
0.1803448
0.180493
0.1805548
0.1806751
0.1812076
0.1817522
0.1823154
0.1828859
0.1833503
0.1844911
0.1857181
0.1871659
0.1899087
0.172867
0.1741198
0.1752962
0.176346
0.1772313
0.1779246
0.1784095
0.1786841
0.1787689
0.1787282
0.1787163
0.179147
0.1796066
0.1800982
0.1806276
0.1810623
0.1821634
0.1832318
0.1843726
0.1857247
0.1883482
0.171531
0.1727357
0.1738595
0.1748605
0.1757038
0.1763616
0.1768117
0.1770379
0.1770309
0.1768049
0.1764879
0.1767283
0.1770414
0.1774274
0.1778775
0.1782737
0.1792954
0.1802995
0.1812565
0.1822651
0.1834202
0.1858978
0.1702462
0.1714072
0.1724861
0.1734464
0.1742559
0.1748861
0.1753109
0.1755
0.175404
0.1749103
0.1737076
0.1736565
0.1738326
0.1741427
0.1745364
0.1748745
0.1758133
0.1767151
0.1775812
0.1783794
0.1791544
0.1800849
0.1823742
0.1681588
0.1689661
0.1696251
0.1701878
0.1706742
0.1709874
0.1718285
0.1726367
0.1733899
0.1740834
0.1746415
0.175171
0.1758942
0.1778548
0.1644756
0.1653281
0.1660597
0.1666741
0.1671701
0.1674479
0.1682111
0.1689374
0.1696164
0.170224
0.1707121
0.1710716
0.1714317
0.1719623
0.1736001
0.1617253
0.1625457
0.1632602
0.1638607
0.1643367
0.1645887
0.165299
0.1659763
0.1666077
0.1671806
0.1676338
0.1679801
0.1682379
0.1684758
0.1688685
0.1596833
0.1604753
0.1611679
0.1617511
0.1622128
0.1624565
0.1631407
0.1637954
0.1644118
0.1649759
0.1654406
0.1658053
0.1661065
0.1663121
0.1664875
0.1582583
0.1590361
0.1597189
0.1602969
0.1607585
0.1610116
0.1616921
0.1623478
0.1629715
0.1635538
0.1640489
0.1644677
0.164834
0.165136
0.1653428
0.1729459
0.1734988
0.1751599
0.1757749
0.1765929
0.1783416
0.1790962
0.1797754
0.1804182
0.1821797
0.1809996
0.1824277
0.1837622
0.1849537
0.1859558
0.1867243
0.1872155
0.1873739
0.1871192
0.1862589
0.1843269
0.1838783
0.1837583
0.1840117
0.1857604
0.17959
0.1809969
0.1823154
0.1834925
0.1844828
0.1852472
0.1857517
0.185968
0.1858699
0.1854649
0.1848847
0.1849742
0.1850911
0.1853464
0.1858902
0.1877069
0.1782408
0.1796306
0.1809395
0.1821097
0.1830959
0.1838633
0.1843892
0.1846654
0.1847105
0.1845885
0.1844766
0.1848506
0.1852384
0.1856221
0.1861158
0.1866939
0.1895388
0.1769168
0.1782859
0.179581
0.1807409
0.1817202
0.1824881
0.1830291
0.1833488
0.1834831
0.1835171
0.1836011
0.1841226
0.1846388
0.1851679
0.1856864
0.1861547
0.1876487
0.1904767
0.1755957
0.1769378
0.1782102
0.1793506
0.1803149
0.1810744
0.1816182
0.1819575
0.1821353
0.1822376
0.1824065
0.1829805
0.1835643
0.1841461
0.1847404
0.1851853
0.1864613
0.1879661
0.1907493
0.1742675
0.1755759
0.1768151
0.1779255
0.1788643
0.1796048
0.1801371
0.1804733
0.1806557
0.1807687
0.1809494
0.1815273
0.1821151
0.1827175
0.183322
0.183815
0.1849841
0.1862443
0.1877256
0.1904653
0.1729334
0.1742017
0.1753987
0.1764692
0.1773735
0.1780854
0.1785936
0.1789062
0.1790593
0.1791317
0.1792645
0.1797978
0.1803505
0.1809225
0.1815188
0.1820072
0.183161
0.1842898
0.1855011
0.1869259
0.1895669
0.1716038
0.1728277
0.173976
0.1750005
0.1758645
0.1765421
0.1770179
0.1772909
0.1773819
0.1773544
0.1773582
0.1777932
0.1782597
0.1787654
0.1793102
0.1797835
0.1808817
0.1819732
0.18303
0.1841555
0.1854351
0.1880002
0.1702981
0.1714758
0.1725741
0.1735519
0.174376
0.1750195
0.1754618
0.1756877
0.1756894
0.1754814
0.1751895
0.1754403
0.1757657
0.176166
0.1766372
0.1770614
0.1781001
0.1791139
0.1801088
0.1810545
0.182003
0.1831241
0.1856358
0.1690406
0.1701772
0.1712323
0.1721716
0.1729633
0.1735806
0.1739984
0.1741882
0.1741028
0.1736344
0.1724838
0.1724533
0.1726467
0.1729746
0.1733884
0.1737591
0.1747096
0.1756417
0.1765357
0.1773926
0.1781379
0.1788882
0.1798623
0.1822008
0.1670915
0.1678952
0.1685579
0.1691308
0.169635
0.1699787
0.1708391
0.1716734
0.1724739
0.1732184
0.1738637
0.1744025
0.1749756
0.175749
0.177771
0.1634988
0.1643483
0.1650826
0.1657064
0.1662197
0.1665286
0.1673108
0.1680675
0.1687865
0.1694575
0.1700206
0.1704926
0.1708943
0.1713027
0.1718904
0.160807
0.1616262
0.1623443
0.1629545
0.1634478
0.1637295
0.164459
0.1651632
0.1658339
0.1664579
0.1669894
0.1674287
0.1678157
0.1681195
0.1684111
0.1588008
0.1595926
0.1602893
0.1608818
0.1613596
0.1616307
0.1623323
0.163011
0.1636596
0.1642692
0.1647944
0.1652467
0.1656507
0.1659961
0.1662523
0.1573938
0.1581714
0.1588578
0.159444
0.1599199
0.160197
0.160892
0.1615673
0.1622174
0.1628349
0.1633804
0.1638642
0.1643211
0.1647298
0.16508
0.1717469
0.17133
0.1727519
0.1726779
0.1733095
0.1747476
0.1749422
0.1755565
0.1761487
0.1776487
0.1780514
0.1786868
0.179117
0.1795783
0.1811479
0.1795272
0.1809134
0.1822074
0.1833622
0.1843336
0.1850807
0.1855622
0.1857305
0.1855046
0.1847213
0.1829184
0.182561
0.1824166
0.1824695
0.1828161
0.1843923
0.1781575
0.1795247
0.1808048
0.1819471
0.1829084
0.1836518
0.1841466
0.1843662
0.1842922
0.1839264
0.183415
0.1835343
0.1837086
0.1839112
0.1842426
0.1846816
0.1874219
0.1768448
0.1781969
0.1794691
0.180606
0.1815642
0.1823113
0.1828261
0.1831031
0.1831605
0.1830662
0.1829841
0.1833845
0.1837877
0.1842144
0.1846424
0.1850308
0.1864498
0.1892539
0.1755554
0.1768886
0.1781488
0.1792768
0.1802294
0.1809774
0.181507
0.1818246
0.1819668
0.1820156
0.1821212
0.1826473
0.1831849
0.1837242
0.1842807
0.1846932
0.1859359
0.1874069
0.1901922
0.1742675
0.1755759
0.1768151
0.1779255
0.1788643
0.1796048
0.1801371
0.1804733
0.1806557
0.1807687
0.1809494
0.1815273
0.1821151
0.1827175
0.183322
0.183815
0.1849841
0.1862443
0.1877256
0.1904653
0.1729716
0.1742482
0.1754566
0.1765388
0.1774539
0.1781765
0.178698
0.1790306
0.1792166
0.1793382
0.1795289
0.1801051
0.1806984
0.181307
0.1819344
0.1824482
0.1836266
0.1847837
0.186028
0.1874859
0.1901226