/*--------------------------------*- C++ -*----------------------------------*\
| =========                 |                                                 |
| \\      /  F ield         | OpenFOAM: The Open Source CFD Toolbox           |
|  \\    /   O peration     | Version:  2306                                  |
|   \\  /    A nd           | Website:  www.openfoam.com                      |
|    \\/     M anipulation  |                                                 |
\*---------------------------------------------------------------------------*/
FoamFile
{
    version     2.0;
    format      ascii;
    arch        "LSB;label=32;scalar=64";
    class       volScalarField;
    location    "0.9/air";
    object      diffSp.O2;
}
// * * * * * * * * * * * * * * * * * * * * * * * * * * * * * * * * * * * * * //

dimensions      [0 2 -1 0 0 0 0];

internalField   nonuniform List<scalar> 
16000
(
0.000214539
0.0002107169
0.0002190322
0.0002106522
0.0002086323
0.000218041
0.0002015234
0.0002201609
0.0002180258
0.0002085111
0.0002074592
0.0002171871
0.000195964
0.0002197468
0.0002151127
0.0001958753
0.0002210808
0.0002197617
0.0002171541
0.0002072699
0.0002069173
0.0002165611
0.0001926791
0.0002193763
0.0002125778
0.0001876636
0.0002208809
0.0002185461
0.0002125373
0.0001924436
0.0002218903
0.0002209078
0.0002194009
0.0002165014
0.0002066376
0.0002069173
0.0002162301
0.0001911371
0.0002190935
0.0002107105
0.0001826153
0.0002207063
0.0002174408
0.0002084632
0.0001824191
0.000221779
0.0002203392
0.0002174465
0.0002105942
0.0001906684
0.0002226272
0.0002218085
0.0002207542
0.0002191251
0.0002161338
0.0002065132
0.0001274996
0.0002074592
0.0002162301
0.0001911371
0.0002189398
0.0002097207
0.0001801917
0.0002205741
0.0002165892
0.0002054341
0.0001760919
0.0002216857
0.0002198281
0.0002156425
0.0002053271
0.0001796468
0.000222555
0.0002215057
0.000219853
0.0002165914
0.0002094906
0.0001903333
0.0002233033
0.0002225836
0.0002217393
0.0002206434
0.0002189788
0.0002160933
0.0002068887
0.0001274858
0.0001279878
0.0001278137
0.0002086323
0.0002165611
0.0001926791
0.0002189398
0.0002097207
0.0001801917
0.0002205025
0.0002161244
0.0002038215
0.0001730078
0.0002216171
0.0002194356
0.0002142382
0.0002013783
0.0001725895
0.0002224973
0.0002212414
0.0002190276
0.0002142263
0.0002035326
0.0001791179
0.0002232491
0.0002223966
0.0002212721
0.0002194893
0.0002161201
0.0002093541
0.0001914227
0.0002239302
0.0002232756
0.0002225495
0.000221696
0.0002205971
0.0002189929
0.0002163939
0.0002078427
0.0001274557
0.0001279849
0.000127794
0.0001284691
0.000128277
0.0001281301
0.0002107169
0.0002171871
0.000195964
0.0002190935
0.0002107105
0.0001826153
0.0002205025
0.0002161244
0.0002038215
0.0001730078
0.0002215804
0.0002192212
0.0002134675
0.0001992667
0.0001691207
0.0002224561
0.0002210429
0.0002183851
0.0002123691
0.000199043
0.000171913
0.0002232073
0.0002222389
0.0002208552
0.000218417
0.0002134325
0.0002032978
0.0001808216
0.0002238852
0.0002231402
0.0002222698
0.0002211128
0.0002193151
0.0002161276
0.0002102227
0.0001941113
0.0002245135
0.0002239093
0.0002232558
0.0002225335
0.0002216897
0.0002206315
0.0002191786
0.0002170236
0.0002096096
0.0001273977
0.0001279799
0.0001277479
0.0001284688
0.0001282743
0.0001281056
0.0001289182
0.0001287247
0.0001285665
0.0001284505
0.000214539
0.000218041
0.0002015234
0.0002193763
0.0002125778
0.0001876636
0.0002205741
0.0002165892
0.0002054341
0.0001760919
0.0002215804
0.0002192212
0.0002134675
0.0001992667
0.0001691207
0.0002224346
0.0002209359
0.0002180314
0.0002113449
0.0001966347
0.0001683648
0.0002231784
0.0002221239
0.0002205373
0.0002175731
0.0002113096
0.0001987262
0.0001740618
0.0002238512
0.0002230295
0.0002220283
0.0002205839
0.0002181118
0.0002134222
0.0002046812
0.0001849503
0.0002244737
0.000223799
0.0002230585
0.0002221952
0.0002210608
0.0002193793
0.0002166427
0.0002120448
0.0001988669
0.0002250587
0.0002244957
0.0002238954
0.0002232503
0.0002225422
0.0002217291
0.0002207544
0.0002195308
0.0002179637
0.000212866
0.0001272427
0.0001279745
0.0001276494
0.0001284695
0.0001282698
0.0001280473
0.0001289188
0.0001287262
0.0001285638
0.0001284228
0.0001293319
0.0001291423
0.00012898
0.0001288573
0.0001287728
0.0002190322
0.0002106522
0.0002197468
0.0002151127
0.0001958753
0.0002207063
0.0002174408
0.0002084632
0.0001824191
0.0002216171
0.0002194356
0.0002142382
0.0002013783
0.0001725895
0.0002224346
0.0002209359
0.0002180314
0.0002113449
0.0001966347
0.0001683648
0.0002231635
0.000222063
0.0002203644
0.0002171054
0.000210135
0.0001962712
0.0001707463
0.000223828
0.000222951
0.0002218493
0.0002201754
0.0002171568
0.0002112785
0.0002005024
0.0001792089
0.000224444
0.0002237106
0.0002228934
0.0002218982
0.0002204831
0.000218194
0.0002142379
0.0002075773
0.0001919926
0.0002250224
0.000224399
0.0002237372
0.0002230183
0.0002221911
0.0002211413
0.0002197009
0.00021763
0.0002146972
0.0002068086
0.0002255694
0.0002250424
0.0002244841
0.0002238938
0.0002232638
0.0002225808
0.0002218202
0.0002209696
0.0002200502
0.0002192514
0.0001261639
0.0001279877
0.0001273996
0.000128475
0.0001282668
0.0001279241
0.0001289211
0.0001287315
0.0001285592
0.0001283569
0.0001293327
0.000129145
0.0001289828
0.0001288545
0.0001287433
0.0001297167
0.0001295287
0.0001293659
0.0001292356
0.0001291466
5.450457e-05
0.0002201609
0.0002180258
0.0002085111
0.0002208809
0.0002185461
0.0002125373
0.0001924436
0.0002216857
0.0002198281
0.0002156425
0.0002053271
0.0001796468
0.0002224561
0.0002210429
0.0002183851
0.0002123691
0.000199043
0.000171913
0.0002231635
0.000222063
0.0002203644
0.0002171054
0.000210135
0.0001962712
0.0001707463
0.0002238163
0.0002229102
0.0002217536
0.0002199514
0.0002166249
0.0002100902
0.0001982598
0.000176419
0.0002244239
0.0002236491
0.0002227746
0.0002216751
0.0002200319
0.0002172469
0.0002123275
0.0002042135
0.0001877818
0.0002249954
0.0002243223
0.0002236077
0.0002228213
0.0002218786
0.0002205934
0.0002186891
0.0002157991
0.0002117233
0.0002030314
0.0002255358
0.0002249544
0.0002243465
0.000223711
0.0002230315
0.0002222724
0.000221368
0.0002202723
0.0002190149
0.0002180071
0.0001248788
0.0002260491
0.0002255541
0.000225032
0.0002244837
0.000223908
0.0002232998
0.0002226546
0.0002219707
0.0002212961
0.0002208248
0.0001282264
0.000126564
0.0001285183
0.0001282854
0.0001276472
0.0001289297
0.0001287492
0.0001285555
0.0001282233
0.0001293355
0.0001291532
0.0001289914
0.0001288493
0.0001286745
0.0001297175
0.0001295316
0.0001293703
0.0001292394
0.0001291437
5.449185e-05
0.0001300744
0.0001298902
0.0001297248
0.0001295895
0.0001294889
5.465745e-05
5.451312e-05
0.0002210808
0.0002197617
0.0002171541
0.0002072699
0.000221779
0.0002203392
0.0002174465
0.0002105942
0.0001906684
0.0002224973
0.0002212414
0.0002190276
0.0002142263
0.0002035326
0.0001791179
0.0002231784
0.0002221239
0.0002205373
0.0002175731
0.0002113096
0.0001987262
0.0001740618
0.0002238163
0.0002229102
0.0002217536
0.0002199514
0.0002166249
0.0002100902
0.0001982598
0.000176419
0.0002244138
0.0002236176
0.0002227123
0.0002215548
0.0002197828
0.0002167174
0.0002112675
0.0002024104
0.0001857581
0.0002249773
0.0002242695
0.0002235164
0.0002226778
0.0002216408
0.0002201603
0.0002178727
0.0002143329
0.0002094701
0.0002007195
0.0002255109
0.000224885
0.0002242352
0.0002235595
0.0002228318
0.0002219921
0.0002209318
0.0002195652
0.0002179275
0.0002167078
0.0001238639
0.0002260177
0.0002254725
0.000224907
0.000224326
0.0002237293
0.000223108
0.0002224499
0.0002217471
0.0002210788
0.0002207397
0.0001280737
0.0001255514
0.0002265002
0.0002260345
0.0002255443
0.0002250318
0.0002244972
0.000223941
0.0002233629
0.0002227719
0.000222206
0.0002218417
0.0001289671
0.0001284018
0.0001269885
0.0001289791
0.0001288198
0.0001285666
0.0001279547
0.0001293444
0.0001291762
0.0001290149
0.0001288431
0.000128541
0.0001297202
0.0001295403
0.0001293826
0.0001292495
0.0001291376
5.446234e-05
0.0001300751
0.0001298932
0.0001297296
0.0001295951
0.0001294931
5.465616e-05
5.450041e-05
0.0001304088
0.0001302284
0.0001300632
0.0001299208
0.0001298105
5.479652e-05
5.466505e-05
5.452158e-05
0.0002218903
0.0002209078
0.0002194009
0.0002165014
0.0002066376
0.000222555
0.0002215057
0.000219853
0.0002165914
0.0002094906
0.0001903333
0.0002232073
0.0002222389
0.0002208552
0.000218417
0.0002134325
0.0002032978
0.0001808216
0.000223828
0.000222951
0.0002218493
0.0002201754
0.0002171568
0.0002112785
0.0002005024
0.0001792089
0.0002244138
0.0002236176
0.0002227123
0.0002215548
0.0002197828
0.0002167174
0.0002112675
0.0002024104
0.0001857581
0.0002249682
0.0002242427
0.0002234692
0.000222602
0.0002215116
0.0002199196
0.000217414
0.0002135166
0.0002082599
0.0001996057
0.0002254941
0.0002248374
0.0002241576
0.0002234517
0.0002226845
0.000221775
0.0002205786
0.0002189772
0.0002170246
0.000215675
0.0001231838
0.0002259944
0.0002254082
0.0002248065
0.0002241971
0.0002235797
0.0002229395
0.0002222516
0.0002214924
0.0002207505
0.0002204103
0.0001278196
0.0001247063
0.0002264708
0.0002259581
0.0002254284
0.0002248889
0.0002243446
0.0002237997
0.0002232573
0.000222735
0.000222291
0.0002221368
0.0001290864
0.0001282939
0.0001261924
0.0002269251
0.0002264863
0.0002260251
0.0002255439
0.0002250442
0.0002245273
0.0002239967
0.0002234614
0.0002229593
0.0002226343
0.0001294591
0.0001291059
0.0001286133
0.000127435
0.0001293926
0.000129258
0.0001290858
0.0001288429
0.0001282982
0.0001297288
0.0001295637
0.0001294132
0.0001292738
0.0001291279
5.440645e-05
0.0001300777
0.0001299015
0.0001297424
0.0001296096
0.0001295036
5.465335e-05
5.447095e-05
0.0001304095
0.0001302312
0.0001300678
0.0001299269
0.0001298167
5.479836e-05
5.466376e-05
5.450888e-05
0.0001307219
0.0001305464
0.0001303818
0.000130236
0.0001301143
5.492774e-05
5.480317e-05
5.467256e-05
5.453015e-05
0.0002226272
0.0002218085
0.0002207542
0.0002191251
0.0002161338
0.0002065132
0.0002232491
0.0002223966
0.0002212721
0.0002194893
0.0002161201
0.0002093541
0.0001914227
0.0002238512
0.0002230295
0.0002220283
0.0002205839
0.0002181118
0.0002134222
0.0002046812
0.0001849503
0.0002244239
0.0002236491
0.0002227746
0.0002216751
0.0002200319
0.0002172469
0.0002123275
0.0002042135
0.0001877818
0.0002249682
0.0002242427
0.0002234692
0.000222602
0.0002215116
0.0002199196
0.000217414
0.0002135166
0.0002082599
0.0001996057
0.0002254857
0.0002248133
0.0002241179
0.0002233956
0.0002226061
0.0002216557
0.0002203798
0.0002186423
0.0002165147
0.0002151097
0.0001228443
0.0002259787
0.0002253642
0.0002247369
0.0002241065
0.0002234721
0.0002228125
0.0002220906
0.0002212675
0.0002204383
0.0002200743
0.0001275924
0.0001241255
0.0002264489
0.000225898
0.0002253354
0.0002247729
0.000224219
0.0002236791
0.0002231551
0.0002226616
0.0002222555
0.0002221682
0.0001290828
0.0001280999
0.0001255021
0.0002268974
0.0002264145
0.0002259166
0.0002254114
0.0002249064
0.000224409
0.0002239306
0.0002234918
0.0002231493
0.0002230432
0.0001296583
0.0001292182
0.0001285292
0.0001268151
0.0002273257
0.0002269118
0.0002264773
0.0002260245
0.0002255553
0.0002250717
0.0002245775
0.0002240831
0.0002236207
0.0002233182
0.0001298506
0.0001295759
0.0001292714
0.0001288489
0.0001278935
0.0001297735
0.0001296441
0.0001294982
0.0001293338
0.0001291162
5.430935e-05
0.0001300855
0.0001299238
0.0001297738
0.0001296423
0.0001295253
5.464836e-05
5.441526e-05
0.0001304118
0.000130239
0.0001300803
0.0001299422
0.0001298321
5.480276e-05
5.466095e-05
5.447948e-05
0.0001307225
0.0001305489
0.0001303862
0.0001302419
0.0001301211
5.493051e-05
5.480502e-05
5.467127e-05
5.451747e-05
0.0001310159
0.0001308455
0.0001306833
0.0001305351
0.0001304063
5.50525e-05
5.493356e-05
5.480973e-05
5.468015e-05
5.453852e-05
0.0002233033
0.0002225836
0.0002217393
0.0002206434
0.0002189788
0.0002160933
0.0002068887
0.0002238852
0.0002231402
0.0002222698
0.0002211128
0.0002193151
0.0002161276
0.0002102227
0.0001941113
0.000224444
0.0002237106
0.0002228934
0.0002218982
0.0002204831
0.000218194
0.0002142379
0.0002075773
0.0001919926
0.0002249773
0.0002242695
0.0002235164
0.0002226778
0.0002216408
0.0002201603
0.0002178727
0.0002143329
0.0002094701
0.0002007195
0.0002254857
0.0002248133
0.0002241179
0.0002233956
0.0002226061
0.0002216557
0.0002203798
0.0002186423
0.0002165147
0.0002151097
0.0001228443
0.0002259709
0.000225342
0.0002247014
0.0002240599
0.0002234158
0.0002227439
0.0002219998
0.0002211359
0.0002202514
0.0002198719
0.0001274625
0.0001238323
0.0002264342
0.0002258569
0.0002252711
0.000224692
0.00022413
0.0002235905
0.0002230721
0.0002225839
0.0002221791
0.000222115
0.0001290424
0.0001279213
0.0001250165
0.0002268768
0.000226358
0.0002258295
0.0002253041
0.0002247938
0.0002243099
0.000223867
0.0002234868
0.0002232232
0.0002232011
0.0001297408
0.0001292311
0.0001283805
0.0001262634
0.0002272997
0.0002268443
0.0002263752
0.0002259003
0.0002254273
0.0002249653
0.0002245266
0.0002241343
0.0002238357
0.0002237435
0.000130065
0.0001297519
0.0001293648
0.0001287782
0.0001274219
0.0002277037
0.0002273131
0.0002269032
0.0002264765
0.0002260349
0.0002255805
0.0002251174
0.0002246552
0.0002242236
0.0002239335
0.0001301945
0.0001299518
0.0001297142
0.0001294536
0.000129096
5.415766e-05
0.0001301263
0.0001299989
0.0001298584
0.0001297175
0.0001295699
5.46409e-05
5.431902e-05
0.0001304189
0.0001302596
0.0001301103
0.0001299761
0.0001298628
5.481117e-05
5.465588e-05
5.442403e-05
0.0001307246
0.0001305562
0.0001303979
0.0001302568
0.0001301374
5.493704e-05
5.48094e-05
5.466844e-05
5.448814e-05
0.0001310164
0.0001308479
0.0001306875
0.0001305407
0.0001304129
5.505548e-05
5.493634e-05
5.481158e-05
5.467886e-05
5.452587e-05
0.0001312923
0.0001311278
0.0001309687
0.0001308202
0.0001306859
5.517316e-05
5.505762e-05
5.493929e-05
5.481636e-05
5.468754e-05
3.560726e-05
0.0002239302
0.0002232756
0.0002225495
0.000221696
0.0002205971
0.0002189929
0.0002163939
0.0002078427
0.0002244737
0.000223799
0.0002230585
0.0002221952
0.0002210608
0.0002193793
0.0002166427
0.0002120448
0.0001988669
0.0002249954
0.0002243223
0.0002236077
0.0002228213
0.0002218786
0.0002205934
0.0002186891
0.0002157991
0.0002117233
0.0002030314
0.0002254941
0.0002248374
0.0002241576
0.0002234517
0.0002226845
0.000221775
0.0002205786
0.0002189772
0.0002170246
0.000215675
0.0001231838
0.0002259709
0.000225342
0.0002247014
0.0002240599
0.0002234158
0.0002227439
0.0002219998
0.0002211359
0.0002202514
0.0002198719
0.0001274625
0.0001238323
0.0002264268
0.0002258361
0.0002252384
0.0002246506
0.000224084
0.0002235435
0.0002230255
0.0002225351
0.0002221241
0.0002220677
0.0001290114
0.0001278179
0.0001247687
0.000226863
0.0002263194
0.0002257695
0.0002252296
0.0002247147
0.0002242385
0.0002238158
0.000223466
0.000223238
0.0002232538
0.0001297703
0.0001292085
0.0001282417
0.0001258677
0.0002272802
0.000226791
0.0002262933
0.0002257999
0.0002253232
0.000224877
0.0002244783
0.0002241529
0.0002239438
0.0002239384
0.0001301733
0.0001298347
0.0001293851
0.0001286638
0.0001269949
0.0002276791
0.0002272494
0.000226807
0.0002263596
0.0002259147
0.0002254814
0.0002250724
0.000224709
0.0002244344
0.0002243392
0.0001304018
0.0001301391
0.0001298592
0.0001295246
0.0001290338
5.39839e-05
0.0002280604
0.0002276917
0.0002273049
0.0002269024
0.000226486
0.0002260581
0.0002256225
0.0002251883
0.0002247818
0.0002245026
0.0001305086
0.0001302838
0.000130071
0.0001298654
0.0001296419
5.46277e-05
5.416975e-05
0.000130456
0.0001303285
0.0001301899
0.0001300523
0.0001299231
5.482668e-05
5.464818e-05
5.432865e-05
0.000130731
0.0001305751
0.0001304258
0.0001302894
0.0001301699
5.494942e-05
5.481772e-05
5.46633e-05
5.443295e-05
0.0001310183
0.0001308546
0.0001306984
0.0001305548
0.0001304289
5.506249e-05
5.494286e-05
5.481595e-05
5.467602e-05
5.449662e-05
0.0001312928
0.00013113
0.0001309725
0.0001308254
0.0001306923
5.51761e-05
5.506061e-05
5.494207e-05
5.481821e-05
5.468626e-05
3.559905e-05
0.0001315528
0.0001313943
0.0001312392
0.0001310916
0.0001309547
5.528941e-05
5.51777e-05
5.506266e-05
5.494509e-05
5.48228e-05
3.570358e-05
3.561446e-05
0.0002245135
0.0002239093
0.0002232558
0.0002225335
0.0002216897
0.0002206315
0.0002191786
0.0002170236
0.0002096096
0.0002250224
0.000224399
0.0002237372
0.0002230183
0.0002221911
0.0002211413
0.0002197009
0.00021763
0.0002146972
0.0002068086
0.0002255109
0.000224885
0.0002242352
0.0002235595
0.0002228318
0.0002219921
0.0002209318
0.0002195652
0.0002179275
0.0002167078
0.0001238639
0.0002259787
0.0002253642
0.0002247369
0.0002241065
0.0002234721
0.0002228125
0.0002220906
0.0002212675
0.0002204383
0.0002200743
0.0001275924
0.0001241255
0.0002264268
0.0002258361
0.0002252384
0.0002246506
0.000224084
0.0002235435
0.0002230255
0.0002225351
0.0002221241
0.0002220677
0.0001290114
0.0001278179
0.0001247687
0.0002268561
0.0002262999
0.0002257389
0.0002251914
0.000224674
0.000224201
0.0002237872
0.0002234498
0.0002232351
0.0002232666
0.000129778
0.000129188
0.0001281605
0.0001256634
0.0002272672
0.0002267547
0.0002262368
0.0002257301
0.0002252503
0.000224814
0.0002244398
0.0002241529
0.0002239902
0.0002240274
0.0001302264
0.0001298691
0.0001293745
0.0001285574
0.0001266831
0.0002276608
0.0002271992
0.0002267298
0.000226265
0.000225817
0.0002253996
0.0002250303
0.0002247334
0.0002245479
0.000224536
0.0001305135
0.0001302419
0.0001299357
0.0001295456
0.0001289462
5.382557e-05
0.0002280372
0.0002276317
0.0002272141
0.000226792
0.0002263726
0.0002259646
0.00022558
0.0002252387
0.0002249786
0.0002248782
0.0001307013
0.0001304643
0.0001302254
0.0001299785
0.0001296905
5.46022e-05
5.39991e-05
0.000228397
0.0002280491
0.000227684
0.000227304
0.0002269112
0.0002265076
0.000226097
0.0002256877
0.0002253039
0.0002250342
0.0001308024
0.0001305882
0.0001303885
0.000130201
0.0001300205
5.48488e-05
5.463453e-05
5.418175e-05
0.0001307648
0.0001306381
0.0001304993
0.0001303619
0.0001302326
5.497163e-05
5.483283e-05
5.465536e-05
5.433845e-05
0.0001310242
0.0001308721
0.0001307242
0.0001305854
0.0001304606
5.507572e-05
5.495514e-05
5.482415e-05
5.467081e-05
5.44417e-05
0.0001312946
0.0001311362
0.0001309827
0.0001308387
0.0001307075
5.5183e-05
5.506761e-05
5.494859e-05
5.482257e-05
5.468341e-05
3.558008e-05
0.0001315533
0.0001313963
0.0001312428
0.0001310966
0.0001309607
5.529221e-05
5.518064e-05
5.506565e-05
5.494788e-05
5.482465e-05
3.570275e-05
3.560629e-05
0.0001317986
0.0001316462
0.0001314957
0.0001313505
0.0001312125
5.540168e-05
5.529345e-05
5.518215e-05
5.506776e-05
5.495072e-05
3.579098e-05
3.571002e-05
3.561913e-05
0.0002250587
0.0002244957
0.0002238954
0.0002232503
0.0002225422
0.0002217291
0.0002207544
0.0002195308
0.0002179637
0.000212866
0.0002255358
0.0002249544
0.0002243465
0.000223711
0.0002230315
0.0002222724
0.000221368
0.0002202723
0.0002190149
0.0002180071
0.0001248788
0.0002259944
0.0002254082
0.0002248065
0.0002241971
0.0002235797
0.0002229395
0.0002222516
0.0002214924
0.0002207505
0.0002204103
0.0001278196
0.0001247063
0.0002264342
0.0002258569
0.0002252711
0.000224692
0.00022413
0.0002235905
0.0002230721
0.0002225839
0.0002221791
0.000222115
0.0001290424
0.0001279213
0.0001250165
0.0002268561
0.0002262999
0.0002257389
0.0002251914
0.000224674
0.000224201
0.0002237872
0.0002234498
0.0002232351
0.0002232666
0.000129778
0.000129188
0.0001281605
0.0001256634
0.0002272607
0.0002267363
0.0002262081
0.0002256945
0.0002252129
0.0002247812
0.0002244185
0.0002241489
0.0002240059
0.0002240617
0.000130248
0.0001298804
0.0001293619
0.0001284949
0.0001265205
0.0002276485
0.0002271649
0.0002266766
0.0002261994
0.0002257488
0.0002253415
0.0002249972
0.0002247398
0.0002246027
0.0002246329
0.0001305726
0.0001302951
0.0001299712
0.0001295426
0.0001288667
5.370904e-05
0.0002280199
0.0002275843
0.0002271413
0.0002267028
0.0002262805
0.0002258876
0.0002255406
0.0002252626
0.000225087
0.0002250648
0.0001308081
0.0001305687
0.0001303177
0.0001300445
0.0001297086
5.456947e-05
5.384349e-05
0.0002283752
0.0002279924
0.0002275983
0.0002271999
0.000226804
0.000226419
0.000226056
0.0002257331
0.0002254847
0.0002253788
0.0001309795
0.000130756
0.0001305376
0.0001303225
0.0001301032
5.48649e-05
5.460917e-05
5.401414e-05
0.0002287147
0.0002283865
0.0002280418
0.0002276831
0.0002273122
0.0002269313
0.0002265438
0.0002261575
0.0002257942
0.0002255344
0.0001310797
0.0001308742
0.0001306814
0.0001305025
0.0001303336
5.500415e-05
5.485404e-05
5.464127e-05
5.419387e-05
0.000131055
0.0001309297
0.0001307917
0.0001306528
0.0001305212
5.50993e-05
5.497696e-05
5.483888e-05
5.466263e-05
5.434809e-05
0.0001312999
0.0001311523
0.0001310066
0.0001308671
0.0001307375
5.519601e-05
5.508076e-05
5.496076e-05
5.483066e-05
5.467812e-05
3.554454e-05
0.0001315549
0.0001314021
0.0001312523
0.000131109
0.0001309751
5.529881e-05
5.518755e-05
5.507265e-05
5.495438e-05
5.482899e-05
3.570089e-05
3.558743e-05
0.000131799
0.0001316482
0.0001314991
0.0001313551
0.0001312181
5.540433e-05
5.529627e-05
5.518511e-05
5.507075e-05
5.49535e-05
3.579218e-05
3.570921e-05
3.561098e-05
0.0001320306
0.0001318847
0.0001317392
0.0001315971
0.0001314597
5.550978e-05
5.540531e-05
5.529742e-05
5.518667e-05
5.507269e-05
3.587368e-05
3.579671e-05
3.571412e-05
3.562277e-05
0.0002255694
0.0002250424
0.0002244841
0.0002238938
0.0002232638
0.0002225808
0.0002218202
0.0002209696
0.0002200502
0.0002192514
0.0001261639
0.0002260177
0.0002254725
0.000224907
0.000224326
0.0002237293
0.000223108
0.0002224499
0.0002217471
0.0002210788
0.0002207397
0.0001280737
0.0001255514
0.0002264489
0.000225898
0.0002253354
0.0002247729
0.000224219
0.0002236791
0.0002231551
0.0002226616
0.0002222555
0.0002221682
0.0001290828
0.0001280999
0.0001255021
0.000226863
0.0002263194
0.0002257695
0.0002252296
0.0002247147
0.0002242385
0.0002238158
0.000223466
0.000223238
0.0002232538
0.0001297703
0.0001292085
0.0001282417
0.0001258677
0.0002272607
0.0002267363
0.0002262081
0.0002256945
0.0002252129
0.0002247812
0.0002244185
0.0002241489
0.0002240059
0.0002240617
0.000130248
0.0001298804
0.0001293619
0.0001284949
0.0001265205
0.0002276423
0.0002271475
0.0002266495
0.0002261659
0.0002257138
0.0002253113
0.000224979
0.0002247399
0.0002246241
0.0002246731
0.0001305982
0.0001303175
0.0001299844
0.0001295356
0.0001288203
5.364791e-05
0.0002280083
0.0002275519
0.0002270911
0.0002266409
0.0002262162
0.000225833
0.00022551
0.0002252701
0.0002251412
0.0002251593
0.0001308662
0.0001306261
0.0001303681
0.0001300781
0.00012971
5.454046e-05
5.372885e-05
0.0002283589
0.0002279478
0.0002275296
0.0002271156
0.000226717
0.000226346
0.0002260183
0.0002257546
0.0002255852
0.0002255518
0.000131079
0.0001308555
0.0001306308
0.0001304011
0.0001301567
5.487161e-05
5.457696e-05
5.386121e-05
0.0002286941
0.000228333
0.000227961
0.0002275848
0.000227211
0.0002268473
0.0002265041
0.0002261981
0.00022596
0.0002258506
0.000131242
0.0001310285
0.0001308205
0.0001306206
0.0001304244
5.503341e-05
5.486963e-05
5.461604e-05
5.402926e-05
0.0002290143
0.0002287048
0.0002283796
0.000228041
0.0002276908
0.0002273311
0.0002269652
0.0002266002
0.0002262562
0.0002260065
0.0001313426
0.0001311448
0.000130958
0.0001307828
0.0001306185
5.513393e-05
5.500849e-05
5.485919e-05
5.464813e-05
5.420578e-05
0.0001313283
0.0001312052
0.0001310686
0.0001309295
0.0001307945
5.521906e-05
5.510397e-05
5.498218e-05
5.484499e-05
5.466971e-05
3.548419e-05
0.0001315598
0.0001314171
0.0001312745
0.0001311355
0.0001310032
5.531119e-05
5.520048e-05
5.508571e-05
5.496644e-05
5.483697e-05
3.569742e-05
3.555214e-05
0.0001318004
0.0001316536
0.000131508
0.0001313667
0.0001312316
5.541057e-05
5.530286e-05
5.519201e-05
5.507774e-05
5.495998e-05
3.5795e-05
3.570737e-05
3.559219e-05
0.0001320309
0.0001318865
0.0001317424
0.0001316014
0.000131465
5.551229e-05
5.540798e-05
5.530024e-05
5.518963e-05
5.507569e-05
3.587549e-05
3.579793e-05
3.571331e-05
3.561464e-05
0.0001322498
0.0001321104
0.0001319703
0.0001318321
0.0001316964
5.561382e-05
5.551306e-05
5.540887e-05
5.530145e-05
5.519103e-05
3.59526e-05
3.587882e-05
3.580028e-05
3.571727e-05
3.562481e-05
0.0001272427
0.0002260491
0.0002255541
0.000225032
0.0002244837
0.000223908
0.0002232998
0.0002226546
0.0002219707
0.0002212961
0.0002208248
0.0001282264
0.000126564
0.0002264708
0.0002259581
0.0002254284
0.0002248889
0.0002243446
0.0002237997
0.0002232573
0.000222735
0.000222291
0.0002221368
0.0001290864
0.0001282939
0.0001261924
0.0002268768
0.000226358
0.0002258295
0.0002253041
0.0002247938
0.0002243099
0.000223867
0.0002234868
0.0002232232
0.0002232011
0.0001297408
0.0001292311
0.0001283805
0.0001262634
0.0002272672
0.0002267547
0.0002262368
0.0002257301
0.0002252503
0.000224814
0.0002244398
0.0002241529
0.0002239902
0.0002240274
0.0001302264
0.0001298691
0.0001293745
0.0001285574
0.0001266831
0.0002276423
0.0002271475
0.0002266495
0.0002261659
0.0002257138
0.0002253113
0.000224979
0.0002247399
0.0002246241
0.0002246731
0.0001305982
0.0001303175
0.0001299844
0.0001295356
0.0001288203
5.364791e-05
0.0002280025
0.0002275355
0.0002270655
0.0002266093
0.0002261832
0.0002258047
0.0002254932
0.0002252711
0.0002251632
0.0002251995
0.000130892
0.0001306515
0.00013039
0.0001300917
0.0001297071
5.452365e-05
5.366867e-05
0.0002283479
0.0002279172
0.0002274822
0.0002270572
0.0002266562
0.0002262943
0.0002259891
0.0002257613
0.000225636
0.0002256405
0.0001311339
0.0001309115
0.0001306842
0.0001304465
0.0001301865
5.487277e-05
5.45485e-05
5.374844e-05
0.0002286787
0.0002282909
0.0002278962
0.0002275053
0.0002271287
0.0002267781
0.0002264678
0.0002262169
0.0002260522
0.0002260101
0.000131334
0.0001311211
0.0001309092
0.0001307001
0.0001304882
5.505344e-05
5.487621e-05
5.458434e-05
5.387896e-05
0.0002289948
0.0002286545
0.0002283035
0.0002279483
0.0002275952
0.0002272516
0.0002269269
0.0002266367
0.0002264088
0.0002262976
0.0001314919
0.0001312865
0.0001310862
0.0001308936
0.0001307079
5.516664e-05
5.503708e-05
5.487426e-05
5.462302e-05
5.404409e-05
0.0002292965
0.0002290051
0.0002286984
0.0002283789
0.0002280483
0.0002277085
0.0002273629
0.0002270179
0.0002266922
0.0002264528
0.0001315925
0.0001314022
0.0001312207
0.000131049
0.0001308857
5.52529e-05
5.513768e-05
5.501275e-05
5.486443e-05
5.465478e-05
3.539296e-05
0.000131586
0.000131466
0.0001313317
0.0001311932
0.0001310565
5.533308e-05
5.522321e-05
5.510854e-05
5.498746e-05
5.485091e-05
3.569181e-05
3.549239e-05
0.000131805
0.0001316676
0.0001315287
0.0001313915
0.000131258
5.542226e-05
5.531519e-05
5.520486e-05
5.50907e-05
5.497193e-05
3.580012e-05
3.57039e-05
3.555709e-05
0.0001320323
0.0001318916
0.0001317508
0.0001316124
0.0001314777
5.551817e-05
5.541421e-05
5.530683e-05
5.519652e-05
5.508266e-05
3.58797e-05
3.580075e-05
3.571147e-05
3.559591e-05
0.0001322501
0.0001321121
0.0001319734
0.0001318362
0.0001317015
5.561619e-05
5.551558e-05
5.541154e-05
5.530427e-05
5.519398e-05
3.595455e-05
3.588064e-05
3.58015e-05
3.571646e-05
3.561669e-05
0.0001324569
0.0001323242
0.0001321898
0.0001320559
0.000131923
5.571376e-05
5.561681e-05
5.551628e-05
5.541248e-05
5.530532e-05
3.602922e-05
3.595725e-05
3.588193e-05
3.580297e-05
3.571895e-05
0.0001273977
0.0001279877
0.0001273996
0.0002265002
0.0002260345
0.0002255443
0.0002250318
0.0002244972
0.000223941
0.0002233629
0.0002227719
0.000222206
0.0002218417
0.0001289671
0.0001284018
0.0001269885
0.0002268974
0.0002264145
0.0002259166
0.0002254114
0.0002249064
0.000224409
0.0002239306
0.0002234918
0.0002231493
0.0002230432
0.0001296583
0.0001292182
0.0001285292
0.0001268151
0.0002272802
0.000226791
0.0002262933
0.0002257999
0.0002253232
0.000224877
0.0002244783
0.0002241529
0.0002239438
0.0002239384
0.0001301733
0.0001298347
0.0001293851
0.0001286638
0.0001269949
0.0002276485
0.0002271649
0.0002266766
0.0002261994
0.0002257488
0.0002253415
0.0002249972
0.0002247398
0.0002246027
0.0002246329
0.0001305726
0.0001302951
0.0001299712
0.0001295426
0.0001288667
5.370904e-05
0.0002280025
0.0002275355
0.0002270655
0.0002266093
0.0002261832
0.0002258047
0.0002254932
0.0002252711
0.0002251632
0.0002251995
0.000130892
0.0001306515
0.00013039
0.0001300917
0.0001297071
5.452365e-05
5.366867e-05
0.0002283425
0.0002279018
0.0002274581
0.0002270273
0.000226625
0.0002262675
0.0002259732
0.0002257622
0.0002256569
0.0002256786
0.0001311586
0.0001309367
0.0001307083
0.000130467
0.0001301995
5.487219e-05
5.453203e-05
5.36892e-05
0.0002286684
0.0002282621
0.0002278515
0.0002274501
0.0002270713
0.0002267291
0.0002264399
0.0002262225
0.000226099
0.0002260924
0.0001313852
0.0001311739
0.000130961
0.0001307477
0.0001305272
5.506524e-05
5.487742e-05
5.455643e-05
5.376804e-05
0.0002289803
0.0002286148
0.0002282424
0.0002278733
0.0002275176
0.0002271861
0.0002268922
0.0002266533
0.0002264936
0.0002264448
0.000131577
0.0001313722
0.000131169
0.0001309695
0.0001307727
5.519071e-05
5.505678e-05
5.488071e-05
5.459181e-05
5.389639e-05
0.0002292782
0.0002289577
0.0002286267
0.0002282916
0.0002279582
0.0002276335
0.0002273265
0.0002270513
0.0002268335
0.0002267222
0.0001317304
0.0001315327
0.0001313388
0.0001311518
0.0001309705
5.52855e-05
5.51697e-05
5.504067e-05
5.487899e-05
5.462979e-05
3.528951e-05
0.0002295622
0.0002292881
0.0002289992
0.0002286979
0.0002283858
0.0002280651
0.0002277386
0.0002274125
0.0002271042
0.0002268753
0.0001318301
0.0001316473
0.0001314714
0.0001313031
0.0001311412
5.536513e-05
5.525621e-05
5.514135e-05
5.50171e-05
5.486948e-05
3.568187e-05
3.540248e-05
0.0001318294
0.000131713
0.0001315818
0.0001314451
0.0001313077
5.544285e-05
5.533679e-05
5.522725e-05
5.511317e-05
5.499254e-05
3.580896e-05
3.569822e-05
3.549786e-05
0.0001320365
0.0001319047
0.0001317702
0.0001316356
0.0001315026
5.552919e-05
5.542585e-05
5.531909e-05
5.520929e-05
5.509552e-05
3.588741e-05
3.580584e-05
3.570796e-05
3.556098e-05
0.0001322514
0.000132117
0.0001319813
0.0001318466
0.0001317135
5.562176e-05
5.552147e-05
5.541778e-05
5.531086e-05
5.520086e-05
3.595908e-05
3.588486e-05
3.58043e-05
3.571461e-05
3.559799e-05
0.0001324573
0.0001323258
0.0001321927
0.0001320599
0.0001319278
5.571601e-05
5.561919e-05
5.55188e-05
5.541516e-05
5.530815e-05
3.603115e-05
3.595921e-05
3.588375e-05
3.580418e-05
3.571812e-05
0.0001326528
0.0001325266
0.0001323982
0.0001322692
0.0001321397