/*--------------------------------*- C++ -*----------------------------------*\
| =========                 |                                                 |
| \\      /  F ield         | OpenFOAM: The Open Source CFD Toolbox           |
|  \\    /   O peration     | Version:  2306                                  |
|   \\  /    A nd           | Website:  www.openfoam.com                      |
|    \\/     M anipulation  |                                                 |
\*---------------------------------------------------------------------------*/
FoamFile
{
    version     2.0;
    format      ascii;
    arch        "LSB;label=32;scalar=64";
    class       volScalarField;
    location    "0.9/air";
    object      N2;
}
// * * * * * * * * * * * * * * * * * * * * * * * * * * * * * * * * * * * * * //

dimensions      [0 0 0 0 0 0 0];

internalField   nonuniform List<scalar> 
16000
(
0.7702673
0.7702617
0.7712853
0.7703026
0.7702533
0.7711999
0.7702942
0.7733959
0.7713999
0.7703846
0.7702454
0.7710894
0.7702827
0.7732834
0.7712841
0.7703685
0.775667
0.7735426
0.7716996
0.7705406
0.7702406
0.7709955
0.7702721
0.7731295
0.7711423
0.7703491
0.7755517
0.7733959
0.7715407
0.7705061
0.7779232
0.77582
0.7739085
0.7722555
0.7708267
0.7702406
0.770943
0.7702658
0.7729932
0.7710265
0.7703321
0.7753933
0.7732041
0.771348
0.7704682
0.777811
0.7756709
0.7737207
0.7720512
0.7707589
0.7800979
0.778072
0.7761989
0.7745589
0.7731355
0.7713486
0.8097875
0.7702454
0.770943
0.7702658
0.7729147
0.770963
0.7703226
0.7752522
0.7730384
0.7711933
0.7704394
0.7776572
0.7754749
0.7734785
0.7717974
0.7706812
0.7799912
0.7779274
0.7760111
0.7743329
0.7728896
0.7712379
0.7821737
0.7802403
0.7784397
0.7768658
0.7755487
0.7743916
0.7722354
0.8084172
0.8113232
0.8100043
0.7702533
0.7709955
0.7702721
0.7729147
0.770963
0.7703226
0.7751708
0.7729443
0.7711095
0.7704241
0.7775203
0.7753046
0.7732714
0.7715894
0.7706211
0.7798449
0.7777377
0.7757676
0.7740402
0.7725759
0.7710956
0.7820724
0.7801028
0.7782589
0.7766448
0.7752898
0.7741058
0.7720787
0.7841513
0.7823088
0.7805918
0.7790843
0.7778676
0.7769216
0.7760886
0.7736544
0.8056495
0.8100953
0.8086392
0.8117249
0.8115216
0.8104373
0.7702617
0.7710894
0.7702827
0.7729932
0.7710265
0.7703321
0.7751708
0.7729443
0.7711095
0.7704241
0.7774414
0.7752076
0.7731547
0.7714757
0.7705891
0.7797146
0.777573
0.7755582
0.77379
0.7723131
0.7709761
0.7819335
0.7799226
0.778025
0.7763575
0.7749519
0.7737378
0.7718652
0.7840551
0.7821783
0.7804203
0.7788738
0.7776215
0.7766339
0.7757507
0.7734176
0.786038
0.7842796
0.7826422
0.7812072
0.7800478
0.7792359
0.7787123
0.7783012
0.7758607
0.8013829
0.8076208
0.805889
0.8105846
0.8102975
0.809081
0.811913
0.8119077
0.8119177
0.8110851
0.7702673
0.7711999
0.7702942
0.7731295
0.7711423
0.7703491
0.7752522
0.7730384
0.7711933
0.7704394
0.7774414
0.7752076
0.7731547
0.7714757
0.7705891
0.7796395
0.7774792
0.7754397
0.7736491
0.7721674
0.7709096
0.78181
0.779766
0.777824
0.7761103
0.7746612
0.7734259
0.7716802
0.7839233
0.7820073
0.7801986
0.7786007
0.7772987
0.7762544
0.7753116
0.773094
0.7859464
0.7841558
0.7824796
0.7810081
0.7798158
0.7789701
0.7783911
0.7778786
0.7754161
0.7878423
0.7861601
0.7845965
0.7832259
0.7821254
0.7813559
0.7809901
0.7809536
0.7811242
0.7793253
0.7952184
0.8038231
0.8016892
0.8082874
0.8078369
0.8063601
0.8108475
0.8107707
0.8107002
0.8097395
0.8121254
0.8120835
0.8122729
0.8125105
0.8119462
0.7712853
0.7703026
0.7732834
0.7712841
0.7703685
0.7753933
0.7732041
0.771348
0.7704682
0.7775203
0.7753046
0.7732714
0.7715894
0.7706211
0.7796395
0.7774792
0.7754397
0.7736491
0.7721674
0.7709096
0.7817387
0.7796769
0.7777103
0.7759704
0.7744972
0.7732513
0.7715754
0.783806
0.7818588
0.7800081
0.7783659
0.7770194
0.775926
0.7749376
0.7728177
0.7858209
0.7839934
0.7822694
0.7807501
0.7795123
0.7786173
0.7779638
0.7773356
0.7748792
0.7877548
0.7860422
0.7844421
0.7830372
0.7819068
0.7811077
0.7806996
0.7805677
0.780509
0.7782556
0.7895719
0.7879588
0.7864617
0.7851512
0.7840963
0.7833695
0.7830233
0.7831476
0.7837009
0.7847402
0.7851806
0.7983803
0.79585
0.8047641
0.804094
0.8022595
0.8087015
0.8084859
0.8082624
0.8070516
0.8111227
0.811021
0.8111416
0.8113008
0.8106114
0.8124618
0.8122857
0.8124241
0.8128195
0.8132989
0.813189
0.7733959
0.7713999
0.7703846
0.7755517
0.7733959
0.7715407
0.7705061
0.7776572
0.7754749
0.7734785
0.7717974
0.7706812
0.7797146
0.777573
0.7755582
0.77379
0.7723131
0.7709761
0.7817387
0.7796769
0.7777103
0.7759704
0.7744972
0.7732513
0.7715754
0.7837384
0.7817744
0.7799003
0.7782332
0.7768607
0.77574
0.7747278
0.7726629
0.7857093
0.7838525
0.782089
0.7805284
0.7792502
0.77831
0.7775935
0.776879
0.7744571
0.7876351
0.7858876
0.7842425
0.7827928
0.7816212
0.7807793
0.7803107
0.7800619
0.7797808
0.7772997
0.7894882
0.7878462
0.7863146
0.7849719
0.7838892
0.7831363
0.7827535
0.7828006
0.7831433
0.7835808
0.7820796
0.7912338
0.7896834
0.7882467
0.7869897
0.7859786
0.7852753
0.784952
0.7850641
0.7857512
0.787106
0.7896553
0.7881035
0.7997197
0.7989236
0.7967915
0.8054113
0.8050126
0.8046003
0.8030499
0.8091031
0.8088863
0.8088771
0.8088882
0.807953
0.8115137
0.8112857
0.8113666
0.8116948
0.8120967
0.8118654
0.8128924
0.8126134
0.812606
0.8129339
0.8135467
0.8144374
0.8134452
0.775667
0.7735426
0.7716996
0.7705406
0.777811
0.7756709
0.7737207
0.7720512
0.7707589
0.7798449
0.7777377
0.7757676
0.7740402
0.7725759
0.7710956
0.78181
0.779766
0.777824
0.7761103
0.7746612
0.7734259
0.7716802
0.7837384
0.7817744
0.7799003
0.7782332
0.7768607
0.77574
0.7747278
0.7726629
0.7856449
0.7837724
0.781987
0.7804031
0.7791016
0.7781349
0.7773838
0.7766249
0.7742313
0.7875285
0.7857535
0.7840713
0.7825831
0.7813746
0.7804938
0.7799713
0.7796306
0.7791998
0.7766507
0.7893736
0.7876986
0.7861245
0.7847399
0.7836189
0.782828
0.7823933
0.7823431
0.7824763
0.7824993
0.7804412
0.7911535
0.7895756
0.7881062
0.7868188
0.7857817
0.7850543
0.7846987
0.7847413
0.7852432
0.7860412
0.7867753
0.784454
0.792834
0.7913407
0.7899589
0.7887509
0.7877775
0.7870996
0.7867749
0.7868849
0.7875183
0.7889414
0.7916453
0.7921247
0.7903777
0.8007032
0.8002187
0.799739
0.7978869
0.8060075
0.8056422
0.8054769
0.8053051
0.8040273
0.8096044
0.8092767
0.8092504
0.8094522
0.8097054
0.809232
0.8119918
0.8116678
0.8116105
0.8118823
0.8124281
0.8132423
0.8121239
0.8134074
0.8130364
0.8129162
0.8130853
0.8136121
0.8145968
0.8146721
0.8137037
0.7779232
0.77582
0.7739085
0.7722555
0.7708267
0.7799912
0.7779274
0.7760111
0.7743329
0.7728896
0.7712379
0.7819335
0.7799226
0.778025
0.7763575
0.7749519
0.7737378
0.7718652
0.783806
0.7818588
0.7800081
0.7783659
0.7770194
0.775926
0.7749376
0.7728177
0.7856449
0.7837724
0.781987
0.7804031
0.7791016
0.7781349
0.7773838
0.7766249
0.7742313
0.7874671
0.7856772
0.7839745
0.7824646
0.7812348
0.7803316
0.7797781
0.779389
0.7788861
0.7763275
0.7892716
0.7875707
0.7859615
0.7845409
0.7833858
0.7825602
0.7820799
0.7819508
0.7819399
0.7817311
0.7794961
0.7910435
0.7894344
0.7879247
0.7865977
0.7855249
0.7847625
0.7843608
0.7843171
0.7846342
0.7850465
0.7851412
0.7824636
0.7927568
0.7912373
0.7898243
0.7885875
0.7875896
0.7868892
0.7865345
0.7865814
0.787043
0.7879553
0.788979
0.7887813
0.7865588
0.7943775
0.7929368
0.791605
0.7904414
0.7895033
0.7888454
0.7885257
0.788607
0.7892059
0.7905198
0.7931719
0.7939218
0.794058
0.7922397
0.801579
0.801167
0.8009665
0.800695
0.7990616
0.8066781
0.8062242
0.8060738
0.8061231
0.8061806
0.8053536
0.8101783
0.8097684
0.8096186
0.8097858
0.8102035
0.810867
0.8094956
0.8125491
0.8121382
0.811975
0.8120952
0.8125658
0.8134837
0.8134785
0.8123846
0.8139813
0.8135446
0.813324
0.8133696
0.8137232
0.8145917
0.8148134
0.8149088
0.8139643
0.7800979
0.778072
0.7761989
0.7745589
0.7731355
0.7713486
0.7820724
0.7801028
0.7782589
0.7766448
0.7752898
0.7741058
0.7720787
0.7839233
0.7820073
0.7801986
0.7786007
0.7772987
0.7762544
0.7753116
0.773094
0.7857093
0.7838525
0.782089
0.7805284
0.7792502
0.77831
0.7775935
0.776879
0.7744571
0.7874671
0.7856772
0.7839745
0.7824646
0.7812348
0.7803316
0.7797781
0.779389
0.7788861
0.7763275
0.7892128
0.7874978
0.7858694
0.7844284
0.7832538
0.782408
0.7819018
0.7817302
0.7816489
0.7813381
0.7790546
0.7909457
0.7893119
0.7877691
0.7864081
0.7853035
0.7845093
0.7840668
0.7839544
0.7841436
0.7843378
0.7841472
0.7813439
0.7926511
0.7911018
0.7896505
0.7883763
0.7873447
0.7866117
0.7862143
0.7861826
0.7864752
0.7870356
0.7874657
0.7868592
0.784339
0.7943032
0.7928373
0.7914758
0.7902849
0.7893236
0.7886444
0.7882967
0.7883185
0.7887577
0.7895934
0.7906867
0.7908221
0.7905686
0.7884034
0.7958687
0.7944764
0.7931907
0.7920679
0.7911618
0.7905238
0.7902048
0.790269
0.7908082
0.7920421
0.7944963
0.7952918
0.7956995
0.7956529
0.7938126
0.8024926
0.8020141
0.8018617
0.801842
0.8017287
0.8004771
0.8073991
0.8068827
0.8066291
0.8066744
0.8069256
0.8073737
0.8056264
0.8108209
0.810334
0.8100915
0.8101215
0.8104853
0.8112716
0.8111064
0.8097612
0.8131609
0.8126887
0.8124299
0.8124332
0.8127378
0.8135499
0.8137013
0.8137166
0.8126474
0.8146016
0.8141125
0.8138189
0.8137548
0.8139729
0.8146444
0.8147937
0.8150317
0.8151476
0.8142271
0.7821737
0.7802403
0.7784397
0.7768658
0.7755487
0.7743916
0.7722354
0.7840551
0.7821783
0.7804203
0.7788738
0.7776215
0.7766339
0.7757507
0.7734176
0.7858209
0.7839934
0.7822694
0.7807501
0.7795123
0.7786173
0.7779638
0.7773356
0.7748792
0.7875285
0.7857535
0.7840713
0.7825831
0.7813746
0.7804938
0.7799713
0.7796306
0.7791998
0.7766507
0.7892128
0.7874978
0.7858694
0.7844284
0.7832538
0.782408
0.7819018
0.7817302
0.7816489
0.7813381
0.7790546
0.7908894
0.7892422
0.7876811
0.786301
0.7851781
0.7843655
0.7838998
0.7837509
0.7838769
0.7839745
0.7836679
0.7808305
0.7925571
0.7909843
0.7895015
0.7881951
0.7871336
0.7863709
0.7859361
0.7858417
0.786019
0.7863811
0.7865439
0.7857282
0.7830862
0.7942014
0.792707
0.7913091
0.7900825
0.7890893
0.7883793
0.7879917
0.78794
0.788222
0.7887313
0.7892787
0.7890382
0.7884564
0.7860527
0.795797
0.7943807
0.7930665
0.7919176
0.7909894
0.7903313
0.7899856
0.7899938
0.7903819
0.7911664
0.7921586
0.7923997
0.7924603
0.792143
0.7900059
0.7973117
0.7959642
0.794721
0.7936358
0.7927593
0.7921392
0.7918237
0.7918677
0.7923645
0.7934999
0.7957987
0.796488
0.7969452
0.7971615
0.7970121
0.7953677
0.8034241
0.8029032
0.8026659
0.8026748
0.8027872
0.8029844
0.8007669
0.8081724
0.8075931
0.807265
0.8071927
0.8074204
0.8080192
0.8076191
0.8059009
0.8115089
0.8109692
0.8106407
0.8105667
0.8107785
0.8114799
0.8114917
0.8113476
0.8100288
0.8138154
0.8132942
0.8129667
0.8128651
0.8130408
0.8136629
0.8137528
0.8139207
0.8139567
0.8129125
0.8152546
0.8147273
0.8143747
0.8142295
0.8143279
0.8148443
0.8148344
0.8149974
0.8152519
0.8153883
0.8145478
0.7841513
0.7823088
0.7805918
0.7790843
0.7778676
0.7769216
0.7760886
0.7736544
0.7859464
0.7841558
0.7824796
0.7810081
0.7798158
0.7789701
0.7783911
0.7778786
0.7754161
0.7876351
0.7858876
0.7842425
0.7827928
0.7816212
0.7807793
0.7803107
0.7800619
0.7797808
0.7772997
0.7892716
0.7875707
0.7859615
0.7845409
0.7833858
0.7825602
0.7820799
0.7819508
0.7819399
0.7817311
0.7794961
0.7908894
0.7892422
0.7876811
0.786301
0.7851781
0.7843655
0.7838998
0.7837509
0.7838769
0.7839745
0.7836679
0.7808305
0.7925029
0.7909175
0.7894173
0.7880928
0.7870141
0.7862342
0.7857782
0.7856504
0.7857716
0.7860454
0.7860988
0.7851943
0.7825156
0.7941108
0.7925941
0.7911661
0.789909
0.7888875
0.7881495
0.7877267
0.7876168
0.7877919
0.788119
0.7884222
0.7879872
0.7872184
0.7847116
0.7956988
0.7942552
0.7929062
0.7917233
0.7907648
0.7900775
0.7896939
0.7896327
0.7898728
0.7903516
0.7908353
0.7907369
0.7904968
0.789919
0.7875984
0.7972424
0.7958718
0.7946013
0.7934911
0.7925936
0.7919543
0.7916135
0.791604
0.7919575
0.7926674
0.7935883
0.7937669
0.7939209
0.793899
0.793518
0.791599
0.7987096
0.7974038
0.7962
0.7951496
0.7943006
0.7936977
0.7933848
0.7934146
0.7938682
0.7949281
0.7970667
0.7976798
0.7980402
0.7983032
0.7984031
0.7983695
0.7956834
0.8043846
0.8038136
0.8035183
0.8034283
0.803552
0.8039336
0.8032416
0.8010571
0.8089772
0.8083572
0.8079559
0.8077972
0.8078928
0.808437
0.8082441
0.8078661
0.806177
0.8122325
0.8116506
0.8112614
0.8110918
0.8111876
0.8117128
0.8116848
0.8117135
0.8115908
0.8102985
0.8144996
0.8139432
0.81356
0.8133815
0.8134422
0.8139156
0.8138536
0.8139573
0.814142
0.8141988
0.8132358
0.8159324
0.8153754
0.8149786
0.8147673
0.8147759
0.8151558
0.8150239
0.8150259
0.8152028
0.815474
0.815682
0.8148759
0.786038
0.7842796
0.7826422
0.7812072
0.7800478
0.7792359
0.7787123
0.7783012
0.7758607
0.7877548
0.7860422
0.7844421
0.7830372
0.7819068
0.7811077
0.7806996
0.7805677
0.780509
0.7782556
0.7893736
0.7876986
0.7861245
0.7847399
0.7836189
0.782828
0.7823933
0.7823431
0.7824763
0.7824993
0.7804412
0.7909457
0.7893119
0.7877691
0.7864081
0.7853035
0.7845093
0.7840668
0.7839544
0.7841436
0.7843378
0.7841472
0.7813439
0.7925029
0.7909175
0.7894173
0.7880928
0.7870141
0.7862342
0.7857782
0.7856504
0.7857716
0.7860454
0.7860988
0.7851943
0.7825156
0.7940587
0.7925298
0.7910853
0.789811
0.7887732
0.7880191
0.7875764
0.7874356
0.7875586
0.7878055
0.7880088
0.7874904
0.7866396
0.7841012
0.7956115
0.7941464
0.7927687
0.7915567
0.7905713
0.7898575
0.7894406
0.7893245
0.7894644
0.789773
0.7900314
0.7897581
0.7893443
0.7886075
0.7862128
0.7971475
0.7957507
0.7944469
0.7933042
0.7923778
0.7917107
0.7913338
0.7912583
0.7914717
0.7918927
0.7923367
0.7922029
0.7920884
0.7918285
0.7912404
0.7891937
0.7986426
0.7973146
0.7960846
0.7950102
0.7941411
0.7935198
0.7931827
0.7931616
0.7934784
0.7941338
0.7949661
0.7951065
0.795194
0.7952552
0.7951508
0.7948922
0.7919224
0.8000657
0.7987987
0.7976317
0.7966135
0.7957901
0.7952032
0.7948941
0.7949104
0.7953297
0.7963174
0.7983263
0.7988524
0.7991453
0.7993142
0.7994549
0.7996377
0.7986452
0.7959971
0.8053566
0.8047555
0.804397
0.8042378
0.8042509
0.8046156
0.8041684
0.8034992
0.8013478
0.8098066
0.8091538
0.8087027
0.8084609
0.8084583
0.8088466
0.8086461
0.8084705
0.8081146
0.8064548
0.8129795
0.8123682
0.8119299
0.8116913
0.8116814
0.8120706
0.8119053
0.8118914
0.8119371
0.8118358
0.8106274
0.815206
0.8146223
0.8141979
0.8139566
0.8139316
0.8142731
0.8140959
0.8140459
0.8141636
0.814365
0.8144942
0.8135667
0.8166278
0.8160486
0.8156167
0.8153548
0.8152897
0.8155651
0.8153264
0.8152051
0.8152191
0.8154099
0.8157449
0.8159824
0.8151256
0.7878423
0.7861601
0.7845965
0.7832259
0.7821254
0.7813559
0.7809901
0.7809536
0.7811242
0.7793253
0.7894882
0.7878462
0.7863146
0.7849719
0.7838892
0.7831363
0.7827535
0.7828006
0.7831433
0.7835808
0.7820796
0.7910435
0.7894344
0.7879247
0.7865977
0.7855249
0.7847625
0.7843608
0.7843171
0.7846342
0.7850465
0.7851412
0.7824636
0.7925571
0.7909843
0.7895015
0.7881951
0.7871336
0.7863709
0.7859361
0.7858417
0.786019
0.7863811
0.7865439
0.7857282
0.7830862
0.7940587
0.7925298
0.7910853
0.789811
0.7887732
0.7880191
0.7875764
0.7874356
0.7875586
0.7878055
0.7880088
0.7874904
0.7866396
0.7841012
0.7955612
0.7940845
0.792691
0.7914626
0.7904617
0.7897326
0.789297
0.7891517
0.789243
0.7894767
0.7896438
0.7892957
0.7888049
0.7879963
0.7855817
0.7970632
0.7956458
0.7943144
0.7931439
0.7921918
0.7914995
0.791091
0.7909634
0.7910819
0.7913429
0.7915765
0.791283
0.7910135
0.7906056
0.7898888
0.7878055
0.7985508
0.7971976
0.7959355
0.7948301
0.7939332
0.7932854
0.7929139
0.7928298
0.7930132
0.7933946
0.7937764
0.7936271
0.7934697
0.7933212
0.7930271
0.792605
0.7895181
0.8000008
0.7987124
0.7975201
0.796479
0.7956362
0.7950318
0.7946995
0.7946669
0.7949556
0.7955572
0.7963233
0.796407
0.7964533
0.796445
0.7964146
0.7963955
0.7951712
0.7922438
0.8013826
0.8001521
0.7990192
0.7980312
0.7972315
0.7966599
0.7963546
0.7963602
0.7967479
0.7976757
0.7995653
0.8000273
0.8002431
0.8003476
0.8003937
0.800598
0.7998884
0.7989192
0.7963088
0.8063374
0.8057108
0.8053109
0.8050795
0.805014
0.8052476
0.8048334
0.8044036
0.8037573
0.8016389
0.8106499
0.8099757
0.8094838
0.8091836
0.8090881
0.809359
0.8090428
0.8088565
0.8086982
0.8083646
0.806793
0.8137435
0.8131098
0.8126358
0.8123406
0.8122531
0.8125197
0.8122525
0.8120993
0.8120995
0.8121623
0.8121345
0.8109641
0.8159278
0.8153241
0.8148669
0.8145779
0.8144824
0.8147236
0.8144444
0.8142777
0.8142398
0.8143716
0.8146372
0.8147963
0.8138184
0.8173361
0.8167399
0.8162808
0.815978
0.8158555
0.8160442
0.8157278
0.8154986
0.8153878
0.8154139
0.8156627
0.8160219
0.8162109
0.8152951
0.7895719
0.7879588
0.7864617
0.7851512
0.7840963
0.7833695
0.7830233
0.7831476
0.7837009
0.7847402
0.7851806
0.7911535
0.7895756
0.7881062
0.7868188
0.7857817
0.7850543
0.7846987
0.7847413
0.7852432
0.7860412
0.7867753
0.784454
0.7926511
0.7911018
0.7896505
0.7883763
0.7873447
0.7866117
0.7862143
0.7861826
0.7864752
0.7870356
0.7874657
0.7868592
0.784339
0.7941108
0.7925941
0.7911661
0.789909
0.7888875
0.7881495
0.7877267
0.7876168
0.7877919
0.788119
0.7884222
0.7879872
0.7872184
0.7847116
0.7955612
0.7940845
0.792691
0.7914626
0.7904617
0.7897326
0.789297
0.7891517
0.789243
0.7894767
0.7896438
0.7892957
0.7888049
0.7879963
0.7855817
0.7970145
0.7955861
0.7942396
0.7930534
0.7920866
0.7913797
0.7909532
0.7907981
0.7908706
0.7910615
0.79121
0.7908488
0.7905105
0.790035
0.7892591
0.787173
0.7984692
0.7970963
0.7958078
0.7946756
0.7937542
0.7930824
0.7926807
0.7925468
0.79264
0.7928698
0.7930538
0.792757
0.7924587
0.7921793
0.7917646
0.7912439
0.7881298
0.7999119
0.7985993
0.7973761
0.7963051
0.7954358
0.794806
0.7944407
0.7943478
0.7945091
0.7948496
0.7951884
0.7950007
0.794822
0.7946243
0.7944292
0.7942585
0.7928825
0.7898409
0.8013196
0.8000684
0.7989112
0.7979011
0.7970829
0.7964944
0.7961669
0.7961256
0.796388
0.7969465
0.7976496
0.7976956
0.7976848
0.7976335
0.7975308
0.7975649
0.7966481
0.7954485
0.7925631
0.802663
0.8014663
0.8003655
0.7994056
0.7986283
0.798071
0.7977697
0.797766
0.7981269
0.799
0.8007877
0.8011909
0.8013518
0.8013837
0.801366
0.801464
0.8008301
0.8001375
0.7991916
0.7966186
0.8073184
0.8066766
0.8062414
0.8059607
0.8058157
0.8059544
0.8054517
0.8050515
0.8046391
0.8040158
0.8019917
0.8115022
0.8108122
0.8102918
0.8099432
0.809781
0.8099428
0.8095443
0.8092402
0.8090682
0.8089274
0.808669
0.8071392
0.8145183
0.8138689
0.8133667
0.8130293
0.8128775
0.8130518
0.8126924
0.8124359
0.8122948
0.8123093
0.812437
0.8124402
0.8112203
0.8166604
0.8160416
0.8155594
0.8152318
0.8150818
0.8152395
0.8148868
0.8146171
0.8144611
0.8144353
0.8146253
0.8149155
0.815026
0.8139894
0.8180532
0.8174442
0.8169637
0.8166285
0.8164589
0.8165787
0.8161998
0.8158919
0.8156721
0.8155721
0.8156515
0.815921
0.8162324
0.8163658
0.8153818
0.7952184
0.7912338
0.7896834
0.7882467
0.7869897
0.7859786
0.7852753
0.784952
0.7850641
0.7857512
0.787106
0.7896553
0.7881035
0.7927568
0.7912373
0.7898243
0.7885875
0.7875896
0.7868892
0.7865345
0.7865814
0.787043
0.7879553
0.788979
0.7887813
0.7865588
0.7942014
0.792707
0.7913091
0.7900825
0.7890893
0.7883793
0.7879917
0.78794
0.788222
0.7887313
0.7892787
0.7890382
0.7884564
0.7860527
0.7956115
0.7941464
0.7927687
0.7915567
0.7905713
0.7898575
0.7894406
0.7893245
0.7894644
0.789773
0.7900314
0.7897581
0.7893443
0.7886075
0.7862128
0.7970145
0.7955861
0.7942396
0.7930534
0.7920866
0.7913797
0.7909532
0.7907981
0.7908706
0.7910615
0.79121
0.7908488
0.7905105
0.790035
0.7892591
0.787173
0.7984222
0.7970386
0.7957356
0.7945884
0.793653
0.7929672
0.7925484
0.7923882
0.7924378
0.7926013
0.7927055
0.7923463
0.7919859
0.7916466
0.7911757
0.7906097
0.7874972
0.7998329
0.7985012
0.7972526
0.796156
0.7952632
0.7946103
0.7942162
0.7940758
0.794151
0.7943474
0.794499
0.7941736
0.7938655
0.7935497
0.7932492
0.7929844
0.7915198
0.788453
0.8012334
0.7999588
0.7987718
0.797733
0.7968893
0.7962765
0.7959173
0.7958182
0.7959586
0.7962677
0.7965637
0.7963543
0.7961342
0.7959108
0.7956612
0.7955654
0.7945089
0.7931586
0.7901623
0.8026019
0.8013852
0.8002609
0.7992797
0.7984846
0.7979111
0.7975884
0.7975396
0.7977802
0.7982991
0.798951
0.7989609
0.7989125
0.7988042
0.7986574
0.7986067
0.7977984
0.7968992
0.7957241
0.7928803
0.8039087
0.8027442
0.8016733
0.8007399
0.7999834
0.7994397
0.7991425
0.7991309
0.7994677
0.8002932
0.8019885
0.802345
0.8024563
0.8024378
0.8023494
0.8023751
0.8016813
0.8010608
0.8003851
0.7994624
0.796991
0.8082968
0.8076439
0.8071846
0.806862
0.8066616
0.8067075
0.806147
0.8056561
0.80527
0.8048751
0.8043293
0.8023529
0.8123582
0.8116582
0.8111156
0.8107318
0.810514
0.8105951
0.8101186
0.8097307
0.8094389
0.8092812
0.8092063
0.8089805
0.8074028
0.8152999
0.8146391
0.814116
0.8137446
0.8135437
0.8136409
0.8132164
0.8128665
0.8126206
0.8124919
0.8125651
0.8127179
0.8126726
0.8113943
0.8174001
0.8167702
0.8162684
0.8159105
0.8157158
0.8158074
0.8153956
0.8150514
0.8147912
0.8146459
0.8146738
0.8148846
0.8151269
0.8151818
0.8140768
0.8187764
0.8181577
0.8176602
0.8172988
0.8170913
0.8171535
0.8167278
0.8163567
0.8160574
0.8158472
0.8157969
0.8158944
0.8161172
0.816375
0.8164449
0.8013829
0.7983803
0.79585
0.792834
0.7913407
0.7899589
0.7887509
0.7877775
0.7870996
0.7867749
0.7868849
0.7875183
0.7889414
0.7916453
0.7921247
0.7903777
0.7943032
0.7928373
0.7914758
0.7902849
0.7893236
0.7886444
0.7882967
0.7883185
0.7887577
0.7895934
0.7906867
0.7908221
0.7905686
0.7884034
0.7956988
0.7942552
0.7929062
0.7917233
0.7907648
0.7900775
0.7896939
0.7896327
0.7898728
0.7903516
0.7908353
0.7907369
0.7904968
0.789919
0.7875984
0.7970632
0.7956458
0.7943144
0.7931439
0.7921918
0.7914995
0.791091
0.7909634
0.7910819
0.7913429
0.7915765
0.791283
0.7910135
0.7906056
0.7898888
0.7878055
0.7984222
0.7970386
0.7957356
0.7945884
0.793653
0.7929672
0.7925484
0.7923882
0.7924378
0.7926013
0.7927055
0.7923463
0.7919859
0.7916466
0.7911757
0.7906097
0.7874972
0.7997873
0.7984454
0.7971829
0.7960719
0.7951656
0.7944993
0.7940888
0.7939233
0.7939569
0.7940904
0.7941666
0.7937832
0.7934182
0.7930486
0.7926989
0.7923898
0.7908848
0.7878205
0.8011568
0.7998639
0.7986524
0.7975889
0.7967227
0.7960877
0.7957007
0.7955561
0.7956142
0.7957858
0.795904
0.7955652
0.7952248
0.7948939
0.7945503
0.7943735
0.7932327
0.7917947
0.788775
0.8025182
0.8012789
0.8001259
0.799117
0.7982974
0.7977004
0.7973473
0.797243
0.7973664
0.7976465
0.7979096
0.7976776
0.7974335
0.7971666
0.7968882
0.7967232
0.7957964
0.7947579
0.7934334
0.7904821
0.8038493
0.8026654
0.8015718
0.8006179
0.7998442
0.7992849
0.7989671
0.798912
0.7991331
0.7996183
0.8002238
0.8002072
0.8001234
0.7999782
0.799775
0.7996713
0.7988251
0.7980303
0.7971485
0.7959978
0.7932617
0.8051224
0.8039876
0.8029452
0.8020363
0.8012996
0.8007687
0.8004756
0.8004571
0.8007725
0.8015551
0.8031684
0.8034838
0.8035571
0.8034937
0.8033572
0.803306
0.80258
0.8018972
0.80129
0.8006311
0.7997881
0.7973724
0.809269
0.8086099
0.8081315
0.807779
0.8075314
0.8075106
0.8068901
0.8063399
0.8058609
0.8054889
0.8051611
0.80465
0.802628
0.8132149
0.8125086
0.81195
0.811538
0.8112785
0.8112917
0.8107625
0.8102955
0.8099183
0.8096387
0.8095405
0.8094917
0.8092174
0.8075819
0.8160851
0.8154165
0.8148772
0.8144795
0.8142385
0.8142751
0.8137982
0.8133823
0.8130419
0.8128068
0.8127322
0.8128265
0.8129314
0.8128303
0.8114833
0.8181444
0.8175063
0.8169891
0.8166068
0.8163762
0.8164125
0.8159569
0.8155529
0.8152174
0.8149668
0.8148715
0.8149175
0.8150816
0.8152702
0.8152614
0.8195034
0.8188776
0.8183666
0.8179837
0.8177448
0.8177596
0.8172967
0.8168782
0.8165149
0.8162242
0.8160607
0.8160265
0.8160788
0.81625
0.8164478
0.8056495
0.8038231
0.8016892
0.7997197
0.7989236
0.7967915
0.7943775
0.7929368
0.791605
0.7904414
0.7895033
0.7888454
0.7885257
0.788607
0.7892059
0.7905198
0.7931719
0.7939218
0.794058
0.7922397
0.795797
0.7943807
0.7930665
0.7919176
0.7909894
0.7903313
0.7899856
0.7899938
0.7903819
0.7911664
0.7921586
0.7923997
0.7924603
0.792143
0.7900059
0.7971475
0.7957507
0.7944469
0.7933042
0.7923778
0.7917107
0.7913338
0.7912583
0.7914717
0.7918927
0.7923367
0.7922029
0.7920884
0.7918285
0.7912404
0.7891937
0.7984692
0.7970963
0.7958078
0.7946756
0.7937542
0.7930824
0.7926807
0.7925468
0.79264
0.7928698
0.7930538
0.792757
0.7924587
0.7921793
0.7917646
0.7912439
0.7881298
0.7997873
0.7984454
0.7971829
0.7960719
0.7951656
0.7944993
0.7940888
0.7939233
0.7939569
0.7940904
0.7941666
0.7937832
0.7934182
0.7930486
0.7926989
0.7923898
0.7908848
0.7878205
0.8011126
0.7998098
0.7985849
0.7975076
0.7966284
0.7959806
0.795578
0.7954093
0.7954276
0.7955392
0.7955859
0.7951927
0.7947996
0.7944197
0.7940323
0.7938172
0.7926371
0.791159
0.7881428
0.8024438
0.8011868
0.8000102
0.7989776
0.7981362
0.797518
0.7971382
0.7969901
0.7970347
0.7971832
0.7972768
0.7969226
0.796566
0.7961998
0.7958367
0.7956004
0.7946023
0.79348
0.7920685
0.7890959
0.803768
0.8025623
0.8014409
0.8004602
0.7996629
0.7990811
0.798734
0.7986254
0.7987339
0.7989897
0.7992229
0.7989766
0.7987086
0.7984163
0.7980931
0.7978885
0.796939
0.7960262
0.7950057
0.7937068
0.7908673
0.8050646
0.803911
0.8028466
0.8019179
0.8011647
0.8006187
0.8003058
0.8002453
0.8004492
0.8009041
0.8014698
0.8014299
0.8013207
0.8011414
0.8009022
0.8007358
0.7998771
0.799042
0.7982607
0.7973962
0.796327
0.7936523
0.8063051
0.8051992
0.8041829
0.8032976
0.8025792
0.8020605
0.8017715
0.801747
0.8020432
0.802787
0.8043261
0.804607
0.8046475
0.8045507
0.8043718
0.8042675
0.8035002
0.8027836
0.8021117
0.8015177
0.8009271
0.8001214
0.7976628
0.8102332
0.8095706
0.8090788
0.808702
0.8084199
0.8083422
0.8076844
0.807073
0.8065331
0.806066
0.8057542
0.8054537
0.804894
0.8028149
0.8140699
0.81336
0.8127897
0.8123563
0.8120628
0.8120233
0.8114516
0.810931
0.8104735
0.810107
0.809882
0.8098056
0.8097085
0.8093781
0.8076736
0.8168717
0.8161978
0.8156463
0.8152275
0.8149546
0.8149407
0.8144257
0.8139567
0.8135494
0.8132187
0.8130339
0.8129777
0.8130251
0.8130761
0.8129109
0.8188909
0.8182471
0.8177178
0.8173157
0.8170555
0.8170465
0.8165561
0.8161077
0.8157116
0.8153848
0.815181
0.8151019
0.8151026
0.815215
0.8153434
0.8202324
0.8196014
0.8190797
0.8186792
0.8184143
0.8183889
0.8178974
0.8174411
0.8170298
0.8166744
0.8164278
0.8162788
0.8162008
0.8162036
0.8163178
0.8084172
0.8076208
0.805889
0.8047641
0.804094
0.8022595
0.8007032
0.8002187
0.799739
0.7978869
0.7958687
0.7944764
0.7931907
0.7920679
0.7911618
0.7905238
0.7902048
0.790269
0.7908082
0.7920421
0.7944963
0.7952918
0.7956995
0.7956529
0.7938126
0.7972424
0.7958718
0.7946013
0.7934911
0.7925936
0.7919543
0.7916135
0.791604
0.7919575
0.7926674
0.7935883
0.7937669
0.7939209
0.793899
0.793518
0.791599
0.7985508
0.7971976
0.7959355
0.7948301
0.7939332
0.7932854
0.7929139
0.7928298
0.7930132
0.7933946
0.7937764
0.7936271
0.7934697
0.7933212
0.7930271
0.792605
0.7895181
0.7998329
0.7985012
0.7972526
0.796156
0.7952632
0.7946103
0.7942162
0.7940758
0.794151
0.7943474
0.794499
0.7941736
0.7938655
0.7935497
0.7932492
0.7929844
0.7915198
0.788453
0.8011126
0.7998098
0.7985849
0.7975076
0.7966284
0.7959806
0.795578
0.7954093
0.7954276
0.7955392
0.7955859
0.7951927
0.7947996
0.7944197
0.7940323
0.7938172
0.7926371
0.791159
0.7881428
0.8024009
0.8011344
0.7999449
0.7988989
0.798045
0.7974145
0.7970197
0.7968485
0.7968549
0.7969461
0.7969717
0.7965662
0.7961603
0.795749
0.7953465
0.7950767
0.794045
0.7928835
0.7914323
0.7884642
0.8036957
0.8024729
0.8013287
0.8003251
0.7995069
0.7989046
0.7985318
0.7983811
0.7984137
0.7985434
0.7986146
0.7982524
0.7978786
0.7974941
0.7970934
0.7968257
0.7958141
0.7948301
0.7937263
0.7923413
0.789483
0.8049855
0.8038108
0.8027195
0.801765
0.8009889
0.8004212
0.80008
0.799968
0.8000634
0.8002977
0.8005062
0.8002473
0.799964
0.7996473
0.799298
0.7990408
0.7980919
0.7971537
0.7962548
0.7952522
0.7940361
0.7912617
0.8062488
0.8051247
0.8040871
0.8031826
0.8024482
0.8019151
0.8016068
0.8015419
0.8017303
0.8021582
0.8026884
0.80263
0.8024989
0.8022956
0.8020238
0.8018165
0.8009309
0.8000815
0.7992575
0.7984895
0.7976939
0.7966639
0.7939497
0.8074599
0.8063798
0.8053891
0.8045254
0.8038247
0.8033174
0.8030325
0.8030026
0.8032815
0.80399
0.8054617
0.8057124
0.8057263
0.8056011
0.8053915
0.8052409
0.8044523
0.8036931
0.8029858
0.8023249
0.8017916
0.8012297
0.8003749
0.7978601
0.8111877
0.8105242
0.8100224
0.8096274
0.8093171
0.8091963
0.8085082
0.8078585
0.8072562
0.8067266
0.8063146
0.8060255
0.8056761
0.8050596
0.8029106
0.8149213
0.81421
0.8136313
0.8131811
0.812861
0.8127777
0.8121765
0.8116126
0.8111005
0.8106526
0.8103368
0.8101307
0.810007
0.8098556
0.8094603
0.8176577
0.8169807
0.8164198
0.8159843
0.8156853
0.8156301
0.8150853
0.8145776
0.8141164
0.8137179
0.8134343
0.8132659
0.8131641
0.8131597
0.81315
0.8196383
0.8189905
0.8184518
0.8180335
0.8177489
0.8177016
0.8171847
0.816701
0.8162597
0.8158716
0.8155889
0.8153998
0.8152768
0.8152279
0.815283
0.8209621
0.8203275
0.8197972
0.8193823
0.8190954
0.819036
0.8185217
0.8180363
0.8175867
0.8171827
0.816869
0.8166357
0.8164444
0.8163188
0.8162672
0.8097875
0.8100953
0.8086392
0.8082874
0.8078369
0.8063601
0.8054113
0.8050126
0.8046003
0.8030499
0.801579
0.801167
0.8009665
0.800695
0.7990616
0.7973117
0.7959642
0.794721
0.7936358
0.7927593
0.7921392
0.7918237
0.7918677
0.7923645
0.7934999
0.7957987
0.796488
0.7969452
0.7971615
0.7970121
0.7953677
0.7986426
0.7973146
0.7960846
0.7950102
0.7941411
0.7935198
0.7931827
0.7931616
0.7934784
0.7941338
0.7949661
0.7951065
0.795194
0.7952552
0.7951508
0.7948922
0.7919224
0.7999119
0.7985993
0.7973761
0.7963051
0.7954358
0.794806
0.7944407
0.7943478
0.7945091
0.7948496
0.7951884
0.7950007
0.794822
0.7946243
0.7944292
0.7942585
0.7928825
0.7898409
0.8011568
0.7998639
0.7986524
0.7975889
0.7967227
0.7960877
0.7957007
0.7955561
0.7956142
0.7957858
0.795904
0.7955652
0.7952248
0.7948939
0.7945503
0.7943735
0.7932327
0.7917947
0.788775
0.8024009
0.8011344
0.7999449
0.7988989
0.798045
0.7974145
0.7970197
0.7968485
0.7968549
0.7969461
0.7969717
0.7965662
0.7961603
0.795749
0.7953465
0.7950767
0.794045
0.7928835
0.7914323
0.7884642
0.803654
0.802422
0.8012653
0.8002488
0.7994186
0.7988044
0.7984172
0.7982443
0.7982403
0.798315
0.7983214
0.7979106
0.7974904
0.7970639
0.7966273
0.7963299
0.7952893
0.7942719
0.793129
0.7917047
0.7888521
0.8049152
0.8037239
0.8026106
0.8016339
0.8008377
0.8002502