/*--------------------------------*- C++ -*----------------------------------*\
| =========                 |                                                 |
| \\      /  F ield         | OpenFOAM: The Open Source CFD Toolbox           |
|  \\    /   O peration     | Version:  2306                                  |
|   \\  /    A nd           | Website:  www.openfoam.com                      |
|    \\/     M anipulation  |                                                 |
\*---------------------------------------------------------------------------*/
FoamFile
{
    version     2.0;
    format      ascii;
    arch        "LSB;label=32;scalar=64";
    class       volScalarField;
    location    "0.9/air";
    object      nernst;
}
// * * * * * * * * * * * * * * * * * * * * * * * * * * * * * * * * * * * * * //

dimensions      [1 2 -3 0 0 -1 0];

internalField   nonuniform List<scalar> 
16000
(
-0.692728
-0.6849291
-0.7019604
-0.684802
-0.6806527
-0.6999487
-0.6659727
-0.7044496
-0.6999389
-0.6804213
-0.6782388
-0.6982095
-0.6543568
-0.7036014
-0.6940222
-0.6541818
-0.706541
-0.7036613
-0.6982059
-0.6778885
-0.6771218
-0.6969318
-0.6474384
-0.7028358
-0.688847
-0.636808
-0.7061254
-0.7011902
-0.688805
-0.6469717
-0.7084165
-0.70621
-0.7029747
-0.6969414
-0.6766221
-0.6771218
-0.6962553
-0.6441762
-0.7022487
-0.6850199
-0.625994
-0.7057556
-0.6989321
-0.6804444
-0.6255898
-0.7081796
-0.7050475
-0.6990028
-0.6848861
-0.6432474
-0.7101343
-0.708269
-0.7059438
-0.7024911
-0.696289
-0.6764272
-0.7065929
-0.6782388
-0.6962553
-0.6441762
-0.701929
-0.6829864
-0.6207653
-0.7054734
-0.6971875
-0.6741907
-0.6118811
-0.7079744
-0.7039945
-0.6953176
-0.6740298
-0.6196343
-0.7099768
-0.7076432
-0.7041057
-0.697339
-0.6827113
-0.6425926
-0.7117222
-0.7100633
-0.7081721
-0.7057964
-0.7023069
-0.696343
-0.6773009
-0.7063667
-0.708538
-0.7077518
-0.6806527
-0.6969318
-0.6474384
-0.701929
-0.6829864
-0.6207653
-0.7053198
-0.6962338
-0.6708482
-0.6051367
-0.7078206
-0.7031832
-0.692439
-0.6658257
-0.6042462
-0.7098438
-0.7070892
-0.7024118
-0.6925018
-0.6703964
-0.6185387
-0.7116014
-0.7096715
-0.7072109
-0.7034435
-0.6964897
-0.6825598
-0.6449924
-0.7132001
-0.7116824
-0.7100356
-0.7081591
-0.7058176
-0.7024905
-0.6971405
-0.6794219
-0.7059054
-0.708368
-0.7075048
-0.7103217
-0.709604
-0.7089469
-0.6849291
-0.6982095
-0.6543568
-0.7022487
-0.6850199
-0.625994
-0.7053198
-0.6962338
-0.6708482
-0.6051367
-0.7077378
-0.7027394
-0.6908559
-0.6614153
-0.5966019
-0.7097461
-0.7066707
-0.7010896
-0.688688
-0.6610312
-0.6028051
-0.7115012
-0.7093335
-0.7063444
-0.7012445
-0.6909859
-0.6700293
-0.6223059
-0.7130982
-0.7113951
-0.7094533
-0.7069607
-0.7032029
-0.6966553
-0.6845195
-0.650813
-0.7145818
-0.7131733
-0.7116817
-0.7100751
-0.7082579
-0.7060439
-0.7030694
-0.6986664
-0.6832957
-0.7051635
-0.7080305
-0.7069869
-0.7101718
-0.7094346
-0.7086832
-0.7119486
-0.7112641
-0.7106973
-0.7101818
-0.692728
-0.6999487
-0.6659727
-0.7028358
-0.688847
-0.636808
-0.7054734
-0.6971875
-0.6741907
-0.6118811
-0.7077378
-0.7027394
-0.6908559
-0.6614153
-0.5966019
-0.7096941
-0.7064446
-0.7003609
-0.6865794
-0.655977
-0.5949714
-0.7114286
-0.7090841
-0.7056808
-0.6995089
-0.6866193
-0.6604814
-0.6075923
-0.7130143
-0.7111527
-0.7089419
-0.7058637
-0.7007337
-0.6911096
-0.6730618
-0.6313149
-0.7144909
-0.7129373
-0.7112663
-0.7093716
-0.7069647
-0.7034866
-0.6978988
-0.688484
-0.6610051
-0.7158782
-0.7145605
-0.7131829
-0.7117396
-0.7101999
-0.7084891
-0.7064943
-0.7040385
-0.7008938
-0.6903486
-0.7038506
-0.7075304
-0.7061065
-0.7098762
-0.7091
-0.7081239
-0.711811
-0.7111205
-0.7105281
-0.7099068
-0.7134546
-0.7127755
-0.7122296
-0.7118183
-0.7114577
-0.7019604
-0.684802
-0.7036014
-0.6940222
-0.6541818
-0.7057556
-0.6989321
-0.6804444
-0.6255898
-0.7078206
-0.7031832
-0.692439
-0.6658257
-0.6042462
-0.7096941
-0.7064446
-0.7003609
-0.6865794
-0.655977
-0.5949714
-0.7113903
-0.7089513
-0.7053193
-0.6985458
-0.6841964
-0.6553222
-0.6003019
-0.712954
-0.7109775
-0.7085596
-0.705013
-0.6987682
-0.686695
-0.6643461
-0.618916
-0.7144163
-0.7127406
-0.71091
-0.7087442
-0.7057653
-0.7010499
-0.6929627
-0.6792591
-0.6464948
-0.7157949
-0.7143525
-0.7128471
-0.7112512
-0.7094684
-0.7072765
-0.7043352
-0.7001487
-0.6941909
-0.6778003
-0.7170982
-0.7158597
-0.7145736
-0.7132458
-0.7118694
-0.7104239
-0.7088676
-0.7071797
-0.7054073
-0.7039205
-0.6988094
-0.7068996
-0.7044905
-0.7094476
-0.7086139
-0.7071655
-0.71154
-0.7108427
-0.7101951
-0.7093233
-0.7133256
-0.7126456
-0.7120911
-0.7116491
-0.7111771
-0.7148688
-0.7141813
-0.713623
-0.7132178
-0.7129664
-0.7122476
-0.7044496
-0.6999389
-0.6804213
-0.7061254
-0.7011902
-0.688805
-0.6469717
-0.7079744
-0.7039945
-0.6953176
-0.6740298
-0.6196343
-0.7097461
-0.7066707
-0.7010896
-0.688688
-0.6610312
-0.6028051
-0.7113903
-0.7089513
-0.7053193
-0.6985458
-0.6841964
-0.6553222
-0.6003019
-0.7129225
-0.7108857
-0.7083547
-0.704546
-0.697672
-0.6842411
-0.6596422
-0.6128395
-0.7143627
-0.7126004
-0.7106501
-0.7082694
-0.704825
-0.699097
-0.6890247
-0.6722633
-0.6375086
-0.7157263
-0.7141802
-0.7125635
-0.7108266
-0.7088063
-0.706134
-0.7022456
-0.696376
-0.6880398
-0.6698818
-0.7170207
-0.7156697
-0.7142799
-0.7128575
-0.7113783
-0.709776
-0.7079252
-0.7057328
-0.70325
-0.7012662
-0.6938176
-0.7182488
-0.7170811
-0.7158737
-0.7146362
-0.7133731
-0.7120818
-0.7107592
-0.7094112
-0.7081449
-0.7073733
-0.7067231
-0.7005787
-0.7089697
-0.7080347
-0.7054957
-0.7111498
-0.7104628
-0.7097152
-0.7083372
-0.7130717
-0.7123961
-0.7118264
-0.7113157
-0.7105847
-0.7147466
-0.7140603
-0.7134996
-0.7130827
-0.7127968
-0.711967
-0.7161992
-0.7155106
-0.7149273
-0.7144908
-0.7142274
-0.7136737
-0.7123496
-0.706541
-0.7036613
-0.6982059
-0.6778885
-0.7081796
-0.7050475
-0.6990028
-0.6848861
-0.6432474
-0.7098438
-0.7070892
-0.7024118
-0.6925018
-0.6703964
-0.6185387
-0.7114286
-0.7090841
-0.7056808
-0.6995089
-0.6866193
-0.6604814
-0.6075923
-0.7129225
-0.7108857
-0.7083547
-0.704546
-0.697672
-0.6842411
-0.6596422
-0.6128395
-0.7143348
-0.7125276
-0.710513
-0.7080128
-0.7043054
-0.6980037
-0.686834
-0.6684962
-0.6331628
-0.7156772
-0.7140583
-0.7123598
-0.7105134
-0.7082988
-0.7052274
-0.7005545
-0.6933443
-0.6833571
-0.6650041
-0.7169566
-0.7155126
-0.7140338
-0.7125259
-0.7109451
-0.7091759
-0.7070041
-0.7042515
-0.7009716
-0.698506
-0.6899631
-0.7181761
-0.7169044
-0.7156061
-0.7142992
-0.7129907
-0.7116702
-0.7103176
-0.7089228
-0.7076467
-0.7070748
-0.7058311
-0.6965072
-0.7193361
-0.7182327
-0.7170951
-0.7159343
-0.7147584
-0.7135738
-0.7123877
-0.7112257
-0.7101777
-0.7096263
-0.7096117
-0.7076377
-0.7023714
-0.7107322
-0.7101125
-0.7091452
-0.7067318
-0.712706
-0.7120626
-0.7114751
-0.7108344
-0.7096061
-0.7145059
-0.7138281
-0.7132665
-0.7128255
-0.7124613
-0.7113771
-0.7160826
-0.7153961
-0.7148129
-0.7143718
-0.7140941
-0.7135038
-0.7120691
-0.7174556
-0.7167696
-0.7161708
-0.715692
-0.7153773
-0.7148518
-0.7137653
-0.7124519
-0.7084165
-0.70621
-0.7029747
-0.6969414
-0.6766221
-0.7099768
-0.7076432
-0.7041057
-0.697339
-0.6827113
-0.6425926
-0.7115012
-0.7093335
-0.7063444
-0.7012445
-0.6909859
-0.6700293
-0.6223059
-0.712954
-0.7109775
-0.7085596
-0.705013
-0.6987682
-0.686695
-0.6643461
-0.618916
-0.7143348
-0.7125276
-0.710513
-0.7080128
-0.7043054
-0.6980037
-0.686834
-0.6684962
-0.6331628
-0.7156515
-0.7139952
-0.7122536
-0.7103471
-0.7080223
-0.7047229
-0.699603
-0.6916533
-0.680835
-0.6626466
-0.7169107
-0.7154018
-0.7138586
-0.7122856
-0.7106214
-0.7087074
-0.7062555
-0.7030177
-0.6990793
-0.6963196
-0.6873942
-0.7181158
-0.7167584
-0.7153826
-0.7140141
-0.7126598
-0.7112968
-0.7098787
-0.7083597
-0.7069127
-0.7062925
-0.7047268
-0.6932314
-0.7192676
-0.7180672
-0.7168464
-0.7156281
-0.7144295
-0.7132648
-0.7121468
-0.711115
-0.7102919
-0.710102
-0.7097153
-0.7068504
-0.6990582
-0.720365
-0.719321
-0.7182465
-0.7171534
-0.7160509
-0.7149481
-0.7138577
-0.7128063
-0.7118822
-0.7114026
-0.7115416
-0.7103753
-0.7086273
-0.7041922
-0.7123161
-0.711789
-0.7111597
-0.7102527
-0.7081147
-0.7141587
-0.713519
-0.7129674
-0.7124841
-0.7119724
-0.7104148
-0.7158528
-0.7151764
-0.7145975
-0.7141486
-0.7138389
-0.7131669
-0.7114796
-0.7173439
-0.7166603
-0.7160627
-0.7155823
-0.7152608
-0.7147186
-0.7135954
-0.7121715
-0.7186434
-0.7179659
-0.7173575
-0.7168485
-0.7164739
-0.7159299
-0.7149333
-0.7138572
-0.7125548
-0.7101343
-0.708269
-0.7059438
-0.7024911
-0.696289
-0.6764272
-0.7116014
-0.7096715
-0.7072109
-0.7034435
-0.6964897
-0.6825598
-0.6449924
-0.7130143
-0.7111527
-0.7089419
-0.7058637
-0.7007337
-0.6911096
-0.6730618
-0.6313149
-0.7143627
-0.7126004
-0.7106501
-0.7082694
-0.704825
-0.699097
-0.6890247
-0.6722633
-0.6375086
-0.7156515
-0.7139952
-0.7122536
-0.7103471
-0.7080223
-0.7047229
-0.699603
-0.6916533
-0.680835
-0.6626466
-0.7168867
-0.7153446
-0.7137679
-0.7121597
-0.7104481
-0.7084494
-0.7058337
-0.7023147
-0.6980111
-0.6951249
-0.686114
-0.7180725
-0.7166554
-0.7152242
-0.7138096
-0.7124174
-0.7110115
-0.7095199
-0.7078639
-0.7062251
-0.7055306
-0.7037954
-0.6910053
-0.7192106
-0.7179301
-0.7166388
-0.71537
-0.7141479
-0.7129893
-0.711903
-0.7109199
-0.7101525
-0.710055
-0.7095204
-0.7059282
-0.6963154
-0.7203004
-0.719165
-0.7180133
-0.7168687
-0.7157527
-0.7146862
-0.7136973
-0.7128326
-0.7122099
-0.7121128
-0.7119489
-0.7104009
-0.7079048
-0.7015092
-0.7213401
-0.7203509
-0.7193345
-0.7183026
-0.7172646
-0.7162308
-0.7152143
-0.7142431
-0.713394
-0.7129498
-0.7130934
-0.7122101
-0.7111831
-0.7096609
-0.7060315
-0.7137841
-0.713271
-0.7127366
-0.7121557
-0.7113663
-0.7089938
-0.7155202
-0.7148827
-0.7143235
-0.7138634
-0.7134927
-0.7126723
-0.7105195
-0.7171234
-0.7164501
-0.7158592
-0.7153774
-0.7150411
-0.7144622
-0.7132584
-0.7115826
-0.7185359
-0.7178611
-0.7172543
-0.7167451
-0.7163669
-0.7158137
-0.7148001
-0.7136873
-0.7122746
-0.7197685
-0.719103
-0.718493
-0.7179622
-0.7175425
-0.7169661
-0.7160028
-0.715015
-0.7139495
-0.7126581
-0.7117222
-0.7100633
-0.7081721
-0.7057964
-0.7023069
-0.696343
-0.6773009
-0.7130982
-0.7113951
-0.7094533
-0.7069607
-0.7032029
-0.6966553
-0.6845195
-0.650813
-0.7144163
-0.7127406
-0.71091
-0.7087442
-0.7057653
-0.7010499
-0.6929627
-0.6792591
-0.6464948
-0.7156772
-0.7140583
-0.7123598
-0.7105134
-0.7082988
-0.7052274
-0.7005545
-0.6933443
-0.6833571
-0.6650041
-0.7168867
-0.7153446
-0.7137679
-0.7121597
-0.7104481
-0.7084494
-0.7058337
-0.7023147
-0.6980111
-0.6951249
-0.686114
-0.7180499
-0.7166023
-0.7151423
-0.7137033
-0.7122893
-0.7108566
-0.7093174
-0.7075746
-0.7058165
-0.7050792
-0.7032733
-0.6898868
-0.7191696
-0.7178333
-0.7164919
-0.7151858
-0.7139439
-0.7127827
-0.711703
-0.7107229
-0.7099442
-0.7098697
-0.7092656
-0.705155
-0.6944205
-0.7202464
-0.7190358
-0.7178185
-0.7166291
-0.7154984
-0.7144553
-0.7135327
-0.7127768
-0.7122939
-0.7123258
-0.7120725
-0.7102335
-0.7071212
-0.699251
-0.7212789
-0.7202038
-0.7191148
-0.7180353
-0.7169871
-0.7159937
-0.7150853
-0.7143123
-0.713774
-0.7136975
-0.7135705
-0.7124849
-0.7111217
-0.7089813
-0.7038832
-0.7222648
-0.721327
-0.7203644
-0.7193885
-0.718409
-0.7174357
-0.7164822
-0.7155741
-0.7147823
-0.7143539
-0.7144697
-0.7136925
-0.7129066
-0.7120102
-0.7107161
-0.7071132
-0.7151553
-0.7146421
-0.7141203
-0.7136225
-0.7131248
-0.7120505
-0.7091066
-0.7168034
-0.7161676
-0.7155995
-0.7151185
-0.7147533
-0.7141086
-0.7127633
-0.7106248
-0.7183237
-0.717659
-0.7170596
-0.716552
-0.7161662
-0.7155933
-0.7145436
-0.7133501
-0.7116864
-0.7196649
-0.719002
-0.7183939
-0.7178635
-0.7174418
-0.7168595
-0.7158866
-0.7148818
-0.7137796
-0.7123781
-0.7208353
-0.7201852
-0.7195788
-0.7190362
-0.7185823
-0.7179841
-0.7170317
-0.7160758
-0.7150971
-0.714042
-0.7127658
-0.7132001
-0.7116824
-0.7100356
-0.7081591
-0.7058176
-0.7024905
-0.6971405
-0.6794219
-0.7144909
-0.7129373
-0.7112663
-0.7093716
-0.7069647
-0.7034866
-0.6978988
-0.688484
-0.6610051
-0.7157263
-0.7141802
-0.7125635
-0.7108266
-0.7088063
-0.706134
-0.7022456
-0.696376
-0.6880398
-0.6698818
-0.7169107
-0.7154018
-0.7138586
-0.7122856
-0.7106214
-0.7087074
-0.7062555
-0.7030177
-0.6990793
-0.6963196
-0.6873942
-0.7180499
-0.7166023
-0.7151423
-0.7137033
-0.7122893
-0.7108566
-0.7093174
-0.7075746
-0.7058165
-0.7050792
-0.7032733
-0.6898868
-0.7191481
-0.7177835
-0.7164161
-0.7150903
-0.7138371
-0.7126719
-0.7115904
-0.710602
-0.7098042
-0.7097345
-0.7091017
-0.7047216
-0.6934607
-0.7202075
-0.7189445
-0.7176806
-0.7164583
-0.7153152
-0.7142841
-0.713398
-0.7126961
-0.7122719
-0.7123579
-0.7120741
-0.7100268
-0.7064769
-0.6976709
-0.7212277
-0.7200816
-0.718931
-0.7178102
-0.7167507
-0.7157857
-0.7149528
-0.7143056
-0.713929
-0.7139896
-0.7137946
-0.7125792
-0.7109575
-0.7083057
-0.7020661
-0.722207
-0.7211879
-0.7201569
-0.7191364
-0.7181478
-0.7172143
-0.716366
-0.7156497
-0.7151555
-0.7150659
-0.7149341
-0.7140257
-0.7130523
-0.7118637
-0.710066
-0.7052124
-0.7231425
-0.7222528
-0.7213404
-0.7204165
-0.7194906
-0.7185723
-0.7176744
-0.7168211
-0.7160757
-0.7156606
-0.7157372
-0.7150143
-0.7143096
-0.7136113
-0.7128407
-0.7113717
-0.7072484
-0.7164463
-0.7159274
-0.7154035
-0.714909
-0.7144733
-0.7137134
-0.7121401
-0.7092202
-0.7180148
-0.7173855
-0.7168093
-0.7163077
-0.7159065
-0.7152985
-0.7141892
-0.7128545
-0.710731
-0.7194601
-0.718807
-0.7182064
-0.7176788
-0.7172532
-0.7166584
-0.715666
-0.7146251
-0.7134422
-0.7117906
-0.7207352
-0.7200877
-0.7194833
-0.7189415
-0.7184863
-0.7178838
-0.7169251
-0.7159596
-0.7149638
-0.713872
-0.7124861
-0.7218481
-0.7212156
-0.7206175
-0.7200701
-0.7195942
-0.7189814
-0.7180436
-0.7170975
-0.7161491
-0.7151792
-0.7141386
-0.7128643
-0.7145818
-0.7131733
-0.7116817
-0.7100751
-0.7082579
-0.7060439
-0.7030694
-0.6986664
-0.6832957
-0.7157949
-0.7143525
-0.7128471
-0.7112512
-0.7094684
-0.7072765
-0.7043352
-0.7001487
-0.6941909
-0.6778003
-0.7169566
-0.7155126
-0.7140338
-0.7125259
-0.7109451
-0.7091759
-0.7070041
-0.7042515
-0.7009716
-0.698506
-0.6899631
-0.7180725
-0.7166554
-0.7152242
-0.7138096
-0.7124174
-0.7110115
-0.7095199
-0.7078639
-0.7062251
-0.7055306
-0.7037954
-0.6910053
-0.7191481
-0.7177835
-0.7164161
-0.7150903
-0.7138371
-0.7126719
-0.7115904
-0.710602
-0.7098042
-0.7097345
-0.7091017
-0.7047216
-0.6934607
-0.7201871
-0.7188974
-0.7176094
-0.71637
-0.7152198
-0.7141932
-0.7133223
-0.7126416
-0.7122378
-0.7123457
-0.712052
-0.7098945
-0.7061178
-0.6968648
-0.7211907
-0.7199952
-0.7188009
-0.7176499
-0.7165809
-0.7156325
-0.7148448
-0.7142682
-0.7139725
-0.7140976
-0.7138861
-0.7125837
-0.710781
-0.7077679
-0.7007835
-0.7221583
-0.7210722
-0.7199831
-0.7189238
-0.7179254
-0.7170203
-0.7162471
-0.7156561
-0.7153236
-0.7153654
-0.7151776
-0.7142016
-0.7131027
-0.7116882
-0.7094782
-0.7036089
-0.7230877
-0.7221213
-0.7211442
-0.7201782
-0.7192437
-0.7183628
-0.7175639
-0.7168908
-0.7164221
-0.7163158
-0.7161612
-0.7153385
-0.7145079
-0.7136381
-0.7126131
-0.7107317
-0.7053736
-0.7239759
-0.7231315
-0.7222663
-0.7213909
-0.7205148
-0.719647
-0.7187998
-0.7179954
-0.7172919
-0.7168887
-0.7169313
-0.7162376
-0.71557
-0.714929
-0.7143122
-0.7133631
-0.7114591
-0.7073834
-0.7176646
-0.7171441
-0.7166127
-0.7161088
-0.7156621
-0.7149904
-0.7137913
-0.7122298
-0.7093345
-0.7191613
-0.7185414
-0.7179634
-0.7174438
-0.7170095
-0.7163927
-0.7153705
-0.7142699
-0.712946
-0.7108378
-0.7205372
-0.7198991
-0.7193021
-0.7187636
-0.7183063
-0.717695
-0.7167239
-0.7157388
-0.7147069
-0.7135345
-0.7118994
-0.7217512
-0.7211212
-0.7205252
-0.7199787
-0.7195021
-0.7188859
-0.7179433
-0.7169908
-0.7160328
-0.7150459
-0.7139686
-0.7125849
-0.7228105
-0.7221973
-0.7216109
-0.7210649
-0.7205757
-0.7199574
-0.7190357
-0.7181032
-0.7171635
-0.7162225
-0.7152654
-0.714227
-0.7129397
-0.7158782
-0.7145605
-0.7131829
-0.7117396
-0.7101999
-0.7084891
-0.7064943
-0.7040385
-0.7008938
-0.6903486
-0.7170207
-0.7156697
-0.7142799
-0.7128575
-0.7113783
-0.709776
-0.7079252
-0.7057328
-0.70325
-0.7012662
-0.6938176
-0.7181158
-0.7167584
-0.7153826
-0.7140141
-0.7126598
-0.7112968
-0.7098787
-0.7083597
-0.7069127
-0.7062925
-0.7047268
-0.6932314
-0.7191696
-0.7178333
-0.7164919
-0.7151858
-0.7139439
-0.7127827
-0.711703
-0.7107229
-0.7099442
-0.7098697
-0.7092656
-0.705155
-0.6944205
-0.7201871
-0.7188974
-0.7176094
-0.71637
-0.7152198
-0.7141932
-0.7133223
-0.7126416
-0.7122378
-0.7123457
-0.712052
-0.7098945
-0.7061178
-0.6968648
-0.7211712
-0.7199506
-0.7187337
-0.717567
-0.7164925
-0.7155515
-0.7147846
-0.7142391
-0.7139772
-0.7141305
-0.7139159
-0.7125684
-0.7106714
-0.7074718
-0.7001252
-0.722123
-0.7209904
-0.71986
-0.7187725
-0.7177657
-0.7168778
-0.7161509
-0.7156328
-0.7153856
-0.7154922
-0.7152947
-0.7142791
-0.7130988
-0.7115294
-0.7090313
-0.7024741
-0.7230414
-0.7220117
-0.7209798
-0.7199771
-0.7190333
-0.7181794
-0.7174517
-0.7168976
-0.7165819
-0.7165981
-0.7163934
-0.7155291
-0.7146259
-0.7136375
-0.7124191
-0.7101827
-0.7037923
-0.7239239
-0.7230072
-0.7220808
-0.7211656
-0.720281
-0.719448
-0.7186931
-0.7180559
-0.7176077
-0.7174846
-0.7173093
-0.71653
-0.7157658
-0.7150053
-0.7142296
-0.7130937
-0.71082
-0.7055341
-0.7247673
-0.723966
-0.7231452
-0.7223155
-0.7214858
-0.720665
-0.7198646
-0.7191053
-0.71844
-0.7180503
-0.7180645
-0.7173946
-0.7167439
-0.7161243
-0.7155411
-0.7147578
-0.7134347
-0.7115464
-0.7075186
-0.7188177
-0.7182988
-0.7177643
-0.7172473
-0.7167807
-0.7161226
-0.7150596
-0.7138691
-0.7123198
-0.7094494
-0.7202476
-0.7196407
-0.7190652
-0.7185356
-0.7180729
-0.7174464
-0.7164575
-0.7154425
-0.7143507
-0.7130377
-0.7109492
-0.7215595
-0.7209385
-0.7203497
-0.7198068
-0.719329
-0.7187059
-0.7177545
-0.7167894
-0.7158119
-0.7147887
-0.7136309
-0.7119991
-0.7227166
-0.7221059
-0.7215215
-0.7209765
-0.7204869
-0.7198658
-0.7189402
-0.718003
-0.7170568
-0.7161062
-0.715132
-0.7140569
-0.7126605
-0.7237257
-0.723133
-0.722561
-0.7220208
-0.721526
-0.7209084
-0.7200074
-0.7190902
-0.7181631
-0.7172295
-0.7162999
-0.7153441
-0.7142939
-0.7129935
-0.7170982
-0.7158597
-0.7145736
-0.7132458
-0.7118694
-0.7104239
-0.7088676
-0.7071797
-0.7054073
-0.7039205
-0.6988094
-0.7181761
-0.7169044
-0.7156061
-0.7142992
-0.7129907
-0.7116702
-0.7103176
-0.7089228
-0.7076467
-0.7070748
-0.7058311
-0.6965072
-0.7192106
-0.7179301
-0.7166388
-0.71537
-0.7141479
-0.7129893
-0.711903
-0.7109199
-0.7101525
-0.710055
-0.7095204
-0.7059282
-0.6963154
-0.7202075
-0.7189445
-0.7176806
-0.7164583
-0.7153152
-0.7142841
-0.713398
-0.7126961
-0.7122719
-0.7123579
-0.7120741
-0.7100268
-0.7064769
-0.6976709
-0.7211712
-0.7199506
-0.7187337
-0.717567
-0.7164925
-0.7155515
-0.7147846
-0.7142391
-0.7139772
-0.7141305
-0.7139159
-0.7125684
-0.7106714
-0.7074718
-0.7001252
-0.7221045
-0.7209481
-0.7197964
-0.7186941
-0.7176826
-0.7168026
-0.7160974
-0.7156126
-0.7154027
-0.7155384
-0.7153411
-0.7143062
-0.7130849
-0.711436
-0.7087899
-0.7018903
-0.7230078
-0.7219341
-0.7208632
-0.7198338
-0.7188821
-0.7180447
-0.7173614
-0.7168775
-0.7166444
-0.7167226
-0.716511
-0.7156267
-0.7146817
-0.7136183
-0.7122705
-0.7097774
-0.7026731
-0.7238798
-0.7229034
-0.7219251
-0.7209751
-0.7200815
-0.7192736
-0.7185852
-0.7180591
-0.7177532
-0.7177427
-0.7175211
-0.7167102
-0.7158967
-0.715062
-0.7141765
-0.7128872
-0.7102747
-0.7039749
-0.7247179
-0.7238484
-0.7229699
-0.7221024
-0.7212645
-0.7204759
-0.7197613
-0.7191571
-0.7187269
-0.7185919
-0.7183991
-0.7176506
-0.7169179
-0.7162054
-0.7155068
-0.7146206
-0.7131607
-0.7109082
-0.7056943
-0.7255188
-0.7247585
-0.7239799
-0.7231933
-0.7224073
-0.7216305
-0.7208738
-0.7201564
-0.7195272
-0.7191518
-0.7191452
-0.7184964
-0.7178598
-0.7172462
-0.7166696
-0.7159342
-0.7148201
-0.7135061
-0.7116338
-0.7076536
-0.7199105
-0.7193976
-0.7188636
-0.718339
-0.7178515
-0.717195
-0.7161849
-0.7151287
-0.713947
-0.7124099
-0.7095686
-0.7212784
-0.7206868
-0.7201186
-0.7195847
-0.7191034
-0.7184684
-0.7175053
-0.7165224
-0.7155146
-0.7144316
-0.7131336
-0.7110513
-0.7225306
-0.7219286
-0.7213512
-0.7208099
-0.7203197
-0.7196929
-0.7187602
-0.717814
-0.7168552
-0.715885
-0.7148746
-0.713719
-0.7120753
-0.7236345
-0.7230443
-0.7224744
-0.7219352
-0.7214401
-0.7208201
-0.7199158
-0.7189947
-0.7180628
-0.7171228
-0.7161835
-0.7152106
-0.7141237
-0.7127144
-0.7245965
-0.7240252
-0.7234696
-0.7229389
-0.722444
-0.7218328
-0.7209547
-0.7200575
-0.7191449
-0.718223
-0.7172995
-0.7163705
-0.715403
-0.7143409
-0.7130242
-0.7038506
-0.7182488
-0.7170811
-0.7158737
-0.7146362
-0.7133731
-0.7120818
-0.7107592
-0.7094112
-0.7081449
-0.7073733
-0.7067231
-0.7005787
-0.7192676
-0.7180672
-0.7168464
-0.7156281
-0.7144295
-0.7132648
-0.7121468
-0.711115
-0.7102919
-0.710102
-0.7097153
-0.7068504
-0.6990582
-0.7202464
-0.7190358
-0.7178185
-0.7166291
-0.7154984
-0.7144553
-0.7135327
-0.7127768
-0.7122939
-0.7123258
-0.7120725
-0.7102335
-0.7071212
-0.699251
-0.7211907
-0.7199952
-0.7188009
-0.7176499
-0.7165809
-0.7156325
-0.7148448
-0.7142682
-0.7139725
-0.7140976
-0.7138861
-0.7125837
-0.710781
-0.7077679
-0.7007835
-0.7221045
-0.7209481
-0.7197964
-0.7186941
-0.7176826
-0.7168026
-0.7160974
-0.7156126
-0.7154027
-0.7155384
-0.7153411
-0.7143062
-0.7130849
-0.711436
-0.7087899
-0.7018903
-0.7229901
-0.721894
-0.720803
-0.7197596
-0.7188034
-0.7179737
-0.7173114
-0.71686
-0.7166636
-0.71677
-0.7165598
-0.7156668
-0.7147021
-0.7136018
-0.7121888
-0.7095615
-0.7020971
-0.7238478
-0.7228298
-0.7218146
-0.7208393
-0.7199381
-0.7191456
-0.7184987
-0.7180386
-0.7178103
-0.7178577
-0.7176305
-0.7168071
-0.7159689
-0.7150917
-0.7141385
-0.712741
-0.7098736
-0.7028711
-0.724676
-0.7237501
-0.7228225
-0.721922
-0.7210753
-0.7203099
-0.7196572
-0.7191561
-0.7188575
-0.7188258
-0.7185891
-0.7178131
-0.7170413
-0.7162752
-0.7155031
-0.7145392
-0.7129526
-0.7103666
-0.7041569
-0.725472
-0.7246474
-0.7238143
-0.7229918
-0.7221979
-0.721451
-0.7207742
-0.7202008
-0.7197887
-0.7196457
-0.7194413
-0.718718
-0.718008
-0.7173158
-0.7166475
-0.7158451
-0.7146769
-0.7132275
-0.7109964
-0.7058539
-0.7262323
-0.7255112
-0.7247727
-0.724027
-0.7232823
-0.722547
-0.7218313
-0.7211534
-0.7205582
-0.7201985
-0.7201771
-0.7195501
-0.718927
-0.7183193
-0.7177386
-0.7170232
-0.71599
-0.7148821
-0.7135776
-0.7117211
-0.7077914
-0.7209477
-0.7204439
-0.7199152
-0.7193876
-0.7188862
-0.7182274
-0.7172517
-0.716247
-0.7151978
-0.7140247
-0.7125042
-0.7096779
-0.7222574
-0.7216832
-0.7211255
-0.7205931
-0.7201007
-0.7194641
-0.7185223
-0.7175641
-0.7165873
-0.7155867
-0.7145164
-0.7132211
-0.7111298
-0.7234538
-0.722872
-0.7223089
-0.7217735
-0.7212782
-0.7206533
-0.7197429
-0.7188146
-0.7178737
-0.716921
-0.715962
-0.7149528
-0.7137855
-0.7121298
-0.7245079
-0.723939
-0.7233855
-0.7228559
-0.7223609
-0.7217474
-0.7208665
-0.7199659
-0.7190494
-0.7181227
-0.7171928
-0.716254
-0.7152694
-0.7141706
-0.7127451
-0.7254254
-0.7248761
-0.7243384
-0.72382
-0.7233297
-0.7227286
-0.7218759
-0.7210011
-0.7201079
-0.7191997
-0.7182868
-0.7173634
-0.7164225
-0.7154435
-0.7143666
-0.7051635
-0.7068996
-0.7044905
-0.7193361
-0.7182327
-0.7170951
-0.7159343
-0.7147584
-0.7135738
-0.7123877
-0.7112257
-0.7101777
-0.7096263
-0.7096117
-0.7076377
-0.7023714
-0.7203004
-0.719165
-0.7180133
-0.7168687
-0.7157527
-0.7146862
-0.7136973
-0.7128326
-0.7122099
-0.7121128
-0.7119489
-0.7104009
-0.7079048
-0.7015092
-0.7212277
-0.7200816
-0.718931
-0.7178102
-0.7167507
-0.7157857
-0.7149528
-0.7143056
-0.713929
-0.7139896
-0.7137946
-0.7125792
-0.7109575
-0.7083057
-0.7020661
-0.722123
-0.7209904
-0.71986
-0.7187725
-0.7177657
-0.7168778
-0.7161509
-0.7156328
-0.7153856
-0.7154922
-0.7152947
-0.7142791
-0.7130988
-0.7115294
-0.7090313
-0.7024741
-0.7229901
-0.721894
-0.720803
-0.7197596
-0.7188034
-0.7179737
-0.7173114
-0.71686
-0.7166636
-0.71677
-0.7165598
-0.7156668
-0.7147021
-0.7136018
-0.7121888
-0.7095615
-0.7020971
-0.723831
-0.7227918
-0.7217575
-0.720769
-0.7198635
-0.7190781
-0.718451
-0.7180214
-0.7178281
-0.7179021
-0.7176768
-0.7168487
-0.7159999
-0.7151032
-0.7141174
-0.7126637
-0.7096604
-0.7023028
-0.7246455
-0.7236803
-0.7227178
-0.7217933
-0.7209393
-0.720188
-0.719574
-0.7191343
-0.7189079
-0.71893
-0.7186882
-0.7179025
-0.717113
-0.7163192
-0.7155052
-0.7144898
-0.7128063
-0.7099695
-0.7030682
-0.7254322
-0.7245543
-0.7236748
-0.7228211
-0.7220186
-0.7212932
-0.720674
-0.7201963
-0.719906
-0.7198576
-0.7196113
-0.7188618
-0.7181176
-0.7173819
-0.7166583
-0.7158099
-0.7145923
-0.7130178
-0.7104584
-0.7043379
-0.7261879
-0.7254063
-0.7246163
-0.7238367
-0.7230844
-0.722377
-0.721736
-0.7211921
-0.7207982
-0.7206514
-0.7204401
-0.7197414
-0.7190505
-0.7183732
-0.7177148
-0.7169503
-0.715895
-0.7147331
-0.7132944
-0.7110844
-0.7060142
-0.7269093
-0.7262258
-0.7255258
-0.724819
-0.7241136
-0.7234175
-0.7227407
-0.7220999
-0.7215373
-0.7211943
-0.7211634
-0.7205586
-0.7199512
-0.7193506
-0.7187683
-0.7180607
-0.717074
-0.7160455
-0.7149442
-0.7136488
-0.7118128
-0.7079176
-0.7219331
-0.7214413
-0.7209212
-0.7203959
-0.7198866
-0.71923
-0.7182794
-0.7173082
-0.7163092
-0.7152667
-0.7141066
-0.7125902
-0.709763
-0.7231881
-0.7226327
-0.7220883
-0.7215618
-0.7210651
-0.7204317
-0.7195138
-0.7185762
-0.7176232
-0.7166522
-0.7156627
-0.7145937
-0.7132868
-0.7111862
-0.7243321
-0.7237715
-0.7232245
-0.7226986
-0.7222038
-0.721586
-0.7206996
-0.719793
-0.7188692
-0.7179334
-0.7169907
-0.7160322
-0.7150112
-0.713832
-0.7121609
-0.7253391
-0.7247923
-0.7242566
-0.7237393
-0.723249
-0.722646
-0.7217906
-0.7209129
-0.7200163
-0.7191042
-0.7181865
-0.7172565
-0.7163059
-0.7153097
-0.7141961
-0.7262145
-0.7256877
-0.7251691
-0.724665
-0.7241829
-0.7235951
-0.7227689
-0.7219191
-0.7210478
-0.7201583
-0.7192583
-0.718345
-0.7174097
-0.7164575
-0.7154644
-0.7059054
-0.7075304
-0.7061065
-0.7089697
-0.7080347
-0.7054957
-0.720365
-0.719321
-0.7182465
-0.7171534
-0.7160509
-0.7149481
-0.7138577
-0.7128063
-0.7118822
-0.7114026
-0.7115416
-0.7103753
-0.7086273
-0.7041922
-0.7212789
-0.7202038
-0.7191148
-0.7180353
-0.7169871
-0.7159937
-0.7150853
-0.7143123
-0.713774
-0.7136975
-0.7135705
-0.7124849
-0.7111217
-0.7089813
-0.7038832
-0.7221583
-0.7210722
-0.7199831
-0.7189238
-0.7179254
-0.7170203
-0.7162471
-0.7156561
-0.7153236
-0.7153654
-0.7151776
-0.7142016
-0.7131027
-0.7116882
-0.7094782
-0.7036089
-0.7230078
-0.7219341
-0.7208632
-0.7198338
-0.7188821
-0.7180447
-0.7173614
-0.7168775
-0.7166444
-0.7167226
-0.716511
-0.7156267
-0.7146817
-0.7136183
-0.7122705
-0.7097774
-0.7026731
-0.723831
-0.7227918
-0.7217575
-0.720769
-0.7198635
-0.7190781
-0.718451
-0.7180214
-0.7178281
-0.7179021
-0.7176768
-0.7168487
-0.7159999
-0.7151032
-0.7141174
-0.7126637
-0.7096604
-0.7023028
-0.7246294
-0.7236442
-0.7226637
-0.7217266
-0.7208684
-0.7201238
-0.7195281
-0.7191169
-0.7189232
-0.7189702
-0.7187304
-0.7179415
-0.7171451
-0.7163394
-0.7155066
-0.7144653
-0.7127295
-0.7097589
-0.7025077
-0.725403
-0.7244881
-0.7235756
-0.7226991
-0.7218896
-0.7211772
-0.7205939
-0.7201734
-0.71995
-0.7199516
-0.7197003
-0.7189419
-0.7181832
-0.7174263
-0.7166735
-0.7157968
-0.7145414
-0.7128716
-0.7100654
-0.7032643
-0.72615
-0.7253182
-0.7244844
-0.7236752
-0.7229147
-0.7222272
-0.7216399
-0.7211851
-0.720904
-0.7208443
-0.7205925
-0.7198681
-0.7191455
-0.7184304
-0.7177264
-0.7169307
-0.7158561
-0.7146452
-0.7130831
-0.7105499
-0.704518
-0.7268673
-0.7261268
-0.7253783
-0.7246395
-0.7239268
-0.7232569
-0.72265
-0.7221346
-0.7217592
-0.721612
-0.7213984
-0.720724
-0.7200528
-0.719389
-0.7187384
-0.7179911
-0.7169956
-0.7159447
-0.7147893
-0.7133611
-0.7111767
-0.7061608
-0.7275513
-0.7269041
-0.7262408
-0.7255713
-0.7249033
-0.7242447
-0.7236046
-0.7229993
-0.7224679
-0.7221422
-0.7221064
-0.7215246
-0.7209343
-0.7203441
-0.7197632
-0.7190645
-0.7181075
-0.7171246
-0.716101
-0.715006
-0.7137246
-0.7118965
-0.7080185
-0.7228701
-0.7223925
-0.7218839
-0.7213649
-0.7208539
-0.720203
-0.719278
-0.7183313
-0.7173647
-0.7163711
-0.7153396
-0.7141811
-0.7126542
-0.7098257
-0.7240734
-0.7235379
-0.7230089
-0.7224918
-0.7219962
-0.7213709
-0.7204778
-0.7195634
-0.7186302
-0.7176821
-0.716721
-0.7157318
-0.7146508
-0.7133323
-0.711219
-0.725168
-0.7246291
-0.7240999
-0.7235864
-0.7230964
-0.7224895
-0.7216292
-0.720746
-0.7198433
-0.7189238
-0.717997
-0.7170542
-0.7160837
-0.7150509
-0.7138569
-0.7261305
-0.7256061
-0.7250895
-0.7245866
-0.7241045
-0.723515
-0.7226864
-0.7218338
-0.7209595
-0.7200667
-0.7191628
-0.7182446
-0.7173028
-0.7163407
-0.7153303
-0.7269658
-0.7264617
-0.7259631
-0.7254751
-0.7250038
-0.7244316
-0.7236331
-0.7228094
-0.7219625
-0.7210945
-0.7202125
-0.7193118
-0.7183867
-0.71744
-0.716474
-0.7063667
-0.7080305
-0.7069869
-0.7094476
-0.7086139
-0.7071655
-0.7107322
-0.7101125
-0.7091452
-0.7067318
-0.7213401
-0.7203509
-0.7193345
-0.7183026
-0.7172646
-0.7162308
-0.7152143
-0.7142431
-0.713394
-0.7129498
-0.7130934
-0.7122101
-0.7111831
-0.7096609
-0.7060315
-0.722207
-0.7211879
-0.7201569
-0.7191364
-0.7181478
-0.7172143
-0.716366
-0.7156497
-0.7151555
-0.7150659
-0.7149341
-0.7140257
-0.7130523
-0.7118637
-0.710066
-0.7052124
-0.7230414
-0.7220117
-0.7209798
-0.7199771
-0.7190333
-0.7181794
-0.7174517
-0.7168976
-0.7165819
-0.7165981
-0.7163934
-0.7155291
-0.7146259
-0.7136375
-0.7124191
-0.7101827
-0.7037923
-0.7238478
-0.7228298
-0.7218146
-0.7208393
-0.7199381
-0.7191456
-0.7184987
-0.7180386
-0.7178103
-0.7178577
-0.7176305
-0.7168071
-0.7159689
-0.7150917
-0.7141385
-0.712741
-0.7098736
-0.7028711
-0.7246294
-0.7236442
-0.7226637
-0.7217266
-0.7208684
-0.7201238
-0.7195281
-0.7191169
-0.7189232
-0.7189702
-0.7187304
-0.7179415
-0.7171451
-0.7163394
-0.7155066
-0.7144653
-0.7127295
-0.7097589
-0.7025077
-0.7253877
-0.7244539
-0.7235243
-0.7226359
-0.7218223
-0.721116
-0.7205498
-0.7201558
-0.7199629
-0.7199877
-0.7197383
-0.7189772
-0.7182131
-0.7174478
-0.7166824
-0.7157923
-0.7145164
-0.712795
-0.7098573
-0.7027114
-0.7261222
-0.7252555
-0.7243905
-0.7235597
-0.7227924
-0.722117
-0.7215631
-0.7211616
-0.7209427
-0.7209292
-0.7206724
-0.7199393
-0.7192035
-0.7184707
-0.7177435
-0.7169304
-0.7158412
-0.7145929
-0.7129368
-0.7101609
-0.7034584
-0.7268312
-0.7260435
-0.7252536
-0.7244869
-0.7237663