/*--------------------------------*- C++ -*----------------------------------*\
| =========                 |                                                 |
| \\      /  F ield         | OpenFOAM: The Open Source CFD Toolbox           |
|  \\    /   O peration     | Version:  2306                                  |
|   \\  /    A nd           | Website:  www.openfoam.com                      |
|    \\/     M anipulation  |                                                 |
\*---------------------------------------------------------------------------*/
FoamFile
{
    version     2.0;
    format      ascii;
    arch        "LSB;label=32;scalar=64";
    class       volScalarField;
    location    "0.9/air";
    object      T;
}
// * * * * * * * * * * * * * * * * * * * * * * * * * * * * * * * * * * * * * //

dimensions      [0 0 0 1 0 0 0];

internalField   nonuniform List<scalar> 
16000
(
1129.067
1117.526
1142.477
1117.33
1111.193
1139.519
1089.394
1145.826
1139.474
1110.825
1107.617
1136.967
1072.114
1144.594
1130.748
1071.837
1148.531
1144.638
1136.868
1107.041
1105.963
1135.093
1061.805
1143.49
1123.113
1045.92
1147.937
1141.015
1122.991
1061.064
1150.914
1148.017
1143.564
1134.913
1105.11
1105.963
1134.101
1056.94
1142.648
1117.464
1029.745
1147.418
1137.714
1110.637
1029.113
1150.584
1146.327
1137.731
1117.111
1055.459
1153.072
1150.671
1147.561
1142.742
1133.811
1104.73
1142.453
1107.617
1134.101
1056.94
1142.189
1114.461
1021.911
1147.026
1135.165
1101.385
1008.557
1150.307
1144.807
1132.327
1101.057
1020.145
1152.858
1149.774
1144.881
1135.172
1113.761
1054.399
1155.051
1152.943
1150.466
1147.232
1142.306
1133.689
1105.878
1142.387
1145.003
1144.111
1111.193
1135.093
1061.805
1142.189
1114.461
1021.911
1146.813
1133.772
1096.436
998.4233
1150.104
1143.638
1128.107
1088.905
997.0434
1152.688
1148.989
1142.423
1128.072
1095.546
1018.428
1154.891
1152.39
1149.08
1143.798
1133.76
1113.346
1057.845
1156.88
1154.969
1152.842
1150.338
1147.094
1142.348
1134.59
1108.79
1142.243
1144.994
1144.015
1147.539
1146.527
1145.78
1117.526
1136.967
1072.114
1142.648
1117.464
1029.745
1146.813
1133.772
1096.436
998.4233
1149.995
1143
1125.786
1082.364
985.5404
1152.566
1148.4
1140.506
1122.472
1081.669
994.8089
1154.767
1151.923
1147.843
1140.602
1125.681
1094.823
1023.954
1156.747
1154.569
1152.014
1148.607
1143.28
1133.782
1115.983
1066.312
1158.579
1156.818
1154.91
1152.795
1150.319
1147.196
1142.902
1136.476
1114.168
1141.961
1144.981
1143.785
1147.544
1146.52
1145.659
1149.886
1148.885
1148.052
1147.464
1129.067
1139.519
1089.394
1143.49
1123.113
1045.92
1147.026
1135.165
1101.385
1008.557
1149.995
1143
1125.786
1082.364
985.5404
1152.502
1148.082
1139.451
1119.375
1074.17
983.0213
1154.682
1151.582
1146.898
1138.081
1119.268
1080.684
1001.897
1156.647
1154.242
1151.299
1147.037
1139.691
1125.65
1099.075
1037.252
1158.462
1156.493
1154.327
1151.793
1148.453
1143.471
1135.326
1121.501
1081.165
1160.163
1158.526
1156.777
1154.894
1152.821
1150.436
1147.561
1143.951
1139.286
1124.029
1141.168
1144.975
1143.29
1147.56
1146.509
1145.365
1149.894
1148.899
1148.045
1147.325
1152.05
1151.064
1150.228
1149.578
1149.165
1142.477
1117.33
1144.594
1130.748
1071.837
1147.418
1137.714
1110.637
1029.113
1150.104
1143.638
1128.107
1088.905
997.0434
1152.502
1148.082
1139.451
1119.375
1074.17
983.0213
1154.638
1151.402
1146.384
1136.682
1115.708
1073.034
990.9451
1156.578
1154.009
1150.768
1145.822
1136.836
1119.174
1086.194
1018.724
1158.374
1156.232
1153.839
1150.913
1146.737
1139.936
1128.106
1107.936
1059.644
1160.057
1158.241
1156.31
1154.208
1151.781
1148.692
1144.429
1138.28
1129.497
1105.635
1161.645
1160.115
1158.492
1156.772
1154.934
1152.935
1150.706
1148.201
1145.497
1143.128
1135.527
1145.067
1141.994
1147.61
1146.514
1144.738
1149.918
1148.939
1148.033
1146.992
1152.059
1151.084
1150.249
1149.57
1149.018
1154.053
1153.083
1152.238
1151.568
1151.104
1150.075
1145.826
1139.474
1110.825
1147.937
1141.015
1122.991
1061.064
1150.307
1144.807
1132.327
1101.057
1020.145
1152.566
1148.4
1140.506
1122.472
1081.669
994.8089
1154.638
1151.402
1146.384
1136.682
1115.708
1073.034
990.9451
1156.544
1153.889
1150.485
1145.156
1135.244
1115.573
1079.234
1009.63
1158.315
1156.05
1153.488
1150.252
1145.395
1137.106
1122.346
1097.639
1046.299
1159.977
1158.015
1155.928
1153.626
1150.855
1147.065
1141.414
1132.797
1120.529
1094.048
1161.546
1159.856
1158.087
1156.233
1154.247
1152.022
1149.365
1146.129
1142.414
1139.416
1128.69
1163.033
1161.6
1160.085
1158.491
1156.814
1155.041
1153.153
1151.152
1149.17
1147.799
1146.394
1137.624
1147.861
1146.635
1143.301
1149.983
1149.053
1148.035
1146.31
1152.085
1151.138
1150.306
1149.555
1148.669
1154.063
1153.104
1152.267
1151.593
1151.095
1149.927
1155.914
1154.963
1154.112
1153.408
1152.902
1151.912
1150.173
1148.531
1144.638
1136.868
1107.041
1150.584
1146.327
1137.731
1117.111
1055.459
1152.688
1148.989
1142.423
1128.072
1095.546
1018.428
1154.682
1151.582
1146.898
1138.081
1119.268
1080.684
1001.897
1156.544
1153.889
1150.485
1145.156
1135.244
1115.573
1079.234
1009.63
1158.285
1155.957
1153.303
1149.895
1144.654
1135.521
1119.141
1092.089
1039.839
1159.924
1157.859
1155.658
1153.201
1150.15
1145.777
1138.977
1128.392
1113.698
1086.91
1161.472
1159.652
1157.758
1155.785
1153.657
1151.191
1148.07
1144.025
1139.169
1135.53
1123.272
1162.941
1161.36
1159.717
1158.026
1156.287
1154.474
1152.548
1150.489
1148.525
1147.547
1145.589
1132.253
1164.336
1162.99
1161.571
1160.084
1158.531
1156.912
1155.227
1153.501
1151.85
1150.788
1150.287
1147.297
1139.863
1150.263
1149.446
1148.116
1144.917
1152.15
1151.278
1150.45
1149.542
1147.989
1154.087
1153.16
1152.343
1151.659
1151.076
1149.581
1155.924
1154.984
1154.143
1153.443
1152.931
1151.902
1150.025
1157.649
1156.721
1155.87
1155.136
1154.572
1153.605
1151.998
1150.27
1150.914
1148.017
1143.564
1134.913
1105.11
1152.858
1149.774
1144.881
1135.172
1113.761
1054.399
1154.767
1151.923
1147.843
1140.602
1125.681
1094.823
1023.954
1156.578
1154.009
1150.768
1145.822
1136.836
1119.174
1086.194
1018.724
1158.285
1155.957
1153.303
1149.895
1144.654
1135.521
1119.141
1092.089
1039.839
1159.897
1157.78
1155.518
1152.977
1149.767
1145.061
1137.606
1125.934
1110.016
1083.458
1161.423
1159.511
1157.529
1155.467
1153.221
1150.548
1147.021
1142.273
1136.469
1132.434
1119.631
1162.872
1161.17
1159.42
1157.646
1155.845
1153.975
1151.96
1149.734
1147.55
1146.568
1144.247
1127.758
1164.25
1162.766
1161.23
1159.663
1158.081
1156.495
1154.915
1153.391
1152.101
1151.663
1150.916
1146.735
1135.652
1165.561
1164.295
1162.963
1161.57
1160.121
1158.62
1157.076
1155.518
1154.055
1153.118
1152.846
1150.997
1148.403
1142.21
1152.423
1151.728
1150.844
1149.563
1146.733
1154.15
1153.301
1152.522
1151.806
1151.045
1148.921
1155.947
1155.038
1154.221
1153.531
1152.997
1151.881
1149.679
1157.658
1156.741
1155.899
1155.173
1154.61
1153.634
1151.989
1150.123
1159.271
1158.369
1157.524
1156.771
1156.154
1155.183
1153.68
1152.084
1150.368
1153.072
1150.671
1147.561
1142.742
1133.811
1104.73
1154.891
1152.39
1149.08
1143.798
1133.76
1113.346
1057.845
1156.647
1154.242
1151.299
1147.037
1139.691
1125.65
1099.075
1037.252
1158.315
1156.05
1153.488
1150.252
1145.395
1137.106
1122.346
1097.639
1046.299
1159.897
1157.78
1155.518
1152.977
1149.767
1145.061
1137.606
1125.934
1110.016
1083.458
1161.398
1159.44
1157.412
1155.301
1152.989
1150.194
1146.43
1141.274
1134.943
1130.737
1117.811
1162.826
1161.041
1159.215
1157.379
1155.527
1153.6
1151.483
1149.067
1146.622
1145.569
1143.047
1124.659
1164.186
1162.589
1160.956
1159.321
1157.71
1156.139
1154.613
1153.174
1151.996
1151.756
1150.897
1145.716
1131.99
1165.48
1164.085
1162.644
1161.18
1159.715
1158.271
1156.881
1155.608
1154.617
1154.328
1153.893
1151.594
1147.968
1138.94
1166.714
1165.523
1164.269
1162.961
1161.603
1160.202
1158.768
1157.331
1155.989
1155.116
1154.884
1153.441
1151.859
1149.63
1144.634
1154.403
1153.743
1152.988
1152.141
1151.005
1147.759
1156.004
1155.172
1154.403
1153.72
1153.131
1151.84
1149.021
1157.679
1156.791
1155.975
1155.264
1154.702
1153.699
1151.967
1149.778
1159.279
1158.387
1157.552
1156.807
1156.195
1155.222
1153.709
1152.075
1150.221
1160.791
1159.918
1159.086
1158.323
1157.667
1156.688
1155.248
1153.755
1152.171
1150.467
1155.051
1152.943
1150.466
1147.232
1142.306
1133.689
1105.878
1156.747
1154.569
1152.014
1148.607
1143.28
1133.782
1115.983
1066.312
1158.374
1156.232
1153.839
1150.913
1146.737
1139.936
1128.106
1107.936
1059.644
1159.924
1157.859
1155.658
1153.201
1150.15
1145.777
1138.977
1128.392
1113.698
1086.91
1161.398
1159.44
1157.412
1155.301
1152.989
1150.194
1146.43
1141.274
1134.943
1130.737
1117.811
1162.803
1160.975
1159.11
1157.241
1155.361
1153.397
1151.214
1148.676
1146.067
1144.967
1142.36
1123.092
1164.142
1162.468
1160.767
1159.083
1157.448
1155.877
1154.368
1152.944
1151.77
1151.599
1150.684
1144.775
1129.407
1165.42
1163.919
1162.388
1160.864
1159.383
1157.979
1156.694
1155.594
1154.836
1154.795
1154.327
1151.667
1147.191
1136.023
1166.638
1165.324
1163.969
1162.596
1161.227
1159.888
1158.618
1157.483
1156.624
1156.373
1156.01
1154.371
1152.359
1149.269
1142.155
1167.8
1166.677
1165.497
1164.267
1162.991
1161.677
1160.336
1158.997
1157.746
1156.913
1156.665
1155.397
1154.159
1152.804
1150.932
1145.941
1156.236
1155.584
1154.866
1154.134
1153.386
1151.77
1147.87
1157.733
1156.916
1156.148
1155.459
1154.881
1153.82
1151.925
1149.123
1159.299
1158.434
1157.623
1156.896
1156.291
1155.313
1153.774
1152.053
1149.877
1160.798
1159.935
1159.112
1158.357
1157.707
1156.73
1155.288
1153.784
1152.162
1150.319
1162.217
1161.375
1160.561
1159.798
1159.116
1158.136
1156.746
1155.314
1153.831
1152.258
1150.559
1156.88
1154.969
1152.842
1150.338
1147.094
1142.348
1134.59
1108.79
1158.462
1156.493
1154.327
1151.793
1148.453
1143.471
1135.326
1121.501
1081.165
1159.977
1158.015
1155.928
1153.626
1150.855
1147.065
1141.414
1132.797
1120.529
1094.048
1161.423
1159.511
1157.529
1155.467
1153.221
1150.548
1147.021
1142.273
1136.469
1132.434
1119.631
1162.803
1160.975
1159.11
1157.241
1155.361
1153.397
1151.214
1148.676
1146.067
1144.967
1142.36
1123.092
1164.121
1162.407
1160.67
1158.961
1157.312
1155.738
1154.23
1152.8
1151.607
1151.459
1150.521
1144.229
1128.087
1165.379
1163.805
1162.211
1160.644
1159.15
1157.768
1156.542
1155.532
1154.88
1154.951
1154.482
1151.549
1146.461
1133.924
1166.581
1165.168
1163.729
1162.3
1160.92
1159.628
1158.475
1157.537
1156.943
1156.949
1156.578
1154.81
1152.471
1148.674
1139.903
1167.728
1166.49
1165.215
1163.923
1162.638
1161.386
1160.204
1159.156
1158.368
1158.11
1157.752
1156.386
1154.929
1153.188
1150.616
1143.826
1168.822
1167.765
1166.653
1165.495
1164.295
1163.06
1161.801
1160.545
1159.37
1158.569
1158.29
1157.115
1156.015
1154.942
1153.795
1151.642
1146.081
1157.944
1157.294
1156.584
1155.877
1155.216
1154.03
1151.852
1147.981
1159.348
1158.549
1157.785
1157.083
1156.478
1155.481
1153.894
1152.01
1149.225
1160.817
1159.978
1159.178
1158.441
1157.801
1156.826
1155.378
1153.849
1152.139
1149.976
1162.224
1161.391
1160.586
1159.83
1159.154
1158.177
1156.787
1155.353
1153.859
1152.248
1150.412
1163.559
1162.749
1161.957
1161.2
1160.504
1159.531
1158.187
1156.803
1155.379
1153.906
1152.339
1150.631
1158.579
1156.818
1154.91
1152.795
1150.319
1147.196
1142.902
1136.476
1114.168
1160.057
1158.241
1156.31
1154.208
1151.781
1148.692
1144.429
1138.28
1129.497
1105.635
1161.472
1159.652
1157.758
1155.785
1153.657
1151.191
1148.07
1144.025
1139.169
1135.53
1123.272
1162.826
1161.041
1159.215
1157.379
1155.527
1153.6
1151.483
1149.067
1146.622
1145.569
1143.047
1124.659
1164.121
1162.407
1160.67
1158.961
1157.312
1155.738
1154.23
1152.8
1151.607
1151.459
1150.521
1144.229
1128.087
1165.359
1163.748
1162.121
1160.532
1159.03
1157.658
1156.458
1155.484
1154.871
1154.988
1154.522
1151.442
1146.033
1132.84
1166.543
1165.061
1163.563
1162.095
1160.705
1159.443
1158.362
1157.538
1157.08
1157.211
1156.857
1154.992
1152.417
1148.115
1138.255
1167.674
1166.343
1164.988
1163.645
1162.351
1161.145
1160.08
1159.228
1158.703
1158.691
1158.337
1156.929
1155.336
1153.305
1150.163
1141.893
1168.754
1167.589
1166.387
1165.171
1163.962
1162.785
1161.676
1160.694
1159.95
1159.677
1159.3
1158.067
1156.833
1155.545
1154.061
1151.343
1144.004
1169.785
1168.789
1167.742
1166.651
1165.521
1164.358
1163.174
1161.993
1160.885
1160.114
1159.806
1158.69
1157.657
1156.686
1155.756
1154.33
1151.719
1146.222
1159.541
1158.895
1158.187
1157.48
1156.825
1155.77
1154.098
1151.935
1148.094
1160.862
1160.085
1159.328
1158.616
1157.982
1157.003
1155.545
1153.968
1152.096
1149.328
1162.242
1161.432
1160.648
1159.908
1159.243
1158.271
1156.883
1155.443
1153.924
1152.226
1150.07
1163.565
1162.764
1161.98
1161.231
1160.54
1159.57
1158.228
1156.845
1155.419
1153.934
1152.329
1150.484
1164.822
1164.046
1163.278
1162.534
1161.834
1160.875
1159.576
1158.237
1156.86
1155.444
1153.976
1152.401
1150.687
1160.163
1158.526
1156.777
1154.894
1152.821
1150.436
1147.561
1143.951
1139.286
1124.029
1161.546
1159.856
1158.087
1156.233
1154.247
1152.022
1149.365
1146.129
1142.414
1139.416
1128.69
1162.872
1161.17
1159.42
1157.646
1155.845
1153.975
1151.96
1149.734
1147.55
1146.568
1144.247
1127.758
1164.142
1162.468
1160.767
1159.083
1157.448
1155.877
1154.368
1152.944
1151.77
1151.599
1150.684
1144.775
1129.407
1165.359
1163.748
1162.121
1160.532
1159.03
1157.658
1156.458
1155.484
1154.871
1154.988
1154.522
1151.442
1146.033
1132.84
1166.524
1165.007
1163.478
1161.99
1160.595
1159.346
1158.299
1157.526
1157.127
1157.313
1156.97
1155.052
1152.352
1147.788
1137.394
1167.638
1166.243
1164.832
1163.453
1162.15
1160.974
1159.982
1159.247
1158.864
1158.977
1158.646
1157.209
1155.524
1153.292
1149.747
1140.466
1168.704
1167.45
1166.173
1164.909
1163.691
1162.558
1161.56
1160.764
1160.27
1160.226
1159.859
1158.618
1157.322
1155.897
1154.164
1150.951
1142.105
1169.721
1168.623
1167.491
1166.345
1165.206
1164.098
1163.053
1162.127
1161.418
1161.129
1160.733
1159.574
1158.446
1157.332
1156.201
1154.537
1151.421
1144.182
1170.692
1169.754
1168.768
1167.739
1166.675
1165.58
1164.465
1163.352
1162.306
1161.564
1161.234
1160.165
1159.172
1158.244
1157.382
1156.195
1154.388
1151.796
1146.363
1161.039
1160.402
1159.698
1158.986
1158.317
1157.308
1155.829
1154.167
1152.017
1148.208
1162.284
1161.531
1160.787
1160.072
1159.415
1158.445
1157.059
1155.609
1154.041
1152.181
1149.425
1163.582
1162.803
1162.038
1161.304
1160.624
1159.66
1158.321
1156.94
1155.509
1153.999
1152.307
1150.142
1164.828
1164.06
1163.3
1162.563
1161.868
1160.912
1159.615
1158.278
1156.902
1155.484
1154.005
1152.392
1150.541
1166.012
1165.27
1164.53
1163.804
1163.107
1162.167
1160.914
1159.62
1158.287
1156.917
1155.506
1154.029
1152.449
1150.729
1161.645
1160.115
1158.492
1156.772
1154.934
1152.935
1150.706
1148.201
1145.497
1143.128
1135.527
1162.941
1161.36
1159.717
1158.026
1156.287
1154.474
1152.548
1150.489
1148.525
1147.547
1145.589
1132.253
1164.186
1162.589
1160.956
1159.321
1157.71
1156.139
1154.613
1153.174
1151.996
1151.756
1150.897
1145.716
1131.99
1165.379
1163.805
1162.211
1160.644
1159.15
1157.768
1156.542
1155.532
1154.88
1154.951
1154.482
1151.549
1146.461
1133.924
1166.524
1165.007
1163.478
1161.99
1160.595
1159.346
1158.299
1157.526
1157.127
1157.313
1156.97
1155.052
1152.352
1147.788
1137.394
1167.62
1166.192
1164.752
1163.354
1162.047
1160.885
1159.929
1159.247
1158.928
1159.095
1158.781
1157.327
1155.594
1153.257
1149.504
1139.716
1168.67
1167.355
1166.026
1164.727
1163.502
1162.398
1161.47
1160.786
1160.429
1160.505
1160.163
1158.92
1157.588
1156.076
1154.174
1150.601
1140.701
1169.673
1168.492
1167.29
1166.098
1164.951
1163.884
1162.943
1162.19
1161.714
1161.638
1161.253
1160.099
1158.939
1157.751
1156.488
1154.626
1151.036
1142.316
1170.631
1169.598
1168.531
1167.451
1166.378
1165.333
1164.348
1163.471
1162.794
1162.495
1162.084
1160.978
1159.907
1158.871
1157.868
1156.56
1154.588
1151.499
1144.36
1171.545
1170.663
1169.734
1168.765
1167.762
1166.73
1165.679
1164.63
1163.642
1162.93
1162.587
1161.56
1160.597
1159.693
1158.852
1157.756
1156.242
1154.445
1151.873
1146.504
1162.447
1161.823
1161.127
1160.414
1159.73
1158.742
1157.359
1155.888
1154.236
1152.099
1148.315
1163.621
1162.895
1162.168
1161.457
1160.786
1159.825
1158.494
1157.115
1155.673
1154.115
1152.261
1149.5
1164.844
1164.096
1163.355
1162.632
1161.948
1160.996
1159.704
1158.371
1156.997
1155.574
1154.069
1152.368
1150.2
1166.018
1165.284
1164.551
1163.831
1163.14
1162.202
1160.951
1159.659
1158.328
1156.959
1155.545
1154.058
1152.44
1150.583
1167.135
1166.428
1165.717
1165.011
1164.325
1163.407
1162.202
1160.954
1159.665
1158.337
1156.97
1155.551
1154.07
1152.484
1150.755
1141.168
1163.033
1161.6
1160.085
1158.491
1156.814
1155.041
1153.153
1151.152
1149.17
1147.799
1146.394
1137.624
1164.25
1162.766
1161.23
1159.663
1158.081
1156.495
1154.915
1153.391
1152.101
1151.663
1150.916
1146.735
1135.652
1165.42
1163.919
1162.388
1160.864
1159.383
1157.979
1156.694
1155.594
1154.836
1154.795
1154.327
1151.667
1147.191
1136.023
1166.543
1165.061
1163.563
1162.095
1160.705
1159.443
1158.362
1157.538
1157.08
1157.211
1156.857
1154.992
1152.417
1148.115
1138.255
1167.62
1166.192
1164.752
1163.354
1162.047
1160.885
1159.929
1159.247
1158.928
1159.095
1158.781
1157.327
1155.594
1153.257
1149.504
1139.716
1168.653
1167.307
1165.951
1164.634
1163.405
1162.315
1161.421
1160.789
1160.494
1160.623
1160.298
1159.053
1157.703
1156.149
1154.16
1150.397
1139.963
1169.641
1168.403
1167.151
1165.927
1164.772
1163.732
1162.857
1162.21
1161.863
1161.899
1161.54
1160.393
1159.22
1157.991
1156.647
1154.643
1150.692
1140.935
1170.586
1169.474
1168.341
1167.218
1166.137
1165.13
1164.241
1163.527
1163.065
1162.964
1162.564
1161.466
1160.375
1159.293
1158.208
1156.811
1154.676
1151.12
1142.526
1171.488
1170.516
1169.511
1168.494
1167.482
1166.497
1165.567
1164.738
1164.091
1163.786
1163.367
1162.305
1161.275
1160.281
1159.33
1158.163
1156.599
1154.639
1151.578
1144.537
1172.347
1171.518
1170.644
1169.732
1168.787
1167.814
1166.823
1165.834
1164.9
1164.22
1163.869
1162.883
1161.95
1161.064
1160.232
1159.178
1157.796
1156.289
1154.503
1151.95
1146.637
1163.772
1163.165
1162.482
1161.774
1161.08
1160.107
1158.787
1157.41
1155.947
1154.304
1152.177
1148.4
1164.881
1164.182
1163.476
1162.775
1162.1
1161.152
1159.869
1158.543
1157.171
1155.736
1154.183
1152.322
1149.561
1166.033
1165.318
1164.603
1163.896
1163.214
1162.281
1161.036
1159.749
1158.421
1157.054
1155.634
1154.121
1152.417
1150.243
1167.141
1166.441
1165.737
1165.037
1164.355
1163.44
1162.237
1160.991
1159.704
1158.378
1157.012
1155.59
1154.098
1152.475
1150.609
1168.194
1167.522
1166.841
1166.16
1165.488
1164.597
1163.439
1162.238
1160.993
1159.709
1158.384
1157.009
1155.585
1154.098
1152.505
1141.961
1145.067
1141.994
1164.336
1162.99
1161.571
1160.084
1158.531
1156.912
1155.227
1153.501
1151.85
1150.788
1150.287
1147.297
1139.863
1165.48
1164.085
1162.644
1161.18
1159.715
1158.271
1156.881
1155.608
1154.617
1154.328
1153.893
1151.594
1147.968
1138.94
1166.581
1165.168
1163.729
1162.3
1160.92
1159.628
1158.475
1157.537
1156.943
1156.949
1156.578
1154.81
1152.471
1148.674
1139.903
1167.638
1166.243
1164.832
1163.453
1162.15
1160.974
1159.982
1159.247
1158.864
1158.977
1158.646
1157.209
1155.524
1153.292
1149.747
1140.466
1168.653
1167.307
1165.951
1164.634
1163.405
1162.315
1161.421
1160.789
1160.494
1160.623
1160.298
1159.053
1157.703
1156.149
1154.16
1150.397
1139.963
1169.625
1168.358
1167.08
1165.839
1164.681
1163.653
1162.81
1162.212
1161.925
1162.012
1161.669
1160.525
1159.347
1158.099
1156.716
1154.637
1150.492
1140.209
1170.556
1169.39
1168.21
1167.057
1165.968
1164.986
1164.159
1163.543
1163.203
1163.206
1162.832
1161.743
1160.649
1159.545
1158.416
1156.957
1154.693
1150.783
1141.168
1171.446
1170.399
1169.332
1168.274
1167.254
1166.305
1165.465
1164.786
1164.34
1164.219
1163.811
1162.757
1161.712
1160.684
1159.675
1158.462
1156.846
1154.725
1151.205
1142.735
1172.294
1171.38
1170.434
1169.476
1168.523
1167.594
1166.717
1165.932
1165.315
1165.011
1164.59
1163.57
1162.574
1161.609
1160.684
1159.583
1158.194
1156.638
1154.691
1151.656
1144.703
1173.1
1172.322
1171.501
1170.642
1169.752
1168.836
1167.902
1166.969
1166.087
1165.438
1165.087
1164.141
1163.239
1162.372
1161.547
1160.52
1159.213
1157.836
1156.336
1154.561
1152.023
1146.744
1165.022
1164.434
1163.768
1163.07
1162.374
1161.417
1160.147
1158.832
1157.462
1156.006
1154.368
1152.235
1148.469
1166.068
1165.399
1164.717
1164.03
1163.358
1162.429
1161.191
1159.913
1158.592
1157.226
1155.796
1154.234
1152.369
1149.606
1167.155
1166.473
1165.786
1165.099
1164.426
1163.516
1162.317
1161.075
1159.793
1158.471
1157.107
1155.679
1154.161
1152.45
1150.269
1168.2
1167.534
1166.86
1166.184
1165.517
1164.629
1163.473
1162.273
1161.031
1159.748
1158.425
1157.051
1155.624
1154.126
1152.495
1169.194
1168.556
1167.907
1167.251
1166.598
1165.737
1164.627
1163.472
1162.273
1161.033
1159.75
1158.417
1157.037
1155.607
1154.113
1142.243
1144.975
1143.29
1147.861
1146.635
1143.301
1165.561
1164.295
1162.963
1161.57
1160.121
1158.62
1157.076
1155.518
1154.055
1153.118
1152.846
1150.997
1148.403
1142.21
1166.638
1165.324
1163.969
1162.596
1161.227
1159.888
1158.618
1157.483
1156.624
1156.373
1156.01
1154.371
1152.359
1149.269
1142.155
1167.674
1166.343
1164.988
1163.645
1162.351
1161.145
1160.08
1159.228
1158.703
1158.691
1158.337
1156.929
1155.336
1153.305
1150.163
1141.893
1168.67
1167.355
1166.026
1164.727
1163.502
1162.398
1161.47
1160.786
1160.429
1160.505
1160.163
1158.92
1157.588
1156.076
1154.174
1150.601
1140.701
1169.625
1168.358
1167.08
1165.839
1164.681
1163.653
1162.81
1162.212
1161.925
1162.012
1161.669
1160.525
1159.347
1158.099
1156.716
1154.637
1150.492
1140.209
1170.541
1169.347
1168.144
1166.974
1165.882
1164.912
1164.115
1163.545
1163.26
1163.311
1162.952
1161.869
1160.774
1159.662
1158.513
1157.023
1154.688
1150.587
1140.454
1171.417
1170.32
1169.209
1168.122
1167.095
1166.169
1165.387
1164.8
1164.466
1164.443
1164.06
1163.015
1161.969
1160.928
1159.892
1158.65
1156.99
1154.744
1150.874
1141.4
1172.254
1171.27
1170.266
1169.27
1168.309
1167.413
1166.62
1165.976
1165.545
1165.412
1165.002
1163.987
1162.98
1161.987
1161.017
1159.888
1158.489
1156.88
1154.775
1151.289
1142.93
1173.05
1172.192
1171.304
1170.402
1169.504
1168.629
1167.801
1167.06
1166.473
1166.174
1165.756
1164.776
1163.815
1162.877
1161.971
1160.907
1159.61
1158.226
1156.677
1154.743
1151.73
1144.84
1173.806
1173.078
1172.307
1171.5
1170.662
1169.799
1168.919
1168.039
1167.207
1166.59
1166.244
1165.338
1164.468
1163.623
1162.808
1161.806
1160.551
1159.248
1157.876
1156.383
1154.615
1152.076
1146.835
1166.2
1165.634
1164.989
1164.305
1163.615
1162.678
1161.453
1160.187
1158.877
1157.512
1156.06
1154.415
1152.279
1148.523
1167.188
1166.55
1165.893
1165.226
1164.562
1163.655
1162.464
1161.23
1159.956
1158.641
1157.278
1155.839
1154.273
1152.401
1149.635
1168.213
1167.566
1166.907
1166.243
1165.585
1164.701
1163.548
1162.353
1161.115
1159.837
1158.518
1157.145
1155.712
1154.188
1152.47
1169.199
1168.568
1167.925
1167.275
1166.626
1165.767
1164.658
1163.505
1162.308
1161.07
1159.79
1158.458
1157.079
1155.646
1154.14
1170.136
1169.534
1168.917
1168.289
1167.658
1166.828
1165.764
1164.656
1163.504
1162.308
1161.07
1159.779
1158.441
1157.054
1155.616
1142.387
1144.981
1143.785
1147.61
1146.514
1144.738
1150.263
1149.446
1148.116
1144.917
1166.714
1165.523
1164.269
1162.961
1161.603
1160.202
1158.768
1157.331
1155.989
1155.116
1154.884
1153.441
1151.859
1149.63
1144.634
1167.728
1166.49
1165.215
1163.923
1162.638
1161.386
1160.204
1159.156
1158.368
1158.11
1157.752
1156.386
1154.929
1153.188
1150.616
1143.826
1168.704
1167.45
1166.173
1164.909
1163.691
1162.558
1161.56
1160.764
1160.27
1160.226
1159.859
1158.618
1157.322
1155.897
1154.164
1150.951
1142.105
1169.641
1168.403
1167.151
1165.927
1164.772
1163.732
1162.857
1162.21
1161.863
1161.899
1161.54
1160.393
1159.22
1157.991
1156.647
1154.643
1150.692
1140.935
1170.541
1169.347
1168.144
1166.974
1165.882
1164.912
1164.115
1163.545
1163.26
1163.311
1162.952
1161.869
1160.774
1159.662
1158.513
1157.023
1154.688
1150.587
1140.454
1171.403
1170.28
1169.146
1168.044
1167.014
1166.098
1165.344
1164.8
1164.518
1164.54
1164.172
1163.133
1162.089
1161.043
1159.996
1158.739
1157.055
1154.74
1150.682
1140.697
1172.227
1171.196
1170.15
1169.126
1168.159
1167.285
1166.545
1165.987
1165.662
1165.621
1165.233
1164.228
1163.22
1162.218
1161.228
1160.085
1158.675
1157.024
1154.794
1150.965
1141.616
1173.012
1172.09
1171.146
1170.208
1169.303
1168.459
1167.71
1167.1
1166.688
1166.548
1166.14
1165.164
1164.192
1163.229
1162.285
1161.203
1159.911
1158.516
1156.916
1154.825
1151.369
1143.094
1173.759
1172.955
1172.122
1171.274
1170.43
1169.605
1168.825
1168.125
1167.569
1167.278
1166.868
1165.929
1165.002
1164.092
1163.205
1162.171
1160.932
1159.638
1158.259
1156.717
1154.791
1151.785
1144.959
1174.467
1173.786
1173.063
1172.306
1171.519
1170.707
1169.878
1169.049
1168.264
1167.679
1167.343
1166.477
1165.639
1164.82
1164.02
1163.042
1161.833
1160.582
1159.283
1157.917
1156.428
1154.653
1152.115
1146.909
1167.312
1166.771
1166.149
1165.484
1164.804
1163.891
1162.71
1161.489
1160.227
1158.922
1157.56
1156.099
1154.449
1152.308
1148.559
1168.244
1167.638
1167.009
1166.363
1165.713
1164.833
1163.687
1162.499
1161.269
1159.999
1158.687
1157.315
1155.871
1154.298
1152.419
1169.211
1168.598
1167.97
1167.331
1166.691
1165.836
1164.73
1163.581
1162.388
1161.154
1159.879
1158.551
1157.172
1155.733
1154.202
1170.141
1169.546
1168.934
1168.311
1167.684
1166.857
1165.794
1164.687
1163.537
1162.344
1161.107
1159.819
1158.481
1157.095
1155.655
1171.025
1170.458
1169.873
1169.274
1168.667
1167.87
1166.852
1165.791
1164.685
1163.536
1162.342
1161.095
1159.799
1158.453
1157.059
1142.453
1144.994
1144.015
1147.56
1146.509
1145.365
1149.983
1149.053
1148.035
1146.31
1152.423
1151.728
1150.844
1149.563
1146.733
1167.8
1166.677
1165.497
1164.267
1162.991
1161.677
1160.336
1158.997
1157.746
1156.913
1156.665
1155.397
1154.159
1152.804
1150.932
1145.941
1168.754
1167.589
1166.387
1165.171
1163.962
1162.785
1161.676
1160.694
1159.95
1159.677
1159.3
1158.067
1156.833
1155.545
1154.061
1151.343
1144.004
1169.673
1168.492
1167.29
1166.098
1164.951
1163.884
1162.943
1162.19
1161.714
1161.638
1161.253
1160.099
1158.939
1157.751
1156.488
1154.626
1151.036
1142.316
1170.556
1169.39
1168.21
1167.057
1165.968
1164.986
1164.159
1163.543
1163.203
1163.206
1162.832
1161.743
1160.649
1159.545
1158.416
1156.957
1154.693
1150.783
1141.168
1171.403
1170.28
1169.146
1168.044
1167.014
1166.098
1165.344
1164.8
1164.518
1164.54
1164.172
1163.133
1162.089
1161.043
1159.996
1158.739
1157.055
1154.74
1150.682
1140.697
1172.214
1171.158
1170.091
1169.053
1168.082
1167.218
1166.505
1165.987
1165.71
1165.711
1165.338
1164.338
1163.332
1162.328
1161.33
1160.181
1158.764
1157.088
1154.791
1150.777
1140.923
1172.987
1172.019
1171.037
1170.073
1169.162
1168.338
1167.639
1167.11
1166.796
1166.742
1166.356
1165.389
1164.416
1163.446
1162.486
1161.396
1160.106
1158.7
1157.057
1154.845
1151.05
1141.798
1173.724
1172.859
1171.973
1171.092
1170.24
1169.446
1168.74
1168.163
1167.771
1167.628
1167.228
1166.291
1165.353
1164.421
1163.5
1162.452
1161.223
1159.934
1158.544
1156.951
1154.872
1151.428
1143.239
1174.422
1173.671
1172.89
1172.095
1171.301
1170.526
1169.792
1169.132
1168.606
1168.326
1167.928
1167.029
1166.138
1165.257
1164.391
1163.386
1162.193
1160.956
1159.665
1158.291
1156.754
1154.824
1151.824
1145.061
1175.083
1174.448
1173.773
1173.063
1172.324
1171.561
1170.782
1170.001
1169.261
1168.709
1168.386
1167.56
1166.756
1165.964
1165.183
1164.233
1163.067
1161.861
1160.614
1159.319
1157.954
1156.457
1154.678
1152.14
1146.966
1168.362
1167.847
1167.25
1166.606
1165.942
1165.055
1163.92
1162.743
1161.525
1160.267
1158.963
1157.593
1156.126
1154.469
1152.322
1169.241
1168.668
1168.067
1167.445
1166.813
1165.962
1164.862
1163.719
1162.534
1161.308
1160.04
1158.718
1157.341
1155.89
1154.309
1170.153
1169.574
1168.977
1168.365
1167.746
1166.922
1165.863
1164.759
1163.613
1162.424
1161.191
1159.907
1158.574
1157.188
1155.742
1171.03
1170.469
1169.89
1169.296
1168.693
1167.898
1166.881
1165.821
1164.717
1163.569
1162.377
1161.132
1159.838
1158.494
1157.1
1171.862
1171.33
1170.778
1170.209
1169.628
1168.865
1167.893
1166.877
1165.817
1164.714
1163.565
1162.364
1161.111
1159.808
1158.455
1145.003
1144.111
1147.544
1146.52
1145.659
1149.918
1148.939
1148.033
1146.992
1152.15
1151.278
1150.45
1149.542
1147.989
1154.403
1153.743
1152.988
1152.141
1151.005
1147.759
1168.822
1167.765
1166.653
1165.495
1164.295
1163.06
1161.801
1160.545
1159.37
1158.569
1158.29
1157.115
1156.015
1154.942
1153.795
1151.642
1146.081
1169.721
1168.623
1167.491
1166.345
1165.206
1164.098
1163.053
1162.127
1161.418
1161.129
1160.733
1159.574
1158.446
1157.332
1156.201
1154.537
1151.421
1144.182
1170.586
1169.474
1168.341
1167.218
1166.137
1165.13
1164.241
1163.527
1163.065
1162.964
1162.564
1161.466
1160.375
1159.293
1158.208
1156.811
1154.676
1151.12
1142.526
1171.417
1170.32
1169.209
1168.122
1167.095
1166.169
1165.387
1164.8
1164.466
1164.443
1164.06
1163.015
1161.969
1160.928
1159.892
1158.65
1156.99
1154.744
1150.874
1141.4
1172.214
1171.158
1170.091
1169.053
1168.082
1167.218
1166.505
1165.987
1165.71
1165.711
1165.338
1164.338
1163.332
1162.328
1161.33
1160.181
1158.764
1157.088
1154.791
1150.777
1140.923
1172.975
1171.984
1170.981
1170.004
1169.09
1168.275
1167.601
1167.11
1166.841
1166.827
1166.455
1165.492
1164.521
1163.549
1162.584
1161.491
1160.201
1158.789
1157.122
1154.842
1150.866
1141.116
1173.7
1172.794
1171.871
1170.965
1170.108
1169.332
1168.674
1168.173
1167.873
1167.811
1167.431
1166.501
1165.564
1164.624
1163.69
1162.637
1161.414
1160.127
1158.726
1157.091
1154.892
1151.114
1141.962
1174.39
1173.581
1172.751
1171.924
1171.124
1170.377
1169.712
1169.169
1168.797
1168.657
1168.267
1167.369
1166.467