/*--------------------------------*- C++ -*----------------------------------*\
| =========                 |                                                 |
| \\      /  F ield         | OpenFOAM: The Open Source CFD Toolbox           |
|  \\    /   O peration     | Version:  2306                                  |
|   \\  /    A nd           | Website:  www.openfoam.com                      |
|    \\/     M anipulation  |                                                 |
\*---------------------------------------------------------------------------*/
FoamFile
{
    version     2.0;
    format      ascii;
    arch        "LSB;label=32;scalar=64";
    class       volVectorField;
    location    "0.9/air";
    object      U;
}
// * * * * * * * * * * * * * * * * * * * * * * * * * * * * * * * * * * * * * //

dimensions      [0 1 -1 0 0 0 0];

internalField   nonuniform List<vector> 
16000
(
(0.4271734 0.06105566 -0.06119191)
(0.7502075 0.1149971 -0.09437961)
(0.451142 0.005080312 -0.004902292)
(0.7503861 0.09395089 -0.1164934)
(0.8909706 0.09853128 -0.09465733)
(0.8824981 0.01262007 -0.009155184)
(1.478351 0.1928656 -0.1967565)
(0.3268862 -0.001724711 0.001747874)
(0.882759 0.009337771 -0.01205858)
(0.8915009 0.09398829 -0.1025113)
(0.9531375 0.06186025 -0.09231877)
(1.114009 0.01293923 -0.009481456)
(1.845799 0.1801756 -0.2158533)
(0.6755149 -0.002367993 0.002949101)
(1.936644 0.02486743 -0.02448802)
(1.846672 0.2101221 -0.1897582)
(0.3805715 0.001059099 -0.001055676)
(0.6757782 -0.002923737 0.002444098)
(1.115256 0.009615987 -0.01224408)
(0.9541279 0.09143292 -0.06916556)
(0.9747819 0.02105948 -0.09105009)
(1.24117 0.008646946 -0.009106461)
(2.017964 0.1191863 -0.2170141)
(0.8824889 -0.002189971 0.003200617)
(2.555335 0.02983392 -0.03091788)
(2.323134 0.2094954 -0.223483)
(0.7751515 0.001753891 -0.00188953)
(1.552507 -0.004227598 0.004283503)
(2.557774 0.03066179 -0.02997297)
(2.020236 0.209716 -0.1361169)
(0.3509061 -0.0005397767 0.0005488083)
(0.7753929 0.00186037 -0.001855294)
(0.883773 -0.003192812 0.002266715)
(1.244675 0.009148137 -0.008140576)
(0.9764095 0.08983944 -0.03236191)
(0.9747819 -0.02105948 -0.09105009)
(1.299373 0.002893303 -0.008777663)
(2.0733 0.04154112 -0.2166324)
(1.001352 -0.001469309 0.00333654)
(2.905464 0.02257107 -0.03247869)
(2.555423 0.1430916 -0.2296179)
(1.004517 0.001701872 -0.002056554)
(2.117329 -0.004038559 0.005214486)
(3.483383 0.03469492 -0.0360462)
(2.55774 0.2123419 -0.1671464)
(0.7213073 -0.0009499863 0.0009378024)
(1.760063 0.002982534 -0.003336671)
(2.11982 -0.005302645 0.004017335)
(2.914172 0.03143087 -0.02382349)
(2.076614 0.2078294 -0.06696009)
(0.3675912 0.0003472456 -0.0003380148)
(0.7215383 -0.0009581195 0.0008796323)
(1.005737 0.001996396 -0.002047111)
(1.004871 -0.003368033 0.00142216)
(1.307106 0.008687549 -0.002961943)
(0.978486 0.08930964 0.005104279)
(0.0004547006 -0.001184738 -0.0005666286)
(0.9531375 -0.06186025 -0.09231877)
(1.299373 -0.002893303 -0.008777663)
(2.0733 -0.04154112 -0.2166324)
(1.056948 -0.0005259989 0.003436149)
(3.07453 0.008044968 -0.03073378)
(2.644457 0.05028799 -0.2288982)
(1.136085 0.001097517 -0.002052093)
(2.455858 -0.002668912 0.005825455)
(4.014428 0.02761239 -0.0393962)
(2.823205 0.1472361 -0.1759254)
(0.9401093 -0.0009434964 0.001003685)
(2.382169 0.002965017 -0.003701001)
(2.951969 -0.0053984 0.005102919)
(4.02269 0.03660684 -0.03073132)
(2.651294 0.208806 -0.08492235)
(0.7520878 0.000564183 -0.0006265317)
(1.652109 -0.001797418 0.001497092)
(2.384608 0.003123232 -0.003890652)
(2.464412 -0.006177661 0.002368826)
(3.096256 0.02854834 -0.01069435)
(2.081227 0.2061108 0.00749551)
(0.3582725 -0.0001467994 0.0001572184)
(0.752323 0.0006029544 -0.000644362)
(0.9412786 -0.001054224 0.0006640293)
(1.139495 0.001959278 -0.001813333)
(1.064368 -0.003548003 0.0001220676)
(1.313381 0.008466456 0.001669093)
(0.9628802 0.08977561 0.04041525)
(0.0004692665 -0.003428908 -0.0005859725)
(0.000485167 -0.001045579 -0.0005190336)
(0.0004582254 -0.001187286 -0.001101361)
(0.8909706 -0.09853128 -0.09465733)
(1.24117 -0.008646946 -0.009106461)
(2.017964 -0.1191863 -0.2170141)
(1.056948 0.0005259988 0.003436149)
(3.07453 -0.008044968 -0.03073378)
(2.644457 -0.05028799 -0.2288982)
(1.196743 0.0003683736 -0.002033871)
(2.615002 -0.0009628553 0.006206556)
(4.257801 0.01039897 -0.03983129)
(2.927807 0.05221224 -0.1770367)
(1.067159 -0.0006297472 0.001009121)
(2.750977 0.001957031 -0.003633385)
(3.462227 -0.003459918 0.005837015)
(4.667262 0.02939928 -0.03446715)
(2.933558 0.1451973 -0.0919931)
(0.977444 0.000546152 -0.0007047226)
(2.248363 -0.001905688 0.00168713)
(3.295339 0.003072459 -0.004427328)
(3.47053 -0.006555466 0.002798086)
(4.282465 0.03550578 -0.01550724)
(2.661446 0.2061201 0.00570621)
(0.7350487 -0.0002616878 0.0002453443)
(1.714991 0.0009160239 -0.001251587)
(2.250707 -0.002203907 0.001088597)
(2.759442 0.002834838 -0.003657197)
(2.634518 -0.006998865 3.158965e-05)
(3.115945 0.02710845 0.003437365)
(2.045781 0.2036992 0.07730286)
(0.3632571 0.0001268912 -0.0001173519)
(0.7352817 -0.00026382 0.0001987574)
(0.9786297 0.0006481282 -0.000857524)
(1.070429 -0.001091102 2.478996e-05)
(1.204029 0.00188596 -0.001609394)
(1.070303 -0.003700409 -0.001691914)
(1.263201 0.008432929 0.005736877)
(0.9109724 0.09164432 0.07132473)
(0.000495262 -0.006187695 -0.0006297437)
(0.0005058394 -0.003027505 -0.0005345971)
(0.0004728176 -0.003442093 -0.001147549)
(0.0003350453 -0.0009848005 -0.0004797508)
(0.0004872912 -0.001048451 -0.001008497)
(0.0004557653 -0.001180373 -0.003009258)
(0.7502075 -0.1149971 -0.09437961)
(1.114009 -0.01293923 -0.009481456)
(1.845799 -0.1801756 -0.2158533)
(1.001352 0.001469309 0.00333654)
(2.905464 -0.02257107 -0.03247869)
(2.555423 -0.1430916 -0.2296179)
(1.196743 -0.0003683736 -0.002033871)
(2.615002 0.0009628553 0.006206556)
(4.257801 -0.01039897 -0.03983129)
(2.927807 -0.05221224 -0.1770367)
(1.126158 -0.0002185552 0.001011903)
(2.923166 0.0006661179 -0.003521328)
(3.704082 -0.001177135 0.006214879)
(4.961697 0.01110632 -0.03546106)
(3.04459 0.05162507 -0.09393812)
(1.107586 0.0003499571 -0.0007208677)
(2.60576 -0.001341143 0.001770331)
(3.848086 0.002015721 -0.004379232)
(4.096051 -0.004257434 0.003165838)
(4.980259 0.02873287 -0.01830453)
(2.945527 0.143029 0.003184545)
(0.9569341 -0.0002540648 0.0002428692)
(2.327582 0.0009046352 -0.001495036)
(3.127015 -0.002443226 0.001202682)
(3.856405 0.002667609 -0.004304042)
(3.728519 -0.007551451 -7.832839e-05)
(4.309022 0.03413284 0.003516137)
(2.594391 0.2047031 0.09122633)
(0.7441874 0.000205098 -0.0002371061)
(1.680532 -0.0005325007 0.000243148)
(2.329953 0.0009224533 -0.001812927)
(2.613902 -0.002495431 -0.0001792358)
(2.942588 0.002413254 -0.003351254)
(2.651319 -0.007700704 -0.003077325)
(2.967973 0.02824914 0.01570152)
(1.902262 0.2011155 0.133213)
(0.3602437 -2.851599e-05 3.790629e-05)
(0.7444215 0.0002178098 -0.0002705797)
(0.9581073 -0.0002917738 -1.077347e-05)
(1.110898 0.0006318724 -0.001014634)
(1.133155 -0.001144728 -0.0008468834)
(1.210128 0.001772076 -0.001660898)
(1.023257 -0.003857443 -0.003884928)
(1.149556 0.008418968 0.008235784)
(0.7895898 0.09269887 0.07978888)
(0.0005432069 -0.00811337 -0.0009696536)
(0.000543 -0.005439429 -0.0005702885)
(0.0004988247 -0.006102404 -0.001239572)
(0.000348591 -0.002851473 -0.000493746)
(0.0005079772 -0.003041124 -0.001046181)
(0.0004701798 -0.003410919 -0.003077414)
(0.0004881042 -0.0009142271 -0.0004485133)
(0.0003361347 -0.0009879023 -0.0009323399)
(0.0004837042 -0.001043155 -0.002757571)
(0.0004480641 -0.001154429 -0.001029178)
(0.4271734 -0.06105566 -0.06119191)
(0.8824981 -0.01262007 -0.009155184)
(1.478351 -0.1928656 -0.1967565)
(0.8824889 0.002189971 0.003200617)
(2.555335 -0.02983392 -0.03091788)
(2.323134 -0.2094954 -0.223483)
(1.136085 -0.001097517 -0.002052093)
(2.455858 0.002668912 0.005825455)
(4.014428 -0.02761239 -0.0393962)
(2.823205 -0.1472361 -0.1759254)
(1.126158 0.0002185552 0.001011903)
(2.923166 -0.0006661179 -0.003521328)
(3.704082 0.001177135 0.006214879)
(4.961697 -0.01110632 -0.03546106)
(3.04459 -0.05162507 -0.09393812)
(1.167844 0.000117946 -0.0007250257)
(2.773734 -0.000476633 0.001812346)
(4.109009 0.0006857786 -0.004241681)
(4.394375 -0.001435791 0.003402917)
(5.300018 0.01088815 -0.01942265)
(3.057051 0.05081286 0.001520251)
(1.08552 -0.0001679326 0.0002322223)
(2.692977 0.0005889215 -0.001567939)
(3.664441 -0.001778801 0.001273167)
(4.532255 0.001682174 -0.004338666)
(4.413271 -0.00504944 -1.638872e-05)
(5.012493 0.02768881 0.002357905)
(2.863768 0.1413811 0.09295939)
(0.9679652 0.0002038114 -0.0002819314)
(2.284544 -0.0005609394 0.0001898777)
(3.228463 0.0008864446 -0.002265552)
(3.672457 -0.002858137 -0.0003320809)
(4.133549 0.002103336 -0.004022075)
(3.753823 -0.008434906 -0.003337904)
(4.104642 0.03314026 0.01949121)
(2.399027 0.1994708 0.1562878)
(0.73864 -5.592471e-05 3.766701e-05)
(1.699065 0.0003037644 -0.0005944814)
(2.286889 -0.0006974555 -0.0002376143)
(2.701208 0.0007776253 -0.00226681)
(2.792456 -0.002816398 -0.001920386)
(2.959908 0.001903599 -0.003290374)
(2.516231 -0.008371837 -0.006440062)
(2.655266 0.02590007 0.02173204)
(1.580537 0.1852918 0.142167)
(0.3616247 5.691668e-05 -4.812959e-05)
(0.738873 -5.506518e-05 -3.248234e-06)
(0.969141 0.0002327592 -0.0004711316)
(1.088795 -0.0003118663 -0.0004129973)
(1.17492 0.0005866006 -0.001266858)
(1.138986 -0.001250356 -0.001975209)
(1.158563 0.001555232 -0.002118827)
(0.916581 -0.00405913 -0.006343697)
(0.9414578 0.00828663 0.004528726)
(0.5100254 0.06460124 0.003188376)
(0.0005944126 -0.0161799 -0.001287516)
(0.0006112851 -0.007132556 -0.0008569658)
(0.0005453823 -0.007939532 -0.001866738)
(0.0003730153 -0.005116883 -0.0005260518)
(0.0005451129 -0.005370522 -0.001121527)
(0.0004958343 -0.005966137 -0.003209471)
(0.0005008375 -0.002646802 -0.000461209)
(0.0003497156 -0.002865358 -0.0009665322)
(0.0005041367 -0.003015562 -0.002810697)
(0.0004620608 -0.003358568 -0.001066815)
(0.0004622015 -0.0008649071 -0.0004226447)
(0.0004915442 -0.0009173016 -0.0008715803)
(0.0003333152 -0.0009832071 -0.002549362)
(0.0004683753 -0.001022237 -0.0009423652)
(0.0004469532 -0.001155448 -0.01028292)
(0.451142 -0.005080311 -0.004902292)
(0.7503861 -0.09395089 -0.1164934)
(0.6755149 0.002367993 0.002949101)
(1.936644 -0.02486743 -0.02448802)
(1.846672 -0.2101221 -0.1897582)
(1.004517 -0.001701872 -0.002056554)
(2.117329 0.004038559 0.005214486)
(3.483383 -0.03469492 -0.0360462)
(2.55774 -0.2123419 -0.1671464)
(1.067159 0.0006297472 0.001009121)
(2.750977 -0.001957031 -0.003633385)
(3.462227 0.003459918 0.005837015)
(4.667262 -0.02939928 -0.03446715)
(2.933558 -0.1451973 -0.0919931)
(1.167844 -0.0001179459 -0.0007250257)
(2.773734 0.000476633 0.001812346)
(4.109009 -0.0006857787 -0.004241681)
(4.394375 0.001435791 0.003402917)
(5.300018 -0.01088815 -0.01942265)
(3.057051 -0.05081286 0.001520251)
(1.14518 -5.819431e-05 0.0002277075)
(2.864269 0.000199342 -0.001580382)
(3.919751 -0.0006427662 0.001323148)
(4.853757 0.0005606046 -0.004236437)
(4.740873 -0.001724726 6.085199e-05)
(5.335085 0.01049613 0.001421557)
(2.969814 0.05007831 0.09167009)
(1.097421 0.0001324455 -0.0002974084)
(2.645956 -0.0003957861 0.0001480267)
(3.776995 0.0005583159 -0.002429375)
(4.331309 -0.002132731 -0.0003522458)
(4.872755 0.001222767 -0.004120622)
(4.444272 -0.005755353 -0.003300282)
(4.768831 0.02674596 0.01995632)
(2.635619 0.1363048 0.1594083)
(0.9612533 -5.063756e-05 1.813426e-05)
(2.307757 0.0003026597 -0.0007688623)
(3.173846 -0.0007792616 -0.0004540091)
(3.785094 0.000678749 -0.002904992)
(3.943487 -0.003292769 -0.002418277)
(4.159668 0.001489495 -0.003821795)
(3.548411 -0.009251078 -0.006748331)
(3.632528 0.03001783 0.02694266)
(1.98375 0.1744527 0.1601646)
(0.7411311 9.031307e-05 -0.0001125465)
(1.687754 -0.0001544798 -0.000114383)
(2.310105 0.0002637851 -0.001099542)
(2.654095 -0.0008608523 -0.001096737)
(2.883163 0.0005172182 -0.002810446)
(2.809062 -0.003276859 -0.003981414)
(2.813346 0.00119039 -0.003575783)
(2.210974 -0.009169612 -0.009757765)
(2.096677 0.01879075 0.01557774)
(0.9346001 0.1228428 0.02895435)
(0.3605841 5.492361e-06 2.991701e-06)
(0.741364 9.528377e-05 -0.0001490303)
(0.9624222 -6.360887e-05 -0.0001958943)
(1.100701 0.0002185152 -0.0007128611)
(1.152176 -0.0003543193 -0.0009635202)
(1.180852 0.0004870539 -0.001727813)
(1.088641 -0.001467682 -0.003442327)
(1.040308 0.001270359 -0.003046235)
(0.7276669 -0.004017969 -0.01030262)
(0.5548389 0.0003277634 -0.02278104)
(0.002570283 -0.01181731 -0.01050326)
(0.0006832682 -0.01403336 -0.001148889)
(0.000593694 -0.01268232 -0.002450128)
(0.000416406 -0.006706737 -0.000792319)
(0.0006112086 -0.006986394 -0.001650676)
(0.0005406634 -0.007717822 -0.003804969)
(0.0005231472 -0.004747333 -0.0004905573)
(0.0003741688 -0.005054368 -0.00103493)
(0.0005407656 -0.005255763 -0.00291269)
(0.0004868757 -0.005801747 -0.001145466)
(0.0004726155 -0.002504016 -0.0004344282)
(0.0005043341 -0.002660314 -0.0009027305)
(0.0003467565 -0.002842295 -0.00259606)
(0.0004881846 -0.002976305 -0.0009726657)
(0.0004609186 -0.003326463 -0.01039516)
(0.0005233464 -0.0008173112 -0.0004004969)
(0.0004657377 -0.0008679832 -0.0008213969)
(0.000489162 -0.0009131634 -0.002383397)
(0.0003209289 -0.000964785 -0.0008714148)
(0.0004723328 -0.001022527 -0.009431004)
(4.728169e-05 -0.0001257544 -0.003930338)
(0.3268862 0.001724711 0.001747874)
(0.882759 -0.009337771 -0.01205858)
(0.8915009 -0.09398829 -0.1025113)
(0.7751515 -0.001753891 -0.00188953)
(1.552507 0.004227598 0.004283503)
(2.557774 -0.03066179 -0.02997297)
(2.020236 -0.209716 -0.1361169)
(0.9401093 0.0009434965 0.001003685)
(2.382169 -0.002965017 -0.003701001)
(2.951969 0.0053984 0.005102919)
(4.02269 -0.03660684 -0.03073132)
(2.651294 -0.208806 -0.08492235)
(1.107586 -0.0003499571 -0.0007208678)
(2.60576 0.001341143 0.001770332)
(3.848086 -0.002015721 -0.004379232)
(4.096051 0.004257434 0.003165838)
(4.980259 -0.02873287 -0.01830453)
(2.945527 -0.143029 0.003184545)
(1.14518 5.819445e-05 0.0002277074)
(2.864269 -0.0001993421 -0.001580382)
(3.919751 0.0006427663 0.001323148)
(4.853757 -0.0005606046 -0.004236437)
(4.740873 0.001724726 6.085199e-05)
(5.335085 -0.01049613 0.001421557)
(2.969814 -0.05007831 0.09167009)
(1.157426 4.480953e-05 -0.000303014)
(2.815695 -0.0001411647 0.0001306589)
(4.036987 0.0001849195 -0.002469779)
(4.646679 -0.000779954 -0.0003235595)
(5.225782 0.0003876713 -0.004065474)
(4.774635 -0.001987772 -0.003275195)
(5.07236 0.0100905 0.01931724)
(2.728203 0.04791161 0.1579332)
(1.090172 -3.315624e-05 5.517573e-06)
(2.671395 0.0001961016 -0.0008474891)
(3.716917 -0.0005749529 -0.0005771591)
(4.456789 0.0003805882 -0.003152926)
(4.665147 -0.002491589 -0.002546839)
(4.904718 0.000756149 -0.003866569)
(4.191262 -0.006336098 -0.006599614)
(4.201363 0.02403768 0.0284094)
(2.150213 0.117871 0.1638733)
(0.9642235 9.245134e-05 -0.0001443573)
(2.293542 -0.0001642817 -0.0002204748)
(3.203366 0.0002409851 -0.001465473)
(3.724927 -0.001007265 -0.001535932)
(4.0609 0.0003349132 -0.003567292)
(3.968595 -0.003836547 -0.004721225)
(3.937262 0.0007870481 -0.003694094)
(3.087344 -0.009813502 -0.009841028)
(2.790043 0.02454921 0.023367)
(1.126872 0.1091648 0.03873168)
(0.7391973 1.78858e-06 -2.087876e-05)
(1.692706 0.0001086008 -0.000371035)
(2.295875 -0.0002497726 -0.0005761747)
(2.679542 0.0001431902 -0.001679171)
(2.834384 -0.001102125 -0.002201369)
(2.900036 8.499194e-05 -0.003540361)
(2.665559 -0.004001409 -0.0062249)
(2.480881 0.0001378399 -0.004158961)
(1.691909 -0.009453836 -0.01286424)
(1.132974 0.008337793 -0.01334635)
(0.004050991 0.0006083713 -0.007282759)
(0.3609041 3.278516e-05 -2.517356e-05)
(0.7394296 4.681888e-06 -5.697447e-05)
(0.9653901 9.998834e-05 -0.0003336844)
(1.093432 -7.921459e-05 -0.0005059319)
(1.164431 0.0001791429 -0.001057902)
(1.158025 -0.0004491854 -0.001723896)
(1.129452 0.0002755156 -0.002523672)
(0.9741263 -0.00174508 -0.005187987)
(0.8315687 0.001150371 -0.00593928)
(0.4101652 -0.007457568 -0.02516812)
(0.002879644 -0.01051418 -0.009008391)
(0.0007187293 -0.009746962 -0.01438681)
(0.0004639163 -0.01315529 -0.001066375)
(0.0006795166 -0.01105839 -0.002150621)
(0.0005874346 -0.01136857 -0.004378778)
(0.0005623995 -0.006218752 -0.0007363903)
(0.000416407 -0.006572202 -0.001526263)
(0.0006044271 -0.00679706 -0.003402621)
(0.000529299 -0.007461026 -0.001556381)
(0.0004906072 -0.004489111 -0.0004617543)
(0.0005267005 -0.004690487 -0.0009649476)
(0.0003709221 -0.004948498 -0.002685467)
(0.0005235906 -0.005125107 -0.001036383)
(0.000485713 -0.005703889 -0.01060382)
(0.0005328334 -0.00236611 -0.0004114863)
(0.0004762043 -0.002517268 -0.0008504204)
(0.0005018393 -0.002639517 -0.002425229)
(0.0003340431 -0.002808767 -0.00089878)
(0.0004921314 -0.002944654 -0.009508943)
(4.867751e-05 -0.0003606468 -0.00396657)
(0.0005240572 -0.0007786877 -0.0003810963)
(0.0005278923 -0.0008203292 -0.0007783532)
(0.0004637453 -0.0008642144 -0.002246202)
(0.0004790095 -0.000896593 -0.0008146387)
(0.0003248596 -0.0009643484 -0.008720299)
(4.828625e-05 -0.0001118387 -0.00360481)
(4.254222e-05 -0.0001132672 -0.004656827)
(0.3805715 -0.001059099 -0.001055676)
(0.6757782 0.002923737 0.002444099)
(1.115256 -0.009615987 -0.01224408)
(0.9541279 -0.09143292 -0.06916556)
(0.7213073 0.0009499864 0.0009378024)
(1.760063 -0.002982534 -0.003336672)
(2.11982 0.005302645 0.004017335)
(2.914172 -0.03143087 -0.02382349)
(2.076614 -0.2078294 -0.06696009)
(0.977444 -0.000546152 -0.0007047227)
(2.248363 0.001905688 0.00168713)
(3.295339 -0.003072459 -0.004427328)
(3.47053 0.006555466 0.002798086)
(4.282465 -0.03550578 -0.01550724)
(2.661446 -0.2061201 0.00570621)
(1.08552 0.0001679328 0.0002322222)
(2.692977 -0.0005889216 -0.001567939)
(3.664441 0.001778801 0.001273167)
(4.532255 -0.001682174 -0.004338666)
(4.413271 0.00504944 -1.638877e-05)
(5.012493 -0.02768881 0.002357905)
(2.863768 -0.1413811 0.09295939)
(1.157426 -4.480971e-05 -0.000303014)
(2.815695 0.0001411647 0.000130659)
(4.036987 -0.0001849195 -0.002469778)
(4.646679 0.0007799541 -0.0003235595)
(5.225782 -0.0003876714 -0.004065474)
(4.774635 0.001987772 -0.003275195)
(5.07236 -0.0100905 0.01931724)
(2.728203 -0.04791161 0.1579332)
(1.149966 -1.169113e-05 3.868533e-07)
(2.842034 6.587939e-05 -0.0008750575)
(3.97476 -0.0002094967 -0.0006248985)
(4.777649 0.0001161127 -0.003220271)
(5.011918 -0.0009169251 -0.002542851)
(5.260619 0.0002169903 -0.003809007)
(4.497954 -0.002194508 -0.006553542)
(4.460173 0.009044582 0.02797957)
(2.216287 0.04084735 0.1624298)
(1.093348 6.056807e-05 -0.000157849)
(2.65579 -0.0001195995 -0.0002824879)
(3.749491 0.0001398233 -0.001640142)
(4.390408 -0.0007677236 -0.001747181)
(4.796197 0.0001023245 -0.003842574)
(4.695942 -0.002898197 -0.004864414)
(4.63083 0.0003038005 -0.003498628)
(3.626637 -0.006679209 -0.009453033)
(3.207303 0.01783872 0.02311858)
(1.208562 0.07035874 0.03966072)
(0.9618686 4.682813e-06 -4.318102e-05)
(2.299648 0.0001069406 -0.0005105845)
(3.185188 -0.0002916803 -0.0008502819)
(3.75751 7.332002e-05 -0.002232481)
(3.998437 -0.001324728 -0.002844158)
(4.086396 -0.0001739869 -0.004256529)
(3.750173 -0.004549055 -0.006872798)
(3.437853 -3.987347e-05 -0.003439892)
(2.319134 -0.009452023 -0.01112999)
(1.458262 0.01043531 -0.005795733)
(0.004716732 0.0005058318 -0.005141592)
(0.7396994 5.152372e-05 -6.952558e-05)
(1.688719 -4.707613e-05 -0.0002013161)
(2.301975 5.366324e-05 -0.0008273679)
(2.663887 -0.0003764343 -0.001262663)
(2.860736 -7.742555e-05 -0.00238412)
(2.851038 -0.001512795 -0.003522086)
(2.753761 -0.0006367361 -0.004488215)
(2.342518 -0.005005005 -0.00828624)
(1.910812 -0.0010628 -0.005849764)
(0.8802383 -0.007583137 -0.0187741)
(0.004904375 -4.491662e-05 -0.006274901)
(0.0007330215 -0.001901634 -0.01038126)
(0.3603616 1.847148e-05 -1.03352e-05)
(0.7399309 5.307358e-05 -0.0001075417)
(0.9630309 1.181547e-06 -0.0002329118)
(1.0966 8.63629e-05 -0.0005856577)
(1.156928 -0.0001169933 -0.0009340598)
(1.1703 8.882195e-05 -0.0015938)
(1.107081 -0.0006508665 -0.002795349)
(1.012254 -8.942826e-07 -0.003662652)
(0.7744961 -0.001767217 -0.008170957)
(0.4742703 -0.003497148 -0.02206698)
(0.002054268 -0.009886104 -0.008403452)
(0.0008486883 -0.008551871 -0.01229682)
(0.0006830251 -0.008908567 -0.01011578)
(0.0006058174 -0.01218967 -0.0009869087)
(0.0004614002 -0.01037787 -0.001990388)
(0.000670607 -0.009933537 -0.003871528)
(0.0005734122 -0.01014941 -0.001941974)
(0.0005222376 -0.005879828 -0.0006930974)
(0.000564983 -0.006095893 -0.001418439)
(0.0004117881 -0.006396837 -0.00313418)
(0.0005838356 -0.006591664 -0.001380851)
(0.000527486 -0.007314612 -0.01100489)
(0.0005488446 -0.00424064 -0.0004370082)
(0.0004942497 -0.004436339 -0.0009084268)
(0.0005239723 -0.004593378 -0.002505048)
(0.0003575832 -0.004831741 -0.0009563856)
(0.0005275446 -0.005034076 -0.009647378)
(5.124532e-05 -0.0006186972 -0.004039874)
(0.0005324048 -0.002254288 -0.0003914478)
(0.0005374349 -0.002378975 -0.0008054904)
(0.0004741245 -0.002498045 -0.002284645)
(0.0004914534 -0.002610144 -0.0008394809)
(0.0003379335 -0.002777358 -0.008782881)
(5.027702e-05 -0.0003209463 -0.003628679)
(4.378109e-05 -0.0003278574 -0.004700451)
(0.0005502844 -0.0007426955 -0.0003638386)
(0.000528835 -0.0007816575 -0.0007406874)
(0.0005261429 -0.000816887 -0.002128536)
(0.0004552152 -0.0008489918 -0.000767837)
(0.000479912 -0.0008960487 -0.008154369)
(3.26975e-05 -0.0001057475 -0.003333167)
(4.251748e-05 -0.0001009547 -0.00427105)
(4.149581e-05 -0.0001130415 -0.004593612)
(0.3509061 0.0005397767 0.0005488083)
(0.7753929 -0.00186037 -0.001855294)
(0.883773 0.003192812 0.002266715)
(1.244675 -0.009148137 -0.008140576)
(0.9764095 -0.08983944 -0.03236191)
(0.7520878 -0.000564183 -0.0006265318)
(1.652109 0.001797418 0.001497092)
(2.384608 -0.003123232 -0.003890652)
(2.464412 0.006177661 0.002368826)
(3.096256 -0.02854834 -0.01069435)
(2.081227 -0.2061108 0.00749551)
(0.9569341 0.0002540649 0.0002428692)
(2.327582 -0.0009046352 -0.001495037)
(3.127015 0.002443226 0.001202682)
(3.856405 -0.002667609 -0.004304042)
(3.728519 0.007551451 -7.832849e-05)
(4.309022 -0.03413284 0.003516138)
(2.594391 -0.2047031 0.09122633)
(1.097421 -0.0001324456 -0.0002974085)
(2.645956 0.000395786 0.0001480267)
(3.776995 -0.0005583159 -0.002429375)
(4.331309 0.002132731 -0.0003522457)
(4.872755 -0.001222767 -0.004120622)
(4.444272 0.005755353 -0.003300282)
(4.768831 -0.02674596 0.01995632)
(2.635619 -0.1363048 0.1594083)
(1.149966 1.169092e-05 3.868146e-07)
(2.842034 -6.587924e-05 -0.0008750574)
(3.97476 0.0002094967 -0.0006248984)
(4.777649 -0.0001161126 -0.003220271)
(5.011918 0.0009169252 -0.002542851)
(5.260619 -0.0002169903 -0.003809007)
(4.497954 0.002194508 -0.006553542)
(4.460173 -0.009044583 0.02797957)
(2.216287 -0.04084735 0.1624298)
(1.153218 2.042647e-05 -0.0001630127)
(2.825872 -4.367157e-05 -0.0003078365)
(4.008588 4.341125e-05 -0.001704225)
(4.70881 -0.0002839291 -0.001820812)
(5.148853 1.113836e-05 -0.003908398)
(5.045499 -0.001064787 -0.004839248)
(4.960992 6.489677e-05 -0.003356448)
(3.882395 -0.002305797 -0.009333672)
(3.393201 0.006699328 0.0227176)
(1.239276 0.02386684 0.03933755)
(1.090794 2.572829e-06 -5.49511e-05)
(2.662404 6.611706e-05 -0.0005808212)
(3.729383 -0.0002252895 -0.0009988914)
(4.426481 -1.313324e-06 -0.002487878)
(4.727209 -0.001024822 -0.003097322)
(4.827457 -0.0002769224 -0.004432491)
(4.426275 -0.003352906 -0.006822072)
(4.020359 -0.0001136155 -0.002816495)
(2.697832 -0.006318459 -0.01037265)
(1.641307 0.007693581 -0.004383818)
(0.004998212 0.0003146437 -0.004504575)
(0.9623958 5.431372e-05 -9.54677e-05)
(2.294598 -5.461853e-05 -0.0003123271)
(3.192799 3.006361e-05 -0.001138111)
(3.737353 -0.0004666643 -0.001728739)
(4.032274 -0.000214254 -0.003065343)
(4.023628 -0.001808135 -0.004230041)
(3.864088 -0.0009042835 -0.004866615)
(3.26336 -0.005327765 -0.008271132)
(2.59974 -0.0007419899 -0.003376164)
(1.164185 -0.006315424 -0.01154392)
(0.00604189 1.986567e-05 -0.004419799)
(0.0007412182 -0.0009719909 -0.007654184)
(0.7387336 3.002326e-05 -4.28054e-05)
(1.689524 4.432372e-05 -0.0002881952)
(2.296916 -0.0001211683 -0.0006283521)
(2.67048 -5.759092e-05 -0.001408349)
(2.844464 -0.0005875426 -0.002122715)
(2.877444 -0.0004684317 -0.003263132)
(2.705938 -0.002206525 -0.005024106)
(2.42378 -0.001699549 -0.005509398)
(1.794887 -0.005737617 -0.01005089)
(1.003733 -0.002043157 -0.01534454)
(0.003715111 -0.0001222098 -0.005838472)
(0.0008695546 -0.001835692 -0.008903512)
(0.0006936782 -0.002537165 -0.00843882)
(0.3603088 2.160024e-05 -1.41676e-05)
(0.7389647 2.81299e-05 -8.029914e-05)
(0.9635531 5.423809e-05 -0.0002795381)
(1.094034 -1.301072e-05 -0.0005006932)
(1.160165 5.034441e-05 -0.0009388237)
(1.162759 -0.000203459 -0.001549029)
(1.119058 -0.0001046285 -0.002431847)
(0.9911904 -0.0009121609 -0.004156486)
(0.8069079 -8.925837e-05 -0.006308111)
(0.4382576 -0.00526746 -0.02159967)
(0.002408758 -0.009140386 -0.007781422)
(0.0005659507 -0.008027998 -0.01146301)
(0.0008039676 -0.007835839 -0.008728729)
(0.0006521821 -0.008112756 -0.005680615)
(0.0005572658 -0.01151143 -0.000929892)
(0.0006058289 -0.009618422 -0.001844276)
(0.000455427 -0.00932866 -0.003560726)
(0.0006463922 -0.008911937 -0.001703055)
(0.0005711782 -0.009608195 -0.01147332)
(0.0005769087 -0.005553063 -0.0006549256)
(0.0005251082 -0.005764869 -0.001335178)
(0.0005610796 -0.005935036 -0.002916199)
(0.0003966587 -0.006212217 -0.001275207)
(0.0005869354 -0.006455515 -0.009923052)
(5.559994e-05 -0.0007925281 -0.004154251)
(0.0005462502 -0.004039133 -0.0004155358)
(0.0005535002 -0.004191448 -0.000859713)
(0.0004919897 -0.0043454 -0.002357952)
(0.0005131464 -0.004488047 -0.0008917862)
(0.0003613886 -0.00474364 -0.008891362)
(5.394793e-05 -0.0005490281 -0.003676044)
(4.606292e-05 -0.0005624195 -0.004787483)
(0.0005579787 -0.002150045 -0.0003736237)
(0.0005372358 -0.002266814 -0.0007663093)
(0.0005356111 -0.002361144 -0.00216413)
(0.0004654199 -0.002471529 -0.0007909347)
(0.0004922721 -0.002580354 -0.008207455)
(3.40298e-05 -0.0003035551 -0.003351579)
(4.428328e-05 -0.0002925584 -0.004299964)
(4.269996e-05 -0.0003237859 -0.004636177)
(0.0005568446 -0.0007112824 -0.0003483074)
(0.0005555527 -0.0007455984 -0.0007071535)
(0.0005272957 -0.0007784649 -0.002025539)
(0.0005187189 -0.0008027795 -0.0007276284)
(0.0004554606 -0.0008482968 -0.007685833)
(5.048386e-05 -9.839523e-05 -0.003116881)
(2.853565e-05 -9.560574e-05 -0.003949129)
(4.099024e-05 -0.0001009647 -0.004213146)
(4.075353e-05 -0.0001100367 -0.004142914)
(0.3675912 -0.0003472457 -0.0003380148)
(0.7215383 0.0009581195 0.0008796323)
(1.005737 -0.001996396 -0.002047111)
(1.004871 0.003368033 0.00142216)
(1.307106 -0.008687549 -0.002961943)
(0.978486 -0.08930964 0.005104279)
(0.7350487 0.0002616878 0.0002453443)
(1.714991 -0.0009160238 -0.001251587)
(2.250707 0.002203907 0.001088597)
(2.759442 -0.002834838 -0.003657198)
(2.634518 0.006998865 3.158964e-05)
(3.115945 -0.02710845 0.003437365)
(2.045781 -0.2036992 0.07730286)
(0.9679652 -0.0002038115 -0.0002819313)
(2.284544 0.0005609393 0.0001898778)
(3.228463 -0.0008864446 -0.002265552)
(3.672457 0.002858137 -0.0003320808)
(4.133549 -0.002103336 -0.004022075)
(3.753823 0.008434906 -0.003337904)
(4.104642 -0.03314026 0.01949121)
(2.399027 -0.1994708 0.1562878)
(1.090172 3.315604e-05 5.517586e-06)
(2.671395 -0.0001961015 -0.0008474892)
(3.716917 0.000574953 -0.000577159)
(4.456789 -0.0003805882 -0.003152926)
(4.665147 0.002491589 -0.002546839)
(4.904718 -0.0007561491 -0.003866569)
(4.191262 0.006336098 -0.006599614)
(4.201363 -0.02403768 0.0284094)
(2.150213 -0.117871 0.1638733)
(1.153218 -2.042646e-05 -0.0001630126)
(2.825872 4.367157e-05 -0.0003078365)
(4.008588 -4.341117e-05 -0.001704225)
(4.70881 0.0002839293 -0.001820812)
(5.148853 -1.113837e-05 -0.003908398)
(5.045499 0.001064787 -0.004839248)
(4.960992 -6.489685e-05 -0.003356448)
(3.882395 0.002305797 -0.009333671)
(3.393201 -0.006699328 0.0227176)
(1.239276 -0.02386684 0.03933755)
(1.150584 4.861581e-07 -5.961955e-05)
(2.832678 2.126686e-05 -0.000607663)
(3.987693 -8.419095e-05 -0.001058158)
(4.746334 -1.086979e-05 -0.002577532)
(5.077273 -0.0003811172 -0.003167038)
(5.182945 -0.0001263286 -0.004435376)
(4.750054 -0.001216494 -0.006690055)
(4.29567 -5.516396e-05 -0.002527574)
(2.875827 -0.002155969 -0.01016932)
(1.723034 0.002865798 -0.003896968)
(0.005103645 0.0001027539 -0.00422839)
(1.091301 3.581673e-05 -0.0001074949)
(2.656832 -4.476319e-05 -0.0003732225)
(3.737661 6.316801e-08 -0.001295897)
(4.404102 -0.0003722335 -0.001955551)
(4.764726 -0.0002322214 -0.003337457)
(4.758125 -0.001385147 -0.004405975)
(4.553271 -0.0007579097 -0.00475334)
(3.829645 -0.003727187 -0.007795686)
(3.010083 -0.0003219312 -0.002257925)
(1.331428 -0.003792242 -0.009923447)
(0.00668214 2.352707e-05 -0.003849247)
(0.0007419522 -0.0002974375 -0.00672619)
(0.9612596 3.410893e-05 -6.57472e-05)
(2.295398 4.156551e-05 -0.0004087303)
(3.18628 -0.0001547851 -0.0008968605)
(3.745613 -0.0001234098 -0.001894202)
(4.011255 -0.0007419545 -0.002740475)
(4.057551 -0.000674375 -0.003923931)
(3.802949 -0.002513852 -0.005502715)
(3.367656 -0.00180314 -0.005110461)
(2.455221 -0.005524011 -0.008262689)
(1.319378 -0.0007240917 -0.008481281)
(0.004717447 -4.82398e-05 -0.004092332)
(0.0008830923 -0.0009618573 -0.006547546)
(0.0007009714 -0.001352329 -0.007269063)
(0.7385613 3.082037e-05 -4.76919e-05)
(1.687641 9.60596e-06 -0.0002389872)
(2.297705 -1.280388e-05 -0.0007074261)
(2.664876 -0.0002337682 -0.001229327)
(2.851225 -0.0002577805 -0.002121526)
(2.861072 -0.0009616474 -0.003163859)
(2.731572 -0.001137686 -0.004333061)
(2.379313 -0.00320211 -0.006481982)
(1.861829 -0.002730461 -0.0070086)
(0.9358168 -0.005025198 -0.01576123)
(0.004280964 -8.553821e-05 -0.005395992)
(0.0005889544 -0.001744704 -0.00828044)
(0.0008199412 -0.002375259 -0.007284169)
(0.000666146 -0.003048986 -0.00458494)
(0.3600791 1.908296e-05 -1.196136e-05)
(0.7387918 3.304878e-05 -8.086225e-05)
(0.9624143 2.715095e-05 -0.000244466)
(1.094527 4.14705e-05 -0.000522897)
(1.157504 -4.789601e-05 -0.000873664)