/*--------------------------------*- C++ -*----------------------------------*\
| =========                 |                                                 |
| \\      /  F ield         | OpenFOAM: The Open Source CFD Toolbox           |
|  \\    /   O peration     | Version:  2306                                  |
|   \\  /    A nd           | Website:  www.openfoam.com                      |
|    \\/     M anipulation  |                                                 |
\*---------------------------------------------------------------------------*/
FoamFile
{
    version     2.0;
    format      ascii;
    arch        "LSB;label=32;scalar=64";
    class       volScalarField;
    location    "0.9/air";
    object      X.N2;
}
// * * * * * * * * * * * * * * * * * * * * * * * * * * * * * * * * * * * * * //

dimensions      [0 0 0 0 0 0 0];

internalField   nonuniform List<scalar> 
16000
(
0.7929561
0.7929508
0.7939004
0.7929888
0.792943
0.7938212
0.792981
0.7958576
0.7940067
0.7930649
0.7929357
0.7937186
0.7929703
0.7957532
0.7938993
0.7930499
0.7979624
0.7959935
0.7942846
0.7932096
0.7929313
0.7936316
0.7929605
0.7956106
0.7937678
0.793032
0.7978555
0.7958575
0.7941373
0.7931776
0.8000521
0.7981041
0.7963327
0.7948002
0.793475
0.7929313
0.7935829
0.7929547
0.7954842
0.7936603
0.7930162
0.7977087
0.7956797
0.7939585
0.7931424
0.7999482
0.7979659
0.7961587
0.7946107
0.7934121
0.8020652
0.8001898
0.7984551
0.7969355
0.7956161
0.7939591
0.8294374
0.7929357
0.7935829
0.7929547
0.7954114
0.7936014
0.7930073
0.797578
0.7955261
0.7938151
0.7931157
0.7998058
0.7977843
0.7959341
0.7943753
0.79334
0.8019665
0.800056
0.7982811
0.796726
0.7953882
0.7938564
0.8039858
0.802197
0.8005303
0.7990728
0.7978527
0.7967805
0.7947816
0.8281787
0.8308476
0.8296366
0.792943
0.7936316
0.7929605
0.7954114
0.7936014
0.7930073
0.7975026
0.7954389
0.7937373
0.7931015
0.799679
0.7976266
0.7957421
0.7941824
0.7932843
0.8018311
0.7998803
0.7980555
0.7964548
0.7950973
0.7937244
0.8038921
0.8020698
0.800363
0.7988681
0.7976129
0.7965156
0.7946362
0.8058145
0.8041107
0.8025223
0.8011271
0.8000006
0.7991245
0.7983529
0.7960972
0.8256348
0.8297202
0.8283826
0.8312164
0.8310298
0.8300342
0.7929508
0.7937186
0.7929703
0.7954842
0.7936603
0.7930162
0.7975026
0.7954389
0.7937373
0.7931015
0.7996059
0.7975367
0.7956339
0.794077
0.7932546
0.8017105
0.7997278
0.7978615
0.7962229
0.7948536
0.7936136
0.8037636
0.801903
0.8001464
0.7986021
0.7972997
0.7961745
0.7944382
0.8057256
0.80399
0.8023636
0.8009322
0.7997727
0.7988581
0.7980398
0.7958776
0.8075583
0.8059331
0.8044191
0.8030917
0.8020188
0.8012674
0.8007827
0.8004021
0.7981417
0.8217099
0.8274468
0.8258551
0.8301694
0.8299058
0.8287885
0.8313891
0.8313842
0.8313934
0.830629
0.7929561
0.7938212
0.792981
0.7956106
0.7937678
0.793032
0.797578
0.7955261
0.7938151
0.7931157
0.7996059
0.7975367
0.7956339
0.794077
0.7932546
0.801641
0.7996409
0.7977517
0.7960923
0.7947184
0.7935519
0.8036493
0.8017581
0.7999603
0.798373
0.7970304
0.7958853
0.7942667
0.8056037
0.8038318
0.8021584
0.8006793
0.7994738
0.7985065
0.797633
0.7955777
0.8074737
0.8058186
0.8042687
0.8029075
0.8018041
0.8010213
0.8004853
0.8000108
0.7977299
0.8092252
0.8076712
0.8062261
0.8049589
0.8039411
0.8032293
0.8028908
0.802857
0.8030149
0.8013501
0.8160314
0.8239552
0.8219918
0.8280594
0.8276454
0.8262882
0.8304109
0.8303404
0.8302756
0.8293934
0.8315841
0.8315456
0.8317194
0.8319375
0.8314195
0.7939004
0.7929888
0.7957532
0.7938993
0.7930499
0.7977087
0.7956797
0.7939585
0.7931424
0.799679
0.7976266
0.7957421
0.7941824
0.7932843
0.801641
0.7996409
0.7977517
0.7960923
0.7947184
0.7935519
0.8035834
0.8016756
0.799855
0.7982434
0.7968783
0.7957235
0.7941695
0.8054953
0.8036945
0.8019821
0.800462
0.7992151
0.7982023
0.7972865
0.7953215
0.8073577
0.8056685
0.8040743
0.8026687
0.8015233
0.8006947
0.8000897
0.799508
0.7972323
0.8091444
0.8075622
0.8060833
0.8047843
0.8037389
0.8029996
0.8026221
0.8024999
0.8024456
0.8003599
0.8108223
0.8093328
0.8079498
0.8067388
0.8057637
0.8050917
0.8047716
0.8048865
0.8053981
0.8063589
0.806766
0.8189452
0.8166137
0.8248207
0.8242044
0.8225167
0.8284398
0.8282418
0.8280365
0.8269238
0.8306635
0.8305702
0.8306809
0.8308271
0.8301941
0.8318928
0.8317312
0.8318582
0.8322211
0.8326611
0.8325602
0.7958576
0.7940067
0.7930649
0.7978555
0.7958575
0.7941373
0.7931776
0.7998058
0.7977843
0.7959341
0.7943753
0.79334
0.8017105
0.7997278
0.7978615
0.7962229
0.7948536
0.7936136
0.8035834
0.8016756
0.799855
0.7982434
0.7968783
0.7957235
0.7941695
0.8054328
0.8036164
0.8018824
0.8003391
0.7990682
0.79803
0.7970921
0.795178
0.8072546
0.8055383
0.8039074
0.8024636
0.8012807
0.8004102
0.7997468
0.799085
0.7968412
0.8090338
0.8074193
0.8058988
0.8045584
0.8034747
0.8026957
0.8022622
0.8020319
0.8017717
0.7994747
0.8107451
0.8092288
0.8078139
0.8065731
0.8055722
0.804876
0.804522
0.8045656
0.8048825
0.8052871
0.8038988
0.8123563
0.8109253
0.8095987
0.8084376
0.8075034
0.8068535
0.8065546
0.8066583
0.8072933
0.8085451
0.8108993
0.8094664
0.8201787
0.8194456
0.8174814
0.8254158
0.8250492
0.82467
0.823244
0.8288088
0.8286096
0.8286011
0.8286113
0.8277521
0.8310225
0.8308132
0.8308875
0.8311888
0.8315577
0.8313454
0.832288
0.8320319
0.8320251
0.8323261
0.8328884
0.8337056
0.8327953
0.7979624
0.7959935
0.7942846
0.7932096
0.7999482
0.7979659
0.7961587
0.7946107
0.7934121
0.8018311
0.7998803
0.7980555
0.7964548
0.7950973
0.7937244
0.8036493
0.8017581
0.7999603
0.798373
0.7970304
0.7958853
0.7942667
0.8054328
0.8036164
0.8018824
0.8003391
0.7990682
0.79803
0.7970921
0.795178
0.8071951
0.8054642
0.803813
0.8023476
0.8011431
0.8002481
0.7995526
0.7988497
0.7966319
0.8089354
0.8072954
0.8057405
0.8043645
0.8032466
0.8024316
0.8019481
0.8016327
0.801234
0.7988736
0.8106392
0.8090925
0.8076383
0.8063586
0.8053223
0.8045909
0.8041889
0.8041425
0.8042657
0.8042869
0.8023829
0.8122822
0.8108257
0.8094689
0.8082797
0.8073215
0.8066492
0.8063205
0.8063599
0.8068238
0.8075613
0.8082395
0.8060943
0.8138327
0.812455
0.8111796
0.8100643
0.8091653
0.8085391
0.8082392
0.8083408
0.8089259
0.8102402
0.812736
0.8131783
0.8115662
0.8210843
0.8206382
0.8201965
0.8184907
0.825964
0.8256282
0.8254761
0.8253182
0.824143
0.8292693
0.8289682
0.8289441
0.8291294
0.829362
0.8289272
0.8314614
0.831164
0.8311114
0.8313609
0.8318619
0.8326091
0.8315827
0.8327606
0.8324201
0.8323099
0.8324651
0.8329485
0.8338519
0.8339209
0.8330324
0.8000521
0.7981041
0.7963327
0.7948002
0.793475
0.8019665
0.800056
0.7982811
0.796726
0.7953882
0.7938564
0.8037636
0.801903
0.8001464
0.7986021
0.7972997
0.7961745
0.7944382
0.8054953
0.8036945
0.8019821
0.800462
0.7992151
0.7982023
0.7972865
0.7953215
0.8071951
0.8054642
0.803813
0.8023476
0.8011431
0.8002481
0.7995526
0.7988497
0.7966319
0.8088786
0.8072249
0.805651
0.8042549
0.8031172
0.8022815
0.8017693
0.8014091
0.8009436
0.7985742
0.8105451
0.8089743
0.8074876
0.8061746
0.8051067
0.8043433
0.803899
0.8037796
0.8037695
0.8035763
0.8015083
0.8121807
0.8106953
0.8093013
0.8080755
0.8070841
0.8063795
0.8060082
0.8059678
0.8062609
0.806642
0.8067296
0.8042539
0.8137615
0.8123595
0.8110553
0.8099134
0.8089918
0.8083448
0.8080171
0.8080604
0.8084869
0.8093296
0.8102749
0.8100924
0.8080395
0.8152562
0.8139275
0.8126988
0.811625
0.810759
0.8101515
0.8098564
0.8099314
0.8104844
0.8116973
0.8141443
0.814836
0.8149616
0.8132844
0.8218904
0.8215112
0.8213266
0.8210767
0.8195727
0.8265805
0.8261632
0.8260249
0.8260702
0.8261231
0.8253628
0.8297964
0.8294199
0.8292823
0.8294358
0.8298195
0.8304288
0.8291693
0.831973
0.8315958
0.8314459
0.8315563
0.8319883
0.8328306
0.8328258
0.8318219
0.8332871
0.8328865
0.8326841
0.8327259
0.8330503
0.8338472
0.8340505
0.8341381
0.8332716
0.8020652
0.8001898
0.7984551
0.7969355
0.7956161
0.7939591
0.8038921
0.8020698
0.800363
0.7988681
0.7976129
0.7965156
0.7946362
0.8056037
0.8038318
0.8021584
0.8006793
0.7994738
0.7985065
0.797633
0.7955777
0.8072546
0.8055383
0.8039074
0.8024636
0.8012807
0.8004102
0.7997468
0.799085
0.7968412
0.8088786
0.8072249
0.805651
0.8042549
0.8031172
0.8022815
0.8017693
0.8014091
0.8009436
0.7985742
0.8104908
0.808907
0.8074025
0.8060706
0.8049847
0.8042025
0.8037343
0.8035755
0.8035003
0.8032128
0.8010996
0.8120905
0.8105823
0.8091575
0.8079003
0.8068795
0.8061455
0.8057364
0.8056325
0.8058074
0.8059869
0.8058107
0.8032182
0.8136639
0.8122345
0.8108949
0.8097184
0.8087656
0.8080884
0.8077212
0.8076919
0.8079623
0.8084801
0.8088773
0.8083171
0.805988
0.8151876
0.8138357
0.8125796
0.8114805
0.8105931
0.8099659
0.8096449
0.809665
0.8100705
0.8108422
0.8118514
0.8119763
0.8117424
0.8097434
0.8166309
0.8153474
0.8141617
0.8131259
0.8122898
0.8117011
0.8114066
0.8114659
0.8119635
0.8131021
0.8153657
0.8160991
0.816475
0.816432
0.8147353
0.8227311
0.8222909
0.8221506
0.8221324
0.8220282
0.8208761
0.8272431
0.8267685
0.8265354
0.8265771
0.826808
0.8272198
0.8256136
0.8303865
0.8299393
0.8297166
0.8297441
0.8300783
0.8308003
0.8306486
0.8294132
0.8325344
0.832101
0.8318635
0.8318666
0.8321461
0.8328914
0.8330303
0.8330443
0.8320632
0.8338562
0.8334076
0.8331382
0.8330793
0.8332795
0.8338955
0.8340325
0.8342508
0.834357
0.8335127
0.8039858
0.802197
0.8005303
0.7990728
0.7978527
0.7967805
0.7947816
0.8057256
0.80399
0.8023636
0.8009322
0.7997727
0.7988581
0.7980398
0.7958776
0.8073577
0.8056685
0.8040743
0.8026687
0.8015233
0.8006947
0.8000897
0.799508
0.7972323
0.8089354
0.8072954
0.8057405
0.8043645
0.8032466
0.8024316
0.8019481
0.8016327
0.801234
0.7988736
0.8104908
0.808907
0.8074025
0.8060706
0.8049847
0.8042025
0.8037343
0.8035755
0.8035003
0.8032128
0.8010996
0.8120384
0.8105179
0.8090763
0.8078013
0.8067636
0.8060126
0.805582
0.8054443
0.8055608
0.8056511
0.8053676
0.8027432
0.8135772
0.812126
0.8107574
0.8095511
0.8085706
0.807866
0.8074641
0.8073769
0.8075408
0.8078753
0.8080257
0.807272
0.8048297
0.8150938
0.8137156
0.8124257
0.8112937
0.8103768
0.8097211
0.8093632
0.8093154
0.8095759
0.8100462
0.8105516
0.8103296
0.8097924
0.8075719
0.8165649
0.8152591
0.8140471
0.8129872
0.8121308
0.8115234
0.8112042
0.8112118
0.81157
0.8122941
0.8132096
0.8134321
0.8134879
0.8131952
0.811223
0.8179607
0.8167189
0.8155729
0.8145722
0.8137637
0.8131917
0.8129006
0.8129412
0.8133995
0.8144469
0.8165664
0.8172017
0.817623
0.8178223
0.8176847
0.8161691
0.8235881
0.823109
0.8228906
0.8228988
0.8230022
0.8231837
0.8211429
0.8279537
0.8274214
0.8271199
0.8270534
0.8272627
0.8278129
0.8274453
0.825866
0.8310181
0.8305226
0.830221
0.830153
0.8303475
0.8309915
0.8310023
0.8308701
0.8296591
0.833135
0.8326568
0.8323561
0.832263
0.8324242
0.832995
0.8330775
0.8332316
0.8332646
0.8323064
0.8344552
0.8339716
0.8336481
0.8335149
0.8336052
0.8340789
0.8340698
0.8342193
0.8344527
0.8345778
0.8338068
0.8058145
0.8041107
0.8025223
0.8011271
0.8000006
0.7991245
0.7983529
0.7960972
0.8074737
0.8058186
0.8042687
0.8029075
0.8018041
0.8010213
0.8004853
0.8000108
0.7977299
0.8090338
0.8074193
0.8058988
0.8045584
0.8034747
0.8026957
0.8022622
0.8020319
0.8017717
0.7994747
0.8105451
0.8089743
0.8074876
0.8061746
0.8051067
0.8043433
0.803899
0.8037796
0.8037695
0.8035763
0.8015083
0.8120384
0.8105179
0.8090763
0.8078013
0.8067636
0.8060126
0.805582
0.8054443
0.8055608
0.8056511
0.8053676
0.8027432
0.8135272
0.8120643
0.8106796
0.8094566
0.8084602
0.8077396
0.8073182
0.8072001
0.8073121
0.8075651
0.8076145
0.8067786
0.804302
0.8150103
0.8136114
0.8122938
0.8111335
0.8101904
0.8095089
0.8091185
0.8090169
0.8091786
0.8094807
0.8097607
0.809359
0.8086489
0.8063324
0.8164743
0.8151434
0.8138992
0.812808
0.8119234
0.811289
0.810935
0.8108785
0.8111001
0.8115421
0.8119885
0.8118977
0.8116761
0.8111428
0.8089999
0.8178969
0.8166337
0.8154626
0.8144388
0.8136109
0.8130211
0.8127066
0.8126979
0.8130241
0.813679
0.8145284
0.8146931
0.8148351
0.8148149
0.8144636
0.8126933
0.8192485
0.8180456
0.8169363
0.8159681
0.8151852
0.8146293
0.8143407
0.8143682
0.8147865
0.8157638
0.817735
0.8182999
0.8186319
0.8188741
0.8189662
0.8189352
0.8164601
0.8244717
0.8239465
0.8236748
0.8235921
0.8237059
0.8240569
0.8234203
0.82141
0.8286932
0.8281235
0.8277548
0.827609
0.8276968
0.8281968
0.8280196
0.8276723
0.8261199
0.8316823
0.8311482
0.8307909
0.8306352
0.8307232
0.8312053
0.8311796
0.831206
0.8310933
0.8299068
0.8337627
0.8332522
0.8329006
0.8327368
0.8327926
0.8332269
0.83317
0.8332652
0.8334346
0.8334867
0.8326031
0.8350768
0.834566
0.8342021
0.8340082
0.8340161
0.8343646
0.8342436
0.8342455
0.8344077
0.8346564
0.8348472
0.8341079
0.8075583
0.8059331
0.8044191
0.8030917
0.8020188
0.8012674
0.8007827
0.8004021
0.7981417
0.8091444
0.8075622
0.8060833
0.8047843
0.8037389
0.8029996
0.8026221
0.8024999
0.8024456
0.8003599
0.8106392
0.8090925
0.8076383
0.8063586
0.8053223
0.8045909
0.8041889
0.8041425
0.8042657
0.8042869
0.8023829
0.8120905
0.8105823
0.8091575
0.8079003
0.8068795
0.8061455
0.8057364
0.8056325
0.8058074
0.8059869
0.8058107
0.8032182
0.8135272
0.8120643
0.8106796
0.8094566
0.8084602
0.8077396
0.8073182
0.8072001
0.8073121
0.8075651
0.8076145
0.8067786
0.804302
0.8149622
0.8135521
0.8122192
0.811043
0.8100849
0.8093885
0.8089796
0.8088495
0.8089631
0.8091912
0.8093789
0.8089002
0.8081142
0.8057682
0.8163938
0.8150431
0.8137724
0.8126543
0.8117448
0.811086
0.8107011
0.8105939
0.8107231
0.8110079
0.8112465
0.8109942
0.8106122
0.8099319
0.8077198
0.8178094
0.8165222
0.8153201
0.8142664
0.8134118
0.8127963
0.8124485
0.8123789
0.8125758
0.8129643
0.8133739
0.8132505
0.8131449
0.812905
0.8123624
0.8104731
0.8191868
0.8179633
0.8168299
0.8158395
0.8150382
0.8144653
0.8141543
0.8141348
0.814427
0.8150314
0.8157989
0.8159283
0.816009
0.8160654
0.8159692
0.8157307
0.8129917
0.8204973
0.8193306
0.8182555
0.8173174
0.8165584
0.8160175
0.8157325
0.8157475
0.8161341
0.8170444
0.8188954
0.81938
0.8196498
0.8198054
0.8199349
0.8201032
0.8191891
0.8167493
0.8253656
0.8248128
0.8244831
0.8243367
0.8243487
0.8246841
0.8242728
0.8236573
0.8216776
0.829455
0.8288553
0.8284409
0.8282188
0.8282164
0.8285731
0.8283889
0.8282276
0.8279006
0.8263752
0.8323679
0.8318069
0.8314045
0.8311855
0.8311765
0.8315337
0.831382
0.8313692
0.8314112
0.8313182
0.8302088
0.8344107
0.8338753
0.8334859
0.8332645
0.8332416
0.8335549
0.8333923
0.8333464
0.8334544
0.8336392
0.8337577
0.8329067
0.8357145
0.8351834
0.8347873
0.8345471
0.8344874
0.83474
0.8345211
0.8344098
0.8344226
0.8345977
0.8349049
0.8351227
0.8343369
0.8092252
0.8076712
0.8062261
0.8049589
0.8039411
0.8032293
0.8028908
0.802857
0.8030149
0.8013501
0.8107451
0.8092288
0.8078139
0.8065731
0.8055722
0.804876
0.804522
0.8045656
0.8048825
0.8052871
0.8038988
0.8121807
0.8106953
0.8093013
0.8080755
0.8070841
0.8063795
0.8060082
0.8059678
0.8062609
0.806642
0.8067296
0.8042539
0.8135772
0.812126
0.8107574
0.8095511
0.8085706
0.807866
0.8074641
0.8073769
0.8075408
0.8078753
0.8080257
0.807272
0.8048297
0.8149622
0.8135521
0.8122192
0.811043
0.8100849
0.8093885
0.8089796
0.8088495
0.8089631
0.8091912
0.8093789
0.8089002
0.8081142
0.8057682
0.8163475
0.814986
0.8137007
0.8125674
0.8116437
0.8109707
0.8105685
0.8104344
0.8105187
0.8107345
0.8108887
0.8105673
0.8101141
0.8093675
0.8071366
0.8177317
0.8164255
0.815198
0.8141186
0.8132403
0.8126015
0.8122245
0.8121068
0.8122161
0.812457
0.8126725
0.8124017
0.812153
0.8117765
0.8111149
0.8091912
0.8191022
0.8178556
0.8166925
0.8156734
0.8148465
0.8142491
0.8139064
0.8138288
0.8139979
0.8143497
0.8147019
0.8145642
0.814419
0.814282
0.8140108
0.8136214
0.8107726
0.8204376
0.819251
0.8181527
0.8171934
0.8164166
0.8158595
0.8155531
0.815523
0.8157892
0.8163438
0.8170499
0.817127
0.8171697
0.817162
0.817134
0.8171164
0.815988
0.8132882
0.8217096
0.8205768
0.8195336
0.8186236
0.8178868
0.8173601
0.8170787
0.8170839
0.8174412
0.8182961
0.8200366
0.820462
0.8206606
0.8207569
0.8207993
0.8209874
0.820334
0.8194415
0.8170366
0.8262673
0.8256913
0.8253236
0.8251108
0.8250505
0.8252653
0.8248844
0.8244891
0.8238947
0.8219455
0.8302294
0.8296103
0.8291585
0.8288827
0.828795
0.8290439
0.8287534
0.8285822
0.8284368
0.8281303
0.8266861
0.833069
0.8324875
0.8320525
0.8317816
0.8317012
0.831946
0.8317007
0.8315601
0.8315603
0.8316179
0.8315924
0.8305179
0.8350726
0.834519
0.8340996
0.8338345
0.8337469
0.8339681
0.833712
0.8335591
0.8335243
0.8336452
0.8338889
0.8340348
0.8331378
0.8363638
0.8358172
0.8353963
0.8351187
0.8350063
0.8351794
0.8348892
0.834679
0.8345774
0.8346013
0.8348294
0.8351589
0.8353321
0.8344924
0.8108223
0.8093328
0.8079498
0.8067388
0.8057637
0.8050917
0.8047716
0.8048865
0.8053981
0.8063589
0.806766
0.8122822
0.8108257
0.8094689
0.8082797
0.8073215
0.8066492
0.8063205
0.8063599
0.8068238
0.8075613
0.8082395
0.8060943
0.8136639
0.8122345
0.8108949
0.8097184
0.8087656
0.8080884
0.8077212
0.8076919
0.8079623
0.8084801
0.8088773
0.8083171
0.805988
0.8150103
0.8136114
0.8122938
0.8111335
0.8101904
0.8095089
0.8091185
0.8090169
0.8091786
0.8094807
0.8097607
0.809359
0.8086489
0.8063324
0.8163475
0.814986
0.8137007
0.8125674
0.8116437
0.8109707
0.8105685
0.8104344
0.8105187
0.8107345
0.8108887
0.8105673
0.8101141
0.8093675
0.8071366
0.8176869
0.8163704
0.815129
0.8140351
0.8131432
0.8124909
0.8120974
0.8119542
0.8120211
0.8121973
0.8123343
0.812001
0.8116888
0.8112498
0.8105336
0.808607
0.8190271
0.8177622
0.8165748
0.8155311
0.8146814
0.8140618
0.8136912
0.8135678
0.8136537
0.8138657
0.8140354
0.8137616
0.8134865
0.8132287
0.8128461
0.8123656
0.8094907
0.8203557
0.8191469
0.8180201
0.8170331
0.8162319
0.8156512
0.8153145
0.8152288
0.8153775
0.8156915
0.8160039
0.8158308
0.815666
0.8154838
0.8153039
0.8151465
0.8138774
0.8110707
0.8216517
0.8204998
0.8194341
0.8185037
0.8177499
0.8172076
0.8169057
0.8168677
0.8171096
0.8176243
0.818272
0.8183144
0.8183045
0.8182572
0.8181626
0.818194
0.8173493
0.8162436
0.8135827
0.8228879
0.8217867
0.8207734
0.8198895
0.8191736
0.8186602
0.8183827
0.8183793
0.8187118
0.819516
0.821162
0.8215331
0.8216813
0.8217106
0.8216943
0.8217845
0.8212011
0.8205634
0.8196924
0.817322
0.8271689
0.826579
0.826179
0.825921
0.8257876
0.8259152
0.825453
0.825085
0.8247058
0.8241325
0.8222702
0.8310119
0.8303784
0.8299006
0.8295805
0.8294315
0.8295801
0.829214
0.8289347
0.8287767
0.8286474
0.82841
0.8270043
0.8337798
0.833184
0.8327232
0.8324137
0.8322744
0.8324343
0.8321045
0.831869
0.8317396
0.8317528
0.8318701
0.831873
0.8307531
0.8357444
0.835177
0.8347347
0.8344343
0.8342967
0.8344414
0.8341179
0.8338705
0.8337273
0.8337037
0.833878
0.8341441
0.8342455
0.8332946
0.8370211
0.8364629
0.8360224
0.8357151
0.8355596
0.8356695
0.835322
0.8350397
0.8348381
0.8347464
0.8348193
0.8350663
0.8353519
0.8354742
0.8345718
0.8160314
0.8123563
0.8109253
0.8095987
0.8084376
0.8075034
0.8068535
0.8065546
0.8066583
0.8072933
0.8085451
0.8108993
0.8094664
0.8137615
0.8123595
0.8110553
0.8099134
0.8089918
0.8083448
0.8080171
0.8080604
0.8084869
0.8093296
0.8102749
0.8100924
0.8080395
0.8150938
0.8137156
0.8124257
0.8112937
0.8103768
0.8097211
0.8093632
0.8093154
0.8095759
0.8100462
0.8105516
0.8103296
0.8097924
0.8075719
0.8163938
0.8150431
0.8137724
0.8126543
0.8117448
0.811086
0.8107011
0.8105939
0.8107231
0.8110079
0.8112465
0.8109942
0.8106122
0.8099319
0.8077198
0.8176869
0.8163704
0.815129
0.8140351
0.8131432
0.8124909
0.8120974
0.8119542
0.8120211
0.8121973
0.8123343
0.812001
0.8116888
0.8112498
0.8105336
0.808607
0.8189837
0.8177091
0.8165082
0.8154507
0.814588
0.8139555
0.8135692
0.8134215
0.8134672
0.813618
0.8137141
0.8133827
0.8130503
0.8127372
0.8123027
0.8117803
0.8089064
0.820283
0.8190565
0.8179063
0.8168957
0.8160728
0.8154709
0.8151074
0.8149779
0.8150473
0.8152284
0.8153682
0.8150681
0.814784
0.8144928
0.8142157
0.8139714
0.8126202
0.8097892
0.8215723
0.8203989
0.8193058
0.8183489
0.8175715
0.8170067
0.8166757
0.8165844
0.8167138
0.8169986
0.8172715
0.8170785
0.8168756
0.8166697
0.8164397
0.8163514
0.8153773
0.8141321
0.8113673
0.8228317
0.821712
0.8206771
0.8197735
0.8190412
0.8185129
0.8182156
0.8181707
0.8183924
0.8188704
0.8194708
0.8194799
0.8194354
0.8193356
0.8192004
0.8191537
0.8184091
0.8175806
0.8164976
0.8138754
0.8240339
0.8229627
0.8219772
0.821118
0.8204215
0.8199209
0.8196472
0.8196365
0.8199467
0.8207068
0.8222672
0.8225954
0.8226978
0.8226807
0.8225994
0.822623
0.8219845
0.8214134
0.8207914
0.8199418
0.8176653
0.828068
0.8274681
0.827046
0.8267495
0.8265653
0.8266075
0.8260922
0.8256409
0.8252859
0.8249228
0.8244208
0.8226026
0.8317977
0.8311552
0.830657
0.8303046
0.8301046
0.8301791
0.8297415
0.8293853
0.8291172
0.8289723
0.8289036
0.8286961
0.8272465
0.8344967
0.8338907
0.8334107
0.83307
0.8328857
0.8329749
0.8325853
0.8322642
0.8320386
0.8319204
0.8319876
0.8321279
0.8320863
0.8309129
0.8364225
0.835845
0.8353849
0.8350568
0.8348782
0.8349621
0.8345845
0.8342689
0.8340302
0.8338969
0.8339225
0.8341158
0.8343381
0.8343885
0.8333748
0.8376839
0.8371169
0.8366609
0.8363296
0.8361393
0.8361964
0.8358061
0.8354659
0.8351914
0.8349986
0.8349525
0.835042
0.8352462
0.8354827
0.8355467
0.8217099
0.8189452
0.8166137
0.8138327
0.812455
0.8111796
0.8100643
0.8091653
0.8085391
0.8082392
0.8083408
0.8089259
0.8102402
0.812736
0.8131783
0.8115662
0.8151876
0.8138357
0.8125796
0.8114805
0.8105931
0.8099659
0.8096449
0.809665
0.8100705
0.8108422
0.8118514
0.8119763
0.8117424
0.8097434
0.8164743
0.8151434
0.8138992
0.812808
0.8119234
0.811289
0.810935
0.8108785
0.8111001
0.8115421
0.8119885
0.8118977
0.8116761
0.8111428
0.8089999
0.8177317
0.8164255
0.815198
0.8141186
0.8132403
0.8126015
0.8122245
0.8121068
0.8122161
0.812457
0.8126725
0.8124017
0.812153
0.8117765
0.8111149
0.8091912
0.8189837
0.8177091
0.8165082
0.8154507
0.814588
0.8139555
0.8135692
0.8134215
0.8134672
0.813618
0.8137141
0.8133827
0.8130503
0.8127372
0.8123027
0.8117803
0.8089064
0.820241
0.8190051
0.817842
0.8168182
0.8159827
0.8153685
0.81499
0.8148374
0.8148684
0.8149915
0.8150617
0.8147081
0.8143715
0.8140306
0.8137081
0.8134229
0.8120342
0.809205
0.8215018
0.8203115
0.8191958
0.8182161
0.8174179
0.8168327
0.8164761
0.8163428
0.8163963
0.8165545
0.8166634
0.8163511
0.8160374
0.8157323
0.8154155
0.8152524
0.8142004
0.8128738
0.8100866
0.8227547
0.8216142
0.8205528
0.8196237
0.8188688
0.8183188
0.8179935
0.8178974
0.8180111
0.8182691
0.8185116
0.8182979
0.8180729
0.817827
0.8175705
0.8174184
0.8165643
0.815607
0.8143855
0.8116625
0.8239793
0.8228902
0.8218838
0.8210057
0.8202934
0.8197784
0.8194856
0.8194349
0.8196386
0.8200853
0.8206429
0.8206276
0.8205505
0.8204167
0.8202296
0.8201342
0.8193549
0.8186228
0.8178103
0.8167499
0.8142272
0.8251502
0.8241065
0.8231476
0.8223113
0.8216332
0.8211445
0.8208747
0.8208576
0.8211481
0.8218684
0.823353
0.8236431
0.8237106
0.8236522
0.8235266
0.8234795
0.8228116
0.8221832
0.8216244
0.8210179
0.8202417
0.8180166
0.8289612
0.8283557
0.8279162
0.8275922
0.8273647
0.8273456
0.8267753
0.8262695
0.8258292
0.8254872
0.8251858
0.8247158
0.8228557
0.832584
0.8319357
0.8314231
0.8310448
0.8308066
0.8308187
0.8303328
0.829904
0.8295575
0.8293008
0.8292105
0.8291657
0.8289138
0.8274111
0.8352168
0.8346037
0.8341091
0.8337442
0.8335231
0.8335567
0.8331192
0.8327375
0.8324252
0.8322095
0.8321409
0.8322275
0.8323238
0.832231
0.8309946
0.8371047
0.8365198
0.8360457
0.8356952
0.8354837
0.8355171
0.8350993
0.8347288
0.8344211
0.8341913
0.8341038
0.834146
0.8342965
0.8344695
0.8344614
0.83835
0.8377766
0.8373083
0.8369574
0.8367384
0.836752
0.8363277
0.835944
0.8356109
0.8353444
0.8351945
0.8351631
0.835211
0.8353681
0.8355494
0.8256348
0.8239552
0.8219918
0.8201787
0.8194456
0.8174814
0.8152562
0.8139275
0.8126988
0.811625
0.810759
0.8101515
0.8098564
0.8099314
0.8104844
0.8116973
0.8141443
0.814836
0.8149616
0.8132844
0.8165649
0.8152591
0.8140471
0.8129872
0.8121308
0.8115234
0.8112042
0.8112118
0.81157
0.8122941
0.8132096
0.8134321
0.8134879
0.8131952
0.811223
0.8178094
0.8165222
0.8153201
0.8142664
0.8134118
0.8127963
0.8124485
0.8123789
0.8125758
0.8129643
0.8133739
0.8132505
0.8131449
0.812905
0.8123624
0.8104731
0.8190271
0.8177622
0.8165748
0.8155311
0.8146814
0.8140618
0.8136912
0.8135678
0.8136537
0.8138657
0.8140354
0.8137616
0.8134865
0.8132287
0.8128461
0.8123656
0.8094907
0.820241
0.8190051
0.817842
0.8168182
0.8159827
0.8153685
0.81499
0.8148374
0.8148684
0.8149915
0.8150617
0.8147081
0.8143715
0.8140306
0.8137081
0.8134229
0.8120342
0.809205
0.8214611
0.8202617
0.8191336
0.8181412
0.817331
0.816734
0.8163629
0.8162074
0.8162243
0.8163272
0.8163703
0.8160078
0.8156453
0.8152951
0.8149379
0.8147395
0.813651
0.8122873
0.8095027
0.8226862
0.8215294
0.8204462
0.8194953
0.8187203
0.8181508
0.8178009
0.8176644
0.8177054
0.8178423
0.8179285
0.8176022
0.8172736
0.8169361
0.8166014
0.8163836
0.8154634
0.8144285
0.8131265
0.8103829
0.8239045
0.8227953
0.8217633
0.8208605
0.8201265
0.8195906
0.8192709
0.8191709
0.8192708
0.8195064
0.8197213
0.8194944
0.8192475
0.8189783
0.8186806
0.8184921
0.8176173
0.8167761
0.8158354
0.8146377
0.812018
0.8250971
0.8240361
0.8230569
0.8222023
0.821509
0.8210064
0.8207184
0.8206627
0.8208504
0.8212691
0.8217899
0.8217531
0.8216527
0.8214876
0.8212675
0.8211143
0.8203237
0.8195547
0.818835
0.8180386
0.8170533
0.8145874
0.8262375
0.8252208
0.8242861
0.8234718
0.8228109
0.8223336
0.8220676
0.822045
0.8223176
0.823002
0.8244179
0.8246762
0.8247134
0.8246244
0.8244599
0.824364
0.8236582
0.8229989
0.8223807
0.821834
0.8212903
0.8205486
0.8182842
0.8298467
0.8292382
0.8287865
0.8284403
0.8281812
0.8281098
0.8275053
0.8269434
0.8264471
0.8260178
0.8257311
0.8254548
0.8249401
0.8230277
0.8333684
0.8327171
0.8321938
0.831796
0.8315265
0.8314903
0.8309655
0.8304875
0.8300674
0.8297309
0.8295242
0.829454
0.8293649
0.8290614
0.8274954
0.835938
0.8353202
0.8348144
0.8344303
0.83418
0.8341672
0.8336949
0.8332646
0.8328909
0.8325875
0.8324179
0.8323663
0.8324098
0.8324566
0.8323049
0.8377888
0.8371988
0.8367137
0.8363451
0.8361066
0.8360983
0.8356487
0.8352376
0.8348743
0.8345746
0.8343877
0.8343151
0.8343158
0.8344189
0.8345366
0.8390178
0.8384398
0.8379618
0.8375948
0.837352
0.8373288
0.8368783
0.83646
0.836083
0.8357572
0.8355311
0.8353945
0.835323
0.8353255
0.8354302
0.8281787
0.8274468
0.8258551
0.8248207
0.8242044
0.8225167
0.8210843
0.8206382
0.8201965
0.8184907
0.8166309
0.8153474
0.8141617
0.8131259
0.8122898
0.8117011
0.8114066
0.8114659
0.8119635
0.8131021
0.8153657
0.8160991
0.816475
0.816432
0.8147353
0.8178969
0.8166337
0.8154626
0.8144388
0.8136109
0.8130211
0.8127066
0.8126979
0.8130241
0.813679
0.8145284
0.8146931
0.8148351
0.8148149
0.8144636
0.8126933
0.8191022
0.8178556
0.8166925
0.8156734
0.8148465
0.8142491
0.8139064
0.8138288
0.8139979
0.8143497
0.8147019
0.8145642
0.814419
0.814282
0.8140108
0.8136214
0.8107726
0.820283
0.8190565
0.8179063
0.8168957
0.8160728
0.8154709
0.8151074
0.8149779
0.8150473
0.8152284
0.8153682
0.8150681
0.814784
0.8144928
0.8142157
0.8139714
0.8126202
0.8097892
0.8214611
0.8202617
0.8191336
0.8181412
0.817331
0.816734
0.8163629
0.8162074
0.8162243
0.8163272
0.8163703
0.8160078
0.8156453
0.8152951
0.8149379
0.8147395
0.813651
0.8122873
0.8095027
0.8226468
0.8214812
0.8203861
0.8194228
0.8186363
0.8180554
0.8176917
0.8175339
0.8175398
0.8176238
0.8176474
0.8172737
0.8168997
0.8165206
0.8161495
0.8159008
0.8149496
0.8138783
0.8125395
0.8097996
0.823838
0.822713
0.82166
0.8207361
0.8199828
0.8194281
0.8190847
0.8189459
0.818976
0.8190954
0.819161
0.8188274
0.818483
0.8181287
0.8177596
0.8175129
0.8165806
0.8156735
0.8146556
0.8133781
0.8107402
0.8250243
0.8239439
0.82294
0.8220615
0.8213473
0.8208246
0.8205105
0.8204074
0.8204952
0.8207109
0.8209028
0.8206645
0.8204037
0.820112
0.8197904
0.8195535
0.8186795
0.8178152
0.8169867
0.8160626
0.8149414
0.812382
0.8261858
0.8251523
0.8241981
0.823366
0.8226903
0.8221997
0.821916
0.8218562
0.8220297
0.8224234
0.8229113
0.8228576
0.8227369
0.8225498
0.8222998
0.822109
0.8212938
0.8205119
0.8197531
0.8190457
0.8183129
0.8173638
0.8148617
0.827299
0.8263063
0.8253954
0.8246011
0.8239567
0.82349
0.8232279
0.8232005
0.823457
0.8241088
0.8254622
0.8256927
0.8257054
0.8255904
0.8253976
0.8252592
0.824534
0.8238357
0.823185
0.8225768
0.822086
0.8215689
0.820782
0.818466
0.8307233
0.8301139
0.8296532
0.8292903
0.8290054
0.8288944
0.8282623
0.8276653
0.8271118
0.826625
0.8262463
0.8259805
0.8256593
0.8250924
0.8231158
0.8341495
0.833497
0.832966
0.8325529
0.8322592
0.8321827
0.831631
0.8311133
0.8306431
0.8302319
0.8299419
0.8297526
0.829639
0.8294999
0.8291369
0.8366586
0.836038
0.8355238
0.8351244
0.8348502
0.8347995
0.8342999
0.8338342
0.8334111
0.8330455
0.8327853
0.8326308
0.8325374
0.8325333
0.8325244
0.8384736
0.83788
0.8373864
0.8370031
0.8367422
0.8366988
0.836225
0.8357815
0.835377
0.835021
0.8347618
0.8345884
0.8344755
0.8344307
0.8344813
0.8396862
0.8391049
0.8386192
0.8382391
0.8379762
0.8379218
0.8374505
0.8370056
0.8365935
0.8362231
0.8359356
0.8357217
0.8355463
0.8354311
0.8353838
0.8294374
0.8297202
0.8283826
0.8280594
0.8276454
0.8262882
0.8254158
0.8250492
0.82467
0.823244
0.8218904
0.8215112
0.8213266
0.8210767
0.8195727
0.8179607
0.8167189
0.8155729
0.8145722
0.8137637
0.8131917
0.8129006
0.8129412
0.8133995
0.8144469
0.8165664
0.8172017
0.817623
0.8178223
0.8176847
0.8161691
0.8191868
0.8179633
0.8168299
0.8158395
0.8150382
0.8144653
0.8141543
0.8141348
0.814427
0.8150314
0.8157989
0.8159283
0.816009
0.8160654
0.8159692
0.8157307
0.8129917
0.8203557
0.8191469
0.8180201
0.8170331
0.8162319
0.8156512
0.8153145
0.8152288
0.8153775
0.8156915
0.8160039
0.8158308
0.815666
0.8154838
0.8153039
0.8151465
0.8138774
0.8110707
0.8215018
0.8203115
0.8191958
0.8182161
0.8174179
0.8168327
0.8164761
0.8163428
0.8163963
0.8165545
0.8166634
0.8163511
0.8160374
0.8157323
0.8154155
0.8152524
0.8142004
0.8128738
0.8100866
0.8226468
0.8214812
0.8203861
0.8194228
0.8186363
0.8180554
0.8176917
0.8175339
0.8175398
0.8176238
0.8176474
0.8172737
0.8168997
0.8165206
0.8161495
0.8159008
0.8149496
0.8138783
0.8125395
0.8097996
0.8237997
0.8226662
0.8216017
0.8206659
0.8199015
0.8193358
0.8189791
0.8188199
0.8188162
0.8188851
0.8188909
0.8185124
0.8181253
0.8177324
0.81733
0.817056
0.8160968
0.8151588
0.8141048
0.8127909
0.8101577
0.8249597
0.823864
0.8228397
0.8219409
0.821208