/*--------------------------------*- C++ -*----------------------------------*\
| =========                 |                                                 |
| \\      /  F ield         | OpenFOAM: The Open Source CFD Toolbox           |
|  \\    /   O peration     | Version:  2306                                  |
|   \\  /    A nd           | Website:  www.openfoam.com                      |
|    \\/     M anipulation  |                                                 |
\*---------------------------------------------------------------------------*/
FoamFile
{
    version     2.0;
    format      ascii;
    arch        "LSB;label=32;scalar=64";
    class       volScalarField;
    location    "0.9/air";
    object      X.O2;
}
// * * * * * * * * * * * * * * * * * * * * * * * * * * * * * * * * * * * * * //

dimensions      [0 0 0 0 0 0 0];

internalField   nonuniform List<scalar> 
16000
(
0.2070439
0.2070492
0.2060996
0.2070112
0.207057
0.2061788
0.207019
0.2041424
0.2059933
0.2069351
0.2070643
0.2062814
0.2070297
0.2042468
0.2061007
0.2069501
0.2020376
0.2040065
0.2057154
0.2067904
0.2070687
0.2063684
0.2070395
0.2043894
0.2062322
0.206968
0.2021445
0.2041425
0.2058627
0.2068224
0.1999479
0.2018959
0.2036673
0.2051998
0.206525
0.2070687
0.2064171
0.2070453
0.2045158
0.2063397
0.2069838
0.2022913
0.2043203
0.2060415
0.2068576
0.2000518
0.2020341
0.2038413
0.2053893
0.2065879
0.1979348
0.1998102
0.2015449
0.2030645
0.2043839
0.2060409
0.1705626
0.2070643
0.2064171
0.2070453
0.2045886
0.2063986
0.2069927
0.202422
0.2044739
0.2061849
0.2068843
0.2001942
0.2022157
0.2040659
0.2056247
0.20666
0.1980335
0.199944
0.2017189
0.203274
0.2046118
0.2061436
0.1960142
0.197803
0.1994697
0.2009272
0.2021473
0.2032195
0.2052184
0.1718213
0.1691524
0.1703634
0.207057
0.2063684
0.2070395
0.2045886
0.2063986
0.2069927
0.2024974
0.2045611
0.2062627
0.2068985
0.200321
0.2023734
0.2042579
0.2058176
0.2067157
0.1981689
0.2001197
0.2019445
0.2035452
0.2049027
0.2062756
0.1961079
0.1979302
0.199637
0.2011319
0.2023871
0.2034844
0.2053638
0.1941855
0.1958893
0.1974777
0.1988729
0.1999994
0.2008755
0.2016471
0.2039028
0.1743652
0.1702798
0.1716174
0.1687836
0.1689702
0.1699658
0.2070492
0.2062814
0.2070297
0.2045158
0.2063397
0.2069838
0.2024974
0.2045611
0.2062627
0.2068985
0.2003941
0.2024633
0.2043661
0.205923
0.2067454
0.1982895
0.2002722
0.2021385
0.2037771
0.2051464
0.2063864
0.1962364
0.198097
0.1998536
0.2013979
0.2027003
0.2038255
0.2055618
0.1942744
0.19601
0.1976364
0.1990678
0.2002273
0.2011419
0.2019602
0.2041224
0.1924417
0.1940669
0.1955809
0.1969083
0.1979812
0.1987326
0.1992173
0.1995979
0.2018583
0.1782901
0.1725532
0.1741449
0.1698306
0.1700942
0.1712115
0.1686109
0.1686158
0.1686066
0.169371
0.2070439
0.2061788
0.207019
0.2043894
0.2062322
0.206968
0.202422
0.2044739
0.2061849
0.2068843
0.2003941
0.2024633
0.2043661
0.205923
0.2067454
0.198359
0.2003591
0.2022483
0.2039077
0.2052816
0.2064481
0.1963507
0.1982419
0.2000397
0.201627
0.2029696
0.2041147
0.2057333
0.1943963
0.1961682
0.1978416
0.1993207
0.2005262
0.2014935
0.202367
0.2044223
0.1925263
0.1941814
0.1957313
0.1970925
0.1981959
0.1989787
0.1995147
0.1999892
0.2022701
0.1907748
0.1923288
0.1937739
0.1950411
0.1960589
0.1967707
0.1971092
0.197143
0.1969851
0.1986499
0.1839686
0.1760448
0.1780082
0.1719406
0.1723546
0.1737118
0.1695891
0.1696596
0.1697244
0.1706066
0.1684159
0.1684544
0.1682806
0.1680625
0.1685805
0.2060996
0.2070112
0.2042468
0.2061007
0.2069501
0.2022913
0.2043203
0.2060415
0.2068576
0.200321
0.2023734
0.2042579
0.2058176
0.2067157
0.198359
0.2003591
0.2022483
0.2039077
0.2052816
0.2064481
0.1964166
0.1983244
0.200145
0.2017566
0.2031217
0.2042765
0.2058305
0.1945047
0.1963055
0.1980179
0.199538
0.2007849
0.2017977
0.2027135
0.2046785
0.1926423
0.1943315
0.1959257
0.1973313
0.1984767
0.1993053
0.1999103
0.200492
0.2027677
0.1908556
0.1924378
0.1939167
0.1952157
0.1962611
0.1970004
0.1973779
0.1975001
0.1975544
0.1996401
0.1891777
0.1906672
0.1920502
0.1932612
0.1942363
0.1949083
0.1952284
0.1951135
0.1946019
0.1936411
0.193234
0.1810548
0.1833863
0.1751793
0.1757956
0.1774833
0.1715602
0.1717582
0.1719635
0.1730762
0.1693365
0.1694298
0.1693191
0.1691729
0.1698059
0.1681072
0.1682688
0.1681418
0.1677789
0.1673389
0.1674398
0.2041424
0.2059933
0.2069351
0.2021445
0.2041425
0.2058627
0.2068224
0.2001942
0.2022157
0.2040659
0.2056247
0.20666
0.1982895
0.2002722
0.2021385
0.2037771
0.2051464
0.2063864
0.1964166
0.1983244
0.200145
0.2017566
0.2031217
0.2042765
0.2058305
0.1945672
0.1963836
0.1981176
0.1996609
0.2009318
0.20197
0.2029079
0.204822
0.1927454
0.1944617
0.1960926
0.1975364
0.1987193
0.1995898
0.2002532
0.200915
0.2031588
0.1909662
0.1925807
0.1941012
0.1954416
0.1965253
0.1973043
0.1977378
0.1979681
0.1982283
0.2005253
0.1892549
0.1907712
0.1921861
0.1934269
0.1944278
0.195124
0.195478
0.1954344
0.1951175
0.1947129
0.1961012
0.1876437
0.1890747
0.1904013
0.1915624
0.1924966
0.1931465
0.1934454
0.1933417
0.1927067
0.1914549
0.1891007
0.1905336
0.1798213
0.1805544
0.1825186
0.1745842
0.1749508
0.17533
0.176756
0.1711912
0.1713904
0.1713989
0.1713887
0.1722479
0.1689775
0.1691868
0.1691125
0.1688112
0.1684423
0.1686546
0.167712
0.1679681
0.1679749
0.1676739
0.1671116
0.1662944
0.1672047
0.2020376
0.2040065
0.2057154
0.2067904
0.2000518
0.2020341
0.2038413
0.2053893
0.2065879
0.1981689
0.2001197
0.2019445
0.2035452
0.2049027
0.2062756
0.1963507
0.1982419
0.2000397
0.201627
0.2029696
0.2041147
0.2057333
0.1945672
0.1963836
0.1981176
0.1996609
0.2009318
0.20197
0.2029079
0.204822
0.1928049
0.1945358
0.196187
0.1976524
0.1988569
0.1997519
0.2004474
0.2011503
0.2033681
0.1910646
0.1927046
0.1942595
0.1956355
0.1967534
0.1975684
0.1980519
0.1983673
0.198766
0.2011264
0.1893608
0.1909075
0.1923617
0.1936414
0.1946777
0.1954091
0.1958111
0.1958575
0.1957343
0.1957131
0.1976171
0.1877178
0.1891743
0.1905311
0.1917203
0.1926785
0.1933508
0.1936795
0.1936401
0.1931762
0.1924387
0.1917605
0.1939057
0.1861673
0.187545
0.1888204
0.1899357
0.1908347
0.1914609
0.1917608
0.1916592
0.1910741
0.1897598
0.187264
0.1868217
0.1884338
0.1789157
0.1793618
0.1798035
0.1815093
0.174036
0.1743718
0.1745239
0.1746818
0.175857
0.1707307
0.1710318
0.1710559
0.1708706
0.170638
0.1710728
0.1685386
0.168836
0.1688886
0.1686391
0.1681381
0.1673909
0.1684173
0.1672394
0.1675799
0.1676901
0.1675349
0.1670515
0.1661481
0.1660791
0.1669676
0.1999479
0.2018959
0.2036673
0.2051998
0.206525
0.1980335
0.199944
0.2017189
0.203274
0.2046118
0.2061436
0.1962364
0.198097
0.1998536
0.2013979
0.2027003
0.2038255
0.2055618
0.1945047
0.1963055
0.1980179
0.199538
0.2007849
0.2017977
0.2027135
0.2046785
0.1928049
0.1945358
0.196187
0.1976524
0.1988569
0.1997519
0.2004474
0.2011503
0.2033681
0.1911214
0.1927751
0.194349
0.1957451
0.1968828
0.1977185
0.1982307
0.1985909
0.1990564
0.2014258
0.1894549
0.1910257
0.1925124
0.1938254
0.1948933
0.1956567
0.196101
0.1962204
0.1962305
0.1964237
0.1984917
0.1878193
0.1893047
0.1906987
0.1919245
0.1929159
0.1936205
0.1939918
0.1940322
0.1937391
0.193358
0.1932704
0.1957461
0.1862385
0.1876405
0.1889447
0.1900866
0.1910082
0.1916552
0.1919829
0.1919396
0.1915131
0.1906704
0.1897251
0.1899076
0.1919605
0.1847438
0.1860725
0.1873012
0.188375
0.189241
0.1898485
0.1901436
0.1900686
0.1895156
0.1883027
0.1858557
0.185164
0.1850384
0.1867156
0.1781096
0.1784888
0.1786734
0.1789233
0.1804273
0.1734195
0.1738368
0.1739751
0.1739298
0.1738769
0.1746372
0.1702036
0.1705801
0.1707177
0.1705642
0.1701805
0.1695712
0.1708307
0.168027
0.1684042
0.1685541
0.1684437
0.1680117
0.1671694
0.1671742
0.1681781
0.1667129
0.1671135
0.1673159
0.1672741
0.1669497
0.1661528
0.1659495
0.1658619
0.1667284
0.1979348
0.1998102
0.2015449
0.2030645
0.2043839
0.2060409
0.1961079
0.1979302
0.199637
0.2011319
0.2023871
0.2034844
0.2053638
0.1943963
0.1961682
0.1978416
0.1993207
0.2005262
0.2014935
0.202367
0.2044223
0.1927454
0.1944617
0.1960926
0.1975364
0.1987193
0.1995898
0.2002532
0.200915
0.2031588
0.1911214
0.1927751
0.194349
0.1957451
0.1968828
0.1977185
0.1982307
0.1985909
0.1990564
0.2014258
0.1895092
0.191093
0.1925975
0.1939294
0.1950153
0.1957975
0.1962657
0.1964245
0.1964997
0.1967872
0.1989004
0.1879095
0.1894177
0.1908425
0.1920997
0.1931205
0.1938545
0.1942636
0.1943675
0.1941926
0.1940131
0.1941893
0.1967818
0.1863361
0.1877655
0.1891051
0.1902816
0.1912344
0.1919116
0.1922788
0.1923081
0.1920377
0.1915199
0.1911227
0.1916829
0.194012
0.1848124
0.1861643
0.1874204
0.1885195
0.1894069
0.1900341
0.1903551
0.190335
0.1899295
0.1891578
0.1881486
0.1880237
0.1882576
0.1902566
0.1833691
0.1846526
0.1858383
0.1868741
0.1877102
0.1882989
0.1885934
0.1885341
0.1880365
0.1868979
0.1846343
0.1839009
0.183525
0.183568
0.1852647
0.1772689
0.1777091
0.1778494
0.1778676
0.1779718
0.1791239
0.1727569
0.1732315
0.1734646
0.1734229
0.173192
0.1727802
0.1743864
0.1696135
0.1700607
0.1702834
0.1702559
0.1699217
0.1691997
0.1693514
0.1705868
0.1674656
0.167899
0.1681365
0.1681334
0.1678539
0.1671086
0.1669697
0.1669557
0.1679368
0.1661438
0.1665924
0.1668618
0.1669207
0.1667205
0.1661045
0.1659675
0.1657492
0.165643
0.1664873
0.1960142
0.197803
0.1994697
0.2009272
0.2021473
0.2032195
0.2052184
0.1942744
0.19601
0.1976364
0.1990678
0.2002273
0.2011419
0.2019602
0.2041224
0.1926423
0.1943315
0.1959257
0.1973313
0.1984767
0.1993053
0.1999103
0.200492
0.2027677
0.1910646
0.1927046
0.1942595
0.1956355
0.1967534
0.1975684
0.1980519
0.1983673
0.198766
0.2011264
0.1895092
0.191093
0.1925975
0.1939294
0.1950153
0.1957975
0.1962657
0.1964245
0.1964997
0.1967872
0.1989004
0.1879616
0.1894821
0.1909237
0.1921987
0.1932364
0.1939874
0.194418
0.1945557
0.1944392
0.1943489
0.1946324
0.1972568
0.1864228
0.187874
0.1892426
0.1904489
0.1914294
0.192134
0.1925359
0.1926231
0.1924592
0.1921247
0.1919743
0.192728
0.1951703
0.1849062
0.1862844
0.1875743
0.1887063
0.1896232
0.1902789
0.1906368
0.1906846
0.1904241
0.1899538
0.1894484
0.1896704
0.1902076
0.1924281
0.1834351
0.1847409
0.1859529
0.1870128
0.1878692
0.1884766
0.1887958
0.1887882
0.18843
0.1877059
0.1867904
0.1865679
0.1865121
0.1868048
0.188777
0.1820393
0.1832811
0.1844271
0.1854278
0.1862363
0.1868083
0.1870994
0.1870588
0.1866005
0.1855531
0.1834336
0.1827983
0.182377
0.1821777
0.1823153
0.1838309
0.1764119
0.176891
0.1771094
0.1771012
0.1769978
0.1768163
0.1788571
0.1720463
0.1725786
0.1728801
0.1729466
0.1727373
0.1721871
0.1725547
0.174134
0.1689819
0.1694774
0.169779
0.169847
0.1696525
0.1690085
0.1689977
0.1691299
0.1703409
0.166865
0.1673432
0.1676439
0.167737
0.1675758
0.167005
0.1669225
0.1667684
0.1667354
0.1676936
0.1655448
0.1660284
0.1663519
0.1664851
0.1663948
0.1659211
0.1659302
0.1657807
0.1655473
0.1654222
0.1661932
0.1941855
0.1958893
0.1974777
0.1988729
0.1999994
0.2008755
0.2016471
0.2039028
0.1925263
0.1941814
0.1957313
0.1970925
0.1981959
0.1989787
0.1995147
0.1999892
0.2022701
0.1909662
0.1925807
0.1941012
0.1954416
0.1965253
0.1973043
0.1977378
0.1979681
0.1982283
0.2005253
0.1894549
0.1910257
0.1925124
0.1938254
0.1948933
0.1956567
0.196101
0.1962204
0.1962305
0.1964237
0.1984917
0.1879616
0.1894821
0.1909237
0.1921987
0.1932364
0.1939874
0.194418
0.1945557
0.1944392
0.1943489
0.1946324
0.1972568
0.1864728
0.1879357
0.1893204
0.1905434
0.1915398
0.1922604
0.1926818
0.1927999
0.1926879
0.1924349
0.1923855
0.1932214
0.195698
0.1849897
0.1863886
0.1877062
0.1888665
0.1898096
0.1904911
0.1908815
0.1909831
0.1908214
0.1905193
0.1902393
0.190641
0.1913511
0.1936676
0.1835257
0.1848566
0.1861008
0.187192
0.1880766
0.188711
0.189065
0.1891215
0.1888999
0.1884579
0.1880115
0.1881023
0.1883239
0.1888572
0.1910001
0.1821031
0.1833663
0.1845374
0.1855612
0.1863891
0.1869789
0.1872934
0.1873021
0.1869759
0.186321
0.1854716
0.1853069
0.1851649
0.1851851
0.1855364
0.1873067
0.1807515
0.1819544
0.1830637
0.1840319
0.1848148
0.1853707
0.1856593
0.1856318
0.1852135
0.1842362
0.182265
0.1817001
0.1813681
0.1811259
0.1810338
0.1810648
0.1835399
0.1755283
0.1760535
0.1763252
0.1764079
0.1762941
0.1759431
0.1765797
0.17859
0.1713068
0.1718765
0.1722452
0.172391
0.1723032
0.1718032
0.1719804
0.1723277
0.1738801
0.1683177
0.1688518
0.1692091
0.1693648
0.1692768
0.1687947
0.1688204
0.168794
0.1689067
0.1700932
0.1662373
0.1667478
0.1670994
0.1672632
0.1672074
0.1667731
0.16683
0.1667348
0.1665654
0.1665133
0.1673969
0.1649232
0.165434
0.1657979
0.1659918
0.1659839
0.1656354
0.1657564
0.1657545
0.1655923
0.1653436
0.1651528
0.1658921
0.1924417
0.1940669
0.1955809
0.1969083
0.1979812
0.1987326
0.1992173
0.1995979
0.2018583
0.1908556
0.1924378
0.1939167
0.1952157
0.1962611
0.1970004
0.1973779
0.1975001
0.1975544
0.1996401
0.1893608
0.1909075
0.1923617
0.1936414
0.1946777
0.1954091
0.1958111
0.1958575
0.1957343
0.1957131
0.1976171
0.1879095
0.1894177
0.1908425
0.1920997
0.1931205
0.1938545
0.1942636
0.1943675
0.1941926
0.1940131
0.1941893
0.1967818
0.1864728
0.1879357
0.1893204
0.1905434
0.1915398
0.1922604
0.1926818
0.1927999
0.1926879
0.1924349
0.1923855
0.1932214
0.195698
0.1850378
0.1864479
0.1877808
0.188957
0.1899151
0.1906115
0.1910204
0.1911505
0.1910369
0.1908088
0.1906211
0.1910998
0.1918858
0.1942318
0.1836062
0.1849569
0.1862276
0.1873457
0.1882552
0.188914
0.1892989
0.1894061
0.1892769
0.1889921
0.1887535
0.1890058
0.1893878
0.1900681
0.1922802
0.1821906
0.1834778
0.1846799
0.1857336
0.1865882
0.1872037
0.1875515
0.1876211
0.1874242
0.1870357
0.1866261
0.1867495
0.1868551
0.187095
0.1876376
0.1895269
0.1808132
0.1820367
0.1831701
0.1841605
0.1849618
0.1855347
0.1858457
0.1858652
0.185573
0.1849686
0.1842011
0.1840717
0.183991
0.1839346
0.1840308
0.1842693
0.1870083
0.1795027
0.1806694
0.1817445
0.1826826
0.1834416
0.1839825
0.1842675
0.1842525
0.1838659
0.1829556
0.1811046
0.18062
0.1803502
0.1801946
0.1800651
0.1798968
0.1808109
0.1832507
0.1746344
0.1751872
0.1755169
0.1756633
0.1756513
0.1753159
0.1757272
0.1763427
0.1783224
0.170545
0.1711447
0.1715591
0.1717812
0.1717836
0.1714269
0.1716111
0.1717724
0.1720994
0.1736248
0.1676321
0.1681931
0.1685955
0.1688145
0.1688235
0.1684663
0.168618
0.1686308
0.1685888
0.1686818
0.1697912
0.1655893
0.1661247
0.1665141
0.1667355
0.1667584
0.1664451
0.1666077
0.1666536
0.1665456
0.1663608
0.1662423
0.1670933
0.1642855
0.1648166
0.1652127
0.1654529
0.1655126
0.16526
0.1654789
0.1655902
0.1655774
0.1654023
0.1650951
0.1648773
0.1656631
0.1907748
0.1923288
0.1937739
0.1950411
0.1960589
0.1967707
0.1971092
0.197143
0.1969851
0.1986499
0.1892549
0.1907712
0.1921861
0.1934269
0.1944278
0.195124
0.195478
0.1954344
0.1951175
0.1947129
0.1961012
0.1878193
0.1893047
0.1906987
0.1919245
0.1929159
0.1936205
0.1939918
0.1940322
0.1937391
0.193358
0.1932704
0.1957461
0.1864228
0.187874
0.1892426
0.1904489
0.1914294
0.192134
0.1925359
0.1926231
0.1924592
0.1921247
0.1919743
0.192728
0.1951703
0.1850378
0.1864479
0.1877808
0.188957
0.1899151
0.1906115
0.1910204
0.1911505
0.1910369
0.1908088
0.1906211
0.1910998
0.1918858
0.1942318
0.1836525
0.185014
0.1862993
0.1874326
0.1883563
0.1890293
0.1894315
0.1895656
0.1894813
0.1892655
0.1891113
0.1894327
0.1898859
0.1906325
0.1928634
0.1822683
0.1835745
0.184802
0.1858814
0.1867597
0.1873985
0.1877755
0.1878932
0.1877839
0.187543
0.1873275
0.1875983
0.187847
0.1882235
0.1888851
0.1908088
0.1808978
0.1821444
0.1833075
0.1843266
0.1851535
0.1857509
0.1860936
0.1861712
0.1860021
0.1856503
0.1852981
0.1854358
0.185581
0.185718
0.1859892
0.1863786
0.1892274
0.1795624
0.180749
0.1818473
0.1828066
0.1835834
0.1841405
0.1844469
0.184477
0.1842108
0.1836562
0.1829501
0.182873
0.1828303
0.182838
0.182866
0.1828836
0.184012
0.1867118
0.1782904
0.1794232
0.1804664
0.1813764
0.1821132
0.1826399
0.1829213
0.1829161
0.1825588
0.1817039
0.1799634
0.179538
0.1793394
0.1792431
0.1792007
0.1790126
0.179666
0.1805585
0.1829634
0.1737327
0.1743087
0.1746764
0.1748892
0.1749495
0.1747347
0.1751156
0.1755109
0.1761053
0.1780545
0.1697706
0.1703897
0.1708415
0.1711173
0.171205
0.1709561
0.1712466
0.1714178
0.1715632
0.1718697
0.1733139
0.166931
0.1675125
0.1679475
0.1682184
0.1682988
0.168054
0.1682993
0.1684399
0.1684397
0.1683821
0.1684076
0.1694821
0.1649274
0.165481
0.1659004
0.1661655
0.1662531
0.1660319
0.166288
0.1664409
0.1664757
0.1663548
0.1661111
0.1659652
0.1668622
0.1636362
0.1641828
0.1646037
0.1648813
0.1649937
0.1648206
0.1651108
0.165321
0.1654226
0.1653987
0.1651706
0.1648411
0.1646679
0.1655076
0.1891777
0.1906672
0.1920502
0.1932612
0.1942363
0.1949083
0.1952284
0.1951135
0.1946019
0.1936411
0.193234
0.1877178
0.1891743
0.1905311
0.1917203
0.1926785
0.1933508
0.1936795
0.1936401
0.1931762
0.1924387
0.1917605
0.1939057
0.1863361
0.1877655
0.1891051
0.1902816
0.1912344
0.1919116
0.1922788
0.1923081
0.1920377
0.1915199
0.1911227
0.1916829
0.194012
0.1849897
0.1863886
0.1877062
0.1888665
0.1898096
0.1904911
0.1908815
0.1909831
0.1908214
0.1905193
0.1902393
0.190641
0.1913511
0.1936676
0.1836525
0.185014
0.1862993
0.1874326
0.1883563
0.1890293
0.1894315
0.1895656
0.1894813
0.1892655
0.1891113
0.1894327
0.1898859
0.1906325
0.1928634
0.1823131
0.1836296
0.184871
0.1859649
0.1868568
0.1875091
0.1879026
0.1880458
0.1879789
0.1878027
0.1876657
0.187999
0.1883112
0.1887502
0.1894664
0.191393
0.1809729
0.1822378
0.1834252
0.1844689
0.1853186
0.1859382
0.1863088
0.1864322
0.1863463
0.1861343
0.1859646
0.1862384
0.1865135
0.1867713
0.1871539
0.1876344
0.1905093
0.1796443
0.1808531
0.1819799
0.1829669
0.1837681
0.1843488
0.1846855
0.1847712
0.1846225
0.1843085
0.1839961
0.1841692
0.184334
0.1845162
0.1846961
0.1848535
0.1861226
0.1889293
0.1783483
0.1795002
0.1805659
0.1814963
0.1822501
0.1827924
0.1830943
0.1831323
0.1828904
0.1823757
0.181728
0.1816856
0.1816955
0.1817428
0.1818374
0.181806
0.1826507
0.1837564
0.1864173
0.1771121
0.1782133
0.1792266
0.1801105
0.1808264
0.1813398
0.1816173
0.1816207
0.1812882
0.180484
0.178838
0.1784669
0.1783187
0.1782894
0.1783057
0.1782155
0.1787989
0.1794366
0.1803076
0.182678
0.1728311
0.173421
0.173821
0.174079
0.1742124
0.1740848
0.174547
0.174915
0.1752942
0.1758675
0.1777298
0.1689881
0.1696216
0.1700994
0.1704195
0.1705685
0.1704199
0.170786
0.1710653
0.1712233
0.1713526
0.17159
0.1729957
0.1662202
0.166816
0.1672768
0.1675863
0.1677256
0.1675657
0.1678955
0.168131
0.1682604
0.1682472
0.1681299
0.168127
0.1692469
0.1642556
0.164823
0.1652653
0.1655657
0.1657033
0.1655586
0.1658821
0.1661295
0.1662727
0.1662963
0.166122
0.1658559
0.1657545
0.1667054
0.1629789
0.1635371
0.1639776
0.1642849
0.1644404
0.1643305
0.164678
0.1649603
0.1651619
0.1652536
0.1651807
0.1649337
0.1646481
0.1645258
0.1654282
0.1839686
0.1876437
0.1890747
0.1904013
0.1915624
0.1924966
0.1931465
0.1934454
0.1933417
0.1927067
0.1914549
0.1891007
0.1905336
0.1862385
0.1876405
0.1889447
0.1900866
0.1910082
0.1916552
0.1919829
0.1919396
0.1915131
0.1906704
0.1897251
0.1899076
0.1919605
0.1849062
0.1862844
0.1875743
0.1887063
0.1896232
0.1902789
0.1906368
0.1906846
0.1904241
0.1899538
0.1894484
0.1896704
0.1902076
0.1924281
0.1836062
0.1849569
0.1862276
0.1873457
0.1882552
0.188914
0.1892989
0.1894061
0.1892769
0.1889921
0.1887535
0.1890058
0.1893878
0.1900681
0.1922802
0.1823131
0.1836296
0.184871
0.1859649
0.1868568
0.1875091
0.1879026
0.1880458
0.1879789
0.1878027
0.1876657
0.187999
0.1883112
0.1887502
0.1894664
0.191393
0.1810163
0.1822909
0.1834918
0.1845493
0.185412
0.1860445
0.1864308
0.1865785
0.1865328
0.186382
0.1862859
0.1866173
0.1869497
0.1872628
0.1876973
0.1882197
0.1910936
0.179717
0.1809435
0.1820937
0.1831043
0.1839272
0.1845291
0.1848926
0.1850221
0.1849527
0.1847716
0.1846318
0.1849319
0.185216
0.1855072
0.1857843
0.1860286
0.1873798
0.1902108
0.1784277
0.1796011
0.1806942
0.1816511
0.1824285
0.1829933
0.1833243
0.1834156
0.1832862
0.1830014
0.1827285
0.1829215
0.1831244
0.1833303
0.1835603
0.1836486
0.1846227
0.1858679
0.1886327
0.1771683
0.178288
0.1793229
0.1802265
0.1809588
0.1814871
0.1817844
0.1818293
0.1816076
0.1811296
0.1805292
0.1805201
0.1805646
0.1806644
0.1807996
0.1808463
0.1815909
0.1824194
0.1835024
0.1861246
0.1759661
0.1770373
0.1780228
0.178882
0.1795785
0.1800791
0.1803528
0.1803635
0.1800533
0.1792932
0.1777328
0.1774046
0.1773022
0.1773193
0.1774006
0.177377
0.1780155
0.1785866
0.1792086
0.1800582
0.1823347
0.171932
0.1725319
0.172954
0.1732505
0.1734347
0.1733925
0.1739078
0.1743591
0.1747141
0.1750772
0.1755792
0.1773974
0.1682023
0.1688448
0.169343
0.1696954
0.1698954
0.1698209
0.1702585
0.1706147
0.1708828
0.1710277
0.1710964
0.1713039
0.1727535
0.1655033
0.1661093
0.1665893
0.16693
0.1671143
0.1670251
0.1674147
0.1677358
0.1679614
0.1680796
0.1680124
0.1678721
0.1679137
0.1690871
0.1635775
0.164155
0.1646151
0.1649432
0.1651218
0.1650379
0.1654155
0.1657311
0.1659698
0.1661031
0.1660775
0.1658842
0.1656619
0.1656115
0.1666252
0.1623161
0.1628831
0.1633391
0.1636704
0.1638607
0.1638036
0.1641939
0.1645341
0.1648086
0.1650014
0.1650475
0.164958
0.1647538
0.1645173
0.1644533
0.1782901
0.1810548
0.1833863
0.1861673
0.187545
0.1888204
0.1899357
0.1908347
0.1914609
0.1917608
0.1916592
0.1910741
0.1897598
0.187264
0.1868217
0.1884338
0.1848124
0.1861643
0.1874204
0.1885195
0.1894069
0.1900341
0.1903551
0.190335
0.1899295
0.1891578
0.1881486
0.1880237
0.1882576
0.1902566
0.1835257
0.1848566
0.1861008
0.187192
0.1880766
0.188711
0.189065
0.1891215
0.1888999
0.1884579
0.1880115
0.1881023
0.1883239
0.1888572
0.1910001
0.1822683
0.1835745
0.184802
0.1858814
0.1867597
0.1873985
0.1877755
0.1878932
0.1877839
0.187543
0.1873275
0.1875983
0.187847
0.1882235
0.1888851
0.1908088
0.1810163
0.1822909
0.1834918
0.1845493
0.185412
0.1860445
0.1864308
0.1865785
0.1865328
0.186382
0.1862859
0.1866173
0.1869497
0.1872628
0.1876973
0.1882197
0.1910936
0.179759
0.1809949
0.182158
0.1831818
0.1840173
0.1846315
0.18501
0.1851626
0.1851316
0.1850085
0.1849383
0.1852919
0.1856285
0.1859694
0.1862919
0.1865771
0.1879658
0.190795
0.1784982
0.1796885
0.1808042
0.1817839
0.1825821
0.1831673
0.1835239
0.1836572
0.1836037
0.1834455
0.1833366
0.1836489
0.1839626
0.1842677
0.1845845
0.1847476
0.1857996
0.1871262
0.1899134
0.1772453
0.1783858
0.1794472
0.1803763
0.1811312
0.1816812
0.1820065
0.1821026
0.1819889
0.1817309
0.1814884
0.1817021
0.1819271
0.182173
0.1824295
0.1825816
0.1834357
0.184393
0.1856145
0.1883375
0.1760207
0.1771098
0.1781162
0.1789943
0.1797066
0.1802216
0.1805144
0.1805651
0.1803614
0.1799147
0.1793571
0.1793724
0.1794495
0.1795833
0.1797704
0.1798658
0.1806451
0.1813772
0.1821897
0.1832501
0.1857728
0.1748498
0.1758935
0.1768524
0.1776887
0.1783668
0.1788555
0.1791253
0.1791424
0.1788519
0.1781316
0.176647
0.1763569
0.1762894
0.1763478
0.1764734
0.1765205
0.1771884
0.1778168
0.1783756
0.1789821
0.1797583
0.1819834
0.1710388
0.1716443
0.1720838
0.1724078
0.1726353
0.1726544
0.1732247
0.1737305
0.1741708
0.1745128
0.1748142
0.1752842
0.1771443
0.167416
0.1680643
0.1685769
0.1689552
0.1691934
0.1691813
0.1696672
0.170096
0.1704425
0.1706992
0.1707895
0.1708343
0.1710862
0.1725889
0.1647832
0.1653963
0.1658909
0.1662558
0.1664769
0.1664433
0.1668808
0.1672625
0.1675748
0.1677905
0.1678591
0.1677725
0.1676762
0.167769
0.1690054
0.1628953
0.1634802
0.1639543
0.1643048
0.1645163
0.1644829
0.1649007
0.1652712
0.1655789
0.1658087
0.1658962
0.165854
0.1657035
0.1655305
0.1655386
0.16165
0.1622234
0.1626917
0.1630426
0.1632616
0.163248
0.1636723
0.164056
0.1643891
0.1646556
0.1648055
0.1648369
0.164789
0.1646319
0.1644506
0.1743652
0.1760448
0.1780082
0.1798213
0.1805544
0.1825186
0.1847438
0.1860725
0.1873012
0.188375
0.189241
0.1898485
0.1901436
0.1900686
0.1895156
0.1883027
0.1858557
0.185164
0.1850384
0.1867156
0.1834351
0.1847409
0.1859529
0.1870128
0.1878692
0.1884766
0.1887958
0.1887882
0.18843
0.1877059
0.1867904
0.1865679
0.1865121
0.1868048
0.188777
0.1821906
0.1834778
0.1846799
0.1857336
0.1865882
0.1872037
0.1875515
0.1876211
0.1874242
0.1870357
0.1866261
0.1867495
0.1868551
0.187095
0.1876376
0.1895269
0.1809729
0.1822378
0.1834252
0.1844689
0.1853186
0.1859382
0.1863088
0.1864322
0.1863463
0.1861343
0.1859646
0.1862384
0.1865135
0.1867713
0.1871539
0.1876344
0.1905093
0.179759
0.1809949
0.182158
0.1831818
0.1840173
0.1846315
0.18501
0.1851626
0.1851316
0.1850085
0.1849383
0.1852919
0.1856285
0.1859694
0.1862919
0.1865771
0.1879658
0.190795
0.1785389
0.1797383
0.1808664
0.1818588
0.182669
0.183266
0.1836371
0.1837926
0.1837757
0.1836728
0.1836297
0.1839922
0.1843547
0.1847049
0.1850621
0.1852605
0.186349
0.1877127
0.1904973
0.1773138
0.1784706
0.1795538
0.1805047
0.1812797
0.1818492
0.1821991
0.1823356
0.1822946
0.1821577
0.1820715
0.1823978
0.1827264
0.1830639
0.1833986
0.1836164
0.1845366
0.1855715
0.1868735
0.1896171
0.1760955
0.1772047
0.1782367
0.1791395
0.1798735
0.1804094
0.1807291
0.1808291
0.1807292
0.1804936
0.1802787
0.1805056
0.1807525
0.1810217
0.1813194
0.1815079
0.1823827
0.1832239
0.1841646
0.1853623
0.187982
0.1749029
0.1759639
0.1769431
0.1777977
0.178491
0.1789936
0.1792816
0.1793373
0.1791496
0.1787309
0.1782101
0.1782469
0.1783473
0.1785124
0.1787325
0.1788857
0.1796763
0.1804453
0.181165
0.1819614
0.1829467
0.1854126
0.1737625
0.1747792
0.1757139
0.1765282
0.1771891
0.1776664
0.1779324
0.177955
0.1776824
0.176998
0.1755821
0.1753238
0.1752866
0.1753756
0.1755401
0.175636
0.1763418
0.1770011
0.1776193
0.178166
0.1787097
0.1794514
0.1817158
0.1701533
0.1707618
0.1712135
0.1715597
0.1718188
0.1718902
0.1724947
0.1730566
0.1735529
0.1739822
0.1742689
0.1745452
0.1750599
0.1769723
0.1666316
0.1672829
0.1678062
0.168204
0.1684735
0.1685097
0.1690345
0.1695125
0.1699326
0.1702691
0.1704758
0.170546
0.1706351
0.1709386
0.1725046
0.164062
0.1646798
0.1651856
0.1655697
0.16582
0.1658328
0.1663051
0.1667354
0.1671091
0.1674125
0.1675821
0.1676337
0.1675902
0.1675434
0.1676951
0.1622112
0.1628012
0.1632863
0.1636549
0.1638934
0.1639017
0.1643513
0.1647624
0.1651257
0.1654254
0.1656123
0.1656849
0.1656842
0.1655811
0.1654634
0.1609822
0.1615602
0.1620382
0.1624052
0.162648
0.1626712
0.1631217
0.16354
0.163917
0.1642428
0.1644689
0.1646055
0.164677
0.1646745
0.1645698
0.1718213
0.1725532
0.1741449
0.1751793
0.1757956
0.1774833
0.1789157
0.1793618
0.1798035
0.1815093
0.1833691
0.1846526
0.1858383
0.1868741
0.1877102
0.1882989
0.1885934
0.1885341
0.1880365
0.1868979
0.1846343
0.1839009
0.183525
0.183568
0.1852647
0.1821031
0.1833663
0.1845374
0.1855612
0.1863891
0.1869789
0.1872934
0.1873021
0.1869759
0.186321
0.1854716
0.1853069
0.1851649
0.1851851
0.1855364
0.1873067
0.1808978
0.1821444
0.1833075
0.1843266
0.1851535
0.1857509
0.1860936
0.1861712
0.1860021
0.1856503
0.1852981
0.1854358
0.185581
0.185718
0.1859892
0.1863786
0.1892274
0.179717
0.1809435
0.1820937
0.1831043
0.1839272
0.1845291
0.1848926
0.1850221
0.1849527
0.1847716
0.1846318
0.1849319
0.185216
0.1855072
0.1857843
0.1860286
0.1873798
0.1902108
0.1785389
0.1797383
0.1808664
0.1818588
0.182669
0.183266
0.1836371
0.1837926
0.1837757
0.1836728
0.1836297
0.1839922
0.1843547
0.1847049
0.1850621
0.1852605
0.186349
0.1877127
0.1904973
0.1773532
0.1785188
0.1796139
0.1805772
0.1813637
0.1819446
0.1823083
0.1824661
0.1824602
0.1823762
0.1823526
0.1827263
0.1831003
0.1834794
0.1838505
0.1840992
0.1850504
0.1861217
0.1874605
0.1902004
0.176162
0.177287
0.17834
0.1792639
0.1800172
0.1805719
0.1809153
0.1810541
0.181024
0.1809046
0.180839
0.1811726
0.181517
0.1818713
0.1822404
0.1824871
0.1834194
0.1843265
0.1853444
0.1866219
0.1892598
0.1749757
0.1760561
0.17706
0.1779385
0.1786527
0.1791754
0.1794895
0.1795926
0.1795048
0.1792891
0.1790972
0.1793355
0.1795963
0.179888
0.1802096
0.1804465
0.1813205
0.1821848
0.1830133
0.1839374
0.1850586
0.187618
0.1738142
0.1748477
0.1758019
0.176634
0.1773097
0.1778003
0.178084
0.1781438
0.1779703
0.1775766
0.1770887
0.1771424
0.1772631
0.1774502
0.1777002
0.177891
0.1787062
0.1794881
0.1802469
0.1809543
0.1816871
0.1826362
0.1851383
0.172701
0.1736937
0.1746046
0.1753989
0.1760433
0.17651
0.1767721
0.1767995
0.176543
0.1758912
0.1745378
0.1743073
0.1742946
0.1744096
0.1746024
0.1747408
0.175466
0.1761643
0.176815
0.1774232
0.177914
0.1784311
0.179218
0.181534
0.1692767
0.1698861
0.1703468
0.1707097
0.1709946
0.1711056
0.1717377
0.1723347
0.1728882
0.173375
0.1737537
0.1740195
0.1743407
0.1749076
0.1768842
0.1658505
0.166503
0.167034
0.1674471
0.1677408
0.1678173
0.168369
0.1688867
0.1693569
0.1697681
0.1700581
0.1702474
0.170361
0.1705001
0.1708631
0.1633414
0.163962
0.1644762
0.1648756
0.1651498
0.1652005
0.1657001
0.1661658
0.1665889
0.1669545
0.1672147
0.1673692
0.1674626
0.1674667
0.1674756
0.1615264
0.16212
0.1626136
0.1629969
0.1632578
0.1633012
0.163775
0.1642185
0.164623
0.164979
0.1652382
0.1654116
0.1655245
0.1655693
0.1655187
0.1603138
0.1608951
0.1613808
0.1617609
0.1620238
0.1620782
0.1625495
0.1629944
0.1634065
0.1637769
0.1640644
0.1642783
0.1644537
0.1645689
0.1646162
0.1705626
0.1702798
0.1716174
0.1719406
0.1723546
0.1737118
0.1745842
0.1749508
0.17533
0.176756
0.1781096
0.1784888
0.1786734
0.1789233
0.1804273
0.1820393
0.1832811
0.1844271
0.1854278
0.1862363
0.1868083
0.1870994
0.1870588
0.1866005
0.1855531
0.1834336
0.1827983
0.182377
0.1821777
0.1823153
0.1838309
0.1808132
0.1820367
0.1831701
0.1841605
0.1849618
0.1855347
0.1858457
0.1858652
0.185573
0.1849686
0.1842011
0.1840717
0.183991
0.1839346
0.1840308
0.1842693
0.1870083
0.1796443
0.1808531
0.1819799
0.1829669
0.1837681
0.1843488
0.1846855
0.1847712
0.1846225
0.1843085
0.1839961
0.1841692
0.184334
0.1845162
0.1846961
0.1848535
0.1861226
0.1889293
0.1784982
0.1796885
0.1808042
0.1817839
0.1825821
0.1831673
0.1835239
0.1836572
0.1836037
0.1834455
0.1833366
0.1836489
0.1839626
0.1842677
0.1845845
0.1847476
0.1857996
0.1871262
0.1899134
0.1773532
0.1785188
0.1796139
0.1805772
0.1813637
0.1819446
0.1823083
0.1824661
0.1824602
0.1823762
0.1823526
0.1827263
0.1831003
0.1834794
0.1838505
0.1840992
0.1850504
0.1861217
0.1874605
0.1902004
0.1762003
0.1773338
0.1783983
0.1793341
0.1800985
0.1806642
0.1810209
0.1811801
0.1811838
0.1811149
0.1811091
0.1814876
0.1818747
0.1822676
0.18267
0.182944
0.1839032
0.1848412
0.1858952
0.1872091
0.1898423
0.1750403
0.176136
0.1771603
0.1780591
0.178792