/*--------------------------------*- C++ -*----------------------------------*\
| =========                 |                                                 |
| \\      /  F ield         | OpenFOAM: The Open Source CFD Toolbox           |
|  \\    /   O peration     | Version:  2306                                  |
|   \\  /    A nd           | Website:  www.openfoam.com                      |
|    \\/     M anipulation  |                                                 |
\*---------------------------------------------------------------------------*/
FoamFile
{
    version     2.0;
    format      ascii;
    arch        "LSB;label=32;scalar=64";
    class       volScalarField;
    location    "1.5/fuel";
    object      diffSp.H2;
}
// * * * * * * * * * * * * * * * * * * * * * * * * * * * * * * * * * * * * * //

dimensions      [0 2 -1 0 0 0 0];

internalField   nonuniform List<scalar> 
16000
(
0.0001014114
0.0001013987
0.0001016702
0.0001014243
0.0001013671
0.0001016732
0.0001014118
0.0001019003
0.0001016807
0.0001014512
0.0001013081
0.0001016778
0.0001013807
0.0001019072
0.0001016837
0.0001014391
0.0001021067
0.0001019087
0.000101703
0.0001014826
0.0001011997
0.0001016845
0.0001013226
0.000101921
0.0001016884
0.0001014089
0.0001021145
0.0001019156
0.0001017062
0.000101471
0.0001022977
0.0001021136
0.0001019271
0.000101729
0.0001015458
0.0001010489
0.0001016855
0.0001012156
0.0001019445
0.0001016953
0.0001013524
0.0001021305
0.0001019295
0.0001017113
0.0001014419
0.0001023054
0.0001021214
0.0001019342
0.0001017325
0.0001015352
0.0001024776
0.0001023033
0.0001021291
0.0001019488
0.0001017817
0.0001523414
0.000100854
0.0001016877
0.0001010669
0.0001019741
0.0001016964
0.0001012478
0.0001021581
0.000101953
0.0001017187
0.0001013871
0.0001023214
0.0001021374
0.0001019483
0.000101738
0.0001015081
0.000102485
0.000102311
0.0001021369
0.000101956
0.0001017857
0.0001523259
0.0001026485
0.0001024823
0.0001023166
0.0001021474
0.0001019929
0.0001526914
0.0001523524
0.0001006754
0.0001016608
0.0001008745
0.0001020163
0.0001016986
0.0001011021
0.0001021955
0.0001019824
0.0001017203
0.0001012851
0.0001023492
0.0001021649
0.000101972
0.0001017462
0.0001014566
0.0001025003
0.0001023271
0.0001021531
0.0001019703
0.0001017923
0.0001522862
0.0001026553
0.0001024896
0.0001023243
0.0001021554
0.0001020005
0.0001526975
0.0001523371
0.0001028112
0.0001026523
0.0001024937
0.0001023323
0.0001021851
0.0001530051
0.0001527005
0.0001523673
0.0001005404
0.0001016281
0.0001006981
0.0001020384
0.0001016719
0.0001009126
0.0001022487
0.0001020242
0.000101723
0.0001011427
0.0001023878
0.0001022021
0.0001020015
0.0001017485
0.0001013591
0.000102527
0.0001023547
0.0001021807
0.0001019944
0.000101802
0.0001522104
0.0001026698
0.000102505
0.0001023404
0.0001021717
0.0001020155
0.0001527077
0.000152298
0.0001028176
0.0001026592
0.0001025011
0.0001023401
0.0001021933
0.0001530164
0.0001527066
0.0001523523
0.0001029664
0.0001028144
0.0001026623
0.0001025074
0.000102365
0.0001532909
0.0001530125
0.0001527127
0.0001523806
0.000100469
0.0001015975
0.0001005646
0.0001020513
0.0001016396
0.0001007388
0.0001022863
0.0001020459
0.0001016969
0.0001009564
0.0001024425
0.0001022546
0.0001020431
0.0001017518
0.0001012222
0.0001025645
0.0001023931
0.0001022178
0.0001020241
0.0001018061
0.0001520664
0.000102695
0.0001025315
0.0001023681
0.0001021994
0.0001020404
0.0001527225
0.0001522232
0.0001028312
0.0001026737
0.0001025165
0.0001023563
0.00010221
0.000153039
0.0001527168
0.0001523138
0.0001029724
0.0001028209
0.0001026692
0.0001025148
0.000102373
0.0001533031
0.0001530238
0.0001527189
0.0001523659
0.0001031144
0.000102969
0.0001028232
0.0001026743
0.0001025362
0.0001535587
0.000153297
0.0001530226
0.0001527237
0.0001523959
0.000100469
0.0001015799
0.000100494
0.0001020557
0.0001016094
0.000100607
0.0001023145
0.0001020587
0.0001016652
0.0001007851
0.0001024844
0.0001022918
0.0001020647
0.0001017263
0.0001010406
0.0001026174
0.0001024471
0.00010227
0.0001020657
0.0001018113
0.0001518639
0.0001027306
0.0001025687
0.0001024063
0.0001022365
0.000102071
0.0001527289
0.0001520808
0.0001028548
0.0001026987
0.000102543
0.0001023841
0.0001022384
0.0001530763
0.0001527315
0.0001522403
0.0001029852
0.0001028344
0.0001026837
0.0001025303
0.0001023895
0.0001533282
0.0001530463
0.0001527292
0.0001523281
0.00010312
0.0001029751
0.0001028296
0.0001026812
0.0001025437
0.0001535707
0.0001533092
0.0001530339
0.0001527299
0.0001523816
0.0001032555
0.0001031166
0.0001029768
0.0001028338
0.0001026998
0.0001538139
0.0001535638
0.0001533054
0.0001530316
0.0001527362
0.0003711775
0.0001005404
0.0001015799
0.000100494
0.0001020569
0.0001015921
0.0001005374
0.0001023311
0.0001020631
0.0001016356
0.0001006552
0.0001025172
0.0001023197
0.0001020776
0.0001016953
0.0001008729
0.0001026595
0.0001024886
0.0001023069
0.0001020873
0.0001017872
0.0001515948
0.0001027807
0.0001026211
0.00010246
0.0001022886
0.0001021135
0.0001527366
0.0001518804
0.0001028884
0.000102734
0.0001025801
0.0001024222
0.000102276
0.000153122
0.0001527378
0.0001520997
0.0001030073
0.0001028579
0.0001027087
0.0001025569
0.0001024177
0.0001533706
0.0001530834
0.000152744
0.0001522557
0.0001031321
0.0001029878
0.0001028432
0.0001026958
0.0001025594
0.0001535955
0.0001533342
0.0001530563
0.0001527403
0.0001523445
0.0001032608
0.0001031223
0.0001029828
0.0001028403
0.0001027069
0.0001538252
0.0001535757
0.0001533176
0.0001530429
0.0001527425
0.0003711455
0.00010339
0.0001032574
0.0001031235
0.0001029863
0.0001028567
0.0001540581
0.0001538181
0.0001535708
0.0001533128
0.0001530419
0.0003719828
0.0003712917
0.0001006754
0.0001015975
0.0001005646
0.0001020569
0.0001015921
0.0001005374
0.0001023389
0.0001020643
0.0001016185
0.0001005864
0.0001025377
0.0001023361
0.0001020821
0.0001016662
0.0001007452
0.0001026928
0.000102521
0.0001023346
0.0001021002
0.0001017573
0.0001513462
0.0001028213
0.0001026627
0.0001025011
0.0001023252
0.0001021355
0.0001527008
0.0001516138
0.0001029357
0.0001027837
0.0001026321
0.0001024757
0.0001023284
0.000153185
0.000152745
0.0001519015
0.000103039
0.0001028913
0.0001027439
0.0001025938
0.0001024562
0.0001534267
0.0001531285
0.0001527502
0.0001521169
0.000103153
0.0001030099
0.0001028667
0.0001027208
0.0001025863
0.0001536376
0.0001533763
0.0001530932
0.0001527552
0.0001522734
0.0001032722
0.0001031343
0.0001029956
0.0001028539
0.0001027216
0.0001538487
0.0001536003
0.0001533424
0.0001530652
0.000152753
0.0003710622
0.000103395
0.0001032627
0.0001031292
0.0001029923
0.0001028632
0.0001540687
0.0001538293
0.0001535827
0.000153325
0.0001530532
0.0003719983
0.000371266
0.000103518
0.0001033915
0.0001032635
0.000103132
0.0001030069
0.0001542923
0.0001540615
0.000153824
0.000153577
0.0001533214
0.0003727087
0.0003720685
0.0003714495
0.000100854
0.0001016281
0.0001006981
0.0001020557
0.0001016094
0.000100607
0.0001023389
0.0001020643
0.0001016185
0.0001005864
0.0001025478
0.0001023439
0.0001020833
0.0001016494
0.0001006776
0.0001027143
0.0001025414
0.000102351
0.0001021048
0.0001017289
0.0001511569
0.0001028538
0.0001026958
0.0001025333
0.0001023527
0.0001021487
0.0001526564
0.0001513678
0.0001029744
0.0001028239
0.0001026734
0.0001025164
0.0001023651
0.0001532176
0.0001527092
0.0001516377
0.0001030835
0.0001029381
0.0001027932
0.0001026456
0.0001025098
0.0001535045
0.0001531906
0.0001527572
0.0001519209
0.0001031829
0.0001030414
0.0001028999
0.0001027559
0.0001026235
0.0001536948
0.0001534317
0.0001531378
0.0001527612
0.0001521365
0.0001032919
0.0001031551
0.0001030176
0.0001028773
0.0001027469
0.0001538888
0.0001536421
0.0001533843
0.0001531019
0.000152768
0.0003709018
0.0001034058
0.000103274
0.0001031412
0.0001030051
0.000102877
0.0001540907
0.0001538527
0.0001536072
0.0001533497
0.0001530755
0.0003720242
0.0003711974
0.0001035228
0.0001033966
0.0001032689
0.0001031377
0.000103013
0.0001543021
0.000154072
0.0001538352
0.0001535889
0.0001533335
0.0003727356
0.0003720839
0.0003714329
0.0001036399
0.0001035193
0.0001033971
0.0001032712
0.0001031508
0.0001545168
0.0001542951
0.0001540666
0.0001538292
0.0001535842
0.0003733742
0.0003727752
0.0003721858
0.0003715947
0.0001010489
0.0001016608
0.0001008745
0.0001020513
0.0001016396
0.0001007388
0.0001023311
0.0001020631
0.0001016356
0.0001006552
0.0001025478
0.0001023439
0.0001020833
0.0001016494
0.0001006776
0.0001027249
0.0001025515
0.0001023587
0.0001021061
0.0001017126
0.0001510566
0.0001028748
0.0001027171
0.0001025536
0.000102369
0.0001021536
0.0001526145
0.0001511805
0.0001030054
0.0001028561
0.0001027062
0.0001025484
0.0001023927
0.0001532373
0.0001526652
0.0001513943
0.0001031202
0.0001029764
0.0001028331
0.0001026865
0.0001025505
0.0001535588
0.0001532225
0.0001527214
0.0001516595
0.0001032248
0.0001030855
0.0001029464
0.0001028049
0.0001026753
0.0001537744
0.0001535085
0.0001531993
0.000152768
0.0001519428
0.0001033203
0.0001031848
0.0001030489
0.0001029104
0.0001027821
0.0001539442
0.0001536987
0.0001534391
0.000153146
0.0001527741
0.0003705869
0.0001034245
0.0001032937
0.0001031619
0.0001030271
0.0001029007
0.0001541284
0.0001538925
0.0001536487
0.0001533913
0.000153112
0.0003720606
0.0003710633
0.0001035331
0.0001034073
0.0001032802
0.0001031497
0.0001030259
0.0001543227
0.0001540939
0.0001538584
0.0001536132
0.0001533582
0.0003727883
0.0003721095
0.0003713854
0.0001036445
0.0001035241
0.0001034021
0.0001032766
0.0001031565
0.0001545259
0.0001543049
0.000154077
0.0001538403
0.000153596
0.0003734029
0.0003728002
0.000372202
0.0003715889
0.0001037557
0.0001036409
0.0001035243
0.000103404
0.0001032883
0.0001547318
0.0001545191
0.0001542994
0.0001540709
0.0001538353
0.0003740017
0.0003734251
0.0003728663
0.0003722888
0.0003717443
0.0001011997
0.0001016877
0.0001010669
0.0001020384
0.0001016719
0.0001009126
0.0001023145
0.0001020587
0.0001016652
0.0001007851
0.0001025377
0.0001023361
0.0001020821
0.0001016662
0.0001007452
0.0001027249
0.0001025515
0.0001023587
0.0001021061
0.0001017126
0.0001510566
0.0001028853
0.0001027276
0.0001025636
0.0001023768
0.0001021551
0.0001525903
0.0001510812
0.0001030256
0.000102877
0.0001027273
0.0001025686
0.000102409
0.0001532445
0.0001526238
0.0001512089
0.0001031498
0.0001030072
0.000102865
0.000102719
0.0001025824
0.0001535998
0.0001532419
0.0001526778
0.0001514186
0.0001032598
0.0001031219
0.0001029844
0.0001028445
0.0001027161
0.0001538348
0.0001535621
0.0001532305
0.0001527321
0.0001516838
0.00010336
0.0001032264
0.0001030928
0.0001029567
0.0001028312
0.0001540212
0.0001537775
0.0001535151
0.0001532067
0.0001527807
0.0003701336
0.0001034515
0.0001033219
0.0001031915
0.0001030583
0.0001029339
0.0001541808
0.0001539473
0.0001537048
0.0001534455
0.0001531557
0.000372073
0.0003707793
0.0001035508
0.000103426
0.0001032998
0.0001031704
0.0001030481
0.000154358
0.0001541313
0.000153898
0.0001536544
0.0001533995
0.0003728739
0.0003721457
0.0003712896
0.0001036542
0.0001035343
0.0001034129
0.0001032879
0.0001031686
0.0001545452
0.0001543254
0.0001540988
0.0001538634
0.0001536202
0.0003734609
0.0003728487
0.0003722295
0.0003715666
0.00010376
0.0001036455
0.0001035291
0.0001034091
0.0001032938
0.0001547404
0.0001545282
0.0001543091
0.0001540813
0.0001538463
0.0003740295
0.0003734515
0.0003728896
0.0003723061
0.0003717506
0.0001038656
0.0001037566
0.0001036455
0.0001035307
0.0001034198
0.0001549375
0.0001547337
0.0001545227
0.000154303
0.000154076
0.0003746026
0.0003740394
0.0003734964
0.000372944
0.000372393
0.0001013081
0.0001016855
0.0001012156
0.0001020163
0.0001016986
0.0001011021
0.0001022863
0.0001020459
0.0001016969
0.0001009564
0.0001025172
0.0001023197
0.0001020776
0.0001016953
0.0001008729
0.0001027143
0.0001025414
0.000102351
0.0001021048
0.0001017289
0.0001511569
0.0001028853
0.0001027276
0.0001025636
0.0001023768
0.0001021551
0.0001525903
0.0001510812
0.0001030358
0.0001028874
0.0001027378
0.0001025785
0.0001024168
0.0001532468
0.0001525999
0.0001511106
0.0001031691
0.0001030273
0.0001028858
0.00010274
0.0001026025
0.0001536241
0.0001532491
0.0001526368
0.0001512351
0.0001032879
0.0001031512
0.000103015
0.0001028762
0.0001027485
0.0001538822
0.0001536025
0.0001532496
0.0001526889
0.0001514454
0.0001033932
0.0001032611
0.0001031289
0.0001029945
0.0001028706
0.0001540817
0.000153837
0.0001535679
0.0001532373
0.0001527448
0.0003695286
0.0001034891
0.0001033613
0.0001032329
0.0001031019
0.0001029801
0.0001542538
0.0001540235
0.0001537827
0.0001535207
0.0001532157
0.0003720828
0.0003703399
0.0001035765
0.0001034527
0.0001033279
0.0001032
0.0001030794
0.0001544074
0.0001541833
0.0001539522
0.0001537099
0.0001534531
0.0003729735
0.0003721536
0.0003710493
0.0001036711
0.000103552
0.0001034315
0.0001033075
0.0001031895
0.0001545783
0.0001543604
0.0001541359
0.0001539027
0.0001536612
0.0003735572
0.0003729272
0.0003722702
0.0003715189
0.0001037694
0.0001036552
0.0001035393
0.0001034198
0.0001033052
0.0001547585
0.0001545474
0.0001543295
0.0001541029
0.0001538693
0.0003740864
0.0003735041
0.0003729345
0.0003723365
0.0003717569
0.0001038698
0.0001037609
0.0001036501
0.0001035355
0.0001034249
0.0001549456
0.0001547423
0.0001545318
0.0001543127
0.0001540864
0.0003746288
0.0003740648
0.0003735203
0.0003729655
0.0003724117
0.0001039699
0.0001038664
0.0001037607
0.0001036513
0.0001035452
0.0001551341
0.0001549391
0.0001547368
0.0001545258
0.0001543074
0.0003751803
0.0003746291
0.0003740945
0.0003735554
0.0003730214
0.0001013671
0.0001016845
0.0001013226
0.0001019741
0.0001016964
0.0001012478
0.0001022487
0.0001020242
0.000101723
0.0001011427
0.0001024844
0.0001022918
0.0001020647
0.0001017263
0.0001010406
0.0001026928
0.000102521
0.0001023346
0.0001021002
0.0001017573
0.0001513462
0.0001028748
0.0001027171
0.0001025536
0.000102369
0.0001021536
0.0001526145
0.0001511805
0.0001030358
0.0001028874
0.0001027378
0.0001025785
0.0001024168
0.0001532468
0.0001525999
0.0001511106
0.0001031788
0.0001030374
0.0001028962
0.0001027505
0.0001026124
0.0001536357
0.0001532514
0.0001526133
0.0001511378
0.0001033063
0.0001031704
0.000103035
0.0001028969
0.0001027694
0.0001539121
0.0001536266
0.0001532568
0.0001526483
0.0001512637
0.00010342
0.000103289
0.0001031581
0.0001030248
0.0001029022
0.00015413
0.0001538839
0.0001536079
0.0001532561
0.0001527019
0.0003689742
0.0001035209
0.0001033943
0.0001032673
0.0001031379
0.0001030177
0.0001543124
0.0001540833
0.0001538415
0.0001535727
0.0001532457
0.0003719941
0.0003697499
0.0001036124
0.0001034902
0.0001033671
0.0001032411
0.000103123
0.0001544763
0.0001542556
0.0001540277
0.000153787
0.0001535276
0.0003731086
0.0003721538
0.0003706137
0.0001036957
0.0001035776
0.0001034581
0.0001033355
0.000103219
0.0001546249
0.0001544094
0.0001541874
0.0001539564
0.0001537161
0.00037368
0.0003730138
0.0003722798
0.000371342
0.0001037855
0.0001036721
0.000103557
0.0001034384
0.0001033249
0.0001547896
0.0001545803
0.0001543643
0.0001541398
0.0001539083
0.0003741818
0.0003735914
0.0003730078
0.0003723848
0.0003717696
0.0001038787
0.0001037702
0.0001036598
0.0001035457
0.0001034357
0.0001549627
0.0001547603
0.0001545509
0.0001543329
0.0001541079
0.0003746826
0.0003741163
0.0003735677
0.0003730067
0.000372446
0.0001039739
0.0001038705
0.0001037651
0.0001036559
0.00010355
0.0001551418
0.0001549471
0.0001547453
0.0001545348
0.000154317
0.0003752047
0.0003746529
0.0003741173
0.0003735767
0.0003730413
0.0001040687
0.0001039705
0.0001038701
0.000103766
0.0001036647
0.0001553218
0.0001551354
0.0001549417
0.0001547394
0.0001545295
0.0003757364
0.0003751973
0.0003746707
0.0003741386
0.0003736139
0.0001013987
0.0001016778
0.0001013807
0.0001019445
0.0001016953
0.0001013524
0.0001021955
0.0001019824
0.0001017203
0.0001012851
0.0001024425
0.0001022546
0.0001020431
0.0001017518
0.0001012222
0.0001026595
0.0001024886
0.0001023069
0.0001020873
0.0001017872
0.0001515948
0.0001028538
0.0001026958
0.0001025333
0.0001023527
0.0001021487
0.0001526564
0.0001513678
0.0001030256
0.000102877
0.0001027273
0.0001025686
0.000102409
0.0001532445
0.0001526238
0.0001512089
0.0001031788
0.0001030374
0.0001028962
0.0001027505
0.0001026124
0.0001536357
0.0001532514
0.0001526133
0.0001511378
0.0001033156
0.0001031801
0.000103045
0.0001029072
0.0001027798
0.0001539269
0.0001536381
0.0001532591
0.0001526251
0.0001511675
0.0001034377
0.0001033074
0.0001031772
0.0001030447
0.0001029227
0.0001541611
0.0001539136
0.0001536317
0.0001532633
0.0001526618
0.0003685524
0.0001035465
0.0001034209
0.0001032951
0.0001031668
0.000103048
0.0001543593
0.0001541311
0.0001538879
0.0001536122
0.0001532643
0.0003718932
0.0003692213
0.0001036428
0.0001035217
0.0001033999
0.0001032753
0.0001031588
0.0001545322
0.0001543135
0.0001540868
0.0001538451
0.0001535788
0.0003731739
0.0003720542
0.0003700153
0.0001037299
0.0001036132
0.0001034954
0.0001033745
0.0001032602
0.0001546898
0.0001544776
0.0001542591
0.0001540312
0.0001537926
0.0003738498
0.0003731352
0.000372278
0.0003708704
0.000103809
0.0001036965
0.0001035824
0.000103465
0.0001033529
0.0001548337
0.0001546265
0.0001544128
0.0001541908
0.0001539615
0.0003743079
0.0003736996
0.0003730846
0.0003724027
0.0003716999
0.0001038942
0.0001037863
0.0001036766
0.0001035633
0.0001034543
0.0001549921
0.0001547912
0.0001545835
0.0001543675
0.0001541446
0.0003747735
0.0003742025
0.0003736467
0.0003730754
0.000372506
0.0001039825
0.0001038794
0.0001037743
0.0001036656
0.0001035603
0.0001551579
0.0001549641
0.0001547632
0.0001545538
0.0001543371
0.0003752551
0.0003747016
0.000374163
0.0003736182
0.0003730788
0.0001040725
0.0001039745
0.0001038743
0.0001037704
0.0001036693
0.000155329
0.000155143
0.0001549497
0.0001547479
0.0001545385
0.0003757591
0.0003752195
0.000374692
0.0003741586
0.0003736324
0.0001041621
0.0001040691
0.000103974
0.000103875
0.0001037785
0.0001555007
0.0001553228
0.0001551377
0.0001549439
0.0001547426
0.0003762712
0.0003757455
0.0003752278
0.0003747025
0.000374182
0.0001014114
0.0001016732
0.0001014118
0.000101921
0.0001016884
0.0001014089
0.0001021581
0.000101953
0.0001017187
0.0001013871
0.0001023878
0.0001022021
0.0001020015
0.0001017485
0.0001013591
0.0001026174
0.0001024471
0.00010227
0.0001020657
0.0001018113
0.0001518639
0.0001028213
0.0001026627
0.0001025011
0.0001023252
0.0001021355
0.0001527008
0.0001516138
0.0001030054
0.0001028561
0.0001027062
0.0001025484
0.0001023927
0.0001532373
0.0001526652
0.0001513943
0.0001031691
0.0001030273
0.0001028858
0.00010274
0.0001026025
0.0001536241
0.0001532491
0.0001526368
0.0001512351
0.0001033156
0.0001031801
0.000103045
0.0001029072
0.0001027798
0.0001539269
0.0001536381
0.0001532591
0.0001526251
0.0001511675
0.0001034465
0.0001033166
0.0001031868
0.0001030547
0.000102933
0.0001541766
0.0001539282
0.0001536432
0.0001532656
0.0001526389
0.000368329
0.0001035634
0.0001034385
0.0001033134
0.0001031858
0.0001030678
0.00015439
0.0001541619
0.0001539173
0.0001536358
0.0001532713
0.0003718006
0.0003688237
0.0001036673
0.0001035471
0.0001034263
0.0001033029
0.0001031876
0.0001545772
0.00015436
0.0001541341
0.000153891
0.0001536179
0.0003732155
0.0003719525
0.0003694975
0.000103759
0.0001036434
0.0001035267
0.0001034071
0.0001032943
0.0001547431
0.000154533
0.0001543164
0.0001540896
0.0001538499
0.0003739652
0.0003731837
0.000372161
0.0003702416
0.0001038418
0.0001037305
0.0001036179
0.0001035021
0.0001033919
0.000154895
0.0001546908
0.0001544805
0.0001542619
0.0001540357
0.0003744832
0.0003738558
0.0003732029
0.0003723891
0.000371184
0.0001039168
0.0001038097
0.0001037009
0.0001035887
0.0001034809
0.0001550338
0.0001548349
0.0001546293
0.0001544156
0.0001541951
0.0003748959
0.0003743142
0.0003737418
0.0003731441
0.0003725465
0.0001039973
0.0001038949
0.0001037904
0.0001036824
0.000103578
0.0001551858
0.0001549933
0.0001547939
0.0001545862
0.0001543715
0.0003753405
0.0003747836
0.0003742402
0.0003736886
0.0003731442
0.0001040807
0.000103983
0.0001038832
0.0001037797
0.0001036791
0.0001553444
0.0001551591
0.0001549666
0.0001547657
0.0001545573
0.0003758063
0.000375265
0.000374735
0.0003741979
0.0003736679
0.0001041658
0.000104073
0.000103978
0.0001038792
0.0001037829
0.0001555076
0.00015533
0.0001551452
0.0001549519
0.000154751
0.0003762924
0.0003757661
0.0003752475
0.0003747209
0.0003741989
0.0001042503
0.0001041625
0.0001040723
0.0001039785
0.0001038867
0.000155671
0.0001555015
0.0001553248
0.0001551395
0.0001549466
0.000376785
0.0003762737
0.0003757666
0.0003752493
0.0003747335
0.0001016702
0.0001014243
0.0001019072
0.0001016837
0.0001014391
0.0001021305
0.0001019295
0.0001017113
0.0001014419
0.0001023492
0.0001021649
0.000101972
0.0001017462
0.0001014566
0.0001025645
0.0001023931
0.0001022178
0.0001020241
0.0001018061
0.0001520664
0.0001027807
0.0001026211
0.00010246
0.0001022886
0.0001021135
0.0001527366
0.0001518804
0.0001029744
0.0001028239
0.0001026734
0.0001025164
0.0001023651
0.0001532176
0.0001527092
0.0001516377
0.0001031498
0.0001030072
0.000102865
0.000102719
0.0001025824
0.0001535998
0.0001532419
0.0001526778
0.0001514186
0.0001033063
0.0001031704
0.000103035
0.0001028969
0.0001027694
0.0001539121
0.0001536266
0.0001532568
0.0001526483
0.0001512637
0.0001034465
0.0001033166
0.0001031868
0.0001030547
0.000102933
0.0001541766
0.0001539282
0.0001536432
0.0001532656
0.0001526389
0.000368329
0.0001035718
0.0001034473
0.0001033225
0.0001031954
0.0001030777
0.0001544053
0.0001541773
0.0001539318
0.0001536472
0.0001532736
0.000371748
0.0003686142
0.0001036835
0.0001035639
0.0001034438
0.0001033211
0.0001032066
0.0001546067
0.0001543904
0.0001541647
0.0001539201
0.0001536413
0.0003732318
0.0003718638
0.0003691156
0.0001037826
0.0001036678
0.000103552
0.0001034334
0.0001033217
0.000154786
0.0001545776
0.0001543625
0.0001541364
0.0001538952
0.0003740546
0.0003732162
0.0003720539
0.0003697228
0.0001038698
0.0001037595
0.0001036479
0.0001035332
0.0001034244
0.0001549457
0.0001547436
0.0001545354
0.0001543186
0.0001540934
0.0003746137
0.0003739541
0.0003732328
0.0003722506
0.000370486
0.0001039482
0.0001038423
0.0001037348
0.000103624
0.000103518
0.000155092
0.0001548958
0.0001546933
0.0001544828
0.0001542656
0.0003750669
0.0003744777
0.0003738957
0.0003732583
0.0003725477
0.001003926
0.000104019
0.0001039173
0.0001038137
0.0001037066
0.0001036034
0.0001552254
0.0001550347
0.0001548373
0.0001546317
0.0001544192
0.0003754571
0.0003748928
0.0003743384
0.0003737705
0.0003732089
0.000104095
0.0001039978
0.0001038986
0.0001037957
0.000103696
0.0001553708
0.0001551867
0.0001549956
0.0001547962
0.0001545896
0.0003758864
0.0003753422
0.000374808
0.0003742651
0.0003737297
0.0001041737
0.0001040812
0.0001039865
0.0001038881
0.0001037922
0.0001555222
0.0001553453
0.0001551612
0.0001549687
0.0001547687
0.0003763366
0.0003758087
0.0003752876
0.0003747575
0.0003742314
0.0001042539
0.0001041661
0.0001040762
0.0001039825
0.0001038909
0.0001556776
0.0001555083
0.0001553319
0.000155147
0.0001549546
0.0003768048
0.000376293
0.000375785
0.0003752663
0.0003747489
0.0001043334
0.0001042506
0.0001041654
0.0001040765
0.0001039894
0.000155833
0.0001556717
0.0001555032
0.0001553263
0.0001551419
0.0003772777
0.000376782
0.0003762871
0.0003757796
0.0003752701
0.0001019003
0.0001016807
0.0001014512
0.0001021145
0.0001019156
0.0001017062
0.000101471
0.0001023214
0.0001021374
0.0001019483
0.000101738
0.0001015081
0.000102527
0.0001023547
0.0001021807
0.0001019944
0.000101802
0.0001522104
0.0001027306
0.0001025687
0.0001024063
0.0001022365
0.000102071
0.0001527289
0.0001520808
0.0001029357
0.0001027837
0.0001026321
0.0001024757
0.0001023284
0.000153185
0.000152745
0.0001519015
0.0001031202
0.0001029764
0.0001028331
0.0001026865
0.0001025505
0.0001535588
0.0001532225
0.0001527214
0.0001516595
0.0001032879
0.0001031512
0.000103015
0.0001028762
0.0001027485
0.0001538822
0.0001536025
0.0001532496
0.0001526889
0.0001514454
0.0001034377
0.0001033074
0.0001031772
0.0001030447
0.0001029227
0.0001541611
0.0001539136
0.0001536317
0.0001532633
0.0001526618
0.0003685524
0.0001035718
0.0001034473
0.0001033225
0.0001031954
0.0001030777
0.0001544053
0.0001541773
0.0001539318
0.0001536472
0.0001532736
0.000371748
0.0003686142
0.0001036916
0.0001035724
0.0001034526
0.0001033302
0.000103216
0.0001546215
0.0001544056
0.00015418
0.0001539345
0.0001536525
0.0003732376
0.0003718144
0.000368916
0.0001037982
0.0001036839
0.0001035688
0.0001034508
0.0001033399
0.0001548143
0.0001546069
0.0001543926
0.0001541668
0.0001539241
0.0003741088
0.0003732288
0.000371966
0.0003693499
0.0001038924
0.0001037829
0.0001036722
0.0001035584
0.0001034506
0.0001549867
0.0001547862
0.0001545796
0.0001543643
0.0001541398
0.0003747182
0.0003740323
0.0003732546
0.0003721355
0.0003699447
0.0001039752
0.0001038701
0.0001037636
0.0001036539
0.0001035491
0.0001551404
0.0001549461
0.0001547456
0.0001545371
0.0001543217
0.0003751994
0.0003745926
0.0003739768
0.0003732696
0.0003723688
0.001000929
0.0001040492
0.0001039485
0.0001038462
0.0001037404
0.0001036387
0.0001552807
0.0001550925
0.0001548978
0.0001546951
0.0001544859
0.0003756205
0.000375054
0.0003745012
0.0003739246
0.0003733519
0.001008119
0.001004818
0.0001041159
0.0001040194
0.0001039209
0.0001038189
0.0001037202
0.0001554086
0.0001552261
0.0001550367
0.0001548392
0.0001546346
0.0003759968
0.0003754467
0.0003749043
0.0003743487
0.0003737981
0.0001041875
0.0001040954
0.0001040013
0.0001039035
0.0001038083
0.0001555473
0.0001553715
0.0001551887
0.0001549975
0.000154799
0.0003764118
0.0003758811
0.0003753561
0.0003748204
0.0003742882
0.0001042615
0.000104174
0.0001040844
0.000103991
0.0001038998
0.0001556915
0.0001555229
0.0001553471
0.0001551629
0.0001549713
0.0003768463
0.0003763328
0.0003758223
0.0003753001
0.0003747786
0.0001043369
0.0001042541
0.0001041691
0.0001040804
0.0001039934
0.0001558392
0.0001556782
0.00015551
0.0001553335
0.0001551494
0.0003772964
0.0003768
0.0003763042
0.0003757953
0.000375284
0.0001044116
0.0001043336
0.0001042533
0.0001041693
0.0001040867
0.0001559867
0.0001558335
0.0001556731
0.0001555045
0.0001553283
0.0003777495
0.0003772702
0.0003767889
0.000376293
0.0003757919
0.0001021067
0.0001019087
0.000101703
0.0001014826
0.0001023054
0.0001021214
0.0001019342
0.0001017325
0.0001015352
0.0001025003
0.0001023271
0.0001021531
0.0001019703
0.0001017923
0.0001522862
0.000102695
0.0001025315
0.0001023681
0.0001021994
0.0001020404
0.0001527225
0.0001522232
0.0001028884
0.000102734
0.0001025801
0.0001024222
0.000102276
0.000153122
0.0001527378
0.0001520997
0.0001030835
0.0001029381
0.0001027932
0.0001026456
0.0001025098
0.0001535045
0.0001531906
0.0001527572
0.0001519209
0.0001032598
0.0001031219
0.0001029844
0.0001028445
0.0001027161
0.0001538348
0.0001535621
0.0001532305
0.0001527321
0.0001516838
0.00010342
0.000103289
0.0001031581
0.0001030248
0.0001029022
0.00015413
0.0001538839
0.0001536079
0.0001532561
0.0001527019
0.0003689742
0.0001035634
0.0001034385
0.0001033134
0.0001031858
0.0001030678
0.00015439
0.0001541619
0.0001539173
0.0001536358
0.0001532713
0.0003718006
0.0003688237
0.0001036916
0.0001035724
0.0001034526
0.0001033302
0.000103216
0.0001546215
0.0001544056
0.00015418
0.0001539345
0.0001536525
0.0003732376
0.0003718144
0.000368916
0.000103806
0.000103692
0.0001035772
0.0001034595
0.0001033489
0.0001548284
0.0001546216
0.0001544077
0.0001541819
0.0001539383
0.0003741351
0.0003732335
0.0003719184
0.0003691572
0.0001039075
0.0001037984
0.0001036883
0.0001035751
0.0001034679
0.0001550137
0.0001548143
0.0001546087
0.0001543942
0.0001541699
0.0003747851
0.0003740804
0.0003732624
0.0003720467
0.0003695731
0.000103997
0.0001038927
0.0001037869
0.000103678
0.0001035742
0.0001551795
0.0001549867
0.0001547878
0.000154581
0.000154367
0.0003753066
0.0003746862
0.0003740434
0.0003732805
0.0003722335
0.000998862
0.0001040753
0.0001039754
0.0001038739
0.0001037691
0.0001036684
0.000155327
0.0001551405
0.0001549477
0.0001547469
0.0001545397
0.0003757499
0.0003751728
0.0003746011
0.0003739901
0.0003733319
0.001007333
0.001002122
0.000104145
0.0001040495
0.0001039521
0.0001038513
0.000103754
0.0001554613
0.000155281
0.0001550942
0.0001548993
0.0001546977
0.000376152
0.0003756024
0.0003750664
0.000374515
0.0003739858
0.001010761
0.00100847
0.001005329
0.0001042076
0.0001041162
0.0001040228
0.0001039258
0.0001038315
0.0001555835
0.0001554091
0.0001552278
0.0001550383
0.0001548417
0.0003765164
0.0003759807
0.0003754487
0.0003749021
0.0003743548
0.0001042748
0.0001041878
0.0001040986
0.0001040058
0.0001039152
0.0001557156
0.0001555479
0.0001553732
0.0001551902
0.0001549999
0.0003769172
0.0003764009
0.0003758865
0.0003753587
0.0003748305
0.0001043442
0.0001042617
0.000104177
0.0001040886
0.0001040019
0.0001558526
0.000155692
0.0001555244
0.0001553485
0.0001551651
0.0003773355
0.0003768375
0.0003763391
0.0003758267
0.0003753112
0.000104415
0.0001043371
0.0001042568
0.000104173
0.0001040906
0.0001559928
0.0001558397
0.0001556796
0.0001555113
0.0001553355
0.0003777671
0.0003772872
0.0003768049
0.0003763075
0.0003758047
0.000104485
0.0001044118
0.0001043362
0.0001042569
0.0001041789
0.0001561326
0.0001559871
0.0001558347
0.0001556742
0.0001555063
0.0003782006
0.0003777384
0.0003772718
0.000376789
0.0003762982
0.0001022977
0.0001021136
0.0001019271
0.000101729
0.0001015458
0.000102485
0.000102311
0.0001021369
0.000101956
0.0001017857
0.0001523259
0.0001026698
0.000102505
0.0001023404
0.0001021717
0.0001020155
0.0001527077
0.000152298
0.0001028548
0.0001026987
0.000102543
0.0001023841
0.0001022384
0.0001530763
0.0001527315
0.0001522403
0.000103039
0.0001028913
0.0001027439
0.0001025938
0.0001024562
0.0001534267
0.0001531285
0.0001527502
0.0001521169
0.0001032248
0.0001030855
0.0001029464
0.0001028049
0.0001026753
0.0001537744
0.0001535085
0.0001531993
0.000152768
0.0001519428
0.0001033932
0.0001032611
0.0001031289
0.0001029945
0.0001028706
0.0001540817
0.000153837
0.0001535679
0.0001532373
0.0001527448
0.0003695286
0.0001035465
0.0001034209
0.0001032951
0.0001031668
0.000103048
0.0001543593
0.0001541311
0.0001538879
0.0001536122
0.0001532643
0.0003718932
0.0003692213
0.0001036835
0.0001035639
0.0001034438
0.0001033211
0.0001032066
0.0001546067
0.0001543904
0.0001541647
0.0001539201
0.0001536413