/*--------------------------------*- C++ -*----------------------------------*\
| =========                 |                                                 |
| \\      /  F ield         | OpenFOAM: The Open Source CFD Toolbox           |
|  \\    /   O peration     | Version:  2306                                  |
|   \\  /    A nd           | Website:  www.openfoam.com                      |
|    \\/     M anipulation  |                                                 |
\*---------------------------------------------------------------------------*/
FoamFile
{
    version     2.0;
    format      ascii;
    arch        "LSB;label=32;scalar=64";
    class       volScalarField;
    location    "1.5/fuel";
    object      eta.fuel;
}
// * * * * * * * * * * * * * * * * * * * * * * * * * * * * * * * * * * * * * //

dimensions      [1 2 -3 0 0 -1 0];

internalField   nonuniform List<scalar> 
16000
(
0.1056779
0.1062591
0.1006794
0.1021521
0.1074138
0.1010859
0.1027039
0.096541
0.09743175
0.09962088
0.1091086
0.1018763
0.1037999
0.09686732
0.09781865
0.1001532
0.09328144
0.0935317
0.09508423
0.09805198
0.1112191
0.1029929
0.1054079
0.0974951
0.09857061
0.1012106
0.09355822
0.09384278
0.09545762
0.09857425
0.09060631
0.09046533
0.09134583
0.09360891
0.09742593
0.1133829
0.1043008
0.1074094
0.09836486
0.09963218
0.1027627
0.09408683
0.09444093
0.09618322
0.09961227
0.09084848
0.09072951
0.0916462
0.09397463
0.09794733
0.08831734
0.08795215
0.088413
0.089959
0.09298858
0
0.1148559
0.1055328
0.1094607
0.09935044
0.1008744
0.1046961
0.09480936
0.09526904
0.09720744
0.1011378
0.09130842
0.09123375
0.09222358
0.09468542
0.09898472
0.08853344
0.08818352
0.08866821
0.09025299
0.09335231
0
0.08630953
0.08580343
0.08601317
0.08710277
0.08935601
0
0
0.1156809
0.1062926
0.1108504
0.100231
0.1020431
0.1066809
0.09560862
0.09620612
0.09840563
0.1030424
0.09193056
0.09192237
0.09302264
0.09568911
0.1005124
0.08894204
0.0886227
0.08915517
0.0908181
0.09405956
0
0.08650528
0.0860101
0.08623683
0.08735251
0.08964784
0
0
0.08451105
0.08391951
0.08396353
0.08476988
0.086521
0
0
0
0.1160894
0.1066685
0.1116242
0.1007304
0.1027602
0.1080217
0.09629357
0.09704176
0.09953271
0.1050044
0.09260566
0.09268281
0.09392611
0.09686399
0.1024266
0.08949004
0.08921616
0.0898198
0.09160014
0.09505908
0
0.08687406
0.08640062
0.08666116
0.08782895
0.0902089
0
0
0.08469035
0.0841069
0.08416342
0.08498875
0.08676867
0
0
0
0.08287691
0.08223218
0.0821677
0.08277991
0.08420991
0
0
0
0
0.1162542
0.1068285
0.112005
0.1009417
0.1031128
0.1087664
0.09665373
0.09751273
0.1002214
0.1063293
0.09316401
0.09333272
0.09473075
0.09797014
0.1044089
0.09007512
0.08985883
0.09055283
0.09248421
0.09623082
0
0.08736508
0.08692378
0.08723415
0.08847908
0.09098563
0
0
0.08502704
0.08445967
0.08454095
0.08540391
0.0872412
0
0
0
0.08304258
0.08240396
0.08234905
0.08297556
0.08442687
0
0
0
0
0.08137355
0.0806988
0.08055981
0.08103789
0.0822413
0
0
0
0
0
0.1162542
0.1068842
0.1121576
0.1010077
0.1032616
0.109132
0.09678013
0.09771007
0.1005588
0.107066
0.09343724
0.09367173
0.09518167
0.0986442
0.1057503
0.09054394
0.09038849
0.09117794
0.09327119
0.09733625
0
0.08788202
0.08748105
0.08785367
0.08919563
0.09186416
0
0
0.08547253
0.08492879
0.08504627
0.08596429
0.08788603
0
0
0
0.08335286
0.08272632
0.08269028
0.08334498
0.08483839
0
0
0
0
0.08152773
0.08085768
0.08072617
0.08121545
0.0824352
0
0
0
0
0
0.07997726
0.07928762
0.07909877
0.07947906
0.08051976
0
0
0
0
0
0
0.1160894
0.1068842
0.1121576
0.1010209
0.103313
0.1092783
0.09679908
0.0977704
0.1007006
0.1074284
0.09351281
0.09378868
0.09536916
0.09897409
0.1064995
0.09075759
0.09064506
0.09150152
0.09371005
0.09800899
0
0.08828452
0.08792567
0.08836272
0.08980575
0.09264648
0
0
0.08593573
0.08542143
0.08558355
0.08656957
0.08859674
0
0
0
0.0837611
0.08315227
0.08314363
0.0838392
0.08539381
0
0
0
0
0.08181577
0.08115499
0.08103816
0.08154942
0.08280127
0
0
0
0
0
0.08012158
0.0794356
0.07925272
0.07964198
0.08069571
0
0
0
0
0
0
0.07866946
0.0779762
0.07775398
0.07806305
0.07898041
0
0
0
0
0
0
0
0.1156809
0.1068285
0.112005
0.1010209
0.103313
0.1092783
0.09679123
0.0977817
0.1007495
0.1075739
0.09350468
0.09380438
0.09542553
0.09911292
0.1068708
0.09079969
0.09071375
0.09161141
0.09389155
0.09833889
0
0.08845529
0.08812572
0.08860686
0.09011933
0.09308103
0
0
0.08628692
0.08580309
0.08601062
0.08706572
0.0892014
0
0
0
0.08418084
0.08359394
0.08361872
0.084364
0.0859935
0
0
0
0
0.08219284
0.08154563
0.08145
0.08199288
0.08329093
0
0
0
0
0
0.08039063
0.07971183
0.07954064
0.07994743
0.08102661
0
0
0
0
0
0
0.07880523
0.07811483
0.07789745
0.07821388
0.07914185
0
0
0
0
0
0
0
0.07743609
0.07674701
0.07650386
0.07675988
0.07758285
0
0
0
0
0
0
0
0
0.1148559
0.1066685
0.1116242
0.1010077
0.1032616
0.109132
0.09679123
0.0977817
0.1007495
0.1075739
0.09348508
0.09379575
0.09543561
0.09916088
0.1070207
0.09077453
0.09070371
0.09162464
0.09394564
0.09847863
0
0.08847424
0.08816263
0.08867022
0.09022442
0.0932603
0
0
0.08642533
0.08596246
0.08620037
0.08730147
0.08951026
0
0
0
0.08449125
0.08392689
0.08398515
0.08477986
0.08648429
0
0
0
0
0.08257659
0.08194609
0.08187607
0.08245692
0.08381058
0
0
0
0
0
0.08074124
0.08007292
0.07991854
0.08035038
0.0814659
0
0
0
0
0
0
0.07905785
0.07837306
0.07816511
0.07849585
0.07944448
0
0
0
0
0
0
0
0.07756436
0.07687753
0.07663836
0.07690049
0.07773231
0
0
0
0
0
0
0
0
0.07626586
0.07558676
0.07533158
0.0755484
0.07629714
0
0
0
0
0
0
0
0
0
0.1133829
0.1062926
0.1108504
0.1009417
0.1031128
0.1087664
0.09679908
0.0977704
0.1007006
0.1074284
0.09348508
0.09379575
0.09543561
0.09916088
0.1070207
0.09074781
0.09068388
0.09161541
0.09395508
0.09852738
0
0.08843783
0.08813636
0.08865858
0.09023592
0.09331371
0
0
0.08642746
0.08597737
0.08623313
0.08736095
0.08961274
0
0
0
0.08460456
0.08405558
0.08413581
0.08496247
0.08671554
0
0
0
0
0.08285376
0.08224035
0.08219563
0.0828135
0.08422142
0
0
0
0
0
0.08109469
0.08043925
0.080305
0.08076656
0.08192522
0
0
0
0
0
0
0.07938566
0.07870906
0.07851462
0.07886569
0.07984361
0
0
0
0
0
0
0
0.07780261
0.07712017
0.07688872
0.07716271
0.0780117
0
0
0
0
0
0
0
0
0.0763875
0.07571017
0.07545828
0.07568026
0.07643649
0
0
0
0
0
0
0
0
0
0.07514982
0.07448483
0.0742244
0.07441215
0.0751022
0
0
0
0
0
0
0
0
0
0
0.1112191
0.1055328
0.1094607
0.1007304
0.1027602
0.1080217
0.09678013
0.09771007
0.1005588
0.107066
0.09350468
0.09380438
0.09542553
0.09911292
0.1068708
0.09074781
0.09068388
0.09161541
0.09395508
0.09852738
0
0.0884066
0.08810973
0.08863851
0.09022626
0.0933231
0
0
0.08638328
0.08594039
0.08620584
0.08734803
0.08962323
0
0
0
0.08459411
0.08405452
0.08414742
0.08499207
0.08677255
0
0
0
0
0.08294705
0.08234525
0.08231685
0.08295801
0.08439994
0
0
0
0
0
0.08134431
0.08070198
0.08058736
0.08107739
0.08227719
0
0
0
0
0
0
0.07971324
0.07904667
0.07886828
0.07924324
0.08025549
0
0
0
0
0
0
0
0.0781106
0.07743456
0.07721412
0.07750486
0.07837803
0
0
0
0
0
0
0
0
0.07661309
0.0759392
0.07569368
0.07592562
0.07669633
0
0
0
0
0
0
0
0
0
0.07526555
0.07460194
0.07434426
0.07453641
0.07523289
0
0
0
0
0
0
0
0
0
0
0.07408057
0.0734328
0.07317212
0.07333869
0.07398161
0
0
0
0
0
0
0
0
0
0
0.1091086
0.1043008
0.1074094
0.100231
0.1020431
0.1066809
0.09665373
0.09751273
0.1002214
0.1063293
0.09351281
0.09378868
0.09536916
0.09897409
0.1064995
0.09077453
0.09070371
0.09162464
0.09394564
0.09847863
0
0.0884066
0.08810973
0.08863851
0.09022626
0.0933231
0
0
0.08634907
0.08590944
0.08617919
0.08732769
0.0896133
0
0
0
0.08454443
0.08401013
0.08410981
0.08496383
0.08675862
0
0
0
0
0.08292694
0.08233225
0.08231312
0.08296701
0.08442732
0
0
0
0
0
0.08142137
0.08078792
0.08068576
0.08119326
0.08241804
0
0
0
0
0
0
0.07993968
0.07928328
0.07912035
0.07951779
0.08056212
0
0
0
0
0
0
0
0.07841585
0.07774765
0.07754019
0.07785043
0.07875165
0
0
0
0
0
0
0
0
0.07690366
0.07623478
0.07599831
0.07624427
0.07703526
0
0
0
0
0
0
0
0
0
0.0754799
0.07481897
0.07456658
0.07476719
0.07547604
0
0
0
0
0
0
0
0
0
0
0.074191
0.07354431
0.07328594
0.07345629
0.07410479
0
0
0
0
0
0
0
0
0
0
0.07305225
0.07242371
0.0721667
0.07231808
0.07292301
0
0
0
0
0
0
0
0
0
0
0.1074138
0.1029929
0.1054079
0.09935044
0.1008744
0.1046961
0.09629357
0.09704176
0.09953271
0.1050044
0.09343724
0.09367173
0.09518167
0.0986442
0.1057503
0.09079969
0.09071375
0.09161141
0.09389155
0.09833889
0
0.08843783
0.08813636
0.08865858
0.09023592
0.09331371
0
0
0.08634907
0.08590944
0.08617919
0.08732769
0.0896133
0
0
0
0.08450822
0.08397633
0.08407898
0.08493704
0.08673799
0
0
0
0
0.08287327
0.08228261
0.08226837
0.0829287
0.08439818
0
0
0
0
0
0.08139372
0.08076575
0.08067058
0.08118736
0.08242509
0
0
0
0
0
0
0.08000338
0.07935386
0.07920059
0.0796115
0.08067471
0
0
0
0
0
0
0
0.07862256
0.07796229
0.07776718
0.07809548
0.07902238
0
0
0
0
0
0
0
0
0.07718947
0.0765267
0.07630083
0.07656296
0.07737723
0
0
0
0
0
0
0
0
0
0.07575507
0.07509804
0.07485314
0.0750656
0.07579172
0
0
0
0
0
0
0
0
0
0
0.07439531
0.07375067
0.07349672
0.07367432
0.07433352
0
0
0
0
0
0
0
0
0
0
0.07315791
0.0725302
0.07227513
0.07242979
0.0730396
0
0
0
0
0
0
0
0
0
0
0.07205973
0.07145208
0.07120148
0.07134247
0.07191649
0
0
0
0
0
0
0
0
0
0
0.1062591
0.1018763
0.1037999
0.09836486
0.09963218
0.1027627
0.09560862
0.09620612
0.09840563
0.1030424
0.09316401
0.09333272
0.09473075
0.09797014
0.1044089
0.09075759
0.09064506
0.09150152
0.09371005
0.09800899
0
0.08847424
0.08816263
0.08867022
0.09022442
0.0932603
0
0
0.08638328
0.08594039
0.08620584
0.08734803
0.08962323
0
0
0
0.08450822
0.08397633
0.08407898
0.08493704
0.08673799
0
0
0
0
0.08283571
0.0822469
0.0822348
0.08289783
0.08437113
0
0
0
0
0
0.08133714
0.0807123
0.08062079
0.08114212
0.08238601
0
0
0
0
0
0
0.07996977
0.07932454
0.07917662
0.0795945
0.0806671
0
0
0
0
0
0
0
0.07867513
0.07802022
0.0778327
0.07817157
0.07911315
0
0
0
0
0
0
0
0
0.07737923
0.07672265
0.07650673
0.0767836
0.07761879
0
0
0
0
0
0
0
0
0
0.0760238
0.07537153
0.07513534
0.07536136
0.07610711
0
0
0
0
0
0
0
0
0
0
0.07465679
0.07401514
0.07376743
0.07395514
0.07462918
0
0
0
0
0
0
0
0
0
0
0.07335319
0.07272704
0.07247567
0.07263658
0.07325572
0
0
0
0
0
0
0
0
0
0
0.07216107
0.07155404
0.07130509
0.07144893
0.07202725
0
0
0
0
0
0
0
0
0
0
0.07109898
0.0705131
0.07027125
0.07040539
0.07095427
0
0
0
0
0
0
0
0
0
0
0.1056779
0.1010859
0.1027039
0.0974951
0.09857061
0.1012106
0.09480936
0.09526904
0.09720744
0.1011378
0.09260566
0.09268281
0.09392611
0.09686399
0.1024266
0.09054394
0.09038849
0.09117794
0.09327119
0.09733625
0
0.08845529
0.08812572
0.08860686
0.09011933
0.09308103
0
0
0.08642746
0.08597737
0.08623313
0.08736095
0.08961274
0
0
0
0.08454443
0.08401013
0.08410981
0.08496383
0.08675862
0
0
0
0
0.08283571
0.0822469
0.0822348
0.08289783
0.08437113
0
0
0
0
0
0.08129868
0.0806753
0.08058536
0.08110857
0.08235493
0
0
0
0
0
0
0.07991106
0.07926831
0.07912317
0.07954436
0.08062122
0
0
0
0
0
0
0
0.07863677
0.07798525
0.0778019
0.07814606
0.07909465
0
0
0
0
0
0
0
0
0.07742245
0.07677006
0.07656015
0.07684542
0.07769224
0
0
0
0
0
0
0
0
0
0.07619889
0.07555143
0.07532331
0.07556147
0.07632456
0
0
0
0
0
0
0
0
0
0
0.07491044
0.07427245
0.07403193
0.0742311
0.07492189
0
0
0
0
0
0
0
0
0
0
0.0736024
0.07297852
0.07273235
0.07290195
0.07353398
0
0
0
0
0
0
0
0
0
0
0.07234822
0.07174232
0.07149648
0.07164574
0.07223227
0
0
0
0
0
0
0
0
0
0
0.0711964
0.07061096
0.0703705
0.07050715
0.07105985
0
0
0
0
0
0
0
0
0
0
0.07016651
0.06960301
0.06937141
0.06950176
0.07002994
0
0
0
0
0
0
0
0
0
0
0.1006794
0.1021521
0.09686732
0.09781865
0.1001532
0.09408683
0.09444093
0.09618322
0.09961227
0.09193056
0.09192237
0.09302264
0.09568911
0.1005124
0.09007512
0.08985883
0.09055283
0.09248421
0.09623082
0
0.08828452
0.08792567
0.08836272
0.08980575
0.09264648
0
0
0.08642533
0.08596246
0.08620037
0.08730147
0.08951026
0
0
0
0.08459411
0.08405452
0.08414742
0.08499207
0.08677255
0
0
0
0
0.08287327
0.08228261
0.08226837
0.0829287
0.08439818
0
0
0
0
0
0.08129868
0.0806753
0.08058536
0.08110857
0.08235493
0
0
0
0
0
0
0.07987202
0.07923044
0.07908649
0.07950901
0.0805875
0
0
0
0
0
0
0
0.07857653
0.07792699
0.07774578
0.07809238
0.07904397
0
0
0
0
0
0
0
0
0.0773803
0.07673059
0.07652394
0.07681329
0.07766541
0
0
0
0
0
0
0
0
0
0.07623421
0.07559001
0.07536667
0.07561157
0.076384
0
0
0
0
0
0
0
0
0
0
0.07507274
0.07443846
0.0742045
0.07441377
0.07511908
0
0
0
0
0
0
0
0
0
0
0
0.07384265
0.07322155
0.07298132
0.07316069
0.07380713
0
0
0
0
0
0
0
0
0
0
0.07258642
0.07198218
0.07174069
0.07189745
0.07249526
0
0
0
0
0
0
0
0
0
0
0.07137619
0.07079153
0.07055367
0.07069505
0.071255
0
0
0
0
0
0
0
0
0
0
0.07026036
0.06969715
0.06946673
0.06959928
0.07013087
0
0
0
0
0
0
0
0
0
0
0.06925936
0.06871856
0.0684984
0.06862713
0.06913845
0
0
0
0
0
0
0
0
0
0
0.096541
0.09743175
0.09962088
0.09355822
0.09384278
0.09545762
0.09857425
0.09130842
0.09123375
0.09222358
0.09468542
0.09898472
0.08949004
0.08921616
0.0898198
0.09160014
0.09505908
0
0.08788202
0.08748105
0.08785367
0.08919563
0.09186416
0
0
0.08628692
0.08580309
0.08601062
0.08706572
0.0892014
0
0
0
0.08460456
0.08405558
0.08413581
0.08496247
0.08671554
0
0
0
0
0.08292694
0.08233225
0.08231312
0.08296701
0.08442732
0
0
0
0
0
0.08133714
0.0807123
0.08062079
0.08114212
0.08238601
0
0
0
0
0
0
0.07987202
0.07923044
0.07908649
0.07950901
0.0805875
0
0
0
0
0
0
0
0.07853715
0.07788856
0.07770827
0.07805582
0.0790085
0
0
0
0
0
0
0
0
0.07731898
0.07667088
0.07646589
0.07675705
0.07761129
0
0
0
0
0
0
0
0
0
0.07618903
0.07554695
0.07532616
0.07557423
0.07635071
0
0
0
0
0
0
0
0
0
0
0.07510136
0.07446957
0.07423942
0.07445413
0.07516702
0
0
0
0
0
0
0
0
0
0
0
0.07399376
0.07337546
0.07314058
0.07332839
0.07398711
0
0
0
0
0
0
0
0
0
0
0
0
0.07281473
0.07221251
0.07197595
0.07214107
0.07275139
0
0
0
0
0
0
0
0
0
0
0.07160446
0.07102095
0.07078672
0.07093461
0.07150449
0
0
0
0
0
0
0
0
0
0
0.07043346
0.06987074
0.06964249
0.06977917
0.07031721
0
0
0
0
0
0
0
0
0
0
0.06934994
0.06880931
0.06859014
0.06872081
0.06923518
0
0
0
0
0
0
0
0
0
0
0.06837499
0.06785701
0.06764914
0.06777804
0.06827538
0
0
0
0
0
0
0
0
0
0
0.09328144
0.0935317
0.09508423
0.09805198
0.09084848
0.09072951
0.0916462
0.09397463
0.09794733
0.08894204
0.0886227
0.08915517
0.0908181
0.09405956
0
0.08736508
0.08692378
0.08723415
0.08847908
0.09098563
0
0
0.08593573
0.08542143
0.08558355
0.08656957
0.08859674
0
0
0
0.08449125
0.08392689
0.08398515
0.08477986
0.08648429
0
0
0
0
0.08294705
0.08234525
0.08231685
0.08295801
0.08439994
0
0
0
0
0
0.08139372
0.08076575
0.08067058
0.08118736
0.08242509
0
0
0
0
0
0
0.07991106
0.07926831
0.07912317
0.07954436
0.08062122
0
0
0
0
0
0
0
0.07853715
0.07788856
0.07770827
0.07805582
0.0790085
0
0
0
0
0
0
0
0
0.07727945
0.07663212
0.07642783
0.07671968
0.07757463
0
0
0
0
0
0
0
0
0
0.07612699
0.07548622
0.07526671
0.07551612
0.07629409
0
0
0
0
0
0
0
0
0
0
0.07505378
0.07442366
0.0741955
0.07441266
0.07512866
0
0
0
0
0
0
0
0
0
0
0
0.07401666
0.07340025
0.07316837
0.07336059
0.07402551
0
0
0
0
0
0
0
0
0
0
0
0
0.072956
0.07235583
0.07212362
0.07229583
0.07291661
0
0
0
0
0
0
0
0
0
0
0
0
0
0.07182207
0.07123997
0.0710098
0.07116489
0.07174569
0
0
0
0
0
0
0
0
0
0
0.07065275
0.07009075
0.06986551
0.07000786
0.07055469
0
0
0
0
0
0
0
0
0
0
0.06951695
0.06897656
0.0687592
0.0688935
0.06941361
0
0
0
0
0
0
0
0
0
0
0.06846257
0.06794466
0.06773762
0.06786825
0.06836833
0
0
0
0
0
0
0
0
0
0
0.06751143
0.06701598
0.06682101
0.06695151
0.06743734
0
0
0
0
0
0
0
0
0
0
0.09060631
0.09046533
0.09134583
0.09360891
0.09742593
0.08853344
0.08818352
0.08866821
0.09025299
0.09335231
0
0.08687406
0.08640062
0.08666116
0.08782895
0.0902089
0
0
0.08547253
0.08492879
0.08504627
0.08596429
0.08788603
0
0
0
0.08418084
0.08359394
0.08361872
0.084364
0.0859935
0
0
0
0
0.08285376
0.08224035
0.08219563
0.0828135
0.08422142
0
0
0
0
0
0.08142137
0.08078792
0.08068576
0.08119326
0.08241804
0
0
0
0
0
0
0.07996977
0.07932454
0.07917662
0.0795945
0.0806671
0
0
0
0
0
0
0
0.07857653
0.07792699
0.07774578
0.07809238
0.07904397
0
0
0
0
0
0
0
0
0.07727945
0.07663212
0.07642783
0.07671968
0.07757463
0
0
0
0
0
0
0
0
0
0.07608744
0.0754473
0.07522835
0.07547823
0.07625665
0
0
0
0
0
0
0
0
0
0
0.07499131
0.07436224
0.07413507
0.07435321
0.07507022
0
0
0
0
0
0
0
0
0
0
0
0.07396718
0.07335207
0.07312173
0.07331583
0.07398312
0
0
0
0
0
0
0
0
0
0
0
0
0.07297403
0.07237523
0.07214538
0.07232115
0.07294701
0
0
0
0
0
0
0
0
0
0
0
0
0
0.07195466
0.07137399
0.07114732
0.07130839
0.07189815
0
0
0
0
0
0
0
0
0
0
0
0
0
0
0.07086075
0.07029964
0.07007774
0.07022629
0.07078271
0
0
0
0
0
0
0
0
0
0
0.06972808
0.06918806
0.06897319
0.06911243
0.06964035
0
0
0
0
0
0
0
0
0
0
0.06862401
0.06810613
0.06790059
0.0680344
0.06853963
0
0
0
0
0
0
0
0
0
0
0.06759626
0.06710078
0.06690652
0.06703854
0.06752684
0
0
0
0
0
0
0
0
0
0
0.06666675
0.06619368
0.0660118
0.06614503
0.06662135
0
0
0
0
0
0
0
0
0
0
0.08831734
0.08795215
0.088413
0.089959
0.09298858
0
0.08650528
0.0860101
0.08623683
0.08735251
0.08964784
0
0
0.08502704
0.08445967
0.08454095
0.08540391
0.0872412
0
0
0
0.0837611
0.08315227
0.08314363
0.0838392
0.08539381
0
0
0
0
0.08257659
0.08194609
0.08187607
0.08245692
0.08381058
0
0
0
0
0
0.08134431
0.08070198
0.08058736
0.08107739
0.08227719
0
0
0
0
0
0
0.08000338
0.07935386
0.07920059
0.0796115
0.08067471
0
0
0
0
0
0
0
0.07863677
0.07798525
0.0778019
0.07814606
0.07909465
0
0
0
0
0
0
0
0
0.07731898
0.07667088
0.07646589
0.07675705
0.07761129
0
0
0
0
0
0
0
0
0
0.07608744
0.0754473
0.07522835
0.07547823
0.07625665
0
0
0
0
0
0
0
0
0
0
0.07495185
0.0743233
0.07409656
0.07431502
0.07503229
0
0
0
0
0
0
0
0
0
0
0
0.07390451
0.07329025
0.07306066
0.07325545
0.0739234
0
0
0
0
0
0
0
0
0
0
0
0
0.07292308
0.07232527
0.07209659
0.07227378
0.07290143
0
0
0
0
0
0
0
0
0
0
0
0
0
0.07196853
0.07138881
0.07116395
0.07132789
0.07192182
0
0
0
0
0
0
0
0
0
0
0
0
0
0
0.07098567
0.07042546
0.07020636
0.07035994
0.07092408
0
0
0
0
0
0
0
0
0
0
0
0
0
0
0
0.06992743
0.06938786
0.06917571
0.0693203
0.06985666
0
0
0
0
0
0
0
0
0
0
0.06882772
0.0683099
0.06810641
0.06824453
0.06875673
0
0
0
0
0
0
0
0
0
0
0.0677526
0.06725697
0.06706394
0.06719877
0.06769169
0
0
0
0
0
0
0
0
0
0
0.06674904
0.06627587
0.06609457
0.06622916
0.06670772
0
0
0
0
0
0
0
0
0
0
0.06583946
0.06538833
0.06521981
0.06535643
0.06582495
0
0
0
0
0
0
0
0
0
0
0.08630953
0.08580343
0.08601317
0.08710277
0.08935601
0
0
0.08469035
0.0841069
0.08416342
0.08498875
0.08676867
0
0
0
0.08335286
0.08272632
0.08269028
0.08334498
0.08483839
0
0
0
0
0.08219284
0.08154563
0.08145
0.08199288
0.08329093
0
0
0
0
0
0.08109469
0.08043925
0.080305
0.08076656
0.08192522
0
0
0
0
0
0
0.07993968
0.07928328
0.07912035
0.07951779
0.08056212
0
0
0
0
0
0
0
0.07867513
0.07802022
0.0778327
0.07817157
0.07911315
0
0
0
0
0
0
0
0
0.0773803
0.07673059
0.07652394
0.07681329
0.07766541
0
0
0
0
0
0
0
0
0
0.07612699
0.07548622
0.07526671
0.07551612
0.07629409
0
0
0
0
0
0
0
0
0
0
0.07495185
0.0743233
0.07409656
0.07431502
0.07503229
0
0
0
0
0
0
0
0
0
0
0
0.07386523
0.0732514
0.07302213
0.07321712
0.07388518
0
0
0
0
0
0
0
0
0
0
0
0
0.07286039
0.07226326
0.07203514
0.07221279
0.07284082
0
0
0
0
0
0
0
0
0
0
0
0
0
0.07191647
0.07133748
0.07111347
0.07127846
0.0718737
0
0
0
0
0
0
0
0
0
0
0
0
0
0
0.070996
0.07043638
0.07021863
0.07037449
0.07094205
0
0
0
0
0
0
0
0
0
0
0
0
0
0
0
0.07004555
0.06950644
0.06929648
0.0694453
0.06998833
0
0
0
0
0
0
0
0
0
0
0
0
0
0
0
0
0.06901925
0.06850151
0.06830021
0.06844296
0.06896262
0
0
0
0
0
0
0
0
0
0
0.06794955
0.06745372
0.06726234
0.06740095
0.0679001
0
0
0
0
0
0
0
0
0
0
0.06690071
0.06642724
0.06624692
0.06638398
0.06686671
0
0
0
0
0
0
0
0
0
0
0.06591942
0.06546811
0.06530007
0.0654379
0.06590844
0
0
0
0
0
0
0
0
0
0
0.06502811
0.06459854
0.06444336
0.0645841
0.06504599
0
0
0
0
0
0
0
0
0
0
0.08451105
0.08391951
0.08396353
0.08476988
0.086521
0
0
0
0.08304258
0.08240396
0.08234905
0.08297556
0.08442687
0
0
0
0
0.08181577
0.08115499
0.08103816
0.08154942
0.08280127
0
0
0
0
0
0.08074124
0.08007292
0.07991854
0.08035038
0.0814659
0
0
0
0
0
0
0.07971324
0.07904667
0.07886828
0.07924324
0.08025549
0
0
0
0
0
0
0
0.07862256
0.07796229
0.07776718
0.07809548
0.07902238
0
0
0
0
0
0
0
0
0.07742245
0.07677006
0.07656015
0.07684542
0.07769224
0
0
0
0
0
0
0
0
0
0.07618903
0.07554695
0.07532616
0.07557423
0.07635071
0
0
0
0
0
0
0
0
0
0
0.07499131
0.07436224
0.07413507
0.07435321
0.07507022
0
0
0
0
0
0
0
0
0
0
0
0.07386523
0.0732514
0.07302213
0.07321712
0.07388518
0
0
0
0
0
0
0
0
0
0
0
0
0.07282137
0.07222459
0.0719967
0.07217445
0.07280248
0
0
0
0
0
0
0
0
0
0
0
0
0
0.07185394
0.07127547
0.07105186
0.07121712
0.07181252
0
0
0
0
0
0
0
0
0
0
0
0
0
0
0.07094313
0.07038402
0.07016686
0.07032345
0.07089195
0
0
0
0
0
0
0
0
0
0
0
0
0
0
0
0.07005287
0.06951404
0.06930505
0.06945565
0.07000147
0
0
0
0
0
0
0
0
0
0
0
0
0
0
0
0
0.06913133
0.06861368
0.06841406
0.06856036
0.06908577
0
0
0
0
0
0
0
0
0
0
0
0
0
0
0
0
0
0.06813402
0.06763794
0.0674483
0.0675909
0.06809666
0
0
0
0
0
0
0
0
0
0
0.06709148
0.06661758
0.06643858
0.06657894
0.06706726
0
0
0
0
0
0
0
0
0
0
0.0660668
0.06561504
0.06544779
0.06558779
0.06606209
0
0
0
0
0
0
0
0
0
0
0.06510591
0.06467611
0.0645213
0.06466312
0.06512685
0
0
0
0
0
0
0
0
0
0
0.06423205
0.06382301
0.06368116
0.06382643
0.06428288
0
0
0
0
0
0
0
0
0
0
0.08287691
0.08223218
0.0821677
0.08277991
0.08420991
0
0
0
0
0.08152773
0.08085768
0.08072617
0.08121545
0.0824352
0
0
0
0
0
0.08039063
0.07971183
0.07954064
0.07994743
0.08102661
0
0
0
0
0
0
0.07938566
0.07870906
0.07851462
0.07886569
0.07984361
0
0
0
0
0
0
0
0.07841585
0.07774765
0.07754019
0.07785043
0.07875165
0
0
0
0
0
0
0
0
0.07737923
0.07672265
0.07650673
0.0767836
0.07761879
0
0
0
0
0
0
0
0
0
0.07623421
0.07559001
0.07536667
0.07561157
0.076384
0
0
0
0
0
0
0
0
0
0
0.07505378
0.07442366
0.0741955
0.07441266
0.07512866
0
0
0
0
0
0
0
0
0
0
0
0.07390451
0.07329025
0.07306066
0.07325545
0.0739234
0
0
0
0
0
0
0
0
0
0
0
0
0.07282137
0.07222459
0.0719967
0.07217445
0.07280248
0
0
0
0
0
0
0
0
0
0
0
0
0
0.07181522
0.07123703
0.07101359
0.07117888
0.07177418
0
0
0
0
0
0
0
0
0
0
0
0
0
0
0.07088088
0.07032217
0.07010527
0.07026197
0.07083045
0
0
0
0
0
0
0
0
0
0
0
0
0
0
0
0.06999946
0.06946094
0.06925232
0.06940339
0.06994982
0
0
0
0
0
0
0
0
0
0
0
0
0
0
0
0
0.06913609
0.06861847
0.06841948
0.06856714
0.06909481
0
0
0
0
0
0
0
0
0
0
0
0
0
0
0
0
0
0.06824075
0.06774442
0.06755603
0.06770158
0.06821232
0
0
0
0
0
0
0
0
0
0
0
0
0
0
0
0
0
0
0.06726953
0.06679513
0.06661746
0.06676126
0.06725545
0
0
0
0
0
0
0
0
0
0
0.06625194
0.06579953
0.06563331
0.06577618
0.06625551
0
0
0
0
0
0
0
0
0
0
0.06524934
0.06481899
0.06466477
0.0648085
0.06527563
0
0
0
0
0
0
0
0
0
0
0.06430786
0.06389853
0.06375698
0.0639032
0.06436134
0
0
0
0
0
0
0
0
0
0
0.06344989
0.06306117
0.06293199
0.06308218
0.06353405
0
0
0
0
0
0
0
0
0
0
0.08137355
0.0806988
0.08055981
0.08103789
0.0822413
0
0
0
0
0
0.08012158
0.0794356
0.07925272
0.07964198
0.08069571
0
0
0
0
0
0
0.07905785
0.07837306
0.07816511
0.07849585
0.07944448
0
0
0
0
0
0
0
0.0781106
0.07743456
0.07721412
0.07750486
0.07837803
0
0
0
0
0
0
0
0
0.07718947
0.0765267
0.07630083
0.07656296
0.07737723
0
0
0
0
0
0
0
0
0
0.07619889
0.07555143
0.07532331
0.07556147
0.07632456
0
0
0
0
0
0
0
0
0
0
0.07510136
0.07446957
0.07423942
0.07445413
0.07516702
0
0
0
0
0
0
0
0
0
0
0
0.07396718
0.07335207
0.07312173
0.07331583
0.07398312
0
0
0
0
0
0
0
0
0
0
0
0
0.07286039
0.07226326
0.07203514
0.07221279
0.07284082
0
0
0
0
0
0
0
0
0
0
0
0
0
0.07181522
0.07123703
0.07101359
0.07117888
0.07177418
0
0
0
0
0
0
0
0
0
0
0
0
0
0
0.07084251
0.07028403
0.07006723
0.0702239
0.07079221
0
0
0
0
0
0
0
0
0
0
0
0
0
0
0
0.0699376
0.06939937
0.06919089
0.06934194
0.06988819
0
0
0
0
0
0
0
0
0
0
0
0
0
0
0
0
0.06908236
0.06856489
0.06836608
0.06851398
0.06904199
0
0
0
0
0
0
0
0
0
0
0
0
0
0
0
0
0
0.06824337
0.06774684
0.06755879
0.06770535
0.06821789
0
0
0
0
0
0
0
0
0
0
0
0
0
0
0
0
0
0
0.06737149
0.06689658
0.06671976
0.06686602
0.06736451
0
0
0
0
0
0
0
0
0
0
0
0
0
0
0
0
0
0
0
0.06642421
0.06597103
0.0658058
0.06595162
0.06643618
0
0
0
0
0
0
0
0
0
0
0.06542931
0.06499816
0.06484467
0.06499093
0.06546257
0
0
0
0
0
0
0
0
0
0
0.06444768
0.06403767
0.06389656
0.06404444
0.06450566
0
0
0
0
0
0
0
0
0
0
0.06352384
0.0631348
0.06300584
0.06315687
0.06361027
0
0
0
0
0
0
0
0
0
0
0.06268184
0.06231173
0.06219535
0.06235017
0.06279827
0
0
0
0
0
0
0
0
0
0
0.07997726
0.07928762
0.07909877
0.07947906
0.08051976
0
0
0
0
0
0
0.07880523
0.07811483
0.07789745
0.07821388
0.07914185
0
0
0
0
0
0
0
0.07780261
0.07712017
0.07688872
0.07716271
0.0780117
0
0
0
0
0
0
0
0
0.07690366
0.07623478
0.07599831
0.07624427
0.07703526
0
0
0
0
0
0
0
0
0
0.0760238
0.07537153
0.07513534
0.07536136
0.07610711
0
0
0
0
0
0
0
0
0
0
0.07507274
0.07443846
0.0742045
0.07441377
0.07511908
0
0
0
0
0
0
0
0
0
0
0
0.07401666
0.07340025
0.07316837
0.07336059
0.07402551
0
0
0
0
0
0
0
0
0
0
0
0
0.07292308
0.07232527
0.07209659
0.07227378
0.07290143
0
0
0
0
0
0
0
0
0
0
0
0
0
0.07185394
0.07127547
0.07105186
0.07121712
0.07181252
0
0
0
0
0
0
0
0
0
0
0
0
0
0
0.07084251
0.07028403
0.07006723
0.0702239
0.07079221
0
0
0
0
0
0
0
0
0
0
0
0
0
0
0
0.06989963
0.06936157
0.06915314
0.0693041
0.06985013
0
0
0
0
0
0
0
0
0
0
0
0
0
0
0
0
0.06902098
0.06850371
0.06830493
0.0684527
0.06898041
0
0
0
0
0
0
0
0
0
0
0
0
0
0
0
0
0
0.06818952
0.06769298
0.06750495
0.06765155
0.06816421
0
0
0
0
0
0
0
0
0
0
0
0
0
0
0
0
0
0
0.06737231
0.06689701
0.06672029
0.06686724
0.06736714
0
0
0
0
0
0
0
0
0
0
0
0
0
0
0
0
0
0
0
0.06652196
0.066068
0.0659033
0.06605113
0.06653941
0
0
0
0
0
0
0
0
0
0
0
0
0
0
0
0
0
0
0
0
0.06559631
0.06516419
0.06501137
0.06516016
0.06563645
0
0
0
0
0
0
0
0
0
0
0.06462293
0.06421194
0.06407136
0.0642214
0.0646867
0
0
0
0
0
0
0
0
0
0
0.0636603
0.06327052
0.06314183
0.06329433
0.0637505
0
0
0
0
0
0
0
0
0
0
0.06275408
0.0623836
0.06226739
0.06242294
0.06287244
0
0
0
0
0
0
0
0
0
0
0.06192633
0.06157498
0.06147002
0.06162995
0.06207438
0
0
0
0
0
0
0
0
0
0
0.07866946
0.0779762
0.07775398
0.07806305
0.07898041
0
0
0
0
0
0
0
0.07756436
0.07687753
0.07663836
0.07690049
0.07773231
0
0
0
0
0
0
0
0
0.07661309
0.0759392
0.07569368
0.07592562
0.07669633
0
0
0
0
0
0
0
0
0
0.07575507
0.07509804
0.07485314
0.0750656
0.07579172
0
0
0
0
0
0
0
0
0
0
0.07491044
0.07427246
0.07403193
0.0742311
0.07492189
0
0
0
0
0
0
0
0
0
0
0.07399376
0.07337546
0.07314058
0.07332839
0.07398711
0
0
0
0
0
0
0
0
0
0
0
0
0.07297403
0.07237523
0.07214538
0.07232115
0.07294701
0
0
0
0
0
0
0
0
0
0
0
0
0
0.07191647
0.07133748
0.07111347
0.07127846
0.0718737
0
0
0
0
0
0
0
0
0
0
0
0
0
0
0.07088088
0.07032217
0.07010527
0.07026197
0.07083045
0
0
0
0
0
0
0
0
0
0
0
0
0
0
0
0.06989963
0.06936157
0.06915314
0.0693041
0.06985013
0
0
0
0
0
0
0
0
0
0
0
0
0
0
0
0
0.06898344
0.06846629
0.06826751
0.06841515
0.0689426
0
0
0
0
0
0
0
0
0
0
0
0
0
0
0
0
0
0.06812871
0.06763227
0.06744419
0.06759057
0.06810283
0
0
0
0
0
0
0
0
0
0
0
0
0
0
0
0
0
0
0.06731849
0.06684307
0.06666621
0.06681305
0.06731286
0
0
0
0
0
0
0
0
0
0
0
0
0
0
0
0
0
0
0
0.06652132
0.06606677
0.06590197
0.06605021
0.06653956
0
0
0
0
0
0
0
0
0
0
0
0
0
0
0
0
0
0
0
0
0.06569031
0.06525722
0.06510461
0.06525503
0.0657345
0
0
0
0
0
0
0
0
0
0
0
0
0
0
0
0
0
0
0
0
0.06478518
0.06437302
0.06423284
0.06438501
0.06485445
0
0
0
0
0
0
0
0
0
0
0.06383119
0.06344034
0.06331195
0.06346633
0.06392615
0
0
0
0
0
0
0
0
0
0
0.06288748
0.06251614
0.0624001
0.06255691
0.06300894
0
0
0
0
0
0
0
0
0
0
0.06199696
0.06164523
0.06154037
0.06170096
0.06214666
0
0
0
0
0
0
0
0
0
0
0.06118485
0.06084941
0.06075634
0.06092035
0.06136195
0
0
0
0
0
0
0
0
0
0
0.07743609
0.07674701
0.07650386
0.07675988
0.07758285
0
0
0
0
0
0
0
0
0.0763875
0.07571017
0.07545828
0.07568026
0.07643649
0
0
0
0
0
0
0
0
0
0.0754799
0.07481897
0.07456658
0.07476719
0.07547604
0
0
0
0
0
0
0
0
0
0
0.07465679
0.07401515
0.07376743
0.07395514
0.07462918
0
0
0
0
0
0
0
0
0
0
0.07384265
0.07322155
0.07298133
0.07316069
0.07380713
0
0
0
0
0
0
0
0
0
0
0.072956
0.07235583
0.07212362
0.07229583
0.07291661
0
0
0
0
0
0
0
0
0
0
0
0
0
0.07196853
0.07138881
0.07116395
0.07132789
0.07192182
0
0
0
0
0
0
0
0
0
0
0
0
0
0
0.07094313
0.07038402
0.07016686
0.07032345
0.07089195
0
0
0
0
0
0
0
0
0
0
0
0
0
0
0
0.0699376
0.06939937
0.06919089
0.06934194
0.06988819
0
0
0
0
0
0
0
0
0
0
0
0
0
0
0
0
0.06898344
0.06846629
0.06826751
0.06841515
0.0689426
0
0
0
0
0
0
0
0
0
0
0
0
0
0
0
0
0
0.06809161
0.06759526
0.06740714
0.06755336
0.0680653
0
0
0
0
0
0
0
0
0
0
0
0
0
0
0
0
0
0
0.0672583
0.06678292
0.06660592
0.06675246
0.06725179
0
0
0
0
0
0
0
0
0
0
0
0
0
0
0
0
0
0
0
0.06646769
0.06601289
0.06584785
0.06599582
0.06648492
0
0
0
0
0
0
0
0
0
0
0
0
0
0
0
0
0
0
0
0
0.06568848
0.06525466
0.06510173
0.06525234
0.06573258
0
0
0
0
0
0
0
0
0
0
0
0
0
0
0
0
0
0
0
0
0.06487589
0.06446254
0.06432233
0.06447575
0.06494795
0
0
0
0
0
0
0
0
0
0
0
0
0
0
0
0
0
0
0
0
0.06398907
0.06359695
0.06346868
0.06362487
0.06408836
0
0
0
0
0
0
0
0
0
0
0.0630544
0.06268184
0.06256595
0.06272436
0.06317968
0
0
0
0
0
0
0
0
0
0
0.06212747
0.06177487
0.06167004
0.06183174
0.06227971
0
0
0
0
0
0
0
0
0
0
0.06125402
0.06091814
0.06082513
0.06098971
0.06143249
0
0
0
0
0
0
0
0
0
0
0.06045514
0.06013657
0.06005288
0.06022172
0.06065983
0
0
0
0
0
0
0
0
0
0
0.07626586
0.07558676
0.07533158
0.0755484
0.07629714
0
0
0
0
0
0
0
0
0
0.07526555
0.07460194
0.07434426
0.07453641
0.07523289
0
0
0
0
0
0
0
0
0
0
0.07439531
0.07375067
0.07349672
0.07367432
0.07433352
0
0
0
0
0
0
0
0
0
0
0.0736024
0.07297852
0.07273235
0.07290195
0.07353398
0
0
0
0
0
0
0
0
0
0
0.07281473
0.07221251
0.07197595
0.07214107
0.07275139
0
0
0
0
0
0
0
0
0
0
0.07195466
0.07137399
0.07114732
0.07130839
0.07189815
0
0
0
0
0
0
0
0
0
0
0
0
0
0
0.070996
0.07043638
0.07021863
0.07037449
0.07094205
0
0
0
0
0
0
0
0
0
0
0
0
0
0
0
0.06999946
0.06946094
0.06925232
0.06940339
0.06994982
0
0
0
0
0
0
0
0
0
0
0
0
0
0
0
0
0.06902098
0.06850371
0.06830493
0.0684527
0.06898041
0
0
0
0
0
0
0
0
0
0
0
0
0
0
0
0
0
0.06809161
0.06759526
0.06740714
0.06755336
0.0680653
0
0
0
0
0
0
0
0
0
0
0
0
0
0
0
0
0
0
0.06722167
0.06674635
0.06656928
0.06671562
0.0672146
0
0
0
0
0
0
0
0
0
0
0
0
0
0
0
0
0
0
0
0.0664082
0.06595335
0.06578811
0.06593571
0.06642426
0
0
0
0
0
0
0
0
0
0
0
0
0
0
0
0
0
0
0
0