/*--------------------------------*- C++ -*----------------------------------*\
| =========                 |                                                 |
| \\      /  F ield         | OpenFOAM: The Open Source CFD Toolbox           |
|  \\    /   O peration     | Version:  2306                                  |
|   \\  /    A nd           | Website:  www.openfoam.com                      |
|    \\/     M anipulation  |                                                 |
\*---------------------------------------------------------------------------*/
FoamFile
{
    version     2.0;
    format      ascii;
    arch        "LSB;label=32;scalar=64";
    class       volScalarField;
    location    "1.5/fuel";
    object      H2;
}
// * * * * * * * * * * * * * * * * * * * * * * * * * * * * * * * * * * * * * //

dimensions      [0 0 0 0 0 0 0];

internalField   nonuniform List<scalar> 
16000
(
0.6135289
0.6183172
0.5458342
0.6138027
0.6280475
0.5489301
0.6185971
0.4832877
0.5460407
0.6143386
0.6428201
0.5551815
0.6283404
0.4855752
0.5491399
0.6191449
0.43261
0.483444
0.5464453
0.615129
0.6620933
0.5645791
0.6431344
0.490184
0.555398
0.6289134
0.4344044
0.4857336
0.5495509
0.6199527
0.3914435
0.4327324
0.4837506
0.5470425
0.6161703
0.6830251
0.5766907
0.6624401
0.4970895
0.5648066
0.6437493
0.4380127
0.4903465
0.5558223
0.6297585
0.3928965
0.4345281
0.4860441
0.5501574
0.621017
0.3574302
0.3915419
0.4329725
0.4842034
0.5478295
0.6172036
0.6990666
0.5897004
0.6834141
0.50595
0.5769344
0.6631187
0.4434036
0.4972589
0.5652523
0.644656
0.3958139
0.4381392
0.4906653
0.5564484
0.6308718
0.3586335
0.392996
0.4347709
0.4865027
0.5509566
0.6220731
0.3288517
0.3575112
0.3917353
0.4333272
0.4848003
0.5486103
0.6180603
0.7094116
0.5996803
0.6994821
0.5154203
0.5899645
0.6841755
0.4502945
0.5061294
0.5774118
0.6641193
0.4001626
0.4435347
0.4975909
0.56591
0.6458505
0.3610463
0.3959154
0.4383875
0.4911361
0.5572733
0.6319765
0.3298658
0.3587153
0.3931913
0.4351296
0.4871072
0.5517496
0.6229489
0.3044894
0.3289197
0.3576706
0.3920213
0.4337949
0.4853925
0.5492574
0.6189125
0.715345
0.6061806
0.7098419
0.522658
0.5999557
0.7002952
0.4576284
0.5156123
0.5904821
0.6852989
0.4057042
0.4504324
0.506481
0.5781164
0.665438
0.3646363
0.4002674
0.4437921
0.4980811
0.5667765
0.647036
0.3318972
0.3611297
0.3961147
0.4387545
0.4917565
0.5580919
0.6328931
0.3053565
0.3299344
0.3588761
0.3934801
0.4356025
0.487707
0.5524069
0.62382
0.2834628
0.3045473
0.3290534
0.3579064
0.3923984
0.4342591
0.4858831
0.5499007
0.6197599
0.7180245
0.6099605
0.7157833
0.5273667
0.6064616
0.7106834
0.4632149
0.5228563
0.6004955
0.7014945
0.4115822
0.4577751
0.5159889
0.5912463
0.6867801
0.3691998
0.4058139
0.4507032
0.5070004
0.5790449
0.666747
0.3349151
0.3647221
0.4004732
0.4441723
0.4987273
0.5676364
0.6480214
0.3070919
0.331967
0.3612935
0.3964094
0.4392382
0.4923722
0.5587706
0.6338053
0.2842131
0.3054148
0.3300692
0.3591139
0.393861
0.4360718
0.488204
0.5530604
0.6246864
0.2651219
0.2835127
0.3046612
0.3292513
0.3582173
0.3927727
0.4346435
0.4863707
0.5505403
0.6206027
0.7180245
0.6116871
0.7184664
0.5301065
0.6102443
0.7166402
0.4668433
0.5275678
0.6070121
0.7119244
0.4160477
0.4633656
0.5232455
0.6012923
0.7030758
0.3740272
0.4116983
0.458063
0.5165454
0.5922539
0.6882515
0.3387438
0.3692894
0.4060295
0.4511033
0.507685
0.5799664
0.6678409
0.3096668
0.3349868
0.3648907
0.4007774
0.4446735
0.4993685
0.5683505
0.649004
0.2857138
0.3071512
0.3321041
0.3615357
0.396798
0.4397183
0.4928824
0.5594457
0.6347131
0.265778
0.2842634
0.3055296
0.3302688
0.3594277
0.3942389
0.4364605
0.4886979
0.55371
0.625548
0.2489767
0.2651654
0.283611
0.3048299
0.3295125
0.358526
0.3930826
0.4350254
0.4868552
0.5511761
0.6246791
0.715345
0.6116871
0.7184664
0.5313594
0.6119721
0.7193302
0.4689535
0.5303088
0.6108002
0.7179037
0.4189437
0.4669955
0.5279622
0.6078246
0.7135604
0.3776865
0.4161665
0.4636615
0.5238203
0.6023429
0.7046467
0.3427849
0.3741216
0.4119264
0.4584888
0.5172793
0.5932543
0.6894925
0.312928
0.3388184
0.3694654
0.4063482
0.4516309
0.5083645
0.5807351
0.6689375
0.2879381
0.3097275
0.3351277
0.3651401
0.4011786
0.4451709
0.4999008
0.5690619
0.6499837
0.2670893
0.2857649
0.3072678
0.332307
0.3618552
0.3971837
0.440116
0.4933898
0.5601172
0.6356164
0.2495554
0.2658218
0.2843624
0.3056996
0.330532
0.3597391
0.3945519
0.4368468
0.4891887
0.5543559
0.6297163
0.2346507
0.249015
0.2652511
0.2837565
0.3050525
0.3297717
0.3587815
0.3933904
0.4354049
0.4873367
0.5542503
0.6274816
0.7094116
0.6099605
0.7157833
0.5313594
0.6119721
0.7193302
0.4699185
0.5315622
0.6125303
0.7206038
0.420627
0.4691063
0.5307055
0.6116205
0.7195691
0.3800565
0.4190635
0.4672943
0.5285447
0.6088958
0.7151856
0.3458425
0.3777828
0.4164001
0.4640988
0.5245783
0.603386
0.705972
0.3163637
0.3428632
0.3743072
0.4122639
0.4590503
0.5180079
0.5940954
0.690748
0.2907514
0.3129911
0.338965
0.3697257
0.4067685
0.4521545
0.5089309
0.5815042
0.6700367
0.2690311
0.2879904
0.3098471
0.3353361
0.3654691
0.4015767
0.4455837
0.5004308
0.5697705
0.6509604
0.2507115
0.2671337
0.2858653
0.3074404
0.3325748
0.3621724
0.3975032
0.4405115
0.4938942
0.560785
0.6399884
0.2351651
0.249594
0.265908
0.2845089
0.3059239
0.3307934
0.359997
0.3948628
0.4372305
0.4896765
0.5574791
0.632595
0.2218496
0.2346846
0.2490904
0.265378
0.2839487
0.3052735
0.3299863
0.3590354
0.3936962
0.4357819
0.4896642
0.5563572
0.6296053
0.6990666
0.6061806
0.7098419
0.5301065
0.6102443
0.7166402
0.4699185
0.5315622
0.6125303
0.7206038
0.4213966
0.4700715
0.5319598
0.6133541
0.7222824
0.3814332
0.420747
0.4694062
0.5312915
0.612702
0.7212235
0.3478207
0.3801534
0.4192987
0.4677359
0.5293128
0.6099593
0.7165539
0.3189594
0.3459223
0.3779723
0.4167454
0.4646758
0.5253309
0.6042632
0.7073131
0.2937106
0.3164299
0.3430174
0.3745819
0.4127091
0.4596079
0.5186201
0.5949439
0.6920184
0.2714841
0.2908055
0.3131152
0.339182
0.3700691
0.4071857
0.4525909
0.5094975
0.5822738
0.6711384
0.2524221
0.2690764
0.2880932
0.3100241
0.3356111
0.3657956
0.4019071
0.4459947
0.5009586
0.5704764
0.655697
0.2361924
0.2507505
0.2672211
0.286014
0.3076682
0.3328406
0.3624351
0.3978207
0.4409045
0.4943957
0.5640156
0.6430588
0.22231
0.2351993
0.2496698
0.2660358
0.2847024
0.3061466
0.3310098
0.3602531
0.3951717
0.4376118
0.4920346
0.5596271
0.634787
0.2103399
0.2218798
0.2347515
0.2492021
0.2655457
0.2841395
0.3054565
0.3301995
0.3592875
0.394
0.4376037
0.4912558
0.5579506
0.6310321
0.6830251
0.5996803
0.6994821
0.5273667
0.6064616
0.7106834
0.4689535
0.5303088
0.6108002
0.7179037
0.4213966
0.4700715
0.5319598
0.6133541
0.7222824
0.3820625
0.4215167
0.4703718
0.5325472
0.61444
0.7239499
0.3489691
0.3815302
0.4209828
0.4698494
0.532064
0.6137756
0.7226144
0.3206371
0.3479009
0.3803439
0.4196466
0.4683184
0.5300753
0.6108522
0.717936
0.2959434
0.3190267
0.3460794
0.3782526
0.4172011
0.4652485
0.5259635
0.6051483
0.7086702
0.2740609
0.2937673
0.3165602
0.3432457
0.3749444
0.4131512
0.4600763
0.5192373
0.5957998
0.6933038
0.2545809
0.271531
0.2909121
0.313299
0.3394683
0.3704101
0.4075333
0.4530273
0.5100641
0.5830439
0.6765101
0.2377112
0.252462
0.2691658
0.2882454
0.3102576
0.3358842
0.3660665
0.4022359
0.4464038
0.5014841
0.5738965
0.6592083
0.2232289
0.2362269
0.2508274
0.2673506
0.2862103
0.3078943
0.3330607
0.3626962
0.3981363
0.4412952
0.4968211
0.5662675
0.6454408
0.2107545
0.2223404
0.2352665
0.2497822
0.2662045
0.2848946
0.3063309
0.3312247
0.3605075
0.3954786
0.4394545
0.4936527
0.561258
0.6362665
0.1999342
0.2103671
0.2219396
0.2348506
0.2493497
0.2657121
0.2842974
0.3056381
0.3304111
0.3595378
0.3954676
0.4388476
0.4924582
0.5590197
0.6317491
0.6620933
0.5897004
0.6834141
0.522658
0.5999557
0.7002952
0.4668433
0.5275678
0.6070121
0.7119244
0.420627
0.4691063
0.5307055
0.6116205
0.7195691
0.3820625
0.4215167
0.4703718
0.5325472
0.61444
0.7239499
0.3494939
0.3821595
0.4217527
0.4708157
0.5333216
0.615518
0.7253508
0.3216106
0.3490493
0.381721
0.4213314
0.470434
0.5328309
0.6146758
0.7240171
0.2973853
0.3207046
0.3480586
0.3806258
0.4201055
0.4688966
0.5307151
0.6117515
0.7193318
0.276003
0.2960009
0.3191592
0.3463119
0.3786226
0.4176536
0.4657298
0.5266014
0.6060413
0.7100435
0.256846
0.27411
0.2938789
0.3167531
0.3435471
0.3753044
0.4135226
0.4605484
0.5198596
0.5966632
0.6996306
0.2396262
0.254622
0.2716235
0.2910699
0.3135417
0.3397526
0.3706942
0.4078809
0.4534637
0.5106308
0.586792
0.6810932
0.2245869
0.2377465
0.2525404
0.2692983
0.2884464
0.3104896
0.3361106
0.3663361
0.4025632
0.446811
0.5040293
0.5763896
0.6621082
0.2115816
0.2232597
0.236295
0.2509412
0.2675217
0.2864053
0.3080816
0.3332794
0.3629557
0.39845
0.443184
0.4985071
0.5680035
0.6470785
0.2003095
0.2107818
0.2224005
0.2353662
0.2499307
0.2663721
0.2850536
0.306514
0.3314381
0.3607602
0.3969613
0.4407169
0.4948796
0.5623563
0.6370124
0.19048
0.1999588
0.2104208
0.2220281
0.2349816
0.2494963
0.2658499
0.2844542
0.3058185
0.3306213
0.3607473
0.3964684
0.4397865
0.4932643
0.5595564
0.6428201
0.5766907
0.6624401
0.5154203
0.5899645
0.6841755
0.4632149
0.5228563
0.6004955
0.7014945
0.4189437
0.4669955
0.5279622
0.6078246
0.7135604
0.3814332
0.420747
0.4694062
0.5312915
0.612702
0.7212235
0.3494939
0.3821595
0.4217527
0.4708157
0.5333216
0.615518
0.7253508
0.3220553
0.3495741
0.3823503
0.4221016
0.471401
0.5340902
0.6164213
0.7267626
0.2982216
0.3216781
0.3492071
0.3820031
0.4217914
0.4710142
0.5334736
0.6155813
0.7254316
0.2772564
0.297443
0.3208374
0.348292
0.3809977
0.4205611
0.4693816
0.5313593
0.6126573
0.7207415
0.2585515
0.2760528
0.2961142
0.3193553
0.3466188
0.37899
0.4180337
0.4662151
0.5272446
0.6069423
0.7168031
0.2416337
0.256889
0.2742068
0.2940442
0.3170079
0.3438464
0.3756067
0.4138968
0.4610243
0.520487
0.6009007
0.7063734
0.2262977
0.2396626
0.2547031
0.2717606
0.2912783
0.3137826
0.3399894
0.3709782
0.4082284
0.4538999
0.5133878
0.5898774
0.6855443
0.2128032
0.2246183
0.2378159
0.2526567
0.2694732
0.288646
0.3106819
0.336336
0.3666044
0.402889
0.4487831
0.5058777
0.578416
0.6642396
0.2010579
0.2116092
0.2233205
0.2363959
0.2510917
0.2676915
0.2865667
0.3082677
0.3334968
0.3632134
0.3999661
0.4444948
0.4998045
0.5691902
0.6479159
0.1908213
0.2003342
0.2108358
0.2224895
0.235498
0.2500782
0.2665108
0.2852116
0.3066958
0.3316501
0.361981
0.3979758
0.4416734
0.495705
0.562909
0.1818518
0.1905023
0.2000073
0.2105004
0.2221452
0.2351117
0.2496176
0.2659867
0.2846099
0.3059976
0.3316365
0.3615714
0.3972235
0.4404156
0.4936687
0.6280475
0.5645791
0.6431344
0.50595
0.5769344
0.6631187
0.4576284
0.5156123
0.5904821
0.6852989
0.4160477
0.4633656
0.5232455
0.6012923
0.7030758
0.3800565
0.4190635
0.4672943
0.5285447
0.6088958
0.7151856
0.3489691
0.3815302
0.4209828
0.4698494
0.532064
0.6137756
0.7226144
0.3220553
0.3495741
0.3823503
0.4221016
0.471401
0.5340902
0.6164213
0.7267626
0.2986036
0.3221228
0.3497319
0.3826326
0.4225618
0.471982
0.534734
0.6173294
0.7281853
0.277983
0.2982792
0.3218109
0.3494406
0.3823755
0.422248
0.4715004
0.5341197
0.6164921
0.7268582
0.2596515
0.2773062
0.2975565
0.3210341
0.3486
0.381367
0.4209433
0.4698698
0.5320078
0.6135697
0.7276666
0.2431438
0.258595
0.2761509
0.2962821
0.3196143
0.3469236
0.3792986
0.4184169
0.4667043
0.5278933
0.6113644
0.7239062
0.2280895
0.2416716
0.2569737
0.2743501
0.2942626
0.317261
0.3440977
0.3759114
0.414274
0.461504
0.5235647
0.6051759
0.7148427
0.2143411
0.2263301
0.2397343
0.2548233
0.2719416
0.2914853
0.3139833
0.3402262
0.371262
0.4085758
0.4560221
0.515645
0.5927786
0.6895155
0.2021628
0.2128313
0.2246803
0.2379189
0.2528104
0.2696468
0.2888115
0.3108733
0.3365603
0.3668714
0.4044663
0.4502127
0.507376
0.579883
0.665398
0.1915019
0.2010829
0.2116638
0.2234106
0.2365292
0.2512411
0.2678322
0.2867271
0.3084526
0.3337127
0.3644594
0.4010169
0.4455027
0.5006903
0.5697946
0.1821636
0.1908437
0.2003829
0.2109158
0.2226072
0.2356288
0.2502003
0.2666485
0.2853684
0.3068763
0.3326741
0.3628155
0.398744
0.4423164
0.4961202
0.1739456
0.1818721
0.1905463
0.2000793
0.2106056
0.2222614
0.2352193
0.249738
0.2661225
0.2847644
0.3068627
0.3323277
0.3621928
0.3977291
0.4407311
0.6183172
0.5551815
0.6283404
0.4970895
0.5648066
0.6437493
0.4502945
0.5061294
0.5774118
0.6641193
0.4115822
0.4577751
0.5159889
0.5912463
0.6867801
0.3776865
0.4161665
0.4636615
0.5238203
0.6023429
0.7046467
0.3478207
0.3801534
0.4192987
0.4677359
0.5293128
0.6099593
0.7165539
0.3216106
0.3490493
0.381721
0.4213314
0.470434
0.5328309
0.6146758
0.7240171
0.2986036
0.3221228
0.3497319
0.3826326
0.4225618
0.471982
0.534734
0.6173294
0.7281853
0.2783148
0.2986612
0.3222556
0.3499654
0.383005
0.4230187
0.4724685
0.5353809
0.6182423
0.7296191
0.2602889
0.2780328
0.2983927
0.3220075
0.3497488
0.3827452
0.4226304
0.4719891
0.5347694
0.6174083
0.7338556
0.2441173
0.259695
0.2774044
0.2977247
0.3212939
0.348906
0.3816767
0.4213279
0.4703612
0.5326606
0.6180398
0.7346111
0.2294365
0.2431822
0.2586808
0.2762963
0.2965038
0.3198715
0.3471796
0.3796097
0.4188032
0.4671975
0.5310754
0.6157778
0.7324942
0.2159505
0.2281232
0.2417464
0.2570992
0.2745396
0.2944796
0.3174735
0.344351
0.3762184
0.4146541
0.4638565
0.5266506
0.6103251
0.7257983
0.203553
0.2143701
0.226394
0.2398406
0.2549821
0.2721215
0.2916576
0.3141839
0.3404628
0.3715458
0.4102653
0.4577565
0.5177588
0.5952923
0.6922595
0.1925061
0.2021882
0.2128869
0.2247721
0.2380549
0.2529629
0.2697909
0.2889762
0.3110638
0.3367834
0.3681641
0.4056082
0.4513704
0.5084583
0.580671
0.1827851
0.1915245
0.2011322
0.2117447
0.2235296
0.2366617
0.2513647
0.2679719
0.2868864
0.3086363
0.3347562
0.3653222
0.4018244
0.4461903
0.5011411
0.1742316
0.182184
0.190888
0.2004553
0.2110216
0.2227241
0.2357371
0.2503215
0.2667852
0.2855241
0.3077483
0.3333735
0.3634471
0.3992602
0.4426398
0.1666744
0.1739643
0.1819123
0.1906117
0.2001744
0.2107102
0.2223576
0.2353262
0.2498576
0.2662573
0.285511
0.3074514
0.3328488
0.3626088
0.3979827
0.6135289
0.5489301
0.6185971
0.490184
0.555398
0.6289134
0.4434036
0.4972589
0.5652523
0.644656
0.4057042
0.4504324
0.506481
0.5781164
0.665438
0.3740272
0.4116983
0.458063
0.5165454
0.5922539
0.6882515
0.3458425
0.3777828
0.4164001
0.4640988
0.5245783
0.603386
0.705972
0.3206371
0.3479009
0.3803439
0.4196466
0.4683184
0.5300753
0.6108522
0.717936
0.2982216
0.3216781
0.3492071
0.3820031
0.4217914
0.4710142
0.5334736
0.6155813
0.7254316
0.2783148
0.2986612
0.3222556
0.3499654
0.383005
0.4230187
0.4724685
0.5353809
0.6182423
0.7296191
0.26058
0.2783646
0.2987746
0.3224522
0.3502735
0.3833748
0.4234012
0.4729572
0.5360309
0.61916
0.7366472
0.2446813
0.2603324
0.2781309
0.2985607
0.3222672
0.3500548
0.3830548
0.4230148
0.4724803
0.5354226
0.6218915
0.7406425
0.2303043
0.2441557
0.2597808
0.27755
0.2979468
0.3215518
0.3491625
0.3819883
0.4217149
0.4708558
0.5358577
0.6223156
0.7426408
0.2171596
0.2294706
0.2432579
0.258808
0.2764883
0.296724
0.3200876
0.3474376
0.3799232
0.4191926
0.4696165
0.5342362
0.6209091
0.7427378
0.2050067
0.2159807
0.2281898
0.2418573
0.2572651
0.2747278
0.2946618
0.3176876
0.3446062
0.3765278
0.4165182
0.4662127
0.5303495
0.6167618
0.7407219
0.1937689
0.2035791
0.2144273
0.2264887
0.2399811
0.2551399
0.2722712
0.2918299
0.3143844
0.3406993
0.3729257
0.4116449
0.4593791
0.5195833
0.5969868
0.1837019
0.1925292
0.2022384
0.2129693
0.2248934
0.2381901
0.2530895
0.2699342
0.2891401
0.3112532
0.3378637
0.3690992
0.4065326
0.452206
0.5090387
0.1748015
0.1828058
0.1915692
0.2012053
0.2118517
0.2236479
0.2367714
0.2514876
0.2681107
0.2870446
0.3095239
0.3354783
0.3659849
0.4023751
0.44654
0.1669376
0.1742503
0.1822244
0.1909536
0.2005509
0.2111267
0.2228209
0.2358446
0.2504418
0.266921
0.2862762
0.3083436
0.3339027
0.3638715
0.3995198
0.1599647
0.1666915
0.1740011
0.1819719
0.1906981
0.2002689
0.2107967
0.2224531
0.2354323
0.2499762
0.2669084
0.2860186
0.3078949
0.3331975
0.3628173
0.5458342
0.6138027
0.4855752
0.5491399
0.6191449
0.4380127
0.4903465
0.5558223
0.6297585
0.4001626
0.4435347
0.4975909
0.56591
0.6458505
0.3691998
0.4058139
0.4507032
0.5070004
0.5790449
0.666747
0.3427849
0.3741216
0.4119264
0.4584888
0.5172793
0.5932543
0.6894925
0.3189594
0.3459223
0.3779723
0.4167454
0.4646758
0.5253309
0.6042632
0.7073131
0.2973853
0.3207046
0.3480586
0.3806258
0.4201055
0.4688966
0.5307151
0.6117515
0.7193318
0.277983
0.2982792
0.3218109
0.3494406
0.3823755
0.422248
0.4715004
0.5341197
0.6164921
0.7268582
0.26058
0.2783646
0.2987746
0.3224522
0.3502735
0.3833748
0.4234012
0.4729572
0.5360309
0.61916
0.7366472
0.2449388
0.2606235
0.2784626
0.2989426
0.3227117
0.3505795
0.3836843
0.4237854
0.4734482
0.536684
0.6236477
0.743359
0.2308069
0.2447196
0.2604181
0.2782762
0.2987827
0.322525
0.3503111
0.3833659
0.4234011
0.472974
0.5386173
0.6260514
0.7482751
0.2179382
0.2303384
0.2442314
0.2599081
0.2777422
0.2981674
0.3217681
0.3494207
0.3823019
0.4221044
0.4732772
0.5389047
0.6270762
0.7517666
0.2060982
0.2171901
0.2295379
0.2433702
0.258976
0.2766791
0.296909
0.3203054
0.3476977
0.3802393
0.4211021
0.4720177
0.5378981
0.6268332
0.7547783
0.1950887
0.2050339
0.2160403
0.2282885
0.2420039
0.25743
0.2748858
0.2948453
0.3179033
0.3448634
0.3780449
0.4183847
0.4690345
0.5349507
0.625289
0.7662534
0.1848542
0.1937926
0.2036308
0.2145123
0.2266139
0.2401207
0.2552713
0.2724209
0.2920021
0.3145848
0.3418494
0.3740518
0.4129351
0.4607785
0.5208098
0.1756418
0.1837229
0.1925746
0.2023128
0.2130783
0.225014
0.2383022
0.2532153
0.2700767
0.2893031
0.3121704
0.3386446
0.3698558
0.4071995
0.4526541
0.167462
0.1748203
0.1828465
0.1916356
0.2013019
0.2119579
0.2237458
0.2368803
0.2516097
0.2682485
0.2878094
0.3101377
0.3360328
0.3664368
0.4026552
0.1602077
0.1669548
0.1742872
0.1822843
0.1910405
0.2006459
0.2112137
0.2229169
0.2359514
0.2505613
0.2675767
0.2867894
0.3087939
0.3342582
0.3640848
0.153754
0.1599805
0.1667254
0.1740557
0.1820508
0.190784
0.2003472
0.2108826
0.2225479
0.2355376
0.2505494
0.267351
0.2864011
0.3081917
0.3333723
0.4832877
0.5460407
0.6143386
0.4344044
0.4857336
0.5495509
0.6199527
0.3958139
0.4381392
0.4906653
0.5564484
0.6308718
0.3646363
0.4002674
0.4437921
0.4980811
0.5667765
0.647036
0.3387438
0.3692894
0.4060295
0.4511033
0.507685
0.5799664
0.6678409
0.3163637
0.3428632
0.3743072
0.4122639
0.4590503
0.5180079
0.5940954
0.690748
0.2959434
0.3190267
0.3460794
0.3782526
0.4172011
0.4652485
0.5259635
0.6051483
0.7086702
0.2772564
0.297443
0.3208374
0.348292
0.3809977
0.4205611
0.4693816
0.5313593
0.6126573
0.7207415
0.2602889
0.2780328
0.2983927
0.3220075
0.3497488
0.3827452
0.4226304
0.4719891
0.5347694
0.6174083
0.7338556
0.2449388
0.2606235
0.2784626
0.2989426
0.3227117
0.3505795
0.3836843
0.4237854
0.4734482
0.536684
0.6236477
0.743359
0.2310364
0.244977
0.2607091
0.2786079
0.2991643
0.3229694
0.3508356
0.3839951
0.4241712
0.4739414
0.5398764
0.6277534
0.7508129
0.2183891
0.2308409
0.2447951
0.2605452
0.2784683
0.2990031
0.3227409
0.3505686
0.3836786
0.4237894
0.4753883
0.5415728
0.6305597
0.7567466
0.2068008
0.2179687
0.2304056
0.2443436
0.2600762
0.2779332
0.2983524
0.3219857
0.3496804
0.3826174
0.4240109
0.4755838
0.5422885
0.6323105
0.7619527
0.196079
0.2061257
0.2172503
0.2296377
0.2435185
0.259143
0.2768394
0.2970954
0.3205248
0.3479598
0.3817889
0.4229974
0.4747982
0.5421108
0.6335995
0.770898
0.1860577
0.1951133
0.2050876
0.2161287
0.228419
0.2421496
0.2575685
0.275045
0.2950303
0.3181207
0.3461243
0.3795639
0.4206195
0.4725393
0.5410152
0.6395686
0.780565
0.1766974
0.1848757
0.1938394
0.2037074
0.2146246
0.2267383
0.2402369
0.2554026
0.2725705
0.2921742
0.3155591
0.3427874
0.3751047
0.4140474
0.4617188
0.168235
0.175661
0.1837644
0.1926421
0.2024112
0.2131866
0.225114
0.2384137
0.2533406
0.2702186
0.2900922
0.3128331
0.3392763
0.3704016
0.4075571
0.1606919
0.1674794
0.1748577
0.182907
0.1917233
0.2013979
0.2120459
0.2238431
0.2369885
0.2517309
0.2689147
0.288338
0.3106089
0.3364107
0.3666665
0.1539791
0.1602236
0.1669888
0.1743421
0.1823635
0.1911268
0.2007245
0.2113
0.2230123
0.2360573
0.2511382
0.2680239
0.2871774
0.3090962
0.3344368
0.147989
0.1537686
0.1600117
0.1667756
0.174128
0.1821292
0.1908551
0.2004248
0.2109678
0.2226421
0.2360462
0.2509388
0.2676844
0.286657
0.3083405
0.43261
0.483444
0.5464453
0.615129
0.3928965
0.4345281
0.4860441
0.5501574
0.621017
0.3610463
0.3959154
0.4383875
0.4911361
0.5572733
0.6319765
0.3349151
0.3647221
0.4004732
0.4441723
0.4987273
0.5676364
0.6480214
0.312928
0.3388184
0.3694654
0.4063482
0.4516309
0.5083645
0.5807351
0.6689375
0.2937106
0.3164299
0.3430174
0.3745819
0.4127091
0.4596079
0.5186201
0.5949439
0.6920184
0.276003
0.2960009
0.3191592
0.3463119
0.3786226
0.4176536
0.4657298
0.5266014
0.6060413
0.7100435
0.2596515
0.2773062
0.2975565
0.3210341
0.3486
0.381367
0.4209433
0.4698698
0.5320078
0.6135697
0.7276666
0.2446813
0.2603324
0.2781309
0.2985607
0.3222672
0.3500548
0.3830548
0.4230148
0.4724803
0.5354226
0.6218915
0.7406425
0.2310364
0.244977
0.2607091
0.2786079
0.2991643
0.3229694
0.3508356
0.3839951
0.4241712
0.4739414
0.5398764
0.6277534
0.7508129
0.2185948
0.2310703
0.2450525
0.260836
0.2787997
0.2993846
0.3231851
0.3510927
0.3843072
0.4245588
0.4763515
0.5427892
0.6321493
0.7590053
0.2072076
0.2184195
0.230908
0.2449072
0.260713
0.278659
0.2991877
0.3229579
0.3508273
0.3839928
0.4256875
0.4776208
0.5447697
0.6353988
0.7660266
0.1967163
0.2068283
0.2180289
0.2305054
0.2444919
0.2602433
0.2780933
0.2985385
0.3222046
0.3499417
0.3841618
0.4258269
0.4781447
0.5459995
0.6379781
0.7750172
0.1869604
0.1961039
0.2061799
0.2173397
0.2297696
0.2436659
0.2592833
0.2770009
0.2972832
0.320746
0.3492449
0.3833271
0.4251918
0.4779934
0.5469051
0.6424207
0.7825904
0.1777995
0.1860801
0.1951619
0.2051673
0.2162457
0.2285487
0.2422719
0.2577079
0.2752054
0.2952166
0.3191866
0.3473868
0.3813824
0.423393
0.4771484
0.5511171
0.6480464
0.7913846
0.1692057
0.1767171
0.1849184
0.1939088
0.2038086
0.2147361
0.2268419
0.2403531
0.2555338
0.27272
0.2930109
0.3163534
0.3436644
0.3760123
0.4147947
0.1614053
0.1682526
0.1756989
0.1838259
0.1927314
0.2025089
0.2132763
0.2252135
0.2385246
0.2534652
0.270905
0.290662
0.313369
0.3397319
0.3706942
0.1544275
0.1607079
0.1675136
0.1749131
0.182987
0.1918105
0.2014774
0.2121333
0.2239397
0.2370959
0.2523166
0.2693749
0.2887437
0.31093
0.3366028
0.1481981
0.1539938
0.1602549
0.1670392
0.1744147
0.1824423
0.1911982
0.2008026
0.2113857
0.223107
0.2365691
0.2515316
0.268362
0.287438
0.3092481
0.1426237
0.1480026
0.1537975
0.160058
0.1668421
0.1741998
0.1821941
0.1909257
0.2005019
0.2110524
0.2230965
0.2363916
0.2512321
0.2679074
0.2867852
0.3914435
0.4327324
0.4837506
0.5470425
0.6161703
0.3586335
0.392996
0.4347709
0.4865027
0.5509566
0.6220731
0.3318972
0.3611297
0.3961147
0.4387545
0.4917565
0.5580919
0.6328931
0.3096668
0.3349868
0.3648907
0.4007774
0.4446735
0.4993685
0.5683505
0.649004
0.2907514
0.3129911
0.338965
0.3697257
0.4067685
0.4521545
0.5089309
0.5815042
0.6700367
0.2740609
0.2937673
0.3165602
0.3432457
0.3749444
0.4131512
0.4600763
0.5192373
0.5957998
0.6933038
0.2585515
0.2760528
0.2961142
0.3193553
0.3466188
0.37899
0.4180337
0.4662151
0.5272446
0.6069423
0.7168031
0.2441173
0.259695
0.2774044
0.2977247
0.3212939
0.348906
0.3816767
0.4213279
0.4703612
0.5326606
0.6180398
0.7346111
0.2308069
0.2447196
0.2604181
0.2782762
0.2987827
0.322525
0.3503111
0.3833659
0.4234011
0.472974
0.5386173
0.6260514
0.7482751
0.2185948
0.2310703
0.2450525
0.260836
0.2787997
0.2993846
0.3231851
0.3510927
0.3843072
0.4245588
0.4763515
0.5427892
0.6321493
0.7590053
0.2073932
0.2186252
0.2311374
0.2451644
0.2610037
0.2789903
0.2995689
0.3234017
0.3513509
0.3846207
0.4264523
0.4785495
0.5459029
0.6368213
0.7679178
0.1970852
0.207235
0.2184795
0.2310076
0.2450552
0.2608798
0.2788187
0.2993731
0.3231758
0.3510873
0.3855287
0.4274424
0.4800354
0.5481947
0.6405362
0.7778092
0.1875411
0.1967411
0.2068824
0.2181181
0.2306373
0.2446393
0.2603833
0.2782544
0.2987257
0.3224248
0.3512206
0.3856328
0.4278432
0.4809514
0.5500078
0.6450367
0.7849534
0.1786257
0.186983
0.196153
0.2062604
0.2174579
0.2299008
0.2437897
0.2594246
0.2771636
0.2974725
0.3218303
0.3505206
0.3851081
0.4277122
0.4816242
0.5531347
0.6494184
0.7924097
0.1702186
0.1778199
0.1861244
0.1952342
0.2052728
0.2163619
0.2286576
0.2423952
0.2578484
0.275367
0.2961302
0.3202537
0.348898
0.3836381
0.4270352
0.4848034
0.5570829
0.65491
0.7998311
0.1623009
0.1692238
0.1767561
0.1849816
0.1940007
0.2039093
0.2148291
0.2269454
0.2404691
0.2556649
0.2734467
0.2936928
0.3170961
0.3444203
0.376622
0.155088
0.1614216
0.1682875
0.1757552
0.1839072
0.1928201
0.20259
0.2133656
0.2253124
0.2386349
0.254068
0.2714006
0.2911228
0.3137555
0.3399762
0.1486144
0.1544422
0.1607395
0.1675646
0.1749863
0.1830666
0.1918827
0.2015564
0.2122201
0.2240356
0.2376151
0.2527211
0.2697281
0.2890201
0.3110932
0.1428183
0.1482117
0.1540228
0.1603014
0.167106
0.1744869
0.1825075
0.1912692
0.20088
0.2114708
0.2235641
0.2369179
0.2518289
0.2685889
0.2875689
0.1376183
0.1426363
0.1480293
0.1538404
0.1601193
0.1669081
0.1742592
0.1822585
0.1909957
0.2005784
0.211461
0.223405
0.2366517
0.2514283
0.2680192
0.3574302
0.3915419
0.4329725
0.4842034
0.5478295
0.6172036
0.3298658
0.3587153
0.3931913
0.4351296
0.4871072
0.5517496
0.6229489
0.3070919
0.331967
0.3612935
0.3964094
0.4392382
0.4923722
0.5587706
0.6338053
0.2879381
0.3097275
0.3351277
0.3651401
0.4011786
0.4451709
0.4999008
0.5690619
0.6499837
0.2714841
0.2908055
0.3131152
0.339182
0.3700691
0.4071857
0.4525909
0.5094975
0.5822738
0.6711384
0.256846
0.27411
0.2938789
0.3167531
0.3435471
0.3753044
0.4135226
0.4605484
0.5198596
0.5966632
0.6996306
0.2431438
0.258595
0.2761509
0.2962821
0.3196143
0.3469236
0.3792986
0.4184169
0.4667043
0.5278933
0.6113644
0.7239062
0.2303043
0.2441557
0.2597808
0.27755
0.2979468
0.3215518
0.3491625
0.3819883
0.4217149
0.4708558
0.5358577
0.6223156
0.7426408
0.2183891
0.2308409
0.2447951
0.2605452
0.2784683
0.2990031
0.3227409
0.3505686
0.3836786
0.4237894
0.4753883
0.5415728
0.6305597
0.7567466
0.2073932
0.2186252
0.2311374
0.2451644
0.2610037
0.2789903
0.2995689
0.3234017
0.3513509
0.3846207
0.4264523
0.4785495
0.5459029
0.6368213
0.7679178
0.1972535
0.2074206
0.2186852
0.2312368
0.2453123
0.2611703
0.2791498
0.299754
0.3236191
0.3516102
0.3861521
0.4281789
0.4808991
0.549207
0.6417454
0.7791973
0.1878772
0.1971099
0.207289
0.2185686
0.2311392
0.2452023
0.2610194
0.2789791
0.2995594
0.3233948
0.3523581
0.3869486
0.4293408
0.4826213
0.5518243
0.6468622
0.7867893
0.179157
0.1875637
0.1967901
0.2069628
0.2182362
0.2307683
0.2447629
0.2605242
0.2784164
0.298914
0.3235026
0.3524387
0.3872662
0.4300523
0.48398
0.5549889
0.6510502
0.7937869
0.1709776
0.1786463
0.1870277
0.1962259
0.2063669
0.2175753
0.2300109
0.2439145
0.259567
0.2773275
0.2984006
0.3229068
0.3519976
0.3871529
0.4305734
0.486333
0.5580648
0.6557314
0.8004376
0.163235
0.1702374
0.1778604
0.1861901
0.1953297
0.2053776
0.2164596
0.2287674
0.2425193
0.25799
0.2761593
0.2970449
0.3215311
0.3507719
0.3865973
0.4330718
0.4893008
0.5619101
0.6606004
0.8064571
0.1559167
0.1623175
0.1692595
0.1768139
0.1850653
0.194092
0.2039932
0.2149219
0.2270488
0.2405851
0.2563023
0.2740389
0.2943303
0.3177361
0.3449282
0.1492276
0.155103
0.1614537
0.1683392
0.1758297
0.1839881
0.1928937
0.2026706
0.2134544
0.2254108
0.2391688
0.2545032
0.2718012
0.2914551
0.3139627
0.1432059
0.1486281
0.1544715
0.1607864
0.1676319
0.1750592
0.1831324
0.1919544
0.2016348
0.2123063
0.2244991
0.2379736
0.2530314
0.2699686
0.2891605
0.1378
0.142831
0.1482386
0.1540658
0.160363
0.1671723
0.1745466
0.1825722
0.1913395
0.200957
0.2118817
0.2238756
0.2371815
0.2520285
0.2687029
0.1329383
0.13763
0.1426612
0.1480691
0.1538971
0.1601803
0.1669628
0.1743182
0.1823224
0.1910652
0.2009477
0.2117383
0.2236374
0.2368257
0.2515266
0.3288517
0.3575112
0.3917353
0.4333272
0.4848003
0.5486103
0.6180603
0.3053565
0.3299344
0.3588761
0.3934801
0.4356025
0.487707
0.5524069
0.62382
0.2857138
0.3071512
0.3321041
0.3615357
0.396798
0.4397183
0.4928824
0.5594457
0.6347131
0.2690311
0.2879904
0.3098471
0.3353361
0.3654691
0.4015767
0.4455837
0.5004308
0.5697705
0.6509604
0.2545809
0.271531
0.2909121
0.313299
0.3394683
0.3704101
0.4075333
0.4530273
0.5100641
0.5830439
0.6765101
0.2416337
0.256889
0.2742068
0.2940442
0.3170079
0.3438464
0.3756067
0.4138968
0.4610243
0.520487
0.6009007
0.7063734
0.2294365
0.2431822
0.2586808
0.2762963
0.2965038
0.3198715
0.3471796
0.3796097
0.4188032
0.4671975
0.5310754
0.6157778
0.7324942
0.2179382
0.2303384
0.2442314
0.2599081
0.2777422
0.2981674
0.3217681
0.3494207
0.3823019
0.4221044
0.4732772
0.5389047
0.6270762
0.7517666
0.2072076
0.2184195
0.230908
0.2449072
0.260713
0.278659
0.2991877
0.3229579
0.3508273
0.3839928
0.4256875
0.4776208
0.5447697
0.6353988
0.7660266
0.1972535
0.2074206
0.2186852
0.2312368
0.2453123
0.2611703
0.2791498
0.299754
0.3236191
0.3516102
0.3861521
0.4281789
0.4808991
0.549207
0.6417454
0.7791973
0.1880305
0.1972782
0.2074745
0.2187741
0.2313682
0.2454592
0.2613097
0.2793098
0.2999398
0.3238374
0.3528768
0.3875483
0.4300249
0.4833917
0.5526844
0.6477867
0.7877628
0.1794644
0.1878997
0.1971588
0.2073692
0.2186863
0.23127
0.2453255
0.2611597
0.2791403
0.2997465
0.3244651
0.3535329
0.3884847
0.4313736
0.4853601
0.5562866
0.6523445
0.7949585
0.1714657
0.1791776
0.1876082
0.1968629
0.2070691
0.2183535
0.2308782
0.2448872
0.2606659
0.2785794
0.2998356
0.3245293
0.3537914
0.3890554
0.4324348
0.4877391
0.5592336
0.6568242
0.801296
0.1639347
0.1709966
0.1786871
0.187094
0.1963223
0.2064727
0.217674
0.2301219
0.2440402
0.2597105
0.2781314
0.2993219
0.3241532
0.353693
0.3894725
0.4342791
0.4900488
0.5625119
0.6611981
0.8068738
0.1567809
0.1632523
0.1702745
0.1779205
0.1862771
0.1954246
0.2054656
0.2165579
0.2288779
0.2426444
0.258684
0.2769525
0.2981398
0.3231145
0.3532283
0.3914939
0.4366053
0.4929304
0.5659113
0.6652778
0.8115804
0.1499967
0.1559321
0.1623505
0.1693127
0.1768905
0.1851484
0.194168
0.2040769
0.2150147
0.2271522
0.2411489
0.2568216
0.2745924
0.2948797
0.3181662
0.1437767
0.1492415
0.1551326
0.1615013
0.1684076
0.1759037
0.1840552
0.1929669
0.2027508
0.2135428
0.2258871
0.239554