/*--------------------------------*- C++ -*----------------------------------*\
| =========                 |                                                 |
| \\      /  F ield         | OpenFOAM: The Open Source CFD Toolbox           |
|  \\    /   O peration     | Version:  2306                                  |
|   \\  /    A nd           | Website:  www.openfoam.com                      |
|    \\/     M anipulation  |                                                 |
\*---------------------------------------------------------------------------*/
FoamFile
{
    version     2.0;
    format      ascii;
    arch        "LSB;label=32;scalar=64";
    class       volScalarField;
    location    "1.5/fuel";
    object      H2O;
}
// * * * * * * * * * * * * * * * * * * * * * * * * * * * * * * * * * * * * * //

dimensions      [0 0 0 0 0 0 0];

internalField   nonuniform List<scalar> 
16000
(
0.3864756
0.3816873
0.4541707
0.3862019
0.3719569
0.4510747
0.3814074
0.5167172
0.4539641
0.385666
0.3571842
0.4448233
0.371664
0.5144297
0.4508649
0.3808596
0.5673948
0.5165609
0.4535595
0.3848756
0.3379107
0.4354255
0.3568699
0.5098209
0.4446067
0.371091
0.5656004
0.5142713
0.4504539
0.3800518
0.6085612
0.5672725
0.5162543
0.4529623
0.3838342
0.3169787
0.4233138
0.3375639
0.5029153
0.435198
0.356255
0.5619921
0.5096583
0.4441825
0.3702459
0.6071081
0.5654767
0.5139608
0.4498474
0.3789875
0.6425743
0.6084628
0.5670324
0.5158015
0.4521754
0.3828009
0.3009369
0.410304
0.3165896
0.4940547
0.4230701
0.3368854
0.5566011
0.5027459
0.4347523
0.3553482
0.6041908
0.5618656
0.5093395
0.4435564
0.3691326
0.641371
0.6070087
0.5652339
0.5135021
0.4490482
0.3779313
0.6711526
0.6424933
0.6082693
0.5666776
0.5152046
0.4513946
0.3819442
0.2905917
0.400324
0.3005214
0.4845844
0.4100399
0.3158282
0.5497102
0.4938754
0.4225927
0.3358847
0.5998421
0.55647
0.5024139
0.4340947
0.3541537
0.6389582
0.6040893
0.5616172
0.5088688
0.4427314
0.3680279
0.6701385
0.6412892
0.6068133
0.5648752
0.5128976
0.4482552
0.3770556
0.6955147
0.6710846
0.6423339
0.6079834
0.5662099
0.5146124
0.4507474
0.3810921
0.2846582
0.3938236
0.2901615
0.4773466
0.4000486
0.2997083
0.5423763
0.4843924
0.4095223
0.3147048
0.5943004
0.5495723
0.4935237
0.4218882
0.334566
0.6353682
0.5997373
0.5562127
0.5019237
0.4332281
0.3529682
0.6681071
0.6388748
0.6038899
0.5612503
0.5082483
0.4419129
0.3671113
0.6946476
0.6700699
0.6411284
0.6065246
0.5644023
0.5122978
0.4475979
0.3761845
0.7165411
0.6954568
0.6709509
0.6420981
0.6076063
0.5657457
0.5141218
0.4501041
0.3802446
0.2819787
0.3900437
0.28422
0.4726378
0.3935426
0.28932
0.5367897
0.4771482
0.3995088
0.298509
0.5884224
0.5422296
0.4840157
0.4087581
0.3132236
0.6308046
0.5941907
0.5493015
0.4930043
0.4209596
0.333257
0.6650892
0.6352824
0.5995315
0.5558325
0.5012774
0.4323682
0.3519828
0.6929122
0.6680373
0.638711
0.6035952
0.5607666
0.5076327
0.4412341
0.3661991
0.7157908
0.6945893
0.6699351
0.6408905
0.6061437
0.563933
0.5118009
0.4469444
0.3753181
0.7348818
0.7164912
0.6953429
0.670753
0.6417872
0.607232
0.5653613
0.5136342
0.4494645
0.3794018
0.2819787
0.388317
0.2815368
0.469898
0.3897599
0.2833631
0.5331613
0.4724367
0.3929921
0.2880789
0.5839569
0.536639
0.4767591
0.398712
0.2969277
0.6259773
0.5883063
0.5419416
0.4834592
0.4077505
0.3117522
0.6612605
0.6307151
0.5939751
0.5489014
0.4923197
0.4200381
0.3321631
0.6903373
0.6650175
0.6351138
0.5992273
0.5553312
0.5006362
0.4316541
0.3510002
0.7142901
0.6928529
0.6679002
0.6384688
0.6032066
0.5602865
0.5071224
0.440559
0.3652913
0.7342257
0.7157405
0.6944745
0.6697355
0.6405768
0.6057658
0.5635443
0.511307
0.4462947
0.3744564
0.7510268
0.7348383
0.7163929
0.6951742
0.6704918
0.6414785
0.6069221
0.5649794
0.5131497
0.4488287
0.3753254
0.2846582
0.388317
0.2815368
0.4686451
0.388032
0.280673
0.5310511
0.4696957
0.389204
0.2820996
0.5810608
0.5330091
0.4720424
0.3921796
0.2864429
0.622318
0.583838
0.5363431
0.4761843
0.3976614
0.2953568
0.6572194
0.6258828
0.5880781
0.5415159
0.4827254
0.4067501
0.3105113
0.6870761
0.6611859
0.6305391
0.5936565
0.5483738
0.4916402
0.4192694
0.3310665
0.7120658
0.6902766
0.6648766
0.6348644
0.5988261
0.5548338
0.500104
0.4309427
0.3500205
0.7329144
0.714239
0.6927363
0.6676973
0.6381492
0.602821
0.5598887
0.5066151
0.4398876
0.364388
0.7504481
0.734182
0.7156415
0.6943045
0.6694723
0.6402654
0.6054528
0.563158
0.5108161
0.4456489
0.3702882
0.7653526
0.7509885
0.7347526
0.7162474
0.6949516
0.6702326
0.6412229
0.6066143
0.5645999
0.5126682
0.4457545
0.3725228
0.2905917
0.3900437
0.28422
0.4686451
0.388032
0.280673
0.5300861
0.4684423
0.3874738
0.2793994
0.5793775
0.5308983
0.469299
0.3883836
0.2804341
0.6199479
0.5809411
0.5327103
0.4714598
0.3911084
0.2848177
0.6541618
0.6222216
0.5836045
0.5359058
0.4754262
0.3966183
0.2940315
0.6836404
0.657141
0.6256972
0.5877407
0.5409543
0.4819968
0.4059089
0.3092557
0.7092525
0.687013
0.6610393
0.6302788
0.5932361
0.5478502
0.4910738
0.4185003
0.3299673
0.7309727
0.7120135
0.690157
0.6646682
0.6345354
0.5984279
0.554421
0.499574
0.4302341
0.3490437
0.749292
0.73287
0.7141386
0.6925637
0.6674295
0.6378321
0.6025015
0.5594933
0.5061106
0.4392197
0.3600159
0.7648382
0.7504096
0.7340957
0.715495
0.6940803
0.6692109
0.6400075
0.6051418
0.5627743
0.5103283
0.4425257
0.3674094
0.7781536
0.7653187
0.7509131
0.7346257
0.7160553
0.6947306
0.670018
0.6409691
0.6063085
0.5642229
0.5103407
0.4436476
0.3703992
0.3009369
0.3938236
0.2901615
0.469898
0.3897599
0.2833631
0.5300861
0.4684423
0.3874738
0.2793994
0.5786079
0.5299331
0.4680446
0.38665
0.2777208
0.6185712
0.5792575
0.5305984
0.468713
0.3873022
0.2787797
0.6521836
0.619851
0.5807058
0.5322687
0.4706917
0.3900449
0.2834494
0.6810447
0.6540819
0.6220321
0.5832591
0.5353288
0.4746736
0.395741
0.2926904
0.7062933
0.6835742
0.6569868
0.6254226
0.5872954
0.5403968
0.4813845
0.4050605
0.3079853
0.7285197
0.7091984
0.6868889
0.6608223
0.6299353
0.5928189
0.5474138
0.4905072
0.4177307
0.3288655
0.7475814
0.7309273
0.7119107
0.68998
0.6643932
0.6342089
0.5980975
0.5540101
0.4990462
0.4295282
0.3443072
0.763811
0.749253
0.7327826
0.7139899
0.6923359
0.6671637
0.6375693
0.6021839
0.5591003
0.5056091
0.4359891
0.3569455
0.7776932
0.7648041
0.7503337
0.7339679
0.7153015
0.6938576
0.6689945
0.6397514
0.6048329
0.562393
0.5079702
0.4403776
0.3652174
0.789663
0.7781233
0.7652518
0.7508014
0.7344581
0.7158644
0.6945476
0.6698048
0.640717
0.6060047
0.5624011
0.508749
0.4420541
0.3689723
0.3169787
0.400324
0.3005214
0.4726378
0.3935426
0.28932
0.5310511
0.4696957
0.389204
0.2820996
0.5786079
0.5299331
0.4680446
0.38665
0.2777208
0.6179419
0.5784878
0.5296327
0.4674573
0.3855641
0.2760533
0.6510352
0.6184742
0.5790217
0.5301551
0.4679405
0.3862286
0.2773888
0.679367
0.6521034
0.6196605
0.580358
0.5316862
0.4699292
0.389152
0.2820673
0.7040605
0.6809774
0.6539249
0.6217518
0.5828034
0.5347561
0.4740411
0.3948559
0.2913332
0.7259428
0.7062366
0.6834439
0.6567586
0.6250601
0.5868534
0.5399284
0.4807673
0.4042046
0.3066999
0.7454227
0.7284727
0.7090918
0.6867051
0.660536
0.6295944
0.5924713
0.5469774
0.4899406
0.4169606
0.3234938
0.7622921
0.7475416
0.7308379
0.7117585
0.6897465
0.6641201
0.633938
0.5977687
0.553601
0.4985207
0.4261081
0.3407959
0.7767742
0.7637764
0.7491761
0.7326531
0.7137936
0.6921098
0.6669436
0.6373083
0.6018683
0.5587096
0.5031837
0.4337372
0.3545634
0.7892485
0.7776627
0.7647368
0.7502213
0.7337992
0.7151093
0.6936732
0.6687796
0.639497
0.6045261
0.5605502
0.5063521
0.4387467
0.3637378
0.8000685
0.7896358
0.7780636
0.7651527
0.7506538
0.7342916
0.7157065
0.694366
0.6695932
0.6404667
0.6045371
0.5611572
0.5075466
0.440985
0.3682553
0.3379107
0.410304
0.3165896
0.4773466
0.4000486
0.2997083
0.5331613
0.4724367
0.3929921
0.2880789
0.5793775
0.5308983
0.469299
0.3883836
0.2804341
0.6179419
0.5784878
0.5296327
0.4674573
0.3855641
0.2760533
0.6505103
0.6178449
0.5782518
0.5291889
0.4666829
0.3844861
0.2746524
0.6783935
0.6509549
0.6182834
0.5786731
0.5295706
0.4671736
0.3853284
0.2759861
0.7026186
0.6792995
0.6519457
0.6193787
0.579899
0.531108
0.4692894
0.3882527
0.2806715
0.7240007
0.704003
0.6808449
0.6536924
0.6213818
0.582351
0.5342748
0.4734032
0.3939629
0.2899599
0.7431575
0.7258937
0.706125
0.683251
0.6564572
0.6247001
0.586482
0.5394563
0.480145
0.4033412
0.300373
0.7603771
0.7453815
0.7283802
0.708934
0.6864624
0.6602517
0.6293103
0.5921237
0.546541
0.4893739
0.4132125
0.3189107
0.7754162
0.7622569
0.7474631
0.7307054
0.7115575
0.6895146
0.6638937
0.6336684
0.5974414
0.5531937
0.4959754
0.4236149
0.3378958
0.7884214
0.7767434
0.7637084
0.7490623
0.7324821
0.7135986
0.6919225
0.6667249
0.6370488
0.6015547
0.5568207
0.5014977
0.4320012
0.3529258
0.7996933
0.7892211
0.7776027
0.7646371
0.7500728
0.7336316
0.7149503
0.6934902
0.6685662
0.6392443
0.6030434
0.5592879
0.5051252
0.4376484
0.3629919
0.8095226
0.800044
0.7895822
0.777975
0.7650218
0.7505072
0.7341538
0.7155497
0.6941856
0.669383
0.6392572
0.6035362
0.5602183
0.5067405
0.4404484
0.3571842
0.4233138
0.3375639
0.4845844
0.4100399
0.3158282
0.5367897
0.4771482
0.3995088
0.298509
0.5810608
0.5330091
0.4720424
0.3921796
0.2864429
0.6185712
0.5792575
0.5305984
0.468713
0.3873022
0.2787797
0.6505103
0.6178449
0.5782518
0.5291889
0.4666829
0.3844861
0.2746524
0.6779487
0.6504301
0.6176541
0.5779029
0.5286036
0.4659142
0.3835828
0.2732406
0.7017823
0.678326
0.6507972
0.6180013
0.5782131
0.5289903
0.4665309
0.3844228
0.2745716
0.7227474
0.7025609
0.6791666
0.6517123
0.6190067
0.5794434
0.530623
0.4686452
0.3873468
0.2792618
0.741452
0.7239509
0.7038897
0.6806488
0.6533855
0.6210145
0.5819708
0.5337895
0.4727599
0.3930619
0.2832003
0.7583697
0.7431146
0.725797
0.7059597
0.6829962
0.6561579
0.6243978
0.5861078
0.5389804
0.4795176
0.3991036
0.2936302
0.7737054
0.7603407
0.7453004
0.7282431
0.7087256
0.6862215
0.6600148
0.6290263
0.5917762
0.5461047
0.4866169
0.4101271
0.3144595
0.7871998
0.7753848
0.7621874
0.7473468
0.7305306
0.7113579
0.6893222
0.6636683
0.6334
0.5971156
0.5512216
0.494127
0.4215886
0.3357645
0.7989449
0.7883937
0.7766826
0.7636074
0.7489119
0.7323122
0.7134372
0.6917364
0.6665075
0.636791
0.6000385
0.55551
0.5002002
0.4308144
0.3520883
0.8091813
0.7996686
0.7891672
0.7775136
0.7645054
0.7499253
0.7334929
0.7147924
0.6933084
0.6683542
0.6380235
0.6020289
0.5583314
0.5042998
0.4370957
0.8181507
0.8095003
0.7999955
0.7895025
0.777858
0.7648917
0.7503859
0.734017
0.7153941
0.6940065
0.6683678
0.6384331
0.6027812
0.5595892
0.5063361
0.3719569
0.4354255
0.3568699
0.4940547
0.4230701
0.3368854
0.5423763
0.4843924
0.4095223
0.3147048
0.5839569
0.536639
0.4767591
0.398712
0.2969277
0.6199479
0.5809411
0.5327103
0.4714598
0.3911084
0.2848177
0.6510352
0.6184742
0.5790217
0.5301551
0.4679405
0.3862286
0.2773888
0.6779487
0.6504301
0.6176541
0.5779029
0.5286036
0.4659142
0.3835828
0.2732406
0.7014003
0.6778813
0.6502724
0.6173718
0.5774427
0.5280225
0.4652705
0.3826747
0.2718178
0.7220207
0.7017247
0.6781932
0.6505637
0.6176289
0.5777566
0.5285042
0.4658847
0.383512
0.273145
0.7403521
0.7226975
0.7024474
0.6789699
0.6514042
0.6186374
0.5790612
0.5301347
0.4679967
0.3864345
0.2723366
0.7568595
0.7414085
0.7238528
0.7037218
0.6803898
0.6530807
0.6207058
0.5815876
0.5333003
0.4721112
0.3886398
0.2760972
0.7719137
0.7583318
0.7430299
0.7256536
0.7057413
0.6827431
0.6559066
0.6240931
0.5857306
0.5385007
0.4764399
0.3948284
0.2851608
0.7856619
0.773673
0.760269
0.7451802
0.7280621
0.7085187
0.6860208
0.6597781
0.6287424
0.5914288
0.5439826
0.4843596
0.4072258
0.3104883
0.79784
0.7871716
0.7753229
0.7620844
0.7471932
0.7303569
0.7111924
0.6891308
0.663444
0.633133
0.5955384
0.549792
0.4926287
0.4201216
0.3346061
0.8085008
0.7989199
0.7883392
0.7765926
0.7634741
0.7487625
0.7321715
0.7132768
0.6915515
0.6662916
0.635545
0.5989877
0.5545021
0.4993145
0.43021
0.8178389
0.8091589
0.7996198
0.7890872
0.7773959
0.7643745
0.7498033
0.7333552
0.7146355
0.6931278
0.6673302
0.637189
0.6012607
0.5576884
0.5038846
0.8260566
0.8181303
0.8094563
0.7999235
0.7893973
0.7777417
0.764784
0.7502655
0.7338812
0.7152395
0.6931414
0.6676766
0.6378117
0.6022755
0.5592737
0.3816873
0.4448233
0.371664
0.5029153
0.435198
0.356255
0.5497102
0.4938754
0.4225927
0.3358847
0.5884224
0.5422296
0.4840157
0.4087581
0.3132236
0.622318
0.583838
0.5363431
0.4761843
0.3976614
0.2953568
0.6521836
0.619851
0.5807058
0.5322687
0.4706917
0.3900449
0.2834494
0.6783935
0.6509549
0.6182834
0.5786731
0.5295706
0.4671736
0.3853284
0.2759861
0.7014003
0.6778813
0.6502724
0.6173718
0.5774427
0.5280225
0.4652705
0.3826747
0.2718178
0.7216889
0.7013427
0.6777485
0.6500389
0.6169994
0.5769858
0.527536
0.4646236
0.3817618
0.270384
0.7397146
0.7219709
0.7016112
0.6779966
0.6502555
0.6172592
0.5773741
0.5280155
0.4652351
0.3825958
0.2661476
0.7558861
0.7403085
0.7225993
0.7022792
0.6787102
0.6510983
0.6183277
0.5786766
0.5296434
0.4673439
0.3819643
0.2653921
0.7705667
0.7568211
0.7413227
0.7237074
0.7035001
0.6801325
0.6528247
0.6203947
0.5812013
0.5328071
0.4689291
0.3842264
0.2675091
0.7840525
0.7718799
0.758257
0.7429043
0.7254642
0.7055243
0.6825306
0.6556533
0.6237861
0.5853505
0.5361481
0.473354
0.3896791
0.2742052
0.7964498
0.7856329
0.7736092
0.7601627
0.7450214
0.7278823
0.7083463
0.6858202
0.6595415
0.6284586
0.5897392
0.5422482
0.4822459
0.4047121
0.3077443
0.8074965
0.7978145
0.7871161
0.7752311
0.7619484
0.7470406
0.7302129
0.7110277
0.6889404
0.6632209
0.6318404
0.5943964
0.5486343
0.4915465
0.4193336
0.8172173
0.8084781
0.7988706
0.7882583
0.7764735
0.7633416
0.7486388
0.7320318
0.7131175
0.6913678
0.6652481
0.6346823
0.5981802
0.5538145
0.4988637
0.8257707
0.8178184
0.8091146
0.7995475
0.7889814
0.777279
0.7642662
0.7496821
0.7332185
0.7144798
0.6922558
0.6666308
0.6365573
0.6007444
0.557365
0.8333277
0.826038
0.8180901
0.8093909
0.7998284
0.7892928
0.7776455
0.7646771
0.750146
0.7337464
0.714493
0.6925527
0.6671555
0.6373957
0.6020219
0.3864756
0.4510747
0.3814074
0.5098209
0.4446067
0.371091
0.5566011
0.5027459
0.4347523
0.3553482
0.5943004
0.5495723
0.4935237
0.4218882
0.334566
0.6259773
0.5883063
0.5419416
0.4834592
0.4077505
0.3117522
0.6541618
0.6222216
0.5836045
0.5359058
0.4754262
0.3966183
0.2940315
0.679367
0.6521034
0.6196605
0.580358
0.5316862
0.4699292
0.389152
0.2820673
0.7017823
0.678326
0.6507972
0.6180013
0.5782131
0.5289903
0.4665309
0.3844228
0.2745716
0.7216889
0.7013427
0.6777485
0.6500389
0.6169994
0.5769858
0.527536
0.4646236
0.3817618
0.270384
0.7394235
0.7216391
0.7012293
0.6775519
0.6497308
0.6166296
0.5766033
0.5270473
0.4639736
0.3808441
0.2633558
0.7553221
0.7396711
0.7218728
0.7014432
0.6777369
0.6499495
0.6169496
0.5769897
0.5275243
0.4645819
0.3781126
0.2593606
0.7696989
0.7558477
0.7402227
0.7224538
0.7020571
0.6784523
0.6508417
0.6180161
0.5782896
0.5291488
0.4641468
0.3776885
0.2573623
0.7828434
0.7705326
0.7567454
0.7411956
0.7235154
0.7032799
0.6799165
0.6525667
0.6200812
0.580812
0.5303881
0.4657683
0.379095
0.2572654
0.7949961
0.7840223
0.7718134
0.7581461
0.7427384
0.725276
0.7053421
0.6823165
0.6553981
0.6234766
0.5834863
0.5337919
0.4696551
0.3832424
0.2592814
0.8062337
0.7964237
0.7855756
0.7735145
0.7600222
0.7448637
0.7277325
0.708174
0.6856197
0.6593049
0.6270787
0.5883597
0.5406256
0.4804214
0.4030176
0.8163005
0.8074735
0.7977644
0.7870336
0.7751097
0.7618132
0.7469141
0.7300695
0.7108638
0.6887509
0.6621406
0.6309053
0.5934721
0.5477987
0.490966
0.8252008
0.8171967
0.8084334
0.7987975
0.7881513
0.7763552
0.763232
0.7485159
0.731893
0.7129593
0.6904802
0.664526
0.6340195
0.5976295
0.5534647
0.8330645
0.825752
0.8177781
0.809049
0.7994519
0.7888763
0.7771823
0.7641587
0.7495617
0.7330827
0.7137277
0.6916605
0.6661016
0.636133
0.6004849
0.8400372
0.8333106
0.8260012
0.8180305
0.8093045
0.7997338
0.7892063
0.77755
0.764571
0.7500273
0.7330953
0.7139853
0.6921092
0.6668068
0.6371871
0.4541707
0.3862019
0.5144297
0.4508649
0.3808596
0.5619921
0.5096583
0.4441825
0.3702459
0.5998421
0.55647
0.5024139
0.4340947
0.3541537
0.6308046
0.5941907
0.5493015
0.4930043
0.4209596
0.333257
0.6572194
0.6258828
0.5880781
0.5415159
0.4827254
0.4067501
0.3105113
0.6810447
0.6540819
0.6220321
0.5832591
0.5353288
0.4746736
0.395741
0.2926904
0.7026186
0.6792995
0.6519457
0.6193787
0.579899
0.531108
0.4692894
0.3882527
0.2806715
0.7220207
0.7017247
0.6781932
0.6505637
0.6176289
0.5777566
0.5285042
0.4658847
0.383512
0.273145
0.7394235
0.7216391
0.7012293
0.6775519
0.6497308
0.6166296
0.5766033
0.5270473
0.4639736
0.3808441
0.2633558
0.7550646
0.7393801
0.7215411
0.7010614
0.6772924
0.6494248
0.6163201
0.5762191
0.5265564
0.4633205
0.3763564
0.2566441
0.7691963
0.7552838
0.7395854
0.7217275
0.7012212
0.6774791
0.6496932
0.6166385
0.5766034
0.5270305
0.4613871
0.3739526
0.2517279
0.7820648
0.7696648
0.755772
0.7400955
0.7222615
0.7018365
0.678236
0.6505836
0.6177025
0.5779002
0.5267273
0.4610998
0.3729279
0.2482364
0.7939046
0.7828129
0.7704653
0.7566332
0.7410275
0.7233246
0.7030949
0.6796987
0.6523066
0.6197652
0.5789024
0.5279868
0.4621064
0.3731709
0.2452248
0.804914
0.7949689
0.7839627
0.7717147
0.7579995
0.7425735
0.725118
0.7051586
0.6821008
0.6551409
0.6219595
0.5816198
0.5309701
0.4650538
0.3747152
0.2337496
0.8151483
0.80621
0.796372
0.7854907
0.7733893
0.7598827
0.7447323
0.7275828
0.7080018
0.6854193
0.6581549
0.6259527
0.5870695
0.5392261
0.4791949
0.8243605
0.8162795
0.807428
0.79769
0.7869247
0.7749891
0.7617012
0.7467882
0.729927
0.7107008
0.6878337
0.6613597
0.6301486
0.5928051
0.5473506
0.8325401
0.8251819
0.8171559
0.808367
0.7987009
0.788045
0.7762573
0.763123
0.7483939
0.7317552
0.7121945
0.6898664
0.6639715
0.6335677
0.5973494
0.8397942
0.8330473
0.825715
0.8177181
0.8089621
0.7993569
0.7887893
0.7770862
0.764052
0.7494423
0.732427
0.7132145
0.6912102
0.6657461
0.6359197
0.8462477
0.8400214
0.8332767
0.8259466
0.8179516
0.8092186
0.7996556
0.7891204
0.7774552
0.7644657
0.7494541
0.7326527
0.7136028
0.6918124
0.666632
0.5167172
0.4539641
0.385666
0.5656004
0.5142713
0.4504539
0.3800518
0.6041908
0.5618656
0.5093395
0.4435564
0.3691326
0.6353682
0.5997373
0.5562127
0.5019237
0.4332281
0.3529682
0.6612605
0.6307151
0.5939751
0.5489014
0.4923197
0.4200381
0.3321631
0.6836404
0.657141
0.6256972
0.5877407
0.5409543
0.4819968
0.4059089
0.3092557
0.7040605
0.6809774
0.6539249
0.6217518
0.5828034
0.5347561
0.4740411
0.3948559
0.2913332
0.7227474
0.7025609
0.6791666
0.6517123
0.6190067
0.5794434
0.530623
0.4686452
0.3873468
0.2792618
0.7397146
0.7219709
0.7016112
0.6779966
0.6502555
0.6172592
0.5773741
0.5280155
0.4652351
0.3825958
0.2661476
0.7550646
0.7393801
0.7215411
0.7010614
0.6772924
0.6494248
0.6163201
0.5762191
0.5265564
0.4633205
0.3763564
0.2566441
0.7689668
0.7550263
0.7392944
0.7213959
0.7008396
0.6770347
0.6491687
0.6160093
0.5758333
0.5260632
0.460128
0.3722506
0.2491901
0.781614
0.7691623
0.7552082
0.7394584
0.7215355
0.7010008
0.6772632
0.6494357
0.6163258
0.5762152
0.5246162
0.4584316
0.3694443
0.2432563
0.793202
0.7820343
0.7695976
0.7556598
0.7399273
0.7220705
0.7016515
0.6780184
0.6503239
0.617387
0.5759936
0.5244208
0.457716
0.3676935
0.2380503
0.8039236
0.7938771
0.7827527
0.7703655
0.7564849
0.7408605
0.7231644
0.7029085
0.6794792
0.6520445
0.6182155
0.5770072
0.5252064
0.4578936
0.3664046
0.2291049
0.8139447
0.8048893
0.7949152
0.7838742
0.7715842
0.7578538
0.7424351
0.7249587
0.7049736
0.6818834
0.6538799
0.6204405
0.5793851
0.5274653
0.4589893
0.3604353
0.2194377
0.8233049
0.8151267
0.8061632
0.7962954
0.7853784
0.7732649
0.7597664
0.744601
0.7274332
0.7078297
0.684445
0.6572169
0.6248998
0.5859572
0.5382859
0.8317671
0.8243413
0.8162381
0.8073605
0.7975916
0.7868164
0.7748891
0.7615897
0.746663
0.7297851
0.7099117
0.687171
0.660728
0.6296028
0.5924475
0.8393101
0.8325227
0.8251446
0.8170954
0.8082793
0.7986049
0.787957
0.7761601
0.7630148
0.7482726
0.731089
0.7116659
0.6893952
0.6635936
0.633338
0.8460227
0.8397784
0.8330133
0.8256601
0.8176389
0.8088758
0.7992783
0.7887029
0.7769908
0.763946
0.7488653
0.7319798
0.7128265
0.6909079
0.6655675
0.8520126
0.8462331
0.8399903
0.8332265
0.8258743
0.8178732
0.8091475
0.799578
0.7890351
0.7773611
0.7639572
0.7490647
0.7323193
0.7133469
0.6916636
0.5673948
0.5165609
0.4535595
0.3848756
0.6071081
0.5654767
0.5139608
0.4498474
0.3789875
0.6389582
0.6040893
0.5616172
0.5088688
0.4427314
0.3680279
0.6650892
0.6352824
0.5995315
0.5558325
0.5012774
0.4323682
0.3519828
0.6870761
0.6611859
0.6305391
0.5936565
0.5483738
0.4916402
0.4192694
0.3310665
0.7062933
0.6835742
0.6569868
0.6254226
0.5872954
0.5403968
0.4813845
0.4050605
0.3079853
0.7240007
0.704003
0.6808449
0.6536924
0.6213818
0.582351
0.5342748
0.4734032
0.3939629
0.2899599
0.7403521
0.7226975
0.7024474
0.6789699
0.6514042
0.6186374
0.5790612
0.5301347
0.4679967
0.3864345
0.2723366
0.7553221
0.7396711
0.7218728
0.7014432
0.6777369
0.6499495
0.6169496
0.5769897
0.5275243
0.4645819
0.3781126
0.2593606
0.7689668
0.7550263
0.7392944
0.7213959
0.7008396
0.6770347
0.6491687
0.6160093
0.5758333
0.5260632
0.460128
0.3722506
0.2491901
0.7814082
0.7689328
0.7549509
0.7391675
0.721204
0.7006193
0.676819
0.6489115
0.6156972
0.5754458
0.5236531
0.4572152
0.3678547
0.2409976
0.7927952
0.7815835
0.7690951
0.7550962
0.7392905
0.7213447
0.7008162
0.6770462
0.6491769
0.6160116
0.574317
0.5223838
0.4552348
0.3646052
0.2339763
0.8032863
0.7931745
0.7819741
0.7694978
0.7555114
0.7397603
0.7219104
0.7014654
0.6777995
0.6500626
0.6158426
0.5741776
0.5218599
0.4540049
0.3620259
0.2249856
0.8130421
0.8038988
0.7938229
0.7826633
0.7702335
0.7563374
0.7407203
0.7230029
0.7027207
0.6792581
0.6507594
0.6166773
0.5748127
0.5220111
0.4530993
0.3575832
0.2174123
0.8222028
0.8139223
0.8048407
0.7948355
0.7837573
0.7714544
0.7577314
0.7422956
0.7247983
0.7047873
0.6808175
0.6526175
0.618622
0.5766116
0.5228562
0.4488873
0.3519574
0.2086179
0.8307964
0.8232852
0.8150841
0.8060938
0.7961942
0.7852668
0.7731613
0.7596503
0.7444698
0.7272838
0.7069931
0.6836507
0.6563398
0.6239922
0.5852099
0.8385966
0.8317495
0.8243034
0.8161766
0.8072712
0.7974939
0.7867267
0.7747897
0.7614788
0.7465384
0.7290987
0.7093419
0.6866351
0.6602724
0.6293102
0.8455743
0.8392941
0.8324885
0.8250892
0.8170154
0.8081921
0.7985254
0.7878697
0.7760635
0.7629074
0.7476869
0.7306288
0.7112603
0.6890741
0.6634015
0.8518036
0.846008
0.839747
0.8329629
0.8255876
0.8175601
0.8088044
0.7992002
0.7886172
0.7768962
0.7634342
0.748472
0.7316418
0.712566
0.690756
0.8573778
0.8519991
0.8462043
0.8399439
0.83316
0.8258025
0.8178083
0.8090769
0.7995009
0.7889505
0.7769067
0.7636117
0.7487714
0.7320963
0.7132187
0.6085612
0.5672725
0.5162543
0.4529623
0.3838342
0.641371
0.6070087
0.5652339
0.5135021
0.4490482
0.3779313
0.6681071
0.6388748
0.6038899
0.5612503
0.5082483
0.4419129
0.3671113
0.6903373
0.6650175
0.6351138
0.5992273
0.5553312
0.5006362
0.4316541
0.3510002
0.7092525
0.687013
0.6610393
0.6302788
0.5932361
0.5478502
0.4910738
0.4185003
0.3299673
0.7259428
0.7062366
0.6834439
0.6567586
0.6250601
0.5868534
0.5399284
0.4807673
0.4042046
0.3066999
0.741452
0.7239509
0.7038897
0.6806488
0.6533855
0.6210145
0.5819708
0.5337895
0.4727599
0.3930619
0.2832003
0.7558861
0.7403085
0.7225993
0.7022792
0.6787102
0.6510983
0.6183277
0.5786766
0.5296434
0.4673439
0.3819643
0.2653921
0.7691963
0.7552838
0.7395854
0.7217275
0.7012212
0.6774791
0.6496932
0.6166385
0.5766034
0.5270305
0.4613871
0.3739526
0.2517279
0.7814082
0.7689328
0.7549509
0.7391675
0.721204
0.7006193
0.676819
0.6489115
0.6156972
0.5754458
0.5236531
0.4572152
0.3678547
0.2409976
0.7926096
0.7813778
0.7688658
0.754839
0.7389998
0.7210134
0.700435
0.6766024
0.6486533
0.6153837
0.5735522
0.5214551
0.4541014
0.3631826
0.2320851
0.8029175
0.7927679
0.7815235
0.7689956
0.7549482
0.7391238
0.721185
0.7006308
0.6768283
0.6489169
0.6144757
0.5725621
0.5199691
0.4518097
0.3594677
0.2221936
0.8124614
0.8032615
0.7931204
0.7818849
0.7693659
0.755364
0.7396203
0.7217493
0.7012782
0.6775793
0.6487837
0.6143716
0.5721613
0.5190531
0.4499966
0.3549672
0.2150492
0.8213766
0.8130195
0.8038497
0.7937424
0.7825451
0.7701024
0.7562136
0.740579
0.7228402
0.7025314
0.6781738
0.6494837
0.6148963
0.5722923
0.5183803
0.4468697
0.3505854
0.2075928
0.8297836
0.8221824
0.8138781
0.8047685
0.7947301
0.783641
0.7713455
0.7576082
0.7421551
0.7246367
0.7038737
0.6797504
0.6511062
0.6163663
0.5729694
0.5152011
0.4429214
0.3450938
0.2001713
0.8377011
0.8307783
0.8232462
0.8150209
0.8060019
0.7960935
0.7851739
0.7730578
0.7595342
0.7443386
0.7265571
0.7063111
0.682908
0.6555839
0.6233824
0.8449139
0.8385804
0.8317146
0.8242471
0.8160952
0.8071825
0.7974128
0.7866374
0.7746907
0.7613684
0.7459355
0.7286031
0.7088811
0.6862486
0.6600281
0.8513872
0.8455595
0.8392625
0.8324375
0.8250159
0.8169358
0.8081199
0.7984464
0.7877829
0.7759675
0.7623882
0.7472824
0.7302757
0.7109839
0.6889109
0.8571831
0.85179
0.845979
0.8397005
0.8328961
0.8255154
0.817495
0.8087335
0.7991227
0.7885321
0.776439
0.7630854
0.7481746
0.7314148
0.7124351
0.862383
0.8573652
0.8519723
0.8461614
0.8398826
0.833094
0.825743
0.817744
0.8090069
0.7994244
0.788542
0.7765981
0.7633516
0.7485752
0.7319845
0.6425743
0.6084628
0.5670324
0.5158015
0.4521754
0.3828009
0.6701385
0.6412892
0.6068133
0.5648752
0.5128976
0.4482552
0.3770556
0.6929122
0.6680373
0.638711
0.6035952
0.5607666
0.5076327
0.4412341
0.3661991
0.7120658
0.6902766
0.6648766
0.6348644
0.5988261
0.5548338
0.500104
0.4309427
0.3500205
0.7285197
0.7091984
0.6868889
0.6608223
0.6299353
0.5928189
0.5474138
0.4905072
0.4177307
0.3288655
0.7431575
0.7258937
0.706125
0.683251
0.6564572
0.6247001
0.586482
0.5394563
0.480145
0.4033412
0.300373
0.7568595
0.7414085
0.7238528
0.7037218
0.6803898
0.6530807
0.6207058
0.5815876
0.5333003
0.4721112
0.3886398
0.2760972
0.7696989
0.7558477
0.7402227
0.7224538
0.7020571
0.6784523
0.6508417
0.6180161
0.5782896
0.5291488
0.4641468
0.3776885
0.2573623
0.781614
0.7691623
0.7552082
0.7394584
0.7215355
0.7010008
0.6772632
0.6494357
0.6163258
0.5762152
0.5246162
0.4584316
0.3694443
0.2432563
0.7926096
0.7813778
0.7688658
0.754839
0.7389998
0.7210134
0.700435
0.6766024
0.6486533
0.6153837
0.5735522
0.5214551
0.4541014
0.3631826
0.2320851
0.8027492
0.7925822
0.7813178
0.7687664
0.7546911
0.7388332
0.720854
0.7002499
0.676385
0.6483941
0.6138523
0.5718256
0.5191054
0.4507974
0.3582585
0.2208055
0.8121253
0.8028927
0.7927138
0.7814344
0.768864
0.7548011
0.7389841
0.7210246
0.7004445
0.6766093
0.6476462
0.6130558
0.5706637
0.5173832
0.4481801
0.3531416
0.2132133
0.8208453
0.8124388
0.8032125
0.79304
0.7817668
0.7692349
0.7552405
0.7394794
0.7215873
0.7010899
0.6765015
0.6475656
0.6127382
0.5699522
0.5160245
0.4450154
0.3489536
0.2062156
0.8290245
0.821356
0.8129748
0.8037768
0.793636
0.7824277
0.7699922
0.7560889
0.7404366
0.7226762
0.7016033
0.6770973
0.6480066
0.6128515
0.5694311
0.5136715
0.4419395
0.3442723
0.1995647
0.836767
0.8297648
0.8221419
0.8138124
0.804673
0.7946253
0.7835434
0.7712358
0.757484
0.7420135
0.7238444
0.702959
0.678473
0.6492323
0.6134071
0.5669327
0.5107036
0.4380941
0.3394032
0.1935452
0.8440851
0.8376844
0.8307426
0.8231884
0.8149372
0.8059106
0.7960097
0.7850811
0.7729544
0.7594182
0.7437012
0.7259649
0.7056736
0.682268
0.6550761
0.8507741
0.8448988
0.8385483
0.8316629
0.8241726
0.8160143
0.8071089
0.7973322
0.7865485
0.7745923
0.7608345
0.7455004
0.7282025
0.7085489
0.6860414
0.8567956
0.8513735
0.8455303
0.8392155
0.8323702
0.8249431
0.81687
0.8080482
0.798368
0.7876967
0.775504
0.7620298
0.7469721
0.7300351
0.7108434
0.8622014
0.8571705
0.8517631
0.845936
0.8396389
0.8328298
0.8254557
0.8174303
0.8086631
0.7990458
0.7881212
0.7761276
0.7628218
0.7479751
0.7313008
0.8670629
0.8623713
0.8573403
0.8519325
0.8461046
0.8398216
0.8330393
0.825684
0.81768
0.8089374
0.7990551
0.7882646
0.7763658
0.7631777
0.7484769
0.6711526
0.6424933
0.6082693
0.5666776
0.5152046
0.4513946
0.3819442
0.6946476
0.6700699
0.6411284
0.6065246
0.5644023
0.5122978
0.4475979
0.3761845
0.7142901
0.6928529
0.6679002
0.6384688
0.6032066
0.5602865
0.5071224
0.440559
0.3652913
0.7309727
0.7120135
0.690157
0.6646682
0.6345354
0.5984279
0.554421
0.499574
0.4302341
0.3490437
0.7454227
0.7284727
0.7090918
0.6867051
0.660536
0.6295944
0.5924713
0.5469774
0.4899406
0.4169606
0.3234938
0.7583697
0.7431146
0.725797
0.7059597
0.6829962
0.6561579
0.6243978
0.5861078
0.5389804
0.4795176
0.3991036
0.2936302
0.7705667
0.7568211
0.7413227
0.7237074
0.7035001
0.6801325
0.6528247
0.6203947
0.5812013
0.5328071
0.4689291
0.3842264
0.2675091
0.7820648
0.7696648
0.755772
0.7400955
0.7222615
0.7018365
0.678236
0.6505836
0.6177025
0.5779002
0.5267273
0.4610998
0.3729279
0.2482364
0.7927952
0.7815835
0.7690951
0.7550962
0.7392905
0.7213447
0.7008162
0.6770462
0.6491769
0.6160116
0.574317
0.5223838
0.4552348
0.3646052
0.2339763
0.8027492
0.7925822
0.7813178
0.7687664
0.7546911
0.7388332
0.720854
0.7002499
0.676385
0.6483941
0.6138523
0.5718256
0.5191054
0.4507974
0.3582585
0.2208055
0.811972
0.8027244
0.7925283
0.7812289
0.768635
0.7545442
0.7386939
0.7206939
0.7000641
0.6761667
0.6471274
0.6124561
0.5699796
0.5166128
0.44732
0.3522171
0.2122398
0.8205379
0.8121028
0.8028439
0.7926337
0.7813167
0.7687332
0.7546779
0.7388439
0.7208634
0.7002574
0.675539
0.6464714
0.6115197
0.5686309
0.5146444
0.4437177
0.3476593
0.205044
0.8285365
0.8208247
0.8123942
0.8031398
0.7929337
0.7816495
0.769125
0.7551162
0.7393377
0.7214243
0.7001683
0.6754748
0.6462129
0.610949
0.5675697
0.5122653
0.4407707
0.3431795
0.1987063
0.8360673
0.8290056
0.8213152
0.8129085
0.8036804
0.7935301
0.782329
0.7698813
0.7559632
0.7402931
0.7218723
0.700682
0.6758509
0.6463113
0.6105319
0.5657253
0.5099556
0.4374923
0.3388055
0.1931284
0.843221
0.8367497
0.8297277
0.8220818
0.8137254
0.804578
0.7945373
0.7834451
0.7711253
0.757359
0.7413195
0.7230512
0.7018641
0.6768896
0.646776
0.6085105
0.5633992
0.507074
0.4340928
0.3347258
0.1884217
0.8500049
0.8440697
0.8376515
0.8306895
0.8231118
0.814854
0.8058346
0.7959259
0.7849883
0.772851
0.7588544
0.7431819
0.7254113
0.7051242
0.6818379
0.8562248
0.8507602
0.8448692
0.8385006
0.8315945
0.8240986
0.8159473
0.8070358
0.797252
0.7864602