/*--------------------------------*- C++ -*----------------------------------*\
| =========                 |                                                 |
| \\      /  F ield         | OpenFOAM: The Open Source CFD Toolbox           |
|  \\    /   O peration     | Version:  2306                                  |
|   \\  /    A nd           | Website:  www.openfoam.com                      |
|    \\/     M anipulation  |                                                 |
\*---------------------------------------------------------------------------*/
FoamFile
{
    version     2.0;
    format      ascii;
    arch        "LSB;label=32;scalar=64";
    class       volScalarField;
    location    "1.5/fuel";
    object      iDmdtfuel.H2;
}
// * * * * * * * * * * * * * * * * * * * * * * * * * * * * * * * * * * * * * //

dimensions      [1 -3 -1 0 0 0 0];

internalField   nonuniform List<scalar> 
16000
(
-9.606002
-9.692203
-8.781164
-9.180397
-9.866345
-8.836687
-9.260456
-8.085385
-8.413317
-8.880165
-10.1286
-8.945952
-9.422086
-8.127573
-8.465136
-8.956136
-7.528068
-7.764008
-8.151682
-8.695997
-10.4693
-9.102939
-9.665256
-8.209598
-8.567064
-9.109484
-7.562476
-7.803543
-8.200977
-8.769706
-7.065298
-7.242369
-7.534049
-7.988944
-8.617759
-10.83658
-9.292598
-9.980792
-8.324888
-8.713404
-9.340153
-7.628883
-7.880377
-8.297918
-8.918531
-7.094449
-7.27472
-7.571748
-8.03677
-8.690797
-6.667688
-6.808119
-7.037077
-7.389639
-7.917141
-0
-11.11423
-9.477214
-10.3205
-8.459169
-8.890047
-9.639497
-7.720975
-7.988303
-8.437064
-9.14254
-7.150427
-7.337131
-7.644999
-8.130828
-8.838373
-6.692968
-6.835603
-7.067992
-7.426238
-7.96442
-0
-6.318825
-6.434156
-6.622738
-6.907339
-7.324431
-0
-0
-11.28986
-9.601925
-10.57638
-8.582466
-9.061819
-9.961888
-7.825769
-8.113904
-8.604994
-9.433648
-7.22735
-7.42363
-7.747857
-8.265865
-9.060814
-6.741338
-6.888361
-7.127616
-7.49735
-8.057436
-0
-6.341127
-6.45805
-6.649051
-6.937378
-7.360579
-0
-0
-6.007631
-6.105355
-6.265402
-6.505054
-6.847948
-0
-0
-0
-11.38954
-9.67157
-10.73772
-8.658731
-9.177527
-10.2041
-7.918307
-8.229111
-8.768271
-9.747828
-7.313477
-7.521976
-7.86752
-8.428932
-9.350635
-6.807363
-6.960815
-7.210223
-7.597208
-8.191063
-0
-6.383678
-6.503748
-6.699547
-6.99531
-7.430827
-0
-0
-6.02755
-6.12648
-6.288316
-6.530646
-6.877611
-0
-0
-0
-5.726842
-5.811485
-5.950782
-6.15791
-6.450705
-0
-0
-0
-0
-11.43427
-9.706952
-10.82908
-8.695696
-9.241991
-10.35654
-7.971914
-8.300174
-8.877976
-9.983535
-7.387421
-7.608715
-7.977225
-8.587609
-9.664576
-6.880397
-7.041864
-7.304101
-7.713404
-8.352632
-0
-6.441464
-6.566089
-6.768868
-7.075566
-7.529507
-0
-0
-6.065469
-6.166769
-6.332129
-6.579753
-6.934823
-0
-0
-0
-5.744808
-5.83039
-5.971072
-6.180216
-6.475979
-0
-0
-0
-0
-5.471083
-5.545845
-5.669211
-5.852061
-6.107966
-0
-0
-0
-0
-0
-11.43427
-9.721641
-10.87003
-8.71118
-9.274687
-10.44277
-7.994688
-8.334519
-8.938989
-10.13179
-7.428166
-7.658812
-8.044695
-8.693984
-9.900048
-6.941768
-7.111354
-7.386828
-7.819941
-8.510107
-0
-6.504784
-6.634984
-6.84637
-7.166768
-7.644408
-0
-0
-6.116754
-6.22145
-6.391874
-6.647159
-7.014097
-0
-0
-0
-5.778946
-5.866365
-6.009758
-6.222863
-6.524479
-0
-0
-0
-0
-5.487413
-5.562928
-5.687395
-5.871831
-6.130001
-0
-0
-0
-0
-0
-5.236419
-5.30347
-5.414366
-5.578151
-5.805993
-0
-0
-0
-0
-0
-0
-11.38954
-9.721641
-10.87003
-8.716444
-9.288248
-10.4814
-8.002021
-8.348861
-8.969916
-10.21568
-7.443509
-7.680006
-8.077215
-8.753091
-10.04828
-6.974256
-7.149517
-7.434443
-7.885263
-8.615478
-0
-6.557094
-6.692787
-6.912743
-7.247106
-7.749823
-0
-0
-6.172518
-6.281309
-6.457858
-6.722504
-7.104214
-0
-0
-0
-5.824958
-5.914989
-6.062243
-6.281009
-6.591059
-0
-0
-0
-0
-5.518395
-5.595374
-5.721989
-5.909521
-6.17213
-0
-0
-0
-0
-0
-5.251358
-5.319023
-5.430818
-5.595884
-5.825527
-0
-0
-0
-0
-0
-0
-5.019771
-5.080725
-5.181556
-5.330064
-5.535519
-0
-0
-0
-0
-0
-0
-0
-11.28986
-9.706952
-10.82908
-8.716444
-9.288248
-10.4814
-8.003561
-8.353722
-8.982745
-10.25329
-7.446902
-7.686777
-8.090765
-8.783069
-10.13228
-6.985182
-7.163802
-7.454499
-7.916676
-8.674018
-0
-6.583882
-6.723271
-6.94905
-7.293171
-7.814257
-0
-0
-6.217939
-6.330675
-6.513145
-6.786982
-7.183593
-0
-0
-0
-5.874666
-5.967808
-6.119658
-6.345206
-6.665491
-0
-0
-0
-0
-5.560029
-5.639079
-5.768726
-5.960644
-6.229571
-0
-0
-0
-0
-0
-5.279663
-5.348519
-5.46206
-5.629614
-5.86277
-0
-0
-0
-0
-0
-0
-5.033511
-5.094976
-5.196553
-5.346121
-5.553046
-0
-0
-0
-0
-0
-0
-0
-4.818738
-4.874765
-4.967351
-5.10327
-5.290499
-0
-0
-0
-0
-0
-0
-0
-0
-11.11423
-9.67157
-10.73772
-8.71118
-9.274687
-10.44277
-8.003561
-8.353722
-8.982745
-10.25329
-7.446745
-7.688173
-8.095349
-8.795518
-10.16998
-6.986437
-7.166896
-7.460859
-7.92975
-8.70376
-0
-6.591971
-6.733439
-6.962551
-7.312488
-7.845181
-0
-0
-6.240544
-6.355852
-6.542175
-6.822097
-7.228922
-0
-0
-0
-5.914673
-6.010752
-6.166937
-6.398942
-6.729157
-0
-0
-0
-0
-5.604758
-5.686246
-5.819458
-6.016548
-6.292994
-0
-0
-0
-0
-0
-5.317603
-5.388133
-5.504123
-5.675177
-5.913287
-0
-0
-0
-0
-0
-0
-5.059516
-5.121966
-5.224989
-5.376608
-5.586387
-0
-0
-0
-0
-0
-0
-0
-4.831435
-4.887891
-4.981109
-5.117919
-5.306376
-0
-0
-0
-0
-0
-0
-0
-0
-4.631377
-4.683369
-4.769067
-4.894458
-5.066459
-0
-0
-0
-0
-0
-0
-0
-0
-0
-10.83658
-9.601925
-10.57638
-8.695696
-9.241991
-10.35654
-8.002021
-8.348861
-8.969916
-10.21568
-7.446745
-7.688173
-8.095349
-8.795518
-10.16998
-6.985429
-7.166703
-7.462145
-7.934173
-8.716138
-0
-6.591982
-6.734532
-6.965414
-7.318574
-7.858052
-0
-0
-6.246677
-6.363372
-6.551769
-6.835065
-7.247846
-0
-0
-0
-5.934082
-6.032029
-6.190935
-6.427018
-6.763662
-0
-0
-0
-0
-5.640382
-5.724134
-5.860637
-6.062529
-6.346041
-0
-0
-0
-0
-0
-5.358165
-5.430645
-5.549485
-5.724613
-5.968528
-0
-0
-0
-0
-0
-0
-5.094294
-5.158121
-5.263162
-5.417647
-5.631424
-0
-0
-0
-0
-0
-0
-0
-4.855441
-4.912724
-5.007159
-5.145689
-5.33652
-0
-0
-0
-0
-0
-0
-0
-0
-4.643157
-4.695515
-4.781753
-4.907905
-5.080948
-0
-0
-0
-0
-0
-0
-0
-0
-0
-4.456105
-4.50474
-4.584606
-4.701034
-4.860131
-0
-0
-0
-0
-0
-0
-0
-0
-0
-0
-10.4693
-9.477214
-10.3205
-8.658731
-9.177527
-10.2041
-7.994688
-8.334519
-8.938989
-10.13179
-7.446902
-7.686777
-8.090765
-8.783069
-10.13228
-6.985429
-7.166703
-7.462145
-7.934173
-8.716138
-0
-6.590528
-6.733538
-6.965184
-7.319786
-7.862412
-0
-0
-6.245916
-6.363297
-6.552725
-6.837755
-7.253773
-0
-0
-0
-5.938805
-6.037719
-6.198015
-6.436208
-6.776313
-0
-0
-0
-0
-5.65727
-5.742428
-5.880935
-6.085744
-6.373608
-0
-0
-0
-0
-0
-5.390172
-5.464436
-5.585859
-5.764688
-6.013918
-0
-0
-0
-0
-0
-0
-5.131312
-5.196732
-5.304097
-5.461884
-5.680285
-0
-0
-0
-0
-0
-0
-0
-4.887481
-4.945914
-5.042039
-5.18296
-5.377099
-0
-0
-0
-0
-0
-0
-0
-0
-4.66541
-4.718471
-4.805746
-4.933363
-5.108415
-0
-0
-0
-0
-0
-0
-0
-0
-0
-4.467073
-4.516023
-4.596357
-4.713442
-4.873436
-0
-0
-0
-0
-0
-0
-0
-0
-0
-0
-4.291604
-4.337413
-4.412271
-4.520977
-4.66896
-0
-0
-0
-0
-0
-0
-0
-0
-0
-0
-10.1286
-9.292598
-9.980792
-8.582466
-9.061819
-9.961888
-7.971914
-8.300174
-8.877976
-9.983535
-7.443509
-7.680006
-8.077215
-8.753091
-10.04828
-6.986437
-7.166896
-7.460859
-7.92975
-8.70376
-0
-6.590528
-6.733538
-6.965184
-7.319786
-7.862412
-0
-0
-6.24422
-6.361881
-6.55173
-6.837492
-7.254939
-0
-0
-0
-5.937547
-6.036919
-6.197859
-6.43705
-6.778881
-0
-0
-0
-0
-5.660936
-5.746799
-5.88628
-6.092505
-6.382539
-0
-0
-0
-0
-0
-5.405023
-5.480372
-5.603327
-5.784329
-6.036703
-0
-0
-0
-0
-0
-0
-5.160282
-5.227136
-5.336574
-5.497306
-5.719851
-0
-0
-0
-0
-0
-0
-0
-4.921453
-4.981204
-5.079259
-5.222909
-5.420834
-0
-0
-0
-0
-0
-0
-0
-0
-4.695058
-4.74909
-4.8378
-4.967444
-5.145279
-0
-0
-0
-0
-0
-0
-0
-0
-0
-4.487779
-4.537331
-4.618559
-4.736906
-4.898624
-0
-0
-0
-0
-0
-0
-0
-0
-0
-0
-4.301849
-4.347932
-4.423198
-4.532477
-4.68124
-0
-0
-0
-0
-0
-0
-0
-0
-0
-0
-4.13678
-4.180167
-4.250682
-4.352649
-4.490953
-0
-0
-0
-0
-0
-0
-0
-0
-0
-0
-9.866345
-9.102939
-9.665256
-8.459169
-8.890047
-9.639497
-7.918307
-8.229111
-8.768271
-9.747828
-7.428166
-7.658812
-8.044695
-8.693984
-9.900048
-6.985182
-7.163802
-7.454499
-7.916676
-8.674018
-0
-6.591982
-6.734532
-6.965414
-7.318574
-7.858052
-0
-0
-6.24422
-6.361881
-6.55173
-6.837492
-7.254939
-0
-0
-0
-5.935722
-6.035273
-6.196461
-6.436044
-6.778584
-0
-0
-0
-0
-5.659347
-5.745529
-5.885432
-6.092272
-6.383286
-0
-0
-0
-0
-0
-5.407878
-5.483753
-5.607419
-5.789417
-6.043251
-0
-0
-0
-0
-0
-0
-5.173458
-5.241167
-5.351802
-5.514215
-5.739125
-0
-0
-0
-0
-0
-0
-0
-4.94784
-5.008761
-5.108513
-5.254557
-5.455814
-0
-0
-0
-0
-0
-0
-0
-0
-4.726382
-4.78152
-4.871855
-5.003794
-5.184788
-0
-0
-0
-0
-0
-0
-0
-0
-0
-4.515319
-4.565701
-4.648161
-4.768247
-4.932344
-0
-0
-0
-0
-0
-0
-0
-0
-0
-0
-4.321178
-4.367782
-4.443827
-4.554205
-4.704464
-0
-0
-0
-0
-0
-0
-0
-0
-0
-0
-4.146377
-4.190004
-4.260877
-4.363349
-4.502339
-0
-0
-0
-0
-0
-0
-0
-0
-0
-0
-3.99069
-4.031991
-4.098683
-4.194718
-4.324497
-0
-0
-0
-0
-0
-0
-0
-0
-0
-0
-9.692203
-8.945952
-9.422086
-8.324888
-8.713404
-9.340153
-7.825769
-8.113904
-8.604994
-9.433648
-7.387421
-7.608715
-7.977225
-8.587609
-9.664576
-6.974256
-7.149517
-7.434443
-7.885263
-8.615478
-0
-6.591971
-6.733439
-6.962551
-7.312488
-7.845181
-0
-0
-6.245916
-6.363297
-6.552725
-6.837755
-7.253773
-0
-0
-0
-5.935722
-6.035273
-6.196461
-6.436044
-6.778584
-0
-0
-0
-0
-5.657457
-5.743759
-5.883813
-6.090874
-6.382255
-0
-0
-0
-0
-0
-5.406068
-5.482171
-5.606124
-5.788515
-6.042942
-0
-0
-0
-0
-0
-0
-5.175677
-5.243788
-5.354955
-5.518096
-5.744033
-0
-0
-0
-0
-0
-0
-0
-4.959616
-5.021222
-5.121931
-5.269304
-5.472405
-0
-0
-0
-0
-0
-0
-0
-0
-4.750547
-4.806653
-4.898397
-5.032319
-5.216049
-0
-0
-0
-0
-0
-0
-0
-0
-0
-4.544322
-4.595641
-4.679487
-4.801529
-4.968305
-0
-0
-0
-0
-0
-0
-0
-0
-0
-0
-4.346848
-4.394168
-4.47128
-4.583167
-4.735483
-0
-0
-0
-0
-0
-0
-0
-0
-0
-0
-4.164475
-4.208557
-4.280113
-4.383549
-4.523849
-0
-0
-0
-0
-0
-0
-0
-0
-0
-0
-3.999704
-4.041216
-4.108226
-4.204709
-4.335094
-0
-0
-0
-0
-0
-0
-0
-0
-0
-0
-3.852542
-3.892008
-3.95532
-4.046072
-4.168282
-0
-0
-0
-0
-0
-0
-0
-0
-0
-0
-9.606002
-8.836687
-9.260456
-8.209598
-8.567064
-9.109484
-7.720975
-7.988303
-8.437064
-9.14254
-7.313477
-7.521976
-7.86752
-8.428932
-9.350635
-6.941768
-7.111354
-7.386828
-7.819941
-8.510107
-0
-6.583882
-6.723271
-6.94905
-7.293171
-7.814257
-0
-0
-6.246677
-6.363372
-6.551769
-6.835065
-7.247846
-0
-0
-0
-5.937547
-6.036919
-6.197859
-6.43705
-6.778881
-0
-0
-0
-0
-5.657457
-5.743759
-5.883813
-6.090874
-6.382255
-0
-0
-0
-0
-0
-5.404155
-5.480339
-5.604386
-5.786903
-6.041526
-0
-0
-0
-0
-0
-0
-5.173721
-5.241997
-5.353362
-5.516764
-5.743071
-0
-0
-0
-0
-0
-0
-0
-4.961331
-5.023247
-5.124362
-5.27228
-5.476134
-0
-0
-0
-0
-0
-0
-0
-0
-4.761143
-4.817803
-4.910323
-5.045318
-5.23052
-0
-0
-0
-0
-0
-0
-0
-0
-0
-4.566559
-4.618687
-4.703717
-4.827426
-4.996489
-0
-0
-0
-0
-0
-0
-0
-0
-0
-0
-4.373804
-4.421924
-4.50023
-4.613801
-4.768418
-0
-0
-0
-0
-0
-0
-0
-0
-0
-0
-4.188476
-4.233179
-4.305669
-4.410426
-4.552522
-0
-0
-0
-0
-0
-0
-0
-0
-0
-0
-4.016694
-4.058605
-4.126219
-4.223555
-4.355098
-0
-0
-0
-0
-0
-0
-0
-0
-0
-0
-3.861027
-3.900681
-3.964276
-4.055428
-4.178178
-0
-0
-0
-0
-0
-0
-0
-0
-0
-0
-3.721644
-3.759485
-3.819765
-3.905789
-4.021211
-0
-0
-0
-0
-0
-0
-0
-0
-0
-0
-8.781164
-9.180397
-8.127573
-8.465136
-8.956136
-7.628883
-7.880377
-8.297918
-8.918531
-7.22735
-7.42363
-7.747857
-8.265865
-9.060814
-6.880397
-7.041864
-7.304101
-7.713404
-8.352632
-0
-6.557094
-6.692787
-6.912743
-7.247106
-7.749823
-0
-0
-6.240544
-6.355852
-6.542175
-6.822097
-7.228922
-0
-0
-0
-5.938805
-6.037719
-6.198015
-6.436208
-6.776313
-0
-0
-0
-0
-5.659347
-5.745529
-5.885432
-6.092272
-6.383286
-0
-0
-0
-0
-0
-5.404155
-5.480339
-5.604386
-5.786903
-6.041526
-0
-0
-0
-0
-0
-0
-5.171809
-5.240141
-5.351565
-5.515037
-5.741447
-0
-0
-0
-0
-0
-0
-0
-4.959281
-5.021317
-5.122571
-5.270663
-5.474753
-0
-0
-0
-0
-0
-0
-0
-0
-4.762453
-4.819354
-4.912188
-5.0476
-5.233366
-0
-0
-0
-0
-0
-0
-0
-0
-0
-4.576148
-4.628728
-4.714396
-4.838984
-5.009247
-0
-0
-0
-0
-0
-0
-0
-0
-0
-0
-4.394354
-4.443156
-4.522468
-4.637457
-4.794012
-0
-0
-0
-0
-0
-0
-0
-0
-0
-0
-0
-4.213611
-4.259006
-4.332532
-4.438754
-4.582847
-0
-0
-0
-0
-0
-0
-0
-0
-0
-0
-4.039198
-4.081652
-4.150089
-4.248589
-4.381715
-0
-0
-0
-0
-0
-0
-0
-0
-0
-0
-3.877017
-3.917024
-3.981155
-4.073067
-4.196847
-0
-0
-0
-0
-0
-0
-0
-0
-0
-0
-3.72965
-3.767658
-3.828192
-3.914575
-4.030482
-0
-0
-0
-0
-0
-0
-0
-0
-0
-0
-3.597395
-3.633781
-3.691326
-3.773072
-3.88238
-0
-0
-0
-0
-0
-0
-0
-0
-0
-0
-8.085385
-8.413317
-8.880165
-7.562476
-7.803543
-8.200977
-8.769706
-7.150427
-7.337131
-7.644999
-8.130828
-8.838373
-6.807363
-6.960815
-7.210223
-7.597208
-8.191063
-0
-6.504784
-6.634984
-6.84637
-7.166768
-7.644408
-0
-0
-6.217939
-6.330675
-6.513145
-6.786982
-7.183593
-0
-0
-0
-5.934082
-6.032029
-6.190935
-6.427018
-6.763662
-0
-0
-0
-0
-5.660936
-5.746799
-5.88628
-6.092505
-6.382539
-0
-0
-0
-0
-0
-5.406068
-5.482171
-5.606124
-5.788515
-6.042942
-0
-0
-0
-0
-0
-0
-5.171809
-5.240141
-5.351565
-5.515037
-5.741447
-0
-0
-0
-0
-0
-0
-0
-4.957388
-5.019462
-5.12075
-5.268879
-5.473017
-0
-0
-0
-0
-0
-0
-0
-0
-4.760347
-4.817335
-4.910265
-5.045792
-5.231708
-0
-0
-0
-0
-0
-0
-0
-0
-0
-4.57713
-4.629899
-4.715811
-4.840722
-5.011416
-0
-0
-0
-0
-0
-0
-0
-0
-0
-0
-4.403077
-4.452251
-4.532092
-4.647811
-4.805357
-0
-0
-0
-0
-0
-0
-0
-0
-0
-0
-0
-4.232675
-4.278649
-4.353038
-4.460478
-4.606234
-0
-0
-0
-0
-0
-0
-0
-0
-0
-0
-0
-0
-4.062708
-4.105762
-4.175105
-4.27489
-4.409764
-0
-0
-0
-0
-0
-0
-0
-0
-0
-0
-3.898173
-3.938657
-4.003517
-4.096463
-4.221646
-0
-0
-0
-0
-0
-0
-0
-0
-0
-0
-3.744733
-3.783055
-3.844068
-3.931131
-4.04796
-0
-0
-0
-0
-0
-0
-0
-0
-0
-0
-3.604964
-3.6415
-3.699273
-3.781343
-3.891087
-0
-0
-0
-0
-0
-0
-0
-0
-0
-0
-3.479268
-3.514339
-3.569396
-3.647253
-3.751003
-0
-0
-0
-0
-0
-0
-0
-0
-0
-0
-7.528068
-7.764008
-8.151682
-8.695997
-7.094449
-7.27472
-7.571748
-8.03677
-8.690797
-6.741338
-6.888361
-7.127616
-7.49735
-8.057436
-0
-6.441464
-6.566089
-6.768868
-7.075566
-7.529507
-0
-0
-6.172518
-6.281309
-6.457858
-6.722504
-7.104214
-0
-0
-0
-5.914673
-6.010752
-6.166937
-6.398942
-6.729157
-0
-0
-0
-0
-5.65727
-5.742428
-5.880935
-6.085744
-6.373608
-0
-0
-0
-0
-0
-5.407878
-5.483753
-5.607419
-5.789417
-6.043251
-0
-0
-0
-0
-0
-0
-5.173721
-5.241997
-5.353362
-5.516764
-5.743071
-0
-0
-0
-0
-0
-0
-0
-4.957388
-5.019462
-5.12075
-5.268879
-5.473017
-0
-0
-0
-0
-0
-0
-0
-0
-4.758484
-4.815496
-4.908444
-5.043986
-5.229918
-0
-0
-0
-0
-0
-0
-0
-0
-0
-4.574996
-4.627828
-4.713804
-4.838788
-5.009574
-0
-0
-0
-0
-0
-0
-0
-0
-0
-0
-4.403793
-4.453114
-4.533147
-4.649117
-4.806997
-0
-0
-0
-0
-0
-0
-0
-0
-0
-0
-0
-4.240647
-4.28693
-4.36176
-4.469813
-4.616398
-0
-0
-0
-0
-0
-0
-0
-0
-0
-0
-0
-0
-4.080455
-4.124004
-4.194094
-4.294934
-4.431248
-0
-0
-0
-0
-0
-0
-0
-0
-0
-0
-0
-0
-0
-3.920223
-3.961231
-4.02689
-4.12097
-4.247696
-0
-0
-0
-0
-0
-0
-0
-0
-0
-0
-3.764668
-3.803412
-3.865075
-3.95306
-4.071141
-0
-0
-0
-0
-0
-0
-0
-0
-0
-0
-3.619222
-3.656038
-3.714241
-3.796923
-3.907496
-0
-0
-0
-0
-0
-0
-0
-0
-0
-0
-3.486437
-3.521642
-3.576907
-3.655057
-3.759202
-0
-0
-0
-0
-0
-0
-0
-0
-0
-0
-3.36681
-3.400666
-3.453448
-3.527748
-3.626423
-0
-0
-0
-0
-0
-0
-0
-0
-0
-0
-7.065298
-7.242369
-7.534049
-7.988944
-8.617759
-6.692968
-6.835603
-7.067992
-7.426238
-7.96442
-0
-6.383678
-6.503748
-6.699547
-6.99531
-7.430827
-0
-0
-6.116754
-6.22145
-6.391874
-6.647159
-7.014097
-0
-0
-0
-5.874666
-5.967808
-6.119658
-6.345206
-6.665491
-0
-0
-0
-0
-5.640382
-5.724134
-5.860637
-6.062529
-6.346041
-0
-0
-0
-0
-0
-5.405023
-5.480372
-5.603327
-5.784329
-6.036703
-0
-0
-0
-0
-0
-0
-5.175677
-5.243788
-5.354955
-5.518096
-5.744033
-0
-0
-0
-0
-0
-0
-0
-4.959281
-5.021317
-5.122571
-5.270663
-5.474753
-0
-0
-0
-0
-0
-0
-0
-0
-4.758484
-4.815496
-4.908444
-5.043986
-5.229918
-0
-0
-0
-0
-0
-0
-0
-0
-0
-4.573171
-4.626017
-4.712
-4.836983
-5.007764
-0
-0
-0
-0
-0
-0
-0
-0
-0
-0
-4.401652
-4.451016
-4.53109
-4.647103
-4.805035
-0
-0
-0
-0
-0
-0
-0
-0
-0
-0
-0
-4.241146
-4.287544
-4.362523
-4.470773
-4.617617
-0
-0
-0
-0
-0
-0
-0
-0
-0
-0
-0
-0
-4.087774
-4.131579
-4.202041
-4.303398
-4.440413
-0
-0
-0
-0
-0
-0
-0
-0
-0
-0
-0
-0
-0
-3.936797
-3.978231
-4.044538
-4.139541
-4.267524
-0
-0
-0
-0
-0
-0
-0
-0
-0
-0
-0
-0
-0
-0
-3.785402
-3.824606
-3.886976
-3.975969
-4.095422
-0
-0
-0
-0
-0
-0
-0
-0
-0
-0
-3.638047
-3.675239
-3.734024
-3.817534
-3.92923
-0
-0
-0
-0
-0
-0
-0
-0
-0
-0
-3.499941
-3.535397
-3.59105
-3.669753
-3.774647
-0
-0
-0
-0
-0
-0
-0
-0
-0
-0
-3.373612
-3.40759
-3.46056
-3.535127
-3.634161
-0
-0
-0
-0
-0
-0
-0
-0
-0
-0
-3.259603
-3.292344
-3.343019
-3.414048
-3.508066
-0
-0
-0
-0
-0
-0
-0
-0
-0
-0
-6.667688
-6.808119
-7.037077
-7.389639
-7.917141
-0
-6.341127
-6.45805
-6.649051
-6.937378
-7.360579
-0
-0
-6.065469
-6.166769
-6.332129
-6.579753
-6.934823
-0
-0
-0
-5.824958
-5.914989
-6.062243
-6.281009
-6.591059
-0
-0
-0
-0
-5.604758
-5.686246
-5.819458
-6.016548
-6.292994
-0
-0
-0
-0
-0
-5.390172
-5.464436
-5.585859
-5.764688
-6.013918
-0
-0
-0
-0
-0
-0
-5.173458
-5.241167
-5.351802
-5.514215
-5.739125
-0
-0
-0
-0
-0
-0
-0
-4.961331
-5.023247
-5.124362
-5.27228
-5.476134
-0
-0
-0
-0
-0
-0
-0
-0
-4.760347
-4.817335
-4.910265
-5.045792
-5.231708
-0
-0
-0
-0
-0
-0
-0
-0
-0
-4.573171
-4.626017
-4.712
-4.836983
-5.007764
-0
-0
-0
-0
-0
-0
-0
-0
-0
-0
-4.399869
-4.449241
-4.529312
-4.645315
-4.803227
-0
-0
-0
-0
-0
-0
-0
-0
-0
-0
-0
-4.239013
-4.28544
-4.360442
-4.468713
-4.61558
-0
-0
-0
-0
-0
-0
-0
-0
-0
-0
-0
-0
-4.088095
-4.131989
-4.202567
-4.304078
-4.441296
-0
-0
-0
-0
-0
-0
-0
-0
-0
-0
-0
-0
-0
-3.943543
-3.985191
-4.051812
-4.147255
-4.275835
-0
-0
-0
-0
-0
-0
-0
-0
-0
-0
-0
-0
-0
-0
-3.800926
-3.840498
-3.903435
-3.993239
-4.113797
-0
-0
-0
-0
-0
-0
-0
-0
-0
-0
-0
-0
-0
-0
-0
-3.657591
-3.695188
-3.754602
-3.839012
-3.951934
-0
-0
-0
-0
-0
-0
-0
-0
-0
-0
-3.517755
-3.553547
-3.609723
-3.689173
-3.79508
-0
-0
-0
-0
-0
-0
-0
-0
-0
-0
-3.386425
-3.420629
-3.473951
-3.54902
-3.648733
-0
-0
-0
-0
-0
-0
-0
-0
-0
-0
-3.266068
-3.29892
-3.349766
-3.421039
-3.515384
-0
-0
-0
-0
-0
-0
-0
-0
-0
-0
-3.157287
-3.188984
-3.23771
-3.305707
-3.395432
-0
-0
-0
-0
-0
-0
-0
-0
-0
-0
-6.318825
-6.434156
-6.622738
-6.907339
-7.324431
-0
-0
-6.02755
-6.12648
-6.288316
-6.530646
-6.877611
-0
-0
-0
-5.778946
-5.866365
-6.009758
-6.222863
-6.524479
-0
-0
-0
-0
-5.560029
-5.639079
-5.768726
-5.960644
-6.229571
-0
-0
-0
-0
-0
-5.358165
-5.430645
-5.549485
-5.724613
-5.968528
-0
-0
-0
-0
-0
-0
-5.160282
-5.227136
-5.336574
-5.497306
-5.719851
-0
-0
-0
-0
-0
-0
-0
-4.959616
-5.021222
-5.121931
-5.269304
-5.472405
-0
-0
-0
-0
-0
-0
-0
-0
-4.762453
-4.819354
-4.912188
-5.0476
-5.233366
-0
-0
-0
-0
-0
-0
-0
-0
-0
-4.574996
-4.627828
-4.713804
-4.838788
-5.009574
-0
-0
-0
-0
-0
-0
-0
-0
-0
-0
-4.399869
-4.449241
-4.529312
-4.645315
-4.803227
-0
-0
-0
-0
-0
-0
-0
-0
-0
-0
-0
-4.237277
-4.283704
-4.358699
-4.466951
-4.61379
-0
-0
-0
-0
-0
-0
-0
-0
-0
-0
-0
-0
-4.085983
-4.129893
-4.200481
-4.301996
-4.439216
-0
-0
-0
-0
-0
-0
-0
-0
-0
-0
-0
-0
-0
-3.943719
-3.985434
-4.052145
-4.147708
-4.276446
-0
-0
-0
-0
-0
-0
-0
-0
-0
-0
-0
-0
-0
-0
-3.807168
-3.846919
-3.910122
-4.000303
-4.121374
-0
-0
-0
-0
-0
-0
-0
-0
-0
-0
-0
-0
-0
-0
-0
-3.672171
-3.710088
-3.770001
-3.855127
-3.969026
-0
-0
-0
-0
-0
-0
-0
-0
-0
-0
-0
-0
-0
-0
-0
-0
-3.536216
-3.572368
-3.629107
-3.709364
-3.816371
-0
-0
-0
-0
-0
-0
-0
-0
-0
-0
-3.403315
-3.437819
-3.491614
-3.567358
-3.667989
-0
-0
-0
-0
-0
-0
-0
-0
-0
-0
-3.278247
-3.311303
-3.362468
-3.434199
-3.529163
-0
-0
-0
-0
-0
-0
-0
-0
-0
-0
-3.163441
-3.195239
-3.244121
-3.312341
-3.402367
-0
-0
-0
-0
-0
-0
-0
-0
-0
-0
-3.059531
-3.090252
-3.137156
-3.20234
-3.288082
-0
-0
-0
-0
-0
-0
-0
-0
-0
-0
-6.007631
-6.105355
-6.265402
-6.505054
-6.847948
-0
-0
-0
-5.744808
-5.83039
-5.971072
-6.180216
-6.475979
-0
-0
-0
-0
-5.518395
-5.595374
-5.721989
-5.909521
-6.17213
-0
-0
-0
-0
-0
-5.317603
-5.388133
-5.504123
-5.675177
-5.913287
-0
-0
-0
-0
-0
-0
-5.131312
-5.196732
-5.304097
-5.461884
-5.680285
-0
-0
-0
-0
-0
-0
-0
-4.94784
-5.008761
-5.108513
-5.254557
-5.455814
-0
-0
-0
-0
-0
-0
-0
-0
-4.761143
-4.817803
-4.910323
-5.045318
-5.23052
-0
-0
-0
-0
-0
-0
-0
-0
-0
-4.57713
-4.629899
-4.715811
-4.840722
-5.011416
-0
-0
-0
-0
-0
-0
-0
-0
-0
-0
-4.401652
-4.451016
-4.53109
-4.647103
-4.805035
-0
-0
-0
-0
-0
-0
-0
-0
-0
-0
-0
-4.237277
-4.283704
-4.358699
-4.466951
-4.61379
-0
-0
-0
-0
-0
-0
-0
-0
-0
-0
-0
-0
-4.084294
-4.128201
-4.198776
-4.300268
-4.437453
-0
-0
-0
-0
-0
-0
-0
-0
-0
-0
-0
-0
-0
-3.941637
-3.983359
-4.050068
-4.145623
-4.274347
-0
-0
-0
-0
-0
-0
-0
-0
-0
-0
-0
-0
-0
-0
-3.807226
-3.847027
-3.910298
-4.00057
-4.121765
-0
-0
-0
-0
-0
-0
-0
-0
-0
-0
-0
-0
-0
-0
-0
-3.677968
-3.716033
-3.776173
-3.861623
-3.975965
-0
-0
-0
-0
-0
-0
-0
-0
-0
-0
-0
-0
-0
-0
-0
-0
-3.549945
-3.586375
-3.643554
-3.724447
-3.832324
-0
-0
-0
-0
-0
-0
-0
-0
-0
-0
-0
-0
-0
-0
-0
-0
-0
-3.42079
-3.455614
-3.509914
-3.586387
-3.688009
-0
-0
-0
-0
-0
-0
-0
-0
-0
-0
-3.294288
-3.327615
-3.379208
-3.451553
-3.547352
-0
-0
-0
-0
-0
-0
-0
-0
-0
-0
-3.175037
-3.207019
-3.256193
-3.32483
-3.415422
-0
-0
-0
-0
-0
-0
-0
-0
-0
-0
-3.065398
-3.09621
-3.143258
-3.208647
-3.294664
-0
-0
-0
-0
-0
-0
-0
-0
-0
-0
-2.96607
-2.995838
-3.041037
-3.103595
-3.185638
-0
-0
-0
-0
-0
-0
-0
-0
-0
-0
-5.726842
-5.811485
-5.950782
-6.15791
-6.450705
-0
-0
-0
-0
-5.487413
-5.562928
-5.687395
-5.871831
-6.130001
-0
-0
-0
-0
-0
-5.279663
-5.348519
-5.46206
-5.629614
-5.86277
-0
-0
-0
-0
-0
-0
-5.094294
-5.158121
-5.263162
-5.417647
-5.631424
-0
-0
-0
-0
-0
-0
-0
-4.921453
-4.981204
-5.079259
-5.222909
-5.420834
-0
-0
-0
-0
-0
-0
-0
-0
-4.750547
-4.806653
-4.898397
-5.032319
-5.216049
-0
-0
-0
-0
-0
-0
-0
-0
-0
-4.576148
-4.628728
-4.714396
-4.838984
-5.009247
-0
-0
-0
-0
-0
-0
-0
-0
-0
-0
-4.403793
-4.453114
-4.533147
-4.649117
-4.806997
-0
-0
-0
-0
-0
-0
-0
-0
-0
-0
-0
-4.239013
-4.28544
-4.360442
-4.468713
-4.61558
-0
-0
-0
-0
-0
-0
-0
-0
-0
-0
-0
-0
-4.084294
-4.128201
-4.198776
-4.300268
-4.437453
-0
-0
-0
-0
-0
-0
-0
-0
-0
-0
-0
-0
-0
-3.939997
-3.981712
-4.048405
-4.143933
-4.272619
-0
-0
-0
-0
-0
-0
-0
-0
-0
-0
-0
-0
-0
-0
-3.80518
-3.84498
-3.908242
-3.998496
-4.119665
-0
-0
-0
-0
-0
-0
-0
-0
-0
-0
-0
-0
-0
-0
-0
-3.677929
-3.71603
-3.776221
-3.861741
-3.976177
-0
-0
-0
-0
-0
-0
-0
-0
-0
-0
-0
-0
-0
-0
-0
-0
-3.555345
-3.5919
-3.649273
-3.730446
-3.838707
-0
-0
-0
-0
-0
-0
-0
-0
-0
-0
-0
-0
-0
-0
-0
-0
-0
-3.433748
-3.468814
-3.523506
-3.600545
-3.702946
-0
-0
-0
-0
-0
-0
-0
-0
-0
-0
-0
-0
-0
-0
-0
-0
-0
-0
-3.310861
-3.344473
-3.396522
-3.469526
-3.566223
-0
-0
-0
-0
-0
-0
-0
-0
-0
-0
-3.1903
-3.222524
-3.272088
-3.341285
-3.432638
-0
-0
-0
-0
-0
-0
-0
-0
-0
-0
-3.076455
-3.107435
-3.154748
-3.22052
-3.307056
-0
-0
-0
-0
-0
-0
-0
-0
-0
-0
-2.971671
-3.001522
-3.046854
-3.109599
-3.191897
-0
-0
-0
-0
-0
-0
-0
-0
-0
-0
-2.876623
-2.905497
-2.949064
-3.009164
-3.087753
-0
-0
-0
-0
-0
-0
-0
-0
-0
-0
-5.471083
-5.545845
-5.669211
-5.852061
-6.107966
-0
-0
-0
-0
-0
-5.251358
-5.319023
-5.430818
-5.595884
-5.825527
-0
-0
-0
-0
-0
-0
-5.059516
-5.121966
-5.224989
-5.376608
-5.586387
-0
-0
-0
-0
-0
-0
-0
-4.887481
-4.945914
-5.042039
-5.18296
-5.377099
-0
-0
-0
-0
-0
-0
-0
-0
-4.726382
-4.78152
-4.871855
-5.003794
-5.184788
-0
-0
-0
-0
-0
-0
-0
-0
-0
-4.566559
-4.618687
-4.703717
-4.827426
-4.996489
-0
-0
-0
-0
-0
-0
-0
-0
-0
-0
-4.403077
-4.452251
-4.532092
-4.647811
-4.805357
-0
-0
-0
-0
-0
-0
-0
-0
-0
-0
-0
-4.241146
-4.287544
-4.362523
-4.470773
-4.617617
-0
-0
-0
-0
-0
-0
-0
-0
-0
-0
-0
-0
-4.085983
-4.129893
-4.200481
-4.301996
-4.439216
-0
-0
-0
-0
-0
-0
-0
-0
-0
-0
-0
-0
-0
-3.939997
-3.981712
-4.048405
-4.143933
-4.272619
-0
-0
-0
-0
-0
-0
-0
-0
-0
-0
-0
-0
-0
-0
-3.803589
-3.84338
-3.906623
-3.996848
-4.117975
-0
-0
-0
-0
-0
-0
-0
-0
-0
-0
-0
-0
-0
-0
-0
-3.675924
-3.714018
-3.774193
-3.859688
-3.97409
-0
-0
-0
-0
-0
-0
-0
-0
-0
-0
-0
-0
-0
-0
-0
-0
-3.555228
-3.591807
-3.649217
-3.730441
-3.838774
-0
-0
-0
-0
-0
-0
-0
-0
-0
-0
-0
-0
-0
-0
-0
-0
-0
-3.438796
-3.473966
-3.528824
-3.606106
-3.708841
-0
-0
-0
-0
-0
-0
-0
-0
-0
-0
-0
-0
-0
-0
-0
-0
-0
-0
-3.323117
-3.356943
-3.40934
-3.482852
-3.580247
-0
-0
-0
-0
-0
-0
-0
-0
-0
-0
-0
-0
-0
-0
-0
-0
-0
-0
-0
-3.206047
-3.238526
-3.288503
-3.358297
-3.450466
-0
-0
-0
-0
-0
-0
-0
-0
-0
-0
-3.090999
-3.1222
-3.169867
-3.236151
-3.323383
-0
-0
-0
-0
-0
-0
-0
-0
-0
-0
-2.982231
-3.012233
-3.057809
-3.120906
-3.20368
-0
-0
-0
-0
-0
-0
-0
-0
-0
-0
-2.881977
-2.910928
-2.954616
-3.01489
-3.093713
-0
-0
-0
-0
-0
-0
-0
-0
-0
-0
-2.791013
-2.818967
-2.861003
-2.918766
-2.994125
-0
-0
-0
-0
-0
-0
-0
-0
-0
-0
-5.236419
-5.30347
-5.414366
-5.578151
-5.805993
-0
-0
-0
-0
-0
-0
-5.033511
-5.094976
-5.196553
-5.346121
-5.553046
-0
-0
-0
-0
-0
-0
-0
-4.855441
-4.912724
-5.007159
-5.145689
-5.33652
-0
-0
-0
-0
-0
-0
-0
-0
-4.695058
-4.74909
-4.8378
-4.967444
-5.145279
-0
-0
-0
-0
-0
-0
-0
-0
-0
-4.544322
-4.595641
-4.679487
-4.801529
-4.968305
-0
-0
-0
-0
-0
-0
-0
-0
-0
-0
-4.394354
-4.443156
-4.522468
-4.637457
-4.794012
-0
-0
-0
-0
-0
-0
-0
-0
-0
-0
-0
-4.240647
-4.28693
-4.36176
-4.469813
-4.616398
-0
-0
-0
-0
-0
-0
-0
-0
-0
-0
-0
-0
-4.088095
-4.131989
-4.202567
-4.304078
-4.441296
-0
-0
-0
-0
-0
-0
-0
-0
-0
-0
-0
-0
-0
-3.941637
-3.983359
-4.050068
-4.145623
-4.274347
-0
-0
-0
-0
-0
-0
-0
-0
-0
-0
-0
-0
-0
-0
-3.803589
-3.84338
-3.906623
-3.996848
-4.117975
-0
-0
-0
-0
-0
-0
-0
-0
-0
-0
-0
-0
-0
-0
-0
-3.674382
-3.712465
-3.772619
-3.858082
-3.972442
-0
-0
-0
-0
-0
-0
-0
-0
-0
-0
-0
-0
-0
-0
-0
-0
-3.553268
-3.589836
-3.647224
-3.728418
-3.836709
-0
-0
-0
-0
-0
-0
-0
-0
-0
-0
-0
-0
-0
-0
-0
-0
-0
-3.438616
-3.473801
-3.528683
-3.606002
-3.70879
-0
-0
-0
-0
-0
-0
-0
-0
-0
-0
-0
-0
-0
-0
-0
-0
-0
-0
-3.32785
-3.361763
-3.414302
-3.488025
-3.585712
-0
-0
-0
-0
-0
-0
-0
-0
-0
-0
-0
-0
-0
-0
-0
-0
-0
-0
-0
-3.217666
-3.250331
-3.300619
-3.37087
-3.463669
-0
-0
-0
-0
-0
-0
-0
-0
-0
-0
-0
-0
-0
-0
-0
-0
-0
-0
-0
-0
-3.105987
-3.137416
-3.185457
-3.252286
-3.340262
-0
-0
-0
-0
-0
-0
-0
-0
-0
-0
-2.996113
-3.026314
-3.072215
-3.13578
-3.219193
-0
-0
-0
-0
-0
-0
-0
-0
-0
-0
-2.892074
-2.921165
-2.965076
-3.025674
-3.104936
-0
-0
-0
-0
-0
-0
-0
-0
-0
-0
-2.796138
-2.824163
-2.866311
-2.924235
-2.99981
-0
-0
-0
-0
-0
-0
-0
-0
-0
-0
-2.708995
-2.736086
-2.776606
-2.832179
-2.904478
-0
-0
-0
-0
-0
-0
-0
-0
-0
-0
-5.019771
-5.080725
-5.181556
-5.330064
-5.535519
-0
-0
-0
-0
-0
-0
-0
-4.831435
-4.887891
-4.981109
-5.117919
-5.306376
-0
-0
-0
-0
-0
-0
-0
-0
-4.66541
-4.718471
-4.805746
-4.933363
-5.108415
-0
-0
-0
-0
-0
-0
-0
-0
-0
-4.515319
-4.565701
-4.648161
-4.768247
-4.932344
-0
-0
-0
-0
-0
-0
-0
-0
-0
-0
-4.373804
-4.421924
-4.50023
-4.613801
-4.768418
-0
-0
-0
-0
-0
-0
-0
-0
-0
-0
-4.232675
-4.278649
-4.353038
-4.460478
-4.606234
-0
-0
-0
-0
-0
-0
-0
-0
-0
-0
-0
-0
-4.087774
-4.131579
-4.202041
-4.303398
-4.440413
-0
-0
-0
-0
-0
-0
-0
-0
-0
-0
-0
-0
-0
-3.943719
-3.985434
-4.052145
-4.147708
-4.276446
-0
-0
-0
-0
-0
-0
-0
-0
-0
-0
-0
-0
-0
-0
-3.80518
-3.84498
-3.908242
-3.998496
-4.119665
-0
-0
-0
-0
-0
-0
-0
-0
-0
-0
-0
-0
-0
-0
-0
-3.674382
-3.712465
-3.772619
-3.858082
-3.972442
-0
-0
-0
-0
-0
-0
-0
-0
-0
-0
-0
-0
-0
-0
-0
-0
-3.551775
-3.588329
-3.645695
-3.726857
-3.835104
-0
-0
-0
-0
-0
-0
-0
-0
-0
-0
-0
-0
-0
-0
-0
-0
-0
-3.436704
-3.471873
-3.52673
-3.604013
-3.706756
-0
-0
-0
-0
-0
-0
-0
-0
-0
-0
-0
-0
-0
-0
-0
-0
-0
-0
-3.327619
-3.36154
-3.414093
-3.487841
-3.585566
-0
-0
-0
-0
-0
-0
-0
-0
-0
-0
-0
-0
-0
-0
-0
-0
-0
-0
-0
-3.222117
-3.254853
-3.305263
-3.375698
-3.468754
-0
-0
-0
-0
-0
-0
-0
-0
-0
-0
-0
-0
-0
-0
-0
-0
-0
-0
-0
-0
-3.117022
-3.148617
-3.196934
-3.264177
-3.352722
-0
-0
-0
-0
-0
-0
-0
-0
-0
-0
-0
-0
-0
-0
-0
-0
-0
-0
-0
-0
-3.010403
-3.040808
-3.087049
-3.151111
-3.235206
-0
-0
-0
-0
-0
-0
-0
-0
-0
-0
-2.905342
-2.934615
-2.978822
-3.039852
-3.1197
-0
-0
-0
-0
-0
-0
-0
-0
-0
-0
-2.805807
-2.833958
-2.876313
-2.934535
-3.010517
-0
-0
-0
-0
-0
-0
-0
-0
-0
-0
-2.713905
-2.741062
-2.781686
-2.837408
-2.909908
-0
-0
-0
-0
-0
-0
-0
-0
-0
-0
-2.630498
-2.656622
-2.69572
-2.749161
-2.818593
-0
-0
-0
-0
-0
-0
-0
-0
-0
-0
-4.818738
-4.874765
-4.967351
-5.10327
-5.290499
-0
-0
-0
-0
-0
-0
-0
-0
-4.643157
-4.695515
-4.781753
-4.907905
-5.080948
-0
-0
-0
-0
-0
-0
-0
-0
-0
-4.487779
-4.537331
-4.618559
-4.736906
-4.898624
-0
-0
-0
-0
-0
-0
-0
-0
-0
-0
-4.346848
-4.394168
-4.47128
-4.583167
-4.735483
-0
-0
-0
-0
-0
-0
-0
-0
-0
-0
-4.213611
-4.259006
-4.332532
-4.438754
-4.582847
-0
-0
-0
-0
-0
-0
-0
-0
-0
-0
-4.080455
-4.124004
-4.194094
-4.294934
-4.431248
-0
-0
-0
-0
-0
-0
-0
-0
-0
-0
-0
-0
-0
-3.943543
-3.985191
-4.051812
-4.147255
-4.275835
-0
-0
-0
-0
-0
-0
-0
-0
-0
-0
-0
-0
-0
-0
-3.807226
-3.847027
-3.910298
-4.00057
-4.121765
-0
-0
-0
-0
-0
-0
-0
-0
-0
-0
-0
-0
-0
-0
-0
-3.675924
-3.714018
-3.774193
-3.859688
-3.97409
-0
-0
-0
-0
-0
-0
-0
-0
-0
-0
-0
-0
-0
-0
-0
-0
-3.551775
-3.588329
-3.645695
-3.726857
-3.835104
-0
-0
-0
-0
-0
-0
-0
-0
-0
-0
-0
-0
-0
-0
-0
-0
-0
-3.435259
-3.470413
-3.525247
-3.602497
-3.705196
-0
-0
-0
-0
-0
-0
-0
-0
-0
-0
-0
-0
-0
-0
-0
-0
-0
-0
-3.325756
-3.359658
-3.412182
-3.485892
-3.583568
-0
-0
-0
-0
-0
-0
-0
-0
-0
-0
-0
-0
-0
-0
-0
-0
-0
-0
-0
-3.221848
-3.254583
-3.305001
-3.37545
-3.468532
-0
-0
-0
-0
-0
-0
-0
-0
-0
-0
-0
-0
-0
-0
-0
-0
-0
-0
-0
-0
-3.12122
-3.152873
-3.201294
-3.268698
-3.357469
-0
-0
-0
-0
-0
-0
-0
-0
-0
-0
-0
-0
-0
-0
-0
-0
-0
-0
-0
-0
-3.020906
-3.051455
-3.097946
-3.162379
-3.246992
-0
-0
-0
-0
-0
-0
-0
-0
-0
-0
-0
-0
-0
-0
-0
-0
-0
-0
-0
-0
-2.918985
-2.948445
-2.99296
-3.054446
-3.134918
-0
-0
-0
-0
-0
-0
-0
-0
-0
-0
-2.818507
-2.846822
-2.889451
-2.948069
-3.024592
-0
-0
-0
-0
-0
-0
-0
-0
-0
-0
-2.723174
-2.750449
-2.791262
-2.847262
-2.920136
-0
-0
-0
-0
-0
-0
-0
-0
-0
-0
-2.63521
-2.661393
-2.700589
-2.754167
-2.823787
-0
-0
-0