/*--------------------------------*- C++ -*----------------------------------*\
| =========                 |                                                 |
| \\      /  F ield         | OpenFOAM: The Open Source CFD Toolbox           |
|  \\    /   O peration     | Version:  2306                                  |
|   \\  /    A nd           | Website:  www.openfoam.com                      |
|    \\/     M anipulation  |                                                 |
\*---------------------------------------------------------------------------*/
FoamFile
{
    version     2.0;
    format      ascii;
    arch        "LSB;label=32;scalar=64";
    class       volScalarField;
    location    "1.5/fuel";
    object      iDmdtfuel.H2O;
}
// * * * * * * * * * * * * * * * * * * * * * * * * * * * * * * * * * * * * * //

dimensions      [1 -3 -1 0 0 0 0];

internalField   nonuniform List<scalar> 
16000
(
85.84333
86.61366
78.47223
82.03995
88.16987
78.9684
82.75539
72.25445
75.18499
79.35694
90.51348
79.94484
84.19978
72.63146
75.64807
80.03585
67.27403
69.38248
72.84691
77.71114
93.55809
81.34775
86.37285
73.36447
76.55894
81.40624
67.58152
69.73579
73.28743
78.36984
63.13852
64.7209
67.32748
71.39262
77.01198
96.84028
83.04262
89.19261
74.39475
77.8667
83.46759
68.17496
70.42242
74.15374
79.6998
63.39902
65.01
67.66438
71.82
77.66467
59.5853
60.84026
62.88633
66.03697
70.75095
0
99.32153
84.69243
92.22838
75.59474
79.44525
86.14266
68.99792
71.38689
75.3972
81.70164
63.89926
65.56774
68.31897
72.66055
78.98347
59.81122
61.08587
63.16259
66.36403
71.17345
0
56.46772
57.49837
59.18361
61.72693
65.45424
0
0
100.891
85.8069
94.515
76.69658
80.98028
89.02368
69.93441
72.50931
76.8979
84.3031
64.58669
66.34072
69.23816
73.8673
80.9713
60.24347
61.55733
63.69542
66.99951
72.00468
0
56.66702
57.71189
59.41875
61.99537
65.77728
0
0
53.68675
54.56006
55.9903
58.13194
61.19618
0
0
0
101.7818
86.42928
95.95684
77.37811
82.0143
91.18819
70.76137
73.53885
78.35701
87.11075
65.35635
67.21959
70.30752
75.32453
83.56126
60.8335
62.20481
64.43363
67.8919
73.19884
0
57.04727
58.12027
59.87001
62.51307
66.40504
0
0
53.86476
54.74884
56.19507
58.36064
61.46126
0
0
0
51.1775
51.93391
53.17873
55.02971
57.64625
0
0
0
0
102.1815
86.74547
96.77331
77.70845
82.59038
92.55042
71.24042
74.1739
79.33738
89.21713
66.01715
67.99472
71.28789
76.74254
86.36677
61.48616
62.92911
65.27256
68.93027
74.64268
0
57.56367
58.67738
60.4895
63.23028
67.28688
0
0
54.20362
55.10888
56.5866
58.79948
61.97254
0
0
0
51.33806
52.10285
53.36005
55.22905
57.87211
0
0
0
0
48.89193
49.56004
50.66249
52.29652
54.58339
0
0
0
0
0
102.1815
86.87673
97.13927
77.84682
82.88256
93.32102
71.44394
74.48082
79.88262
90.54204
66.38126
68.44241
71.89083
77.69315
88.47105
62.0346
63.5501
66.01185
69.88233
76.04994
0
58.12953
59.29305
61.18208
64.0453
68.31369
0
0
54.66192
55.59753
57.12052
59.40185
62.68096
0
0
0
51.64313
52.42434
53.70577
55.61016
58.30553
0
0
0
0
49.03786
49.7127
50.82499
52.47319
54.7803
0
0
0
0
0
46.79487
47.39407
48.38508
49.84874
51.88483
0
0
0
0
0
0
101.7818
86.87673
97.13927
77.89386
83.00374
93.66626
71.50947
74.60898
80.159
91.29172
66.51838
68.63181
72.18144
78.22135
89.79569
62.32493
63.89113
66.43736
70.46608
76.99159
0
58.59699
59.8096
61.77522
64.76323
69.25572
0
0
55.16025
56.13245
57.71017
60.07517
63.48629
0
0
0
52.05431
52.85887
54.17479
56.12977
58.90051
0
0
0
0
49.31473
50.00265
51.13413
52.81
55.15678
0
0
0
0
0
46.92837
47.53306
48.53211
50.0072
52.0594
0
0
0
0
0
0
44.85881
45.40353
46.30459
47.63173
49.46776
0
0
0
0
0
0
0
100.891
86.74547
96.77331
77.89386
83.00374
93.66626
71.52324
74.65242
80.27364
91.62773
66.5487
68.69232
72.30253
78.48925
90.54635
62.42257
64.01879
66.61658
70.7468
77.51473
0
58.83638
60.08202
62.09968
65.17489
69.83154
0
0
55.56616
56.57361
58.20424
60.65137
64.19565
0
0
0
52.49853
53.33088
54.68787
56.70347
59.56567
0
0
0
0
49.68679
50.39322
51.5518
53.26686
55.67011
0
0
0
0
0
47.18132
47.79665
48.8113
50.30863
52.39222
0
0
0
0
0
0
44.9816
45.53088
46.43862
47.77522
49.62439
0
0
0
0
0
0
0
43.0623
43.56298
44.39037
45.605
47.27816
0
0
0
0
0
0
0
0
99.32153
86.42928
95.95684
77.84682
82.88256
93.32102
71.52324
74.65242
80.27364
91.62773
66.54729
68.70479
72.3435
78.6005
90.88327
62.43378
64.04644
66.67342
70.86363
77.78051
0
58.90866
60.17289
62.22033
65.34751
70.10789
0
0
55.76816
56.79861
58.46367
60.96517
64.60073
0
0
0
52.85604
53.71465
55.11038
57.18367
60.13462
0
0
0
0
50.08651
50.81472
52.00516
53.76644
56.23688
0
0
0
0
0
47.52037
48.15065
49.1872
50.7158
52.84366
0
0
0
0
0
0
45.21399
45.77207
46.69273
48.04766
49.92234
0
0
0
0
0
0
0
43.17577
43.68028
44.51331
45.73591
47.42004
0
0
0
0
0
0
0
0
41.38796
41.85259
42.61841
43.73896
45.27604
0
0
0
0
0
0
0
0
0
96.84028
85.8069
94.515
77.70845
82.59038
92.55042
71.50947
74.60898
80.159
91.29172
66.54729
68.70479
72.3435
78.6005
90.88327
62.42477
64.04471
66.68492
70.90316
77.89113
0
58.90877
60.18266
62.24591
65.4019
70.2229
0
0
55.82297
56.8658
58.5494
61.08106
64.76984
0
0
0
53.02949
53.90478
55.32484
57.43458
60.44297
0
0
0
0
50.40486
51.1533
52.37316
54.17735
56.71093
0
0
0
0
0
47.88285
48.53056
49.59257
51.15758
53.33731
0
0
0
0
0
0
45.52478
46.09517
47.03386
48.41441
50.32481
0
0
0
0
0
0
0
43.39029
43.9022
44.7461
45.98407
47.68942
0
0
0
0
0
0
0
0
41.49323
41.96113
42.73178
43.85913
45.40552
0
0
0
0
0
0
0
0
0
39.82166
40.25627
40.97
42.01044
43.43221
0
0
0
0
0
0
0
0
0
0
93.55809
84.69243
92.22838
77.37811
82.0143
91.18819
71.44394
74.48082
79.88262
90.54204
66.5487
68.69232
72.30253
78.48925
90.54635
62.42477
64.04471
66.68492
70.90316
77.89113
0
58.89577
60.17377
62.24386
65.41273
70.26187
0
0
55.81617
56.86514
58.55794
61.1051
64.82281
0
0
0
53.0717
53.95564
55.38811
57.5167
60.55603
0
0
0
0
50.55578
51.31679
52.55455
54.3848
56.95728
0
0
0
0
0
48.16888
48.83253
49.91762
51.51571
53.74294
0
0
0
0
0
0
45.8556
46.44022
47.39967
48.80973
50.76145
0
0
0
0
0
0
0
43.67662
44.1988
45.05781
46.31714
48.05205
0
0
0
0
0
0
0
0
41.6921
42.16627
42.9462
44.08663
45.65097
0
0
0
0
0
0
0
0
0
39.91967
40.35711
41.075
42.12133
43.5511
0
0
0
0
0
0
0
0
0
0
38.3516
38.76097
39.42994
40.40138
41.72382
0
0
0
0
0
0
0
0
0
0
90.51348
83.04262
89.19261
76.69658
80.98028
89.02368
71.24042
74.1739
79.33738
89.21713
66.51838
68.63181
72.18144
78.22135
89.79569
62.43378
64.04644
66.67342
70.86363
77.78051
0
58.89577
60.17377
62.24386
65.41273
70.26187
0
0
55.80101
56.85248
58.54906
61.10275
64.83323
0
0
0
53.06045
53.94848
55.38671
57.52423
60.57897
0
0
0
0
50.58854
51.35585
52.60231
54.44523
57.03709
0
0
0
0
0
48.30159
48.97494
50.07372
51.69123
53.94655
0
0
0
0
0
0
46.11449
46.71192
47.6899
49.12627
51.11503
0
0
0
0
0
0
0
43.9802
44.51416
45.39043
46.67414
48.44289
0
0
0
0
0
0
0
0
41.95704
42.4399
43.23265
44.3912
45.98041
0
0
0
0
0
0
0
0
0
40.10471
40.54753
41.27342
42.33102
43.7762
0
0
0
0
0
0
0
0
0
0
38.44316
38.85498
39.52758
40.50415
41.83356
0
0
0
0
0
0
0
0
0
0
36.96803
37.35576
37.98591
38.89713
40.13307
0
0
0
0
0
0
0
0
0
0
88.16987
81.34775
86.37285
75.59474
79.44525
86.14266
70.76137
73.53885
78.35701
87.11075
66.38126
68.44241
71.89083
77.69315
88.47105
62.42257
64.01879
66.61658
70.7468
77.51473
0
58.90877
60.18266
62.24591
65.4019
70.2229
0
0
55.80101
56.85248
58.54906
61.10275
64.83323
0
0
0
53.04414
53.93377
55.37422
57.51523
60.57632
0
0
0
0
50.57434
51.3445
52.59473
54.44314
57.04376
0
0
0
0
0
48.3271
49.00516
50.11029
51.7367
54.00507
0
0
0
0
0
0
46.23223
46.83731
47.82599
49.27737
51.28727
0
0
0
0
0
0
0
44.21601
44.76043
45.65185
46.95696
48.75548
0
0
0
0
0
0
0
0
42.23696
42.7297
43.53698
44.71603
46.33348
0
0
0
0
0
0
0
0
0
40.35082
40.80105
41.53795
42.61109
44.07753
0
0
0
0
0
0
0
0
0
0
38.61589
39.03237
39.71193
40.69832
42.0411
0
0
0
0
0
0
0
0
0
0
37.0538
37.44367
38.07702
38.99275
40.23482
0
0
0
0
0
0
0
0
0
0
35.66251
36.03159
36.62758
37.48579
38.64555
0
0
0
0
0
0
0
0
0
0
86.61366
79.94484
84.19978
74.39475
77.8667
83.46759
69.93441
72.50931
76.8979
84.3031
66.01715
67.99472
71.28789
76.74254
86.36677
62.32493
63.89113
66.43736
70.46608
76.99159
0
58.90866
60.17289
62.22033
65.34751
70.10789
0
0
55.81617
56.86514
58.55794
61.1051
64.82281
0
0
0
53.04414
53.93377
55.37422
57.51523
60.57632
0
0
0
0
50.55745
51.32868
52.58026
54.43065
57.03455
0
0
0
0
0
48.31093
48.99102
50.09871
51.72864
54.0023
0
0
0
0
0
0
46.25206
46.86073
47.85416
49.31206
51.33113
0
0
0
0
0
0
0
44.32125
44.87178
45.77176
47.08875
48.90375
0
0
0
0
0
0
0
0
42.45292
42.9543
43.77416
44.97095
46.61284
0
0
0
0
0
0
0
0
0
40.61
41.06861
41.81789
42.90851
44.39889
0
0
0
0
0
0
0
0
0
0
38.84529
39.26816
39.95727
40.95713
42.31829
0
0
0
0
0
0
0
0
0
0
37.21552
37.60946
38.24891
39.17327
40.42705
0
0
0
0
0
0
0
0
0
0
35.74306
36.11403
36.71286
37.57507
38.74025
0
0
0
0
0
0
0
0
0
0
34.42796
34.78065
35.34643
36.15742
37.24955
0
0
0
0
0
0
0
0
0
0
85.84333
78.9684
82.75539
73.36447
76.55894
81.40624
68.99792
71.38689
75.3972
81.70164
65.35635
67.21959
70.30752
75.32453
83.56126
62.0346
63.5501
66.01185
69.88233
76.04994
0
58.83638
60.08202
62.09968
65.17489
69.83154
0
0
55.82297
56.8658
58.5494
61.08106
64.76984
0
0
0
53.06045
53.94848
55.38671
57.52423
60.57897
0
0
0
0
50.55745
51.32868
52.58026
54.43065
57.03455
0
0
0
0
0
48.29383
48.97465
50.08318
51.71424
53.98965
0
0
0
0
0
0
46.23457
46.84472
47.83993
49.30015
51.32254
0
0
0
0
0
0
0
44.33657
44.88988
45.79348
47.11535
48.93707
0
0
0
0
0
0
0
0
42.54761
43.05394
43.88074
45.08712
46.74216
0
0
0
0
0
0
0
0
0
40.80872
41.27456
42.03442
43.13994
44.65076
0
0
0
0
0
0
0
0
0
0
39.08617
39.5162
40.21598
41.23089
42.61262
0
0
0
0
0
0
0
0
0
0
37.43001
37.8295
38.4773
39.41345
40.68328
0
0
0
0
0
0
0
0
0
0
35.89489
36.26943
36.87365
37.74349
38.91902
0
0
0
0
0
0
0
0
0
0
34.50379
34.85815
35.42646
36.24103
37.33798
0
0
0
0
0
0
0
0
0
0
33.2582
33.59636
34.13505
34.9038
35.93526
0
0
0
0
0
0
0
0
0
0
78.47223
82.03995
72.63146
75.64807
80.03585
68.17496
70.42242
74.15374
79.6998
64.58669
66.34072
69.23816
73.8673
80.9713
61.48616
62.92911
65.27256
68.93027
74.64268
0
58.59699
59.8096
61.77522
64.76323
69.25572
0
0
55.76816
56.79861
58.46367
60.96517
64.60073
0
0
0
53.0717
53.95564
55.38811
57.5167
60.55603
0
0
0
0
50.57434
51.3445
52.59473
54.44314
57.04376
0
0
0
0
0
48.29383
48.97465
50.08318
51.71424
53.98965
0
0
0
0
0
0
46.21749
46.82814
47.82387
49.28472
51.30802
0
0
0
0
0
0
0
44.31825
44.87263
45.77748
47.10089
48.92473
0
0
0
0
0
0
0
0
42.55931
43.0678
43.89741
45.10751
46.76759
0
0
0
0
0
0
0
0
0
40.89441
41.36429
42.12985
43.24323
44.76476
0
0
0
0
0
0
0
0
0
0
39.26982
39.70594
40.41471
41.4423
42.84134
0
0
0
0
0
0
0
0
0
0
0
37.65462
38.06029
38.71735
39.6666
40.95428
0
0
0
0
0
0
0
0
0
0
36.096
36.47539
37.08697
37.96721
39.15687
0
0
0
0
0
0
0
0
0
0
34.64668
35.0042
35.5773
36.39867
37.50482
0
0
0
0
0
0
0
0
0
0
33.32974
33.6694
34.21036
34.98231
36.0181
0
0
0
0
0
0
0
0
0
0
32.14786
32.47302
32.98726
33.71778
34.6946
0
0
0
0
0
0
0
0
0
0
72.25445
75.18499
79.35694
67.58152
69.73579
73.28743
78.36984
63.89926
65.56774
68.31897
72.66055
78.98347
60.8335
62.20481
64.43363
67.8919
73.19884
0
58.12953
59.29305
61.18208
64.0453
68.31369
0
0
55.56616
56.57361
58.20424
60.65137
64.19565
0
0
0
53.02949
53.90478
55.32484
57.43458
60.44297
0
0
0
0
50.58854
51.35585
52.60231
54.44523
57.03709
0
0
0
0
0
48.31093
48.99102
50.09871
51.72864
54.0023
0
0
0
0
0
0
46.21749
46.82814
47.82387
49.28472
51.30802
0
0
0
0
0
0
0
44.30133
44.85605
45.76121
47.08495
48.90922
0
0
0
0
0
0
0
0
42.54049
43.04976
43.88022
45.09135
46.75277
0
0
0
0
0
0
0
0
0
40.90319
41.37476
42.1425
43.25876
44.78415
0
0
0
0
0
0
0
0
0
0
39.34777
39.78721
40.50071
41.53482
42.94272
0
0
0
0
0
0
0
0
0
0
0
37.82499
38.23583
38.9006
39.86074
41.16327
0
0
0
0
0
0
0
0
0
0
0
0
36.30609
36.69084
37.31052
38.20224
39.40754
0
0
0
0
0
0
0
0
0
0
34.83573
35.19752
35.77714
36.60774
37.72643
0
0
0
0
0
0
0
0
0
0
33.46453
33.80699
34.35224
35.13026
36.17429
0
0
0
0
0
0
0
0
0
0
32.2155
32.542
33.05828
33.7917
34.77242
0
0
0
0
0
0
0
0
0
0
31.09223
31.40563
31.89764
32.59341
33.52056
0
0
0
0
0
0
0
0
0
0
67.27403
69.38248
72.84691
77.71114
63.39902
65.01
67.66438
71.82
77.66467
60.24347
61.55733
63.69542
66.99951
72.00468
0
57.56367
58.67738
60.4895
63.23028
67.28688
0
0
55.16025
56.13245
57.71017
60.07517
63.48629
0
0
0
52.85604
53.71465
55.11038
57.18367
60.13462
0
0
0
0
50.55578
51.31679
52.55455
54.3848
56.95728
0
0
0
0
0
48.3271
49.00516
50.11029
51.7367
54.00507
0
0
0
0
0
0
46.23457
46.84472
47.83993
49.30015
51.32254
0
0
0
0
0
0
0
44.30133
44.85605
45.76121
47.08495
48.90922
0
0
0
0
0
0
0
0
42.52384
43.03333
43.86395
45.07521
46.73678
0
0
0
0
0
0
0
0
0
40.88412
41.35624
42.12456
43.24148
44.76769
0
0
0
0
0
0
0
0
0
0
39.35417
39.79493
40.51013
41.54649
42.95737
0
0
0
0
0
0
0
0
0
0
0
37.89623
38.30984
38.97855
39.94416
41.2541
0
0
0
0
0
0
0
0
0
0
0
0
36.46469
36.85386
37.48021
38.38137
39.59952
0
0
0
0
0
0
0
0
0
0
0
0
0
35.03279
35.39925
35.986
36.82675
37.95923
0
0
0
0
0
0
0
0
0
0
33.64268
33.98891
34.53996
35.32623
36.38146
0
0
0
0
0
0
0
0
0
0
32.34291
32.67191
33.19204
33.93093
34.91905
0
0
0
0
0
0
0
0
0
0
31.15629
31.4709
31.96476
32.66315
33.59383
0
0
0
0
0
0
0
0
0
0
30.08725
30.3898
30.86148
31.52546
32.40726
0
0
0
0
0
0
0
0
0
0
63.13852
64.7209
67.32748
71.39262
77.01198
59.81122
61.08587
63.16259
66.36403
71.17345
0
57.04727
58.12027
59.87001
62.51307
66.40504
0
0
54.66192
55.59753
57.12052
59.40185
62.68096
0
0
0
52.49853
53.33088
54.68787
56.70347
59.56567
0
0
0
0
50.40486
51.1533
52.37316
54.17735
56.71093
0
0
0
0
0
48.30159
48.97494
50.07372
51.69123
53.94655
0
0
0
0
0
0
46.25206
46.86073
47.85416
49.31206
51.33113
0
0
0
0
0
0
0
44.31825
44.87263
45.77748
47.10089
48.92473
0
0
0
0
0
0
0
0
42.52384
43.03333
43.86395
45.07521
46.73678
0
0
0
0
0
0
0
0
0
40.86781
41.34006
42.10844
43.22535
44.75152
0
0
0
0
0
0
0
0
0
0
39.33504
39.77618
40.49175
41.5285
42.93984
0
0
0
0
0
0
0
0
0
0
0
37.90069
38.31532
38.98537
39.95273
41.265
0
0
0
0
0
0
0
0
0
0
0
0
36.53009
36.92155
37.55123
38.457
39.68143
0
0
0
0
0
0
0
0
0
0
0
0
0
35.1809
35.55117
36.14372
36.9927
38.13641
0
0
0
0
0
0
0
0
0
0
0
0
0
0
33.82797
34.17831
34.73568
35.53096
36.59844
0
0
0
0
0
0
0
0
0
0
32.51114
32.8435
33.36883
34.11511
35.11328
0
0
0
0
0
0
0
0
0
0
31.27697
31.59382
32.09116
32.79448
33.73186
0
0
0
0
0
0
0
0
0
0
30.14804
30.45168
30.92504
31.5914
32.47641
0
0
0
0
0
0
0
0
0
0
29.1292
29.42179
29.87464
30.50939
31.34957
0
0
0
0
0
0
0
0
0
0
59.5853
60.84026
62.88633
66.03697
70.75095
0
56.66702
57.71189
59.41875
61.99537
65.77728
0
0
54.20362
55.10888
56.5866
58.79948
61.97254
0
0
0
52.05431
52.85887
54.17479
56.12977
58.90051
0
0
0
0
50.08651
50.81472
52.00516
53.76644
56.23688
0
0
0
0
0
48.16888
48.83253
49.91762
51.51571
53.74294
0
0
0
0
0
0
46.23223
46.83731
47.82599
49.27737
51.28727
0
0
0
0
0
0
0
44.33657
44.88988
45.79348
47.11535
48.93707
0
0
0
0
0
0
0
0
42.54049
43.04976
43.88022
45.09135
46.75277
0
0
0
0
0
0
0
0
0
40.86781
41.34006
42.10844
43.22535
44.75152
0
0
0
0
0
0
0
0
0
0
39.31911
39.76031
40.47587
41.51252
42.92369
0
0
0
0
0
0
0
0
0
0
0
37.88163
38.29652
38.96677
39.93432
41.24679
0
0
0
0
0
0
0
0
0
0
0
0
36.53296
36.92522
37.55593
38.46308
39.68931
0
0
0
0
0
0
0
0
0
0
0
0
0
35.24118
35.61336
36.20872
37.06164
38.21069
0
0
0
0
0
0
0
0
0
0
0
0
0
0
33.9667
34.32033
34.88276
35.68528
36.76264
0
0
0
0
0
0
0
0
0
0
0
0
0
0
0
32.68579
33.02178
33.55273
34.30705
35.31616
0
0
0
0
0
0
0
0
0
0
31.43616
31.75601
32.25802
32.96802
33.91445
0
0
0
0
0
0
0
0
0
0
30.26254
30.5682
31.04471
31.71556
32.60664
0
0
0
0
0
0
0
0
0
0
29.18698
29.48055
29.93493
30.57186
31.41497
0
0
0
0
0
0
0
0
0
0
28.21486
28.49813
28.93356
29.5412
30.34303
0
0
0
0
0
0
0
0
0
0
56.46772
57.49837
59.18361
61.72693
65.45424
0
0
53.86476
54.74884
56.19507
58.36064
61.46126
0
0
0
51.64313
52.42434
53.70577
55.61016
58.30553
0
0
0
0
49.68679
50.39322
51.5518
53.26686
55.67011
0
0
0
0
0
47.88285
48.53056
49.59257
51.15758
53.33731
0
0
0
0
0
0
46.11449
46.71192
47.6899
49.12627
51.11503
0
0
0
0
0
0
0
44.32125
44.87178
45.77176
47.08875
48.90375
0
0
0
0
0
0
0
0
42.55931
43.0678
43.89741
45.10751
46.76759
0
0
0
0
0
0
0
0
0
40.88412
41.35624
42.12456
43.24148
44.76769
0
0
0
0
0
0
0
0
0
0
39.31911
39.76031
40.47587
41.51252
42.92369
0
0
0
0
0
0
0
0
0
0
0
37.86611
38.28101
38.95119
39.91858
41.2308
0
0
0
0
0
0
0
0
0
0
0
0
36.51409
36.90649
37.53729
38.44447
39.67073
0
0
0
0
0
0
0
0
0
0
0
0
0
35.24276
35.61554
36.2117
37.06569
38.21615
0
0
0
0
0
0
0
0
0
0
0
0
0
0
34.02248
34.37771
34.94252
35.74841
36.83035
0
0
0
0
0
0
0
0
0
0
0
0
0
0
0
32.81609
33.15493
33.69033
34.45106
35.46891
0
0
0
0
0
0
0
0
0
0
0
0
0
0
0
0
31.60114
31.9242
32.43124
33.14846
34.10472
0
0
0
0
0
0
0
0
0
0
30.41347
30.72182
31.20255
31.87944
32.77872
0
0
0
0
0
0
0
0
0
0
29.29581
29.59121
30.04845
30.68946
31.53811
0
0
0
0
0
0
0
0
0
0
28.26986
28.55402
28.99085
29.60049
30.405
0
0
0
0
0
0
0
0
0
0
27.34128
27.61581
28.03496
28.61747
29.3837
0
0
0
0
0
0
0
0
0
0
53.68675
54.56006
55.9903
58.13194
61.19618
0
0
0
51.33806
52.10285
53.36005
55.22905
57.87211
0
0
0
0
49.31473
50.00265
51.13413
52.81
55.15678
0
0
0
0
0
47.52037
48.15065
49.1872
50.7158
52.84366
0
0
0
0
0
0
45.8556
46.44022
47.39967
48.80973
50.76145
0
0
0
0
0
0
0
44.21601
44.76043
45.65185
46.95696
48.75548
0
0
0
0
0
0
0
0
42.54761
43.05394
43.88074
45.08712
46.74216
0
0
0
0
0
0
0
0
0
40.90319
41.37476
42.1425
43.25876
44.78415
0
0
0
0
0
0
0
0
0
0
39.33504
39.77618
40.49175
41.5285
42.93984
0
0
0
0
0
0
0
0
0
0
0
37.86611
38.28101
38.95119
39.91858
41.2308
0
0
0
0
0
0
0
0
0
0
0
0
36.49899
36.89137
37.52205
38.42903
39.65497
0
0
0
0
0
0
0
0
0
0
0
0
0
35.22415
35.59699
36.19314
37.04706
38.19739
0
0
0
0
0
0
0
0
0
0
0
0
0
0
34.02299
34.37867
34.94409
35.7508
36.83385
0
0
0
0
0
0
0
0
0
0
0
0
0
0
0
32.86789
33.20805
33.74549
34.50911
35.53092
0
0
0
0
0
0
0
0
0
0
0
0
0
0
0
0
31.72382
32.04937
32.56035
33.28325
34.24728
0
0
0
0
0
0
0
0
0
0
0
0
0
0
0
0
0
30.56964
30.88084
31.36609
32.04948
32.95763
0
0
0
0
0
0
0
0
0
0
29.43916
29.73698
30.19805
30.84455
31.70065
0
0
0
0
0
0
0
0
0
0
28.37348
28.65929
29.09873
29.7121
30.52166
0
0
0
0
0
0
0
0
0
0
27.3937
27.66906
28.08949
28.67383
29.44252
0
0
0
0
0
0
0
0
0
0
26.50607
26.77208
27.17601
27.73505
28.46822
0
0
0
0
0
0
0
0
0
0
51.1775
51.93391
53.17873
55.02971
57.64625
0
0
0
0
49.03786
49.7127
50.82499
52.47319
54.7803
0
0
0
0
0
47.18132
47.79665
48.8113
50.30863
52.39222
0
0
0
0
0
0
45.52478
46.09517
47.03386
48.41441
50.32481
0
0
0
0
0
0
0
43.9802
44.51416
45.39043
46.67414
48.44289
0
0
0
0
0
0
0
0
42.45292
42.9543
43.77416
44.97095
46.61284
0
0
0
0
0
0
0
0
0
40.89441
41.36429
42.12985
43.24323
44.76476
0
0
0
0
0
0
0
0
0
0
39.35417
39.79493
40.51013
41.54649
42.95737
0
0
0
0
0
0
0
0
0
0
0
37.88163
38.29652
38.96677
39.93432
41.24679
0
0
0
0
0
0
0
0
0
0
0
0
36.49899
36.89137
37.52205
38.42903
39.65497
0
0
0
0
0
0
0
0
0
0
0
0
0
35.20949
35.58228
36.17828
37.03195
38.18194
0
0
0
0
0
0
0
0
0
0
0
0
0
0
34.00471
34.36038
34.92572
35.73227
36.81508
0
0
0
0
0
0
0
0
0
0
0
0
0
0
0
32.86754
33.20803
33.74592
34.51016
35.53282
0
0
0
0
0
0
0
0
0
0
0
0
0
0
0
0
31.77208
32.09875
32.61146
33.33686
34.30432
0
0
0
0
0
0
0
0
0
0
0
0
0
0
0
0
0
30.68543
30.9988
31.48755
32.17601
33.0911
0
0
0
0
0
0
0
0
0
0
0
0
0
0
0
0
0
0
29.58727
29.88764
30.35277
31.00517
31.86929
0
0
0
0
0
0
0
0
0
0
28.50988
28.79785
29.24077
29.85915
30.67552
0
0
0
0
0
0
0
0
0
0
27.49251
27.76936
28.19217
28.77994
29.55326
0
0
0
0
0
0
0
0
0
0
26.55612
26.82288
27.22799
27.78871
28.52415
0
0
0
0
0
0
0
0
0
0
25.70673
25.96476
26.35409
26.89117
27.59348
0
0
0
0
0
0
0
0
0
0
48.89193
49.56004
50.66249
52.29652
54.58339
0
0
0
0
0
46.92837
47.53306
48.53211
50.0072
52.0594
0
0
0
0
0
0
45.21399
45.77207
46.69273
48.04766
49.92234
0
0
0
0
0
0
0
43.67662
44.1988
45.05781
46.31714
48.05205
0
0
0
0
0
0
0
0
42.23696
42.7297
43.53698
44.71603
46.33348
0
0
0
0
0
0
0
0
0
40.80872
41.27456
42.03442
43.13994
44.65076
0
0
0
0
0
0
0
0
0
0
39.34777
39.78721
40.50071
41.53482
42.94272
0
0
0
0
0
0
0
0
0
0
0
37.90069
38.31532
38.98537
39.95273
41.265
0
0
0
0
0
0
0
0
0
0
0
0
36.51409
36.90649
37.53729
38.44447
39.67073
0
0
0
0
0
0
0
0
0
0
0
0
0
35.20949
35.58228
36.17828
37.03195
38.18194
0
0
0
0
0
0
0
0
0
0
0
0
0
0
33.99049
34.34608
34.91125
35.71754
36.79998
0
0
0
0
0
0
0
0
0
0
0
0
0
0
0
32.84962
33.19005
33.7278
34.49182
35.51416
0
0
0
0
0
0
0
0
0
0
0
0
0
0
0
0
31.77103
32.09792
32.61096
33.33682
34.30492
0
0
0
0
0
0
0
0
0
0
0
0
0
0
0
0
0
30.73055
31.04484
31.53508
32.2257
33.14378
0
0
0
0
0
0
0
0
0
0
0
0
0
0
0
0
0
0
29.69679
29.99908
30.46732
31.12425
31.99462
0
0
0
0
0
0
0
0
0
0
0
0
0
0
0
0
0
0
0
28.6506
28.94085
29.38746
30.01117
30.83484
0
0
0
0
0
0
0
0
0
0
27.62248
27.90131
28.32728
28.91963
29.69917
0
0
0
0
0
0
0
0
0
0
26.65049
26.9186
27.32589
27.88975
28.62945
0
0
0
0
0
0
0
0
0
0
25.75458
26.0133
26.40371
26.94235
27.64674
0
0
0
0
0
0
0
0
0
0
24.94169
25.1915
25.56714
26.08334
26.75678
0
0
0
0
0
0
0
0
0
0
46.79487
47.39407
48.38508
49.84874
51.88483
0
0
0
0
0
0
44.9816
45.53088
46.43862
47.77522
49.62439
0
0
0
0
0
0
0
43.39029
43.9022
44.7461
45.98407
47.68942
0
0
0
0
0
0
0
0
41.95704
42.4399
43.23265
44.3912
45.98041
0
0
0
0
0
0
0
0
0
40.61
41.06861
41.81789
42.90851
44.39889
0
0
0
0
0
0
0
0
0
0
39.26982
39.70594
40.41471
41.4423
42.84134
0
0
0
0
0
0
0
0
0
0
0
37.89623
38.30984
38.97855
39.94416
41.2541
0
0
0
0
0
0
0
0
0
0
0
0
36.53296
36.92522
37.55593
38.46308
39.68931
0
0
0
0
0
0
0
0
0
0
0
0
0
35.22415
35.59699
36.19314
37.04706
38.19739
0
0
0
0
0
0
0
0
0
0
0
0
0
0
33.99049
34.34608
34.91125
35.71754
36.79998
0
0
0
0
0
0
0
0
0
0
0
0
0
0
0
32.83585
33.17617
33.71373
34.47747
35.49943
0
0
0
0
0
0
0
0
0
0
0
0
0
0
0
0
31.75352
32.0803
32.59315
33.31873
34.28647
0
0
0
0
0
0
0
0
0
0
0
0
0
0
0
0
0
30.72894
31.04337
31.53382
32.22477
33.14333
0
0
0
0
0
0
0
0
0
0
0
0
0
0
0
0
0
0
29.73909
30.04215
30.51166
31.17048
32.04345
0
0
0
0
0
0
0
0
0
0
0
0
0
0
0
0
0
0
0
28.75443
29.04634
29.49574
30.12353
30.95283
0
0
0
0
0
0
0
0
0
0
0
0
0
0
0
0
0
0
0
0
27.75642
28.03729
28.4666
29.06382
29.85001
0
0
0
0
0
0
0
0
0
0
26.77454
27.04443
27.45462
28.02267
28.76808
0
0
0
0
0
0
0
0
0
0
25.84481
26.10478
26.49719
27.03872
27.74703
0
0
0
0
0
0
0
0
0
0
24.98749
25.23792
25.61458
26.13221
26.80758
0
0
0
0
0
0
0
0
0
0
24.20873
24.45083
24.81294
25.30956
25.95566
0
0
0
0
0
0
0
0
0
0
44.85881
45.40353
46.30459
47.63173
49.46776
0
0
0
0
0
0
0
43.17577
43.68028
44.51331
45.73591
47.42004
0
0
0
0
0
0
0
0
41.6921
42.16627
42.9462
44.08663
45.65097
0
0
0
0
0
0
0
0
0
40.35082
40.80105
41.53795
42.61109
44.07753
0
0
0
0
0
0
0
0
0
0
39.08617
39.5162
40.21598
41.23089
42.61262
0
0
0
0
0
0
0
0
0
0
37.82499
38.23583
38.9006
39.86074
41.16327
0
0
0
0
0
0
0
0
0
0
0
0
36.53009
36.92155
37.55123
38.457
39.68143
0
0
0
0
0
0
0
0
0
0
0
0
0
35.24276
35.61554
36.2117
37.06569
38.21615
0
0
0
0
0
0
0
0
0
0
0
0
0
0
34.00471
34.36038
34.92572
35.73227
36.81508
0
0
0
0
0
0
0
0
0
0
0
0
0
0
0
32.83585
33.17617
33.71373
34.47747
35.49943
0
0
0
0
0
0
0
0
0
0
0
0
0
0
0
0
31.74017
32.06684
32.57949
33.30478
34.27213
0
0
0
0
0
0
0
0
0
0
0
0
0
0
0
0
0
30.71185
31.02613
31.51636
32.207
33.12515
0
0
0
0
0
0
0
0
0
0
0
0
0
0
0
0
0
0
29.73703
30.04016
30.50979
31.16884
32.04215
0
0
0
0
0
0
0
0
0
0
0
0
0
0
0
0
0
0
0
28.79421
29.08675
29.53724
30.16668
30.99827
0
0
0
0
0
0
0
0
0
0
0
0
0
0
0
0
0
0
0
0
27.85504
28.13738
28.56917
29.17008
29.96136
0
0
0
0
0
0
0
0
0
0
0
0
0
0
0
0
0
0
0
0
26.90225
27.17396
27.58719
28.15967
28.91118
0
0
0
0
0
0
0
0
0
0
25.96337
26.22497
26.62002
27.16541
27.87897
0
0
0
0
0
0
0
0
0
0
25.07389
25.32546
25.70396
26.22426
26.90326
0
0
0
0
0
0
0
0
0
0
24.25262
24.4953
24.85833
25.35629
26.00418
0
0
0
0
0
0
0
0
0
0
23.50725
23.74071
24.09011
24.56768
25.18815
0
0
0
0
0
0
0
0
0
0
43.0623
43.56298
44.39037
45.605
47.27816
0
0
0
0
0
0
0
0
41.49323
41.96113
42.73178
43.85913
45.40552
0
0
0
0
0
0
0
0
0
40.10471
40.54753
41.27342
42.33102
43.7762
0
0
0
0
0
0
0
0
0
0
38.84529
39.26816
39.95727
40.95713
42.31829
0
0
0
0
0
0
0
0
0
0
37.65462
38.06029
38.71735
39.6666
40.95428
0
0
0
0
0
0
0
0
0
0
36.46469
36.85386
37.48021
38.38137
39.59952
0
0
0
0
0
0
0
0
0
0
0
0
0
35.24118
35.61336
36.20872
37.06164
38.21069
0
0
0
0
0
0
0
0
0
0
0
0
0
0
34.02299
34.37867
34.94409
35.7508
36.83385
0
0
0
0
0
0
0
0
0
0
0
0
0
0
0
32.84962
33.19005
33.7278
34.49182
35.51416
0
0
0
0
0
0
0
0
0
0
0
0
0
0
0
0
31.74017
32.06684
32.57949
33.30478
34.27213
0
0
0
0
0
0
0
0
0
0
0
0
0
0
0
0
0
30.69894
31.01309
31.50311
32.19345
33.11121
0
0
0
0
0
0
0
0
0
0
0
0
0
0
0
0
0
0
29.72037
30.02334
30.49272
31.15142
32.0243
0
0
0
0
0
0
0
0
0
0
0
0
0
0
0
0
0
0
0
28.79181
29.08435
29.5349
30.16446
30.99628
0
0
0
0
0
0
0
0
0
0
0
0
0
0
0
0
0
0
0
0
27.89256
28.17542
28.60813
29.21048
30.00377
0
0
0
0
0
0
0
0
0
0
0
0
0
0
0
0
0
0
0
0
26.99611
27.26911
27.68456
28.26037
29.01651
0
0
0
0
0
0
0
0
0
0
0
0
0
0
0
0
0
0
0
0
26.0853
26.34856
26.74637
27.29583
28.01496
0
0
0
0
0
0
0
0
0
0
25.18738
25.44041
25.82137
26.3452
27.02905
0
0
0
0
0
0
0
0
0
0
24.33544
24.57918
24.94391
25.44435
26.09558
0
0
0
0
0
0
0
0
0
0
23.54936
23.78335
24.13361
24.61242
25.23456
0
0
0
0
0
0
0
0
0
0
22.83528
23.06059
23.39669
23.85639
24.45215
0
0
0
0
0
0
0
0
0
0
41.38796
41.85259
42.61841
43.73896
45.27604
0
0
0
0
0
0
0
0
0
39.91967
40.35711
41.075
42.12133
43.5511
0
0
0
0
0
0
0
0
0
0
38.61589
39.03237
39.71193
40.69832
42.0411
0
0
0
0
0
0
0
0
0
0
37.43001
37.8295
38.4773
39.41345
40.68328
0
0
0
0
0
0
0
0
0
0
36.30609
36.69084
37.31052
38.20224
39.40754
0
0
0
0
0
0
0
0
0
0
35.1809
35.55117
36.14372
36.9927
38.13641
0
0
0
0
0
0
0
0
0
0
0
0
0
0
34.02248
34.37771
34.94252
35.74841
36.83035
0
0
0
0
0
0
0
0
0
0
0
0
0
0
0
32.86754
33.20803
33.74592
34.51016
35.53282
0
0
0
0
0
0
0
0
0
0
0
0
0
0
0
0
31.75352
32.0803
32.59315
33.31873
34.28647
0
0
0
0
0
0
0
0
0
0
0
0
0
0
0
0
0
30.69894
31.01309
31.50311
32.19345
33.11121
0
0
0
0
0
0
0
0
0
0
0
0
0
0
0
0
0
0
29.70787
30.0107
30.47987
31.13827
32.01075
0
0
0
0
0
0
0
0
0
0
0
0
0
0
0
0
0
0
0
28.77561
29.06795
29.51823
30.14743
30.97879
0
0
0
0
0
0
0
0
0
0
0
0
0
0
0
0
0
0
0
0
27.88988
28.1727
28.6054
29.20781
30.00124
0
0
0
0
0
0
0
0
0
0
0
0
0
0
0
0
0
0
0
0
27.03159
27.305
27.72126
28.29831
29.05623
0
0
0
0
0
0
0
0
0
0
0
0
0
0
0
0
0
0
0
0
26.17476
26.43919
26.83899
27.39147
28.1148
0
0
0
0
0
0
0
0
0
0
0
0
0
0
0
0
0
0
0
0
25.30398
25.55849
25.94199
26.46954
27.15852
0
0
0
0
0
0
0
0
0
0
24.44419
24.6893
25.05625
25.55998
26.21568
0
0
0
0
0
0
0
0
0
0
23.62889
23.86381
24.21566
24.69675
25.32201
0
0
0
0
0
0
0
0
0
0
22.87571
23.10154
23.43843
23.89928
24.49658
0
0
0
0
0
0
0
0
0
0
22.19423
22.40864
22.73223
23.17379
23.74636
0
0
0
0
0
0
0
0
0
0
39.82166
40.25627
40.97
42.01044
43.43221
0
0
0
0
0
0
0
0
0
0
38.44316
38.85498
39.52758
40.50415
41.83356
0
0
0
0
0
0
0
0
0
0
37.21552
37.60946
38.24891
39.17327
40.42705
0
0
0
0
0
0
0
0
0
0
36.096
36.47539
37.08697
37.96721
39.15687
0
0
0
0
0
0
0
0
0
0
35.03279
35.39925
35.986
36.82675
37.95923
0
0
0
0
0
0
0
0
0
0
33.9667
34.32033
34.88276
35.68528
36.76264
0
0
0
0
0
0
0
0
0
0
0
0
0
0
0
32.86789
33.20805
33.74549
34.50911
35.53092
0
0
0
0
0
0
0
0
0
0
0
0
0
0
0
0
31.77103
32.09792
32.61096
33.33682
34.30492
0
0
0
0
0
0
0
0
0
0
0
0
0
0
0
0
0
30.71185
31.02613
31.51636
32.207
33.12515
0
0
0
0
0
0
0
0
0
0
0
0
0
0
0
0
0
0
29.70787
30.0107
30.47987
31.13827
32.01075
0
0
0
0
0
0
0
0
0
0
0
0
0
0
0
0
0
0
0
28.76352
29.05572
29.50578
30.13468
30.96565
0
0
0
0
0
0
0
0
0
0
0
0
0
0
0
0
0
0
0
0
27.87414
28.15675
28.58916
29.19119
29.98414
0
0
0
0
0
0
0
0
0
0
0
0
0
0
0
0
0
0
0
0
27.02873
27.30204
27.71825
28.29529
29.05327
0
0
0
0
0
0
0
0
0
0
0
0
0
0
0
0
0
0
0
0
26.20838
26.47317
26.87365
27.42722
28.15212
0
0
0
0
0
0
0
0
0
0
0
0
0
0
0
0
0
0
0
0
25.38942
25.64494
26.03026
26.56056
27.25337
0
0
0
0
0
0
0
0
0
0
0
0
0
0
0
0
0
0
0
0
24.5558
24.8023
25.17156
25.67874
26.33915
0
0
0
0
0
0
0
0
0
0
23.73326
23.96938
24.32333
24.80744
25.43685
0
0
0
0
0
0
0
0
0
0
22.95211
23.17884
23.51717
23.98016
24.58035
0
0
0
0
0
0
0
0
0
0
22.23313
22.44798
22.77232
23.21495
23.78897
0
0
0
0
0
0
0
0
0
0
21.58238
21.78629
22.09494
22.51946
23.06893
0
0
0
0
0
0
0
0
0
0
38.3516
38.76097
39.42994
40.40138
41.72382
0
0
0
0
0
0
0
0
0
0
37.0538
37.44367
38.07702
38.99275
40.23482
0
0
0
0
0
0
0
0
0
0
35.89489
36.26943
36.87365
37.74349
38.91902
0
0
0
0
0
0
0
0
0
0
34.83573
35.19752
35.77714
36.60774
37.72643
0
0
0
0
0
0
0
0
0
0
33.82797
34.17831
34.73568
35.53096
36.59844
0
0
0
0
0
0
0
0
0
0
32.81609
33.15493
33.69033
34.45106
35.46891
0
0
0
0
0
0
0
0
0
0
0
0
0
0
0
0
31.77208
32.09875
32.61146
33.33686
34.30432
0
0
0
0
0
0
0
0
0
0
0
0
0
0
0
0
0
30.72894
31.04337
31.53382
32.22477
33.14333
0
0
0
0
0
0
0
0
0
0
0
0
0
0
0
0
0
0
29.72037
30.02334
30.49272
31.15142
32.0243
0
0
0
0
0
0
0
0
0
0
0
0
0
0
0
0
0
0
0
28.76352
29.05572
29.50578
30.13468
30.96565
0
0
0
0
0
0
0
0
0
0
0
0
0
0
0
0
0
0
0
0
27.86245
28.14491
28.5771
29.17884
29.9714
0
0
0
0
0
0
0
0
0
0
0
0
0
0
0
0
0
0
0
0
27.01344
27.28653
27.70244
28.27908
29.03658
0
0
0
0
0
0
0
0
0
0
0
0
0
0
0
0
0
0
0
0
26.20535
26.47004
26.87042
27.42394
28.14882
0
0
0
0
0
0
0
0
0
0
0
0
0
0
0
0
0
0
0
0
25.42138
25.67716
26.06309
26.59433
27.28854
0
0
0
0
0
0
0
0
0
0
0
0
0
0
0
0
0
0
0
0
24.63749
24.88492
25.25582
25.76551
26.42942
0
0
0
0
0
0
0
0
0
0
0
0
0
0
0
0
0
0
0
0
23.84032
24.07764
24.43374
24.921
25.5548
0
0
0
0
0
0
0
0
0
0
23.05233
23.28024
23.62045
24.08628
24.6903
0
0
0
0
0
0
0
0
0
0
22.30668
22.52228
22.84801
23.2926
23.86932
0
0
0
0
0
0
0
0
0
0
21.61979
21.82415
22.13348
22.55901
23.10982
0
0
0
0
0
0
0
0
0
0
21.00534
21.19189
21.48629
21.89168
22.41944
0
0
0
0
0
0
0
0
0
0
36.96803
37.35576
37.98591
38.89713
40.13307
0
0
0
0
0
0
0
0
0
0
35.74306
36.11403
36.71286
37.57507
38.74025
0
0
0
0
0
0
0
0
0
0
34.64668
35.0042
35.5773
36.39867
37.50482
0
0
0
0
0
0
0
0
0
0
33.64268
33.98891
34.53996
35.32623
36.38146
0
0
0
0
0
0
0
0
0
0
32.68579
33.02177
33.55273
34.30705
35.31616
0
0
0
0
0
0
0
0
0
0
31.72382
32.04937
32.56035
33.28325
34.24728
0
0
0
0
0
0
0
0
0
0
0
0
0
0
0
0
0
30.73055
31.04484
31.53508
32.2257
33.14378
0
0
0
0
0
0
0
0
0
0
0
0
0
0
0
0
0
0
29.73703
30.04016
30.50979
31.16884
32.04215
0
0
0
0
0
0
0
0
0
0
0
0
0
0
0
0
0
0
0
28.77561
29.06795
29.51823
30.14743