/*--------------------------------*- C++ -*----------------------------------*\
| =========                 |                                                 |
| \\      /  F ield         | OpenFOAM: The Open Source CFD Toolbox           |
|  \\    /   O peration     | Version:  2306                                  |
|   \\  /    A nd           | Website:  www.openfoam.com                      |
|    \\/     M anipulation  |                                                 |
\*---------------------------------------------------------------------------*/
FoamFile
{
    version     2.0;
    format      ascii;
    arch        "LSB;label=32;scalar=64";
    class       volScalarField;
    location    "1.5/fuel";
    object      j;
}
// * * * * * * * * * * * * * * * * * * * * * * * * * * * * * * * * * * * * * //

dimensions      [0 -3 0 0 0 1 0];

internalField   nonuniform List<scalar> 
16000
(
9.195119e+08
9.277632e+08
8.405562e+08
8.787719e+08
9.444326e+08
8.45871e+08
8.864353e+08
7.739544e+08
8.053449e+08
8.500328e+08
9.695362e+08
8.563301e+08
9.01907e+08
7.779928e+08
8.103052e+08
8.57305e+08
7.206066e+08
7.431913e+08
7.803005e+08
8.324038e+08
1.002149e+09
8.713574e+08
9.251838e+08
7.858445e+08
8.20062e+08
8.719839e+08
7.239002e+08
7.469757e+08
7.850192e+08
8.394595e+08
6.76309e+08
6.932587e+08
7.211791e+08
7.647229e+08
8.249147e+08
1.037306e+09
8.89512e+08
9.553877e+08
7.968803e+08
8.340701e+08
8.940641e+08
7.302569e+08
7.543305e+08
7.942987e+08
8.537054e+08
6.790994e+08
6.963554e+08
7.247878e+08
7.693008e+08
8.319061e+08
6.382487e+08
6.516911e+08
6.736076e+08
7.073557e+08
7.578496e+08
0
1.063884e+09
9.07184e+08
9.879054e+08
8.09734e+08
8.509788e+08
9.227181e+08
7.390721e+08
7.646615e+08
8.07618e+08
8.751481e+08
6.844577e+08
7.023296e+08
7.317995e+08
7.783043e+08
8.460324e+08
6.406686e+08
6.54322e+08
6.765668e+08
7.108591e+08
7.623753e+08
0
6.048546e+08
6.158944e+08
6.33946e+08
6.611887e+08
7.011139e+08
0
0
1.080695e+09
9.191216e+08
1.012399e+09
8.215363e+08
8.674212e+08
9.535783e+08
7.491033e+08
7.766843e+08
8.236927e+08
9.030137e+08
6.918211e+08
7.106094e+08
7.416454e+08
7.912305e+08
8.673251e+08
6.452986e+08
6.593721e+08
6.822743e+08
7.176661e+08
7.71279e+08
0
6.069894e+08
6.181816e+08
6.364647e+08
6.640641e+08
7.045741e+08
0
0
5.750663e+08
5.844207e+08
5.997408e+08
6.22681e+08
6.555037e+08
0
0
0
1.090237e+09
9.257883e+08
1.027843e+09
8.288366e+08
8.784972e+08
9.767634e+08
7.579612e+08
7.877122e+08
8.393221e+08
9.330878e+08
7.000653e+08
7.200234e+08
7.530998e+08
8.068396e+08
8.950674e+08
6.516188e+08
6.663076e+08
6.901816e+08
7.272249e+08
7.840702e+08
0
6.110625e+08
6.22556e+08
6.412983e+08
6.696095e+08
7.112984e+08
0
0
5.76973e+08
5.864428e+08
6.019342e+08
6.251307e+08
6.583431e+08
0
0
0
5.481884e+08
5.562907e+08
5.696246e+08
5.894514e+08
6.174785e+08
0
0
0
0
1.094519e+09
9.291751e+08
1.036588e+09
8.32375e+08
8.846678e+08
9.913549e+08
7.630927e+08
7.945146e+08
8.498233e+08
9.556504e+08
7.071434e+08
7.283263e+08
7.63601e+08
8.220286e+08
9.251187e+08
6.586098e+08
6.740659e+08
6.991678e+08
7.383474e+08
7.99536e+08
0
6.16594e+08
6.285234e+08
6.47934e+08
6.772919e+08
7.207443e+08
0
0
5.806028e+08
5.902994e+08
6.061281e+08
6.298313e+08
6.638196e+08
0
0
0
5.499082e+08
5.581003e+08
5.715668e+08
5.915866e+08
6.198978e+08
0
0
0
0
5.237065e+08
5.30863e+08
5.426719e+08
5.601748e+08
5.846706e+08
0
0
0
0
0
1.094519e+09
9.305812e+08
1.040508e+09
8.338571e+08
8.877975e+08
9.996092e+08
7.652726e+08
7.978022e+08
8.556637e+08
9.698422e+08
7.110437e+08
7.331217e+08
7.700595e+08
8.322111e+08
9.476588e+08
6.644844e+08
6.807176e+08
7.070867e+08
7.485454e+08
8.146099e+08
0
6.226551e+08
6.351182e+08
6.553526e+08
6.86022e+08
7.317429e+08
0
0
5.855118e+08
5.955336e+08
6.118471e+08
6.362837e+08
6.714079e+08
0
0
0
5.53176e+08
5.61544e+08
5.7527e+08
5.956689e+08
6.245404e+08
0
0
0
0
5.252697e+08
5.324981e+08
5.444125e+08
5.620672e+08
5.867799e+08
0
0
0
0
0
5.012438e+08
5.076622e+08
5.182774e+08
5.339553e+08
5.557649e+08
0
0
0
0
0
0
1.090237e+09
9.305812e+08
1.040508e+09
8.343611e+08
8.890956e+08
1.003307e+09
7.659746e+08
7.99175e+08
8.586241e+08
9.778723e+08
7.125124e+08
7.351504e+08
7.731724e+08
8.37869e+08
9.618476e+08
6.675942e+08
6.843706e+08
7.116445e+08
7.547982e+08
8.246964e+08
0
6.276623e+08
6.406512e+08
6.61706e+08
6.937122e+08
7.418335e+08
0
0
5.908497e+08
6.012635e+08
6.181632e+08
6.434959e+08
6.800342e+08
0
0
0
5.575804e+08
5.661984e+08
5.802939e+08
6.012347e+08
6.309135e+08
0
0
0
0
5.282353e+08
5.35604e+08
5.477239e+08
5.65675e+08
5.908126e+08
0
0
0
0
0
5.026738e+08
5.09151e+08
5.198523e+08
5.356528e+08
5.576349e+08
0
0
0
0
0
0
4.805057e+08
4.863404e+08
4.959922e+08
5.102078e+08
5.298745e+08
0
0
0
0
0
0
0
1.080695e+09
9.291751e+08
1.036588e+09
8.343611e+08
8.890956e+08
1.003307e+09
7.66122e+08
7.996403e+08
8.59852e+08
9.814716e+08
7.128372e+08
7.357986e+08
7.744694e+08
8.407385e+08
9.698883e+08
6.686401e+08
6.85738e+08
7.135643e+08
7.578052e+08
8.303e+08
0
6.302266e+08
6.435693e+08
6.651815e+08
6.981216e+08
7.480013e+08
0
0
5.951976e+08
6.059889e+08
6.234554e+08
6.496679e+08
6.876325e+08
0
0
0
5.623386e+08
5.712544e+08
5.857898e+08
6.073799e+08
6.380384e+08
0
0
0
0
5.322207e+08
5.397875e+08
5.521977e+08
5.705686e+08
5.96311e+08
0
0
0
0
0
5.053833e+08
5.119744e+08
5.228428e+08
5.388815e+08
5.611999e+08
0
0
0
0
0
0
4.81821e+08
4.877045e+08
4.974278e+08
5.117449e+08
5.315523e+08
0
0
0
0
0
0
0
4.612624e+08
4.666254e+08
4.75488e+08
4.884985e+08
5.064205e+08
0
0
0
0
0
0
0
0
1.063884e+09
9.257883e+08
1.027843e+09
8.338571e+08
8.877975e+08
9.996092e+08
7.66122e+08
7.996403e+08
8.59852e+08
9.814716e+08
7.128221e+08
7.359322e+08
7.749082e+08
8.419302e+08
9.734973e+08
6.687602e+08
6.860343e+08
7.141731e+08
7.590566e+08
8.331469e+08
0
6.310008e+08
6.445426e+08
6.664738e+08
6.999707e+08
7.509615e+08
0
0
5.973613e+08
6.08399e+08
6.262343e+08
6.530291e+08
6.919715e+08
0
0
0
5.661681e+08
5.753651e+08
5.903155e+08
6.125236e+08
6.441327e+08
0
0
0
0
5.365023e+08
5.443025e+08
5.570538e+08
5.759199e+08
6.02382e+08
0
0
0
0
0
5.09015e+08
5.157663e+08
5.268692e+08
5.432429e+08
5.660355e+08
0
0
0
0
0
0
4.843102e+08
4.902881e+08
5.001497e+08
5.146631e+08
5.347438e+08
0
0
0
0
0
0
0
4.624777e+08
4.678819e+08
4.768049e+08
4.899007e+08
5.079403e+08
0
0
0
0
0
0
0
0
4.433276e+08
4.483045e+08
4.565077e+08
4.685104e+08
4.849748e+08
0
0
0
0
0
0
0
0
0
1.037306e+09
9.191216e+08
1.012399e+09
8.32375e+08
8.846678e+08
9.913549e+08
7.659746e+08
7.99175e+08
8.586241e+08
9.778723e+08
7.128221e+08
7.359322e+08
7.749082e+08
8.419302e+08
9.734973e+08
6.686637e+08
6.860157e+08
7.142963e+08
7.5948e+08
8.343317e+08
0
6.31002e+08
6.446472e+08
6.667478e+08
7.005532e+08
7.521935e+08
0
0
5.979484e+08
6.091187e+08
6.271526e+08
6.542705e+08
6.93783e+08
0
0
0
5.68026e+08
5.774017e+08
5.926127e+08
6.152112e+08
6.474356e+08
0
0
0
0
5.399123e+08
5.479292e+08
5.609957e+08
5.803213e+08
6.074598e+08
0
0
0
0
0
5.128977e+08
5.198357e+08
5.312114e+08
5.479751e+08
5.713232e+08
0
0
0
0
0
0
4.876392e+08
4.93749e+08
5.038038e+08
5.185915e+08
5.390548e+08
0
0
0
0
0
0
0
4.647757e+08
4.702589e+08
4.792984e+08
4.925589e+08
5.108258e+08
0
0
0
0
0
0
0
0
4.444552e+08
4.494671e+08
4.57722e+08
4.697976e+08
4.863617e+08
0
0
0
0
0
0
0
0
0
4.265502e+08
4.312056e+08
4.388506e+08
4.499954e+08
4.652246e+08
0
0
0
0
0
0
0
0
0
0
1.002149e+09
9.07184e+08
9.879054e+08
8.288366e+08
8.784972e+08
9.767634e+08
7.652726e+08
7.978022e+08
8.556637e+08
9.698422e+08
7.128372e+08
7.357986e+08
7.744694e+08
8.407385e+08
9.698883e+08
6.686637e+08
6.860157e+08
7.142963e+08
7.5948e+08
8.343317e+08
0
6.308628e+08
6.44552e+08
6.667258e+08
7.006693e+08
7.526109e+08
0
0
5.978756e+08
6.091116e+08
6.272441e+08
6.54528e+08
6.943503e+08
0
0
0
5.684781e+08
5.779465e+08
5.932904e+08
6.160908e+08
6.486466e+08
0
0
0
0
5.415288e+08
5.496804e+08
5.629386e+08
5.825435e+08
6.100986e+08
0
0
0
0
0
5.159615e+08
5.230702e+08
5.346932e+08
5.518111e+08
5.756682e+08
0
0
0
0
0
0
4.911828e+08
4.974449e+08
5.077221e+08
5.22826e+08
5.437319e+08
0
0
0
0
0
0
0
4.678426e+08
4.734359e+08
4.826373e+08
4.961266e+08
5.147101e+08
0
0
0
0
0
0
0
0
4.465854e+08
4.516645e+08
4.600187e+08
4.722345e+08
4.889909e+08
0
0
0
0
0
0
0
0
0
4.276001e+08
4.322857e+08
4.399754e+08
4.511831e+08
4.664981e+08
0
0
0
0
0
0
0
0
0
0
4.108037e+08
4.151886e+08
4.223543e+08
4.327599e+08
4.469252e+08
0
0
0
0
0
0
0
0
0
0
9.695362e+08
8.89512e+08
9.553877e+08
8.215363e+08
8.674212e+08
9.535783e+08
7.630927e+08
7.945146e+08
8.498233e+08
9.556504e+08
7.125124e+08
7.351504e+08
7.731724e+08
8.37869e+08
9.618476e+08
6.687602e+08
6.860343e+08
7.141731e+08
7.590566e+08
8.331469e+08
0
6.308628e+08
6.44552e+08
6.667258e+08
7.006693e+08
7.526109e+08
0
0
5.977132e+08
6.089761e+08
6.271489e+08
6.545028e+08
6.944619e+08
0
0
0
5.683577e+08
5.778698e+08
5.932754e+08
6.161714e+08
6.488924e+08
0
0
0
0
5.418797e+08
5.500988e+08
5.634502e+08
5.831907e+08
6.109535e+08
0
0
0
0
0
5.173831e+08
5.245957e+08
5.363652e+08
5.536912e+08
5.778492e+08
0
0
0
0
0
0
4.939559e+08
5.003553e+08
5.108309e+08
5.262167e+08
5.475193e+08
0
0
0
0
0
0
0
4.710944e+08
4.76814e+08
4.862001e+08
4.999507e+08
5.188966e+08
0
0
0
0
0
0
0
0
4.494233e+08
4.545955e+08
4.63087e+08
4.754968e+08
4.925197e+08
0
0
0
0
0
0
0
0
0
4.295821e+08
4.343253e+08
4.421007e+08
4.534292e+08
4.689093e+08
0
0
0
0
0
0
0
0
0
0
4.117844e+08
4.161955e+08
4.234002e+08
4.338607e+08
4.481007e+08
0
0
0
0
0
0
0
0
0
0
3.959835e+08
4.001367e+08
4.068865e+08
4.16647e+08
4.298859e+08
0
0
0
0
0
0
0
0
0
0
9.444326e+08
8.713574e+08
9.251838e+08
8.09734e+08
8.509788e+08
9.227181e+08
7.579612e+08
7.877122e+08
8.393221e+08
9.330878e+08
7.110437e+08
7.331217e+08
7.700595e+08
8.322111e+08
9.476588e+08
6.686401e+08
6.85738e+08
7.135643e+08
7.578052e+08
8.303e+08
0
6.31002e+08
6.446472e+08
6.667478e+08
7.005532e+08
7.521935e+08
0
0
5.977132e+08
6.089761e+08
6.271489e+08
6.545028e+08
6.944619e+08
0
0
0
5.68183e+08
5.777122e+08
5.931416e+08
6.160751e+08
6.48864e+08
0
0
0
0
5.417276e+08
5.499772e+08
5.633691e+08
5.831684e+08
6.11025e+08
0
0
0
0
0
5.176563e+08
5.249194e+08
5.367569e+08
5.541783e+08
5.784759e+08
0
0
0
0
0
0
4.95217e+08
5.016984e+08
5.122887e+08
5.278352e+08
5.493642e+08
0
0
0
0
0
0
0
4.736203e+08
4.794519e+08
4.890004e+08
5.0298e+08
5.222449e+08
0
0
0
0
0
0
0
0
4.524217e+08
4.576997e+08
4.663469e+08
4.789763e+08
4.963016e+08
0
0
0
0
0
0
0
0
0
4.322183e+08
4.37041e+08
4.449343e+08
4.564292e+08
4.72137e+08
0
0
0
0
0
0
0
0
0
0
4.136346e+08
4.180957e+08
4.253749e+08
4.359405e+08
4.503237e+08
0
0
0
0
0
0
0
0
0
0
3.969022e+08
4.010783e+08
4.078624e+08
4.176713e+08
4.309758e+08
0
0
0
0
0
0
0
0
0
0
3.819994e+08
3.859528e+08
3.923368e+08
4.015295e+08
4.139523e+08
0
0
0
0
0
0
0
0
0
0
9.277632e+08
8.563301e+08
9.01907e+08
7.968803e+08
8.340701e+08
8.940641e+08
7.491033e+08
7.766843e+08
8.236927e+08
9.030137e+08
7.071434e+08
7.283263e+08
7.63601e+08
8.220286e+08
9.251187e+08
6.675942e+08
6.843706e+08
7.116445e+08
7.547982e+08
8.246964e+08
0
6.310008e+08
6.445426e+08
6.664738e+08
6.999707e+08
7.509615e+08
0
0
5.978756e+08
6.091116e+08
6.272441e+08
6.54528e+08
6.943503e+08
0
0
0
5.68183e+08
5.777122e+08
5.931416e+08
6.160751e+08
6.48864e+08
0
0
0
0
5.415468e+08
5.498078e+08
5.632141e+08
5.830345e+08
6.109263e+08
0
0
0
0
0
5.174831e+08
5.247679e+08
5.36633e+08
5.54092e+08
5.784463e+08
0
0
0
0
0
0
4.954295e+08
5.019492e+08
5.125904e+08
5.282067e+08
5.498341e+08
0
0
0
0
0
0
0
4.747476e+08
4.806447e+08
4.902848e+08
5.043917e+08
5.238331e+08
0
0
0
0
0
0
0
0
4.547349e+08
4.601055e+08
4.688875e+08
4.817068e+08
4.99294e+08
0
0
0
0
0
0
0
0
0
4.349945e+08
4.399069e+08
4.479329e+08
4.59615e+08
4.755793e+08
0
0
0
0
0
0
0
0
0
0
4.160918e+08
4.206213e+08
4.280028e+08
4.387128e+08
4.532929e+08
0
0
0
0
0
0
0
0
0
0
3.986345e+08
4.028542e+08
4.097037e+08
4.196049e+08
4.330348e+08
0
0
0
0
0
0
0
0
0
0
3.828622e+08
3.868358e+08
3.932502e+08
4.024858e+08
4.149667e+08
0
0
0
0
0
0
0
0
0
0
3.687755e+08
3.725533e+08
3.786137e+08
3.873007e+08
3.98999e+08
0
0
0
0
0
0
0
0
0
0
9.195119e+08
8.45871e+08
8.864353e+08
7.858445e+08
8.20062e+08
8.719839e+08
7.390721e+08
7.646615e+08
8.07618e+08
8.751481e+08
7.000653e+08
7.200234e+08
7.530998e+08
8.068396e+08
8.950674e+08
6.644844e+08
6.807176e+08
7.070867e+08
7.485454e+08
8.146099e+08
0
6.302266e+08
6.435693e+08
6.651815e+08
6.981216e+08
7.480013e+08
0
0
5.979484e+08
6.091187e+08
6.271526e+08
6.542705e+08
6.93783e+08
0
0
0
5.683577e+08
5.778698e+08
5.932754e+08
6.161714e+08
6.488924e+08
0
0
0
0
5.415468e+08
5.498078e+08
5.632141e+08
5.830345e+08
6.109263e+08
0
0
0
0
0
5.172999e+08
5.245925e+08
5.364666e+08
5.539377e+08
5.783108e+08
0
0
0
0
0
0
4.952422e+08
5.017778e+08
5.12438e+08
5.280792e+08
5.49742e+08
0
0
0
0
0
0
0
4.749117e+08
4.808385e+08
4.905175e+08
5.046766e+08
5.2419e+08
0
0
0
0
0
0
0
0
4.557492e+08
4.611728e+08
4.700291e+08
4.829512e+08
5.006792e+08
0
0
0
0
0
0
0
0
0
4.371231e+08
4.421129e+08
4.502522e+08
4.620939e+08
4.782771e+08
0
0
0
0
0
0
0
0
0
0
4.18672e+08
4.232782e+08
4.307739e+08
4.416452e+08
4.564455e+08
0
0
0
0
0
0
0
0
0
0
4.00932e+08
4.052111e+08
4.1215e+08
4.221776e+08
4.357794e+08
0
0
0
0
0
0
0
0
0
0
3.844886e+08
3.885004e+08
3.949726e+08
4.042898e+08
4.168815e+08
0
0
0
0
0
0
0
0
0
0
3.695877e+08
3.733835e+08
3.79471e+08
3.881963e+08
3.999463e+08
0
0
0
0
0
0
0
0
0
0
3.562456e+08
3.598679e+08
3.65638e+08
3.738724e+08
3.84921e+08
0
0
0
0
0
0
0
0
0
0
8.405562e+08
8.787719e+08
7.779928e+08
8.103052e+08
8.57305e+08
7.302569e+08
7.543305e+08
7.942987e+08
8.537054e+08
6.918211e+08
7.106094e+08
7.416454e+08
7.912305e+08
8.673251e+08
6.586098e+08
6.740659e+08
6.991678e+08
7.383474e+08
7.99536e+08
0
6.276623e+08
6.406512e+08
6.61706e+08
6.937122e+08
7.418335e+08
0
0
5.973613e+08
6.08399e+08
6.262343e+08
6.530291e+08
6.919715e+08
0
0
0
5.684781e+08
5.779465e+08
5.932904e+08
6.160908e+08
6.486466e+08
0
0
0
0
5.417276e+08
5.499772e+08
5.633691e+08
5.831684e+08
6.11025e+08
0
0
0
0
0
5.172999e+08
5.245925e+08
5.364666e+08
5.539377e+08
5.783108e+08
0
0
0
0
0
0
4.950592e+08
5.016001e+08
5.122659e+08
5.279139e+08
5.495865e+08
0
0
0
0
0
0
0
4.747155e+08
4.806537e+08
4.90346e+08
5.045218e+08
5.240578e+08
0
0
0
0
0
0
0
0
4.558746e+08
4.613213e+08
4.702076e+08
4.831696e+08
5.009516e+08
0
0
0
0
0
0
0
0
0
4.38041e+08
4.430741e+08
4.512744e+08
4.632004e+08
4.794983e+08
0
0
0
0
0
0
0
0
0
0
4.206392e+08
4.253106e+08
4.329026e+08
4.439096e+08
4.588955e+08
0
0
0
0
0
0
0
0
0
0
0
4.03338e+08
4.076833e+08
4.147214e+08
4.248892e+08
4.386822e+08
0
0
0
0
0
0
0
0
0
0
3.866427e+08
3.907066e+08
3.972575e+08
4.066862e+08
4.194293e+08
0
0
0
0
0
0
0
0
0
0
3.711184e+08
3.749479e+08
3.810867e+08
3.898847e+08
4.017333e+08
0
0
0
0
0
0
0
0
0
0
3.570119e+08
3.606502e+08
3.664447e+08
3.747134e+08
3.858084e+08
0
0
0
0
0
0
0
0
0
0
3.443522e+08
3.478351e+08
3.533434e+08
3.611684e+08
3.716317e+08
0
0
0
0
0
0
0
0
0
0
7.739544e+08
8.053449e+08
8.500328e+08
7.239002e+08
7.469757e+08
7.850192e+08
8.394595e+08
6.844577e+08
7.023296e+08
7.317995e+08
7.783043e+08
8.460324e+08
6.516188e+08
6.663076e+08
6.901816e+08
7.272249e+08
7.840702e+08
0
6.226551e+08
6.351182e+08
6.553526e+08
6.86022e+08
7.317429e+08
0
0
5.951976e+08
6.059889e+08
6.234554e+08
6.496679e+08
6.876325e+08
0
0
0
5.68026e+08
5.774017e+08
5.926127e+08
6.152112e+08
6.474356e+08
0
0
0
0
5.418797e+08
5.500988e+08
5.634502e+08
5.831907e+08
6.109535e+08
0
0
0
0
0
5.174831e+08
5.247679e+08
5.36633e+08
5.54092e+08
5.784463e+08
0
0
0
0
0
0
4.950592e+08
5.016001e+08
5.122659e+08
5.279139e+08
5.495865e+08
0
0
0
0
0
0
0
4.745343e+08
4.804761e+08
4.901717e+08
5.04351e+08
5.238917e+08
0
0
0
0
0
0
0
0
4.55673e+08
4.61128e+08
4.700235e+08
4.829965e+08
5.007929e+08
0
0
0
0
0
0
0
0
0
4.38135e+08
4.431862e+08
4.514099e+08
4.633667e+08
4.79706e+08
0
0
0
0
0
0
0
0
0
0
4.214741e+08
4.261812e+08
4.338238e+08
4.449008e+08
4.599815e+08
0
0
0
0
0
0
0
0
0
0
0
4.051628e+08
4.095636e+08
4.166843e+08
4.269688e+08
4.409209e+08
0
0
0
0
0
0
0
0
0
0
0
0
3.888931e+08
3.930143e+08
3.996521e+08
4.092038e+08
4.221143e+08
0
0
0
0
0
0
0
0
0
0
3.731434e+08
3.770187e+08
3.832272e+08
3.921242e+08
4.041071e+08
0
0
0
0
0
0
0
0
0
0
3.584557e+08
3.62124e+08
3.679644e+08
3.762982e+08
3.874814e+08
0
0
0
0
0
0
0
0
0
0
3.450767e+08
3.48574e+08
3.541042e+08
3.619602e+08
3.724652e+08
0
0
0
0
0
0
0
0
0
0
3.330448e+08
3.364018e+08
3.41672e+08
3.491247e+08
3.590559e+08
0
0
0
0
0
0
0
0
0
0
7.206066e+08
7.431913e+08
7.803005e+08
8.324038e+08
6.790994e+08
6.963554e+08
7.247878e+08
7.693008e+08
8.319061e+08
6.452986e+08
6.593721e+08
6.822743e+08
7.176661e+08
7.71279e+08
0
6.16594e+08
6.285234e+08
6.47934e+08
6.772919e+08
7.207443e+08
0
0
5.908497e+08
6.012635e+08
6.181632e+08
6.434959e+08
6.800342e+08
0
0
0
5.661681e+08
5.753651e+08
5.903155e+08
6.125236e+08
6.441327e+08
0
0
0
0
5.415288e+08
5.496804e+08
5.629386e+08
5.825435e+08
6.100986e+08
0
0
0
0
0
5.176563e+08
5.249194e+08
5.367569e+08
5.541783e+08
5.784759e+08
0
0
0
0
0
0
4.952422e+08
5.017778e+08
5.12438e+08
5.280792e+08
5.49742e+08
0
0
0
0
0
0
0
4.745343e+08
4.804761e+08
4.901717e+08
5.04351e+08
5.238917e+08
0
0
0
0
0
0
0
0
4.554946e+08
4.60952e+08
4.698493e+08
4.828237e+08
5.006215e+08
0
0
0
0
0
0
0
0
0
4.379307e+08
4.429879e+08
4.512178e+08
4.631816e+08
4.795297e+08
0
0
0
0
0
0
0
0
0
0
4.215427e+08
4.262639e+08
4.339248e+08
4.450257e+08
4.601384e+08
0
0
0
0
0
0
0
0
0
0
0
4.059259e+08
4.103563e+08
4.175192e+08
4.278623e+08
4.418938e+08
0
0
0
0
0
0
0
0
0
0
0
0
3.905919e+08
3.947605e+08
4.014697e+08
4.111225e+08
4.241708e+08
0
0
0
0
0
0
0
0
0
0
0
0
0
3.752541e+08
3.791795e+08
3.854645e+08
3.944701e+08
4.066007e+08
0
0
0
0
0
0
0
0
0
0
3.603639e+08
3.640727e+08
3.699752e+08
3.783973e+08
3.897004e+08
0
0
0
0
0
0
0
0
0
0
3.464415e+08
3.499656e+08
3.55537e+08
3.634515e+08
3.740359e+08
0
0
0
0
0
0
0
0
0
0
3.33731e+08
3.371009e+08
3.42391e+08
3.498717e+08
3.598407e+08
0
0
0
0
0
0
0
0
0
0
3.222799e+08
3.255208e+08
3.305732e+08
3.376853e+08
3.471308e+08
0
0
0
0
0
0
0
0
0
0
6.76309e+08
6.932587e+08
7.211791e+08
7.647229e+08
8.249147e+08
6.406686e+08
6.54322e+08
6.765668e+08
7.108591e+08
7.623753e+08
0
6.110625e+08
6.22556e+08
6.412983e+08
6.696095e+08
7.112984e+08
0
0
5.855118e+08
5.955336e+08
6.118471e+08
6.362837e+08
6.714079e+08
0
0
0
5.623386e+08
5.712544e+08
5.857898e+08
6.073799e+08
6.380384e+08
0
0
0
0
5.399123e+08
5.479292e+08
5.609957e+08
5.803213e+08
6.074598e+08
0
0
0
0
0
5.173831e+08
5.245957e+08
5.363652e+08
5.536912e+08
5.778492e+08
0
0
0
0
0
0
4.954295e+08
5.019492e+08
5.125904e+08
5.282067e+08
5.498341e+08
0
0
0
0
0
0
0
4.747155e+08
4.806537e+08
4.90346e+08
5.045218e+08
5.240578e+08
0
0
0
0
0
0
0
0
4.554946e+08
4.60952e+08
4.698493e+08
4.828237e+08
5.006215e+08
0
0
0
0
0
0
0
0
0
4.37756e+08
4.428146e+08
4.510451e+08
4.630088e+08
4.793564e+08
0
0
0
0
0
0
0
0
0
0
4.213377e+08
4.26063e+08
4.337279e+08
4.44833e+08
4.599506e+08
0
0
0
0
0
0
0
0
0
0
0
4.059737e+08
4.10415e+08
4.175922e+08
4.279542e+08
4.420105e+08
0
0
0
0
0
0
0
0
0
0
0
0
3.912925e+08
3.954856e+08
4.022304e+08
4.119327e+08
4.250481e+08
0
0
0
0
0
0
0
0
0
0
0
0
0
3.768406e+08
3.808068e+08
3.871538e+08
3.962478e+08
4.084986e+08
0
0
0
0
0
0
0
0
0
0
0
0
0
0
3.623487e+08
3.661014e+08
3.720716e+08
3.805903e+08
3.920246e+08
0
0
0
0
0
0
0
0
0
0
3.482435e+08
3.518036e+08
3.574306e+08
3.654244e+08
3.761163e+08
0
0
0
0
0
0
0
0
0
0
3.350236e+08
3.384176e+08
3.437448e+08
3.512785e+08
3.613192e+08
0
0
0
0
0
0
0
0
0
0
3.22931e+08
3.261836e+08
3.31254e+08
3.383917e+08
3.478715e+08
0
0
0
0
0
0
0
0
0
0
3.120178e+08
3.151519e+08
3.200026e+08
3.268017e+08
3.358013e+08
0
0
0
0
0
0
0
0
0
0
6.382487e+08
6.516911e+08
6.736076e+08
7.073557e+08
7.578496e+08
0
6.069894e+08
6.181816e+08
6.364647e+08
6.640641e+08
7.045741e+08
0
0
5.806028e+08
5.902994e+08
6.061281e+08
6.298313e+08
6.638196e+08
0
0
0
5.575804e+08
5.661984e+08
5.802939e+08
6.012347e+08
6.309135e+08
0
0
0
0
5.365023e+08
5.443025e+08
5.570538e+08
5.759199e+08
6.02382e+08
0
0
0
0
0
5.159615e+08
5.230702e+08
5.346932e+08
5.518111e+08
5.756682e+08
0
0
0
0
0
0
4.95217e+08
5.016984e+08
5.122887e+08
5.278352e+08
5.493642e+08
0
0
0
0
0
0
0
4.749117e+08
4.808385e+08
4.905175e+08
5.046766e+08
5.2419e+08
0
0
0
0
0
0
0
0
4.55673e+08
4.61128e+08
4.700235e+08
4.829965e+08
5.007929e+08
0
0
0
0
0
0
0
0
0
4.37756e+08
4.428146e+08
4.510451e+08
4.630088e+08
4.793564e+08
0
0
0
0
0
0
0
0
0
0
4.211671e+08
4.258931e+08
4.335578e+08
4.446618e+08
4.597776e+08
0
0
0
0
0
0
0
0
0
0
0
4.057696e+08
4.102136e+08
4.173931e+08
4.27757e+08
4.418155e+08
0
0
0
0
0
0
0
0
0
0
0
0
3.913232e+08
3.955249e+08
4.022808e+08
4.119977e+08
4.251326e+08
0
0
0
0
0
0
0
0
0
0
0
0
0
3.774864e+08
3.81473e+08
3.878501e+08
3.969862e+08
4.092942e+08
0
0
0
0
0
0
0
0
0
0
0
0
0
0
3.638347e+08
3.676227e+08
3.736471e+08
3.822434e+08
3.937835e+08
0
0
0
0
0
0
0
0
0
0
0
0
0
0
0
3.501143e+08
3.537131e+08
3.594005e+08
3.674804e+08
3.782895e+08
0
0
0
0
0
0
0
0
0
0
3.367288e+08
3.401549e+08
3.455322e+08
3.531373e+08
3.63275e+08
0
0
0
0
0
0
0
0
0
0
3.241576e+08
3.274317e+08
3.325358e+08
3.397216e+08
3.492664e+08
0
0
0
0
0
0
0
0
0
0
3.126366e+08
3.157813e+08
3.206484e+08
3.274708e+08
3.365019e+08
0
0
0
0
0
0
0
0
0
0
3.022239e+08
3.05258e+08
3.099221e+08
3.16431e+08
3.250197e+08
0
0
0
0
0
0
0
0
0
0
6.048546e+08
6.158944e+08
6.33946e+08
6.611887e+08
7.011139e+08
0
0
5.76973e+08
5.864428e+08
6.019342e+08
6.251307e+08
6.583431e+08
0
0
0
5.53176e+08
5.61544e+08
5.7527e+08
5.956689e+08
6.245404e+08
0
0
0
0
5.322207e+08
5.397875e+08
5.521977e+08
5.705686e+08
5.96311e+08
0
0
0
0
0
5.128977e+08
5.198357e+08
5.312114e+08
5.479751e+08
5.713232e+08
0
0
0
0
0
0
4.939559e+08
5.003553e+08
5.108309e+08
5.262167e+08
5.475193e+08
0
0
0
0
0
0
0
4.747476e+08
4.806447e+08
4.902848e+08
5.043917e+08
5.238331e+08
0
0
0
0
0
0
0
0
4.558746e+08
4.613213e+08
4.702076e+08
4.831696e+08
5.009516e+08
0
0
0
0
0
0
0
0
0
4.379307e+08
4.429879e+08
4.512178e+08
4.631816e+08
4.795297e+08
0
0
0
0
0
0
0
0
0
0
4.211671e+08
4.258931e+08
4.335578e+08
4.446618e+08
4.597776e+08
0
0
0
0
0
0
0
0
0
0
0
4.056033e+08
4.100475e+08
4.172261e+08
4.275884e+08
4.416442e+08
0
0
0
0
0
0
0
0
0
0
0
0
3.911211e+08
3.953243e+08
4.020811e+08
4.117985e+08
4.249335e+08
0
0
0
0
0
0
0
0
0
0
0
0
0
3.775032e+08
3.814963e+08
3.87882e+08
3.970295e+08
4.093527e+08
0
0
0
0
0
0
0
0
0
0
0
0
0
0
3.644322e+08
3.682372e+08
3.742873e+08
3.829195e+08
3.945088e+08
0
0
0
0
0
0
0
0
0
0
0
0
0
0
0
3.515099e+08
3.551394e+08
3.608744e+08
3.690229e+08
3.799257e+08
0
0
0
0
0
0
0
0
0
0
0
0
0
0
0
0
3.38496e+08
3.419565e+08
3.473877e+08
3.550701e+08
3.653131e+08
0
0
0
0
0
0
0
0
0
0
3.257743e+08
3.290772e+08
3.342265e+08
3.41477e+08
3.511096e+08
0
0
0
0
0
0
0
0
0
0
3.138025e+08
3.169666e+08
3.218643e+08
3.287306e+08
3.378208e+08
0
0
0
0
0
0
0
0
0
0
3.02813e+08
3.058567e+08
3.105359e+08
3.17066e+08
3.256835e+08
0
0
0
0
0
0
0
0
0
0
2.928664e+08
2.958071e+08
3.002968e+08
3.065364e+08
3.147439e+08
0
0
0
0
0
0
0
0
0
0
5.750663e+08
5.844207e+08
5.997408e+08
6.22681e+08
6.555037e+08
0
0
0
5.499082e+08
5.581003e+08
5.715668e+08
5.915866e+08
6.198978e+08
0
0
0
0
5.282353e+08
5.35604e+08
5.477239e+08
5.65675e+08
5.908126e+08
0
0
0
0
0
5.09015e+08
5.157663e+08
5.268692e+08
5.432429e+08
5.660355e+08
0
0
0
0
0
0
4.911828e+08
4.974449e+08
5.077221e+08
5.22826e+08
5.437319e+08
0
0
0
0
0
0
0
4.736203e+08
4.794519e+08
4.890004e+08
5.0298e+08
5.222449e+08
0
0
0
0
0
0
0
0
4.557492e+08
4.611728e+08
4.700291e+08
4.829512e+08
5.006792e+08
0
0
0
0
0
0
0
0
0
4.38135e+08
4.431862e+08
4.514099e+08
4.633667e+08
4.79706e+08
0
0
0
0
0
0
0
0
0
0
4.213377e+08
4.26063e+08
4.337279e+08
4.44833e+08
4.599506e+08
0
0
0
0
0
0
0
0
0
0
0
4.056033e+08
4.100475e+08
4.172261e+08
4.275884e+08
4.416442e+08
0
0
0
0
0
0
0
0
0
0
0
0
3.909594e+08
3.951623e+08
4.019179e+08
4.11633e+08
4.247647e+08
0
0
0
0
0
0
0
0
0
0
0
0
0
3.773039e+08
3.812976e+08
3.876832e+08
3.9683e+08
4.091518e+08
0
0
0
0
0
0
0
0
0
0
0
0
0
0
3.644377e+08
3.682476e+08
3.743041e+08
3.829452e+08
3.945462e+08
0
0
0
0
0
0
0
0
0
0
0
0
0
0
0
3.520648e+08
3.557085e+08
3.614653e+08
3.696448e+08
3.805899e+08
0
0
0
0
0
0
0
0
0
0
0
0
0
0
0
0
3.398101e+08
3.432973e+08
3.487706e+08
3.565139e+08
3.668402e+08
0
0
0
0
0
0
0
0
0
0
0
0
0
0
0
0
0
3.274471e+08
3.307805e+08
3.359783e+08
3.432984e+08
3.53026e+08
0
0
0
0
0
0
0
0
0
0
3.15338e+08
3.185281e+08
3.234667e+08
3.303918e+08
3.395619e+08
0
0
0
0
0
0
0
0
0
0
3.039229e+08
3.069843e+08
3.116914e+08
3.182615e+08
3.269332e+08
0
0
0
0
0
0
0
0
0
0
2.93428e+08
2.963774e+08
3.008809e+08
3.071401e+08
3.153739e+08
0
0
0
0
0
0
0
0
0
0
2.839201e+08
2.867695e+08
2.910961e+08
2.970843e+08
3.049377e+08
0
0
0
0
0
0
0
0
0
0
5.481884e+08
5.562907e+08
5.696246e+08
5.894514e+08
6.174785e+08
0
0
0
0
5.252697e+08
5.324981e+08
5.444125e+08
5.620672e+08
5.867799e+08
0
0
0
0
0
5.053833e+08
5.119744e+08
5.228428e+08
5.388815e+08
5.611999e+08
0
0
0
0
0
0
4.876392e+08
4.93749e+08
5.038038e+08
5.185915e+08
5.390548e+08
0
0
0
0
0
0
0
4.710944e+08
4.76814e+08
4.862001e+08
4.999507e+08
5.188966e+08
0
0
0
0
0
0
0
0
4.547349e+08
4.601055e+08
4.688875e+08
4.817068e+08
4.99294e+08
0
0
0
0
0
0
0
0
0
4.38041e+08
4.430741e+08
4.512744e+08
4.632004e+08
4.794983e+08
0
0
0
0
0
0
0
0
0
0
4.215427e+08
4.262639e+08
4.339248e+08
4.450257e+08
4.601384e+08
0
0
0
0
0
0
0
0
0
0
0
4.057696e+08
4.102136e+08
4.173931e+08
4.27757e+08
4.418155e+08
0
0
0
0
0
0
0
0
0
0
0
0
3.909594e+08
3.951623e+08
4.019179e+08
4.11633e+08
4.247647e+08
0
0
0
0
0
0
0
0
0
0
0
0
0
3.771469e+08
3.8114e+08
3.875241e+08
3.966682e+08
4.089863e+08
0
0
0
0
0
0
0
0
0
0
0
0
0
0
3.642419e+08
3.680516e+08
3.741073e+08
3.827466e+08
3.943452e+08
0
0
0
0
0
0
0
0
0
0
0
0
0
0
0
3.520611e+08
3.557082e+08
3.614698e+08
3.69656e+08
3.806102e+08
0
0
0
0
0
0
0
0
0
0
0
0
0
0
0
0
3.40327e+08
3.438261e+08
3.493181e+08
3.570882e+08
3.674511e+08
0
0
0
0
0
0
0
0
0
0
0
0
0
0
0
0
0
3.286874e+08
3.320441e+08
3.372793e+08
3.446537e+08
3.544558e+08
0
0
0
0
0
0
0
0
0
0
0
0
0
0
0
0
0
0
3.169244e+08
3.201418e+08
3.251241e+08
3.321122e+08
3.413683e+08
0
0
0
0
0
0
0
0
0
0
3.053839e+08
3.084685e+08
3.132129e+08
3.198366e+08
3.285812e+08
0
0
0
0
0
0
0
0
0
0
2.944864e+08
2.974518e+08
3.019808e+08
3.082767e+08
3.165601e+08
0
0
0
0
0
0
0
0
0
0
2.844562e+08
2.873137e+08
2.916529e+08
2.976591e+08
3.055368e+08
0
0
0
0
0
0
0
0
0
0
2.75358e+08
2.781219e+08
2.822922e+08
2.880451e+08
2.955679e+08
0
0
0
0
0
0
0
0
0
0
5.237065e+08
5.30863e+08
5.426719e+08
5.601748e+08
5.846706e+08
0
0
0
0
0
5.026738e+08
5.09151e+08
5.198523e+08
5.356528e+08
5.576349e+08
0
0
0
0
0
0
4.843102e+08
4.902881e+08
5.001497e+08
5.146631e+08
5.347438e+08
0
0
0
0
0
0
0
4.678426e+08
4.734359e+08
4.826373e+08
4.961266e+08
5.147101e+08
0
0
0
0
0
0
0
0
4.524217e+08
4.576997e+08
4.663469e+08
4.789763e+08
4.963016e+08
0
0
0
0
0
0
0
0
0
4.371231e+08
4.421129e+08
4.502522e+08
4.620939e+08
4.782771e+08
0
0
0
0
0
0
0
0
0
0
4.214741e+08
4.261812e+08
4.338238e+08
4.449008e+08
4.599815e+08
0
0
0
0
0
0
0
0
0
0
0
4.059737e+08
4.10415e+08
4.175922e+08
4.279542e+08
4.420105e+08
0
0
0
0
0
0
0
0
0
0
0
0
3.911211e+08
3.953243e+08
4.020811e+08
4.117985e+08
4.249335e+08
0
0
0
0
0
0
0
0
0
0
0
0
0
3.771469e+08
3.8114e+08
3.875241e+08
3.966682e+08
4.089863e+08
0
0
0
0
0
0
0
0
0
0
0
0
0
0
3.640896e+08
3.678985e+08
3.739523e+08
3.825888e+08
3.941835e+08
0
0
0
0
0
0
0
0
0
0
0
0
0
0
0
3.518691e+08
3.555156e+08
3.612757e+08
3.694595e+08
3.804104e+08
0
0
0
0
0
0
0
0
0
0
0
0
0
0
0
0
3.403158e+08
3.438173e+08
3.493126e+08
3.570877e+08
3.674576e+08
0
0
0
0
0
0
0
0
0
0
0
0
0
0
0
0
0
3.291706e+08
3.325372e+08
3.377883e+08
3.45186e+08
3.5502e+08
0
0
0
0
0
0
0
0
0
0
0
0
0
0
0
0
0
0
3.180976e+08
3.213355e+08
3.26351e+08
3.333878e+08
3.427107e+08
0
0
0
0
0
0
0
0
0
0
0
0
0
0
0
0
0
0
0
3.068913e+08
3.100003e+08
3.147841e+08
3.214651e+08
3.302878e+08
0
0
0
0
0
0
0
0
0
0
2.958786e+08
2.988652e+08
3.03428e+08
3.09773e+08
3.18123e+08
0
0
0
0
0
0
0
0
0
0
2.85467e+08
2.883389e+08
2.927016e+08
2.987414e+08
3.066647e+08
0
0
0
0
0
0
0
0
0
0
2.758705e+08
2.786418e+08
2.828237e+08
2.885933e+08
2.961384e+08
0
0
0
0
0
0
0
0
0
0
2.671632e+08
2.69839e+08
2.738628e+08
2.79392e+08
2.866056e+08
0
0
0
0
0
0
0
0
0
0
5.012438e+08
5.076622e+08
5.182774e+08
5.339553e+08
5.557649e+08
0
0
0
0
0
0
4.81821e+08
4.877045e+08
4.974278e+08
5.117449e+08
5.315523e+08
0
0
0
0
0
0
0
4.647757e+08
4.702589e+08
4.792984e+08
4.925589e+08
5.108258e+08
0
0
0
0
0
0
0
0
4.494233e+08
4.545955e+08
4.63087e+08
4.754968e+08
4.925197e+08
0
0
0
0
0
0
0
0
0
4.349945e+08
4.399069e+08
4.479329e+08
4.59615e+08
4.755793e+08
0
0
0
0
0
0
0
0
0
0
4.206392e+08
4.253106e+08
4.329026e+08
4.439096e+08
4.588955e+08
0
0
0
0
0
0
0
0
0
0
0
4.059259e+08
4.103563e+08
4.175192e+08
4.278623e+08
4.418938e+08
0
0
0
0
0
0
0
0
0
0
0
0
3.913232e+08
3.955249e+08
4.022808e+08
4.119977e+08
4.251326e+08
0
0
0
0
0
0
0
0
0
0
0
0
0
3.773039e+08
3.812976e+08
3.876832e+08
3.9683e+08
4.091518e+08
0
0
0
0
0
0
0
0
0
0
0
0
0
0
3.640896e+08
3.678985e+08
3.739523e+08
3.825888e+08
3.941835e+08
0
0
0
0
0
0
0
0
0
0
0
0
0
0
0
3.517216e+08
3.55367e+08
3.611251e+08
3.693058e+08
3.802526e+08
0
0
0
0
0
0
0
0
0
0
0
0
0
0
0
0
3.401282e+08
3.436286e+08
3.491219e+08
3.56894e+08
3.672599e+08
0
0
0
0
0
0
0
0
0
0
0
0
0
0
0
0
0
3.291534e+08
3.325214e+08
3.377749e+08
3.45176e+08
3.550152e+08
0
0
0
0
0
0
0
0
0
0
0
0
0
0
0
0
0
0
3.185506e+08
3.217968e+08
3.26826e+08
3.33883e+08
3.432339e+08
0
0
0
0
0
0
0
0
0
0
0
0
0
0
0
0
0
0
0
3.080035e+08
3.111303e+08
3.15944e+08
3.226686e+08
3.315516e+08
0
0
0
0
0
0
0
0
0
0
0
0
0
0
0
0
0
0
0
0
2.973133e+08
3.003218e+08
3.049203e+08
3.113175e+08
3.197388e+08
0
0
0
0
0
0
0
0
0
0
2.867959e+08
2.896868e+08
2.940805e+08
3.001651e+08
3.081497e+08
0
0
0
0
0
0
0
0
0
0
2.76837e+08
2.796216e+08
2.838249e+08
2.896255e+08
2.972127e+08
0
0
0
0
0
0
0
0
0
0
2.676538e+08
2.703363e+08
2.743709e+08
2.799155e+08
2.871498e+08
0
0
0
0
0
0
0
0
0
0
2.593121e+08
2.619054e+08
2.657841e+08
2.711037e+08
2.780244e+08
0
0
0
0
0
0
0
0
0
0
4.805057e+08
4.863404e+08
4.959922e+08
5.102078e+08
5.298745e+08
0
0
0
0
0
0
0
4.624777e+08
4.678819e+08
4.768049e+08
4.899007e+08
5.079403e+08
0
0
0
0
0
0
0
0
4.465854e+08
4.516645e+08
4.600187e+08
4.722345e+08
4.889909e+08
0
0
0
0
0
0
0
0
0
4.322183e+08
4.37041e+08
4.449343e+08
4.564292e+08
4.72137e+08
0
0
0
0
0
0
0
0
0
0
4.18672e+08
4.232782e+08
4.307739e+08
4.416452e+08
4.564455e+08
0
0
0
0
0
0
0
0
0
0