/*--------------------------------*- C++ -*----------------------------------*\
| =========                 |                                                 |
| \\      /  F ield         | OpenFOAM: The Open Source CFD Toolbox           |
|  \\    /   O peration     | Version:  2306                                  |
|   \\  /    A nd           | Website:  www.openfoam.com                      |
|    \\/     M anipulation  |                                                 |
\*---------------------------------------------------------------------------*/
FoamFile
{
    version     2.0;
    format      ascii;
    arch        "LSB;label=32;scalar=64";
    class       volScalarField;
    location    "1.5/fuel";
    object      nernst;
}
// * * * * * * * * * * * * * * * * * * * * * * * * * * * * * * * * * * * * * //

dimensions      [1 2 -3 0 0 -1 0];

internalField   nonuniform List<scalar> 
16000
(
-1.763122
-1.764069
-1.749939
-1.763187
-1.765988
-1.750564
-1.764136
-1.738036
-1.749985
-1.763309
-1.768887
-1.751825
-1.766059
-1.738511
-1.75061
-1.764261
-1.728395
-1.73807
-1.750073
-1.763488
-1.772639
-1.753721
-1.768965
-1.73947
-1.751873
-1.766192
-1.728782
-1.738545
-1.7507
-1.764445
-1.720436
-1.728421
-1.738136
-1.750203
-1.763723
-1.776646
-1.756161
-1.772729
-1.740913
-1.753771
-1.769111
-1.729563
-1.739505
-1.751965
-1.766386
-1.720763
-1.728808
-1.738612
-1.750832
-1.764686
-1.71369
-1.720456
-1.728472
-1.738233
-1.750373
-1.763959
-1.779539
-1.758767
-1.776754
-1.742774
-1.756214
-1.772897
-1.730737
-1.740947
-1.753867
-1.769324
-1.721423
-1.729589
-1.739572
-1.752101
-1.766641
-1.713973
-1.720783
-1.728859
-1.73871
-1.751005
-1.764929
-1.707843
-1.713706
-1.720498
-1.728549
-1.738361
-1.750545
-1.764158
-1.78122
-1.760713
-1.779664
-1.744774
-1.758822
-1.776951
-1.732253
-1.742808
-1.756316
-1.773139
-1.722414
-1.730763
-1.741017
-1.75401
-1.769603
-1.714544
-1.721442
-1.729641
-1.739673
-1.75228
-1.766897
-1.708093
-1.713989
-1.720825
-1.728937
-1.73884
-1.751179
-1.765133
-1.702684
-1.707855
-1.71374
-1.720561
-1.728651
-1.738491
-1.750689
-1.764356
-1.782067
-1.761922
-1.781359
-1.746304
-1.76077
-1.779886
-1.733888
-1.744808
-1.758932
-1.777236
-1.723694
-1.732278
-1.74288
-1.756468
-1.773457
-1.715402
-1.722433
-1.730816
-1.74112
-1.754197
-1.769883
-1.708596
-1.71456
-1.721485
-1.729719
-1.739805
-1.752459
-1.767113
-1.702907
-1.708105
-1.714024
-1.720888
-1.72904
-1.73897
-1.751325
-1.765336
-1.698066
-1.702694
-1.707885
-1.713793
-1.720645
-1.728754
-1.7386
-1.750833
-1.764553
-1.782409
-1.762584
-1.782215
-1.747293
-1.761981
-1.7816
-1.735155
-1.746338
-1.760885
-1.780204
-1.725077
-1.733912
-1.744882
-1.759095
-1.777606
-1.716509
-1.723712
-1.732332
-1.742987
-1.756668
-1.773776
-1.709352
-1.715417
-1.722476
-1.730896
-1.741257
-1.754385
-1.77012
-1.703358
-1.708608
-1.714594
-1.721549
-1.729824
-1.739938
-1.75261
-1.767329
-1.698269
-1.702917
-1.708134
-1.714077
-1.720973
-1.729143
-1.73908
-1.751471
-1.765539
-1.693885
-1.698074
-1.702719
-1.70793
-1.713864
-1.72073
-1.72884
-1.738708
-1.750976
-1.764749
-1.782409
-1.762872
-1.782561
-1.74786
-1.762646
-1.782468
-1.73599
-1.747326
-1.7621
-1.781941
-1.726155
-1.735177
-1.746412
-1.761057
-1.780615
-1.717706
-1.725094
-1.733966
-1.744994
-1.759312
-1.777978
-1.710327
-1.716523
-1.723755
-1.732414
-1.74313
-1.756869
-1.774047
-1.704034
-1.709364
-1.715452
-1.722541
-1.731002
-1.741394
-1.754544
-1.770357
-1.698677
-1.703368
-1.708638
-1.714648
-1.721634
-1.729929
-1.740051
-1.752761
-1.767544
-1.69407
-1.698277
-1.702942
-1.70818
-1.714148
-1.721058
-1.729231
-1.73919
-1.751616
-1.765741
-1.690061
-1.693891
-1.698096
-1.702758
-1.707991
-1.713936
-1.720801
-1.728927
-1.738816
-1.751118
-1.765703
-1.782067
-1.762872
-1.782561
-1.748116
-1.762935
-1.78282
-1.736481
-1.747893
-1.762768
-1.782824
-1.726873
-1.736011
-1.7474
-1.762277
-1.782381
-1.718643
-1.72617
-1.73523
-1.746526
-1.761284
-1.781029
-1.711382
-1.717719
-1.725136
-1.73405
-1.745144
-1.75953
-1.778297
-1.704906
-1.710339
-1.716558
-1.723821
-1.732524
-1.743273
-1.757039
-1.774319
-1.699289
-1.704043
-1.709393
-1.715506
-1.722627
-1.73111
-1.74151
-1.754702
-1.770594
-1.694443
-1.698685
-1.703393
-1.708683
-1.71472
-1.721721
-1.730017
-1.740162
-1.75291
-1.767758
-1.690231
-1.694076
-1.698298
-1.702982
-1.708241
-1.714221
-1.72113
-1.729317
-1.739299
-1.75176
-1.766721
-1.686535
-1.690066
-1.69391
-1.698131
-1.702812
-1.708054
-1.713997
-1.720872
-1.729012
-1.738923
-1.751807
-1.766457
-1.78122
-1.762584
-1.782215
-1.748116
-1.762935
-1.78282
-1.736706
-1.74815
-1.763059
-1.783183
-1.7273
-1.736501
-1.747968
-1.762948
-1.783282
-1.719271
-1.726887
-1.736063
-1.747515
-1.76251
-1.782823
-1.71221
-1.718654
-1.726211
-1.735314
-1.746678
-1.761512
-1.781384
-1.705849
-1.711392
-1.717753
-1.725203
-1.734164
-1.745295
-1.759714
-1.778621
-1.700078
-1.704915
-1.710368
-1.716612
-1.723909
-1.732634
-1.743394
-1.75721
-1.774593
-1.695002
-1.699296
-1.704068
-1.709439
-1.715579
-1.722715
-1.7312
-1.741626
-1.75486
-1.770831
-1.690575
-1.694449
-1.698706
-1.703432
-1.708745
-1.714793
-1.721793
-1.730105
-1.740274
-1.75306
-1.7688
-1.686693
-1.690237
-1.694095
-1.698333
-1.703036
-1.708304
-1.714281
-1.721202
-1.729403
-1.739407
-1.75246
-1.767503
-1.683261
-1.686539
-1.690083
-1.693941
-1.698179
-1.702867
-1.708106
-1.714057
-1.720943
-1.729097
-1.739442
-1.752349
-1.767075
-1.779539
-1.761922
-1.781359
-1.74786
-1.762646
-1.782468
-1.736706
-1.74815
-1.763059
-1.783183
-1.727498
-1.736726
-1.748225
-1.763241
-1.78365
-1.719646
-1.727313
-1.736553
-1.748083
-1.763186
-1.783741
-1.712766
-1.71928
-1.726927
-1.736147
-1.747669
-1.762745
-1.783202
-1.70659
-1.712218
-1.718687
-1.726277
-1.735428
-1.746832
-1.761705
-1.781744
-1.700931
-1.705857
-1.711421
-1.717808
-1.725294
-1.734278
-1.745422
-1.759901
-1.778948
-1.695723
-1.700085
-1.70494
-1.710414
-1.716687
-1.723999
-1.732727
-1.743515
-1.75738
-1.774869
-1.69109
-1.695008
-1.699318
-1.704108
-1.709502
-1.715653
-1.722789
-1.73129
-1.74174
-1.755017
-1.771984
-1.687012
-1.69058
-1.694468
-1.698741
-1.703487
-1.708809
-1.714854
-1.721865
-1.730193
-1.740384
-1.753783
-1.76965
-1.683409
-1.686697
-1.690253
-1.694126
-1.698381
-1.703091
-1.708356
-1.714342
-1.721272
-1.729489
-1.739931
-1.753012
-1.768149
-1.680202
-1.683264
-1.686554
-1.690111
-1.693984
-1.698227
-1.702913
-1.708158
-1.714117
-1.721013
-1.729509
-1.739849
-1.752788
-1.767549
-1.776646
-1.760713
-1.779664
-1.747293
-1.761981
-1.7816
-1.736481
-1.747893
-1.762768
-1.782824
-1.727498
-1.736726
-1.748225
-1.763241
-1.78365
-1.719821
-1.727511
-1.736777
-1.74834
-1.76348
-1.784118
-1.7131
-1.719655
-1.727352
-1.736636
-1.748238
-1.763424
-1.784136
-1.70709
-1.712773
-1.719312
-1.726992
-1.736261
-1.747824
-1.762943
-1.783586
-1.701602
-1.706597
-1.712245
-1.718741
-1.726368
-1.735544
-1.746962
-1.7619
-1.782108
-1.696503
-1.700937
-1.705881
-1.711467
-1.717884
-1.725386
-1.734375
-1.74555
-1.760089
-1.77928
-1.691755
-1.695729
-1.700106
-1.70498
-1.710478
-1.716762
-1.724074
-1.73282
-1.743636
-1.757551
-1.776217
-1.68749
-1.691095
-1.695027
-1.699353
-1.704163
-1.709566
-1.715715
-1.722862
-1.73138
-1.741855
-1.755781
-1.772978
-1.683706
-1.687016
-1.690597
-1.694499
-1.698789
-1.703542
-1.708861
-1.714915
-1.721937
-1.73028
-1.740919
-1.754357
-1.770368
-1.680341
-1.683412
-1.686712
-1.690281
-1.694169
-1.69843
-1.703137
-1.708408
-1.714402
-1.721343
-1.729904
-1.740342
-1.753459
-1.76865
-1.67733
-1.680205
-1.683278
-1.686579
-1.69015
-1.694028
-1.698268
-1.702958
-1.708209
-1.714176
-1.721352
-1.72983
-1.740177
-1.753121
-1.767875
-1.772639
-1.758767
-1.776754
-1.746304
-1.76077
-1.779886
-1.73599
-1.747326
-1.7621
-1.781941
-1.7273
-1.736501
-1.747968
-1.762948
-1.783282
-1.719821
-1.727511
-1.736777
-1.74834
-1.76348
-1.784118
-1.713256
-1.719829
-1.727549
-1.73686
-1.748496
-1.763721
-1.78452
-1.70739
-1.713106
-1.719686
-1.727417
-1.736749
-1.748394
-1.763626
-1.784535
-1.702055
-1.707095
-1.712799
-1.719365
-1.727082
-1.736375
-1.747954
-1.763143
-1.783974
-1.697117
-1.701607
-1.706619
-1.712291
-1.718816
-1.72646
-1.73564
-1.747093
-1.762097
-1.782477
-1.692473
-1.696508
-1.700958
-1.705921
-1.711532
-1.71796
-1.725463
-1.734472
-1.74568
-1.760279
-1.780922
-1.688106
-1.691759
-1.695747
-1.700141
-1.705035
-1.710542
-1.716825
-1.72415
-1.732913
-1.743757
-1.758384
-1.777522
-1.684152
-1.687494
-1.691112
-1.695058
-1.699401
-1.704219
-1.709619
-1.715776
-1.722935
-1.731469
-1.742409
-1.756407
-1.773867
-1.68062
-1.683709
-1.687031
-1.690625
-1.694542
-1.698839
-1.703588
-1.708914
-1.714976
-1.722008
-1.730701
-1.741339
-1.754829
-1.770937
-1.67746
-1.680344
-1.683426
-1.686738
-1.69032
-1.694213
-1.698471
-1.703182
-1.70846
-1.714461
-1.721684
-1.730226
-1.740672
-1.753799
-1.768997
-1.674619
-1.677332
-1.680217
-1.683301
-1.686615
-1.690189
-1.694064
-1.698308
-1.703003
-1.70826
-1.714463
-1.721613
-1.730086
-1.740423
-1.753345
-1.768887
-1.756161
-1.772729
-1.744774
-1.758822
-1.776951
-1.735155
-1.746338
-1.760885
-1.780204
-1.726873
-1.736011
-1.7474
-1.762277
-1.782381
-1.719646
-1.727313
-1.736553
-1.748083
-1.763186
-1.783741
-1.713256
-1.719829
-1.727549
-1.73686
-1.748496
-1.763721
-1.78452
-1.70753
-1.713262
-1.71986
-1.727613
-1.736974
-1.748652
-1.763925
-1.784926
-1.702328
-1.707394
-1.713132
-1.719738
-1.727506
-1.736864
-1.748525
-1.76383
-1.784937
-1.697531
-1.702059
-1.707117
-1.712844
-1.719439
-1.727173
-1.736471
-1.748086
-1.763345
-1.784366
-1.693039
-1.69712
-1.701627
-1.706659
-1.712355
-1.718892
-1.726536
-1.735738
-1.747225
-1.762296
-1.784301
-1.688773
-1.692477
-1.696526
-1.700993
-1.705978
-1.711598
-1.718024
-1.725541
-1.73457
-1.74581
-1.761214
-1.7828
-1.684727
-1.68811
-1.691775
-1.695778
-1.70019
-1.705092
-1.710596
-1.716888
-1.724225
-1.733006
-1.744346
-1.759133
-1.778845
-1.681038
-1.684155
-1.687509
-1.69114
-1.695102
-1.699451
-1.704265
-1.709672
-1.715837
-1.723008
-1.731901
-1.742854
-1.756944
-1.774612
-1.677723
-1.680623
-1.683723
-1.687056
-1.690664
-1.694587
-1.698879
-1.703634
-1.708966
-1.715036
-1.722353
-1.731026
-1.741679
-1.755191
-1.771341
-1.674743
-1.677463
-1.680356
-1.683449
-1.686773
-1.69036
-1.69425
-1.698511
-1.703228
-1.708511
-1.714749
-1.721945
-1.730483
-1.74092
-1.754029
-1.672051
-1.674621
-1.677343
-1.680239
-1.683334
-1.686651
-1.690222
-1.694101
-1.698348
-1.703048
-1.708508
-1.714679
-1.721819
-1.730277
-1.740587
-1.765988
-1.753721
-1.768965
-1.742774
-1.756214
-1.772897
-1.733888
-1.744808
-1.758932
-1.777236
-1.726155
-1.735177
-1.746412
-1.761057
-1.780615
-1.719271
-1.726887
-1.736063
-1.747515
-1.76251
-1.782823
-1.7131
-1.719655
-1.727352
-1.736636
-1.748238
-1.763424
-1.784136
-1.70753
-1.713262
-1.71986
-1.727613
-1.736974
-1.748652
-1.763925
-1.784926
-1.702456
-1.707535
-1.713287
-1.719912
-1.727702
-1.737088
-1.748783
-1.76413
-1.785335
-1.697782
-1.702331
-1.707416
-1.713176
-1.719812
-1.727596
-1.736959
-1.748657
-1.764034
-1.785343
-1.693422
-1.697534
-1.702078
-1.707155
-1.712907
-1.719514
-1.727248
-1.736568
-1.748218
-1.763548
-1.786299
-1.689298
-1.693042
-1.697137
-1.701661
-1.706715
-1.71242
-1.718955
-1.726613
-1.735836
-1.747358
-1.763275
-1.786351
-1.685349
-1.688776
-1.692493
-1.696557
-1.701043
-1.706035
-1.711652
-1.718089
-1.725619
-1.734669
-1.746451
-1.762201
-1.785133
-1.681577
-1.68473
-1.688124
-1.691803
-1.695822
-1.70024
-1.705138
-1.71065
-1.71695
-1.7243
-1.733458
-1.744858
-1.759856
-1.780117
-1.678117
-1.681041
-1.684169
-1.687534
-1.691179
-1.695146
-1.699492
-1.704311
-1.709724
-1.715898
-1.723359
-1.732239
-1.743226
-1.757373
-1.775162
-1.674991
-1.677725
-1.680635
-1.683746
-1.687092
-1.690704
-1.694623
-1.69892
-1.703679
-1.709017
-1.715326
-1.722615
-1.731287
-1.741935
-1.755436
-1.672168
-1.674744
-1.677474
-1.680377
-1.683481
-1.68681
-1.690393
-1.694286
-1.698551
-1.703272
-1.708759
-1.714965
-1.722151
-1.730673
-1.741084
-1.669609
-1.672053
-1.674631
-1.677363
-1.680269
-1.683367
-1.686681
-1.690255
-1.694136
-1.698388
-1.703264
-1.70869
-1.714849
-1.721971
-1.730403
-1.764069
-1.751825
-1.766059
-1.740913
-1.753771
-1.769111
-1.732253
-1.742808
-1.756316
-1.773139
-1.725077
-1.733912
-1.744882
-1.759095
-1.777606
-1.718643
-1.72617
-1.73523
-1.746526
-1.761284
-1.781029
-1.712766
-1.71928
-1.726927
-1.736147
-1.747669
-1.762745
-1.783202
-1.70739
-1.713106
-1.719686
-1.727417
-1.736749
-1.748394
-1.763626
-1.784535
-1.702456
-1.707535
-1.713287
-1.719912
-1.727702
-1.737088
-1.748783
-1.76413
-1.785335
-1.697899
-1.702459
-1.707556
-1.713331
-1.719985
-1.727792
-1.737183
-1.748915
-1.764336
-1.785748
-1.693653
-1.697784
-1.70235
-1.707454
-1.713238
-1.719886
-1.727671
-1.737055
-1.748789
-1.76424
-1.787342
-1.689654
-1.693424
-1.697551
-1.702112
-1.70721
-1.712971
-1.719576
-1.727324
-1.736665
-1.748351
-1.764546
-1.788386
-1.685839
-1.6893
-1.693057
-1.697168
-1.70171
-1.706771
-1.712474
-1.719019
-1.726691
-1.735935
-1.748011
-1.76429
-1.788791
-1.682161
-1.685351
-1.68879
-1.692521
-1.696602
-1.701094
-1.706083
-1.711707
-1.718154
-1.725698
-1.735153
-1.74711
-1.763382
-1.788134
-1.678624
-1.681579
-1.684743
-1.68815
-1.691843
-1.695867
-1.700282
-1.705185
-1.710703
-1.717013
-1.724664
-1.733841
-1.745343
-1.760516
-1.781182
-1.675363
-1.678119
-1.681053
-1.684192
-1.68757
-1.69122
-1.695183
-1.699533
-1.704357
-1.709776
-1.716193
-1.723629
-1.732519
-1.743515
-1.757668
-1.672404
-1.674993
-1.677736
-1.680656
-1.683779
-1.687129
-1.690737
-1.694659
-1.69896
-1.703724
-1.709267
-1.715542
-1.722822
-1.73148
-1.742102
-1.669721
-1.67217
-1.674755
-1.677493
-1.680407
-1.683515
-1.68684
-1.690426
-1.694322
-1.698591
-1.703489
-1.708941
-1.715134
-1.722301
-1.730797
-1.667279
-1.66961
-1.672062
-1.67465
-1.677391
-1.6803
-1.683395
-1.686711
-1.690287
-1.694172
-1.69858
-1.70342
-1.708831
-1.714972
-1.722069
-1.763122
-1.750564
-1.764136
-1.73947
-1.751873
-1.766192
-1.730737
-1.740947
-1.753867
-1.769324
-1.723694
-1.732278
-1.74288
-1.756468
-1.773457
-1.717706
-1.725094
-1.733966
-1.744994
-1.759312
-1.777978
-1.71221
-1.718654
-1.726211
-1.735314
-1.746678
-1.761512
-1.781384
-1.70709
-1.712773
-1.719312
-1.726992
-1.736261
-1.747824
-1.762943
-1.783586
-1.702328
-1.707394
-1.713132
-1.719738
-1.727506
-1.736864
-1.748525
-1.76383
-1.784937
-1.697899
-1.702459
-1.707556
-1.713331
-1.719985
-1.727792
-1.737183
-1.748915
-1.764336
-1.785748
-1.693761
-1.697901
-1.702477
-1.707593
-1.713393
-1.720059
-1.727867
-1.737279
-1.749047
-1.764543
-1.787778
-1.689869
-1.693654
-1.6978
-1.702383
-1.707508
-1.713301
-1.719947
-1.727746
-1.737152
-1.748922
-1.765249
-1.789445
-1.686172
-1.689655
-1.693438
-1.697581
-1.70216
-1.707266
-1.713024
-1.719639
-1.727401
-1.736763
-1.749003
-1.765539
-1.790753
-1.682621
-1.685841
-1.689314
-1.693084
-1.697212
-1.701761
-1.706818
-1.712528
-1.719084
-1.72677
-1.736421
-1.748669
-1.765465
-1.79169
-1.679174
-1.682162
-1.685364
-1.688816
-1.692561
-1.696647
-1.701136
-1.706131
-1.711763
-1.71822
-1.726085
-1.735641
-1.747894
-1.764845
-1.792235
-1.675843
-1.678626
-1.681591
-1.684766
-1.688186
-1.691884
-1.695904
-1.700323
-1.705232
-1.710757
-1.717317
-1.724967
-1.7342
-1.745771
-1.761027
-1.672757
-1.675365
-1.67813
-1.681074
-1.684225
-1.687607
-1.691253
-1.695219
-1.699573
-1.704403
-1.710029
-1.716414
-1.723849
-1.732731
-1.743703
-1.669945
-1.672405
-1.675003
-1.677756
-1.680686
-1.683813
-1.687159
-1.69077
-1.694695
-1.699
-1.703942
-1.709448
-1.715711
-1.722973
-1.731602
-1.667386
-1.669722
-1.672179
-1.674773
-1.677522
-1.680439
-1.683543
-1.68687
-1.690458
-1.694358
-1.698783
-1.703644
-1.709081
-1.715255
-1.722397
-1.66505
-1.66728
-1.669619
-1.672079
-1.674676
-1.67742
-1.680325
-1.683422
-1.686741
-1.69032
-1.694343
-1.698714
-1.703539
-1.708931
-1.715048
-1.749939
-1.763187
-1.738511
-1.75061
-1.764261
-1.729563
-1.739505
-1.751965
-1.766386
-1.722414
-1.730763
-1.741017
-1.75401
-1.769603
-1.716509
-1.723712
-1.732332
-1.742987
-1.756668
-1.773776
-1.711382
-1.717719
-1.725136
-1.73405
-1.745144
-1.75953
-1.778297
-1.70659
-1.712218
-1.718687
-1.726277
-1.735428
-1.746832
-1.761705
-1.781744
-1.702055
-1.707095
-1.712799
-1.719365
-1.727082
-1.736375
-1.747954
-1.763143
-1.783974
-1.697782
-1.702331
-1.707416
-1.713176
-1.719812
-1.727596
-1.736959
-1.748657
-1.764034
-1.785343
-1.693761
-1.697901
-1.702477
-1.707593
-1.713393
-1.720059
-1.727867
-1.737279
-1.749047
-1.764543
-1.787778
-1.689969
-1.693762
-1.697917
-1.70251
-1.707647
-1.713455
-1.72012
-1.727941
-1.737375
-1.74918
-1.765558
-1.789891
-1.686373
-1.68987
-1.693668
-1.697829
-1.702431
-1.707563
-1.713353
-1.720009
-1.727822
-1.737249
-1.749573
-1.766227
-1.791759
-1.682933
-1.686173
-1.689668
-1.693465
-1.697624
-1.702209
-1.707311
-1.713077
-1.719702
-1.727478
-1.737242
-1.749631
-1.766639
-1.793424
-1.679608
-1.682622
-1.685853
-1.689339
-1.693124
-1.697257
-1.701802
-1.706865
-1.712583
-1.719149
-1.727155
-1.736901
-1.749432
-1.766814
-1.795119
-1.676363
-1.679175
-1.682174
-1.685388
-1.688852
-1.692603
-1.696685
-1.701178
-1.706179
-1.711819
-1.718541
-1.72647
-1.736223
-1.748861
-1.766765
-1.799655
-1.673212
-1.675845
-1.678637
-1.681613
-1.684799
-1.688223
-1.691917
-1.695941
-1.700364
-1.705278
-1.711016
-1.717564
-1.725247
-1.73451
-1.746084
-1.67028
-1.672758
-1.675375
-1.67815
-1.681104
-1.684259
-1.687637
-1.691286
-1.695255
-1.699613
-1.704623
-1.710213
-1.716592
-1.724012
-1.732862
-1.667599
-1.669946
-1.672415
-1.675021
-1.677784
-1.680718
-1.68384
-1.687189
-1.690802
-1.694731
-1.699193
-1.704096
-1.709587
-1.715831
-1.723065
-1.665152
-1.667387
-1.66973
-1.672196
-1.674799
-1.677551
-1.680464
-1.68357
-1.686899
-1.690491
-1.694529
-1.698916
-1.703762
-1.70918
-1.715329
-1.662911
-1.665051
-1.667288
-1.669635
-1.672104
-1.674703
-1.677444
-1.680351
-1.683449
-1.68677
-1.690475
-1.69446
-1.698815
-1.703621
-1.708991
-1.738036
-1.749985
-1.763309
-1.728782
-1.738545
-1.7507
-1.764445
-1.721423
-1.729589
-1.739572
-1.752101
-1.766641
-1.715402
-1.722433
-1.730816
-1.74112
-1.754197
-1.769883
-1.710327
-1.716523
-1.723755
-1.732414
-1.74313
-1.756869
-1.774047
-1.705849
-1.711392
-1.717753
-1.725203
-1.734164
-1.745295
-1.759714
-1.778621
-1.701602
-1.706597
-1.712245
-1.718741
-1.726368
-1.735544
-1.746962
-1.7619
-1.782108
-1.697531
-1.702059
-1.707117
-1.712844
-1.719439
-1.727173
-1.736471
-1.748086
-1.763345
-1.784366
-1.693653
-1.697784
-1.70235
-1.707454
-1.713238
-1.719886
-1.727671
-1.737055
-1.748789
-1.76424
-1.787342
-1.689969
-1.693762
-1.697917
-1.70251
-1.707647
-1.713455
-1.72012
-1.727941
-1.737375
-1.74918
-1.765558
-1.789891
-1.686467
-1.68997
-1.693776
-1.697946
-1.702557
-1.707702
-1.713507
-1.720181
-1.728017
-1.737472
-1.749831
-1.766531
-1.792185
-1.683122
-1.686373
-1.689882
-1.693695
-1.697872
-1.702479
-1.707608
-1.713405
-1.720071
-1.727898
-1.737723
-1.750179
-1.76728
-1.794302
-1.679902
-1.682933
-1.686184
-1.689692
-1.693504
-1.697668
-1.70225
-1.707357
-1.71313
-1.719765
-1.727855
-1.737692
-1.750329
-1.767844
-1.796413
-1.676773
-1.679608
-1.682633
-1.685876
-1.689375
-1.693165
-1.697294
-1.701844
-1.706913
-1.712638
-1.719467
-1.72753
-1.73746
-1.750307
-1.768351
-1.799971
-1.673705
-1.676364
-1.679186
-1.682195
-1.685421
-1.68889
-1.692637
-1.696723
-1.701221
-1.706228
-1.712093
-1.718857
-1.726931
-1.736943
-1.750126
-1.770043
-1.80407
-1.670713
-1.673213
-1.675854
-1.678657
-1.681643
-1.684834
-1.688254
-1.691951
-1.695978
-1.700405
-1.705504
-1.711222
-1.71779
-1.725485
-1.734724
-1.66792
-1.670281
-1.672767
-1.675393
-1.678178
-1.681136
-1.684286
-1.687667
-1.691318
-1.695291
-1.699808
-1.704779
-1.71036
-1.71672
-1.724107
-1.665356
-1.6676
-1.669954
-1.672432
-1.675048
-1.677813
-1.680743
-1.683868
-1.687218
-1.690835
-1.694903
-1.699325
-1.704213
-1.709684
-1.715901
-1.663008
-1.665152
-1.667395
-1.669746
-1.672221
-1.674826
-1.677574
-1.680489
-1.683597
-1.686929
-1.690646
-1.694645
-1.699016
-1.703843
-1.709237
-1.660854
-1.662912
-1.665058
-1.667304
-1.669658
-1.672129
-1.674725
-1.677467
-1.680376
-1.683476
-1.686911
-1.690577
-1.694547
-1.698883
-1.703667
-1.728395
-1.73807
-1.750073
-1.763488
-1.720763
-1.728808
-1.738612
-1.750832
-1.764686
-1.714544
-1.721442
-1.729641
-1.739673
-1.75228
-1.766897
-1.709352
-1.715417
-1.722476
-1.730896
-1.741257
-1.754385
-1.77012
-1.704906
-1.710339
-1.716558
-1.723821
-1.732524
-1.743273
-1.757039
-1.774319
-1.700931
-1.705857
-1.711421
-1.717808
-1.725294
-1.734278
-1.745422
-1.759901
-1.778948
-1.697117
-1.701607
-1.706619
-1.712291
-1.718816
-1.72646
-1.73564
-1.747093
-1.762097
-1.782477
-1.693422
-1.697534
-1.702078
-1.707155
-1.712907
-1.719514
-1.727248
-1.736568
-1.748218
-1.763548
-1.786299
-1.689869
-1.693654
-1.6978
-1.702383
-1.707508
-1.713301
-1.719947
-1.727746
-1.737152
-1.748922
-1.765249
-1.789445
-1.686467
-1.68997
-1.693776
-1.697946
-1.702557
-1.707702
-1.713507
-1.720181
-1.728017
-1.737472
-1.749831
-1.766531
-1.792185
-1.68321
-1.686468
-1.689983
-1.693803
-1.697988
-1.702606
-1.707746
-1.713559
-1.720243
-1.728092
-1.737944
-1.750428
-1.767564
-1.794676
-1.68008
-1.683122
-1.686385
-1.689906
-1.693734
-1.697916
-1.702519
-1.707653
-1.713458
-1.720133
-1.728269
-1.738151
-1.750837
-1.768404
-1.797084
-1.677052
-1.679902
-1.682944
-1.686207
-1.689728
-1.693544
-1.697704
-1.70229
-1.707404
-1.713184
-1.720075
-1.728202
-1.738196
-1.751097
-1.769145
-1.80046
-1.674094
-1.676773
-1.679618
-1.682654
-1.685909
-1.689412
-1.693198
-1.697331
-1.701886
-1.706961
-1.712908
-1.719772
-1.727968
-1.738104
-1.751302
-1.770421
-1.803764
-1.671182
-1.673706
-1.676373
-1.679206
-1.682227
-1.685456
-1.688921
-1.692671
-1.696761
-1.701264
-1.706466
-1.712359
-1.719236
-1.727501
-1.737884
-1.752242
-1.772021
-1.807485
-1.668333
-1.670714
-1.673222
-1.675873
-1.678685
-1.681675
-1.684862
-1.688284
-1.691984
-1.696015
-1.700604
-1.705679
-1.71141
-1.717979
-1.725641
-1.665662
-1.66792
-1.67029
-1.672785
-1.67542
-1.678207
-1.681161
-1.684314
-1.687697
-1.691351
-1.695465
-1.699942
-1.704901
-1.710462
-1.71679
-1.663204
-1.665356
-1.667608
-1.66997
-1.672456
-1.675075
-1.677837
-1.680768
-1.683895
-1.687248
-1.69099
-1.695018
-1.699424
-1.704292
-1.709737
-1.660947
-1.663009
-1.66516
-1.66741
-1.66977
-1.672246
-1.674849
-1.677598
-1.680514
-1.683624
-1.68707
-1.690747
-1.694731
-1.699083
-1.703887
-1.658871
-1.660854
-1.662919
-1.665073
-1.667326
-1.669682
-1.67215
-1.674747
-1.67749
-1.680401
-1.683605
-1.687002
-1.690651
-1.694603
-1.698918
-1.720436
-1.728421
-1.738136
-1.750203
-1.763723
-1.713973
-1.720783
-1.728859
-1.73871
-1.751005
-1.764929
-1.708596
-1.71456
-1.721485
-1.729719
-1.739805
-1.752459
-1.767113
-1.704034
-1.709364
-1.715452
-1.722541
-1.731002
-1.741394
-1.754544
-1.770357
-1.700078
-1.704915
-1.710368
-1.716612
-1.723909
-1.732634
-1.743394
-1.75721
-1.774593
-1.696503
-1.700937
-1.705881
-1.711467
-1.717884
-1.725386
-1.734375
-1.74555
-1.760089
-1.77928
-1.693039
-1.69712
-1.701627
-1.706659
-1.712355
-1.718892
-1.726536
-1.735738
-1.747225
-1.762296
-1.784301
-1.689654
-1.693424
-1.697551
-1.702112
-1.70721
-1.712971
-1.719576
-1.727324
-1.736665
-1.748351
-1.764546
-1.788386
-1.686373
-1.68987
-1.693668
-1.697829
-1.702431
-1.707563
-1.713353
-1.720009
-1.727822
-1.737249
-1.749573
-1.766227
-1.791759
-1.68321
-1.686468
-1.689983
-1.693803
-1.697988
-1.702606
-1.707746
-1.713559
-1.720243
-1.728092
-1.737944
-1.750428
-1.767564
-1.794676
-1.680164
-1.68321
-1.686479
-1.690006
-1.693841
-1.698032
-1.702645
-1.707791
-1.713611
-1.720305
-1.72846
-1.738363
-1.751068
-1.768656
-1.797378
-1.67722
-1.68008
-1.683132
-1.686407
-1.689941
-1.693773
-1.697951
-1.702559
-1.707699
-1.713511
-1.720437
-1.728596
-1.73862
-1.751543
-1.769595
-1.800815
-1.674359
-1.677051
-1.679912
-1.682964
-1.68624
-1.689765
-1.693577
-1.697741
-1.702331
-1.707451
-1.713447
-1.720356
-1.728594
-1.738753
-1.751926
-1.77083
-1.803814
-1.671553
-1.674094
-1.676783
-1.679638
-1.682685
-1.685944
-1.689443
-1.693232
-1.697369
-1.701928
-1.707195
-1.713165
-1.720131
-1.728476
-1.738837
-1.752611
-1.772119
-1.807008
-1.66878
-1.671183
-1.673715
-1.676392
-1.679235
-1.682259
-1.685485
-1.688952
-1.692706
-1.6968
-1.701474
-1.706694
-1.712679
-1.719707
-1.72825
-1.739441
-1.753496
-1.773615
-1.810235
-1.666057
-1.668333
-1.670723
-1.673239
-1.6759
-1.678715
-1.681701
-1.684889
-1.688314
-1.692017
-1.696192
-1.700755
-1.705837
-1.711563
-1.718096
-1.663497
-1.665663
-1.667928
-1.670306
-1.672809
-1.675447
-1.678231
-1.681187
-1.684341
-1.687726
-1.691507
-1.695581
-1.700045
-1.704984
-1.710514
-1.661135
-1.663204
-1.665364
-1.667623
-1.669994
-1.672482
-1.675097
-1.67786
-1.680794
-1.683922
-1.687389
-1.69109
-1.695102
-1.699488
-1.704331
-1.658961
-1.660948
-1.663016
-1.665174
-1.667432
-1.669794
-1.672267
-1.674871
-1.677621
-1.680539
-1.683753
-1.687159
-1.690821
-1.694785
-1.699116
-1.656956
-1.658872
-1.660861
-1.662932
-1.665094
-1.667348
-1.669702
-1.672171
-1.674769
-1.677513
-1.68052
-1.683686
-1.687066
-1.690698
-1.69463
-1.71369
-1.720456
-1.728472
-1.738233
-1.750373
-1.763959
-1.708093
-1.713989
-1.720825
-1.728937
-1.73884
-1.751179
-1.765133
-1.703358
-1.708608
-1.714594
-1.721549
-1.729824
-1.739938
-1.75261
-1.767329
-1.699289
-1.704043
-1.709393
-1.715506
-1.722627
-1.73111
-1.74151
-1.754702
-1.770594
-1.695723
-1.700085
-1.70494
-1.710414
-1.716687
-1.723999
-1.732727
-1.743515
-1.75738
-1.774869
-1.692473
-1.696508
-1.700958
-1.705921
-1.711532
-1.71796
-1.725463
-1.734472
-1.74568
-1.760279
-1.780922
-1.689298
-1.693042
-1.697137
-1.701661
-1.706715
-1.71242
-1.718955
-1.726613
-1.735836
-1.747358
-1.763275
-1.786351
-1.686172
-1.689655
-1.693438
-1.697581
-1.70216
-1.707266
-1.713024
-1.719639
-1.727401
-1.736763
-1.749003
-1.765539
-1.790753
-1.683122
-1.686373
-1.689882
-1.693695
-1.697872
-1.702479
-1.707608
-1.713405
-1.720071
-1.727898
-1.737723
-1.750179
-1.76728
-1.794302
-1.680164
-1.68321
-1.686479
-1.690006
-1.693841
-1.698032
-1.702645
-1.707791
-1.713611
-1.720305
-1.72846
-1.738363
-1.751068
-1.768656
-1.797378
-1.6773
-1.680164
-1.683221
-1.686501
-1.690041
-1.69388
-1.698067
-1.702685
-1.707836
-1.713663
-1.720606
-1.728779
-1.738816
-1.751749
-1.769803
-1.800993
-1.674519
-1.67722
-1.68009
-1.683152
-1.686439
-1.689977
-1.693805
-1.697987
-1.702599
-1.707744
-1.713768
-1.720701
-1.728958
-1.739127
-1.752293
-1.771124
-1.803938
-1.671805
-1.674359
-1.67706
-1.679931
-1.682995
-1.686273
-1.689794
-1.69361
-1.697777
-1.702373
-1.707678
-1.713681
-1.720675
-1.729028
-1.739357
-1.75297
-1.77233
-1.806843
-1.669133
-1.671553
-1.674103
-1.676801
-1.679667
-1.682716
-1.685972
-1.689473
-1.693266
-1.697407
-1.702135
-1.707416
-1.713468
-1.720548
-1.729054
-1.739783
-1.753659
-1.773636
-1.80973
-1.666484
-1.66878
-1.671191
-1.673732
-1.676419
-1.679265
-1.682285
-1.685513
-1.688984
-1.69274
-1.696988
-1.701673
-1.70697
-1.713079
-1.720326
-1.729475
-1.740353
-1.754507
-1.774942
-1.812463
-1.663876
-1.666057
-1.668341
-1.670739
-1.673264
-1.675927
-1.678739
-1.681726
-1.684917
-1.688344
-1.692177
-1.696324
-1.70089
-1.705964
-1.711653
-1.661417
-1.663498
-1.66567
-1.667943
-1.670329
-1.672835
-1.675469
-1.678254
-1.681212
-1.684368
-1.687868
-1.691609
-1.695669
-1.700112
-1.705022
-1.659141
-1.661135
-1.663212
-1.665378
-1.667645
-1.670018
-1.672503
-1.675119
-1.677884
-1.680818
-1.684051
-1.687477
-1.691162
-1.695155
-1.699517
-1.657043
-1.658961
-1.660954
-1.66303
-1.665195
-1.667455
-1.669813
-1.672288
-1.674892
-1.677644
-1.680658
-1.683833
-1.687223
-1.690866
-1.69481
-1.655103
-1.656956
-1.658878
-1.660874
-1.662952
-1.665115
-1.667367
-1.669721
-1.672191
-1.67479
-1.677624
-1.680592
-1.683742
-1.687105
-1.690718
-1.707843
-1.713706
-1.720498
-1.728549
-1.738361
-1.750545
-1.764158
-1.702907
-1.708105
-1.714024
-1.720888
-1.72904
-1.73897
-1.751325
-1.765336
-1.698677
-1.703368
-1.708638
-1.714648
-1.721634
-1.729929
-1.740051
-1.752761
-1.767544
-1.695002
-1.699296
-1.704068
-1.709439
-1.715579
-1.722715
-1.7312
-1.741626
-1.75486
-1.770831
-1.691755
-1.695729
-1.700106
-1.70498
-1.710478
-1.716762
-1.724074
-1.73282
-1.743636
-1.757551
-1.776217
-1.688773
-1.692477
-1.696526
-1.700993
-1.705978
-1.711598
-1.718024
-1.725541
-1.73457
-1.74581
-1.761214
-1.7828
-1.685839
-1.6893
-1.693057
-1.697168
-1.70171
-1.706771
-1.712474
-1.719019
-1.726691
-1.735935
-1.748011
-1.76429
-1.788791
-1.682933
-1.686173
-1.689668
-1.693465
-1.697624
-1.702209
-1.707311
-1.713077
-1.719702
-1.727478
-1.737242
-1.749631
-1.766639
-1.793424
-1.68008
-1.683122
-1.686385
-1.689906
-1.693734
-1.697916
-1.702519
-1.707653
-1.713458
-1.720133
-1.728269
-1.738151
-1.750837
-1.768404
-1.797084
-1.6773
-1.680164
-1.683221
-1.686501
-1.690041
-1.69388
-1.698067
-1.702685
-1.707836
-1.713663
-1.720606
-1.728779
-1.738816
-1.751749
-1.769803
-1.800993
-1.674595
-1.677299
-1.680173
-1.683241
-1.686533
-1.690077
-1.693912
-1.698102
-1.702724
-1.707882
-1.713918
-1.720861
-1.729127
-1.739302
-1.752466
-1.771274
-1.80402
-1.671958
-1.674519
-1.677229
-1.680108
-1.683182
-1.686472
-1.690007
-1.693837
-1.698023
-1.70264
-1.707967
-1.713988
-1.720994
-1.729351
-1.739668
-1.753225
-1.772518
-1.806817
-1.669374
-1.671805
-1.674367
-1.677078
-1.679959
-1.683026
-1.686301
-1.689825
-1.693643
-1.697814
-1.702573
-1.707879
-1.71395
-1.721031
-1.729502
-1.740099
-1.753874
-1.773753
-1.809481
-1.666823
-1.669133
-1.671561
-1.67412
-1.676828
-1.679696
-1.682742
-1.686
-1.689505
-1.693301
-1.697592
-1.702327
-1.707677
-1.713822
-1.721026
-1.72979
-1.740525
-1.7546
-1.774949
-1.811985
-1.664285
-1.666484
-1.668788
-1.671207
-1.673758
-1.676447
-1.679289
-1.682312
-1.685542
-1.689016
-1.69291
-1.697163
-1.701915
-1.707316
-1.713607
-1.721334
-1.730188
-1.741089
-1.755347
-1.776044
-1.814245
-1.66178
-1.663876
-1.666064
-1.668356
-1.670762
-1.67329
-1.675949
-1.678763
-1.681752
-1.684945
-1.68849
-1.692292
-1.69644
-1.700996
-1.706033
-1.659412
-1.661417
-1.663505
-1.665684
-1.667965
-1.670354
-1.672856
-1.675491
-1.678278
-1.681237
-1.684498
-1.687958
-1.691684
-1.695724
-1.700138