/*--------------------------------*- C++ -*----------------------------------*\
| =========                 |                                                 |
| \\      /  F ield         | OpenFOAM: The Open Source CFD Toolbox           |
|  \\    /   O peration     | Version:  2306                                  |
|   \\  /    A nd           | Website:  www.openfoam.com                      |
|    \\/     M anipulation  |                                                 |
\*---------------------------------------------------------------------------*/
FoamFile
{
    version     2.0;
    format      ascii;
    arch        "LSB;label=32;scalar=64";
    class       volScalarField;
    location    "1.5/fuel";
    object      p;
}
// * * * * * * * * * * * * * * * * * * * * * * * * * * * * * * * * * * * * * //

dimensions      [1 -1 -2 0 0 0 0];

internalField   nonuniform List<scalar> 
16000
(
100568.4
100561.5
100475.5
100549.8
100549.1
100468.5
100542.6
100401.7
100460.1
100509.4
100527.3
100455.5
100529.7
100395.4
100452.9
100501.6
100346
100388.8
100426.3
100462.5
100507
100433.4
100507
100383.6
100439.6
100487.4
100340.3
100382.4
100418.7
100453.9
100303.7
100334.9
100360.5
100387.1
100364.8
100465.8
100410.8
100485.5
100363.7
100416.9
100462.7
100329.8
100370.3
100404.7
100438.3
100298.6
100329.2
100353.8
100379.1
100354.8
100270.3
100294
100310.7
100327.7
100305.6
100346.1
100458.9
100370.7
100443
100343
100393.7
100438.7
100312.3
100350.1
100380.9
100411.4
100289.2
100318.5
100341.3
100364.3
100336.1
100265.7
100288.9
100304.8
100320.7
100296.7
100335.8
100243.3
100261.8
100272.9
100282.5
100259.2
100290
100340.2
100453.3
100359.8
100435.1
100307.7
100352.9
100393.3
100293.8
100329
100356.4
100384.4
100273.6
100300.7
100320.3
100339.2
100304.6
100257.3
100279.4
100293.7
100307.5
100280
100316.6
100239.2
100257.2
100267.7
100276.4
100251.6
100280.9
100329.8
100221
100235.7
100243.1
100248.3
100223.8
100246.1
100285
100330.1
100452.8
100351.7
100428.9
100297.1
100341.6
100383.3
100263
100293.2
100314.1
100335.6
100257
100281.9
100298.2
100313
100271.5
100243.2
100263.6
100275.3
100285.7
100252.3
100284.2
100231.5
100248.6
100257.8
100264.9
100237.2
100263.9
100310.3
100217.2
100231.5
100238.4
100242.9
100217.2
100238.4
100275.9
100319.6
100202.2
100214.1
100219
100221.3
100197.1
100212.6
100242
100276.7
100321.8
100452.6
100349.2
100428
100289.3
100333.2
100375.7
100253.2
100282.3
100301.7
100323.2
100229.9
100250.8
100261.5
100269
100215.7
100228.3
100246.8
100255.9
100262.6
100222.8
100249.9
100218.8
100234.4
100241.6
100245.9
100213.6
100235.7
100277.7
100210.2
100223.8
100229.5
100232.8
100204.9
100223.8
100258.8
100299.9
100198.7
100210.3
100214.7
100216.5
100191.3
100205.9
100234.2
100267.5
100311.1
100186.1
100195.9
100199
100199.5
100176
100187.3
100209
100235
100269.7
100311.4
100452.6
100348.1
100427.7
100286.6
100330.5
100374.1
100246.2
100274.3
100292.6
100314.1
100221.1
100240.9
100249.9
100255.4
100198.2
100204.1
100219.4
100224
100224.7
100175.1
100192.8
100205.3
100219.3
100224.3
100225.7
100188.3
100205.6
100243
100198.6
100210.9
100215
100216
100184.5
100199.8
100230.4
100266.7
100192.3
100203.2
100206.8
100207.4
100180.5
100193.4
100219.5
100250.2
100291.1
100182.9
100192.5
100195.2
100195.2
100170.8
100181.4
100202.3
100227.1
100260.4
100300.5
100172.2
100180.4
100182.2
100181.5
100159
100167.3
100184.2
100203
100229.1
100261
100284.9
100452.8
100348.1
100427.7
100285.4
100329.4
100373.4
100243.6
100271.6
100289.7
100311.7
100214.7
100233.7
100241.6
100245.7
100185.9
100196.1
100210.4
100213.7
100212.4
100159.1
100174.3
100183.5
100194.9
100196.3
100193
100148
100157.2
100185.4
100186.2
100197.3
100199.5
100198.1
100162.7
100174
100200.1
100231.4
100181.6
100191.5
100193.6
100192.5
100162.7
100172.8
100195.4
100221.5
100257.5
100177
100186
100187.9
100187
100161.2
100170.5
100189.7
100212.3
100243
100280.2
100169.2
100177.2
100178.7
100177.5
100154.4
100162.1
100178.3
100196.3
100221.2
100251.6
100273.7
100160
100166.9
100167.9
100166.3
100144.8
100151.2
100164.5
100178.9
100198
100221.8
100239
100291.1
100453.3
100349.2
100428
100285.4
100329.4
100373.4
100242.4
100270.3
100288.4
100310.6
100212.3
100231
100238.6
100242.3
100181.7
100190.3
100203.9
100206.2
100203.6
100147.9
100161.4
100176.2
100186.8
100187
100182.1
100134.2
100140.7
100166.7
100166.5
100175.3
100174.7
100169.5
100128.3
100133.3
100151.4
100173
100170.3
100179.1
100179.6
100176.5
100143.6
100150.6
100169.5
100190.8
100221.6
100167.2
100175.3
100176
100173.6
100145.5
100152.5
100169
100188
100214.1
100246.1
100163.7
100171.2
100172.1
100170.1
100145.7
100152.4
100167.3
100183.6
100206.3
100234
100252.6
100157.2
100164
100164.6
100162.7
100140.7
100146.6
100159.3
100173
100191.2
100213.8
100229.4
100280
100149.2
100155.2
100155.4
100153.3
100133
100137.8
100148.7
100159.9
100174.5
100191.8
100203.3
100244.1
100281
100458.9
100351.7
100428.9
100286.6
100330.5
100374.1
100242.4
100270.3
100288.4
100310.6
100211.2
100229.9
100237.3
100240.8
100179.8
100188.1
100201.5
100203.5
100200.5
100143.8
100156.9
100170.9
100180.9
100180.4
100174.4
100124.6
100129.2
100153.6
100159.8
100167.9
100166.3
100159.9
100116.4
100119.3
100134.8
100153.7
100152.3
100159.2
100157.4
100151.2
100113.7
100115.9
100128.6
100141.7
100162.5
100156.7
100163.8
100163.2
100159.2
100128.5
100133.1
100146.8
100161.9
100183.1
100209.5
100154.6
100161.3
100161.1
100157.9
100131.6
100136.5
100149.2
100162.7
100181.8
100204.8
100217.2
100152.1
100158.4
100158.5
100155.9
100132.9
100137.8
100149.6
100161.9
100178.4
100198.8
100211.2
100258.9
100146.6
100152.4
100152.4
100149.9
100129.2
100133.6
100144.1
100154.7
100168.6
100184.9
100195.2
100234.5
100269.6
100139.6
100144.7
100144.5
100142
100122.8
100126.6
100135.6
100144.6
100156
100169.1
100175.9
100207.7
100235.7
100278.8
100465.8
100359.8
100435.1
100289.3
100333.2
100375.7
100243.6
100271.6
100289.7
100311.7
100211.2
100229.9
100237.3
100240.8
100179.8
100187.1
100200.4
100202.3
100199
100141.9
100154.8
100168.9
100178.7
100177.9
100171.5
100120.9
100124.9
100148.9
100155
100162.6
100160.3
100153.1
100108.1
100109.4
100123.3
100140.3
100146.1
100152.4
100149.8
100142.5
100103.3
100103.8
100114.5
100124.9
100142.9
100140.2
100145.7
100143.1
100136.5
100102.2
100103
100112
100120.7
100133.6
100149.4
100145
100150.8
100149.5
100144.8
100116.5
100119.4
100129.8
100140.3
100155.5
100173.4
100179
100143.7
100149.3
100148.4
100144.7
100120.1
100123.6
100133.6
100143.8
100157.5
100174.1
100181.4
100223.3
100141.9
100147.2
100146.7
100143.7
100122.1
100125.7
100135.3
100144.8
100157.4
100172
100179.9
100216.5
100248.1
100137.2
100142.2
100141.7
100138.9
100119.3
100122.8
100131.4
100139.9
100150.8
100163.1
100169
100199.5
100226
100267.4
100130.9
100135.4
100134.8
100132.1
100113.9
100116.9
100124.6
100131.8
100141.1
100151.2
100155.3
100179.6
100200.6
100233.9
100276.5
100507
100370.7
100443
100297.1
100341.6
100383.3
100246.2
100274.3
100292.6
100314.1
100212.3
100231
100238.6
100242.3
100181.7
100187.1
100200.4
100202.3
100199
100141.9
100154.8
100168
100177.7
100176.8
100170.2
100119.3
100123
100146.8
100153.2
100160.6
100158.1
100150.5
100104.9
100105.7
100118.9
100135.5
100141.7
100147.6
100144.4
100136.4
100096
100095.4
100104.6
100113.2
100129.2
100134.5
100139.5
100136.2
100128.7
100093
100092.5
100099.8
100106.4
100116.5
100129.3
100129.7
100134.1
100131.1
100124.3
100092.9
100092.8
100099.6
100105.3
100114
100123.3
100117.2
100134.7
100139.5
100137.7
100132.8
100106.4
100108.3
100116.4
100124.2
100134.9
100147.6
100149.1
100185
100134
100138.8
100137.5
100133.5
100110.5
100112.9
100121
100128.8
100139.2
100150.9
100154.7
100186.3
100210.9
100132.7
100137.3
100136.4
100133.1
100112.8
100115.6
100123.5
100131.1
100140.9
100151.9
100155.8
100184.2
100207.6
100245.6
100128.7
100133
100132.2
100129.2
100110.7
100113.4
100120.7
100127.6
100136.4
100145.9
100149.2
100172.7
100192.4
100224.1
100264.9
100123.1
100127.1
100126.2
100123.3
100106.1
100108.5
100115.1
100121.1
100128.7
100136.8
100139
100158.5
100173.6
100199.1
100232
100527.3
100410.8
100485.5
100307.7
100352.9
100393.3
100253.2
100282.3
100301.7
100323.2
100214.7
100233.7
100241.6
100245.7
100185.9
100188.1
100201.5
100203.5
100200.5
100143.8
100156.9
100168
100177.7
100176.8
100170.2
100119.3
100123
100146.8
100152.3
100159.7
100157.1
100149.3
100103.5
100104
100117
100133.4
100140
100145.7
100142.3
100134.1
100093.2
100092.2
100100.9
100108.8
100124.3
100130.4
100135
100131.3
100123.2
100086.5
100085.1
100091.3
100096.5
100104.7
100115.3
100124.4
100128.4
100124.8
100117.3
100084.7
100083.5
100089
100093
100099.6
100106.1
100095.6
100120.5
100124.2
100120.9
100114.2
100085.2
100084.6
100089.8
100093.8
100099.6
100105.7
100098.2
100119
100125.6
100129.7
100127.5
100122.5
100098
100099.1
100105.7
100111.5
100119.5
100128.2
100127.6
100153.8
100171.1
100125.4
100129.4
100127.8
100123.7
100102.1
100103.9
100110.6
100116.7
100124.7
100133.5
100134.4
100158.8
100176.3
100207.3
100124.5
100128.5
100127.3
100123.9
100104.7
100106.8
100113.5
100119.7
100127.6
100136
100137.8
100159.6
100176.8
100205.6
100243
100121
100124.8
100123.8
100120.7
100103.2
100105.3
100111.6
100117.3
100124.5
100132.1
100133.6
100152.5
100166.6
100190.8
100222.1
100116
100119.5
100118.5
100115.5
100099.2
100101.2
100106.8
100111.9
100118.3
100124.8
100125.8
100141.8
100153.2
100172.3
100197.5
100549.1
100433.4
100507
100343
100393.7
100438.7
100263
100293.2
100314.1
100335.6
100221.1
100240.9
100249.9
100255.4
100198.2
100190.3
100203.9
100206.2
100203.6
100147.9
100161.4
100168.9
100178.7
100177.9
100171.5
100120.9
100124.9
100148.9
100152.3
100159.7
100157.1
100149.3
100103.5
100104
100117
100133.4
100139.3
100144.9
100141.4
100133
100092
100090.7
100099.2
100106.8
100122.1
100128.8
100133.3
100129.4
100121.1
100084.1
100082.3
100088.1
100092.7
100100.3
100110.2
100120.7
100124.3
100120.3
100112.3
100079
100077
100081.7
100084.5
100089.6
100094.1
100080.8
100115.6
100118.9
100115
100107.7
100077.8
100076.3
100080.5
100083.2
100087.3
100091.1
100080.2
100098.9
100112.4
100115.5
100112
100105.4
100078.8
100077.8
100082
100084.7
100089
100092.6
100085.2
100099.4
100092.9
100117.5
100121
100118.6
100113.6
100090.7
100091.3
100096.7
100101.3
100107.4
100113.7
100111.2
100131.5
100142.7
100166.3
100117.6
100121.1
100119.3
100115.1
100094.9
100096.1
100101.8
100106.7
100113.1
100119.7
100119.2
100137.9
100150.5
100173.3
100203.1
100117.1
100120.6
100119.2
100115.7
100097.6
100099.3
100105
100110.1
100116.5
100123.2
100123.5
100141
100153.2
100175.1
100203.4
100114
100117.4
100116.2
100113
100096.5
100098.2
100103.6
100108.4
100114.4
100120.5
100121.1
100136.5
100147.1
100165.2
100189.1
100109.5
100112.6
100111.4
100108.4
100093.1
100094.6
100099.6
100104
100109.3
100114.7
100114.9
100128.4
100137.2
100152.1
100170.9
100561.5
100455.5
100529.7
100363.7
100416.9
100462.7
100293.8
100329
100356.4
100384.4
100229.9
100250.8
100261.5
100269
100215.7
100196.1
100210.4
100213.7
100212.4
100159.1
100174.3
100170.9
100180.9
100180.4
100174.4
100124.6
100129.2
100153.6
100153.2
100160.6
100158.1
100150.5
100104.9
100105.7
100118.9
100135.5
100139.3
100144.9
100141.4
100133
100092
100090.7
100099.2
100106.8
100122.1
100128.1
100132.5
100128.5
100120.1
100083
100081
100086.7
100091
100098.3
100107.9
100119.2
100122.8
100118.5
100110.3
100076.7
100074.5
100078.8
100081.2
100085.8
100089.6
100075.1
100112.1
100115.1
100110.9
100103.1
100072.6
100070.5
100074
100075.8
100078.8
100081.1
100067.9
100085.1
100107.9
100110.5
100106.6
100099.5
100072
100070.3
100073.6
100075.3
100078.3
100080.2
100070.2
100082.7
100075.5
100105.2
100107.8
100104.3
100097.9
100073.2
100072
100075.4
100077.4
100080.5
100082.9
100075.3
100086.2
100078.8
100075
100110.2
100113.2
100110.7
100105.8
100084.4
100084.6
100089.2
100092.8
100097.6
100102.3
100099.1
100114.5
100122.3
100138.9
100160.8
100110.6
100113.7
100111.7
100107.5
100088.6
100089.4
100094.2
100098.3
100103.5
100108.7
100107.1
100122.2
100130.8
100148.1
100169.9
100110.3
100113.4
100111.9
100108.4
100091.3
100092.6
100097.5
100101.8
100107.2
100112.5
100112.1
100126.4
100135.5
100151.8
100173.3
100107.6
100110.6
100109.3
100106.1
100090.5
100091.8
100096.6
100100.7
100105.8
100110.9
100110.6
100123.6
100131.8
100146
100163.8
100103.5
100106.3
100105
100102.1
100087.5
100088.8
100093.2
100096.9
100101.6
100106.1
100105.8
100117.3
100124.2
100136.2
100150.9
100568.4
100468.5
100542.6
100383.6
100439.6
100487.4
100312.3
100350.1
100380.9
100411.4
100257
100281.9
100298.2
100313
100271.5
100204.1
100219.4
100224
100224.7
100175.1
100192.8
100176.2
100186.8
100187
100182.1
100134.2
100140.7
100166.7
100155
100162.6
100160.3
100153.1
100108.1
100109.4
100123.3
100140.3
100140
100145.7
100142.3
100134.1
100093.2
100092.2
100100.9
100108.8
100124.3
100128.1
100132.5
100128.5
100120.1
100083
100081
100086.7
100091
100098.3
100107.9
100118.5
100122
100117.8
100109.5
100075.7
100073.4
100077.5
100079.8
100084.1
100087.6
100072.6
100110.8
100113.6
100109.3
100101.4
100070.6
100068.3
100071.5
100072.9
100075.5
100077.2
100063.1
100080.2
100104.6
100107
100102.8
100095.3
100067.3
100065
100067.8
100068.8
100070.9
100071.6
100059.9
100071.1
100063.8
100100.9
100103.1
100099.2
100092.4
100067
100065.2
100067.8
100069.1
100071
100072.1
100062.6
100072.1
100064.4
100061.2
100098.7
100100.9
100097.4
100091.2
100068.3
100067
100069.8
100071.3
100073.7
100075.1
100068
100076.1
100069.2
100064.5
100029.4
100103.7
100106.2
100103.7
100098.8
100078.8
100078.8
100082.7
100085.6
100089.5
100093.1
100089.4
100101.9
100106.8
100119.1
100134.4
100104.2
100106.9
100104.9
100100.8
100082.9
100083.5
100087.7
100091
100095.3
100099.5
100097.4
100109.8
100116.1
100128.7
100145.3
100104.1
100106.9
100105.3
100101.8
100085.7
100086.6
100091
100094.6
100099.1
100103.6
100102.5
100114.6
100121.5
100134.3
100150.3
100101.8
100104.4
100103
100099.9
100085.1
100086.2
100090.4
100093.9
100098.3
100102.5
100101.9
100113
100119.4
100130.8
100144.7
100098
100100.5
100099.2
100096.2
100082.4
100083.5
100087.4
100090.7
100094.7
100098.6
100097.9
100107.9
100113.5
100123.4
100135.1
100475.5
100549.8
100395.4
100452.9
100501.6
100329.8
100370.3
100404.7
100438.3
100273.6
100300.7
100320.3
100339.2
100304.6
100228.3
100246.8
100255.9
100262.6
100222.8
100249.9
100183.5
100194.9
100196.3
100193
100148
100157.2
100185.4
100159.8
100167.9
100166.3
100159.9
100116.4
100119.3
100134.8
100153.7
100141.7
100147.6
100144.4
100136.4
100096
100095.4
100104.6
100113.2
100129.2
100128.8
100133.3
100129.4
100121.1
100084.1
100082.3
100088.1
100092.7
100100.3
100110.2
100118.5
100122
100117.8
100109.5
100075.7
100073.4
100077.5
100079.8
100084.1
100087.6
100072.6
100110.1
100113
100108.6
100100.6
100069.7
100067.3
100070.3
100071.6
100074
100075.5
100061
100077.9
100103.3
100105.6
100101.3
100093.7
100065.5
100063
100065.6
100066.3
100068
100068.3
100055.9
100066.9
100059.7
100097.9
100099.9
100095.7
100088.5
100062.7
100060.4
100062.6
100063.2
100064.5
100064.7
100053.8
100062.5
100054.7
100052
100094.7
100096.6
100092.7
100086.1
100062.6
100060.7
100063
100063.8
100065.2
100065.7
100057
100064.2
100057.3
100053.2
100028.6
100092.9
100094.7
100091.2
100085.3
100063.9
100062.6
100065
100066.2
100067.9
100068.9
100062.1
100068.7
100061.9
100057.5
100028.3
100028.5
100097.7
100099.9
100097.4
100092.6
100073.9
100073.7
100077
100079.4
100082.6
100085.4
100081.6
100091.9
100095.2
100104.1
100115.5
100098.4
100100.7
100098.7
100094.6
100077.8
100078.2
100081.9
100084.7
100088.3
100091.7
100089.3
100099.8
100104.4
100114.3
100126.4
100098.4
100100.9
100099.2
100095.8
100080.6
100081.3
100085.2
100088.3
100092.2
100095.9
100094.5
100104.8
100110.3
100120.4
100133
100096.3
100098.7
100097.3
100094.2
100080.2
100081
100084.8
100087.9
100091.7
100095.3
100094.3
100104
100109.1
100118.5
100129.6
100092.9
100095.2
100093.8
100090.9
100077.8
100078.6
100082.2
100085.1
100088.6
100091.9
100091
100099.8
100104.5
100112.7
100122.4
100401.7
100460.1
100509.4
100340.3
100382.4
100418.7
100453.9
100289.2
100318.5
100341.3
100364.3
100336.1
100243.2
100263.6
100275.3
100285.7
100252.3
100284.2
100205.3
100219.3
100224.3
100225.7
100188.3
100205.6
100243
100166.5
100175.3
100174.7
100169.5
100128.3
100133.3
100151.4
100173
100146.1
100152.4
100149.8
100142.5
100103.3
100103.8
100114.5
100124.9
100142.9
100130.4
100135
100131.3
100123.2
100086.5
100085.1
100091.3
100096.5
100104.7
100115.3
100119.2
100122.8
100118.5
100110.3
100076.7
100074.5
100078.8
100081.2
100085.8
100089.6
100075.1
100110.1
100113
100108.6
100100.6
100069.7
100067.3
100070.3
100071.6
100074
100075.5
100061
100077.9
100102.8
100105
100100.6
100092.9
100064.6
100062.1
100064.5
100065.2
100066.7
100066.8
100054.1
100065
100058
100096.7
100098.6
100094.3
100087
100061
100058.6
100060.6
100061
100062
100061.8
100050.5
100058.9
100051.4
100049.2
100091.9
100093.5
100089.4
100082.5
100058.6
100056.4
100058.2
100058.5
100059.4
100059.1
100049.4
100056
100049.2
100045.7
100028.4
100089.1
100090.6
100086.9
100080.6
100058.7
100056.9
100058.7
100059.3
100060.4
100060.5
100052.4
100058.4
100051.8
100048.1
100027.7
100028.4
100087.5
100089.1
100085.7
100080
100060.1
100058.7
100060.8
100061.7
100063.1
100063.7
100057.3
100062.7
100056.4
100052
100027.8
100027.6
100028.4
100092.2
100094.2
100091.6
100087
100069.4
100069.1
100072
100074.1
100076.7
100078.9
100075.1
100083.8
100086
100092.9
100101
100093
100095.1
100093
100089.1
100073.2
100073.4
100076.7
100079.1
100082.2
100085
100082.5
100091.5
100095
100102.8
100112.2
100093.2
100095.4
100093.7
100090.3
100075.9
100076.5
100079.9
100082.7
100086
100089.1
100087.5
100096.6
100100.9
100109.3
100119.3
100091.3
100093.5
100092
100089
100075.7
100076.4
100079.8
100082.5
100085.8
100088.9
100087.7
100096.2
100100.5
100108.3
100117.5
100088.1
100090.2
100088.8
100086
100073.5
100074.2
100077.4
100080
100083.2
100086.1
100085
100092.8
100096.7
100103.7
100111.9
100346
100388.8
100426.3
100462.5
100298.6
100329.2
100353.8
100379.1
100354.8
100257.3
100279.4
100293.7
100307.5
100280
100316.6
100218.8
100234.4
100241.6
100245.9
100213.6
100235.7
100277.7
100186.2
100197.3
100199.5
100198.1
100162.7
100174
100200.1
100231.4
100152.3
100159.2
100157.4
100151.2
100113.7
100115.9
100128.6
100141.7
100162.5
100134.5
100139.5
100136.2
100128.7
100093
100092.5
100099.8
100106.4
100116.5
100129.3
100120.7
100124.3
100120.3
100112.3
100079
100077
100081.7
100084.5
100089.6
100094.1
100080.8
100110.8
100113.6
100109.3
100101.4
100070.6
100068.3
100071.5
100072.9
100075.5
100077.2
100063.1
100080.2
100102.8
100105
100100.6
100092.9
100064.6
100062.1
100064.5
100065.2
100066.7
100066.8
100054.1
100065
100058
100096.2
100098
100093.7
100086.3
100060.2
100057.8
100059.7
100060
100060.9
100060.5
100048.9
100057.3
100049.9
100048
100090.7
100092.3
100088.1
100081.1
100057.1
100054.7
100056.4
100056.5
100057.2
100056.6
100046.5
100053
100046.4
100043.4
100028.4
100086.4
100087.8
100083.8
100077.2
100055
100052.9
100054.4
100054.5
100055.1
100054.6
100045.8
100051.3
100044.9
100041.9
100027.6
100028.3
100084
100085.3
100081.6
100075.6
100055.2
100053.4
100055
100055.4
100056.2
100056.1
100048.7
100053.6
100047.7
100044
100027.3
100027.5
100028.4
100082.6
100084
100080.7
100075.3
100056.6
100055.2
100057
100057.7
100058.9
100059.2
100053.2
100057.9
100051.9
100047.9
100027
100027.2
100027.6
100028.4
100087.1
100088.9
100086.4
100081.9
100065.4
100065
100067.6
100069.3
100071.5
100073.3
100069.6
100077.1
100078.6
100084
100090.2
100088
100089.9
100087.8
100084
100069.1
100069.1
100072
100074.2
100076.9
100079.2
100076.6
100084.4
100087.1
100093.6
100101
100088.3
100090.3
100088.6
100085.3
100071.7
100072.1
100075.2
100077.6
100080.6
100083.2
100081.5
100089.5
100093
100100
100108.3
100086.6
100088.6
100087.1
100084.1
100071.5
100072.1
100075.2
100077.6
100080.6
100083.3
100081.9
100089.5
100093.1
100099.8
100107.4
100083.7
100085.6
100084.2
100081.4
100069.6
100070.2
100073.1
100075.4
100078.2
100080.8
100079.6
100086.6
100089.9
100096
100103
100303.7
100334.9
100360.5
100387.1
100364.8
100265.7
100288.9
100304.8
100320.7
100296.7
100335.8
100231.5
100248.6
100257.8
100264.9
100237.2
100263.9
100310.3
100198.6
100210.9
100215
100216
100184.5
100199.8
100230.4
100266.7
100170.3
100179.1
100179.6
100176.5
100143.6
100150.6
100169.5
100190.8
100221.6
100140.2
100145.7
100143.1
100136.5
100102.2
100103
100112
100120.7
100133.6
100149.4
100124.4
100128.4
100124.8
100117.3
100084.7
100083.5
100089
100093
100099.6
100106.1
100095.6
100112.1
100115.1
100110.9
100103.1
100072.6
100070.5
100074
100075.8
100078.8
100081.1
100067.9
100085.1
100103.3
100105.6
100101.3
100093.7
100065.5
100063
100065.6
100066.3
100068
100068.3
100055.9
100066.9
100059.7
100096.2
100098
100093.7
100086.3
100060.2
100057.8
100059.7
100060
100060.9
100060.5
100048.9
100057.3
100049.9
100048
100090.2
100091.8
100087.5
100080.5
100056.4
100054
100055.6
100055.6
100056.2
100055.5
100045.2
100051.6
100045.2
100042.3
100028.4
100085.3
100086.7
100082.6
100075.9
100053.6
100051.3
100052.7
100052.7
100053.1
100052.4
100043.2
100048.7
100042.5
100039.9
100027.6
100028.3
100081.4
100082.6
100078.7
100072.5
100051.8
100049.7
100051.1
100051
100051.5
100050.8
100042.8
100047.4
100041.8
100038.8
100027.2
100027.5
100028.4
100079.2
100080.4
100076.8
100071.1
100052
100050.3
100051.7
100052
100052.6
100052.3
100045.5
100049.8
100044.3
100041
100026.6
100027.1
100027.5
100028.4
100078.1
100079.3
100076.1
100070.9
100053.4
100052.1
100053.7
100054.2
100055.2
100055.3
100049.8
100053.8
100048.3
100044.5
100026.4
100026.5
100027.2
100027.5
100028.4
100082.5
100084
100081.6
100077.3
100061.7
100061.2
100063.6
100065
100067
100068.4
100064.8
100071.4
100072.4
100076.8
100081.6
100083.4
100085.1
100083.1
100079.4
100065.2
100065.2
100067.8
100069.7
100072.1
100074
100071.4
100078.4
100080.5
100085.9
100092
100083.7
100085.6
100083.9
100080.7
100067.8
100068.1
100070.9
100073
100075.7
100078
100076.2
100083.3
100086.2
100092.2
100099.1
100082.2
100084
100082.6
100079.7
100067.7
100068.2
100071
100073.1
100075.8
100078.2
100076.8
100083.6
100086.6
100092.4
100098.9
100079.5
100081.2
100079.9
100077.2
100065.9
100066.4
100069.1
100071.2
100073.7
100076
100074.7
100081.1
100083.9
100089.3
100095.3
100270.3
100294
100310.7
100327.7
100305.6
100346.1
100239.2
100257.2
100267.7
100276.4
100251.6
100280.9
100329.8
100210.2
100223.8
100229.5
100232.8
100204.9
100223.8
100258.8
100299.9
100181.6
100191.5
100193.6
100192.5
100162.7
100172.8
100195.4
100221.5
100257.5
100156.7
100163.8
100163.2
100159.2
100128.5
100133.1
100146.8
100161.9
100183.1
100209.5
100129.7
100134.1
100131.1
100124.3
100092.9
100092.8
100099.6
100105.3
100114
100123.3
100117.2
100115.6
100118.9
100115
100107.7
100077.8
100076.3
100080.5
100083.2
100087.3
100091.1
100080.2
100098.9
100104.6
100107
100102.8
100095.3
100067.3
100065
100067.8
100068.8
100070.9
100071.6
100059.9
100071.1
100063.8
100096.7
100098.6
100094.3
100087
100061
100058.6
100060.6
100061
100062
100061.8
100050.5
100058.9
100051.4
100049.2
100090.2
100091.8
100087.5
100080.5
100056.4
100054
100055.6
100055.6
100056.2
100055.5
100045.2
100051.6
100045.2
100042.3
100028.4
100084.9
100086.1
100082
100075.4
100052.9
100050.6
100052
100051.9
100052.2
100051.4
100042
100047.5
100041.5
100039.1
100027.6
100028.3
100080.4
100081.5
100077.6
100071.3
100050.4
100048.3
100049.5
100049.4
100049.6
100048.8
100040.5
100045.1
100039.7
100037.1
100027.2
100027.5
100028.3
100076.9
100077.9
100074.1
100068.2
100048.8
100046.9
100048
100048
100048.2
100047.6
100040.2
100044.3
100039.1
100036.5
100026.5
100027.1
100027.5
100028.3
100074.9
100075.9
100072.5
100067
100049.1
100047.5
100048.7
100048.9
100049.4
100049.1
100042.8
100046.5
100041.5
100038.5
100026
100026.4
100027.2
100027.5
100028.3
100073.9
100075
100071.9
100066.9
100050.4
100049.2
100050.6
100051.1
100051.8
100051.9
100046.7
100050.3
100045.2
100041.7
100025.6
100025.9
100026.5
100027.2
100027.5
100028.3
100078.1
100079.5
100077.1
100073
100058.3
100057.8
100059.9
100061.2
100062.9
100064.1
100060.6
100066.5
100067.1
100070.8
100074.7
100079.1
100080.6
100078.6
100075.1
100061.7
100061.6
100064
100065.6
100067.7
100069.4
100066.9
100073.1
100074.8
100079.4
100084.4
100079.5
100081.2
100079.5
100076.4
100064.1
100064.4
100067
100068.9
100071.2
100073.2
100071.4
100077.8
100080.3
100085.5
100091.4
100078.1
100079.8
100078.3
100075.5
100064.1
100064.5
100067.1
100069.1
100071.5
100073.6
100072.1
100078.3
100080.9
100086
100091.6
100075.6
100077.2
100075.8
100073.2
100062.5
100062.9
100065.4
100067.3
100069.6
100071.7
100070.4
100076.2
100078.6
100083.4
100088.6
100243.3
100261.8
100272.9
100282.5
100259.2
100290
100340.2
100217.2
100231.5
100238.4
100242.9
100217.2
100238.4
100275.9
100319.6
100192.3
100203.2
100206.8
100207.4
100180.5
100193.4
100219.5
100250.2
100291.1
100167.2
100175.3
100176
100173.6
100145.5
100152.5
100169
100188
100214.1
100246.1
100145
100150.8
100149.5
100144.8
100116.5
100119.4
100129.8
100140.3
100155.5
100173.4
100179
100120.5
100124.2
100120.9
100114.2
100085.2
100084.6
100089.8
100093.8
100099.6
100105.7
100098.2
100119
100107.9
100110.5
100106.6
100099.5
100072
100070.3
100073.6
100075.3
100078.3
100080.2
100070.2
100082.7
100075.5
100097.9
100099.9
100095.7
100088.5
100062.7
100060.4
100062.6
100063.2
100064.5
100064.7
100053.8
100062.5
100054.7
100052
100090.7
100092.3
100088.1
100081.1
100057.1
100054.7
100056.4
100056.5
100057.2
100056.6
100046.5
100053
100046.4
100043.4
100028.4
100084.9
100086.1
100082
100075.4
100052.9
100050.6
100052
100051.9
100052.2
100051.4
100042
100047.5
100041.5
100039.1
100027.6
100028.3
100080
100081.1
100077.1
100070.7
100049.9
100047.7
100048.8
100048.6
100048.8
100047.9
100039.5
100044.1
100038.8
100036.4
100027.2
100027.5
100028.3
100075.9
100076.9
100073.1
100067.1
100047.6
100045.6
100046.6
100046.4
100046.5
100045.7
100038.2
100042.2
100037.3
100035.1
100026.5
100027.1
100027.5
100028.3
100072.7
100073.5
100069.9
100064.3
100046.1
100044.3
100045.3
100045.2
100045.4
100044.7
100038
100041.5
100036.9
100034.5
100025.9
100026.4
100027.1
100027.5
100028.3
100070.9
100071.8
100068.5
100063.3
100046.4
100044.9
100046
100046.1
100046.5
100046.1
100040.4
100043.7
100039.1
100036.3
100025.3
100025.9
100026.4
100027.2
100027.5
100028.3
100070
100071
100068
100063.3
100047.7
100046.5
100047.8
100048.2
100048.9
100048.9
100044
100047.2
100042.5
100039.2
100025
100025.2
100025.9
100026.5
100027.2
100027.5
100028.3
100074.1
100075.4
100073
100069.1
100055.1
100054.6
100056.6
100057.7
100059.2
100060.2
100056.9
100062.1
100062.6
100065.7
100068.9
100075.1
100076.5
100074.5
100071.1
100058.4
100058.3
100060.5
100061.9
100063.8
100065.3
100062.8
100068.4
100069.8
100073.7
100078.1
100075.5
100077
100075.4
100072.4
100060.8
100060.9
100063.3
100065
100067.2
100069
100067.1
100072.9
100075.1
100079.6
100084.7
100074.2
100075.8
100074.3
100071.6
100060.8
100061.1
100063.5
100065.3
100067.5
100069.4
100067.9
100073.5
100075.8
100080.3
100085.3
100071.8
100073.4
100072
100069.5
100059.3
100059.6
100062
100063.7
100065.8
100067.7
100066.4
100071.7
100073.9
100078.1
100082.8
100221
100235.7
100243.1
100248.3
100223.8
100246.1
100285
100330.1
100198.7
100210.3
100214.7
100216.5
100191.3
100205.9
100234.2
100267.5
100311.1
100177
100186
100187.9
100187
100161.2
100170.5
100189.7
100212.3
100243
100280.2
100154.6
100161.3
100161.1
100157.9
100131.6
100136.5
100149.2
100162.7
100181.8
100204.8
100217.2
100134.7
100139.5
100137.7
100132.8
100106.4
100108.3
100116.4
100124.2
100134.9
100147.6
100149.1
100185
100112.4
100115.5
100112
100105.4
100078.8
100077.8
100082
100084.7
100089
100092.6
100085.2
100099.4
100092.9
100100.9
100103.1
100099.2
100092.4
100067
100065.2
100067.8
100069.1
100071
100072.1
100062.6
100072.1
100064.4
100061.2
100091.9
100093.5
100089.4
100082.5
100058.6
100056.4
100058.2
100058.5
100059.4
100059.1
100049.4
100056
100049.2
100045.7
100028.4
100085.3
100086.7
100082.6
100075.9
100053.6
100051.3
100052.7
100052.7
100053.1
100052.4
100043.2
100048.7
100042.5
100039.9
100027.6
100028.3
100080
100081.1
100077.1
100070.7
100049.9
100047.7
100048.8
100048.6
100048.8
100047.9
100039.5
100044.1
100038.8
100036.4
100027.2
100027.5
100028.3
100075.5
100076.4
100072.6
100066.5
100047
100045
100046
100045.7
100045.8
100044.9
100037.2
100041.3
100036.4
100034.4
100026.5
100027.1
100027.5
100028.3
100071.8
100072.6
100068.9
100063.2
100045
100043.1
100044
100043.8
100043.8
100043
100036.1
100039.7
100035.3
100033.2
100025.9
100026.4
100027.1
100027.5
100028.3
100068.8
100069.5
100066.1
100060.7
100043.7
100041.9
100042.9
100042.7
100042.8
100042.2
100036
100039.2
100034.9
100032.8
100025.2
100025.9
100026.4
100027.1
100027.5
100028.3
100067.2
100067.9
100064.8
100059.8
100044
100042.5
100043.5
100043.6
100043.9
100043.5
100038.2
100041.2
100036.9
100034.4
100024.7
100025.2
100025.9
100026.4
100027.1
100027.5
100028.3
100066.4
100067.2
100064.4
100059.9
100045.2
100044
100045.3
100045.6
100046.2
100046.1
100041.6
100044.4
100040.1
100037.1
100024.3
100024.6
100025.2
100025.9
100026.4
100027.1
100027.5
100028.3
100070.3
100071.5
100069.2
100065.4
100052.2
100051.7
100053.5
100054.5
100055.8
100056.7
100053.5
100058.3
100058.6
100061.2
100063.9
100071.3
100072.6
100070.7
100067.4
100055.3
100055.2
100057.2
100058.5
100060.2
100061.5
100059.1
100064.2
100065.4
100068.8
100072.6
100071.8
100073.2
100071.6
100068.7
100057.6
100057.7
100059.9
100061.5
100063.4
100065.1
100063.3
100068.6
100070.4
100074.4
100078.9
100070.6
100072
100070.6
100068
100057.7
100057.9
100060.2
100061.8
100063.8
100065.5
100064.1
100069.2
100071.2
100075.2
100079.7
100068.3
100069.7
100068.4
100066
100056.2
100056.6
100058.8
100060.4
100062.3
100064
100062.7
100067.6
100069.5
100073.4
100077.5
100202.2
100214.1
100219
100221.3
100197.1
100212.6
100242
100276.7
100321.8
100182.9
100192.5
100195.2
100195.2
100170.8
100181.4