/*--------------------------------*- C++ -*----------------------------------*\
| =========                 |                                                 |
| \\      /  F ield         | OpenFOAM: The Open Source CFD Toolbox           |
|  \\    /   O peration     | Version:  2306                                  |
|   \\  /    A nd           | Website:  www.openfoam.com                      |
|    \\/     M anipulation  |                                                 |
\*---------------------------------------------------------------------------*/
FoamFile
{
    version     2.0;
    format      ascii;
    arch        "LSB;label=32;scalar=64";
    class       volScalarField;
    location    "1.5/fuel";
    object      T;
}
// * * * * * * * * * * * * * * * * * * * * * * * * * * * * * * * * * * * * * //

dimensions      [0 0 0 1 0 0 0];

internalField   nonuniform List<scalar> 
16000
(
1169.551
1169.396
1171.395
1169.565
1169.038
1171.382
1169.41
1173.081
1171.403
1169.583
1168.376
1171.351
1169.053
1173.108
1171.39
1169.429
1174.652
1173.085
1171.417
1169.607
1167.272
1171.288
1168.394
1173.168
1171.359
1169.073
1174.691
1173.112
1171.403
1169.453
1176.157
1174.653
1173.094
1171.434
1169.635
1165.663
1171.17
1167.297
1173.271
1171.294
1168.418
1174.778
1173.171
1171.371
1169.099
1176.199
1174.691
1173.12
1171.421
1169.481
1177.612
1176.155
1174.657
1173.107
1171.456
1169.668
1163.843
1170.964
1165.7
1173.424
1171.173
1167.327
1174.931
1173.271
1171.305
1168.447
1176.293
1174.778
1173.178
1171.388
1169.129
1177.653
1176.196
1174.696
1173.133
1171.442
1169.515
1179.019
1177.607
1176.156
1174.666
1173.123
1171.483
1169.702
1162.18
1170.658
1163.897
1173.611
1170.963
1165.742
1175.169
1173.421
1171.182
1167.363
1176.458
1174.928
1173.276
1171.321
1168.482
1177.746
1176.289
1174.781
1173.19
1171.409
1169.165
1179.059
1177.648
1176.197
1174.704
1173.149
1171.469
1169.55
1180.379
1179.012
1177.605
1176.161
1174.678
1173.145
1171.51
1169.736
1160.944
1170.313
1162.25
1173.752
1170.656
1163.955
1175.48
1173.601
1170.967
1165.789
1176.717
1175.161
1173.421
1171.195
1167.405
1177.91
1176.452
1174.929
1173.286
1171.341
1168.522
1179.148
1177.739
1176.289
1174.788
1173.205
1171.435
1169.202
1180.416
1179.051
1177.646
1176.202
1174.716
1173.17
1171.496
1169.585
1181.689
1180.37
1179.008
1177.607
1176.17
1174.695
1173.167
1171.537
1169.77
1160.291
1170.019
1161.026
1173.826
1170.314
1162.325
1175.769
1173.737
1170.659
1164.018
1177.062
1175.465
1173.595
1170.976
1165.841
1178.168
1176.707
1175.158
1173.426
1171.212
1167.452
1179.305
1177.901
1176.449
1174.934
1173.299
1171.366
1168.563
1180.501
1179.139
1177.736
1176.292
1174.799
1173.225
1171.462
1169.239
1181.725
1180.407
1179.047
1177.647
1176.21
1174.732
1173.191
1171.523
1169.62
1182.949
1181.678
1180.364
1179.007
1177.613
1176.182
1174.712
1173.188
1171.565
1169.804
1160.291
1169.852
1160.38
1173.851
1170.023
1161.113
1175.986
1173.809
1170.319
1162.403
1177.396
1175.749
1173.727
1170.668
1164.085
1178.514
1177.045
1175.455
1173.593
1170.99
1165.899
1179.554
1178.155
1176.7
1175.158
1173.436
1171.235
1167.501
1180.651
1179.295
1177.896
1176.451
1174.942
1173.317
1171.391
1168.605
1181.805
1180.49
1179.134
1177.737
1176.299
1174.814
1173.245
1171.488
1169.277
1182.983
1181.714
1180.401
1179.046
1177.652
1176.222
1174.749
1173.213
1171.55
1169.656
1184.159
1182.938
1181.671
1180.361
1179.01
1177.622
1176.196
1174.729
1173.21
1171.592
1169.972
1160.944
1169.852
1160.38
1173.855
1169.858
1160.472
1176.123
1173.834
1170.032
1161.203
1177.658
1175.962
1173.797
1170.329
1162.485
1178.852
1177.373
1175.733
1173.72
1170.68
1164.158
1179.888
1178.495
1177.033
1175.448
1173.596
1171.009
1165.958
1180.887
1179.54
1178.147
1176.698
1175.162
1173.449
1171.258
1167.551
1181.947
1180.639
1179.288
1177.895
1176.456
1174.955
1173.335
1171.417
1168.647
1183.059
1181.793
1180.484
1179.132
1177.741
1176.311
1174.829
1173.266
1171.515
1169.315
1184.191
1182.971
1181.706
1180.398
1179.049
1177.662
1176.235
1174.765
1173.234
1171.577
1169.829
1185.318
1184.146
1182.929
1181.667
1180.362
1179.017
1177.632
1176.209
1174.746
1173.232
1171.726
1170.292
1162.18
1170.019
1161.026
1173.855
1169.858
1160.472
1176.188
1173.838
1169.868
1160.569
1177.833
1176.098
1173.821
1170.045
1161.297
1179.124
1177.633
1175.943
1173.789
1170.344
1162.573
1180.217
1178.829
1177.355
1175.721
1173.719
1170.698
1164.23
1181.206
1179.869
1178.481
1177.024
1175.446
1173.603
1171.028
1166.016
1182.172
1180.872
1179.53
1178.142
1176.699
1175.171
1173.463
1171.281
1167.601
1183.194
1181.934
1180.63
1179.284
1177.897
1176.465
1174.968
1173.353
1171.443
1168.691
1184.263
1183.047
1181.785
1180.48
1179.134
1177.749
1176.322
1174.845
1173.286
1171.542
1169.501
1185.348
1184.178
1182.962
1181.702
1180.398
1179.055
1177.671
1176.247
1174.782
1173.255
1171.711
1170.165
1186.425
1185.304
1184.137
1182.924
1181.666
1180.367
1179.024
1177.642
1176.222
1174.763
1173.34
1171.969
1170.629
1163.843
1170.313
1162.25
1173.851
1170.023
1161.113
1176.188
1173.838
1169.868
1160.569
1177.919
1176.162
1173.825
1169.883
1160.669
1179.307
1177.806
1176.078
1173.813
1170.062
1161.396
1180.484
1179.098
1177.612
1175.929
1173.785
1170.363
1162.66
1181.522
1180.194
1178.81
1177.341
1175.714
1173.722
1170.716
1164.303
1182.475
1181.187
1179.854
1178.471
1177.019
1175.448
1173.61
1171.047
1166.076
1183.408
1182.156
1180.861
1179.523
1178.141
1176.704
1175.18
1173.477
1171.305
1167.652
1184.392
1183.18
1181.924
1180.625
1179.284
1177.903
1176.474
1174.981
1173.371
1171.469
1168.901
1185.417
1184.25
1183.037
1181.78
1180.48
1179.14
1177.758
1176.334
1174.86
1173.306
1171.673
1169.875
1186.455
1185.335
1184.169
1182.957
1181.701
1180.403
1179.062
1177.68
1176.26
1174.798
1173.361
1171.954
1170.524
1187.483
1186.412
1185.294
1184.13
1182.922
1181.669
1180.371
1179.031
1177.651
1176.235
1174.848
1173.53
1172.215
1170.981
1165.663
1170.658
1163.897
1173.826
1170.314
1162.325
1176.123
1173.834
1170.032
1161.203
1177.919
1176.162
1173.825
1169.883
1160.669
1179.399
1177.891
1176.142
1173.817
1169.902
1160.774
1180.665
1179.28
1177.783
1176.061
1173.809
1170.084
1161.494
1181.778
1180.458
1179.076
1177.594
1175.918
1173.786
1170.383
1162.747
1182.776
1181.499
1180.175
1178.795
1177.331
1175.71
1173.724
1170.734
1164.375
1183.697
1182.456
1181.171
1179.842
1178.464
1177.018
1175.45
1173.618
1171.066
1166.135
1184.596
1183.392
1182.144
1180.853
1179.52
1178.143
1176.709
1175.188
1173.491
1171.328
1167.899
1185.54
1184.378
1183.17
1181.918
1180.623
1179.288
1177.909
1176.483
1174.994
1173.389
1171.595
1169.339
1186.521
1185.403
1184.24
1183.031
1181.778
1180.483
1179.145
1177.766
1176.345
1174.875
1173.406
1171.916
1170.284
1187.511
1186.441
1185.324
1184.162
1182.954
1181.703
1180.407
1179.068
1177.689
1176.272
1174.881
1173.547
1172.201
1170.902
1188.491
1187.469
1186.401
1185.287
1184.127
1182.923
1181.672
1180.376
1179.038
1177.661
1176.3
1174.997
1173.718
1172.463
1171.341
1167.272
1170.964
1165.7
1173.752
1170.656
1163.955
1175.986
1173.809
1170.319
1162.403
1177.833
1176.098
1173.821
1170.045
1161.297
1179.399
1177.891
1176.142
1173.817
1169.902
1160.774
1180.755
1179.37
1177.867
1176.125
1173.813
1169.926
1160.879
1181.952
1180.637
1179.256
1177.764
1176.05
1173.809
1170.106
1161.592
1183.02
1181.752
1180.436
1179.058
1177.581
1175.912
1173.786
1170.403
1162.832
1183.983
1182.753
1181.479
1180.159
1178.784
1177.325
1175.707
1173.727
1170.752
1164.446
1184.871
1183.677
1182.44
1181.159
1179.835
1178.461
1177.017
1175.452
1173.626
1171.086
1166.418
1185.735
1184.579
1183.379
1182.135
1180.849
1179.52
1178.145
1176.714
1175.197
1173.505
1171.444
1168.414
1186.639
1185.525
1184.366
1183.162
1181.915
1180.625
1179.292
1177.916
1176.492
1175.007
1173.478
1171.836
1169.835
1187.575
1186.507
1185.392
1184.233
1183.028
1181.78
1180.486
1179.151
1177.774
1176.356
1174.951
1173.582
1172.166
1170.723
1188.519
1187.497
1186.43
1185.317
1184.158
1182.955
1181.705
1180.411
1179.074
1177.698
1176.335
1175.023
1173.73
1172.451
1171.292
1189.451
1188.477
1187.458
1186.393
1185.283
1184.127
1182.924
1181.674
1180.38
1179.045
1177.71
1176.413
1175.14
1173.904
1172.712
1168.376
1171.17
1167.297
1173.611
1170.963
1165.742
1175.769
1173.737
1170.659
1164.018
1177.658
1175.962
1173.797
1170.329
1162.485
1179.307
1177.806
1176.078
1173.813
1170.062
1161.396
1180.755
1179.37
1177.867
1176.125
1173.813
1169.926
1160.879
1182.04
1180.727
1179.346
1177.848
1176.112
1173.813
1169.95
1160.982
1183.188
1181.925
1180.614
1179.236
1177.749
1176.042
1173.809
1170.129
1161.688
1184.217
1182.995
1181.73
1180.418
1179.044
1177.572
1175.906
1173.787
1170.422
1162.917
1185.145
1183.961
1182.734
1181.464
1180.148
1178.777
1177.319
1175.704
1173.73
1170.77
1164.785
1185.998
1184.852
1183.661
1182.427
1181.15
1179.83
1178.458
1177.016
1175.454
1173.633
1171.181
1166.944
1186.825
1185.718
1184.566
1183.369
1182.129
1180.847
1179.521
1178.148
1176.719
1175.205
1173.573
1171.673
1169.01
1187.688
1186.623
1185.513
1184.358
1183.158
1181.915
1180.627
1179.295
1177.921
1176.501
1175.071
1173.634
1172.091
1170.388
1188.58
1187.56
1186.495
1185.385
1184.229
1183.028
1181.781
1180.49
1179.156
1177.782
1176.413
1175.081
1173.754
1172.422
1171.184
1189.477
1188.504
1187.486
1186.422
1185.313
1184.158
1182.956
1181.708
1180.415
1179.081
1177.745
1176.442
1175.16
1173.911
1172.703
1190.362
1189.437
1188.466
1187.45
1186.389
1185.282
1184.127
1182.925
1181.677
1180.385
1179.079
1177.792
1176.52
1175.281
1174.088
1169.038
1171.288
1168.394
1173.424
1171.173
1167.327
1175.48
1173.601
1170.967
1165.789
1177.396
1175.749
1173.727
1170.668
1164.085
1179.124
1177.633
1175.943
1173.789
1170.344
1162.573
1180.665
1179.28
1177.783
1176.061
1173.809
1170.084
1161.494
1182.04
1180.727
1179.346
1177.848
1176.112
1173.813
1169.95
1160.982
1183.272
1182.012
1180.703
1179.326
1177.832
1176.104
1173.814
1169.974
1161.084
1184.377
1183.161
1181.902
1180.594
1179.221
1177.738
1176.034
1173.81
1170.151
1161.784
1185.368
1184.193
1182.974
1181.712
1180.403
1179.033
1177.563
1175.899
1173.788
1170.442
1163.317
1186.26
1185.123
1183.942
1182.718
1181.451
1180.139
1178.769
1177.313
1175.701
1173.734
1170.859
1165.357
1187.077
1185.979
1184.835
1183.648
1182.418
1181.145
1179.826
1178.455
1177.015
1175.457
1173.671
1171.366
1167.481
1187.867
1186.808
1185.704
1184.556
1183.363
1182.127
1180.846
1179.521
1178.15
1176.723
1175.247
1173.696
1171.925
1169.715
1188.688
1187.672
1186.611
1185.504
1184.353
1183.157
1181.915
1180.628
1179.299
1177.927
1176.546
1175.176
1173.789
1172.36
1170.991
1189.536
1188.565
1187.549
1186.487
1185.38
1184.227
1183.028
1181.782
1180.493
1179.161
1177.822
1176.506
1175.204
1173.925
1172.683
1190.388
1189.463
1188.493
1187.478
1186.417
1185.311
1184.157
1182.957
1181.71
1180.419
1179.113
1177.821
1176.543
1175.294
1174.091
1191.227
1190.348
1189.425
1188.457
1187.445
1186.387
1185.28
1184.127
1182.926
1181.679
1180.407
1179.136
1177.87
1176.624
1175.419
1169.396
1171.351
1169.053
1173.271
1171.294
1168.418
1175.169
1173.421
1171.182
1167.363
1177.062
1175.465
1173.595
1170.976
1165.841
1178.852
1177.373
1175.733
1173.72
1170.68
1164.158
1180.484
1179.098
1177.612
1175.929
1173.785
1170.363
1162.66
1181.952
1180.637
1179.256
1177.764
1176.05
1173.809
1170.106
1161.592
1183.272
1182.012
1180.703
1179.326
1177.832
1176.104
1173.814
1169.974
1161.084
1184.457
1183.245
1181.989
1180.683
1179.309
1177.821
1176.096
1173.814
1169.998
1161.186
1185.521
1184.351
1183.139
1181.883
1180.578
1179.209
1177.727
1176.026
1173.81
1170.173
1162.232
1186.474
1185.344
1184.172
1182.956
1181.698
1180.392
1179.023
1177.553
1175.893
1173.79
1170.537
1163.959
1187.329
1186.238
1185.104
1183.926
1182.706
1181.443
1180.131
1178.762
1177.307
1175.698
1173.75
1171.022
1165.888
1188.109
1187.058
1185.962
1184.822
1183.638
1182.412
1181.14
1179.822
1178.452
1177.014
1175.467
1173.743
1171.56
1168.022
1188.86
1187.85
1186.794
1185.694
1184.548
1183.359
1182.124
1180.844
1179.521
1178.152
1176.747
1175.314
1173.821
1172.211
1170.578
1189.64
1188.673
1187.66
1186.602
1185.498
1184.35
1183.155
1181.914
1180.629
1179.302
1177.956
1176.614
1175.274
1173.944
1172.644
1190.444
1189.521
1188.553
1187.54
1186.481
1185.378
1184.226
1183.028
1181.784
1180.496
1179.188
1177.886
1176.591
1175.322
1174.095
1191.252
1190.373
1189.451
1188.484
1187.472
1186.415
1185.31
1184.157
1182.957
1181.712
1180.439
1179.164
1177.892
1176.639
1175.425
1192.046
1191.213
1190.337
1189.416
1188.452
1187.442
1186.384
1185.279
1184.126
1182.927
1181.692
1180.443
1179.189
1177.944
1176.726
1169.551
1171.382
1169.41
1173.168
1171.359
1169.073
1174.931
1173.271
1171.305
1168.447
1176.717
1175.161
1173.421
1171.195
1167.405
1178.514
1177.045
1175.455
1173.593
1170.99
1165.899
1180.217
1178.829
1177.355
1175.721
1173.719
1170.698
1164.23
1181.778
1180.458
1179.076
1177.594
1175.918
1173.786
1170.383
1162.747
1183.188
1181.925
1180.614
1179.236
1177.749
1176.042
1173.809
1170.129
1161.688
1184.457
1183.245
1181.989
1180.683
1179.309
1177.821
1176.096
1173.814
1169.998
1161.186
1185.598
1184.431
1183.222
1181.969
1180.666
1179.297
1177.809
1176.087
1173.814
1170.022
1161.66
1186.62
1185.496
1184.329
1183.12
1181.867
1180.566
1179.196
1177.716
1176.018
1173.811
1170.279
1162.938
1187.534
1186.451
1185.324
1184.154
1182.942
1181.687
1180.381
1179.012
1177.544
1175.887
1173.795
1170.703
1164.529
1188.351
1187.307
1186.22
1185.089
1183.914
1182.697
1181.434
1180.123
1178.754
1177.302
1175.684
1173.785
1171.187
1166.373
1189.094
1188.09
1187.042
1185.949
1184.812
1183.632
1182.406
1181.134
1179.817
1178.449
1177.009
1175.487
1173.817
1171.757
1168.548
1189.807
1188.844
1187.836
1186.783
1185.686
1184.544
1183.355
1182.121
1180.843
1179.521
1178.161
1176.779
1175.376
1173.952
1172.545
1190.545
1189.625
1188.66
1187.65
1186.595
1185.495
1184.348
1183.154
1181.914
1180.631
1179.318
1177.996
1176.674
1175.367
1174.1
1191.306
1190.43
1189.509
1188.544
1187.534
1186.478
1185.375
1184.225
1183.028
1181.785
1180.511
1179.227
1177.942
1176.671
1175.437
1192.07
1191.237
1190.362
1189.442
1188.478
1187.469
1186.412
1185.308
1184.156
1182.958
1181.723
1180.47
1179.211
1177.959
1176.733
1192.82
1192.032
1191.202
1190.328
1189.41
1188.448
1187.439
1186.382
1185.278
1184.126
1182.931
1181.71
1180.475
1179.238
1178.015
1171.395
1169.565
1173.108
1171.39
1169.429
1174.778
1173.171
1171.371
1169.099
1176.458
1174.928
1173.276
1171.321
1168.482
1178.168
1176.707
1175.158
1173.426
1171.212
1167.452
1179.888
1178.495
1177.033
1175.448
1173.596
1171.009
1165.958
1181.522
1180.194
1178.81
1177.341
1175.714
1173.722
1170.716
1164.303
1183.02
1181.752
1180.436
1179.058
1177.581
1175.912
1173.786
1170.403
1162.832
1184.377
1183.161
1181.902
1180.594
1179.221
1177.738
1176.034
1173.81
1170.151
1161.784
1185.598
1184.431
1183.222
1181.969
1180.666
1179.297
1177.809
1176.087
1173.814
1170.022
1161.66
1186.694
1185.573
1184.409
1183.203
1181.953
1180.653
1179.284
1177.797
1176.079
1173.815
1170.135
1162.402
1187.675
1186.596
1185.475
1184.311
1183.105
1181.855
1180.553
1179.184
1177.705
1176.011
1173.813
1170.458
1163.552
1188.548
1187.511
1186.431
1185.307
1184.14
1182.931
1181.676
1180.37
1179.002
1177.535
1175.858
1173.812
1170.864
1165.025
1189.327
1188.33
1187.289
1186.205
1185.076
1183.905
1182.688
1181.425
1180.114
1178.747
1177.273
1175.665
1173.824
1171.347
1166.8
1190.032
1189.075
1188.074
1187.029
1185.939
1184.805
1183.625
1182.399
1181.129
1179.813
1178.434
1176.999
1175.506
1173.889
1171.948
1169.538
1190.706
1189.79
1188.829
1187.825
1186.775
1185.681
1184.539
1183.351
1182.118
1180.841
1179.52
1178.168
1176.801
1175.432
1174.093
1191.404
1190.53
1189.612
1188.65
1187.643
1186.591
1185.492
1184.345
1183.152
1181.914
1180.636
1179.336
1178.027
1176.726
1175.456
1192.123
1191.292
1190.418
1189.5
1188.537
1187.53
1186.475
1185.373
1184.224
1183.027
1181.791
1180.53
1179.259
1177.992
1176.748
1192.843
1192.055
1191.226
1190.353
1189.436
1188.475
1187.466
1186.41
1185.306
1184.156
1182.96
1181.736
1180.496
1179.252
1178.022
1193.55
1192.806
1192.02
1191.192
1190.321
1189.407
1188.445
1187.436
1186.38
1185.276
1184.124
1182.935
1181.724
1180.503
1179.284
1173.081
1171.403
1169.583
1174.691
1173.112
1171.403
1169.453
1176.293
1174.778
1173.178
1171.388
1169.129
1177.91
1176.452
1174.929
1173.286
1171.341
1168.522
1179.554
1178.155
1176.7
1175.158
1173.436
1171.235
1167.501
1181.206
1179.869
1178.481
1177.024
1175.446
1173.603
1171.028
1166.016
1182.776
1181.499
1180.175
1178.795
1177.331
1175.71
1173.724
1170.734
1164.375
1184.217
1182.995
1181.73
1180.418
1179.044
1177.572
1175.906
1173.787
1170.422
1162.917
1185.521
1184.351
1183.139
1181.883
1180.578
1179.209
1177.727
1176.026
1173.81
1170.173
1162.232
1186.694
1185.573
1184.409
1183.203
1181.953
1180.653
1179.284
1177.797
1176.079
1173.815
1170.135
1162.402
1187.746
1186.67
1185.551
1184.39
1183.187
1181.94
1180.64
1179.271
1177.786
1176.071
1173.818
1170.324
1163.044
1188.684
1187.651
1186.576
1185.457
1184.296
1183.093
1181.842
1180.541
1179.172
1177.695
1175.974
1173.823
1170.625
1164.078
1189.517
1188.526
1187.492
1186.414
1185.293
1184.129
1182.92
1181.665
1180.359
1178.992
1177.491
1175.814
1173.833
1171.017
1165.447
1190.256
1189.306
1188.312
1187.274
1186.193
1185.067
1183.895
1182.679
1181.416
1180.106
1178.71
1177.228
1175.652
1173.864
1171.498
1167.542
1190.924
1190.013
1189.059
1188.061
1187.019
1185.932
1184.798
1183.618
1182.393
1181.123
1179.79
1178.405
1176.988
1175.522
1173.955
1172.321
1170.132
1191.56
1190.689
1189.776
1188.818
1187.816
1186.77
1185.676
1184.535
1183.347
1182.115
1180.831
1179.507
1178.163
1176.814
1175.484
1192.217
1191.389
1190.517
1189.602
1188.643
1187.639
1186.587
1185.488
1184.342
1183.15
1181.911
1180.635
1179.343
1178.049
1176.772
1192.894
1192.108
1191.28
1190.408
1189.493
1188.533
1187.527
1186.472
1185.371
1184.222
1183.026
1181.793
1180.542
1179.285
1178.038
1193.572
1192.829
1192.044
1191.216
1190.346
1189.432
1188.471
1187.463
1186.408
1185.305
1184.151
1182.959
1181.744
1180.517
1179.291
1194.236
1193.536
1192.794
1192.011
1191.186
1190.317
1189.403
1188.442
1187.433
1186.378
1185.268
1184.115
1182.934
1181.735
1180.528
1174.652
1173.085
1171.417
1169.607
1176.199
1174.691
1173.12
1171.421
1169.481
1177.746
1176.289
1174.781
1173.19
1171.409
1169.165
1179.305
1177.901
1176.449
1174.934
1173.299
1171.366
1168.563
1180.887
1179.54
1178.147
1176.698
1175.162
1173.449
1171.258
1167.551
1182.475
1181.187
1179.854
1178.471
1177.019
1175.448
1173.61
1171.047
1166.076
1183.983
1182.753
1181.479
1180.159
1178.784
1177.325
1175.707
1173.727
1170.752
1164.446
1185.368
1184.193
1182.974
1181.712
1180.403
1179.033
1177.563
1175.899
1173.788
1170.442
1163.317
1186.62
1185.496
1184.329
1183.12
1181.867
1180.566
1179.196
1177.716
1176.018
1173.811
1170.279
1162.938
1187.746
1186.67
1185.551
1184.39
1183.187
1181.94
1180.64
1179.271
1177.786
1176.071
1173.818
1170.324
1163.044
1188.752
1187.722
1186.649
1185.533
1184.375
1183.174
1181.927
1180.627
1179.258
1177.774
1176.031
1173.826
1170.498
1163.59
1189.648
1188.661
1187.631
1186.558
1185.443
1184.284
1183.08
1181.83
1180.528
1179.16
1177.641
1175.917
1173.836
1170.782
1164.519
1190.44
1189.496
1188.507
1187.476
1186.401
1185.282
1184.118
1182.909
1181.654
1180.349
1178.94
1177.421
1175.779
1173.856
1171.159
1166.162
1191.141
1190.237
1189.289
1188.297
1187.262
1186.183
1185.058
1183.886
1182.669
1181.408
1180.065
1178.651
1177.188
1175.641
1173.902
1171.799
1168.336
1191.77
1190.906
1189.998
1189.046
1188.051
1187.011
1185.924
1184.791
1183.611
1182.387
1181.095
1179.748
1178.375
1176.974
1175.534
1174.074
1172.555
1170.472
1192.368
1191.543
1190.676
1189.764
1188.81
1187.81
1186.764
1185.67
1184.53
1183.343
1182.099
1180.803
1179.482
1178.146
1176.814
1192.986
1192.202
1191.376
1190.507
1189.594
1188.638
1187.634
1186.583
1185.485
1184.34
1183.14
1181.895
1180.624
1179.342
1178.064
1193.622
1192.88
1192.096
1191.27
1190.401
1189.489
1188.529
1187.523
1186.469
1185.368
1184.214
1183.014
1181.789
1180.548
1179.306
1194.258
1193.558
1192.817
1192.034
1191.21
1190.342
1189.428
1188.467
1187.46
1186.405
1185.295
1184.139
1182.953
1181.748
1180.535
1194.881
1194.223
1193.525
1192.785
1192.005
1191.182
1190.313
1189.399
1188.438
1187.43
1186.365
1185.25
1184.103
1182.93
1181.743
1176.157
1174.653
1173.094
1171.434
1169.635
1177.653
1176.196
1174.696
1173.133
1171.442
1169.515
1179.148
1177.739
1176.289
1174.788
1173.205
1171.435
1169.202
1180.651
1179.295
1177.896
1176.451
1174.942
1173.317
1171.391
1168.605
1182.172
1180.872
1179.53
1178.142
1176.699
1175.171
1173.463
1171.281
1167.601
1183.697
1182.456
1181.171
1179.842
1178.464
1177.018
1175.45
1173.618
1171.066
1166.135
1185.145
1183.961
1182.734
1181.464
1180.148
1178.777
1177.319
1175.704
1173.73
1170.77
1164.785
1186.474
1185.344
1184.172
1182.956
1181.698
1180.392
1179.023
1177.553
1175.893
1173.79
1170.537
1163.959
1187.675
1186.596
1185.475
1184.311
1183.105
1181.855
1180.553
1179.184
1177.705
1176.011
1173.813
1170.458
1163.552
1188.752
1187.722
1186.649
1185.533
1184.375
1183.174
1181.927
1180.627
1179.258
1177.774
1176.031
1173.826
1170.498
1163.59
1189.714
1188.729
1187.702
1186.631
1185.518
1184.362
1183.161
1181.913
1180.614
1179.245
1177.717
1175.969
1173.837
1170.659
1164.046
1190.567
1189.626
1188.642
1187.615
1186.544
1185.431
1184.272
1183.068
1181.818
1180.516
1179.101
1177.558
1175.87
1173.852
1170.926
1165.261
1191.319
1190.42
1189.477
1188.492
1187.463
1186.39
1185.271
1184.107
1182.898
1181.643
1180.294
1178.859
1177.361
1175.75
1173.88
1171.446
1167.045
1191.981
1191.122
1190.22
1189.274
1188.286
1187.253
1186.174
1185.048
1183.877
1182.66
1181.363
1179.997
1178.597
1177.153
1175.632
1173.98
1172.12
1168.908
1192.572
1191.753
1190.89
1189.985
1189.036
1188.043
1187.003
1185.917
1184.784
1183.605
1182.354
1181.043
1179.705
1178.343
1176.957
1175.54
1174.146
1172.693
1170.727
1193.132
1192.352
1191.529
1190.664
1189.756
1188.803
1187.804
1186.758
1185.665
1184.525
1183.321
1182.058
1180.762
1179.443
1178.112
1193.711
1192.971
1192.19
1191.366
1190.499
1189.589
1188.633
1187.629
1186.579
1185.481
1184.324
1183.112
1181.869
1180.604
1179.333
1194.307
1193.608
1192.868
1192.087
1191.263
1190.397
1189.484
1188.525
1187.519
1186.466
1185.355
1184.192
1182.996
1181.779
1180.55
1194.902
1194.244
1193.546
1192.808
1192.028
1191.205
1190.337
1189.424
1188.464
1187.457
1186.391
1185.273
1184.121
1182.944
1181.75
1195.484
1194.868
1194.212
1193.515
1192.779
1192
1191.177
1190.309
1189.395
1188.435
1187.414
1186.339
1185.228
1184.087
1182.925
1177.612
1176.155
1174.657
1173.107
1171.456
1169.668
1179.059
1177.648
1176.197
1174.704
1173.149
1171.469
1169.55
1180.501
1179.139
1177.736
1176.292
1174.799
1173.225
1171.462
1169.239
1181.947
1180.639
1179.288
1177.895
1176.456
1174.955
1173.335
1171.417
1168.647
1183.408
1182.156
1180.861
1179.523
1178.141
1176.704
1175.18
1173.477
1171.305
1167.652
1184.871
1183.677
1182.44
1181.159
1179.835
1178.461
1177.017
1175.452
1173.626
1171.086
1166.418
1186.26
1185.123
1183.942
1182.718
1181.451
1180.139
1178.769
1177.313
1175.701
1173.734
1170.859
1165.357
1187.534
1186.451
1185.324
1184.154
1182.942
1181.687
1180.381
1179.012
1177.544
1175.887
1173.795
1170.703
1164.529
1188.684
1187.651
1186.576
1185.457
1184.296
1183.093
1181.842
1180.541
1179.172
1177.695
1175.974
1173.823
1170.625
1164.078
1189.714
1188.729
1187.702
1186.631
1185.518
1184.362
1183.161
1181.913
1180.614
1179.245
1177.717
1175.969
1173.837
1170.659
1164.046
1190.631
1189.692
1188.71
1187.685
1186.617
1185.506
1184.35
1183.148
1181.9
1180.601
1179.182
1177.627
1175.916
1173.85
1170.806
1164.812
1191.441
1190.546
1189.607
1188.625
1187.601
1186.533
1185.419
1184.26
1183.056
1181.805
1180.454
1179.005
1177.485
1175.83
1173.869
1171.216
1166.203
1192.153
1191.299
1190.402
1189.462
1188.479
1187.452
1186.379
1185.26
1184.096
1182.887
1181.587
1180.207
1178.787
1177.31
1175.727
1173.934
1171.802
1167.75
1192.777
1191.962
1191.105
1190.205
1189.263
1188.277
1187.244
1186.164
1185.039
1183.868
1182.614
1181.289
1179.935
1178.549
1177.122
1175.612
1174.062
1172.351
1169.359
1193.331
1192.555
1191.737
1190.878
1189.975
1189.028
1188.035
1186.996
1185.909
1184.776
1183.569
1182.295
1180.99
1179.66
1178.308
1176.904
1175.541
1174.19
1172.799
1170.95
1193.853
1193.116
1192.338
1191.518
1190.655
1189.749
1188.797
1187.798
1186.752
1185.659
1184.498
1183.27
1182.004
1180.706
1179.384
1194.394
1193.696
1192.959
1192.179
1191.358
1190.494
1189.584
1188.628
1187.624
1186.574
1185.461
1184.285
1183.074
1181.833
1180.576
1194.949
1194.293
1193.596
1192.858
1192.079
1191.258
1190.392
1189.48
1188.521
1187.515
1186.449
1185.323
1184.162
1182.973
1181.764
1195.505
1194.889
1194.233
1193.537
1192.801
1192.023
1191.201
1190.333
1189.42
1188.46
1187.439
1186.361
1185.246
1184.1
1182.931
1196.047
1195.471
1194.857
1194.203
1193.509
1192.774
1191.996
1191.173
1190.305
1189.391
1188.416
1187.381
1186.309
1185.203
1184.07
1179.019
1177.607
1176.156
1174.666
1173.123
1171.483
1169.702
1180.416
1179.051
1177.646
1176.202
1174.716
1173.17
1171.496
1169.585
1181.805
1180.49
1179.134
1177.737
1176.299
1174.814
1173.245
1171.488
1169.277
1183.194
1181.934
1180.63
1179.284
1177.897
1176.465
1174.968
1173.353
1171.443
1168.691
1184.596
1183.392
1182.144
1180.853
1179.52
1178.143
1176.709
1175.188
1173.491
1171.328
1167.899
1185.998
1184.852
1183.661
1182.427
1181.15
1179.83
1178.458
1177.016
1175.454
1173.633
1171.181
1166.944
1187.329
1186.238
1185.104
1183.926
1182.706
1181.443
1180.131
1178.762
1177.307
1175.698
1173.75
1171.022
1165.888
1188.548
1187.511
1186.431
1185.307
1184.14
1182.931
1181.676
1180.37
1179.002
1177.535
1175.858
1173.812
1170.864
1165.025
1189.648
1188.661
1187.631
1186.558
1185.443
1184.284
1183.08
1181.83
1180.528
1179.16
1177.641
1175.917
1173.836
1170.782
1164.519
1190.631
1189.692
1188.71
1187.685
1186.617
1185.506
1184.35
1183.148
1181.9
1180.601
1179.182
1177.627
1175.916
1173.85
1170.806
1164.812
1191.503
1190.609
1189.672
1188.693
1187.67
1186.605
1185.494
1184.337
1183.135
1181.888
1180.535
1179.08
1177.548
1175.872
1173.864
1171.101
1165.787
1192.272
1191.421
1190.527
1189.591
1188.612
1187.59
1186.521
1185.407
1184.248
1183.044
1181.743
1180.354
1178.922
1177.422
1175.798
1173.911
1171.591
1166.987
1192.944
1192.134
1191.281
1190.387
1189.449
1188.469
1187.442
1186.369
1185.25
1184.085
1182.83
1181.496
1180.129
1178.724
1177.265
1175.681
1174.008
1172.084
1168.335
1193.529
1192.758
1191.946
1191.091
1190.194
1189.254
1188.267
1187.234
1186.155
1185.03
1183.82
1182.537
1181.222
1179.878
1178.505
1177.052
1175.588
1174.122
1172.531
1169.749
1194.046
1193.314
1192.54
1191.725
1190.868
1189.967
1189.02
1188.027
1186.988
1185.902
1184.738
1183.504
1182.235
1180.936
1179.614
1178.219
1176.867
1175.543
1174.225
1172.891
1171.163
1194.532
1193.838
1193.103
1192.327
1191.509
1190.649
1189.743
1188.79
1187.791
1186.746
1185.629
1184.439
1183.207
1181.935
1180.629
1195.034
1194.379
1193.684
1192.948
1192.172
1191.353
1190.488
1189.579
1188.622
1187.619
1186.55
1185.414
1184.237
1183.026
1181.79
1195.551
1194.936
1194.281
1193.586
1192.851
1192.074
1191.253
1190.387
1189.475
1188.516
1187.494
1186.41
1185.286
1184.128
1182.945
1196.067
1195.492
1194.877
1194.224
1193.53
1192.796
1192.018
1191.196
1190.329
1189.416
1188.44
1187.402
1186.326
1185.215
1184.076
1196.57
1196.034
1195.46
1194.848
1194.196
1193.504
1192.769
1191.991
1191.168
1190.301
1189.37
1188.377
1187.345
1186.276
1185.176
1180.379
1179.012
1177.605
1176.161
1174.678
1173.145
1171.51
1169.736
1181.725
1180.407
1179.047
1177.647
1176.21
1174.732
1173.191
1171.523
1169.62
1183.059
1181.793
1180.484
1179.132
1177.741
1176.311
1174.829
1173.266
1171.515
1169.315
1184.392
1183.18
1181.924
1180.625
1179.284
1177.903
1176.474
1174.981
1173.371
1171.469
1168.901
1185.735
1184.579
1183.379
1182.135
1180.849
1179.52
1178.145
1176.714
1175.197
1173.505
1171.444
1168.414
1187.077
1185.979
1184.835
1183.648
1182.418
1181.145
1179.826
1178.455
1177.015
1175.457
1173.671
1171.366
1167.481
1188.351
1187.307
1186.22
1185.089
1183.914
1182.697
1181.434
1180.123
1178.754
1177.302
1175.684
1173.785
1171.187
1166.373
1189.517
1188.526
1187.492
1186.414
1185.293
1184.129
1182.92
1181.665
1180.359
1178.992
1177.491
1175.814
1173.833
1171.017
1165.447
1190.567
1189.626
1188.642
1187.615
1186.544
1185.431
1184.272
1183.068
1181.818
1180.516
1179.101
1177.558
1175.87
1173.852
1170.926
1165.261
1191.503
1190.609
1189.672
1188.693
1187.67
1186.605
1185.494
1184.337
1183.135
1181.888
1180.535
1179.08
1177.548
1175.872
1173.864
1171.101
1165.787
1192.332
1191.482
1190.591
1189.656
1188.679
1187.659
1186.593
1185.481
1184.325
1183.123
1181.822
1180.43
1178.991
1177.48
1175.835
1173.901
1171.486
1166.608
1193.059
1192.252
1191.403
1190.512
1189.578
1188.601
1187.578
1186.51
1185.395
1184.236
1182.981
1181.642
1180.266
1178.849
1177.368
1175.734
1173.977
1171.902
1167.657
1193.692
1192.925
1192.117
1191.267
1190.375
1189.439
1188.458
1187.431
1186.358
1185.239
1184.029
1182.739
1181.416
1180.061
1178.67
1177.171
1175.631
1174.072
1172.315
1168.853
1194.239
1193.511
1192.742
1191.932
1191.08
1190.185
1189.245
1188.258
1187.225
1186.146
1184.981
1183.74
1182.465
1181.161
1179.828
1178.407
1176.974
1175.572
1174.171
1172.683
1170.119
1194.72
1194.03
1193.299
1192.528
1191.715
1190.86
1189.959
1189.012
1188.02
1186.98
1185.862
1184.669
1183.438
1182.174
1180.883
1179.5
1178.159
1176.847
1175.547
1174.258
1172.978
1171.381
1195.169
1194.517
1193.824
1193.092
1192.318
1191.503
1190.642
1189.736
1188.784
1187.785
1186.713
1185.564
1184.368
1183.128
1181.844
1195.634
1195.02
1194.367
1193.674
1192.941
1192.166
1191.347
1190.483
1189.573
1188.617
1187.593
1186.497
1185.358
1184.18
1182.97
1196.112
1195.538
1194.924
1194.272
1193.579
1192.846
1192.069
1191.248
1190.382
1189.47
1188.493
1187.45
1186.364
1185.242
1184.09
1196.59
1196.054
1195.48
1194.868
1194.217
1193.526
1192.791
1192.013