/*--------------------------------*- C++ -*----------------------------------*\
| =========                 |                                                 |
| \\      /  F ield         | OpenFOAM: The Open Source CFD Toolbox           |
|  \\    /   O peration     | Version:  2306                                  |
|   \\  /    A nd           | Website:  www.openfoam.com                      |
|    \\/     M anipulation  |                                                 |
\*---------------------------------------------------------------------------*/
FoamFile
{
    version     2.0;
    format      ascii;
    arch        "LSB;label=32;scalar=64";
    class       volVectorField;
    location    "1.5/fuel";
    object      U;
}
// * * * * * * * * * * * * * * * * * * * * * * * * * * * * * * * * * * * * * //

dimensions      [0 1 -1 0 0 0 0];

internalField   nonuniform List<vector> 
16000
(
(9.202454e-05 6.969905e-05 -0.004645941)
(9.215559e-05 0.0001908327 -0.0047182)
(0.0001647159 7.061685e-05 -0.003864528)
(9.01293e-05 7.432565e-05 -0.01476155)
(9.276251e-05 0.0003380632 -0.004865737)
(0.0001641677 0.0001976699 -0.003907412)
(9.014683e-05 0.0002019478 -0.0149893)
(0.0001279143 6.367114e-05 -0.003231661)
(0.0001611051 7.394551e-05 -0.0122944)
(8.347463e-05 8.10027e-05 -0.02192909)
(9.315602e-05 0.0004169721 -0.005093173)
(0.0001636052 0.0003470299 -0.003993227)
(9.051948e-05 0.0003571685 -0.0154541)
(0.0001265345 0.0001792866 -0.003261207)
(0.000160381 0.0002052652 -0.01242983)
(8.324405e-05 0.0002207503 -0.02226533)
(9.678282e-05 5.640729e-05 -0.00276213)
(0.000125094 6.626352e-05 -0.01029279)
(0.0001489629 7.805844e-05 -0.018281)
(7.551167e-05 8.651521e-05 -0.0360841)
(9.543215e-05 0.0006093941 -0.005393743)
(0.0001617495 0.0004419437 -0.004121352)
(9.052946e-05 0.0004431019 -0.01617057)
(0.0001241033 0.0003130763 -0.003319801)
(0.0001594597 0.0003598875 -0.01270074)
(8.309627e-05 0.0003892111 -0.02295148)
(9.547607e-05 0.0001592766 -0.002784071)
(0.0001236139 0.0001850386 -0.01038625)
(0.0001478771 0.0002163712 -0.01848123)
(7.498928e-05 0.0002426834 -0.03663537)
(7.467179e-05 5.028946e-05 -0.002404074)
(9.467628e-05 5.851712e-05 -0.008805907)
(0.0001156086 6.917314e-05 -0.01531744)
(0.0001348422 8.096454e-05 -0.03009936)
(6.26215e-05 0.0001085233 -0.02936731)
(9.444804e-05 0.0004770605 -0.005736188)
(0.0001621319 0.0006194816 -0.004282386)
(9.228922e-05 0.0006423896 -0.0171172)
(0.0001196048 0.0004010053 -0.003406106)
(0.0001570243 0.0004589835 -0.0131053)
(8.227076e-05 0.0004881105 -0.02400901)
(9.310084e-05 0.0002772632 -0.002827322)
(0.0001209834 0.0003227657 -0.01057152)
(0.0001462039 0.0003783567 -0.01888176)
(7.422963e-05 0.0004265919 -0.03776003)
(7.357749e-05 0.0001422453 -0.002421102)
(9.330348e-05 0.0001638633 -0.0088754)
(0.0001139498 0.0001926841 -0.01545577)
(0.0001333356 0.0002293587 -0.03042785)
(6.144659e-05 0.00030289 -0.02981495)
(5.948837e-05 4.521441e-05 -0.002121948)
(7.304108e-05 5.205901e-05 -0.007670922)
(8.754622e-05 6.0725e-05 -0.01311389)
(0.0001045685 7.098277e-05 -0.02523506)
(0.0001110439 9.609433e-05 -0.02450066)
(0.000535006 0.0009928299 -0.05857429)
(9.850338e-05 0.0001247053 -0.005988546)
(0.0001563208 0.0005043897 -0.004457656)
(9.064306e-05 0.0005063832 -0.01819735)
(0.0001155657 0.0005528921 -0.0035121)
(0.0001566467 0.0006405935 -0.01361383)
(8.286077e-05 0.0006970914 -0.02540595)
(8.890795e-05 0.0003559465 -0.002890473)
(0.0001161713 0.0004136902 -0.01084451)
(0.0001425788 0.0004839376 -0.01947992)
(7.242236e-05 0.0005405966 -0.03949441)
(7.156724e-05 0.0002470433 -0.002454516)
(9.079849e-05 0.0002849697 -0.009012333)
(0.0001109566 0.0003353493 -0.01573002)
(0.000130788 0.0003999623 -0.03108466)
(5.933414e-05 0.0005299044 -0.03072925)
(5.857592e-05 0.0001280416 -0.002135567)
(7.190005e-05 0.00014603 -0.007724912)
(8.606607e-05 0.0001695372 -0.01321685)
(0.0001027015 0.0002016417 -0.02546215)
(0.0001085456 0.0002694174 -0.02476726)
(0.0005234085 0.002814826 -0.05946971)
(4.853773e-05 4.095988e-05 -0.00189399)
(5.818985e-05 4.673093e-05 -0.006775888)
(6.752067e-05 5.380589e-05 -0.01143063)
(7.924258e-05 6.194327e-05 -0.02161679)
(8.591481e-05 8.246495e-05 -0.02054513)
(0.0009499055 0.000872162 -0.04886443)
(0.000549124 0.001024406 -0.04131283)
(0.0001010675 6.077581e-05 -0.006150143)
(0.0001600226 0.0001882671 -0.004576362)
(9.423237e-05 0.0001424003 -0.01899005)
(0.0001063845 0.0004535277 -0.00362539)
(0.0001498686 0.000522364 -0.01416886)
(7.981771e-05 0.0005566284 -0.02700006)
(8.479315e-05 0.0004862828 -0.002966842)
(0.0001117469 0.000568545 -0.01117987)
(0.0001405685 0.0006696609 -0.02023183)
(7.163931e-05 0.000760866 -0.0417869)
(6.807729e-05 0.0003174979 -0.002502998)
(8.640308e-05 0.0003659639 -0.009212358)
(0.0001055914 0.0004304028 -0.01613415)
(0.0001257793 0.0005131225 -0.03206618)
(5.532289e-05 0.0006827712 -0.0321391)
(5.688991e-05 0.0002219623 -0.002162196)
(6.979859e-05 0.000253393 -0.007830816)
(8.334533e-05 0.0002942452 -0.01341973)
(9.928554e-05 0.0003500997 -0.02591211)
(0.000103965 0.0004675614 -0.02530114)
(0.0005020525 0.004921107 -0.06129528)
(4.776902e-05 0.0001160932 -0.001905139)
(5.724265e-05 0.0001312415 -0.006819112)
(6.630804e-05 0.000150431 -0.01151068)
(7.763715e-05 0.0001761948 -0.02178592)
(8.349968e-05 0.0002315112 -0.02072938)
(0.0009259562 0.002479629 -0.04939789)
(0.0005365553 0.002981528 -0.04194816)
(4.046118e-05 3.735558e-05 -0.001705928)
(4.747954e-05 4.228133e-05 -0.006052169)
(5.37881e-05 4.815352e-05 -0.01010242)
(6.108846e-05 5.465964e-05 -0.01885184)
(6.524002e-05 7.111709e-05 -0.01760282)
(0.0007345243 0.000746033 -0.04097609)
(0.0009793299 0.000898554 -0.03445185)
(0.0005363673 0.001060063 -0.04585794)
(0.0001031066 6.992351e-06 -0.006241644)
(0.0001622011 0.0001047085 -0.004648612)
(9.648619e-05 7.129359e-05 -0.01949691)
(0.0001052102 0.0001821948 -0.003697786)
(0.0001529205 0.0001981874 -0.01454294)
(8.230405e-05 0.0001768797 -0.02816816)
(7.677741e-05 0.000399916 -0.003047644)
(0.0001020793 0.0004666059 -0.01153957)
(0.0001318757 0.0005476997 -0.02105283)
(6.695732e-05 0.0006151744 -0.04441049)
(6.455036e-05 0.0004309565 -0.002560947)
(8.20462e-05 0.0004986311 -0.009454332)
(0.0001004479 0.0005876711 -0.01663069)
(0.0001218708 0.0007036562 -0.03330056)
(5.154046e-05 0.0009393975 -0.0340044)
(5.39921e-05 0.0002854196 -0.002200646)
(6.616691e-05 0.0003257119 -0.00798455)
(7.862584e-05 0.0003781429 -0.01371613)
(9.327552e-05 0.0004499903 -0.02657565)
(9.568573e-05 0.0006030878 -0.02609868)
(0.0004621813 0.006357253 -0.06411808)
(4.634323e-05 0.0002009402 -0.001926873)
(5.548914e-05 0.0002273261 -0.00690359)
(6.406367e-05 0.000260552 -0.01166771)
(7.466457e-05 0.0003051356 -0.02211897)
(7.898888e-05 0.0004002205 -0.02109514)
(0.0008813736 0.00429998 -0.05046327)
(0.0005132995 0.005212056 -0.04324327)
(3.980603e-05 0.0001059472 -0.001715224)
(4.668407e-05 0.0001188495 -0.006087586)
(5.279022e-05 0.0001347601 -0.01016655)
(5.979218e-05 0.0001556018 -0.01898342)
(6.328015e-05 0.0001997551 -0.01774002)
(0.0007120776 0.00212262 -0.04134494)
(0.0009536782 0.002618562 -0.03483052)
(0.0005231907 0.003035372 -0.04656534)
(3.428113e-05 3.426221e-05 -0.001548203)
(3.958353e-05 3.85222e-05 -0.005454718)
(4.388715e-05 4.346592e-05 -0.009027867)
(4.865723e-05 4.876557e-05 -0.01666936)
(5.022359e-05 6.224011e-05 -0.0153543)
(0.000558062 0.0006421275 -0.03511013)
(0.0007571393 0.0007681028 -0.02888174)
(0.0009529409 0.0009249151 -0.03823598)
(0.0005234651 0.001067294 -0.04655901)
(0.0001040385 2.231715e-06 -0.00628253)
(0.0001644084 3.545117e-05 -0.004688007)
(9.835263e-05 1.213543e-05 -0.01978374)
(0.0001041792 0.0001036195 -0.003739895)
(0.00015467 0.0001104154 -0.01477044)
(8.382944e-05 9.210575e-05 -0.02891437)
(7.496758e-05 0.0001658456 -0.003097049)
(0.000100619 0.0001890552 -0.01176815)
(0.0001334474 0.0002144917 -0.0216056)
(6.815253e-05 0.0002170136 -0.0463248)
(5.80471e-05 0.0003547767 -0.0026219)
(7.37235e-05 0.0004101206 -0.009711381)
(8.997813e-05 0.0004827983 -0.01716354)
(0.0001109522 0.0005773249 -0.03465326)
(4.307215e-05 0.0007747359 -0.03613536)
(5.101717e-05 0.0003854828 -0.002246173)
(6.247333e-05 0.0004410848 -0.008168378)
(7.385771e-05 0.0005124169 -0.01407476)
(8.729415e-05 0.0006100898 -0.02739122)
(8.743719e-05 0.0008141522 -0.02710252)
(0.0004228715 0.008713659 -0.06785242)
(4.391064e-05 0.0002584531 -0.001958134)
(5.248672e-05 0.0002923341 -0.007025632)
(6.021949e-05 0.0003350315 -0.0118957)
(6.956665e-05 0.0003924408 -0.0226059)
(7.126654e-05 0.0005158097 -0.02163421)
(0.0008015234 0.005551449 -0.05206046)
(0.0004700983 0.006738588 -0.04527173)
(3.858764e-05 0.0001831408 -0.001733297)
(4.520647e-05 0.0002055581 -0.006156595)
(5.093605e-05 0.0002330276 -0.0102919)
(5.738077e-05 0.0002689692 -0.01924133)
(5.960721e-05 0.0003445486 -0.01801077)
(0.0006697993 0.003666835 -0.04207464)
(0.0009057936 0.004540341 -0.03558685)
(0.0004986648 0.005305233 -0.04800703)
(3.371642e-05 9.722397e-05 -0.00155607)
(3.890718e-05 0.0001083565 -0.00548427)
(4.305434e-05 0.0001217292 -0.009080444)
(4.760007e-05 0.0001388991 -0.01677483)
(4.867915e-05 0.0001748703 -0.01546103)
(0.0005400019 0.001827517 -0.03538492)
(0.0007333287 0.002238857 -0.02914367)
(0.0009263436 0.002652832 -0.03865774)
(0.000509669 0.003091502 -0.04728311)
(2.947256e-05 3.158281e-05 -0.001414059)
(3.354222e-05 3.53031e-05 -0.004953329)
(3.659572e-05 3.952601e-05 -0.008140357)
(3.96982e-05 4.391086e-05 -0.01490306)
(3.998405e-05 5.51809e-05 -0.01357932)
(0.0004294611 0.0005611971 -0.0306281)
(0.000575355 0.0006607632 -0.02474133)
(0.0007365064 0.0007889544 -0.03205035)
(0.0009315597 0.0009279965 -0.03881025)
(0.0005490097 0.001194472 -0.0393604)
(0.0001040385 -2.231715e-06 -0.00628253)
(0.0001654208 1.111891e-05 -0.004705218)
(9.920681e-05 3.810855e-06 -0.01991184)
(0.0001042714 3.867196e-05 -0.003761816)
(0.0001566421 3.811301e-05 -0.01489453)
(8.527585e-05 2.289693e-05 -0.0293364)
(7.355477e-05 9.506975e-05 -0.003124787)
(9.940251e-05 0.0001074751 -0.01190101)
(0.0001342288 0.0001198874 -0.02194168)
(6.882632e-05 0.0001163155 -0.04754628)
(5.634145e-05 0.000149846 -0.002657804)
(7.174694e-05 0.0001710221 -0.009867563)
(8.793683e-05 0.0001989849 -0.01750188)
(0.0001108052 0.0002335465 -0.03555875)
(4.154258e-05 0.0003154973 -0.03769499)
(4.570597e-05 0.0003174633 -0.0022939)
(5.575784e-05 0.0003630848 -0.008362592)
(6.50859e-05 0.0004215567 -0.01445594)
(7.588936e-05 0.0005017789 -0.02827018)
(7.108457e-05 0.000671712 -0.02819878)
(0.0003403151 0.007208957 -0.07218872)
(4.138816e-05 0.0003476647 -0.001994856)
(4.939021e-05 0.0003940165 -0.007170203)
(5.626063e-05 0.0004515551 -0.01216836)
(6.431844e-05 0.0005286041 -0.02319528)
(6.315225e-05 0.0006904981 -0.02229735)
(0.0007200047 0.007472584 -0.05406942)
(0.0004269584 0.009230592 -0.04793616)
(3.65209e-05 0.0002355823 -0.001759209)
(4.26937e-05 0.0002643902 -0.006255907)
(4.778508e-05 0.0002997054 -0.01047301)
(5.328813e-05 0.0003459885 -0.01961608)
(5.342366e-05 0.0004437866 -0.01840635)
(0.0005977178 0.004728132 -0.04315469)
(0.0008202411 0.005863564 -0.03674207)
(0.000453388 0.006868182 -0.05027443)
(3.26642e-05 0.0001678753 -0.001571331)
(3.764786e-05 0.0001871761 -0.005541701)
(4.150288e-05 0.0002102098 -0.009182899)
(4.562813e-05 0.0002397399 -0.01698081)
(4.578062e-05 0.0003011432 -0.01567072)
(0.0005059188 0.0031501 -0.03592506)
(0.0006884286 0.003867212 -0.02966202)
(0.0008765082 0.004598699 -0.03949988)
(0.0004838485 0.005402849 -0.04875544)
(2.898117e-05 8.96582e-05 -0.0014208)
(3.296034e-05 9.935503e-05 -0.00497836)
(3.589097e-05 0.0001107569 -0.008184251)
(3.882168e-05 0.0001251205 -0.01498959)
(3.874392e-05 0.000155065 -0.01366487)
(0.0004152832 0.001597433 -0.03084197)
(0.0005562501 0.001926284 -0.02493654)
(0.000712197 0.002263719 -0.03234218)
(0.0009040518 0.002690348 -0.03924272)
(0.0005332879 0.003427872 -0.03996751)
(2.563745e-05 2.923912e-05 -0.001298632)
(2.88429e-05 3.251972e-05 -0.004526656)
(3.101868e-05 3.616603e-05 -0.007395213)
(3.311063e-05 3.985134e-05 -0.01344373)
(3.261339e-05 4.94407e-05 -0.01214268)
(0.0003418613 0.0004970142 -0.02709031)
(0.0004427195 0.0005772422 -0.02157881)
(0.0005598633 0.0006779533 -0.02745345)
(0.0007197781 0.0007904415 -0.03252507)
(0.0009741423 0.001032595 -0.03280148)
(0.00455592 0.01112852 -0.1032622)
(0.0001031066 -6.992351e-06 -0.006241644)
(0.0001654208 -1.111891e-05 -0.004705218)
(9.920681e-05 -3.810855e-06 -0.01991184)
(0.0001043212 1.217109e-05 -0.003771053)
(0.0001575488 1.192955e-05 -0.01494875)
(8.594072e-05 7.111242e-06 -0.02952482)
(7.323136e-05 3.676986e-05 -0.00313866)
(9.939776e-05 4.040158e-05 -0.01197023)
(0.0001356451 4.288606e-05 -0.02212503)
(6.97823e-05 3.54053e-05 -0.04823687)
(5.504219e-05 8.620138e-05 -0.002677375)
(7.022805e-05 9.793643e-05 -0.009955172)
(8.635106e-05 0.0001130241 -0.01769853)
(0.0001104634 0.0001309565 -0.03610873)
(4.041562e-05 0.0001749288 -0.03868955)
(4.420434e-05 0.0001357276 -0.002321083)
(5.394268e-05 0.0001539561 -0.008476192)
(6.279932e-05 0.0001777748 -0.01468738)
(7.317151e-05 0.0002106232 -0.02882438)
(6.718319e-05 0.0002869145 -0.02893658)
(0.0003216291 0.002998206 -0.07528887)
(3.698582e-05 0.0002863389 -0.002033288)
(4.39234e-05 0.0003244255 -0.007322488)
(4.925945e-05 0.0003716331 -0.01245659)
(5.502203e-05 0.0004349878 -0.0238247)
(4.911497e-05 0.0005690489 -0.02300871)
(0.0005641778 0.006171432 -0.05631677)
(0.0003379815 0.007643014 -0.05131426)
(3.4363e-05 0.0003158507 -0.001789438)
(4.007888e-05 0.000355001 -0.006372624)
(4.450541e-05 0.0004022534 -0.01068759)
(4.901919e-05 0.0004638677 -0.02006442)
(4.686003e-05 0.0005912181 -0.01888555)
(0.0005213677 0.006313844 -0.04448201)
(0.0007322968 0.007889658 -0.03818313)
(0.0004073918 0.009399392 -0.05324957)
(3.08878e-05 0.0002159475 -0.001593152)
(3.551784e-05 0.0002407595 -0.005624086)
(3.888175e-05 0.0002703698 -0.009330366)
(4.230328e-05 0.0003083836 -0.01727867)
(4.093681e-05 0.0003876735 -0.01597516)
(0.0004487116 0.004058495 -0.03671804)
(0.0006119601 0.004987372 -0.03044702)
(0.0007878119 0.005941964 -0.04079372)
(0.0004364432 0.007002803 -0.05110057)
(2.806419e-05 0.0001546628 -0.001433852)
(3.187504e-05 0.0001714441 -0.00502689)
(3.457569e-05 0.0001910435 -0.008269563)
(3.718372e-05 0.0002156927 -0.01515803)
(3.641453e-05 0.0002667022 -0.01383236)
(0.0003885033 0.002749205 -0.03126034)
(0.0005201646 0.00332002 -0.02532045)
(0.0006662935 0.003909346 -0.03291949)
(0.0008523311 0.004663079 -0.04010364)
(0.0005034856 0.005990396 -0.04121287)
(2.520611e-05 8.303325e-05 -0.001304471)
(2.833734e-05 9.156166e-05 -0.004548121)
(3.041468e-05 0.0001013864 -0.007432408)
(3.237263e-05 0.0001135868 -0.013516)
(3.159696e-05 0.0001389515 -0.01221286)
(0.0003305055 0.001414873 -0.02726184)
(0.0004277396 0.00168296 -0.02173081)
(0.000540445 0.001945512 -0.027671)
(0.0006949651 0.002291781 -0.03282472)
(0.0009431525 0.002965687 -0.03316246)
(0.004407229 0.03210136 -0.105036)
(2.254062e-05 2.717377e-05 -0.0011983)
(2.509517e-05 3.008868e-05 -0.004159312)
(2.668369e-05 3.327041e-05 -0.006760839)
(2.807429e-05 3.640368e-05 -0.01221807)
(2.721833e-05 4.468718e-05 -0.01095559)
(0.0002788233 0.0004449312 -0.02422699)
(0.0003524031 0.0005110572 -0.01908323)
(0.0004307153 0.0005918113 -0.02394286)
(0.0005473261 0.0006786228 -0.02785575)
(0.0007523771 0.000877453 -0.02748411)
(0.008071606 0.009522673 -0.08601369)
(0.004688446 0.01106415 -0.01056841)
(0.0001010675 -6.077581e-05 -0.006150143)
(0.0001644084 -3.545117e-05 -0.004688007)
(9.835263e-05 -1.213543e-05 -0.01978374)
(0.0001043212 -1.217109e-05 -0.003771053)
(0.0001575488 -1.192955e-05 -0.01494875)
(8.594072e-05 -7.111242e-06 -0.02952482)
(7.308368e-05 1.158079e-05 -0.003144308)
(9.940409e-05 1.269213e-05 -0.01199941)
(0.0001363015 1.337505e-05 -0.02220515)
(7.02263e-05 1.094671e-05 -0.04854516)
(5.465807e-05 3.396224e-05 -0.002686818)
(6.985188e-05 3.802054e-05 -0.009999037)
(8.613672e-05 4.310027e-05 -0.01780104)
(0.0001112354 4.846079e-05 -0.0364088)
(4.036444e-05 6.441643e-05 -0.03925174)
(4.307586e-05 7.821995e-05 -0.002335513)
(5.257457e-05 8.845469e-05 -0.008538044)
(6.109006e-05 0.0001015912 -0.01481722)
(7.115566e-05 0.0001195301 -0.02914612)
(6.437822e-05 0.0001616967 -0.02938451)
(0.0003082627 0.001669481 -0.07726352)
(3.568138e-05 0.0001234837 -0.002054502)
(4.234455e-05 0.0001391037 -0.007408554)
(4.725392e-05 0.0001588416 -0.01262508)
(5.237364e-05 0.0001857077 -0.02420379)
(4.478588e-05 0.0002466828 -0.02346051)
(0.0005225279 0.002661437 -0.05777291)
(0.0003166359 0.003194417 -0.0534201)
(3.066103e-05 0.0002601177 -0.001821056)
(3.555771e-05 0.0002922994 -0.006495405)
(3.884322e-05 0.000331061 -0.01091374)
(4.16838e-05 0.0003816895 -0.02054082)
(3.59372e-05 0.0004867157 -0.01939442)
(0.0003912553 0.005205497 -0.04594928)
(0.0005657805 0.006517064 -0.04002309)
(0.0003147147 0.007793202 -0.05713884)
(2.90237e-05 0.0002887211 -0.001618451)
(3.328759e-05 0.0003222566 -0.005720246)
(3.613462e-05 0.000361656 -0.009503716)
(3.880928e-05 0.000411953 -0.01763168)
(3.577306e-05 0.0005146931 -0.01633969)
(0.0003876883 0.005394906 -0.03767752)
(0.0005307737 0.006658279 -0.03140299)
(0.0006956485 0.007990632 -0.04240611)
(0.0003875709 0.009578993 -0.05416178)
(2.652227e-05 0.0001989433 -0.001452469)
(3.004752e-05 0.0002205184 -0.005096319)
(3.236395e-05 0.0002457065 -0.008391963)
(3.443562e-05 0.0002774185 -0.01540068)
(3.254025e-05 0.0003431743 -0.01407434)
(0.0003438683 0.003539675 -0.03187099)
(0.0004596433 0.004277884 -0.02589915)
(0.0005882522 0.005043188 -0.03380004)
(0.0007605674 0.006028001 -0.04145034)
(0.0004491451 0.00777723 -0.04318491)
(2.440023e-05 0.0001431143 -0.001315754)
(2.739313e-05 0.0001578502 -0.004589652)
(2.928592e-05 0.0001747095 -0.007504536)
(3.099177e-05 0.0001956072 -0.01365633)
(2.968669e-05 0.000238744 -0.01234985)
(0.0003090449 0.002432056 -0.02759604)
(0.0003994251 0.002896149 -0.02202834)
(0.0005037356 0.003352529 -0.02809869)
(0.0006480414 0.003957327 -0.03341542)
(0.0008843502 0.005139671 -0.03388979)
(0.004106035 0.05605909 -0.1084788)
(2.215913e-05 7.71901e-05 -0.001203403)
(2.465195e-05 8.474743e-05 -0.004177914)
(2.616055e-05 9.33024e-05 -0.00679275)
(2.744437e-05 0.0001037836 -0.01227935)
(2.637023e-05 0.0001256034 -0.01101421)
(0.0002695337 0.001266681 -0.02436779)
(0.0003404146 0.00149008 -0.0192052)
(0.0004155199 0.001698432 -0.02411231)
(0.0005275819 0.0019677 -0.0280794)
(0.0007248925 0.002520353 -0.02773342)
(0.007782951 0.02746284 -0.08710837)
(0.004541422 0.03225695 -0.01102348)
(1.999615e-05 2.534004e-05 -0.001110325)
(2.206944e-05 2.7949e-05 -0.003839838)
(2.322727e-05 3.074836e-05 -0.006214456)
(2.416373e-05 3.344244e-05 -0.01117427)
(2.30994e-05 4.068238e-05 -0.009958467)
(0.0002327349 0.0004018697 -0.02186105)
(0.0002874163 0.0004573827 -0.0170639)
(0.0003428271 0.0005236517 -0.02117298)
(0.0004209962 0.0005920118 -0.0242908)
(0.000572402 0.0007523537 -0.02353508)
(0.006228811 0.008057355 -0.07204199)
(0.008331522 0.009493321 -0.008761829)
(0.004529573 0.01137673 -0.03042945)
(9.850338e-05 -0.0001247053 -0.005988546)
(0.0001622011 -0.0001047085 -0.004648612)
(9.648619e-05 -7.129359e-05 -0.01949691)
(0.0001042714 -3.867196e-05 -0.003761816)
(0.0001566421 -3.811301e-05 -0.01489453)
(8.527585e-05 -2.289693e-05 -0.0293364)
(7.308368e-05 -1.158079e-05 -0.003144308)
(9.940409e-05 -1.269213e-05 -0.01199941)
(0.0001363015 -1.337505e-05 -0.02220515)
(7.02263e-05 -1.094671e-05 -0.04854516)
(5.448045e-05 1.069463e-05 -0.002690538)
(6.968093e-05 1.19547e-05 -0.0100169)
(8.60488e-05 1.34918e-05 -0.01784428)
(0.0001116018 1.506361e-05 -0.03653996)
(4.035568e-05 1.984797e-05 -0.03950271)
(4.27086e-05 3.117063e-05 -0.002342241)
(5.215746e-05 3.492462e-05 -0.008567924)
(6.060913e-05 3.974192e-05 -0.01488228)
(7.069738e-05 4.626304e-05 -0.02931386)
(6.378793e-05 6.304613e-05 -0.02962893)
(0.000305959 0.0006282537 -0.07838003)
(3.471037e-05 7.123092e-05 -0.002065488)
(4.116788e-05 8.005726e-05 -0.007454171)
(4.577208e-05 9.102579e-05 -0.01271683)
(5.044209e-05 0.0001058878 -0.02441617)
(4.173191e-05 0.0001397636 -0.02372273)
(0.0004930195 0.001501059 -0.05865454)
(0.000301467 0.001780851 -0.0547557)
(2.952835e-05 0.0001129104 -0.001837997)
(3.419616e-05 0.0001263269 -0.00656261)
(3.713786e-05 0.0001427841 -0.01104149)
(3.945573e-05 0.0001645928 -0.0208168)
(3.23665e-05 0.0002124389 -0.01970366)
(0.0003496482 0.002270617 -0.04683643)
(0.0005199527 0.002814942 -0.04097995)
(0.000290764 0.003282377 -0.05944561)
(2.586922e-05 0.0002377397 -0.001644921)
(2.949199e-05 0.0002653052 -0.005821378)
(3.147326e-05 0.0002975984 -0.00968615)
(3.291824e-05 0.0003388791 -0.01800582)
(2.732851e-05 0.0004233144 -0.01672451)
(0.0002871998 0.004441959 -0.0387328)
(0.0003929201 0.00548945 -0.03264727)
(0.0005236959 0.006602282 -0.04455761)
(0.0002910123 0.007950717 -0.05847962)
(2.489806e-05 0.0002653546 -0.001473934)
(2.812533e-05 0.0002943845 -0.005176862)
(3.003475e-05 0.0003277456 -0.00853486)
(3.153352e-05 0.0003695028 -0.015686)
(2.839977e-05 0.0004544021 -0.01436138)
(0.000296111 0.004690038 -0.03260121)
(0.0003949923 0.005685474 -0.02659259)
(0.0005050817 0.006730322 -0.03487141)
(0.0006643604 0.008104796 -0.04311854)
(0.0003920936 0.01063593 -0.04577093)
(2.304971e-05 0.0001840752 -0.001331815)
(2.580913e-05 0.00020302 -0.00464893)
(2.739517e-05 0.0002246774 -0.007607739)
(2.868419e-05 0.0002515449 -0.01385783)
(2.652086e-05 0.0003070691 -0.01254699)
(0.0002734357 0.003129609 -0.02808173)
(0.0003522629 0.003729137 -0.02247569)
(0.0004422445 0.004320586 -0.02874869)
(0.0005683794 0.005106537 -0.03433624)
(0.0007804397 0.006648789 -0.03501811)
(0.003565082 0.07300122 -0.1147332)
(2.144573e-05 0.0001329446 -0.001213249)
(2.38233e-05 0.0001459848 -0.004213842)
(2.518187e-05 0.0001606429 -0.006854505)
(2.626462e-05 0.0001785671 -0.01239804)
(2.477571e-05 0.0002156252 -0.01112835)
(0.0002519716 0.002175174 -0.02464117)
(0.0003177441 0.002561138 -0.01944302)
(0.0003867792 0.002922277 -0.02444387)
(0.0004902178 0.003390407 -0.02851734)
(0.0006726038 0.004351573 -0.02823206)
(0.007205874 0.04755566 -0.08915785)
(0.004243245 0.05678004 -0.01194749)
(1.965643e-05 7.199852e-05 -0.001114821)
(2.167787e-05 7.874469e-05 -0.003856107)
(2.276983e-05 8.625511e-05 -0.006242125)
(2.361996e-05 9.535862e-05 -0.01122687)
(2.238083e-05 0.0001143546 -0.01000816)
(0.0002249954 0.001144135 -0.02197872)
(0.000277615 0.001333622 -0.01716405)
(0.000330682 0.001502878 -0.02130899)
(0.0004055726 0.001716618 -0.0244652)
(0.0005506432 0.002161029 -0.02372065)
(0.005979863 0.02323167 -0.07281846)
(0.008044799 0.02766926 -0.009095407)
(0.004374802 0.03294134 -0.0313192)
(1.788458e-05 2.370203e-05 -0.001032588)
(1.958351e-05 2.60513e-05 -0.003559565)
(2.04381e-05 2.853375e-05 -0.005739095)
(2.104674e-05 3.087052e-05 -0.01027495)
(1.991125e-05 3.726498e-05 -0.009109184)
(0.0001975602 0.0003656385 -0.01987367)
(0.0002399215 0.0004130281 -0.01539565)
(0.0002795975 0.0004684374 -0.01893191)
(0.0003350742 0.0005235667 -0.02147862)
(0.0004401732 0.0006557412 -0.02052083)
(0.004744491 0.006891556 -0.06167261)
(0.00643122 0.008041623 -0.007315863)
(0.008028817 0.009715872 -0.02529918)
(0.004488287 0.01144966 -0.01122652)
(9.444804e-05 -0.0004770605 -0.005736188)
(0.0001600226 -0.0001882671 -0.004576362)
(9.423237e-05 -0.0001424003 -0.01899005)
(0.0001041792 -0.0001036195 -0.003739895)
(0.00015467 -0.0001104154 -0.01477044)
(8.382944e-05 -9.210575e-05 -0.02891437)
(7.323136e-05 -3.676986e-05 -0.00313866)
(9.939776e-05 -4.040158e-05 -0.01197023)
(0.0001356451 -4.288606e-05 -0.02212503)
(6.97823e-05 -3.54053e-05 -0.04823687)
(5.448045e-05 -1.069463e-05 -0.002690538)
(6.968093e-05 -1.19547e-05 -0.0100169)
(8.60488e-05 -1.34918e-05 -0.01784428)
(0.0001116018 -1.506361e-05 -0.03653996)
(4.035568e-05 -1.984797e-05 -0.03950271)
(4.25384e-05 9.811178e-06 -0.002344804)
(5.196548e-05 1.098082e-05 -0.008579698)
(6.039206e-05 1.245412e-05 -0.0149088)
(7.049979e-05 1.442941e-05 -0.02938463)
(6.354227e-05 1.950256e-05 -0.0297358)
(0.0003050522 0.0001935002 -0.07887858)
(3.437775e-05 2.860313e-05 -0.00207044)
(4.077819e-05 3.194202e-05 -0.007475469)
(4.529406e-05 3.609992e-05 -0.0127612)
(4.983888e-05 4.176505e-05 -0.02452258)
(4.071995e-05 5.549075e-05 -0.02385949)
(0.0004852881 0.0005900463 -0.05913552)
(0.0002983919 0.0006742033 -0.05551224)
(2.869133e-05 6.516596e-05 -0.001846561)
(3.318968e-05 7.276952e-05 -0.006597345)
(3.588726e-05 8.194426e-05 -0.0111092)
(3.784082e-05 9.405599e-05 -0.02096683)
(2.985324e-05 0.0001206238 -0.01987688)
(0.0003204799 0.00128609 -0.04734895)
(0.0004876014 0.001587865 -0.0415511)
(0.0002738736 0.001833265 -0.06090291)
(2.488086e-05 0.0001037226 -0.0016587)
(2.831553e-05 0.0001153506 -0.005875067)
(3.002318e-05 0.0001291842 -0.009785961)
(3.106479e-05 0.0001471254 -0.01821506)
(2.450269e-05 0.0001855048 -0.01694978)
(0.0002536135 0.001947674 -0.03933746)
(0.0003484421 0.002395843 -0.03321354)
(0.0004742279 0.002858569 -0.04559149)
(0.0002645303 0.003368121 -0.06073295)
(2.217999e-05 0.0002184594 -0.001496412)
(2.489527e-05 0.0002423139 -0.005261617)
(2.61348e-05 0.0002696302 -0.0086852)
(2.670778e-05 0.0003038509 -0.01598809)
(2.170433e-05 0.000373419 -0.01466335)
(0.0002186876 0.00385733 -0.03340327)
(0.0002887778 0.004680783 -0.02751321)
(0.000364666 0.00554869 -0.03634168)
(0.000486953 0.006697677 -0.04559475)
(0.0002821013 0.00884 -0.04934966)
(2.162286e-05 0.0002450194 -0.001350239)
(2.413733e-05 0.0002704129 -0.004717315)
(2.539695e-05 0.0002989884 -0.007727488)
(2.623897e-05 0.0003342254 -0.01409314)
(2.313194e-05 0.0004057211 -0.01277899)
(0.0002352693 0.004136331 -0.02865702)
(0.0003017487 0.004940433 -0.02300518)
(0.0003764036 0.00574081 -0.02952695)
(0.0004832054 0.006814703 -0.0354493)
(0.000670219 0.008940779 -0.03642423)
(0.002976922 0.09929084 -0.1224921)
(2.025367e-05 0.0001709798 -0.001227237)
(2.243759e-05 0.0001877424 -0.004265015)
(2.354789e-05 0.0002065632 -0.006942659)
(2.429966e-05 0.0002295914 -0.01256803)
(2.214077e-05 0.0002772294 -0.01129207)
(0.0002229295 0.002797706 -0.02503712)
(0.0002801493 0.00329587 -0.01980014)
(0.000338958 0.003763255 -0.02494696)
(0.0004276933 0.004370243 -0.0291997)
(0.0005839982 0.005617789 -0.02900161)
(0.006195703 0.06159411 -0.092985)
(0.003698282 0.07409264 -0.01648149)
(1.902065e-05 0.0001239215 -0.001123482)
(2.094517e-05 0.000135548 -0.003887476)
(2.191337e-05 0.0001483995 -0.006295571)
(2.260082e-05 0.0001639457 -0.01132853)
(2.102949e-05 0.0001961721 -0.01010472)
(0.0002103605 0.001963116 -0.02220654)
(0.0002590751 0.002289977 -0.01735873)
(0.0003077033 0.002582741 -0.0215741)
(0.0003763756 0.002953303 -0.02480497)
(0.0005092491 0.003723221 -0.02409013)
(0.00548524 0.0400811 -0.07424299)
(0.007470758 0.04827933 -0.009776741)
(0.004061094 0.05875839 -0.0330425)
(1.758025e-05 6.735829e-05 -0.001036577)
(1.923515e-05 7.341689e-05 -0.003573907)
(2.003487e-05 8.006254e-05 -0.005763303)
(2.057262e-05 8.80377e-05 -0.01032057)
(1.929476e-05 0.000104754 -0.00915184)
(0.0001910112 0.001041011 -0.01997349)
(0.0002317598 0.001204312 -0.0154794)
(0.0002696779 0.001344435 -0.01904364)
(0.0003227607 0.001518166 -0.02161876)
(0.0004232152 0.001883483 -0.02066519)
(0.00454915 0.019867 -0.06226337)
(0.006182006 0.02343202 -0.007578637)
(0.007730137 0.02812288 -0.02591896)
(0.004330641 0.03326197 -0.01177632)
(1.610999e-05 2.223028e-05 -0.0009634322)
(1.752077e-05 2.43577e-05 -0.003311791)
(1.814693e-05 2.657355e-05 -0.005321912)
(1.853329e-05 2.861749e-05 -0.009492264)
(1.737265e-05 3.431343e-05 -0.008377366)
(0.0001703562 0.0003347552 -0.01818089)
(0.0002036777 0.0003757236 -0.01399458)
(0.0002334182 0.0004228483 -0.01708063)
(0.000273268 0.0004681737 -0.0192037)
(0.0003503135 0.0005795255 -0.01814352)
(0.003646525 0.00599604 -0.05376186)
(0.004897381 0.006882174 -0.006247466)
(0.006196061 0.00821429 -0.02116665)
(0.007960497 0.009767506 -0.009316617)
(0.004396437 0.01143434 -0.005749014)
(9.543215e-05 -0.0006093941 -0.005393743)
(0.0001563208 -0.0005043897 -0.004457656)
(9.064306e-05 -0.0005063832 -0.01819735)
(0.0001052102 -0.0001821948 -0.003697786)
(0.0001529205 -0.0001981874 -0.01454294)
(8.230405e-05 -0.0001768797 -0.02816816)
(7.355477e-05 -9.506975e-05 -0.003124787)
(9.940251e-05 -0.0001074751 -0.01190101)
(0.0001342288 -0.0001198874 -0.02194168)
(6.882632e-05 -0.0001163155 -0.04754628)
(5.465807e-05 -3.396224e-05 -0.002686818)
(6.985188e-05 -3.802054e-05 -0.009999037)
(8.613672e-05 -4.310027e-05 -0.01780104)
(0.0001112354 -4.846079e-05 -0.0364088)
(4.036444e-05 -6.441643e-05 -0.03925174)
(4.25384e-05 -9.811178e-06 -0.002344804)
(5.196548e-05 -1.098082e-05 -0.008579698)
(6.039206e-05 -1.245412e-05 -0.0149088)
(7.049979e-05 -1.442941e-05 -0.02938463)
(6.354227e-05 -1.950256e-05 -0.0297358)
(0.0003050522 -0.0001935002 -0.07887858)
(3.422364e-05 8.998479e-06 -0.00207226)
(4.059833e-05 1.003968e-05 -0.007483582)
(4.507582e-05 1.131478e-05 -0.01277869)
(4.956799e-05 1.304152e-05 -0.02456597)
(4.027373e-05 1.720226e-05 -0.02391721)
(0.0004819895 0.000182386 -0.0593458)
(0.000297144 0.0002076324 -0.05584999)
(2.839544e-05 2.631262e-05 -0.001850289)
(3.284093e-05 2.924e-05 -0.00661302)
(3.545889e-05 3.277958e-05 -0.01114085)
(3.729158e-05 3.748498e-05 -0.02103935)
(2.895358e-05 4.82865e-05 -0.01996373)
(0.0003104351 0.000512857 -0.04761585)
(0.0004786932 0.0006255273 -0.04186224)
(0.0002698198 0.0007006267 -0.06173008)
(2.415474e-05 5.987984e-05 -0.001665501)
(2.745138e-05 6.648065e-05 -0.005902144)
(2.896594e-05 7.419806e-05 -0.009837555)
(2.972757e-05 8.417367e-05 -0.01832576)
(2.251624e-05 0.0001054376 -0.01707225)
(0.0002300991 0.001105088 -0.03967394)
(0.0003173162 0.001356767 -0.0335319)
(0.000439496 0.001612771 -0.04620246)
(0.0002459702 0.001883962 -0.0621449)
(2.131272e-05 9.570192e-05 -0.001507787)
(2.387239e-05 0.0001058487 -0.005305302)
(2.489391e-05 0.0001176199 -0.008764982)
(2.515396e-05 0.0001325611 -0.01615157)
(1.94342e-05 0.0001640819 -0.01483425)
(0.0001923451 0.001696392 -0.03384205)
(0.0002531039 0.002052548 -0.0278889)