/*--------------------------------*- C++ -*----------------------------------*\
| =========                 |                                                 |
| \\      /  F ield         | OpenFOAM: The Open Source CFD Toolbox           |
|  \\    /   O peration     | Version:  2306                                  |
|   \\  /    A nd           | Website:  www.openfoam.com                      |
|    \\/     M anipulation  |                                                 |
\*---------------------------------------------------------------------------*/
FoamFile
{
    version     2.0;
    format      ascii;
    arch        "LSB;label=32;scalar=64";
    class       volScalarField;
    location    "1.5/fuel";
    object      X.H2O;
}
// * * * * * * * * * * * * * * * * * * * * * * * * * * * * * * * * * * * * * //

dimensions      [0 0 0 0 0 0 0];

internalField   nonuniform List<scalar> 
16000
(
0.0658482
0.06461398
0.08517934
0.0657772
0.06215422
0.08421062
0.06454233
0.1068583
0.08511444
0.06563838
0.05853884
0.08228144
0.06208118
0.1059873
0.08414531
0.06440226
0.1279836
0.1067985
0.08498741
0.065434
0.05402576
0.07944701
0.05846343
0.1042521
0.08221524
0.0619384
0.1271703
0.1059272
0.08401747
0.06419605
0.1481901
0.127928
0.1066815
0.0848002
0.0651654
0.04936787
0.07590584
0.05394657
0.1017002
0.07937935
0.05831607
0.1255507
0.1041913
0.08208568
0.06172825
0.1474223
0.1271145
0.1058095
0.08382908
0.06392507
0.1674818
0.1481379
0.1278189
0.1065088
0.08455401
0.06489961
0.04595816
0.07223562
0.04928358
0.09850757
0.07583584
0.05379183
0.123169
0.1016383
0.07924693
0.05809921
0.1458936
0.1254943
0.1040723
0.08189478
0.06145212
0.1667531
0.1473699
0.1270049
0.105636
0.08358135
0.06365693
0.1859214
0.1674325
0.1480355
0.1276579
0.1062816
0.0843103
0.06467979
0.04382872
0.06950933
0.0458716
0.09519277
0.07216249
0.04911884
0.1201896
0.09844388
0.07569886
0.05356412
0.1436464
0.1231117
0.1015171
0.07905184
0.0578143
0.1653027
0.1458407
0.1253836
0.1038968
0.08164377
0.0611789
0.1852275
0.1667036
0.147267
0.1268432
0.1054076
0.08333612
0.06343517
0.2035737
0.1858748
0.1673358
0.1478843
0.127446
0.1060566
0.08410875
0.06446167
0.04263101
0.06777356
0.0437413
0.09272466
0.06943515
0.04570248
0.1170959
0.09512658
0.07201933
0.04887635
0.140836
0.1201307
0.09831909
0.07549704
0.05326494
0.1631712
0.1435927
0.1229992
0.1013384
0.07879534
0.05753241
0.1838467
0.1652529
0.1457369
0.1252203
0.1036659
0.08139531
0.06095283
0.2029112
0.1851807
0.1666066
0.1471151
0.1266302
0.1051814
0.08313331
0.06321509
0.2204979
0.2035294
0.1857831
0.1671929
0.147685
0.127236
0.1058705
0.08390876
0.06424523
0.04209564
0.0667783
0.04254322
0.0911483
0.06769921
0.04357058
0.114791
0.09265779
0.06928995
0.04545362
0.1379183
0.1170348
0.09499685
0.07180835
0.04855766
0.1605063
0.1407809
0.1200151
0.09813504
0.07523166
0.05296892
0.1818179
0.1631207
0.1434873
0.1228331
0.1011032
0.07854146
0.05729874
0.2015932
0.1837995
0.165155
0.1455837
0.1250053
0.1034373
0.08118975
0.06072838
0.2198641
0.2028667
0.1850887
0.1664631
0.146915
0.1264193
0.1049944
0.08293205
0.0629967
0.2367462
0.2204557
0.2034422
0.1856476
0.1670046
0.1474876
0.1270624
0.1056859
0.08371031
0.06403048
0.04209564
0.06632708
0.04200769
0.09024151
0.066704
0.04237182
0.1133173
0.0910815
0.06755374
0.04331943
0.1357441
0.1147294
0.09252674
0.06907598
0.0451266
0.1577403
0.1378613
0.116915
0.09480545
0.07153085
0.04824222
0.179282
0.1604545
0.1406728
0.1198446
0.09789288
0.07496898
0.0527223
0.1996571
0.1817701
0.1630214
0.1433317
0.1226146
0.1008704
0.0783311
0.05706634
0.2186034
0.2015484
0.1837068
0.1650103
0.1453818
0.1247923
0.1032481
0.08098568
0.06050554
0.2361388
0.2198217
0.2027792
0.1849526
0.1662741
0.1467167
0.1262449
0.1048088
0.08273234
0.06278001
0.2523647
0.2367059
0.2203725
0.2033132
0.1854689
0.166818
0.1473243
0.1268901
0.1055027
0.08351342
0.06299853
0.04263101
0.06632708
0.04200769
0.08982937
0.0662528
0.04183601
0.1124684
0.09017485
0.06655861
0.04211973
0.134353
0.1132558
0.09095058
0.06733942
0.04298948
0.1556789
0.1356867
0.1146087
0.09233343
0.06879459
0.04480296
0.1766504
0.1576867
0.1377494
0.1167381
0.09455354
0.0712561
0.04797707
0.1972375
0.1792331
0.1603528
0.1405132
0.11962
0.09765307
0.07475041
0.05247576
0.2167516
0.1996117
0.1816761
0.1628746
0.1431267
0.122398
0.1006775
0.07812197
0.05683521
0.2349307
0.2185607
0.2014603
0.1835697
0.1648197
0.1451817
0.124616
0.1030603
0.08078311
0.06028434
0.2517817
0.2360983
0.2197383
0.2026498
0.1847733
0.1660867
0.1465528
0.1260718
0.1046246
0.08253418
0.06173875
0.2673944
0.2523261
0.2366264
0.2202495
0.2031432
0.1852917
0.1666636
0.1471623
0.1267192
0.105321
0.08256657
0.06229555
0.04382872
0.0667783
0.04254322
0.08982937
0.0662528
0.04183601
0.1120823
0.0897628
0.06610749
0.04158352
0.1335513
0.1124072
0.09004426
0.06634444
0.04178859
0.1543597
0.1342958
0.1131353
0.0907575
0.0670576
0.04266299
0.1746891
0.155625
0.135574
0.1144303
0.09207902
0.06851601
0.04453088
0.1947269
0.1765998
0.1575815
0.1375841
0.1165051
0.09430402
0.07102568
0.04770962
0.2144379
0.197191
0.1791368
0.1602024
0.1403029
0.1193976
0.09745354
0.07453216
0.05222931
0.2331565
0.2167084
0.1995224
0.1815371
0.1626812
0.1429236
0.1222186
0.1004857
0.07791406
0.05660536
0.2506223
0.2348899
0.2184767
0.2013299
0.1833889
0.1646307
0.1450162
0.1244411
0.1028739
0.08058204
0.05922105
0.266834
0.251743
0.2360186
0.2196149
0.2024792
0.1845955
0.1659317
0.1463901
0.1259
0.1044419
0.08158127
0.0610263
0.2818715
0.2673574
0.2522501
0.2365088
0.2200872
0.2029745
0.1851452
0.1665105
0.1470015
0.1265496
0.1044465
0.08192258
0.06176633
0.04595816
0.06777356
0.0437413
0.09024151
0.066704
0.04237182
0.1120823
0.0897628
0.06610749
0.04158352
0.1331864
0.1120212
0.08963239
0.06589343
0.04125189
0.153599
0.1334943
0.1122871
0.08985166
0.06606285
0.04146094
0.1734337
0.154306
0.1341835
0.1129575
0.09050343
0.06677863
0.04238906
0.1928559
0.1746382
0.1555191
0.1354076
0.1141955
0.09182704
0.06828234
0.04425643
0.2120376
0.1946789
0.1765003
0.1574259
0.1373662
0.1162742
0.09409478
0.0707938
0.04743985
0.23094
0.2143937
0.1970996
0.1789945
0.1600042
0.1400946
0.1192125
0.09725433
0.07431425
0.05198297
0.2489198
0.2331152
0.2166233
0.1993902
0.1813538
0.1624896
0.1427553
0.1220403
0.100295
0.07770739
0.05549888
0.2657199
0.2505833
0.2348097
0.2183523
0.2011579
0.1832097
0.1644744
0.1448519
0.1242675
0.1026889
0.07961482
0.05848157
0.2813324
0.2667969
0.2516667
0.2359006
0.219452
0.2023099
0.1844484
0.1657779
0.1462286
0.1257296
0.1035626
0.0809309
0.06048742
0.2958289
0.281836
0.2672844
0.2521375
0.2363536
0.2199262
0.202835
0.1849998
0.1663585
0.1468421
0.1257332
0.1038522
0.08143815
0.06141241
0.04936787
0.06950933
0.0458716
0.0911483
0.06769921
0.04357058
0.1124684
0.09017485
0.06655861
0.04211973
0.1331864
0.1120212
0.08963239
0.06589343
0.04125189
0.1532527
0.1331295
0.1119013
0.08944007
0.06561201
0.04092376
0.1727097
0.1535456
0.1333825
0.1121099
0.08959825
0.06578412
0.04118646
0.1916582
0.1733831
0.1542005
0.1340177
0.1127233
0.0902518
0.06654502
0.0421133
0.2102488
0.1928077
0.1745382
0.1553626
0.1351883
0.1139628
0.09161569
0.06804714
0.0439796
0.2286409
0.211992
0.1945845
0.1763531
0.1572208
0.1371503
0.1160806
0.09388424
0.07056045
0.04716773
0.2467932
0.2308979
0.2143067
0.1969644
0.1788069
0.1598078
0.1399212
0.1190277
0.09705544
0.07409669
0.05079159
0.2640841
0.2488804
0.233034
0.2164974
0.199216
0.1811721
0.1623307
0.142588
0.121863
0.1001055
0.07671196
0.05468724
0.2802605
0.2656825
0.2505065
0.2346909
0.2181883
0.2009874
0.1830614
0.1643192
0.1446888
0.1240951
0.1017983
0.07894594
0.05791192
0.2953096
0.2812967
0.2667238
0.2515537
0.2357449
0.2192905
0.2021699
0.1843025
0.1656253
0.1460684
0.1249092
0.1029631
0.08043983
0.06012545
0.3092959
0.2957947
0.281766
0.2671764
0.2519888
0.2361996
0.2197931
0.2026966
0.1848556
0.1662078
0.1460742
0.1251789
0.1034054
0.0811144
0.06123509
0.05402576
0.07223562
0.04928358
0.09272466
0.06943515
0.04570248
0.1133173
0.0910815
0.06755374
0.04331943
0.1335513
0.1124072
0.09004426
0.06634444
0.04178859
0.1532527
0.1331295
0.1119013
0.08944007
0.06561201
0.04092376
0.17238
0.1531994
0.1330179
0.1117244
0.08918703
0.06533344
0.04064908
0.1909673
0.1726593
0.1534406
0.1332172
0.1118765
0.08934729
0.06555102
0.04091057
0.2091036
0.1916102
0.1732835
0.1540447
0.1337992
0.1124913
0.0900411
0.0663103
0.04183571
0.2269276
0.210203
0.1927128
0.1743903
0.1551563
0.1349709
0.1137676
0.09140298
0.06781042
0.04370038
0.2445875
0.2285974
0.2119021
0.1944448
0.1761591
0.1570174
0.1369691
0.1158857
0.09367238
0.0703256
0.04584072
0.2620409
0.2467529
0.2308148
0.2141779
0.1967861
0.1786208
0.1596443
0.139748
0.1188431
0.09685688
0.07304451
0.04978767
0.2786869
0.2640463
0.2488027
0.2329137
0.2163313
0.1990432
0.1810216
0.1621728
0.1424217
0.1216868
0.09919202
0.07599241
0.05402236
0.2942773
0.2802247
0.2656089
0.2503928
0.2345341
0.2180256
0.2008463
0.1829142
0.1641652
0.1445269
0.1232652
0.1011833
0.07843328
0.05752233
0.3087953
0.2952754
0.2812265
0.2666154
0.2514046
0.2355904
0.2191569
0.202031
0.1841577
0.165474
0.145297
0.1243503
0.1025107
0.08011046
0.05994349
0.3222994
0.3092631
0.2957274
0.2816622
0.2670338
0.2518412
0.2360723
0.219661
0.2025593
0.1847125
0.1654817
0.145553
0.124762
0.1031067
0.08095226
0.05853884
0.07590584
0.05394657
0.09519277
0.07216249
0.04911884
0.114791
0.09265779
0.06928995
0.04545362
0.134353
0.1132558
0.09095058
0.06733942
0.04298948
0.153599
0.1334943
0.1122871
0.08985166
0.06606285
0.04146094
0.17238
0.1531994
0.1330179
0.1117244
0.08918703
0.06533344
0.04064908
0.1906527
0.1723297
0.1530946
0.132853
0.1114914
0.08893645
0.06510064
0.04037318
0.208443
0.1909195
0.1725601
0.1532853
0.1329996
0.1116453
0.08913743
0.06531713
0.04063327
0.2258307
0.209058
0.1915158
0.1731362
0.1538392
0.1335826
0.112297
0.0898294
0.06607447
0.04155628
0.2429439
0.2268839
0.2101127
0.1925725
0.1741952
0.1549518
0.1347885
0.1135711
0.09118889
0.06757217
0.04233931
0.2599221
0.244546
0.2285117
0.2117691
0.1942605
0.1759666
0.1568468
0.1367869
0.1156896
0.09345918
0.06918109
0.04444867
0.2767216
0.2620023
0.2466735
0.2306919
0.214008
0.1966093
0.178466
0.1594811
0.1395752
0.1186589
0.09589592
0.07218662
0.04882349
0.292762
0.2786506
0.2639718
0.2486875
0.232755
0.2161665
0.1989
0.1808719
0.1620159
0.1422563
0.120837
0.09853327
0.07541135
0.05353681
0.3078003
0.2942429
0.280154
0.2654999
0.2502427
0.2343785
0.217891
0.2007062
0.1827681
0.1640123
0.1437471
0.1226924
0.1007123
0.0780843
0.05732374
0.3218165
0.3087624
0.2952079
0.2811225
0.2664723
0.2512566
0.2354627
0.2190243
0.2018932
0.184014
0.1647448
0.1447718
0.1239285
0.1022073
0.07994508
0.3348638
0.3222678
0.3091983
0.2956277
0.2815252
0.2668922
0.2517192
0.2359459
0.2195299
0.2024231
0.1840232
0.164989
0.1451611
0.1244835
0.1029572
0.06215422
0.07944701
0.05846343
0.09850757
0.07583584
0.05379183
0.1170959
0.09512658
0.07201933
0.04887635
0.1357441
0.1147294
0.09252674
0.06907598
0.0451266
0.1543597
0.1342958
0.1131353
0.0907575
0.0670576
0.04266299
0.1727097
0.1535456
0.1333825
0.1121099
0.08959825
0.06578412
0.04118646
0.1906527
0.1723297
0.1530946
0.132853
0.1114914
0.08893645
0.06510064
0.04037318
0.2081421
0.190605
0.1722308
0.1529397
0.1326358
0.1112607
0.08872702
0.06486718
0.04009607
0.2251978
0.2083976
0.1908255
0.1724135
0.1530808
0.1327839
0.1114519
0.08892684
0.06508242
0.04035454
0.2418916
0.2257872
0.2089682
0.191376
0.172942
0.1536355
0.1334012
0.1121017
0.08961669
0.06583751
0.04019701
0.2583432
0.2429022
0.2267978
0.2099791
0.1923873
0.1740018
0.1547802
0.134605
0.1133734
0.09097344
0.06641128
0.04093238
0.2746837
0.2598822
0.244464
0.2283847
0.2115936
0.1940777
0.1758051
0.1566751
0.1366034
0.1154923
0.09241935
0.06803985
0.04273181
0.2908697
0.2766846
0.2619262
0.2465558
0.2305296
0.2138395
0.1964621
0.1783114
0.1593181
0.1394026
0.1177668
0.0951153
0.07138666
0.04797217
0.3063398
0.2927272
0.2785791
0.2638614
0.2485356
0.2325975
0.21603
0.1987577
0.1807231
0.1618598
0.1414587
0.1202246
0.09800212
0.07499275
0.05327402
0.3208566
0.3077672
0.294175
0.2800493
0.2653559
0.2500937
0.2342498
0.2177574
0.2005672
0.1826231
0.1632755
0.1432093
0.1222539
0.1003919
0.07790702
0.3343975
0.3217848
0.3086975
0.2951078
0.280985
0.2663303
0.2511342
0.2353359
0.2188928
0.2017564
0.1833219
0.1642484
0.1443754
0.1236457
0.102055
0.3470114
0.3348333
0.3222055
0.3091023
0.2954959
0.2813891
0.2667751
0.2515981
0.2358206
0.2193999
0.2017667
0.1835557
0.1646186
0.1448993
0.124344
0.06461398
0.08228144
0.06208118
0.1017002
0.07937935
0.05831607
0.1201896
0.09844388
0.07569886
0.05356412
0.1379183
0.1170348
0.09499685
0.07180835
0.04855766
0.1556789
0.1356867
0.1146087
0.09233343
0.06879459
0.04480296
0.1734337
0.154306
0.1341835
0.1129575
0.09050343
0.06677863
0.04238906
0.1909673
0.1726593
0.1534406
0.1332172
0.1118765
0.08934729
0.06555102
0.04091057
0.2081421
0.190605
0.1722308
0.1529397
0.1326358
0.1112607
0.08872702
0.06486718
0.04009607
0.2249096
0.2080968
0.1905112
0.1720845
0.1527356
0.1324206
0.1110678
0.088517
0.06463306
0.03981773
0.2412845
0.2251546
0.2083082
0.1906865
0.1722202
0.152878
0.1326035
0.1112579
0.08871552
0.06484692
0.03900075
0.2573324
0.2418501
0.2257015
0.2088352
0.1911918
0.1727494
0.1534649
0.1332189
0.1119055
0.08940298
0.06468496
0.03885591
0.2731653
0.2583033
0.2428199
0.2266703
0.2098028
0.1922036
0.1738394
0.1546074
0.1344202
0.1131744
0.08992265
0.06526646
0.03926243
0.2889077
0.2746456
0.2598038
0.2443426
0.2282171
0.2114194
0.1939243
0.1756426
0.1565023
0.1364188
0.1145291
0.0913866
0.06668287
0.04056159
0.304516
0.2908342
0.2766116
0.2618135
0.2464006
0.2303686
0.2136992
0.1963152
0.178157
0.1591554
0.1385664
0.1170426
0.09438928
0.07069876
0.04738876
0.3194476
0.3063063
0.2926585
0.2784732
0.2637157
0.2483848
0.232467
0.2158942
0.1986162
0.1805752
0.1611068
0.1408842
0.1197308
0.09762001
0.07476862
0.3334708
0.3208247
0.3077019
0.2940743
0.279911
0.2652129
0.2499704
0.2341221
0.2176248
0.2004292
0.1819241
0.1627675
0.1427974
0.1219555
0.1002292
0.3465609
0.334367
0.3217223
0.3086012
0.2949757
0.2808486
0.2662129
0.2510127
0.2352101
0.2187623
0.2010975
0.1828509
0.1638738
0.1441096
0.1235037
0.3587627
0.346982
0.3347732
0.3221129
0.3089754
0.295365
0.2812766
0.2666589
0.251478
0.2356962
0.2187733
0.2013216
0.1832042
0.1643712
0.1447682
0.0658482
0.08421062
0.06454233
0.1042521
0.08221524
0.0619384
0.123169
0.1016383
0.07924693
0.05809921
0.140836
0.1201307
0.09831909
0.07549704
0.05326494
0.1577403
0.1378613
0.116915
0.09480545
0.07153085
0.04824222
0.1746891
0.155625
0.135574
0.1144303
0.09207902
0.06851601
0.04453088
0.1916582
0.1733831
0.1542005
0.1340177
0.1127233
0.0902518
0.06654502
0.0421133
0.208443
0.1909195
0.1725601
0.1532853
0.1329996
0.1116453
0.08913743
0.06531713
0.04063327
0.2249096
0.2080968
0.1905112
0.1720845
0.1527356
0.1324206
0.1110678
0.088517
0.06463306
0.03981773
0.241008
0.2248664
0.2080076
0.1903725
0.1718916
0.1525333
0.1322407
0.1108744
0.08830638
0.06439828
0.03846676
0.2567491
0.2412432
0.2250693
0.2081758
0.190503
0.1720285
0.1527084
0.1324224
0.1110631
0.08850347
0.06370289
0.03770856
0.2721931
0.2572926
0.2417683
0.2255747
0.2086598
0.1910089
0.1725881
0.1532935
0.1330358
0.1117084
0.08836245
0.06359538
0.03733194
0.2874458
0.273127
0.2582245
0.242698
0.226502
0.2096279
0.1920495
0.173676
0.1544335
0.1342342
0.112203
0.08888894
0.06395242
0.03731372
0.3026252
0.288871
0.2745703
0.2596874
0.2441823
0.2280507
0.2112732
0.1937699
0.175479
0.1563284
0.1355171
0.1135721
0.09016148
0.06501308
0.0376936
0.3176885
0.3044819
0.2907641
0.2765034
0.2616647
0.2462464
0.2302345
0.2135591
0.1961684
0.1780028
0.1583667
0.1378875
0.1163689
0.09376641
0.07023773
0.3321106
0.3194154
0.3062402
0.2925567
0.2783333
0.2635711
0.2482598
0.2323373
0.2157593
0.1984755
0.1798613
0.1605646
0.1404209
0.1193757
0.0974156
0.3456656
0.3334401
0.3207618
0.307605
0.2939414
0.2797737
0.2650947
0.249848
0.2339953
0.2174931
0.1997639
0.1814423
0.1623785
0.1425172
0.121804
0.3583271
0.3465314
0.3343067
0.3216295
0.3084739
0.2948444
0.2807357
0.2660963
0.2508922
0.2350853
0.2181333
0.2006492
0.1824956
0.1636227
0.1439762
0.3701366
0.3587343
0.346924
0.334684
0.3219906
0.3088494
0.2952567
0.281165
0.2665436
0.2513589
0.2350968
0.2183485
0.2009869
0.1829694
0.1642473
0.08517934
0.0657772
0.1059873
0.08414531
0.06440226
0.1255507
0.1041913
0.08208568
0.06172825
0.1436464
0.1231117
0.1015171
0.07905184
0.0578143
0.1605063
0.1407809
0.1200151
0.09813504
0.07523166
0.05296892
0.1766504
0.1576867
0.1377494
0.1167381
0.09455354
0.0712561
0.04797707
0.1928559
0.1746382
0.1555191
0.1354076
0.1141955
0.09182704
0.06828234
0.04425643
0.2091036
0.1916102
0.1732835
0.1540447
0.1337992
0.1124913
0.0900411
0.0663103
0.04183571
0.2251978
0.2083976
0.1908255
0.1724135
0.1530808
0.1327839
0.1114519
0.08892684
0.06508242
0.04035454
0.241008
0.2248664
0.2080076
0.1903725
0.1718916
0.1525333
0.1322407
0.1108744
0.08830638
0.06439828
0.03846676
0.2564834
0.2409667
0.2247814
0.2078756
0.1901895
0.1717004
0.1523641
0.1320602
0.1106804
0.08809517
0.06325846
0.037197
0.2716322
0.2567096
0.2411617
0.2249431
0.2080013
0.1903211
0.1718681
0.1525381
0.1322407
0.1108677
0.08747237
0.06265354
0.03627932
0.2865098
0.272155
0.2572142
0.241647
0.2254073
0.2084857
0.1908558
0.172426
0.1531212
0.1328517
0.1107479
0.0873801
0.06239683
0.03563382
0.3012165
0.287409
0.2730515
0.2581077
0.2425371
0.226335
0.2094811
0.1918943
0.1735115
0.1542585
0.1333259
0.1112465
0.08770363
0.06245764
0.03508114
0.3158648
0.30259
0.2887987
0.2744587
0.2595338
0.2440231
0.2279112
0.2111261
0.1936145
0.1753144
0.1554786
0.1346204
0.112436
0.08865664
0.06284503
0.03300946
0.3304126
0.3176556
0.3044144
0.2906601
0.2763606
0.2615169
0.2461182
0.2301007
0.2134192
0.1960219
0.1772555
0.1577264
0.1372558
0.1157908
0.09334968
0.3443516
0.3320796
0.3193518
0.3061423
0.2924222
0.2781944
0.2634513
0.2481356
0.2322083
0.2156251
0.1977963
0.1793472
0.1601273
0.1400877
0.1191857
0.3574617
0.3456359
0.3333795
0.3206685
0.307477
0.2938093
0.2796601
0.2649773
0.2497265
0.2338694
0.2168583
0.1993055
0.1810733
0.1621139
0.142375
0.3697154
0.3582987
0.3464732
0.3342172
0.3215069
0.3083476
0.2947359
0.2806238
0.2659807
0.2507726
0.2344837
0.2177055
0.2003109
0.1822573
0.1634967
0.3811509
0.3701093
0.3586783
0.3468379
0.334566
0.3218691
0.3087451
0.2951494
0.2810542
0.2664293
0.2507845
0.2346905
0.2180291
0.2007634
0.1828518
0.1068583
0.08511444
0.06563838
0.1271703
0.1059272
0.08401747
0.06419605
0.1458936
0.1254943
0.1040723
0.08189478
0.06145212
0.1631712
0.1435927
0.1229992
0.1013384
0.07879534
0.05753241
0.179282
0.1604545
0.1406728
0.1198446
0.09789288
0.07496898
0.0527223
0.1947269
0.1765998
0.1575815
0.1375841
0.1165051
0.09430402
0.07102568
0.04770962
0.2102488
0.1928077
0.1745382
0.1553626
0.1351883
0.1139628
0.09161569
0.06804714
0.0439796
0.2258307
0.209058
0.1915158
0.1731362
0.1538392
0.1335826
0.112297
0.0898294
0.06607447
0.04155628
0.2412845
0.2251546
0.2083082
0.1906865
0.1722202
0.152878
0.1326035
0.1112579
0.08871552
0.06484692
0.03900075
0.2564834
0.2409667
0.2247814
0.2078756
0.1901895
0.1717004
0.1523641
0.1320602
0.1106804
0.08809517
0.06325846
0.037197
0.2713766
0.256444
0.2408855
0.2246554
0.2077014
0.190008
0.1715405
0.1521945
0.1318792
0.1104858
0.08706871
0.06222755
0.03580962
0.2859698
0.2715943
0.2566316
0.241041
0.2247765
0.207828
0.1901689
0.1717072
0.1523672
0.1320584
0.1099168
0.08652727
0.06152936
0.03472193
0.3003145
0.2864732
0.2720799
0.2570981
0.2414869
0.2252411
0.2083399
0.1907019
0.1722631
0.152948
0.1319544
0.1098401
0.08629966
0.06109637
0.03377962
0.3145062
0.3011812
0.2873365
0.2729395
0.2579535
0.2423773
0.2261949
0.2093332
0.191738
0.1733459
0.1534032
0.1324306
0.1101485
0.08635613
0.06077889
0.032186
0.3286523
0.3158309
0.3025205
0.2886915
0.2743112
0.2593812
0.2438895
0.2277707
0.210978
0.193458
0.1745096
0.1546329
0.1335549
0.1110398
0.08670496
0.05932254
0.03049917
0.3427113
0.3303809
0.3175907
0.3043144
0.2905228
0.2762187
0.2613939
0.24599
0.2299671
0.2132796
0.1953114
0.1766487
0.1571302
0.1367136
0.115404
0.3561915
0.3443217
0.3320183
0.3192575
0.3060128
0.2922886
0.2780793
0.2633321
0.2480121
0.2320801
0.2149773
0.1973073
0.1789326
0.1598127
0.1399093
0.3688782
0.3574331
0.3455775
0.3332895
0.3205451
0.3073499
0.2937
0.2795473
0.2648607
0.249606
0.2332623
0.2164209
0.1989544
0.1808224
0.1619796
0.3807432
0.3696879
0.3582426
0.3463869
0.334099
0.321385
0.308243
0.2946281
0.2805127
0.265866
0.2501962
0.2340746
0.2173827
0.2000841
0.1821377
0.3918216
0.3811244
0.3700551
0.3585951
0.346724
0.3344488
0.3217687
0.3086417
0.2950428
0.2809444
0.2658781
0.2503952
0.2343851
0.2178158
0.2006515
0.1279836
0.1067985
0.08498741
0.065434
0.1474223
0.1271145
0.1058095
0.08382908
0.06392507
0.1653027
0.1458407
0.1253836
0.1038968
0.08164377
0.0611789
0.1818179
0.1631207
0.1434873
0.1228331
0.1011032
0.07854146
0.05729874
0.1972375
0.1792331
0.1603528
0.1405132
0.11962
0.09765307
0.07475041
0.05247576
0.2120376
0.1946789
0.1765003
0.1574259
0.1373662
0.1162742
0.09409478
0.0707938
0.04743985
0.2269276
0.210203
0.1927128
0.1743903
0.1551563
0.1349709
0.1137676
0.09140298
0.06781042
0.04370038
0.2418916
0.2257872
0.2089682
0.191376
0.172942
0.1536355
0.1334012
0.1121017
0.08961669
0.06583751
0.04019701
0.2567491
0.2412432
0.2250693
0.2081758
0.190503
0.1720285
0.1527084
0.1324224
0.1110631
0.08850347
0.06370289
0.03770856
0.2713766
0.256444
0.2408855
0.2246554
0.2077014
0.190008
0.1715405
0.1521945
0.1318792
0.1104858
0.08706871
0.06222755
0.03580962
0.2857237
0.2713388
0.2563662
0.2407651
0.2244892
0.2075286
0.1898562
0.1713801
0.1520243
0.1316977
0.1095396
0.0861407
0.06113614
0.03431173
0.2997941
0.2859334
0.2715195
0.256516
0.2408817
0.2246111
0.2076831
0.1900161
0.1715456
0.1521958
0.1311705
0.1090443
0.08551435
0.06033747
0.03304987
0.3136363
0.3002794
0.2864011
0.2719685
0.2569447
0.241328
0.2251019
0.2081934
0.1905472
0.1720993
0.1521036
0.1311055
0.1088404
0.08512725
0.05970837
0.03146281
0.3273409
0.3144722
0.3011114
0.2872289
0.2727915
0.2578004
0.2422432
0.2260537
0.2091844
0.1915807
0.1725364
0.1525593
0.1314017
0.1088993
0.0848431
0.05863468
0.03015029
0.341011
0.3286196
0.315764
0.3024174
0.2885498
0.2741648
0.2592532
0.2437551
0.2276293
0.2108289
0.1926932
0.1737082
0.153627
0.1322446
0.1092284
0.08353155
0.05729274
0.02865338
0.354606
0.3426808
0.3303183
0.3174944
0.3041823
0.2903864
0.2761006
0.2612711
0.2458621
0.2298336
0.2126021
0.1947344
0.1760836
0.1566183
0.1363505
0.3676498
0.3561626
0.3442626
0.3319274
0.3191328
0.3058843
0.292178
0.2779649
0.2632137
0.2478893
0.2314608
0.2145109
0.196913
0.1786343
0.1596443
0.379933
0.3688506
0.3573766
0.3454906
0.3331705
0.3204226
0.3072447
0.2935916
0.2794353
0.2647451
0.2490244
0.2328442
0.216086
0.1987156
0.1806949
0.3914268
0.3807166
0.3696337
0.3581592
0.3462728
0.3339815
0.3212843
0.3081393
0.2945213
0.2804024
0.2653128
0.2498042
0.2337659
0.2171663
0.1999703
0.402164
0.391796
0.3810721
0.3699748
0.3584852
0.3466109
0.3343519
0.321669
0.3085391
0.2949371
0.2804147
0.2655045
0.2501026
0.234181
0.217709
0.1481901
0.127928
0.1066815
0.0848002
0.0651654
0.1667531
0.1473699
0.1270049
0.105636
0.08358135
0.06365693
0.1838467
0.1652529
0.1457369
0.1252203
0.1036659
0.08139531
0.06095283
0.1996571
0.1817701
0.1630214
0.1433317
0.1226146
0.1008704
0.0783311
0.05706634
0.2144379
0.197191
0.1791368
0.1602024
0.1403029
0.1193976
0.09745354
0.07453216
0.05222931
0.2286409
0.211992
0.1945845
0.1763531
0.1572208
0.1371503
0.1160806
0.09388424
0.07056045
0.04716773
0.2429439
0.2268839
0.2101127
0.1925725
0.1741952
0.1549518
0.1347885
0.1135711
0.09118889
0.06757217
0.04233931
0.2573324
0.2418501
0.2257015
0.2088352
0.1911918
0.1727494
0.1534649
0.1332189
0.1119055
0.08940298
0.06468496
0.03885591
0.2716322
0.2567096
0.2411617
0.2249431
0.2080013
0.1903211
0.1718681
0.1525381
0.1322407
0.1108677
0.08747237
0.06265354
0.03627932
0.2857237
0.2713388
0.2563662
0.2407651
0.2244892
0.2075286
0.1898562
0.1713801
0.1520243
0.1316977
0.1095396
0.0861407
0.06113614
0.03431173
0.299557
0.2856874
0.2712642
0.2562509
0.2406062
0.2243243
0.2073841
0.189704
0.1712192
0.1518537
0.1308144
0.1086832
0.08515758
0.05998999
0.03271338
0.3131343
0.2997592
0.2858616
0.2714086
0.2563634
0.2407236
0.2244728
0.2075376
0.1898628
0.1713835
0.1513604
0.130355
0.1081078
0.08443981
0.0590886
0.03097637
0.3265013
0.3136025
0.30021
0.2862941
0.2718213
0.2567924
0.2411948
0.224962
0.2080461
0.1903918
0.1713004
0.151304
0.1301695
0.1077544
0.08387538
0.05800823
0.02974523
0.3397444
0.3273081
0.314405
0.301008
0.2870867
0.2726445
0.2576719
0.2421082
0.2259116
0.2090346
0.1908118
0.1717372
0.1515887
0.1302301
0.1074956
0.08290905
0.05696842
0.02848075
0.3529627
0.3409796
0.3285552
0.3156647
0.302281
0.288409
0.2740419
0.2591243
0.2436197
0.2274869
0.2101
0.1919311
0.1727544
0.1523894
0.1305438
0.1062803
0.08170153
0.0556817
0.02724241
0.3661164
0.3545766
0.3426205
0.3302255
0.3173672
0.304051
0.2902728
0.2759826
0.2611484
0.2457344
0.2291863
0.2120519
0.1941968
0.1755982
0.1562754
0.3787442
0.3676219
0.3561056
0.3441748
0.3318071
0.3190089
0.3057777
0.2920679
0.2778511
0.2630959
0.2472962
0.231015
0.2141348
0.1966292
0.1784746
0.3906424
0.3799063
0.3687961
0.3572928
0.3453758
0.3330523
0.3203212
0.3071402
0.2934839
0.2793242
0.2641871
0.2486239
0.2325239
0.2158581
0.1985943
0.4017816
0.3914012
0.3806642
0.3695531
0.3580489
0.3461593
0.3338843
0.3211843
0.3080364
0.2944152
0.279871
0.2649368
0.2495085
0.233559
0.2170577
0.4121921
0.4021393
0.3917454
0.3809944
0.3698685
0.3583758
0.3465173
0.3342558
0.3215701
0.3084373
0.2944275
0.2800557
0.2652237
0.2499071
0.2340789
0.1674818
0.1481379
0.1278189
0.1065088
0.08455401
0.06489961
0.1852275
0.1667036
0.147267
0.1268432
0.1054076
0.08333612
0.06343517
0.2015932
0.1837995
0.165155
0.1455837
0.1250053
0.1034373
0.08118975
0.06072838
0.2167516
0.1996117
0.1816761
0.1628746
0.1431267
0.122398
0.1006775
0.07812197
0.05683521
0.23094
0.2143937
0.1970996
0.1789945
0.1600042
0.1400946
0.1192125
0.09725433
0.07431425
0.05198297
0.2445875
0.2285974
0.2119021
0.1944448
0.1761591
0.1570174
0.1369691
0.1158857
0.09367238
0.0703256
0.04584072
0.2583432
0.2429022
0.2267978
0.2099791
0.1923873
0.1740018
0.1547802
0.134605
0.1133734
0.09097344
0.06641128
0.04093238
0.2721931
0.2572926
0.2417683
0.2255747
0.2086598
0.1910089
0.1725881
0.1532935
0.1330358
0.1117084
0.08836245
0.06359538
0.03733194
0.2859698
0.2715943
0.2566316
0.241041
0.2247765
0.207828
0.1901689
0.1717072
0.1523672
0.1320584
0.1099168
0.08652727
0.06152936
0.03472193
0.299557
0.2856874
0.2712642
0.2562509
0.2406062
0.2243243
0.2073841
0.189704
0.1712192
0.1518537
0.1308144
0.1086832
0.08515758
0.05998999
0.03271338
0.3129057
0.2995221
0.2856158
0.2711537
0.2560987
0.2404484
0.2241864
0.2072392
0.1895514
0.1710579
0.1510228
0.1300143
0.1077746
0.08412429
0.05879707
0.03073564
0.3260168
0.3131007
0.2996901
0.2857551
0.2712622
0.2562119
0.2405913
0.224334
0.2073916
0.1897089
0.1705934
0.1505927
0.1294787
0.1071131
0.08331292
0.05757359
0.02943197
0.3389334
0.3264687
0.3135357
0.3001072
0.2861527
0.2716752
0.2566649
0.241061
0.2248214
0.207898
0.1896331
0.1705435
0.1504215
0.1291517
0.1065938
0.08234022
0.05658417
0.02824945
0.3517385
0.3397128
0.3272435
0.3143054
0.3008712
0.2869455
0.2725212
0.2575425
0.2419722
0.2257686
0.208302
0.1900521
0.1708171
0.1504825
0.1289129
0.1057
0.08140339
0.05549079
0.02714208
0.3645271
0.3529323
0.3409174
0.3284595
0.3155335
0.3021456
0.2882909
0.2739182
0.2589946
0.2434834
0.2267905
0.2093733
0.1910236
0.1715802
0.1507822
0.1277737
0.1045824
0.08024399
0.05436734
0.02615344
0.3772604
0.3660879
0.3545184
0.3425309
0.3301028
0.3172407
0.3039418
0.2901595
0.2758649
0.2610259
0.2451146
0.2286604
0.2115392
0.1937349
0.1752729
0.3894914
0.3787172
0.3675668
0.3560209
0.3440588
0.3316877
0.3189063
0.3056718
0.2919585
0.277738
0.262527
0.2468693
0.2306554
0.2138641
0.1964772
0.4010217
0.3906166
0.3798536
0.3687151
0.3571819
0.3452618
0.3329546
0.3202206
0.3070366
0.293377
0.2787882
0.2638029
0.2483171
0.2323061
0.2157424
0.4118215
0.4017567
0.3913504
0.3805863
0.3694465
0.3579394
0.3460655
0.3337879
0.3210852
0.3079343
0.293904
0.2795096
0.264653
0.2493103
0.2334551
0.421919
0.4121682
0.4020903
0.3916702
0.3808916
0.3697628
0.3582855
0.3464245
0.3341604
0.321472
0.3079466
0.2940822
0.2797859
0.2650361
0.2498092
0.1859214
0.1674325
0.1480355
0.1276579
0.1062816
0.0843103
0.06467979
0.2029112
0.1851807
0.1666066
0.1471151
0.1266302
0.1051814
0.08313331
0.06321509
0.2186034
0.2015484
0.1837068
0.1650103
0.1453818
0.1247923
0.1032481
0.08098568
0.06050554
0.2331565
0.2167084
0.1995224
0.1815371
0.1626812
0.1429236
0.1222186
0.1004857
0.07791406
0.05660536
0.2467932
0.2308979
0.2143067
0.1969644
0.1788069
0.1598078
0.1399212
0.1190277
0.09705544
0.07409669
0.05079159
0.2599221
0.244546
0.2285117
0.2117691
0.1942605
0.1759666
0.1568468
0.1367869
0.1156896
0.09345918
0.06918109
0.04444867
0.2731653
0.2583033
0.2428199
0.2266703
0.2098028
0.1922036
0.1738394
0.1546074
0.1344202
0.1131744
0.08992265
0.06526646
0.03926243
0.2865098
0.272155
0.2572142
0.241647
0.2254073
0.2084857
0.1908558
0.172426
0.1531212
0.1328517
0.1107479
0.0873801
0.06239683
0.03563382
0.2997941
0.2859334
0.2715195
0.256516
0.2408817
0.2246111
0.2076831
0.1900161
0.1715456
0.1521958
0.1311705
0.1090443
0.08551435
0.06033747
0.03304987
0.3129057
0.2995221
0.2856158
0.2711537
0.2560987
0.2404484
0.2241864
0.2072392
0.1895514
0.1710579
0.1510228
0.1300143
0.1077746
0.08412429
0.05879707
0.03073564
0.3257961
0.3128721
0.2994533
0.2855096
0.2710076
0.2559475
0.2403165
0.2240481
0.2070939
0.1893982
0.1702722
0.1502696
0.1291643
0.1068184
0.08304766
0.05735425
0.02926638
0.3384655
0.3259844
0.3130343
0.2995878
0.2856145
0.2711168
0.2560851
0.2404585
0.2241946
0.2072451
0.1889587
0.1698668
0.1497668
0.1285469
0.1060687
0.08194392
0.05628056
0.02805321
0.3509547
0.3389021
0.3264044
0.3134367
0.2999712
0.2860123
0.2715527
0.2565366
0.2409265
0.2246801
0.2071754
0.1889139
0.1697074
0.1494612