/*--------------------------------*- C++ -*----------------------------------*\
| =========                 |                                                 |
| \\      /  F ield         | OpenFOAM: The Open Source CFD Toolbox           |
|  \\    /   O peration     | Version:  2306                                  |
|   \\  /    A nd           | Website:  www.openfoam.com                      |
|    \\/     M anipulation  |                                                 |
\*---------------------------------------------------------------------------*/
FoamFile
{
    version     2.0;
    format      ascii;
    arch        "LSB;label=32;scalar=64";
    class       volScalarField;
    location    "1.5/fuel";
    object      X.H2;
}
// * * * * * * * * * * * * * * * * * * * * * * * * * * * * * * * * * * * * * //

dimensions      [0 0 0 0 0 0 0];

internalField   nonuniform List<scalar> 
16000
(
0.9341518
0.935386
0.9148207
0.9342228
0.9378458
0.9157894
0.9354577
0.8931417
0.9148856
0.9343616
0.9414612
0.9177186
0.9379188
0.8940127
0.9158547
0.9355977
0.8720164
0.8932015
0.9150126
0.934566
0.9459742
0.920553
0.9415366
0.8957479
0.9177848
0.9380616
0.8728297
0.8940728
0.9159825
0.9358039
0.8518099
0.872072
0.8933185
0.9151998
0.9348346
0.9506321
0.9240942
0.9460534
0.8982998
0.9206207
0.9416839
0.8744493
0.8958087
0.9179143
0.9382717
0.8525777
0.8728855
0.8941905
0.9161709
0.9360749
0.8325182
0.8518621
0.8721811
0.8934912
0.915446
0.9351004
0.9540418
0.9277644
0.9507164
0.9014924
0.9241642
0.9462082
0.876831
0.8983617
0.9207531
0.9419008
0.8541064
0.8745057
0.8959277
0.9181052
0.9385479
0.8332469
0.8526301
0.8729951
0.894364
0.9164187
0.9363431
0.8140786
0.8325675
0.8519645
0.8723421
0.8937184
0.9156897
0.9353202
0.9561713
0.9304907
0.9541284
0.9048072
0.9278375
0.9508812
0.8798104
0.9015561
0.9243011
0.9464359
0.8563536
0.8768883
0.8984829
0.9209482
0.9421857
0.8346973
0.8541593
0.8746164
0.8961032
0.9183562
0.9388211
0.8147725
0.8332964
0.852733
0.8731568
0.8945924
0.9166639
0.9365648
0.7964263
0.8141252
0.8326642
0.8521157
0.872554
0.8939434
0.9158912
0.9355383
0.957369
0.9322264
0.9562587
0.9072753
0.9305649
0.9542975
0.8829041
0.9048734
0.9279807
0.9511236
0.859164
0.8798693
0.9016809
0.924503
0.9467351
0.8368288
0.8564073
0.8770008
0.8986616
0.9212047
0.9424676
0.8161533
0.8347471
0.8542631
0.8747797
0.8963341
0.9186047
0.9390472
0.7970888
0.8148193
0.8333934
0.8528849
0.8733698
0.8948186
0.9168667
0.9367849
0.7795021
0.7964706
0.8142169
0.8328071
0.852315
0.872764
0.8941295
0.9160912
0.9357548
0.9579044
0.9332217
0.9574568
0.9088517
0.9323008
0.9564294
0.885209
0.9073422
0.9307101
0.9545464
0.8620817
0.8829652
0.9050032
0.9281917
0.9514423
0.8394937
0.8592191
0.8799849
0.901865
0.9247683
0.9470311
0.8181821
0.8368793
0.8565127
0.8771669
0.8988968
0.9214585
0.9427013
0.7984068
0.8162005
0.834845
0.8544163
0.8749947
0.8965627
0.9188103
0.9392716
0.7801359
0.7971333
0.8149113
0.8335369
0.853085
0.8735807
0.8950056
0.917068
0.9370033
0.7632538
0.7795443
0.7965578
0.8143524
0.8329954
0.8525124
0.8729376
0.8943141
0.9162897
0.9359695
0.9579044
0.9336729
0.9579923
0.9097585
0.933296
0.9576282
0.8866827
0.9089185
0.9324463
0.9566806
0.8642559
0.8852706
0.9074733
0.930924
0.9548734
0.8422597
0.8621387
0.883085
0.9051946
0.9284691
0.9517578
0.820718
0.8395455
0.8593272
0.8801554
0.9021071
0.925031
0.9472777
0.8003429
0.8182299
0.8369786
0.8566683
0.8773854
0.8991296
0.9216689
0.9429337
0.7813966
0.7984516
0.8162932
0.8349897
0.8546182
0.8752077
0.8967519
0.9190143
0.9394945
0.7638612
0.7801783
0.7972208
0.8150474
0.8337259
0.8532833
0.8737551
0.8951912
0.9172677
0.93722
0.7476353
0.7632941
0.7796275
0.7966868
0.8145311
0.833182
0.8526757
0.8731099
0.8944973
0.9164866
0.9370015
0.957369
0.9336729
0.9579923
0.9101706
0.9337472
0.958164
0.8875316
0.9098251
0.9334414
0.9578803
0.865647
0.8867442
0.9090494
0.9326606
0.9570105
0.8443211
0.8643133
0.8853913
0.9076666
0.9312054
0.955197
0.8233496
0.8423133
0.8622506
0.8832619
0.9054465
0.9287439
0.9520229
0.8027625
0.8207669
0.8396472
0.8594868
0.88038
0.9023469
0.9252496
0.9475242
0.7832484
0.8003883
0.8183239
0.8371254
0.8568733
0.877602
0.8993225
0.921878
0.9431648
0.7650693
0.7814393
0.7985397
0.8164303
0.8351803
0.8548183
0.875384
0.8969397
0.9192169
0.9397157
0.7482183
0.7639017
0.7802617
0.7973502
0.8152267
0.8339133
0.8534472
0.8739282
0.8953754
0.9174658
0.9382612
0.7326056
0.7476739
0.7633736
0.7797505
0.7968568
0.8147083
0.8333364
0.8528377
0.8732808
0.894679
0.9174334
0.9377045
0.9561713
0.9332217
0.9574568
0.9101706
0.9337472
0.958164
0.8879177
0.9102372
0.9338925
0.9584165
0.8664487
0.8875928
0.9099557
0.9336556
0.9582114
0.8456403
0.8657042
0.8868647
0.9092425
0.9329424
0.957337
0.8253109
0.844375
0.864426
0.8855697
0.907921
0.931484
0.9554691
0.8052731
0.8234002
0.8424185
0.8624159
0.8834949
0.905696
0.9289743
0.9522904
0.7855621
0.802809
0.8208632
0.8397976
0.8596971
0.8806024
0.9025465
0.9254678
0.9477707
0.7668435
0.7832916
0.8004776
0.8184629
0.8373188
0.8570764
0.8777814
0.8995143
0.9220859
0.9433946
0.7493777
0.7651101
0.7815233
0.7986701
0.8166111
0.8353693
0.8549838
0.8755589
0.8971261
0.919418
0.9407789
0.733166
0.748257
0.7639814
0.7803851
0.7975208
0.8154045
0.8340683
0.8536099
0.8741
0.8955581
0.9184187
0.9389737
0.7181285
0.7326426
0.7477499
0.7634912
0.7799128
0.7970255
0.8148548
0.8334895
0.8529985
0.8734504
0.8955535
0.9180774
0.9382337
0.9540418
0.9322264
0.9562587
0.9097585
0.933296
0.9576282
0.8879177
0.9102372
0.9338925
0.9584165
0.8668136
0.8879788
0.9103676
0.9341066
0.9587481
0.846401
0.8665057
0.8877129
0.9101483
0.9339371
0.9585391
0.8265663
0.845694
0.8658165
0.8870425
0.9094966
0.9332214
0.9576109
0.8071441
0.8253618
0.8444809
0.8645924
0.8858045
0.908173
0.9317177
0.9557436
0.7879624
0.8053211
0.8234997
0.8425741
0.8626338
0.8837258
0.9059052
0.9292062
0.9525602
0.76906
0.7856063
0.8029004
0.8210055
0.8399958
0.8599054
0.8807875
0.9027457
0.9256857
0.948017
0.7510802
0.7668848
0.7833767
0.8006098
0.8186462
0.8375104
0.8572447
0.8779597
0.899705
0.9222926
0.9445011
0.7342801
0.7494167
0.7651903
0.7816477
0.7988421
0.8167903
0.8355256
0.8551481
0.8757325
0.8973111
0.9203852
0.9415184
0.7186676
0.7332031
0.7483333
0.7640994
0.780548
0.7976901
0.8155516
0.8342221
0.8537714
0.8742704
0.8964374
0.9190691
0.9395126
0.7041711
0.718164
0.7327156
0.7478625
0.7636464
0.7800738
0.797165
0.8150002
0.8336415
0.8531579
0.8742668
0.8961478
0.9185618
0.9385876
0.9506321
0.9304907
0.9541284
0.9088517
0.9323008
0.9564294
0.8875316
0.9098251
0.9334414
0.9578803
0.8668136
0.8879788
0.9103676
0.9341066
0.9587481
0.8467473
0.8668705
0.8880987
0.9105599
0.934388
0.9590762
0.8272903
0.8464544
0.8666175
0.8878901
0.9104017
0.9342159
0.9588135
0.8083418
0.8266169
0.8457995
0.8659823
0.8872767
0.9097482
0.933455
0.9578867
0.7897512
0.8071923
0.8254618
0.8446374
0.8648117
0.8860372
0.9083843
0.9319529
0.9560204
0.7713591
0.788008
0.8054155
0.8236469
0.8427792
0.8628497
0.8839194
0.9061158
0.9294396
0.9528323
0.7532068
0.7691021
0.7856933
0.8030356
0.8211931
0.8401922
0.8600788
0.8809723
0.9029446
0.9259033
0.9492084
0.7359159
0.7511196
0.766966
0.7835026
0.800784
0.8188279
0.8376693
0.857412
0.878137
0.8998945
0.923288
0.9453128
0.7197395
0.7343175
0.7494935
0.7653091
0.7818117
0.7990126
0.8169386
0.8356808
0.8553112
0.8759049
0.8982017
0.9210541
0.9420881
0.7046904
0.7187033
0.7332762
0.7484463
0.7642551
0.7807095
0.7978301
0.8156975
0.8343747
0.8539316
0.8750908
0.8970369
0.9195602
0.9398746
0.6907041
0.7042053
0.718234
0.7328236
0.7480112
0.7638004
0.7802069
0.7973034
0.8151444
0.8337922
0.8539258
0.8748211
0.8965946
0.9188856
0.9387649
0.9459742
0.9277644
0.9507164
0.9072753
0.9305649
0.9542975
0.8866827
0.9089185
0.9324463
0.9566806
0.8664487
0.8875928
0.9099557
0.9336556
0.9582114
0.8467473
0.8668705
0.8880987
0.9105599
0.934388
0.9590762
0.82762
0.8468006
0.8669821
0.8882756
0.910813
0.9346666
0.9593509
0.8090327
0.8273407
0.8465594
0.8667828
0.8881235
0.9106527
0.934449
0.9590894
0.7908964
0.8083898
0.8267165
0.8459553
0.8662008
0.8875087
0.9099589
0.9336897
0.9581643
0.7730724
0.789797
0.8072872
0.8256097
0.8448437
0.8650291
0.8862324
0.908597
0.9321896
0.9562996
0.7554125
0.7714026
0.7880979
0.8055552
0.8238409
0.8429826
0.8630309
0.8841143
0.9063276
0.9296744
0.9541593
0.7379591
0.7532471
0.7691852
0.7858221
0.8032139
0.8213792
0.8403557
0.860252
0.8811569
0.9031431
0.9269555
0.9502123
0.7213131
0.7359537
0.7511973
0.7670863
0.7836687
0.8009568
0.8189784
0.8378272
0.8575783
0.8783132
0.900808
0.9240076
0.9459776
0.7057227
0.7197753
0.7343911
0.7496072
0.7654659
0.7819744
0.7991537
0.8170858
0.8358348
0.8554731
0.8767348
0.8988167
0.9215667
0.9424777
0.6912047
0.7047246
0.7187735
0.7333846
0.7485954
0.7644096
0.7808431
0.797969
0.8158423
0.834526
0.854703
0.8756497
0.8974893
0.9198895
0.9400565
0.6777006
0.6907369
0.7042726
0.7183378
0.7329662
0.7481588
0.7639277
0.780339
0.7974407
0.8152875
0.8345183
0.854447
0.875238
0.8968933
0.9190477
0.9414612
0.9240942
0.9460534
0.9048072
0.9278375
0.9508812
0.885209
0.9073422
0.9307101
0.9545464
0.865647
0.8867442
0.9090494
0.9326606
0.9570105
0.846401
0.8665057
0.8877129
0.9101483
0.9339371
0.9585391
0.82762
0.8468006
0.8669821
0.8882756
0.910813
0.9346666
0.9593509
0.8093473
0.8276703
0.8469054
0.867147
0.8885086
0.9110636
0.9348994
0.9596268
0.791557
0.8090805
0.8274399
0.8467147
0.8670004
0.8883547
0.9108626
0.9346829
0.9593667
0.7741693
0.790942
0.8084842
0.8268638
0.8461608
0.8664174
0.887703
0.9101706
0.9339255
0.9584437
0.7570561
0.7731161
0.7898873
0.8074275
0.8258048
0.8450482
0.8652115
0.8864289
0.9088111
0.9324278
0.9576607
0.7400779
0.755454
0.7714883
0.7882309
0.8057395
0.8240334
0.8431532
0.8632131
0.8843104
0.9065408
0.9308189
0.9555513
0.7232784
0.7379977
0.7533265
0.7693081
0.785992
0.8033907
0.821534
0.8405189
0.8604248
0.8813411
0.9041041
0.9278134
0.9511765
0.707238
0.7213494
0.7360282
0.7513125
0.767245
0.7838335
0.8011
0.8191281
0.8379841
0.8577437
0.879163
0.9014667
0.9245887
0.9464632
0.6921997
0.7057571
0.719846
0.7345001
0.7497573
0.7656215
0.782109
0.7992938
0.8172319
0.8359877
0.8562529
0.8773076
0.8992877
0.9219157
0.9426763
0.6781835
0.6912376
0.7047921
0.7188775
0.7335277
0.7487434
0.7645373
0.7809757
0.7981068
0.815986
0.8352552
0.8552282
0.8760715
0.8977927
0.9200549
0.6651362
0.6777322
0.6908017
0.7043723
0.7184748
0.7331078
0.7482808
0.7640541
0.7804701
0.7975769
0.8159768
0.835011
0.8548389
0.8755165
0.8970428
0.9378458
0.920553
0.9415366
0.9014924
0.9241642
0.9462082
0.8829041
0.9048734
0.9279807
0.9511236
0.8642559
0.8852706
0.9074733
0.930924
0.9548734
0.8456403
0.8657042
0.8868647
0.9092425
0.9329424
0.957337
0.8272903
0.8464544
0.8666175
0.8878901
0.9104017
0.9342159
0.9588135
0.8093473
0.8276703
0.8469054
0.867147
0.8885086
0.9110636
0.9348994
0.9596268
0.7918579
0.809395
0.8277692
0.8470603
0.8673642
0.8887393
0.911273
0.9351328
0.9599039
0.7748022
0.7916024
0.8091745
0.8275865
0.8469192
0.8672161
0.8885481
0.9110732
0.9349176
0.9596455
0.7581084
0.7742128
0.7910318
0.808624
0.827058
0.8463645
0.8665988
0.8878983
0.9103833
0.9341625
0.959803
0.7416568
0.7570978
0.7732022
0.7900209
0.8076127
0.8259982
0.8452198
0.865395
0.8866266
0.9090266
0.9335887
0.9590676
0.7253163
0.7401178
0.755536
0.7716153
0.7884064
0.8059223
0.8241949
0.8433249
0.8633966
0.8845077
0.9075806
0.9319601
0.9572682
0.7091303
0.7233154
0.7380738
0.7534442
0.7694704
0.7861605
0.8035379
0.8216886
0.8406819
0.8605974
0.8822332
0.9048847
0.9286133
0.9520278
0.6936602
0.7072728
0.7214209
0.7361386
0.7514644
0.7674025
0.78397
0.8012423
0.8192769
0.8381402
0.8585413
0.8797754
0.9019979
0.9250073
0.946726
0.6791434
0.6922328
0.705825
0.7199507
0.7346441
0.7499063
0.7657502
0.7822426
0.7994328
0.8173769
0.8367245
0.8567907
0.8777461
0.8996081
0.922093
0.6656025
0.6782152
0.6913025
0.7048922
0.719015
0.7336697
0.7488658
0.7646641
0.7811072
0.7982436
0.8166781
0.8357516
0.8556246
0.8763543
0.897945
0.6529886
0.6651667
0.6777945
0.6908977
0.7045041
0.7186109
0.7332249
0.7484019
0.7641794
0.7806001
0.7982333
0.8164443
0.8353814
0.8551007
0.875656
0.935386
0.9177186
0.9379188
0.8982998
0.9206207
0.9416839
0.8798104
0.9015561
0.9243011
0.9464359
0.8620817
0.8829652
0.9050032
0.9281917
0.9514423
0.8443211
0.8643133
0.8853913
0.9076666
0.9312054
0.955197
0.8265663
0.845694
0.8658165
0.8870425
0.9094966
0.9332214
0.9576109
0.8090327
0.8273407
0.8465594
0.8667828
0.8881235
0.9106527
0.934449
0.9590894
0.7918579
0.809395
0.8277692
0.8470603
0.8673642
0.8887393
0.911273
0.9351328
0.9599039
0.7750904
0.7919032
0.8094888
0.8279155
0.8472644
0.8675794
0.8889322
0.911483
0.9353669
0.9601823
0.7587155
0.7748454
0.7916918
0.8093135
0.8277798
0.847122
0.8673965
0.8887421
0.9112845
0.9351531
0.9609993
0.7426676
0.7581499
0.7742985
0.7911648
0.8088082
0.8272506
0.8465351
0.8667811
0.8880945
0.910597
0.935315
0.9611441
0.7268347
0.7416967
0.7571801
0.7733297
0.7901972
0.8077964
0.8261606
0.8453926
0.8655798
0.8868256
0.9100773
0.9347335
0.9607376
0.7110923
0.7253544
0.7401962
0.7556574
0.7717829
0.7885806
0.8060757
0.8243574
0.8434977
0.8635812
0.8854709
0.9086134
0.9333171
0.9594384
0.695484
0.7091658
0.7233884
0.7381865
0.7535994
0.7696314
0.7863008
0.8036848
0.821843
0.8408446
0.8614336
0.8829574
0.9056107
0.9293012
0.9526112
0.6805524
0.6936937
0.7073415
0.7215268
0.7362843
0.7516152
0.767533
0.7841058
0.8013838
0.8194248
0.8388932
0.8591158
0.8802692
0.90238
0.9252314
0.6665292
0.6791753
0.6922981
0.7059257
0.720089
0.7347871
0.7500296
0.7658779
0.7823752
0.7995708
0.8180759
0.8372325
0.8572026
0.8780445
0.8997708
0.6534391
0.665633
0.6782777
0.6913988
0.7050243
0.7191514
0.7337871
0.7489873
0.7647899
0.7812377
0.7989025
0.8171491
0.8361262
0.8558904
0.8764963
0.6412373
0.653018
0.6652268
0.6778871
0.6910246
0.704635
0.7187234
0.7333411
0.748522
0.7643038
0.7812267
0.7986784
0.8167958
0.8356288
0.8552318
0.9341518
0.9157894
0.9354577
0.8957479
0.9177848
0.9380616
0.876831
0.8983617
0.9207531
0.9419008
0.859164
0.8798693
0.9016809
0.924503
0.9467351
0.8422597
0.8621387
0.883085
0.9051946
0.9284691
0.9517578
0.8253109
0.844375
0.864426
0.8855697
0.907921
0.931484
0.9554691
0.8083418
0.8266169
0.8457995
0.8659823
0.8872767
0.9097482
0.933455
0.9578867
0.791557
0.8090805
0.8274399
0.8467147
0.8670004
0.8883547
0.9108626
0.9346829
0.9593667
0.7750904
0.7919032
0.8094888
0.8279155
0.8472644
0.8675794
0.8889322
0.911483
0.9353669
0.9601823
0.758992
0.7751336
0.7919924
0.8096275
0.8281084
0.8474667
0.8677593
0.8891256
0.9116936
0.9356017
0.9615332
0.7432509
0.7587568
0.7749307
0.7918242
0.809497
0.8279715
0.8472916
0.8675776
0.8889369
0.9114965
0.9362971
0.9622914
0.7278069
0.7427074
0.7582317
0.7744253
0.7913402
0.8089911
0.8274119
0.8467065
0.8669642
0.8882916
0.9116375
0.9364046
0.9626681
0.7125542
0.726873
0.7417755
0.757302
0.773498
0.7903721
0.8079505
0.826324
0.8455665
0.8657658
0.887797
0.9111111
0.9360476
0.9626863
0.6973748
0.711129
0.7254297
0.7403126
0.7558177
0.7719493
0.7887268
0.8062301
0.824521
0.8436716
0.8644829
0.8864279
0.9098385
0.9349869
0.9623064
0.6823115
0.6955181
0.7092359
0.7234966
0.7383353
0.7537536
0.7697655
0.7864409
0.8038316
0.8219972
0.8416333
0.8621125
0.8836311
0.9062336
0.9297623
0.6678894
0.6805846
0.6937598
0.7074433
0.7216667
0.7364289
0.7517402
0.7676627
0.7842407
0.8015245
0.8201387
0.8394354
0.8595791
0.8806243
0.9025844
0.6543344
0.6665599
0.6792382
0.692395
0.7060586
0.7202263
0.7349053
0.750152
0.7660047
0.7825069
0.8002361
0.8185577
0.8376215
0.8574828
0.878196
0.6416729
0.6534686
0.6656933
0.6783705
0.6915261
0.7051556
0.7192643
0.7339037
0.7491078
0.7649147
0.7818667
0.7993508
0.8175044
0.8363773
0.8560238
0.6298634
0.6412657
0.653076
0.665316
0.6780094
0.6911506
0.7047433
0.718835
0.7334564
0.7486411
0.7649032
0.7816515
0.7990131
0.8170306
0.8357527
0.9148207
0.9342228
0.8940127
0.9158547
0.9355977
0.8744493
0.8958087
0.9179143
0.9382717
0.8563536
0.8768883
0.8984829
0.9209482
0.9421857
0.8394937
0.8592191
0.8799849
0.901865
0.9247683
0.9470311
0.8233496
0.8423133
0.8622506
0.8832619
0.9054465
0.9287439
0.9520229
0.8071441
0.8253618
0.8444809
0.8645924
0.8858045
0.908173
0.9317177
0.9557436
0.7908964
0.8083898
0.8267165
0.8459553
0.8662008
0.8875087
0.9099589
0.9336897
0.9581643
0.7748022
0.7916024
0.8091745
0.8275865
0.8469192
0.8672161
0.8885481
0.9110732
0.9349176
0.9596455
0.758992
0.7751336
0.7919924
0.8096275
0.8281084
0.8474667
0.8677593
0.8891256
0.9116936
0.9356017
0.9615332
0.7435166
0.7590333
0.7752186
0.7921244
0.8098105
0.8282996
0.8476359
0.8679398
0.8893196
0.9119048
0.9367415
0.962803
0.7283678
0.7432904
0.7588383
0.7750569
0.7919987
0.8096789
0.8281319
0.8474619
0.8677593
0.8891323
0.9125276
0.9373465
0.9637207
0.7134902
0.727845
0.7427858
0.758353
0.7745927
0.7915143
0.8091442
0.827574
0.8468788
0.8671483
0.8892521
0.9126199
0.9376032
0.9643662
0.6987835
0.712591
0.7269485
0.7418923
0.7574629
0.773665
0.7905189
0.8081057
0.8264885
0.8457415
0.8666741
0.8887535
0.9122964
0.9375424
0.9649189
0.6841352
0.69741
0.7112013
0.7255413
0.7404662
0.7559769
0.7720888
0.7888739
0.8063855
0.8246856
0.8445214
0.8653796
0.887564
0.9113434
0.937155
0.9669905
0.6695874
0.6823444
0.6955856
0.7093399
0.7236394
0.7384831
0.7538818
0.7698993
0.7865808
0.8039781
0.8227445
0.8422736
0.8627442
0.8842092
0.9066503
0.6556484
0.6679204
0.6806482
0.6938577
0.7075778
0.7218056
0.7365487
0.7518644
0.7677917
0.7843749
0.8022037
0.8206528
0.8398727
0.8599123
0.8808143
0.6425383
0.6543641
0.6666205
0.6793315
0.692523
0.7061907
0.7203399
0.7350227
0.7502735
0.7661306
0.7831417
0.8006945
0.8189267
0.8378861
0.857625
0.6302846
0.6417013
0.6535268
0.6657828
0.6784931
0.6916524
0.7052641
0.7193762
0.7340193
0.7492274
0.7655163
0.7822945
0.7996891
0.8177427
0.8365033
0.6188491
0.6298907
0.6413217
0.6531621
0.665434
0.6781309
0.6912549
0.7048506
0.7189458
0.7335707
0.7492155
0.7653095
0.7819709
0.7992366
0.8171482
0.8931417
0.9148856
0.9343616
0.8728297
0.8940728
0.9159825
0.9358039
0.8541064
0.8745057
0.8959277
0.9181052
0.9385479
0.8368288
0.8564073
0.8770008
0.8986616
0.9212047
0.9424676
0.820718
0.8395455
0.8593272
0.8801554
0.9021071
0.925031
0.9472777
0.8052731
0.8234002
0.8424185
0.8624159
0.8834949
0.905696
0.9289743
0.9522904
0.7897512
0.8071923
0.8254618
0.8446374
0.8648117
0.8860372
0.9083843
0.9319529
0.9560204
0.7741693
0.790942
0.8084842
0.8268638
0.8461608
0.8664174
0.887703
0.9101706
0.9339255
0.9584437
0.7587155
0.7748454
0.7916918
0.8093135
0.8277798
0.847122
0.8673965
0.8887421
0.9112845
0.9351531
0.9609993
0.7435166
0.7590333
0.7752186
0.7921244
0.8098105
0.8282996
0.8476359
0.8679398
0.8893196
0.9119048
0.9367415
0.962803
0.7286234
0.743556
0.7591145
0.7753446
0.7922986
0.809992
0.8284595
0.8478055
0.8681208
0.8895142
0.9129313
0.9377725
0.9641904
0.7140302
0.7284057
0.7433684
0.758959
0.7752235
0.792172
0.8098311
0.8282928
0.8476328
0.8679416
0.8900832
0.9134727
0.9384706
0.9652781
0.6996855
0.7135268
0.7279201
0.7429019
0.7585131
0.7747589
0.7916601
0.8092981
0.8277369
0.847052
0.8680456
0.8901599
0.9137003
0.9389036
0.9662204
0.6854938
0.6988188
0.7126635
0.7270605
0.7420465
0.7576227
0.7738051
0.7906668
0.808262
0.8266541
0.8465968
0.8675694
0.8898515
0.9136439
0.9392211
0.967814
0.6713477
0.6841691
0.6974795
0.7113085
0.7256888
0.7406188
0.7561105
0.7722293
0.789022
0.806542
0.8254904
0.8453671
0.8664451
0.8889602
0.913295
0.9406775
0.9695008
0.6572887
0.6696191
0.6824093
0.6956856
0.7094772
0.7237813
0.7386061
0.75401
0.7700329
0.7867204
0.8046886
0.8233513
0.8428698
0.8632864
0.884596
0.6438085
0.6556783
0.6679817
0.6807425
0.6939872
0.7077114
0.7219207
0.7366679
0.7519879
0.7679199
0.7850227
0.8026927
0.8210674
0.8401873
0.8600907
0.6311218
0.6425669
0.6544225
0.6667105
0.6794549
0.6926501
0.7063
0.7204527
0.7351393
0.750394
0.7667377
0.7835791
0.8010456
0.8191776
0.8380204
0.6192568
0.6303121
0.6417574
0.6536131
0.665901
0.678615
0.691757
0.7053719
0.7194873
0.734134
0.7498038
0.7659254
0.7826173
0.7999159
0.8178623
0.6081784
0.6188756
0.6299449
0.6414049
0.653276
0.6655512
0.6782313
0.6913583
0.7049572
0.7190556
0.7341219
0.7496048
0.7656149
0.7821842
0.7993485
0.8720164
0.8932015
0.9150126
0.934566
0.8525777
0.8728855
0.8941905
0.9161709
0.9360749
0.8346973
0.8541593
0.8746164
0.8961032
0.9183562
0.9388211
0.8181821
0.8368793
0.8565127
0.8771669
0.8988968
0.9214585
0.9427013
0.8027625
0.8207669
0.8396472
0.8594868
0.88038
0.9023469
0.9252496
0.9475242
0.7879624
0.8053211
0.8234997
0.8425741
0.8626338
0.8837258
0.9059052
0.9292062
0.9525602
0.7730724
0.789797
0.8072872
0.8256097
0.8448437
0.8650291
0.8862324
0.908597
0.9321896
0.9562996
0.7581084
0.7742128
0.7910318
0.808624
0.827058
0.8463645
0.8665988
0.8878983
0.9103833
0.9341625
0.959803
0.7432509
0.7587568
0.7749307
0.7918242
0.809497
0.8279715
0.8472916
0.8675776
0.8889369
0.9114965
0.9362971
0.9622914
0.7286234
0.743556
0.7591145
0.7753446
0.7922986
0.809992
0.8284595
0.8478055
0.8681208
0.8895142
0.9129313
0.9377725
0.9641904
0.7142763
0.7286612
0.7436338
0.7592349
0.7755108
0.7924714
0.8101438
0.8286199
0.8479757
0.8683023
0.8904604
0.9138593
0.9388639
0.9656883
0.7002059
0.7140666
0.7284805
0.743484
0.7591183
0.7753889
0.7923169
0.8099839
0.8284544
0.8478042
0.8688295
0.8909557
0.9144856
0.9396625
0.9669501
0.6863637
0.6997206
0.7135989
0.7280315
0.7430553
0.758672
0.7748981
0.7918066
0.8094528
0.8279007
0.8478964
0.8688945
0.8911596
0.9148728
0.9402916
0.9685372
0.6726591
0.6855278
0.6988886
0.7127711
0.7272085
0.7421996
0.7577568
0.7739463
0.7908156
0.8084193
0.8274636
0.8474407
0.8685983
0.8911007
0.9151569
0.9413653
0.9698497
0.658989
0.6713804
0.684236
0.6975826
0.7114502
0.7258352
0.7407468
0.7562449
0.7723707
0.7891711
0.8073068
0.8262918
0.846373
0.8677554
0.8907716
0.9164685
0.9427073
0.9713466
0.645394
0.6573192
0.6696817
0.6825056
0.6958177
0.7096136
0.7238994
0.7387289
0.7541379
0.7701664
0.7873979
0.8052656
0.8239164
0.8433817
0.8636495
0.6323502
0.6438374
0.6557374
0.6680726
0.6808672
0.6941157
0.707822
0.7220351
0.7367863
0.7521107
0.7685392
0.7854891
0.803087
0.8213657
0.8403557
0.620067
0.6311494
0.6426234
0.6545094
0.6668295
0.6795774
0.6927553
0.7064084
0.7205647
0.7352549
0.7509756
0.7671558
0.783914
0.8012844
0.8193051
0.6085732
0.6192834
0.6303663
0.6418408
0.6537272
0.6660185
0.6787157
0.6918607
0.7054787
0.7195976
0.7346872
0.7501958
0.7662341
0.7828337
0.8000297
0.597836
0.608204
0.6189279
0.6300252
0.6415148
0.6533891
0.6656481
0.678331
0.6914609
0.7050629
0.7195853
0.7344955
0.7498974
0.765819
0.782291
0.8518099
0.872072
0.8933185
0.9151998
0.9348346
0.8332469
0.8526301
0.8729951
0.894364
0.9164187
0.9363431
0.8161533
0.8347471
0.8542631
0.8747797
0.8963341
0.9186047
0.9390472
0.8003429
0.8182299
0.8369786
0.8566683
0.8773854
0.8991296
0.9216689
0.9429337
0.7855621
0.802809
0.8208632
0.8397976
0.8596971
0.8806024
0.9025465
0.9254678
0.9477707
0.7713591
0.788008
0.8054155
0.8236469
0.8427792
0.8628497
0.8839194
0.9061158
0.9294396
0.9528323
0.7570561
0.7731161
0.7898873
0.8074275
0.8258048
0.8450482
0.8652115
0.8864289
0.9088111
0.9324278
0.9576607
0.7426676
0.7581499
0.7742985
0.7911648
0.8088082
0.8272506
0.8465351
0.8667811
0.8880945
0.910597
0.935315
0.9611441
0.7283678
0.7432904
0.7588383
0.7750569
0.7919987
0.8096789
0.8281319
0.8474619
0.8677593
0.8891323
0.9125276
0.9373465
0.9637207
0.7142763
0.7286612
0.7436338
0.7592349
0.7755108
0.7924714
0.8101438
0.8286199
0.8479757
0.8683023
0.8904604
0.9138593
0.9388639
0.9656883
0.700443
0.7143126
0.7287358
0.7437491
0.7593938
0.7756757
0.7926159
0.810296
0.8287808
0.8481463
0.8691856
0.8913168
0.9148424
0.94001
0.9672866
0.6868657
0.7002408
0.7141384
0.7285914
0.7436366
0.7592764
0.7755272
0.7924624
0.8101372
0.8286165
0.8486396
0.869645
0.8918922
0.9155602
0.9409114
0.9690236
0.6734987
0.6863975
0.69979
0.7137059
0.7281787
0.7432076
0.7588052
0.775038
0.7919539
0.8096082
0.8286996
0.848696
0.8698305
0.8922456
0.9161246
0.9419918
0.9702548
0.6602556
0.6726919
0.685595
0.698992
0.7129133
0.7273555
0.7423281
0.7578918
0.7740884
0.7909654
0.8091882
0.8282628
0.8484113
0.8697699
0.8925044
0.917091
0.9430316
0.9715193
0.6470373
0.6590204
0.6714448
0.6843353
0.697719
0.711591
0.7259581
0.7408757
0.7563803
0.7725131
0.7899
0.8080689
0.8272456
0.8476106
0.8694562
0.8937197
0.9182985
0.9443183
0.9727576
0.6338836
0.6454234
0.6573795
0.6697745
0.6826328
0.695949
0.7097272
0.7240174
0.7388516
0.7542656
0.7708137
0.7879481
0.8058032
0.8244018
0.8437246
0.6212558
0.6323781
0.6438944
0.6558252
0.6681929
0.6809911
0.6942223
0.7079321
0.7221489
0.7369041
0.7527038
0.768985
0.7858652
0.8033708
0.8215254
0.6093576
0.6200937
0.6312039
0.6427072
0.6546242
0.6669477
0.6796788
0.6928598
0.7065161
0.7206758
0.7358129
0.7513761
0.7674761
0.7841419
0.8014057
0.5982184
0.6085988
0.6193358
0.6304469
0.6419511
0.6538407
0.6661157
0.6788157
0.6919636
0.7055848
0.720129
0.7350632
0.7504915
0.766441
0.7829423
0.5878079
0.5978607
0.6082546
0.6190056
0.6301315
0.6416242
0.6534827
0.6657442
0.6784299
0.6915627
0.7055725
0.7199443
0.7347763
0.7500929
0.7659211
0.8325182
0.8518621
0.8721811
0.8934912
0.915446
0.9351004
0.8147725
0.8332964
0.852733
0.8731568
0.8945924
0.9166639
0.9365648
0.7984068
0.8162005
0.834845
0.8544163
0.8749947
0.8965627
0.9188103
0.9392716
0.7832484
0.8003883
0.8183239
0.8371254
0.8568733
0.877602
0.8993225
0.921878
0.9431648
0.76906
0.7856063
0.8029004
0.8210055
0.8399958
0.8599054
0.8807875
0.9027457
0.9256857
0.948017
0.7554125
0.7714026
0.7880979
0.8055552
0.8238409
0.8429826
0.8630309
0.8841143
0.9063276
0.9296744
0.9541593
0.7416568
0.7570978
0.7732022
0.7900209
0.8076127
0.8259982
0.8452198
0.865395
0.8866266
0.9090266
0.9335887
0.9590676
0.7278069
0.7427074
0.7582317
0.7744253
0.7913402
0.8089911
0.8274119
0.8467065
0.8669642
0.8882916
0.9116375
0.9364046
0.9626681
0.7140302
0.7284057
0.7433684
0.758959
0.7752235
0.792172
0.8098311
0.8282928
0.8476328
0.8679416
0.8900832
0.9134727
0.9384706
0.9652781
0.700443
0.7143126
0.7287358
0.7437491
0.7593938
0.7756757
0.7926159
0.810296
0.8287808
0.8481463
0.8691856
0.8913168
0.9148424
0.94001
0.9672866
0.6870943
0.7004779
0.7143842
0.7288463
0.7439013
0.7595516
0.7758136
0.7927608
0.8104486
0.8289421
0.8489772
0.8699857
0.8922254
0.9158757
0.9412029
0.9692644
0.6739832
0.6868993
0.7003099
0.7142449
0.7287378
0.7437881
0.7594087
0.775666
0.7926084
0.8102911
0.8294066
0.8494073
0.8705213
0.8928869
0.9166871
0.9424264
0.970568
0.6610666
0.6735313
0.6864643
0.6998928
0.7138473
0.7283248
0.7433351
0.758939
0.7751786
0.792102
0.8103669
0.8294565
0.8495785
0.8708483
0.8934062
0.9176598
0.9434158
0.9717506
0.6482615
0.6602872
0.6727565
0.6856946
0.6991288
0.7130545
0.7274788
0.7424575
0.7580278
0.7742314
0.791698
0.8099479
0.8291829
0.8495175
0.8710871
0.8943
0.9185966
0.9445092
0.9728579
0.6354729
0.6470677
0.6590826
0.6715405
0.6844665
0.6978544
0.7117091
0.7260818
0.7410054
0.7565166
0.7732095
0.7906267
0.8089764
0.8284198
0.8492178
0.8722263
0.8954176
0.919756
0.9456327
0.9738466
0.6227396
0.6339121
0.6454816
0.6574691
0.6698972
0.6827593
0.6960582
0.7098405
0.7241351
0.7389741
0.7548854
0.7713396
0.7884608
0.8062651
0.8247271
0.6105086
0.6212828
0.6324332
0.6439791
0.6559412
0.6683123
0.6810937
0.6943282
0.7080415
0.722262
0.737473
0.7531307
0.7693446
0.7861359
0.8035228
0.5989783
0.6093834
0.6201464
0.6312849
0.6428181
0.6547382
0.6670454
0.6797794
0.6929634
0.706623
0.7212118
0.7361971
0.7516829
0.7676939
0.7842576
0.5881785
0.5982433
0.6086496
0.6194137
0.6305535
0.6420606
0.6539345
0.6662121
0.6789148
0.6920657
0.706096
0.7204904
0.735347
0.7506897
0.7665449
0.578081
0.5878318
0.5979097
0.6083298
0.6191084
0.6302372
0.6417145
0.6535755
0.6658396
0.678528
0.6920534
0.7059178
0.7202141
0.7349639
0.7501908
0.8140786
0.8325675
0.8519645
0.8723421
0.8937184
0.9156897
0.9353202
0.7970888
0.8148193
0.8333934
0.8528849
0.8733698
0.8948186
0.9168667
0.9367849
0.7813966
0.7984516
0.8162932
0.8349897
0.8546182
0.8752077
0.8967519
0.9190143
0.9394945
0.7668435
0.7832916
0.8004776
0.8184629
0.8373188
0.8570764
0.8777814
0.8995143
0.9220859
0.9433946
0.7532068
0.7691021
0.7856933
0.8030356
0.8211931
0.8401922
0.8600788
0.8809723
0.9029446
0.9259033
0.9492084
0.7400779
0.755454
0.7714883
0.7882309
0.8057395
0.8240334
0.8431532
0.8632131
0.8843104
0.9065408
0.9308189
0.9555513
0.7268347
0.7416967
0.7571801
0.7733297
0.7901972
0.8077964
0.8261606
0.8453926
0.8655798
0.8868256
0.9100773
0.9347335
0.9607376
0.7134902
0.727845
0.7427858
0.758353
0.7745927
0.7915143
0.8091442
0.827574
0.8468788
0.8671483
0.8892521
0.9126199
0.9376032
0.9643662
0.7002059
0.7140666
0.7284805
0.743484
0.7591183
0.7753889
0.7923169
0.8099839
0.8284544
0.8478042
0.8688295
0.8909557
0.9144856
0.9396625
0.9669501
0.6870943
0.7004779
0.7143842
0.7288463
0.7439013
0.7595516
0.7758136
0.7927608
0.8104486
0.8289421
0.8489772
0.8699857
0.8922254
0.9158757
0.9412029
0.9692644
0.6742039
0.6871279
0.7005467
0.7144904
0.7289924
0.7440525
0.7596835
0.7759519
0.7929061
0.8106018
0.8297278
0.8497304
0.8708357
0.8931816
0.9169523
0.9426457
0.9707336
0.6615345
0.6740156
0.6869657
0.7004122
0.7143855
0.7288832
0.7439149
0.7595415
0.7758054
0.7927549
0.8110413
0.8301332
0.8502332
0.8714531
0.8939313
0.9180561
0.9437194
0.9719468
0.6490453
0.6610979
0.6735956
0.6865633
0.7000288
0.7139877
0.7284473
0.7434634
0.7590735
0.7753199
0.7928246
0.8110861
0.8302926
0.8505388
0.8719368
0.8948308
0.9189504
0.9447626
0.9729997
0.6366568
0.648292
0.6603495
0.6728525
0.6858262
0.6992647
0.713173
0.727603
0.7425878
0.7581646
0.7749311
0.7924222
0.810823
0.8302319
0.8507616
0.8727732
0.8956976
0.9199363
0.9457696
0.9739145
0.6242775
0.6355022
0.6471277
0.6591749
0.6716671
0.684597
0.6979681
0.711828
0.7262064
0.7411361
0.7571831
0.7739041
0.7914925
0.8100941
0.8299451
0.8518368
0.8738202
0.8967698
0.9209487
0.9466989
0.974678
0.6119452
0.6227671
0.6339683
0.645568
0.6575875
0.6700191
0.6828645
0.6961673
0.7099538
0.7242527
0.7395684
0.7553889
0.7718297
0.7889014
0.8065746
0.6000932
0.6105347
0.621336
0.6325151
0.6440912
0.6560565
0.6684113
0.6811958
0.6944335
0.7081502
0.7228084