/*--------------------------------*- C++ -*----------------------------------*\
| =========                 |                                                 |
| \\      /  F ield         | OpenFOAM: The Open Source CFD Toolbox           |
|  \\    /   O peration     | Version:  2306                                  |
|   \\  /    A nd           | Website:  www.openfoam.com                      |
|    \\/     M anipulation  |                                                 |
\*---------------------------------------------------------------------------*/
FoamFile
{
    version     2.0;
    format      ascii;
    arch        "LSB;label=32;scalar=64";
    class       volVectorField;
    location    "0.9/phiEC";
    object      i;
}
// * * * * * * * * * * * * * * * * * * * * * * * * * * * * * * * * * * * * * //

dimensions      [0 -2 0 0 0 1 0];

internalField   nonuniform List<vector> 
20000
(
(39.13161 85.03837 18422.46)
(38.71057 248.6831 18239.43)
(93.82151 80.82791 17626.69)
(120.022 281.0116 19186.39)
(37.89985 392.6084 17885.41)
(92.85276 236.3655 17452.77)
(118.6215 825.4199 18954.91)
(109.2483 75.35088 16518.8)
(286.91 267.0073 18334.85)
(209.4403 548.0044 20910.31)
(36.76466 502.7744 17386.31)
(90.98785 373.1493 17116.38)
(115.906 1313.64 18496.45)
(108.181 220.3465 16356.69)
(283.6955 784.2598 18115.06)
(206.6799 1628.554 20611.85)
(103.3502 70.15498 15416.11)
(332.8671 248.8658 17167.03)
(497.6941 520.4003 19934.8)
(315.1253 877.9378 23867.11)
(35.40611 565.5619 16784.6)
(88.37727 477.837 16642.17)
(112.064 1698.835 17826.51)
(106.1269 347.8536 16043.15)
(277.4642 1248.066 17679.82)
(201.2275 2649.399 19986.13)
(102.3786 205.1516 15265.19)
(329.3355 730.9612 16962.26)
(491.3823 1546.427 19651.7)
(310.6522 2673.793 23616.24)
(91.08655 65.63423 14431.09)
(314.192 231.6913 16015.1)
(573.1975 484.8865 18633.69)
(742.2354 833.2069 22680.17)
(446.8282 1049.74 27874.86)
(33.95793 570.9852 16139.9)
(85.25391 537.4947 16070.5)
(107.4154 1927.265 16985.17)
(103.2525 445.435 15601.16)
(268.6525 1613.93 17043.88)
(193.2918 3525.348 18983.62)
(100.5088 323.8639 14973.28)
(322.4924 1163.211 16556.78)
(478.9233 2515.519 19058.29)
(301.4729 4570.095 23020.03)
(90.24721 191.9317 14289.89)
(310.9815 680.5131 15824.49)
(566.2956 1440.846 18370.08)
(732.0498 2537.27 22442.42)
(441.4454 3322.71 28048.96)
(78.9239 61.76156 13577.62)
(276.613 216.7607 14990.62)
(538.6319 451.3807 17371.44)
(845.5386 776.0819 21153.23)
(1040.471 995.9124 26390.17)
(570.7542 659.7378 30780.52)
(32.57195 516.8516 15522.95)
(81.92499 542.6436 15457.99)
(102.423 1952.317 16056.12)
(99.8145 501.0391 15068.36)
(257.9954 1830.855 16245.35)
(183.3702 4106.343 17566.13)
(97.89262 414.713 14561.8)
(312.8209 1504.148 15964.37)
(460.806 3346.776 18107.82)
(287.2259 6538.826 21835.72)
(88.6321 302.9941 14016.8)
(304.7618 1082.92 15447.04)
(552.6818 2343.636 17817.58)
(711.1728 4335.832 21877.58)
(429.7193 6210.44 28452.04)
(78.20246 180.6071 13444.75)
(273.8412 636.6596 14812.29)
(532.3725 1341.27 17126.09)
(834.4563 2363.167 20931.94)
(1028.243 3151.621 26554.94)
(567.4534 1970.251 31291.23)
(68.66493 58.41987 12838.56)
(239.5813 203.9738 14104.51)
(473.2045 422.2921 16257.93)
(789.3441 722.3839 19703.22)
(1168.589 927.4547 24554.82)
(1314.8 626.7299 29055.42)
(660.6469 409.0284 31972.42)
(31.39299 409.7838 14999.81)
(78.73897 491.2022 14871.86)
(97.64683 1763.318 15173.78)
(96.15095 505.8358 14497.51)
(246.553 1854.631 15363.65)
(172.4514 4193.755 15813.22)
(94.76411 466.4795 14065.77)
(301.1303 1706.271 15220.56)
(438.1762 3897.938 16764.25)
(267.7915 8268.081 19520.87)
(86.3725 387.9886 13631.83)
(295.9738 1400.309 14895.61)
(532.9067 3117.877 16932.75)
(678.8264 6202.012 20756.07)
(409.2232 10523.68 29253.19)
(76.81426 285.1168 13187.76)
(268.472 1013.134 14459.17)
(520.0306 2181.63 16611.89)
(811.7732 4037.861 20406.33)
(1001.664 5888.218 26936.68)
(560.8384 3173.833 32475.87)
(68.03852 170.8353 12712.88)
(237.1993 599.1028 13936.7)
(467.8054 1254.833 16028.39)
(779.319 2199.616 19497.28)
(1155.322 2934.634 24708.08)
(1307.231 1871.093 29538.47)
(658.7243 1176.535 32423.1)
(60.39577 55.49749 12192.19)
(208.4208 192.9403 13337.58)
(409.532 397.3896 15297.89)
(691.3223 675.8315 18437.24)
(1081.83 863.2443 22851.36)
(1457.123 584.0479 26986.94)
(1511.271 389.8017 30108.28)
(757.169 209.0615 32732.3)
(30.53919 262.4108 14622.37)
(76.02845 389.4562 14374.83)
(93.60431 1391.385 14442.02)
(92.64459 457.8862 13951.23)
(235.6054 1675.131 14526.24)
(162.0806 3745.048 14248.2)
(91.43062 470.9445 13534.33)
(288.582 1728.416 14399.32)
(413.2858 3980.859 15103.08)
(244.45 8588.19 14847.14)
(83.67049 436.419 13167.77)
(285.3539 1588.465 14203.25)
(508.2333 3631.141 15682.17)
(634.7887 7840.322 18564.79)
(374.5851 18083.51 30949.34)
(74.87212 365.0968 12825.51)
(260.8863 1310.069 13943.27)
(502.1123 2902.29 15788.41)
(776.7011 5774.985 19362.95)
(955.3614 9972.34 27695.91)
(551.3168 3789.093 34750.1)
(66.83317 269.6907 12469.8)
(232.585 953.3707 13604.4)
(457.1613 2041.034 15547.33)
(758.8137 3758.28 19008.17)
(1126.563 5481.627 25063.26)
(1292.113 3012.467 30659.51)
(655.0617 1739.362 33354.62)
(59.84455 162.2895 12072.79)
(206.3525 566.6965 13178.84)
(404.8931 1180.837 15081.88)
(682.6834 2057.864 18244.57)
(1069.847 2731.36 22993.92)
(1448.825 1743.381 27436.08)
(1506.753 1120.683 30533.34)
(756.4292 588.0578 33093.03)
(53.75178 52.90764 11619.95)
(183.3272 183.291 12666.8)
(356.2072 375.903 14467.71)
(597.6245 635.9945 17350.12)
(943.8229 807.6248 21380.06)
(1338.68 543.7489 25099.24)
(1660.385 363.8484 27927.66)
(1719.276 201.663 30739.23)
(859.9533 48.29501 33151.36)
(30.09183 90.24455 14425.14)
(74.06514 249.3992 14016.2)
(90.69393 886.9255 13925.74)
(89.66102 363.0455 13487.99)
(226.3366 1321.856 13831.66)
(153.4661 2905.874 13046.76)
(88.24013 426.3028 13025.76)
(276.575 1561.154 13619.3)
(389.6362 3555.195 13619.66)
(223.354 7296.239 11893.42)
(80.79156 440.5961 12670.57)
(273.9566 1609.078 13438.84)
(481.1136 3708.356 14136.1)
(581.9759 8143.815 14141.79)
(313.5214 19448.64 7029.216)
(72.54979 410.6702 12388.82)
(251.7202 1486.098 13295.54)
(479.7677 3380.007 14624.59)
(729.0625 7299.575 17324.69)
(877.4108 17126.49 29303.62)
(541.3471 1925.774 38974.8)
(65.14686 345.3439 12127.14)
(226.0662 1232.792 13118.91)
(441.7109 2715.248 14776.92)
(727.1403 5374.905 18037.3)
(1076.659 9281.153 25769.91)
(1270.453 3594.181 32812.69)
(650.3291 1779.897 34768.91)
(58.78387 256.2002 11841.87)
(202.3461 901.8034 12864.5)
(395.748 1920.684 14629.16)
(665.0176 3516.074 17786.97)
(1043.903 5101.594 23324.39)
(1432.314 2806.053 28478.69)
(1498.198 1655.41 31412.75)
(755.0249 828.0232 33770.01)
(53.26062 154.7162 11506.13)
(181.5071 538.3554 12515.99)
(352.1793 1116.993 14263.37)
(590.2037 1936.569 17168.8)
(933.5024 2555.366 21513.41)
(1331.151 1622.999 25517.03)
(1655.3 1045.802 28322.32)
(1717.308 566.6166 31077.09)
(860.3183 138.8258 33466.87)
(48.34432 50.58589 11107.58)
(163.1705 174.7392 12072.85)
(313.3416 357.1106 13741.56)
(519.6867 601.6235 16411.05)
(814.7697 760.0386 20121.73)
(1163.891 508.7534 23481.34)
(1518.007 338.9467 25963.03)
(1871.648 189.382 28471.55)
(1937.347 51.94539 31035.08)
(968.7977 -106.4487 33276.09)
(30.09183 -90.24455 14425.14)
(73.03629 85.77097 13828.81)
(89.17564 304.2042 13660.1)
(87.49947 232.4892 13153.74)
(219.6613 842.6388 13341.55)
(147.3772 1826.258 12249.88)
(85.52511 338.005 12594.49)
(266.4057 1231.944 12972.28)
(369.977 2758.84 12480.57)
(206.8421 5388.014 10055.88)
(78.03612 398.8311 12194.78)
(263.0505 1453.369 12712.79)
(455.3346 3311.96 12755.32)
(534.18 6920.16 11345.2)
(271.7262 13327.56 5095.893)
(70.07541 414.6008 11920.95)
(241.8838 1505.382 12580.39)
(455.2157 3451.873 13185.83)
(672.0314 7582.103 13211.08)
(740.4967 18420.05 6683.859)
(63.13043 388.4519 11714.07)
(218.1895 1398.44 12509.37)
(422.4476 3162.174 13688.11)
(684.1653 6793.625 16140.82)
(993.028 15934.87 27266.41)
(1247.884 1826.077 36813.38)
(646.3137 808.0414 36359.75)
(57.29994 328.0694 11516.34)
(196.6859 1166.113 12405.26)
(382.4742 2555.153 13904.14)
(637.7403 5028.501 16878.67)
(998.9682 8636.993 23981.97)
(1408.783 3346.807 30481.72)
(1487.23 1692.417 32749.46)
(753.2615 783.9646 34631.37)
(52.31551 244.2446 11285.97)
(177.9813 856.7046 12217.37)
(344.2387 1816.845 13835.1)
(575.0299 3308.849 16738.14)
(911.1682 4772.843 21822.54)
(1316.194 2612.043 26487)
(1645.731 1544.132 29139.23)
(1713.652 796.3466 31712.01)
(860.8615 201.0251 34021.59)
(47.90204 147.9268 10998.75)
(161.5487 513.2377 11929.08)
(309.7968 1061.153 13547.43)
(513.2432 1831.918 16239.51)
(805.9053 2404.813 20247.21)
(1157.395 1518.525 23872.15)
(1513.341 974.1391 26329.97)
(1869.163 531.8123 28784.14)
(1937.642 147.9078 31326.54)
(970.4625 -282.1657 33622.92)
(43.86309 48.48481 10644.4)
(146.7651 167.0723 11540.93)
(278.9267 340.4543 13098.36)
(457.1975 571.5599 15589.55)
(708.3221 718.9812 19035.84)
(1003.544 478.7856 22101.47)
(1316.956 317.1908 24288.6)
(1702.586 176.814 26456.99)
(2088.609 51.2523 28700.31)
(2164.382 -89.80045 31041.65)
(1083.397 -298.5391 33076.32)
(30.53919 -262.4108 14622.37)
(73.03629 -85.77097 13828.81)
(89.17564 -304.2042 13660.1)
(86.36654 79.95602 12979.07)
(216.178 289.0213 13089.36)
(144.2402 621.52 11855.33)
(83.55791 216.4544 12283.31)
(259.079 785.3401 12515.71)
(356.0714 1734 11724.88)
(195.695 3269.77 8985.712)
(75.69125 316.2233 11791.3)
(253.812 1146.896 12110.53)
(433.8866 2570.226 11694.9)
(496.7069 5111.424 9604.652)
(243.7117 8721.297 4013.554)
(67.70718 375.2998 11473.22)
(232.4711 1359.707 11901.13)
(431.8726 3082.926 11900.85)
(620.3365 6443.549 10609.51)
(646.4197 12629.47 4854.032)
(60.98199 392.17 11271.51)
(209.7368 1416.586 11836.38)
(401.2839 3229.406 12342.08)
(632.7603 7056.555 12313.47)
(846.7779 17138.73 6236.612)
(55.52551 369.0215 11123.93)
(189.8468 1322.804 11828.66)
(365.9256 2975.737 12879.47)
(600.7448 6355.775 15104.41)
(923.8241 14827.68 25374.63)
(1384.403 1700.087 34203.84)
(1477.998 767.888 34254.47)
(751.8744 334.9378 35356.59)
(50.99327 312.7603 10975.64)
(173.0002 1107.798 11781.08)
(332.7133 2417.023 13149.24)
(551.6026 4732.176 15883.3)
(872.5116 8080.366 22437.69)
(1294.931 3115.069 28350.68)
(1633.569 1577.893 30381.65)
(1709.179 752.4594 32521.42)
(861.3238 193.3159 34651.06)
(47.05098 233.5266 10788.25)
(158.4069 816.7349 11644.38)
(302.8084 1726.025 13140.55)
(500.0679 3130.063 15832.09)
(786.7249 4491.686 20538.1)
(1144.499 2443.853 24779.51)
(1504.585 1438.101 27089.61)
(1864.628 746.7282 29372)
(1937.998 211.0798 31839.59)
(973.2248 -356.1649 34220.23)
(43.46139 141.7827 10540.09)
(145.3045 490.7191 11403.46)
(275.7677 1011.66 12913.27)
(451.5263 1740.381 15426.57)
(700.6249 2274.918 19154.54)
(997.9604 1429.078 22469.24)
(1312.913 911.5896 24631.78)
(1700.205 496.4183 26747.25)
(2088.284 145.3434 28968.13)
(2167.183 -237.8941 31356.59)
(1086.951 -805.3178 33551.15)
(40.08168 46.56894 10222.42)
(133.168 160.1339 11059.99)
(250.9156 325.5205 12522.1)
(407.0628 544.911 14861.54)
(623.2442 683.0665 18085.71)
(872.2493 452.9222 20911.43)
(1134.685 298.5209 22863.2)
(1473.875 165.58 24750.2)
(1890.141 48.69191 26657.62)
(2309.394 -78.44523 28658.32)
(2399.123 -263.0006 30734.76)
(1202.954 -581.2845 32425.13)
(31.39299 -409.7838 14999.81)
(74.06514 -249.3992 14016.2)
(90.69393 -886.9255 13925.74)
(86.36654 -79.95602 12979.07)
(216.178 -289.0213 13089.36)
(144.2402 -621.52 11855.33)
(82.52675 74.4416 12120.7)
(255.2547 269.3715 12280.76)
(348.9037 590.1505 11350.66)
(190.1097 1093.298 8492.568)
(73.99218 202.5056 11500.17)
(247.1545 731.1281 11685.53)
(418.7028 1615.526 10991.33)
(471.3725 3102.445 8590.626)
(226.3944 4952.883 3429.252)
(65.69181 297.5656 11093.55)
(224.4972 1072.985 11337.69)
(412.4433 2392.521 10913.97)
(579.7252 4759.939 8989.987)
(583.1556 8267.978 3829.206)
(58.92571 354.995 10848)
(201.6482 1279.503 11197.17)
(381.1608 2884.236 11139.92)
(586.1302 5997.098 9892.777)
(745.8182 11754.15 4534.695)
(53.63491 372.5536 10703.5)
(182.5075 1339.969 11192.04)
(347.7449 3039.005 11612.73)
(556.5056 6601.752 11523.74)
(792.6844 15947.96 5810.127)
(49.41216 351.8016 10601.53)
(166.9816 1256.656 11233.3)
(318.3444 2814.881 12179.9)
(519.8322 5981.278 14213.48)
(807.9164 13872.03 23740.56)
(1272.956 1582.277 31814.06)
(1623.419 715.714 31781.17)
(1705.741 321.0665 33204.26)
(861.5468 82.8215 35100.17)
(45.86031 299.0359 10491.53)
(153.9683 1056.116 11228.43)
(292.6649 2296.21 12488.94)
(479.7261 4476.524 15023.37)
(753.533 7604.475 21116.98)
(1126.182 2914.427 26522.96)
(1493.498 1469.295 28245.22)
(1859.207 704.8594 30122.16)
(1938.151 200.1686 32422.84)
(976.0836 -294.6163 34873.41)
(42.68843 223.8273 10338.34)
(142.4753 780.9009 11131.25)
(269.5399 1645.526 12525.36)
(439.9297 2973.678 15039.48)
(683.97 4249.12 19429.7)
(986.8797 2299.907 23323.11)
(1305.335 1345.705 25342.28)
(1695.889 696.7923 27293.24)
(2087.607 206.1122 29439.87)
(2171.823 -299.9535 31899.14)
(1092.97 -1049.465 34386.21)
(39.71432 136.1802 10122.23)
(131.8415 470.34 10928.23)
(248.0706 967.2855 12345.13)
(402.0084 1659.24 14706.15)
(616.4689 2161.292 18198.47)
(867.4004 1351.887 21259.33)
(1131.206 857.9303 23186.12)
(1471.78 464.8491 25021.54)
(1889.601 137.8894 26905.67)
(2311.249 -207.7545 28945.25)
(2405.409 -709.5889 31160.49)
(1209.529 -1592.059 33143.07)
(36.83857 44.8112 9835.53)
(121.693 153.8069 10621.77)
(227.6943 312.0048 12000.91)
(366.2543 521.0159 14208.97)
(555.0434 651.2286 17243.25)
(767.5987 430.2972 19869.95)
(986.1164 282.3971 21634.34)
(1268.969 155.8633 23300.04)
(1632.651 45.84499 24937.88)
(2078.828 -71.24099 26606.96)
(2532.078 -235.6824 28326.07)
(2639.407 -515.5316 30002.81)
(1325.629 -1016.482 31080.22)
(32.57195 -516.8516 15522.95)
(76.02845 -389.4562 14374.83)
(93.60431 -1391.385 14442.02)
(87.49947 -232.4892 13153.74)
(219.6613 -842.6388 13341.55)
(147.3772 -1826.258 12249.88)
(82.52675 -74.4416 12120.7)
(255.2547 -269.3715 12280.76)
(348.9037 -590.1505 11350.66)
(190.1097 -1093.298 8492.568)
(73.10154 69.64443 11348.04)
(243.679 250.7778 11466.83)
(410.8715 549.8431 10642.89)
(458.6665 1037.445 8123.248)
(218.1042 1607.809 3171.997)
(64.23147 190.5573 10819.6)
(218.7506 684.0108 10940.08)
(398.6827 1503.848 10259.16)
(552.2223 2889.366 8046.304)
(543.9531 4696.808 3275.755)
(57.17581 281.4662 10488.86)
(194.7959 1009.691 10666.94)
(364.409 2238.327 10216.65)
(549.4628 4430.282 8385.778)
(677.6615 7696.63 3581.31)
(51.82541 337.238 10301.17)
(175.4844 1210.299 10587.38)
(330.4579 2714.177 10481.38)
(516.3651 5610.575 9259.075)
(701.9589 10938.3 4226.624)
(47.72754 355.169 10200.72)
(160.5227 1272.963 10628.5)
(302.5584 2874.729 10981.55)
(481.8441 6212.758 10843.54)
(695.2689 14920.08 5436.992)
(44.43653 336.3642 10133.85)
(148.605 1198.029 10706.19)
(280.0186 2674.189 11568)
(452.1401 5658.19 13443.64)
(698.0806 13055.25 22343.08)
(1107.27 1480.345 29763.06)
(1484.279 666.3857 29547.2)
(1855.13 300.5615 30755.64)
(1938.092 85.05117 32839.84)
(977.9076 -114.1684 35315.46)
(41.60702 286.6159 10053.94)
(138.4782 1009.78 10733.55)
(260.5003 2189.125 11904.12)
(422.025 4252.898 14271.12)
(655.149 7193.923 19977.29)
(971.1444 2742.776 24963.84)
(1295.752 1374.833 26423.22)
(1690.774 657.481 27990.23)
(2086.687 194.2528 29976.68)
(2176.618 -247.7885 32492.7)
(1099.395 -901.916 35330.69)
(39.00742 214.9829 9928.453)
(129.2718 748.4715 10667.32)
(242.4619 1573.35 11974.22)
(391.673 2835.05 14337.09)
(601.8085 4036.926 18459.87)
(857.7774 2175.693 22067.08)
(1124.686 1266.485 23854.71)
(1467.989 652.4132 25532.02)
(1888.584 195.1131 27342.7)
(2314.317 -261.8151 29439.65)
(2416.056 -925.0304 31909.07)
(1220.939 -2135.705 34467.54)
(36.50072 131.0401 9739.123)
(120.4798 451.7567 10495.21)
(225.1102 927.1242 11831.29)
(361.7021 1586.483 14060.39)
(549.0046 2060.562 17350.74)
(763.3305 1284.36 20200.47)
(983.0934 811.5929 21939.81)
(1267.156 437.5637 23555.34)
(1632.104 129.7708 25169.59)
(2080.06 -188.6591 26871.87)
(2536.756 -635.9907 28711.53)
(2651.145 -1412.209 30642.11)
(1337.047 -2847.726 32153.48)
(34.01847 43.19046 9478.977)
(111.8502 148.002 10219.94)
(208.0917 299.6794 11525.88)
(332.4122 499.3885 13618.5)
(499.5234 622.6788 16487.66)
(683.7647 410.2409 18946.11)
(867.895 268.2904 20558.66)
(1102.703 147.4502 22050.25)
(1404.68 43.21871 23479.58)
(1791.679 -66.12806 24891.24)
(2266.849 -216.2168 26288.04)
(2754.065 -463.8976 27604.67)
(2881.169 -902.3073 28631.31)
(1447.845 -1654.542 28686.54)
(33.95793 -570.9852 16139.9)
(78.73897 -491.2022 14871.86)
(97.64683 -1763.318 15173.78)
(89.66102 -363.0455 13487.99)
(226.3366 -1321.856 13831.66)
(153.4661 -2905.874 13046.76)
(83.55791 -216.4544 12283.31)
(259.079 -785.3401 12515.71)
(356.0714 -1734 11724.88)
(195.695 -3269.77 8985.712)
(73.10154 -69.64443 11348.04)
(243.679 -250.7778 11466.83)
(410.8715 -549.8431 10642.89)
(458.6665 -1037.445 8123.248)
(218.1042 -1607.809 3171.997)
(63.46597 65.5352 10676.44)
(215.7505 234.6165 10735.48)
(391.5834 511.8375 9934.871)
(538.4133 966.2383 7611.298)
(525.1578 1524.907 3032.024)
(55.90784 180.2473 10229.73)
(189.8576 643.6612 10292.78)
(352.543 1406.927 9604.045)
(524.6105 2689.327 7507.617)
(635.3046 4372.905 3066.349)
(50.28553 267.3869 9959.997)
(169.5347 955.0786 10085.82)
(316.0665 2106.344 9612.506)
(484.79 4144.743 7849.21)
(640.5988 7162.842 3339.524)
(46.11518 321.5012 9817.163)
(154.3422 1149.775 10054.05)
(287.5485 2567.452 9911.299)
(447.3733 5279.941 8712.198)
(617.2767 10233.3 3955.551)
(42.91954 339.5838 9750.618)
(142.8496 1213.576 10129.59)
(266.125 2731.046 10429.49)
(419.1552 5877.163 10255.49)
(601.395 14041.56 5116.31)
(40.31389 322.3939 9711.11)
(133.6484 1145.468 10234.21)
(249.23 2549.483 11026.09)
(397.7432 5375.569 12770.2)
(606.9989 12350.65 21137.17)
(954.9039 1393.161 28013.12)
(1287.795 623.5266 27641.17)
(1686.957 280.2929 28579.05)
(2085.94 82.23161 30360.88)
(2179.671 -95.92866 32894.6)
(1103.633 -359.2297 35997.01)
(38.01844 275.2905 9655.292)
(125.6414 967.8464 10286.13)
(234.3208 2093.111 11380.21)
(375.715 4054.659 13604.51)
(576.4378 6834.764 18980.1)
(844.1128 2594.669 23619.22)
(1116.444 1293.891 24871.93)
(1463.511 615.5376 26183.75)
(1887.339 183.4898 27840.18)
(2317.474 -216.1436 29980.7)
(2427.422 -795.2886 32755.54)
(1233.599 -1905.419 36091.89)
(35.85061 206.8685 9552.656)
(118.1296 718.8995 10244.61)
(220.0157 1508.028 11475.77)
(352.3933 2710.744 13707.49)
(535.9375 3848.809 17599.96)
(754.8599 2067.031 20967.88)
(977.4287 1198.086 22572.28)
(1263.879 614.1028 24035.65)
(1631.094 183.5001 25577.85)
(2082.092 -237.7131 27328.37)
(2544.685 -829.3342 29389.3)
(2671.514 -1895.003 31821.54)
(1357.569 -3998.286 34275.43)
(33.70633 126.3007 9386.058)
(110.7344 434.7068 10098.16)
(205.7283 890.4999 11362.95)
(328.2771 1520.63 13476.08)
(494.0842 1970.232 16590.44)
(679.9607 1224.498 19261.22)
(865.2338 771.0529 20848.87)
(1101.125 413.9445 22291.75)
(1404.186 122.3216 23697.53)
(1792.594 -175.1178 25138.44)
(2270.281 -583.5162 26643.08)
(2762.99 -1270.98 28181.68)
(2901.549 -2528.326 29583.21)
(1466.556 -4787.271 30140.89)
(31.53758 41.68984 9148.985)
(103.2904 142.6494 9849.595)
(191.2735 288.3708 11090.22)
(303.8327 479.6649 13080.14)
(453.4601 596.837 15803.66)
(615.509 392.2565 18117.18)
(773.2272 255.7858 19604.16)
(970.6168 140.0861 20955.95)
(1220.526 40.89897 22223.1)
(1540.447 -62.09442 23439.14)
(1949.434 -201.3567 24594.77)
(2451.959 -426.281 25610.63)
(2971.295 -812.685 26302.23)
(3117.206 -1467.433 26306.71)
(1563.613 -2470.828 48483.88)
(35.40611 -565.5619 16784.6)
(81.92499 -542.6436 15457.99)
(102.423 -1952.317 16056.12)
(92.64459 -457.8862 13951.23)
(235.6054 -1675.131 14526.24)
(162.0806 -3745.048 14248.2)
(85.52511 -338.005 12594.49)
(266.4057 -1231.944 12972.28)
(369.977 -2758.84 12480.57)
(206.8421 -5388.014 10055.88)
(73.99218 -202.5056 11500.17)
(247.1545 -731.1281 11685.53)
(418.7028 -1615.526 10991.33)
(471.3725 -3102.445 8590.626)
(226.3944 -4952.883 3429.252)
(63.46597 -65.5352 10676.44)
(215.7505 -234.6165 10735.48)
(391.5834 -511.8375 9934.871)
(538.4133 -966.2383 7611.298)
(525.1578 -1524.907 3032.024)
(55.24318 61.98941 10094.32)
(187.2794 220.7763 10100.24)
(346.4205 478.8504 9300.659)
(512.1257 899.3549 7102.802)
(614.9607 1419.856 2839.541)
(49.16974 171.2309 9713.822)
(165.2469 608.8455 9731.879)
(305.8721 1323.963 9035.999)
(463.3827 2515.994 7027.652)
(602.4131 4069.8 2860.344)
(44.74307 254.9095 9491.904)
(149.1063 907.3163 9577.556)
(275.0528 1992.469 9089.35)
(420.2559 3900.459 7385.353)
(564.494 6701.173 3125.63)
(41.46762 307.3933 9383.888)
(137.3421 1096.134 9581.934)
(252.9146 2439.12 9412.681)
(389.2247 4994.693 8239.155)
(534.4419 9630.554 3722.065)
(38.93609 325.4798 9343.797)
(128.4653 1160.333 9682.894)
(236.8481 2603.688 9940.618)
(368.7087 5583.604 9741.107)
(523.0453 13283.69 4839.237)
(36.83583 309.6549 9326.004)
(121.2546 1097.901 9807.524)
(224.1706 2437.667 10540.66)
(354.0726 5125.027 12173.48)
(534.0499 11734.21 20082.05)
(830.01 1317.94 26503.9)
(1109.604 586.8156 26018.11)
(1460.179 262.3935 26734.4)
(1886.404 77.57419 28196.38)
(2319.475 -83.63781 30347.16)
(2434.922 -316.8465 33352.53)
(1242.356 -780.488 37371.33)
(34.94108 264.8999 9289.805)
(114.8094 929.6075 9878.477)
(212.6209 2006.212 10906.41)
(338.0201 3876.894 13007.01)
(513.3228 6516.337 18095.94)
(742.8313 2465.102 22442.52)
(970.2694 1224.018 23534.56)
(1260.01 579.3775 24648.89)
(1629.886 172.453 26042.65)
(2084.177 -196.2064 27828.01)
(2553.156 -713.2573 30155.71)
(2694.116 -1691.243 33268.1)
(1381.774 -3805.709 37226.25)
(33.1057 199.3865 9206.334)
(108.5731 691.7676 9857.014)
(201.069 1448.458 11021.47)
(319.8212 2598.231 13137.83)
(482.3142 3680.108 16828.73)
(672.4108 1970.701 19992.86)
(860.2473 1138.245 21449.75)
(1098.274 580.9528 22746.09)
(1403.278 172.9335 24081.58)
(1794.101 -220.6469 25564.45)
(2276.104 -761.0296 27267.42)
(2778.483 -1706 29246.33)
(2938.177 -3551.013 31466.19)
(1501.863 -7208.475 33282.56)
(31.2481 121.9125 9059.294)
(102.2595 418.9856 9732.218)
(189.0998 856.8966 10933.43)
(300.0506 1460.574 12943.34)
(448.5191 1888.47 15902.18)
(612.0828 1170.82 18418.48)
(770.8556 735.1163 19880.84)
(969.2277 393.2709 21185.38)
(1220.09 115.7526 22429.26)
(1541.189 -164.4382 23671.6)
(1952.131 -543.4383 24925.83)
(2458.63 -1168.035 26141.48)
(2986.819 -2277.65 27159.97)
(3150.496 -4247.088 27591.76)
(1591.96 -7443.742 51738.79)
(29.33382 40.29564 8842.492)
(95.75959 137.6935 9506.812)
(176.6445 277.9431 10688.61)
(279.3037 461.5675 12586.26)
(414.54 573.2689 15179.79)
(558.8546 375.9784 17366.53)
(696.143 244.5738 18747.45)
(864.8856 133.5588 19984.56)
(1074.464 38.86062 21122.57)
(1338.403 -58.71073 22188.23)
(1674.981 -189.2461 23164.22)
(2104.061 -397.1896 23964.6)
(2630.856 -747.0677 24398.89)
(3177.307 -1321.637 24137.79)
(3336.045 -2187.357 44200.98)
(213.8854 -501.3437 15269.4)
(36.76466 -502.7744 17386.31)
(85.25391 -537.4947 16070.5)
(107.4154 -1927.265 16985.17)
(96.15095 -505.8358 14497.51)
(246.553 -1854.631 15363.65)
(172.4514 -4193.755 15813.22)
(88.24013 -426.3028 13025.76)
(276.575 -1561.154 13619.3)
(389.6362 -3555.195 13619.66)
(223.354 -7296.239 11893.42)
(75.69125 -316.2233 11791.3)
(253.812 -1146.896 12110.53)
(433.8866 -2570.226 11694.9)
(496.7069 -5111.424 9604.652)
(243.7117 -8721.297 4013.554)
(64.23147 -190.5573 10819.6)
(218.7506 -684.0108 10940.08)
(398.6827 -1503.848 10259.16)
(552.2223 -2889.366 8046.304)
(543.9531 -4696.808 3275.755)
(55.24318 -61.98941 10094.32)
(187.2794 -220.7763 10100.24)
(346.4205 -478.8504 9300.659)
(512.1257 -899.3549 7102.802)
(614.9607 -1419.856 2839.541)
(48.58484 58.88854 9585.183)
(163.0083 208.8343 9549.749)
(300.6119 450.6126 8750.491)
(452.6264 841.3898 6648.93)
(584.057 1321.468 2649.287)
(43.74885 163.2404 9257.215)
(145.3329 578.3971 9241.31)
(266.2012 1252.382 8543.986)
(401.8695 2367.691 6612.183)
(531.6299 3807.487 2677.336)
(40.23204 243.7236 9072.9)
(132.6764 864.9861 9127.659)
(241.917 1892.871 8631.784)
(365.679 3689.704 6983.928)
(489.1229 6306.374 2941.004)
(37.6174 294.6262 8992.296)
(123.5056 1048.043 9159.252)
(225.0751 2325.372 8971.193)
(342.3633 4745.18 7825.392)
(464.9097 9110.576 3520.209)
(35.57578 312.6189 8973.203)
(116.5469 1112.148 9279.096)
(213.0192 2489.496 9502.767)
(328.1934 5323.364 9285.422)
(460.1386 12620.67 4596.86)
(33.85347 297.9673 8972.944)
(110.7974 1054.524 9418.772)
(203.4012 2336.467 10101.7)
(318.5264 4900.353 11638.67)
(475.5373 11187.66 19146.52)
(730.4166 1252.134 25183.2)
(964.3283 555.1278 24618.85)
(1257.135 246.9751 25167.05)
(1628.994 72.8787 26375.5)
(2085.495 -75.91138 28166.49)
(2558.751 -284.2314 30696.24)
(2709.748 -692.9174 34407.56)
(1400.01 -1638.667 40054.72)
(32.26539 255.3191 8952.989)
(105.5195 894.5238 9504.696)
(194.3056 1926.965 10474.59)
(306.7647 3715.99 12466.39)
(461.9436 6230.762 17302.96)
(661.6893 2350.236 21398.8)
(853.945 1162.888 22363.96)
(1094.909 548.101 23326.19)
(1402.199 162.4921 24518.83)
(1795.646 -182.1151 26030.76)
(2282.333 -654.6323 27973.46)
(2795.681 -1523.086 30552.43)
(2981.369 -3381.303 34086.66)
(1547.558 -7684.708 38514.34)
(30.69106 192.459 8885.815)
(100.2626 666.75 9499.79)
(184.8145 1393.801 10604.83)
(292.3165 2495.62 12618.44)
(437.8269 3527.402 16130.57)
(605.2826 1884.318 19118.05)
(766.4113 1085.197 20453.71)
(966.717 551.9389 21617.02)
(1219.292 163.6388 22792.53)
(1542.411 -207.1952 24072.22)
(1956.708 -708.8189 25508.03)
(2470.218 -1568.096 27121.13)
(3014.727 -3200.088 28857.42)
(3213.315 -6398.458 30371.33)
(1648.693 -12371.74 59528.13)
(29.06448 117.8355 8755.799)
(94.80355 404.4293 9393.513)
(174.6362 825.9109 10537.5)
(275.8251 1405.468 12454.62)
(410.0207 1813.9 15274.41)
(555.7422 1122.234 17655.32)
(694.0071 702.8939 19012)
(863.6478 374.9464 20203.29)
(1074.08 109.9822 21318.43)
(1339.036 -155.4801 22408.1)
(1677.22 -510.7676 23475.47)
(2109.354 -1088.386 24459.4)
(2642.509 -2094.015 25187.5)
(3202.561 -3826.177 25294.03)
(3386.234 -6592.941 47051.68)
(219.873 -1597.823 16312.62)
(27.36009 38.99649 8556.968)
(89.06958 133.089 9188.422)
(163.7721 268.2879 10316.86)
(257.9615 444.8793 12130.9)
(381.1207 551.6434 14607.3)
(510.9636 361.133 16681.67)
(632.1423 234.4262 17971.43)
(778.7821 127.7077 19112.36)
(957.5855 37.05497 20145.23)
(1178.404 -55.76749 21092.12)
(1455.228 -178.9682 21931.95)
(1806.729 -373.3501 22576.06)
(2252.89 -696.1528 22837.06)
(2798.475 -1214.896 22395.12)
(3362.455 -1968.933 40534.95)
(448.7139 -441.468 13900.92)
(253.6236 -801.578 21853.4)
(37.89985 -392.6084 17885.41)
(88.37727 -477.837 16642.17)
(112.064 -1698.835 17826.51)
(99.8145 -501.0391 15068.36)
(257.9954 -1830.855 16245.35)
(183.3702 -4106.343 17566.13)
(91.43062 -470.9445 13534.33)
(288.582 -1728.416 14399.32)
(413.2858 -3980.859 15103.08)
(244.45 -8588.19 14847.14)
(78.03612 -398.8311 12194.78)
(263.0505 -1453.369 12712.79)
(455.3346 -3311.96 12755.32)
(534.18 -6920.16 11345.2)
(271.7262 -13327.56 5095.893)
(65.69181 -297.5656 11093.55)
(224.4972 -1072.985 11337.69)
(412.4433 -2392.521 10913.97)
(579.7252 -4759.939 8989.987)
(583.1556 -8267.978 3829.206)
(55.90784 -180.2473 10229.73)
(189.8576 -643.6612 10292.78)
(352.543 -1406.927 9604.045)
(524.6105 -2689.327 7507.617)
(635.3046 -4372.905 3066.349)
(48.58484 -58.88854 9585.183)
(163.0083 -208.8343 9549.749)
(300.6119 -450.6126 8750.491)
(452.6264 -841.3898 6648.93)
(584.057 -1321.468 2649.287)
(43.22769 56.14049 9134.577)
(143.3629 198.3903 9068.284)
(261.634 426.2489 8273.902)
(392.6307 791.7921 6255.769)
(515.8271 1236.295 2479.884)
(39.33675 156.0771 8848.508)
(129.314 551.4118 8807.093)
(234.1269 1189.775 8113.661)
(349.7145 2239.742 6252.499)
(460.9026 3583.131 2519.108)
(36.4952 233.6008 8694.223)
(119.304 827.0355 8724.9)
(215.2743 1804.592 8226.688)
(321.6387 3505.357 6632.819)
(425.5595 5965.78 2781.295)
(34.36979 282.9844 8635.59)
(112.0421 1004.521 8777.192)
(202.4162 2223.382 8575.833)
(304.7117 4523.993 7458.924)
(408.9607 8655.697 3343.64)
(32.69465 300.8194 8633.458)
(106.4919 1068.208 8911.216)
(193.2718 2386.144 9106.864)
(295.2161 5089.995 8877.112)
(409.6471 12032.8 4382.088)
(31.26055 287.1906 8647.588)
(101.8297 1014.726 9062.337)
(185.8731 2244.177 9701.655)
(289.0564 4696.987 11154.81)
(427.9057 10697.46 18307.48)
(650.6232 1193.793 24011.8)
(848.7151 527.4055 23394.12)
(1092.409 233.6424 23816.35)
(1401.408 68.66154 24831.97)
(1796.62 -70.45785 26346.68)
(2286.452 -260.902 28471.46)
(2807.582 -624.1689 31581.54)
(3013.901 -1456.309 36600.68)
(1587.761 -3608.962 45601.13)
(29.91173 246.4484 8641.271)
(97.44138 862.1738 9160.211)
(178.5942 1854.254 10078.58)
(280.3742 3569.245 11973.51)
(419.321 5972.252 16585.11)
(595.6254 2247.227 20462.36)
(760.7942 1108.696 21325.32)
(963.7545 520.7286 22168.14)
(1218.345 153.752 23206.13)
(1543.662 -171.0162 24510.77)
(1961.61 -609.7786 26166.5)
(2483.098 -1400.253 28323.21)
(3047.645 -3048.465 31221.27)
(3294.614 -6825.733 35008.96)
(1732.313 -16124.28 76565.33)
(28.54621 186.0228 8588.121)
(92.95154 643.5861 9169.158)
(170.6769 1343.401 10220.78)
(268.7117 2401.467 12141.97)
(400.2407 3388.128 15493.78)
(549.5649 1806.128 18325.86)
(690.0044 1037.631 19559.75)
(861.4105 526.2211 20614.8)
(1073.376 155.4784 21663.53)
(1340.078 -195.9133 22787.02)
(1681.021 -666.2384 24022.88)
(2118.555 -1461.315 25372.62)
(2663.475 -2942.754 26748.64)
(3250.237 -5767.301 27797.13)
(3486.72 -10968.21 53895.61)
(232.8226 -3136.324 18809.78)
(27.10881 114.0364 8473.071)
(88.18007 390.9051 9078.911)
(161.9095 797.2207 10170.99)
(254.7475 1354.654 12004.02)
(376.9639 1745.476 14698.35)
(508.1169 1077.924 16959.06)
(630.2022 673.7302 18225)
(777.6676 358.5199 19321.5)
(957.2434 104.8704 20331.94)
(1178.96 -147.6877 21300.98)
(1457.152 -483.0371 22226.32)
(1811.14 -1023.098 23041.19)
(2262.16 -1951.456 23571.9)
(2817.436 -3517.791 23457.43)
(3400.252 -5936.996 43090.49)
(459.1919 -1408.45 14811.34)
(263.4455 -2611.362 23272.32)
(25.58003 37.7829 8290.303)
(83.07761 128.7984 8891.804)
(152.3355 259.3172 9971.525)
(239.1776 429.4271 11709.32)
(352.0324 531.7014 14079.35)