/*--------------------------------*- C++ -*----------------------------------*\
| =========                 |                                                 |
| \\      /  F ield         | OpenFOAM: The Open Source CFD Toolbox           |
|  \\    /   O peration     | Version:  2306                                  |
|   \\  /    A nd           | Website:  www.openfoam.com                      |
|    \\/     M anipulation  |                                                 |
\*---------------------------------------------------------------------------*/
FoamFile
{
    version     2.0;
    format      ascii;
    arch        "LSB;label=32;scalar=64";
    class       volScalarField;
    location    "0.9/phiEC";
    object      phi;
}
// * * * * * * * * * * * * * * * * * * * * * * * * * * * * * * * * * * * * * //

dimensions      [1 2 -3 0 0 -1 0];

internalField   nonuniform List<scalar> 
20000
(
0.7873718
0.7873709
0.7873679
0.7875578
0.7873693
0.7873671
0.787555
0.7873624
0.7875458
0.7877555
0.787367
0.7873655
0.7875495
0.7873616
0.7875431
0.78775
0.7873569
0.7875291
0.7877346
0.787976
0.7873643
0.7873633
0.7875418
0.7873602
0.7875379
0.7877392
0.7873562
0.7875266
0.7877294
0.7879672
0.7873521
0.7875125
0.7877057
0.7879445
0.7882329
0.7873614
0.7873607
0.7875325
0.7873582
0.7875306
0.7877235
0.7873549
0.7875218
0.7877191
0.7879493
0.7873514
0.7875102
0.7877009
0.7879362
0.7882224
0.7873478
0.7874977
0.7876772
0.7879018
0.7881882
0.7884583
0.7873586
0.787358
0.7875226
0.7873557
0.7875218
0.787704
0.787353
0.787515
0.7877042
0.7879215
0.7873501
0.7875057
0.7876913
0.7879191
0.7881996
0.7873472
0.7874955
0.7876727
0.787894
0.7881782
0.7884517
0.7873442
0.7874848
0.7876519
0.7878599
0.7881288
0.7884013
0.7886158
0.7873562
0.7873553
0.787513
0.7873532
0.7875123
0.7876825
0.7873507
0.7875067
0.7876856
0.7878839
0.7873484
0.7874994
0.7876775
0.7878928
0.7881603
0.787346
0.7874913
0.7876638
0.7878781
0.7881567
0.7884386
0.7873436
0.7874828
0.7876477
0.7878527
0.7881195
0.788395
0.7886117
0.787341
0.7874737
0.7876299
0.7878228
0.7880713
0.7883269
0.7885498
0.7887781
0.7873545
0.787353
0.7875049
0.7873507
0.7875033
0.787662
0.7873483
0.7874979
0.7876652
0.7878388
0.7873463
0.7874917
0.7876602
0.7878571
0.7880944
0.7873444
0.7874854
0.7876509
0.7878536
0.7881193
0.78842
0.7873425
0.7874788
0.7876393
0.7878379
0.7880995
0.7883825
0.7886041
0.7873404
0.7874718
0.787626
0.7878161
0.7880627
0.788321
0.7885459
0.788776
0.7873381
0.787464
0.7876109
0.7877908
0.7880206
0.7882555
0.7884647
0.7887023
0.7889431
0.7873536
0.7873514
0.7874991
0.7873486
0.7874956
0.787645
0.787346
0.7874895
0.7876458
0.787798
0.787344
0.7874835
0.7876411
0.7878144
0.7879794
0.7873424
0.7874782
0.7876348
0.7878204
0.7880569
0.7884007
0.7873409
0.7874733
0.7876272
0.7878151
0.7880647
0.7883649
0.7885943
0.7873393
0.7874681
0.7876181
0.7878023
0.788044
0.7883094
0.7885385
0.7887722
0.7873376
0.7874622
0.7876072
0.7877844
0.7880125
0.7882501
0.7884611
0.7887003
0.7889427
0.7873356
0.7874554
0.7875943
0.7877631
0.7879769
0.788193
0.7883837
0.7886061
0.7888571
0.7891096
0.7873536
0.7873506
0.7874961
0.7873471
0.78749
0.787633
0.7873441
0.7874823
0.7876297
0.7877659
0.7873419
0.7874756
0.7876231
0.7877757
0.7878999
0.7873403
0.7874705
0.7876171
0.7877806
0.7879481
0.787339
0.7874665
0.7876122
0.7877842
0.7880066
0.7883466
0.7885863
0.7873379
0.7874628
0.7876067
0.7877809
0.7880117
0.788293
0.7885293
0.7887677
0.7873366
0.7874586
0.7875998
0.7877714
0.7879951
0.7882393
0.7884542
0.7886967
0.7889418
0.7873351
0.7874536
0.7875907
0.7877571
0.7879693
0.7881879
0.7883803
0.7886042
0.7888566
0.7891106
0.7873333
0.7874477
0.7875796
0.7877388
0.7879391
0.7881392
0.7883129
0.7885152
0.7887494
0.7890127
0.7892759
0.7873545
0.7873506
0.7874961
0.7873463
0.7874871
0.7876268
0.7873427
0.7874771
0.7876182
0.7877441
0.78734
0.7874689
0.787608
0.7877452
0.7878461
0.7873382
0.7874632
0.7876003
0.7877446
0.7878727
0.787337
0.7874593
0.7875956
0.7877472
0.7879054
0.7873361
0.7874564
0.7875926
0.787752
0.7879576
0.788276
0.7885216
0.7887643
0.7873352
0.7874536
0.787589
0.7877513
0.7879648
0.788224
0.7884456
0.7886924
0.7889406
0.7873341
0.7874503
0.7875837
0.7877448
0.7879529
0.7881778
0.788374
0.7886008
0.7888557
0.7891124
0.7873328
0.787446
0.7875762
0.7877331
0.787932
0.7881344
0.7883097
0.7885134
0.7887489
0.7890136
0.7892789
0.7873312
0.7874407
0.7875664
0.7877174
0.7879061
0.7880926
0.788252
0.7884359
0.7886483
0.7888931
0.7891676
0.7894403
0.7873562
0.7873514
0.7874991
0.7873463
0.7874871
0.7876268
0.7873419
0.7874744
0.7876123
0.7877332
0.7873387
0.7874641
0.7875974
0.7877245
0.7878127
0.7873365
0.7874569
0.7875863
0.7877162
0.7878218
0.7873351
0.7874524
0.7875799
0.7877136
0.7878353
0.7873342
0.7874495
0.787577
0.7877174
0.7878634
0.7873335
0.7874475
0.7875756
0.7877241
0.7879143
0.7882082
0.7884385
0.7886891
0.7889398
0.7873328
0.7874455
0.7875735
0.7877258
0.7879244
0.7881635
0.7883659
0.7885968
0.7888545
0.7891142
0.7873319
0.7874428
0.7875695
0.7877214
0.7879164
0.7881249
0.7883038
0.7885102
0.788748
0.7890151
0.789284
0.7873307
0.7874391
0.7875632
0.7877119
0.7878993
0.7880881
0.788249
0.7884342
0.7886478
0.7888939
0.7891702
0.7894461
0.7873293
0.7874344
0.7875545
0.7876981
0.7878768
0.7880519
0.7881994
0.7883678
0.7885604
0.7887818
0.789036
0.78932
0.7896002
0.7873586
0.787353
0.7875049
0.7873471
0.78749
0.787633
0.7873419
0.7874744
0.7876123
0.7877332
0.787338
0.7874616
0.7875919
0.7877142
0.7877966
0.7873353
0.7874524
0.7875764
0.787697
0.7877901
0.7873335
0.7874465
0.7875668
0.7876872
0.7877878
0.7873323
0.787443
0.7875622
0.787686
0.7877982
0.7873316
0.787441
0.7875609
0.7876915
0.7878261
0.7873311
0.7874397
0.7875607
0.7877
0.7878768
0.7881487
0.7883593
0.7885938
0.7888537
0.7891153
0.7873306
0.7874382
0.7875597
0.7877034
0.7878895
0.7881114
0.7882963
0.7885064
0.7887468
0.7890166
0.7892894
0.7873298
0.787436
0.7875567
0.7877008
0.7878845
0.7880791
0.7882434
0.7884312
0.7886469
0.7888952
0.7891747
0.7894563
0.7873288
0.7874328
0.7875514
0.7876929
0.7878703
0.7880476
0.7881966
0.7883662
0.7885599
0.7887825
0.7890383
0.7893252
0.7896103
0.7873275
0.7874285
0.7875436
0.7876807
0.7878506
0.7880159
0.7881534
0.788309
0.788485
0.7886852
0.7889144
0.7891764
0.7894676
0.7897511
0.7873614
0.7873553
0.787513
0.7873486
0.7874956
0.787645
0.7873427
0.7874771
0.7876182
0.7877441
0.787338
0.7874616
0.7875919
0.7877142
0.7877966
0.7873346
0.7874501
0.7875713
0.7876873
0.7877748
0.7873323
0.7874423
0.7875575
0.7876693
0.7877583
0.7873308
0.7874374
0.7875498
0.7876613
0.787754
0.7873299
0.7874348
0.7875468
0.787662
0.7877651
0.7873294
0.7874335
0.7875467
0.7876692
0.7877939
0.787329
0.7874327
0.7875476
0.7876789
0.7878445
0.7880974
0.78829
0.7885036
0.788746
0.7890175
0.789293
0.7873286
0.7874316
0.7875474
0.7876836
0.7878589
0.7880663
0.7882364
0.7884277
0.7886458
0.7888965
0.7891794
0.7894675
0.787328
0.7874298
0.7875452
0.7876823
0.7878562
0.7880391
0.7881913
0.7883634
0.7885591
0.7887836
0.7890424
0.7893342
0.7896286
0.7873271
0.7874271
0.7875406
0.7876757
0.7878444
0.7880118
0.7881507
0.7883075
0.7884846
0.7886859
0.7889165
0.789181
0.7894766
0.7897677
0.7873259
0.7874232
0.7875337
0.7876649
0.7878269
0.7879836
0.7881126
0.7882575
0.7884199
0.7886026
0.7888093
0.7890446
0.789312
0.7896064
0.789887
0.7873643
0.787358
0.7875226
0.7873507
0.7875033
0.787662
0.7873441
0.7874823
0.7876297
0.7877659
0.7873387
0.7874641
0.7875974
0.7877245
0.7878127
0.7873346
0.7874501
0.7875713
0.7876873
0.7877748
0.7873317
0.78744
0.7875527
0.7876603
0.7877441
0.7873297
0.7874334
0.7875411
0.7876445
0.7877265
0.7873284
0.7874295
0.7875352
0.7876387
0.7877238
0.7873277
0.7874276
0.7875334
0.7876412
0.7877364
0.7873274
0.7874267
0.7875342
0.7876496
0.787766
0.7873271
0.7874263
0.7875358
0.7876602
0.7878161
0.7880532
0.7882305
0.7884251
0.7886451
0.7888974
0.7891826
0.7894753
0.7873268
0.7874256
0.7875363
0.7876658
0.7878318
0.788027
0.7881846
0.7883601
0.7885581
0.7887848
0.7890466
0.7893441
0.7896503
0.7873263
0.7874242
0.7875347
0.7876655
0.7878309
0.7880036
0.7881457
0.7883048
0.7884838
0.788687
0.7889202
0.7891891
0.7894929
0.789799
0.7873255
0.7874218
0.7875308
0.7876601
0.7878209
0.7879796
0.7881101
0.7882561
0.7884195
0.7886032
0.7888113
0.7890489
0.7893202
0.789621
0.7899117
0.7873244
0.7874182
0.7875245
0.7876503
0.7878052
0.7879543
0.7880761
0.7882119
0.788363
0.7885312
0.7887194
0.7889312
0.7891705
0.7894394
0.7897307
0.7901313
0.787367
0.7873607
0.7875325
0.7873532
0.7875123
0.7876825
0.787346
0.7874895
0.7876458
0.787798
0.78734
0.7874689
0.787608
0.7877452
0.7878461
0.7873353
0.7874524
0.7875764
0.787697
0.7877901
0.7873317
0.78744
0.7875527
0.7876603
0.7877441
0.7873291
0.7874314
0.7875366
0.7876361
0.7877133
0.7873274
0.7874257
0.7875269
0.787623
0.7876981
0.7873263
0.7874225
0.7875223
0.7876192
0.7876976
0.7873258
0.7874211
0.7875215
0.7876231
0.7877116
0.7873255
0.7874206
0.787523
0.7876323
0.7877416
0.7873253
0.7874205
0.7875252
0.7876435
0.7877911
0.7880144
0.7881791
0.7883576
0.7885574
0.7887856
0.7890495
0.7893511
0.7896667
0.7873251
0.7874201
0.7875262
0.7876498
0.7878076
0.7879921
0.7881393
0.7883017
0.7884829
0.7886881
0.7889241
0.7891981
0.7895121
0.7898398
0.7873247
0.787419
0.7875251
0.7876503
0.787808
0.7879718
0.7881053
0.7882536
0.7884188
0.7886042
0.7888147
0.7890563
0.7893348
0.7896488
0.7899615
0.787324
0.7874168
0.7875217
0.7876457
0.7877995
0.7879506
0.7880736
0.7882106
0.7883626
0.7885318
0.7887213
0.7889352
0.7891779
0.7894526
0.7897525
0.7901731
0.787323
0.7874136
0.787516
0.7876369
0.7877854
0.7879277
0.788043
0.788171
0.7883125
0.7884687
0.7886418
0.7888342
0.789049
0.7892886
0.7895534
0.7899531
0.7905007
0.7873693
0.7873633
0.7875418
0.7873557
0.7875218
0.787704
0.7873483
0.7874979
0.7876652
0.7878388
0.7873419
0.7874756
0.7876231
0.7877757
0.7878999
0.7873365
0.7874569
0.7875863
0.7877162
0.7878218
0.7873323
0.7874423
0.7875575
0.7876693
0.7877583
0.7873291
0.7874314
0.7875366
0.7876361
0.7877133
0.7873268
0.7874237
0.7875227
0.7876151
0.7876857
0.7873253
0.7874189
0.7875145
0.7876043
0.7876734
0.7873244
0.7874163
0.787511
0.7876022
0.7876749
0.787324
0.7874152
0.7875109
0.787607
0.7876899
0.7873238
0.7874151
0.7875129
0.7876168
0.7877199
0.7873237
0.7874152
0.7875155
0.7876284
0.7877686
0.7879801
0.7881341
0.7882994
0.7884822
0.7886888
0.7889267
0.7892043
0.7895267
0.7898759
0.7873235
0.7874151
0.7875169
0.7876351
0.7877856
0.7879608
0.7880992
0.7882506
0.7884179
0.7886053
0.7888184
0.7890646
0.7893522
0.789685
0.7900354
0.7873232
0.7874142
0.7875163
0.7876363
0.7877871
0.7879431
0.7880691
0.7882082
0.7883619
0.7885328
0.7887245
0.7889421
0.7891914
0.7894777
0.7897966
0.7902644
0.7873226
0.7874123
0.7875133
0.7876325
0.7877799
0.7879241
0.7880407
0.7881698
0.7883121
0.7884693
0.7886436
0.788838
0.7890559
0.7893008
0.7895731
0.7899898
0.7905675
0.7873216
0.7874093
0.7875081
0.7876245
0.7877671
0.7879032
0.7880129
0.788134
0.7882672
0.7884134
0.7885739
0.7887505
0.7889452
0.7891596
0.7893944
0.7897574
0.7902893
0.7908597
0.7873709
0.7873655
0.7875495
0.7873582
0.7875306
0.7877235
0.7873507
0.7875067
0.7876856
0.7878839
0.787344
0.7874835
0.7876411
0.7878144
0.7879794
0.7873382
0.7874632
0.7876003
0.7877446
0.7878727
0.7873335
0.7874465
0.7875668
0.7876872
0.7877878
0.7873297
0.7874334
0.7875411
0.7876445
0.7877265
0.7873268
0.7874237
0.7875227
0.7876151
0.7876857
0.7873248
0.787417
0.7875104
0.7875968
0.7876617
0.7873234
0.7874128
0.7875035
0.787588
0.787652
0.7873227
0.7874106
0.7875008
0.7875871
0.787655
0.7873223
0.7874099
0.7875013
0.7875926
0.7876707
0.7873222
0.78741
0.7875037
0.7876028
0.7877006
0.7873222
0.7874104
0.7875066
0.7876146
0.7877483
0.7879494
0.7880942
0.7882484
0.7884172
0.7886059
0.7888208
0.7890703
0.7893653
0.7897171
0.7901227
0.7873221
0.7874104
0.7875083
0.7876217
0.7877656
0.7879325
0.7880633
0.7882053
0.788361
0.7885338
0.788728
0.7889498
0.7892074
0.7895103
0.7898622
0.7904344
0.7873218
0.7874097
0.7875081
0.7876234
0.787768
0.7879169
0.7880363
0.7881674
0.7883114
0.7884702
0.7886466
0.7888445
0.7890685
0.7893238
0.7896128
0.7900704
0.7907183
0.7873213
0.787408
0.7875055
0.7876203
0.7877618
0.7878997
0.7880106
0.7881328
0.7882669
0.7884139
0.7885756
0.7887541
0.7889517
0.7891709
0.7894125
0.7897904
0.7903479
0.7909488
0.7873204
0.7874053
0.7875008
0.787613
0.7877502
0.7878807
0.7879852
0.7881003
0.7882262
0.7883637
0.7885137
0.7886773
0.7888556
0.7890494
0.7892587
0.7895839
0.7900658
0.7906163
0.7912049
0.7873718
0.7873671
0.787555
0.7873602
0.7875379
0.7877392
0.787353
0.787515
0.7877042
0.7879215
0.7873463
0.7874917
0.7876602
0.7878571
0.7880944
0.7873403
0.7874705
0.7876171
0.7877806
0.7879481
0.7873351
0.7874524
0.7875799
0.7877136
0.7878353
0.7873308
0.7874374
0.7875498
0.7876613
0.787754
0.7873274
0.7874257
0.7875269
0.787623
0.7876981
0.7873248
0.787417
0.7875104
0.7875968
0.7876617
0.7873229
0.787411
0.7874996
0.7875809
0.787641
0.7873217
0.7874073
0.7874937
0.7875736
0.7876333
0.7873211
0.7874054
0.7874916
0.7875735
0.7876374
0.7873208
0.787405
0.7874926
0.7875796
0.7876535
0.7873208
0.7874053
0.7874953
0.78759
0.7876831
0.7873208
0.7874058
0.7874984
0.7876019
0.7877297
0.7879216
0.7880585
0.7882032
0.7883604
0.7885344
0.7887303
0.7889551
0.7892194
0.7895392
0.7899397
0.7908505
0.7873208
0.787406
0.7875004
0.7876094
0.7877473
0.7879067
0.7880307
0.7881647
0.7883106
0.7884712
0.7886499
0.7888517
0.7890833
0.7893538
0.789672
0.7902208
0.7910092
0.7873205
0.7874055
0.7875004
0.7876115
0.7877503
0.7878929
0.7880064
0.7881306
0.7882662
0.7884148
0.7885785
0.7887602
0.7889635
0.7891924
0.789449
0.7898629
0.7904806
0.7911501
0.78732
0.787404
0.7874983
0.7876089
0.7877451
0.7878773
0.787983
0.7880991
0.7882259
0.7883642
0.7885153
0.7886806
0.7888618
0.7890601
0.7892755
0.7896143
0.7901184
0.7906942
0.7913126
0.7873192
0.7874015
0.7874939
0.7876023
0.7877345
0.7878598
0.7879597
0.7880694
0.7881889
0.7883187
0.7884596
0.7886123
0.7887772
0.7889544
0.7891429
0.7894365
0.7898706
0.7903658
0.7909307
0.7915333
0.7873679
0.7875578
0.7873616
0.7875431
0.78775
0.7873549
0.7875218
0.7877191
0.7879493
0.7873484
0.7874994
0.7876775
0.7878928
0.7881603
0.7873424
0.7874782
0.7876348
0.7878204
0.7880569
0.7884007
0.787337
0.7874593
0.7875956
0.7877472
0.7879054
0.7873323
0.787443
0.7875622
0.787686
0.7877982
0.7873284
0.7874295
0.7875352
0.7876387
0.7877238
0.7873253
0.7874189
0.7875145
0.7876043
0.7876734
0.7873229
0.787411
0.7874996
0.7875809
0.787641
0.7873212
0.7874055
0.78749
0.7875668
0.7876228
0.7873202
0.7874023
0.7874848
0.7875606
0.7876167
0.7873196
0.7874007
0.7874833
0.7875613
0.7876217
0.7873194
0.7874005
0.7874845
0.7875677
0.787638
0.7873194
0.787401
0.7874875
0.7875783
0.7876671
0.7932883
0.7873195
0.7874016
0.7874908
0.7875903
0.7877128
0.7878962
0.7880261
0.7881627
0.78831
0.7884718
0.7886521
0.7888567
0.7890946
0.7893804
0.7897419
0.7905904
0.7916473
0.7873195
0.787402
0.787493
0.7875979
0.7877304
0.7878831
0.7880011
0.788128
0.7882654
0.7884157
0.7885816
0.788767
0.7889775
0.7892203
0.7895034
0.7899983
0.7907373
0.7915289
0.7873193
0.7874016
0.7874933
0.7876004
0.787734
0.7878707
0.787979
0.788097
0.7882253
0.788365
0.788518
0.7886865
0.788873
0.7890802
0.7893095
0.7896808
0.7902375
0.7908709
0.791554
0.7873189
0.7874003
0.7874915
0.7875983
0.7877295
0.7878566
0.7879576
0.7880682
0.7881886
0.7883192
0.7884612
0.7886155
0.7887831
0.7889644
0.7891587
0.7894647
0.7899188
0.7904357
0.7910247
0.7916554
0.7873182
0.787398
0.7874875
0.7875923
0.7877198
0.7878404
0.7879361
0.7880408
0.7881546
0.7882778
0.7884107
0.788554
0.7887076
0.7888712
0.789043
0.7893108
0.7897054
0.7901495
0.7906545
0.7912301
0.7916957
0.7873624
0.7875458
0.7877555
0.7873562
0.7875266
0.7877294
0.7879672
0.7873501
0.7875057
0.7876913
0.7879191
0.7881996
0.7873444
0.7874854
0.7876509
0.7878536
0.7881193
0.78842
0.787339
0.7874665
0.7876122
0.7877842
0.7880066
0.7883466
0.7885863
0.7873342
0.7874495
0.787577
0.7877174
0.7878634
0.7873299
0.7874348
0.7875468
0.787662
0.7877651
0.7873263
0.7874225
0.7875223
0.7876192
0.7876976
0.7873234
0.7874128
0.7875035
0.787588
0.787652
0.7873212
0.7874055
0.78749
0.7875668
0.7876228
0.7873197
0.7874006
0.7874812
0.7875541
0.7876067
0.7873187
0.7873976
0.7874767
0.7875489
0.7876019
0.7873182
0.7873964
0.7874756
0.7875502
0.7876075
0.7873181
0.7873963
0.7874771
0.7875569
0.7876238
0.7946996
0.7873182
0.7873969
0.7874803
0.7875675
0.7876525
0.7927629
0.7934534
0.7873183
0.7873977
0.7874838
0.7875795
0.7876971
0.7878729
0.7879966
0.788126
0.7882649
0.7884162
0.7885836
0.7887718
0.7889881
0.7892452
0.7895678
0.7903322
0.791303
0.7922576
0.7873183
0.7873982
0.7874862
0.7875873
0.7877147
0.7878612
0.7879739
0.7880945
0.7882245
0.7883659
0.788521
0.788693
0.7888862
0.7891066
0.7893603
0.7898053
0.7904686
0.7912044
0.7919931
0.7873182
0.787398
0.7874867
0.7875901
0.7877188
0.7878502
0.7879537
0.7880662
0.788188
0.78832
0.7884638
0.788621
0.7887937
0.7889835
0.7891907
0.7895267
0.7900281
0.7905941
0.791236
0.7919268
0.7873178
0.7873968
0.7874852
0.7875884
0.787715
0.7878373
0.7879341
0.7880397
0.7881543
0.7882782
0.7884122
0.788557
0.7887132
0.7888807
0.789058
0.7893373
0.7897503
0.7902135
0.7907387
0.7913365
0.7918231
0.7873171
0.7873947
0.7874815
0.7875829
0.7877062
0.7878224
0.7879142
0.7880144
0.788123
0.7882401
0.7883661
0.7885012
0.7886452
0.7887973
0.7889555
0.7892022
0.7895647
0.7899671
0.7904181
0.7909297
0.7913784
0.791711
0.7873569
0.7875291
0.7877346
0.787976
0.7873514
0.7875102
0.7877009
0.7879362
0.7882224
0.787346
0.7874913
0.7876638
0.7878781
0.7881567
0.7884386
0.7873409
0.7874733
0.7876272
0.7878151
0.7880647
0.7883649
0.7885943
0.7873361
0.7874564
0.7875926
0.787752
0.7879576
0.788276
0.7885216
0.7887643
0.7873316
0.787441
0.7875609
0.7876915
0.7878261
0.7873277
0.7874276
0.7875334
0.7876412
0.7877364
0.7873244
0.7874163
0.787511
0.7876022
0.7876749
0.7873217
0.7874073
0.7874937
0.7875736
0.7876333
0.7873197
0.7874006
0.7874812
0.7875541
0.7876067
0.7873183
0.787396
0.7874733
0.7875427
0.7875923
0.7873174
0.7873934
0.7874692
0.7875383
0.7875885
0.787317
0.7873923
0.7874685
0.78754
0.7875945
0.7956509
0.7873169
0.7873924
0.7874703
0.7875468
0.7876108
0.7940162
0.7947743
0.787317
0.7873932
0.7874736
0.7875575
0.787639
0.7922985
0.7929099
0.7936969
0.7873172
0.7873941
0.7874772
0.7875695
0.7876826
0.7878515
0.7879696
0.7880926
0.788224
0.7883664
0.7885229
0.7886975
0.7888962
0.7891299
0.7894204
0.7901129
0.7909791
0.791849
0.792755
0.7873172
0.7873947
0.7874797
0.7875774
0.7877002
0.7878411
0.7879488
0.7880638
0.7881872
0.7883209
0.7884666
0.7886272
0.7888062
0.7890084
0.7892384
0.7896427
0.7902405
0.790894
0.7916217
0.7924062
0.7873171
0.7873946
0.7874805
0.7875804
0.7877047
0.7878311
0.7879303
0.7880378
0.7881537
0.788279
0.7884147
0.7885624
0.7887233
0.7888988
0.7890882
0.7893955
0.789852
0.7903589
0.7909281
0.7915733
0.7921053
0.7873168
0.7873936
0.7874792
0.7875791
0.7877015
0.7878194
0.7879122
0.7880134
0.7881227
0.7882406
0.7883676
0.7885041
0.7886506
0.7888064
0.7889697
0.7892273
0.7896068
0.7900267
0.7904952
0.7910248
0.7914892
0.7918389
0.7873162
0.7873916
0.7874758
0.7875741
0.7876934
0.7878055
0.7878937
0.7879899
0.7880937
0.7882054
0.7883252
0.788453
0.7885887
0.788731
0.7888778
0.7891071
0.7894432
0.7898119
0.7902193
0.7906743
0.7910662
0.7913923
0.7917261
0.7873521
0.7875125
0.7877057
0.7879445
0.7882329
0.7873472
0.7874955
0.7876727
0.787894
0.7881782
0.7884517
0.7873425
0.7874788
0.7876393
0.7878379
0.7880995
0.7883825
0.7886041
0.7873379
0.7874628
0.7876067
0.7877809
0.7880117
0.788293
0.7885293
0.7887677
0.7873335
0.7874475
0.7875756
0.7877241
0.7879143
0.7882082
0.7884385
0.7886891
0.7889398
0.7873294
0.7874335
0.7875467
0.7876692
0.7877939
0.7873258
0.7874211
0.7875215
0.7876231
0.7877116
0.7873227
0.7874106
0.7875008
0.7875871
0.787655
0.7873202
0.7874023
0.7874848
0.7875606
0.7876167
0.7873183
0.787396
0.7874733
0.7875427
0.7875923
0.787317
0.7873919
0.787466
0.7875323
0.7875793
0.7873162
0.7873895
0.7874624
0.7875285
0.7875762
0.7962619
0.7873158
0.7873886
0.787462
0.7875306
0.7875826
0.7948587
0.7957066
0.7873158
0.7873888
0.7874639
0.7875376
0.7875989
0.7934301
0.7940818
0.7949122
0.7873159
0.7873897
0.7874674
0.7875482
0.7876266
0.7919261
0.7924319
0.7931264
0.7939772
0.7873161
0.7873907
0.7874711
0.7875602
0.7876692
0.7878316
0.7879447
0.788062
0.7881867
0.7883214
0.7884685
0.7886315
0.7888158
0.7890305
0.7892949
0.7899297
0.7907104
0.791475
0.7922937
0.7931795
0.7873162
0.7873913
0.7874738
0.7875681
0.7876867
0.7878223
0.7879255
0.7880354
0.788153
0.7882798
0.7884174
0.7885683
0.7887353
0.7889225
0.7891333
0.7895046
0.7900499
0.7906344
0.7912745
0.7919931
0.7925987
0.7873161
0.7873914
0.7874747
0.7875714
0.7876914
0.7878134
0.7879086
0.7880114
0.7881221
0.7882413
0.78837
0.7885092
0.7886602
0.7888237
0.7889984
0.7892823
0.7897024
0.790162
0.7906688
0.7912369
0.791735
0.792122
0.7873158
0.7873905
0.7874736
0.7875704
0.7876888
0.7878026
0.7878919
0.7879888
0.7880934
0.7882059
0.7883266
0.7884558
0.7885938
0.7887397
0.7888913
0.7891309
0.789483
0.7898678
0.790291
0.7907613
0.7911652
0.7915035
0.7918544
0.7873153
0.7873887
0.7874705
0.7875658
0.7876814
0.7877897
0.7878747
0.787967
0.7880665
0.7881733
0.7882874
0.7884088
0.7885371
0.788671
0.7888081
0.7890226
0.7893366
0.7896778
0.7900501
0.7904599
0.7908014
0.791079
0.7914061
0.7917409
0.7873478
0.7874977
0.7876772
0.7879018
0.7881882
0.7884583
0.7873436
0.7874828
0.7876477
0.7878527
0.7881195
0.788395
0.7886117
0.7873393
0.7874681
0.7876181
0.7878023
0.788044
0.7883094
0.7885385
0.7887722
0.7873352
0.7874536
0.787589
0.7877513
0.7879648
0.788224
0.7884456
0.7886924
0.7889406
0.7873311
0.7874397
0.7875607
0.7877
0.7878768
0.7881487
0.7883593
0.7885938
0.7888537
0.7891153
0.7873274
0.7874267
0.7875342
0.7876496
0.787766
0.787324
0.7874152
0.7875109
0.787607
0.7876899
0.7873211
0.7874054
0.7874916
0.7875735
0.7876374
0.7873187
0.7873976
0.7874767
0.7875489
0.7876019
0.787317
0.7873919
0.787466
0.7875323
0.7875793
0.7873157
0.787388
0.7874592
0.7875228
0.7875675
0.7965634
0.787315
0.7873858
0.7874561
0.7875196
0.7875651
0.7953988
0.7963128
0.7873147
0.7873851
0.7874559
0.7875219
0.7875717
0.7941893
0.7949069
0.7958158
0.7873147
0.7873854
0.787458
0.787529
0.7875878
0.7929681
0.7934894
0.7942027
0.7951012
0.7873149
0.7873864
0.7874615
0.7875396
0.787615
0.7916226
0.7920494
0.7926285
0.793375
0.7942742
0.7873151
0.7873875
0.7874653
0.7875515
0.7876566
0.7878132
0.7879216
0.7880337
0.7881525
0.7882803
0.7884192
0.7885724
0.7887444
0.7889435
0.7891868
0.7897745
0.7904882
0.7911689
0.7918793
0.7926727
0.7933757
0.7873152
0.7873882
0.7874681
0.7875595
0.787674
0.7878048
0.787904
0.7880092
0.7881215
0.7882421
0.7883726
0.7885149
0.7886717
0.7888462
0.7890413
0.7893855
0.7898884
0.7904186
0.7909868
0.7916135
0.7921663
0.7926166
0.7873152
0.7873883
0.7874692
0.7875629
0.7876791
0.7877968
0.7878883
0.787987
0.7880929
0.7882066
0.7883289
0.7884607
0.7886031
0.7887562
0.7889187
0.7891832
0.7895733
0.7899949
0.7904525
0.7909556
0.7913851
0.7917501
0.7921383
0.7873149
0.7873876
0.7874683
0.7875623
0.787677
0.7877869
0.7878728
0.787966
0.7880663
0.7881737
0.7882888
0.7884115
0.788542
0.7886793
0.788821
0.7890453
0.7893744
0.7897306
0.7901174
0.7905408
0.790892
0.7911783
0.7915176
0.7918696
0.7873144
0.7873859
0.7874655
0.7875581
0.7876701
0.7877749
0.7878568
0.7879456
0.7880412
0.7881435
0.7882525
0.7883681
0.7884898
0.7886162
0.7887449
0.7889467
0.7892418
0.78956
0.7899039
0.7902776
0.7905795
0.7908134
0.7910917
0.7914197
0.7917556
0.7873442
0.7874848
0.7876519
0.7878599
0.7881288
0.7884013
0.7886158
0.7873404
0.7874718
0.787626
0.7878161
0.7880627
0.788321
0.7885459
0.788776
0.7873366
0.7874586
0.7875998
0.7877714
0.7879951
0.7882393
0.7884542
0.7886967
0.7889418
0.7873328
0.7874455
0.7875735
0.7877258
0.7879244
0.7881635
0.7883659
0.7885968
0.7888545
0.7891142
0.787329
0.7874327
0.7875476
0.7876789
0.7878445
0.7880974
0.78829
0.7885036
0.788746
0.7890175
0.789293
0.7873255
0.7874206
0.787523
0.7876323
0.7877416
0.7873223
0.7874099
0.7875013
0.7875926
0.7876707
0.7873196
0.7874007
0.7874833
0.7875613
0.7876217
0.7873174
0.7873934
0.7874692
0.7875383
0.7875885
0.7873157
0.787388
0.7874592
0.7875228
0.7875675
0.7965634
0.7873146
0.7873844
0.787453
0.787514
0.7875566
0.7956651
0.7966131
0.7873139
0.7873824
0.7874502
0.7875112
0.7875547
0.7946754
0.7954424
0.796414
0.7873137
0.7873818
0.7874502
0.7875138
0.7875615
0.7936664
0.7942327
0.7950012
0.7959751
0.7873137
0.7873823
0.7874525
0.7875209
0.7875775
0.7925947
0.7930229
0.7935989
0.7943679
0.7953313
0.7873139
0.7873833
0.7874561
0.7875315
0.7876042
0.791368
0.7917379
0.7922311
0.7928541
0.7936375
0.7944339
0.7873142
0.7873845
0.78746
0.7875433
0.7876449
0.787796
0.7879001
0.7880075
0.788121
0.7882426
0.7883743
0.7885188
0.7886804
0.7888662
0.7890921
0.7896409
0.7903006
0.7909168
0.7915428
0.7922243
0.7928478
0.793394
0.7873143
0.7873853
0.7874628
0.7875514
0.7876622
0.7877885
0.7878839
0.7879848
0.7880923
0.7882073
0.7883314
0.7884662
0.788614
0.7887778
0.7889596
0.7892812
0.7897492
0.790236
0.7907485
0.7913011
0.7917717
0.7921824
0.7926341
0.7873143
0.7873855
0.7874641
0.787555
0.7876675
0.7877812
0.7878694
0.7879642
0.7880657
0.7881744
0.788291
0.7884163
0.7885509
0.7886951
0.7888472
0.7890951
0.7894601
0.7898506
0.790269
0.7907214
0.7910934
0.791399
0.7917649
0.7921543
0.7873141
0.7873848
0.7874634
0.7875546
0.7876658
0.7877722
0.787855
0.7879447
0.7880409
0.7881439
0.7882538
0.7883707
0.7884945
0.7886242
0.7887573
0.7889684
0.7892778
0.7896101
0.7899674
0.7903534
0.7906636
0.7909042
0.7911913
0.7915315
0.7918846
0.7873136
0.7873833
0.7874608
0.7875507
0.7876595
0.787761
0.78784
0.7879256
0.7880175
0.7881157
0.78822
0.7883303
0.7884461
0.7885659
0.7886872
0.788878
0.7891567
0.7894553
0.7897754
0.7901198
0.7903906
0.7905907
0.7908252
0.7911042
0.7914331
0.7917728
0.787341
0.7874737
0.7876299
0.7878228
0.7880713
0.7883269
0.7885498
0.7887781
0.7873376
0.7874622
0.7876072
0.7877844
0.7880125
0.7882501
0.7884611
0.7887003
0.7889427
0.7873341
0.7874503
0.7875837
0.7877448
0.7879529
0.7881778
0.788374
0.7886008
0.7888557
0.7891124
0.7873306
0.7874382
0.7875597
0.7877034
0.7878895
0.7881114
0.7882963
0.7885064
0.7887468
0.7890166
0.7892894
0.7873271
0.7874263
0.7875358
0.7876602
0.7878161
0.7880532
0.7882305
0.7884251
0.7886451
0.7888974
0.7891826
0.7894753
0.7873238
0.7874151
0.7875129
0.7876168
0.7877199
0.7873208
0.787405
0.7874926
0.7875796
0.7876535
0.7873182
0.7873964
0.7874756
0.7875502
0.7876075
0.7873162
0.7873895
0.7874624
0.7875285
0.7875762
0.7962619
0.7873146
0.7873844
0.787453
0.787514
0.7875566
0.7956651
0.7966131
0.7873135
0.787381
0.7874472
0.7875059
0.7875466
0.7949149
0.7957075
0.7967123
0.7873129
0.7873792
0.7874447
0.7875035
0.7875452
0.7941133
0.7947146
0.795529
0.7965646
0.7873127
0.7873788
0.7874449
0.7875063
0.7875521
0.7932457
0.7937065
0.7943178
0.7951386
0.7961813
0.7873128
0.7873793
0.7874473
0.7875134
0.7875679
0.7922824
0.7926459
0.793124
0.7937483
0.7945684
0.7954702
0.787313
0.7873804
0.787451
0.787524
0.7875941
0.7911493
0.7914766
0.7919078
0.7924397
0.7930925
0.7937782
0.7944491
0.7873133
0.7873816
0.7874549
0.7875357
0.7876339
0.78778
0.7878802
0.7879832
0.7880918
0.7882078
0.788333
0.78847
0.7886224
0.7887969
0.789008
0.7895239
0.7901392
0.7907044
0.7912666
0.7918621
0.7923837
0.792864
0.7934118
0.7873135
0.7873825
0.7874579
0.7875437
0.7876511
0.7877732
0.7878651
0.7879621
0.7880651
0.7881751
0.7882934
0.7884215
0.7885615
0.7887158
0.7888862
0.7891885
0.7896272
0.7900785
0.7905471
0.7910429
0.7914479
0.7917864
0.7921981
0.7926511
0.7873135
0.7873828
0.7874592
0.7875475
0.7876566
0.7877667
0.7878517
0.7879429
0.7880404
0.7881445
0.7882559
0.7883752
0.788503
0.7886394
0.7887823
0.789016
0.7893595
0.7897241
0.7901106
0.7905229
0.7908508
0.7911063
0.7914125
0.7917794
0.79217
0.7873133
0.7873823
0.7874587
0.7875474
0.7876553
0.7877583
0.7878383
0.7879247
0.7880173
0.7881161
0.7882212
0.7883329
0.7884507
0.7885736
0.7886991
0.7888987
0.789191
0.789503
0.7898357
0.7901914
0.7904694
0.7906751
0.7909163
0.7912041
0.7915452
0.7919021
0.7873128
0.7873808
0.7874563
0.7875438
0.7876495
0.7877479
0.7878243
0.7879069
0.7879954
0.7880897
0.7881897
0.7882953
0.7884057
0.7885195
0.7886343
0.7888152
0.7890794
0.789361
0.789661
0.7899811
0.7902271
0.7904012
0.7906018
0.7908369
0.7911166
0.7914488
0.7917888
0.7873381
0.787464
0.7876109
0.7877908
0.7880206
0.7882555
0.7884647
0.7887023
0.7889431
0.7873351
0.7874536
0.7875907
0.7877571
0.7879693
0.7881879
0.7883803
0.7886042
0.7888566
0.7891106
0.7873319
0.7874428
0.7875695
0.7877214
0.7879164
0.7881249
0.7883038
0.7885102
0.788748
0.7890151
0.789284
0.7873286
0.7874316
0.7875474
0.7876836
0.7878589
0.7880663
0.7882364
0.7884277
0.7886458
0.7888965
0.7891794
0.7894675
0.7873253
0.7874205
0.7875252
0.7876435
0.7877911
0.7880144
0.7881791
0.7883576
0.7885574
0.7887856
0.7890495
0.7893511
0.7896667
0.7873222
0.78741
0.7875037
0.7876028
0.7877006
0.7873194
0.7874005
0.7874845
0.7875677
0.787638
0.787317
0.7873923
0.7874685
0.78754
0.7875945
0.7956509
0.787315
0.7873858
0.7874561
0.7875196
0.7875651
0.7953988
0.7963128
0.7873135
0.787381
0.7874472
0.7875059
0.7875466
0.7949149
0.7957075
0.7967123
0.7873125
0.7873779
0.7874419
0.7874983
0.7875373
0.7943334
0.7949529
0.795792
0.7968607
0.787312
0.7873763
0.7874396
0.7874963
0.7875363
0.7936622
0.7941494
0.7947925
0.7956578
0.7967637
0.7873118
0.7873759
0.78744
0.7874992
0.7875433
0.7928946
0.7932832
0.793785
0.7944416
0.795316
0.7963128
0.7873119
0.7873765
0.7874424
0.7875064
0.7875589
0.7920145
0.7923306
0.7927404
0.793262
0.7939298
0.794689
0.7954838
0.7873121
0.7873777
0.7874462
0.7875169
0.7875847
0.7909577
0.7912521
0.7916366
0.7921029
0.7926602
0.7932202
0.7937916
0.7944644
0.7873124
0.787379
0.7874502
0.7875285
0.7876237
0.787765
0.7878615
0.7879606
0.7880647
0.7881756
0.788295
0.7884252
0.7885694
0.7887341
0.7889326
0.78942
0.7899977
0.7905217
0.791034
0.7915654
0.7920097
0.7923985
0.7928799
0.7934292
0.7873126
0.7873799
0.7874532
0.7875366
0.7876406
0.7877589
0.7878475
0.7879409
0.7880398
0.7881452