/*--------------------------------*- C++ -*----------------------------------*\
| =========                 |                                                 |
| \\      /  F ield         | OpenFOAM: The Open Source CFD Toolbox           |
|  \\    /   O peration     | Version:  2306                                  |
|   \\  /    A nd           | Website:  www.openfoam.com                      |
|    \\/     M anipulation  |                                                 |
\*---------------------------------------------------------------------------*/
FoamFile
{
    version     2.0;
    format      ascii;
    arch        "LSB;label=32;scalar=64";
    class       volScalarField;
    location    "0.9/phiEC";
    object      T;
}
// * * * * * * * * * * * * * * * * * * * * * * * * * * * * * * * * * * * * * //

dimensions      [0 0 0 1 0 0 0];

internalField   nonuniform List<scalar> 
20000
(
1142.638
1142.636
1144.274
1142.581
1142.633
1144.273
1142.578
1146.47
1144.255
1142.467
1142.628
1144.271
1142.573
1146.47
1144.254
1142.463
1148.766
1146.469
1144.218
1142.301
1142.621
1144.269
1142.566
1146.468
1144.252
1142.454
1148.765
1146.468
1144.216
1142.293
1150.989
1148.771
1146.469
1144.168
1142.092
1142.615
1144.267
1142.557
1146.467
1144.249
1142.442
1148.763
1146.467
1144.213
1142.278
1150.988
1148.77
1146.467
1144.165
1142.077
1153.085
1150.997
1148.784
1146.471
1144.11
1141.919
1142.609
1144.264
1142.548
1146.464
1144.245
1142.428
1148.762
1146.464
1144.209
1142.257
1150.987
1148.768
1146.464
1144.161
1142.049
1153.084
1150.996
1148.782
1146.469
1144.106
1141.894
1155.042
1153.093
1151.013
1148.806
1146.481
1144.068
1141.808
1142.603
1144.261
1142.539
1146.462
1144.242
1142.413
1148.759
1146.461
1144.204
1142.233
1150.985
1148.766
1146.46
1144.154
1142.011
1153.083
1150.994
1148.78
1146.464
1144.098
1141.844
1155.041
1153.092
1151.012
1148.804
1146.478
1144.061
1141.776
1156.864
1155.049
1153.11
1151.041
1148.841
1146.498
1144.044
1141.707
1142.599
1144.259
1142.531
1146.46
1144.238
1142.397
1148.757
1146.458
1144.198
1142.207
1150.983
1148.763
1146.455
1144.146
1141.97
1153.081
1150.992
1148.775
1146.458
1144.088
1141.77
1155.04
1153.09
1151.009
1148.799
1146.472
1144.049
1141.71
1156.864
1155.049
1153.109
1151.039
1148.838
1146.494
1144.035
1141.668
1158.563
1156.872
1155.066
1153.138
1151.083
1148.879
1146.513
1144.026
1141.622
1142.597
1144.257
1142.525
1146.458
1144.235
1142.383
1148.755
1146.455
1144.192
1142.178
1150.981
1148.759
1146.45
1144.137
1141.94
1153.079
1150.989
1148.77
1146.449
1144.078
1141.676
1155.039
1153.088
1151.005
1148.792
1146.462
1144.032
1141.608
1156.863
1155.047
1153.106
1151.035
1148.832
1146.488
1144.018
1141.587
1158.563
1156.871
1155.064
1153.136
1151.08
1148.876
1146.509
1144.015
1141.578
1160.149
1158.57
1156.886
1155.092
1153.179
1151.126
1148.908
1146.533
1144.016
1141.558
1142.597
1144.256
1142.522
1146.456
1144.232
1142.372
1148.753
1146.452
1144.187
1142.149
1150.979
1148.756
1146.444
1144.127
1141.875
1153.077
1150.985
1148.765
1146.439
1144.069
1155.037
1153.085
1151
1148.783
1146.449
1144.013
1141.466
1156.862
1155.045
1153.102
1151.028
1148.822
1146.478
1143.993
1141.462
1158.562
1156.869
1155.062
1153.132
1151.075
1148.872
1146.501
1143.994
1141.486
1160.149
1158.569
1156.885
1155.09
1153.177
1151.124
1148.906
1146.528
1144.004
1141.51
1161.633
1160.155
1158.583
1156.91
1155.131
1153.222
1151.159
1148.941
1146.558
1144.018
1141.517
1142.599
1144.256
1142.522
1146.455
1144.231
1142.366
1148.751
1146.45
1144.182
1142.127
1150.977
1148.753
1146.44
1144.116
1141.81
1153.075
1150.982
1148.759
1146.429
1144.048
1155.035
1153.083
1150.995
1148.772
1146.428
1156.86
1155.043
1153.098
1151.019
1148.807
1146.468
1143.962
1141.284
1158.561
1156.868
1155.059
1153.126
1151.065
1148.865
1146.49
1143.961
1141.344
1160.148
1158.568
1156.883
1155.086
1153.172
1151.12
1148.901
1146.519
1143.979
1141.412
1161.632
1160.155
1158.582
1156.909
1155.128
1153.22
1151.157
1148.939
1146.553
1144.005
1141.467
1163.023
1161.638
1160.167
1158.605
1156.946
1155.17
1153.253
1151.194
1148.978
1146.59
1144.032
1141.5
1142.603
1144.257
1142.525
1146.455
1144.231
1142.366
1148.751
1146.449
1144.18
1142.115
1150.975
1148.751
1146.436
1144.107
1141.762
1153.074
1150.98
1148.754
1146.42
1144.023
1155.033
1153.08
1150.99
1148.762
1146.408
1156.858
1155.04
1153.093
1151.009
1148.782
1158.559
1156.865
1155.055
1153.118
1151.051
1148.857
1146.476
1143.917
1141.142
1160.147
1158.566
1156.88
1155.081
1153.164
1151.115
1148.895
1146.506
1143.94
1141.259
1161.632
1160.153
1158.58
1156.906
1155.124
1153.217
1151.154
1148.934
1146.543
1143.977
1141.366
1163.023
1161.638
1160.166
1158.604
1156.944
1155.169
1153.252
1151.193
1148.976
1146.585
1144.018
1141.45
1164.328
1163.028
1161.649
1160.187
1158.637
1156.982
1155.199
1153.288
1151.233
1149.019
1146.628
1144.058
1141.507
1142.609
1144.259
1142.531
1146.456
1144.232
1142.372
1148.751
1146.449
1144.18
1142.115
1150.975
1148.75
1146.434
1144.102
1141.736
1153.072
1150.978
1148.751
1146.413
1144.003
1155.032
1153.077
1150.985
1148.753
1146.39
1156.857
1155.037
1153.088
1150.999
1148.762
1158.558
1156.863
1155.05
1153.108
1151.026
1160.146
1158.564
1156.876
1155.074
1153.15
1151.109
1148.887
1146.487
1143.885
1141.044
1161.631
1160.152
1158.578
1156.901
1155.116
1153.212
1151.15
1148.928
1146.527
1143.935
1141.21
1163.022
1161.637
1160.165
1158.601
1156.94
1155.166
1153.25
1151.19
1148.971
1146.574
1143.991
1141.35
1164.327
1163.027
1161.648
1160.186
1158.635
1156.98
1155.198
1153.287
1151.232
1149.017
1146.623
1144.045
1141.459
1165.554
1164.332
1163.038
1161.667
1160.216
1158.67
1157.008
1155.231
1153.325
1151.275
1149.064
1146.672
1144.097
1141.538
1142.615
1144.261
1142.539
1146.458
1144.235
1142.383
1148.751
1146.45
1144.182
1142.127
1150.975
1148.75
1146.434
1144.102
1141.736
1153.072
1150.977
1148.749
1146.409
1143.991
1155.03
1153.076
1150.982
1148.747
1146.377
1156.855
1155.035
1153.084
1150.991
1148.747
1158.556
1156.861
1155.046
1153.099
1151.007
1160.144
1158.562
1156.872
1155.065
1153.126
1161.629
1160.15
1158.574
1156.894
1155.104
1153.207
1151.145
1148.919
1146.505
1143.874
1140.992
1163.021
1161.635
1160.162
1158.596
1156.933
1155.161
1153.246
1151.186
1148.964
1146.557
1143.947
1141.196
1164.327
1163.026
1161.647
1160.183
1158.632
1156.978
1155.196
1153.285
1151.23
1149.013
1146.613
1144.019
1141.361
1165.554
1164.332
1163.037
1161.666
1160.215
1158.669
1157.007
1155.23
1153.324
1151.274
1149.062
1146.668
1144.086
1141.49
1166.708
1165.558
1164.342
1163.055
1161.694
1160.246
1158.694
1157.037
1155.265
1153.364
1151.319
1149.112
1146.723
1144.147
1141.59
1142.621
1144.264
1142.548
1146.46
1144.238
1142.397
1148.753
1146.452
1144.187
1142.149
1150.975
1148.751
1146.436
1144.107
1141.762
1153.072
1150.977
1148.749
1146.409
1143.991
1155.03
1153.075
1150.98
1148.744
1146.369
1156.854
1155.034
1153.081
1150.985
1148.736
1158.555
1156.859
1155.042
1153.092
1150.993
1160.143
1158.56
1156.868
1155.057
1153.109
1161.628
1160.148
1158.57
1156.886
1155.082
1163.02
1161.633
1160.159
1158.59
1156.921
1155.157
1153.243
1151.181
1148.954
1146.533
1143.886
1140.983
1164.326
1163.025
1161.645
1160.179
1158.625
1156.974
1155.193
1153.282
1151.226
1149.005
1146.597
1143.979
1141.213
1165.553
1164.331
1163.036
1161.664
1160.211
1158.666
1157.006
1155.229
1153.322
1151.272
1149.058
1146.66
1144.063
1141.394
1166.707
1165.558
1164.341
1163.054
1161.693
1160.245
1158.693
1157.036
1155.264
1153.363
1151.318
1149.111
1146.72
1144.137
1141.541
1167.794
1166.711
1165.567
1164.357
1163.079
1161.721
1160.268
1158.72
1157.068
1155.3
1153.405
1151.365
1149.163
1146.778
1144.207
1142.453
1142.628
1144.267
1142.557
1146.462
1144.242
1142.413
1148.755
1146.455
1144.192
1142.178
1150.977
1148.753
1146.44
1144.116
1141.81
1153.072
1150.978
1148.751
1146.413
1144.003
1155.03
1153.075
1150.98
1148.744
1146.369
1156.854
1155.033
1153.08
1150.983
1148.73
1158.554
1156.857
1155.039
1153.087
1150.984
1160.142
1158.558
1156.865
1155.05
1153.097
1161.627
1160.146
1158.567
1156.879
1155.067
1163.019
1161.632
1160.156
1158.583
1156.902
1164.325
1163.024
1161.642
1160.174
1158.615
1156.97
1155.19
1153.279
1151.22
1148.995
1146.573
1143.923
1141.013
1165.552
1164.33
1163.034
1161.66
1160.206
1158.663
1157.003
1155.226
1153.32
1151.268
1149.052
1146.646
1144.028
1141.253
1166.707
1165.557
1164.34
1163.051
1161.689
1160.243
1158.691
1157.035
1155.263
1153.362
1151.317
1149.109
1146.714
1144.118
1141.446
1167.793
1166.711
1165.566
1164.356
1163.078
1161.72
1160.267
1158.719
1157.067
1155.3
1153.405
1151.365
1149.163
1146.776
1144.198
1142.387
1168.816
1167.797
1166.72
1165.581
1164.38
1163.104
1161.741
1160.292
1158.748
1157.1
1155.337
1153.447
1151.413
1149.216
1146.836
1145.003
1144.111
1142.633
1144.269
1142.566
1146.464
1144.245
1142.428
1148.757
1146.458
1144.198
1142.207
1150.979
1148.756
1146.444
1144.127
1141.875
1153.074
1150.98
1148.754
1146.42
1144.023
1155.03
1153.076
1150.982
1148.747
1146.377
1156.854
1155.033
1153.08
1150.983
1148.73
1158.554
1156.857
1155.038
1153.084
1150.979
1160.141
1158.557
1156.863
1155.046
1153.089
1161.626
1160.145
1158.564
1156.873
1155.056
1163.017
1161.63
1160.153
1158.576
1156.888
1164.324
1163.022
1161.639
1160.167
1158.598
1165.551
1164.328
1163.031
1161.655
1160.196
1158.659
1157.001
1155.224
1153.317
1151.263
1149.042
1146.625
1143.982
1141.072
1166.706
1165.556
1164.338
1163.048
1161.684
1160.24
1158.689
1157.033
1155.261
1153.361
1151.315
1149.105
1146.705
1144.091
1141.307
1167.793
1166.71
1165.565
1164.354
1163.075
1161.718
1160.266
1158.718
1157.066
1155.299
1153.404
1151.365
1149.163
1146.774
1144.182
1142.243
1168.816
1167.797
1166.719
1165.58
1164.378
1163.103
1161.74
1160.291
1158.747
1157.1
1155.338
1153.448
1151.414
1149.217
1146.836
1144.994
1144.015
1169.779
1168.82
1167.805
1166.733
1165.602
1164.402
1163.122
1161.763
1160.317
1158.777
1157.134
1155.376
1153.491
1151.461
1149.269
1147.539
1146.527
1145.78
1142.636
1144.271
1142.573
1146.467
1144.249
1142.442
1148.759
1146.461
1144.204
1142.233
1150.981
1148.759
1146.45
1144.137
1141.94
1153.075
1150.982
1148.759
1146.429
1144.048
1155.032
1153.077
1150.985
1148.753
1146.39
1156.854
1155.034
1153.081
1150.985
1148.736
1158.554
1156.857
1155.038
1153.084
1150.979
1160.14
1158.556
1156.862
1155.043
1153.085
1161.625
1160.143
1158.562
1156.869
1155.048
1163.017
1161.628
1160.15
1158.571
1156.878
1164.323
1163.02
1161.636
1160.161
1158.585
1165.55
1164.327
1163.028
1161.649
1160.18
1166.705
1165.554
1164.335
1163.043
1161.676
1160.237
1158.687
1157.031
1155.259
1153.358
1151.311
1149.097
1146.69
1144.058
1141.136
1167.792
1166.709
1165.563
1164.351
1163.07
1161.715
1160.264
1158.717
1157.065
1155.298
1153.404
1151.365
1149.162
1146.77
1144.162
1141.961
1168.815
1167.796
1166.718
1165.578
1164.376
1163.101
1161.739
1160.29
1158.747
1157.1
1155.338
1153.449
1151.416
1149.22
1146.836
1144.981
1143.786
1169.779
1168.819
1167.804
1166.732
1165.601
1164.402
1163.122
1161.762
1160.317
1158.777
1157.134
1155.377
1153.492
1151.463
1149.272
1147.544
1146.52
1145.659
1170.686
1169.783
1168.827
1167.817
1166.752
1165.623
1164.419
1163.142
1161.786
1160.343
1158.807
1157.168
1155.415
1153.534
1151.509
1149.886
1148.885
1148.052
1147.464
1142.638
1144.273
1142.578
1146.468
1144.252
1142.454
1148.762
1146.464
1144.209
1142.257
1150.983
1148.763
1146.455
1144.146
1141.97
1153.077
1150.985
1148.765
1146.439
1144.069
1155.033
1153.08
1150.99
1148.762
1146.408
1156.855
1155.035
1153.084
1150.991
1148.747
1158.554
1156.857
1155.039
1153.087
1150.984
1160.14
1158.556
1156.862
1155.043
1153.085
1161.625
1160.143
1158.561
1156.867
1155.045
1163.016
1161.627
1160.148
1158.567
1156.872
1164.322
1163.019
1161.633
1160.156
1158.576
1165.549
1164.325
1163.026
1161.643
1160.169
1166.704
1165.553
1164.333
1163.038
1161.661
1167.791
1166.708
1165.561
1164.346
1163.062
1161.712
1160.262
1158.715
1157.063
1155.297
1153.402
1151.362
1149.159
1146.765
1144.144
1141.168
1168.815
1167.795
1166.716
1165.575
1164.371
1163.099
1161.737
1160.289
1158.746
1157.099
1155.338
1153.449
1151.418
1149.224
1146.84
1144.975
1143.29
1169.779
1168.819
1167.803
1166.73
1165.599
1164.4
1163.12
1161.761
1160.316
1158.777
1157.134
1155.378
1153.495
1151.468
1149.278
1147.56
1146.509
1145.365
1170.686
1169.782
1168.826
1167.817
1166.751
1165.623
1164.419
1163.142
1161.785
1160.343
1158.808
1157.169
1155.417
1153.537
1151.512
1149.894
1148.899
1148.045
1147.325
1171.539
1170.689
1169.789
1168.839
1167.836
1166.772
1165.639
1164.438
1163.163
1161.81
1160.371
1158.839
1157.204
1155.454
1153.577
1152.05
1151.064
1150.228
1149.578
1149.166
1144.274
1142.581
1146.47
1144.254
1142.463
1148.763
1146.467
1144.213
1142.278
1150.985
1148.766
1146.46
1144.154
1142.011
1153.079
1150.989
1148.77
1146.449
1144.078
1141.676
1155.035
1153.083
1150.995
1148.772
1146.428
1156.857
1155.037
1153.088
1150.999
1148.762
1158.555
1156.859
1155.042
1153.092
1150.993
1160.141
1158.557
1156.863
1155.046
1153.089
1161.625
1160.143
1158.561
1156.867
1155.045
1163.015
1161.627
1160.147
1158.565
1156.869
1164.321
1163.018
1161.631
1160.153
1158.57
1165.549
1164.324
1163.023
1161.639
1160.161
1166.703
1165.552
1164.33
1163.033
1161.651
1167.79
1166.707
1165.559
1164.341
1163.049
1135.527
1168.814
1167.794
1166.714
1165.571
1164.364
1163.096
1161.735
1160.287
1158.744
1157.097
1155.337
1153.449
1151.419
1149.228
1146.849
1145.067
1141.995
1169.778
1168.818
1167.802
1166.727
1165.594
1164.398
1163.119
1161.76
1160.315
1158.776
1157.134
1155.379
1153.498
1151.474
1149.288
1147.61
1146.514
1144.739
1170.685
1169.782
1168.825
1167.815
1166.749
1165.621
1164.418
1163.141
1161.785
1160.343
1158.808
1157.17
1155.419
1153.541
1151.52
1149.918
1148.939
1148.033
1146.992
1171.539
1170.689
1169.789
1168.838
1167.835
1166.772
1165.639
1164.437
1163.163
1161.81
1160.371
1158.839
1157.205
1155.456
1153.58
1152.059
1151.084
1150.249
1149.57
1149.018
1172.341
1171.542
1170.696
1169.801
1168.856
1167.854
1166.787
1165.656
1164.457
1163.185
1161.835
1160.4
1158.871
1157.239
1155.492
1154.053
1153.083
1152.238
1151.568
1151.104
1150.075
1146.47
1144.255
1142.467
1148.765
1146.468
1144.216
1142.293
1150.987
1148.768
1146.464
1144.161
1142.049
1153.081
1150.992
1148.775
1146.458
1144.088
1141.77
1155.037
1153.085
1151
1148.783
1146.449
1144.013
1141.466
1156.858
1155.04
1153.093
1151.009
1148.782
1158.556
1156.861
1155.046
1153.099
1151.007
1160.142
1158.558
1156.865
1155.05
1153.097
1161.625
1160.143
1158.562
1156.869
1155.048
1163.015
1161.627
1160.147
1158.565
1156.869
1164.321
1163.017
1161.631
1160.151
1158.567
1165.548
1164.323
1163.022
1161.636
1160.156
1166.702
1165.551
1164.328
1163.029
1161.643
1167.79
1166.705
1165.556
1164.337
1163.039
1128.691
1168.813
1167.793
1166.712
1165.567
1164.352
1146.394
1137.624
1169.777
1168.817
1167.8
1166.724
1165.588
1164.395
1163.117
1161.758
1160.314
1158.775
1157.134
1155.38
1153.501
1151.482
1149.304
1147.861
1146.635
1143.301
1170.685
1169.781
1168.824
1167.812
1166.745
1165.619
1164.416
1163.14
1161.784
1160.343
1158.808
1157.172
1155.423
1153.548
1151.532
1149.983
1149.053
1148.035
1146.31
1171.538
1170.688
1169.788
1168.836
1167.833
1166.77
1165.637
1164.436
1163.162
1161.81
1160.372
1158.841
1157.207
1155.461
1153.587
1152.085
1151.138
1150.306
1149.555
1148.669
1172.341
1171.542
1170.695
1169.8
1168.855
1167.854
1166.786
1165.656
1164.457
1163.185
1161.835
1160.4
1158.872
1157.241
1155.495
1154.063
1153.104
1152.267
1151.593
1151.096
1149.927
1173.094
1172.344
1171.548
1170.706
1169.817
1168.874
1167.868
1166.803
1165.674
1164.478
1163.209
1161.861
1160.428
1158.902
1157.273
1155.914
1154.963
1154.112
1153.408
1152.902
1151.912
1150.173
1148.766
1146.469
1144.218
1142.301
1150.988
1148.77
1146.467
1144.165
1142.077
1153.083
1150.994
1148.78
1146.464
1144.098
1141.844
1155.039
1153.088
1151.005
1148.792
1146.462
1144.032
1141.608
1156.86
1155.043
1153.098
1151.019
1148.807
1146.468
1143.962
1141.284
1158.558
1156.863
1155.05
1153.108
1151.026
1160.143
1158.56
1156.868
1155.057
1153.109
1161.626
1160.145
1158.564
1156.873
1155.056
1163.016
1161.627
1160.148
1158.567
1156.872
1164.321
1163.017
1161.631
1160.151
1158.567
1165.548
1164.323
1163.021
1161.634
1160.153
1166.702
1165.55
1164.327
1163.026
1161.638
1167.789
1166.704
1165.554
1164.333
1163.032
1123.272
1168.812
1167.792
1166.71
1165.562
1164.343
1145.589
1132.254
1169.776
1168.815
1167.798
1166.719
1165.576
1150.287
1147.297
1139.863
1170.684
1169.78
1168.822
1167.809
1166.739
1165.616
1164.414
1163.138
1161.783
1160.341
1158.808
1157.172
1155.426
1153.556
1151.55
1150.263
1149.446
1148.116
1144.917
1171.538
1170.687
1169.787
1168.834
1167.829
1166.768
1165.636
1164.435
1163.162
1161.809
1160.372
1158.842
1157.211
1155.468
1153.6
1152.15
1151.278
1150.45
1149.542
1147.989
1172.34
1171.541
1170.694
1169.798
1168.853
1167.852
1166.785
1165.655
1164.456
1163.185
1161.836
1160.401
1158.874
1157.245
1155.502
1154.087
1153.16
1152.343
1151.659
1151.076
1149.581
1173.093
1172.343
1171.548
1170.705
1169.816
1168.873
1167.868
1166.803
1165.674
1164.478
1163.209
1161.862
1160.43
1158.904
1157.276
1155.924
1154.984
1154.143
1153.443
1152.931
1151.902
1150.025
1173.799
1173.096
1172.35
1171.558
1170.722
1169.834
1168.886
1167.883
1166.82
1165.693
1164.499
1163.233
1161.887
1160.457
1158.933
1157.649
1156.721
1155.87
1155.136
1154.572
1153.605
1151.998
1150.27
1150.989
1148.771
1146.469
1144.168
1142.092
1153.084
1150.996
1148.782
1146.469
1144.106
1141.894
1155.04
1153.09
1151.009
1148.799
1146.472
1144.049
1141.71
1156.862
1155.045
1153.102
1151.028
1148.822
1146.478
1143.993
1141.462
1158.559
1156.865
1155.055
1153.118
1151.051
1148.857
1146.476
1143.917
1141.142
1160.144
1158.562
1156.872
1155.065
1153.126
1161.627
1160.146
1158.567
1156.879
1155.067
1163.017
1161.628
1160.15
1158.571
1156.878
1164.321
1163.018
1161.631
1160.153
1158.57
1165.548
1164.323
1163.021
1161.634
1160.153
1166.702
1165.549
1164.326
1163.024
1161.636
1167.788
1166.704
1165.553
1164.33
1163.028
1119.631
1168.812
1167.791
1166.708
1165.559
1164.336
1144.247
1127.758
1169.776
1168.814
1167.796
1166.715
1165.568
1150.916
1146.735
1135.652
1170.683
1169.779
1168.82
1167.805
1166.728
1152.847
1150.997
1148.403
1142.211
1171.537
1170.686
1169.785
1168.831
1167.823
1166.766
1165.634
1164.434
1163.16
1161.808
1160.371
1158.843
1157.214
1155.476
1153.617
1152.423
1151.728
1150.844
1149.563
1146.733
1172.34
1171.54
1170.693
1169.796
1168.85
1167.85
1166.784
1165.654
1164.456
1163.185
1161.836
1160.402
1158.877
1157.251
1155.514
1154.15
1153.301
1152.522
1151.806
1151.045
1148.921
1173.093
1172.343
1171.547
1170.704
1169.814
1168.872
1167.867
1166.802
1165.673
1164.477
1163.209
1161.863
1160.432
1158.908
1157.282
1155.947
1155.038
1154.221
1153.531
1152.997
1151.881
1149.679
1173.799
1173.096
1172.349
1171.558
1170.721
1169.833
1168.886
1167.883
1166.82
1165.693
1164.499
1163.233
1161.889
1160.459
1158.936
1157.658
1156.741
1155.899
1155.173
1154.61
1153.634
1151.989
1150.123
1174.459
1173.802
1173.102
1172.359
1171.573
1170.738
1169.846
1168.901
1167.899
1166.838
1165.713
1164.521
1163.257
1161.914
1160.485
1159.271
1158.369
1157.524
1156.771
1156.154
1155.183
1153.68
1152.084
1150.369
1153.085
1150.997
1148.784
1146.471
1144.11
1141.919
1155.041
1153.092
1151.012
1148.804
1146.478
1144.061
1141.776
1156.863
1155.047
1153.106
1151.035
1148.832
1146.488
1144.018
1141.587
1158.561
1156.868
1155.059
1153.126
1151.065
1148.865
1146.49
1143.961
1141.344
1160.146
1158.564
1156.876
1155.074
1153.15
1151.109
1148.887
1146.487
1143.885
1141.044
1161.628
1160.148
1158.57
1156.886
1155.082
1163.017
1161.63
1160.153
1158.576
1156.888
1164.322
1163.019
1161.633
1160.156
1158.576
1165.548
1164.323
1163.022
1161.636
1160.156
1166.702
1165.549
1164.326
1163.024
1161.636
1167.788
1166.703
1165.552
1164.329
1163.026
1117.811
1168.811
1167.79
1166.707
1165.556
1164.332
1143.047
1124.659
1169.775
1168.813
1167.794
1166.712
1165.562
1150.897
1145.716
1131.99
1170.682
1169.778
1168.818
1167.801
1166.72
1153.893
1151.594
1147.968
1138.941
1171.536
1170.685
1169.783
1168.827
1167.813
1154.884
1153.441
1151.859
1149.63
1144.635
1172.339
1171.539
1170.691
1169.793
1168.844
1167.848
1166.783
1165.653
1164.455
1163.184
1161.835
1160.403
1158.88
1157.259
1155.53
1154.403
1153.743
1152.988
1152.141
1151.005
1147.759
1173.092
1172.342
1171.546
1170.702
1169.811
1168.87
1167.865
1166.801
1165.673
1164.477
1163.209
1161.864
1160.435
1158.914
1157.293
1156.004
1155.172
1154.403
1153.72
1153.131
1151.84
1149.022
1173.799
1173.096
1172.348
1171.556
1170.719
1169.832
1168.885
1167.882
1166.819
1165.693
1164.5
1163.234
1161.891
1160.463
1158.942
1157.679
1156.791
1155.975
1155.264
1154.702
1153.699
1151.967
1149.778
1174.459
1173.802
1173.102
1172.359
1171.572
1170.737
1169.845
1168.9
1167.899
1166.838
1165.713
1164.522
1163.258
1161.915
1160.487
1159.279
1158.387
1157.552
1156.807
1156.195
1155.222
1153.709
1152.075
1150.221
1175.075
1174.462
1173.807
1173.111
1172.374
1171.588
1170.749
1169.859
1168.916
1167.916
1166.856
1165.734
1164.544
1163.281
1161.939
1160.791
1159.918
1159.086
1158.323
1157.667
1156.688
1155.248
1153.755
1152.171
1150.467
1155.042
1153.093
1151.013
1148.806
1146.481
1144.068
1141.808
1156.864
1155.049
1153.109
1151.039
1148.838
1146.494
1144.035
1141.668
1158.562
1156.869
1155.062
1153.132
1151.075
1148.872
1146.501
1143.994
1141.486
1160.147
1158.566
1156.88
1155.081
1153.164
1151.115
1148.895
1146.506
1143.94
1141.259
1161.629
1160.15
1158.574
1156.894
1155.104
1153.207
1151.145
1148.919
1146.505
1143.874
1140.992
1163.019
1161.632
1160.156
1158.583
1156.902
1164.323
1163.02
1161.636
1160.161
1158.585
1165.549
1164.324
1163.023
1161.639
1160.161
1166.702
1165.55
1164.327
1163.026
1161.638
1167.788
1166.703
1165.552
1164.329
1163.026
1117.811
1168.811
1167.789
1166.706
1165.555
1164.33
1142.36
1123.092
1169.775
1168.813
1167.793
1166.71
1165.558
1150.684
1144.775
1129.407
1170.682
1169.777
1168.816
1167.798
1166.715
1154.327
1151.667
1147.191
1136.023
1171.536
1170.684
1169.781
1168.823
1167.806
1156.01
1154.371
1152.359
1149.269
1142.155
1172.338
1171.538
1170.689
1169.789
1168.834
1156.665
1155.397
1154.159
1152.804
1150.932
1145.941
1173.092
1172.341
1171.544
1170.699
1169.806
1168.868
1167.864
1166.8
1165.672
1164.476
1163.209
1161.864
1160.437
1158.921
1157.308
1156.236
1155.584
1154.866
1154.134
1153.386
1151.77
1147.87
1173.798
1173.095
1172.347
1171.554
1170.716
1169.83
1168.884
1167.881
1166.818
1165.693
1164.5
1163.235
1161.893
1160.468
1158.951
1157.733
1156.916
1156.148
1155.459
1154.881
1153.82
1151.925
1149.123
1174.459
1173.801
1173.101
1172.357
1171.571
1170.736
1169.845
1168.9
1167.898
1166.837
1165.714
1164.523
1163.26
1161.919
1160.493
1159.299
1158.434
1157.623
1156.896
1156.291
1155.313
1153.774
1152.053
1149.877
1175.075
1174.461
1173.807
1173.111
1172.373
1171.588
1170.749
1169.859
1168.915
1167.916
1166.856
1165.734
1164.544
1163.282
1161.941
1160.798
1159.935
1159.112
1158.357
1157.707
1156.73
1155.288
1153.784
1152.162
1150.32
1175.648
1175.077
1174.467
1173.816
1173.125
1172.388
1171.599
1170.762
1169.873
1168.931
1167.933
1166.875
1165.754
1164.566
1163.304
1162.217
1161.375
1160.561
1159.798
1159.116
1158.136
1156.746
1155.314
1153.831
1152.258
1150.559
1156.864
1155.049
1153.11
1151.041
1148.841
1146.498
1144.044
1141.707
1158.563
1156.871
1155.064
1153.136
1151.08
1148.876
1146.509
1144.015
1141.578
1160.148
1158.568
1156.883
1155.086
1153.172
1151.12
1148.901
1146.519
1143.979
1141.412
1161.631
1160.152
1158.578
1156.901
1155.116
1153.212
1151.15
1148.928
1146.527
1143.935
1141.21
1163.02
1161.633
1160.159
1158.59
1156.921
1155.157
1153.243
1151.181
1148.954
1146.533
1143.886
1140.983
1164.324
1163.022
1161.639
1160.167
1158.598
1165.549
1164.325
1163.026
1161.643
1160.169
1166.702
1165.551
1164.328
1163.029
1161.643
1167.788
1166.704
1165.553
1164.33
1163.028
1119.631
1168.811
1167.789
1166.706
1165.555
1164.33
1142.36
1123.092
1169.774
1168.812
1167.792
1166.709
1165.556
1150.521
1144.229
1128.087
1170.681
1169.776
1168.815
1167.796
1166.711
1154.482
1151.549
1146.461
1133.924
1171.535
1170.683
1169.78
1168.82
1167.8
1156.578
1154.81
1152.471
1148.674
1139.903
1172.338
1171.537
1170.688
1169.786
1168.828
1157.752
1156.386
1154.929
1153.188
1150.616
1143.826
1173.091
1172.34
1171.542
1170.695
1169.797
1158.29
1157.115
1156.015
1154.942
1153.795
1151.642
1146.081
1173.797
1173.094
1172.346
1171.551
1170.711
1169.828
1168.883
1167.88
1166.817
1165.692
1164.499
1163.236
1161.896
1160.474
1158.965
1157.944
1157.294
1156.584
1155.877
1155.216
1154.03
1151.852
1147.981
1174.458
1173.8
1173.1
1172.355
1171.568
1170.734
1169.843
1168.899
1167.898
1166.837
1165.714
1164.523
1163.262
1161.924
1160.502
1159.348
1158.549
1157.785
1157.083
1156.478
1155.481
1153.894
1152.01
1149.225
1175.074
1174.461
1173.806
1173.11
1172.371
1171.587
1170.748
1169.858
1168.915
1167.915
1166.857
1165.735
1164.546
1163.286
1161.946
1160.817
1159.978
1159.178
1158.441
1157.801
1156.826
1155.378
1153.849
1152.139
1149.976
1175.647
1175.077
1174.467
1173.816
1173.124
1172.388
1171.599
1170.762
1169.873
1168.931
1167.933
1166.876
1165.755
1164.567
1163.306
1162.224
1161.391
1160.586
1159.83
1159.154
1158.177
1156.787
1155.353
1153.859
1152.248
1150.412
1176.178
1175.65
1175.082
1174.476
1173.83
1173.139
1172.399
1171.612
1170.775
1169.888
1168.948
1167.951
1166.895
1165.775
1164.587
1163.559
1162.749
1161.957
1161.2
1160.504
1159.531
1158.187
1156.803
1155.379
1153.906
1152.339
1150.631
1158.563
1156.872
1155.066
1153.138
1151.083
1148.879
1146.513
1144.026
1141.622
1160.149
1158.569
1156.885
1155.09
1153.177
1151.124
1148.906
1146.528
1144.004
1141.51
1161.632
1160.153
1158.58
1156.906
1155.124
1153.217
1151.154
1148.934
1146.543
1143.977
1141.366
1163.021
1161.635
1160.162
1158.596
1156.933
1155.161
1153.246
1151.186
1148.964
1146.557
1143.947
1141.196
1164.325
1163.024
1161.642
1160.174
1158.615
1156.97
1155.19
1153.279
1151.22
1148.995
1146.573
1143.923
1141.013
1165.55
1164.327
1163.028
1161.649
1160.18
1166.703
1165.552
1164.33
1163.033
1161.651
1167.789
1166.704
1165.554
1164.333
1163.032
1123.272
1168.811
1167.79
1166.707
1165.556
1164.332
1143.047
1124.659
1169.774
1168.812
1167.792
1166.709
1165.556
1150.521
1144.229
1128.087
1170.681
1169.776
1168.815
1167.795
1166.71
1154.522
1151.442
1146.033
1132.84
1171.535
1170.683
1169.778
1168.818
1167.797
1156.857
1154.992
1152.417
1148.115
1138.255
1172.337
1171.537
1170.686
1169.783
1168.823
1158.337
1156.929
1155.336
1153.305
1150.163
1141.893
1173.091
1172.339
1171.541
1170.692
1169.79
1159.3
1158.067
1156.833
1155.545
1154.061
1151.343
1144.004
1173.797
1173.093
1172.344
1171.548
1170.702
1159.806
1158.69
1157.657
1156.686
1155.756
1154.33
1151.719
1146.222
1174.457
1173.799
1173.098
1172.353
1171.563
1170.732
1169.842
1168.898
1167.897
1166.836
1165.713
1164.524
1163.264
1161.929
1160.514
1159.541
1158.895
1158.187
1157.48
1156.825
1155.77
1154.098
1151.935
1148.094
1175.074
1174.46
1173.805
1173.108
1172.368
1171.585
1170.747
1169.857
1168.914
1167.915
1166.857
1165.736
1164.548
1163.29
1161.955
1160.862
1160.085
1159.328
1158.616
1157.982
1157.003
1155.545
1153.968
1152.096
1149.328
1175.647
1175.077
1174.466
1173.815
1173.123
1172.386
1171.598
1170.761
1169.873
1168.931
1167.933
1166.876
1165.757
1164.57
1163.311
1162.242
1161.432
1160.648
1159.908
1159.243
1158.271
1156.883
1155.443
1153.924
1152.226
1150.07
1176.178
1175.65
1175.082
1174.475
1173.829
1173.139
1172.398
1171.611
1170.775
1169.888
1168.948
1167.951
1166.896
1165.776
1164.589
1163.565
1162.764
1161.98
1161.231
1160.54
1159.57
1158.228
1156.845
1155.419
1153.934
1152.329
1150.484
1176.668
1176.181
1175.655
1175.091
1174.489
1173.843
1173.149
1172.41
1171.624
1170.79
1169.904
1168.965
1167.969
1166.914
1165.795
1164.822
1164.046
1163.278
1162.534
1161.834
1160.875
1159.576
1158.237
1156.86
1155.444
1153.976
1152.401
1150.687
1160.149
1158.57
1156.886
1155.092
1153.179
1151.126
1148.908
1146.533
1144.016
1141.558
1161.632
1160.155
1158.582
1156.909
1155.128
1153.22
1151.157
1148.939
1146.553
1144.005
1141.467
1163.022
1161.637
1160.165
1158.601
1156.94
1155.166
1153.25
1151.19
1148.971
1146.574
1143.991
1141.35
1164.326
1163.025
1161.645
1160.179
1158.625
1156.974
1155.193
1153.282
1151.226
1149.005
1146.597
1143.979
1141.213
1165.551
1164.328
1163.031
1161.655
1160.196
1158.659
1157.001
1155.224
1153.317
1151.263
1149.042
1146.625
1143.982
1141.072
1166.704
1165.553
1164.333
1163.038
1161.661
1167.79
1166.705
1165.556
1164.337
1163.039
1128.691
1168.812
1167.791
1166.708
1165.559
1164.336
1144.247
1127.758
1169.775
1168.813
1167.793
1166.71
1165.558
1150.684
1144.775
1129.407
1170.681
1169.776
1168.815
1167.795
1166.71
1154.522
1151.442
1146.033
1132.84
1171.534
1170.682
1169.778
1168.817
1167.796
1156.97
1155.052
1152.352
1147.788
1137.394
1172.337
1171.536
1170.685
1169.781
1168.82
1158.646
1157.209
1155.524
1153.292
1149.747
1140.466
1173.09
1172.339
1171.539
1170.69
1169.785
1159.859
1158.618
1157.322
1155.897
1154.164
1150.952
1142.105
1173.796
1173.092
1172.342
1171.545
1170.696
1160.733
1159.574
1158.446
1157.332
1156.201
1154.537
1151.421
1144.182
1174.457
1173.799
1173.097
1172.349
1171.555
1161.234
1160.165
1159.172
1158.244
1157.382
1156.195
1154.388
1151.796
1146.363
1175.073
1174.459
1173.804
1173.105
1172.364
1171.583
1170.746
1169.856
1168.913
1167.914
1166.856
1165.736
1164.551
1163.295
1161.966
1161.039
1160.402
1159.698
1158.986
1158.317
1157.308
1155.829
1154.167
1152.017
1148.208
1175.647
1175.076
1174.465
1173.813
1173.12
1172.385
1171.597
1170.76
1169.872
1168.931
1167.933
1166.877
1165.759
1164.574
1163.318
1162.284
1161.531
1160.787
1160.072
1159.415
1158.445
1157.059
1155.609
1154.041
1152.181
1149.425
1176.178
1175.649
1175.081
1174.474
1173.827
1173.138
1172.398
1171.611
1170.775
1169.888
1168.948
1167.952
1166.897
1165.779
1164.594
1163.582
1162.803
1162.038
1161.304
1160.624
1159.66
1158.321
1156.94