/*--------------------------------*- C++ -*----------------------------------*\
| =========                 |                                                 |
| \\      /  F ield         | OpenFOAM: The Open Source CFD Toolbox           |
|  \\    /   O peration     | Version:  2306                                  |
|   \\  /    A nd           | Website:  www.openfoam.com                      |
|    \\/     M anipulation  |                                                 |
\*---------------------------------------------------------------------------*/
FoamFile
{
    version     2.0;
    format      ascii;
    arch        "LSB;label=32;scalar=64";
    class       volScalarField;
    location    "0.3";
    object      contErrCp;
}
// * * * * * * * * * * * * * * * * * * * * * * * * * * * * * * * * * * * * * //

dimensions      [1 -1 -3 -1 0 0 0];

internalField   nonuniform List<scalar> 
52000
(
0
0
0
0
0
0
0
0
0
0
0
0
0
0
0
0
0
0
0
0
0
0
0
0
0
0
0
0
0
0
0
0
0
0
0
0
0
0
0
0
0
0
0
0
0
0
0
0
0
0
0
0
0
0
0
0
0
0
0
0
0
0
0
0
0
0
0
0
0
0
0
0
0
0
0
0
0
0
0
0
0
0
0
0
0
0
0
0
0
0
0
0
0
0
0
0
0
0
0
0
0
0
0
0
0
0
0
0
0
0
0
0
0
0
0
0
0
0
0
0
0
0
0
0
0
0
0
0
0
0
0
0
0
0
0
0
0
0
0
0
0
0
0
0
0
0
0
0
0
0
0
0
0
0
0
0
0
0
0
0
0
0
0
0
0
0
0
0
0
0
0
0
0
0
0
0
0
0
0
0
0
0
0
0
0
0
0
0
0
0
0
0
0
0
0
0
0
0
0
0
0
0
0
0
0
0
0
0
0
0
0
0
0
0
0
0
0
0
0
0
0
0
0
0
0
0
0
0
0
0
0
0
0
0
0
0
0
0
0
0
-7.790367e-05
0
0
0
0
0
0
0
0
0
0
0
0
0
0
0
0
0
0
0
0
0
0
0
0
0
0
0
0
0
0
0
0
0
0
0
0
0
0
0
0
0
0
0
0
0
0
0
0
0
0
0
0
0
0
0
0
0
0
0
0
0
0
0
0
0
8.709909e-05
0
0
0
0
0
-0.0005043375
0.0008343249
0
0
0
0
0
0
0
0
0
0
0
0
0
0
0
0
0
0
0
0
0
0
0
0
0
0
0
0
0
0
0
0
0
0
0
0
0
0
0
0
0
0
0
0
0
0
0
0
0
0
0
0
0
0
0
0
0
0
0
0
0
0
0
0
0
0
0
0
0
0
-0.0007802967
0
0
0
0
0
0.0009141809
-0.001257972
0
0
0
0
0
0.0002186343
0.0009961933
-0.0003626045
0
0
0
0
0
0
0
0
0
0
0
0
0
0
0
0
0
0
0
0
0
0
0
0
0
0
0
0
0
0
0
0
0
0
0
0
0
0
0
0
0
0
0
0
0
0
0
0
0
0
0
0
0
0
0
0
0
0
0
0
0
0
0
0
0
0
0
0
0
0
0
0
0
0
0
0.001305216
0
0
0
0
0
-0.0003243078
0.001937415
0
0
0
0
0
4.281512e-05
-0.001584169
-0.0009990115
0
0
0
0
0
-5.886058e-05
-0.001111388
0.0002314187
-0.001070391
0
0
0
0
0
0
0
0
0
0
0
0
0
0
0
0
0
0
0
0
0
0
0
0
0
0
0
0
0
0
0
0
0
0
0
0
0
0
0
0
0
0
0
0
0
0
0
0
0
0
0
0
0
0
0
0
0
0
0
0
0
0
0
0
0
0
0
0
0
0
0
0
0
0
0
0
0
0
0
0
-0.001125946
0
0
0
0
0
-0.0003403313
-0.001147716
0
0
0
0
0
-0.0008588943
0.0009800742
-0.002080996
0
0
0
0
0
0.0005720634
0.001706404
-0.0007543428
0.004121907
0
0
0
0
0
0.0004479873
-0.0002555021
6.044411e-05
-0.0003237244
0.001241223
0
0
0
0
0
0
0
0
0
0
0
0
0
0
0
0
0
0
0
0
0
0
0
0
0
0
0
0
0
0
0
0
0
0
0
0
0
0
0
0
0
0
0
0
0
0
0
0
0
0
0
0
0
0
0
0
0
0
0
0
0
0
0
0
0
0
0
0
0
0
0
0
0
0
0
0
0
0
0
0
0
0
0
0
0
-0.0003672093
0
0
0
0
0
-0.0002347357
0.0004964779
0
0
0
0
0
0.0006261247
-0.000270962
7.964541e-05
0
0
0
0
0
-0.0005008218
0.0002122072
-0.001106913
-0.0003715082
0
0
0
0
0
-3.156421e-05
-0.0006605469
-0.0004846986
0.002231584
-0.00235566
0
0
0
0
0
-0.0002456954
-0.0003641425
0.001112381
0.001061158
-0.0005608249
0.0003643443
0
0
0
0
0
0
0
0
0
0
0
0
0
0
0
0
0
0
0
0
0
0
0
0
0
0
0
0
0
0
0
0
0
0
0
0
0
0
0
0
0
0
0
0
0
0
0
0
0
0
0
0
0
0
0
0
0
0
0
0
0
0
0
0
0
0
0
0
0
1.29487e-06
0
0
0
0
0
0
0
0
0
0
0
0
0
0
0
0
0
0
0
0
0.0007268223
0
0
0
0
0
0.0002344015
0.001722862
0
0
0
0
0
-0.000708498
0.001851959
-0.001619616
0
0
0
0
0
0.0008265627
0.001221361
0.001384554
0.0009418416
0
0
0
0
0
-0.0001597551
0.001101219
0.002039605
-0.0007493193
0.001704781
0
0
0
0
0
0.0001990845
-0.00115972
-0.001499477
-0.002177506
-0.001416832
-0.0009019454
0
0
0
0
0
-0.0003622687
0.0001347789
6.358946e-05
-0.001146353
0.0002574917
-0.0005973431
0.0001516838
0
0
0
0
0
0
0
0
0
0
0
0
0
0
0
0
0
0
0
0
0
0
0
0
0
0
0
0
0
0
0
0
0
0
0
0
0
0
0
0
0
0
0
0
0
0
0
0
0
0
0
0
0
0
0
0
0
-2.080245e-06
0
0
0
0
0
0
0
0
0
0
0
0
0
0
0
-9.068789e-07
9.648502e-07
0
0
0
0
0
0
0
0
0
0
0
0
0
0
0
0
0
0
0
0
-0.000810838
0
0
0
0
0
-0.0006160904
-0.0007156444
0
0
0
0
0
0.0001807907
-0.001436675
0.0004481114
0
0
0
0
0
-0.000455154
0.0002566903
-0.001951129
0.001000665
0
0
0
0
0
0.0001219611
-0.0004677952
-0.002715908
-9.119959e-05
-0.001363534
0
0
0
0
0
-0.0001636314
0.001262114
0.0001527444
0.001789468
0.002476448
-0.0004064213
0
0
0
0
0
0.0004846369
0.0007379357
0.0007395227
0.002012953
-0.001119611
0.00147129
-0.0001604517
0
0
0
0
0
-0.0002901861
0.0007353048
0.000191295
0.0004366631
0.0003804811
-1.210893e-05
0.0002485624
0.0002618024
0
0
0
0
0
0
0
0
0
0
0
0
0
0
0
0
0
0
0
0
0
0
0
0
0
0
0
0
0
0
0
0
0
0
0
0
0
0
0
0
0
0
0
0
6.1185e-07
0
0
0
0
0
0
0
0
0
0
0
0
0
0
0
3.111695e-06
4.672189e-06
0
0
0
0
0
0
0
0
0
0
0
0
0
0
0
-5.31052e-07
3.910031e-06
4.70773e-06
0
0
0
0
0
0
0
0
0
0
0
0
0
0
0
0
0
0
0
0
0.0005812563
0
0
0
0
0
-9.222779e-05
8.793188e-05
0
0
0
0
0
0.0004851615
0.0001258775
0.0003139316
0
0
0
0
0
0.0002988672
-0.0005421389
0.001064877
-0.003645165
0
0
0
0
0
7.142626e-05
0.0002462411
0.0001136277
0.0006214352
-2.192951e-06
0
0
0
0
0
-8.031392e-05
0.0006481661
-6.150242e-06
-0.0008192142
-0.0003626862
0.001447479
0
0
0
0
0
-0.001301331
-0.0008765826
-0.000153802
0.0001746307
-0.0009369081
-0.001270021
-0.0005562878
0
0
0
0
0
0.0001081625
-0.001175386
-0.001617179
-0.001227809
-0.0007471883
0.001094076
0.000550332
0.00139089
0
0
0
0
0
-0.0001247052
0.0001646589
-0.0006087422
-0.0002131435
-0.0001573953
-0.0001946053
-0.0003751665
1.880114e-05
0.0001349436
0
0
0
0
0
0
0
0
0
0
0
0
0
0
0
0
0
0
0
0
0
0
0
0
0
0
0
0
0
0
3.011899e-06
0
0
0
0
0
0
0
0
0
0
0
0
0
0
0
5.689952e-06
-3.675948e-07
0
0
0
0
0
0
0
0
0
0
0
0
0
0
0
-2.303225e-06
4.433608e-06
4.106233e-06
0
0
0
0
0
0
0
0
0
0
0
0
0
0
0
-6.372307e-07
8.177292e-06
2.285617e-06
-6.30812e-06
0
0
0
0
0
0
0
0
0
0
0
0
0
0
0
0
0
0
0
0
-0.0003723136
0
0
0
0
0
7.374988e-05
-0.0006983292
0
0
0
0
0
-0.00155603
0.00190549
0.0004653107
0
0
0
0
0
4.373188e-05
0.0004945253
-0.0005052545
0.0006333339
0
0
0
0
0
4.575191e-05
-0.0008668948
0.0003150247
-0.0003063178
-0.0001685113
0
0
0
0
0
0.0004114123
-0.0003475797
0.0001000077
3.860485e-05
0.0001352785
0.0004262728
0
0
0
0
0
0.001017717
0.0009084357
-0.001571828
0.0005242752
0.001089736
-0.002011318
0.0003305648
0
0
0
0
0
-0.0001583063
0.001448576
0.001249093
0.0004103226
-0.0006616925
0.001872307
-0.0004393772
-0.001133885
0
0
0
0
0
-5.804857e-05
0.0001062166
0.000797132
0.0007422849
0.0003150555
0.0005959797
-0.0009668935
-0.0008380884
-0.0008632367
0
0
0
0
0
0.0001013917
-0.0002544425
-0.0002152798
0.0002446782
0.0001182665
-0.0001951272
-0.0006397027
0.0003883183
-0.0001772073
-0.000635462
0
0
0
0
0
0
0
0
0
0
0
0
0
0
0
6.279878e-06
0
0
0
0
0
0
0
0
0
0
0
0
0
0
0
5.922343e-07
-3.244218e-06
0
0
0
0
0
0
0
0
0
0
0
0
0
0
0
3.793138e-06
-7.839935e-06
4.493405e-07
0
0
0
0
0
0
0
0
0
0
0
0
0
0
0
1.677161e-06
-5.094655e-06
-4.07017e-06
-5.959905e-06
0
0
0
0
0
0
0
0
0
0
0
0
0
0
0
5.600971e-07
-3.331062e-07
3.161972e-06
7.253572e-06
2.137085e-06
0
0
0
0
0
0
0
0
0
0
0
0
0
0
0
0
0
0
0
0
0
0
0
0
0
1.805896e-05
0.0004963725
0
0
0
0
0
0.0007739391
-0.0001768372
0.0002025959
0
0
0
0
0
0.0004936524
0.002850734
-0.001447152
-0.0006394219
0
0
0
0
0
-0.0001795098
0.0002424903
-0.0003356099
0.0002149462
0.001339417
0
0
0
0
0
0.0002833501
0.001227423
0.001239412
-0.0007296404
0.001236028
0.0002087871
0
0
0
0
0
0.0007725397
-0.001954893
0.0005608945
-0.002104238
-0.0005694713
0.0003983184
-0.0008024898
0
0
0
0
0
-0.0001259352
0.0001795268
-0.0009667174
0.001653763
0.0007373378
-0.001818476
0.002295918
0.0008172812
0
0
0
0
0
-0.0004059179
0.0002124598
-0.001008624
0.001165557
6.904652e-05
-0.0005386004
-0.0007345639
0.001050098
-0.0003827163
0
0
0
0
0
-0.0003223188
0.001774421
0.0007789586
-0.0002639434
0.0002955839
0.0008030232
4.40818e-05
0.0008014319
0.001159447
0.00106944
0
0
0
0
0
0.0003166979
0.0007225469
-7.978892e-05
0.0006659464
0.000181495
-0.0007625775
-1.621377e-05
0.0002388055
0.0001210161
-0.0001173725
0.0002903196
0
0
0
0
0
0
0
0
0
0
0
0
0
0
0
-3.799063e-06
-6.08656e-06
0
0
0
0
0
0
0
0
0
0
0
0
0
0
0
3.27236e-06
1.738312e-06
-2.440607e-06
0
0
0
0
0
0
0
0
0
0
0
0
0
0
0
-3.633764e-06
9.436519e-07
1.03227e-05
-3.371324e-06
0
0
0
0
0
0
0
0
0
0
0
0
0
0
0
1.057127e-06
1.848959e-06
7.225652e-07
-3.373396e-06
5.276415e-07
0
0
0
0
0
0
0
0
0
0
0
0
0
0
0
-7.593847e-07
-5.83932e-07
-4.159927e-06
5.891525e-07
-2.228699e-06
-4.130503e-05
0
0
0
0
0
0
0
0
0
0
0
0
0
0
0
0
0
0
0
0
0
0
0
0
0
0
0
0
0
0
0.0001574746
-2.779185e-05
0.0008097617
0
0
0
0
0
-0.0008167451
-0.001756155
-0.0005523326
-0.002197072
0
0
0
0
0
-0.0003178574
-0.0005341616
-0.001059147
0.001057576
-0.001657113
0
0
0
0
0
-0.0002151959
-0.001035908
-0.0006456468
-0.001564879
-0.0005584673
-2.518072e-05
0
0
0
0
0
-0.0004933757
0.00066529
-0.001653202
0.0008202724
0.0005478259
-0.0001640299
-0.001537757
0
0
0
0
0
0.00018484
-0.002948911
0.001970819
-0.001415556
0.0008772539
0.0008887555
-0.0002278812
0.0004160279
0
0
0
0
0
0.0006078876
0.0008475683
0.0007162205
-0.001284615
-0.001817774
0.0001702238
2.194457e-05
-0.003105187
-0.0003530447
0
0
0
0
0
0.0005452245
-0.001339388
-0.0005941666
-0.0004815882
0.001178895
-4.977009e-05
2.199796e-05
0.001495454
0.0001010133
0.0002681152
0
0
0
0
0
-0.0004379658
-0.0007662517
-0.0001043359
-1.921867e-05
-0.0008739658
-0.0003697137
-0.0005213128
-0.0001435455
-0.002525619
0.0001487337
-0.0004612919
0
0
0
0
0
-0.000296966
-0.0004501316
-0.0001306299
-0.0005794817
-0.0002079952
-0.0003093763
-0.0004650767
0.000637274
-4.352769e-05
0.0002917525
-7.879287e-05
-1.853934e-06
0
0
0
0
0
0
0
0
0
0
0
0
0
0
0
-3.519674e-06
-1.201212e-06
-6.138029e-07
0
0
0
0
0
0
0
0
0
0
0
0
0
0
0
9.683614e-07
-6.936587e-06
-3.105932e-06
1.407697e-05
0
0
0
0
0
0
0
0
0
0
0
0
0
0
0
2.213796e-06
7.154616e-06
-1.776908e-06
1.638456e-06
3.860527e-07
0
0
0
0
0
0
0
0
0
0
0
0
0
0
0
2.111074e-06
-4.656837e-07
1.84972e-06
-3.353972e-06
-1.689331e-06
2.999301e-05
0
0
0
0
0
0
0
0
0
0
0
0
0
0
0
-1.080056e-06
-1.509013e-06
-2.077844e-06
5.119179e-08
2.147283e-06
-7.778288e-06
3.446842e-06
0
0
0
0
0
0
0
0
0
0
0
0
0
0
0
0
0
0
0
0
0
0
0
0
0
0
0
0
0
0
0
0
0
0
0
0.0002082523
-6.100474e-06
0.0004453679
0.0004286425
0
0
0
0
0
0.0006425765
0.001732612
0.0007870612
0.000468426
0.002833735
0
0
0
0
0
0.0003630045
0.001608975
-0.001282217
0.0004439214
-0.000518553
-0.0004907957
0
0
0
0
0
0.0008849007
-0.001560926
0.0005708467
-0.0003899631
0.0008826124
-0.00151894
0.0009702589
0
0
0
0
0
0.0001143998
0.001767026
-0.0007371199
1.097069e-05
0.0006241584
0.0007504502
6.355829e-05
0.001882124
0
0
0
0
0
-0.0002791776
-0.0006264293
0.0009317981
0.001205588
0.001081116
-0.001814461
1.17105e-05
0.001560608
0.001152832
0
0
0
0
0
-7.655061e-05
-0.0006101264
-0.000541518
-0.0006299082
0.0001648516
-0.0001029018
0.0001161257
-0.001044336
0.0001809376
0.0004333594
0
0
0
0
0
0.0002197282
-3.485239e-06
-0.001298761
0.000713324
0.001808696
-0.000479673
-0.000118179
-0.001472087
0.002241287
-0.0007850109
-0.000171357
0
0
0
0
0
0.001332293
-0.0007218922
-0.0003532171
0.001959343
0.000301842
0.0009370403
0.002682464
0.0002985003
0.0006913063
-0.0004307748
0.0003336218
1.048914e-06
0
0
0
0
0
-0.0001223723
2.548604e-05
0.001012595
-0.0006417048
0.0002095258
0.0001716009
9.377016e-05
0.001260716
-0.0006984447
-0.0005536782
-5.820829e-05
-3.407879e-08
-2.03577e-06
0
0
0
0
0
0
0
0
0
0
0
0
0
0
0
2.632113e-06
-5.188419e-07
3.937683e-06
-4.07927e-07
0
0
0
0
0
0
0
0
0
0
0
0
0
0
0
-6.494275e-07
-5.055131e-06
3.211492e-06
2.728163e-06
-6.445739e-06
0
0
0
0
0
0
0
0
0
0
0
0
0
0
0
1.147119e-07
-4.352074e-06
1.313915e-06
-3.269881e-06
-2.263197e-06
1.403794e-06
0
0
0
0
0
0
0
0
0
0
0
0
0
0
0
1.056693e-06
1.8341e-06
1.266154e-06
-3.693057e-06
4.529311e-06
-7.941129e-06
-7.009683e-05
0
0
0
0
0
0
0
0
0
0
0
0
0
0
0
-1.414103e-06
-1.485995e-07
-8.628965e-10
7.284589e-07
3.499205e-06
-5.06145e-06
-1.04063e-05
-1.17442e-05
0
0
0
0
0
0
0
0
0
0
0
0
0
0
0
0
0
0
0
0
0
0
0
0
0
0
0
0
0
0
0
0
0
0
0
0
0
0
0
0
-0.0002769467
-0.0008983313
-8.857876e-05
-0.0005386075
0.0001167771
0
0
0
0
0
2.38425e-06
-0.00240117
0.0009260897
-0.0007158539
-0.0002907944
-0.001591272
0
0
0
0
0
0.0004047092
0.0009087287
0.0007071362
0.0009543867
0.0008257162
-9.481903e-05
0.0005859338
0
0
0
0
0
-0.0001964156
-0.003555602
-0.001037172
0.002376315
0.0001913602
-0.001583764
0.001281872
-0.001228263
0
0
0
0
0
0.0002022461
-0.000460794
0.0002241688
0.001394605
0.000202092
-0.0005297873
9.786118e-05
-0.001223341
-0.0003685974
0
0
0
0
0
0.0001218975
-0.001033146
0.0006089409
-0.0002805163
-0.0001505631
0.001382137
0.001540171
0.0003981132
0.001466283
-0.0001839925
0
0
0
0
0
0.0003086401
0.0006809691
0.0006168926
-0.000738025
-0.0001958106
0.0002147063
-0.0003091358
0.00173204
0.0001323138
0.001808454
-0.0003672743
0
0
0
0
0
-0.001228021
0.002848136
6.612591e-05
0.000683929
-0.001870218
-0.001263986
-0.003235917
0.0006180052
0.000530733
0.0004784512
-0.0002777509
1.822648e-06
0
0
0
0
0
-0.0007417048
-0.00156417
-0.0003526274
0.0001382043
-0.00186389
-0.0007811365
-0.001095936
-0.001570209
-0.0004295638
0.001632868
0.0001051657
3.628689e-07
1.873661e-06
0
0
0
0
0
-0.0004059924
2.136186e-05
0.0002475579
-0.0004157763
0.0003581387
-0.0004702511
-0.000300555
-8.91862e-05
-0.0004881985
0.0004450936
-1.583288e-05
-2.526546e-06
-3.762215e-06
-3.839806e-06
0
0
0
0
0
0
0
0
0
0
0
0
0
0
0
1.456042e-06
9.939286e-07
-3.274505e-06
-2.496363e-06
3.532433e-06
0
0
0
0
0
0
0
0
0
0
0
0
0
0
0
-1.02685e-06
-1.027839e-06
3.25332e-07
-3.293714e-08
-4.542701e-06
-4.25195e-05
0
0
0
0
0
0
0
0
0
0
0
0
0
0
0
1.044376e-07
-2.638272e-06
2.983526e-06
3.643454e-06
-2.281805e-06
-2.603236e-06
1.158336e-05
0
0
0
0
0
0
0
0
0
0
0
0
0
0
0
4.450054e-06
-1.36214e-06
1.600682e-06
-2.097985e-06
-2.4893e-06
-1.420875e-05
-9.941849e-06
-3.135915e-05
0
0
0
0
0
0
0
0
0
0
0
0
0
0
0
8.944173e-07
1.227823e-06
-5.781884e-07
-1.715669e-06
-8.920513e-07
1.599448e-07
1.193132e-05
6.519249e-06
3.958556e-05
0
0
0
0
0
0
0
0
0
0
0
0
0
0
0
0
0
0
0
0
0
0
0
0
0
0
0
0
0
0
0
0
0
0
0
0
0
0
0
0
0
0
0
0
0
0.0003575271
0.001132797
6.315366e-05
0.0004542939
0.0004103625
-0.000274801
0
0
0
0
0
0.0002425825
-0.001675119
-5.985084e-05
-0.0009694238
0.0002602047
0.00118559
-0.0002858788
0
0
0
0
0
-0.0001574948
-0.0009918024
-0.0008476776
-0.001840859
-0.0007064597
-0.0003637185
0.0009870094
0.0002343015
0
0
0
0
0
0.0005836846
0.0003831334
0.003191786
0.001240299
-0.002239597
0.000989965
0.001495822
0.0009561633
-0.0005268623
0
0
0
0
0
0.0004065697
0.001076442
-0.0003806487
0.0008629461
-0.0005356651
-0.000127975
-0.0002640245
-0.0009524167
-0.0008106759
-0.0004569432
0
0
0
0
0
-0.0002331268
-0.001398596
0.001366879
-8.843744e-05
-0.0004621259
-0.001169941
-0.001001465
-0.0008453201
-0.0005660048
-0.002648796
0.0003991434
0
0
0
0
0
-0.0001802347
-0.003939285
-0.0009521531
0.0006191805
0.0004143226
0.0003363592
0.001740722
0.0003275206
-0.0003178126
-0.002551183
-0.0003037355
1.80553e-06
0
0
0
0
0
0.0003278969
0.0006832155
-0.001164775
-0.0004222416
0.0003136266
0.0007342369
0.0008368561
0.0001472029
-0.000650361
-0.001458853
-0.0001924954
-3.430142e-06
-2.86048e-06
0
0
0
0
0
-0.0001038292
0.001182412
0.0009541976
0.0009263188
0.001050301
0.001586762
0.0005085517
-0.0002637405
0.0005634286
-0.0005747572
-0.0006339786
3.845306e-06
2.468459e-07
6.14792e-07
0
0
0
0
0
-0.0001929196
-6.763778e-05
0.0001635601
-0.0001744791
0.0003354337
-1.271335e-06
-7.80898e-06
0.0006088647
0.0006685123
0.0003931472
-5.510484e-05
5.850004e-06
-2.390874e-06
-9.014881e-07
-1.830699e-06
0
0
0
0
0
0
0
0
0
0
0
0
0
0
0
2.959762e-06
-1.300693e-06
1.188271e-06
9.517548e-07
5.030507e-07
-2.059184e-05
0
0
0
0
0
0
0
0
0
0
0
0
0
0
0
-1.890998e-06
-3.546589e-07
-7.532195e-07
-4.566377e-08
-7.091336e-06
5.042772e-06
2.273096e-05
0
0
0
0
0
0
0
0
0
0
0
0
0
0
0
-2.542165e-06
-8.487206e-07
5.242824e-06
-8.49946e-07
3.059007e-06
-2.692e-06
2.188114e-06
-5.09226e-06
0
0
0
0
0
0
0
0
0
0
0
0
0
0
0
1.980573e-06
-3.754129e-07
3.996855e-06
-3.393693e-06
-2.122553e-06
-1.626692e-05
-1.279544e-05
-1.018389e-06
8.865718e-06
0
0
0
0
0
0
0
0
0
0
0
0
0
0
0
-7.506466e-07
1.045127e-06
-5.192841e-06
4.493484e-07
-4.596785e-07
1.984609e-05
-1.745665e-06
-2.546142e-05
-3.286705e-06
-2.493796e-06
0
0
0
0
0
0
0
0
0
0
0
0
0
0
0
0
0
0
0
0
0
0
0
0
0
0
0
0
0
0
0
0
0
0
0
0
0
0
0
0
0
0
0
0
0
0
0
0
0
0
7.967668e-05
-0.0001298784
-0.001206598
0.0002714517
3.590583e-05
-0.0003248476
0.0004694785
0
0
0
0
0
3.800599e-05
-0.0005139134
0.0008433057
0.0009077938
-0.0009085117
0.002087645
-0.001065917
-0.0005415977
0
0
0
0
0
0.0003168397
0.001020621
-0.0008215671
0.0002345326
0.0004071213
0.0007643599
-0.001508244
0.000364623
0.001042576
0
0
0
0
0
0.0005483498
-0.001454548
0.001784617
-0.001841291
-0.001100726
0.0006028163
-0.0003716938
0.0005304728
0.000357844
0.001280176
0
0
0
0
0
1.868699e-05
-0.001927495
-0.0003910908
-0.001081034
0.0004134118
-0.0001027272
0.0006491291
0.0004736278
0.002938073
0.001231127
0.0002164407
0
0
0
0
0
-0.0002521605
8.48467e-05
0.001067316
-0.000812605
0.002568115
0.0004401083
0.0002503395
0.001776077
-0.002010054
0.0008981895
0.0007053857
-4.791278e-06
0
0
0
0
0
-0.0006169584
0.0002433524
0.002309268
0.002750172
-0.0008083127
0.001161064
-0.0001923894
-0.001775999
-0.000319211
0.0003283826
0.001087083
-5.012897e-07
4.638556e-06
0
0
0
0
0
-0.0002420701
-2.324163e-05
0.001089391
-0.001189983
0.0002741501
-0.0003836586
-0.0006517552
0.0007544933
0.001127165
0.0009870738
0.0001417375
-2.181047e-06
-4.286829e-06
8.335986e-07
0
0
0
0
0
0.001020826
0.0004728564
-0.0004249851
-0.001669894
-0.002495536
-0.000562929
-0.0003604163
-0.00037454
0.000511141
-0.001329158
0.0003001155
-8.729654e-07
3.114925e-06
4.181859e-06
1.890287e-06
0
0
0
0
0
9.969989e-05
0.000390966
-0.0001143095
-0.0005756601
0.0002003092
-0.0007922689
0.0001625803
0.0002278751
-0.0001466356
-0.0002404396
-0.0001430107
-4.33536e-07
-1.602747e-06
-2.291362e-06
-8.772878e-06
3.374392e-05
0
0
0
0
0
0
0
0
0
0
0
0
0
0
0
1.328678e-06
2.988156e-07
1.23956e-06
-1.023729e-06
7.862953e-06
-3.492237e-06
-2.83008e-05
0
0
0
0
0
0
0
0
0
0
0
0
0
0
0
-4.226645e-08
8.652493e-07
-1.332509e-06
5.543043e-07
1.607998e-06
-1.820134e-06
-2.77327e-05
-1.054952e-05
0
0
0
0
0
0
0
0
0
0
0
0
0
0
0
6.851727e-07
2.197006e-06
-1.271843e-06
4.38459e-07
3.202833e-07
-3.207413e-06
-9.677249e-06
-1.355988e-05
1.309266e-05
0
0
0
0
0
0
0
0
0
0
0
0
0
0
0
2.126131e-07
1.122902e-07
1.73457e-06
-4.996793e-06
4.073943e-07
-7.31873e-06
1.143628e-05
-1.333754e-05
1.000447e-06
-9.817427e-06
0
0
0
0
0
0
0
0
0
0
0
0
0
0
0
6.775935e-07
1.520488e-06
-3.341838e-07
3.053024e-06
-1.333379e-06
2.886446e-06
-3.009375e-05
1.178888e-05
2.229182e-05
3.826465e-06
-63979.74
0
0
0
0
0
0
0
0
0
0
0
0
0
0
0
0
0
0
0
0
0
0
0
0
0
0
0
0
0
0
0
0
0
0
0
0
0
0
0
0
0
0
0
0
0
0
0
0
0
0
0
0
0
0
0
0.0001101492
0.0006075196
2.997312e-06
0.000937721
0.0002284156
-0.001437048
0.0001694004
0.0002449601
0
0
0
0
0
-0.0008656958
-0.0003688053
0.0009563621
-0.0007563287
8.79542e-05
0.0002282383
0.001033486
0.0006106494
-0.0001858256
0
0
0
0
0
-0.0004757907
0.0008362279
-0.002398416
0.001592836
-0.0001426097
0.001371134
-0.0003859873
-0.001458827
-1.853275e-05
-0.0007180826
0
0
0
0
0
-0.000842635
0.001548939
0.0008977598
0.0003128951
-0.001310555
0.0005013107
0.0004880716
0.0008581555
-0.001671501
-0.0002897609
-0.0004058662
0
0
0
0
0
0.0004520143
0.0009472417
0.0004115194
-0.001316175
-0.00143744
-0.0002244856
0.0002801898
-0.00170965
-0.0004477902
-0.001217805
0.0003753132
-1.38941e-07
0
0
0
0
0
0.0002034863
0.000890631
0.0008483038
-0.002205555
-7.953353e-05
-0.0001215919
-2.455128e-05
0.003191625
-0.0008759743
0.001769
0.0004362499
-3.149411e-06
-2.65195e-06
0
0
0
0
0
-0.0001559366
-6.806815e-06
-0.001841216
-9.034171e-05
-0.003469227
0.0006113506
-0.001007011
-0.001402112
0.0001849814
0.0003095778
-0.0001119744
2.551072e-06
2.07718e-06
5.045618e-06
0
0
0
0
0
-0.0005298484
0.001435782
-0.00126877
0.0002992942
0.001748528
0.002113441
3.825286e-05
0.0007015167
-0.0001809011
0.0007541582
-0.0002879257
-7.63628e-07
3.033852e-06
-2.602672e-06
-8.325426e-06
0
0
0
0
0
0.0003853744
-0.002902308
0.001048641
-0.0004889044
-2.238138e-05
0.001190627
-0.0001954135
0.0001919277
2.853924e-05
-1.071031e-05
0.0004662492
-9.322102e-07
-6.991747e-07
3.084868e-06
2.624178e-06
4.8046e-05
0
0
0
0
0
-0.000155865
-0.0002503911
0.0007485056
0.0005794321
0.0003428285
0.0005176724
0.0001341164
0.0008958396
0.0001858274
-0.0001279624
-8.812826e-05
-9.515462e-07
1.296655e-06
5.640691e-06
-4.683134e-06
-4.754192e-06
-3.645437e-05
0
0
0
0
0
0
0
0
0
0
0
0
0
0
0
4.012181e-06
1.692917e-06
1.195412e-06
-9.788459e-08
-3.095363e-06
1.514649e-05
-1.00941e-05
7.60515e-08
0
0
0
0
0
0
0
0
0
0
0
0
0
0
0
2.347711e-06
-4.320495e-06
-2.382582e-06
-2.796646e-06
-6.899003e-07
1.659598e-05
-1.456657e-05
1.936069e-06
3.711428e-05
0
0
0
0
0
0
0
0
0
0
0
0
0
0
0
1.051682e-06
-8.114355e-07
5.582758e-07
4.231259e-06
8.314937e-07
-7.109057e-06
2.007568e-05
1.742563e-05
-9.660973e-07
-5.150598e-06
0
0
0
0
0
0
0
0
0
0
0
0
0
0
0
-4.051713e-07
-2.022471e-06
2.92874e-06
-2.806561e-06
2.990964e-07
-1.661266e-05
-2.677376e-06
-1.325582e-06
1.419006e-05
3.198392e-06
-64541.99
0
0
0
0
0
0
0
0
0
0
0
0
0
0
0
-9.48289e-07
-2.450759e-06
8.590956e-07
-2.767195e-07
-2.868e-06
1.017855e-05
-4.261645e-06
1.277236e-05
-2.0967e-05
-1.634438e-05
-59611.68
-64584.76
0
0
0
0
0
0
0
0
0
0
0
0
0
0
0
0
0
0
0
0
0
0
0
0
0
0
0
0
0
0
0
0
0
0
0
0
0
0
0
0
0
0
0
0
0
0
0
0
0
0
0
0
0
0
0
0
0
0
0
0
9.264586e-05
-0.0001119549
-0.0002529458
-3.390012e-05
-8.846943e-05
-0.0002633155
-0.0002120076
-0.000651937
0.0002532567
0
0
0
0
0
0.0001850932
-0.0006701651
0.001213516
-0.00123219
0.00102763
-0.001654709
-0.001721788
7.48171e-05
-2.765645e-05
-0.0001881087
0
0
0
0
0
-0.0003952357
0.001607803
-0.0003840971
0.002436209
-0.0005294285
0.000116966
-0.001255624
7.547511e-05
0.001073417
-0.001592645
-0.0004247617
0
0
0
0
0
-0.0013685
0.000358642
-0.000505429
-0.0002994344
0.001048913
0.001402381
-0.001333441
-8.4781e-05
0.001293144
0.0007817195
0.0002497241
2.401527e-06
0
0
0
0
0
0.000834115
-0.0006930718
-0.001473311
0.001696265
0.0002680687
-0.0006330954
0.0006019954
-0.0004862496
0.0007521256
-0.0001755595
0.000150431
-8.052763e-06
7.017503e-07
0
0
0
0
0
6.859621e-05
4.079365e-05
0.001622747
2.440273e-05
0.001726545
-0.0002576818
-0.001238162
-0.001041713
-0.001626114
0.0006780334
-0.0007291023
-1.209006e-06
3.74877e-06
2.604597e-06
0
0
0
0
0
0.0001768412
-0.0003498352
0.0005221602
-0.0004290085
0.0008052875
-0.001503667
-0.0004160583
0.0001651331
0.0009009498
-0.0003769502
-1.887048e-05
-2.077825e-06
-4.144357e-06
1.371378e-06
-3.662734e-06
0
0
0
0
0
-0.0008377876
0.001385992
-0.001714509
0.0006817589
-0.0001034781
0.0003701756
0.000956248
-0.0002280836
-0.001520134
-3.152372e-05
0.0003823057
1.789192e-06
1.206337e-06
7.529443e-07
-2.226356e-06
-2.069846e-05
0
0
0
0
0
-5.838453e-05
-1.197239e-05
0.0009418936
-0.001583118
0.00109576
0.001362566
0.0006326957
-0.0009238894
-0.0009056026
0.001259811
-2.558352e-05
-1.203461e-06
4.751299e-07
-2.256768e-06
3.190282e-06
-1.877285e-05
-6.073914e-05
0
0
0
0
0
6.173543e-05
0.0002375051
-0.0002593152
-0.0001857996
-0.0008133229
-4.320654e-05
-0.000275472
-0.0002187875
-0.0001761319
0.00042509
4.3274e-05
-1.676389e-06
-5.661066e-07
9.714506e-07
2.899575e-06
1.692002e-05
-1.638372e-05
-1.214174e-05
0
0
0
0
0
0
0
0
0
0
0
0
0
0
0
1.409052e-06
1.183397e-06
-1.382537e-06
2.932168e-06
-7.850032e-07
2.339855e-07
-8.538099e-07
-1.372477e-05
4.456083e-06
0
0
0
0
0
0
0
0
0
0
0
0
0
0
0
5.938343e-08
-1.084463e-06
-4.725291e-06
-7.041718e-07
1.007569e-06
6.033251e-06
-5.704793e-06
-1.538642e-05
2.190807e-05
5.028639e-06
0
0
0
0
0
0
0
0
0
0
0
0
0
0
0
-2.461766e-06
2.769729e-06
2.873609e-06
5.295725e-06
-1.402334e-06
1.817782e-05
8.021978e-06
-4.324908e-05
-1.751802e-05
-1.150223e-05
-65688.37
0
0
0
0
0
0
0
0
0
0
0
0
0
0
0
-6.643316e-07
9.225048e-07
1.03763e-07
-2.211725e-06
-1.06563e-06
-2.673669e-05
7.972098e-06
-1.000225e-05
-1.132303e-05
2.845448e-06
-59984.79
-65157.42
0
0
0
0
0
0
0
0
0
0
0
0
0
0
0
-2.115515e-06
5.792443e-07
-2.879711e-07
2.215905e-06
1.743524e-06
4.391835e-06
-4.10477e-06
1.047586e-05
-1.909946e-05
8.78415e-06
-56049.29
-60154.99
-66116.4
0
0
0
0
0
0
0
0
0
0
0
0
0
0
0
0
0
0
0
0
0
0
0
0
0
0
0
0
0
0
0
0
0
0
0
0
0
0
0
0
0
0
0
0
0
0
0
0
0
0
0
0
0
0
0
0
0
0
0
0
0
0
0
0
0
-0.0002009798
0.0003285626
-0.0001409419
0.0004742785
-0.000191174
0.0003453569
0.001513186
-7.947293e-05
0.0009876035
0.0001062042
0
0
0
0
0
0.0006099099
-0.003048511
0.0005571963
-0.001900627
4.493708e-06
0.0006510188
0.001126118
0.000475205
0.0008741038
0.0006647268
-0.0002676488
0
0
0
0
0
0.0009194695
0.0006651417
-0.0005934572
-0.0002542553
-0.001272519
9.172488e-05
0.0005368234
0.0003424032
0.0009054153
-0.0007929811
0.0005741452
-1.688342e-06
0
0
0
0
0
-0.0007743354
0.0009483151
0.0001284725
-0.0003218264
0.001398395
-0.001439896
-0.0006569288
-0.00092498
-0.0009229748
0.001063683
-0.0002503521
-1.678269e-06
-3.84587e-06
0
0
0
0
0
-0.0002645394
-4.492457e-05
-0.001649098
0.0003797754
-0.0001010999
0.0008524906
0.0008703381
-8.826935e-06
-0.0006246056
-0.001153414
-0.0004924135
-2.192567e-06
4.394081e-06
-1.408436e-06
0
0
0
0
0
-0.0003504433
0.001172448
-0.0001525963
-0.00045773
-0.0005537244
-0.0002954965
0.0006952627
0.001171861
-0.0005354157
-0.0005366824
-0.0003795841
-1.771153e-06
3.172251e-06
1.967167e-06
2.193495e-06
0
0
0
0
0
0.0002719052
-0.001191743
-0.0001835054
0.0001786958
-0.001718186
-0.001895295
-0.0005098906
0.0002482218
-0.0007334667
-0.0005458239
0.0006202171
2.31273e-07
2.889133e-06
-2.555007e-06
-2.923839e-06
2.468761e-06
0
0
0
0
0
0.001552134
0.0004759969
0.0001013326
8.689077e-05
0.00175843
-9.719694e-06
-0.001193789
-0.002784499
0.001715655
0.0005365
0.0002858772
1.938284e-07
-1.51848e-06
-1.328735e-06
4.234867e-07
-2.733081e-05
-1.030903e-06
0
0
0
0
0
0.0001322138
0.0007663659
-0.0009796026
-0.001209187
0.00145046
-0.00049764
-0.001075315
-0.0008167031
0.0002488605
0.0005742104
-0.0001912198
-2.635862e-06
-2.444996e-06
-2.324093e-06
7.285899e-07
1.642868e-06
3.480388e-05
3.22598e-05
0
0
0
0
0
2.671409e-05
-0.000701559
-0.0002363687
0.0008578405
-0.0001793636
-8.095763e-05
-0.000307898
-0.0002677431
0.001055035
-0.0003549714
-0.0004279951
1.366848e-06
1.221856e-06
2.254244e-06
3.670088e-06
2.82618e-05
-8.87621e-06
-3.252643e-06
-2.733373e-05
0
0
0
0
0
0
0
0
0
0
0
0
0
0
0
-5.483367e-07
2.220777e-07
3.318361e-06
5.876075e-07
-1.290365e-06
-1.432177e-05
-2.320466e-05
-7.50108e-06
-1.394271e-05
-1.216322e-05
0
0
0
0
0
0
0
0
0
0
0
0
0
0
0
-1.039695e-06
1.944737e-07
2.723863e-06
-2.775038e-06
-6.248543e-07
-1.610664e-06
-4.391511e-06
8.073534e-06
1.538299e-05
-2.205203e-05
-67399.67
0
0
0
0
0
0
0
0
0
0
0
0
0
0
0
3.02287e-07
-6.736292e-07
-1.424983e-06
-1.966027e-06
1.049437e-06
2.044409e-05
-8.251375e-06
1.411678e-05
2.018778e-05
8.10138e-06
-60725.57
-66324.78
0
0
0
0
0
0
0
0
0
0
0
0
0
0
0
-1.095843e-06
-1.403217e-06
-1.659637e-06
-2.734207e-06
7.31118e-07
-7.831738e-06
1.247096e-05
-8.572128e-06
-3.026974e-06
4.872101e-06
-56341.83
-60535.37
-66713.87
0
0
0
0
0
0
0
0
0
0
0
0
0
0
0
2.711794e-08
3.90554e-06
2.573872e-06
-1.739369e-06
4.000634e-09
1.053228e-05
-1.193827e-06
-1.085517e-05
-8.171554e-06
1.851737e-05
-53213.81
-56545.75
-61519.45
-68621.92
0
0
0
0
0
0
0
0
0
0
0
0
0
0
0
0
0
0
0
0
0
0
0
0
0
0
0
0
0
0
0
0
0
0
0
0
0
0
0
0
0
0
0
0
0
0
0
0
0
0
0
0
0
0
0
0
0
0
0
0
0
0
0
0
0
0
0
0
0
0
-0.000254067
0.001457527
-0.0003110265
-0.0002158889
-0.0005539802
-0.0007370855
-0.0005909827
-0.0004987914
-0.0001317579
-0.0005908437
-0.0002846361
0
0
0
0
0
0.0002755839
-7.505241e-05
0.001639778
0.0002559045
0.001138601
0.0005914941
-0.001556829
0.0008073587
0.0002368425
-0.001164275
0.0004221069
-5.042984e-06
0
0
0
0
0
0.0002762136
-0.0004533955
-6.913208e-05
-8.882815e-05
-8.241242e-05
0.001757616
-0.0005711634
0.0005375284
0.001410179
-0.001750822
0.0002029254
1.755226e-06
4.353106e-06
0
0
0
0
0
0.0002486202
4.100708e-05
0.001277043
-0.001595835
0.0003388485
-0.002553546
0.0006793708
0.0005801118
-0.001292125
0.0008578064
-0.0004771953
2.286027e-06
4.549482e-06
5.31016e-06
0
0
0
0
0
0.0002295495
-0.001213238
0.001121943
6.825166e-05
-0.0006797676
-0.001054896
-0.0004115396
0.001038596
0.0001315992
0.0002423795
0.0005391911
-4.231706e-08
-1.57014e-06
-7.489194e-06
5.797011e-06
0
0
0
0
0
0.0005369106
0.0008623019
-0.0009743297
0.0006035415
0.002256824
-0.0002533333
-1.041704e-05
-6.706404e-05
0.0001664872
0.001799377
0.000656649
-2.347041e-07
-3.060733e-06
4.500579e-06
3.729423e-06
1.122267e-06
0
0
0
0
0
-0.001478098
-0.0005381184
-5.824357e-05
0.0007217702
-0.0002973345
0.0007995833
0.001595719
0.0005308501
-0.0009537838
0.0007208005
-0.0001107306
-4.689691e-06
-2.049348e-06
-1.886398e-06
-1.476034e-06
-1.76164e-05
-2.279406e-05
0
0
0
0
0
-5.399798e-05
-0.002023335
0.001542787
0.001227389
-0.001073603
-0.002017635
0.000343664
-2.166724e-05
0.0009646824
-0.003259056
-0.0006396606
2.836627e-06
3.009931e-06
3.705352e-06
-2.843268e-06
-4.941424e-06
1.381264e-05
-3.154158e-05
0
0
0
0
0
8.491877e-06
0.001001457
-0.001300045
-0.001007257
-2.723862e-05
-0.000311703
0.001190187
0.001115949
0.0002404552
0.0002872835
-0.0001519319
2.815835e-06
2.221323e-06
1.054325e-06
-1.676969e-06
-1.99723e-05
-2.074685e-05
-3.581501e-05
-1.106047e-05
0
0
0
0
0
-8.933292e-05
-1.184719e-05
0.0005861045
0.0005151274
-0.00017327
-0.0001683852
0.000293916
0.0003049119
0.0004301098
-0.000677853
0.0001399169
3.22376e-06
-5.563713e-06
1.653666e-06
5.88593e-06
4.750739e-06
-2.371567e-05
-4.382537e-05
-1.47737e-05
8.628575e-07
0
0
0
0
0
0
0
0
0
0
0
0
0
0
0
1.784159e-07
1.239155e-06
-4.900853e-06
6.176589e-06
-1.691282e-06
-3.714703e-05
7.078465e-06
-4.610188e-06
-2.985514e-06
1.278902e-05
-69587.96
0
0
0
0
0
0
0
0
0
0
0
0
0
0
0
7.415503e-07
-3.827369e-07
-2.195719e-06
1.239018e-06
-4.592004e-06
9.747124e-07
2.287338e-05
-2.171703e-05
-3.656086e-05
-1.483646e-05
-61769.99
-68066.78
0
0
0
0
0
0
0
0
0
0
0
0
0
0
0
1.127132e-06
1.042975e-06
2.282555e-06
2.271637e-06
1.589567e-06
2.250059e-05
-1.333854e-05
1.42809e-05
-2.708684e-05
-3.87474e-06
-56915.25
-61290.67
-67931.61
0
0
0
0
0
0
0
0
0
0
0
0
0
0
0
3.623144e-07
1.070303e-06
-2.423252e-06
6.891776e-07
-1.40027e-06
6.414904e-06
-3.435418e-07
-1.702613e-05
2.966627e-05
1.040233e-05
-53459.53
-56844.1