/*--------------------------------*- C++ -*----------------------------------*\
| =========                 |                                                 |
| \\      /  F ield         | OpenFOAM: The Open Source CFD Toolbox           |
|  \\    /   O peration     | Version:  2306                                  |
|   \\  /    A nd           | Website:  www.openfoam.com                      |
|    \\/     M anipulation  |                                                 |
\*---------------------------------------------------------------------------*/
FoamFile
{
    version     2.0;
    format      ascii;
    arch        "LSB;label=32;scalar=64";
    class       volScalarField;
    location    "0.3";
    object      k;
}
// * * * * * * * * * * * * * * * * * * * * * * * * * * * * * * * * * * * * * //

dimensions      [1 1 -3 -1 0 0 0];

internalField   nonuniform List<scalar> 
52000
(
20
20
20
20
20
20
20
20
20
20
20
20
20
20
20
20
20
20
20
20
20
20
20
20
20
20
20
20
20
20
20
20
20
20
20
20
20
20
20
20
20
20
20
20
20
20
20
20
20
20
20
20
20
20
20
20
20
20
20
20
20
20
20
20
20
20
20
20
20
20
20
20
20
20
20
20
20
20
20
20
20
20
20
20
20
20
20
20
20
20
20
20
20
20
20
20
20
20
20
20
20
20
20
20
20
20
20
20
20
20
20
20
20
20
20
20
20
20
20
20
20
20
20
20
20
20
20
20
20
20
20
20
20
20
20
20
20
20
20
20
20
20
20
20
20
20
20
20
20
20
20
20
20
20
20
20
20
20
20
20
20
20
20
20
20
20
20
20
20
20
20
20
20
20
20
20
20
20
20
20
20
20
20
20
20
20
20
20
20
20
20
20
20
20
20
20
20
20
20
20
20
20
20
20
20
20
20
20
20
20
20
20
20
20
20
20
20
20
20
20
20
20
20
20
20
20
20
20
20
20
20
20
20
20
20
20
20
20
20
20
0.07656977
20
20
20
20
20
20
20
20
20
20
20
20
20
20
20
20
20
20
20
20
20
20
20
20
20
20
20
20
20
20
20
20
20
20
20
20
20
20
20
20
20
20
20
20
20
20
20
20
20
20
20
20
20
20
20
20
20
20
20
20
20
20
20
20
20
0.0761281
20
20
20
20
20
0.07708571
0.07612116
20
20
20
20
20
20
20
20
20
20
20
20
20
20
20
20
20
20
20
20
20
20
20
20
20
20
20
20
20
20
20
20
20
20
20
20
20
20
20
20
20
20
20
20
20
20
20
20
20
20
20
20
20
20
20
20
20
20
20
20
20
20
20
20
20
20
20
20
20
20
0.07588728
20
20
20
20
20
0.07696924
0.0750505
20
20
20
20
20
0.07721892
0.07696844
0.07587451
20
20
20
20
20
20
20
20
20
20
20
20
20
20
20
20
20
20
20
20
20
20
20
20
20
20
20
20
20
20
20
20
20
20
20
20
20
20
20
20
20
20
20
20
20
20
20
20
20
20
20
20
20
20
20
20
20
20
20
20
20
20
20
20
20
20
20
20
20
20
20
20
20
20
20
0.07575199
20
20
20
20
20
0.07686887
0.0743902
20
20
20
20
20
0.07716828
0.07662514
0.07438047
20
20
20
20
20
0.07733034
0.07717114
0.07686791
0.0757324
20
20
20
20
20
20
20
20
20
20
20
20
20
20
20
20
20
20
20
20
20
20
20
20
20
20
20
20
20
20
20
20
20
20
20
20
20
20
20
20
20
20
20
20
20
20
20
20
20
20
20
20
20
20
20
20
20
20
20
20
20
20
20
20
20
20
20
20
20
20
20
20
20
20
20
20
20
20
20
20
0.07568946
20
20
20
20
20
0.07679542
0.07399549
20
20
20
20
20
0.0771227
0.07632543
0.07338063
20
20
20
20
20
0.0773046
0.07702292
0.07632254
0.07396935
20
20
20
20
20
0.0774307
0.07730883
0.0771292
0.07679442
0.07566123
20
20
20
20
20
20
20
20
20
20
20
20
20
20
20
20
20
20
20
20
20
20
20
20
20
20
20
20
20
20
20
20
20
20
20
20
20
20
20
20
20
20
20
20
20
20
20
20
20
20
20
20
20
20
20
20
20
20
20
20
20
20
20
20
20
20
20
20
20
20
20
20
20
20
20
20
20
20
20
20
20
20
20
20
20
0.07568946
20
20
20
20
20
0.07675666
0.07380868
20
20
20
20
20
0.07708787
0.0761044
0.07275207
20
20
20
20
20
0.07728175
0.07688776
0.07583809
0.07272897
20
20
20
20
20
0.07741546
0.07723602
0.07689085
0.07609555
0.07375624
20
20
20
20
20
0.07752314
0.07742003
0.07729102
0.07709903
0.07675589
0.07564988
20
20
20
20
20
20
20
20
20
20
20
20
20
20
20
20
20
20
20
20
20
20
20
20
20
20
20
20
20
20
20
20
20
20
20
20
20
20
20
20
20
20
20
20
20
20
20
20
20
20
20
20
20
20
20
20
20
20
20
20
20
20
20
20
20
20
20
20
20
0.3541007
20
20
20
20
20
20
20
20
20
20
20
20
20
20
20
20
20
20
20
20
0.07575199
20
20
20
20
20
0.07675666
0.07380868
20
20
20
20
20
0.07706895
0.07598733
0.07244674
20
20
20
20
20
0.07726437
0.0767836
0.07547648
0.0719248
20
20
20
20
20
0.0774023
0.07717027
0.07667013
0.07546664
0.07238168
20
20
20
20
20
0.07751269
0.07737888
0.07717565
0.07678991
0.07596937
0.07371886
20
20
20
20
20
0.07760914
0.07751717
0.07741226
0.07728011
0.07708621
0.07675732
0.07569814
20
20
20
20
20
20
20
20
20
20
20
20
20
20
20
20
20
20
20
20
20
20
20
20
20
20
20
20
20
20
20
20
20
20
20
20
20
20
20
20
20
20
20
20
20
20
20
20
20
20
20
20
20
20
20
20
20
0.3540941
20
20
20
20
20
20
20
20
20
20
20
20
20
20
20
0.3541727
0.3541432
20
20
20
20
20
20
20
20
20
20
20
20
20
20
20
20
20
20
20
20
0.07588728
20
20
20
20
20
0.07679542
0.07399549
20
20
20
20
20
0.07706895
0.07598733
0.07244674
20
20
20
20
20
0.07725493
0.07672678
0.07528362
0.07152734
20
20
20
20
20
0.07739248
0.07711975
0.0764981
0.07499217
0.07147565
20
20
20
20
20
0.07750388
0.07734262
0.07706968
0.07650019
0.07525625
0.07231831
20
20
20
20
20
0.07760092
0.0774902
0.07734869
0.07713221
0.07673713
0.07595912
0.07385663
20
20
20
20
20
0.07768971
0.07760517
0.07751368
0.07740937
0.07727903
0.07709458
0.07680058
0.07581585
20
20
20
20
20
20
20
20
20
20
20
20
20
20
20
20
20
20
20
20
20
20
20
20
20
20
20
20
20
20
20
20
20
20
20
20
20
20
20
20
20
20
20
20
0.3540803
20
20
20
20
20
20
20
20
20
20
20
20
20
20
20
0.354168
0.3541358
20
20
20
20
20
20
20
20
20
20
20
20
20
20
20
0.3542413
0.3542122
0.3541868
20
20
20
20
20
20
20
20
20
20
20
20
20
20
20
20
20
20
20
20
0.0761281
20
20
20
20
20
0.07686887
0.0743902
20
20
20
20
20
0.07708787
0.0761044
0.07275207
20
20
20
20
20
0.07725493
0.07672678
0.07528362
0.07152734
20
20
20
20
20
0.07738721
0.07709216
0.07640366
0.0747375
0.07102363
20
20
20
20
20
0.07749745
0.07731532
0.07698721
0.07627228
0.07471468
0.07139178
20
20
20
20
20
0.07759412
0.07746704
0.07729169
0.07699451
0.07640745
0.07523378
0.07253961
20
20
20
20
20
0.07768263
0.07758466
0.07747313
0.07732973
0.07711428
0.07674405
0.07606943
0.07418941
20
20
20
20
20
0.07776552
0.07768662
0.07760345
0.0775141
0.077413
0.0772899
0.07712562
0.07688486
0.07603193
20
20
20
20
20
20
20
20
20
20
20
20
20
20
20
20
20
20
20
20
20
20
20
20
20
20
20
20
20
20
0.3540576
20
20
20
20
20
20
20
20
20
20
20
20
20
20
20
0.3541585
0.3541198
20
20
20
20
20
20
20
20
20
20
20
20
20
20
20
0.3542371
0.3542075
0.3541787
20
20
20
20
20
20
20
20
20
20
20
20
20
20
20
0.3543047
0.3542765
0.3542524
0.3542316
20
20
20
20
20
20
20
20
20
20
20
20
20
20
20
20
20
20
20
20
0.07656977
20
20
20
20
20
0.07696924
0.0750505
20
20
20
20
20
0.0771227
0.07632543
0.07338063
20
20
20
20
20
0.07726437
0.0767836
0.07547648
0.0719248
20
20
20
20
20
0.07738721
0.07709216
0.07640366
0.0747375
0.07102363
20
20
20
20
20
0.07749404
0.0773006
0.07694185
0.07614645
0.0744227
0.07092855
20
20
20
20
20
0.07758923
0.07745001
0.07724821
0.07688617
0.07614649
0.07468186
0.07167589
20
20
20
20
20
0.07767683
0.07756741
0.07743773
0.07725729
0.07695939
0.07641164
0.0754064
0.0730659
20
20
20
20
20
0.07775909
0.07766928
0.07757326
0.07746459
0.07732644
0.07712798
0.07681413
0.07629456
0.07476957
20
20
20
20
20
0.07783711
0.07776283
0.07768563
0.07760514
0.07751949
0.07742436
0.07731375
0.07717885
0.07700832
0.07642779
20
20
20
20
20
20
20
20
20
20
20
20
20
20
20
0.3540146
20
20
20
20
20
20
20
20
20
20
20
20
20
20
20
0.3541444
0.3540916
20
20
20
20
20
20
20
20
20
20
20
20
20
20
20
0.3542289
0.3541981
0.3541611
20
20
20
20
20
20
20
20
20
20
20
20
20
20
20
0.3543009
0.3542726
0.3542477
0.354223
20
20
20
20
20
20
20
20
20
20
20
20
20
20
20
0.3543639
0.354336
0.3543124
0.3542934
0.3542776
20
20
20
20
20
20
20
20
20
20
20
20
20
20
20
20
20
20
20
20
20
20
20
20
20
0.07708571
0.07612116
20
20
20
20
20
0.07716828
0.07662514
0.07438047
20
20
20
20
20
0.07728175
0.07688776
0.07583809
0.07272897
20
20
20
20
20
0.07739248
0.07711975
0.0764981
0.07499217
0.07147565
20
20
20
20
20
0.07749404
0.0773006
0.07694185
0.07614645
0.0744227
0.07092855
20
20
20
20
20
0.07758667
0.07744097
0.07722459
0.07682617
0.07600192
0.07438382
0.07124615
20
20
20
20
20
0.0776727
0.077555
0.07741139
0.07720139
0.07683653
0.07614771
0.07490295
0.07234414
20
20
20
20
20
0.07775385
0.0776549
0.07754753
0.07742078
0.07724679
0.07697456
0.07651778
0.075761
0.07394589
20
20
20
20
20
0.07783111
0.07774721
0.07766044
0.07756907
0.07746721
0.07734207
0.07717557
0.07694299
0.07661934
0.07572537
20
20
20
20
20
0.07790489
0.07783463
0.07776214
0.07768777
0.07761104
0.07753065
0.07744426
0.07735101
0.07725432
0.0771752
0.3538299
20
20
20
20
20
20
20
20
20
20
20
20
20
20
20
0.3541265
0.3540365
20
20
20
20
20
20
20
20
20
20
20
20
20
20
20
0.354217
0.3541843
0.3541297
20
20
20
20
20
20
20
20
20
20
20
20
20
20
20
0.3542933
0.3542651
0.3542383
0.3542044
20
20
20
20
20
20
20
20
20
20
20
20
20
20
20
0.3543602
0.3543324
0.3543087
0.3542886
0.3542688
20
20
20
20
20
20
20
20
20
20
20
20
20
20
20
0.3544196
0.3543917
0.3543678
0.3543488
0.354335
0.6310314
20
20
20
20
20
20
20
20
20
20
20
20
20
20
20
20
20
20
20
20
20
20
20
20
20
20
20
20
20
20
0.07721892
0.07696844
0.07587451
20
20
20
20
20
0.0773046
0.07702292
0.07632254
0.07396935
20
20
20
20
20
0.0774023
0.07717027
0.07667013
0.07546664
0.07238168
20
20
20
20
20
0.07749745
0.07731532
0.07698721
0.07627228
0.07471468
0.07139178
20
20
20
20
20
0.07758667
0.07744097
0.07722459
0.07682617
0.07600192
0.07438382
0.07124615
20
20
20
20
20
0.07767055
0.07754851
0.07739731
0.07717079
0.07676817
0.07600125
0.07463157
0.07198909
20
20
20
20
20
0.07775012
0.07764469
0.07752883
0.07738782
0.07718471
0.07685216
0.07628211
0.07535739
0.07343212
20
20
20
20
20
0.07782622
0.07773434
0.0776393
0.07753796
0.07742037
0.07726539
0.07704304
0.07671572
0.07626426
0.07528462
20
20
20
20
20
0.07789921
0.07782009
0.07773958
0.07765805
0.07757386
0.07748294
0.07737827
0.07725581
0.07712099
0.07702144
0.3536415
20
20
20
20
20
0.0779692
0.07790253
0.07783406
0.07776437
0.07769368
0.07762173
0.07754825
0.07747357
0.07740383
0.07736195
0.3541266
0.3538936
20
20
20
20
20
20
20
20
20
20
20
20
20
20
20
0.3542045
0.354168
0.3540721
20
20
20
20
20
20
20
20
20
20
20
20
20
20
20
0.3542825
0.354255
0.3542247
0.3541719
20
20
20
20
20
20
20
20
20
20
20
20
20
20
20
0.3543531
0.3543257
0.3543016
0.3542793
0.3542499
20
20
20
20
20
20
20
20
20
20
20
20
20
20
20
0.3544162
0.3543884
0.3543645
0.3543453
0.3543303
0.6310264
20
20
20
20
20
20
20
20
20
20
20
20
20
20
20
0.3544724
0.3544446
0.35442
0.3544001
0.3543858
0.6310627
0.6310333
20
20
20
20
20
20
20
20
20
20
20
20
20
20
20
20
20
20
20
20
20
20
20
20
20
20
20
20
20
20
20
20
20
20
20
0.07733034
0.07717114
0.07686791
0.0757324
20
20
20
20
20
0.07741546
0.07723602
0.07689085
0.07609555
0.07375624
20
20
20
20
20
0.07750388
0.07734262
0.07706968
0.07650019
0.07525625
0.07231831
20
20
20
20
20
0.07758923
0.07745001
0.07724821
0.07688617
0.07614649
0.07468186
0.07167589
20
20
20
20
20
0.07767055
0.07754851
0.07739731
0.07717079
0.07676817
0.07600125
0.07463157
0.07198909
20
20
20
20
20
0.07774819
0.0776394
0.077519
0.07737007
0.07715053
0.07678382
0.07615125
0.07514035
0.07318304
20
20
20
20
20
0.07782275
0.07772526
0.07762417
0.07751514
0.07738475
0.07720504
0.07693649
0.07653396
0.07599502
0.07501399
20
20
20
20
20
0.07789458
0.07780813
0.07772079
0.07763286
0.07754144
0.07743948
0.07731509
0.07716037
0.07698287
0.07686398
0.3534955
20
20
20
20
20
0.07796379
0.07788877
0.07781309
0.07773791
0.0776635
0.07758901
0.07751313
0.07743548
0.07736615
0.07733959
0.3540934
0.3537409
20
20
20
20
20
0.07803031
0.07796694
0.07790201
0.07783626
0.07777012
0.07770387
0.07763783
0.07757333
0.07751531
0.07748465
0.354236
0.3541584
0.3539585
20
20
20
20
20
20
20
20
20
20
20
20
20
20
20
0.3542718
0.3542469
0.3542083
0.3541164
20
20
20
20
20
20
20
20
20
20
20
20
20
20
20
0.3543429
0.354317
0.3542925
0.3542655
0.3542175
20
20
20
20
20
20
20
20
20
20
20
20
20
20
20
0.3544094
0.3543821
0.3543584
0.3543385
0.3543209
0.6310157
20
20
20
20
20
20
20
20
20
20
20
20
20
20
20
0.354469
0.3544414
0.354417
0.354397
0.3543824
0.63106
0.6310284
20
20
20
20
20
20
20
20
20
20
20
20
20
20
20
0.3545224
0.3544949
0.35447
0.3544489
0.3544329
0.6310902
0.6310645
0.6310353
20
20
20
20
20
20
20
20
20
20
20
20
20
20
20
20
20
20
20
20
20
20
20
20
20
20
20
20
20
20
20
20
20
20
20
20
20
20
20
20
0.0774307
0.07730883
0.0771292
0.07679442
0.07566123
20
20
20
20
20
0.07751269
0.07737888
0.07717565
0.07678991
0.07596937
0.07371886
20
20
20
20
20
0.07759412
0.07746704
0.07729169
0.07699451
0.07640745
0.07523378
0.07253961
20
20
20
20
20
0.0776727
0.077555
0.07741139
0.07720139
0.07683653
0.07614771
0.07490295
0.07234414
20
20
20
20
20
0.07774819
0.0776394
0.077519
0.07737007
0.07715053
0.07678382
0.07615125
0.07514035
0.07318304
20
20
20
20
20
0.07782095
0.07772058
0.0776163
0.07750306
0.07736544
0.07717162
0.07687676
0.07643284
0.07585018
0.07488352
20
20
20
20
20
0.07789129
0.07779973
0.07770747
0.07761471
0.07751741
0.07740597
0.07726445
0.07708186
0.07686924
0.07674001
0.353398
20
20
20
20
20
0.07795936
0.07787746
0.0777957
0.07771569
0.07763767
0.07755994
0.07747962
0.07739465
0.07731676
0.07729169
0.3540513
0.3536172
20
20
20
20
20
0.07802514
0.0779538
0.07788218
0.07781172
0.07774342
0.0776779
0.07761568
0.07755888
0.07751455
0.07750702
0.3542407
0.35413
0.353835
20
20
20
20
20
0.07808847
0.07802814
0.07796645
0.07790415
0.07784179
0.07777983
0.0777189
0.07766039
0.07760906
0.0775822
0.3543102
0.3542625
0.3541935
0.3540246
20
20
20
20
20
20
20
20
20
20
20
20
20
20
20
0.3543329
0.3543116
0.3542855
0.3542485
0.3541662
20
20
20
20
20
20
20
20
20
20
20
20
20
20
20
0.3543995
0.354374
0.354351
0.3543297
0.3543068
0.6309976
20
20
20
20
20
20
20
20
20
20
20
20
20
20
20
0.3544624
0.3544354
0.3544114
0.3543913
0.3543757
0.6310546
0.6310176
20
20
20
20
20
20
20
20
20
20
20
20
20
20
20
0.3545191
0.3544918
0.3544671
0.354446
0.35443
0.6310882
0.6310618
0.6310303
20
20
20
20
20
20
20
20
20
20
20
20
20
20
20
0.3545699
0.3545428
0.3545178
0.3544959
0.3544781
0.6311158
0.6310917
0.6310662
0.6310372
20
20
20
20
20
20
20
20
20
20
20
20
20
20
20
20
20
20
20
20
20
20
20
20
20
20
20
20
20
20
20
20
20
20
20
20
20
20
20
20
20
20
20
20
20
0.07752314
0.07742003
0.07729102
0.07709903
0.07675589
0.07564988
20
20
20
20
20
0.07760092
0.0774902
0.07734869
0.07713221
0.07673713
0.07595912
0.07385663
20
20
20
20
20
0.07767683
0.07756741
0.07743773
0.07725729
0.07695939
0.07641164
0.0754064
0.0730659
20
20
20
20
20
0.07775012
0.07764469
0.07752883
0.07738782
0.07718471
0.07685216
0.07628211
0.07535739
0.07343212
20
20
20
20
20
0.07782095
0.07772058
0.0776163
0.07750306
0.07736544
0.07717162
0.07687676
0.07643284
0.07585018
0.07488352
20
20
20
20
20
0.07788959
0.07779541
0.07770058
0.07760522
0.07750462
0.07738766
0.07723615
0.07703741
0.07680534
0.07667241
0.3533495
20
20
20
20
20
0.07795622
0.07786952
0.07778341
0.07769984
0.0776189
0.07753805
0.07745295
0.07735996
0.07727213
0.07724623
0.3540157
0.353533
20
20
20
20
20
0.07802089
0.07794301
0.07786573
0.07779121
0.07772081
0.07765525
0.07759471
0.0775409
0.07750068
0.07750109
0.354233
0.3540953
0.3537318
20
20
20
20
20
0.0780835
0.07801555
0.07794751
0.07788093
0.07781707
0.07775705
0.07770228
0.0776552
0.0776223
0.07761941
0.3543269
0.3542651
0.354168
0.3539252
20
20
20
20
20
0.07814385
0.07808637
0.07802767
0.07796851
0.07790947
0.07785107
0.07779402
0.07773978
0.07769251
0.07766765
0.3543706
0.3543335
0.3542912
0.3542305
0.3540916
20
20
20
20
20
20
20
20
20
20
20
20
20
20
20
0.3543899
0.3543694
0.354347
0.354322
0.3542888
0.6309698
20
20
20
20
20
20
20
20
20
20
20
20
20
20
20
0.354453
0.3544277
0.3544047
0.3543844
0.3543667
0.6310465
0.6309996
20
20
20
20
20
20
20
20
20
20
20
20
20
20
20
0.3545128
0.354486
0.3544618
0.3544408
0.3544245
0.6310844
0.6310564
0.6310196
20
20
20
20
20
20
20
20
20
20
20
20
20
20
20
0.3545667
0.3545399
0.3545151
0.3544932
0.3544754
0.6311141
0.6310898
0.6310635
0.6310323
20
20
20
20
20
20
20
20
20
20
20
20
20
20
20
0.354615
0.3545886
0.3545637
0.3545412
0.3545222
0.6311404
0.6311172
0.6310933
0.631068
0.6310392
20
20
20
20
20
20
20
20
20
20
20
20
20
20
20
20
20
20
20
20
20
20
20
20
20
20
20
20
20
20
20
20
20
20
20
20
20
20
20
20
20
20
20
20
20
20
20
20
20
20
0.07760914
0.07751717
0.07741226
0.07728011
0.07708621
0.07675732
0.07569814
20
20
20
20
20
0.07768263
0.07758466
0.07747313
0.07732973
0.07711428
0.07674405
0.07606943
0.07418941
20
20
20
20
20
0.07775385
0.0776549
0.07754753
0.07742078
0.07724679
0.07697456
0.07651778
0.075761
0.07394589
20
20
20
20
20
0.07782275
0.07772526
0.07762417
0.07751514
0.07738475
0.07720504
0.07693649
0.07653396
0.07599502
0.07501399
20
20
20
20
20
0.07788959
0.07779541
0.07770058
0.07760522
0.07750462
0.07738766
0.07723615
0.07703741
0.07680534
0.07667241
0.3533495
20
20
20
20
20
0.07795459
0.07786544
0.07777708
0.07769162
0.07760903
0.07752628
0.07743812
0.07734006
0.07724598
0.07721948
0.3539957
0.3534906
20
20
20
20
20
0.07801787
0.07793543
0.07785414
0.07777664
0.07770456
0.07763851
0.07757823
0.07752469
0.07748456
0.07748834
0.354223
0.354066
0.3536602
20
20
20
20
20
0.07807941
0.0780052
0.07793181
0.07786155
0.07779624
0.07773741
0.07768669
0.07764644
0.07762262
0.07762918
0.3543317
0.354259
0.354139
0.3538406
20
20
20
20
20
0.07813907
0.07807428
0.07800951
0.07794633
0.07788606
0.07783001
0.07777977
0.07773801
0.0777101
0.07770846
0.3543905
0.3543459
0.3542909
0.354207
0.3540126
20
20
20
20
20
0.07819663
0.07814183
0.07808593
0.07802967
0.07797362
0.07791835
0.07786457
0.07781365
0.07776945
0.07774561
0.3544245
0.3543917
0.3543584
0.354321
0.3542685
0.6309316
20
20
20
20
20
20
20
20
20
20
20
20
20
20
20
0.3544435
0.3544232
0.3544016
0.3543799
0.3543575
0.6310359
0.630972
20
20
20
20
20
20
20
20
20
20
20
20
20
20
20
0.3545036
0.3544786
0.3544554
0.3544347
0.3544174
0.6310792
0.6310483
0.6310016
20
20
20
20
20
20
20
20
20
20
20
20
20
20
20
0.3545605
0.3545343
0.3545099
0.3544883
0.3544704
0.6311109
0.631086
0.6310581
0.6310216
20
20
20
20
20
20
20
20
20
20
20
20
20
20
20
0.354612
0.3545857
0.354561
0.3545386
0.3545196
0.6311389
0.6311155
0.6310913
0.6310653
0.6310342
20
20
20
20
20
20
20
20
20
20
20
20
20
20
20
0.3546581
0.3546323
0.3546078
0.354585
0.354565
0.6311646
0.6311417
0.6311186
0.6310949
0.6310697
0.7232809
20
20
20
20
20
20
20
20
20
20
20
20
20
20
20
20
20
20
20
20
20
20
20
20
20
20
20
20
20
20
20
20
20
20
20
20
20
20
20
20
20
20
20
20
20
20
20
20
20
20
20
20
20
20
20
0.07768971
0.07760517
0.07751368
0.07740937
0.07727903
0.07709458
0.07680058
0.07581585
20
20
20
20
20
0.07775909
0.07766928
0.07757326
0.07746459
0.07732644
0.07712798
0.07681413
0.07629456
0.07476957
20
20
20
20
20
0.07782622
0.07773434
0.0776393
0.07753796
0.07742037
0.07726539
0.07704304
0.07671572
0.07626426
0.07528462
20
20
20
20
20
0.07789129
0.07779973
0.07770747
0.07761471
0.07751741
0.07740597
0.07726445
0.07708186
0.07686924
0.07674001
0.353398
20
20
20
20
20
0.07795459
0.07786544
0.07777708
0.07769162
0.07760903
0.07752628
0.07743812
0.07734006
0.07724598
0.07721948
0.3539957
0.3534906
20
20
20
20
20
0.07801631
0.07793154
0.07784817
0.07776911
0.07769609
0.07762963
0.07756914
0.07751518
0.07747434
0.0774795
0.3542165
0.3540495
0.3536239
20
20
20
20
20
0.07807651
0.07799793
0.07792075
0.07784781
0.07778135
0.07772308
0.07767458
0.07763784
0.07761816
0.07762935
0.3543317
0.3542511
0.3541148
0.353781
20
20
20
20
20
0.07813514
0.07806433
0.07799445
0.07792782
0.07786637
0.07781195
0.07776652
0.07773287
0.07771553
0.07772365
0.3543996
0.3543501
0.3542854
0.3541823
0.3539447
20
20
20
20
20
0.07819203
0.07813021
0.07806848
0.07800838
0.07795124
0.07789838
0.07785143
0.07781291
0.07778767
0.07778561
0.3544445
0.3544067
0.3543663
0.3543177
0.3542464
0.6308918
20
20
20
20
20
0.07824694
0.0781947
0.07814142
0.07808787
0.0780346
0.07798217
0.07793127
0.07788321
0.07784149
0.07781852
0.3544745
0.3544439
0.3544139
0.3543839
0.354351
0.6310238
0.6309343
20
20
20
20
20
20
20
20
20
20
20
20
20
20
20
0.3544942
0.3544739
0.3544524
0.3544312
0.3544113
0.6310733
0.6310376
0.6309742
20
20
20
20
20
20
20
20
20
20
20
20
20
20
20
0.3545516
0.354527
0.3545037
0.3544825
0.3544643
0.6311068
0.6310807
0.63105
0.6310037
20
20
20
20
20
20
20
20
20
20
20
20
20
20
20
0.354606
0.3545803
0.3545561
0.3545339
0.3545149
0.6311361
0.6311124
0.6310876
0.6310599
0.6310236
20
20
20
20
20
20
20
20
20
20
20
20
20
20
20
0.3546551
0.3546296
0.3546052
0.3545826
0.3545626
0.6311632
0.6311402
0.6311169
0.6310929
0.6310671
0.7232772
20
20
20
20
20
20
20
20
20
20
20
20
20
20
20
0.3546992
0.3546742
0.3546501
0.3546274
0.3546068
0.6311883
0.6311658
0.631143
0.63112
0.6310965
0.7233036
0.7232821
20
20
20
20
20
20
20
20
20
20
20
20
20
20
20
20
20
20
20
20
20
20
20
20
20
20
20
20
20
20
20
20
20
20
20
20
20
20
20
20
20
20
20
20
20
20
20
20
20
20
20
20
20
20
20
20
20
20
20
20
0.07776552
0.07768662
0.07760345
0.0775141
0.077413
0.0772899
0.07712562
0.07688486
0.07603193
20
20
20
20
20
0.07783111
0.07774721
0.07766044
0.07756907
0.07746721
0.07734207
0.07717557
0.07694299
0.07661934
0.07572537
20
20
20
20
20
0.07789458
0.07780813
0.07772079
0.07763286
0.07754144
0.07743948
0.07731509
0.07716037
0.07698287
0.07686398
0.3534955
20
20
20
20
20
0.07795622
0.07786952
0.07778341
0.07769984
0.0776189
0.07753805
0.07745295
0.07735996
0.07727213
0.07724623
0.3540157
0.353533
20
20
20
20
20
0.07801631
0.07793154
0.07784817
0.07776911
0.07769609
0.07762963
0.07756914
0.07751518
0.07747434
0.0774795
0.3542165
0.3540495
0.3536239
20
20
20
20
20
0.078075
0.0779942
0.07791506
0.07784073
0.07777362
0.07771553
0.07766797
0.07763264
0.07761453
0.07762779
0.3543307
0.354246
0.3541012
0.3537505
20
20
20
20
20
0.07813234
0.07805735
0.07798384
0.07791471
0.07785234
0.07779885
0.07775633
0.07772734
0.07771555
0.07772873
0.3544033
0.3543504
0.3542789
0.3541623
0.3538964
20
20
20
20
20
0.07818824
0.07812064
0.078054
0.07799062
0.07793242
0.07788128
0.07783928
0.07780906
0.07779459
0.07780199
0.3544547
0.3544144
0.3543692
0.3543121
0.3542253
0.6308577
20
20
20
20
20
0.07824252
0.07818352
0.07812464
0.0780674
0.0780131
0.07796301
0.07791873
0.07788261
0.07785895
0.07785629
0.3544934
0.3544589
0.3544241
0.3543875
0.3543449
0.6310114
0.630895
20
20
20
20
20
0.07829491
0.0782451
0.07819432
0.07814331
0.07809264
0.07804284
0.07799457
0.07794908
0.07790959
0.07788743
0.3545218
0.3544924
0.3544641
0.3544365
0.3544095
0.6310682
0.6310254
0.6309369
20
20
20
20
20
20
20
20
20
20
20
20
20
20
20
0.3545423
0.3545222
0.3545006
0.3544793
0.3544594
0.6311027
0.6310748
0.6310394
0.6309764
20
20
20
20
20
20
20
20
20
20
20
20
20
20
20
0.3545973
0.3545732
0.35455
0.3545283
0.3545092
0.6311325
0.6311082
0.6310823
0.6310518
0.6310057
20
20
20
20
20
20
20
20
20
20
20
20
20
20
20
0.3546493
0.3546243
0.3546003
0.354578
0.3545581
0.6311606
0.6311374
0.6311138
0.6310891
0.6310617
0.7232692
20
20
20
20
20
20
20
20
20
20
20
20
20
20
20
0.3546963
0.3546715
0.3546475
0.3546249
0.3546044
0.631187
0.6311644
0.6311415
0.6311183
0.6310945
0.7233016
0.7232784
20
20
20
20
20
20
20
20
20
20
20
20
20
20
20
0.3547384
0.3547142
0.3546907
0.3546682
0.3546473
0.6312115
0.6311894
0.631167
0.6311443
0.6311214
0.7233236
0.7233048
0.7232831
20
20
20
20
20
20
20
20
20
20
20
20
20
20
20
20
20
20
20
20
20
20
20
20
20
20
20
20
20
20
20
20
20
20
20
20
20
20
20
20
20
20
20
20
20
20
20
20
20
20
20
20
20
20
20
20
20
20
20
20
20
20
20
20
20
0.07783711
0.07776283
0.07768563
0.07760514
0.07751949
0.07742436
0.07731375
0.07717885
0.07700832
0.07642779
20
20
20
20
20
0.07789921
0.07782009
0.07773958
0.07765805
0.07757386
0.07748294
0.07737827
0.07725581
0.07712099
0.07702144
0.3536415
20
20
20
20
20
0.07795936
0.07787746
0.0777957
0.07771569
0.07763767
0.07755994
0.07747962
0.07739465
0.07731676
0.07729169
0.3540513
0.3536172
20
20
20
20
20
0.07801787
0.07793543
0.07785414
0.07777664
0.07770456
0.07763851
0.07757823
0.07752469
0.07748456
0.07748834
0.354223
0.354066
0.3536602
20
20
20
20
20
0.078075
0.0779942
0.07791506
0.07784073
0.07777362
0.07771553
0.07766797
0.07763264
0.07761453
0.07762779
0.3543307
0.354246
0.3541012
0.3537505
20
20
20
20
20
0.07813089
0.07805376
0.07797839
0.07790795
0.07784506
0.07779198
0.07775081
0.07772392
0.07771453
0.07773003
0.3544044
0.3543499
0.3542748
0.3541512
0.3538715
20
20
20
20
20
0.07818554
0.07811391
0.0780438
0.07797804
0.07791901
0.07786892
0.07783001
0.07780471
0.07779618
0.07780861
0.3544596
0.3544177
0.3543694
0.3543065
0.3542088
0.6308333
20
20
20
20
20
0.07823886
0.0781743
0.07811071
0.07805032
0.07799502
0.07794664
0.07790718
0.07787916
0.07786594
0.07787229
0.3545034
0.3544675
0.3544298
0.3543887
0.3543389
0.6310003
0.6308614
20
20
20
20
20
0.07829065
0.07823433
0.07817817
0.07812362
0.07807195
0.0780244
0.07798246
0.07794833
0.07792591
0.07792265
0.3545393
0.3545066
0.3544744
0.3544422
0.354409
0.6310639
0.6310131
0.6308983
20
20
20
20
20
0.07834064
0.07829315
0.07824475
0.07819617
0.07814795
0.07810061
0.07805479
0.07801167
0.07797424
0.07795295
0.354567
0.3545386
0.354511
0.3544845
0.3544591
0.6311002
0.6310696
0.6310271
0.6309396
20
20
20
20
20
20
20
20
20
20
20
20
20
20
20
0.3545881
0.3545682
0.3545467
0.3545251
0.3545047
0.6311291
0.6311041
0.6310764
0.6310411
0.6309786
20
20
20
20
20
20
20
20
20
20
20
20
20
20
20
0.3546408
0.3546173
0.3545944
0.3545725
0.3545526
0.6311572
0.6311337
0.6311096
0.6310839
0.6310535
0.7232559
20
20
20
20
20
20
20
20
20
20
20
20
20
20
20
0.3546906
0.3546663
0.3546428
0.3546205
0.3546001
0.6311844
0.6311617
0.6311387
0.6311152
0.6310907
0.7232976
0.7232705
20
20
20
20
20
20
20
20
20
20
20
20
20
20
20
0.3547355
0.3547116
0.3546882
0.3546659
0.354645
0.6312102
0.6311881
0.6311656
0.6311428
0.6311197
0.7233221
0.7233028
0.7232794
20
20
20
20
20
20
20
20
20
20
20
20
20
20
20
0.3547758
0.3547525
0.3547297
0.3547076
0.3546867
0.6312342
0.6312125
0.6311905
0.6311682
0.6311456
0.7233422
0.7233246
0.7233056
0.7232837
20
20
20
20
20
20
20
20
20
20
20
20
20
20
20
20
20
20
20
20
20
20
20
20
20
20
20
20
20
20
20
20
20
20
20
20
20
20
20
20
20
20
20
20
20
20
20
20
20
20
20
20
20
20
20
20
20
20
20
20
20
20
20
20
20
20
20
20
20
20
0.07790489
0.07783463
0.07776214
0.07768777
0.07761104
0.07753065
0.07744426
0.07735101
0.07725432
0.0771752
0.3538299
20
20
20
20
20
0.07796379
0.07788877
0.07781309
0.07773791
0.0776635
0.07758901
0.07751313
0.07743548
0.07736615
0.07733959
0.3540934
0.3537409
20
20
20
20
20
0.07802089
0.07794301
0.07786573
0.07779121
0.07772081
0.07765525
0.07759471
0.0775409
0.07750068
0.07750109
0.354233
0.3540953
0.3537318
20
20
20
20
20
0.07807651
0.07799793
0.07792075
0.07784781
0.07778135
0.07772308
0.07767458
0.07763784
0.07761816
0.07762935
0.3543317
0.3542511
0.3541148
0.353781
20
20
20
20
20
0.07813089
0.07805376
0.07797839
0.07790795
0.07784506
0.07779198
0.07775081
0.07772392
0.07771453
0.07773003
0.3544044
0.3543499
0.3542748
0.3541512
0.3538715
20
20
20
20
20
0.07818414
0.07811045
0.07803856
0.07797156
0.07791207
0.07786245
0.077825
0.07780199
0.07779612
0.0778109
0.3544615
0.3544189
0.354369
0.3543031
0.3541999
0.6308207
20
20
20
20
20
0.07823626
0.07816781
0.07810089
0.07803822
0.07798214
0.0779348
0.0778984
0.07787526
0.0778679
0.07787914
0.3545085
0.3544718
0.3544325
0.3543885
0.3543338
0.6309918
0.6308373
20
20
20
20
20
0.07828712
0.07822545
0.07816475
0.07810717
0.07805455
0.07800863
0.07797133
0.07794495
0.0779325
0.07793774
0.3545488
0.354515
0.3544809
0.3544458
0.3544085
0.6310603
0.6310021
0.6308651
20
20
20
20
20
0.07833653
0.07828279
0.07822921
0.07817722
0.07812803
0.07808284
0.07804306
0.07801073
0.07798941
0.07798579
0.354583
0.3545516
0.3545208
0.3544905
0.3544606
0.6310988
0.6310652
0.6310148
0.6309015
20
20
20
20
20
0.07838421
0.07833896
0.07829285
0.07824658
0.07820068
0.07815567
0.07811217
0.07807126
0.07803578
0.07801543
0.3546102
0.3545827
0.3545559
0.3545298
0.3545048
0.6311275
0.6311014
0.631071
0.6310288
0.6309423
20
20
20
20
20
20
20
20
20
20
20
20
20
20
20
0.3546317
0.3546122
0.3545909
0.3545692
0.3545483
0.6311542
0.6311303
0.6311054
0.6310779
0.6310428
0.7232357
20
20
20
20
20
20
20
20
20
20
20
20
20
20
20
0.3546823
0.3546595
0.354637
0.3546152
0.3545947
0.6311812
0.6311584
0.631135
0.631111
0.6310854
0.7232915
0.7232572
20
20
20
20
20
20
20
20
20
20
20
20
20
20
20
0.35473
0.3547065
0.3546836
0.3546615
0.3546408
0.6312078
0.6311855
0.6311629
0.6311399
0.6311166
0.7233192
0.7232987
0.7232714
20
20
20
20
20
20
20
20
20
20
20
20
20
20
20
0.354773
0.35475
0.3547273
0.3547053
0.3546845
0.6312329
0.6312112
0.6311891
0.6311667
0.6311441
0.7233409
0.7233231
0.7233036
0.72328
20
20
20
20
20
20
20
20
20
20
20
20
20
20
20
0.3548116
0.3547892
0.3547671
0.3547455
0.3547248
0.6312562
0.6312351
0.6312135
0.6311916
0.6311693
0.7233602
0.7233431
0.7233253
0.7233061
0.723284
20
20
20
20
20
20
20
20
20
20
20
20
20
20
20
20
20
20
20
20
20
20
20
20
20
20
20
20
20
20
20
20
20
20
20
20
20
20
20
20
20
20
20
20
20
20
20
20
20
20
20
20
20
20
20
20
20
20
20
20
20
20
20
20
20
20
20
20
20
0.3540146
20
20
20
20
20
0.0779692
0.07790253
0.07783406
0.07776437
0.07769368
0.07762173
0.07754825
0.07747357
0.07740383
0.07736195
0.3541266
0.3538936
20
20
20
20
20
0.07802514
0.0779538
0.07788218
0.07781172
0.07774342
0.0776779
0.07761568
0.07755888
0.07751455
0.07750702
0.3542407
0.35413
0.353835
20
20
20
20
20
0.07807941
0.0780052
0.07793181
0.07786155
0.07779624
0.07773741
0.07768669
0.07764644
0.07762262
0.07762918
0.3543317
0.354259
0.354139
0.3538406
20
20
20
20
20
0.07813234
0.07805735
0.07798384
0.07791471
0.07785234
0.07779885
0.07775633
0.07772734
0.07771555
0.07772873
0.3544033
0.3543504
0.3542789
0.3541623
0.3538964
20
20
20
20
20
0.07818414
0.07811045
0.07803856
0.07797156
0.07791207
0.07786245
0.077825
0.07780199
0.07779612
0.0778109
0.3544615
0.3544189
0.354369
0.3543031
0.3541999
0.6308207
20
20
20
20
20
0.0782349
0.07816448
0.07809583
0.07803198
0.07797547
0.07792862
0.07789367
0.07787282
0.07786814
0.07788167
0.3545106
0.3544736
0.3544335
0.3543881
0.3543309
0.6309872
0.6308249
20
20
20
20
20
0.0782846
0.0782192
0.07815529
0.07809552
0.07804215
0.07799724
0.07796287
0.0779412
0.07793441
0.07794433
0.3545537
0.3545195
0.3544845
0.3544477
0.3544077
0.6310575
0.6309937
0.6308413
20
20
20
20
20
0.07833312
0.07827423
0.07821628
0.07816138
0.07811127
0.07806764
0.07803228