/*--------------------------------*- C++ -*----------------------------------*\
| =========                 |                                                 |
| \\      /  F ield         | OpenFOAM: The Open Source CFD Toolbox           |
|  \\    /   O peration     | Version:  2306                                  |
|   \\  /    A nd           | Website:  www.openfoam.com                      |
|    \\/     M anipulation  |                                                 |
\*---------------------------------------------------------------------------*/
FoamFile
{
    version     2.0;
    format      ascii;
    arch        "LSB;label=32;scalar=64";
    class       volScalarField;
    location    "0.3";
    object      rhoCp;
}
// * * * * * * * * * * * * * * * * * * * * * * * * * * * * * * * * * * * * * //

dimensions      [1 -1 -2 -1 0 0 0];

internalField   nonuniform List<scalar> 
52000
(
5346000
5346000
5346000
5346000
5346000
5346000
5346000
5346000
5346000
5346000
5346000
5346000
5346000
5346000
5346000
5346000
5346000
5346000
5346000
5346000
5346000
5346000
5346000
5346000
5346000
5346000
5346000
5346000
5346000
5346000
5346000
5346000
5346000
5346000
5346000
5346000
5346000
5346000
5346000
5346000
5346000
5346000
5346000
5346000
5346000
5346000
5346000
5346000
5346000
5346000
5346000
5346000
5346000
5346000
5346000
5346000
5346000
5346000
5346000
5346000
5346000
5346000
5346000
5346000
5346000
5346000
5346000
5346000
5346000
5346000
5346000
5346000
5346000
5346000
5346000
5346000
5346000
5346000
5346000
5346000
5346000
5346000
5346000
5346000
5346000
5346000
5346000
5346000
5346000
5346000
5346000
5346000
5346000
5346000
5346000
5346000
5346000
5346000
5346000
5346000
5346000
5346000
5346000
5346000
5346000
5346000
5346000
5346000
5346000
5346000
5346000
5346000
5346000
5346000
5346000
5346000
5346000
5346000
5346000
5346000
5346000
5346000
5346000
5346000
5346000
5346000
5346000
5346000
5346000
5346000
5346000
5346000
5346000
5346000
5346000
5346000
5346000
5346000
5346000
5346000
5346000
5346000
5346000
5346000
5346000
5346000
5346000
5346000
5346000
5346000
5346000
5346000
5346000
5346000
5346000
5346000
5346000
5346000
5346000
5346000
5346000
5346000
5346000
5346000
5346000
5346000
5346000
5346000
5346000
5346000
5346000
5346000
5346000
5346000
5346000
5346000
5346000
5346000
5346000
5346000
5346000
5346000
5346000
5346000
5346000
5346000
5346000
5346000
5346000
5346000
5346000
5346000
5346000
5346000
5346000
5346000
5346000
5346000
5346000
5346000
5346000
5346000
5346000
5346000
5346000
5346000
5346000
5346000
5346000
5346000
5346000
5346000
5346000
5346000
5346000
5346000
5346000
5346000
5346000
5346000
5346000
5346000
5346000
5346000
5346000
5346000
5346000
5346000
5346000
5346000
5346000
5346000
5346000
5346000
5346000
5346000
5346000
5346000
5346000
5346000
388.1907
5346000
5346000
5346000
5346000
5346000
5346000
5346000
5346000
5346000
5346000
5346000
5346000
5346000
5346000
5346000
5346000
5346000
5346000
5346000
5346000
5346000
5346000
5346000
5346000
5346000
5346000
5346000
5346000
5346000
5346000
5346000
5346000
5346000
5346000
5346000
5346000
5346000
5346000
5346000
5346000
5346000
5346000
5346000
5346000
5346000
5346000
5346000
5346000
5346000
5346000
5346000
5346000
5346000
5346000
5346000
5346000
5346000
5346000
5346000
5346000
5346000
5346000
5346000
5346000
5346000
390.6701
5346000
5346000
5346000
5346000
5346000
385.3244
390.7098
5346000
5346000
5346000
5346000
5346000
5346000
5346000
5346000
5346000
5346000
5346000
5346000
5346000
5346000
5346000
5346000
5346000
5346000
5346000
5346000
5346000
5346000
5346000
5346000
5346000
5346000
5346000
5346000
5346000
5346000
5346000
5346000
5346000
5346000
5346000
5346000
5346000
5346000
5346000
5346000
5346000
5346000
5346000
5346000
5346000
5346000
5346000
5346000
5346000
5346000
5346000
5346000
5346000
5346000
5346000
5346000
5346000
5346000
5346000
5346000
5346000
5346000
5346000
5346000
5346000
5346000
5346000
5346000
5346000
5346000
392.0328
5346000
5346000
5346000
5346000
5346000
385.9672
396.836
5346000
5346000
5346000
5346000
5346000
384.5959
385.9728
392.1071
5346000
5346000
5346000
5346000
5346000
5346000
5346000
5346000
5346000
5346000
5346000
5346000
5346000
5346000
5346000
5346000
5346000
5346000
5346000
5346000
5346000
5346000
5346000
5346000
5346000
5346000
5346000
5346000
5346000
5346000
5346000
5346000
5346000
5346000
5346000
5346000
5346000
5346000
5346000
5346000
5346000
5346000
5346000
5346000
5346000
5346000
5346000
5346000
5346000
5346000
5346000
5346000
5346000
5346000
5346000
5346000
5346000
5346000
5346000
5346000
5346000
5346000
5346000
5346000
5346000
5346000
5346000
5346000
5346000
5346000
5346000
5346000
5346000
5346000
5346000
392.8017
5346000
5346000
5346000
5346000
5346000
386.5224
400.6947
5346000
5346000
5346000
5346000
5346000
384.8733
387.8789
400.7529
5346000
5346000
5346000
5346000
5346000
383.9879
384.8601
386.5311
392.9178
5346000
5346000
5346000
5346000
5346000
5346000
5346000
5346000
5346000
5346000
5346000
5346000
5346000
5346000
5346000
5346000
5346000
5346000
5346000
5346000
5346000
5346000
5346000
5346000
5346000
5346000
5346000
5346000
5346000
5346000
5346000
5346000
5346000
5346000
5346000
5346000
5346000
5346000
5346000
5346000
5346000
5346000
5346000
5346000
5346000
5346000
5346000
5346000
5346000
5346000
5346000
5346000
5346000
5346000
5346000
5346000
5346000
5346000
5346000
5346000
5346000
5346000
5346000
5346000
5346000
5346000
5346000
5346000
5346000
5346000
5346000
5346000
5346000
5346000
5346000
5346000
5346000
5346000
5346000
5346000
393.1579
5346000
5346000
5346000
5346000
5346000
386.9296
403.0104
5346000
5346000
5346000
5346000
5346000
385.1227
389.5559
406.6163
5346000
5346000
5346000
5346000
5346000
384.128
385.6758
389.5742
403.167
5346000
5346000
5346000
5346000
5346000
383.4477
384.1071
385.0942
386.9422
393.3276
5346000
5346000
5346000
5346000
5346000
5346000
5346000
5346000
5346000
5346000
5346000
5346000
5346000
5346000
5346000
5346000
5346000
5346000
5346000
5346000
5346000
5346000
5346000
5346000
5346000
5346000
5346000
5346000
5346000
5346000
5346000
5346000
5346000
5346000
5346000
5346000
5346000
5346000
5346000
5346000
5346000
5346000
5346000
5346000
5346000
5346000
5346000
5346000
5346000
5346000
5346000
5346000
5346000
5346000
5346000
5346000
5346000
5346000
5346000
5346000
5346000
5346000
5346000
5346000
5346000
5346000
5346000
5346000
5346000
5346000
5346000
5346000
5346000
5346000
5346000
5346000
5346000
5346000
5346000
5346000
5346000
5346000
5346000
5346000
5346000
393.1579
5346000
5346000
5346000
5346000
5346000
387.1447
404.1056
5346000
5346000
5346000
5346000
5346000
385.3133
390.8007
410.3033
5346000
5346000
5346000
5346000
5346000
384.2519
386.4215
392.3115
410.4408
5346000
5346000
5346000
5346000
5346000
383.53
384.5054
386.4093
390.8559
404.4201
5346000
5346000
5346000
5346000
5346000
382.949
383.5073
384.2081
385.2659
387.1618
393.3982
5346000
5346000
5346000
5346000
5346000
5346000
5346000
5346000
5346000
5346000
5346000
5346000
5346000
5346000
5346000
5346000
5346000
5346000
5346000
5346000
5346000
5346000
5346000
5346000
5346000
5346000
5346000
5346000
5346000
5346000
5346000
5346000
5346000
5346000
5346000
5346000
5346000
5346000
5346000
5346000
5346000
5346000
5346000
5346000
5346000
5346000
5346000
5346000
5346000
5346000
5346000
5346000
5346000
5346000
5346000
5346000
5346000
5346000
5346000
5346000
5346000
5346000
5346000
5346000
5346000
5346000
5346000
5346000
5346000
384.4915
5346000
5346000
5346000
5346000
5346000
5346000
5346000
5346000
5346000
5346000
5346000
5346000
5346000
5346000
5346000
5346000
5346000
5346000
5346000
5346000
392.8017
5346000
5346000
5346000
5346000
5346000
387.1447
404.1056
5346000
5346000
5346000
5346000
5346000
385.4168
391.4627
412.0971
5346000
5346000
5346000
5346000
5346000
384.3461
386.9977
394.3763
415.1723
5346000
5346000
5346000
5346000
5346000
383.6006
384.8651
387.6331
394.4354
412.485
5346000
5346000
5346000
5346000
5346000
383.005
383.7311
384.8402
386.9743
391.5745
404.6443
5346000
5346000
5346000
5346000
5346000
382.4876
382.9828
383.5531
384.2737
385.3449
387.1626
393.1308
5346000
5346000
5346000
5346000
5346000
5346000
5346000
5346000
5346000
5346000
5346000
5346000
5346000
5346000
5346000
5346000
5346000
5346000
5346000
5346000
5346000
5346000
5346000
5346000
5346000
5346000
5346000
5346000
5346000
5346000
5346000
5346000
5346000
5346000
5346000
5346000
5346000
5346000
5346000
5346000
5346000
5346000
5346000
5346000
5346000
5346000
5346000
5346000
5346000
5346000
5346000
5346000
5346000
5346000
5346000
5346000
5346000
384.5353
5346000
5346000
5346000
5346000
5346000
5346000
5346000
5346000
5346000
5346000
5346000
5346000
5346000
5346000
5346000
383.9294
384.1608
5346000
5346000
5346000
5346000
5346000
5346000
5346000
5346000
5346000
5346000
5346000
5346000
5346000
5346000
5346000
5346000
5346000
5346000
5346000
5346000
392.0328
5346000
5346000
5346000
5346000
5346000
386.9296
403.0104
5346000
5346000
5346000
5346000
5346000
385.4168
391.4627
412.0971
5346000
5346000
5346000
5346000
5346000
384.3972
387.3125
395.4851
417.5204
5346000
5346000
5346000
5346000
5346000
383.6531
385.1418
388.5914
397.1733
417.8298
5346000
5346000
5346000
5346000
5346000
383.0517
383.928
385.4217
388.5865
395.6497
412.8626
5346000
5346000
5346000
5346000
5346000
382.5314
383.1287
383.8993
385.0847
387.2754
391.6401
403.8431
5346000
5346000
5346000
5346000
5346000
382.0555
382.5105
383.005
383.5746
384.2883
385.3102
386.9352
392.4719
5346000
5346000
5346000
5346000
5346000
5346000
5346000
5346000
5346000
5346000
5346000
5346000
5346000
5346000
5346000
5346000
5346000
5346000
5346000
5346000
5346000
5346000
5346000
5346000
5346000
5346000
5346000
5346000
5346000
5346000
5346000
5346000
5346000
5346000
5346000
5346000
5346000
5346000
5346000
5346000
5346000
5346000
5346000
5346000
384.6259
5346000
5346000
5346000
5346000
5346000
5346000
5346000
5346000
5346000
5346000
5346000
5346000
5346000
5346000
5346000
383.9589
384.2109
5346000
5346000
5346000
5346000
5346000
5346000
5346000
5346000
5346000
5346000
5346000
5346000
5346000
5346000
5346000
383.4013
383.6234
383.8243
5346000
5346000
5346000
5346000
5346000
5346000
5346000
5346000
5346000
5346000
5346000
5346000
5346000
5346000
5346000
5346000
5346000
5346000
5346000
5346000
390.6701
5346000
5346000
5346000
5346000
5346000
386.5224
400.6947
5346000
5346000
5346000
5346000
5346000
385.3133
390.8007
410.3033
5346000
5346000
5346000
5346000
5346000
384.3972
387.3125
395.4851
417.5204
5346000
5346000
5346000
5346000
5346000
383.6813
385.2929
389.1191
398.6564
420.512
5346000
5346000
5346000
5346000
5346000
383.0856
384.0761
385.8752
389.8628
398.7933
418.3314
5346000
5346000
5346000
5346000
5346000
382.5671
383.2535
384.2096
385.8416
389.1131
395.7856
411.5663
5346000
5346000
5346000
5346000
5346000
382.093
382.6209
383.2247
384.0086
385.1917
387.2478
391.0275
401.9012
5346000
5346000
5346000
5346000
5346000
381.6501
382.0735
382.5229
383.0083
383.5633
384.2405
385.1542
386.4855
391.2638
5346000
5346000
5346000
5346000
5346000
5346000
5346000
5346000
5346000
5346000
5346000
5346000
5346000
5346000
5346000
5346000
5346000
5346000
5346000
5346000
5346000
5346000
5346000
5346000
5346000
5346000
5346000
5346000
5346000
5346000
384.7795
5346000
5346000
5346000
5346000
5346000
5346000
5346000
5346000
5346000
5346000
5346000
5346000
5346000
5346000
5346000
384.0173
384.3188
5346000
5346000
5346000
5346000
5346000
5346000
5346000
5346000
5346000
5346000
5346000
5346000
5346000
5346000
5346000
383.4264
383.6526
383.8794
5346000
5346000
5346000
5346000
5346000
5346000
5346000
5346000
5346000
5346000
5346000
5346000
5346000
5346000
5346000
382.9033
383.1286
383.3138
383.479
5346000
5346000
5346000
5346000
5346000
5346000
5346000
5346000
5346000
5346000
5346000
5346000
5346000
5346000
5346000
5346000
5346000
5346000
5346000
5346000
388.1907
5346000
5346000
5346000
5346000
5346000
385.9672
396.836
5346000
5346000
5346000
5346000
5346000
385.1227
389.5559
406.6163
5346000
5346000
5346000
5346000
5346000
384.3461
386.9977
394.3763
415.1723
5346000
5346000
5346000
5346000
5346000
383.6813
385.2929
389.1191
398.6564
420.512
5346000
5346000
5346000
5346000
5346000
383.1035
384.156
386.125
390.5703
400.5052
421.0827
5346000
5346000
5346000
5346000
5346000
382.5926
383.345
384.4464
386.4389
390.5782
398.9906
416.6544
5346000
5346000
5346000
5346000
5346000
382.1232
382.7132
383.416
384.4034
386.0437
389.0998
394.802
408.484
5346000
5346000
5346000
5346000
5346000
381.684
382.1664
382.6857
383.2766
384.0349
385.1278
386.8729
389.7749
398.5139
5346000
5346000
5346000
5346000
5346000
381.2675
381.6658
382.0818
382.5191
382.9873
383.5128
384.125
384.8803
385.8261
389.0635
5346000
5346000
5346000
5346000
5346000
5346000
5346000
5346000
5346000
5346000
5346000
5346000
5346000
5346000
5346000
385.077
5346000
5346000
5346000
5346000
5346000
5346000
5346000
5346000
5346000
5346000
5346000
5346000
5346000
5346000
5346000
384.1055
384.5149
5346000
5346000
5346000
5346000
5346000
5346000
5346000
5346000
5346000
5346000
5346000
5346000
5346000
5346000
5346000
383.4758
383.7104
384
5346000
5346000
5346000
5346000
5346000
5346000
5346000
5346000
5346000
5346000
5346000
5346000
5346000
5346000
5346000
382.9262
383.1519
383.343
383.5374
5346000
5346000
5346000
5346000
5346000
5346000
5346000
5346000
5346000
5346000
5346000
5346000
5346000
5346000
5346000
382.4429
382.662
382.8533
382.9986
383.1308
5346000
5346000
5346000
5346000
5346000
5346000
5346000
5346000
5346000
5346000
5346000
5346000
5346000
5346000
5346000
5346000
5346000
5346000
5346000
5346000
5346000
5346000
5346000
5346000
5346000
385.3244
390.7098
5346000
5346000
5346000
5346000
5346000
384.8733
387.8789
400.7529
5346000
5346000
5346000
5346000
5346000
384.2519
386.4215
392.3115
410.4408
5346000
5346000
5346000
5346000
5346000
383.6531
385.1418
388.5914
397.1733
417.8298
5346000
5346000
5346000
5346000
5346000
383.1035
384.156
386.125
390.5703
400.5052
421.0827
5346000
5346000
5346000
5346000
5346000
382.6059
383.3936
384.5751
386.7703
391.394
400.738
419.1989
5346000
5346000
5346000
5346000
5346000
382.1446
382.7794
383.5582
384.7083
386.7216
390.5811
397.7099
412.7203
5346000
5346000
5346000
5346000
5346000
381.7112
382.243
382.8239
383.5136
384.469
385.971
388.5194
392.7885
403.3379
5346000
5346000
5346000
5346000
5346000
381.2991
381.7493
382.2171
382.7137
383.2705
383.9607
384.8809
386.1773
387.9783
393.0226
5346000
5346000
5346000
5346000
5346000
380.906
381.2821
381.6724
382.0754
382.4951
382.9378
383.419
383.9399
384.4894
384.9373
386.4827
5346000
5346000
5346000
5346000
5346000
5346000
5346000
5346000
5346000
5346000
5346000
5346000
5346000
5346000
5346000
384.2092
384.9093
5346000
5346000
5346000
5346000
5346000
5346000
5346000
5346000
5346000
5346000
5346000
5346000
5346000
5346000
5346000
383.5474
383.7954
384.2208
5346000
5346000
5346000
5346000
5346000
5346000
5346000
5346000
5346000
5346000
5346000
5346000
5346000
5346000
5346000
382.9709
383.196
383.4005
383.6654
5346000
5346000
5346000
5346000
5346000
5346000
5346000
5346000
5346000
5346000
5346000
5346000
5346000
5346000
5346000
382.4644
382.6825
382.875
383.0277
383.1908
5346000
5346000
5346000
5346000
5346000
5346000
5346000
5346000
5346000
5346000
5346000
5346000
5346000
5346000
5346000
382.0074
382.2287
382.4183
382.5735
382.684
382.9213
5346000
5346000
5346000
5346000
5346000
5346000
5346000
5346000
5346000
5346000
5346000
5346000
5346000
5346000
5346000
5346000
5346000
5346000
5346000
5346000
5346000
5346000
5346000
5346000
5346000
5346000
5346000
5346000
5346000
5346000
384.5959
385.9728
392.1071
5346000
5346000
5346000
5346000
5346000
384.128
385.6758
389.5742
403.167
5346000
5346000
5346000
5346000
5346000
383.6006
384.8651
387.6331
394.4354
412.485
5346000
5346000
5346000
5346000
5346000
383.0856
384.0761
385.8752
389.8628
398.7933
418.3314
5346000
5346000
5346000
5346000
5346000
382.6059
383.3936
384.5751
386.7703
391.394
400.738
419.1989
5346000
5346000
5346000
5346000
5346000
382.1556
382.814
383.6342
384.8754
387.0997
391.4072
399.2927
414.8102
5346000
5346000
5346000
5346000
5346000
381.7303
382.2972
382.9241
383.6918
384.8077
386.6457
389.8372
395.0945
406.345
5346000
5346000
5346000
5346000
5346000
381.3244
381.8176
382.3301
382.8808
383.5236
384.378
385.6072
387.4331
389.9598
395.5406
5346000
5346000
5346000
5346000
5346000
380.9358
381.3596
381.7932
382.2351
382.6955
383.1957
383.7772
384.4584
385.2171
385.774
387.9512
5346000
5346000
5346000
5346000
5346000
380.5634
380.9198
381.2879
381.6653
382.0512
382.4479
382.8563
383.2773
383.674
383.9293
384.1642
385.992
5346000
5346000
5346000
5346000
5346000
5346000
5346000
5346000
5346000
5346000
5346000
5346000
5346000
5346000
5346000
383.6113
383.8891
384.637
5346000
5346000
5346000
5346000
5346000
5346000
5346000
5346000
5346000
5346000
5346000
5346000
5346000
5346000
5346000
383.035
383.2537
383.4848
383.8954
5346000
5346000
5346000
5346000
5346000
5346000
5346000
5346000
5346000
5346000
5346000
5346000
5346000
5346000
5346000
382.5064
382.7208
382.9152
383.0854
383.3215
5346000
5346000
5346000
5346000
5346000
5346000
5346000
5346000
5346000
5346000
5346000
5346000
5346000
5346000
5346000
382.0279
382.2477
382.4368
382.594
382.7131
382.9811
5346000
5346000
5346000
5346000
5346000
5346000
5346000
5346000
5346000
5346000
5346000
5346000
5346000
5346000
5346000
381.5982
381.8161
382.0122
382.1706
382.2953
382.4959
382.8944
5346000
5346000
5346000
5346000
5346000
5346000
5346000
5346000
5346000
5346000
5346000
5346000
5346000
5346000
5346000
5346000
5346000
5346000
5346000
5346000
5346000
5346000
5346000
5346000
5346000
5346000
5346000
5346000
5346000
5346000
5346000
5346000
5346000
5346000
5346000
383.9879
384.8601
386.5311
392.9178
5346000
5346000
5346000
5346000
5346000
383.53
384.5054
386.4093
390.8559
404.4201
5346000
5346000
5346000
5346000
5346000
383.0517
383.928
385.4217
388.5865
395.6497
412.8626
5346000
5346000
5346000
5346000
5346000
382.5926
383.345
384.4464
386.4389
390.5782
398.9906
416.6544
5346000
5346000
5346000
5346000
5346000
382.1556
382.814
383.6342
384.8754
387.0997
391.4072
399.2927
414.8102
5346000
5346000
5346000
5346000
5346000
381.7402
382.3252
382.9768
383.7878
384.9944
387.0233
390.5722
396.3442
407.8032
5346000
5346000
5346000
5346000
5346000
381.3421
381.8655
382.4107
383.0033
383.7161
384.7068
386.1928
388.4423
391.4739
397.1003
5346000
5346000
5346000
5346000
5346000
380.9597
381.4228
381.8933
382.3697
382.8695
383.4301
384.1198
384.9785
385.9728
386.6353
389.1029
5346000
5346000
5346000
5346000
5346000
380.5917
380.993
381.3999
381.8071
382.2131
382.6238
383.0453
383.4823
383.8754
384.0423
384.3998
387.1726
5346000
5346000
5346000
5346000
5346000
380.2382
380.5766
380.9253
381.2809
381.6418
382.0064
382.3743
382.7375
383.0719
383.2612
383.3241
383.9268
385.4951
5346000
5346000
5346000
5346000
5346000
5346000
5346000
5346000
5346000
5346000
5346000
5346000
5346000
5346000
5346000
383.0855
383.2842
383.5806
384.2963
5346000
5346000
5346000
5346000
5346000
5346000
5346000
5346000
5346000
5346000
5346000
5346000
5346000
5346000
5346000
382.5663
382.7682
382.9653
383.1707
383.5498
5346000
5346000
5346000
5346000
5346000
5346000
5346000
5346000
5346000
5346000
5346000
5346000
5346000
5346000
5346000
382.0679
382.283
382.4702
382.6321
382.7712
383.1106
5346000
5346000
5346000
5346000
5346000
5346000
5346000
5346000
5346000
5346000
5346000
5346000
5346000
5346000
5346000
381.6179
381.8341
382.0291
382.1877
382.3151
382.5248
382.9541
5346000
5346000
5346000
5346000
5346000
5346000
5346000
5346000
5346000
5346000
5346000
5346000
5346000
5346000
5346000
381.2103
381.426
381.6225
381.792
381.9248
382.1283
382.4716
382.868
5346000
5346000
5346000
5346000
5346000
5346000
5346000
5346000
5346000
5346000
5346000
5346000
5346000
5346000
5346000
5346000
5346000
5346000
5346000
5346000
5346000
5346000
5346000
5346000
5346000
5346000
5346000
5346000
5346000
5346000
5346000
5346000
5346000
5346000
5346000
5346000
5346000
5346000
5346000
5346000
383.4477
384.1071
385.0942
386.9422
393.3276
5346000
5346000
5346000
5346000
5346000
383.005
383.7311
384.8402
386.9743
391.5745
404.6443
5346000
5346000
5346000
5346000
5346000
382.5671
383.2535
384.2096
385.8416
389.1131
395.7856
411.5663
5346000
5346000
5346000
5346000
5346000
382.1446
382.7794
383.5582
384.7083
386.7216
390.5811
397.7099
412.7203
5346000
5346000
5346000
5346000
5346000
381.7402
382.3252
382.9768
383.7878
384.9944
387.0233
390.5722
396.3442
407.8032
5346000
5346000
5346000
5346000
5346000
381.3512
381.8901
382.4526
383.068
383.8205
384.8891
386.5217
389.0058
392.2926
397.856
5346000
5346000
5346000
5346000
5346000
380.9764
381.467
381.964
382.4666
382.9982
383.6107
384.3945
385.4072
386.5966
387.3166
389.8761
5346000
5346000
5346000
5346000
5346000
380.6145
381.0527
381.4923
381.9254
382.3509
382.7793
383.2249
383.7015
384.1403
384.2959
384.7156
388.1415
5346000
5346000
5346000
5346000
5346000
380.2653
380.6464
381.0311
381.412
381.7846
382.1453
382.4925
382.8133
383.0717
383.1304
383.2644
384.1233
386.4417
5346000
5346000
5346000
5346000
5346000
379.9292
380.251
380.5819
380.9185
381.2583
381.5995
381.9384
382.2689
382.5645
382.7349
382.7471
383.1278
383.6656
384.9847
5346000
5346000
5346000
5346000
5346000
5346000
5346000
5346000
5346000
5346000
5346000
5346000
5346000
5346000
5346000
382.6124
382.7794
382.9899
383.2732
383.9187
5346000
5346000
5346000
5346000
5346000
5346000
5346000
5346000
5346000
5346000
5346000
5346000
5346000
5346000
5346000
382.125
382.326
382.5079
382.6797
382.859
383.3336
5346000
5346000
5346000
5346000
5346000
5346000
5346000
5346000
5346000
5346000
5346000
5346000
5346000
5346000
5346000
381.6563
381.8675
382.0593
382.218
382.3523
382.5828
383.0833
5346000
5346000
5346000
5346000
5346000
5346000
5346000
5346000
5346000
5346000
5346000
5346000
5346000
5346000
5346000
381.2293
381.4433
381.6384
381.8073
381.9409
382.1479
382.5005
382.9276
5346000
5346000
5346000
5346000
5346000
5346000
5346000
5346000
5346000
5346000
5346000
5346000
5346000
5346000
5346000
380.8431
381.0541
381.2516
381.4254
381.5736
381.7762
382.1066
382.4479
382.8411
5346000
5346000
5346000
5346000
5346000
5346000
5346000
5346000
5346000
5346000
5346000
5346000
5346000
5346000
5346000
5346000
5346000
5346000
5346000
5346000
5346000
5346000
5346000
5346000
5346000
5346000
5346000
5346000
5346000
5346000
5346000
5346000
5346000
5346000
5346000
5346000
5346000
5346000
5346000
5346000
5346000
5346000
5346000
5346000
5346000
382.949
383.5073
384.2081
385.2659
387.1618
393.3982
5346000
5346000
5346000
5346000
5346000
382.5314
383.1287
383.8993
385.0847
387.2754
391.6401
403.8431
5346000
5346000
5346000
5346000
5346000
382.1232
382.7132
383.416
384.4034
386.0437
389.0998
394.802
408.484
5346000
5346000
5346000
5346000
5346000
381.7303
382.2972
382.9241
383.6918
384.8077
386.6457
389.8372
395.0945
406.345
5346000
5346000
5346000
5346000
5346000
381.3512
381.8901
382.4526
383.068
383.8205
384.8891
386.5217
389.0058
392.2926
397.856
5346000
5346000
5346000
5346000
5346000
380.985
381.4897
382.0004
382.5171
383.0668
383.7095
384.5483
385.6503
386.9483
387.6892
390.2628
5346000
5346000
5346000
5346000
5346000
380.6304
381.0944
381.5572
382.0095
382.4509
382.8961
383.3677
383.888
384.3805
384.539
384.9864
388.8051
5346000
5346000
5346000
5346000
5346000
380.2871
380.7032
381.1182
381.5209
381.9048
382.2657
382.6035
382.9075
383.1421
383.1545
383.3106
384.3802
387.2432
5346000
5346000
5346000
5346000
5346000
379.9551
380.3177
380.6827
381.0423
381.3902
381.7208
382.0264
382.2944
382.4884
382.5242
382.5951
383.084
383.8383
385.7394
5346000
5346000
5346000
5346000
5346000
379.6352
379.9415
380.2561
380.5754
380.897
381.2181
381.5357
381.8418
382.1152
382.2725
382.2818
382.5758
382.9165
383.3853
384.4735
5346000
5346000
5346000
5346000
5346000
5346000
5346000
5346000
5346000
5346000
5346000
5346000
5346000
5346000
5346000
382.1696
382.3325
382.5104
382.7111
382.9701
383.6815
5346000
5346000
5346000
5346000
5346000
5346000
5346000
5346000
5346000
5346000
5346000
5346000
5346000
5346000
5346000
381.7113
381.9083
382.0922
382.2521
382.4015
382.6717
383.3056
5346000
5346000
5346000
5346000
5346000
5346000
5346000
5346000
5346000
5346000
5346000
5346000
5346000
5346000
5346000
381.2663
381.4754
381.6668
381.8343
381.97
382.185
382.5585
383.0566
5346000
5346000
5346000
5346000
5346000
5346000
5346000
5346000
5346000
5346000
5346000
5346000
5346000
5346000
5346000
380.8615
381.0708
381.2668
381.4398
381.588
381.792
382.1261
382.4766
382.9005
5346000
5346000
5346000
5346000
5346000
5346000
5346000
5346000
5346000
5346000
5346000
5346000
5346000
5346000
5346000
380.4942
380.7002
380.8957
381.0737
381.23
381.4404
381.7566
382.0853
382.4236
382.8151
5346000
5346000
5346000
5346000
5346000
5346000
5346000
5346000
5346000
5346000
5346000
5346000
5346000
5346000
5346000
5346000
5346000
5346000
5346000
5346000
5346000
5346000
5346000
5346000
5346000
5346000
5346000
5346000
5346000
5346000
5346000
5346000
5346000
5346000
5346000
5346000
5346000
5346000
5346000
5346000
5346000
5346000
5346000
5346000
5346000
5346000
5346000
5346000
5346000
5346000
382.4876
382.9828
383.5531
384.2737
385.3449
387.1626
393.1308
5346000
5346000
5346000
5346000
5346000
382.093
382.6209
383.2247
384.0086
385.1917
387.2478
391.0275
401.9012
5346000
5346000
5346000
5346000
5346000
381.7112
382.243
382.8239
383.5136
384.469
385.971
388.5194
392.7885
403.3379
5346000
5346000
5346000
5346000
5346000
381.3421
381.8655
382.4107
383.0033
383.7161
384.7068
386.1928
388.4423
391.4739
397.1003
5346000
5346000
5346000
5346000
5346000
380.985
381.4897
382.0004
382.5171
383.0668
383.7095
384.5483
385.6503
386.9483
387.6892
390.2628
5346000
5346000
5346000
5346000
5346000
380.6387
381.1157
381.5907
382.0531
382.5034
382.9589
383.4472
383.995
384.5216
384.6826
385.1392
389.14
5346000
5346000
5346000
5346000
5346000
380.3024
380.7429
381.1793
381.598
381.9909
382.3543
382.6905
382.9926
383.2259
383.2181
383.3808
384.601
387.8023
5346000
5346000
5346000
5346000
5346000
379.976
380.372
380.7656
381.145
381.5006
381.8247
382.108
382.3383
382.4817
382.4633
382.5449
383.1174
384.0496
386.391
5346000
5346000
5346000
5346000
5346000
379.66
380.0054
380.3525
380.6934
381.0216
381.3301
381.6107
381.8487
382.0158
382.043
382.106
382.4566
382.8942
383.5429
385.0668
5346000
5346000
5346000
5346000
5346000
379.3553
379.647
379.9463
380.2498
380.5548
380.8587
381.1579
381.4456
381.7011
381.8528
381.8644
382.1281
382.394
382.6932
383.1014
384.176
5346000
5346000
5346000
5346000
5346000
5346000
5346000
5346000
5346000
5346000
5346000
5346000
5346000
5346000
5346000
381.7557
381.915
382.0889
382.2603
382.4459
382.7871
383.651
5346000
5346000
5346000
5346000
5346000
5346000
5346000
5346000
5346000
5346000
5346000
5346000
5346000
5346000
5346000
381.3196
381.5149
381.6977
381.863
382.0048
382.2358
382.6473
383.278
5346000
5346000
5346000
5346000
5346000
5346000
5346000
5346000
5346000
5346000
5346000
5346000
5346000
5346000
5346000
380.8973
381.1018
381.2941
381.4648
381.6134
381.8209
382.1632
382.5346
383.0292
5346000
5346000
5346000
5346000
5346000
5346000
5346000
5346000
5346000
5346000
5346000
5346000
5346000
5346000
5346000
380.512
380.7164
380.9104
381.0875
381.2434
381.4545
381.7724
382.1048
382.4523
382.8745
5346000
5346000
5346000
5346000
5346000
5346000
5346000
5346000
5346000
5346000
5346000
5346000
5346000
5346000
5346000
380.1624
380.3625
380.5553
380.734
380.8975
381.1097
381.4227
381.7375
382.0636
382.4003
382.7856
5346000
5346000
5346000
5346000
5346000
5346000
5346000
5346000
5346000
5346000
5346000
5346000
5346000
5346000
5346000
5346000
5346000
5346000
5346000
5346000
5346000
5346000
5346000
5346000
5346000
5346000
5346000
5346000
5346000
5346000
5346000
5346000
5346000
5346000
5346000
5346000
5346000
5346000
5346000
5346000
5346000
5346000
5346000
5346000
5346000
5346000
5346000
5346000
5346000
5346000
5346000
5346000
5346000
5346000
5346000
382.0555
382.5105
383.005
383.5746
384.2883
385.3102
386.9352
392.4719
5346000
5346000
5346000
5346000
5346000
381.684
382.1664
382.6857
383.2766
384.0349
385.1278
386.8729
389.7749
398.5139
5346000
5346000
5346000
5346000
5346000
381.3244
381.8176
382.3301
382.8808
383.5236
384.378
385.6072
387.4331
389.9598
395.5406
5346000
5346000
5346000
5346000
5346000
380.9764
381.467
381.964
382.4666
382.9982
383.6107
384.3945
385.4072
386.5966
387.3166
389.8761
5346000
5346000
5346000
5346000
5346000
380.6387
381.1157
381.5907
382.0531
382.5034
382.9589
383.4472
383.995
384.5216
384.6826
385.1392
389.14
5346000
5346000
5346000
5346000
5346000
380.3102
380.7632
381.2107
381.6378
382.0357
382.4013
382.7385
383.0427
383.2793
383.2633
383.4273
384.7261
388.087
5346000
5346000
5346000
5346000
5346000
379.9907
380.41
380.8238
381.2175
381.5792
381.9002
382.1712
382.3821
382.5019
382.4568
382.5378
383.1704
384.2294
386.8522
5346000
5346000
5346000
5346000
5346000
379.6801
380.0575
380.4319
380.7913
381.1256
381.4252
381.6796
381.8731
381.9816
381.9531
382.0235
382.411
382.9224
383.7191
385.5839
5346000
5346000
5346000
5346000
5346000
379.3791
379.7083
380.0388
380.3629
380.6737
380.9646
381.2268
381.447
381.5986
381.6284
381.6896
381.9896
382.3096
382.6941
383.2487
384.6946
5346000
5346000
5346000
5346000
5346000
379.0887
379.3666
379.6516
379.9403
380.2301
380.5182
380.8014
381.0729
381.3144
381.4601
381.4798
381.7244
381.9668
382.2036
382.4712
382.9267
384.1389
5346000
5346000
5346000
5346000
5346000
5346000
5346000
5346000
5346000
5346000
5346000
5346000
5346000
5346000
5346000
381.364
381.5235
381.6942
381.8643
382.026
382.2879
382.763
383.6209
5346000
5346000
5346000
5346000
5346000
5346000
5346000
5346000
5346000
5346000
5346000
5346000
5346000
5346000
5346000
380.949
381.1404
381.324
381.4913
381.6423
381.8573
382.2141
382.6234
383.2497
5346000
5346000
5346000
5346000
5346000
5346000
5346000
5346000
5346000
5346000
5346000
5346000
5346000
5346000
5346000
380.5467
380.7465
380.9368
381.1115
381.2668