/*--------------------------------*- C++ -*----------------------------------*\
| =========                 |                                                 |
| \\      /  F ield         | OpenFOAM: The Open Source CFD Toolbox           |
|  \\    /   O peration     | Version:  2306                                  |
|   \\  /    A nd           | Website:  www.openfoam.com                      |
|    \\/     M anipulation  |                                                 |
\*---------------------------------------------------------------------------*/
FoamFile
{
    version     2.0;
    format      ascii;
    arch        "LSB;label=32;scalar=64";
    class       volScalarField;
    location    "0.3";
    object      T;
}
// * * * * * * * * * * * * * * * * * * * * * * * * * * * * * * * * * * * * * //

dimensions      [0 0 0 1 0 0 0];

internalField   nonuniform List<scalar> 
52000
(
1044.885
1044.883
1045.923
1044.848
1044.881
1045.923
1044.847
1047.33
1045.911
1044.776
1044.878
1045.922
1044.843
1047.329
1045.91
1044.773
1048.813
1047.329
1045.887
1044.671
1044.874
1045.921
1044.839
1047.328
1045.909
1044.768
1048.813
1047.328
1045.886
1044.666
1050.265
1048.816
1047.328
1045.855
1044.539
1044.87
1045.919
1044.834
1047.327
1045.907
1044.761
1048.812
1047.327
1045.885
1044.657
1050.264
1048.816
1047.327
1045.853
1044.529
1051.647
1050.269
1048.824
1047.328
1045.817
1044.43
1044.866
1045.917
1044.828
1047.326
1045.905
1044.752
1048.811
1047.325
1045.882
1044.644
1050.263
1048.815
1047.325
1045.85
1044.512
1051.646
1050.269
1048.823
1047.327
1045.814
1044.414
1052.95
1051.652
1050.28
1048.837
1047.333
1045.789
1044.359
1044.863
1045.915
1044.822
1047.324
1045.903
1044.743
1048.809
1047.323
1045.879
1044.629
1050.262
1048.813
1047.322
1045.846
1044.488
1051.645
1050.268
1048.821
1047.324
1045.81
1044.382
1052.949
1051.651
1050.279
1048.836
1047.331
1045.785
1044.338
1054.175
1052.955
1051.663
1050.297
1048.858
1047.343
1045.773
1044.295
1044.86
1045.914
1044.817
1047.323
1045.9
1044.733
1048.808
1047.321
1045.875
1044.613
1050.261
1048.811
1047.319
1045.841
1044.463
1051.644
1050.266
1048.818
1047.32
1045.803
1044.336
1052.949
1051.65
1050.277
1048.833
1047.327
1045.777
1044.297
1054.175
1052.954
1051.662
1050.295
1048.857
1047.34
1045.768
1044.27
1055.328
1054.18
1052.965
1051.68
1050.323
1048.882
1047.352
1045.761
1044.241
1044.859
1045.913
1044.814
1047.322
1045.898
1044.724
1048.806
1047.319
1045.871
1044.594
1050.259
1048.809
1047.316
1045.836
1044.445
1051.643
1050.264
1048.815
1047.314
1045.797
1044.277
1052.948
1051.649
1050.274
1048.828
1047.321
1045.766
1044.233
1054.174
1052.953
1051.66
1050.293
1048.853
1047.336
1045.757
1044.22
1055.328
1054.179
1052.964
1051.679
1050.321
1048.88
1047.349
1045.754
1044.213
1056.414
1055.332
1054.19
1052.982
1051.707
1050.35
1048.9
1047.363
1045.754
1044.2
1044.859
1045.912
1044.812
1047.321
1045.897
1044.717
1048.805
1047.317
1045.868
1044.577
1050.258
1048.807
1047.312
1045.829
1044.404
1051.642
1050.262
1048.812
1047.308
1045.792
1035.779
1052.946
1051.647
1050.271
1048.823
1047.313
1045.754
1044.144
1054.173
1052.952
1051.658
1050.288
1048.846
1047.33
1045.741
1044.141
1055.327
1054.179
1052.963
1051.676
1050.318
1048.877
1047.344
1045.741
1044.155
1056.414
1055.332
1054.189
1052.981
1051.705
1050.349
1048.898
1047.36
1045.747
1044.169
1057.439
1056.418
1055.341
1054.205
1053.007
1051.734
1050.371
1048.92
1047.379
1045.755
1044.173
1044.86
1045.912
1044.812
1047.32
1045.896
1044.714
1048.804
1047.316
1045.865
1044.563
1050.257
1048.805
1047.309
1045.822
1044.364
1051.64
1050.26
1048.808
1047.302
1045.778
1028.077
1052.945
1051.645
1050.268
1048.816
1047.3
1044.697
1027.952
1054.172
1052.95
1051.655
1050.283
1048.837
1047.323
1045.721
1044.029
1055.326
1054.177
1052.961
1051.672
1050.312
1048.872
1047.336
1045.72
1044.066
1056.413
1055.331
1054.187
1052.978
1051.702
1050.346
1048.895
1047.354
1045.73
1044.108
1057.439
1056.418
1055.341
1054.204
1053.006
1051.733
1050.369
1048.919
1047.375
1045.746
1044.142
1058.408
1057.443
1056.427
1055.356
1054.229
1053.033
1051.754
1050.393
1048.943
1047.398
1045.763
1044.162
1044.863
1045.913
1044.814
1047.32
1045.896
1044.714
1048.803
1047.315
1045.863
1044.555
1050.256
1048.804
1047.307
1045.817
1044.334
1051.639
1050.258
1048.805
1047.296
1045.763
1023.887
1052.944
1051.643
1050.264
1048.809
1047.287
1042.664
1009.372
1054.171
1052.948
1051.651
1050.276
1048.821
1046.868
1042.634
1023.653
1055.325
1054.176
1052.958
1051.667
1050.302
1048.867
1047.327
1045.691
1043.939
1056.413
1055.33
1054.185
1052.975
1051.696
1050.342
1048.891
1047.345
1045.706
1044.012
1057.438
1056.417
1055.339
1054.202
1053.003
1051.73
1050.367
1048.915
1047.369
1045.729
1044.079
1058.407
1057.442
1056.426
1055.355
1054.227
1053.032
1051.753
1050.392
1048.942
1047.395
1045.754
1044.131
1059.324
1058.411
1057.45
1056.44
1055.378
1054.253
1053.052
1051.776
1050.418
1048.969
1047.422
1045.779
1044.166
1044.866
1045.914
1044.817
1047.321
1045.897
1044.717
1048.803
1047.315
1045.863
1044.555
1050.255
1048.803
1047.306
1045.814
1044.318
1051.638
1050.257
1048.803
1047.291
1045.75
1021.537
1052.943
1051.641
1050.261
1048.804
1047.276
1040.916
997.9814
1054.17
1052.947
1051.648
1050.27
1048.808
1045.991
1036.639
997.8066
1055.324
1054.174
1052.955
1051.661
1050.286
1048.628
1046.017
1040.85
1021.169
1056.412
1055.329
1054.183
1052.97
1051.687
1050.338
1048.886
1047.333
1045.671
1043.877
1057.437
1056.416
1055.338
1054.199
1052.998
1051.727
1050.364
1048.911
1047.358
1045.701
1043.981
1058.407
1057.442
1056.425
1055.353
1054.225
1053.03
1051.751
1050.39
1048.938
1047.388
1045.736
1044.068
1059.324
1058.411
1057.45
1056.439
1055.376
1054.252
1053.051
1051.775
1050.417
1048.967
1047.419
1045.771
1044.135
1060.193
1059.328
1058.418
1057.463
1056.46
1055.4
1054.27
1053.072
1051.8
1050.444
1048.997
1047.45
1045.803
1044.184
1044.87
1045.915
1044.822
1047.322
1045.898
1044.724
1048.804
1047.316
1045.865
1044.563
1050.255
1048.803
1047.306
1045.814
1044.318
1051.638
1050.256
1048.802
1047.289
1045.743
1020.452
1052.942
1051.64
1050.259
1048.8
1047.267
1039.638
991.2275
1054.169
1052.945
1051.645
1050.264
1048.798
1045.207
1031.42
980.8029
1055.323
1054.173
1052.952
1051.655
1050.274
1048.187
1043.434
1031.338
990.7611
1056.411
1055.327
1054.18
1052.964
1051.672
1050.191
1048.236
1045.249
1039.518
1019.907
1057.437
1056.415
1055.335
1054.194
1052.989
1051.724
1050.361
1048.905
1047.343
1045.663
1043.844
1058.406
1057.441
1056.423
1055.35
1054.22
1053.027
1051.749
1050.387
1048.933
1047.376
1045.709
1043.971
1059.324
1058.41
1057.449
1056.437
1055.374
1054.25
1053.05
1051.774
1050.415
1048.964
1047.412
1045.754
1044.073
1060.192
1059.327
1058.418
1057.462
1056.459
1055.399
1054.269
1053.072
1051.799
1050.443
1048.996
1047.447
1045.796
1044.154
1061.016
1060.196
1059.334
1058.43
1057.482
1056.48
1055.416
1054.289
1053.095
1051.825
1050.472
1049.028
1047.481
1045.834
1044.216
1044.874
1045.917
1044.828
1047.323
1045.9
1044.733
1048.805
1047.317
1045.868
1044.577
1050.256
1048.804
1047.307
1045.817
1044.334
1051.638
1050.256
1048.802
1047.289
1045.743
1020.452
1052.942
1051.64
1050.258
1048.798
1047.262
1038.965
988.0498
1054.168
1052.944
1051.644
1050.261
1048.791
1044.609
1027.578
970.2745
1055.322
1054.171
1052.949
1051.65
1050.265
1047.801
1041.087
1022.92
969.8777
1056.41
1055.326
1054.177
1052.959
1051.661
1049.934
1046.974
1041.094
1027.342
987.1157
1057.436
1056.413
1055.333
1054.189
1052.975
1051.619
1049.99
1047.889
1044.662
1038.77
1019.664
1058.405
1057.439
1056.421
1055.346
1054.212
1053.024
1051.746
1050.384
1048.926
1047.36
1045.67
1043.837
1059.323
1058.409
1057.447
1056.434
1055.37
1054.247
1053.048
1051.772
1050.412
1048.959
1047.401
1045.728
1043.98
1060.192
1059.327
1058.417
1057.46
1056.457
1055.397
1054.268
1053.071
1051.798
1050.442
1048.993
1047.441
1045.781
1044.094
1061.016
1060.195
1059.334
1058.429
1057.481
1056.48
1055.415
1054.289
1053.094
1051.825
1050.472
1049.027
1047.479
1045.828
1044.186
1061.797
1061.019
1060.202
1059.345
1058.447
1057.501
1056.495
1055.434
1054.31
1053.118
1051.852
1050.502
1049.06
1047.516
1045.871
1044.757
1044.878
1045.919
1044.834
1047.324
1045.903
1044.743
1048.806
1047.319
1045.871
1044.594
1050.257
1048.805
1047.309
1045.822
1044.364
1051.638
1050.257
1048.803
1047.291
1045.75
1021.537
1052.942
1051.64
1050.258
1048.798
1047.262
1038.965
988.0498
1054.168
1052.944
1051.643
1050.259
1048.787
1044.285
1025.545
965.2002
1055.322
1054.17
1052.948
1051.647
1050.259
1047.51
1039.281
1016.655
956.5711
1056.409
1055.324
1054.175
1052.954
1051.652
1049.718
1045.84
1037.258
1016.438
964.0905
1057.435
1056.412
1055.33
1054.184
1052.965
1051.446
1049.282
1045.885
1039.274
1025.078
986.4415
1058.404
1057.438
1056.418
1055.341
1054.199
1052.939
1051.5
1049.818
1047.636
1044.347
1038.687
1020.425
1059.322
1058.408
1057.445
1056.43
1055.362
1054.244
1053.045
1051.769
1050.408
1048.952
1047.385
1045.692
1043.855
1060.191
1059.326
1058.415
1057.458
1056.453
1055.395
1054.266
1053.069
1051.796
1050.439
1048.989
1047.432
1045.759
1044.005
1061.015
1060.195
1059.333
1058.428
1057.478
1056.478
1055.414
1054.288
1053.093
1051.824
1050.471
1049.025
1047.475
1045.815
1044.125
1061.796
1061.018
1060.202
1059.345
1058.447
1057.5
1056.495
1055.433
1054.309
1053.118
1051.852
1050.502
1049.06
1047.515
1045.865
1044.715
1062.537
1061.799
1061.025
1060.213
1059.362
1058.465
1057.515
1056.512
1055.452
1054.331
1053.143
1051.88
1050.533
1049.094
1047.553
1046.375
1045.798
1044.881
1045.921
1044.839
1047.326
1045.905
1044.752
1048.808
1047.321
1045.875
1044.613
1050.258
1048.807
1047.312
1045.829
1044.404
1051.639
1050.258
1048.805
1047.296
1045.763
1023.887
1052.942
1051.64
1050.259
1048.8
1047.267
1039.638
991.2275
1054.168
1052.944
1051.643
1050.259
1048.787
1044.285
1025.545
965.2002
1055.321
1054.17
1052.947
1051.645
1050.256
1047.352
1038.296
1013.319
950.0532
1056.408
1055.324
1054.174
1052.951
1051.647
1049.559
1044.971
1034.273
1008.241
949.1906
1057.434
1056.411
1055.328
1054.18
1052.957
1051.305
1048.664
1044.052
1034.241
1012.731
963.0075
1058.404
1057.437
1056.416
1055.336
1054.19
1052.805
1051.041
1048.721
1045.066
1038.266
1024.799
988.7121
1059.321
1058.407
1057.443
1056.426
1055.35
1054.171
1052.857
1051.405
1049.706
1047.524
1044.369
1039.294
1022.348
1060.191
1059.325
1058.413
1057.454
1056.446
1055.392
1054.265
1053.067
1051.794
1050.436
1048.982
1047.418
1045.729
1043.891
1061.015
1060.194
1059.331
1058.425
1057.475
1056.476
1055.412
1054.286
1053.092
1051.822
1050.469
1049.022
1047.468
1045.798
1044.038
1061.796
1061.018
1060.201
1059.343
1058.444
1057.498
1056.494
1055.432
1054.309
1053.117
1051.851
1050.502
1049.06
1047.513
1045.855
1044.623
1062.537
1061.799
1061.024
1060.212
1059.361
1058.465
1057.514
1056.511
1055.452
1054.331
1053.143
1051.88
1050.534
1049.095
1047.552
1046.37
1045.736
1063.239
1062.54
1061.805
1061.035
1060.228
1059.378
1058.478
1057.53
1056.529
1055.472
1054.354
1053.168
1051.908
1050.564
1049.128
1048.003
1047.342
1046.846
1044.883
1045.922
1044.843
1047.327
1045.907
1044.761
1048.809
1047.323
1045.879
1044.629
1050.259
1048.809
1047.316
1045.836
1044.445
1051.64
1050.26
1048.808
1047.302
1045.778
1028.077
1052.943
1051.641
1050.261
1048.804
1047.276
1040.916
997.9814
1054.168
1052.944
1051.644
1050.261
1048.791
1044.609
1027.578
970.2745
1055.321
1054.17
1052.947
1051.645
1050.256
1047.352
1038.296
1013.319
950.0532
1056.408
1055.323
1054.173
1052.95
1051.644
1049.474
1044.497
1032.637
1003.852
941.8274
1057.433
1056.41
1055.327
1054.177
1052.952
1051.205
1048.201
1042.628
1030.29
1003.394
947.791
1058.403
1057.436
1056.414
1055.333
1054.183
1052.7
1050.652
1047.745
1042.683
1032.543
1012.249
966.6164
1059.32
1058.406
1057.441
1056.422
1055.342
1054.057
1052.51
1050.711
1048.331
1044.662
1038.266
1026.576
994.2774
1060.19
1059.323
1058.411
1057.45
1056.435
1055.326
1054.104
1052.794
1051.353
1049.678
1047.586
1044.749
1040.57
1025.913
1061.014
1060.193
1059.33
1058.422
1057.469
1056.473
1055.411
1054.285
1053.09
1051.82
1050.466
1049.016
1047.459
1045.776
1043.93
1061.795
1061.017
1060.199
1059.341
1058.441
1057.496
1056.492
1055.431
1054.308
1053.116
1051.85
1050.501
1049.059
1047.51
1045.842
1044.44
1062.536
1061.798
1061.023
1060.21
1059.359
1058.463
1057.513
1056.511
1055.452
1054.331
1053.143
1051.88
1050.535
1049.096
1047.552
1046.36
1045.586
1063.239
1062.539
1061.805
1061.034
1060.227
1059.378
1058.478
1057.529
1056.529
1055.472
1054.354
1053.169
1051.909
1050.566
1049.13
1048.006
1047.336
1046.766
1063.904
1063.241
1062.545
1061.815
1061.05
1060.244
1059.391
1058.493
1057.546
1056.548
1055.493
1054.378
1053.194
1051.937
1050.596
1049.528
1048.865
1048.308
1047.904
1044.885
1045.923
1044.847
1047.328
1045.909
1044.768
1048.811
1047.325
1045.882
1044.644
1050.261
1048.811
1047.319
1045.841
1044.463
1051.642
1050.262
1048.812
1047.308
1045.792
1035.779
1052.944
1051.643
1050.264
1048.809
1047.287
1042.664
1009.372
1054.169
1052.945
1051.645
1050.264
1048.798
1045.207
1031.42
980.8029
1055.322
1054.17
1052.948
1051.647
1050.259
1047.51
1039.281
1016.655
956.5711
1056.408
1055.323
1054.173
1052.95
1051.644
1049.474
1044.497
1032.637
1003.852
941.8274
1057.433
1056.409
1055.326
1054.176
1052.95
1051.153
1047.952
1041.846
1028.111
998.3747
940.2565
1058.402
1057.435
1056.413
1055.33
1054.179
1052.626
1050.369
1047.002
1040.811
1028.023
1002.74
952.3856
1059.32
1058.405
1057.439
1056.418
1055.335
1053.968
1052.224
1050.112
1047.088
1041.982
1032.501
1015.106
975.2967
1060.189
1059.322
1058.409
1057.446
1056.427
1055.222
1053.813
1052.28
1050.504
1048.184
1044.776
1039.332
1030.309
1004.088
1061.013
1060.192
1059.328
1058.418
1057.458
1056.412
1055.266
1054.055
1052.766
1051.358
1049.753
1047.839
1045.474
1042.474
1032.502
1061.795
1061.016
1060.198
1059.338
1058.435
1057.494
1056.491
1055.43
1054.306
1053.115
1051.849
1050.499
1049.056
1047.506
1045.83
1043.923
1062.536
1061.798
1061.022
1060.208
1059.356
1058.461
1057.512
1056.509
1055.451
1054.33
1053.142
1051.88
1050.536
1049.098
1047.554
1046.354
1045.261
1063.238
1062.539
1061.804
1061.033
1060.225
1059.377
1058.477
1057.529
1056.528
1055.472
1054.354
1053.169
1051.91
1050.568
1049.133
1048.016
1047.327
1046.573
1063.904
1063.241
1062.545
1061.814
1061.049
1060.243
1059.39
1058.492
1057.546
1056.548
1055.493
1054.378
1053.195
1051.938
1050.598
1049.533
1048.874
1048.302
1047.812
1064.534
1063.906
1063.247
1062.554
1061.829
1061.065
1060.256
1059.404
1058.508
1057.563
1056.567
1055.515
1054.402
1053.221
1051.965
1050.951
1050.292
1049.726
1049.275
1048.973
1045.923
1044.848
1047.329
1045.91
1044.773
1048.812
1047.327
1045.885
1044.657
1050.262
1048.813
1047.322
1045.846
1044.488
1051.643
1050.264
1048.815
1047.314
1045.797
1044.277
1052.945
1051.645
1050.268
1048.816
1047.3
1044.697
1027.952
1054.17
1052.947
1051.648
1050.27
1048.808
1045.991
1036.639
997.8066
1055.322
1054.171
1052.949
1051.65
1050.265
1047.801
1041.087
1022.92
969.8777
1056.408
1055.324
1054.174
1052.951
1051.647
1049.559
1044.971
1034.273
1008.241
949.1906
1057.433
1056.409
1055.326
1054.176
1052.95
1051.153
1047.952
1041.846
1028.111
998.3747
940.2565
1058.402
1057.435
1056.412
1055.329
1054.176
1052.588
1050.219
1046.599
1039.775
1025.522
997.623
945.3715
1059.319
1058.404
1057.438
1056.416
1055.331
1053.907
1052.021
1049.669
1046.132
1039.86
1027.933
1006.432
963.3051
1060.188
1059.321
1058.408
1057.443
1056.421
1055.143
1053.577
1051.85
1049.762
1046.818
1042.126
1034.199
1021.082
990.0063
1061.012
1060.191
1059.326
1058.414
1057.451
1056.315
1055.004
1053.629
1052.152
1050.463
1048.335
1045.448
1041.385
1035.737
1020.381
1061.794
1061.015
1060.196
1059.334
1058.425
1057.436
1056.356
1055.223
1054.037
1052.783
1051.433
1049.941
1048.288
1046.54
1045.062
1040.216
1062.535
1061.797
1061.021
1060.205
1059.35
1058.459
1057.51
1056.508
1055.449
1054.329
1053.141
1051.88
1050.536
1049.1
1047.559
1046.408
1044.412
1063.238
1062.538
1061.803
1061.031
1060.222
1059.375
1058.476
1057.528
1056.528
1055.471
1054.354
1053.17
1051.912
1050.572
1049.139
1048.047
1047.327
1046.162
1063.903
1063.241
1062.544
1061.813
1061.047
1060.242
1059.389
1058.492
1057.545
1056.547
1055.493
1054.379
1053.197
1051.941
1050.602
1049.549
1048.899
1048.292
1047.592
1064.534
1063.906
1063.246
1062.554
1061.828
1061.064
1060.255
1059.404
1058.508
1057.563
1056.567
1055.515
1054.402
1053.222
1051.967
1050.957
1050.305
1049.739
1049.269
1048.876
1065.129
1064.536
1063.912
1063.256
1062.568
1061.843
1061.076
1060.268
1059.419
1058.524
1057.581
1056.587
1055.537
1054.425
1053.246
1052.283
1051.63
1051.054
1050.584
1050.243
1049.545
1047.33
1045.911
1044.776
1048.813
1047.328
1045.886
1044.666
1050.263
1048.815
1047.325
1045.85
1044.512
1051.644
1050.266
1048.818
1047.32
1045.803
1044.336
1052.946
1051.647
1050.271
1048.823
1047.313
1045.754
1044.144
1054.171
1052.948
1051.651
1050.276
1048.821
1046.868
1042.634
1023.653
1055.323
1054.173
1052.952
1051.655
1050.274
1048.187
1043.434
1031.338
990.7611
1056.409
1055.324
1054.175
1052.954
1051.652
1049.718
1045.84
1037.258
1016.438
964.0905
1057.433
1056.41
1055.327
1054.177
1052.952
1051.205
1048.201
1042.628
1030.29
1003.394
947.791
1058.402
1057.435
1056.412
1055.329
1054.176
1052.588
1050.219
1046.599
1039.775
1025.522
997.623
945.3715
1059.319
1058.403
1057.437
1056.415
1055.329
1053.877
1051.916
1049.432
1045.609
1038.681
1025.403
1001.768
957.4573
1060.188
1059.321
1058.406
1057.441
1056.417
1055.089
1053.412
1051.54
1049.206
1045.756
1040.015
1030.126
1014.126
981.3421
1061.012
1060.19
1059.324
1058.411
1057.445
1056.242
1054.794
1053.278
1051.631
1049.671
1047.024
1043.166
1037.463
1029.615
1012.827
1061.793
1061.014
1060.194
1059.33
1058.418
1057.345
1056.113
1054.843
1053.534
1052.152
1050.62
1048.812
1046.655
1044.26
1042.481
1035.796
1062.534
1061.796
1061.019
1060.202
1059.341
1058.404
1057.383
1056.317
1055.209
1054.058
1052.854
1051.587
1050.259
1048.966
1048.106
1047.21
1041.545
1063.237
1062.537
1061.801
1061.028
1060.217
1059.373
1058.474
1057.526
1056.526
1055.47
1054.353
1053.17
1051.914
1050.576
1049.149
1048.205
1047.393
1045.217
1063.903
1063.24
1062.543
1061.811
1061.044
1060.24
1059.388
1058.49
1057.545
1056.547
1055.493
1054.379
1053.199
1051.945
1050.61
1049.59
1048.971
1048.288
1047.142
1064.533
1063.906
1063.246
1062.552
1061.826
1061.063
1060.254
1059.403
1058.507
1057.563
1056.567
1055.516
1054.404
1053.225
1051.972
1050.974
1050.34
1049.775
1049.256
1048.645
1065.129
1064.536
1063.911
1063.255
1062.567
1061.843
1061.075
1060.268
1059.418
1058.524
1057.582
1056.588
1055.538
1054.427
1053.248
1052.289
1051.644
1051.073
1050.601
1050.236
1049.447
1065.692
1065.132
1064.541
1063.92
1063.269
1062.582
1061.854
1061.088
1060.282
1059.434
1058.541
1057.6
1056.608
1055.559
1054.449
1053.532
1052.89
1052.307
1051.813
1051.44
1050.754
1049.606
1048.813
1047.329
1045.887
1044.671
1050.264
1048.816
1047.327
1045.853
1044.529
1051.645
1050.268
1048.821
1047.324
1045.81
1044.382
1052.948
1051.649
1050.274
1048.828
1047.321
1045.766
1044.233
1054.172
1052.95
1051.655
1050.283
1048.837
1047.323
1045.721
1044.029
1055.324
1054.174
1052.955
1051.661
1050.286
1048.628
1046.017
1040.85
1021.169
1056.41
1055.326
1054.177
1052.959
1051.661
1049.934
1046.974
1041.094
1027.342
987.1157
1057.434
1056.411
1055.328
1054.18
1052.957
1051.305
1048.664
1044.052
1034.241
1012.731
963.0075
1058.402
1057.435
1056.413
1055.33
1054.179
1052.626
1050.369
1047.002
1040.811
1028.023
1002.74
952.3856
1059.319
1058.403
1057.437
1056.415
1055.329
1053.877
1051.916
1049.432
1045.609
1038.681
1025.403
1001.768
957.4573
1060.188
1059.32
1058.406
1057.439
1056.415
1055.062
1053.327
1051.378
1048.907
1045.172
1038.838
1027.867
1010.393
977.1724
1061.011
1060.189
1059.323
1058.409
1057.442
1056.192
1054.649
1053.03
1051.252
1049.071
1045.995
1041.336
1034.332
1024.985
1008.203
1061.793
1061.013
1060.192
1059.327
1058.413
1057.276
1055.918
1054.533
1053.116
1051.611
1049.889
1047.741
1045.029
1041.908
1039.828
1032.305
1062.534
1061.795
1061.017
1060.198
1059.334
1058.317
1057.153
1055.963
1054.763
1053.549
1052.303
1050.997
1049.623
1048.356
1047.816
1046.645
1038.063
1063.236
1062.536
1061.799
1061.024
1060.208
1059.32
1058.353
1057.345
1056.303
1055.23
1054.124
1052.987
1051.837
1050.753
1050.078
1049.748
1047.779
1042.961
1063.902
1063.239
1062.541
1061.808
1061.039
1060.239
1059.387
1058.489
1057.543
1056.546
1055.493
1054.379
1053.201
1051.95
1050.621
1049.772
1049.219
1048.326
1046.223
1064.533
1063.905
1063.244
1062.55
1061.823
1061.061
1060.253
1059.402
1058.506
1057.562
1056.567
1055.517
1054.406
1053.229
1051.979
1051.017
1050.431
1049.865
1049.242
1048.194
1065.129
1064.535
1063.911
1063.254
1062.566
1061.842
1061.075
1060.267
1059.418
1058.524
1057.582
1056.588
1055.539
1054.43
1053.253
1052.306
1051.682
1051.122
1050.642
1050.22
1049.218
1065.691
1065.131
1064.541
1063.92
1063.268
1062.581
1061.854
1061.088
1060.282
1059.434
1058.541
1057.6
1056.608
1055.56
1054.451
1053.539
1052.904
1052.328
1051.836
1051.458
1050.748
1049.508
1066.221
1065.694
1065.137
1064.55
1063.933
1063.282
1062.592
1061.866
1061.101
1060.297
1059.45
1058.558
1057.619
1056.628
1055.58
1054.709
1054.08
1053.495
1052.981
1052.568
1051.89
1050.809
1049.667
1050.265
1048.816
1047.328
1045.855
1044.539
1051.646
1050.269
1048.823
1047.327
1045.814
1044.414
1052.949
1051.65
1050.277
1048.833
1047.327
1045.777
1044.297
1054.173
1052.952
1051.658
1050.288
1048.846
1047.33
1045.741
1044.141
1055.325
1054.176
1052.958
1051.667
1050.302
1048.867
1047.327
1045.691
1043.939
1056.411
1055.327
1054.18
1052.964
1051.672
1050.191
1048.236
1045.249
1039.518
1019.907
1057.435
1056.412
1055.33
1054.184
1052.965
1051.446
1049.282
1045.885
1039.274
1025.078
986.4415
1058.403
1057.436
1056.414
1055.333
1054.183
1052.7
1050.652
1047.745
1042.683
1032.543
1012.249
966.6164
1059.319
1058.404
1057.438
1056.416
1055.331
1053.907
1052.021
1049.669
1046.132
1039.86
1027.933
1006.432
963.3051
1060.188
1059.32
1058.406
1057.439
1056.415
1055.062
1053.327
1051.378
1048.907
1045.172
1038.838
1027.867
1010.393
977.1724
1061.011
1060.189
1059.322
1058.408
1057.44
1056.167
1054.574
1052.902
1051.052
1048.746
1045.426
1040.31
1032.592
1022.497
1005.978
1061.792
1061.013
1060.191
1059.325
1058.41
1057.229
1055.784
1054.316
1052.818
1051.213
1049.328
1046.885
1043.693
1039.973
1037.734
1029.964
1062.533
1061.794
1061.016
1060.196
1059.33
1058.251
1056.969
1055.677
1054.396
1053.122
1051.823
1050.443
1048.95
1047.55
1047.071
1045.744
1035.158
1063.236
1062.535
1061.798
1061.021
1060.202
1059.237
1058.134
1057.011
1055.89
1054.781
1053.69
1052.624
1051.614
1050.786
1050.565
1050.116
1047.377
1040.221
1063.902
1063.238
1062.54
1061.805
1061.031
1060.188
1059.271
1058.316
1057.332
1056.323
1055.291
1054.244
1053.201
1052.235
1051.634
1051.449
1050.199
1048.478
1044.444
1064.532
1063.904
1063.243
1062.548
1061.819
1061.06
1060.252
1059.401
1058.505
1057.561
1056.567
1055.517
1054.408
1053.234
1051.991
1051.197
1050.722
1050.113
1049.241
1047.362
1065.128
1064.535
1063.909
1063.252
1062.563
1061.84
1061.073
1060.267
1059.417
1058.523
1057.581
1056.589
1055.541
1054.434
1053.26
1052.348
1051.775
1051.239
1050.734
1050.194
1048.779
1065.691
1065.131
1064.54
1063.919
1063.267
1062.58
1061.853
1061.087
1060.281
1059.434
1058.541
1057.601
1056.61
1055.563
1054.455
1053.555
1052.941
1052.38
1051.894
1051.5
1050.731
1049.279
1066.221
1065.694
1065.136
1064.549
1063.932
1063.282
1062.592
1061.865
1061.101
1060.296
1059.45
1058.559
1057.62
1056.629
1055.582
1054.715
1054.094
1053.516
1053.006
1052.593
1051.908
1050.802
1049.57
1066.72
1066.224
1065.699
1065.145
1064.562
1063.946
1063.292
1062.603
1061.878
1061.115
1060.312
1059.466
1058.576
1057.638
1056.648
1055.818
1055.205
1054.625
1054.097
1053.65
1052.964
1051.938
1050.863
1049.729
1051.647
1050.269
1048.824
1047.328
1045.817
1044.43
1052.949
1051.651
1050.279
1048.836
1047.331
1045.785
1044.338
1054.174
1052.953
1051.66
1050.293
1048.853
1047.336
1045.757
1044.22
1055.326
1054.177
1052.961
1051.672
1050.312
1048.872
1047.336
1045.72
1044.066
1056.412
1055.329
1054.183
1052.97
1051.687
1050.338
1048.886
1047.333
1045.671
1043.877
1057.436
1056.413
1055.333
1054.189
1052.975
1051.619
1049.99
1047.889
1044.662
1038.77
1019.664
1058.404
1057.437
1056.416
1055.336
1054.19
1052.805
1051.041
1048.721
1045.066
1038.266
1024.799
988.7121
1059.32
1058.405
1057.439
1056.418
1055.335
1053.968
1052.224
1050.112
1047.088
1041.982
1032.501
1015.106
975.2967
1060.188
1059.321
1058.406
1057.441
1056.417
1055.089
1053.412
1051.54
1049.206
1045.756
1040.015
1030.126
1014.126
981.3421
1061.011
1060.189
1059.322
1058.408
1057.44
1056.167
1054.574
1052.902
1051.052
1048.746
1045.426
1040.31
1032.592
1022.497
1005.978
1061.792
1061.012
1060.191
1059.324
1058.408
1057.205
1055.716
1054.204
1052.663
1051.002
1049.022
1046.407
1042.937
1038.884
1036.59
1028.795
1062.533
1061.793
1061.015
1060.194
1059.326
1058.207
1056.843
1055.478
1054.137
1052.816
1051.465
1050.005
1048.378
1046.816
1046.342
1044.946
1033.159
1063.235
1062.534
1061.796
1061.019
1060.198
1059.174
1057.958
1056.741
1055.552
1054.41
1053.322
1052.289
1051.339
1050.6
1050.55
1050.069
1046.688
1037.847
1063.901
1063.237
1062.538
1061.802
1061.025
1060.109
1059.061
1057.998
1056.942
1055.908
1054.913
1053.976
1053.139
1052.512
1052.377
1052.106
1050.554
1048.164
1042.308
1064.531
1063.903
1063.241
1062.545
1061.811
1061.011
1060.141
1059.236
1058.304
1057.35
1056.38
1055.401
1054.434
1053.544
1052.982
1052.825
1051.831
1050.751
1049.257
1045.976
1065.128
1064.534
1063.908
1063.249
1062.558
1061.838
1061.072
1060.265
1059.416
1058.522
1057.581
1056.589
1055.543
1054.438
1053.271
1052.518
1052.067
1051.541
1050.944
1050.154
1048.007
1065.69
1065.13
1064.539
1063.917
1063.264
1062.579
1061.852
1061.086
1060.281
1059.433
1058.541
1057.602
1056.612
1055.567
1054.462
1053.594
1053.032
1052.501
1052.017
1051.584
1050.697
1048.842
1066.221
1065.693
1065.135
1064.548
1063.931
1063.281
1062.591
1061.865
1061.1
1060.296
1059.45
1058.559
1057.621
1056.632
1055.586
1054.73
1054.129
1053.568
1053.067
1052.654
1051.95
1050.785
1049.34
1066.719
1066.223
1065.698
1065.144
1064.561
1063.946
1063.292
1062.603
1061.878
1061.115
1060.312
1059.467
1058.577
1057.639
1056.649
1055.824
1055.219
1054.645
1054.122
1053.678
1052.99
1051.956
1050.856
1049.631
1067.187
1066.722
1066.228
1065.707
1065.157
1064.575
1063.956
1063.303
1062.615
1061.891
1061.129
1060.327
1059.483
1058.594
1057.656
1056.867
1056.273
1055.7
1055.166
1054.694
1054.001
1053.006
1051.986
1050.918
1049.79
1052.95
1051.652
1050.28
1048.837
1047.333
1045.789
1044.359
1054.175
1052.954
1051.662
1050.295
1048.857
1047.34
1045.768
1044.27
1055.327
1054.179
1052.963
1051.676
1050.318
1048.877
1047.344
1045.741
1044.155
1056.413
1055.33
1054.185
1052.975
1051.696
1050.342
1048.891
1047.345
1045.706
1044.012
1057.437
1056.415
1055.335
1054.194
1052.989
1051.724
1050.361
1048.905
1047.343
1045.663
1043.844
1058.404
1057.438
1056.418
1055.341
1054.199
1052.939
1051.5
1049.818
1047.636
1044.347
1038.687
1020.425
1059.32
1058.406
1057.441
1056.422
1055.342
1054.057
1052.51
1050.711
1048.331
1044.662
1038.266
1026.576
994.2774
1060.188
1059.321
1058.408
1057.443
1056.421
1055.143
1053.577
1051.85
1049.762
1046.818
1042.126
1034.199
1021.082
990.0063
1061.011
1060.189
1059.323
1058.409
1057.442
1056.192
1054.649
1053.03
1051.252
1049.071
1045.995
1041.336
1034.332
1024.985
1008.203
1061.792
1061.012
1060.191
1059.324
1058.408
1057.205
1055.716
1054.204
1052.663
1051.002
1049.022
1046.407
1042.937
1038.884
1036.59
1028.795
1062.532
1061.793
1061.014
1060.193
1059.325
1058.184
1056.778
1055.376
1054.004
1052.655
1051.273
1049.762
1048.049
1046.384
1045.909
1044.491
1032.15
1063.235
1062.534
1061.795
1061.017
1060.195
1059.131
1057.838
1056.553
1055.316
1054.147
1053.053
1052.028
1051.089
1050.362
1050.39
1049.904
1046.059
1036.175
1063.9
1063.236
1062.537
1061.799
1061.02
1060.048
1058.893
1057.74
1056.623
1055.567
1054.596
1053.734
1053.024
1052.571
1052.632
1052.363
1050.572
1047.634
1040.407
1064.531
1063.902
1063.24
1062.542
1061.805
1060.935
1059.939
1058.93
1057.931
1056.958
1056.031
1055.174
1054.432
1053.896
1053.785
1053.553
1052.419
1051.048
1048.993
1044.345
1065.127
1064.533
1063.906
1063.246
1062.551
1061.792
1060.966
1060.107
1059.223
1058.32
1057.404
1056.482
1055.575
1054.742
1054.205
1054.043
1053.16
1052.297
1051.357
1050.083
1046.801
1065.69
1065.129
1064.538
1063.914
1063.26
1062.577
1061.851
1061.085
1060.28
1059.432
1058.54
1057.602
1056.613
1055.571
1054.472
1053.754
1053.31
1052.808
1052.285
1051.742
1050.639
1048.076
1066.22
1065.692
1065.134
1064.546
1063.928
1063.279
1062.59
1061.864
1061.1
1060.296
1059.45
1058.56
1057.623
1056.635
1055.593
1054.767
1054.215
1053.686
1053.197
1052.771
1052.026
1050.751
1048.905
1066.719
1066.223
1065.698
1065.143
1064.56
1063.945
1063.291
1062.602
1061.877
1061.114
1060.312
1059.467
1058.578
1057.642
1056.653
1055.838
1055.252
1054.695
1054.183
1053.743
1053.05
1051.998
1050.839
1049.402
1067.187
1066.722
1066.228
1065.706
1065.156
1064.574
1063.955
1063.303
1062.615
1061.891
1061.129
1060.328
1059.484
1058.595
1057.658
1056.872
1056.285
1055.719
1055.191
1054.722
1054.029
1053.033
1052.004
1050.911
1049.693
1067.623
1067.189
1066.727
1066.236
1065.719
1065.169
1064.584
1063.966
1063.315
1062.628
1061.905
1061.144
1060.343
1059.5
1058.611
1057.86
1057.286
1056.725
1056.192
1055.704
1055.007
1054.038
1053.048
1052.034
1050.973
1049.848
1054.175
1052.955
1051.663
1050.297
1048.858
1047.343
1045.773
1044.295
1055.328
1054.179
1052.964
1051.679
1050.321
1048.88
1047.349
1045.754
1044.213
1056.413
1055.331
1054.187
1052.978
1051.702
1050.346
1048.895
1047.354
1045.73
1044.108
1057.437
1056.416
1055.338
1054.199
1052.998
1051.727
1050.364
1048.911
1047.358
1045.701
1043.981
1058.405
1057.439
1056.421
1055.346
1054.212
1053.024
1051.746
1050.384
1048.926
1047.36
1045.67
1043.837