/*--------------------------------*- C++ -*----------------------------------*\
| =========                 |                                                 |
| \\      /  F ield         | OpenFOAM: The Open Source CFD Toolbox           |
|  \\    /   O peration     | Version:  2306                                  |
|   \\  /    A nd           | Website:  www.openfoam.com                      |
|    \\/     M anipulation  |                                                 |
\*---------------------------------------------------------------------------*/
FoamFile
{
    version     2.0;
    format      ascii;
    arch        "LSB;label=32;scalar=64";
    class       volScalarField;
    location    "1.5";
    object      contErrCp;
}
// * * * * * * * * * * * * * * * * * * * * * * * * * * * * * * * * * * * * * //

dimensions      [1 -1 -3 -1 0 0 0];

internalField   nonuniform List<scalar> 
52000
(
0
0
0
0
0
0
0
0
0
0
0
0
0
0
0
0
0
0
0
0
0
0
0
0
0
0
0
0
0
0
0
0
0
0
0
0
0
0
0
0
0
0
0
0
0
0
0
0
0
0
0
0
0
0
0
0
0
0
0
0
0
0
0
0
0
0
0
0
0
0
0
0
0
0
0
0
0
0
0
0
0
0
0
0
0
0
0
0
0
0
0
0
0
0
0
0
0
0
0
0
0
0
0
0
0
0
0
0
0
0
0
0
0
0
0
0
0
0
0
0
0
0
0
0
0
0
0
0
0
0
0
0
0
0
0
0
0
0
0
0
0
0
0
0
0
0
0
0
0
0
0
0
0
0
0
0
0
0
0
0
0
0
0
0
0
0
0
0
0
0
0
0
0
0
0
0
0
0
0
0
0
0
0
0
0
0
0
0
0
0
0
0
0
0
0
0
0
0
0
0
0
0
0
0
0
0
0
0
0
0
0
0
0
0
0
0
0
0
0
0
0
0
0
0
0
0
0
0
0
0
0
0
0
0
0
0
0
0
0
0
-0.0003549466
0
0
0
0
0
0
0
0
0
0
0
0
0
0
0
0
0
0
0
0
0
0
0
0
0
0
0
0
0
0
0
0
0
0
0
0
0
0
0
0
0
0
0
0
0
0
0
0
0
0
0
0
0
0
0
0
0
0
0
0
0
0
0
0
0
0.0002783331
0
0
0
0
0
-1.479548e-05
0.0006014728
0
0
0
0
0
0
0
0
0
0
0
0
0
0
0
0
0
0
0
0
0
0
0
0
0
0
0
0
0
0
0
0
0
0
0
0
0
0
0
0
0
0
0
0
0
0
0
0
0
0
0
0
0
0
0
0
0
0
0
0
0
0
0
0
0
0
0
0
0
0
0.0001297539
0
0
0
0
0
-2.865513e-05
-0.0002666256
0
0
0
0
0
-0.000131655
0.0005590814
-4.046244e-06
0
0
0
0
0
0
0
0
0
0
0
0
0
0
0
0
0
0
0
0
0
0
0
0
0
0
0
0
0
0
0
0
0
0
0
0
0
0
0
0
0
0
0
0
0
0
0
0
0
0
0
0
0
0
0
0
0
0
0
0
0
0
0
0
0
0
0
0
0
0
0
0
0
0
0
-0.000580103
0
0
0
0
0
0.0001483112
-0.0009927453
0
0
0
0
0
0.0001069949
-0.001080323
0.0003579949
0
0
0
0
0
-4.453222e-05
-0.0001779606
-0.0004402208
0.0001558648
0
0
0
0
0
0
0
0
0
0
0
0
0
0
0
0
0
0
0
0
0
0
0
0
0
0
0
0
0
0
0
0
0
0
0
0
0
0
0
0
0
0
0
0
0
0
0
0
0
0
0
0
0
0
0
0
0
0
0
0
0
0
0
0
0
0
0
0
0
0
0
0
0
0
0
0
0
0
0
0
-0.0002391217
0
0
0
0
0
-0.0001133294
0.001329044
0
0
0
0
0
6.304177e-05
-0.0003110009
0.0006858607
0
0
0
0
0
0.0001151085
0.001387536
-2.500998e-05
-0.0007937276
0
0
0
0
0
0.0004695345
0.0002858026
0.0004122489
-0.0002457619
0.0001051451
0
0
0
0
0
0
0
0
0
0
0
0
0
0
0
0
0
0
0
0
0
0
0
0
0
0
0
0
0
0
0
0
0
0
0
0
0
0
0
0
0
0
0
0
0
0
0
0
0
0
0
0
0
0
0
0
0
0
0
0
0
0
0
0
0
0
0
0
0
0
0
0
0
0
0
0
0
0
0
0
0
0
0
0
0
-0.0004516813
0
0
0
0
0
0.0004060176
0.0005045255
0
0
0
0
0
1.383447e-05
-0.0002669626
-0.001609572
0
0
0
0
0
2.147595e-05
-0.0006692466
0.0005975748
6.819152e-05
0
0
0
0
0
0.000304419
-0.0005928236
-0.001315512
0.00113013
-0.0006906854
0
0
0
0
0
0.0001827494
0.0002641177
-0.000405678
-6.760842e-05
-0.0001325329
-0.0001423508
0
0
0
0
0
0
0
0
0
0
0
0
0
0
0
0
0
0
0
0
0
0
0
0
0
0
0
0
0
0
0
0
0
0
0
0
0
0
0
0
0
0
0
0
0
0
0
0
0
0
0
0
0
0
0
0
0
0
0
0
0
0
0
0
0
0
0
0
0
7.7507e-07
0
0
0
0
0
0
0
0
0
0
0
0
0
0
0
0
0
0
0
0
0.0007023673
0
0
0
0
0
-0.0003097399
-0.000684566
0
0
0
0
0
-0.0007857256
0.000230082
-0.0004054935
0
0
0
0
0
-0.0006068137
-7.445854e-05
0.0003622951
0.0007381979
0
0
0
0
0
-0.0004545728
-0.0001169367
0.0009919709
-0.0002042717
-0.0005753803
0
0
0
0
0
-0.0001335375
-0.001912032
-6.700291e-05
0.000536704
-0.0002740359
0.0009346786
0
0
0
0
0
0.0001694264
-0.0004300652
-0.0001766838
8.702833e-05
-0.0003105423
0.0003669854
-0.0001862034
0
0
0
0
0
0
0
0
0
0
0
0
0
0
0
0
0
0
0
0
0
0
0
0
0
0
0
0
0
0
0
0
0
0
0
0
0
0
0
0
0
0
0
0
0
0
0
0
0
0
0
0
0
0
0
0
0
-2.38582e-06
0
0
0
0
0
0
0
0
0
0
0
0
0
0
0
4.657725e-07
-1.033467e-06
0
0
0
0
0
0
0
0
0
0
0
0
0
0
0
0
0
0
0
0
0.0001790445
0
0
0
0
0
0.0001621222
-0.0005620731
0
0
0
0
0
4.452067e-05
-0.0009558747
0.0001691246
0
0
0
0
0
0.0005148279
0.0002595988
0.0007094274
-0.0002601505
0
0
0
0
0
0.0001828641
0.001030837
-0.0007471327
-0.001660718
0.0003182789
0
0
0
0
0
0.0001632022
0.001365519
8.05893e-05
0.0004517231
-0.001288997
-0.0003534696
0
0
0
0
0
-0.0001929048
0.0009521499
-0.0002143464
-5.583893e-05
-0.001247625
-0.0001508941
0.0008139367
0
0
0
0
0
-0.0005590547
-0.0001266145
0.0001566447
0.0002204161
-0.0001513869
0.0005241553
-0.0002629894
0.0001958081
0
0
0
0
0
0
0
0
0
0
0
0
0
0
0
0
0
0
0
0
0
0
0
0
0
0
0
0
0
0
0
0
0
0
0
0
0
0
0
0
0
0
0
0
-1.163367e-06
0
0
0
0
0
0
0
0
0
0
0
0
0
0
0
-1.01831e-06
3.047929e-06
0
0
0
0
0
0
0
0
0
0
0
0
0
0
0
-6.347777e-07
3.09985e-08
-1.157152e-06
0
0
0
0
0
0
0
0
0
0
0
0
0
0
0
0
0
0
0
0
-0.0003000028
0
0
0
0
0
-6.665453e-05
-0.001373057
0
0
0
0
0
7.143305e-06
-0.0005068937
0.001833497
0
0
0
0
0
-0.0007602181
-0.000245819
-0.00137426
0.002212807
0
0
0
0
0
-0.0002267571
-0.001690411
0.0004145344
0.000454221
-0.000158585
0
0
0
0
0
0.0002995832
-3.860493e-05
0.00115297
-0.0002524164
0.000425198
0.001151377
0
0
0
0
0
-5.367833e-06
-0.0006550068
0.0007499038
0.0003756796
3.232288e-05
0.001586646
-0.0003849641
0
0
0
0
0
0.000665195
-0.0001114196
-0.001467718
0.001211744
0.0009750259
-0.000261061
0.0004991527
-0.0008572896
0
0
0
0
0
-0.0001689022
0.000840506
-0.0006504911
0.0003559654
0.0001078002
-0.0003176865
0.0004240707
0.0003672673
-9.475342e-06
0
0
0
0
0
0
0
0
0
0
0
0
0
0
0
0
0
0
0
0
0
0
0
0
0
0
0
0
0
0
-5.459453e-07
0
0
0
0
0
0
0
0
0
0
0
0
0
0
0
1.050315e-06
7.447093e-08
0
0
0
0
0
0
0
0
0
0
0
0
0
0
0
-8.257212e-07
-8.533194e-07
-1.954061e-06
0
0
0
0
0
0
0
0
0
0
0
0
0
0
0
9.141001e-07
6.286635e-08
-1.623318e-06
-6.054307e-07
0
0
0
0
0
0
0
0
0
0
0
0
0
0
0
0
0
0
0
0
-0.0003839863
0
0
0
0
0
-1.417567e-05
0.001578369
0
0
0
0
0
0.0002681868
-0.0001289297
-0.0005215634
0
0
0
0
0
0.0001151716
-0.0008140312
0.002642526
-0.00138113
0
0
0
0
0
0.000424513
0.002001105
0.0003943035
0.001848618
-0.001960612
0
0
0
0
0
-0.0005449489
-0.001661535
-0.0004552987
-0.0009878545
-0.0002425209
0.0006557879
0
0
0
0
0
-0.0004749358
-0.001506698
-0.0002334096
-0.001219883
0.0005283209
-0.0002446614
0.0006810679
0
0
0
0
0
-0.0001096519
0.0001239188
0.0006859092
-0.0001683555
-0.0007131851
0.000434635
-0.001432216
0.0002615418
0
0
0
0
0
0.0003095805
-0.002140244
0.001727516
0.0007441174
-0.0005831741
-0.001096403
0.001147391
-0.0007538079
0.000209835
0
0
0
0
0
-2.50941e-05
0.0001584481
-0.0002909981
0.0001632953
-0.000502583
-0.0008492371
-0.0004292409
-0.000480812
-0.0003019177
7.453008e-05
0
0
0
0
0
0
0
0
0
0
0
0
0
0
0
-7.250039e-07
0
0
0
0
0
0
0
0
0
0
0
0
0
0
0
2.990601e-07
-7.05914e-07
0
0
0
0
0
0
0
0
0
0
0
0
0
0
0
-1.396017e-06
-1.934117e-06
1.628145e-06
0
0
0
0
0
0
0
0
0
0
0
0
0
0
0
-6.950645e-07
5.989394e-07
-1.252826e-06
-2.927573e-07
0
0
0
0
0
0
0
0
0
0
0
0
0
0
0
-1.820686e-06
-5.412243e-07
-2.750687e-06
2.677043e-06
-3.838971e-07
0
0
0
0
0
0
0
0
0
0
0
0
0
0
0
0
0
0
0
0
0
0
0
0
0
-5.485677e-05
2.278661e-05
0
0
0
0
0
-0.000334692
-0.0002209531
0.001093163
0
0
0
0
0
-0.0001894137
0.0002248755
-0.0005098977
0.001632474
0
0
0
0
0
-0.001212821
-3.909524e-05
0.0006834878
-0.0009720916
-0.0002259979
0
0
0
0
0
-8.326056e-05
0.0005114057
0.0001492677
-9.154116e-05
0.0005136452
0.0001690642
0
0
0
0
0
-2.684279e-05
0.001200001
0.00027015
0.00127799
0.0003120396
-0.0007191525
-0.001671329
0
0
0
0
0
-0.000534679
0.0008071305
0.001417548
-9.425754e-05
-0.000412113
-0.001101877
0.0007295555
0.0002534193
0
0
0
0
0
-0.0002909429
-0.0001330621
-0.001836211
-0.001220206
0.0001677688
-4.053451e-05
-0.001168671
-0.0001719291
0.0005897832
0
0
0
0
0
1.557949e-05
-0.0002282275
0.001843151
-0.001318725
0.00107765
9.661781e-05
0.002192791
-0.001391313
0.0008154666
0.0002207972
0
0
0
0
0
0.0001933381
0.0003441649
0.0001112464
-0.0003409545
3.156212e-05
-0.0001855986
0.0005322067
7.942638e-05
-0.0003010167
-0.0001741409
-3.96098e-05
0
0
0
0
0
0
0
0
0
0
0
0
0
0
0
-1.477916e-06
2.824248e-06
0
0
0
0
0
0
0
0
0
0
0
0
0
0
0
-2.799455e-07
1.589024e-06
6.578377e-07
0
0
0
0
0
0
0
0
0
0
0
0
0
0
0
-3.49249e-07
1.847998e-06
-5.127721e-07
-6.613241e-07
0
0
0
0
0
0
0
0
0
0
0
0
0
0
0
9.430489e-08
-1.536453e-06
-8.290437e-07
8.402689e-07
1.9509e-06
0
0
0
0
0
0
0
0
0
0
0
0
0
0
0
5.970229e-07
4.968229e-06
9.90482e-07
9.211983e-07
-6.105524e-07
9.600818e-06
0
0
0
0
0
0
0
0
0
0
0
0
0
0
0
0
0
0
0
0
0
0
0
0
0
0
0
0
0
0
8.795286e-05
0.0004328704
0.0001003787
0
0
0
0
0
-0.0001644911
0.001038649
0.000467758
-0.002014283
0
0
0
0
0
0.0006415556
3.223462e-05
-0.0003174971
8.593466e-05
0.0001790873
0
0
0
0
0
-0.0003738376
0.0002116878
-3.508109e-05
0.0001699861
-0.0003275022
0.00211226
0
0
0
0
0
-0.0002163489
0.0005094623
0.0004122715
-0.0001835118
-0.000166187
-0.0004255258
0.0003965614
0
0
0
0
0
0.000995028
-0.0001292421
-0.0004118265
0.0002639883
-0.001918114
0.0003065771
0.000265551
7.165285e-05
0
0
0
0
0
-0.0002114701
0.0008188689
0.001087357
-0.00120053
8.802776e-05
-0.0003394481
-0.0004715541
0.0008839445
-0.0004377865
0
0
0
0
0
0.0001431439
-4.609882e-05
0.0004470473
0.00129919
-0.0006699435
-0.0006041617
-0.0004960949
0.0004973591
-0.0005727322
0.0002253511
0
0
0
0
0
2.171653e-05
-0.001788859
0.0003594044
0.0002852049
0.0006792332
0.001215201
0.000411996
9.291076e-05
0.001466358
9.398136e-05
-5.214787e-05
0
0
0
0
0
0.0002347882
0.0001732637
3.372287e-05
-0.001157995
0.0002478755
-1.418955e-05
5.102732e-05
-0.0006206021
-0.0002850432
0.0002497458
0.0002367633
-2.304159e-06
0
0
0
0
0
0
0
0
0
0
0
0
0
0
0
5.419161e-07
-8.282353e-07
-1.01293e-06
0
0
0
0
0
0
0
0
0
0
0
0
0
0
0
1.401159e-08
-2.318986e-06
-8.081778e-07
-3.657457e-07
0
0
0
0
0
0
0
0
0
0
0
0
0
0
0
2.473929e-06
9.157155e-07
-5.44766e-07
-1.631167e-06
2.0841e-06
0
0
0
0
0
0
0
0
0
0
0
0
0
0
0
-1.180377e-07
-3.25967e-06
6.157436e-07
-1.275109e-06
6.907683e-07
-1.498462e-05
0
0
0
0
0
0
0
0
0
0
0
0
0
0
0
-3.966746e-07
-1.303702e-06
-1.756546e-06
-1.67481e-06
-1.135528e-06
-2.232416e-05
-1.421221e-05
0
0
0
0
0
0
0
0
0
0
0
0
0
0
0
0
0
0
0
0
0
0
0
0
0
0
0
0
0
0
0
0
0
0
0
-9.763477e-05
-0.000129345
-0.000442338
0.0001305168
0
0
0
0
0
-0.0005659312
-2.669416e-05
-0.001172921
-9.814672e-05
0.001357792
0
0
0
0
0
0.0001865965
-0.001126757
5.573183e-05
-6.876747e-06
0.0004378936
-0.001116097
0
0
0
0
0
-0.0003762394
0.001280784
0.001451311
0.0003779093
-0.0003256803
0.001053604
-0.00150845
0
0
0
0
0
-0.0006029443
5.099485e-05
-0.0008905106
-0.0003642699
0.0004455853
-0.0002701458
-8.783311e-05
0.0007771698
0
0
0
0
0
0.0002219639
-0.001034058
0.0009630473
0.001293295
0.0006540837
0.001510908
0.0007253255
-0.001427285
0.0002880277
0
0
0
0
0
-8.442764e-05
0.0009179069
0.0002933418
-0.001083611
0.001116529
0.001118461
0.0007422524
0.002743591
-0.0007640495
0.0006655505
0
0
0
0
0
0.0004233942
0.001080934
0.0008437165
0.0002248276
-0.001582336
-0.001016556
0.000581832
-0.00125663
0.0009455986
-0.0005730575
-0.0002175025
0
0
0
0
0
-0.00066204
0.0002342359
0.0004002869
0.001380659
-0.0009036115
-0.001100053
-0.001354212
0.0003461466
-0.001066721
-0.0003747384
3.113072e-05
-2.929393e-07
0
0
0
0
0
1.997451e-06
-0.0004795842
0.0001104699
-0.0007959805
0.0001112806
-0.0003197286
-0.0003241723
-0.0001329226
-0.0003176351
0.0007816007
-6.60218e-05
-5.275948e-07
-2.27508e-07
0
0
0
0
0
0
0
0
0
0
0
0
0
0
0
8.887715e-07
2.230119e-06
1.407036e-06
2.059583e-06
0
0
0
0
0
0
0
0
0
0
0
0
0
0
0
-6.533205e-07
1.375237e-06
-2.95989e-07
-8.647367e-07
7.967565e-08
0
0
0
0
0
0
0
0
0
0
0
0
0
0
0
5.084384e-07
-2.036439e-06
-6.601432e-07
3.618081e-06
4.335859e-07
-1.358904e-05
0
0
0
0
0
0
0
0
0
0
0
0
0
0
0
-1.272389e-06
-2.23496e-07
4.546757e-06
-1.163378e-06
2.221861e-07
-2.116617e-06
9.501967e-06
0
0
0
0
0
0
0
0
0
0
0
0
0
0
0
3.600542e-07
1.205988e-06
2.883789e-06
2.499523e-06
7.864346e-07
-5.322347e-07
4.041605e-05
7.985513e-06
0
0
0
0
0
0
0
0
0
0
0
0
0
0
0
0
0
0
0
0
0
0
0
0
0
0
0
0
0
0
0
0
0
0
0
0
0
0
0
0
0.0001737778
0.0002065155
-8.264885e-05
-0.0001008379
-0.0004676773
0
0
0
0
0
-0.0004886057
0.001700617
-0.001086108
0.0009171014
0.0001470257
0.0001152276
0
0
0
0
0
0.0002132768
-0.0004345038
0.0004613185
0.001233464
-0.0001303481
-0.0008596106
-0.0009458038
0
0
0
0
0
0.0001668419
0.001243826
-0.000106439
-2.754796e-05
-0.000673925
3.003323e-06
-0.001086504
0.0009611431
0
0
0
0
0
-0.0003960391
0.0006902844
-0.001698962
0.0001502438
0.0005233557
-0.0006833832
-0.0004062074
0.0007984574
0.0003480812
0
0
0
0
0
-0.0003109916
0.0001056757
2.556903e-05
0.0003111355
-0.000683423
-0.0008939319
-0.000241707
-0.001131471
0.001853987
-0.0004262355
0
0
0
0
0
6.755603e-06
-0.000642723
-0.002013679
-0.001105064
-0.0001074509
0.0001974785
-0.0006592912
-0.0007519485
-0.001175673
0.0005279312
-0.0002117939
0
0
0
0
0
-4.897648e-05
-0.0007422011
-1.263698e-05
-0.0007176823
0.0007095167
0.001666582
0.0006788584
-0.0004101954
0.001524622
-0.001306335
0.0001341795
-2.632068e-06
0
0
0
0
0
-9.049169e-05
0.001513061
-0.0016053
0.0004317008
-0.0007580615
0.0009987978
0.0008053649
0.0002199344
0.001458383
-0.0009623457
-0.0001384156
-1.897605e-06
9.294685e-07
0
0
0
0
0
0.0001606338
-0.0001739197
3.975236e-05
0.0002447839
0.0001576328
0.0003086745
-0.000878217
5.739911e-05
0.0002371478
-1.445787e-05
-0.0002191262
2.484217e-08
-1.397442e-07
-9.785075e-07
0
0
0
0
0
0
0
0
0
0
0
0
0
0
0
-3.274702e-06
-1.437266e-06
2.941847e-06
1.293285e-06
-9.918255e-07
0
0
0
0
0
0
0
0
0
0
0
0
0
0
0
2.121982e-06
8.664421e-07
1.283155e-06
-1.10097e-06
1.430342e-06
1.527927e-05
0
0
0
0
0
0
0
0
0
0
0
0
0
0
0
5.230249e-07
-4.932058e-08
-1.333889e-06
-9.824439e-07
1.207414e-06
1.725219e-05
7.121793e-06
0
0
0
0
0
0
0
0
0
0
0
0
0
0
0
-1.093068e-06
2.071933e-06
-5.174307e-07
-1.465588e-06
2.179648e-06
6.763713e-06
4.64681e-06
-1.554161e-05
0
0
0
0
0
0
0
0
0
0
0
0
0
0
0
-8.555943e-07
2.030863e-07
-5.037508e-07
5.214042e-07
-6.035469e-07
-3.83658e-07
2.7107e-06
-3.812738e-05
2.148477e-06
0
0
0
0
0
0
0
0
0
0
0
0
0
0
0
0
0
0
0
0
0
0
0
0
0
0
0
0
0
0
0
0
0
0
0
0
0
0
0
0
0
0
0
0
0
0.0001123109
-0.000207344
0.0003534379
0.0001185541
-0.0002985314
-0.0007043163
0
0
0
0
0
-0.0004545274
0.0003527874
-0.0007589663
-0.0006274499
7.655469e-05
0.0007525273
0.001765268
0
0
0
0
0
-0.0001502471
-0.0001013079
-0.001274265
-0.000491238
-0.000661327
-7.367044e-05
3.552935e-05
-0.0001184222
0
0
0
0
0
0.0005102168
0.0003103602
-0.0005690919
0.0006888308
-0.0005271012
-0.001054727
0.0007488574
-0.0001769233
-0.0001316025
0
0
0
0
0
9.884771e-05
-0.0008743049
-0.0003758278
0.0002177433
-0.0007052834
-0.0006580431
0.001243139
-0.0004499761
-0.00170434
-0.0002134746
0
0
0
0
0
0.0001398944
-6.000517e-05
0.0007851255
0.0001611161
-0.0005884613
0.0005773328
0.0004582678
0.0004707995
-1.649141e-05
0.000165852
-0.0001650862
0
0
0
0
0
0.0003829136
0.0005724374
0.0005131207
-0.0006655832
0.0003279073
0.0001935653
-0.0005544412
-0.0007378333
0.0004497548
0.0002476287
-0.0001159446
5.734463e-07
0
0
0
0
0
-0.0001019993
-0.0007550947
0.0009313822
0.001443191
0.0006497565
-0.0005276924
-0.0001754197
0.001339683
-0.000341088
0.0007418986
8.180229e-05
-1.851712e-06
-2.638812e-06
0
0
0
0
0
6.142533e-05
0.0008723392
-0.0001349076
0.000208934
-0.0008288134
0.0005497811
0.001949919
0.0009352268
-0.0001624044
-0.0003341337
-5.32001e-05
2.712421e-07
3.174898e-06
1.562847e-06
0
0
0
0
0
0.0001221561
0.0001310883
0.0002064427
-0.0001883408
-0.0003101085
-0.0004137605
0.0002871062
-0.0004525085
0.0002203316
0.0004153283
-1.285157e-05
-1.391998e-07
3.65339e-07
-8.064659e-07
1.32942e-06
0
0
0
0
0
0
0
0
0
0
0
0
0
0
0
-1.712267e-06
4.769403e-07
-3.777281e-07
8.487427e-07
2.003588e-06
-5.206807e-06
0
0
0
0
0
0
0
0
0
0
0
0
0
0
0
-9.692038e-08
-2.869799e-06
-4.708018e-07
3.68662e-06
1.202315e-06
-1.712915e-06
-1.47245e-05
0
0
0
0
0
0
0
0
0
0
0
0
0
0
0
3.168372e-07
-1.083686e-06
6.582472e-07
-2.70845e-06
1.084593e-06
7.71302e-06
-3.243183e-05
-4.448982e-06
0
0
0
0
0
0
0
0
0
0
0
0
0
0
0
5.643638e-08
-6.981713e-08
-4.505403e-07
1.944296e-07
2.444037e-06
1.191604e-06
-1.441351e-05
1.571291e-05
8.238089e-06
0
0
0
0
0
0
0
0
0
0
0
0
0
0
0
-1.80518e-07
2.430808e-06
-1.682383e-06
1.013881e-06
-1.04939e-06
-1.294997e-05
-1.763596e-05
-8.022956e-06
1.571183e-05
-6.83543e-06
0
0
0
0
0
0
0
0
0
0
0
0
0
0
0
0
0
0
0
0
0
0
0
0
0
0
0
0
0
0
0
0
0
0
0
0
0
0
0
0
0
0
0
0
0
0
0
0
0
0
0.0001530882
7.018229e-05
-0.0002154085
-5.441336e-05
-0.0004699992
0.0001064793
0.0002846875
0
0
0
0
0
3.02216e-05
-8.585467e-05
0.0002437108
0.0006538686
1.192282e-05
0.0007892429
0.0007069429
-0.0009403605
0
0
0
0
0
-0.0003959565
-0.001006357
0.0003950656
0.0004838312
0.0001155751
0.0007338714
0.0006049281
0.0002798982
-0.0003618274
0
0
0
0
0
4.795632e-06
-0.000420415
-0.0005594259
0.0007479993
-0.0007456948
0.0008492255
0.0001368572
0.0001684246
-0.0005168401
0.0002853228
0
0
0
0
0
0.0001396792
9.422963e-05
0.0002344025
0.000115598
0.0006072395
0.0005981146
0.0007559634
-0.0004052788
4.451047e-05
9.681459e-05
0.0001170245
0
0
0
0
0
0.0006352402
-0.0008640494
0.0007744011
0.0002645059
-0.0002323693
-0.0002591469
0.0006962301
0.001346709
5.091347e-06
0.001197692
-6.984003e-05
1.979211e-07
0
0
0
0
0
-0.0004180521
-0.0005233798
-0.0004319749
-0.0008539042
0.0008335334
-0.0002814044
0.0003349784
-0.001276556
0.0001514724
0.0001539989
-8.100691e-05
-1.443083e-07
-7.867748e-07
0
0
0
0
0
-0.0004138896
-0.0003688914
0.001337213
-1.18462e-06
-0.0004881509
-0.0005727851
-0.00124663
-0.00183742
-0.0009141469
0.0001219059
-7.271805e-05
1.689884e-06
1.131027e-06
2.191471e-06
0
0
0
0
0
0.0007727377
0.0005688609
-0.001115229
-0.0009083098
0.0006675176
0.0001319047
-8.781811e-05
0.0005613093
-0.001070728
-0.001020672
0.0002075451
1.064775e-06
-3.637411e-06
2.808912e-06
3.218871e-08
0
0
0
0
0
-0.0001148973
-0.0002723007
-6.815816e-05
4.634908e-06
0.0004440448
-0.0003764341
9.22129e-05
-0.0002597694
0.001009148
0.0002577557
-4.37076e-05
-2.595839e-06
8.099829e-07
2.420628e-06
9.126339e-07
-1.114152e-05
0
0
0
0
0
0
0
0
0
0
0
0
0
0
0
9.624813e-07
9.114383e-07
-2.544691e-07
1.501576e-06
-1.119322e-06
8.115203e-06
-5.425758e-06
0
0
0
0
0
0
0
0
0
0
0
0
0
0
0
3.03652e-07
-1.434768e-06
1.329358e-06
2.650064e-06
-9.601986e-07
4.099908e-08
2.171929e-06
-9.520821e-06
0
0
0
0
0
0
0
0
0
0
0
0
0
0
0
-3.689646e-07
-1.872296e-06
1.069229e-06
-1.474255e-06
-6.519278e-07
2.152008e-05
1.017969e-06
1.564727e-05
-6.710932e-06
0
0
0
0
0
0
0
0
0
0
0
0
0
0
0
-1.149938e-06
2.017026e-07
-1.433567e-06
3.926073e-07
1.109217e-06
3.102555e-06
5.687196e-06
1.389367e-05
-1.296167e-05
1.715241e-05
0
0
0
0
0
0
0
0
0
0
0
0
0
0
0
-2.008453e-06
4.779202e-07
-7.360929e-07
9.506319e-07
-5.384792e-07
-4.875658e-06
2.197409e-05
7.910968e-06
3.901717e-06
1.974843e-06
-83005.3
0
0
0
0
0
0
0
0
0
0
0
0
0
0
0
0
0
0
0
0
0
0
0
0
0
0
0
0
0
0
0
0
0
0
0
0
0
0
0
0
0
0
0
0
0
0
0
0
0
0
0
0
0
0
0
-4.982579e-07
7.205866e-05
5.367503e-05
5.454982e-05
0.0001200589
-0.0001955645
0.0003311655
-0.0002725566
0
0
0
0
0
0.0001474895
0.0007188832
-0.0008074481
-0.0005428433
-6.245982e-05
0.0009085262
-0.001376065
-3.102703e-05
0.0001925163
0
0
0
0
0
-3.538385e-06
-0.0006042555
0.0009592059
-0.0002999036
0.0003970274
-0.0001582446
-0.0007411124
0.000165674
0.00201603
0.0004791884
0
0
0
0
0
-0.000463103
-0.0010559
0.0009294098
0.001481533
-0.0003117631
-0.0006186361
2.641755e-05
-0.001597666
0.001029285
0.0004690778
-0.0003926479
0
0
0
0
0
-0.0001024335
0.0005506794
-0.0005926581
-4.893321e-05
-0.0003078827
-5.837579e-05
-0.001233756
0.0001880151
-0.0008618591
-0.001190086
5.19128e-05
-1.984668e-07
0
0
0
0
0
0.0006677581
-0.0005530888
0.0002588576
-0.0004790583
-3.029755e-05
0.0007995199
0.0002671719
0.0008844091
-0.001128091
-8.265992e-05
-0.0002526844
-1.9835e-06
2.611503e-06
0
0
0
0
0
0.0001104218
0.000981829
0.0006731034
-0.0002743293
-0.0003883557
-0.0001720762
0.001740126
-0.0006804892
0.0002313346
-0.0004014509
-0.00011631
-1.028524e-06
1.390338e-06
1.102372e-06
0
0
0
0
0
-0.0003926289
5.946272e-05
0.0006008851
-0.0001995274
0.000400211
0.0005372732
-0.0009816338
-0.00056695
0.001581856
0.001029475
1.984569e-05
3.839288e-07
2.159494e-06
1.217587e-06
1.944547e-06
0
0
0
0
0
0.0004028626
-0.001253873
-0.000503673
0.0005565205
0.0009798861
3.407295e-05
0.0003618149
0.0005918051
-0.0006541314
-0.0002646498
0.0004084149
-5.590644e-07
1.514814e-06
-9.552264e-07
1.860909e-07
-1.661175e-05
0
0
0
0
0
-8.008617e-05
-0.0002389376
-9.613036e-05
-0.0003749087
0.00039871
-0.0004219044
0.0006419318
8.739494e-05
0.0003466453
0.0001514113
-0.0001310629
-3.964504e-06
2.99081e-06
-1.219662e-06
2.674181e-06
2.024919e-05
1.027867e-05
0
0
0
0
0
0
0
0
0
0
0
0
0
0
0
-1.30191e-07
-3.632231e-06
-1.495439e-06
-5.001121e-07
1.425965e-06
-9.239974e-07
-8.938749e-06
-3.581853e-06
0
0
0
0
0
0
0
0
0
0
0
0
0
0
0
7.170058e-08
-3.354725e-06
4.53118e-06
-2.744369e-07
-1.135456e-06
-4.756865e-06
2.259652e-06
-1.12792e-05
9.115921e-06
0
0
0
0
0
0
0
0
0
0
0
0
0
0
0
6.567263e-07
-1.144306e-06
4.175407e-07
-2.174253e-06
-1.024699e-06
7.264435e-06
-2.105246e-05
2.627717e-05
-2.127099e-05
1.947632e-06
0
0
0
0
0
0
0
0
0
0
0
0
0
0
0
1.937451e-06
-8.744605e-07
1.130717e-06
-7.729178e-07
9.35084e-07
6.951316e-06
-5.028959e-06
4.495517e-06
-2.471341e-05
-7.708916e-06
-83709.56
0
0
0
0
0
0
0
0
0
0
0
0
0
0
0
8.601216e-07
3.293392e-06
2.192523e-06
-2.96814e-07
-2.055261e-06
-1.180034e-05
2.546014e-05
-1.813305e-05
7.745717e-06
3.270457e-06
-75956.33
-83537.41
0
0
0
0
0
0
0
0
0
0
0
0
0
0
0
0
0
0
0
0
0
0
0
0
0
0
0
0
0
0
0
0
0
0
0
0
0
0
0
0
0
0
0
0
0
0
0
0
0
0
0
0
0
0
0
0
0
0
0
0
-0.0001055231
-0.0002221207
0.0005376663
-5.498728e-05
5.166891e-05
-0.0005344546
0.0007322027
-0.000778918
0.0002148861
0
0
0
0
0
-0.0005140494
0.00108773
-0.001540002
0.0006663393
0.0006830327
-0.001609812
0.0001672777
-0.001203557
-0.0007871812
-0.0007750749
0
0
0
0
0
-3.470163e-05
-0.0003998328
-0.0006994951
-0.002280226
-0.0008348534
-0.0001451591
-2.178982e-05
0.0009483246
-0.0003433401
-0.0008196073
-0.000246795
0
0
0
0
0
-0.0003889686
0.000950062
0.0008089083
-0.0002564755
-8.26326e-05
0.001104089
0.001148676
-0.0001737169
4.517221e-05
-0.0002432424
1.082004e-05
8.415973e-07
0
0
0
0
0
-0.0001965789
-0.0007924617
-0.0002951289
0.001188461
-0.000911851
-0.0008366411
-8.222506e-05
0.0004101336
-0.0006132712
-0.0001213254
0.00066151
-2.362839e-06
-3.118891e-06
0
0
0
0
0
-4.530666e-06
-0.001226963
-0.0002623933
-7.916827e-05
0.0006091593
0.0009348839
-0.0005414944
0.0005888008
0.0002486956
0.00112433
-3.69078e-05
-3.080777e-06
1.142259e-06
-4.872768e-09
0
0
0
0
0
0.0006795789
-0.0009940088
-0.0002473885
-0.0007906523
-0.0004134669
0.0003140853
0.001093548
-6.781757e-05
-0.0003611059
-0.0006916542
0.0005642462
1.347021e-06
-1.870399e-06
1.677541e-06
9.365688e-07
0
0
0
0
0
-0.000250592
-0.0004540982
-0.0004829676
0.0005987565
0.0005325258
0.0003455131
-0.0001850748
-0.0008460039
0.0003920737
-0.001079596
0.0001394159
-7.281739e-07
-2.007122e-06
1.283012e-06
6.200365e-07
-3.920929e-06
0
0
0
0
0
0.0002667739
-0.000506484
0.0003747014
0.001049749
-0.001656542
-0.0002517418
-0.0002368653
0.0007482283
0.0001808011
-0.001274653
0.0002200818
-3.272632e-07
-7.08816e-07
2.964772e-06
-4.263866e-06
7.818167e-06
1.285274e-05
0
0
0
0
0
-0.000198414
0.0003650864
0.000729299
1.251255e-05
-0.000157484
-0.0001382884
0.0002668631
-0.0006968268
-7.39348e-05
0.0002175094
1.109121e-05
2.03509e-06
-4.888753e-09
-3.822876e-06
-2.372914e-06
9.241529e-06
-3.052357e-05
-1.095197e-05
0
0
0
0
0
0
0
0
0
0
0
0
0
0
0
5.622607e-07
3.531439e-07
-6.919821e-07
-3.84967e-07
2.36021e-06
7.936163e-06
-5.501677e-06
1.389441e-06
-2.852212e-06
0
0
0
0
0
0
0
0
0
0
0
0
0
0
0
1.182605e-06
9.943802e-07
-9.617405e-07
-2.334811e-06
-3.672647e-07
-2.00389e-05
4.030293e-06
-1.610655e-06
3.979716e-06
-5.041479e-06
0
0
0
0
0
0
0
0
0
0
0
0
0
0
0
-6.688008e-08
3.240105e-07
9.701224e-07
2.053549e-06
6.85908e-08
-2.27383e-06
-5.613782e-06
-1.222254e-06
-2.672886e-05
7.386989e-06
-85127.2
0
0
0
0
0
0
0
0
0
0
0
0
0
0
0
-1.19414e-06
7.977525e-07
-3.0028e-07
1.361912e-06
9.296428e-07
2.192139e-05
1.254998e-06
9.302774e-06
-1.092243e-05
9.305955e-06
-76409.79
-84252.19
0
0
0
0
0
0
0
0
0
0
0
0
0
0
0
-4.92756e-07
3.170069e-07
-1.237366e-06
-4.973792e-07
7.168787e-10
1.955094e-06
6.31274e-06
-3.81054e-05
3.711283e-06
-4.781249e-06
-69972.27
-76420.21
-84984.47
0
0
0
0
0
0
0
0
0
0
0
0
0
0
0
0
0
0
0
0
0
0
0
0
0
0
0
0
0
0
0
0
0
0
0
0
0
0
0
0
0
0
0
0
0
0
0
0
0
0
0
0
0
0
0
0
0
0
0
0
0
0
0
0
0
0.0002688163
-0.000391121
0.000583324
-0.0005971339
-0.0002890945
0.000844918
0.0001110803
0.0004620623
-0.0001829728
0.0002768969
0
0
0
0
0
-0.0003251049
0.001027484
-0.000739297
0.001044715
0.0004653552
0.0003936125
0.0005305962
0.0003960227
0.001034682
0.0004149438
0.0004207931
0
0
0
0
0
0.0001670706
0.0004904136
0.0009574038
0.001408166
0.0009825366
-0.001025494
-7.745106e-05
-0.0002888792
0.0009543707
-0.0006677501
-0.0001162316
-3.103431e-06
0
0
0
0
0
-1.751378e-05
0.000412044
-2.483042e-05
-0.001476904
-0.0008704983
0.0007532242
-0.0006377937
-0.0007558066
-0.0002500898
0.0008077085
7.953115e-05
-1.452208e-06
2.119941e-07
0
0
0
0
0
0.0001972545
0.001103097
0.0002423686
-0.0001531554
-0.000378321
0.001613902
0.00040047
0.0002175493
-0.0007842339
-0.0002740152
6.831206e-05
4.600332e-07
2.03623e-06
4.555846e-06
0
0
0
0
0
-0.0009613918
0.001013715
0.0002305601
-0.0001719614
0.0003097793
-0.001405863
-0.0003042277
0.0008380173
-3.350777e-05
-0.000257627
-7.079666e-05
1.389343e-06
1.353983e-07
2.87639e-06
-1.411694e-06
0
0
0
0
0
-0.0004287629
4.827602e-05
0.0005135014
-0.0008152257
-0.0001787893
-0.0004907858
-0.0003403245
-4.57743e-05
0.0008901317
0.0006815973
0.0003506606
-5.53786e-08
2.3976e-06
-3.367587e-06
-2.379262e-06
1.627764e-05
0
0
0
0
0
-0.0007901684
0.0004446323
0.0009912177
-0.0003435249
-0.0003415412
-0.001059402
-0.0005690066
-0.001780905
8.508943e-05
0.0003646207
0.0006050287
-1.787253e-06
-2.492131e-06
-2.845338e-06
1.679863e-06
1.936189e-05
2.255285e-05
0
0
0
0
0
0.0002335753
-0.0006770757
6.113974e-05
7.205686e-05
-0.000188483
0.000234605
-0.001140523
0.0005247268
7.78094e-05
0.0002396476
0.0005120003
-2.904184e-07
-8.893625e-07
8.526429e-06
-1.614913e-07
-1.7322e-05
-1.395734e-05
-8.886892e-06
0
0
0
0
0
-9.83894e-06
0.0004335383
-0.0001536534
-7.352487e-05
0.0004059823
0.0005660819
0.0004382503
0.0004249654
-0.0002499761
-0.000180656
-0.0001279117
-9.161911e-07
-1.462025e-06
2.179334e-06
-5.684191e-07
9.872858e-06
-8.341906e-06
1.636472e-05
1.676458e-05
0
0
0
0
0
0
0
0
0
0
0
0
0
0
0
-3.241661e-07
-3.920214e-06
1.270085e-06
8.614059e-08
7.753182e-07
8.583473e-06
1.537528e-05
-4.856045e-06
-9.907989e-07
1.439417e-05
0
0
0
0
0
0
0
0
0
0
0
0
0
0
0
-2.503827e-07
-1.807653e-06
-7.164523e-07
-7.098497e-08
-1.723351e-06
-6.643596e-06
5.148077e-06
-2.816055e-06
2.748787e-06
4.560341e-06
-87250.08
0
0
0
0
0
0
0
0
0
0
0
0
0
0
0
1.1906e-06
-1.402456e-06
-1.024957e-06
-2.818141e-07
-7.291418e-07
-4.310655e-06
1.85034e-05
3.535973e-06
-1.721407e-07
7.510184e-06
-77299.16
-85690.74
0
0
0
0
0
0
0
0
0
0
0
0
0
0
0
-1.399746e-06
4.378737e-07
5.925946e-07
-5.066991e-07
-4.761238e-07
7.67703e-06
-2.224488e-05
-1.586994e-05
-6.562483e-06
-1.03083e-05
-70318.65
-76880.71
-85724.87
0
0
0
0
0
0
0
0
0
0
0
0
0
0
0
-1.479668e-06
-3.309003e-07
-8.870784e-07
2.385539e-06
-8.097366e-07
1.228779e-05
1.141278e-05
1.817763e-05
3.056733e-05
-7.392299e-07
-65169.64
-70384.67
-77668.45
-87387.05
0
0
0
0
0
0
0
0
0
0
0
0
0
0
0
0
0
0
0
0
0
0
0
0
0
0
0
0
0
0
0
0
0
0
0
0
0
0
0
0
0
0
0
0
0
0
0
0
0
0
0
0
0
0
0
0
0
0
0
0
0
0
0
0
0
0
0
0
0
0
0.0003471851
-0.0004809868
-0.0001069833
-2.639426e-05
9.627703e-05
0.0003761821
0.0003020937
-8.549491e-07
-0.0008977672
0.0004476058
0.0001103868
0
0
0
0
0
4.801165e-05
0.0001481857
-0.0009348472
0.0006654886
0.0001136885
-6.423777e-05
-0.001386866
0.0002738586
-0.001891829
-0.0002785513
-0.0001691178
6.656563e-07
0
0
0
0
0
-0.000463679
0.001241647
-0.001188202
0.0009531854
-0.001003721
-0.0008668383
0.001702798
0.0001627601
2.089496e-05
-0.0005626504
0.000329453
4.077825e-07
5.559185e-07
0
0
0
0
0
0.0002088742
-8.013284e-05
-0.0009347027
-0.000767027
0.0008640487
0.0006963716
-0.0005129853
-0.0009675822
0.00129645
0.0005463797
-0.0001546045
9.404761e-07
3.007629e-08
1.215839e-06
0
0
0
0
0
0.0009740581
-0.0002627901
-0.0002076938
0.001043528
0.0009969772
0.0005133707
-0.001346412
-0.0006023277
2.714325e-05
-0.0001410526
-0.0001815091
2.838613e-07
3.041693e-07
-2.87808e-06
1.7039e-06
0
0
0
0
0
6.09614e-05
0.0009304792
-0.001032715
4.53634e-05
0.0002375887
0.0005427861
0.001296939
4.684096e-05
-0.0006858481
-4.639485e-05
0.0004951082
-1.030048e-06
-5.605362e-06
3.530448e-06
8.549926e-08
1.45761e-05
0
0
0
0
0
0.0002028737
0.0005478133
0.0003932524
1.850297e-06
0.0004624397
-9.965257e-05
-0.0001773353
0.0007538741
-0.001110018
5.465568e-05
-4.74091e-05
-1.690928e-06
1.017158e-06
1.544324e-06
-2.440937e-06
2.697909e-05
-4.129702e-06
0
0
0
0
0
0.0003080419
-8.365627e-05
-0.0003833693
-0.0008059354
-0.0004366348
0.0001350801
0.00136731
0.0001101014
0.0006069278
-0.001146074
1.438934e-05
-1.502747e-06
-2.388849e-07
1.574468e-06
-2.176918e-06
7.473348e-06
-8.779985e-06
-2.998624e-05
0
0
0
0
0
-4.312524e-06
8.1866e-05
0.001202707
-0.0001345167
0.0005439199
-9.799076e-06
0.0002952479
0.00178304
-0.001266049
-4.59172e-05
-0.0001919924
-1.76019e-06
-1.264005e-06
1.687631e-06
1.221403e-06
1.164869e-05
-9.048101e-06
2.935716e-07
1.107549e-05
0
0
0
0
0
0.0001420276
-3.322771e-06
-0.0002722931
0.0004156749
-0.0002867655
-0.0002666044
-0.0004309954
-3.265153e-05
-0.0002930431
0.0004725029
5.3179e-05
-1.93757e-06
-7.365971e-07
6.150703e-07
-3.450133e-06
-9.940426e-06
-1.644196e-05
1.268658e-05
-5.512548e-06
1.544466e-06
0
0
0
0
0
0
0
0
0
0
0
0
0
0
0
1.359931e-06
-7.014337e-07
1.945645e-06
-2.270583e-07
7.703819e-07
1.407487e-06
1.933463e-05
-2.694973e-05
-1.054369e-05
2.614225e-06
-89987.41
0
0
0
0
0
0
0
0
0
0
0
0
0
0
0
3.245459e-07
1.240645e-06
3.859692e-06
2.573978e-06
-2.13048e-06
-5.975843e-07
-4.498991e-06
1.7573e-05
-2.145117e-06
-4.663572e-07
-78564.59
-87843.46
0
0
0
0
0
0
0
0
0
0
0
0
0
0
0
-8.504812e-07
-2.610574e-06
1.961178e-06
-6.077561e-07
-1.179985e-06
-2.048264e-06
1.404423e-05
-1.361872e-05
-3.584827e-06
8.683684e-06
-70990.89
-77784.16
-87215.18
0
0
0
0
0
0
0
0
0
0
0
0
0
0
0
1.215768e-06
3.967104e-08
3.137122e-07