/*--------------------------------*- C++ -*----------------------------------*\
| =========                 |                                                 |
| \\      /  F ield         | OpenFOAM: The Open Source CFD Toolbox           |
|  \\    /   O peration     | Version:  2306                                  |
|   \\  /    A nd           | Website:  www.openfoam.com                      |
|    \\/     M anipulation  |                                                 |
\*---------------------------------------------------------------------------*/
FoamFile
{
    version     2.0;
    format      ascii;
    arch        "LSB;label=32;scalar=64";
    class       volScalarField;
    location    "1.5";
    object      k;
}
// * * * * * * * * * * * * * * * * * * * * * * * * * * * * * * * * * * * * * //

dimensions      [1 1 -3 -1 0 0 0];

internalField   nonuniform List<scalar> 
52000
(
20
20
20
20
20
20
20
20
20
20
20
20
20
20
20
20
20
20
20
20
20
20
20
20
20
20
20
20
20
20
20
20
20
20
20
20
20
20
20
20
20
20
20
20
20
20
20
20
20
20
20
20
20
20
20
20
20
20
20
20
20
20
20
20
20
20
20
20
20
20
20
20
20
20
20
20
20
20
20
20
20
20
20
20
20
20
20
20
20
20
20
20
20
20
20
20
20
20
20
20
20
20
20
20
20
20
20
20
20
20
20
20
20
20
20
20
20
20
20
20
20
20
20
20
20
20
20
20
20
20
20
20
20
20
20
20
20
20
20
20
20
20
20
20
20
20
20
20
20
20
20
20
20
20
20
20
20
20
20
20
20
20
20
20
20
20
20
20
20
20
20
20
20
20
20
20
20
20
20
20
20
20
20
20
20
20
20
20
20
20
20
20
20
20
20
20
20
20
20
20
20
20
20
20
20
20
20
20
20
20
20
20
20
20
20
20
20
20
20
20
20
20
20
20
20
20
20
20
20
20
20
20
20
20
20
20
20
20
20
20
0.08846961
20
20
20
20
20
20
20
20
20
20
20
20
20
20
20
20
20
20
20
20
20
20
20
20
20
20
20
20
20
20
20
20
20
20
20
20
20
20
20
20
20
20
20
20
20
20
20
20
20
20
20
20
20
20
20
20
20
20
20
20
20
20
20
20
20
0.08772046
20
20
20
20
20
0.08935268
0.0877071
20
20
20
20
20
20
20
20
20
20
20
20
20
20
20
20
20
20
20
20
20
20
20
20
20
20
20
20
20
20
20
20
20
20
20
20
20
20
20
20
20
20
20
20
20
20
20
20
20
20
20
20
20
20
20
20
20
20
20
20
20
20
20
20
20
20
20
20
20
20
0.08729826
20
20
20
20
20
0.08918952
0.0858622
20
20
20
20
20
0.08959383
0.0891884
0.08727381
20
20
20
20
20
20
20
20
20
20
20
20
20
20
20
20
20
20
20
20
20
20
20
20
20
20
20
20
20
20
20
20
20
20
20
20
20
20
20
20
20
20
20
20
20
20
20
20
20
20
20
20
20
20
20
20
20
20
20
20
20
20
20
20
20
20
20
20
20
20
20
20
20
20
20
0.08705552
20
20
20
20
20
0.08904767
0.08469052
20
20
20
20
20
0.08953565
0.08870736
0.08467155
20
20
20
20
20
0.08978943
0.08954107
0.08904699
0.08701849
20
20
20
20
20
20
20
20
20
20
20
20
20
20
20
20
20
20
20
20
20
20
20
20
20
20
20
20
20
20
20
20
20
20
20
20
20
20
20
20
20
20
20
20
20
20
20
20
20
20
20
20
20
20
20
20
20
20
20
20
20
20
20
20
20
20
20
20
20
20
20
20
20
20
20
20
20
20
20
20
0.08694223
20
20
20
20
20
0.088943
0.08397971
20
20
20
20
20
0.08948337
0.0882834
0.08289182
20
20
20
20
20
0.08976415
0.08937269
0.08828021
0.08392871
20
20
20
20
20
0.08996241
0.08977172
0.08949536
0.08894335
0.08688875
20
20
20
20
20
20
20
20
20
20
20
20
20
20
20
20
20
20
20
20
20
20
20
20
20
20
20
20
20
20
20
20
20
20
20
20
20
20
20
20
20
20
20
20
20
20
20
20
20
20
20
20
20
20
20
20
20
20
20
20
20
20
20
20
20
20
20
20
20
20
20
20
20
20
20
20
20
20
20
20
20
20
20
20
20
0.08694223
20
20
20
20
20
0.08888746
0.08364038
20
20
20
20
20
0.08944336
0.08796787
0.0817602
20
20
20
20
20
0.08974206
0.089219
0.0875919
0.08171581
20
20
20
20
20
0.08994864
0.08970303
0.08922546
0.08795758
0.08353925
20
20
20
20
20
0.09011953
0.08995644
0.08975812
0.08946378
0.08888952
0.08686703
20
20
20
20
20
20
20
20
20
20
20
20
20
20
20
20
20
20
20
20
20
20
20
20
20
20
20
20
20
20
20
20
20
20
20
20
20
20
20
20
20
20
20
20
20
20
20
20
20
20
20
20
20
20
20
20
20
20
20
20
20
20
20
20
20
20
20
20
20
0.3627222
20
20
20
20
20
20
20
20
20
20
20
20
20
20
20
20
20
20
20
20
0.08705552
20
20
20
20
20
0.08888746
0.08364038
20
20
20
20
20
0.08942159
0.08779964
0.08120571
20
20
20
20
20
0.08972536
0.0891003
0.08707246
0.0802627
20
20
20
20
20
0.08993712
0.08964138
0.08897503
0.08705991
0.08108152
20
20
20
20
20
0.09011015
0.08992218
0.08965101
0.08911473
0.08777825
0.08346821
20
20
20
20
20
0.09026397
0.0901175
0.08995352
0.0897521
0.089453
0.08889326
0.08695258
20
20
20
20
20
20
20
20
20
20
20
20
20
20
20
20
20
20
20
20
20
20
20
20
20
20
20
20
20
20
20
20
20
20
20
20
20
20
20
20
20
20
20
20
20
20
20
20
20
20
20
20
20
20
20
20
20
0.3627121
20
20
20
20
20
20
20
20
20
20
20
20
20
20
20
0.3628563
0.3627992
20
20
20
20
20
20
20
20
20
20
20
20
20
20
20
20
20
20
20
20
0.08729826
20
20
20
20
20
0.088943
0.08397971
20
20
20
20
20
0.08942159
0.08779964
0.08120571
20
20
20
20
20
0.08971632
0.08903538
0.08679332
0.07953712
20
20
20
20
20
0.08992866
0.0895942
0.08877918
0.08637441
0.07943858
20
20
20
20
20
0.09010258
0.08989245
0.08955297
0.08878655
0.08675778
0.08096163
20
20
20
20
20
0.09025645
0.09009594
0.08990252
0.08961685
0.08906067
0.08776631
0.08371406
20
20
20
20
20
0.09039771
0.0902632
0.09011808
0.08995583
0.08975671
0.08946777
0.08895741
0.08715999
20
20
20
20
20
20
20
20
20
20
20
20
20
20
20
20
20
20
20
20
20
20
20
20
20
20
20
20
20
20
20
20
20
20
20
20
20
20
20
20
20
20
20
20
0.3626911
20
20
20
20
20
20
20
20
20
20
20
20
20
20
20
0.3628498
0.3627876
20
20
20
20
20
20
20
20
20
20
20
20
20
20
20
0.3629808
0.3629263
0.3628777
20
20
20
20
20
20
20
20
20
20
20
20
20
20
20
20
20
20
20
20
0.08772046
20
20
20
20
20
0.08904767
0.08469052
20
20
20
20
20
0.08944336
0.08796787
0.0817602
20
20
20
20
20
0.08971632
0.08903538
0.08679332
0.07953712
20
20
20
20
20
0.08992415
0.08956849
0.08867135
0.08600333
0.07860936
20
20
20
20
20
0.09009716
0.08987032
0.08947685
0.08852722
0.08597278
0.07927934
20
20
20
20
20
0.0902505
0.09007785
0.08985724
0.08949109
0.08868849
0.08672885
0.08135734
20
20
20
20
20
0.09039115
0.09024666
0.09008744
0.08989422
0.08960909
0.08907736
0.08792897
0.08430604
20
20
20
20
20
0.0905221
0.0903973
0.09026478
0.09012287
0.08996501
0.08977426
0.08951015
0.08908056
0.08753258
20
20
20
20
20
20
20
20
20
20
20
20
20
20
20
20
20
20
20
20
20
20
20
20
20
20
20
20
20
20
0.3626559
20
20
20
20
20
20
20
20
20
20
20
20
20
20
20
0.3628368
0.3627627
20
20
20
20
20
20
20
20
20
20
20
20
20
20
20
0.3629753
0.3629198
0.362865
20
20
20
20
20
20
20
20
20
20
20
20
20
20
20
0.3630923
0.3630419
0.3629972
0.3629579
20
20
20
20
20
20
20
20
20
20
20
20
20
20
20
20
20
20
20
20
0.08846961
20
20
20
20
20
0.08918952
0.0858622
20
20
20
20
20
0.08948337
0.0882834
0.08289182
20
20
20
20
20
0.08972536
0.0891003
0.08707246
0.0802627
20
20
20
20
20
0.08992415
0.08956849
0.08867135
0.08600333
0.07860936
20
20
20
20
20
0.09009432
0.08985848
0.08943503
0.08838355
0.08554582
0.07842818
20
20
20
20
20
0.09024629
0.09006479
0.08982301
0.08939223
0.08839224
0.08592911
0.07979056
20
20
20
20
20
0.09038598
0.09023307
0.09006115
0.08983853
0.08947006
0.08870481
0.08698436
0.08229465
20
20
20
20
20
0.09051615
0.09038311
0.09024195
0.09008763
0.0899014
0.08963412
0.08916963
0.08825669
0.08532389
20
20
20
20
20
0.09063821
0.09052177
0.09039907
0.09027005
0.09013298
0.08998236
0.08980622
0.0895804
0.08926056
0.08819328
20
20
20
20
20
20
20
20
20
20
20
20
20
20
20
0.3625867
20
20
20
20
20
20
20
20
20
20
20
20
20
20
20
0.3628175
0.3627177
20
20
20
20
20
20
20
20
20
20
20
20
20
20
20
0.3629645
0.3629071
0.3628371
20
20
20
20
20
20
20
20
20
20
20
20
20
20
20
0.3630873
0.3630369
0.3629908
0.3629444
20
20
20
20
20
20
20
20
20
20
20
20
20
20
20
0.363194
0.3631454
0.3631037
0.3630691
0.36304
20
20
20
20
20
20
20
20
20
20
20
20
20
20
20
20
20
20
20
20
20
20
20
20
20
0.08935268
0.0877071
20
20
20
20
20
0.08953565
0.08870736
0.08467155
20
20
20
20
20
0.08974206
0.089219
0.0875919
0.08171581
20
20
20
20
20
0.08992866
0.0895942
0.08877918
0.08637441
0.07943858
20
20
20
20
20
0.09009432
0.08985848
0.08943503
0.08838355
0.08554582
0.07842818
20
20
20
20
20
0.0902441
0.09005794
0.08980451
0.0893375
0.08822743
0.08549355
0.07900234
20
20
20
20
20
0.09038234
0.09022348
0.0900419
0.08979581
0.0893596
0.08840696
0.08625799
0.08098651
20
20
20
20
20
0.09051145
0.09037156
0.09022282
0.09005686
0.08984285
0.08950021
0.08884223
0.08750215
0.08384218
20
20
20
20
20
0.09063272
0.09050893
0.09037971
0.09024464
0.09009897
0.08992729
0.08969509
0.08933369
0.08872635
0.08695646
20
20
20
20
20
0.09074688
0.09063787
0.09052348
0.09040422
0.0902799
0.09014932
0.09000905
0.08985411
0.08968111
0.08950763
0.3622662
20
20
20
20
20
20
20
20
20
20
20
20
20
20
20
0.3627951
0.3626262
20
20
20
20
20
20
20
20
20
20
20
20
20
20
20
0.3629493
0.3628889
0.3627865
20
20
20
20
20
20
20
20
20
20
20
20
20
20
20
0.3630777
0.3630274
0.3629782
0.3629149
20
20
20
20
20
20
20
20
20
20
20
20
20
20
20
0.3631894
0.363141
0.3630991
0.3630627
0.3630262
20
20
20
20
20
20
20
20
20
20
20
20
20
20
20
0.3632882
0.3632403
0.3631991
0.3631663
0.363142
0.6360503
20
20
20
20
20
20
20
20
20
20
20
20
20
20
20
20
20
20
20
20
20
20
20
20
20
20
20
20
20
20
0.08959383
0.0891884
0.08727381
20
20
20
20
20
0.08976415
0.08937269
0.08828021
0.08392871
20
20
20
20
20
0.08993712
0.08964138
0.08897503
0.08705991
0.08108152
20
20
20
20
20
0.09009716
0.08987032
0.08947685
0.08852722
0.08597278
0.07927934
20
20
20
20
20
0.0902441
0.09005794
0.08980451
0.0893375
0.08822743
0.08549355
0.07900234
20
20
20
20
20
0.09038046
0.09021852
0.09003172
0.08977252
0.08929805
0.08824084
0.08586305
0.08033689
20
20
20
20
20
0.09050815
0.09036348
0.09020917
0.09003401
0.08979725
0.08939265
0.08857932
0.08692425
0.08290672
20
20
20
20
20
0.09062837
0.09049852
0.09036369
0.09022305
0.09006867
0.08987509
0.0895855
0.08908991
0.08822925
0.08615613
20
20
20
20
20
0.09074177
0.09062602
0.09050603
0.09038297
0.09025656
0.09012355
0.08997429
0.08979268
0.08956114
0.08930679
0.361922
20
20
20
20
20
0.09084882
0.09074652
0.09063947
0.09052833
0.09041351
0.09029508
0.0901729
0.09004699
0.08992317
0.08983282
0.3628181
0.3623782
20
20
20
20
20
20
20
20
20
20
20
20
20
20
20
0.362936
0.3628697
0.3626903
20
20
20
20
20
20
20
20
20
20
20
20
20
20
20
0.3630641
0.3630155
0.3629604
0.3628623
20
20
20
20
20
20
20
20
20
20
20
20
20
20
20
0.3631804
0.3631327
0.3630905
0.3630501
0.3629962
20
20
20
20
20
20
20
20
20
20
20
20
20
20
20
0.3632838
0.3632362
0.3631951
0.3631619
0.3631356
0.6360424
20
20
20
20
20
20
20
20
20
20
20
20
20
20
20
0.3633759
0.3633288
0.3632872
0.3632535
0.3632296
0.6361053
0.6360536
20
20
20
20
20
20
20
20
20
20
20
20
20
20
20
20
20
20
20
20
20
20
20
20
20
20
20
20
20
20
20
20
20
20
20
0.08978943
0.08954107
0.08904699
0.08701849
20
20
20
20
20
0.08994864
0.08970303
0.08922546
0.08795758
0.08353925
20
20
20
20
20
0.09010258
0.08989245
0.08955297
0.08878655
0.08675778
0.08096163
20
20
20
20
20
0.09024629
0.09006479
0.08982301
0.08939223
0.08839224
0.08592911
0.07979056
20
20
20
20
20
0.09038046
0.09021852
0.09003172
0.08977252
0.08929805
0.08824084
0.08586305
0.08033689
20
20
20
20
20
0.09050645
0.09035934
0.09020207
0.09002181
0.08977216
0.08933235
0.0884324
0.0866109
0.0824496
20
20
20
20
20
0.09062532
0.09049126
0.09035238
0.09020745
0.09004576
0.08983351
0.08949564
0.08889147
0.08784692
0.08565565
20
20
20
20
20
0.09073772
0.0906164
0.09049163
0.09036515
0.09023634
0.09009949
0.08993801
0.0897234
0.0894232
0.0890882
0.3616512
20
20
20
20
20
0.09084405
0.09073548
0.09062333
0.09050922
0.09039437
0.09027926
0.09016331
0.09004466
0.08992806
0.08984776
0.3627773
0.3621022
20
20
20
20
20
0.09094462
0.09084845
0.09074801
0.09064401
0.09053702
0.09042759
0.09031645
0.09020559
0.09010192
0.09003628
0.3630109
0.3628709
0.3624939
20
20
20
20
20
20
20
20
20
20
20
20
20
20
20
0.3630534
0.3630105
0.3629411
0.3627699
20
20
20
20
20
20
20
20
20
20
20
20
20
20
20
0.3631678
0.3631229
0.3630805
0.3630321
0.362944
20
20
20
20
20
20
20
20
20
20
20
20
20
20
20
0.3632753
0.3632286
0.363188
0.3631539
0.3631229
0.6360254
20
20
20
20
20
20
20
20
20
20
20
20
20
20
20
0.3633718
0.3633249
0.3632835
0.3632498
0.3632253
0.6361016
0.6360457
20
20
20
20
20
20
20
20
20
20
20
20
20
20
20
0.363458
0.3634117
0.3633699
0.3633346
0.3633084
0.6361521
0.6361082
0.6360569
20
20
20
20
20
20
20
20
20
20
20
20
20
20
20
20
20
20
20
20
20
20
20
20
20
20
20
20
20
20
20
20
20
20
20
20
20
20
20
20
0.08996241
0.08977172
0.08949536
0.08894335
0.08688875
20
20
20
20
20
0.09011015
0.08992218
0.08965101
0.08911473
0.08777825
0.08346821
20
20
20
20
20
0.0902505
0.09007785
0.08985724
0.08949109
0.08868849
0.08672885
0.08135734
20
20
20
20
20
0.09038234
0.09022348
0.0900419
0.08979581
0.0893596
0.08840696
0.08625799
0.08098651
20
20
20
20
20
0.09050645
0.09035934
0.09020207
0.09002181
0.08977216
0.08933235
0.0884324
0.0866109
0.0824496
20
20
20
20
20
0.09062374
0.09048754
0.09034656
0.09019928
0.09003339
0.08981031
0.08944472
0.08877993
0.08763947
0.085412
20
20
20
20
20
0.09073486
0.09060969
0.09048152
0.09035247
0.09022149
0.09008062
0.08990728
0.08966266
0.0893043
0.08891181
0.3614691
20
20
20
20
20
0.09084025
0.0907265
0.09061003
0.09049328
0.09037807
0.0902648
0.09015148
0.09003232
0.08990714
0.08981292
0.3627179
0.3618752
20
20
20
20
20
0.09094016
0.09083812
0.09073294
0.09062632
0.09051985
0.09041527
0.09031448
0.09022089
0.09014276
0.09010841
0.3630357
0.3628365
0.3622731
20
20
20
20
20
0.09103479
0.09094426
0.09084984
0.09075226
0.09065214
0.09055012
0.09044726
0.09034579
0.09025289
0.09019567
0.363134
0.3630537
0.3629298
0.3626126
20
20
20
20
20
20
20
20
20
20
20
20
20
20
20
0.3631577
0.3631213
0.3630772
0.3630113
0.3628594
20
20
20
20
20
20
20
20
20
20
20
20
20
20
20
0.3632633
0.3632196
0.3631804
0.3631444
0.3631043
0.6359963
20
20
20
20
20
20
20
20
20
20
20
20
20
20
20
0.3633636
0.3633177
0.363277
0.3632433
0.3632174
0.6360943
0.6360287
20
20
20
20
20
20
20
20
20
20
20
20
20
20
20
0.363454
0.363408
0.3633665
0.3633313
0.3633049
0.6361497
0.6361045
0.636049
20
20
20
20
20
20
20
20
20
20
20
20
20
20
20
0.3635349
0.3634898
0.3634481
0.3634116
0.3633825
0.6361945
0.6361547
0.6361111
0.6360602
20
20
20
20
20
20
20
20
20
20
20
20
20
20
20
20
20
20
20
20
20
20
20
20
20
20
20
20
20
20
20
20
20
20
20
20
20
20
20
20
20
20
20
20
20
0.09011953
0.08995644
0.08975812
0.08946378
0.08888952
0.08686703
20
20
20
20
20
0.09025645
0.09009594
0.08990252
0.08961685
0.08906067
0.08776631
0.08371406
20
20
20
20
20
0.09038598
0.09023307
0.09006115
0.08983853
0.08947006
0.08870481
0.08698436
0.08229465
20
20
20
20
20
0.09050815
0.09036348
0.09020917
0.09003401
0.08979725
0.08939265
0.08857932
0.08692425
0.08290672
20
20
20
20
20
0.09062374
0.09048754
0.09034656
0.09019928
0.09003339
0.08981031
0.08944472
0.08877993
0.08763947
0.085412
20
20
20
20
20
0.09073338
0.09060626
0.09047633
0.0903459
0.09021363
0.09007021
0.0898896
0.08962722
0.08923599
0.0888145
0.3613779
20
20
20
20
20
0.09083757
0.09072024
0.09060071
0.090482
0.0903663
0.0902537
0.09014061
0.09001751
0.08988006
0.08977074
0.3626658
0.3617193
20
20
20
20
20
0.09093659
0.0908297
0.09072051
0.09061157
0.09050532
0.09040417
0.09031028
0.09022633
0.0901578
0.09012924
0.363037
0.3627884
0.3620859
20
20
20
20
20
0.09103061
0.09093457
0.09083572
0.0907357
0.09063618
0.09053911
0.09044719
0.09036476
0.09030126
0.09027863
0.3631743
0.3630728
0.3628987
0.3624373
20
20
20
20
20
0.09111976
0.09103445
0.09094557
0.09085385
0.09075989
0.09066438
0.09056836
0.09047412
0.09038814
0.09033471
0.3632321
0.3631709
0.3631006
0.3629923
0.3627335
20
20
20
20
20
20
20
20
20
20
20
20
20
20
20
0.3632534
0.3632183
0.3631809
0.3631396
0.3630813
0.6359508
20
20
20
20
20
20
20
20
20
20
20
20
20
20
20
0.3633522
0.3633091
0.3632702
0.3632365
0.3632076
0.6360835
0.6359997
20
20
20
20
20
20
20
20
20
20
20
20
20
20
20
0.3634462
0.3634012
0.3633603
0.3633254
0.3632987
0.6361452
0.6360973
0.6360321
20
20
20
20
20
20
20
20
20
20
20
20
20
20
20
0.3635311
0.3634863
0.3634448
0.3634085
0.3633794
0.6361925
0.6361523
0.6361075
0.6360524
20
20
20
20
20
20
20
20
20
20
20
20
20
20
20
0.3636073
0.3635634
0.3635222
0.363485
0.3634538
0.6362347
0.6361968
0.6361573
0.6361141
0.6360636
20
20
20
20
20
20
20
20
20
20
20
20
20
20
20
20
20
20
20
20
20
20
20
20
20
20
20
20
20
20
20
20
20
20
20
20
20
20
20
20
20
20
20
20
20
20
20
20
20
20
0.09026397
0.0901175
0.08995352
0.0897521
0.089453
0.08889326
0.08695258
20
20
20
20
20
0.09039115
0.09024666
0.09008744
0.08989422
0.08960909
0.08907736
0.08792897
0.08430604
20
20
20
20
20
0.09051145
0.09037156
0.09022282
0.09005686
0.08984285
0.08950021
0.08884223
0.08750215
0.08384218
20
20
20
20
20
0.09062532
0.09049126
0.09035238
0.09020745
0.09004576
0.08983351
0.08949564
0.08889147
0.08784692
0.08565565
20
20
20
20
20
0.09073338
0.09060626
0.09047633
0.0903459
0.09021363
0.09007021
0.0898896
0.08962722
0.08923599
0.0888145
0.3613779
20
20
20
20
20
0.09083618
0.09071703
0.09059592
0.09047618
0.09036015
0.09024767
0.09013414
0.09000786
0.08986234
0.08974418
0.3626361
0.3616405
20
20
20
20
20
0.09093406
0.09082383
0.0907118
0.09060116
0.0904949
0.09039581
0.09030577
0.09022625
0.09016012
0.09013119
0.3630305
0.362746
0.361955
20
20
20
20
20
0.09102725
0.09092667
0.09082405
0.09072189
0.09062269
0.09052928
0.09044511
0.09037468
0.0903258
0.09031408
0.3631928
0.363075
0.3628589
0.3622859
20
20
20
20
20
0.09111584
0.09102535
0.09093231
0.09083828
0.09074487
0.09065401
0.09056839
0.09049249
0.09043494
0.09041457
0.3632735
0.3632027
0.3631129
0.3629629
0.3625966
20
20
20
20
20
0.09119991
0.09111944
0.09103569
0.09094936
0.09086104
0.09077138
0.09068142
0.09059322
0.09051276
0.09046144
0.3633191
0.3632648
0.3632108
0.3631492
0.3630568
0.635887
20
20
20
20
20
20
20
20
20
20
20
20
20
20
20
0.3633423
0.3633073
0.3632711
0.3632358
0.3631996
0.6360697
0.6359546
20
20
20
20
20
20
20
20
20
20
20
20
20
20
20
0.3634352
0.3633928
0.3633537
0.3633195
0.3632916
0.6361393
0.6360864
0.6360032
20
20
20
20
20
20
20
20
20
20
20
20
20
20
20
0.3635237
0.3634797
0.3634389
0.3634029
0.3633738
0.636189
0.6361478
0.6361002
0.6360355
20
20
20
20
20
20
20
20
20
20
20
20
20
20
20
0.3636036
0.36356
0.363519
0.363482
0.3634508
0.6362329
0.6361948
0.6361549
0.6361104
0.6360558
20
20
20
20
20
20
20
20
20
20
20
20
20
20
20
0.3636754
0.3636329
0.3635924
0.363555
0.3635223
0.6362735
0.6362367
0.636199
0.6361598
0.636117
0.7270502
20
20
20
20
20
20
20
20
20
20
20
20
20
20
20
20
20
20
20
20
20
20
20
20
20
20
20
20
20
20
20
20
20
20
20
20
20
20
20
20
20
20
20
20
20
20
20
20
20
20
20
20
20
20
20
0.09039771
0.0902632
0.09011808
0.08995583
0.08975671
0.08946777
0.08895741
0.08715999
20
20
20
20
20
0.09051615
0.09038311
0.09024195
0.09008763
0.0899014
0.08963412
0.08916963
0.08825669
0.08532389
20
20
20
20
20
0.09062837
0.09049852
0.09036369
0.09022305
0.09006867
0.08987509
0.0895855
0.08908991
0.08822925
0.08615613
20
20
20
20
20
0.09073486
0.09060969
0.09048152
0.09035247
0.09022149
0.09008062
0.08990728
0.08966266
0.0893043
0.08891181
0.3614691
20
20
20
20
20
0.09083618
0.09071703
0.09059592
0.09047618
0.09036015
0.09024767
0.09013414
0.09000786
0.08986234
0.08974418
0.3626361
0.3616405
20
20
20
20
20
0.09093275
0.09082082
0.09070733
0.0905958
0.09048949
0.09039131
0.09030293
0.09022499
0.09015896
0.09012901
0.3630251
0.3627217
0.3618883
20
20
20
20
20
0.09102487
0.09092115
0.09081587
0.09071213
0.09061306
0.09052194
0.09044249
0.0903787
0.09033667
0.09032896
0.3632003
0.3630707
0.3628243
0.3621785
20
20
20
20
20
0.09111267
0.09101793
0.09092134
0.09082529
0.09073217
0.09064479
0.09056666
0.09050271
0.09046024
0.09045169
0.3632955
0.3632189
0.3631143
0.3629294
0.3624775
20
20
20
20
20
0.09119622
0.09111091
0.09102324
0.09093471
0.09084685
0.09076146
0.09068109
0.09060985
0.09055565
0.09053446
0.3633574
0.3632974
0.3632337
0.3631548
0.3630283
0.635819
20
20
20
20
20
0.09127555
0.09119962
0.09112065
0.0910393
0.09095616
0.09087187
0.09078737
0.09070459
0.09062886
0.09057936
0.3633994
0.3633484
0.3632997
0.3632518
0.3631986
0.6360543
0.6358916
20
20
20
20
20
20
20
20
20
20
20
20
20
20
20
0.3634253
0.3633902
0.3633541
0.3633194
0.3632879
0.6361337
0.6360726
0.6359584
20
20
20
20
20
20
20
20
20
20
20
20
20
20
20
0.3635131
0.3634715
0.3634324
0.3633972
0.3633678
0.6361847
0.6361419
0.6360893
0.6360067
20
20
20
20
20
20
20
20
20
20
20
20
20
20
20
0.3635965
0.3635536
0.3635133
0.3634767
0.3634456
0.6362297
0.6361912
0.6361503
0.6361031
0.6360389
20
20
20
20
20
20
20
20
20
20
20
20
20
20
20
0.3636719
0.3636297
0.3635894
0.3635521
0.3635195
0.6362719
0.6362349
0.6361971
0.6361574
0.6361134
0.7270444
20
20
20
20
20
20
20
20
20
20
20
20
20
20
20
0.3637396
0.3636986
0.3636591
0.3636219
0.3635883
0.6363112
0.6362753
0.6362387
0.6362013
0.6361624
0.72709
0.7270524
20
20
20
20
20
20
20
20
20
20
20
20
20
20
20
20
20
20
20
20
20
20
20
20
20
20
20
20
20
20
20
20
20
20
20
20
20
20
20
20
20
20
20
20
20
20
20
20
20
20
20
20
20
20
20
20
20
20
20
20
0.0905221
0.0903973
0.09026478
0.09012287
0.08996501
0.08977426
0.08951015
0.08908056
0.08753258
20
20
20
20
20
0.09063272
0.09050893
0.09037971
0.09024464
0.09009897
0.08992729
0.08969509
0.08933369
0.08872635
0.08695646
20
20
20
20
20
0.09073772
0.0906164
0.09049163
0.09036515
0.09023634
0.09009949
0.08993801
0.0897234
0.0894232
0.0890882
0.3616512
20
20
20
20
20
0.09083757
0.09072024
0.09060071
0.090482
0.0903663
0.0902537
0.09014061
0.09001751
0.08988006
0.08977074
0.3626658
0.3617193
20
20
20
20
20
0.09093275
0.09082082
0.09070733
0.0905958
0.09048949
0.09039131
0.09030293
0.09022499
0.09015896
0.09012901
0.3630251
0.3627217
0.3618883
20
20
20
20
20
0.09102363
0.09091832
0.09081167
0.09070711
0.09060806
0.09051802
0.09044075
0.09037987
0.09034053
0.09033424
0.3632028
0.3630668
0.3628046
0.3621233
20
20
20
20
20
0.09111042
0.09101273
0.09091365
0.09081611
0.0907231
0.09063794
0.09056446
0.09050742
0.09047266
0.0904693
0.3633066
0.3632261
0.363111
0.3629012
0.362392
20
20
20
20
20
0.09119323
0.09110392
0.09101293
0.09092248
0.09083485
0.09075265
0.09067923
0.09061915
0.09057921
0.09056926
0.3633788
0.3633164
0.3632466
0.3631545
0.3629997
0.6357598
20
20
20
20
20
0.09127208
0.09119161
0.09110895
0.09102552
0.09094277
0.09086237
0.09078665
0.09071939
0.09066757
0.09064524
0.3634338
0.3633786
0.3633236
0.3632662
0.3631978
0.6360382
0.6358247
20
20
20
20
20
0.09134696
0.09127531
0.09120079
0.09112409
0.09104576
0.09096642
0.09088693
0.09080908
0.0907377
0.09068993
0.363475
0.363426
0.3633796
0.3633354
0.363293
0.6361304
0.6360571
0.6358963
20
20
20
20
20
20
20
20
20
20
20
20
20
20
20
0.3635032
0.3634683
0.363432
0.3633969
0.3633651
0.6361815
0.6361361
0.6360754
0.6359622
20
20
20
20
20
20
20
20
20
20
20
20
20
20
20
0.3635863
0.3635457
0.3635069
0.3634711
0.3634399
0.6362261
0.6361869
0.6361444
0.6360923
0.6360102
20
20
20
20
20
20
20
20
20
20
20
20
20
20
20
0.363665
0.3636235
0.3635838
0.363547
0.3635145
0.6362689
0.6362317
0.6361935
0.6361529
0.6361061
0.7270317
20
20
20
20
20
20
20
20
20
20
20
20
20
20
20
0.3637362
0.3636955
0.3636562
0.3636191
0.3635856
0.6363096
0.6362737
0.6362369
0.6361993
0.63616
0.7270873
0.7270465
20
20
20
20
20
20
20
20
20
20
20
20
20
20
20
0.3638002
0.3637608
0.3637224
0.3636857
0.3636518
0.6363476
0.6363128
0.6362771
0.6362407
0.6362035
0.7271238
0.7270919
0.727054
20
20
20
20
20
20
20
20
20
20
20
20
20
20
20
20
20
20
20
20
20
20
20
20
20
20
20
20
20
20
20
20
20
20
20
20
20
20
20
20
20
20
20
20
20
20
20
20
20
20
20
20
20
20
20
20
20
20
20
20
20
20
20
20
20
0.09063821
0.09052177
0.09039907
0.09027005
0.09013298
0.08998236
0.08980622
0.0895804
0.08926056
0.08819328
20
20
20
20
20
0.09074177
0.09062602
0.09050603
0.09038297
0.09025656
0.09012355
0.08997429
0.08979268
0.08956114
0.08930679
0.361922
20
20
20
20
20
0.09084025
0.0907265
0.09061003
0.09049328
0.09037807
0.0902648
0.09015148
0.09003232
0.08990714
0.08981292
0.3627179
0.3618752
20
20
20
20
20
0.09093406
0.09082383
0.0907118
0.09060116
0.0904949
0.09039581
0.09030577
0.09022625
0.09016012
0.09013119
0.3630305
0.362746
0.361955
20
20
20
20
20
0.09102363
0.09091832
0.09081167
0.09070711
0.09060806
0.09051802
0.09044075
0.09037987
0.09034053
0.09033424
0.3632028
0.3630668
0.3628046
0.3621233
20
20
20
20
20
0.09110925
0.09101007
0.09090969
0.09081138
0.09071839
0.09063429
0.09056301
0.0905091
0.09047763
0.09047642
0.3633112
0.3632287
0.3631081
0.3628853
0.3623478
20
20
20
20
20
0.09119111
0.09109903
0.09100568
0.09091383
0.09082627
0.09074611
0.09067705
0.09062351
0.09059107
0.09058634
0.3633902
0.3633265
0.3632527
0.3631516
0.3629768
0.6357172
20
20
20
20
20
0.09126926
0.09118504
0.09109925
0.091014
0.09093142
0.09085393
0.09078459
0.09072758
0.09068886
0.09067687
0.3634534
0.3633969
0.3633388
0.3632753
0.3631953
0.6360231
0.6357665
20
20
20
20
20
0.09134369
0.09126778
0.09118981
0.09111114
0.09103313
0.09095734
0.09088591
0.09082225
0.09077262
0.09074933
0.3635057
0.363453
0.3634016
0.3633511
0.3632997
0.6361281
0.6360409
0.6358305
20
20
20
20
20
0.09141439
0.09134676
0.09127645
0.0912041
0.09113026
0.0910555
0.09098066
0.09090736
0.09084
0.09079407
0.3635465
0.3634993
0.3634541
0.3634112
0.3633712
0.6361816
0.6361325
0.6360598
0.635901
20
20
20
20
20
20
20
20
20
20
20
20
20
20
20
0.3635764
0.363542
0.3635058
0.3634702
0.3634373
0.6362236
0.6361837
0.6361386
0.6360783
0.6359661
20
20
20
20
20
20
20
20
20
20
20
20
20
20
20
0.3636551
0.3636157
0.3635775
0.3635415
0.3635089
0.6362655
0.636228
0.6361892
0.636147
0.6360952
0.7270103
20
20
20
20
20
20
20
20
20
20
20
20
20
20
20
0.3637296
0.3636896
0.3636508
0.3636142
0.3635808
0.6363068
0.6362707
0.6362337
0.6361957
0.6361555
0.7270818
0.7270339
20
20
20
20
20
20
20
20
20
20
20
20
20
20
20
0.363797
0.3637578
0.3637196
0.3636831
0.3636492
0.6363461
0.6363112
0.6362754
0.6362389
0.6362016
0.727122
0.7270891
0.7270482
20
20
20
20
20
20
20
20
20
20
20
20
20
20
20
0.3638575
0.3638197
0.3637825
0.3637466
0.3637128
0.6363828
0.6363491
0.6363144
0.6362789
0.6362427
0.7271544
0.7271254
0.7270933
0.7270553
20
20
20
20
20
20
20
20
20
20
20
20
20
20
20
20
20
20
20
20
20
20
20
20
20
20
20
20
20
20
20
20
20
20
20
20
20
20
20
20
20
20
20
20
20
20
20
20
20
20
20
20
20
20
20
20
20
20
20
20
20
20
20
20
20
20
20
20
20
20
0.09074688
0.09063787
0.09052348
0.09040422
0.0902799
0.09014932
0.09000905
0.08985411
0.08968111
0.08950763
0.3622662
20
20
20
20
20
0.09084405
0.09073548
0.09062333
0.09050922
0.09039437
0.09027926
0.09016331
0.09004466
0.08992806
0.08984776
0.3627773
0.3621022
20
20
20
20
20
0.09093659
0.0908297
0.09072051
0.09061157
0.09050532
0.09040417
0.09031028
0.09022633
0.0901578
0.09012924
0.363037
0.3627884
0.3620859
20
20
20
20
20
0.09102487
0.09092115
0.09081587
0.09071213
0.09061306
0.09052194
0.09044249
0.0903787
0.09033667
0.09032896
0.3632003
0.3630707
0.3628243
0.3621785
20
20
20
20
20
0.09110925
0.09101007
0.09090969
0.09081138
0.09071839
0.09063429
0.09056301
0.0905091
0.09047763
0.09047642
0.3633112
0.3632287
0.3631081
0.3628853
0.3623478
20
20
20
20
20
0.09119
0.09109653
0.09100196
0.09090937
0.09082182
0.09074264
0.09067564
0.0906251
0.09059594
0.09059345
0.3633951
0.3633308
0.3632551
0.3631493
0.3629642
0.6356951
20
20
20
20
20
0.09126725
0.09118044
0.09109243
0.09100585
0.0909233
0.09084767
0.09078233
0.09073136
0.09069961
0.09069255
0.363464
0.363407
0.3633472
0.3632801
0.3631923
0.6360114
0.6357246
20
20
20
20
20
0.09134104
0.09126161
0.0911807
0.0911003
0.09102241
0.09094928
0.09088369
0.09082942
0.09079176
0.09077786
0.3635233
0.3634697
0.3634163
0.3633622
0.3633048
0.6361259
0.636026
0.6357732
20
20
20
20
20
0.09141132
0.09133971
0.09126615
0.09119194
0.09111837
0.09104688
0.09097945
0.09091917
0.09087166
0.09084784
0.3635739
0.3635232
0.3634737
0.3634259
0.3633794
0.6361833
0.63613
0.6360437
0.6358362
20
20
20
20
20
0.09147805
0.09141425
0.0913479
0.09127964
0.09121
0.09113953
0.09106902
0.09099996
0.09093638
0.09089234
0.3636143
0.3635689
0.3635248
0.3634825
0.3634428
0.6362245
0.6361834
0.6361347
0.6360626
0.6359057
20
20
20
20
20
20
20
20
20
20
20
20
20
20
20
0.3636453
0.3636116
0.3635758
0.36354
0.3635062
0.6362632
0.6362255
0.6361858
0.636141
0.6360812
0.7269775
20
20
20
20
20
20
20
20
20
20
20
20
20
20
20
0.3637201
0.363682
0.3636446
0.3636086
0.3635753
0.6363034
0.6362672
0.63623
0.6361914
0.6361495
0.7270736
0.7270126
20
20
20
20
20
20
20
20
20
20
20
20
20
20
20
0.3637906
0.3637521
0.3637144
0.3636782
0.3636445
0.6363434
0.6363084
0.6362725
0.6362357
0.636198
0.7271186
0.7270837
0.7270356
20
20
20
20
20
20
20
20
20
20
20
20
20
20
20
0.3638543
0.3638168
0.3637798
0.363744
0.3637103
0.6363814
0.6363476
0.6363128
0.6362772
0.6362409
0.7271529
0.7271236
0.7270906
0.7270494
20
20
20
20
20
20
20
20
20
20
20
20
20
20
20
0.3639116
0.3638755
0.3638396
0.3638047
0.3637712
0.6364167
0.6363841
0.6363505
0.636316
0.6362807
0.7271835
0.7271558
0.7271266
0.7270944
0.727056
20
20
20
20
20
20
20
20
20
20
20
20
20
20
20
20
20
20
20
20
20
20
20
20
20
20
20
20
20
20
20
20
20
20
20
20
20
20
20
20
20
20
20
20
20
20
20
20
20
20
20
20
20
20
20
20
20
20
20
20
20
20
20
20
20
20
20
20
20
0.3625867
20
20
20
20
20
0.09084882
0.09074652
0.09063947
0.09052833
0.09041351
0.09029508
0.0901729
0.09004699
0.08992317
0.08983282
0.3628181
0.3623782
20
20
20
20
20
0.09094016
0.09083812
0.09073294
0.09062632
0.09051985
0.09041527
0.09031448
0.09022089
0.09014276
0.09010841
0.3630357
0.3628365
0.3622731
20
20
20
20
20
0.09102725
0.09092667
0.09082405
0.09072189
0.09062269
0.09052928
0.09044511
0.09037468
0.0903258
0.09031408
0.3631928
0.363075
0.3628589
0.3622859
20
20
20
20
20
0.09111042
0.09101273
0.09091365
0.09081611
0.0907231
0.09063794
0.09056446
0.09050742
0.09047266
0.0904693
0.3633066
0.3632261
0.363111
0.3629012
0.362392
20
20
20
20
20
0.09119
0.09109653
0.09100196
0.09090937
0.09082182
0.09074264
0.09067564
0.0906251
0.09059594
0.09059345
0.3633951
0.3633308
0.3632551
0.3631493
0.3629642
0.6356951
20
20
20
20
20
0.09126621
0.09117808
0.09108893
0.09100164
0.09091909
0.09084435
0.0907809
0.09073272
0.09070404
0.09069915
0.3634687
0.3634115
0.363351
0.363282
0.3631903
0.636005
0.6357028
20
20
20
20
20
0.09133914
0.09125728
0.09117428
0.09109262
0.09101474
0.0909433
0.09088138
0.09083265
0.09080139
0.09079204
0.363533
0.3634791
0.3634248
0.3633688
0.3633079
0.6361241
0.6360144
0.6357319
20
20
20
20
20
0.09140881
0.09133391
0.09125759
0.09118175
0.09110826
0.09103921
0.09097716