/*--------------------------------*- C++ -*----------------------------------*\
| =========                 |                                                 |
| \\      /  F ield         | OpenFOAM: The Open Source CFD Toolbox           |
|  \\    /   O peration     | Version:  2306                                  |
|   \\  /    A nd           | Website:  www.openfoam.com                      |
|    \\/     M anipulation  |                                                 |
\*---------------------------------------------------------------------------*/
FoamFile
{
    version     2.0;
    format      ascii;
    arch        "LSB;label=32;scalar=64";
    class       volScalarField;
    location    "1.5";
    object      rhoCp;
}
// * * * * * * * * * * * * * * * * * * * * * * * * * * * * * * * * * * * * * //

dimensions      [1 -1 -2 -1 0 0 0];

internalField   nonuniform List<scalar> 
52000
(
5346000
5346000
5346000
5346000
5346000
5346000
5346000
5346000
5346000
5346000
5346000
5346000
5346000
5346000
5346000
5346000
5346000
5346000
5346000
5346000
5346000
5346000
5346000
5346000
5346000
5346000
5346000
5346000
5346000
5346000
5346000
5346000
5346000
5346000
5346000
5346000
5346000
5346000
5346000
5346000
5346000
5346000
5346000
5346000
5346000
5346000
5346000
5346000
5346000
5346000
5346000
5346000
5346000
5346000
5346000
5346000
5346000
5346000
5346000
5346000
5346000
5346000
5346000
5346000
5346000
5346000
5346000
5346000
5346000
5346000
5346000
5346000
5346000
5346000
5346000
5346000
5346000
5346000
5346000
5346000
5346000
5346000
5346000
5346000
5346000
5346000
5346000
5346000
5346000
5346000
5346000
5346000
5346000
5346000
5346000
5346000
5346000
5346000
5346000
5346000
5346000
5346000
5346000
5346000
5346000
5346000
5346000
5346000
5346000
5346000
5346000
5346000
5346000
5346000
5346000
5346000
5346000
5346000
5346000
5346000
5346000
5346000
5346000
5346000
5346000
5346000
5346000
5346000
5346000
5346000
5346000
5346000
5346000
5346000
5346000
5346000
5346000
5346000
5346000
5346000
5346000
5346000
5346000
5346000
5346000
5346000
5346000
5346000
5346000
5346000
5346000
5346000
5346000
5346000
5346000
5346000
5346000
5346000
5346000
5346000
5346000
5346000
5346000
5346000
5346000
5346000
5346000
5346000
5346000
5346000
5346000
5346000
5346000
5346000
5346000
5346000
5346000
5346000
5346000
5346000
5346000
5346000
5346000
5346000
5346000
5346000
5346000
5346000
5346000
5346000
5346000
5346000
5346000
5346000
5346000
5346000
5346000
5346000
5346000
5346000
5346000
5346000
5346000
5346000
5346000
5346000
5346000
5346000
5346000
5346000
5346000
5346000
5346000
5346000
5346000
5346000
5346000
5346000
5346000
5346000
5346000
5346000
5346000
5346000
5346000
5346000
5346000
5346000
5346000
5346000
5346000
5346000
5346000
5346000
5346000
5346000
5346000
5346000
5346000
5346000
330.1117
5346000
5346000
5346000
5346000
5346000
5346000
5346000
5346000
5346000
5346000
5346000
5346000
5346000
5346000
5346000
5346000
5346000
5346000
5346000
5346000
5346000
5346000
5346000
5346000
5346000
5346000
5346000
5346000
5346000
5346000
5346000
5346000
5346000
5346000
5346000
5346000
5346000
5346000
5346000
5346000
5346000
5346000
5346000
5346000
5346000
5346000
5346000
5346000
5346000
5346000
5346000
5346000
5346000
5346000
5346000
5346000
5346000
5346000
5346000
5346000
5346000
5346000
5346000
5346000
5346000
333.3396
5346000
5346000
5346000
5346000
5346000
326.3926
333.3993
5346000
5346000
5346000
5346000
5346000
5346000
5346000
5346000
5346000
5346000
5346000
5346000
5346000
5346000
5346000
5346000
5346000
5346000
5346000
5346000
5346000
5346000
5346000
5346000
5346000
5346000
5346000
5346000
5346000
5346000
5346000
5346000
5346000
5346000
5346000
5346000
5346000
5346000
5346000
5346000
5346000
5346000
5346000
5346000
5346000
5346000
5346000
5346000
5346000
5346000
5346000
5346000
5346000
5346000
5346000
5346000
5346000
5346000
5346000
5346000
5346000
5346000
5346000
5346000
5346000
5346000
5346000
5346000
5346000
5346000
335.1801
5346000
5346000
5346000
5346000
5346000
327.0777
341.5722
5346000
5346000
5346000
5346000
5346000
325.4176
327.0854
335.2927
5346000
5346000
5346000
5346000
5346000
5346000
5346000
5346000
5346000
5346000
5346000
5346000
5346000
5346000
5346000
5346000
5346000
5346000
5346000
5346000
5346000
5346000
5346000
5346000
5346000
5346000
5346000
5346000
5346000
5346000
5346000
5346000
5346000
5346000
5346000
5346000
5346000
5346000
5346000
5346000
5346000
5346000
5346000
5346000
5346000
5346000
5346000
5346000
5346000
5346000
5346000
5346000
5346000
5346000
5346000
5346000
5346000
5346000
5346000
5346000
5346000
5346000
5346000
5346000
5346000
5346000
5346000
5346000
5346000
5346000
5346000
5346000
5346000
5346000
5346000
336.2453
5346000
5346000
5346000
5346000
5346000
327.6745
346.9311
5346000
5346000
5346000
5346000
5346000
325.6592
329.1208
347.0227
5346000
5346000
5346000
5346000
5346000
324.6337
325.6404
327.6866
336.42
5346000
5346000
5346000
5346000
5346000
5346000
5346000
5346000
5346000
5346000
5346000
5346000
5346000
5346000
5346000
5346000
5346000
5346000
5346000
5346000
5346000
5346000
5346000
5346000
5346000
5346000
5346000
5346000
5346000
5346000
5346000
5346000
5346000
5346000
5346000
5346000
5346000
5346000
5346000
5346000
5346000
5346000
5346000
5346000
5346000
5346000
5346000
5346000
5346000
5346000
5346000
5346000
5346000
5346000
5346000
5346000
5346000
5346000
5346000
5346000
5346000
5346000
5346000
5346000
5346000
5346000
5346000
5346000
5346000
5346000
5346000
5346000
5346000
5346000
5346000
5346000
5346000
5346000
5346000
5346000
336.7442
5346000
5346000
5346000
5346000
5346000
328.1157
350.2487
5346000
5346000
5346000
5346000
5346000
325.8756
330.9307
355.4331
5346000
5346000
5346000
5346000
5346000
324.7372
326.3437
330.9504
350.4985
5346000
5346000
5346000
5346000
5346000
323.9503
324.7096
325.8373
328.133
337.0005
5346000
5346000
5346000
5346000
5346000
5346000
5346000
5346000
5346000
5346000
5346000
5346000
5346000
5346000
5346000
5346000
5346000
5346000
5346000
5346000
5346000
5346000
5346000
5346000
5346000
5346000
5346000
5346000
5346000
5346000
5346000
5346000
5346000
5346000
5346000
5346000
5346000
5346000
5346000
5346000
5346000
5346000
5346000
5346000
5346000
5346000
5346000
5346000
5346000
5346000
5346000
5346000
5346000
5346000
5346000
5346000
5346000
5346000
5346000
5346000
5346000
5346000
5346000
5346000
5346000
5346000
5346000
5346000
5346000
5346000
5346000
5346000
5346000
5346000
5346000
5346000
5346000
5346000
5346000
5346000
5346000
5346000
5346000
5346000
5346000
336.7442
5346000
5346000
5346000
5346000
5346000
328.3502
351.8506
5346000
5346000
5346000
5346000
5346000
326.041
332.2879
360.9559
5346000
5346000
5346000
5346000
5346000
324.8268
326.9869
333.9238
361.1815
5346000
5346000
5346000
5346000
5346000
324.0058
324.9935
326.9676
332.3473
352.3486
5346000
5346000
5346000
5346000
5346000
323.3306
323.9772
324.7719
325.9794
328.3738
337.1081
5346000
5346000
5346000
5346000
5346000
5346000
5346000
5346000
5346000
5346000
5346000
5346000
5346000
5346000
5346000
5346000
5346000
5346000
5346000
5346000
5346000
5346000
5346000
5346000
5346000
5346000
5346000
5346000
5346000
5346000
5346000
5346000
5346000
5346000
5346000
5346000
5346000
5346000
5346000
5346000
5346000
5346000
5346000
5346000
5346000
5346000
5346000
5346000
5346000
5346000
5346000
5346000
5346000
5346000
5346000
5346000
5346000
5346000
5346000
5346000
5346000
5346000
5346000
5346000
5346000
5346000
5346000
5346000
5346000
325.8358
5346000
5346000
5346000
5346000
5346000
5346000
5346000
5346000
5346000
5346000
5346000
5346000
5346000
5346000
5346000
5346000
5346000
5346000
5346000
5346000
336.2453
5346000
5346000
5346000
5346000
5346000
328.3502
351.8506
5346000
5346000
5346000
5346000
5346000
326.131
333.0152
363.714
5346000
5346000
5346000
5346000
5346000
324.8943
327.4847
336.1961
368.4922
5346000
5346000
5346000
5346000
5346000
324.0513
325.2478
328.0209
336.2599
364.3509
5346000
5346000
5346000
5346000
5346000
323.3678
324.1172
325.2156
327.4435
333.1355
352.697
5346000
5346000
5346000
5346000
5346000
322.7646
323.341
323.9947
324.8068
326.0395
328.3769
336.7469
5346000
5346000
5346000
5346000
5346000
5346000
5346000
5346000
5346000
5346000
5346000
5346000
5346000
5346000
5346000
5346000
5346000
5346000
5346000
5346000
5346000
5346000
5346000
5346000
5346000
5346000
5346000
5346000
5346000
5346000
5346000
5346000
5346000
5346000
5346000
5346000
5346000
5346000
5346000
5346000
5346000
5346000
5346000
5346000
5346000
5346000
5346000
5346000
5346000
5346000
5346000
5346000
5346000
5346000
5346000
5346000
5346000
325.8806
5346000
5346000
5346000
5346000
5346000
5346000
5346000
5346000
5346000
5346000
5346000
5346000
5346000
5346000
5346000
325.055
325.3806
5346000
5346000
5346000
5346000
5346000
5346000
5346000
5346000
5346000
5346000
5346000
5346000
5346000
5346000
5346000
5346000
5346000
5346000
5346000
5346000
335.1801
5346000
5346000
5346000
5346000
5346000
328.1157
350.2487
5346000
5346000
5346000
5346000
5346000
326.131
333.0152
363.714
5346000
5346000
5346000
5346000
5346000
324.9307
327.7573
337.4274
372.2353
5346000
5346000
5346000
5346000
5346000
324.0844
325.4423
328.8481
339.2977
372.7569
5346000
5346000
5346000
5346000
5346000
323.397
324.2378
325.6215
328.8285
337.6052
364.9635
5346000
5346000
5346000
5346000
5346000
322.7942
323.4282
324.2036
325.3675
327.6861
333.2052
351.5453
5346000
5346000
5346000
5346000
5346000
322.2417
322.7698
323.3437
323.9945
324.8024
325.9983
328.1308
335.8575
5346000
5346000
5346000
5346000
5346000
5346000
5346000
5346000
5346000
5346000
5346000
5346000
5346000
5346000
5346000
5346000
5346000
5346000
5346000
5346000
5346000
5346000
5346000
5346000
5346000
5346000
5346000
5346000
5346000
5346000
5346000
5346000
5346000
5346000
5346000
5346000
5346000
5346000
5346000
5346000
5346000
5346000
5346000
5346000
325.9739
5346000
5346000
5346000
5346000
5346000
5346000
5346000
5346000
5346000
5346000
5346000
5346000
5346000
5346000
5346000
325.08
325.4338
5346000
5346000
5346000
5346000
5346000
5346000
5346000
5346000
5346000
5346000
5346000
5346000
5346000
5346000
5346000
324.3307
324.6428
324.9205
5346000
5346000
5346000
5346000
5346000
5346000
5346000
5346000
5346000
5346000
5346000
5346000
5346000
5346000
5346000
5346000
5346000
5346000
5346000
5346000
333.3396
5346000
5346000
5346000
5346000
5346000
327.6745
346.9311
5346000
5346000
5346000
5346000
5346000
326.041
332.2879
360.9559
5346000
5346000
5346000
5346000
5346000
324.9307
327.7573
337.4274
372.2353
5346000
5346000
5346000
5346000
5346000
324.102
325.5483
329.305
340.9607
377.1233
5346000
5346000
5346000
5346000
5346000
323.4175
324.3273
325.9369
329.9293
341.1095
373.5983
5346000
5346000
5346000
5346000
5346000
322.8167
323.5004
324.3883
325.8891
329.2592
337.75
362.9935
5346000
5346000
5346000
5346000
5346000
322.2673
322.836
323.4679
324.2471
325.4143
327.6357
332.5252
348.7832
5346000
5346000
5346000
5346000
5346000
321.7574
322.2453
322.7681
323.3329
323.9705
324.7495
325.8475
327.6435
334.2616
5346000
5346000
5346000
5346000
5346000
5346000
5346000
5346000
5346000
5346000
5346000
5346000
5346000
5346000
5346000
5346000
5346000
5346000
5346000
5346000
5346000
5346000
5346000
5346000
5346000
5346000
5346000
5346000
5346000
5346000
326.1367
5346000
5346000
5346000
5346000
5346000
5346000
5346000
5346000
5346000
5346000
5346000
5346000
5346000
5346000
5346000
325.129
325.5503
5346000
5346000
5346000
5346000
5346000
5346000
5346000
5346000
5346000
5346000
5346000
5346000
5346000
5346000
5346000
324.3503
324.6673
324.9804
5346000
5346000
5346000
5346000
5346000
5346000
5346000
5346000
5346000
5346000
5346000
5346000
5346000
5346000
5346000
323.6753
323.9719
324.2286
324.4512
5346000
5346000
5346000
5346000
5346000
5346000
5346000
5346000
5346000
5346000
5346000
5346000
5346000
5346000
5346000
5346000
5346000
5346000
5346000
5346000
330.1117
5346000
5346000
5346000
5346000
5346000
327.0777
341.5722
5346000
5346000
5346000
5346000
5346000
325.8756
330.9307
355.4331
5346000
5346000
5346000
5346000
5346000
324.8943
327.4847
336.1961
368.4922
5346000
5346000
5346000
5346000
5346000
324.102
325.5483
329.305
340.9607
377.1233
5346000
5346000
5346000
5346000
5346000
323.4282
324.3752
326.1103
330.5417
343.0403
378.0982
5346000
5346000
5346000
5346000
5346000
322.8323
323.5521
324.5276
326.2997
330.5196
341.3218
370.9502
5346000
5346000
5346000
5346000
5346000
322.2867
322.8896
323.5734
324.4744
325.991
329.2091
336.6432
358.3853
5346000
5346000
5346000
5346000
5346000
321.7805
322.3018
322.8598
323.4756
324.231
325.3297
327.2726
331.1447
344.1112
5346000
5346000
5346000
5346000
5346000
321.3064
321.7605
322.2425
322.7548
323.3044
323.9177
324.6423
325.587
326.9271
331.4536
5346000
5346000
5346000
5346000
5346000
5346000
5346000
5346000
5346000
5346000
5346000
5346000
5346000
5346000
5346000
326.4762
5346000
5346000
5346000
5346000
5346000
5346000
5346000
5346000
5346000
5346000
5346000
5346000
5346000
5346000
5346000
325.2014
325.7714
5346000
5346000
5346000
5346000
5346000
5346000
5346000
5346000
5346000
5346000
5346000
5346000
5346000
5346000
5346000
324.3877
324.7146
325.114
5346000
5346000
5346000
5346000
5346000
5346000
5346000
5346000
5346000
5346000
5346000
5346000
5346000
5346000
5346000
323.6925
323.9888
324.2528
324.5154
5346000
5346000
5346000
5346000
5346000
5346000
5346000
5346000
5346000
5346000
5346000
5346000
5346000
5346000
5346000
323.0836
323.3649
323.6121
323.8096
323.9814
5346000
5346000
5346000
5346000
5346000
5346000
5346000
5346000
5346000
5346000
5346000
5346000
5346000
5346000
5346000
5346000
5346000
5346000
5346000
5346000
5346000
5346000
5346000
5346000
5346000
326.3926
333.3993
5346000
5346000
5346000
5346000
5346000
325.6592
329.1208
347.0227
5346000
5346000
5346000
5346000
5346000
324.8268
326.9869
333.9238
361.1815
5346000
5346000
5346000
5346000
5346000
324.0844
325.4423
328.8481
339.2977
372.7569
5346000
5346000
5346000
5346000
5346000
323.4282
324.3752
326.1103
330.5417
343.0403
378.0982
5346000
5346000
5346000
5346000
5346000
322.8402
323.5792
324.6029
326.5274
331.2242
343.2929
375.0637
5346000
5346000
5346000
5346000
5346000
322.2999
322.927
323.6503
324.6486
326.4501
330.4754
339.8657
364.8659
5346000
5346000
5346000
5346000
5346000
321.7979
322.3469
322.9356
323.5991
324.4697
325.8841
328.6506
334.4021
350.9825
5346000
5346000
5346000
5346000
5346000
321.3276
321.8114
322.3198
322.8567
323.4417
324.1423
325.1007
326.6147
329.1769
336.8238
5346000
5346000
5346000
5346000
5346000
320.8857
321.3095
321.7578
322.2294
322.7267
323.2549
323.8314
324.4749
325.2071
325.9442
328.3036
5346000
5346000
5346000
5346000
5346000
5346000
5346000
5346000
5346000
5346000
5346000
5346000
5346000
5346000
5346000
325.2695
326.247
5346000
5346000
5346000
5346000
5346000
5346000
5346000
5346000
5346000
5346000
5346000
5346000
5346000
5346000
5346000
324.4391
324.7806
325.3689
5346000
5346000
5346000
5346000
5346000
5346000
5346000
5346000
5346000
5346000
5346000
5346000
5346000
5346000
5346000
323.7251
324.0187
324.2993
324.6588
5346000
5346000
5346000
5346000
5346000
5346000
5346000
5346000
5346000
5346000
5346000
5346000
5346000
5346000
5346000
323.0994
323.3788
323.6267
323.8336
324.0476
5346000
5346000
5346000
5346000
5346000
5346000
5346000
5346000
5346000
5346000
5346000
5346000
5346000
5346000
5346000
322.5369
322.8139
323.0535
323.2488
323.3945
323.707
5346000
5346000
5346000
5346000
5346000
5346000
5346000
5346000
5346000
5346000
5346000
5346000
5346000
5346000
5346000
5346000
5346000
5346000
5346000
5346000
5346000
5346000
5346000
5346000
5346000
5346000
5346000
5346000
5346000
5346000
325.4176
327.0854
335.2927
5346000
5346000
5346000
5346000
5346000
324.7372
326.3437
330.9504
350.4985
5346000
5346000
5346000
5346000
5346000
324.0513
325.2478
328.0209
336.2599
364.3509
5346000
5346000
5346000
5346000
5346000
323.4175
324.3273
325.9369
329.9293
341.1095
373.5983
5346000
5346000
5346000
5346000
5346000
322.8402
323.5792
324.6029
326.5274
331.2242
343.2929
375.0637
5346000
5346000
5346000
5346000
5346000
322.3066
322.9462
323.6909
324.7436
326.7063
331.185
341.6387
368.1567
5346000
5346000
5346000
5346000
5346000
321.8098
322.3781
322.9893
323.6905
324.6555
326.3303
329.7635
336.9315
355.4363
5346000
5346000
5346000
5346000
5346000
321.3437
321.8519
322.3828
322.9422
323.5629
324.3542
325.5523
327.6336
331.2908
340.3707
5346000
5346000
5346000
5346000
5346000
320.9053
321.3563
321.8272
322.3141
322.8199
323.3579
323.9714
324.7251
325.6997
326.7691
330.3492
5346000
5346000
5346000
5346000
5346000
320.492
320.8888
321.3071
321.7455
322.2031
322.6813
323.1805
323.7041
324.2263
324.6257
325.0459
327.6544
5346000
5346000
5346000
5346000
5346000
5346000
5346000
5346000
5346000
5346000
5346000
5346000
5346000
5346000
5346000
324.4576
324.8324
325.8766
5346000
5346000
5346000
5346000
5346000
5346000
5346000
5346000
5346000
5346000
5346000
5346000
5346000
5346000
5346000
323.7687
324.0503
324.3637
324.926
5346000
5346000
5346000
5346000
5346000
5346000
5346000
5346000
5346000
5346000
5346000
5346000
5346000
5346000
5346000
323.1293
323.4028
323.6513
323.8801
324.1943
5346000
5346000
5346000
5346000
5346000
5346000
5346000
5346000
5346000
5346000
5346000
5346000
5346000
5346000
5346000
322.5517
322.8265
323.0649
323.2619
323.4185
323.7729
5346000
5346000
5346000
5346000
5346000
5346000
5346000
5346000
5346000
5346000
5346000
5346000
5346000
5346000
5346000
322.0316
322.3012
322.5433
322.7391
322.8903
323.1537
323.6724
5346000
5346000
5346000
5346000
5346000
5346000
5346000
5346000
5346000
5346000
5346000
5346000
5346000
5346000
5346000
5346000
5346000
5346000
5346000
5346000
5346000
5346000
5346000
5346000
5346000
5346000
5346000
5346000
5346000
5346000
5346000
5346000
5346000
5346000
5346000
324.6337
325.6404
327.6866
336.42
5346000
5346000
5346000
5346000
5346000
324.0058
324.9935
326.9676
332.3473
352.3486
5346000
5346000
5346000
5346000
5346000
323.397
324.2378
325.6215
328.8285
337.6052
364.9635
5346000
5346000
5346000
5346000
5346000
322.8323
323.5521
324.5276
326.2997
330.5196
341.3218
370.9502
5346000
5346000
5346000
5346000
5346000
322.3066
322.9462
323.6909
324.7436
326.7063
331.185
341.6387
368.1567
5346000
5346000
5346000
5346000
5346000
321.8159
322.3939
323.0171
323.7392
324.7578
326.5809
330.3881
338.3159
357.6464
5346000
5346000
5346000
5346000
5346000
321.3546
321.8797
322.4268
323.0035
323.654
324.5228
325.9232
328.4665
332.9313
342.6192
5346000
5346000
5346000
5346000
5346000
320.9202
321.3935
321.8835
322.3839
322.8993
323.4529
324.1166
325.0069
326.2673
327.6737
331.9851
5346000
5346000
5346000
5346000
5346000
320.5103
320.9323
321.371
321.8214
322.2789
322.7432
323.2164
323.709
324.1986
324.5481
325.2468
329.275
5346000
5346000
5346000
5346000
5346000
320.123
320.4951
320.8867
321.2958
321.7213
322.1615
322.615
323.0737
323.5127
323.8045
323.9346
324.7549
326.9863
5346000
5346000
5346000
5346000
5346000
5346000
5346000
5346000
5346000
5346000
5346000
5346000
5346000
5346000
5346000
323.7757
324.0226
324.4198
325.4134
5346000
5346000
5346000
5346000
5346000
5346000
5346000
5346000
5346000
5346000
5346000
5346000
5346000
5346000
5346000
323.1695
323.4245
323.6724
323.9461
324.4584
5346000
5346000
5346000
5346000
5346000
5346000
5346000
5346000
5346000
5346000
5346000
5346000
5346000
5346000
5346000
322.5799
322.8481
323.0825
323.2835
323.4657
323.9179
5346000
5346000
5346000
5346000
5346000
5346000
5346000
5346000
5346000
5346000
5346000
5346000
5346000
5346000
5346000
322.0457
322.3131
322.5534
322.7486
322.9026
323.1776
323.7382
5346000
5346000
5346000
5346000
5346000
5346000
5346000
5346000
5346000
5346000
5346000
5346000
5346000
5346000
5346000
321.5604
321.8241
322.0645
322.2698
322.4294
322.6819
323.1233
323.6386
5346000
5346000
5346000
5346000
5346000
5346000
5346000
5346000
5346000
5346000
5346000
5346000
5346000
5346000
5346000
5346000
5346000
5346000
5346000
5346000
5346000
5346000
5346000
5346000
5346000
5346000
5346000
5346000
5346000
5346000
5346000
5346000
5346000
5346000
5346000
5346000
5346000
5346000
5346000
5346000
323.9503
324.7096
325.8373
328.133
337.0005
5346000
5346000
5346000
5346000
5346000
323.3678
324.1172
325.2156
327.4435
333.1355
352.697
5346000
5346000
5346000
5346000
5346000
322.8167
323.5004
324.3883
325.8891
329.2592
337.75
362.9935
5346000
5346000
5346000
5346000
5346000
322.2999
322.927
323.6503
324.6486
326.4501
330.4754
339.8657
364.8659
5346000
5346000
5346000
5346000
5346000
321.8159
322.3939
323.0171
323.7392
324.7578
326.5809
330.3881
338.3159
357.6464
5346000
5346000
5346000
5346000
5346000
321.3602
321.8938
322.4494
323.0355
323.7032
324.6169
326.1336
328.9362
333.827
343.7225
5346000
5346000
5346000
5346000
5346000
320.9304
321.4191
321.9226
322.4332
322.9571
323.527
324.2395
325.2543
326.7585
328.4083
333.0956
5346000
5346000
5346000
5346000
5346000
320.5242
320.9668
321.4228
321.8835
322.3421
322.7985
323.2603
323.7539
324.2765
324.6784
325.5768
330.6322
5346000
5346000
5346000
5346000
5346000
320.1401
320.5356
320.9462
321.3657
321.7889
322.209
322.6196
323.0062
323.3372
323.4919
323.749
324.9143
328.2657
5346000
5346000
5346000
5346000
5346000
319.7766
320.126
320.4932
320.8762
321.2734
321.683
322.1014
322.5209
322.9126
323.1697
323.2258
323.702
324.4285
326.293
5346000
5346000
5346000
5346000
5346000
5346000
5346000
5346000
5346000
5346000
5346000
5346000
5346000
5346000
5346000
323.1756
323.3807
323.6385
324.0142
324.9012
5346000
5346000
5346000
5346000
5346000
5346000
5346000
5346000
5346000
5346000
5346000
5346000
5346000
5346000
5346000
322.6179
322.8671
323.0919
323.3017
323.5356
324.1746
5346000
5346000
5346000
5346000
5346000
5346000
5346000
5346000
5346000
5346000
5346000
5346000
5346000
5346000
5346000
322.0724
322.3334
322.5687
322.7625
322.9233
323.2251
323.883
5346000
5346000
5346000
5346000
5346000
5346000
5346000
5346000
5346000
5346000
5346000
5346000
5346000
5346000
5346000
321.5738
321.8355
322.074
322.2781
322.438
322.694
323.1471
323.7043
5346000
5346000
5346000
5346000
5346000
5346000
5346000
5346000
5346000
5346000
5346000
5346000
5346000
5346000
5346000
321.1207
321.3765
321.6157
321.8251
322.0009
322.2484
322.6553
323.0936
323.604
5346000
5346000
5346000
5346000
5346000
5346000
5346000
5346000
5346000
5346000
5346000
5346000
5346000
5346000
5346000
5346000
5346000
5346000
5346000
5346000
5346000
5346000
5346000
5346000
5346000
5346000
5346000
5346000
5346000
5346000
5346000
5346000
5346000
5346000
5346000
5346000
5346000
5346000
5346000
5346000
5346000
5346000
5346000
5346000
5346000
323.3306
323.9772
324.7719
325.9794
328.3738
337.1081
5346000
5346000
5346000
5346000
5346000
322.7942
323.4282
324.2036
325.3675
327.6861
333.2052
351.5453
5346000
5346000
5346000
5346000
5346000
322.2867
322.8896
323.5734
324.4744
325.991
329.2091
336.6432
358.3853
5346000
5346000
5346000
5346000
5346000
321.8098
322.3781
322.9893
323.6905
324.6555
326.3303
329.7635
336.9315
355.4363
5346000
5346000
5346000
5346000
5346000
321.3602
321.8938
322.4494
323.0355
323.7032
324.6169
326.1336
328.9362
333.827
343.7225
5346000
5346000
5346000
5346000
5346000
320.9356
321.4321
321.9425
322.4586
322.9876
323.5678
324.3103
325.399
327.0415
328.8151
333.6543
5346000
5346000
5346000
5346000
5346000
320.5337
320.9906
321.4587
321.927
322.3873
322.8405
323.3009
323.8099
324.3818
324.8435
325.8734
331.5722
5346000
5346000
5346000
5346000
5346000
320.153
320.5679
320.9943
321.4229
321.8449
322.2505
322.6322
322.978
323.2668
323.3924
323.719
325.1752
329.3714
5346000
5346000
5346000
5346000
5346000
319.7924
320.1639
320.5488
320.9415
321.336
321.7252
322.0983
322.4387
322.7069
322.8144
322.9519
323.5477
324.5671
327.2947
5346000
5346000
5346000
5346000
5346000
319.4508
319.7794
320.1243
320.4835
320.8555
321.2381
321.628
322.0165
322.3789
322.6173
322.6684
323.0275
323.4468
324.0739
325.5955
5346000
5346000
5346000
5346000
5346000
5346000
5346000
5346000
5346000
5346000
5346000
5346000
5346000
5346000
5346000
322.6261
322.8247
323.0389
323.2798
323.6183
324.5877
5346000
5346000
5346000
5346000
5346000
5346000
5346000
5346000
5346000
5346000
5346000
5346000
5346000
5346000
5346000
322.1089
322.3519
322.5756
322.7677
322.9443
323.2971
324.1386
5346000
5346000
5346000
5346000
5346000
5346000
5346000
5346000
5346000
5346000
5346000
5346000
5346000
5346000
5346000
321.5994
321.855
322.0885
322.2896
322.4505
322.7149
323.1946
323.8487
5346000
5346000
5346000
5346000
5346000
5346000
5346000
5346000
5346000
5346000
5346000
5346000
5346000
5346000
5346000
321.1335
321.3874
321.6248
321.8328
322.0081
322.2567
322.6674
323.1174
323.6696
5346000
5346000
5346000
5346000
5346000
5346000
5346000
5346000
5346000
5346000
5346000
5346000
5346000
5346000
5346000
320.7088
320.9566
321.1917
321.4046
321.5898
321.8425
322.2251
322.6294
323.0632
323.571
5346000
5346000
5346000
5346000
5346000
5346000
5346000
5346000
5346000
5346000
5346000
5346000
5346000
5346000
5346000
5346000
5346000
5346000
5346000
5346000
5346000
5346000
5346000
5346000
5346000
5346000
5346000
5346000
5346000
5346000
5346000
5346000
5346000
5346000
5346000
5346000
5346000
5346000
5346000
5346000
5346000
5346000
5346000
5346000
5346000
5346000
5346000
5346000
5346000
5346000
322.7646
323.341
323.9947
324.8068
326.0395
328.3769
336.7469
5346000
5346000
5346000
5346000
5346000
322.2673
322.836
323.4679
324.2471
325.4143
327.6357
332.5252
348.7832
5346000
5346000
5346000
5346000
5346000
321.7979
322.3469
322.9356
323.5991
324.4697
325.8841
328.6506
334.4021
350.9825
5346000
5346000
5346000
5346000
5346000
321.3546
321.8797
322.4268
323.0035
323.654
324.5228
325.9232
328.4665
332.9313
342.6192
5346000
5346000
5346000
5346000
5346000
320.9356
321.4321
321.9425
322.4586
322.9876
323.5678
324.3103
325.399
327.0415
328.8151
333.6543
5346000
5346000
5346000
5346000
5346000
320.5385
321.0027
321.477
321.9493
322.4108
322.8633
323.3252
323.8469
324.4515
324.9488
326.0437
332.0494
5346000
5346000
5346000
5346000
5346000
320.162
320.5901
321.0278
321.4629
321.8845
322.2814
322.6468
322.9733
323.2506
323.3748
323.7441
325.4121
330.1513
5346000
5346000
5346000
5346000
5346000
319.8046
320.1941
320.5939
320.9949
321.3877
321.7616
322.1024
322.3925
322.5981
322.6558
322.8226
323.5114
324.7758
328.1774
5346000
5346000
5346000
5346000
5346000
319.4657
319.8148
320.1764
320.5447
320.9142
321.2776
321.6247
321.9371
322.1806
322.2765
322.3911
322.8018
323.3318
324.2026
326.3639
5346000
5346000
5346000
5346000
5346000
319.1442
319.4535
319.7778
320.1153
320.4642
320.8227
321.1872
321.5504
321.8885
322.1174
322.175
322.4945
322.8129
323.1742
323.7137
325.1975
5346000
5346000
5346000
5346000
5346000
5346000
5346000
5346000
5346000
5346000
5346000
5346000
5346000
5346000
5346000
322.1196
322.3153
322.5233
322.7248
322.9424
323.3872
324.5483
5346000
5346000
5346000
5346000
5346000
5346000
5346000
5346000
5346000
5346000
5346000
5346000
5346000
5346000
5346000
321.6346
321.8736
322.0954
322.2919
322.4574
322.7387
323.2667
324.1032
5346000
5346000
5346000
5346000
5346000
5346000
5346000
5346000
5346000
5346000
5346000
5346000
5346000
5346000
5346000
321.158
321.4063
321.6389
321.8436
322.0181
322.2693
322.6883
323.1648
323.8136
5346000
5346000
5346000
5346000
5346000
5346000
5346000
5346000
5346000
5346000
5346000
5346000
5346000
5346000
5346000
320.721
320.9671
321.2004
321.412
321.5965
321.8494
322.2333
322.6414
323.0869
323.6364
5346000
5346000
5346000
5346000
5346000
5346000
5346000
5346000
5346000
5346000
5346000
5346000
5346000
5346000
5346000
320.3224
320.5613
320.7915
321.0042
321.1973
321.4502
321.8218
322.2024
322.603
323.0343
323.5336
5346000
5346000
5346000
5346000
5346000
5346000
5346000
5346000
5346000
5346000
5346000
5346000
5346000
5346000
5346000
5346000
5346000
5346000
5346000
5346000
5346000
5346000
5346000
5346000
5346000
5346000
5346000
5346000
5346000
5346000
5346000
5346000
5346000
5346000
5346000
5346000
5346000
5346000
5346000
5346000
5346000
5346000
5346000
5346000
5346000
5346000
5346000
5346000
5346000
5346000
5346000
5346000
5346000
5346000
5346000
322.2417
322.7698
323.3437
323.9945
324.8024
325.9983
328.1308
335.8575
5346000
5346000
5346000
5346000
5346000
321.7805
322.3018
322.8598
323.4756
324.231
325.3297
327.2726
331.1447
344.1112
5346000
5346000
5346000
5346000
5346000
321.3437
321.8519
322.3828
322.9422
323.5629
324.3542
325.5523
327.6336
331.2908
340.3707
5346000
5346000
5346000
5346000
5346000
320.9304
321.4191
321.9226
322.4332
322.9571
323.527
324.2395
325.2543
326.7585
328.4083
333.0956
5346000
5346000
5346000
5346000
5346000
320.5385
321.0027
321.477
321.9493
322.4108
322.8633
323.3252
323.8469
324.4515
324.9488
326.0437
332.0494
5346000
5346000
5346000
5346000
5346000
320.1665
320.6014
321.0448
321.4834
321.905
322.2979
322.6562
322.9757
323.2517
323.3789
323.7694
325.5492
330.5507
5346000
5346000
5346000
5346000
5346000
319.813
320.2149
320.6251
321.0322
321.4242
321.7883
322.1093
322.3712
322.5472
322.5857
322.7657
323.5225
324.9645
328.8091
5346000
5346000
5346000
5346000
5346000
319.4771
319.8431
320.2186
320.5948
320.9628
321.3116
321.6275
321.89
322.0694
322.1122
322.2427
322.6847
323.2981
324.3727
327.0479
5346000
5346000
5346000
5346000
5346000
319.1581
319.4867
319.8266
320.1727
320.5195
320.8605
321.1855
321.4785
321.707
321.806
321.9181
322.2667
322.6388
323.0996
323.8374
325.8578
5346000
5346000
5346000
5346000
5346000
318.8555
319.1467
319.452
319.7693
320.0972
320.4337
320.7755
321.1157
321.4337
321.6533
321.7225
322.0202
322.3081
322.5854
322.9027
323.4976
325.1487
5346000
5346000
5346000
5346000
5346000
5346000
5346000
5346000
5346000
5346000
5346000
5346000
5346000
5346000
5346000
321.6474
321.8435
322.049
322.2478
322.4336
322.7486
323.3574
324.5094
5346000
5346000
5346000
5346000
5346000
5346000
5346000
5346000
5346000
5346000
5346000
5346000
5346000
5346000
5346000
321.192
321.4251
321.6468
321.846
322.0214
322.2788
322.7123
323.237
324.0669
5346000
5346000
5346000
5346000
5346000
5346000
5346000
5346000
5346000
5346000
5346000
5346000
5346000
5346000
5346000