/*--------------------------------*- C++ -*----------------------------------*\
| =========                 |                                                 |
| \\      /  F ield         | OpenFOAM: The Open Source CFD Toolbox           |
|  \\    /   O peration     | Version:  2306                                  |
|   \\  /    A nd           | Website:  www.openfoam.com                      |
|    \\/     M anipulation  |                                                 |
\*---------------------------------------------------------------------------*/
FoamFile
{
    version     2.0;
    format      ascii;
    arch        "LSB;label=32;scalar=64";
    class       volVectorField;
    location    "1.2/phiEC";
    object      i;
}
// * * * * * * * * * * * * * * * * * * * * * * * * * * * * * * * * * * * * * //

dimensions      [0 -2 0 0 0 1 0];

internalField   nonuniform List<vector> 
20000
(
(38.58846 85.42604 18510.47)
(38.17384 249.8166 18326.61)
(92.75768 81.27984 17725.81)
(118.3442 282.2899 19277.29)
(37.3755 394.3975 17970.97)
(91.80081 237.6871 17550.92)
(116.9652 829.174 19044.76)
(108.4593 75.8574 16628.48)
(283.6392 268.5003 18437.87)
(206.4714 550.4886 21007.81)
(36.25765 505.0651 17469.61)
(89.95879 375.2357 17212.64)
(114.2913 1319.613 18584.23)
(107.3999 221.8278 16465.29)
(280.4642 788.6451 18216.86)
(203.7536 1635.934 20708)
(103.0376 70.68586 15531.21)
(330.4604 250.5398 17281.28)
(491.9597 523.3106 20046.69)
(310.5681 881.903 23976)
(34.91987 568.1381 16865.16)
(87.38027 480.5087 16735.78)
(110.5084 1706.555 17911.26)
(105.361 350.1921 16149.63)
(274.3096 1255.044 17779.18)
(198.3856 2661.395 20079.46)
(102.0686 206.7041 15379.14)
(326.9549 735.8783 17075.13)
(485.726 1555.075 19762)
(306.1645 2685.86 23724.01)
(91.1416 66.16708 14547.06)
(313.2479 233.4455 16134.94)
(569.0448 488.1516 18758.25)
(733.5512 837.8674 22807.33)
(440.2051 1054.475 27998.91)
(33.49384 573.5858 16217.53)
(84.29527 540.5 16160.91)
(105.9312 1936.021 17066.11)
(102.5078 448.4298 15704.67)
(265.6065 1622.955 17139.68)
(190.5728 3541.297 19072.46)
(100.2038 326.3149 15085.02)
(320.1625 1171.036 16666.92)
(473.4213 2529.587 19165.28)
(297.1283 4590.69 23125.13)
(90.30137 193.4899 14404.71)
(310.046 685.6656 15942.89)
(562.1939 1450.549 18492.86)
(723.4922 2551.462 22568.24)
(434.9061 3337.672 28173.77)
(79.20592 62.28356 13691.56)
(276.7873 218.5211 15111.29)
(537.0355 454.8012 17502.01)
(839.3968 781.3138 21295.48)
(1028.064 1001.485 26538.05)
(562.1065 662.7506 30914.86)
(32.12905 519.2058 15597.78)
(81.00725 545.6776 15544.98)
(101.0155 1961.185 16132.87)
(99.09529 504.4079 15168.28)
(255.0809 1841.092 16336.69)
(180.8051 4124.907 17648.62)
(97.59475 417.8517 14670.42)
(310.5625 1514.268 16070.51)
(455.5287 3365.493 18209.48)
(283.1041 6568.241 21935.54)
(88.68455 305.4541 14129.4)
(303.8431 1091.12 15562.58)
(548.6808 2359.422 17936.64)
(702.8753 4360.085 22000.24)
(423.3634 6238.323 28578.63)
(78.48162 182.1336 13557.57)
(274.0126 641.8302 14931.51)
(530.7928 1351.434 17254.8)
(828.3963 2379.101 21072.7)
(1015.987 3169.255 26703.74)
(558.8553 1979.225 31427.81)
(69.08066 58.92409 12948.81)
(240.4425 205.6981 14223.02)
(473.5274 425.7236 16389.21)
(787.0544 727.8629 19852.16)
(1160.078 933.7112 24721.09)
(1298.853 630.2391 29218.25)
(650.4999 410.9527 32109.82)
(30.96811 411.6505 15072.26)
(77.86038 493.9486 14955.57)
(96.31281 1771.329 15246.55)
(95.45885 509.237 14593.59)
(243.7796 1865.001 15450.06)
(170.0559 4212.713 15887.86)
(94.47469 470.0102 14170.64)
(298.9584 1717.752 15321.69)
(433.1798 3919.738 16858.4)
(263.9749 8305.215 19610.4)
(86.42254 391.1387 13741.3)
(295.0787 1410.913 15006.96)
(529.0518 3138.883 17045.83)
(670.933 6236.707 20872.45)
(403.1905 10570.75 29383.36)
(77.0879 287.5266 13298.41)
(268.6375 1021.363 14575.52)
(518.4836 2198.166 16736.69)
(805.8807 4065.097 20543.53)
(989.7405 5921.166 27087.61)
(552.3409 3188.224 32617.67)
(68.45028 172.3097 12822.05)
(238.051 604.1675 14053.78)
(468.1223 1265.03 16157.81)
(777.0556 2216.302 19644.67)
(1146.909 2954.439 24875.38)
(1291.376 1881.569 29704)
(648.6034 1182.047 32562.42)
(60.89665 55.97978 12297.73)
(209.6858 194.6058 13452.21)
(411.0217 400.7502 15426.7)
(691.8477 681.3263 18586.74)
(1078.783 869.7948 23025.19)
(1446.495 587.9791 27170.66)
(1492.747 391.988 30277.12)
(745.3773 210.1562 32870.52)
(30.12737 263.6063 14693.1)
(75.18316 391.6337 14455.76)
(92.33241 1397.708 14511.48)
(91.97842 460.9649 14043.64)
(232.9671 1684.498 14607.96)
(159.8462 3761.984 14315.83)
(91.15021 474.509 13635.17)
(286.5028 1740.047 14494.91)
(408.5989 4003.123 15187.94)
(241.001 8626.758 14915.95)
(83.71766 439.9625 13273.47)
(284.4872 1600.495 14309.36)
(504.5608 3655.609 15786.79)
(627.447 7884.184 18668.91)
(369.1028 18164.09 31087.09)
(75.13805 368.1827 12933.09)
(261.0436 1320.709 14055.42)
(500.6127 2924.293 15906.96)
(771.0677 5813.958 19493.09)
(944.0199 10028.15 27851.09)
(542.9661 3806.186 34901.98)
(67.23729 272.0184 12576.87)
(233.4184 961.4306 13718.67)
(457.4663 2057.622 15672.83)
(756.6039 3786.799 19151.83)
(1118.362 5518.647 25232.96)
(1276.442 3029.331 30831.31)
(644.9919 1747.45 33497.94)
(60.34075 163.6999 12177.3)
(207.6044 571.5884 13292.1)
(406.3642 1190.824 15208.87)
(683.1989 2074.597 18392.51)
(1066.831 2752.094 23168.85)
(1438.258 1755.122 27622.84)
(1488.28 1126.967 30704.56)
(744.6418 591.1087 33232.68)
(54.31445 53.36505 11720.08)
(184.8495 184.884 12776.52)
(358.3798 379.1487 14592.25)
(599.8363 641.3749 17496.62)
(944.6354 814.1932 21554.2)
(1335.02 547.8668 25291.07)
(1648.269 366.2844 28118.6)
(1697.975 202.8011 30911.8)
(846.3717 48.7933 33288.65)
(29.68684 90.65575 14494.98)
(73.24397 250.7936 14095.13)
(89.46674 890.9569 13992.86)
(89.01693 365.4864 13577.28)
(223.8126 1329.247 13909.5)
(151.3652 2919.024 13109.01)
(87.96835 429.5294 13122.75)
(274.5847 1571.658 13709.64)
(385.2432 3575.077 13696.22)
(220.2365 7329.047 11949.1)
(80.83566 444.1735 12772.24)
(273.1204 1621.264 13539.15)
(477.6415 3733.346 14230.28)
(575.2973 8189.374 14221.15)
(309.0166 19535.32 7061.419)
(72.80649 414.1413 12492.71)
(251.8676 1498.17 13402.43)
(478.3271 3405.635 14734.29)
(723.7807 7348.858 17441.03)
(867.0547 17222.35 29467.79)
(533.1522 1934.437 39145.46)
(65.54029 348.3246 12231.25)
(226.8735 1243.214 13229.08)
(441.9985 2737.318 14896.16)
(725.0129 5415.707 18173.58)
(1068.827 9343.894 25944.39)
(1255.05 3614.299 32996.53)
(640.3274 1788.106 34918.39)
(59.27106 258.4266 11944.36)
(203.5725 909.5882 12975.04)
(397.1825 1936.929 14752.31)
(665.5128 3544.67 17931.18)
(1040.954 5140.342 23501.83)
(1421.868 2824.969 28672.52)
(1479.823 1664.69 31588.87)
(743.2477 832.2518 33912.37)
(53.81807 156.0538 11605.28)
(183.0139 543.0344 12624.4)
(354.3263 1126.638 14386.14)
(592.3856 1952.953 17313.76)
(934.3029 2576.154 21688.63)
(1327.511 1635.296 25712.05)
(1643.22 1052.809 28515.96)
(1696.022 569.8126 31251.54)
(846.7177 140.1931 33605.22)
(48.95705 51.01603 11201.76)
(164.8799 176.25 12176.94)
(315.95 360.215 13860.74)
(522.8794 606.8196 16552.59)
(817.8514 766.4697 20292.14)
(1165.003 512.8853 23673.22)
(1513.94 341.5012 26162.18)
(1857.989 190.6246 28667.17)
(1913.082 52.25314 31209.61)
(953.2805 -106.4174 33410.99)
(29.68684 -90.65575 14494.98)
(72.22775 86.25052 13906.68)
(87.97176 305.5872 13726.02)
(86.87137 234.0522 13240.78)
(217.2196 847.3503 13416.65)
(145.3706 1834.527 12308.55)
(85.26067 340.5632 12688.22)
(264.4906 1240.233 13058.26)
(365.828 2774.268 12550.75)
(203.9832 5412.275 10103.36)
(78.07728 402.0694 12292.58)
(262.2435 1464.376 12807.59)
(452.0531 3334.275 12840.17)
(528.1006 6958.87 11408.9)
(267.8859 13387.16 5119.518)
(70.32228 418.1052 12020.89)
(242.0204 1517.61 12681.47)
(453.8398 3478.046 13284.6)
(667.1707 7633.294 13299.54)
(731.8804 18523.15 6721.341)
(63.51107 391.8048 11814.61)
(218.9654 1410.263 12614.38)
(422.7135 3187.879 13798.48)
(682.149 6845.214 16262.66)
(985.8117 16042.7 27450.99)
(1232.763 1836.298 37019.61)
(636.3714 811.7496 36516.23)
(57.77453 330.9205 11616.01)
(197.8764 1176.18 12511.84)
(383.8554 2576.765 14021.16)
(638.2037 5069.408 17015.48)
(996.1346 8702.644 24164.4)
(1398.51 3369.392 30689.1)
(1468.984 1701.901 32933.05)
(741.5 787.8999 34777.27)
(52.86293 246.3562 11383.22)
(179.4582 864.1506 12323.18)
(346.3353 1832.534 13954.17)
(577.1507 3336.847 16879.45)
(911.9424 4811.684 22000.28)
(1312.594 2631.849 26689.41)
(1633.72 1554.494 29338.42)
(1692.395 800.8341 31889.99)
(847.2305 202.8626 34161.83)
(48.50911 149.1847 11092)
(163.2408 517.6753 12031.92)
(312.375 1070.378 13664.91)
(516.3949 1847.741 16379.57)
(808.9513 2425.164 20418.68)
(1158.499 1530.861 24067.21)
(1509.287 981.4861 26531.92)
(1855.521 535.3082 28981.92)
(1913.356 148.7803 31502.69)
(954.8949 -282.078 33758.74)
(44.51909 48.88562 10732.17)
(148.6261 168.4931 11638.83)
(281.853 343.3985 13211.41)
(461.0173 576.5296 15724.96)
(712.7133 725.1919 19200.37)
(1007.414 482.8334 22289.05)
(1318.293 319.7583 24487.55)
(1698.125 178.1225 26660.73)
(2073.376 51.53375 28898.6)
(2136.98 -90.27391 31216.67)
(1065.804 -298.9639 33207.51)
(30.12737 -263.6063 14693.1)
(72.22775 -86.25052 13906.68)
(87.97176 -305.5871 13726.02)
(85.74682 80.49356 13064.94)
(213.7793 290.6373 13163.05)
(142.2822 624.3348 11912.23)
(83.29879 218.0925 12374.68)
(257.2181 790.6236 12598.61)
(352.0948 1743.696 11790.83)
(193.0103 3284.509 9028.412)
(75.72991 318.7908 11885.83)
(253.0298 1155.581 12200.76)
(430.7637 2587.541 11772.59)
(491.0962 5140.014 9658.617)
(240.3142 8760.398 4032.363)
(67.94463 378.472 11569.38)
(232.5975 1370.752 11996.69)
(430.5583 3106.299 11989.85)
(615.8575 6487.036 10680.35)
(638.9931 12700.13 4881.271)
(61.349 395.555 11368.23)
(210.479 1428.563 11935.7)
(401.5258 3255.658 12441.5)
(630.8762 7110.141 12406.16)
(840.6392 17254.7 6278.503)
(55.98503 372.2285 11220.19)
(190.9938 1334.224 11930.26)
(367.2403 3000.908 12987.81)
(601.1646 6407.491 15226.76)
(921.1805 14940.48 25567.65)
(1374.309 1711.567 34436.41)
(1459.862 772.19 34446.48)
(740.1272 336.6006 35505.53)
(51.52664 315.4643 11070.2)
(174.4348 1117.427 11883.1)
(334.7365 2437.896 13262.38)
(553.6287 4772.224 16017.37)
(873.2394 8146.157 22620.44)
(1291.386 3138.712 28567.27)
(1621.647 1588.498 30589.27)
(1687.962 756.6954 32703.91)
(847.6631 194.9535 34793.51)
(47.64715 235.5124 10879.72)
(160.0656 823.7968 11744.76)
(305.3272 1741.03 13254.5)
(503.1355 3157.1 15968.63)
(789.6932 4529.707 20712.03)
(1145.589 2463.718 24981.97)
(1500.556 1448.961 27297.38)
(1851.018 751.6521 29573.82)
(1913.678 212.3165 32018.57)
(957.5734 -356.0425 34357.65)
(44.11134 142.9548 10627)
(147.1469 494.8922 11500.19)
(278.6604 1020.409 13024.72)
(455.2978 1755.514 15560.56)
(704.967 2294.571 19320.09)
(1001.809 1441.163 22659.93)
(1314.247 918.9723 24833.53)
(1695.753 500.098 26953.23)
(2073.051 146.1538 29168.32)
(2139.712 -239.149 31533.35)
(1069.258 -806.4744 33683.37)
(40.77616 46.93856 10303.36)
(135.1605 161.4577 11151.22)
(254.1006 328.2892 12628.42)
(411.3427 549.6242 14989.97)
(628.4752 689.0066 18243.05)
(877.7006 456.8326 21092.45)
(1139.115 301.0395 23057.55)
(1475.466 166.9036 24953.46)
(1885.311 49.00057 26863.78)
(2292.572 -79.09151 28857.56)
(2368.426 -264.4241 30908.69)
(1183.163 -582.2732 32551.17)
(30.96811 -411.6505 15072.26)
(73.24397 -250.7936 14095.13)
(89.46674 -890.9569 13992.86)
(85.74682 -80.49356 13064.94)
(213.7793 -290.6373 13163.05)
(142.2822 -624.3348 11912.23)
(82.27042 75.00498 12210.84)
(253.4221 271.1837 12362.08)
(345.016 593.4506 11414.53)
(187.5121 1098.229 8533.061)
(74.02903 204.1498 11592.34)
(246.3902 736.6646 11772.54)
(415.6921 1626.407 11064.26)
(466.0781 3119.797 8638.918)
(223.2694 4975.13 3445.457)
(65.92125 300.0807 11186.49)
(224.6149 1081.7 11428.66)
(411.1802 2410.658 10995.47)
(575.5462 4792.05 9049.874)
(576.5256 8314.234 3850.708)
(59.27968 358.0591 10941.07)
(202.3581 1290.32 11291.08)
(381.3801 2907.68 11229.55)
(584.3666 6042.625 9967.046)
(740.4241 11833.61 4565.055)
(54.07837 375.7913 10796.11)
(183.6079 1351.537 11288.15)
(348.9865 3064.711 11710.34)
(556.8727 6655.47 11616.9)
(790.3683 16069.27 5853.998)
(49.92875 354.8432 10692.86)
(168.3649 1267.578 11330.55)
(320.276 2839.19 12284.66)
(521.7294 6031.904 14333.4)
(808.5646 13985.03 23933.92)
(1269.468 1594.292 32057.01)
(1611.571 720.5289 31998.28)
(1684.557 322.8728 33390.56)
(847.8685 83.49068 35244.24)
(46.44125 301.5787 10580.48)
(155.5799 1065.247 11325.22)
(295.0973 2316.173 12597.22)
(482.6638 4515.196 15152.92)
(756.3662 7668.866 21295.82)
(1127.251 2938.132 26739.63)
(1489.499 1480.406 28461.8)
(1845.635 709.5229 30329.12)
(1913.799 201.3337 32605.06)
(960.3454 -294.5032 35012.6)
(43.32673 225.6776 10423.58)
(144.2815 787.5419 11225.66)
(272.3665 1659.757 12633.45)
(443.6025 2999.536 15170.1)
(688.2057 4285.834 19597.63)
(990.6836 2319.362 23521.04)
(1306.662 1356.613 25549.84)
(1691.451 701.9719 27503.44)
(2072.376 207.2888 29643.38)
(2144.241 -301.5372 32078.88)
(1075.108 -1050.997 34520.23)
(40.4024 137.2611 10202.38)
(133.8139 474.2285 11018.37)
(251.2192 975.5127 12449.94)
(406.2346 1673.592 14833.24)
(621.6422 2180.088 18356.79)
(872.8211 1363.56 21443.36)
(1135.623 865.1707 23383.22)
(1473.37 468.5693 25227.04)
(1884.775 138.7749 27113.8)
(2294.41 -209.4681 29146.57)
(2374.574 -713.4327 31336.76)
(1189.556 -1594.789 33270.46)
(37.56758 45.14797 9909.276)
(123.8022 155.0277 10705.9)
(231.1037 314.5846 12099.99)
(370.9104 525.4482 14329.74)
(560.8953 656.8623 17392.46)
(774.0678 434.0383 20043.03)
(992.3109 284.8324 21821.83)
(1273.985 157.1681 23498.45)
(1634.521 46.17573 25143.26)
(2073.659 -71.89167 26813.68)
(2513.675 -237.4834 28524.34)
(2605.297 -518.3378 30173.51)
(1303.57 -1018.252 31199.32)
(32.12905 -519.2058 15597.78)
(75.18316 -391.6337 14455.76)
(92.33241 -1397.708 14511.48)
(86.87137 -234.0522 13240.78)
(217.2196 -847.3503 13416.65)
(145.3706 -1834.527 12308.55)
(82.27042 -75.00497 12210.84)
(253.4221 -271.1837 12362.08)
(345.016 -593.4506 11414.53)
(187.5121 -1098.229 8533.061)
(73.13745 70.20988 11438.97)
(242.9241 252.6767 11552.19)
(407.9187 553.5463 10713.47)
(453.5305 1043.247 8168.925)
(215.1094 1615.037 3187.053)
(64.45511 192.1679 10910.22)
(218.8621 689.5664 11027.82)
(397.4561 1515.247 10335.69)
(548.2465 2908.852 8099.811)
(537.8151 4723.082 3294.161)
(57.51868 283.8956 10578.83)
(195.4785 1018.228 10756.37)
(364.6094 2256.519 10298.76)
(547.7945 4463.905 8448.584)
(672.7704 7748.618 3605.216)
(52.2535 340.1688 10390.28)
(176.5402 1220.747 10678.26)
(331.63 2737.135 10569.42)
(516.6848 5656.219 9333.779)
(699.8723 11021.45 4258.438)
(48.22624 358.2397 10288.58)
(161.8512 1284.027 10720.5)
(304.3895 2899.555 11075.96)
(483.587 6265.344 10934.91)
(695.7751 15041.62 5481.042)
(44.99925 339.2244 10219.75)
(150.1597 1208.388 10798.47)
(282.3434 2697.439 11668.27)
(454.9014 5707.075 13559.53)
(700.687 13165.83 22532.3)
(1108.317 1492.39 30006.13)
(1480.305 671.4294 29773.71)
(1841.586 302.5543 30966.93)
(1913.722 85.54435 33024.37)
(962.114 -114.1212 35455.86)
(42.22903 288.9853 10136.83)
(140.2332 1018.367 10824.58)
(263.2307 2208.058 12006.83)
(425.5452 4289.884 14395.06)
(659.2002 7256.095 20149.96)
(974.8851 2765.986 25175.68)
(1297.069 1385.987 26639.61)
(1686.352 662.3831 28205.8)
(2071.458 195.387 30183.95)
(2148.919 -249.0981 32675.71)
(1081.352 -903.2564 35466.75)
(39.68318 216.6892 10007.06)
(131.2055 754.6595 10755.31)
(245.5387 1586.733 12075.88)
(395.7893 2859.574 14460.98)
(606.8569 4072.039 18620.47)
(863.1371 2194.484 22258.09)
(1129.077 1277.179 24057.49)
(1469.579 657.6444 25741.72)
(1883.767 196.3916 27554.26)
(2297.449 -263.9791 29644.56)
(2384.988 -930.0488 32089.45)
(1200.651 -2139.423 34597.44)
(37.22301 132.0249 9812.145)
(122.5678 455.3426 10578.34)
(228.4806 934.7903 11928.96)
(366.2998 1599.98 14179.9)
(554.7923 2078.388 17500.89)
(769.7635 1295.527 20376.42)
(989.2691 818.593 22129.95)
(1272.167 441.2294 23755.93)
(1633.977 130.7149 25376.91)
(2074.894 -190.3838 27080.74)
(2518.312 -640.8496 28912.65)
(2616.784 -1419.904 30816.32)
(1314.672 -2852.736 32274.41)
(34.7782 43.49287 9545.201)
(114.0643 149.1143 10296.6)
(211.7008 302.0586 11617.25)
(337.3953 503.5185 13731.04)
(505.8858 627.9768 16627.98)
(690.9915 413.7896 19110.23)
(875.2282 270.6217 20737.9)
(1109.666 148.7162 22241.58)
(1410.303 43.55883 23679.88)
(1793.856 -66.74194 25096.85)
(2261.382 -218.0546 26493.25)
(2734.116 -467.4007 27799.28)
(2843.614 -907.2306 28795.49)
(1423.546 -1657.361 28796.42)
(33.49384 -573.5858 16217.53)
(77.86038 -493.9486 14955.57)
(96.31281 -1771.329 15246.55)
(89.01693 -365.4864 13577.28)
(223.8126 -1329.247 13909.5)
(151.3652 -2919.024 13109.01)
(83.29879 -218.0925 12374.68)
(257.2181 -790.6236 12598.61)
(352.0948 -1743.696 11790.83)
(193.0103 -3284.509 9028.412)
(73.13745 -70.20988 11438.97)
(242.9241 -252.6767 11552.19)
(407.9187 -553.5463 10713.47)
(453.5305 -1043.247 8168.925)
(215.1094 -1615.037 3187.053)
(63.68657 66.08911 10765.86)
(215.8587 236.522 10821.56)
(390.3757 515.7168 10008.94)
(534.5396 972.7536 7661.865)
(519.2552 1533.437 3049.066)
(56.24267 181.803 10317.46)
(190.5205 649.1029 10379.04)
(352.7302 1418.361 9681.174)
(523.007 2709.731 7563.747)
(630.7263 4402.426 3086.771)
(50.70053 269.7106 10046.14)
(170.5527 963.3235 10172.36)
(317.1808 2124.159 9693.184)
(485.0728 4178.455 7912.43)
(638.6691 7217.256 3364.587)
(46.59676 324.2808 9901.709)
(155.6181 1159.769 10141.06)
(289.2839 2589.623 9996.46)
(448.9765 5324.626 8785.511)
(617.6869 10316.62 3987.527)
(43.46283 342.4714 9833.26)
(144.343 1224.069 10216.88)
(268.3315 2754.79 10519.85)
(421.7056 5927.941 10343.81)
(603.6039 14160.49 5159.487)
(40.91642 325.0591 9791.16)
(135.3415 1155.21 10320.99)
(251.8407 2571.532 11121.2)
(401.0563 5422.322 12881.08)
(610.7413 12457.41 21319.85)
(958.5788 1404.953 28250.79)
(1289.104 628.5885 27867.49)
(1682.547 282.3868 28799.13)
(2070.714 82.71826 30570.83)
(2151.898 -96.43595 33079.83)
(1085.472 -359.7702 36134.51)
(38.67695 277.4756 9731.73)
(127.5203 975.8482 10370.96)
(237.2933 2110.915 11476.81)
(379.6615 4089.735 13722.06)
(581.2698 6894.222 19145.23)
(849.3855 2617.084 23823.65)
(1120.804 1304.823 25083.33)
(1465.098 620.4834 26398.8)
(1882.531 184.7159 28055.66)
(2300.575 -217.9346 30189.53)
(2396.106 -799.6104 32940.57)
(1212.963 -1908.792 36224.92)
(36.55997 208.4232 9624.277)
(120.1767 724.606 10325.75)
(223.3093 1520.497 11570.5)
(356.8718 2733.805 13824)
(541.5861 3882.109 17752.26)
(761.2209 2085.006 21150.51)
(983.5692 1208.423 22767.89)
(1268.878 619.2536 24240.33)
(1632.973 184.8527 25788.57)
(2076.931 -239.8898 27540.93)
(2526.171 -835.6678 29595.45)
(2636.718 -1905.349 32002.22)
(1334.629 -4005.454 34400.09)
(34.45906 127.185 9451.631)
(112.9263 437.974 10173.91)
(209.2961 897.5696 11453.02)
(333.1979 1533.206 13587.45)
(500.377 1986.997 16731.64)
(687.1472 1235.091 19428.07)
(872.5448 777.7535 21030.64)
(1108.079 417.4999 22485.18)
(1409.809 123.2891 23899.72)
(1794.778 -176.7445 25346.15)
(2264.817 -588.4741 26851.22)
(2742.964 -1280.577 28380.61)
(2863.559 -2542.142 29752.6)
(1441.737 -4795.556 30252.98)
(32.32414 41.95657 9207.397)
(105.5977 143.6483 9918.433)
(195.0619 290.5385 11173.46)
(309.1072 483.4735 13183.92)
(460.2678 601.7738 15934.41)
(623.3622 395.5944 18271.51)
(781.4123 257.9982 19774.12)
(978.8394 141.3008 21138.83)
(1228.272 41.23819 22416.19)
(1546.692 -62.66597 23639.49)
(1951.941 -203.1302 24798.53)
(2446.24 -429.8624 25811.49)
(2949.877 -818.8091 26489.04)
(3076.325 -1475.447 26459.38)
(1537.274 -2474.816 48677.62)
(34.91987 -568.1381 16865.16)
(81.00725 -545.6776 15544.98)
(101.0155 -1961.185 16132.87)
(91.97842 -460.9649 14043.64)
(232.9671 -1684.498 14607.96)
(159.8462 -3761.984 14315.83)
(85.26067 -340.5632 12688.22)
(264.4906 -1240.233 13058.26)
(365.828 -2774.268 12550.75)
(203.9832 -5412.275 10103.36)
(74.02903 -204.1498 11592.34)
(246.3902 -736.6646 11772.54)
(415.6921 -1626.407 11064.26)
(466.0781 -3119.797 8638.918)
(223.2694 -4975.13 3445.457)
(63.68657 -66.08911 10765.86)
(215.8587 -236.522 10821.56)
(390.3757 -515.7168 10008.94)
(534.5396 -972.7536 7661.865)
(519.2552 -1533.437 3049.066)
(55.57379 62.52445 10180.88)
(187.932 222.6428 10184.87)
(346.6008 482.7418 9375.319)
(510.5549 906.1777 7155.855)
(610.5327 1429.439 2858.429)
(49.57526 172.719 9797.823)
(166.2377 614.1014 9815.369)
(306.9455 1335.161 9111.797)
(463.6408 2536.456 7084.182)
(600.5818 4100.704 2881.762)
(45.21008 257.1133 9573.638)
(150.3377 915.2025 9660.417)
(276.7086 2009.674 9167.41)
(421.7493 3933.465 7447.428)
(564.8405 6755.714 3150.843)
(41.99233 310.0072 9463.411)
(138.777 1105.612 9664.483)
(255.0086 2460.326 9494.198)
(391.5837 5037.842 8310.045)
(536.3769 9712.102 3753.427)
(39.51786 328.1705 9420.809)
(130.0921 1170.201 9764.991)
(239.3271 2626.207 10026.34)
(371.7741 5632.166 9825.619)
(526.248 13398.52 4880.958)
(37.47372 312.1127 9399.828)
(123.0674 1106.978 9888.398)
(227.0131 2458.402 10630.12)
(357.7887 5169.364 12278.65)
(538.5197 11836.31 20256.76)
(835.1927 1329.327 26733.27)
(1113.937 591.7754 26239.23)
(1461.765 264.5046 26953.96)
(1881.602 78.09866 28414.65)
(2302.558 -84.33209 30558.65)
(2403.443 -318.5702 33540.85)
(1221.481 -781.8856 37506.87)
(35.63234 266.8907 9359.45)
(116.7986 936.9867 9956.71)
(215.803 2022.802 10996.43)
(342.3144 3909.878 13117.56)
(518.7307 6572.723 18252.53)
(749.0901 2486.542 22637.98)
(976.365 1234.582 23738.49)
(1264.997 584.2433 24858.8)
(1631.769 173.7406 26257.25)
(2079.022 -198.0066 28044.62)
(2534.567 -718.7019 30367.55)
(2658.839 -1700.497 33456.74)
(1358.17 -3812.687 37356.3)
(33.84495 200.7825 9270.649)
(110.7219 696.9669 9930.944)
(204.5555 1459.957 11108.83)
(324.6145 2619.719 13246.39)
(488.4561 3711.423 16971.95)
(679.5172 1987.75 20166.04)
(867.5164 1148.138 21636.75)
(1105.211 585.9461 22943.46)
(1408.903 174.3119 24287.06)
(1796.299 -222.6989 25775.78)
(2270.644 -767.4914 27480.72)
(2758.322 -1718.879 29453.25)
(2899.407 -3570.471 31645.91)
(1476.069 -7221.318 33399.74)
(32.02741 122.6925 9117.131)
(104.5438 421.9194 9800.234)
(192.845 863.3379 11015.5)
(305.2591 1472.171 13046.04)
(455.2523 1904.091 16033.74)
(619.8922 1180.783 18575.37)
(779.0157 741.475 20053.19)
(977.4391 396.6818 21370.26)
(1227.836 116.7153 22624.15)
(1547.442 -165.9524 23873.97)
(1954.654 -548.2235 25132.45)
(2452.914 -1177.845 26346.77)
(2965.267 -2294.813 27353.24)
(3108.901 -4270.331 27751.44)
(1564.826 -7456.06 51935.97)
(30.14339 40.52554 8892.839)
(98.14841 138.5745 9567.529)
(180.5925 279.8896 10763.37)
(284.8403 465.0376 12680.82)
(421.7452 577.8218 15300.37)
(567.2558 379.0892 17510.33)
(705.0346 246.6556 18907.26)
(874.0553 134.7137 20157.96)
(1083.59 39.19232 21307.12)
(1346.942 -59.24321 22381.3)
(1681.857 -190.9297 23362.61)
(2106.92 -400.6586 24163.71)
(2624.939 -753.3288 24591.06)
(3154.559 -1331.602 24310.51)
(3292.206 -2199.292 44464.56)
(210.3095 -502.0132 15331.66)
(36.25765 -505.0651 17469.61)
(84.29527 -540.5 16160.91)
(105.9312 -1936.021 17066.11)
(95.45885 -509.237 14593.59)
(243.7796 -1865.001 15450.06)
(170.0559 -4212.713 15887.86)
(87.96835 -429.5294 13122.75)
(274.5847 -1571.658 13709.64)
(385.2432 -3575.077 13696.22)
(220.2365 -7329.047 11949.1)
(75.72991 -318.7908 11885.83)
(253.0298 -1155.581 12200.76)
(430.7637 -2587.541 11772.59)
(491.0962 -5140.014 9658.617)
(240.3142 -8760.398 4032.363)
(64.45511 -192.1679 10910.22)
(218.8621 -689.5664 11027.82)
(397.4561 -1515.247 10335.69)
(548.2465 -2908.852 8099.811)
(537.8151 -4723.082 3294.161)
(55.57379 -62.52445 10180.88)
(187.932 -222.6428 10184.87)
(346.6008 -482.7418 9375.319)
(510.5549 -906.1777 7155.855)
(610.5327 -1429.439 2858.429)
(48.9854 59.4003 9668.066)
(163.9849 210.6371 9631.667)
(301.6643 454.4236 8823.873)
(452.8722 848.2319 6702.377)
(582.2732 1331.5 2669.101)
(44.20531 164.6517 9336.92)
(146.5323 583.4243 9321.247)
(267.8007 1263.196 8617.333)
(403.2887 2387.725 6667.711)
(531.9374 3838.468 2698.897)
(40.74094 245.7961 9149.778)
(134.0618 872.4652 9206.279)
(243.9175 1909.327 8706.509)
(367.8876 3721.577 7043.968)
(490.8733 6359.761 2965.749)
(38.17929 297.0618 9066.403)
(125.0689 1056.956 9236.895)
(227.4289 2345.483 9048.53)
(345.2041 4786.447 7893.234)
(467.7394 9189.312 3550.525)
(36.19171 315.1002 9044.226)
(118.2888 1121.343 9355.6)
(215.7188 2510.672 9583.394)
(331.634 5369.418 9365.587)
(463.9765 12730.48 4636.775)
(34.5231 300.2066 9040.208)
(112.7166 1062.895 9493.356)
(206.4442 2355.787 10185.06)
(322.5708 4942.047 11737.57)
(480.5426 11284.48 19312.21)
(736.5696 1263.025 25402.51)
(970.3865 559.9202 24832.16)
(1262.112 249.051 25381.36)
(1630.881 73.42703 26592.87)
(2080.344 -76.60892 28385.83)
(2540.113 -286.4003 30912.1)
(2674.139 -696.7145 34602.5)
(1375.909 -1641.717 40190.21)
(32.98578 257.1068 9015.53)
(107.6076 901.2471 9575.978)
(197.6742 1942.264 10557.61)
(311.361 3746.725 12569.4)
(467.8243 6283.786 17450.21)
(668.6818 2370.571 21584.14)
(861.161 1172.997 22558.92)
(1101.826 552.8154 23528.59)
(1407.824 163.7973 24728.07)
(1797.857 -183.8111 26246.06)
(2276.878 -660.1864 28192.59)
(2775.373 -1534.581 30769.14)
(2941.684 -3399.89 34280.86)
(1520.508 -7698.911 38640.76)
(31.45641 193.6904 8942.542)
(102.502 671.4188 9566.178)
(188.4744 1404.278 10684.43)
(297.3901 2515.436 12718.56)
(444.3988 3556.582 16264.02)
(613.005 1900.353 19280.9)
(774.5247 1094.585 20631.02)
(974.9083 556.7275 21805.67)
(1227.036 165.0057 22990.58)
(1548.677 -209.1046 24278.09)
(1959.257 -715.0569 25719.67)
(2464.509 -1581.258 27334.58)
(2992.935 -3224.2 29063.49)
(3170.378 -6433.613 30546.26)
(1619.978 -12393.23 59735.04)
(29.86659 118.5077 8805.652)
(97.16842 407.017 9453.505)
(178.5391 831.695 10611.19)
(281.2925 1416.035 12548.19)
(417.147 1828.306 15395.74)
(564.0966 1131.519 17801.51)
(702.8715 708.8768 19174.06)
(872.8049 378.1889 20378.58)
(1083.204 110.9221 21504.68)
(1347.582 -156.8906 22603.1)
(1684.114 -515.3108 23676.6)
(2112.241 -1097.889 24662.8)
(2636.598 -2111.559 25386.27)
(3179.596 -3855.026 25475.5)
(3341.307 -6629.023 47330.61)
(216.1248 -1600.068 16375.78)
(28.18938 39.18861 8599.038)
(91.52828 133.8484 9240.756)
(167.8595 270.0048 10382.79)
(263.7313 447.9955 12215.82)
(388.6836 555.7918 14717.16)
(519.8544 364.0022 16814.29)
(641.6533 236.367 18120.34)
(788.7402 128.7961 19275.42)
(967.7541 37.37488 20320.19)
(1188.439 -56.26363 21276.62)
(1464.559 -180.5592 22123.07)
(1814.238 -376.6536 22769.78)
(2256.112 -702.2216 23027.26)
(2792.418 -1225.079 22572.06)
(3338.609 -1983.802 40827.78)
(442.8694 -443.8602 13984.58)
(249.4285 -802.5005 21943.43)
(37.3755 -394.3975 17970.97)
(87.38027 -480.5087 16735.78)
(110.5084 -1706.555 17911.26)
(99.09529 -504.4079 15168.28)
(255.0809 -1841.092 16336.69)
(180.8051 -4124.907 17648.62)
(91.15021 -474.509 13635.17)
(286.5028 -1740.047 14494.91)
(408.5989 -4003.123 15187.94)
(241.001 -8626.758 14915.95)
(78.07728 -402.0694 12292.58)
(262.2435 -1464.376 12807.59)
(452.0531 -3334.275 12840.17)
(528.1006 -6958.87 11408.9)
(267.8859 -13387.16 5119.518)
(65.92125 -300.0807 11186.49)
(224.6149 -1081.7 11428.66)
(411.1802 -2410.658 10995.47)
(575.5462 -4792.05 9049.874)
(576.5256 -8314.234 3850.708)
(56.24267 -181.803 10317.46)
(190.5205 -649.1028 10379.04)
(352.7302 -1418.361 9681.174)
(523.007 -2709.731 7563.747)
(630.7263 -4402.426 3086.771)
(48.9854 -59.4003 9668.066)
(163.9849 -210.6371 9631.667)
(301.6643 -454.4236 8823.873)
(452.8722 -848.2319 6702.377)
(582.2732 -1331.5 2669.101)
(43.67861 56.62585 9213.222)
(144.5455 200.1146 9146.717)
(263.2044 429.9295 8344.917)
(394.0126 798.4913 6308.279)
(516.116 1246.353 2499.837)
(39.8342 157.4042 8923.478)
(130.6637 556.1795 8882.94)
(236.061 1200.119 8183.88)
(351.8212 2259.088 6306.218)
(462.5384 3613.459 2540.279)
(37.04019 235.532 8765.866)
(120.8135 834.0688 8798.848)
(217.5239 1820.199 8297.585)
(324.3028 3535.84 6690.285)
(428.1372 6017.328 2805.223)
(34.96469 285.2305 8703.934)
(113.7161 1012.826 8849.545)
(204.9799 2242.294 8648.572)
(307.9023 4563.128 7523.281)
(412.3613 8730.994 3372.649)
(33.34122 303.0802 8698.17)
(108.3361 1076.688 8981.77)
(196.1622 2405.875 9181.996)
(298.9616 5133.302 8952.505)
(413.9499 12136.93 4419.946)
(31.95839 289.2014 8707.99)
(103.8444 1022.353 9130.293)
(189.0946 2261.994 9778.532)
(293.3855 4735.837 11246.96)
(433.3497 10788.5 18463.29)
(657.498 1204.122 24219.76)
(855.8869 531.9909 23598.04)
(1099.311 235.653 24023)
(1407.033 69.21556 25043.9)
(1798.84 -71.11471 26564.67)
(2281 -263.1144 28694.71)
(2787.172 -628.8787 31805.98)
(2973.532 -1464.332 36808.84)
(1559.618 -3615.788 45741.27)
(30.65756 248.0252 8696.434)
(99.61747 868.2111 9224.221)
(182.1302 1868.193 10154.22)
(285.2395 3597.588 12068.5)
(425.6137 6021.659 16722.32)
(603.2242 2266.351 20636.64)
(768.8482 1118.287 21510.17)
(971.9217 525.248 22361.59)
(1226.085 155.0417 23407.79)
(1549.943 -172.5936 24720.45)
(1964.186 -615.1416 26383.82)
(2477.395 -1411.998 28546.67)
(3025.575 -3071.431 31445.14)
(3249.955 -6863.419 35209.55)
(1701.291 -16154.21 76799.01)
(29.33396 187.0841 8637.017)
(95.27002 647.7041 9227.714)
(174.491 1352.81 10292.26)
(274.0374 2419.523 12233.19)
(407.1963 3415.037 15616.84)
(557.8262 1821.07 18477.59)
(698.8179 1046.463 19726.47)
(870.5447 530.7721 20793.66)
(1082.496 156.8097 21852.8)
(1348.637 -197.6915 22985.35)
(1687.947 -672.1624 24228.81)
(2121.49 -1474.068 25583.95)
(2657.574 -2967.393 26960.48)
(3226.866 -5810.782 27997.52)
(3439.629 -11028.58 54211.78)
(228.7044 -3141.243 18875.62)
(27.93046 114.5982 8514.727)
(90.61413 393.1355 9130.62)
(165.9502 802.3223 10235.99)
(260.4451 1364.143 12088.05)
(384.4441 1758.602 14808.89)
(516.9581 1086.488 17093.87)
(639.684 679.3078 18376)
(787.6118 361.5751 19486.33)
(967.4093 105.7759 20508.53)
(1189.002 -149.0018 21487.31)
(1466.502 -487.3311 22420.04)
(1818.683 -1032.149 23239)
(2265.43 -1968.463 23768.5)
(2811.389 -3547.266 23643.3)
(3376.081 -5981.832 43402.77)
(453.1137 -1416.119 14899.87)
(258.9635 -2614.603 23363.41)
(26.42613 37.93639 8323.911)
(85.59617 129.4329 8935.534)