/*--------------------------------*- C++ -*----------------------------------*\
| =========                 |                                                 |
| \\      /  F ield         | OpenFOAM: The Open Source CFD Toolbox           |
|  \\    /   O peration     | Version:  2306                                  |
|   \\  /    A nd           | Website:  www.openfoam.com                      |
|    \\/     M anipulation  |                                                 |
\*---------------------------------------------------------------------------*/
FoamFile
{
    version     2.0;
    format      ascii;
    arch        "LSB;label=32;scalar=64";
    class       volScalarField;
    location    "1.2/phiEC";
    object      phi;
}
// * * * * * * * * * * * * * * * * * * * * * * * * * * * * * * * * * * * * * //

dimensions      [1 2 -3 0 0 -1 0];

internalField   nonuniform List<scalar> 
20000
(
0.8096717
0.8096708
0.8096678
0.8098586
0.8096692
0.809667
0.8098558
0.8096624
0.8098467
0.8100572
0.8096669
0.8096655
0.8098503
0.8096617
0.8098441
0.8100517
0.809657
0.8098302
0.8100366
0.8102787
0.8096641
0.8096633
0.8098426
0.8096602
0.8098389
0.8100409
0.8096563
0.8098277
0.8100314
0.8102699
0.8096521
0.8098137
0.810008
0.8102477
0.8105368
0.8096612
0.8096607
0.8098332
0.8096582
0.8098315
0.8100251
0.8096549
0.8098229
0.810021
0.8102519
0.8096515
0.8098114
0.8100032
0.8102393
0.8105262
0.8096479
0.8097989
0.8099797
0.8102054
0.8104927
0.8107632
0.8096584
0.8096579
0.8098232
0.8096557
0.8098226
0.8100055
0.809653
0.809816
0.8100061
0.810224
0.8096502
0.8098068
0.8099935
0.8102222
0.8105034
0.8096473
0.8097967
0.8099751
0.8101976
0.8104827
0.8107566
0.8096442
0.809786
0.8099543
0.8101637
0.810434
0.810707
0.8109214
0.809656
0.8096552
0.8098136
0.8096531
0.8098131
0.8099839
0.8096507
0.8098077
0.8099874
0.8101862
0.8096484
0.8098005
0.8099796
0.8101957
0.8104638
0.8096461
0.8097925
0.8099662
0.8101816
0.810461
0.8107434
0.8096436
0.809784
0.8099501
0.8101565
0.8104246
0.8107007
0.8109173
0.809641
0.8097748
0.8099323
0.8101267
0.8103767
0.8106333
0.8108563
0.8110843
0.8096543
0.8096529
0.8098055
0.8096506
0.809804
0.8099633
0.8096483
0.8097988
0.8099669
0.810141
0.8096463
0.8097927
0.8099621
0.8101598
0.8103977
0.8096444
0.8097865
0.8099532
0.8101569
0.8104235
0.8107247
0.8096425
0.80978
0.8099417
0.8101416
0.8104044
0.8106882
0.8109096
0.8096404
0.8097729
0.8099283
0.8101199
0.810368
0.8106275
0.8108524
0.8110822
0.8096381
0.8097651
0.8099132
0.8100946
0.8103261
0.8105624
0.8107721
0.8110098
0.8112501
0.8096534
0.8096513
0.8097996
0.8096485
0.8097963
0.8099463
0.809646
0.8097903
0.8099474
0.8100999
0.809644
0.8097845
0.809943
0.8101169
0.8102822
0.8096424
0.8097793
0.8099369
0.8101235
0.8103608
0.8107054
0.8096409
0.8097744
0.8099295
0.8101186
0.8103694
0.8106704
0.8108998
0.8096393
0.8097691
0.8099204
0.8101059
0.8103492
0.8106158
0.8108451
0.8110784
0.8096376
0.8097632
0.8099094
0.8100881
0.8103179
0.8105569
0.8107685
0.8110078
0.8112496
0.8096355
0.8097564
0.8098965
0.8100667
0.8102823
0.8104998
0.8106915
0.8109145
0.8111655
0.8114172
0.8096534
0.8096504
0.8097966
0.809647
0.8097907
0.8099341
0.809644
0.8097831
0.8099311
0.8100677
0.8096418
0.8097765
0.8099248
0.8100779
0.8102023
0.8096402
0.8097715
0.8099191
0.8100834
0.8102513
0.809639
0.8097675
0.8099143
0.8100874
0.810311
0.8106521
0.8108917
0.8096378
0.8097638
0.809909
0.8100844
0.8103166
0.8105992
0.8108358
0.8110739
0.8096365
0.8097596
0.809902
0.810075
0.8103003
0.810546
0.8107616
0.8110041
0.8112487
0.809635
0.8097546
0.8098929
0.8100606
0.8102746
0.8104947
0.8106881
0.8109126
0.8111649
0.8114183
0.8096332
0.8097486
0.8098816
0.8100423
0.8102443
0.8104459
0.8106207
0.810824
0.8110588
0.8113219
0.8115842
0.8096543
0.8096504
0.8097966
0.8096462
0.8097878
0.8099279
0.8096426
0.8097779
0.8099196
0.8100458
0.80964
0.8097698
0.8099097
0.8100473
0.8101483
0.8096382
0.8097641
0.8099021
0.8100471
0.8101755
0.809637
0.8097602
0.8098976
0.8100501
0.810209
0.809636
0.8097574
0.8098947
0.8100552
0.8102622
0.8105821
0.8108281
0.8110705
0.8096351
0.8097546
0.8098911
0.8100548
0.8102698
0.8105306
0.8107529
0.8109998
0.8112476
0.809634
0.8097512
0.8098858
0.8100482
0.810258
0.8104845
0.8106817
0.8109092
0.811164
0.81142
0.8096327
0.8097469
0.8098782
0.8100365
0.810237
0.810441
0.8106175
0.8108222
0.8110583
0.8113228
0.8115872
0.8096311
0.8097415
0.8098683
0.8100206
0.810211
0.8103991
0.8105597
0.8107447
0.8109581
0.8112035
0.8114776
0.8117493
0.809656
0.8096513
0.8097996
0.8096462
0.8097878
0.8099279
0.8096418
0.8097752
0.8099137
0.8100348
0.8096386
0.809765
0.8098989
0.8100265
0.8101147
0.8096364
0.8097578
0.809888
0.8100186
0.8101243
0.809635
0.8097533
0.8098818
0.8100163
0.8101384
0.8096341
0.8097505
0.8098789
0.8100203
0.8101672
0.8096334
0.8097485
0.8098776
0.8100273
0.8102189
0.8105146
0.8107457
0.8109965
0.8112468
0.8096327
0.8097464
0.8098755
0.8100291
0.8102293
0.8104701
0.8106736
0.8109051
0.8111628
0.8114218
0.8096318
0.8097436
0.8098714
0.8100247
0.8102213
0.8104315
0.8106115
0.810819
0.8110573
0.8113243
0.8115923
0.8096306
0.8097399
0.809865
0.8100151
0.8102041
0.8103945
0.8105567
0.810743
0.8109576
0.8112043
0.8114803
0.8117551
0.8096291
0.8097351
0.8098562
0.8100011
0.8101814
0.8103581
0.8105068
0.8106764
0.8108703
0.8110926
0.8113474
0.811631
0.8119097
0.8096584
0.8096529
0.8098055
0.809647
0.8097907
0.8099341
0.8096418
0.8097752
0.8099137
0.8100348
0.8096379
0.8097624
0.8098934
0.8100161
0.8100986
0.8096352
0.8097533
0.809878
0.8099992
0.8100924
0.8096334
0.8097473
0.8098685
0.8099897
0.8100907
0.8096323
0.8097439
0.809864
0.8099887
0.8101015
0.8096316
0.8097419
0.8098627
0.8099945
0.81013
0.809631
0.8097405
0.8098626
0.8100031
0.8101813
0.8104551
0.8106669
0.8109021
0.811162
0.811423
0.8096305
0.809739
0.8098616
0.8100065
0.8101942
0.8104178
0.810604
0.8108152
0.8110562
0.8113258
0.8115977
0.8096297
0.8097368
0.8098586
0.8100039
0.8101892
0.8103855
0.810551
0.81074
0.8109567
0.8112056
0.8114848
0.8117652
0.8096287
0.8097335
0.8098531
0.8099959
0.8101749
0.8103538
0.810504
0.8106749
0.8108698
0.8110933
0.8113497
0.8116362
0.8119199
0.8096273
0.8097291
0.8098452
0.8099835
0.8101549
0.8103217
0.8104605
0.8106173
0.8107947
0.8109961
0.8112263
0.8114888
0.8117794
0.8120613
0.8096612
0.8096552
0.8098136
0.8096485
0.8097963
0.8099463
0.8096426
0.8097779
0.8099196
0.8100458
0.8096379
0.8097624
0.8098934
0.8100161
0.8100986
0.8096345
0.8097509
0.8098729
0.8099895
0.8100771
0.8096322
0.8097431
0.8098592
0.8099717
0.8100609
0.8096307
0.8097383
0.8098516
0.8099638
0.810057
0.8096298
0.8097356
0.8098486
0.8099647
0.8100684
0.8096293
0.8097343
0.8098485
0.809972
0.8100976
0.8096289
0.8097334
0.8098494
0.8099818
0.8101488
0.8104038
0.8105977
0.8108124
0.8110554
0.8113268
0.8116013
0.8096284
0.8097323
0.8098492
0.8099865
0.8101634
0.8103726
0.8105439
0.8107365
0.8109557
0.8112069
0.8114896
0.8117765
0.8096278
0.8097305
0.8098469
0.8099851
0.8101607
0.8103451
0.8104986
0.810672
0.810869
0.8110945
0.8113538
0.8116452
0.8119383
0.8096269
0.8097276
0.8098422
0.8099785
0.8101486
0.8103176
0.8104578
0.8106158
0.8107942
0.8109968
0.8112284
0.8114934
0.8117884
0.8120779
0.8096257
0.8097236
0.8098351
0.8099674
0.8101309
0.810289
0.8104193
0.8105655
0.8107292
0.8109132
0.8111212
0.8113576
0.8116254
0.8119189
0.8121977
0.8096641
0.8096579
0.8098232
0.8096506
0.809804
0.8099633
0.809644
0.8097831
0.8099311
0.8100677
0.8096386
0.809765
0.8098989
0.8100265
0.8101147
0.8096345
0.8097509
0.8098729
0.8099895
0.8100771
0.8096316
0.8097409
0.8098544
0.8099626
0.8100466
0.8096296
0.8097342
0.8098428
0.8099469
0.8100293
0.8096283
0.8097303
0.8098368
0.8099412
0.8100268
0.8096276
0.8097283
0.8098351
0.8099438
0.8100397
0.8096272
0.8097275
0.8098359
0.8099523
0.8100696
0.8096269
0.809727
0.8098374
0.809963
0.8101203
0.8103593
0.810538
0.8107338
0.8109549
0.8112078
0.8114928
0.8117843
0.8096266
0.8097263
0.8098379
0.8099685
0.8101361
0.8103329
0.8104919
0.8106687
0.810868
0.8110957
0.8113581
0.8116552
0.81196
0.8096261
0.8097247
0.8098362
0.8099682
0.810135
0.8103093
0.8104527
0.8106131
0.8107934
0.8109979
0.8112321
0.8115016
0.8118048
0.8121092
0.8096252
0.8097222
0.8098322
0.8099626
0.8101248
0.810285
0.8104167
0.8105641
0.8107288
0.8109139
0.8111233
0.8113619
0.8116335
0.8119337
0.8122224
0.8096241
0.8097186
0.8098257
0.8099526
0.8101089
0.8102594
0.8103823
0.8105194
0.8106718
0.8108415
0.8110311
0.8112441
0.8114844
0.8117536
0.812044
0.8124429
0.8096669
0.8096607
0.8098332
0.8096531
0.8098131
0.8099839
0.809646
0.8097903
0.8099474
0.8100999
0.80964
0.8097698
0.8099097
0.8100473
0.8101483
0.8096352
0.8097533
0.809878
0.8099992
0.8100924
0.8096316
0.8097409
0.8098544
0.8099626
0.8100466
0.809629
0.8097321
0.8098382
0.8099384
0.810016
0.8096272
0.8097265
0.8098285
0.8099253
0.8100009
0.8096262
0.8097232
0.8098239
0.8099216
0.8100005
0.8096256
0.8097217
0.8098231
0.8099255
0.8100148
0.8096253
0.8097213
0.8098246
0.8099348
0.810045
0.8096251
0.8097211
0.8098267
0.809946
0.8100949
0.8103203
0.8104863
0.8106662
0.8108672
0.8110965
0.811361
0.8116622
0.8119764
0.8096249
0.8097207
0.8098276
0.8099523
0.8101115
0.8102977
0.8104463
0.81061
0.8107925
0.810999
0.8112361
0.8115106
0.8118241
0.8121501
0.8096244
0.8097194
0.8098264
0.8099527
0.8101118
0.8102772
0.8104119
0.8105615
0.8107281
0.8109149
0.8111267
0.8113693
0.8116483
0.8119616
0.8122722
0.8096237
0.8097172
0.8098229
0.8099479
0.8101031
0.8102556
0.8103799
0.8105181
0.8106715
0.8108421
0.811033
0.8112481
0.8114919
0.811767
0.812066
0.8124848
0.8096226
0.8097138
0.809817
0.8099389
0.8100887
0.8102323
0.8103488
0.8104781
0.8106209
0.8107785
0.810953
0.8111469
0.8113629
0.8116035
0.8118685
0.8122677
0.8128139
0.8096692
0.8096633
0.8098426
0.8096557
0.8098226
0.8100055
0.8096483
0.8097988
0.8099669
0.810141
0.8096418
0.8097765
0.8099248
0.8100779
0.8102023
0.8096364
0.8097578
0.809888
0.8100186
0.8101243
0.8096322
0.8097431
0.8098592
0.8099717
0.8100609
0.809629
0.8097321
0.8098382
0.8099384
0.810016
0.8096267
0.8097245
0.8098242
0.8099173
0.8099884
0.8096251
0.8097196
0.809816
0.8099066
0.8099761
0.8096242
0.8097169
0.8098124
0.8099044
0.8099777
0.8096238
0.8097158
0.8098123
0.8099093
0.8099929
0.8096236
0.8097156
0.8098143
0.8099191
0.8100232
0.8096235
0.8097157
0.8098168
0.8099307
0.8100722
0.8102856
0.810441
0.8106076
0.8107918
0.8109998
0.8112388
0.8115169
0.8118388
0.8121862
0.8096233
0.8097155
0.8098181
0.8099374
0.8100893
0.810266
0.8104058
0.8105585
0.8107272
0.810916
0.8111304
0.8113777
0.8116658
0.811998
0.8123464
0.8096229
0.8097145
0.8098174
0.8099384
0.8100906
0.810248
0.8103752
0.8105157
0.8106707
0.810843
0.8110362
0.8112551
0.8115055
0.8117922
0.8121103
0.8125763
0.8096222
0.8097125
0.8098143
0.8099344
0.8100831
0.8102286
0.8103464
0.8104768
0.8106205
0.8107791
0.8109549
0.8111506
0.8113699
0.8116157
0.8118883
0.8123047
0.8128807
0.8096213
0.8097094
0.8098089
0.8099262
0.81007
0.8102074
0.8103182
0.8104406
0.8105751
0.8107226
0.8108846
0.8110627
0.8112588
0.8114744
0.8117101
0.8120739
0.812606
0.8131744
0.8096708
0.8096655
0.8098503
0.8096582
0.8098315
0.8100251
0.8096507
0.8098077
0.8099874
0.8101862
0.809644
0.8097845
0.809943
0.8101169
0.8102822
0.8096382
0.8097641
0.8099021
0.8100471
0.8101755
0.8096334
0.8097473
0.8098685
0.8099897
0.8100907
0.8096296
0.8097342
0.8098428
0.8099469
0.8100293
0.8096267
0.8097245
0.8098242
0.8099173
0.8099884
0.8096246
0.8097177
0.8098119
0.809899
0.8099644
0.8096233
0.8097134
0.8098049
0.8098901
0.8099546
0.8096225
0.8097111
0.8098022
0.8098892
0.8099577
0.8096221
0.8097104
0.8098026
0.8098947
0.8099736
0.809622
0.8097104
0.809805
0.8099049
0.8100036
0.8096219
0.8097107
0.8098077
0.8099167
0.8100516
0.8102545
0.8104007
0.8105563
0.8107265
0.8109166
0.8111329
0.8113835
0.811679
0.8120303
0.8124338
0.8096218
0.8097107
0.8098094
0.8099237
0.8100689
0.8102374
0.8103694
0.8105128
0.8106699
0.810844
0.8110397
0.8112629
0.8115216
0.8118251
0.8121762
0.8127466
0.8096215
0.8097099
0.809809
0.8099253
0.8100711
0.8102214
0.810342
0.8104745
0.8106198
0.81078
0.8109579
0.8111572
0.8113826
0.8116389
0.8119283
0.8123857
0.8130317
0.8096209
0.8097081
0.8098063
0.8099219
0.8100647
0.8102039
0.8103159
0.8104393
0.8105747
0.8107232
0.8108863
0.8110663
0.8112654
0.8114858
0.8117283
0.8121072
0.8126649
0.8132636
0.80962
0.8097053
0.8098013
0.8099144
0.8100527
0.8101844
0.81029
0.8104063
0.8105335
0.8106724
0.8108238
0.8109889
0.8111687
0.8113639
0.8115743
0.8119011
0.8123846
0.8129349
0.813521
0.8096717
0.809667
0.8098558
0.8096602
0.8098389
0.8100409
0.809653
0.809816
0.8100061
0.810224
0.8096463
0.8097927
0.8099621
0.8101598
0.8103977
0.8096402
0.8097715
0.8099191
0.8100834
0.8102513
0.809635
0.8097533
0.8098818
0.8100163
0.8101384
0.8096307
0.8097383
0.8098516
0.8099638
0.810057
0.8096272
0.8097265
0.8098285
0.8099253
0.8100009
0.8096246
0.8097177
0.8098119
0.809899
0.8099644
0.8096227
0.8097116
0.809801
0.809883
0.8099435
0.8096215
0.8097078
0.8097949
0.8098756
0.8099358
0.8096208
0.8097059
0.8097928
0.8098755
0.80994
0.8096206
0.8097054
0.8097937
0.8098815
0.8099562
0.8096205
0.8097056
0.8097964
0.8098919
0.8099859
0.8096205
0.8097061
0.8097994
0.8099038
0.8100328
0.8102263
0.8103645
0.8105106
0.8106693
0.8108447
0.811042
0.8112683
0.8115338
0.8118542
0.8122542
0.8131635
0.8096204
0.8097062
0.8098013
0.8099111
0.8100503
0.8102111
0.8103364
0.8104717
0.810619
0.810781
0.8109612
0.8111645
0.8113976
0.8116692
0.8119879
0.8125369
0.8133231
0.8096202
0.8097056
0.8098012
0.8099131
0.8100531
0.8101969
0.8103116
0.8104371
0.8105741
0.8107241
0.8108892
0.8110725
0.8112773
0.8115075
0.8117651
0.8121802
0.8127983
0.8134651
0.8096196
0.809704
0.8097988
0.8099102
0.8100475
0.810181
0.8102878
0.8104051
0.8105332
0.8106729
0.8108254
0.8109923
0.811175
0.8113747
0.8115913
0.8119317
0.8124375
0.8130133
0.8136288
0.8096188
0.8097014
0.8097943
0.8099034
0.8100366
0.810163
0.8102639
0.8103748
0.8104956
0.8106268
0.8107691
0.8109233
0.8110897
0.8112684
0.8114582
0.8117536
0.81219
0.8126867
0.8132513
0.8138509
0.8096678
0.8098586
0.8096617
0.8098441
0.8100517
0.8096549
0.8098229
0.810021
0.8102519
0.8096484
0.8098005
0.8099796
0.8101957
0.8104638
0.8096424
0.8097793
0.8099369
0.8101235
0.8103608
0.8107054
0.809637
0.8097602
0.8098976
0.8100501
0.810209
0.8096323
0.8097439
0.809864
0.8099887
0.8101015
0.8096283
0.8097303
0.8098368
0.8099412
0.8100268
0.8096251
0.8097196
0.809816
0.8099066
0.8099761
0.8096227
0.8097116
0.809801
0.809883
0.8099435
0.809621
0.809706
0.8097912
0.8098687
0.8099252
0.8096199
0.8097027
0.8097859
0.8098625
0.8099191
0.8096193
0.8097011
0.8097843
0.8098631
0.809924
0.8096191
0.8097008
0.8097855
0.8098695
0.8099404
0.8096191
0.8097012
0.8097884
0.80988
0.8099697
0.8156067
0.8096192
0.8097018
0.8097916
0.8098919
0.8100155
0.8102006
0.8103318
0.8104697
0.8106184
0.8107816
0.8109634
0.8111696
0.8114089
0.8116961
0.8120584
0.8129086
0.8139623
0.8096191
0.8097021
0.8097937
0.8098994
0.810033
0.810187
0.8103063
0.8104345
0.8105733
0.810725
0.8108924
0.8110794
0.8112914
0.8115357
0.81182
0.8123166
0.8130564
0.8138444
0.8096189
0.8097016
0.8097939
0.8099017
0.8100363
0.8101743
0.8102837
0.810403
0.8105326
0.8106737
0.8108282
0.8109982
0.8111862
0.811395
0.8116256
0.8119988
0.8125576
0.8131909
0.8138705
0.8096184
0.8097002
0.8097918
0.8098993
0.8100316
0.8101597
0.8102618
0.8103736
0.8104952
0.8106273
0.8107707
0.8109265
0.8110956
0.8112785
0.8114742
0.8117821
0.8122387
0.8127571
0.8133458
0.8139731
0.8096177
0.8096977
0.8097876
0.809893
0.8100215
0.8101431
0.8102398
0.8103456
0.8104606
0.8105851
0.8107196
0.8108643
0.8110195
0.8111845
0.8113577
0.8116275
0.8120248
0.8124711
0.8129775
0.8135525
0.8140141
0.8096624
0.8098467
0.8100572
0.8096563
0.8098277
0.8100314
0.8102699
0.8096502
0.8098068
0.8099935
0.8102222
0.8105034
0.8096444
0.8097865
0.8099532
0.8101569
0.8104235
0.8107247
0.809639
0.8097675
0.8099143
0.8100874
0.810311
0.8106521
0.8108917
0.8096341
0.8097505
0.8098789
0.8100203
0.8101672
0.8096298
0.8097356
0.8098486
0.8099647
0.8100684
0.8096262
0.8097232
0.8098239
0.8099216
0.8100005
0.8096233
0.8097134
0.8098049
0.8098901
0.8099546
0.809621
0.809706
0.8097912
0.8098687
0.8099252
0.8096195
0.809701
0.8097824
0.8098559
0.809909
0.8096185
0.809698
0.8097777
0.8098506
0.8099041
0.809618
0.8096966
0.8097765
0.8098518
0.8099096
0.8096178
0.8096965
0.809778
0.8098584
0.809926
0.8170206
0.8096178
0.8096971
0.809781
0.809869
0.8099548
0.8150934
0.8157722
0.8096179
0.8096978
0.8097844
0.8098809
0.8099995
0.8101769
0.8103018
0.8104325
0.8105727
0.8107255
0.8108944
0.8110842
0.8113021
0.8115607
0.811885
0.8126531
0.8136253
0.8145744
0.8096179
0.8096982
0.8097866
0.8098885
0.810017
0.8101648
0.8102785
0.8104004
0.8105318
0.8106746
0.8108312
0.8110047
0.8111996
0.8114216
0.8116768
0.8121244
0.8127904
0.8135262
0.8143101
0.8096177
0.8096978
0.809787
0.8098911
0.8100208
0.8101533
0.8102579
0.8103716
0.8104946
0.8106281
0.8107734
0.8109321
0.8111063
0.8112978
0.8115064
0.8118446
0.8123489
0.8129168
0.8135582
0.8142447
0.8096173
0.8096966
0.8097853
0.8098891
0.8100167
0.81014
0.8102377
0.8103445
0.8104603
0.8105856
0.8107211
0.8108674
0.8110251
0.8111941
0.8113728
0.8116543
0.81207
0.8125357
0.8130624
0.8136594
0.8141416
0.8096166
0.8096943
0.8097814
0.8098833
0.8100074
0.8101245
0.8102173
0.8103186
0.8104284
0.8105468
0.8106742
0.8108108
0.8109563
0.8111099
0.8112695
0.8115184
0.8118836
0.8122887
0.8127418
0.8132548
0.8137017
0.8140294
0.809657
0.8098302
0.8100366
0.8102787
0.8096515
0.8098114
0.8100032
0.8102393
0.8105262
0.8096461
0.8097925
0.8099662
0.8101816
0.810461
0.8107434
0.8096409
0.8097744
0.8099295
0.8101186
0.8103694
0.8106704
0.8108998
0.809636
0.8097574
0.8098947
0.8100552
0.8102622
0.8105821
0.8108281
0.8110705
0.8096316
0.8097419
0.8098627
0.8099945
0.81013
0.8096276
0.8097283
0.8098351
0.8099438
0.8100397
0.8096242
0.8097169
0.8098124
0.8099044
0.8099777
0.8096215
0.8097078
0.8097949
0.8098756
0.8099358
0.8096195
0.809701
0.8097824
0.8098559
0.809909
0.809618
0.8096964
0.8097743
0.8098444
0.8098944
0.8096171
0.8096937
0.8097701
0.8098398
0.8098905
0.8096167
0.8096925
0.8097693
0.8098414
0.8098965
0.8179734
0.8096165
0.8096925
0.809771
0.8098482
0.8099128
0.8163537
0.8170954
0.8096166
0.8096932
0.8097742
0.8098588
0.809941
0.8146342
0.8152412
0.8160164
0.8096167
0.809694
0.8097776
0.8098706
0.8099847
0.810155
0.8102742
0.8103985
0.8105313
0.8106752
0.8108332
0.8110093
0.8112097
0.8114451
0.8117374
0.8124345
0.8133047
0.8141744
0.8150732
0.8096168
0.8096945
0.80978
0.8098783
0.8100021
0.8101441
0.8102529
0.8103691
0.8104939
0.8106289
0.8107762
0.8109384
0.811119
0.8113229
0.8115545
0.8119617
0.8125631
0.813219
0.813946
0.8147246
0.8096166
0.8096943
0.8097806
0.8098811
0.8100062
0.8101337
0.8102339
0.8103425
0.8104597
0.8105864
0.8107236
0.8108727
0.8110353
0.8112124
0.8114033
0.811713
0.8121727
0.8126824
0.8132532
0.8138975
0.8144239
0.8096163
0.8096931
0.8097791
0.8098795
0.8100027
0.8101215
0.8102153
0.8103175
0.8104281
0.8105473
0.8106757
0.8108137
0.8109617
0.8111191
0.8112839
0.8115437
0.8119261
0.8123488
0.8128196
0.8133506
0.8138131
0.8141574
0.8096156
0.809691
0.8097755
0.8098742
0.8099941
0.8101071
0.8101962
0.8102934
0.8103984
0.8105114
0.8106325
0.8107618
0.810899
0.8110428
0.8111911
0.8114225
0.8117615
0.812133
0.8125429
0.813
0.8133922
0.8137157
0.8140445
0.8096521
0.8098137
0.810008
0.8102477
0.8105368
0.8096473
0.8097967
0.8099751
0.8101976
0.8104827
0.8107566
0.8096425
0.80978
0.8099417
0.8101416
0.8104044
0.8106882
0.8109096
0.8096378
0.8097638
0.809909
0.8100844
0.8103166
0.8105992
0.8108358
0.8110739
0.8096334
0.8097485
0.8098776
0.8100273
0.8102189
0.8105146
0.8107457
0.8109965
0.8112468
0.8096293
0.8097343
0.8098485
0.809972
0.8100976
0.8096256
0.8097217
0.8098231
0.8099255
0.8100148
0.8096225
0.8097111
0.8098022
0.8098892
0.8099577
0.8096199
0.8097027
0.8097859
0.8098625
0.8099191
0.809618
0.8096964
0.8097743
0.8098444
0.8098944
0.8096167
0.8096921
0.8097668
0.8098338
0.8098813
0.8096158
0.8096896
0.8097631
0.8098299
0.8098781
0.8185852
0.8096154
0.8096887
0.8097626
0.8098318
0.8098844
0.8172008
0.8180292
0.8096154
0.8096888
0.8097644
0.8098387
0.8099006
0.8157743
0.8164197
0.8172337
0.8096155
0.8096896
0.8097678
0.8098492
0.8099283
0.8142628
0.8147686
0.815459
0.8162974
0.8096156
0.8096905
0.8097713
0.809861
0.8099708
0.8101346
0.8102488
0.8103673
0.8104934
0.8106295
0.8107781
0.8109427
0.8111286
0.8113451
0.8116116
0.8122511
0.8130369
0.8138044
0.8146217
0.8154989
0.8096157
0.809691
0.8097738
0.8098688
0.8099881
0.8101249
0.8102291
0.8103402
0.8104591
0.8105872
0.8107263
0.8108787
0.8110474
0.8112363
0.8114488
0.8118231
0.8123723
0.8129602
0.8136022
0.8143196
0.8149178
0.8096156
0.8096909
0.8097746
0.8098718
0.8099926
0.8101154
0.8102116
0.8103156
0.8104275
0.810548
0.8106781
0.8108189
0.8109714
0.8111365
0.8113129
0.8115992
0.8120226
0.8124853
0.8129947
0.8135642
0.8140602
0.8144407
0.8096153
0.8096899
0.8097733
0.8098705
0.8099896
0.8101042
0.8101943
0.8102924
0.8103981
0.8105118
0.8106339
0.8107647
0.8109042
0.8110516
0.8112048
0.8114465
0.8118016
0.8121894
0.8126152
0.8130878
0.8134919
0.8138275
0.8141729
0.8096146
0.809688
0.8097699
0.8098656
0.8099817
0.8100908
0.8101765
0.8102698
0.8103705
0.8104785
0.810594
0.8107168
0.8108466
0.810982
0.8111206
0.8113372
0.8116541
0.8119981
0.8123732
0.8127856
0.8131282
0.8134051
0.8137296
0.8140595
0.8096479
0.8097989
0.8099797
0.8102054
0.8104927
0.8107632
0.8096436
0.809784
0.8099501
0.8101565
0.8104246
0.8107007
0.8109173
0.8096393
0.8097691
0.8099204
0.8101059
0.8103492
0.8106158
0.8108451
0.8110784
0.8096351
0.8097546
0.8098911
0.8100548
0.8102698
0.8105306
0.8107529
0.8109998
0.8112476
0.809631
0.8097405
0.8098626
0.8100031
0.8101813
0.8104551
0.8106669
0.8109021
0.811162
0.811423
0.8096272
0.8097275
0.8098359
0.8099523
0.8100696
0.8096238
0.8097158
0.8098123
0.8099093
0.8099929
0.8096208
0.8097059
0.8097928
0.8098755
0.80994
0.8096185
0.809698
0.8097777
0.8098506
0.8099041
0.8096167
0.8096921
0.8097668
0.8098338
0.8098813
0.8096154
0.8096881
0.80976
0.8098241
0.8098692
0.8188871
0.8096147
0.8096859
0.8097567
0.8098207
0.8098667
0.8177439
0.8186361
0.8096143
0.8096851
0.8097564
0.8098229
0.8098732
0.8165393
0.8172493
0.8181385
0.8096143
0.8096853
0.8097583
0.8098298
0.8098892
0.8153135
0.8158341
0.8165413
0.817423
0.8096144
0.8096862
0.8097617
0.8098403
0.8099164
0.8139587
0.8143871
0.8149666
0.815709
0.8165952
0.8096146
0.8096872
0.8097654
0.809852
0.8099579
0.8101157
0.8102252
0.8103384
0.8104586
0.8105877
0.8107281
0.8108829
0.8110565
0.8112574
0.8115028
0.8120954
0.8128144
0.8134991
0.8142117
0.815003
0.8156957
0.8096147
0.8096878
0.809768
0.8098598
0.8099751
0.8101069
0.810207
0.8103133
0.8104268
0.8105488
0.8106807
0.8108246
0.810983
0.8111593
0.8113561
0.8117033
0.8122102
0.8127441
0.8133154
0.8139437
0.8144938
0.8149358
0.8096146
0.8096878
0.8097689
0.809863
0.8099798
0.8100983
0.8101908
0.8102905
0.8103976
0.8105126
0.8106362
0.8107696
0.8109135
0.8110683
0.8112324
0.8114993
0.8118928
0.8123175
0.8127782
0.8132838
0.8137135
0.8140754
0.8144571
0.8096143
0.8096869
0.8097678
0.809862
0.8099773
0.8100879
0.8101747
0.8102689
0.8103702
0.8104789
0.8105953
0.8107195
0.8108515
0.8109904
0.8111336
0.8113601
0.8116922
0.8120514
0.8124411
0.8128672
0.8132195
0.8135052
0.8138417
0.8141882
0.8096137
0.8096851
0.8097647
0.8098575
0.8099699
0.8100754
0.8101581
0.8102478
0.8103444
0.8104479
0.8105582
0.8106752
0.8107983
0.8109263
0.8110565
0.8112605
0.8115584
0.8118794
0.8122262
0.8126026
0.8129061
0.8131403
0.8134179
0.8137433
0.8140742
0.8096442
0.809786
0.8099543
0.8101637
0.810434
0.810707
0.8109214
0.8096404
0.8097729
0.8099283
0.8101199
0.810368
0.8106275
0.8108524
0.8110822
0.8096365
0.8097596
0.809902
0.810075
0.8103003
0.810546
0.8107616
0.8110041
0.8112487
0.8096327
0.8097464
0.8098755
0.8100291
0.8102293
0.8104701
0.8106736
0.8109051
0.8111628
0.8114218
0.8096289
0.8097334
0.8098494
0.8099818
0.8101488
0.8104038
0.8105977
0.8108124
0.8110554
0.8113268
0.8116013
0.8096253
0.8097213
0.8098246
0.8099348
0.810045
0.8096221
0.8097104
0.8098026
0.8098947
0.8099736
0.8096193
0.8097011
0.8097843
0.8098631
0.809924
0.8096171
0.8096937
0.8097701
0.8098398
0.8098905
0.8096154
0.8096881
0.80976
0.8098241
0.8098692
0.8188871
0.8096142
0.8096844
0.8097536
0.8098151
0.8098581
0.8180117
0.8189368
0.8096135
0.8096824
0.8097506
0.8098122
0.8098561
0.8170291
0.8177878
0.8187374
0.8096133
0.8096817
0.8097505
0.8098146
0.8098628
0.8160177
0.8165831
0.8173442
0.818298
0.8096132
0.809682
0.8097526
0.8098216
0.8098786
0.8149392
0.8153687
0.8159444
0.8167074
0.8176536
0.8096134
0.809683
0.8097561
0.809832
0.8099053
0.8137028
0.8140749
0.8145702
0.8151939
0.8159732
0.8167552
0.8096136
0.809684
0.8097598
0.8098436
0.8099459
0.810098
0.8102031
0.8103117
0.8104264
0.8105493
0.8106825
0.8108286
0.8109917
0.8111795
0.8114074
0.811961
0.812626
0.8132467
0.8138761
0.8145592
0.8151791
0.815714
0.8096137
0.8096847
0.8097625
0.8098514
0.8099628
0.81009
0.8101863
0.8102883
0.8103969
0.8105133
0.8106388
0.8107751
0.8109245
0.81109
0.8112736
0.8115981
0.8120701
0.8125608
0.8130768
0.8136322
0.8141031
0.81451
0.8149533
0.8096137
0.8096848
0.8097635
0.8098547
0.8099678
0.8100823
0.8101713
0.8102671
0.8103697
0.8104796
0.8105976
0.8107243
0.8108605
0.8110063
0.81116
0.8114103
0.8117787
0.8121725
0.8125941
0.8130494
0.8134227
0.8137275
0.8140903
0.8144732
0.8096134
0.809684
0.8097626
0.809854
0.8099657
0.8100726
0.8101563
0.8102468
0.8103441
0.8104483
0.8105595
0.8106778
0.8108031
0.8109344
0.811069
0.8112823
0.8115947
0.81193
0.8122903
0.8126791
0.8129909
0.8132319
0.8135183
0.8138556
0.8142033
0.8096129
0.8096823
0.8097597
0.8098498
0.8099588
0.8100609
0.8101407
0.8102271
0.81032
0.8104193
0.8105248
0.8106365
0.8107537
0.810875
0.8109979
0.8111907
0.8114722
0.8117737
0.8120967
0.812444
0.8127166
0.8129174
0.8131522
0.8134305
0.8137567
0.8140914
0.809641
0.8097748
0.8099323
0.8101267
0.8103767
0.8106333
0.8108563
0.8110843
0.8096376
0.8097632
0.8099094
0.8100881
0.8103179
0.8105569
0.8107685
0.8110078
0.8112496
0.809634
0.8097512
0.8098858
0.8100482
0.810258
0.8104845
0.8106817
0.8109092
0.811164
0.81142
0.8096305
0.809739
0.8098616
0.8100065
0.8101942
0.8104178
0.810604
0.8108152
0.8110562
0.8113258
0.8115977
0.8096269
0.809727
0.8098374
0.809963
0.8101203
0.8103593
0.810538
0.8107338
0.8109549
0.8112078
0.8114928
0.8117843
0.8096236
0.8097156
0.8098143
0.8099191
0.8100232
0.8096206
0.8097054
0.8097937
0.8098815
0.8099562
0.809618
0.8096966
0.8097765
0.8098518
0.8099096
0.8096158
0.8096896
0.8097631
0.8098299
0.8098781
0.8185852
0.8096142
0.8096844
0.8097536
0.8098151
0.8098581
0.8180117
0.8189368
0.8096131
0.809681
0.8097477
0.8098068
0.8098479
0.8172705
0.8180543
0.819036
0.8096125
0.8096791
0.809745
0.8098042
0.8098463
0.8164684
0.8170687
0.8178749
0.8188881
0.8096123
0.8096786
0.8097451
0.8098068
0.8098531
0.815596
0.8160581
0.8166688
0.8174824
0.8185045
0.8096123
0.809679
0.8097473
0.8098139
0.8098688
0.8146253
0.8149909
0.8154707
0.816095
0.8169092
0.8177927
0.8096125
0.80968
0.8097508
0.8098242
0.8098948
0.8134826
0.8138123
0.8142463
0.8147806
0.8154341
0.8161146
0.8167705
0.8096127
0.8096811
0.8097545
0.8098357
0.8099345
0.8100815
0.8101826
0.8102867
0.8103965
0.8105138
0.8106404
0.8107789
0.8109329
0.8111093
0.8113225
0.811843
0.8124636
0.8130334
0.8135994
0.8141979
0.8147198
0.8151954
0.8157319
0.8096128
0.8096818
0.8097573
0.8098435
0.8099513
0.8100742
0.8101669
0.810265
0.8103691
0.8104803
0.8106
0.8107296
0.8108711
0.8110271
0.8111994
0.8115046
0.8119472
0.8124024
0.8128746
0.8133737
0.8137802
0.8141179
0.8145258
0.8149704
0.8096128
0.809682
0.8097584
0.8098469
0.8099564
0.8100672
0.8101529
0.8102451
0.8103436
0.810449
0.8105616
0.8106824
0.8108117
0.8109497
0.8110943
0.8113303
0.8116771
0.812045
0.8124348
0.8128501
0.8131798
0.8134356
0.8137412
0.8141049
0.8144889
0.8096126
0.8096813
0.8097577
0.8098464
0.8099547
0.8100583
0.8101389
0.8102262
0.8103197
0.8104196
0.8105261
0.8106391
0.8107583
0.8108828
0.8110099
0.8112116
0.8115069
0.8118218
0.8121575
0.8125162
0.8127961
0.8130026
0.8132441
0.8135311
0.8138694
0.8142209
0.8096121
0.8096797
0.809755
0.8098426
0.8099484
0.8100473
0.8101243
0.8102076
0.8102971
0.8103924
0.8104937
0.8106005
0.8107123
0.8108277
0.810944
0.8111269
0.8113939
0.8116784
0.8119813
0.8123043
0.8125523
0.8127273
0.8129286
0.8131639
0.813443
0.8137725
0.8141075
0.8096381
0.8097651
0.8099132
0.8100946
0.8103261
0.8105624
0.8107721
0.8110098
0.8112501
0.809635
0.8097546
0.8098929
0.8100606
0.8102746
0.8104947
0.8106881
0.8109126
0.8111649
0.8114183
0.8096318
0.8097436
0.8098714
0.8100247
0.8102213
0.8104315
0.8106115
0.810819
0.8110573
0.8113243
0.8115923
0.8096284
0.8097323
0.8098492
0.8099865
0.8101634
0.8103726
0.8105439
0.8107365
0.8109557
0.8112069
0.8114896
0.8117765
0.8096251
0.8097211
0.8098267
0.809946
0.8100949
0.8103203
0.8104863
0.8106662
0.8108672
0.8110965
0.811361
0.8116622
0.8119764
0.809622
0.8097104
0.809805
0.8099049
0.8100036
0.8096191
0.8097008
0.8097855
0.8098695
0.8099404
0.8096167
0.8096925
0.8097693
0.8098414
0.8098965
0.8179734
0.8096147
0.8096859
0.8097567
0.8098207
0.8098667
0.8177439
0.8186361
0.8096131
0.809681
0.8097477
0.8098068
0.8098479
0.8172705
0.8180543
0.819036
0.8096121
0.8096778
0.8097421
0.809799
0.8098384
0.8166903
0.8173089
0.8181394
0.8191844
0.8096115
0.809676
0.8097397
0.8097968
0.8098372
0.8160161
0.8165048
0.8171472
0.8180045
0.8190873
0.8096113
0.8096756
0.8097399
0.8097996
0.8098441
0.8152429
0.8156337
0.8161372
0.8167936
0.8176609
0.8186361
0.8096114
0.8096761
0.8097423
0.8098066
0.8098595
0.8143555
0.8146739
0.8150861
0.8156098
0.8162778
0.8170305
0.8178063
0.8096116
0.8096771
0.8097458
0.8098169
0.8098851
0.8132894
0.8135864
0.8139738
0.814443
0.8150028
0.8155627
0.8161281
0.8167858
0.8096118
0.8096783
0.8097496
0.8098282
0.8099238
0.8100659
0.8101633
0.8102634
0.8103686
0.8104808
0.8106016
0.8107332
0.8108792
0.8110456
0.8112461
0.811738
0.812321
0.8128495
0.8133658
0.8139007
0.8143467
0.8147347
0.8152114
0.8157493
0.809612
0.8096791
0.8097524
0.809836
0.8099405
0.8100594
0.8101487
0.8102431