/*--------------------------------*- C++ -*----------------------------------*\
| =========                 |                                                 |
| \\      /  F ield         | OpenFOAM: The Open Source CFD Toolbox           |
|  \\    /   O peration     | Version:  2306                                  |
|   \\  /    A nd           | Website:  www.openfoam.com                      |
|    \\/     M anipulation  |                                                 |
\*---------------------------------------------------------------------------*/
FoamFile
{
    version     2.0;
    format      ascii;
    arch        "LSB;label=32;scalar=64";
    class       volScalarField;
    location    "0.6/interconnect";
    object      T;
}
// * * * * * * * * * * * * * * * * * * * * * * * * * * * * * * * * * * * * * //

dimensions      [0 0 0 1 0 0 0];

internalField   nonuniform List<scalar> 
16000
(
1075.733
1075.732
1077.042
1075.687
1075.729
1077.041
1075.685
1078.82
1077.026
1075.597
1075.725
1077.04
1075.681
1078.82
1077.025
1075.593
1080.702
1078.819
1076.996
1075.464
1075.72
1077.038
1075.675
1078.819
1077.023
1075.586
1080.702
1078.818
1076.994
1075.458
1082.545
1080.706
1078.817
1076.954
1075.298
1075.714
1077.036
1075.668
1078.817
1077.021
1075.577
1080.701
1078.816
1076.992
1075.446
1082.545
1080.706
1078.816
1076.952
1075.286
1084.298
1082.551
1080.715
1078.817
1076.905
1075.162
1075.709
1077.033
1075.661
1078.815
1077.018
1075.565
1080.699
1078.814
1076.988
1075.429
1082.544
1080.704
1078.813
1076.948
1075.263
1084.298
1082.551
1080.714
1078.815
1076.902
1075.141
1085.945
1084.304
1082.564
1080.732
1078.822
1076.87
1075.074
1075.705
1077.031
1075.654
1078.813
1077.015
1075.553
1080.697
1078.812
1076.984
1075.41
1082.542
1080.702
1078.81
1076.942
1075.233
1084.296
1082.549
1080.712
1078.811
1076.895
1075.101
1085.945
1084.304
1082.563
1080.73
1078.819
1076.865
1075.048
1087.488
1085.952
1084.318
1082.586
1080.758
1078.834
1076.85
1074.994
1075.702
1077.029
1075.647
1078.811
1077.012
1075.54
1080.695
1078.809
1076.979
1075.389
1082.54
1080.699
1078.805
1076.935
1075.2
1084.295
1082.547
1080.708
1078.805
1076.887
1075.042
1085.944
1084.302
1082.561
1080.726
1078.814
1076.854
1074.995
1087.488
1085.951
1084.317
1082.584
1080.755
1078.83
1076.843
1074.963
1088.932
1087.494
1085.965
1084.341
1082.619
1080.787
1078.845
1076.835
1074.927
1075.7
1077.028
1075.643
1078.809
1077.009
1075.529
1080.693
1078.806
1076.973
1075.365
1082.538
1080.696
1078.801
1076.928
1075.175
1084.293
1082.545
1080.704
1078.798
1076.878
1074.966
1085.943
1084.3
1082.557
1080.72
1078.806
1076.839
1074.913
1087.487
1085.95
1084.315
1082.58
1080.75
1078.824
1076.828
1074.898
1088.931
1087.493
1085.964
1084.339
1082.617
1080.785
1078.841
1076.826
1074.892
1090.285
1088.937
1087.506
1085.986
1084.374
1082.653
1080.81
1078.859
1076.827
1074.877
1075.7
1077.027
1075.64
1078.808
1077.007
1075.52
1080.691
1078.804
1076.969
1075.342
1082.537
1080.694
1078.796
1076.918
1075.123
1084.292
1082.542
1080.699
1078.789
1076.87
1085.941
1084.298
1082.553
1080.712
1078.794
1076.823
1074.799
1087.486
1085.948
1084.312
1082.575
1080.742
1078.816
1076.807
1074.798
1088.931
1087.492
1085.962
1084.336
1082.612
1080.781
1078.834
1076.808
1074.819
1090.284
1088.937
1087.505
1085.985
1084.372
1082.652
1080.808
1078.855
1076.817
1074.839
1091.554
1090.29
1088.948
1087.526
1086.018
1084.409
1082.679
1080.836
1078.879
1076.828
1074.846
1075.702
1077.027
1075.64
1078.807
1077.006
1075.516
1080.69
1078.802
1076.965
1075.325
1082.535
1080.691
1078.792
1076.909
1075.072
1084.29
1082.539
1080.694
1078.781
1076.851
1085.94
1084.296
1082.549
1080.703
1078.777
1087.484
1085.946
1084.308
1082.567
1080.729
1078.806
1076.78
1074.656
1088.93
1087.49
1085.959
1084.33
1082.604
1080.774
1078.823
1076.78
1074.705
1090.284
1088.936
1087.503
1085.982
1084.368
1082.648
1080.803
1078.847
1076.795
1074.761
1091.554
1090.289
1088.948
1087.525
1086.016
1084.407
1082.678
1080.834
1078.874
1076.817
1074.806
1092.748
1091.559
1090.3
1088.967
1087.556
1086.051
1084.434
1082.708
1080.865
1078.904
1076.84
1074.834
1075.705
1077.028
1075.643
1078.807
1077.006
1075.516
1080.689
1078.801
1076.963
1075.315
1082.534
1080.689
1078.789
1076.901
1075.033
1084.288
1082.537
1080.69
1078.773
1076.83
1085.938
1084.293
1082.544
1080.694
1078.76
1087.483
1085.944
1084.304
1082.559
1080.709
1088.928
1087.489
1085.955
1084.324
1082.591
1080.768
1078.81
1076.742
1074.544
1090.283
1088.934
1087.501
1085.977
1084.361
1082.643
1080.797
1078.834
1076.762
1074.639
1091.553
1090.288
1088.946
1087.522
1086.013
1084.404
1082.675
1080.829
1078.865
1076.793
1074.726
1092.747
1091.558
1090.299
1088.965
1087.554
1086.05
1084.433
1082.707
1080.863
1078.899
1076.828
1074.794
1093.871
1092.752
1091.568
1090.317
1088.994
1087.586
1086.075
1084.463
1082.74
1080.898
1078.935
1076.862
1074.841
1075.709
1077.029
1075.647
1078.808
1077.007
1075.52
1080.689
1078.801
1076.963
1075.315
1082.533
1080.689
1078.787
1076.897
1075.013
1084.287
1082.535
1080.687
1078.767
1076.813
1085.937
1084.291
1082.54
1080.687
1078.744
1087.481
1085.941
1084.3
1082.55
1080.692
1088.927
1087.486
1085.952
1084.315
1082.571
1090.281
1088.932
1087.498
1085.971
1084.349
1082.638
1080.79
1078.816
1076.715
1074.468
1091.552
1090.287
1088.944
1087.518
1086.006
1084.4
1082.67
1080.822
1078.85
1076.757
1074.602
1092.747
1091.557
1090.298
1088.963
1087.55
1086.047
1084.431
1082.704
1080.858
1078.889
1076.805
1074.714
1093.871
1092.752
1091.568
1090.316
1088.992
1087.584
1086.074
1084.462
1082.738
1080.896
1078.93
1076.851
1074.802
1094.93
1093.875
1092.761
1091.584
1090.341
1089.021
1087.608
1086.101
1084.493
1082.773
1080.935
1078.971
1076.894
1074.867
1075.714
1077.031
1075.654
1078.809
1077.009
1075.529
1080.69
1078.802
1076.965
1075.325
1082.533
1080.689
1078.787
1076.897
1075.013
1084.287
1082.535
1080.686
1078.763
1076.803
1085.936
1084.29
1082.538
1080.682
1078.732
1087.48
1085.94
1084.296
1082.543
1080.678
1088.926
1087.484
1085.948
1084.308
1082.555
1090.28
1088.93
1087.494
1085.963
1084.329
1091.551
1090.285
1088.941
1087.512
1085.995
1084.395
1082.666
1080.813
1078.829
1076.705
1074.428
1092.746
1091.556
1090.295
1088.959
1087.544
1086.043
1084.428
1082.7
1080.851
1078.873
1076.768
1074.592
1093.871
1092.751
1091.566
1090.313
1088.989
1087.582
1086.072
1084.46
1082.736
1080.891
1078.92
1076.828
1074.724
1094.93
1093.875
1092.76
1091.583
1090.34
1089.02
1087.607
1086.101
1084.492
1082.772
1080.933
1078.967
1076.884
1074.829
1095.93
1094.934
1093.883
1092.775
1091.606
1090.367
1089.042
1087.632
1086.13
1084.525
1082.81
1080.974
1079.012
1076.935
1074.911
1075.72
1077.033
1075.661
1078.811
1077.012
1075.54
1080.691
1078.804
1076.969
1075.342
1082.534
1080.689
1078.789
1076.901
1075.033
1084.287
1082.535
1080.686
1078.763
1076.803
1085.935
1084.289
1082.536
1080.679
1078.725
1087.479
1085.938
1084.294
1082.539
1080.668
1088.925
1087.483
1085.945
1084.301
1082.542
1090.279
1088.929
1087.491
1085.956
1084.314
1091.55
1090.283
1088.937
1087.505
1085.977
1092.745
1091.555
1090.293
1088.954
1087.535
1086.039
1084.424
1082.694
1080.84
1078.85
1076.715
1074.422
1093.87
1092.75
1091.564
1090.31
1088.984
1087.579
1086.069
1084.457
1082.731
1080.884
1078.905
1076.794
1074.607
1094.93
1093.874
1092.759
1091.581
1090.337
1089.018
1087.605
1086.099
1084.49
1082.77
1080.929
1078.959
1076.864
1074.753
1095.929
1094.934
1093.883
1092.774
1091.605
1090.366
1089.041
1087.631
1086.129
1084.525
1082.809
1080.973
1079.009
1076.927
1074.872
1096.873
1095.933
1094.942
1093.897
1092.796
1091.63
1090.385
1089.064
1087.658
1086.16
1084.559
1082.848
1081.017
1079.058
1076.985
1075.725
1077.036
1075.668
1078.813
1077.015
1075.553
1080.693
1078.806
1076.973
1075.365
1082.535
1080.691
1078.792
1076.909
1075.072
1084.287
1082.535
1080.687
1078.767
1076.813
1085.935
1084.289
1082.536
1080.679
1078.725
1087.479
1085.938
1084.292
1082.536
1080.663
1088.924
1087.482
1085.943
1084.297
1082.534
1090.278
1088.927
1087.488
1085.951
1084.304
1091.549
1090.282
1088.934
1087.499
1085.964
1092.744
1091.553
1090.29
1088.948
1087.518
1093.869
1092.748
1091.562
1090.305
1088.975
1087.575
1086.067
1084.453
1082.725
1080.872
1078.882
1076.745
1074.447
1094.929
1093.873
1092.757
1091.577
1090.332
1089.015
1087.603
1086.097
1084.488
1082.766
1080.922
1078.945
1076.835
1074.641
1095.929
1094.933
1093.882
1092.772
1091.603
1090.364
1089.039
1087.63
1086.128
1084.523
1082.807
1080.97
1079.003
1076.91
1074.796
1096.873
1095.933
1094.941
1093.896
1092.795
1091.629
1090.385
1089.063
1087.658
1086.159
1084.559
1082.848
1081.016
1079.056
1076.977
1097.764
1096.876
1095.94
1094.954
1093.916
1092.817
1091.647
1090.406
1089.087
1087.685
1086.191
1084.595
1082.888
1081.061
1079.106
1075.729
1077.038
1075.675
1078.815
1077.018
1075.565
1080.695
1078.809
1076.979
1075.389
1082.537
1080.694
1078.796
1076.918
1075.123
1084.288
1082.537
1080.69
1078.773
1076.83
1085.936
1084.29
1082.538
1080.682
1078.732
1087.479
1085.938
1084.292
1082.536
1080.663
1088.923
1087.481
1085.941
1084.295
1082.53
1090.277
1088.926
1087.486
1085.947
1084.297
1091.548
1090.28
1088.932
1087.494
1085.954
1092.743
1091.552
1090.287
1088.942
1087.506
1093.868
1092.747
1091.559
1090.299
1088.96
1094.928
1093.872
1092.755
1091.573
1090.324
1089.012
1087.601
1086.094
1084.484
1082.76
1080.911
1078.925
1076.795
1074.496
1095.928
1094.932
1093.88
1092.769
1091.598
1090.361
1089.037
1087.628
1086.126
1084.521
1082.804
1080.965
1078.994
1076.887
1074.685
1096.872
1095.932
1094.94
1093.894
1092.792
1091.627
1090.383
1089.062
1087.657
1086.158
1084.559
1082.847
1081.015
1079.053
1076.963
1097.763
1096.876
1095.94
1094.953
1093.915
1092.817
1091.646
1090.405
1089.087
1087.685
1086.191
1084.595
1082.889
1081.061
1079.106
1098.605
1097.767
1096.883
1095.952
1094.972
1093.936
1092.833
1091.665
1090.427
1089.112
1087.714
1086.223
1084.632
1082.929
1081.105
1075.732
1077.04
1075.681
1078.817
1077.021
1075.577
1080.697
1078.812
1076.984
1075.41
1082.538
1080.696
1078.801
1076.928
1075.175
1084.29
1082.539
1080.694
1078.781
1076.851
1085.937
1084.291
1082.54
1080.687
1078.744
1087.479
1085.938
1084.294
1082.539
1080.668
1088.923
1087.481
1085.941
1084.295
1082.53
1090.277
1088.925
1087.485
1085.945
1084.293
1091.548
1090.279
1088.93
1087.49
1085.948
1092.742
1091.55
1090.285
1088.937
1087.497
1093.867
1092.745
1091.556
1090.294
1088.949
1094.927
1093.87
1092.752
1091.568
1090.31
1095.927
1094.931
1093.878
1092.765
1091.591
1090.358
1089.035
1087.626
1086.123
1084.518
1082.799
1080.956
1078.979
1076.859
1074.549
1096.871
1095.931
1094.938
1093.891
1092.788
1091.625
1090.381
1089.061
1087.655
1086.157
1084.557
1082.846
1081.013
1079.048
1076.946
1097.763
1096.875
1095.938
1094.951
1093.913
1092.815
1091.645
1090.404
1089.086
1087.685
1086.191
1084.596
1082.89
1081.063
1079.105
1098.604
1097.766
1096.882
1095.951
1094.971
1093.935
1092.833
1091.665
1090.427
1089.112
1087.714
1086.224
1084.633
1082.93
1081.107
1099.399
1098.608
1097.773
1096.894
1095.969
1094.991
1093.951
1092.85
1091.685
1090.45
1089.138
1087.743
1086.257
1084.669
1082.969
1075.733
1077.041
1075.685
1078.819
1077.023
1075.586
1080.699
1078.814
1076.988
1075.429
1082.54
1080.699
1078.805
1076.935
1075.2
1084.292
1082.542
1080.699
1078.789
1076.87
1085.938
1084.293
1082.544
1080.694
1078.76
1087.48
1085.94
1084.296
1082.543
1080.678
1088.924
1087.482
1085.943
1084.297
1082.534
1090.277
1088.925
1087.485
1085.945
1084.293
1091.547
1090.279
1088.929
1087.488
1085.945
1092.742
1091.549
1090.283
1088.934
1087.492
1093.866
1092.744
1091.554
1090.29
1088.941
1094.926
1093.869
1092.75
1091.563
1090.3
1095.927
1094.929
1093.875
1092.76
1091.578
1096.871
1095.93
1094.936
1093.887
1092.781
1091.622
1090.379
1089.059
1087.653
1086.155
1084.554
1082.842
1081.008
1079.042
1076.93
1097.762
1096.874
1095.937
1094.949
1093.909
1092.813
1091.643
1090.403
1089.085
1087.684
1086.19
1084.596
1082.89
1081.065
1079.106
1098.604
1097.766
1096.881
1095.949
1094.969
1093.934
1092.831
1091.664
1090.426
1089.112
1087.714
1086.225
1084.634
1082.933
1081.111
1099.398
1098.607
1097.772
1096.893
1095.968
1094.99
1093.95
1092.85
1091.685
1090.45
1089.139
1087.744
1086.258
1084.67
1082.972
1100.148
1099.401
1098.614
1097.783
1096.91
1095.986
1095.004
1093.967
1092.869
1091.706
1090.474
1089.165
1087.774
1086.29
1084.705
1077.042
1075.687
1078.82
1077.025
1075.593
1080.701
1078.816
1076.992
1075.446
1082.542
1080.702
1078.81
1076.942
1075.233
1084.293
1082.545
1080.704
1078.798
1076.878
1074.966
1085.94
1084.296
1082.549
1080.703
1078.777
1087.481
1085.941
1084.3
1082.55
1080.692
1088.925
1087.483
1085.945
1084.301
1082.542
1090.277
1088.926
1087.486
1085.947
1084.297
1091.547
1090.279
1088.929
1087.488
1085.945
1092.741
1091.549
1090.282
1088.933
1087.489
1093.866
1092.743
1091.553
1090.287
1088.936
1094.926
1093.868
1092.748
1091.559
1090.293
1095.926
1094.928
1093.873
1092.756
1091.569
1096.87
1095.929
1094.934
1093.883
1092.769
1097.762
1096.873
1095.935
1094.945
1093.902
1092.81
1091.641
1090.401
1089.083
1087.682
1086.188
1084.594
1082.89
1081.066
1079.112
1098.603
1097.765
1096.88
1095.947
1094.965
1093.931
1092.83
1091.663
1090.425
1089.111
1087.714
1086.225
1084.636
1082.938
1081.118
1099.398
1098.607
1097.772
1096.891
1095.966
1094.989
1093.949
1092.849
1091.684
1090.449
1089.139
1087.745
1086.26
1084.674
1082.977
1100.148
1099.401
1098.613
1097.783
1096.909
1095.985
1095.004
1093.966
1092.868
1091.706
1090.474
1089.166
1087.775
1086.292
1084.708
1100.854
1100.15
1099.407
1098.623
1097.799
1096.926
1095.999
1095.019
1093.984
1092.888
1091.728
1090.498
1089.193
1087.804
1086.323
1078.82
1077.026
1075.597
1080.702
1078.818
1076.994
1075.458
1082.544
1080.704
1078.813
1076.948
1075.263
1084.295
1082.547
1080.708
1078.805
1076.887
1075.042
1085.941
1084.298
1082.553
1080.712
1078.794
1076.823
1074.799
1087.483
1085.944
1084.304
1082.559
1080.709
1088.926
1087.484
1085.948
1084.308
1082.555
1090.278
1088.927
1087.488
1085.951
1084.304
1091.548
1090.279
1088.93
1087.49
1085.948
1092.741
1091.549
1090.282
1088.933
1087.489
1093.865
1092.743
1091.552
1090.285
1088.933
1094.925
1093.867
1092.746
1091.556
1090.288
1095.925
1094.927
1093.871
1092.752
1091.562
1096.869
1095.928
1094.932
1093.879
1092.761
1097.761
1096.872
1095.933
1094.941
1093.891
1098.603
1097.764
1096.878
1095.943
1094.959
1093.929
1092.828
1091.661
1090.424
1089.11
1087.713
1086.225
1084.638
1082.943
1081.13
1099.398
1098.606
1097.77
1096.889
1095.962
1094.987
1093.947
1092.848
1091.683
1090.449
1089.138
1087.745
1086.262
1084.679
1082.986
1100.147
1099.401
1098.612
1097.781
1096.907
1095.984
1095.003
1093.965
1092.868
1091.706
1090.474
1089.167
1087.777
1086.295
1084.713
1100.854
1100.15
1099.407
1098.623
1097.798
1096.926
1095.999
1095.019
1093.983
1092.888
1091.728
1090.499
1089.194
1087.805
1086.325
1101.518
1100.856
1100.156
1099.417
1098.638
1097.814
1096.938
1096.013
1095.035
1094.002
1092.908
1091.751
1090.523
1089.22
1087.833
1080.702
1078.819
1076.996
1075.464
1082.545
1080.706
1078.816
1076.952
1075.286
1084.296
1082.549
1080.712
1078.811
1076.895
1075.101
1085.943
1084.3
1082.557
1080.72
1078.806
1076.839
1074.913
1087.484
1085.946
1084.308
1082.567
1080.729
1078.806
1076.78
1074.656
1088.927
1087.486
1085.952
1084.315
1082.571
1090.279
1088.929
1087.491
1085.956
1084.314
1091.548
1090.28
1088.932
1087.494
1085.954
1092.742
1091.549
1090.283
1088.934
1087.492
1093.865
1092.743
1091.552
1090.285
1088.933
1094.925
1093.867
1092.746
1091.555
1090.286
1095.924
1094.927
1093.87
1092.75
1091.558
1096.868
1095.927
1094.93
1093.875
1092.755
1097.76
1096.871
1095.931
1094.937
1093.883
1098.602
1097.763
1096.876
1095.94
1094.949
1099.397
1098.605
1097.769
1096.886
1095.957
1094.984
1093.946
1092.846
1091.682
1090.447
1089.138
1087.746
1086.264
1084.685
1083
1100.147
1099.4
1098.611
1097.779
1096.904
1095.982
1095.001
1093.964
1092.867
1091.705
1090.474
1089.167
1087.779
1086.301
1084.723
1100.853
1100.15
1099.406
1098.621
1097.796
1096.924
1095.998
1095.018
1093.983
1092.888
1091.728
1090.5
1089.196
1087.809
1086.331
1101.518
1100.856
1100.156
1099.416
1098.637
1097.814
1096.938
1096.013
1095.035
1094.001
1092.908
1091.751
1090.524
1089.222
1087.836
1102.143
1101.521
1100.862
1100.165
1099.431
1098.653
1097.826
1096.952
1096.028
1095.052
1094.02
1092.929
1091.774
1090.548
1089.247
1082.545
1080.706
1078.817
1076.954
1075.298
1084.298
1082.551
1080.714
1078.815
1076.902
1075.141
1085.944
1084.302
1082.561
1080.726
1078.814
1076.854
1074.995
1087.486
1085.948
1084.312
1082.575
1080.742
1078.816
1076.807
1074.798
1088.928
1087.489
1085.955
1084.324
1082.591
1080.768
1078.81
1076.742
1074.544
1090.28
1088.93
1087.494
1085.963
1084.329
1091.549
1090.282
1088.934
1087.499
1085.964
1092.742
1091.55
1090.285
1088.937
1087.497
1093.866
1092.743
1091.553
1090.287
1088.936
1094.925
1093.867
1092.746
1091.555
1090.286
1095.924
1094.926
1093.869
1092.748
1091.556
1096.868
1095.926
1094.929
1093.873
1092.751
1097.759
1096.87
1095.93
1094.934
1093.878
1098.601
1097.762
1096.874
1095.936
1094.942
1099.396
1098.604
1097.767
1096.882
1095.947
1100.146
1099.399
1098.609
1097.776
1096.898
1095.98
1095
1093.963
1092.866
1091.704
1090.473
1089.168
1087.781
1086.307
1084.737
1100.853
1100.149
1099.405
1098.619
1097.793
1096.922
1095.996
1095.017
1093.982
1092.887
1091.728
1090.5
1089.198
1087.814
1086.34
1101.518
1100.856
1100.155
1099.415
1098.635
1097.812
1096.937
1096.012
1095.034
1094.001
1092.908
1091.752
1090.526
1089.225
1087.841
1102.143
1101.521
1100.861
1100.164
1099.43
1098.652
1097.825
1096.951
1096.028
1095.052
1094.02
1092.93
1091.775
1090.55
1089.249
1102.729
1102.145
1101.526
1100.87
1100.178
1099.445
1098.664
1097.838
1096.966
1096.044
1095.07
1094.04
1092.95
1091.797
1090.573
1084.298
1082.551
1080.715
1078.817
1076.905
1075.162
1085.945
1084.304
1082.563
1080.73
1078.819
1076.865
1075.048
1087.487
1085.95
1084.315
1082.58
1080.75
1078.824
1076.828
1074.898
1088.93
1087.49
1085.959
1084.33
1082.604
1080.774
1078.823
1076.78
1074.705
1090.281
1088.932
1087.498
1085.971
1084.349
1082.638
1080.79
1078.816
1076.715
1074.468
1091.55
1090.283
1088.937
1087.505
1085.977
1092.743
1091.552
1090.287
1088.942
1087.506
1093.866
1092.744
1091.554
1090.29
1088.941
1094.925
1093.867
1092.746
1091.556
1090.288
1095.924
1094.926
1093.869
1092.748
1091.556
1096.868
1095.926
1094.928
1093.872
1092.749
1097.759
1096.869
1095.928
1094.932
1093.874
1098.601
1097.761
1096.873
1095.933
1094.936
1099.396
1098.603
1097.765
1096.879
1095.94
1100.145
1099.398
1098.608
1097.772
1096.889
1100.852
1100.148
1099.403
1098.616
1097.788
1096.921
1095.995
1095.016
1093.981
1092.886
1091.727
1090.501
1089.2
1087.82
1086.353
1101.517
1100.855
1100.154
1099.413
1098.633
1097.811
1096.936
1096.011
1095.034
1094.001
1092.908
1091.753
1090.528
1089.23
1087.849
1102.142
1101.52
1100.861
1100.163
1099.428
1098.651
1097.824
1096.951
1096.027
1095.052
1094.021
1092.93
1091.776
1090.553
1089.254
1102.728
1102.145
1101.526
1100.87
1100.178
1099.444
1098.663
1097.838
1096.965
1096.044
1095.07
1094.04
1092.951
1091.798
1090.575
1103.276
1102.731
1102.15
1101.535
1100.883
1100.192
1099.455
1098.676
1097.852
1096.981
1096.06
1095.088
1094.06
1092.972
1091.819
1085.945
1084.304
1082.564
1080.732
1078.822
1076.87
1075.074
1087.488
1085.951
1084.317
1082.584
1080.755
1078.83
1076.843
1074.963
1088.931
1087.492
1085.962
1084.336
1082.612
1080.781
1078.834
1076.808
1074.819
1090.283
1088.934
1087.501
1085.977
1084.361
1082.643
1080.797
1078.834
1076.762
1074.639
1091.551
1090.285
1088.941
1087.512
1085.995
1084.395
1082.666
1080.813
1078.829
1076.705
1074.428
1092.744
1091.553
1090.29
1088.948
1087.518
1093.867
1092.745
1091.556
1090.294
1088.949
1094.926
1093.868
1092.748
1091.559
1090.293
1095.924
1094.927
1093.87
1092.75
1091.558
1096.868
1095.926
1094.928
1093.872
1092.749
1097.759
1096.869
1095.928
1094.931
1093.872
1098.6
1097.76
1096.872
1095.931
1094.933
1099.395
1098.602
1097.763
1096.876
1095.935
1100.145
1099.397
1098.606
1097.769
1096.883
1100.851
1100.147
1099.402
1098.613
1097.779
1101.517
1100.854
1100.152
1099.41
1098.628
1097.809
1096.934
1096.01
1095.032
1094
1092.908
1091.753
1090.53
1089.235
1087.862
1102.142
1101.519
1100.859
1100.161
1099.425
1098.65
1097.823
1096.95
1096.026
1095.051
1094.02
1092.931
1091.778
1090.557
1089.262
1102.728
1102.145
1101.525
1100.869
1100.176
1099.443
1098.663
1097.837
1096.965
1096.043
1095.07
1094.041
1092.953
1091.801
1090.579
1103.276
1102.731
1102.15
1101.534
1100.883
1100.192
1099.455
1098.675
1097.851
1096.98
1096.06
1095.088
1094.06
1092.973
1091.821
1103.787
1103.279
1102.736
1102.159
1101.547
1100.897
1100.202
1099.467
1098.689
1097.866
1096.996
1096.077
1095.106
1094.079
1092.992
1087.488
1085.952
1084.318
1082.586
1080.758
1078.834
1076.85
1074.994
1088.931
1087.493
1085.964
1084.339
1082.617
1080.785
1078.841
1076.826
1074.892
1090.284
1088.936
1087.503
1085.982
1084.368
1082.648
1080.803
1078.847
1076.795
1074.761
1091.552
1090.287
1088.944
1087.518
1086.006
1084.4
1082.67
1080.822
1078.85
1076.757
1074.602
1092.745
1091.555
1090.293
1088.954
1087.535
1086.039
1084.424
1082.694
1080.84
1078.85
1076.715
1074.422
1093.868
1092.747
1091.559
1090.299
1088.96
1094.926
1093.869
1092.75
1091.563
1090.3
1095.925
1094.927
1093.871
1092.752
1091.562
1096.868
1095.926
1094.929
1093.873
1092.751
1097.759
1096.869
1095.928
1094.931
1093.872
1098.6
1097.76
1096.871
1095.93
1094.931
1099.395
1098.602
1097.762
1096.874
1095.932
1100.144
1099.396
1098.605
1097.767
1096.878
1100.851
1100.146
1099.4
1098.61
1097.773
1101.516
1100.853
1100.151
1099.407
1098.62
1102.141
1101.519
1100.858
1100.159
1099.421
1098.648
1097.822
1096.948
1096.025
1095.05
1094.02
1092.931
1091.78
1090.562
1089.273
1102.728
1102.144
1101.524
1100.867
1100.173
1099.442
1098.661
1097.836
1096.964
1096.043
1095.07
1094.041
1092.955
1091.805
1090.587
1103.276
1102.73
1102.149
1101.533
1100.881
1100.191
1099.454
1098.675
1097.851
1096.98
1096.06
1095.089
1094.062
1092.975
1091.825
1103.787
1103.278
1102.735
1102.158
1101.546
1100.896
1100.202
1099.466
1098.688
1097.866
1096.996
1096.078
1095.107
1094.08
1092.994
1104.262
1103.789
1103.283
1102.744
1102.171
1101.56
1100.906
1100.213
1099.479
1098.702
1097.881
1097.012
1096.095
1095.124
1094.098
1088.932
1087.494
1085.965
1084.341
1082.619
1080.787
1078.845
1076.835
1074.927
1090.284
1088.937
1087.505
1085.985
1084.372
1082.652
1080.808
1078.855
1076.817
1074.839
1091.553
1090.288
1088.946
1087.522
1086.013
1084.404
1082.675
1080.829
1078.865
1076.793
1074.726
1092.746
1091.556
1090.295
1088.959
1087.544
1086.043
1084.428
1082.7
1080.851
1078.873
1076.768
1074.592
1093.869
1092.748
1091.562
1090.305
1088.975
1087.575
1086.067
1084.453
1082.725
1080.872
1078.882
1076.745
1074.447
1094.927
1093.87
1092.752
1091.568
1090.31
1095.926
1094.928
1093.873
1092.756
1091.569
1096.868
1095.927
1094.93
1093.875
1092.755
1097.759
1096.869
1095.928
1094.932
1093.874
1098.6
1097.76
1096.871
1095.93
1094.931
1099.394
1098.601
1097.762
1096.873
1095.93
1100.144
1099.396
1098.604
1097.765
1096.875
1100.85
1100.145
1099.399
1098.608
1097.768
1101.516
1100.852
1100.149
1099.404
1098.614
1102.141
1101.518
1100.856
1100.156
1099.413
1102.727
1102.143
1101.522
1100.864
1100.169
1099.44
1098.66
1097.835
1096.963
1096.042
1095.069
1094.042
1092.956
1091.809
1090.597
1103.275
1102.73
1102.148
1101.531
1100.879
1100.189
1099.453
1098.674
1097.85
1096.98
1096.06
1095.089
1094.063
1092.979
1091.832
1103.787
1103.278
1102.735
1102.157
1101.545
1100.895
1100.201
1099.466
1098.688
1097.865
1096.996
1096.078
1095.108
1094.083
1092.998
1104.262
1103.789
1103.283
1102.743
1102.17
1101.559
1100.906
1100.213
1099.479
1098.702
1097.881
1097.013
1096.095
1095.126
1094.1
1104.701
1104.264
1103.794
1103.291
1102.756
1102.183
1101.569
1100.917
1100.225
1099.492
1098.716
1097.896
1097.029
1096.112
1095.142
1090.285
1088.937
1087.506
1085.986
1084.374
1082.653
1080.81
1078.859
1076.827
1074.877
1091.554
1090.289
1088.948
1087.525
1086.016
1084.407
1082.678
1080.834
1078.874
1076.817
1074.806
1092.747
1091.557
1090.298
1088.963
1087.55
1086.047
1084.431
1082.704
1080.858
1078.889
1076.805
1074.714
1093.87
1092.75
1091.564
1090.31
1088.984
1087.579
1086.069
1084.457
1082.731
1080.884
1078.905
1076.794
1074.607
1094.928
1093.872
1092.755
1091.573
1090.324
1089.012
1087.601
1086.094
1084.484
1082.76
1080.911
1078.925
1076.795
1074.496
1095.927
1094.929
1093.875
1092.76
1091.578
1096.869
1095.928
1094.932
1093.879
1092.761
1097.759
1096.87
1095.93
1094.934
1093.878
1098.6
1097.76
1096.872
1095.931
1094.933
1099.394
1098.601
1097.762
1096.873
1095.93
1100.144
1099.395
1098.603
1097.764
1096.874
1100.85
1100.145
1099.398
1098.606
1097.766
1101.515
1100.852
1100.148
1099.401
1098.609
1102.14
1101.517
1100.855
1100.153
1099.407
1102.726
1102.142
1101.521
1100.861
1100.162
1103.275
1102.729
1102.147
1101.529
1100.874
1100.187
1099.452
1098.673
1097.849
1096.979
1096.06
1095.089
1094.065
1092.984
1091.842
1103.786
1103.277
1102.734
1102.155
1101.542
1100.894
1100.2
1099.465
1098.687
1097.865
1096.996
1096.079
1095.11
1094.086
1093.004
1104.261
1103.789
1103.282
1102.742
1102.169
1101.558
1100.905
1100.212
1099.478
1098.702
1097.881
1097.013
1096.097
1095.128
1094.104
1104.701
1104.264
1103.794
1103.291
1102.755
1102.183
1101.569
1100.917
1100.225
1099.492
1098.716
1097.896
1097.029
1096.113
1095.144
1105.105
1104.703
1104.269
1103.802
1103.303
1102.768
1102.192
1101.579
1100.928
1100.237
1099.505
1098.731
1097.911
1097.045
1096.129
1091.554
1090.29
1088.948
1087.526
1086.018
1084.409
1082.679
1080.836
1078.879
1076.828
1074.846
1092.747
1091.558
1090.299
1088.965
1087.554
1086.05
1084.433
1082.707
1080.863
1078.899
1076.828
1074.794
1093.871
1092.751
1091.566
1090.313
1088.989
1087.582
1086.072
1084.46
1082.736
1080.891
1078.92
1076.828
1074.724
1094.929
1093.873
1092.757
1091.577
1090.332
1089.015
1087.603
1086.097
1084.488
1082.766
1080.922
1078.945
1076.835
1074.641
1095.927
1094.931
1093.878
1092.765
1091.591
1090.358
1089.035
1087.626
1086.123
1084.518
1082.799
1080.956
1078.979
1076.859
1074.549
1096.87
1095.929
1094.934
1093.883
1092.769
1097.76
1096.871
1095.931
1094.937
1093.883
1098.601
1097.761
1096.873
1095.933
1094.936
1099.395
1098.602
1097.762
1096.874
1095.932
1100.144
1099.395
1098.603
1097.764
1096.874
1100.85
1100.145
1099.397
1098.605
1097.764
1101.515
1100.851
1100.147
1099.4
1098.607
1102.14
1101.516
1100.854
1100.15
1099.403
1102.726
1102.141
1101.52
1100.859
1100.156
1103.274
1102.728
1102.145
1101.526
1100.867
1103.786
1103.277
1102.732
1102.153
1101.538
1100.892
1100.199
1099.464
1098.686
1097.864
1096.996
1096.079
1095.111
1094.09
1093.014
1104.261
1103.788
1103.281
1102.74
1102.166
1101.557
1100.904
1100.212
1099.478
1098.701
1097.881
1097.014
1096.098
1095.131
1094.11
1104.701
1104.263
1103.793
1103.29
1102.754
1102.182
1101.568
1100.916
1100.224
1099.492
1098.716
1097.897
1097.03
1096.115
1095.147
1105.105
1104.703
1104.268
1103.801
1103.302
1102.767
1102.192
1101.579
1100.928
1100.237
1099.505
1098.731
1097.912
1097.046
1096.13
1105.475
1105.108
1104.708
1104.276
1103.813
1103.314
1102.776
1102.202
1101.59
1100.94
1100.25
1099.519
1098.745
1097.927
1097.061
1092.748
1091.559
1090.3
1088.967
1087.556
1086.051
1084.434
1082.708
1080.865
1078.904
1076.84
1074.834
1093.871
1092.752
1091.568
1090.316
1088.992
1087.584
1086.074
1084.462
1082.738
1080.896
1078.93
1076.851
1074.802
1094.93
1093.874
1092.759
1091.581
1090.337
1089.018
1087.605
1086.099
1084.49
1082.77
1080.929
1078.959
1076.864
1074.753
1095.928
1094.932
1093.88
1092.769
1091.598
1090.361
1089.037
1087.628
1086.126
1084.521
1082.804
1080.965
1078.994
1076.887
1074.685
1096.871
1095.93
1094.936
1093.887
1092.781
1091.622
1090.379
1089.059
1087.653
1086.155
1084.554
1082.842
1081.008
1079.042
1076.93
1097.761
1096.872
1095.933
1094.941
1093.891
1098.601
1097.762
1096.874
1095.936
1094.942
1099.395
1098.602
1097.763
1096.876
1095.935
1100.144
1099.396
1098.604
1097.765
1096.875
1100.85
1100.145
1099.397
1098.605
1097.764
1101.514
1100.851
1100.146
1099.399
1098.605
1102.139
1101.516
1100.853
1100.149
1099.401
1102.725
1102.141
1101.518
1100.856
1100.152
1103.274
1102.727
1102.144
1101.523
1100.862
1103.785
1103.276
1102.731
1102.15
1101.531
1104.261
1103.787
1103.28
1102.738
1102.162
1101.555
1100.903
1100.211
1099.477
1098.7
1097.88
1097.014
1096.099
1095.135
1094.118
1104.7
1104.263
1103.792
1103.288
1102.751
1102.18
1101.567
1100.915
1100.224
1099.491
1098.716
1097.897
1097.032
1096.118
1095.153
1105.105
1104.703
1104.268
1103.8
1103.301
1102.766
1102.191
1101.579
1100.928
1100.237
1099.505
1098.731
1097.913
1097.048
1096.133
1105.475
1105.107
1104.708
1104.276
1103.812
1103.314
1102.776
1102.202
1101.59
1100.94
1100.25
1099.52
1098.746
1097.928
1097.062
1105.811
1105.477
1105.112
1104.715
1104.287
1103.824
1103.323
1102.786
1102.213
1101.602
1100.953
1100.264
1099.533
1098.76
1097.942
1093.871
1092.752
1091.568
1090.317
1088.994
1087.586
1086.075
1084.463
1082.74
1080.898
1078.935
1076.862
1074.841
1094.93
1093.875
1092.76
1091.583
1090.34
1089.02
1087.607
1086.101
1084.492
1082.772
1080.933
1078.967
1076.884
1074.829
1095.929
1094.933
1093.882
1092.772
1091.603
1090.364
1089.039
1087.63
1086.128
1084.523
1082.807
1080.97
1079.003
1076.91
1074.796
1096.871
1095.931
1094.938
1093.891
1092.788
1091.625
1090.381
1089.061
1087.655
1086.157
1084.557
1082.846
1081.013
1079.048
1076.946
1097.762
1096.873
1095.935
1094.945
1093.902
1092.81
1091.641
1090.401
1089.083
1087.682
1086.188
1084.594
1082.89
1081.066
1079.112
1098.602
1097.763
1096.876
1095.94
1094.949
1099.396
1098.603
1097.765
1096.879
1095.94
1100.144
1099.396
1098.605
1097.767
1096.878
1100.85
1100.145
1099.398
1098.606
1097.766
1101.514
1100.851
1100.146
1099.399
1098.605
1102.139
1101.515
1100.852
1100.148
1099.399
1102.725
1102.14
1101.518
1100.855
1100.15
1103.273
1102.726
1102.143
1101.521
1100.858
1103.785
1103.275
1102.73
1102.147
1101.526
1104.26
1103.787
1103.279