/*--------------------------------*- C++ -*----------------------------------*\
| =========                 |                                                 |
| \\      /  F ield         | OpenFOAM: The Open Source CFD Toolbox           |
|  \\    /   O peration     | Version:  2306                                  |
|   \\  /    A nd           | Website:  www.openfoam.com                      |
|    \\/     M anipulation  |                                                 |
\*---------------------------------------------------------------------------*/
FoamFile
{
    version     2.0;
    format      ascii;
    arch        "LSB;label=32;scalar=64";
    class       volScalarField;
    location    "0.6/air";
    object      diffSp.O2;
}
// * * * * * * * * * * * * * * * * * * * * * * * * * * * * * * * * * * * * * //

dimensions      [0 2 -1 0 0 0 0];

internalField   nonuniform List<scalar> 
16000
(
0.0002384737
0.0002341557
0.0002435437
0.0002340768
0.0002317552
0.0002425744
0.0002236888
0.0002448262
0.0002425565
0.0002316079
0.0002303872
0.0002417367
0.0002172813
0.0002444769
0.0002397063
0.000217174
0.0002458508
0.0002444949
0.0002416998
0.0002301587
0.0002297516
0.0002411209
0.0002134676
0.0002441655
0.0002372188
0.0002077031
0.000245699
0.0002434751
0.000237179
0.0002131832
0.0002467509
0.0002457299
0.0002441969
0.0002410577
0.0002294137
0.0002297516
0.0002407949
0.0002116663
0.0002439282
0.0002353812
0.0002018499
0.0002455685
0.0002425496
0.0002331801
0.0002016166
0.000246669
0.000245307
0.0002425616
0.0002352689
0.0002111056
0.0002475715
0.0002467021
0.0002456243
0.0002439718
0.0002406971
0.0002292644
0.0001411968
0.0002303872
0.0002407949
0.0002116663
0.0002437994
0.0002344063
0.0001990295
0.0002454707
0.0002418373
0.0002301971
0.0001942847
0.0002466027
0.0002449303
0.000241055
0.0002300949
0.0001983858
0.0002475165
0.0002464892
0.0002449614
0.0002418575
0.0002341868
0.0002107093
0.000248328
0.000247548
0.000246663
0.0002455527
0.0002438576
0.0002406599
0.0002297013
0.0001411805
0.0001417742
0.0001415356
0.0002317552
0.0002411209
0.0002134676
0.0002437994
0.0002344063
0.0001990295
0.0002454179
0.0002414487
0.0002286067
0.0001907016
0.0002465549
0.0002446432
0.0002398824
0.0002262046
0.0001902112
0.0002474743
0.0002463069
0.000244359
0.0002398864
0.0002283326
0.0001977656
0.0002482842
0.0002474133
0.0002463422
0.0002447129
0.0002414805
0.0002340595
0.0002119749
0.0002490323
0.000248313
0.0002475317
0.000246644
0.0002455315
0.0002438809
0.0002409595
0.0002308038
0.0001411452
0.0001417711
0.0001415125
0.0001423313
0.0001420837
0.0001418771
0.0002341557
0.0002417367
0.0002172813
0.0002439282
0.0002353812
0.0002018499
0.0002454179
0.0002414487
0.0002286067
0.0001907016
0.0002465297
0.0002444871
0.0002392388
0.0002241203
0.0001861842
0.000247445
0.0002461723
0.0002438931
0.0002383387
0.0002239089
0.0001894208
0.0002482515
0.0002473028
0.0002460608
0.0002439382
0.0002392468
0.0002281126
0.0001997394
0.000248994
0.0002482092
0.0002473369
0.0002462534
0.0002446116
0.0002415118
0.0002349242
0.0002150783
0.0002496902
0.0002490201
0.0002483042
0.0002475301
0.0002466536
0.0002455735
0.0002440525
0.0002415853
0.0002328167
0.0001410766
0.0001417657
0.000141458
0.0001423312
0.0001420808
0.0001418483
0.0001428401
0.0001426028
0.0001423936
0.0001422234
0.0002384737
0.0002425744
0.0002236888
0.0002441655
0.0002372188
0.0002077031
0.0002454707
0.0002418373
0.0002301971
0.0001942847
0.0002465297
0.0002444871
0.0002392388
0.0002241203
0.0001861842
0.0002474299
0.0002461004
0.0002436376
0.0002374848
0.0002215314
0.000185302
0.0002482295
0.000247224
0.0002458494
0.0002433317
0.000237482
0.0002236113
0.0001919058
0.0002489658
0.0002481264
0.0002471729
0.0002459047
0.0002437526
0.0002392739
0.0002294914
0.000204498
0.0002496553
0.0002489304
0.0002481578
0.0002473031
0.0002462463
0.0002446947
0.0002419785
0.0002367301
0.0002205118
0.0002503074
0.0002496789
0.0002490135
0.0002483076
0.0002475484
0.0002466984
0.0002456864
0.0002443715
0.00024252
0.0002364476
0.0001408926
0.0001417599
0.0001413415
0.0001423322
0.000142076
0.0001417794
0.0001428407
0.0001426046
0.0001423906
0.0001421907
0.0001433046
0.0001430766
0.0001428738
0.0001427049
0.0001425718
0.0002435437
0.0002340768
0.0002444769
0.0002397063
0.000217174
0.0002455685
0.0002425496
0.0002331801
0.0002016166
0.0002465549
0.0002446432
0.0002398824
0.0002262046
0.0001902112
0.0002474299
0.0002461004
0.0002436376
0.0002374848
0.0002215314
0.000185302
0.0002482184
0.000247183
0.0002457355
0.0002429967
0.0002365049
0.0002211899
0.0001880539
0.0002489471
0.000248069
0.0002470541
0.0002456389
0.0002430737
0.0002374989
0.0002253843
0.0001978338
0.0002496297
0.0002488599
0.0002480383
0.0002471087
0.0002458768
0.000243864
0.0002400061
0.0002323611
0.000212553
0.000250275
0.0002495972
0.0002488885
0.000248142
0.0002473252
0.0002463394
0.0002449805
0.0002428571
0.0002393537
0.0002294643
0.0002508877
0.0002502965
0.0002496729
0.0002490179
0.0002483271
0.0002475908
0.0002467845
0.0002458777
0.0002448485
0.0002438092
0.0001396054
0.0001417754
0.0001410449
0.0001423389
0.0001420731
0.0001416339
0.0001428434
0.000142611
0.0001423858
0.000142113
0.0001433055
0.0001430797
0.0001428771
0.0001427018
0.0001425371
0.0001437353
0.0001435115
0.0001433126
0.0001431452
0.0001430145
6.047462e-05
0.0002448262
0.0002425565
0.0002316079
0.000245699
0.0002434751
0.000237179
0.0002131832
0.0002466027
0.0002449303
0.000241055
0.0002300949
0.0001983858
0.000247445
0.0002461723
0.0002438931
0.0002383387
0.0002239089
0.0001894208
0.0002482184
0.000247183
0.0002457355
0.0002429967
0.0002365049
0.0002211899
0.0001880539
0.0002489377
0.0002480396
0.0002469915
0.0002454943
0.0002426964
0.0002365139
0.0002231767
0.000194586
0.0002496127
0.0002488116
0.0002479542
0.0002469658
0.0002455912
0.0002432009
0.0002384351
0.0002290628
0.0002076472
0.0002502512
0.0002495332
0.0002487878
0.0002480049
0.0002471311
0.0002460062
0.0002442956
0.0002413816
0.0002364536
0.0002250525
0.0002508573
0.0002502204
0.0002495591
0.000248878
0.000248171
0.0002474149
0.0002465465
0.0002454715
0.0002440966
0.0002426253
0.0001380911
0.0002514345
0.000250877
0.0002502906
0.0002496769
0.0002490363
0.000248366
0.0002476627
0.0002469219
0.0002461741
0.0002455902
0.0001420448
0.000140051
0.0001423881
0.0001420955
0.0001413057
0.0001428529
0.0001426316
0.0001423824
0.0001419553
0.0001433084
0.0001430887
0.0001428872
0.0001426963
0.0001424559
0.0001437361
0.0001435147
0.0001433175
0.0001431496
0.0001430113
6.045956e-05
0.0001441361
0.0001439174
0.0001437178
0.0001435485
0.0001434138
6.065633e-05
6.048401e-05
0.0002458508
0.0002444949
0.0002416998
0.0002301587
0.000246669
0.000245307
0.0002425616
0.0002352689
0.0002111056
0.0002474743
0.0002463069
0.000244359
0.0002398864
0.0002283326
0.0001977656
0.0002482295
0.000247224
0.0002458494
0.0002433317
0.000237482
0.0002236113
0.0001919058
0.0002489377
0.0002480396
0.0002469915
0.0002454943
0.0002426964
0.0002365139
0.0002231767
0.000194586
0.0002496042
0.0002487871
0.0002479108
0.0002468899
0.0002454345
0.0002428304
0.0002375616
0.0002272919
0.0002052818
0.0002502354
0.0002494896
0.000248718
0.0002479073
0.0002469862
0.0002457435
0.000243739
0.000240191
0.0002342482
0.0002223325
0.000250835
0.0002501608
0.0002494681
0.0002487643
0.0002480403
0.000247257
0.0002463092
0.0002450322
0.0002432589
0.0002413594
0.0001368927
0.0002514059
0.0002508054
0.0002501844
0.0002495499
0.0002489068
0.0002482536
0.0002475834
0.0002468802
0.0002461728
0.0002456701
0.0001419049
0.0001388566
0.0002519505
0.0002514241
0.0002508711
0.000250294
0.0002496937
0.0002490716
0.0002484288
0.0002477741
0.0002471413
0.0002466986
0.0001428906
0.0001422308
0.0001405241
0.0001429071
0.0001427122
0.0001423967
0.0001416375
0.0001433179
0.0001431142
0.0001429146
0.0001426901
0.0001422986
0.0001437388
0.000143524
0.0001433311
0.0001431615
0.0001430048
6.042467e-05
0.0001441368
0.0001439205
0.0001437229
0.0001435548
0.0001434187
6.065491e-05
6.046896e-05
0.0001445116
0.0001442976
0.0001440989
0.0001439239
0.0001437815
6.081943e-05
6.066459e-05
6.04933e-05
0.0002467509
0.0002457299
0.0002441969
0.0002410577
0.0002294137
0.0002475165
0.0002464892
0.0002449614
0.0002418575
0.0002341868
0.0002107093
0.0002482515
0.0002473028
0.0002460608
0.0002439382
0.0002392468
0.0002281126
0.0001997394
0.0002489471
0.000248069
0.0002470541
0.0002456389
0.0002430737
0.0002374989
0.0002253843
0.0001978338
0.0002496042
0.0002487871
0.0002479108
0.0002468899
0.0002454345
0.0002428304
0.0002375616
0.0002272919
0.0002052818
0.0002502275
0.0002494676
0.0002486824
0.0002478566
0.0002469085
0.0002455978
0.0002434251
0.0002395253
0.0002330607
0.000221018
0.0002508202
0.0002501202
0.0002494054
0.0002486848
0.0002479461
0.0002471357
0.0002461125
0.0002446539
0.0002425455
0.0002403445
0.0001360878
0.0002513849
0.0002507493
0.0002500996
0.0002494474
0.0002488006
0.0002481567
0.0002474994
0.0002467902
0.0002460341
0.0002454711
0.0001416553
0.0001378593
0.0002519235
0.0002513564
0.000250771
0.0002501753
0.0002495764
0.000248982
0.0002483996
0.0002478459
0.0002473651
0.0002471247
0.0001430537
0.0001421328
0.0001395849
0.0002524381
0.0002519404
0.0002514182
0.0002508739
0.0002503092
0.0002497258
0.000249128
0.0002485253
0.0002479548
0.0002475614
0.0001434308
0.0001430365
0.0001424546
0.0001410224
0.0001433695
0.0001432044
0.0001429962
0.000142692
0.0001420121
0.0001437477
0.0001435492
0.0001433651
0.0001431899
0.0001429946
6.035859e-05
0.0001441393
0.0001439292
0.0001437367
0.000143571
0.0001434311
6.065187e-05
6.043413e-05
0.0001445123
0.0001443005
0.0001441038
0.0001439304
0.0001437885
6.082159e-05
6.066317e-05
6.047827e-05
0.0001448643
0.000144656
0.0001444585
0.0001442803
0.0001441271
6.097034e-05
6.08266e-05
6.067274e-05
6.050271e-05
0.0002475715
0.0002467021
0.0002456243
0.0002439718
0.0002406971
0.0002292644
0.0002482842
0.0002474133
0.0002463422
0.0002447129
0.0002414805
0.0002340595
0.0002119749
0.0002489658
0.0002481264
0.0002471729
0.0002459047
0.0002437526
0.0002392739
0.0002294914
0.000204498
0.0002496127
0.0002488116
0.0002479542
0.0002469658
0.0002455912
0.0002432009
0.0002384351
0.0002290628
0.0002076472
0.0002502275
0.0002494676
0.0002486824
0.0002478566
0.0002469085
0.0002455978
0.0002434251
0.0002395253
0.0002330607
0.000221018
0.0002508128
0.0002500998
0.0002493735
0.000248644
0.0002478967
0.0002470694
0.0002460005
0.0002444348
0.000242138
0.0002397867
0.0001356855
0.0002513709
0.0002507111
0.0002500413
0.0002493763
0.0002487257
0.0002480846
0.000247427
0.0002466927
0.0002458662
0.0002452294
0.000141429
0.0001371727
0.0002519037
0.0002513034
0.000250691
0.0002500797
0.0002494811
0.0002489067
0.000248365
0.0002478688
0.0002474487
0.000247259
0.0001430844
0.0001419423
0.0001387707
0.0002524126
0.0002518764
0.0002513234
0.0002507617
0.0002501992
0.0002496449
0.0002491125
0.0002486239
0.0002482312
0.0002480596
0.0001436663
0.0001431843
0.0001423773
0.0001402915
0.0002528992
0.0002524284
0.0002519346
0.0002514204
0.0002508877
0.0002503385
0.0002497771
0.0002492142
0.0002486827
0.0002483137
0.0001438594
0.0001435536
0.0001432094
0.0001427039
0.0001415345
0.0001437948
0.0001436357
0.0001434591
0.0001432595
0.0001429834
6.024379e-05
0.0001441473
0.0001439527
0.0001437705
0.0001436072
0.0001434567
6.064655e-05
6.036831e-05
0.0001445145
0.0001443085
0.0001441169
0.000143947
0.0001438055
6.08268e-05
6.066012e-05
6.04435e-05
0.0001448649
0.0001446586
0.0001444631
0.0001442865
0.0001441344
6.097342e-05
6.082877e-05
6.067132e-05
6.04877e-05
0.0001451966
0.0001449943
0.0001447997
0.0001446193
0.0001444588
6.111315e-05
6.097659e-05
6.083366e-05
6.068099e-05
6.051189e-05
0.000248328
0.000247548
0.000246663
0.0002455527
0.0002438576
0.0002406599
0.0002297013
0.000248994
0.0002482092
0.0002473369
0.0002462534
0.0002446116
0.0002415118
0.0002349242
0.0002150783
0.0002496297
0.0002488599
0.0002480383
0.0002471087
0.0002458768
0.000243864
0.0002400061
0.0002323611
0.000212553
0.0002502354
0.0002494896
0.000248718
0.0002479073
0.0002469862
0.0002457435
0.000243739
0.000240191
0.0002342482
0.0002223325
0.0002508128
0.0002500998
0.0002493735
0.000248644
0.0002478967
0.0002470694
0.0002460005
0.0002444348
0.000242138
0.0002397867
0.0001356855
0.0002513639
0.0002506919
0.0002500117
0.00024934
0.000248687
0.0002480461
0.0002473849
0.000246631
0.0002457578
0.0002450769
0.0001412989
0.0001368257
0.0002518904
0.0002512673
0.0002506361
0.0002500136
0.0002494145
0.0002488522
0.0002483335
0.0002478643
0.0002474615
0.0002472802
0.0001430683
0.0001417644
0.0001381975
0.0002523938
0.0002518262
0.0002512477
0.0002506714
0.0002501101
0.0002495778
0.0002490925
0.0002486774
0.0002483772
0.0002482853
0.0001437775
0.0001432257
0.0001422309
0.0001396416
0.000252875
0.0002523677
0.0002518448
0.000251314
0.0002507832
0.0002502619
0.0002497635
0.0002493122
0.000248955
0.0002487996
0.0001440998
0.0001437593
0.0001433307
0.0001426369
0.0001409795
0.0002533354
0.0002528899
0.0002524227
0.0002519365
0.0002514331
0.0002509147
0.0002503856
0.0002498555
0.0002493553
0.0002489999
0.0001442397
0.0001439662
0.0001436981
0.0001433991
0.0001429649
6.006448e-05
0.00014419
0.0001440323
0.0001438617
0.0001436909
0.0001435092
6.063889e-05
6.025454e-05
0.0001445217
0.0001443301
0.0001441486
0.0001439835
0.0001438398
6.083679e-05
6.065471e-05
6.037796e-05
0.0001448669
0.0001446661
0.0001444754
0.0001443023
0.000144152
6.098073e-05
6.083396e-05
6.066826e-05
6.045302e-05
0.0001451971
0.0001449967
0.000144804
0.0001446252
0.0001444659
6.111637e-05
6.097968e-05
6.083584e-05
6.067958e-05
6.049691e-05
0.0001455101
0.0001453145
0.0001451237
0.0001449434
0.0001447774
6.125113e-05
6.111864e-05
6.098273e-05
6.084081e-05
6.068901e-05
3.949347e-05
0.0002490323
0.000248313
0.0002475317
0.000246644
0.0002455315
0.0002438809
0.0002409595
0.0002308038
0.0002496553
0.0002489304
0.0002481578
0.0002473031
0.0002462463
0.0002446947
0.0002419785
0.0002367301
0.0002205118
0.0002502512
0.0002495332
0.0002487878
0.0002480049
0.0002471311
0.0002460062
0.0002442956
0.0002413816
0.0002364536
0.0002250525
0.0002508202
0.0002501202
0.0002494054
0.0002486848
0.0002479461
0.0002471357
0.0002461125
0.0002446539
0.0002425455
0.0002403445
0.0001360878
0.0002513639
0.0002506919
0.0002500117
0.00024934
0.000248687
0.0002480461
0.0002473849
0.000246631
0.0002457578
0.0002450769
0.0001412989
0.0001368257
0.0002518838
0.0002512491
0.0002506082
0.0002499799
0.0002493803
0.0002488235
0.0002483147
0.0002478553
0.0002474548
0.0002472724
0.0001430499
0.0001416608
0.0001379047
0.0002523813
0.000251792
0.0002511957
0.0002506089
0.000250048
0.0002495298
0.0002490736
0.0002487001
0.0002484448
0.0002483861
0.0001438273
0.0001432233
0.0001420923
0.0001391751
0.0002528573
0.0002523201
0.000251773
0.0002512284
0.0002506987
0.0002501986
0.0002497466
0.0002493697
0.0002491089
0.0002490383
0.000144228
0.0001438661
0.000143374
0.0001425234
0.0001404772
0.0002533126
0.0002528324
0.0002523375
0.0002518355
0.0002513336
0.000250841
0.0002503709
0.0002499452
0.0002496079
0.0002494496
0.0001444655
0.0001441748
0.0001438667
0.0001434914
0.0001429035
5.985951e-05
0.0002537483
0.0002533266
0.0002528844
0.0002524243
0.0002519481
0.0002514581
0.0002509582
0.0002504576
0.000249984
0.0002496407
0.0001445913
0.0001443341
0.0001440911
0.0001438556
0.0001435947
6.062556e-05
6.007816e-05
0.0001445604
0.0001444025
0.0001442332
0.0001440659
0.0001439071
6.08553e-05
6.064677e-05
6.026525e-05
0.0001448734
0.0001446858
0.0001445046
0.0001443369
0.0001441872
6.099459e-05
6.084384e-05
6.066276e-05
6.03878e-05
0.0001451989
0.0001450036
0.0001448154
0.00014464
0.0001444828
6.112397e-05
6.098698e-05
6.084101e-05
6.06765e-05
6.046233e-05
0.0001455106
0.0001453168
0.0001451277
0.0001449489
0.0001447841
6.125425e-05
6.112186e-05
6.098583e-05
6.084299e-05
6.06876e-05
3.948376e-05
0.0001458065
0.0001456178
0.0001454318
0.000145253
0.0001450845
6.138443e-05
6.125599e-05
6.112402e-05
6.098896e-05
6.084774e-05
3.960789e-05
3.950166e-05
0.0002496902
0.0002490201
0.0002483042
0.0002475301
0.0002466536
0.0002455735
0.0002440525
0.0002415853
0.0002328167
0.000250275
0.0002495972
0.0002488885
0.000248142
0.0002473252
0.0002463394
0.0002449805
0.0002428571
0.0002393537
0.0002294643
0.000250835
0.0002501608
0.0002494681
0.0002487643
0.0002480403
0.000247257
0.0002463092
0.0002450322
0.0002432589
0.0002413594
0.0001368927
0.0002513709
0.0002507111
0.0002500413
0.0002493763
0.0002487257
0.0002480846
0.000247427
0.0002466927
0.0002458662
0.0002452294
0.000141429
0.0001371727
0.0002518838
0.0002512491
0.0002506082
0.0002499799
0.0002493803
0.0002488235
0.0002483147
0.0002478553
0.0002474548
0.0002472724
0.0001430499
0.0001416608
0.0001379047
0.000252375
0.0002517748
0.0002511693
0.0002505771
0.0002500163
0.0002495048
0.0002490622
0.000248707
0.0002484699
0.0002484241
0.0001438458
0.0001432135
0.0001420108
0.0001389343
0.0002528454
0.0002522878
0.0002517237
0.0002511691
0.0002506399
0.0002501536
0.0002497308
0.0002493979
0.0002491879
0.0002491573
0.000144295
0.0001439176
0.0001433799
0.0001424165
0.0001401106
0.0002532958
0.0002527873
0.0002522695
0.0002517541
0.0002512531
0.0002507803
0.0002503537
0.0002499986
0.0002497536
0.0002496766
0.0001445908
0.0001442944
0.0001439628
0.0001435303
0.0001428153
5.967292e-05
0.0002537267
0.0002532722
0.0002528037
0.0002523284
0.0002518534
0.0002513872
0.0002509419
0.0002505381
0.0002502145
0.0002500515
0.0001447982
0.0001445299
0.0001442625
0.0001439868
0.0001436584
6.059971e-05
5.987691e-05
0.000254139
0.00025374
0.0002533214
0.0002528859
0.0002524352
0.0002519715
0.0002514986
0.0002510249
0.0002505758
0.0002502438
0.0001449233
0.0001446758
0.0001444441
0.0001442269
0.0001440164
6.088211e-05
6.063291e-05
6.009172e-05
0.0001449086
0.0001447518
0.000144582
0.000144414
0.0001442551
6.101959e-05
6.08619e-05
6.065454e-05
6.027616e-05
0.0001452048
0.0001450218
0.0001448424
0.0001446722
0.0001445165
6.113833e-05
6.100074e-05
6.085076e-05
6.067092e-05
6.039745e-05
0.0001455122
0.0001453232
0.0001451383
0.0001449628
0.0001448001
6.12616e-05
6.112946e-05
6.099311e-05
6.084814e-05
6.06845e-05
3.946135e-05
0.0001458069
0.00014562
0.0001454356
0.0001452582
0.0001450908
6.138739e-05
6.125912e-05
6.112726e-05
6.099206e-05
6.084992e-05
3.960697e-05
3.9492e-05
0.0001460869
0.0001459056
0.000145725
0.0001455491
0.0001453799
6.151354e-05
6.138877e-05
6.126075e-05
6.112949e-05
6.099497e-05
3.97104e-05
3.961517e-05
3.950693e-05
0.0002503074
0.0002496789
0.0002490135
0.0002483076
0.0002475484
0.0002466984
0.0002456864
0.0002443715
0.00024252
0.0002364476
0.0002508573
0.0002502204
0.0002495591
0.000248878
0.000248171
0.0002474149
0.0002465465
0.0002454715
0.0002440966
0.0002426253
0.0001380911
0.0002513849
0.0002507493
0.0002500996
0.0002494474
0.0002488006
0.0002481567
0.0002474994
0.0002467902
0.0002460341
0.0002454711
0.0001416553
0.0001378593
0.0002518904
0.0002512673
0.0002506361
0.0002500136
0.0002494145
0.0002488522
0.0002483335
0.0002478643
0.0002474615
0.0002472802
0.0001430683
0.0001417644
0.0001381975
0.000252375
0.0002517748
0.0002511693
0.0002505771
0.0002500163
0.0002495048
0.0002490622
0.000248707
0.0002484699
0.0002484241
0.0001438458
0.0001432135
0.0001420108
0.0001389343
0.0002528395
0.0002522714
0.0002516987
0.0002511389
0.0002506098
0.0002501302
0.0002497214
0.0002494086
0.0002492207
0.0002492071
0.0001443238
0.0001439379
0.0001433759
0.0001423536
0.0001399194
0.0002532845
0.0002527566
0.0002522227
0.0002516978
0.000251197
0.0002507371
0.0002503384
0.0002500253
0.0002498305
0.0002497935
0.0001446591
0.0001443593
0.0001440125
0.0001435402
0.0001427347
5.953564e-05
0.0002537107
0.0002532295
0.0002527392
0.0002522512
0.0002517767
0.0002513288
0.000250924
0.0002505858
0.0002503481
0.0002502611
0.000144915
0.000144646
0.0001443686
0.0001440683
0.0001436896
6.056621e-05
5.969358e-05
0.0002541185
0.0002536885
0.000253245
0.0002527949
0.0002523451
0.0002519034
0.0002514812
0.0002510971
0.0002507862
0.0002506189
0.0001451122
0.0001448554
0.0001446055
0.0001443616
0.0001441125
6.090353e-05
6.060713e-05
5.989412e-05
0.0002545085
0.0002541312
0.0002537351
0.0002533228
0.0002528961
0.0002524571
0.0002520094
0.0002515608
0.0002511344
0.0002508144
0.0001452386
0.0001449996
0.0001447739
0.0001445636
0.0001443649
6.105638e-05
6.088767e-05
6.064015e-05
6.010543e-05
0.000145237
0.0001450822
0.0001449133
0.0001447434
0.000144581
6.116402e-05
6.102529e-05
6.086838e-05
6.066242e-05
6.028688e-05
0.0001455176
0.00014534
0.0001451633
0.0001449926
0.0001448317
6.127546e-05
6.114373e-05
6.100676e-05
6.085777e-05
6.067883e-05
3.941939e-05
0.0001458084
0.000145626
0.0001454456
0.0001452712
0.0001451058
6.139435e-05
6.126647e-05
6.113484e-05
6.099933e-05
6.085505e-05
3.960496e-05
3.946972e-05
0.0001460873
0.0001459076
0.0001457286
0.000145554
0.0001453858
6.151633e-05
6.139173e-05
6.126388e-05
6.113272e-05
6.099807e-05
3.971182e-05
3.961427e-05
3.94973e-05
0.0001463526
0.0001461787
0.0001460042
0.0001458322
0.0001456641
6.163825e-05
6.151743e-05
6.139301e-05
6.126558e-05
6.113475e-05
3.980556e-05
3.971687e-05
3.961975e-05
3.951106e-05
0.0002508877
0.0002502965
0.0002496729
0.0002490179
0.0002483271
0.0002475908
0.0002467845
0.0002458777
0.0002448485
0.0002438092
0.0001396054
0.0002514059
0.0002508054
0.0002501844
0.0002495499
0.0002489068
0.0002482536
0.0002475834
0.0002468802
0.0002461728
0.0002456701
0.0001419049
0.0001388566
0.0002519037
0.0002513034
0.000250691
0.0002500797
0.0002494811
0.0002489067
0.000248365
0.0002478688
0.0002474487
0.000247259
0.0001430844
0.0001419423
0.0001387707
0.0002523813
0.000251792
0.0002511957
0.0002506089
0.000250048
0.0002495298
0.0002490736
0.0002487001
0.0002484448
0.0002483861
0.0001438273
0.0001432233
0.0001420923
0.0001391751
0.0002528395
0.0002522714
0.0002516987
0.0002511389
0.0002506098
0.0002501302
0.0002497214
0.0002494086
0.0002492207
0.0002492071
0.0001443238
0.0001439379
0.0001433759
0.0001423536
0.0001399194
0.0002532789
0.0002527411
0.0002521989
0.0002516691
0.0002511684
0.0002507148
0.0002503293
0.0002500359
0.0002498632
0.0002498438
0.0001446894
0.0001443878
0.000144033
0.00014354
0.0001426875
5.946361e-05
0.0002537001
0.0002532004
0.0002526948
0.0002521977
0.0002517233
0.0002512873
0.0002509083
0.0002506096
0.0002504191
0.0002503703
0.0001449798
0.0001447113
0.0001444288
0.0001441132
0.0001437005
6.053644e-05
5.955856e-05
0.0002541034
0.000253648
0.0002531838
0.0002527216
0.0002522721
0.0002518473
0.0002514627
0.0002511394
0.0002509081
0.0002508112
0.0001452198
0.0001449635
0.0001447084
0.0001444513
0.0001441776
6.091489e-05
6.057412e-05
5.971399e-05
0.0002544891
0.0002540825
0.0002536627
0.0002532366
0.0002528106
0.0002523921
0.0002519916
0.0002516261
0.0002513274
0.0002511586
0.0001454117
0.0001451639
0.0001449226
0.0001446914
0.0001444655
6.109054e-05
6.090843e-05
6.061443e-05
5.991141e-05
0.0002548578
0.0002545013
0.0002541267
0.0002537365
0.0002533325
0.0002529168
0.0002524927
0.0002520677
0.0002516628
0.0002513551
0.0001455392
0.0001453081
0.000145088
0.0001448805
0.0001446848
6.120187e-05
6.1061e-05
6.089311e-05
6.064752e-05
6.011889e-05
0.0001455474
0.0001453957
0.0001452286
0.0001450583
0.0001448919
6.130013e-05
6.116902e-05
6.103087e-05
6.087494e-05
6.067006e-05
3.934817e-05
0.0001458134
0.0001456417
0.0001454689
0.000145299
0.0001451354
6.140745e-05
6.128025e-05
6.114901e-05
6.101285e-05
6.086455e-05
3.960123e-05
3.942805e-05
0.0001460888
0.0001459133
0.000145738
0.0001455663
0.0001454
6.152291e-05
6.13987e-05
6.127123e-05
6.11403e-05
6.100532e-05
3.971515e-05
3.961229e-05
3.94751e-05
0.0001463529
0.0001461806
0.0001460076
0.0001458368
0.0001456697
6.164089e-05
6.152024e-05
6.139598e-05
6.126872e-05
6.113799e-05
3.980758e-05
3.97183e-05
3.961886e-05
3.950146e-05
0.0001466043
0.0001464381
0.00014627
0.0001461027
0.0001459371
6.175863e-05
6.164178e-05
6.152124e-05
6.139732e-05
6.127023e-05
3.989597e-05
3.981136e-05
3.972083e-05
3.962328e-05
3.95134e-05
0.0001408926
0.0002514345
0.000250877
0.0002502906
0.0002496769
0.0002490363
0.000248366
0.0002476627
0.0002469219
0.0002461741
0.0002455902
0.0001420448
0.000140051
0.0002519235
0.0002513564
0.000250771
0.0002501753
0.0002495764
0.000248982
0.0002483996
0.0002478459
0.0002473651
0.0002471247
0.0001430537
0.0001421328
0.0001395849
0.0002523938
0.0002518262
0.0002512477
0.0002506714
0.0002501101
0.0002495778
0.0002490925
0.0002486774
0.0002483772
0.0002482853
0.0001437775
0.0001432257
0.0001422309
0.0001396416
0.0002528454
0.0002522878
0.0002517237
0.0002511691
0.0002506399
0.0002501536
0.0002497308
0.0002493979
0.0002491879
0.0002491573
0.000144295
0.0001439176
0.0001433799
0.0001424165
0.0001401106
0.0002532789
0.0002527411
0.0002521989
0.0002516691
0.0002511684
0.0002507148
0.0002503293
0.0002500359
0.0002498632
0.0002498438
0.0001446894
0.0001443878
0.000144033
0.00014354
0.0001426875
5.946361e-05
0.0002536947
0.0002531857
0.0002526723
0.0002521705
0.000251696
0.0002512658
0.0002508992
0.000250619
0.0002504496
0.0002504178
0.0001450089
0.0001447408
0.0001444558
0.0001441327
0.0001437026
6.051916e-05
5.948768e-05
0.0002540933
0.0002536205
0.0002531417
0.0002526709
0.0002522213
0.0002518075
0.0002514469
0.0002511603
0.000250973
0.000250912
0.00014528
0.0001450253
0.0001447686
0.0001445046
0.0001442161
6.091947e-05
6.054489e-05
5.958122e-05
0.0002544748
0.0002540442
0.0002536048
0.0002531672
0.0002527413
0.0002523385
0.0002519729
0.000251664
0.0002514391
0.0002513355
0.0001455108
0.0001452636
0.0001450186
0.0001447787
0.0001445378
6.111487e-05
6.091955e-05
6.05819e-05
5.973445e-05
0.0002548395
0.0002544552
0.0002540582
0.000253655
0.0002532515
0.000252855
0.0002524751
0.0002521275
0.0002518412
0.0002516729
0.0001456987
0.0001454589
0.0001452245
0.0001449989
0.0001447815
6.123826e-05
6.109436e-05
6.091322e-05
6.062186e-05
5.992837e-05
0.0002551876
0.0002548512
0.0002544971
0.000254128
0.0002537457
0.0002533521
0.0002529504
0.0002525477
0.0002521633
0.0002518683
0.0001458259
0.000145603
0.0001453885
0.000145184
0.0001449883
6.13364e-05
6.120587e-05
6.106551e-05
6.089867e-05
6.065466e-05
3.924058e-05
0.000145841
0.0001456934
0.0001455293
0.0001453599
0.0001451916
6.143069e-05
6.130457e-05
6.11739e-05
6.103651e-05
6.088126e-05
3.959538e-05
3.935756e-05
0.0001460934
0.000145928
0.0001457598
0.0001455924
0.0001454279
6.153525e-05
6.141173e-05
6.128493e-05
6.115436e-05
6.101872e-05
3.972125e-05
3.960856e-05
3.943367e-05
0.0001463543
0.000146186
0.0001460165
0.0001458485
0.0001456832
6.164712e-05
6.152682e-05
6.140295e-05
6.127606e-05
6.114554e-05
3.981228e-05
3.972164e-05
3.961687e-05
3.947934e-05
0.0001466046
0.0001464399
0.0001462732
0.0001461072
0.0001459424
6.176115e-05
6.164443e-05
6.152405e-05
6.14003e-05
6.127337e-05
3.989808e-05
3.981339e-05
3.972226e-05
3.962239e-05
3.95038e-05
0.0001468429
0.0001466844
0.0001465231
0.0001463612
0.0001461991
6.187461e-05
6.176186e-05
6.164522e-05
6.152512e-05
6.140145e-05
3.998367e-05
3.990122e-05
3.98148e-05
3.972381e-05
3.962515e-05
0.0001410766
0.0001417754
0.0001410449
0.0002519505
0.0002514241
0.0002508711
0.000250294
0.0002496937
0.0002490716
0.0002484288
0.0002477741
0.0002471413
0.0002466986
0.0001428906
0.0001422308
0.0001405241
0.0002524126
0.0002518764
0.0002513234
0.0002507617
0.0002501992
0.0002496449
0.0002491125
0.0002486239
0.0002482312
0.0002480596
0.0001436663
0.0001431843
0.0001423773
0.0001402915
0.0002528573
0.0002523201
0.000251773
0.0002512284
0.0002506987
0.0002501986
0.0002497466
0.0002493697
0.0002491089
0.0002490383
0.000144228
0.0001438661
0.000143374
0.0001425234
0.0001404772
0.0002532845
0.0002527566
0.0002522227
0.0002516978
0.000251197
0.0002507371
0.0002503384
0.0002500253
0.0002498305
0.0002497935
0.0001446591
0.0001443593
0.0001440125
0.0001435402
0.0001427347
5.953564e-05
0.0002536947
0.0002531857
0.0002526723
0.0002521705
0.000251696
0.0002512658
0.0002508992
0.000250619
0.0002504496
0.0002504178
0.0001450089
0.0001447408
0.0001444558
0.0001441327
0.0001437026
6.051916e-05
5.948768e-05
0.0002540883
0.0002536065
0.0002531204
0.000252645
0.0002521953
0.0002517869
0.0002514378
0.0002511684
0.0002510009
0.000250956
0.0001453072
0.0001450534
0.0001447961
0.0001445292
0.0001442335
6.092069e-05
6.052795e-05
5.951147e-05
0.0002544653
0.0002540181
0.000253565
0.0002531191
0.000252693
0.0002523004
0.0002519572
0.0002516825
0.0002514985
0.0002514285
0.0001455665
0.000145321
0.0001450755
0.0001448319
0.000144583
6.112985e-05
6.09241e-05
6.05532e-05
5.960389e-05
0.0002548259
0.000254419
0.0002540035
0.0002535892
0.0002531858
0.000252804
0.0002524568
0.000252162
0.0002519444
0.0002518367
0.0001457905
0.0001455509
0.0001453134
0.0001450809
0.0001448524
6.126552e-05
6.111827e-05
6.09241e-05
6.05898e-05
5.975452e-05
0.0002551703
0.0002548076
0.0002544325
0.0002540511
0.0002536692
0.0002532936
0.0002529335
0.0002526033
0.0002523295
0.0002521638
0.0001459738
0.0001457422
0.0001455141
0.0001452934
0.000145079
6.137178e-05
6.124149e-05
6.109809e-05
6.091813e-05
6.062905e-05
3.911879e-05
0.0002554986
0.0002551816
0.0002548474
0.0002544986
0.0002541369
0.0002537644
0.0002533841
0.0002530024
0.0002526377
0.0002523556
0.0001460996
0.0001458849
0.0001456766
0.0001454757
0.0001452809
6.146473e-05
6.133994e-05
6.120976e-05
6.107011e-05
6.0904e-05
3.958507e-05
3.925156e-05
0.0001461192
0.0001459763
0.0001458162
0.0001456491
0.0001454804
6.155709e-05
6.143467e-05
6.13089e-05
6.117885e-05
6.104193e-05
3.973186e-05
3.960262e-05
3.936381e-05
0.0001463586
0.0001461999
0.0001460371
0.0001458731
0.0001457095
6.165879e-05
6.153911e-05
6.141591e-05
6.128967e-05
6.11595e-05
3.982092e-05
3.97277e-05
3.96131e-05
3.943812e-05
0.0001466059
0.0001464451
0.0001462817
0.0001461183
0.0001459553
6.176707e-05
6.165067e-05
6.153064e-05
6.140726e-05
6.128069e-05
3.990299e-05
3.98181e-05
3.972558e-05
3.962038e-05
3.948173e-05
0.0001468432
0.0001466862
0.0001465262
0.0001463655
0.0001462043
6.187701e-05
6.176438e-05
6.164789e-05
6.152794e-05
6.140443e-05
3.998572e-05
3.990334e-05
3.981683e-05
3.972524e-05
3.962424e-05
0.000147069
0.0001469183
0.0001467641
0.0001466081
0.0001464504
6.19862e-05