/*--------------------------------*- C++ -*----------------------------------*\
| =========                 |                                                 |
| \\      /  F ield         | OpenFOAM: The Open Source CFD Toolbox           |
|  \\    /   O peration     | Version:  2306                                  |
|   \\  /    A nd           | Website:  www.openfoam.com                      |
|    \\/     M anipulation  |                                                 |
\*---------------------------------------------------------------------------*/
FoamFile
{
    version     2.0;
    format      ascii;
    arch        "LSB;label=32;scalar=64";
    class       volScalarField;
    location    "0.6/air";
    object      N2;
}
// * * * * * * * * * * * * * * * * * * * * * * * * * * * * * * * * * * * * * //

dimensions      [0 0 0 0 0 0 0];

internalField   nonuniform List<scalar> 
16000
(
0.7704045
0.7703957
0.7720306
0.7704481
0.7703849
0.7719314
0.7704337
0.7747992
0.77216
0.7705539
0.7703763
0.7717994
0.7704176
0.7746891
0.7720296
0.7705259
0.7776048
0.7749441
0.7724902
0.7707586
0.7703717
0.7716847
0.7704057
0.7745386
0.7718637
0.7704952
0.7774964
0.7748014
0.7723214
0.7707063
0.780316
0.7777495
0.7753041
0.773084
0.7711281
0.7703717
0.7716194
0.7703996
0.7744049
0.7717234
0.7704729
0.7773477
0.7746147
0.7721083
0.7706466
0.7802124
0.7776096
0.7751235
0.7728799
0.7710417
0.7829022
0.7804542
0.7781071
0.7759396
0.7739902
0.7717565
0.8080905
0.7703763
0.7716194
0.7703996
0.7743279
0.771645
0.7704616
0.7772154
0.774453
0.7719294
0.7706023
0.7800703
0.777426
0.7748901
0.7726187
0.7709346
0.7828041
0.7803206
0.7779317
0.7757253
0.7737568
0.771639
0.7853642
0.7830335
0.7807955
0.778735
0.7768981
0.7752501
0.7727474
0.8068194
0.8098008
0.8082913
0.7703849
0.7716847
0.7704057
0.7743279
0.771645
0.7704616
0.777139
0.774361
0.7718299
0.7705797
0.7799439
0.7772666
0.77469
0.7723973
0.7708519
0.7826696
0.7801455
0.7777046
0.7754476
0.773455
0.7714833
0.785271
0.7829071
0.7806286
0.7785296
0.7766569
0.7749824
0.7725926
0.7877136
0.7854887
0.7833577
0.7813934
0.7796751
0.7782147
0.7769174
0.7742408
0.8042513
0.808661
0.8070249
0.8106581
0.8099846
0.808692
0.7703957
0.7717994
0.7704176
0.7744049
0.7717234
0.7704729
0.777139
0.774361
0.7718299
0.7705797
0.7798711
0.7771758
0.774577
0.7722733
0.7708086
0.78255
0.7799935
0.7775095
0.7752094
0.773194
0.7713503
0.7851434
0.7827414
0.7804128
0.7782633
0.7763415
0.7746343
0.7723778
0.7876249
0.7853686
0.7831998
0.781199
0.7794477
0.7779505
0.7766072
0.7740127
0.7899622
0.787832
0.785796
0.7839253
0.7822866
0.7809549
0.7799151
0.7790484
0.7764523
0.8002906
0.8063638
0.8044731
0.8095983
0.8088484
0.8074339
0.8113982
0.810828
0.8103517
0.8092915
0.7704045
0.7719314
0.7704337
0.7745386
0.7718637
0.7704952
0.7772154
0.774453
0.7719294
0.7706023
0.7798711
0.7771758
0.774577
0.7722733
0.7708086
0.782481
0.779907
0.777399
0.775075
0.7730462
0.7712756
0.7850298
0.7825976
0.7802277
0.7780343
0.7760696
0.7743357
0.7721884
0.7875034
0.7852113
0.7829958
0.7809474
0.7791501
0.7776015
0.7762017
0.7736983
0.7898774
0.7877178
0.7856461
0.7837416
0.7820723
0.7807101
0.7796228
0.7786648
0.7760272
0.792121
0.7900752
0.7881247
0.7863343
0.7847728
0.7834991
0.7825907
0.7820245
0.781721
0.7797862
0.7945639
0.8028373
0.8005745
0.807463
0.806564
0.8049095
0.8104056
0.8097712
0.8092215
0.8080434
0.8122005
0.811557
0.8111671
0.8109009
0.8100883
0.7720306
0.7704481
0.7746891
0.7720296
0.7705259
0.7773477
0.7746147
0.7721083
0.7706466
0.7799439
0.7772666
0.77469
0.7723973
0.7708519
0.782481
0.779907
0.777399
0.775075
0.7730462
0.7712756
0.7849644
0.7825158
0.780123
0.7779048
0.7759158
0.7741672
0.7720801
0.7873953
0.7850749
0.7828208
0.7807314
0.7788931
0.777299
0.7758545
0.7734269
0.7897613
0.787568
0.7854525
0.7835039
0.7817927
0.7803861
0.7792337
0.7781704
0.7755132
0.7920398
0.789966
0.7879819
0.7861598
0.7845705
0.7832693
0.7823232
0.7816733
0.7811606
0.778774
0.7941993
0.7922293
0.7903546
0.7886374
0.7871381
0.7859226
0.7850452
0.7845985
0.784592
0.7851005
0.7852276
0.7977812
0.7951504
0.8041873
0.8030885
0.8011033
0.8084062
0.8076474
0.8069585
0.8055499
0.8112642
0.8105672
0.8101156
0.8097781
0.8088504
0.813118
0.8123502
0.8118741
0.8116748
0.8116314
0.8112361
0.7747992
0.77216
0.7705539
0.7774964
0.7748014
0.7723214
0.7707063
0.7800703
0.777426
0.7748901
0.7726187
0.7709346
0.78255
0.7799935
0.7775095
0.7752094
0.773194
0.7713503
0.7849644
0.7825158
0.780123
0.7779048
0.7759158
0.7741672
0.7720801
0.7873331
0.7849973
0.7827219
0.7806094
0.7787473
0.7771274
0.775659
0.7732738
0.7896581
0.7874382
0.7852865
0.7833001
0.7815516
0.7801046
0.7788962
0.7777536
0.7751065
0.7919286
0.789823
0.7877976
0.7859342
0.7843066
0.7829661
0.7819663
0.7812133
0.7804972
0.7778674
0.7941213
0.7921246
0.7902181
0.7884711
0.7869457
0.7857057
0.7847944
0.7842777
0.7840804
0.7840328
0.7823327
0.7962046
0.7943033
0.7924969
0.7908442
0.7894031
0.788229
0.7873878
0.7869392
0.7870192
0.7877597
0.7896696
0.7879465
0.7994959
0.7982858
0.7960246
0.8053403
0.8044181
0.803558
0.8018361
0.8093782
0.8085783
0.8080106
0.8075383
0.8063846
0.8122303
0.8114164
0.810889
0.8106294
0.8105155
0.8100088
0.8141134
0.8132599
0.8126492
0.8123488
0.8123501
0.8126843
0.8114727
0.7776048
0.7749441
0.7724902
0.7707586
0.7802124
0.7776096
0.7751235
0.7728799
0.7710417
0.7826696
0.7801455
0.7777046
0.7754476
0.773455
0.7714833
0.7850298
0.7825976
0.7802277
0.7780343
0.7760696
0.7743357
0.7721884
0.7873331
0.7849973
0.7827219
0.7806094
0.7787473
0.7771274
0.775659
0.7732738
0.7895987
0.7873644
0.7851927
0.7831849
0.781415
0.7799445
0.7787049
0.7775214
0.7748881
0.7918297
0.789699
0.7876396
0.7857408
0.7840792
0.7827031
0.7816555
0.780821
0.7799682
0.7772488
0.7940145
0.7919876
0.790042
0.7882561
0.7866951
0.7854196
0.7844606
0.7838561
0.7834696
0.7830396
0.7807969
0.7961295
0.7942028
0.7923661
0.7906851
0.7892197
0.7880225
0.7871509
0.7866378
0.7865473
0.7867746
0.7869993
0.7845447
0.7981433
0.7963047
0.7945604
0.7929661
0.7915757
0.7904429
0.7896198
0.789182
0.7892202
0.7899855
0.7919818
0.7919671
0.7900615
0.8009518
0.7999598
0.7990427
0.7970414
0.8064869
0.8055553
0.8048494
0.8042114
0.8027418
0.8104426
0.8095403
0.8089173
0.8085448
0.8082956
0.8075666
0.813268
0.8123747
0.8117197
0.8113691
0.8113104
0.811575
0.8102475
0.8151705
0.8142487
0.8135435
0.8130968
0.8129804
0.8133236
0.8129013
0.8117113
0.780316
0.7777495
0.7753041
0.773084
0.7711281
0.7828041
0.7803206
0.7779317
0.7757253
0.7737568
0.771639
0.7851434
0.7827414
0.7804128
0.7782633
0.7763415
0.7746343
0.7723778
0.7873953
0.7850749
0.7828208
0.7807314
0.7788931
0.777299
0.7758545
0.7734269
0.7895987
0.7873644
0.7851927
0.7831849
0.781415
0.7799445
0.7787049
0.7775214
0.7748881
0.7917727
0.7896284
0.7875503
0.7856316
0.7839504
0.7825538
0.7814789
0.7806013
0.7796824
0.7769397
0.7939195
0.7918688
0.789891
0.7880719
0.7864793
0.7851716
0.7841707
0.7834957
0.7829792
0.7823354
0.7799074
0.7960266
0.7940711
0.7921973
0.7904796
0.7889807
0.7877504
0.7868356
0.7862428
0.7859832
0.7858566
0.7854893
0.7826841
0.7980708
0.7962079
0.7944346
0.7928135
0.7914001
0.7902457
0.7893939
0.7888968
0.7887757
0.7890676
0.7895049
0.7888644
0.7865049
0.8000209
0.7982399
0.7965522
0.7950111
0.7936673
0.7925694
0.7917692
0.7913242
0.7913422
0.7920147
0.7939278
0.7941013
0.7937645
0.7917927
0.8023495
0.801384
0.8006549
0.7999299
0.7981316
0.8077021
0.8066893
0.8059573
0.8054496
0.8050229
0.8039685
0.8115654
0.8105962
0.8098596
0.8094159
0.8092425
0.8093701
0.80781
0.8143625
0.8134055
0.8126623
0.8121723
0.8120056
0.8122889
0.8117933
0.8104882
0.8162653
0.8152998
0.8145188
0.813968
0.8136923
0.8138909
0.8135242
0.8131201
0.8119519
0.7829022
0.7804542
0.7781071
0.7759396
0.7739902
0.7717565
0.785271
0.7829071
0.7806286
0.7785296
0.7766569
0.7749824
0.7725926
0.7875034
0.7852113
0.7829958
0.7809474
0.7791501
0.7776015
0.7762017
0.7736983
0.7896581
0.7874382
0.7852865
0.7833001
0.7815516
0.7801046
0.7788962
0.7777536
0.7751065
0.7917727
0.7896284
0.7875503
0.7856316
0.7839504
0.7825538
0.7814789
0.7806013
0.7796824
0.7769397
0.7938647
0.7918012
0.7898057
0.7879679
0.7863572
0.7850308
0.7840063
0.7832933
0.7827134
0.7819754
0.7794907
0.7959351
0.7939569
0.7920526
0.7903035
0.7887749
0.7875148
0.7865619
0.7859059
0.7855298
0.7852039
0.7845728
0.7816346
0.7979715
0.796081
0.7942724
0.7926164
0.7911713
0.789986
0.7890937
0.7885231
0.7882454
0.7882129
0.7881022
0.7870848
0.7844335
0.7999509
0.7981464
0.7964311
0.7948644
0.7934987
0.7923804
0.7915533
0.791052
0.7909209
0.7911491
0.7916118
0.7912199
0.7905254
0.7882223
0.8018422
0.8001142
0.7984786
0.7969862
0.7956849
0.7946203
0.7938378
0.7933955
0.7933782
0.7939888
0.7957286
0.7959055
0.7957554
0.7952461
0.7932546
0.8037811
0.802756
0.8020314
0.8014686
0.8008886
0.7994424
0.8089554
0.8078937
0.8070675
0.8065167
0.806195
0.8061267
0.8042207
0.8127353
0.8117116
0.8108987
0.8103292
0.8100673
0.8102327
0.8095914
0.8080554
0.8154907
0.8144939
0.8136794
0.8130914
0.8127722
0.8129203
0.8124905
0.8120134
0.8107309
0.8173865
0.8163893
0.815558
0.8149232
0.8145329
0.814551
0.8140785
0.8137266
0.8133408
0.8121946
0.7853642
0.7830335
0.7807955
0.778735
0.7768981
0.7752501
0.7727474
0.7876249
0.7853686
0.7831998
0.781199
0.7794477
0.7779505
0.7766072
0.7740127
0.7897613
0.787568
0.7854525
0.7835039
0.7817927
0.7803861
0.7792337
0.7781704
0.7755132
0.7918297
0.789699
0.7876396
0.7857408
0.7840792
0.7827031
0.7816555
0.780821
0.7799682
0.7772488
0.7938647
0.7918012
0.7898057
0.7879679
0.7863572
0.7850308
0.7840063
0.7832933
0.7827134
0.7819754
0.7794907
0.7958824
0.793892
0.7919708
0.7902041
0.7886585
0.7873811
0.7864067
0.785717
0.7852838
0.7848697
0.7841314
0.7811524
0.7978833
0.7959711
0.7941333
0.7924476
0.7909744
0.7897611
0.7888333
0.7882042
0.7878201
0.7876055
0.7872494
0.7860396
0.7832622
0.7998549
0.798024
0.7962748
0.7946748
0.7932792
0.7921315
0.7912662
0.7906956
0.7904182
0.7903437
0.7903009
0.7895641
0.7885678
0.7860314
0.8017744
0.8000239
0.7983617
0.7968448
0.7955226
0.7944387
0.7936305
0.793135
0.792976
0.7931678
0.793544
0.7932095
0.7927436
0.7919876
0.789714
0.8036114
0.8019325
0.8003449
0.7988973
0.7976351
0.7966009
0.7958372
0.795394
0.7953564
0.7958967
0.7975068
0.7975909
0.7974473
0.7971151
0.7965078
0.794697
0.8052214
0.8041659
0.8033649
0.8027888
0.8023467
0.8020506
0.7997106
0.8102411
0.8091377
0.8082518
0.8075938
0.8072114
0.8072088
0.8063536
0.8044745
0.8139309
0.812875
0.8119996
0.8113437
0.8109427
0.8109917
0.8104366
0.8098144
0.8083027
0.8166422
0.8156167
0.8147557
0.8140881
0.8136603
0.8136345
0.8131088
0.8126939
0.8122354
0.8109757
0.8185228
0.8175056
0.8166368
0.8159447
0.8154614
0.8153473
0.8147279
0.8142678
0.8139306
0.8135634
0.8124907
0.7877136
0.7854887
0.7833577
0.7813934
0.7796751
0.7782147
0.7769174
0.7742408
0.7898774
0.7877178
0.7856461
0.7837416
0.7820723
0.7807101
0.7796228
0.7786648
0.7760272
0.7919286
0.789823
0.7877976
0.7859342
0.7843066
0.7829661
0.7819663
0.7812133
0.7804972
0.7778674
0.7939195
0.7918688
0.789891
0.7880719
0.7864793
0.7851716
0.7841707
0.7834957
0.7829792
0.7823354
0.7799074
0.7958824
0.793892
0.7919708
0.7902041
0.7886585
0.7873811
0.7864067
0.785717
0.7852838
0.7848697
0.7841314
0.7811524
0.7978324
0.7959086
0.7940547
0.7923522
0.7908631
0.7896335
0.7886857
0.7880256
0.7875896
0.7872943
0.7868381
0.7855468
0.7827278
0.7997696
0.797918
0.7961408
0.7945124
0.7930902
0.7919161
0.7910173
0.7903919
0.790015
0.789772
0.7895044
0.78859
0.7874222
0.7847797
0.8016815
0.7999056
0.7982108
0.7966621
0.7953113
0.7941995
0.7933551
0.7927939
0.7924965
0.7924037
0.7923076
0.7916604
0.7909199
0.7899254
0.7874722
0.8035456
0.8018451
0.8002319
0.7987607
0.7974786
0.7964259
0.7956378
0.7951438
0.7949715
0.7951138
0.7954353
0.7950477
0.7946278
0.7940813
0.7932639
0.7911939
0.805332
0.8036989
0.8021558
0.8007496
0.7995235
0.7985176
0.7977711
0.7973309
0.7972719
0.797762
0.7992462
0.7992706
0.799042
0.7987132
0.7982692
0.7977643
0.7949897
0.8066729
0.8055875
0.8047421
0.8040771
0.803606
0.8034095
0.8022884
0.7999792
0.8115399
0.8104153
0.8094785
0.8087502
0.8082475
0.8081563
0.8074172
0.806582
0.8047298
0.8151431
0.8140648
0.8131503
0.8124233
0.8119252
0.8118135
0.8111821
0.8106421
0.8100392
0.8085518
0.8178059
0.8167632
0.8158677
0.8151464
0.81463
0.8144779
0.8138122
0.8132989
0.8128989
0.8124593
0.8112743
0.8196676
0.8186375
0.8177436
0.8170076
0.8164592
0.8162373
0.8155151
0.8149064
0.8144587
0.8141364
0.813835
0.8127936
0.7899622
0.787832
0.785796
0.7839253
0.7822866
0.7809549
0.7799151
0.7790484
0.7764523
0.7920398
0.789966
0.7879819
0.7861598
0.7845705
0.7832693
0.7823232
0.7816733
0.7811606
0.778774
0.7940145
0.7919876
0.790042
0.7882561
0.7866951
0.7854196
0.7844606
0.7838561
0.7834696
0.7830396
0.7807969
0.7959351
0.7939569
0.7920526
0.7903035
0.7887749
0.7875148
0.7865619
0.7859059
0.7855298
0.7852039
0.7845728
0.7816346
0.7978324
0.7959086
0.7940547
0.7923522
0.7908631
0.7896335
0.7886857
0.7880256
0.7875896
0.7872943
0.7868381
0.7855468
0.7827278
0.7997205
0.7978576
0.7960651
0.7944207
0.7929834
0.7917939
0.7908762
0.7902218
0.7897966
0.7894795
0.7891203
0.7881302
0.7868872
0.7842093
0.801599
0.7998031
0.7980816
0.7965056
0.7951295
0.7939926
0.7931164
0.7925033
0.7921121
0.7918614
0.7915568
0.7907493
0.7898506
0.7887109
0.7861805
0.8034556
0.8017306
0.8000861
0.7985844
0.7972749
0.7961956
0.795373
0.7948163
0.7945125
0.7943852
0.7942624
0.7935861
0.7929201
0.7921574
0.7911515
0.7889561
0.8052682
0.8036141
0.8020464
0.8006176
0.7993723
0.7983487
0.7975788
0.7970901
0.7969023
0.7970131
0.7972722
0.7968588
0.7963818
0.7958716
0.7952447
0.7945361
0.7914942
0.8070074
0.805417
0.8039154
0.8025476
0.801355
0.8003753
0.7996453
0.7992082
0.7991343
0.7995771
0.8009625
0.8009252
0.8006444
0.8002327
0.7997865
0.7994139
0.7980194
0.7952805
0.8081194
0.8070224
0.8061357
0.8054162
0.8048454
0.8045947
0.8036271
0.8025267
0.8002483
0.8128454
0.8117067
0.8107407
0.8099528
0.8093694
0.8091366
0.8083506
0.807627
0.8068118
0.8049866
0.8163622
0.8152718
0.8143285
0.8135551
0.8129769
0.8127505
0.8119929
0.811374
0.8108493
0.8102657
0.8088557
0.8189758
0.8179225
0.8170044
0.8162422
0.8156644
0.8154087
0.8146463
0.8139913
0.8134905
0.8131056
0.8127324
0.8115797
0.8208158
0.8197783
0.8188667
0.8180999
0.8175009
0.8172009
0.8163972
0.8156844
0.8150864
0.8146511
0.8143875
0.8141127
0.8130239
0.792121
0.7900752
0.7881247
0.7863343
0.7847728
0.7834991
0.7825907
0.7820245
0.781721
0.7797862
0.7941213
0.7921246
0.7902181
0.7884711
0.7869457
0.7857057
0.7847944
0.7842777
0.7840804
0.7840328
0.7823327
0.7960266
0.7940711
0.7921973
0.7904796
0.7889807
0.7877504
0.7868356
0.7862428
0.7859832
0.7858566
0.7854893
0.7826841
0.7978833
0.7959711
0.7941333
0.7924476
0.7909744
0.7897611
0.7888333
0.7882042
0.7878201
0.7876055
0.7872494
0.7860396
0.7832622
0.7997205
0.7978576
0.7960651
0.7944207
0.7929834
0.7917939
0.7908762
0.7902218
0.7897966
0.7894795
0.7891203
0.7881302
0.7868872
0.7842093
0.8015514
0.7997448
0.7980085
0.7964173
0.7950267
0.7938752
0.7929811
0.7923405
0.7919039
0.7915839
0.7911949
0.7903191
0.7893506
0.7881454
0.7855916
0.8033756
0.8016313
0.7999611
0.7984334
0.7970997
0.7959963
0.7951434
0.7945374
0.7941445
0.7938681
0.79355
0.7927267
0.791919
0.7910221
0.7898993
0.7876634
0.8051808
0.8035031
0.8019052
0.800447
0.7991756
0.7981265
0.7973236
0.796775
0.7964615
0.7963159
0.7961541
0.7954724
0.7947702
0.7940689
0.7932709
0.7924147
0.7892577
0.8069454
0.8053346
0.8038092
0.8024197
0.8012087
0.8002121
0.7994597
0.7989759
0.7987786
0.7988583
0.799075
0.7986271
0.7981216
0.797551
0.7969519
0.7963987
0.7947943
0.7917925
0.8086405
0.8070899
0.805627
0.8042951
0.8031337
0.8021786
0.8014642
0.8010309
0.800944
0.801349
0.8026449
0.8025666
0.8022326
0.8017713
0.8012414
0.8008494
0.7996462
0.798273
0.7955695
0.8095584
0.8084542
0.8075459
0.806777
0.8061434
0.8057747
0.804797
0.803845
0.8027654
0.8005177
0.8141493
0.8130057
0.8120186
0.8111938
0.810542
0.8102114
0.8093194
0.808546
0.807838
0.807043
0.8052993
0.8175828
0.816486
0.8155252
0.8147165
0.8140842
0.8137627
0.8129205
0.8121736
0.8115674
0.811058
0.810542
0.8091666
0.8201472
0.8190883
0.8181548
0.8173643
0.8167388
0.8164088
0.8155692
0.8148162
0.814172
0.8136837
0.8133578
0.8130116
0.811812
0.821964
0.8209228
0.8199995
0.8192099
0.8185741
0.8182121
0.8173538
0.8165584
0.8158551
0.8152679
0.814886
0.8146441
0.8143236
0.8131801
0.7941993
0.7922293
0.7903546
0.7886374
0.7871381
0.7859226
0.7850452
0.7845985
0.784592
0.7851005
0.7852276
0.7961295
0.7942028
0.7923661
0.7906851
0.7892197
0.7880225
0.7871509
0.7866378
0.7865473
0.7867746
0.7869993
0.7845447
0.7979715
0.796081
0.7942724
0.7926164
0.7911713
0.789986
0.7890937
0.7885231
0.7882454
0.7882129
0.7881022
0.7870848
0.7844335
0.7997696
0.797918
0.7961408
0.7945124
0.7930902
0.7919161
0.7910173
0.7903919
0.790015
0.789772
0.7895044
0.78859
0.7874222
0.7847797
0.8015514
0.7997448
0.7980085
0.7964173
0.7950267
0.7938752
0.7929811
0.7923405
0.7919039
0.7915839
0.7911949
0.7903191
0.7893506
0.7881454
0.7855916
0.8033294
0.8015749
0.7998905
0.7983481
0.7970005
0.7958833
0.7950134
0.7943812
0.7939452
0.7936036
0.7932066
0.7923211
0.7914508
0.7904927
0.7893165
0.787074
0.8051031
0.8034069
0.8017842
0.800301
0.7990063
0.7979342
0.7971024
0.7965066
0.7961083
0.795821
0.795475
0.7946569
0.7938255
0.7930051
0.7920984
0.7911537
0.7879652
0.8068604
0.8052269
0.8036723
0.8022545
0.8010183
0.7999973
0.7992132
0.798672
0.7983545
0.7981892
0.7980055
0.7973055
0.7965927
0.7958494
0.7951013
0.7944123
0.7926714
0.7895579
0.8085801
0.8070099
0.805524
0.804171
0.8029919
0.8020206
0.8012846
0.8008065
0.8006009
0.8006577
0.8008346
0.8003693
0.7998287
0.7992279
0.7985658
0.7980215
0.7966328
0.7950509
0.792089
0.8102339
0.8087208
0.8072941
0.8059956
0.8048633
0.8039312
0.8032317
0.8028024
0.802705
0.8030765
0.804297
0.8041823
0.8038154
0.8033048
0.8027257
0.8022394
0.8010651
0.7998771
0.798525
0.7958566
0.8109835
0.80988
0.8089557
0.8081583
0.8074687
0.8070227
0.8059649
0.8049997
0.8040633
0.8030045
0.8008443
0.8154475
0.8143035
0.8133052
0.8124527
0.8117566
0.8113433
0.8103845
0.8095034
0.8087428
0.8080504
0.8073245
0.8056193
0.8188007
0.8177023
0.8167301
0.815898
0.8152237
0.814835
0.8139245
0.8130918
0.8123558
0.8117623
0.8113126
0.8108245
0.809403
0.8213168
0.8202559
0.8193125
0.8185014
0.8178416
0.8174525
0.8165622
0.815731
0.8149875
0.8143541
0.8139195
0.8136156
0.8132238
0.8119695
0.8231094
0.8220676
0.8211366
0.8203307
0.8196667
0.8192577
0.8183587
0.817508
0.816721
0.8160273
0.8154893
0.8151259
0.814839
0.8144665
0.8132598
0.7945639
0.7962046
0.7943033
0.7924969
0.7908442
0.7894031
0.788229
0.7873878
0.7869392
0.7870192
0.7877597
0.7896696
0.7879465
0.7980708
0.7962079
0.7944346
0.7928135
0.7914001
0.7902457
0.7893939
0.7888968
0.7887757
0.7890676
0.7895049
0.7888644
0.7865049
0.7998549
0.798024
0.7962748
0.7946748
0.7932792
0.7921315
0.7912662
0.7906956
0.7904182
0.7903437
0.7903009
0.7895641
0.7885678
0.7860314
0.801599
0.7998031
0.7980816
0.7965056
0.7951295
0.7939926
0.7931164
0.7925033
0.7921121
0.7918614
0.7915568
0.7907493
0.7898506
0.7887109
0.7861805
0.8033294
0.8015749
0.7998905
0.7983481
0.7970005
0.7958833
0.7950134
0.7943812
0.7939452
0.7936036
0.7932066
0.7923211
0.7914508
0.7904927
0.7893165
0.787074
0.8050583
0.8033522
0.8017159
0.8002186
0.7989106
0.7978252
0.796977
0.7963564
0.795917
0.7955678
0.7951476
0.794272
0.7933838
0.792509
0.7915518
0.7905666
0.7873759
0.8067849
0.8051335
0.803555
0.8021131
0.8008546
0.7998115
0.7989996
0.7984132
0.7980146
0.7977142
0.7973557
0.7965282
0.7956963
0.7948452
0.7940017
0.7932288
0.791409
0.788266
0.8084975
0.8069052
0.8053911
0.8040109
0.8028075
0.8018127
0.8010462
0.8005129
0.8001919
0.8000139
0.7998085
0.7991053
0.7983714
0.7976135
0.7968185
0.7961577
0.7946443
0.792927
0.7898566
0.8101752
0.8086429
0.8071939
0.8058752
0.8047258
0.803778
0.8030578
0.8025853
0.8023736
0.8024102
0.8025566
0.802075
0.8015169
0.8008811
0.8001877
0.7995693
0.7982385
0.7968654
0.7953058
0.7923835
0.8117901
0.8103121
0.8089194
0.8076523
0.8065473
0.8056368
0.8049513
0.8045264
0.80442
0.8047624
0.8059158
0.8057743
0.805379
0.8048393
0.8042126
0.8036697
0.802442
0.8012794
0.8001066
0.7987755
0.7962019
0.8123927
0.8112931
0.8103617
0.8095424
0.8088188
0.8083051
0.8072027
0.8061554
0.8052028
0.804282
0.8032945
0.8011785
0.8167368
0.8155963
0.8145919
0.8137222
0.8129919
0.812522
0.811508
0.8105587
0.8096885
0.8089407
0.8083089
0.8076124
0.8058627
0.8200134
0.8189162
0.8179377
0.8170891
0.8163853
0.8159433
0.8149897
0.8140876
0.8132644
0.8125394
0.8120001
0.8115729
0.8110392
0.8095634
0.822482
0.821422
0.8204726
0.819647
0.8189611
0.8185275
0.8175995
0.8167168
0.8158942
0.8151602
0.8145764
0.8141604
0.8138114
0.8133675
0.81205
0.8242502
0.8232098
0.8222746
0.8214568
0.8207714
0.8203251
0.8193986
0.8185065
0.8176634
0.816885
0.8162373
0.8157156
0.815308
0.8149709
0.8145394
0.8002906
0.7977812
0.7951504
0.7981433
0.7963047
0.7945604
0.7929661
0.7915757
0.7904429
0.7896198
0.789182
0.7892202
0.7899855
0.7919818
0.7919671
0.7900615
0.7999509
0.7981464
0.7964311
0.7948644
0.7934987
0.7923804
0.7915533
0.791052
0.7909209
0.7911491
0.7916118
0.7912199
0.7905254
0.7882223
0.8016815
0.7999056
0.7982108
0.7966621
0.7953113
0.7941995
0.7933551
0.7927939
0.7924965
0.7924037
0.7923076
0.7916604
0.7909199
0.7899254
0.7874722
0.8033756
0.8016313
0.7999611
0.7984334
0.7970997
0.7959963
0.7951434
0.7945374
0.7941445
0.7938681
0.79355
0.7927267
0.791919
0.7910221
0.7898993
0.7876634
0.8050583
0.8033522
0.8017159
0.8002186
0.7989106
0.7978252
0.796977
0.7963564
0.795917
0.7955678
0.7951476
0.794272
0.7933838
0.792509
0.7915518
0.7905666
0.7873759
0.8067414
0.8050804
0.8034888
0.8020333
0.800762
0.7997061
0.7988787
0.7982684
0.7978305
0.7974712
0.7970425
0.7961613
0.7952771
0.7943769
0.7934891
0.7926768
0.7908211
0.7876769
0.808424
0.8068144
0.8052772
0.8038737
0.8026488
0.8016328
0.8008397
0.8002629
0.7998642
0.799557
0.799185
0.7983616
0.7975169
0.7966606
0.7957802
0.7950468
0.7934588
0.7916633
0.7885657
0.8100947
0.808541
0.8070647
0.8057196
0.8045469
0.8035765
0.8028269
0.8023012
0.8019785
0.8017896
0.8015698
0.8008624
0.8001232
0.7993424
0.7985299
0.797809
0.7963723
0.794875
0.7931812
0.7901539
0.8117328
0.8102363
0.8088219
0.8075352
0.8064137
0.8054881
0.8047826
0.804316
0.8040993
0.804119
0.8042389
0.8037483
0.8031747
0.8025219
0.801794
0.8011364
0.7997729
0.7984541
0.7970965
0.7955591
0.7927377
0.8133115
0.8118664
0.8105055
0.8092679
0.8081885
0.8072982
0.8066262
0.8062057
0.8060917
0.8064084
0.8075023
0.8073385
0.806924
0.8063601
0.8057061
0.8051101
0.8038613
0.8026433
0.8014924
0.8003346
0.7990769
0.7965553
0.8137842
0.8126913
0.8117568
0.8109252
0.8101751
0.8096174
0.8084762
0.807383
0.8063462
0.8054062
0.8045471
0.803591
0.8014328
0.8180154
0.8168806
0.8158745
0.8149934
0.8142403
0.8137253
0.8126794
0.8116738
0.810734
0.8098747
0.8091817
0.8085732
0.8078312
0.8060279
0.8212185
0.8201251
0.8191438
0.8182841
0.8175583
0.8170768
0.8160915
0.8151455
0.814252
0.8134384
0.8127633
0.8122429
0.8117704
0.8111847
0.8096454
0.8236413
0.822584
0.8216317
0.8207959
0.8200905
0.8196217
0.8186688
0.8177478
0.8168728
0.8160587
0.815371
0.8148034
0.8143432
0.8139439
0.8134409
0.8253851
0.8243477
0.8234105
0.8225845
0.8218828
0.8214068
0.8204608
0.8195406
0.8186555
0.8178202
0.8170852
0.8164518
0.8158871
0.8154312
0.8150381
0.8042513
0.8028373
0.8005745
0.7994959
0.7982858
0.7960246
0.8000209
0.7982399
0.7965522
0.7950111
0.7936673
0.7925694
0.7917692
0.7913242
0.7913422
0.7920147
0.7939278
0.7941013
0.7937645
0.7917927
0.8017744
0.8000239
0.7983617
0.7968448
0.7955226
0.7944387
0.7936305
0.793135
0.792976
0.7931678
0.793544
0.7932095
0.7927436
0.7919876
0.789714
0.8034556
0.8017306
0.8000861
0.7985844
0.7972749
0.7961956
0.795373
0.7948163
0.7945125
0.7943852
0.7942624
0.7935861
0.7929201
0.7921574
0.7911515
0.7889561
0.8051031
0.8034069
0.8017842
0.800301
0.7990063
0.7979342
0.7971024
0.7965066
0.7961083
0.795821
0.795475
0.7946569
0.7938255
0.7930051
0.7920984
0.7911537
0.7879652
0.8067414
0.8050804
0.8034888
0.8020333
0.800762
0.7997061
0.7988787
0.7982684
0.7978305
0.7974712
0.7970425
0.7961613
0.7952771
0.7943769
0.7934891
0.7926768
0.7908211
0.7876769
0.8083817
0.8067628
0.8052129
0.8037963
0.8025591
0.8015308
0.8007227
0.800123
0.7996867
0.7993232
0.7988844
0.7980106
0.7971173
0.7962162
0.7952962
0.7945286
0.7929058
0.7910748
0.787977
0.8100232
0.8084527
0.806954
0.8055864
0.804393
0.8034022
0.8026269
0.8020594
0.8016619
0.8013491
0.8009701
0.8001489
0.7993059
0.798434
0.7975446
0.7967598
0.7952594
0.7936878
0.7919166
0.7888643
0.8116544
0.8101371
0.8086962
0.807384
0.8062399
0.8052925
0.8045587
0.8040408
0.803717
0.8035197
0.8032878
0.8025823
0.8018378
0.8010504
0.8002137
0.799466
0.7980103
0.7965858
0.7951046
0.7934342
0.790512
0.8132555
0.8117924
0.8104106
0.8091539
0.8080586
0.8071537
0.8064623
0.8060015
0.8057811
0.8057861
0.8058835
0.8053865
0.8048048
0.8041376
0.8033935
0.8026958
0.8013289
0.7999751
0.7986682
0.797326
0.7958637
0.7931001
0.8147997
0.8133858
0.8120549
0.8108449
0.8097896
0.8089185
0.8082591
0.8078431
0.8077227
0.8080165
0.8090568
0.808875
0.8084456
0.8078664
0.8071904
0.8065629
0.8052923
0.8040516
0.8028432
0.8017041
0.8006089
0.7993851
0.7968241
0.8151571
0.8140727
0.8131386
0.8122993
0.8115329
0.81094
0.8097809
0.8086477
0.8075636
0.8065374
0.8056527
0.8048181
0.8038164
0.8016054
0.8192818
0.8181546
0.8171494
0.8162617
0.8154922
0.8149448
0.8138761
0.8128377
0.8118406
0.8109104
0.8101015
0.8094279
0.8087739
0.8079796
0.8061123
0.8224149
0.8213269
0.8203454
0.8194785
0.8187368
0.8182242
0.8172192
0.8162409
0.8153026
0.8144177
0.8136506
0.812992
0.8124273
0.8119043
0.8112589
0.8247933
0.8237403
0.8227873
0.8219447
0.8212246
0.8207279
0.8197578
0.8188113
0.8178973
0.81703
0.8162594
0.8155862
0.8149756
0.8144669
0.8140114
0.8265129
0.8254798
0.8245425
0.8237109
0.822997
0.822497
0.8215377
0.8205976
0.8196839
0.8188058
0.8180115
0.8172895
0.8166145
0.8160032
0.815494
0.8068194
0.8063638
0.8044731
0.8041873
0.8030885
0.8011033
0.8009518
0.7999598
0.7990427
0.7970414
0.8018422
0.8001142
0.7984786
0.7969862
0.7956849
0.7946203
0.7938378
0.7933955
0.7933782
0.7939888
0.7957286
0.7959055
0.7957554
0.7952461
0.7932546
0.8035456
0.8018451
0.8002319
0.7987607
0.7974786
0.7964259
0.7956378
0.7951438
0.7949715
0.7951138
0.7954353
0.7950477
0.7946278
0.7940813
0.7932639
0.7911939
0.8051808
0.8035031
0.8019052
0.800447
0.7991756
0.7981265
0.7973236
0.796775
0.7964615
0.7963159
0.7961541
0.7954724
0.7947702
0.7940689
0.7932709
0.7924147
0.7892577
0.8067849
0.8051335
0.803555
0.8021131
0.8008546
0.7998115
0.7989996
0.7984132
0.7980146
0.7977142
0.7973557
0.7965282
0.7956963
0.7948452
0.7940017
0.7932288
0.791409
0.788266
0.8083817
0.8067628
0.8052129
0.8037963
0.8025591
0.8015308
0.8007227
0.800123
0.7996867
0.7993232
0.7988844
0.7980106
0.7971173
0.7962162
0.7952962
0.7945286
0.7929058
0.7910748
0.787977
0.8099819
0.8084025
0.8068915
0.8055113
0.8043059
0.8033033
0.8025136
0.8019241
0.8014904
0.8011237
0.800681
0.7998121
0.7989236
0.7980104
0.7970852
0.7962704
0.7947402
0.793134
0.7913276
0.7882763
0.8115847
0.8100511
0.8085885
0.8072545
0.8060904
0.8051233
0.8043647
0.8038065
0.8034107
0.8030942
0.8027098
0.8018961
0.8010536
0.8001815
0.7992745
0.7984702
0.7969591
0.7954712
0.793916
0.792169
0.7892245
0.813179
0.8116957
0.8102881
0.8090067
0.8078895
0.8069636
0.8062449
0.8057345
0.8054106
0.8052063
0.8049652
0.8042628
0.8035193
0.802726
0.8018822
0.8011035
0.7996562
0.7982104
0.7967982
0.7953329
0.7937388
0.7908786
0.8147451
0.8133137
0.8119623
0.8107339
0.8096631
0.8087779
0.8080998
0.8076448
0.8074213
0.8074137
0.8074915
0.8069908
0.8064038
0.8057298
0.8049724
0.8042543
0.8028788
0.8015201
0.800176
0.7988808
0.7976019
0.7961753
0.7933758
0.8162571
0.8148724
0.8135698
0.8123858
0.8113531
0.8105
0.8098527
0.8094412
0.8093152
0.8095884
0.8105804
0.8103836
0.8099431
0.8093528
0.8086639
0.8080109
0.8067368
0.8054732
0.8042407
0.803042
0.8019586
0.8008892
0.7996193
0.7970065
0.816511
0.8154363
0.8145049
0.8136618
0.8128842
0.8122675
0.8110966
0.8099446
0.8088195
0.8077445
0.8067691
0.8059047
0.8050239
0.8039691
0.8016936
0.8205352
0.8194166
0.8184147
0.8175236
0.8167428
0.8161704
0.8150896
0.8140278
0.8129971
0.8120085
0.8111251
0.8103331
0.8096148
0.8089099
0.8080552
0.8236016
0.8225201
0.8215403
0.8206694
0.819916
0.8193792
0.8183614
0.8173628
0.8163915
0.8154609
0.8146197
0.8138673
0.8131655
0.812552
0.8119725
0.8259373
0.8248895
0.8239376
0.8230907
0.8223598
0.8218407
0.8208592
0.819895
0.818955
0.818048
0.8172219
0.8164643
0.8157494
0.8150921
0.8145299
0.8276332
0.8266051
0.825669
0.8248341
0.8241107
0.8235915
0.8226236
0.8216698
0.8207356
0.8198284
0.8189893
0.8182068
0.8174443
0.8167244
0.8160623
0.8080905
0.808661
0.8070249
0.807463
0.806564
0.8049095
0.8053403
0.8044181
0.803558
0.8018361
0.8023495
0.801384
0.8006549
0.7999299
0.7981316
0.8036114
0.8019325
0.8003449
0.7988973
0.7976351
0.7966009
0.7958372
0.795394
0.7953564
0.7958967
0.7975068
0.7975909
0.7974473
0.7971151
0.7965078
0.794697
0.8052682
0.8036141
0.8020464
0.8006176
0.7993723
0.7983487
0.7975788
0.7970901
0.7969023
0.7970131
0.7972722
0.7968588
0.7963818
0.7958716
0.7952447
0.7945361
0.7914942
0.8068604
0.8052269
0.8036723
0.8022545
0.8010183
0.7999973
0.7992132
0.798672
0.7983545
0.7981892
0.7980055
0.7973055
0.7965927
0.7958494
0.7951013
0.7944123
0.7926714
0.7895579
0.808424
0.8068144
0.8052772
0.8038737
0.8026488
0.8016328
0.8008397
0.8002629
0.7998642
0.799557
0.799185
0.7983616
0.7975169
0.7966606
0.7957802
0.7950468
0.7934588
0.7916633
0.7885657
0.8099819
0.8084025
0.8068915
0.8055113
0.8043059
0.8033033
0.8025136
0.8019241
0.8014904
0.8011237
0.800681
0.7998121
0.7989236
0.7980104
0.7970852
0.7962704
0.7947402
0.793134
0.7913276
0.7882763
0.8115445
0.8100022
0.8085277
0.8071814
0.8060058
0.8050273
0.8042549
0.8036754
0.8032448
0.8028765
0.8024311
0.8015722
0.8006869
0.7997763
0.7988366
0.7980057
0.7964686
0.7949511
0.7933614
0.7915797
0.7886374
0.8131109
0.8116118
0.8101832
0.8088807