/*--------------------------------*- C++ -*----------------------------------*\
| =========                 |                                                 |
| \\      /  F ield         | OpenFOAM: The Open Source CFD Toolbox           |
|  \\    /   O peration     | Version:  2306                                  |
|   \\  /    A nd           | Website:  www.openfoam.com                      |
|    \\/     M anipulation  |                                                 |
\*---------------------------------------------------------------------------*/
FoamFile
{
    version     2.0;
    format      ascii;
    arch        "LSB;label=32;scalar=64";
    class       volScalarField;
    location    "0.6/air";
    object      nernst;
}
// * * * * * * * * * * * * * * * * * * * * * * * * * * * * * * * * * * * * * //

dimensions      [1 2 -3 0 0 -1 0];

internalField   nonuniform List<scalar> 
16000
(
-0.7404355
-0.7319456
-0.7505437
-0.7317982
-0.7271995
-0.7486462
-0.7111473
-0.7533463
-0.7486366
-0.7269342
-0.7244859
-0.7469987
-0.6982386
-0.7526547
-0.7430589
-0.6980383
-0.7556551
-0.7527201
-0.7470034
-0.7240897
-0.7232228
-0.7457848
-0.6904908
-0.7520314
-0.7381663
-0.6787077
-0.7553474
-0.7507199
-0.7381383
-0.6899566
-0.7577207
-0.755438
-0.7521836
-0.7458167
-0.7226584
-0.7232228
-0.7451413
-0.6868144
-0.7515538
-0.7345388
-0.6666051
-0.755076
-0.7488954
-0.7302404
-0.6661468
-0.7575493
-0.7546002
-0.7489793
-0.7344438
-0.6857586
-0.7596174
-0.7576432
-0.7552767
-0.7518217
-0.7452155
-0.7224384
-0.7548383
-0.7244859
-0.7451413
-0.6868144
-0.7512938
-0.7326101
-0.6607292
-0.7548701
-0.7474873
-0.7243162
-0.6508046
-0.7574033
-0.7538465
-0.7460126
-0.7241873
-0.6594526
-0.7594986
-0.7572139
-0.7539681
-0.7476779
-0.7324085
-0.6850183
-0.7613792
-0.7595882
-0.7576095
-0.755214
-0.7517144
-0.7452894
-0.7234233
-0.75461
-0.7570793
-0.7560473
-0.7271995
-0.7457848
-0.6904908
-0.7512938
-0.7326101
-0.6607292
-0.7547585
-0.7467179
-0.7211463
-0.6432328
-0.757295
-0.7532693
-0.743697
-0.7164203
-0.642232
-0.7594
-0.7568389
-0.7527699
-0.7437943
-0.7207759
-0.6582194
-0.7612825
-0.7593115
-0.7569669
-0.7535579
-0.747053
-0.7322977
-0.6877138
-0.7630274
-0.7613658
-0.7595972
-0.7576467
-0.7552879
-0.7519185
-0.7460724
-0.7257859
-0.7541425
-0.7569129
-0.7557951
-0.7591411
-0.758183
-0.757293
-0.7319456
-0.7469987
-0.6982386
-0.7515538
-0.7345388
-0.6666051
-0.7547585
-0.7467179
-0.7211463
-0.6432328
-0.7572371
-0.7529549
-0.7424241
-0.7122394
-0.6336531
-0.7593284
-0.7565591
-0.7518401
-0.7407348
-0.7119137
-0.6406129
-0.7612032
-0.7590768
-0.7563945
-0.752019
-0.7426479
-0.7204702
-0.6624411
-0.7629419
-0.7611497
-0.7592001
-0.7568651
-0.7534728
-0.747269
-0.7341922
-0.6941962
-0.7645764
-0.7630189
-0.7613877
-0.7596654
-0.757776
-0.7555266
-0.7524589
-0.7475504
-0.7300313
-0.7533837
-0.7565825
-0.7552626
-0.7589949
-0.7580173
-0.7570216
-0.7610072
-0.7601093
-0.7593134
-0.7585793
-0.7404355
-0.7486462
-0.7111473
-0.7520314
-0.7381663
-0.6787077
-0.7548701
-0.7474873
-0.7243162
-0.6508046
-0.7572371
-0.7529549
-0.7424241
-0.7122394
-0.6336531
-0.7592906
-0.7564091
-0.7513296
-0.7390438
-0.7071252
-0.6318218
-0.7611462
-0.7589063
-0.7559614
-0.7508109
-0.7391552
-0.7114433
-0.6459709
-0.762872
-0.7609696
-0.7588569
-0.7561574
-0.7517657
-0.7428509
-0.7233927
-0.6724688
-0.7644978
-0.7628309
-0.7610854
-0.7592025
-0.7569594
-0.7537891
-0.7483819
-0.737991
-0.7054208
-0.7660373
-0.7645692
-0.7630438
-0.7614627
-0.7598073
-0.758014
-0.7559482
-0.7533387
-0.7497002
-0.7375905
-0.7520024
-0.7560934
-0.7543435
-0.7587069
-0.7576901
-0.7564415
-0.7608722
-0.7599701
-0.7591479
-0.758295
-0.7627311
-0.7618519
-0.7610999
-0.760471
-0.7599075
-0.7505437
-0.7317982
-0.7526547
-0.7430589
-0.6980383
-0.755076
-0.7488954
-0.7302404
-0.6661468
-0.757295
-0.7532693
-0.743697
-0.7164203
-0.642232
-0.7592906
-0.7564091
-0.7513296
-0.7390438
-0.7071252
-0.6318218
-0.7611164
-0.7588166
-0.7557274
-0.7501428
-0.7372172
-0.7065605
-0.6377848
-0.7628218
-0.7608412
-0.7586047
-0.7556147
-0.7504124
-0.7393336
-0.7151653
-0.6585742
-0.7644334
-0.7626753
-0.7608295
-0.758796
-0.7562077
-0.7521333
-0.7444803
-0.7293134
-0.6892211
-0.765964
-0.7643971
-0.7627836
-0.7611199
-0.7593495
-0.757289
-0.7545435
-0.7503461
-0.7434416
-0.7236587
-0.767419
-0.7660305
-0.7645939
-0.7631181
-0.7616027
-0.7600348
-0.7583749
-0.7565701
-0.7545854
-0.7526321
-0.7463771
-0.7554831
-0.7526077
-0.7582908
-0.7572164
-0.7554315
-0.7606066
-0.7597016
-0.7588224
-0.7576869
-0.7626036
-0.7617252
-0.7609663
-0.7603055
-0.7596168
-0.7643498
-0.7634709
-0.7627168
-0.7621125
-0.7616549
-0.7607233
-0.7533463
-0.7486366
-0.7269342
-0.7553474
-0.7507199
-0.7381383
-0.6899566
-0.7574033
-0.7538465
-0.7460126
-0.7241873
-0.6594526
-0.7593284
-0.7565591
-0.7518401
-0.7407348
-0.7119137
-0.6406129
-0.7611164
-0.7588166
-0.7557274
-0.7501428
-0.7372172
-0.7065605
-0.6377848
-0.7627956
-0.7607745
-0.7584711
-0.755319
-0.7496595
-0.7373777
-0.7107207
-0.6517417
-0.7643872
-0.7625653
-0.7606456
-0.7584936
-0.7556233
-0.7508077
-0.7413615
-0.7227206
-0.6791212
-0.7659035
-0.7642548
-0.7625652
-0.7608258
-0.75894
-0.7566045
-0.7531674
-0.7474099
-0.7376667
-0.7147522
-0.76735
-0.7658696
-0.7643562
-0.7628262
-0.7612761
-0.7596665
-0.7578817
-0.755741
-0.7530585
-0.7501909
-0.7407289
-0.7687287
-0.7674122
-0.7660541
-0.7646653
-0.7632524
-0.7618175
-0.7603603
-0.758881
-0.757451
-0.7564268
-0.7554077
-0.7482544
-0.7578397
-0.7566617
-0.7536286
-0.7602251
-0.7593389
-0.7583552
-0.7566445
-0.7623528
-0.7614826
-0.7607123
-0.7599795
-0.7589987
-0.7642282
-0.7633518
-0.762597
-0.7619827
-0.761489
-0.7604327
-0.7658771
-0.7650022
-0.7642297
-0.7636014
-0.7631455
-0.7623788
-0.7608279
-0.7556551
-0.7527201
-0.7470034
-0.7240897
-0.7575493
-0.7546002
-0.7489793
-0.7344438
-0.6857586
-0.7594
-0.7568389
-0.7527699
-0.7437943
-0.7207759
-0.6582194
-0.7611462
-0.7589063
-0.7559614
-0.7508109
-0.7391552
-0.7114433
-0.6459709
-0.7627956
-0.7607745
-0.7584711
-0.755319
-0.7496595
-0.7373777
-0.7107207
-0.6517417
-0.764363
-0.7625085
-0.7605497
-0.758332
-0.7553022
-0.7500661
-0.7396241
-0.7191665
-0.6742198
-0.76586
-0.7641545
-0.76241
-0.7606123
-0.7586306
-0.7560619
-0.7520458
-0.7450342
-0.7332567
-0.7092255
-0.7672927
-0.7657365
-0.7641573
-0.7625785
-0.7609911
-0.7593242
-0.7573793
-0.7548345
-0.7513508
-0.7475963
-0.7363438
-0.7686634
-0.7672605
-0.7658318
-0.7643991
-0.7629782
-0.7615736
-0.7601764
-0.7587619
-0.7573887
-0.7564572
-0.7545822
-0.7436652
-0.7699724
-0.7687221
-0.7674349
-0.7661224
-0.7647931
-0.7634553
-0.7621182
-0.7608059
-0.759598
-0.7588484
-0.7586353
-0.7563343
-0.7501651
-0.7598265
-0.7590263
-0.7578085
-0.7549124
-0.7619921
-0.7611615
-0.7603807
-0.7595102
-0.7579649
-0.7639886
-0.7631237
-0.7623719
-0.761737
-0.7611608
-0.7598176
-0.7657603
-0.7648885
-0.7641175
-0.7634864
-0.7630177
-0.7622126
-0.7605374
-0.7673246
-0.7664567
-0.7656726
-0.7650069
-0.764504
-0.7637804
-0.7624721
-0.7609329
-0.7577207
-0.755438
-0.7521836
-0.7458167
-0.7226584
-0.7594986
-0.7572139
-0.7539681
-0.7476779
-0.7324085
-0.6850183
-0.7612032
-0.7590768
-0.7563945
-0.752019
-0.7426479
-0.7204702
-0.6624411
-0.7628218
-0.7608412
-0.7586047
-0.7556147
-0.7504124
-0.7393336
-0.7151653
-0.6585742
-0.764363
-0.7625085
-0.7605497
-0.758332
-0.7553022
-0.7500661
-0.7396241
-0.7191665
-0.6742198
-0.7658373
-0.7641028
-0.7623297
-0.7605003
-0.7584637
-0.7557603
-0.7514127
-0.743704
-0.7308763
-0.7065454
-0.7672515
-0.7656426
-0.7640165
-0.762401
-0.7607812
-0.7590578
-0.7569613
-0.754054
-0.7498989
-0.7455249
-0.7334111
-0.7686091
-0.7671347
-0.7656458
-0.7641742
-0.762742
-0.761351
-0.7599734
-0.7585373
-0.757048
-0.7559545
-0.753525
-0.7399516
-0.7699105
-0.7685784
-0.7672248
-0.765873
-0.7645434
-0.7632564
-0.7620324
-0.7609083
-0.7599749
-0.7595574
-0.758881
-0.7555998
-0.7464472
-0.7711552
-0.769966
-0.7687438
-0.7675001
-0.7662442
-0.7649853
-0.763737
-0.7625257
-0.7614354
-0.7607742
-0.7607461
-0.7594034
-0.7573391
-0.7521126
-0.7616132
-0.7609153
-0.7601049
-0.7589485
-0.7563629
-0.7636431
-0.762822
-0.7620874
-0.7614161
-0.7606828
-0.758803
-0.7655299
-0.7646705
-0.763907
-0.7632719
-0.7627743
-0.7618829
-0.7599229
-0.7672119
-0.7663474
-0.7655657
-0.7648997
-0.7643917
-0.7636527
-0.7623059
-0.7606426
-0.7686988
-0.7678435
-0.7670537
-0.7663606
-0.7658008
-0.7650637
-0.763863
-0.7625657
-0.7610385
-0.7596174
-0.7576432
-0.7552767
-0.7518217
-0.7452155
-0.7224384
-0.7612825
-0.7593115
-0.7569669
-0.7535579
-0.747053
-0.7322977
-0.6877138
-0.762872
-0.7609696
-0.7588569
-0.7561574
-0.7517657
-0.7428509
-0.7233927
-0.6724688
-0.7643872
-0.7625653
-0.7606456
-0.7584936
-0.7556233
-0.7508077
-0.7413615
-0.7227206
-0.6791212
-0.7658373
-0.7641028
-0.7623297
-0.7605003
-0.7584637
-0.7557603
-0.7514127
-0.743704
-0.7308763
-0.7065454
-0.76723
-0.7655942
-0.7639438
-0.7623087
-0.76067
-0.7589116
-0.7567232
-0.7536026
-0.7490709
-0.7443887
-0.731947
-0.7685698
-0.7670459
-0.7655141
-0.7640137
-0.7625705
-0.7611814
-0.7597983
-0.7583055
-0.7566647
-0.7554025
-0.7526242
-0.7374193
-0.7698588
-0.7684591
-0.7670489
-0.7656623
-0.7643293
-0.7630771
-0.7619268
-0.7609048
-0.7600692
-0.7597082
-0.7588079
-0.7547154
-0.7433506
-0.7710965
-0.7698298
-0.7685446
-0.767264
-0.7660094
-0.7648041
-0.7636788
-0.7626813
-0.7619162
-0.7616276
-0.7612593
-0.7595445
-0.7566566
-0.7491187
-0.7722814
-0.7711493
-0.7699871
-0.7688065
-0.7676166
-0.7664271
-0.7652514
-0.764117
-0.7630993
-0.7624772
-0.7624579
-0.7614194
-0.7602152
-0.7583898
-0.7540851
-0.7632734
-0.7625905
-0.7618859
-0.7611248
-0.7600923
-0.7572824
-0.7651966
-0.7643803
-0.763642
-0.763002
-0.7624481
-0.7613987
-0.7589108
-0.7669895
-0.7661372
-0.7653645
-0.7647002
-0.764181
-0.7634082
-0.7619761
-0.7600288
-0.7685898
-0.7677379
-0.7669507
-0.7662585
-0.7656965
-0.7649518
-0.7637353
-0.7623995
-0.7607484
-0.7700061
-0.769167
-0.7683793
-0.7676676
-0.7670645
-0.7662986
-0.7651374
-0.7639457
-0.7626596
-0.7611444
-0.7613792
-0.7595882
-0.7576095
-0.755214
-0.7517144
-0.7452894
-0.7234233
-0.7629419
-0.7611497
-0.7592001
-0.7568651
-0.7534728
-0.747269
-0.7341922
-0.6941962
-0.7644334
-0.7626753
-0.7608295
-0.758796
-0.7562077
-0.7521333
-0.7444803
-0.7293134
-0.6892211
-0.76586
-0.7641545
-0.76241
-0.7606123
-0.7586306
-0.7560619
-0.7520458
-0.7450342
-0.7332567
-0.7092255
-0.76723
-0.7655942
-0.7639438
-0.7623087
-0.76067
-0.7589116
-0.7567232
-0.7536026
-0.7490709
-0.7443887
-0.731947
-0.7685493
-0.7670002
-0.7654463
-0.7639307
-0.7624807
-0.7610897
-0.7596971
-0.7581619
-0.7564233
-0.7550641
-0.7521171
-0.7361446
-0.7698213
-0.7683748
-0.7669243
-0.7655123
-0.7641748
-0.7629424
-0.7618323
-0.7608552
-0.7600397
-0.7596718
-0.7586433
-0.7539667
-0.7412036
-0.7710471
-0.7697164
-0.7683776
-0.7670644
-0.7658082
-0.7646417
-0.7636028
-0.7627387
-0.7621338
-0.7619604
-0.7614742
-0.7594776
-0.7559019
-0.7465822
-0.7722256
-0.7710199
-0.769798
-0.7685821
-0.7673933
-0.7662549
-0.7651978
-0.7642725
-0.7635737
-0.7633104
-0.7630015
-0.7617805
-0.7602458
-0.7577386
-0.7517059
-0.7733547
-0.772276
-0.7711699
-0.7700476
-0.7689183
-0.7677914
-0.76668
-0.7656093
-0.7646494
-0.7640467
-0.7639976
-0.7630631
-0.7621197
-0.7610454
-0.7594634
-0.7552379
-0.7648322
-0.7641482
-0.7634567
-0.7627891
-0.7621128
-0.7607903
-0.7573997
-0.7666666
-0.7658551
-0.7651093
-0.7644508
-0.7639085
-0.763074
-0.7614914
-0.7590194
-0.7683744
-0.7675344
-0.7667565
-0.7660681
-0.7655015
-0.7647404
-0.7634907
-0.7620695
-0.7601354
-0.7699004
-0.7690646
-0.7682797
-0.7675692
-0.7669652
-0.7661947
-0.7650254
-0.7638181
-0.7624934
-0.7608546
-0.7712514
-0.7704317
-0.7696515
-0.7689314
-0.7682967
-0.7675111
-0.7663649
-0.7652112
-0.7640289
-0.7627538
-0.7612545
-0.7630274
-0.7613658
-0.7595972
-0.7576467
-0.7552879
-0.7519185
-0.7460724
-0.7257859
-0.7644978
-0.7628309
-0.7610854
-0.7592025
-0.7569594
-0.7537891
-0.7483819
-0.737991
-0.7054208
-0.7659035
-0.7642548
-0.7625652
-0.7608258
-0.75894
-0.7566045
-0.7531674
-0.7474099
-0.7376667
-0.7147522
-0.7672515
-0.7656426
-0.7640165
-0.762401
-0.7607812
-0.7590578
-0.7569613
-0.754054
-0.7498989
-0.7455249
-0.7334111
-0.7685493
-0.7670002
-0.7654463
-0.7639307
-0.7624807
-0.7610897
-0.7596971
-0.7581619
-0.7564233
-0.7550641
-0.7521171
-0.7361446
-0.7698017
-0.7683313
-0.7668601
-0.7654347
-0.7640943
-0.7628704
-0.7617769
-0.7608149
-0.7599972
-0.7596171
-0.7585274
-0.7535453
-0.740114
-0.7710113
-0.7696361
-0.7682592
-0.7669222
-0.7656634
-0.7645206
-0.7635338
-0.7627431
-0.7622125
-0.7620817
-0.7615438
-0.7593452
-0.7552763
-0.7448003
-0.7721784
-0.770912
-0.7696391
-0.7683922
-0.7672018
-0.766101
-0.7651288
-0.764339
-0.7638087
-0.7636724
-0.7632827
-0.7619505
-0.7601626
-0.7570836
-0.7496784
-0.7733016
-0.7721532
-0.7709902
-0.7698342
-0.7687052
-0.7676256
-0.7666249
-0.7657495
-0.7650872
-0.7648132
-0.7645024
-0.7634504
-0.7623347
-0.7609703
-0.758831
-0.753144
-0.7743782
-0.77335
-0.7722964
-0.7712286
-0.7701554
-0.769086
-0.7680328
-0.7670194
-0.7661088
-0.7655234
-0.7654362
-0.7645497
-0.7636855
-0.7628273
-0.7618782
-0.7601276
-0.7553809
-0.7663067
-0.7656182
-0.7649229
-0.7642586
-0.7636534
-0.7627086
-0.7608814
-0.7575178
-0.7680608
-0.7672591
-0.7665075
-0.7658288
-0.7652514
-0.7644607
-0.7631557
-0.7615842
-0.7591289
-0.7696914
-0.768867
-0.7680912
-0.7673854
-0.7667796
-0.7659993
-0.764814
-0.7635732
-0.7621633
-0.7602425
-0.7711487
-0.7703323
-0.7695548
-0.7688362
-0.7682012
-0.7674123
-0.766261
-0.7650992
-0.7639012
-0.7625875
-0.760965
-0.772439
-0.771641
-0.7708731
-0.7701518
-0.7694982
-0.7687007
-0.7675712
-0.7664313
-0.7652853
-0.7641121
-0.7628518
-0.7613552
-0.7645764
-0.7630189
-0.7613877
-0.7596654
-0.757776
-0.7555266
-0.7524589
-0.7475504
-0.7300313
-0.765964
-0.7643971
-0.7627836
-0.7611199
-0.7593495
-0.757289
-0.7545435
-0.7503461
-0.7434416
-0.7236587
-0.7672927
-0.7657365
-0.7641573
-0.7625785
-0.7609911
-0.7593242
-0.7573793
-0.7548345
-0.7513508
-0.7475963
-0.7363438
-0.7685698
-0.7670459
-0.7655141
-0.7640137
-0.7625705
-0.7611814
-0.7597983
-0.7583055
-0.7566647
-0.7554025
-0.7526242
-0.7374193
-0.7698017
-0.7683313
-0.7668601
-0.7654347
-0.7640943
-0.7628704
-0.7617769
-0.7608149
-0.7599972
-0.7596171
-0.7585274
-0.7535453
-0.740114
-0.7709925
-0.7695947
-0.7681982
-0.7668486
-0.7655879
-0.7644562
-0.7634934
-0.7627346
-0.7622329
-0.7621176
-0.7615581
-0.7592526
-0.7549264
-0.7438894
-0.7721442
-0.7708355
-0.7695264
-0.7682567
-0.7670639
-0.7659866
-0.7650669
-0.7643553
-0.7639112
-0.7638317
-0.7634163
-0.7620114
-0.7600462
-0.756559
-0.7482408
-0.7732565
-0.7720504
-0.770839
-0.7696532
-0.7685223
-0.7674775
-0.7665566
-0.7658092
-0.7653081
-0.7651559
-0.7647801
-0.7636737
-0.7624466
-0.7608581
-0.7582558
-0.751363
-0.7743276
-0.7732333
-0.7721257
-0.7710255
-0.769952
-0.7689263
-0.7679755
-0.7671425
-0.7665051
-0.7662176
-0.765886
-0.7649064
-0.7639272
-0.7629084
-0.7617035
-0.7595003
-0.7533172
-0.7753546
-0.7743742
-0.7733702
-0.7723535
-0.7713328
-0.7703169
-0.7693175
-0.7683564
-0.7674913
-0.7669228
-0.7668047
-0.7659452
-0.7651122
-0.7643094
-0.7635301
-0.7624002
-0.7602158
-0.7555238
-0.7677052
-0.7670175
-0.7663153
-0.7656393
-0.7650225
-0.7641757
-0.7627872
-0.7609726
-0.7576368
-0.7693862
-0.7685978
-0.7678472
-0.7671522
-0.766541
-0.7657431
-0.7645335
-0.7632374
-0.7616774
-0.759239
-0.7709454
-0.7701401
-0.7693715
-0.7686577
-0.7680222
-0.7672266
-0.7660655
-0.7648876
-0.7636561
-0.7622573
-0.760354
-0.772339
-0.7715443
-0.7707792
-0.7700594
-0.7694058
-0.7686057
-0.7674725
-0.7663274
-0.7651733
-0.7639844
-0.7626856
-0.7610661
-0.7735727
-0.7727981
-0.772046
-0.7713299
-0.7706665
-0.7698666
-0.7687558
-0.7676315
-0.766498
-0.7653594
-0.7641992
-0.7629415
-0.7614323
-0.7660373
-0.7645692
-0.7630438
-0.7614627
-0.7598073
-0.758014
-0.7559482
-0.7533387
-0.7497002
-0.7375905
-0.76735
-0.7658696
-0.7643562
-0.7628262
-0.7612761
-0.7596665
-0.7578817
-0.755741
-0.7530585
-0.7501909
-0.7407289
-0.7686091
-0.7671347
-0.7656458
-0.7641742
-0.762742
-0.761351
-0.7599734
-0.7585373
-0.757048
-0.7559545
-0.753525
-0.7399516
-0.7698213
-0.7683748
-0.7669243
-0.7655123
-0.7641748
-0.7629424
-0.7618323
-0.7608552
-0.7600397
-0.7596718
-0.7586433
-0.7539667
-0.7412036
-0.7709925
-0.7695947
-0.7681982
-0.7668486
-0.7655879
-0.7644562
-0.7634934
-0.7627346
-0.7622329
-0.7621176
-0.7615581
-0.7592526
-0.7549264
-0.7438894
-0.7721262
-0.770796
-0.7694682
-0.7681867
-0.7669921
-0.7659258
-0.7650308
-0.7643547
-0.7639475
-0.7638919
-0.7634686
-0.7620263
-0.7599687
-0.7562693
-0.7475014
-0.7732237
-0.7719775
-0.7707316
-0.7695241
-0.7683905
-0.7673675
-0.7664963
-0.765824
-0.765408
-0.7653135
-0.7649222
-0.7637863
-0.7624887
-0.7607465
-0.7578168
-0.7500966
-0.7742845
-0.7731354
-0.7719817
-0.7708531
-0.7697772
-0.7687833
-0.7679065
-0.7671924
-0.7667043
-0.7665295
-0.7661399
-0.7651254
-0.7640838
-0.7629565
-0.7615566
-0.7589598
-0.7515621
-0.7753064
-0.7742633
-0.773208
-0.7721604
-0.7711389
-0.7701632
-0.7692587
-0.7684642
-0.7678498
-0.7675506
-0.7672012
-0.766258
-0.7653338
-0.7644199
-0.7634886
-0.7621748
-0.7595889
-0.7534897
-0.7762863
-0.7753514
-0.7743944
-0.773426
-0.7724545
-0.7714887
-0.7705395
-0.7696271
-0.7688047
-0.7682549
-0.7681133
-0.7672778
-0.7664593
-0.7656726
-0.7649253
-0.7639756
-0.7624717
-0.760304
-0.7556669
-0.769035
-0.7683524
-0.7676491
-0.7669602
-0.7663209
-0.7654877
-0.7642455
-0.7628658
-0.7610641
-0.7577564
-0.770648
-0.7698766
-0.769132
-0.7684293
-0.7677909
-0.7669831
-0.7658087
-0.7646062
-0.7633192
-0.7617707
-0.7593535
-0.7721411
-0.771357
-0.7706005
-0.7698857
-0.7692323
-0.7684269
-0.7672868
-0.7661318
-0.7649615
-0.763739
-0.7623552
-0.760456
-0.7734753
-0.7727039
-0.7719546
-0.7712401
-0.7705768
-0.7697748
-0.7686609
-0.7675328
-0.7663941
-0.7652474
-0.7640714
-0.7627752
-0.7611434
-0.7746559
-0.773906
-0.7731723
-0.772466
-0.7718007
-0.7710049
-0.7699174
-0.768811
-0.7676921
-0.7665647
-0.7654375
-0.7642787
-0.7630092
-0.7614877
-0.767419
-0.7660305
-0.7645939
-0.7631181
-0.7616027
-0.7600348
-0.7583749
-0.7565701
-0.7545854
-0.7526321
-0.7463771
-0.7686634
-0.7672605
-0.7658318
-0.7643991
-0.7629782
-0.7615736
-0.7601764
-0.7587619
-0.7573887
-0.7564572
-0.7545822
-0.7436652
-0.7698588
-0.7684591
-0.7670489
-0.7656623
-0.7643293
-0.7630771
-0.7619268
-0.7609048
-0.7600692
-0.7597082
-0.7588079
-0.7547154
-0.7433506
-0.7710113
-0.7696361
-0.7682592
-0.7669222
-0.7656634
-0.7645206
-0.7635338
-0.7627431
-0.7622125
-0.7620817
-0.7615438
-0.7593452
-0.7552763
-0.7448003
-0.7721262
-0.770796
-0.7694682
-0.7681867
-0.7669921
-0.7659258
-0.7650308
-0.7643547
-0.7639475
-0.7638919
-0.7634686
-0.7620263
-0.7599687
-0.7562693
-0.7475014
-0.7732065
-0.7719399
-0.7706762
-0.7694572
-0.7683218
-0.7673092
-0.7664615
-0.7658237
-0.7654451
-0.7653759
-0.7649817
-0.763832
-0.7624992
-0.7606781
-0.7575792
-0.7494435
-0.7742531
-0.773066
-0.7718794
-0.7707299
-0.7696511
-0.7686772
-0.7678465
-0.7672025
-0.7667943
-0.7666745
-0.7662729
-0.7652438
-0.7641683
-0.7629736
-0.7614431
-0.7585597
-0.7503138
-0.7752652
-0.7741702
-0.773071
-0.7719962
-0.7709719
-0.7700256
-0.7691894
-0.7685047
-0.768028
-0.7678317
-0.7674282
-0.7664561
-0.7654878
-0.7645072
-0.7634724
-0.7620076
-0.7590518
-0.7517603
-0.7762403
-0.7752461
-0.7742405
-0.7732426
-0.77227
-0.7713415
-0.7704804
-0.7697224
-0.7691306
-0.7688254
-0.7684627
-0.7675479
-0.7666494
-0.765774
-0.764917
-0.7638732
-0.7622408
-0.7596775
-0.7536618
-0.7771751
-0.7762839
-0.7753717
-0.7744491
-0.7735243
-0.7726056
-0.7717035
-0.7708369
-0.7700549
-0.769525
-0.7693682
-0.768556
-0.7677519
-0.766969
-0.7662235
-0.7653199
-0.7640379
-0.762543
-0.7603924
-0.7558098
-0.7703014
-0.7696287
-0.7689289
-0.768234
-0.7675736
-0.7667399
-0.7655506
-0.7643152
-0.7629444
-0.7611555
-0.7578799
-0.7718508
-0.7710989
-0.7703653
-0.7696615
-0.7690067
-0.7681917
-0.7670427
-0.7658742
-0.7646791
-0.7634011
-0.761868
-0.7594585
-0.7732823
-0.7725212
-0.7717802
-0.7710707
-0.7704081
-0.7696016
-0.768482
-0.767347
-0.7661983
-0.7650354
-0.7638258
-0.7624446
-0.7605342
-0.7745608
-0.7738141
-0.7730831
-0.7723785
-0.7717135
-0.7709159
-0.7698256
-0.7687161
-0.7675934
-0.7664608
-0.7653254
-0.7641508
-0.7628428
-0.7611989
-0.7756914
-0.774967
-0.7742539
-0.7735611
-0.7728997
-0.7721138
-0.7710521
-0.7699684
-0.7688665
-0.7677527
-0.7666354
-0.7655087
-0.7643378
-0.7630568
-0.7615197
-0.7520024
-0.7687287
-0.7674122
-0.7660541
-0.7646653
-0.7632524
-0.7618175
-0.7603603
-0.758881
-0.757451
-0.7564268
-0.7554077
-0.7482544
-0.7699105
-0.7685784
-0.7672248
-0.765873
-0.7645434
-0.7632564
-0.7620324
-0.7609083
-0.7599749
-0.7595574
-0.758881
-0.7555998
-0.7464472
-0.7710471
-0.7697164
-0.7683776
-0.7670644
-0.7658082
-0.7646417
-0.7636028
-0.7627387
-0.7621338
-0.7619604
-0.7614742
-0.7594776
-0.7559019
-0.7465822
-0.7721442
-0.7708355
-0.7695264
-0.7682567
-0.7670639
-0.7659866
-0.7650669
-0.7643553
-0.7639112
-0.7638317
-0.7634163
-0.7620114
-0.7600462
-0.756559
-0.7482408
-0.7732065
-0.7719399
-0.7706762
-0.7694572
-0.7683218
-0.7673092
-0.7664615
-0.7658237
-0.7654451
-0.7653759
-0.7649817
-0.763832
-0.7624992
-0.7606781
-0.7575792
-0.7494435
-0.7742365
-0.77303
-0.7718265
-0.7706661
-0.7695853
-0.768621
-0.7678121
-0.7672004
-0.7668277
-0.7667325
-0.7663299
-0.765295
-0.764204
-0.7629766
-0.7613802
-0.7583464
-0.7496698
-0.7752351
-0.774104
-0.7729736
-0.7718787
-0.7708513
-0.7699234
-0.7691298
-0.7685101
-0.7681074
-0.7679623
-0.7675484
-0.766566
-0.7655771
-0.7645599
-0.763462
-0.7618906
-0.7586556
-0.7505299
-0.7762009
-0.7751575
-0.7741102
-0.7730863
-0.7721107
-0.7712093
-0.7704117
-0.7697554
-0.7692904
-0.7690792
-0.7686649
-0.7677228
-0.7667872
-0.7658621
-0.7649367
-0.763823
-0.7620712
-0.7591436
-0.7519577
-0.7771313
-0.776184
-0.7752257
-0.774275
-0.7733489
-0.772465
-0.7716453
-0.7709223
-0.7703535
-0.7700469
-0.7696777
-0.7687886
-0.7679109
-0.7670509
-0.7662167
-0.765253
-0.7639288
-0.7623067
-0.7597661
-0.7538332
-0.7780229
-0.7771736
-0.7763044
-0.7754254
-0.7745449
-0.7736709
-0.7728134
-0.7719901
-0.7712466
-0.7707379
-0.7705725
-0.769785
-0.7689965
-0.7682198
-0.7674682
-0.7665798
-0.7653758
-0.7640999
-0.7626144
-0.7604805
-0.7559549
-0.771509
-0.7708496
-0.7701586
-0.7694635
-0.7687907
-0.7679545
-0.7667972
-0.7656133
-0.7643848
-0.7630229
-0.7612511
-0.7579934
-0.7729987
-0.7722682
-0.7715491
-0.7708506
-0.7701874
-0.7693729
-0.7682463
-0.7671023
-0.7659399
-0.764752
-0.7634868
-0.7619568
-0.7595393
-0.7743723
-0.7736355
-0.7729128
-0.7722132
-0.7715491
-0.7707477
-0.7696525
-0.7685372
-0.7674074
-0.7662648
-0.7651131
-0.7639049
-0.7625119
-0.7605904
-0.7755985
-0.7748772
-0.7741668
-0.7734758
-0.7728148
-0.7720272
-0.7709631
-0.7698766
-0.7687716
-0.767654
-0.7665314
-0.7653966
-0.7642099
-0.7628903
-0.761231
-0.7766817
-0.7759834
-0.7752923
-0.774616
-0.7739631
-0.7731912
-0.7721579
-0.7710995
-0.7700195
-0.768922
-0.7678172
-0.7666998
-0.7655608
-0.7643784
-0.7630829
-0.7533837
-0.7554831
-0.7526077
-0.7699724
-0.7687221
-0.7674349
-0.7661224
-0.7647931
-0.7634553
-0.7621182
-0.7608059
-0.759598
-0.7588484
-0.7586353
-0.7563343
-0.7501651
-0.7710965
-0.7698298
-0.7685446
-0.767264
-0.7660094
-0.7648041
-0.7636788
-0.7626813
-0.7619162
-0.7616276
-0.7612593
-0.7595445
-0.7566566
-0.7491187
-0.7721784
-0.770912
-0.7696391
-0.7683922
-0.7672018
-0.766101
-0.7651288
-0.764339
-0.7638087
-0.7636724
-0.7632827
-0.7619505
-0.7601626
-0.7570836
-0.7496784
-0.7732237
-0.7719775
-0.7707316
-0.7695241
-0.7683905
-0.7673675
-0.7664963
-0.765824
-0.765408
-0.7653135
-0.7649222
-0.7637863
-0.7624887
-0.7607465
-0.7578168
-0.7500966
-0.7742365
-0.77303
-0.7718265
-0.7706661
-0.7695853
-0.768621
-0.7678121
-0.7672004
-0.7668277
-0.7667325
-0.7663299
-0.765295
-0.764204
-0.7629766
-0.7613802
-0.7583464
-0.7496698
-0.7752192
-0.7740697
-0.7729232
-0.7718179
-0.7707884
-0.7698691
-0.7690959
-0.7685061
-0.7681365
-0.7680145
-0.7676002
-0.7666144
-0.7656172
-0.7645835
-0.7634556
-0.7618289
-0.7584448
-0.7498949
-0.776172
-0.7750944
-0.7740173
-0.7729743
-0.7719956
-0.7711111
-0.770353
-0.7697569
-0.7693604
-0.7691965
-0.7687725
-0.7678212
-0.7668695
-0.7659197
-0.7649564
-0.7637969
-0.7619535
-0.7587513
-0.750745
-0.7770936
-0.7760996
-0.7751018
-0.7741264
-0.7731973
-0.7723386
-0.771578
-0.7709496
-0.7704981
-0.7702774
-0.7698585
-0.7689422
-0.7680304
-0.7671285
-0.7662416
-0.7652376
-0.7638747
-0.7621346
-0.7592355
-0.752154
-0.7779811
-0.7770789
-0.7761659
-0.7752605
-0.7743787
-0.7735373
-0.772757
-0.7720679
-0.7715227
-0.7712187
-0.7708483
-0.7699859
-0.769128
-0.7682818
-0.7674536
-0.7665201
-0.7653026
-0.7639844
-0.7623726
-0.7598545
-0.7540045
-0.7788313
-0.7780224
-0.7771944
-0.7763573
-0.7755191
-0.7746876
-0.7738724
-0.7730902
-0.7723838
-0.7718972
-0.7717286
-0.770967
-0.7701971
-0.7694294
-0.7686766
-0.7677942
-0.7666311
-0.7654316
-0.764162
-0.7626855
-0.7605731
-0.756088
-0.7726617
-0.7720186
-0.7713402
-0.7706508
-0.7699725
-0.7691399
-0.7680073
-0.7668544
-0.765676
-0.7644542
-0.7631054
-0.7613383
-0.758082
-0.774095
-0.7733875
-0.7726858
-0.771997
-0.771333
-0.7705245
-0.7694234
-0.768301
-0.767162
-0.7660055
-0.7648286
-0.7635648
-0.7620233
-0.759598
-0.7754142
-0.7747027
-0.7740003
-0.7733142
-0.7726544
-0.7718635
-0.7707949
-0.7697034
-0.7685926
-0.7674678
-0.7663352
-0.7651839
-0.7639635
-0.7625589
-0.7606231
-0.7765908
-0.7758956
-0.7752073
-0.7745326
-0.7738803
-0.7731069
-0.7720714
-0.7710105
-0.7699278
-0.7688271
-0.7677184
-0.7665957
-0.7654485
-0.7642502
-0.7629161
-0.7776289
-0.7769572
-0.7762894
-0.7756316
-0.774991
-0.7742363
-0.7732327
-0.7722022
-0.771147
-0.7700708
-0.7689814
-0.767876
-0.7667461
-0.7655955
-0.764399
-0.7541425
-0.7560934
-0.7543435
-0.7578397
-0.7566617
-0.7536286
-0.7711552
-0.769966
-0.7687438
-0.7675001
-0.7662442
-0.7649853
-0.763737
-0.7625257
-0.7614354
-0.7607742
-0.7607461
-0.7594034
-0.7573391
-0.7521126
-0.7722256
-0.7710199
-0.769798
-0.7685821
-0.7673933
-0.7662549
-0.7651978
-0.7642725
-0.7635737
-0.7633104
-0.7630015
-0.7617805
-0.7602458
-0.7577386
-0.7517059
-0.7732565
-0.7720504
-0.770839
-0.7696532
-0.7685223
-0.7674775
-0.7665566
-0.7658092
-0.7653081
-0.7651559
-0.7647801
-0.7636737
-0.7624466
-0.7608581
-0.7582558
-0.751363
-0.7742531
-0.773066
-0.7718794
-0.7707299
-0.7696511
-0.7686772
-0.7678465
-0.7672025
-0.7667943
-0.7666745
-0.7662729
-0.7652438
-0.7641683
-0.7629736
-0.7614431
-0.7585597
-0.7503138
-0.7752192
-0.7740697
-0.7729232
-0.7718179
-0.7707884
-0.7698691
-0.7690959
-0.7685061
-0.7681365
-0.7680145
-0.7676002
-0.7666144
-0.7656172
-0.7645835
-0.7634556
-0.7618289
-0.7584448
-0.7498949
-0.7761567
-0.7750617
-0.7739693
-0.7729163
-0.7719355
-0.771059
-0.7703197
-0.7697514
-0.7693855
-0.7692434
-0.768819
-0.7678649
-0.7669073
-0.7659472
-0.7649671
-0.7637849
-0.7618919
-0.7585429
-0.750119
-0.7770658
-0.7760395
-0.7750135
-0.7740198
-0.7730875
-0.7722445
-0.7715207
-0.7709482
-0.7705602
-0.7703833
-0.7699549
-0.7690294
-0.7681034
-0.7671815
-0.7662672
-0.7652395
-0.7638468
-0.7620163
-0.758847
-0.7509589
-0.7779451
-0.7769987
-0.7760483
-0.7751193
-0.7742344
-0.7734167
-0.7726918
-0.7720911
-0.7716547
-0.7714297
-0.7710111
-0.7701213
-0.7692309
-0.7683467
-0.7674739
-0.7665125
-0.7652833
-0.7639264
-0.7621981
-0.759327
-0.7523485
-0.7787914
-0.7779326
-0.7770633
-0.7762012
-0.7753618
-0.7745611
-0.7738187
-0.7731626
-0.7726412
-0.7723434
-0.7719764
-0.7711413
-0.7703054
-0.7694736
-0.7686525
-0.7677325
-0.7665656
-0.7653521
-0.7640399
-0.7624383
-0.7599471
-0.7541614
-0.7796014
-0.7788317
-0.7780435
-0.7772466
-0.7764491
-0.7756583
-0.7748834
-0.7741405
-0.7734698
-0.773006
-0.7728387
-0.7721039
-0.7713547
-0.7706003
-0.7698508
-0.7689776
-0.7678417
-0.7666821
-0.7654874
-0.7642238
-0.7627612
-0.7606575
-0.7561951
-0.7737629
-0.7731384
-0.7724756
-0.7717963
-0.7711196
-0.7702951
-0.7691888
-0.7680599
-0.7669116
-0.7657385
-0.7645277
-0.7631804
-0.7614028
-0.7581481
-0.7751427
-0.7744593
-0.7737772
-0.7731018
-0.7724427
-0.7716456
-0.7705716
-0.7694739
-0.7683558
-0.7672216
-0.7660749
-0.7648983
-0.7636221
-0.7620693
-0.7596327
-0.7764104
-0.7757248
-0.7750443
-0.7743747
-0.7737238
-0.7729474
-0.7719077
-0.7708423
-0.7697545
-0.7686479
-0.7675321
-0.7663992
-0.7652354
-0.7640033
-0.7625842
-0.7775399
-0.7768713
-0.7762062
-0.7755502
-0.7749102
-0.7741541
-0.7731485
-0.7721157
-0.771058
-0.769979
-0.7688864
-0.7677772
-0.766642
-0.765483
-0.7642705
-0.778535
-0.7778901
-0.7772464
-0.776609
-0.7759836
-0.7752483
-0.7742755
-0.7732743
-0.7722466
-0.7711946
-0.7701259
-0.7690355
-0.7679177
-0.766776
-0.7656115
-0.75461
-0.7565825
-0.7552626
-0.7582908
-0.7572164
-0.7554315
-0.7598265
-0.7590263
-0.7578085
-0.7549124
-0.7722814
-0.7711493
-0.7699871
-0.7688065
-0.7676166
-0.7664271
-0.7652514
-0.764117
-0.7630993
-0.7624772
-0.7624579
-0.7614194
-0.7602152
-0.7583898
-0.7540851
-0.7733016
-0.7721532
-0.7709902
-0.7698342
-0.7687052
-0.7676256
-0.7666249
-0.7657495
-0.7650872
-0.7648132
-0.7645024
-0.7634504
-0.7623347
-0.7609703
-0.758831
-0.753144
-0.7742845
-0.7731354
-0.7719817
-0.7708531
-0.7697772
-0.7687833
-0.7679065
-0.7671924
-0.7667043
-0.7665295
-0.7661399
-0.7651254
-0.7640838
-0.7629565
-0.7615566
-0.7589598
-0.7515621
-0.7752351
-0.774104
-0.7729736
-0.7718787
-0.7708513
-0.7699234
-0.7691298
-0.7685101
-0.7681074
-0.7679623
-0.7675484
-0.766566
-0.7655771
-0.7645599
-0.763462
-0.7618906
-0.7586556
-0.7505299
-0.7761567
-0.7750617
-0.7739693
-0.7729163
-0.7719355
-0.771059
-0.7703197
-0.7697514
-0.7693855
-0.7692434
-0.768819
-0.7678649
-0.7669073
-0.7659472
-0.7649671
-0.7637849
-0.7618919
-0.7585429
-0.750119
-0.7770512
-0.7760084
-0.7749677
-0.7739646
-0.7730301
-0.7721945
-0.7714882
-0.7709416
-0.770582
-0.7704254
-0.7699967
-0.7690684
-0.7681372
-0.7672074
-0.7662818
-0.7652429
-0.763834
-0.7619547
-0.758641
-0.7503419
-0.7779185
-0.7769415
-0.7759643
-0.775018
-0.7741299
-0.7733268
-0.7726364
-0.7720878
-0.7717104
-0.7715261
-0.771098
-0.7701987
-0.7692947
-0.7683929
-0.7674977
-0.7665211
-0.7652831
-0.7638966
-0.7620792
-0.7589423
-0.7511697
-0.7787569
-0.7778565
-0.7769518