/*--------------------------------*- C++ -*----------------------------------*\
| =========                 |                                                 |
| \\      /  F ield         | OpenFOAM: The Open Source CFD Toolbox           |
|  \\    /   O peration     | Version:  2306                                  |
|   \\  /    A nd           | Website:  www.openfoam.com                      |
|    \\/     M anipulation  |                                                 |
\*---------------------------------------------------------------------------*/
FoamFile
{
    version     2.0;
    format      ascii;
    arch        "LSB;label=32;scalar=64";
    class       volScalarField;
    location    "0.6/air";
    object      O2;
}
// * * * * * * * * * * * * * * * * * * * * * * * * * * * * * * * * * * * * * //

dimensions      [0 0 0 0 0 0 0];

internalField   nonuniform List<scalar> 
16000
(
0.229878
0.2299082
0.2278393
0.2298365
0.2299478
0.2279329
0.2298792
0.2251728
0.2277176
0.229718
0.2299813
0.2280584
0.229932
0.2252831
0.227842
0.2297784
0.2223869
0.2250291
0.2274077
0.2294784
0.2300001
0.2281667
0.229975
0.2254347
0.2280007
0.2298521
0.2224954
0.2251719
0.2275704
0.2295589
0.21968
0.2222425
0.224672
0.2268458
0.2290604
0.2300001
0.2282274
0.2299983
0.2255708
0.2281338
0.2299108
0.2226442
0.2253595
0.227776
0.2296585
0.2197836
0.2223824
0.2248526
0.2270466
0.2291625
0.2170945
0.2195418
0.2218853
0.2240407
0.2259731
0.228388
0.1919103
0.2299813
0.2282274
0.2299983
0.2256502
0.2282069
0.2299418
0.2227767
0.2255238
0.2279484
0.229737
0.2199257
0.2225662
0.2250863
0.2273015
0.2292923
0.2171927
0.2196754
0.2220609
0.2242551
0.2262096
0.2285138
0.2146325
0.2169633
0.2192006
0.2212582
0.2230868
0.2247352
0.2273607
0.1931827
0.1901949
0.1917093
0.2299478
0.2281667
0.229975
0.2256502
0.2282069
0.2299418
0.2228532
0.2256185
0.2280439
0.2297793
0.2200522
0.2227258
0.2252871
0.2275162
0.2293985
0.2173272
0.2198506
0.2222881
0.224533
0.2265125
0.2286808
0.2147257
0.2170897
0.2193676
0.2214636
0.2233286
0.2250066
0.2275198
0.212283
0.2145081
0.2166391
0.2186028
0.2203188
0.2217745
0.2230804
0.2258391
0.1957537
0.1913351
0.192977
0.1893363
0.190011
0.1913083
0.2299082
0.2280584
0.229932
0.2255708
0.2281338
0.2299108
0.2228532
0.2256185
0.2280439
0.2297793
0.220125
0.2228167
0.225401
0.2276359
0.229457
0.2174469
0.2200026
0.2224834
0.2247714
0.2267693
0.228823
0.2148534
0.2172555
0.2195834
0.2217302
0.2236446
0.225358
0.2277403
0.2123717
0.2146282
0.216797
0.2187972
0.2205464
0.2220395
0.2233935
0.2260695
0.2100342
0.2121645
0.2142007
0.2160714
0.2177097
0.2190398
0.2200773
0.2209555
0.2236069
0.1997192
0.1936331
0.1955315
0.1903963
0.1911476
0.1925676
0.1885966
0.1891665
0.1896439
0.1907083
0.229878
0.2279329
0.2298792
0.2254347
0.2280007
0.2298521
0.2227767
0.2255238
0.2279484
0.229737
0.220125
0.2228167
0.225401
0.2276359
0.229457
0.2175158
0.2200891
0.2225939
0.224906
0.2269131
0.2289034
0.2149669
0.2173992
0.2197686
0.2219592
0.2239168
0.2256575
0.227933
0.2124932
0.2147855
0.217001
0.219049
0.2208442
0.2223894
0.2238019
0.2263871
0.210119
0.2122788
0.2143507
0.2162552
0.2179241
0.2192848
0.2203704
0.221341
0.2240335
0.2078752
0.2099211
0.2118719
0.2136624
0.215224
0.2164973
0.2174045
0.2179701
0.218285
0.2202583
0.205454
0.1971609
0.1994348
0.1925318
0.1934328
0.1950946
0.1895892
0.1902233
0.1907743
0.1919575
0.1877947
0.1884378
0.1888273
0.1890944
0.1899108
0.2278393
0.2298365
0.2252831
0.227842
0.2297784
0.2226442
0.2253595
0.227776
0.2296585
0.2200522
0.2227258
0.2252871
0.2275162
0.2293985
0.2175158
0.2200891
0.2225939
0.224906
0.2269131
0.2289034
0.2150324
0.2174811
0.2198733
0.2220889
0.2240708
0.2258259
0.2280431
0.2126012
0.2149219
0.217176
0.219265
0.2211014
0.2226925
0.2241508
0.2266605
0.210235
0.2124285
0.2145443
0.2164929
0.2182038
0.2196089
0.2207604
0.2218373
0.2245496
0.2079564
0.2100303
0.2120147
0.213837
0.2154263
0.2167271
0.2176722
0.2183219
0.2188466
0.2212724
0.2057967
0.2077669
0.2096417
0.2113592
0.2128586
0.2140741
0.2149513
0.2153971
0.2154037
0.2149052
0.214806
0.202219
0.2048663
0.1958078
0.1969096
0.1989051
0.1915888
0.1923474
0.1930382
0.1944535
0.1887311
0.1894277
0.1898789
0.1902176
0.1911498
0.1868776
0.187645
0.1881206
0.1883195
0.1883637
0.188762
0.2251728
0.2277176
0.229718
0.2224954
0.2251719
0.2275704
0.2295589
0.2199257
0.2225662
0.2250863
0.2273015
0.2292923
0.2174469
0.2200026
0.2224834
0.2247714
0.2267693
0.228823
0.2150324
0.2174811
0.2198733
0.2220889
0.2240708
0.2258259
0.2280431
0.2126635
0.2149995
0.217275
0.219387
0.2212473
0.2228643
0.224347
0.2268143
0.2103382
0.2125584
0.2147103
0.2166968
0.2184449
0.2198907
0.2210985
0.2222556
0.2249579
0.2080676
0.2101734
0.212199
0.2140626
0.2156903
0.2170304
0.2180294
0.2187827
0.2195113
0.2221809
0.2058747
0.2078715
0.2097782
0.2115255
0.213051
0.2142911
0.2152021
0.215718
0.2159158
0.2159738
0.2177054
0.2037913
0.2056927
0.2074992
0.2091522
0.2105934
0.2117677
0.2126089
0.2130573
0.2129766
0.2122365
0.2103341
0.2120815
0.2004996
0.2017142
0.2039905
0.1946549
0.195577
0.1964398
0.1981713
0.1906172
0.1914167
0.1919841
0.1924581
0.1936179
0.1877653
0.1885789
0.1891058
0.189365
0.1894799
0.1899903
0.1858825
0.1867357
0.187346
0.1876459
0.1876442
0.1873105
0.1885253
0.2223869
0.2250291
0.2274077
0.2294784
0.2197836
0.2223824
0.2248526
0.2270466
0.2291625
0.2173272
0.2198506
0.2222881
0.224533
0.2265125
0.2286808
0.2149669
0.2173992
0.2197686
0.2219592
0.2239168
0.2256575
0.227933
0.2126635
0.2149995
0.217275
0.219387
0.2212473
0.2228643
0.224347
0.2268143
0.2103977
0.2126322
0.2148041
0.216812
0.2185815
0.2200509
0.2212901
0.2224885
0.2251771
0.2081665
0.2102974
0.212357
0.214256
0.2159177
0.2172935
0.2183403
0.2191755
0.2200413
0.222801
0.2059816
0.2080086
0.2099544
0.2117404
0.2133016
0.2145772
0.215536
0.2161398
0.2165272
0.216968
0.2192438
0.2038664
0.2057933
0.2076301
0.2093112
0.2107769
0.2119742
0.2128459
0.2133587
0.2134487
0.2132218
0.2130057
0.2154884
0.2018525
0.2036912
0.2054356
0.2070301
0.2084206
0.2095536
0.2103768
0.2108147
0.2107762
0.2100104
0.2080142
0.2080355
0.2099622
0.1990436
0.2000356
0.2009568
0.2029717
0.1935087
0.1944398
0.1951456
0.1957861
0.1972642
0.1895531
0.1904551
0.1910776
0.1914499
0.1917005
0.1924346
0.1867279
0.187621
0.1882755
0.1886256
0.188684
0.1884201
0.1897514
0.1848256
0.1857472
0.1864521
0.1868984
0.1870143
0.1866706
0.1870934
0.1882865
0.21968
0.2222425
0.224672
0.2268458
0.2290604
0.2171927
0.2196754
0.2220609
0.2242551
0.2262096
0.2285138
0.2148534
0.2172555
0.2195834
0.2217302
0.2236446
0.225358
0.2277403
0.2126012
0.2149219
0.217176
0.219265
0.2211014
0.2226925
0.2241508
0.2266605
0.2103977
0.2126322
0.2148041
0.216812
0.2185815
0.2200509
0.2212901
0.2224885
0.2251771
0.2082234
0.2103679
0.2124463
0.2143652
0.2160465
0.2174428
0.218517
0.2193955
0.2203277
0.2231108
0.2060765
0.2081274
0.2101054
0.2119246
0.2135174
0.2148253
0.215826
0.2165005
0.217018
0.2176731
0.2201348
0.2039693
0.205925
0.2077989
0.2095168
0.2110158
0.2122463
0.2131611
0.2137537
0.214013
0.2141404
0.2145168
0.2173516
0.201925
0.203788
0.2055614
0.2071826
0.2085963
0.2097508
0.2106027
0.2110999
0.2112207
0.2109283
0.2104916
0.2111396
0.2135237
0.1999749
0.201756
0.2034437
0.204985
0.2063289
0.2074269
0.2082273
0.2086724
0.2086543
0.2079816
0.206068
0.2058946
0.2062372
0.2082274
0.1976463
0.1986114
0.1993405
0.2000692
0.2018796
0.1922937
0.1933063
0.1940379
0.1945453
0.1949742
0.1960358
0.1884306
0.1893995
0.1901358
0.190579
0.1907521
0.1906257
0.1921909
0.1856336
0.1865905
0.1873334
0.1878229
0.1879891
0.1877054
0.1882017
0.1895105
0.1837311
0.1846964
0.1854771
0.1860275
0.1863028
0.1861037
0.1864699
0.1868745
0.1880457
0.2170945
0.2195418
0.2218853
0.2240407
0.2259731
0.228388
0.2147257
0.2170897
0.2193676
0.2214636
0.2233286
0.2250066
0.2275198
0.2124932
0.2147855
0.217001
0.219049
0.2208442
0.2223894
0.2238019
0.2263871
0.2103382
0.2125584
0.2147103
0.2166968
0.2184449
0.2198907
0.2210985
0.2222556
0.2249579
0.2082234
0.2103679
0.2124463
0.2143652
0.2160465
0.2174428
0.218517
0.2193955
0.2203277
0.2231108
0.2061313
0.208195
0.2101907
0.2120287
0.2136396
0.2149661
0.2159904
0.216703
0.2172841
0.2180335
0.2205522
0.2040608
0.2060391
0.2079436
0.2096929
0.2112216
0.2124819
0.2134349
0.2140908
0.2144665
0.2147933
0.215434
0.2184027
0.2020243
0.2039149
0.2057237
0.2073797
0.208825
0.2100105
0.210903
0.2114736
0.2117511
0.2117833
0.2118946
0.2129203
0.2155978
0.2000449
0.2018494
0.2035649
0.2051317
0.2064975
0.2076159
0.2084432
0.2089446
0.2090757
0.2088473
0.2083841
0.2087765
0.2094778
0.2118023
0.1981535
0.1998815
0.2015173
0.2030098
0.2043112
0.2053759
0.2061585
0.206601
0.2066184
0.2060077
0.2042676
0.2040902
0.2042404
0.2047548
0.2067623
0.1962149
0.1972398
0.197964
0.1985268
0.19911
0.2005664
0.1910407
0.1921021
0.1929281
0.1934784
0.1937999
0.19387
0.1957833
0.1872609
0.1882844
0.189097
0.1896662
0.1899276
0.1897618
0.1904043
0.1919453
0.1845056
0.1855022
0.1863165
0.1869042
0.187223
0.1870744
0.1875037
0.1879815
0.1892676
0.1826101
0.1836071
0.1844381
0.1850727
0.1854626
0.1854441
0.185916
0.1862675
0.1866538
0.187803
0.2146325
0.2169633
0.2192006
0.2212582
0.2230868
0.2247352
0.2273607
0.2123717
0.2146282
0.216797
0.2187972
0.2205464
0.2220395
0.2233935
0.2260695
0.210235
0.2124285
0.2145443
0.2164929
0.2182038
0.2196089
0.2207604
0.2218373
0.2245496
0.2081665
0.2102974
0.212357
0.214256
0.2159177
0.2172935
0.2183403
0.2191755
0.2200413
0.222801
0.2061313
0.208195
0.2101907
0.2120287
0.2136396
0.2149661
0.2159904
0.216703
0.2172841
0.2180335
0.2205522
0.2041135
0.2061041
0.2080253
0.2097923
0.211338
0.2126156
0.2135901
0.2142796
0.2147126
0.2151278
0.2158758
0.2188856
0.2021125
0.2040248
0.2058627
0.2075486
0.2090219
0.2102355
0.2111634
0.2117925
0.2121765
0.2123908
0.2127477
0.2139661
0.2167707
0.2001408
0.2019718
0.2037212
0.2053212
0.206717
0.2078648
0.2087303
0.209301
0.2095784
0.2096528
0.2096952
0.2104325
0.2114363
0.2139958
0.1982213
0.1999719
0.2016342
0.2031512
0.2044735
0.2055575
0.2063658
0.2068615
0.2070205
0.2068287
0.2064522
0.2067864
0.2072526
0.2080146
0.2103071
0.1963844
0.1980632
0.1996509
0.2010986
0.2023609
0.2033952
0.2041591
0.2046023
0.2046401
0.2040997
0.2024895
0.2024052
0.2025483
0.2028807
0.2034924
0.2053169
0.1947747
0.1958302
0.1966309
0.1972065
0.1976486
0.1979474
0.2002978
0.1897551
0.1908584
0.191744
0.1924017
0.1927837
0.192786
0.193643
0.1955292
0.1860655
0.1871212
0.1879964
0.188652
0.1890526
0.1890031
0.1895579
0.1901812
0.1916978
0.1833544
0.1843797
0.1852404
0.1859078
0.1863353
0.1863607
0.1868859
0.1873004
0.1877595
0.1890228
0.181474
0.182491
0.1833596
0.1840515
0.1845345
0.1846482
0.1852671
0.1857268
0.1860635
0.1864312
0.1875067
0.212283
0.2145081
0.2166391
0.2186028
0.2203188
0.2217745
0.2230804
0.2258391
0.210119
0.2122788
0.2143507
0.2162552
0.2179241
0.2192848
0.2203704
0.221341
0.2240335
0.2080676
0.2101734
0.212199
0.2140626
0.2156903
0.2170304
0.2180294
0.2187827
0.2195113
0.2221809
0.2060765
0.2081274
0.2101054
0.2119246
0.2135174
0.2148253
0.215826
0.2165005
0.217018
0.2176731
0.2201348
0.2041135
0.2061041
0.2080253
0.2097923
0.211338
0.2126156
0.2135901
0.2142796
0.2147126
0.2151278
0.2158758
0.2188856
0.2021634
0.2040873
0.2059413
0.207644
0.2091333
0.2103631
0.211311
0.2119712
0.212407
0.212702
0.2131591
0.2144593
0.2173057
0.2002261
0.2020779
0.2038551
0.2054836
0.2069059
0.2080803
0.2089792
0.2096048
0.2099816
0.2102245
0.2104918
0.2114069
0.2125825
0.2152491
0.1983142
0.2000902
0.201785
0.2033338
0.2046847
0.2057966
0.2066412
0.2072026
0.2075001
0.2075928
0.2076887
0.2083356
0.2090767
0.2100778
0.2125514
0.1964501
0.1981507
0.1997639
0.2012351
0.2025173
0.2035702
0.2043584
0.2048525
0.2050249
0.2048827
0.2045611
0.2049486
0.205368
0.2059149
0.2067375
0.2088236
0.1946638
0.1962968
0.1978399
0.1992462
0.2004724
0.2014784
0.2022251
0.2026653
0.2027245
0.2022344
0.2007502
0.2007257
0.200954
0.2012824
0.2017265
0.2022351
0.2050236
0.1933234
0.1944087
0.1952539
0.1959186
0.1963893
0.1965856
0.1977095
0.2000287
0.1884565
0.189581
0.1905176
0.1912456
0.1917479
0.1918387
0.1925776
0.1934145
0.1952737
0.1848534
0.1859316
0.1868459
0.1875727
0.1880705
0.1881817
0.1888127
0.1893523
0.1899563
0.1914485
0.1821909
0.1832334
0.1841287
0.1848498
0.1853659
0.1855177
0.186183
0.1866958
0.1870953
0.1875356
0.188724
0.1803294
0.1813593
0.182253
0.1829888
0.183537
0.1837586
0.1844803
0.1850887
0.1855359
0.1858577
0.1861595
0.1872037
0.2100342
0.2121645
0.2142007
0.2160714
0.2177097
0.2190398
0.2200773
0.2209555
0.2236069
0.2079564
0.2100303
0.2120147
0.213837
0.2154263
0.2167271
0.2176722
0.2183219
0.2188466
0.2212724
0.2059816
0.2080086
0.2099544
0.2117404
0.2133016
0.2145772
0.215536
0.2161398
0.2165272
0.216968
0.2192438
0.2040608
0.2060391
0.2079436
0.2096929
0.2112216
0.2124819
0.2134349
0.2140908
0.2144665
0.2147933
0.215434
0.2184027
0.2021634
0.2040873
0.2059413
0.207644
0.2091333
0.2103631
0.211311
0.2119712
0.212407
0.212702
0.2131591
0.2144593
0.2173057
0.2002753
0.2021382
0.2039308
0.2055753
0.2070128
0.2082025
0.2091203
0.2097749
0.2102001
0.210517
0.210876
0.2118669
0.2131179
0.2158202
0.1983968
0.2001927
0.2019143
0.2034903
0.2048665
0.2060036
0.2068799
0.2074932
0.2078844
0.2081352
0.2084397
0.2092469
0.2101462
0.2112929
0.2138444
0.1965401
0.1982652
0.1999097
0.2014114
0.202721
0.2038005
0.2046232
0.20518
0.205484
0.2056113
0.205734
0.2064102
0.2070759
0.2078391
0.2088508
0.2110636
0.1947276
0.1963816
0.1979494
0.1993783
0.2006236
0.2016473
0.2024173
0.2029061
0.2030941
0.2029833
0.2027242
0.2031375
0.2036144
0.2041242
0.2047514
0.2054645
0.2085226
0.1929884
0.1945788
0.1960804
0.1974482
0.1986409
0.1996207
0.2003508
0.200788
0.200862
0.2004193
0.1990339
0.1990711
0.1993518
0.1997633
0.2002091
0.2005817
0.2019799
0.2047322
0.191877
0.1929739
0.1938605
0.1945797
0.1951503
0.1954006
0.1963681
0.1974711
0.1997594
0.1871511
0.1882897
0.1892555
0.1900432
0.1906264
0.1908588
0.1916445
0.1923678
0.1931847
0.1950166
0.1836346
0.1847248
0.1856679
0.1864411
0.187019
0.1872451
0.1880024
0.1886207
0.1891451
0.1897297
0.1911444
0.1810211
0.1820743
0.1829922
0.1837542
0.1843318
0.1845871
0.1853492
0.1860038
0.1865041
0.1868886
0.1872624
0.1884184
0.1791814
0.1802187
0.1811301
0.1818967
0.1824955
0.1827952
0.1835987
0.1843111
0.1849087
0.1853434
0.1856065
0.1858818
0.1869733
0.2078752
0.2099211
0.2118719
0.2136624
0.215224
0.2164973
0.2174045
0.2179701
0.218285
0.2202583
0.2058747
0.2078715
0.2097782
0.2115255
0.213051
0.2142911
0.2152021
0.215718
0.2159158
0.2159738
0.2177054
0.2039693
0.205925
0.2077989
0.2095168
0.2110158
0.2122463
0.2131611
0.2137537
0.214013
0.2141404
0.2145168
0.2173516
0.2021125
0.2040248
0.2058627
0.2075486
0.2090219
0.2102355
0.2111634
0.2117925
0.2121765
0.2123908
0.2127477
0.2139661
0.2167707
0.2002753
0.2021382
0.2039308
0.2055753
0.2070128
0.2082025
0.2091203
0.2097749
0.2102001
0.210517
0.210876
0.2118669
0.2131179
0.2158202
0.1984443
0.200251
0.2019873
0.2035786
0.2049694
0.206121
0.2070152
0.207656
0.2080926
0.2084127
0.2088016
0.2096771
0.2106464
0.2118586
0.214434
0.1966202
0.1983644
0.2000347
0.2015625
0.2028963
0.2039998
0.2048528
0.2054589
0.2058519
0.2061284
0.2064465
0.2072697
0.2080771
0.2089746
0.2101035
0.2123575
0.194815
0.1964926
0.1980906
0.1995488
0.2008203
0.2018695
0.2026725
0.2032212
0.2035348
0.2036806
0.2038423
0.2045241
0.205226
0.205927
0.2067255
0.2075867
0.2107612
0.1930504
0.1946611
0.1961866
0.1975761
0.1987872
0.1997839
0.2005364
0.2010202
0.2012177
0.201138
0.2009214
0.2013693
0.2018748
0.2024451
0.2030438
0.2035973
0.2052061
0.2082236
0.1913554
0.1929059
0.1943688
0.1957007
0.1968622
0.1978174
0.1985319
0.1989653
0.1990523
0.1986474
0.1973515
0.1974298
0.1977637
0.1982248
0.1987545
0.1991462
0.2003493
0.2017262
0.2044428
0.1904381
0.1915422
0.1924503
0.1932192
0.1938526
0.194221
0.1951982
0.1961501
0.1972323
0.1994896
0.1858474
0.1869908
0.1879778
0.1888024
0.189454
0.1897844
0.190676
0.1914489
0.1921567
0.1929534
0.1947037
0.1824142
0.1835107
0.1844714
0.1852798
0.185912
0.1862332
0.1870752
0.1878216
0.1884273
0.1889364
0.1894534
0.1908333
0.1798499
0.1809087
0.181842
0.1826323
0.1832576
0.1835874
0.1844267
0.1851793
0.1858231
0.1863109
0.1866363
0.1869831
0.1881861
0.1780334
0.1790744
0.1799976
0.1807869
0.1814225
0.1817843
0.1826423
0.1834374
0.1841404
0.1847272
0.1851085
0.1853499
0.1856708
0.1868171
0.2057967
0.2077669
0.2096417
0.2113592
0.2128586
0.2140741
0.2149513
0.2153971
0.2154037
0.2149052
0.214806
0.2038664
0.2057933
0.2076301
0.2093112
0.2107769
0.2119742
0.2128459
0.2133587
0.2134487
0.2132218
0.2130057
0.2154884
0.2020243
0.2039149
0.2057237
0.2073797
0.208825
0.2100105
0.210903
0.2114736
0.2117511
0.2117833
0.2118946
0.2129203
0.2155978
0.2002261
0.2020779
0.2038551
0.2054836
0.2069059
0.2080803
0.2089792
0.2096048
0.2099816
0.2102245
0.2104918
0.2114069
0.2125825
0.2152491
0.1984443
0.200251
0.2019873
0.2035786
0.2049694
0.206121
0.2070152
0.207656
0.2080926
0.2084127
0.2088016
0.2096771
0.2106464
0.2118586
0.214434
0.1966663
0.1984208
0.2001052
0.2016477
0.2029954
0.2041128
0.2049828
0.2056151
0.2060512
0.2063929
0.2067899
0.2076753
0.2085454
0.2095041
0.2106866
0.2129474
0.1948926
0.1965888
0.1982115
0.1996948
0.2009896
0.2020617
0.2028937
0.2034896
0.203888
0.2041754
0.2045215
0.2053396
0.2061708
0.206991
0.2078982
0.2088482
0.2120549
0.1931353
0.1947689
0.1963234
0.1977413
0.1989775
0.1999986
0.2007828
0.2013241
0.2016418
0.2018072
0.2019909
0.2026909
0.2034037
0.2041468
0.2048946
0.205584
0.2073297
0.2104604
0.1914157
0.1929859
0.1944718
0.1958247
0.1970039
0.1979753
0.1987114
0.1991897
0.1993953
0.1993386
0.1991618
0.1996271
0.2001677
0.2007684
0.2014303
0.2019743
0.2033631
0.2049494
0.2079266
0.189762
0.1912751
0.1927017
0.1940002
0.1951325
0.1960647
0.1967643
0.1971937
0.1972912
0.1969198
0.1956994
0.1958141
0.1961809
0.1966915
0.1972704
0.1977564
0.1989304
0.2001184
0.201474
0.2041553
0.189013
0.1901165
0.1910407
0.191838
0.1925275
0.1929732
0.1940308
0.1949955
0.1959318
0.1969931
0.1991627
0.1845493
0.1856931
0.1866913
0.1875437
0.1882396
0.1886527
0.1896112
0.190492
0.1912522
0.1919443
0.1926718
0.1943835
0.1811963
0.1822947
0.1832667
0.1840985
0.1847727
0.1851611
0.1860714
0.1869038
0.1876394
0.1882324
0.1886817
0.1891708
0.1905968
0.1786806
0.1797412
0.1806845
0.1814954
0.182155
0.1825439
0.183434
0.1842648
0.185008
0.185641
0.1860751
0.1863785
0.1867709
0.1880285
0.1768882
0.1779298
0.1788606
0.1796664
0.1803302
0.1807389
0.1816377
0.1824882
0.1832748
0.1839682
0.1845057
0.1848686
0.185155
0.1855278
0.1867373
0.205454
0.2037913
0.2056927
0.2074992
0.2091522
0.2105934
0.2117677
0.2126089
0.2130573
0.2129766
0.2122365
0.2103341
0.2120815
0.201925
0.203788
0.2055614
0.2071826
0.2085963
0.2097508
0.2106027
0.2110999
0.2112207
0.2109283
0.2104916
0.2111396
0.2135237
0.2001408
0.2019718
0.2037212
0.2053212
0.206717
0.2078648
0.2087303
0.209301
0.2095784
0.2096528
0.2096952
0.2104325
0.2114363
0.2139958
0.1983968
0.2001927
0.2019143
0.2034903
0.2048665
0.2060036
0.2068799
0.2074932
0.2078844
0.2081352
0.2084397
0.2092469
0.2101462
0.2112929
0.2138444
0.1966663
0.1984208
0.2001052
0.2016477
0.2029954
0.2041128
0.2049828
0.2056151
0.2060512
0.2063929
0.2067899
0.2076753
0.2085454
0.2095041
0.2106866
0.2129474
0.1949374
0.1966435
0.1982799
0.1997772
0.2010853
0.2021708
0.2030191
0.2036399
0.2040793
0.2044286
0.2048489
0.2057244
0.2066126
0.2074872
0.2084449
0.2094356
0.2126448
0.1932108
0.1948623
0.1964407
0.1978827
0.1991412
0.2001844
0.2009964
0.2015829
0.2019817
0.2022821
0.2026407
0.2034683
0.2043001
0.2051511
0.2059943
0.2067677
0.2085927
0.2117535
0.1914983
0.1930906
0.1946047
0.1959849
0.1971883
0.1981832
0.1989498
0.1994832
0.1998043
0.1999824
0.2001879
0.2008911
0.201625
0.2023828
0.2031777
0.2038382
0.205352
0.2070741
0.2101611
0.1898207
0.1913529
0.1928019
0.1941206
0.19527
0.1962179
0.1969382
0.1974108
0.1976226
0.1975861
0.1974398
0.1979214
0.1984795
0.1991152
0.1998085
0.2004267
0.2017572
0.2031305
0.2046943
0.2076317
0.1882058
0.1896838
0.1910765
0.1923436
0.1934486
0.1943592
0.1950447
0.1954697
0.1955763
0.1952339
0.1940806
0.1942221
0.1946174
0.195157
0.1957836
0.1963264
0.1975538
0.1987161
0.1998889
0.2012234
0.2038096
0.187604
0.1887035
0.1896348
0.190454
0.1911775
0.191691
0.1927932
0.1938402
0.1947925
0.1957131
0.196703
0.1988282
0.1832601
0.1844005
0.1854047
0.1862743
0.1870045
0.1874742
0.188488
0.189437
0.1903069
0.1910543
0.1916858
0.1923838
0.19414
0.1799839
0.1810809
0.1820592
0.1829076
0.1836113
0.1840531
0.1850065
0.1859083
0.1867312
0.1874558
0.1879947
0.1884215
0.1889561
0.1904363
0.1775155
0.1785753
0.1795246
0.18035
0.1810357
0.1814692
0.1823969
0.1832793
0.1841017
0.1848353
0.1854187
0.1858342
0.1861827
0.1866271
0.187948
0.1757475
0.1767877
0.1777228
0.1785404
0.1792256
0.1796718
0.1805981
0.1814899
0.1823327
0.1831108
0.1837581
0.1842795
0.1846865
0.1850231
0.1854549
0.1997192
0.202219
0.2048663
0.2018525
0.2036912
0.2054356
0.2070301
0.2084206
0.2095536
0.2103768
0.2108147
0.2107762
0.2100104
0.2080142
0.2080355
0.2099622
0.2000449
0.2018494
0.2035649
0.2051317
0.2064975
0.2076159
0.2084432
0.2089446
0.2090757
0.2088473
0.2083841
0.2087765
0.2094778
0.2118023
0.1983142
0.2000902
0.201785
0.2033338
0.2046847
0.2057966
0.2066412
0.2072026
0.2075001
0.2075928
0.2076887
0.2083356
0.2090767
0.2100778
0.2125514
0.1966202
0.1983644
0.2000347
0.2015625
0.2028963
0.2039998
0.2048528
0.2054589
0.2058519
0.2061284
0.2064465
0.2072697
0.2080771
0.2089746
0.2101035
0.2123575
0.1949374
0.1966435
0.1982799
0.1997772
0.2010853
0.2021708
0.2030191
0.2036399
0.2040793
0.2044286
0.2048489
0.2057244
0.2066126
0.2074872
0.2084449
0.2094356
0.2126448
0.1932543
0.1949153
0.196507
0.1979625
0.1992338
0.2002898
0.2011174
0.2017278
0.2021658
0.2025251
0.2029539
0.2038352
0.2047193
0.2056194
0.206507
0.2073198
0.2091808
0.2123431
0.1915718
0.1931813
0.1947186
0.196122
0.197347
0.1983631
0.1991563
0.1997332
0.200132
0.2004393
0.2008114
0.2016348
0.2024795
0.2033358
0.204216
0.2049492
0.2065376
0.2083382
0.2114532
0.1899012
0.1914548
0.1929311
0.1942762
0.1954489
0.1964194
0.1971691
0.1976948
0.1980177
0.1982067
0.1984266
0.199134
0.1998731
0.200654
0.2014664
0.2021872
0.2036236
0.2051212
0.2068197
0.2098633
0.1882631
0.1897596
0.191174
0.1924607
0.1935822
0.1945079
0.1952134
0.1956801
0.1958969
0.1958773
0.1957575
0.196248
0.1968217
0.1974744
0.1982023
0.1988597
0.2002231
0.2015417
0.2028994
0.2044409
0.2072771
0.1866846
0.1881296
0.1894904
0.190728
0.1918075
0.1926977
0.1933699
0.1937904
0.1939045
0.1935879
0.1924942
0.192658
0.1930724
0.1936363
0.1942902
0.1948861
0.1961348
0.1973526
0.1985031
0.1996609
0.2009219
0.2034558
0.1862126
0.1873054
0.1882398
0.1890713
0.1898213
0.1903788
0.1915198
0.1926129
0.1936494
0.1945891
0.195448
0.1964064
0.1985737
0.1819817
0.1831163
0.1841224
0.1850033
0.1857563
0.1862711
0.1873168
0.1883222
0.1892617
0.1901207
0.1908133
0.1914214
0.1921649
0.1939747
0.1787789
0.1798721
0.1808533
0.1817129
0.1824384
0.1829198
0.1839048
0.1848506
0.1857439
0.1865572
0.1872319
0.1877518
0.1882239
0.1888106
0.1903543
0.1763564
0.1774135
0.1783656
0.1792013
0.1799065
0.1803752
0.1813278
0.1822486
0.1831233
0.1839372
0.1846245
0.1851917
0.1856513
0.1860502
0.1865538
0.1746129
0.1756501
0.1765871
0.1774129
0.1781144
0.1785903
0.1795361
0.180456
0.1813409
0.1821759
0.1829107
0.1835436
0.1841079
0.1845632
0.1849558
0.1957537
0.1971609
0.1994348
0.2004996
0.2017142
0.2039905
0.1999749
0.201756
0.2034437
0.204985
0.2063289
0.2074269
0.2082273
0.2086724
0.2086543
0.2079816
0.206068
0.2058946
0.2062372
0.2082274
0.1982213
0.1999719
0.2016342
0.2031512
0.2044735
0.2055575
0.2063658
0.2068615
0.2070205
0.2068287
0.2064522
0.2067864
0.2072526
0.2080146
0.2103071
0.1965401
0.1982652
0.1999097
0.2014114
0.202721
0.2038005
0.2046232
0.20518
0.205484
0.2056113
0.205734
0.2064102
0.2070759
0.2078391
0.2088508
0.2110636
0.1948926
0.1965888
0.1982115
0.1996948
0.2009896
0.2020617
0.2028937
0.2034896
0.203888
0.2041754
0.2045215
0.2053396
0.2061708
0.206991
0.2078982
0.2088482
0.2120549
0.1932543
0.1949153
0.196507
0.1979625
0.1992338
0.2002898
0.2011174
0.2017278
0.2021658
0.2025251
0.2029539
0.2038352
0.2047193
0.2056194
0.206507
0.2073198
0.2091808
0.2123431
0.1916141
0.1932329
0.1947829
0.1961995
0.1974367
0.198465
0.1992732
0.1998731
0.2003095
0.2006731
0.2011119
0.2019858
0.2028791
0.2037802
0.2047
0.2054674
0.2070907
0.208927
0.2120424
0.1899727
0.1915431
0.1930417
0.1944093
0.1956028
0.1965937
0.1973691
0.1979366
0.1983343
0.1986472
0.1990262
0.1998475
0.2006905
0.2015624
0.2024518
0.2032364
0.2047366
0.2063086
0.2080848
0.211154
0.1883416
0.1898588
0.1912997
0.1926119
0.193756
0.1947034
0.1954373
0.1959553
0.1962792
0.1964766
0.1967085
0.1974141
0.1981586
0.198946
0.1997826
0.2005303
0.2019859
0.20341
0.2048916
0.2065666
0.2095047
0.1867406
0.1882036
0.1895854
0.190842
0.1919374
0.1928422
0.1935337
0.1939946
0.1942151
0.1942102
0.1941129
0.1946099
0.1951916
0.1958588
0.1966029
0.1973005
0.1986673
0.2000209
0.2013276
0.2026699
0.2041361
0.2069142
0.1851965
0.1866103
0.1879411
0.189151
0.1902064
0.1910776
0.191737
0.192153
0.1922736
0.1919799
0.1909397
0.1911215
0.1915509
0.19213
0.192806
0.1934334
0.1947039
0.1959445
0.1971526
0.1982914
0.1993866
0.2006136
0.2031868
0.1848398
0.1859241
0.1868581
0.1876974
0.1884636
0.1890563
0.1902154
0.1913484
0.1924323
0.1934582
0.1943425
0.1951769
0.196181
0.198401
0.1807155
0.1818425
0.1828475
0.1837351
0.1845045
0.1850518
0.1861203
0.1871585
0.1881554
0.1890853
0.1898939
0.190567
0.1912207
0.1920166
0.1938902
0.1775827
0.1786706
0.1796519
0.1805186
0.1812602
0.1817726
0.1827774
0.1837555
0.1846935
0.1855782
0.186345
0.1870032
0.1875674
0.18809
0.1887363
0.1752046
0.1762574
0.1772102
0.1780527
0.1787726
0.1792691
0.1802391
0.1811853
0.1820991
0.1829661
0.1837364
0.1844093
0.1850195
0.1855276
0.1859826
0.1734852
0.1745182
0.1754554
0.1762867
0.1770005
0.1775003
0.1784594
0.1793993
0.1803128
0.1811906
0.1819846
0.1827063
0.183381
0.1839918
0.1845005
0.1931827
0.1936331
0.1955315
0.1958078
0.1969096
0.1989051
0.1990436
0.2000356
0.2009568
0.2029717
0.1981535
0.1998815
0.2015173
0.2030098
0.2043112
0.2053759
0.2061585
0.206601
0.2066184
0.2060077
0.2042676
0.2040902
0.2042404
0.2047548
0.2067623
0.1964501
0.1981507
0.1997639
0.2012351
0.2025173
0.2035702
0.2043584
0.2048525
0.2050249
0.2048827
0.2045611
0.2049486
0.205368
0.2059149
0.2067375
0.2088236
0.194815
0.1964926
0.1980906
0.1995488
0.2008203
0.2018695
0.2026725
0.2032212
0.2035348
0.2036806
0.2038423
0.2045241
0.205226
0.205927
0.2067255
0.2075867
0.2107612
0.1932108
0.1948623
0.1964407
0.1978827
0.1991412
0.2001844
0.2009964
0.2015829
0.2019817
0.2022821
0.2026407
0.2034683
0.2043001
0.2051511
0.2059943
0.2067677
0.2085927
0.2117535
0.1916141
0.1932329
0.1947829
0.1961995
0.1974367
0.198465
0.1992732
0.1998731
0.2003095
0.2006731
0.2011119
0.2019858
0.2028791
0.2037802
0.2047
0.2054674
0.2070907
0.208927
0.2120424
0.1900139
0.1915933
0.1931042
0.1944845
0.1956899
0.1966925
0.1974823
0.198072
0.1985057
0.1988726
0.1993153
0.2001842
0.2010728
0.201986
0.2029111
0.2037259
0.2052558
0.2068625
0.2086739
0.2117426
0.1884113
0.1899448
0.1914073
0.1927413
0.1939054
0.1948726
0.1956312
0.1961895
0.1965854
0.196902
0.1972865
0.1981002
0.1989427
0.1998149
0.2007219
0.2015261
0.2030371
0.2045248
0.2060804
0.2078323
0.2107934
0.1868171
0.1883003
0.1897078
0.1909892
0.1921064
0.1930323
0.1937511
0.1942615
0.1945855
0.1947899
0.1950311
0.1957335
0.196477
0.1972704
0.1981141
0.1988928
0.2003401
0.2017857
0.2031977
0.2046632
0.2062618
0.2091377
0.1852511
0.1866824
0.1880337
0.1892621
0.1903329
0.1912181
0.1918963
0.1923513
0.192575
0.1925826
0.1925049
0.1930056
0.1935926
0.1942666
0.195024
0.1957421
0.1971175
0.1984761
0.19982
0.2011149
0.2023939
0.2038244
0.2066381
0.1837392
0.1851239
0.1864264
0.1876103
0.188643
0.1894961
0.1901435
0.190555
0.1906811
0.190408
0.1894162
0.189613
0.1900535
0.1906437
0.1913325
0.1919855
0.1932595
0.1945229
0.1957553
0.1969539
0.1980369
0.1991063
0.2003793
0.2030041
0.1834861
0.1845606
0.1854919
0.1863349
0.1871124
0.187729
0.1888998
0.1900517
0.1911766
0.1922514
0.1932265
0.1940905
0.1949711
0.1960282
0.1983127
0.1794623
0.1805806
0.1815824
0.1824734
0.183254
0.1838264
0.184907
0.1859686
0.1869991
0.1879875
0.1888706
0.1896622
0.1903801
0.1910847
0.1919409
0.1763961
0.1774775
0.1784571
0.1793279
0.1800811
0.1806178
0.1816355
0.1826338
0.1836049
0.1845352
0.1853762
0.1861283
0.1868297
0.1874427
0.1880218
0.1740608
0.1751084
0.1760601
0.1769069
0.1776377
0.1781566
0.1791378
0.1801018
0.1810417
0.1819484
0.1827742
0.1835315
0.1842461
0.184903
0.1854646
0.1723651
0.1733931
0.174329
0.1751638
0.1758869
0.176406
0.1773738
0.1783273
0.1792613
0.1801683
0.1810071
0.1817893
0.1825515
0.183271
0.1839327
0.1919103
0.1913351
0.192977
0.1925318
0.1934328
0.1950946
0.1946549
0.195577
0.1964398
0.1981713
0.1976463
0.1986114
0.1993405
0.2000692
0.2018796
0.1963844
0.1980632
0.1996509
0.2010986
0.2023609
0.2033952
0.2041591
0.2046023
0.2046401
0.2040997
0.2024895
0.2024052
0.2025483
0.2028807
0.2034924
0.2053169
0.1947276
0.1963816
0.1979494
0.1993783
0.2006236
0.2016473
0.2024173
0.2029061
0.2030941
0.2029833
0.2027242
0.2031375
0.2036144
0.2041242
0.2047514
0.2054645
0.2085226
0.1931353
0.1947689
0.1963234
0.1977413
0.1989775
0.1999986
0.2007828
0.2013241
0.2016418
0.2018072
0.2019909
0.2026909
0.2034037
0.2041468
0.2048946
0.205584
0.2073297
0.2104604
0.1915718
0.1931813
0.1947186
0.196122
0.197347
0.1983631
0.1991563
0.1997332
0.200132
0.2004393
0.2008114
0.2016348
0.2024795
0.2033358
0.204216
0.2049492
0.2065376
0.2083382
0.2114532
0.1900139
0.1915933
0.1931042
0.1944845
0.1956899
0.1966925
0.1974823
0.198072
0.1985057
0.1988726
0.1993153
0.2001842
0.2010728
0.201986
0.2029111
0.2037259
0.2052558
0.2068625
0.2086739
0.2117426
0.1884515
0.1899937
0.1914681
0.1928144
0.19399
0.1949685
0.1957411
0.1963206
0.1967513
0.1971197
0.1975651
0.1984241
0.1993095
0.2002201
0.2011598
0.2019907
0.2035276
0.205045
0.2066351
0.2084218
0.211381
0.1868851
0.1883841
0.1898127
0.1911152
0.1922517