/*--------------------------------*- C++ -*----------------------------------*\
| =========                 |                                                 |
| \\      /  F ield         | OpenFOAM: The Open Source CFD Toolbox           |
|  \\    /   O peration     | Version:  2306                                  |
|   \\  /    A nd           | Website:  www.openfoam.com                      |
|    \\/     M anipulation  |                                                 |
\*---------------------------------------------------------------------------*/
FoamFile
{
    version     2.0;
    format      ascii;
    arch        "LSB;label=32;scalar=64";
    class       volScalarField;
    location    "0.6/air";
    object      T;
}
// * * * * * * * * * * * * * * * * * * * * * * * * * * * * * * * * * * * * * //

dimensions      [0 0 0 1 0 0 0];

internalField   nonuniform List<scalar> 
16000
(
1199.37
1186.908
1213.841
1186.68
1179.937
1211.078
1156.286
1217.477
1211.026
1179.509
1175.95
1208.686
1137.236
1216.484
1202.873
1136.916
1220.36
1216.536
1208.58
1175.285
1174.094
1206.925
1125.783
1215.599
1195.723
1108.306
1219.929
1213.633
1195.608
1124.927
1222.893
1220.017
1215.688
1206.743
1173.11
1174.094
1205.992
1120.344
1214.923
1190.42
1090.344
1219.559
1210.994
1184.045
1089.624
1222.662
1218.817
1211.029
1190.094
1118.648
1225.193
1222.755
1219.717
1215.047
1205.711
1172.674
1213.371
1175.95
1205.992
1120.344
1214.557
1187.6
1081.609
1219.281
1208.961
1175.364
1066.796
1222.474
1217.747
1206.724
1175.065
1079.61
1225.038
1222.152
1217.835
1209.018
1186.962
1117.448
1227.311
1225.127
1222.644
1219.514
1214.722
1205.604
1173.951
1213.297
1216.282
1215.091
1179.937
1206.925
1125.783
1214.557
1187.6
1081.609
1219.132
1207.85
1170.716
1055.505
1222.338
1216.931
1203.366
1163.669
1053.954
1224.918
1221.636
1216.123
1203.377
1169.912
1077.68
1227.187
1224.746
1221.736
1217.129
1207.941
1186.593
1121.28
1229.277
1227.269
1225.081
1222.591
1219.454
1214.788
1206.461
1177.169
1213.134
1216.274
1214.982
1219.105
1217.851
1216.824
1186.908
1208.686
1137.236
1214.923
1190.42
1090.344
1219.132
1207.85
1170.716
1055.505
1222.267
1216.487
1201.519
1157.528
1041.141
1224.835
1221.254
1214.797
1198.934
1156.903
1051.449
1227.095
1224.433
1220.938
1214.925
1201.542
1169.267
1083.816
1229.169
1226.976
1224.53
1221.484
1216.841
1208.03
1189.097
1130.634
1231.111
1229.243
1227.244
1225.076
1222.618
1219.573
1215.277
1208.251
1183.027
1212.814
1216.261
1214.722
1219.112
1217.843
1216.686
1221.665
1220.479
1219.42
1218.573
1199.37
1211.078
1156.286
1215.599
1195.723
1108.306
1219.281
1208.961
1175.364
1066.796
1222.267
1216.487
1201.519
1157.528
1041.141
1224.793
1221.05
1214.07
1196.477
1149.866
1038.319
1227.033
1224.21
1220.338
1213.198
1196.469
1156.024
1059.311
1229.09
1226.742
1224.066
1220.495
1214.397
1201.62
1173.301
1098.501
1231.013
1228.99
1226.831
1224.434
1221.464
1217.077
1209.364
1194.312
1146.874
1232.828
1231.08
1229.224
1227.254
1225.128
1222.745
1219.894
1216.185
1210.921
1193.538
1211.907
1216.257
1214.158
1219.131
1217.834
1216.352
1221.675
1220.495
1219.413
1218.415
1224.003
1222.86
1221.849
1220.99
1220.342
1213.841
1186.68
1216.484
1202.873
1136.916
1219.559
1210.994
1184.045
1089.624
1222.338
1216.931
1203.366
1163.669
1053.954
1224.793
1221.05
1214.07
1196.477
1149.866
1038.319
1227.002
1224.094
1220.015
1212.244
1193.653
1148.853
1047.105
1229.037
1226.58
1223.729
1219.741
1212.463
1196.518
1161.254
1077.894
1230.941
1228.791
1226.493
1223.884
1220.416
1214.715
1203.721
1181.664
1123.028
1232.737
1230.849
1228.872
1226.786
1224.497
1221.728
1217.89
1211.872
1201.86
1173.26
1234.439
1232.797
1231.063
1229.237
1227.309
1225.248
1222.989
1220.436
1217.541
1214.596
1205.434
1216.362
1212.679
1219.189
1217.844
1215.64
1221.701
1220.541
1219.402
1218.037
1224.014
1222.882
1221.874
1220.982
1220.175
1226.162
1225.047
1224.052
1223.216
1222.561
1221.289
1217.477
1211.026
1179.509
1219.929
1213.633
1195.608
1124.927
1222.474
1217.747
1206.724
1175.065
1079.61
1224.835
1221.254
1214.797
1198.934
1156.903
1051.449
1227.002
1224.094
1220.015
1212.244
1193.653
1148.853
1047.105
1229.01
1226.497
1223.552
1219.331
1211.387
1193.679
1154.739
1067.743
1230.893
1228.655
1226.255
1223.48
1219.606
1212.826
1199.211
1172.049
1108.138
1232.67
1230.669
1228.588
1226.399
1223.948
1220.783
1215.943
1207.658
1193.515
1160.313
1234.354
1232.583
1230.742
1228.842
1226.868
1224.751
1222.315
1219.284
1215.403
1211.221
1197.686
1235.954
1234.409
1232.781
1231.074
1229.289
1227.418
1225.451
1223.378
1221.277
1219.647
1217.806
1207.678
1219.463
1217.983
1214.001
1221.771
1220.669
1219.409
1217.263
1224.041
1222.941
1221.938
1220.968
1219.779
1226.172
1225.07
1224.083
1223.245
1222.552
1221.122
1228.169
1227.08
1226.087
1225.238
1224.578
1223.392
1221.391
1220.36
1216.536
1208.58
1175.285
1222.662
1218.817
1211.029
1190.094
1118.648
1224.918
1221.636
1216.123
1203.377
1169.912
1077.68
1227.033
1224.21
1220.338
1213.198
1196.469
1156.024
1059.311
1229.01
1226.497
1223.552
1219.331
1211.387
1193.679
1154.739
1067.743
1230.869
1228.586
1226.133
1223.265
1219.162
1211.77
1196.698
1166.861
1100.905
1232.625
1230.546
1228.391
1226.123
1223.537
1220.039
1214.359
1204.251
1187.14
1152.276
1234.291
1232.415
1230.485
1228.521
1226.499
1224.304
1221.643
1218.037
1213.018
1207.606
1191.531
1235.874
1234.208
1232.482
1230.716
1228.923
1227.101
1225.227
1223.26
1221.274
1219.875
1217.097
1201.586
1237.382
1235.925
1234.393
1232.79
1231.121
1229.388
1227.596
1225.766
1223.999
1222.764
1222.079
1218.724
1210.078
1222.07
1221.101
1219.507
1215.678
1224.11
1223.091
1222.099
1220.96
1219.008
1226.197
1225.128
1224.165
1223.319
1222.533
1220.729
1228.179
1227.101
1226.12
1225.276
1224.61
1223.383
1221.224
1230.045
1228.982
1227.994
1227.122
1226.418
1225.294
1223.481
1221.494
1222.893
1220.017
1215.688
1206.743
1173.11
1225.038
1222.152
1217.835
1209.018
1186.962
1117.448
1227.095
1224.433
1220.938
1214.925
1201.542
1169.267
1083.816
1229.037
1226.58
1223.729
1219.741
1212.463
1196.518
1161.254
1077.894
1230.869
1228.586
1226.133
1223.265
1219.162
1211.77
1196.698
1166.861
1100.905
1232.603
1230.484
1228.29
1225.98
1223.317
1219.625
1213.465
1202.342
1183.697
1148.377
1234.249
1232.301
1230.309
1228.297
1226.233
1223.961
1221.085
1216.962
1210.983
1204.701
1187.385
1235.815
1234.05
1232.243
1230.427
1228.624
1226.828
1224.99
1223.006
1220.881
1219.31
1215.83
1196.482
1237.306
1235.735
1234.111
1232.456
1230.791
1229.136
1227.514
1225.969
1224.633
1223.971
1222.905
1218.235
1205.3
1238.728
1237.354
1235.909
1234.4
1232.833
1231.212
1229.547
1227.868
1226.277
1225.188
1224.784
1222.793
1219.848
1212.597
1224.393
1223.57
1222.536
1220.994
1217.582
1226.262
1225.276
1224.357
1223.485
1222.505
1219.982
1228.202
1227.157
1226.202
1225.37
1224.685
1223.361
1220.832
1230.054
1229.002
1228.025
1227.161
1226.46
1225.327
1223.472
1221.326
1231.804
1230.771
1229.792
1228.903
1228.151
1227.038
1225.371
1223.571
1221.596
1225.193
1222.755
1219.717
1215.047
1205.711
1172.674
1227.187
1224.746
1221.736
1217.129
1207.941
1186.593
1121.28
1229.09
1226.742
1224.066
1220.495
1214.397
1201.62
1173.301
1098.501
1230.893
1228.655
1226.255
1223.48
1219.606
1212.826
1199.211
1172.049
1108.138
1232.603
1230.484
1228.29
1225.98
1223.317
1219.625
1213.465
1202.342
1183.697
1148.377
1234.228
1232.244
1230.219
1228.182
1226.093
1223.773
1220.768
1216.339
1209.82
1203.102
1185.309
1235.776
1233.943
1232.079
1230.227
1228.413
1226.624
1224.785
1222.73
1220.405
1218.624
1214.681
1192.958
1237.25
1235.586
1233.886
1232.187
1230.522
1228.923
1227.416
1226.034
1224.87
1224.351
1223.061
1217.275
1201.145
1238.657
1237.174
1235.642
1234.085
1232.523
1230.984
1229.504
1228.147
1227.058
1226.597
1225.974
1223.548
1219.466
1208.889
1239.999
1238.701
1237.337
1235.915
1234.439
1232.916
1231.356
1229.79
1228.313
1227.291
1226.931
1225.382
1223.658
1221.095
1215.201
1226.521
1225.735
1224.855
1223.86
1222.473
1218.665
1228.262
1227.295
1226.392
1225.574
1224.836
1223.322
1220.087
1230.076
1229.054
1228.103
1227.257
1226.558
1225.401
1223.45
1220.935
1231.812
1230.79
1229.821
1228.941
1228.194
1227.08
1225.404
1223.561
1221.429
1233.458
1232.457
1231.494
1230.597
1229.807
1228.691
1227.104
1225.449
1223.66
1221.699
1227.311
1225.127
1222.644
1219.514
1214.722
1205.604
1173.951
1229.169
1226.976
1224.53
1221.484
1216.841
1208.03
1189.097
1130.634
1230.941
1228.791
1226.493
1223.884
1220.416
1214.715
1203.721
1181.664
1123.028
1232.625
1230.546
1228.391
1226.123
1223.537
1220.039
1214.359
1204.251
1187.14
1152.276
1234.228
1232.244
1230.219
1228.182
1226.093
1223.773
1220.768
1216.339
1209.82
1203.102
1185.309
1235.756
1233.889
1231.996
1230.125
1228.303
1226.515
1224.666
1222.555
1220.097
1218.191
1214.021
1191.174
1237.213
1235.485
1233.732
1232.001
1230.335
1228.77
1227.327
1226.022
1224.906
1224.411
1222.979
1216.374
1198.212
1238.604
1237.033
1235.43
1233.831
1232.273
1230.795
1229.448
1228.298
1227.471
1227.235
1226.536
1223.763
1218.732
1205.583
1239.932
1238.531
1237.085
1235.616
1234.146
1232.7
1231.318
1230.067
1229.082
1228.663
1228.144
1226.428
1224.281
1220.768
1212.394
1241.2
1239.973
1238.685
1237.343
1235.95
1234.515
1233.048
1231.577
1230.188
1229.208
1228.826
1227.448
1226.103
1224.603
1222.417
1216.606
1228.497
1227.717
1226.874
1226.018
1225.125
1223.257
1218.782
1230.13
1229.181
1228.281
1227.46
1226.752
1225.539
1223.41
1220.194
1231.833
1230.838
1229.894
1229.032
1228.295
1227.178
1225.478
1223.54
1221.039
1233.466
1232.475
1231.521
1230.632
1229.848
1228.734
1227.147
1225.481
1223.651
1221.532
1235.016
1234.05
1233.107
1232.212
1231.396
1230.28
1228.749
1227.171
1225.526
1223.75
1221.796
1229.277
1227.269
1225.081
1222.591
1219.454
1214.788
1206.461
1177.169
1231.013
1228.99
1226.831
1224.434
1221.464
1217.077
1209.364
1194.312
1146.874
1232.67
1230.669
1228.588
1226.399
1223.948
1220.783
1215.943
1207.658
1193.515
1160.313
1234.249
1232.301
1230.309
1228.297
1226.233
1223.961
1221.085
1216.962
1210.983
1204.701
1187.385
1235.756
1233.889
1231.996
1230.125
1228.303
1226.515
1224.666
1222.555
1220.097
1218.191
1214.021
1191.174
1237.195
1235.434
1233.653
1231.906
1230.238
1228.689
1227.274
1225.996
1224.887
1224.389
1222.886
1215.848
1196.711
1238.569
1236.937
1235.284
1233.655
1232.098
1230.66
1229.394
1228.362
1227.662
1227.52
1226.787
1223.753
1218.031
1203.203
1239.882
1238.398
1236.884
1235.376
1233.908
1232.522
1231.271
1230.229
1229.516
1229.337
1228.79
1226.972
1224.507
1220.202
1209.847
1241.136
1239.812
1238.446
1237.059
1235.671
1234.308
1233.007
1231.83
1230.901
1230.477
1229.964
1228.507
1226.963
1225.081
1222.12
1214.215
1242.334
1241.175
1239.958
1238.69
1237.375
1236.021
1234.637
1233.251
1231.939
1230.993
1230.577
1229.282
1228.07
1226.885
1225.592
1223.139
1216.758
1230.345
1229.566
1228.728
1227.897
1227.113
1225.778
1223.342
1218.901
1231.883
1230.955
1230.059
1229.224
1228.491
1227.36
1225.614
1223.498
1220.301
1233.485
1232.52
1231.588
1230.718
1229.945
1228.835
1227.245
1225.555
1223.629
1221.143
1235.023
1234.066
1233.132
1232.245
1231.435
1230.322
1228.793
1227.214
1225.558
1223.741
1221.63
1236.486
1235.556
1234.638
1233.753
1232.925
1231.815
1230.331
1228.807
1227.238
1225.603
1223.834
1221.871
1231.111
1229.243
1227.244
1225.076
1222.618
1219.573
1215.277
1208.251
1183.027
1232.737
1230.849
1228.872
1226.786
1224.497
1221.728
1217.89
1211.872
1201.86
1173.26
1234.291
1232.415
1230.485
1228.521
1226.499
1224.304
1221.643
1218.037
1213.018
1207.606
1191.531
1235.776
1233.943
1232.079
1230.227
1228.413
1226.624
1224.785
1222.73
1220.405
1218.624
1214.681
1192.958
1237.195
1235.434
1233.653
1231.906
1230.238
1228.689
1227.274
1225.996
1224.887
1224.389
1222.886
1215.848
1196.711
1238.551
1236.889
1235.21
1233.566
1232.009
1230.589
1229.362
1228.382
1227.733
1227.627
1226.88
1223.704
1217.619
1201.973
1239.849
1238.307
1236.745
1235.209
1233.742
1232.395
1231.226
1230.309
1229.739
1229.673
1229.128
1227.234
1224.539
1219.664
1207.983
1241.089
1239.686
1238.256
1236.831
1235.445
1234.137
1232.959
1231.98
1231.311
1231.117
1230.595
1229.114
1227.455
1225.286
1221.682
1212.032
1242.273
1241.023
1239.732
1238.421
1237.11
1235.822
1234.592
1233.477
1232.588
1232.15
1231.619
1230.274
1228.943
1227.558
1225.926
1222.85
1214.41
1243.405
1242.31
1241.16
1239.962
1238.72
1237.441
1236.135
1234.825
1233.583
1232.671
1232.226
1230.983
1229.828
1228.742
1227.697
1226.126
1223.217
1216.91
1232.079
1231.306
1230.468
1229.633
1228.854
1227.673
1225.848
1223.426
1219.021
1233.531
1232.628
1231.742
1230.897
1230.132
1229.021
1227.425
1225.69
1223.586
1220.409
1235.041
1234.108
1233.196
1232.325
1231.527
1230.419
1228.893
1227.311
1225.631
1223.718
1221.242
1236.493
1235.572
1234.663
1233.784
1232.961
1231.855
1230.373
1228.851
1227.28
1225.635
1223.825
1221.705
1237.875
1236.983
1236.094
1235.223
1234.393
1233.298
1231.86
1230.382
1228.865
1227.304
1225.675
1223.898
1221.931
1232.828
1231.08
1229.224
1227.254
1225.128
1222.745
1219.894
1216.185
1210.921
1193.538
1234.354
1232.583
1230.742
1228.842
1226.868
1224.751
1222.315
1219.284
1215.403
1211.221
1197.686
1235.815
1234.05
1232.243
1230.427
1228.624
1226.828
1224.99
1223.006
1220.881
1219.31
1215.83
1196.482
1237.213
1235.485
1233.732
1232.001
1230.335
1228.77
1227.327
1226.022
1224.906
1224.411
1222.979
1216.374
1198.212
1238.551
1236.889
1235.21
1233.566
1232.009
1230.589
1229.362
1228.382
1227.733
1227.627
1226.88
1223.704
1217.619
1201.973
1239.832
1238.261
1236.675
1235.124
1233.658
1232.33
1231.2
1230.339
1229.831
1229.814
1229.273
1227.337
1224.52
1219.346
1207.009
1241.057
1239.6
1238.124
1236.673
1235.288
1234.016
1232.915
1232.056
1231.528
1231.446
1230.939
1229.443
1227.707
1225.339
1221.278
1210.421
1242.228
1240.903
1239.551
1238.204
1236.894
1235.658
1234.541
1233.612
1232.965
1232.741
1232.207
1230.863
1229.484
1227.977
1226.092
1222.468
1212.266
1243.347
1242.166
1240.946
1239.707
1238.468
1237.25
1236.086
1235.028
1234.175
1233.726
1233.178
1231.894
1230.649
1229.431
1228.194
1226.388
1222.929
1214.605
1244.416
1243.383
1242.297
1241.164
1239.991
1238.782
1237.547
1236.309
1235.133
1234.254
1233.791
1232.592
1231.47
1230.418
1229.439
1228.134
1226.184
1223.296
1217.062
1233.712
1232.95
1232.117
1231.275
1230.477
1229.341
1227.733
1225.918
1223.511
1219.142
1235.085
1234.209
1233.338
1232.492
1231.703
1230.599
1229.078
1227.49
1225.765
1223.675
1220.511
1236.51
1235.612
1234.722
1233.859
1233.048
1231.947
1230.47
1228.951
1227.377
1225.708
1223.802
1221.318
1237.882
1236.998
1236.116
1235.253
1234.428
1233.336
1231.9
1230.424
1228.909
1227.347
1225.707
1223.889
1221.765
1239.189
1238.335
1237.477
1236.627
1235.803
1234.729
1233.338
1231.905
1230.433
1228.923
1227.367
1225.729
1223.948
1221.976
1234.439
1232.797
1231.063
1229.237
1227.309
1225.248
1222.989
1220.436
1217.541
1214.596
1205.434
1235.874
1234.208
1232.482
1230.716
1228.923
1227.101
1225.227
1223.26
1221.274
1219.875
1217.097
1201.586
1237.25
1235.586
1233.886
1232.187
1230.522
1228.923
1227.416
1226.034
1224.87
1224.351
1223.061
1217.275
1201.145
1238.569
1236.937
1235.284
1233.655
1232.098
1230.66
1229.394
1228.362
1227.662
1227.52
1226.787
1223.753
1218.031
1203.203
1239.832
1238.261
1236.675
1235.124
1233.658
1232.33
1231.2
1230.339
1229.831
1229.814
1229.273
1227.337
1224.52
1219.346
1207.009
1241.041
1239.557
1238.058
1236.592
1235.207
1233.953
1232.89
1232.086
1231.62
1231.588
1231.092
1229.588
1227.812
1225.339
1221.041
1209.575
1242.199
1240.822
1239.427
1238.054
1236.744
1235.541
1234.498
1233.679
1233.164
1233.048
1232.533
1231.194
1229.789
1228.206
1226.151
1222.124
1210.682
1243.305
1242.053
1240.775
1239.502
1238.263
1237.093
1236.034
1235.147
1234.518
1234.267
1233.719
1232.442
1231.173
1229.891
1228.53
1226.529
1222.553
1212.499
1244.362
1243.247
1242.094
1240.923
1239.751
1238.599
1237.497
1236.493
1235.675
1235.222
1234.662
1233.424
1232.226
1231.071
1229.957
1228.544
1226.438
1223.008
1214.8
1245.37
1244.396
1243.37
1242.3
1241.191
1240.049
1238.882
1237.711
1236.596
1235.753
1235.281
1234.123
1233.03
1231.995
1231.029
1229.812
1228.181
1226.242
1223.374
1217.215
1235.252
1234.507
1233.684
1232.841
1232.025
1230.905
1229.393
1227.792
1225.988
1223.596
1219.256
1236.551
1235.706
1234.855
1234.015
1233.213
1232.117
1230.649
1229.135
1227.555
1225.84
1223.757
1220.591
1237.898
1237.035
1236.173
1235.324
1234.51
1233.423
1231.992
1230.521
1229.008
1227.444
1225.78
1223.866
1221.379
1239.195
1238.349
1237.498
1236.655
1235.837
1234.765
1233.376
1231.946
1230.475
1228.967
1227.409
1225.762
1223.939
1221.81
1240.431
1239.616
1238.791
1237.967
1237.156
1236.107
1234.765
1233.378
1231.95
1230.484
1228.977
1227.413
1225.771
1223.984
1222.004
1211.907
1235.954
1234.409
1232.781
1231.074
1229.289
1227.418
1225.451
1223.378
1221.277
1219.647
1217.806
1207.678
1237.306
1235.735
1234.111
1232.456
1230.791
1229.136
1227.514
1225.969
1224.633
1223.971
1222.905
1218.235
1205.3
1238.604
1237.033
1235.43
1233.831
1232.273
1230.795
1229.448
1228.298
1227.471
1227.235
1226.536
1223.763
1218.732
1205.583
1239.849
1238.307
1236.745
1235.209
1233.742
1232.395
1231.226
1230.309
1229.739
1229.673
1229.128
1227.234
1224.539
1219.664
1207.983
1241.041
1239.557
1238.058
1236.592
1235.207
1233.953
1232.89
1232.086
1231.62
1231.588
1231.092
1229.588
1227.812
1225.339
1221.041
1209.575
1242.184
1240.78
1239.364
1237.978
1236.668
1235.481
1234.472
1233.705
1233.25
1233.182
1232.68
1231.343
1229.926
1228.305
1226.163
1221.923
1209.849
1243.277
1241.976
1240.657
1239.36
1238.12
1236.981
1235.99
1235.206
1234.701
1234.551
1234.021
1232.754
1231.478
1230.162
1228.727
1226.586
1222.215
1210.941
1244.322
1243.14
1241.932
1240.729
1239.557
1238.449
1237.445
1236.599
1235.989
1235.72
1235.16
1233.93
1232.715
1231.518
1230.328
1228.835
1226.576
1222.637
1212.731
1245.319
1244.267
1243.179
1242.073
1240.965
1239.876
1238.832
1237.879
1237.097
1236.646
1236.082
1234.887
1233.723
1232.6
1231.526
1230.247
1228.581
1226.488
1223.088
1214.994
1246.269
1245.352
1244.384
1243.374
1242.326
1241.246
1240.143
1239.036
1237.979
1237.173
1236.699
1235.584
1234.52
1233.502
1232.538
1231.356
1229.853
1228.229
1226.3
1223.453
1217.358
1236.707
1235.983
1235.176
1234.339
1233.514
1232.405
1230.951
1229.445
1227.852
1226.058
1223.676
1219.346
1237.937
1237.125
1236.298
1235.471
1234.665
1233.583
1232.161
1230.698
1229.191
1227.62
1225.91
1223.82
1220.656
1239.21
1238.385
1237.552
1236.723
1235.914
1234.847
1233.463
1232.037
1230.572
1229.066
1227.506
1225.834
1223.916
1221.425
1240.437
1239.63
1238.812
1237.994
1237.188
1236.141
1234.801
1233.416
1231.991
1230.526
1229.021
1227.455
1225.803
1223.975
1221.838
1241.607
1240.831
1240.041
1239.245
1238.453
1237.433
1236.14
1234.801
1233.418
1231.995
1230.531
1229.016
1227.447
1225.799
1224.006
1212.814
1216.362
1212.679
1237.382
1235.925
1234.393
1232.79
1231.121
1229.388
1227.596
1225.766
1223.999
1222.764
1222.079
1218.724
1210.078
1238.657
1237.174
1235.642
1234.085
1232.523
1230.984
1229.504
1228.147
1227.058
1226.597
1225.974
1223.548
1219.466
1208.889
1239.882
1238.398
1236.884
1235.376
1233.908
1232.522
1231.271
1230.229
1229.516
1229.337
1228.79
1226.972
1224.507
1220.202
1209.847
1241.057
1239.6
1238.124
1236.673
1235.288
1234.016
1232.915
1232.056
1231.528
1231.446
1230.939
1229.443
1227.707
1225.339
1221.278
1210.421
1242.184
1240.78
1239.364
1237.978
1236.668
1235.481
1234.472
1233.705
1233.25
1233.182
1232.68
1231.343
1229.926
1228.305
1226.163
1221.923
1209.849
1243.263
1241.937
1240.598
1239.287
1238.048
1236.923
1235.964
1235.229
1234.779
1234.675
1234.158
1232.896
1231.618
1230.287
1228.817
1226.602
1222.018
1210.122
1244.295
1243.067
1241.821
1240.594
1239.422
1238.343
1237.401
1236.651
1236.156
1235.981
1235.44
1234.22
1233.002
1231.788
1230.559
1229.012
1226.633
1222.305
1211.199
1245.281
1244.166
1243.026
1241.889
1240.781
1239.733
1238.781
1237.976
1237.386
1237.106
1236.543
1235.353
1234.175
1233.019
1231.891
1230.571
1228.868
1226.624
1222.722
1212.961
1246.221
1245.23
1244.204
1243.159
1242.112
1241.083
1240.096
1239.192
1238.445
1238.002
1237.442
1236.289
1235.159
1234.061
1233.004
1231.778
1230.278
1228.619
1226.539
1223.167
1215.175
1247.115
1246.252
1245.341
1244.388
1243.399
1242.379
1241.336
1240.289
1239.288
1238.519
1238.051
1236.979
1235.947
1234.948
1233.99
1232.829
1231.392
1229.893
1228.276
1226.358
1223.528
1217.475
1238.082
1237.383
1236.597
1235.772
1234.947
1233.854
1232.446
1230.997
1229.496
1227.911
1226.123
1223.736
1219.421
1239.247
1238.469
1237.67
1236.862
1236.061
1234.998
1233.622
1232.205
1230.748
1229.248
1227.68
1225.963
1223.869
1220.704
1240.452
1239.664
1238.864
1238.058
1237.262
1236.22
1234.883
1233.503
1232.082
1230.622
1229.12
1227.551
1225.874
1223.951
1221.454
1241.613
1240.845
1240.061
1239.271
1238.483
1237.466
1236.174
1234.837
1233.457
1232.036
1230.574
1229.06
1227.489
1225.831
1223.996
1242.719
1241.984
1241.229
1240.463
1239.694
1238.707
1237.463
1236.172
1234.837
1233.459
1232.037
1230.565
1229.044
1227.468
1225.813
1213.134
1216.257
1214.158
1219.463
1217.983
1214.001
1238.728
1237.354
1235.909
1234.4
1232.833
1231.212
1229.547
1227.868
1226.277
1225.188
1224.784
1222.793
1219.848
1212.597
1239.932
1238.531
1237.085
1235.616
1234.146
1232.7
1231.318
1230.067
1229.082
1228.663
1228.144
1226.428
1224.281
1220.768
1212.394
1241.089
1239.686
1238.256
1236.831
1235.445
1234.137
1232.959
1231.98
1231.311
1231.117
1230.595
1229.114
1227.455
1225.286
1221.682
1212.032
1242.199
1240.822
1239.427
1238.054
1236.744
1235.541
1234.498
1233.679
1233.164
1233.048
1232.533
1231.194
1229.789
1228.206
1226.151
1222.124
1210.682
1243.263
1241.937
1240.598
1239.287
1238.048
1236.923
1235.964
1235.229
1234.779
1234.675
1234.158
1232.896
1231.618
1230.287
1228.817
1226.602
1222.018
1210.122
1244.282
1243.03
1241.764
1240.525
1239.352
1238.287
1237.376
1236.671
1236.228
1236.095
1235.567
1234.353
1233.136
1231.915
1230.669
1229.095
1226.649
1222.113
1210.393
1245.256
1244.097
1242.921
1241.761
1240.653
1239.631
1238.738
1238.022
1237.54
1237.348
1236.803
1235.622
1234.444
1233.276
1232.122
1230.779
1229.043
1226.68
1222.396
1211.456
1246.185
1245.135
1244.059
1242.985
1241.939
1240.948
1240.047
1239.281
1238.715
1238.43
1237.871
1236.721
1235.578
1234.45
1233.35
1232.099
1230.598
1228.901
1226.671
1222.807
1213.177
1247.069
1246.138
1245.171
1244.186
1243.198
1242.225
1241.292
1240.436
1239.726
1239.294
1238.744
1237.633
1236.538
1235.466
1234.425
1233.228
1231.805
1230.31
1228.658
1226.589
1223.242
1215.326
1247.91
1247.1
1246.243
1245.345
1244.412
1243.449
1242.464
1241.474
1240.527
1239.795
1239.339
1238.31
1237.313
1236.338
1235.39
1234.251
1232.861
1231.427
1229.934
1228.323
1226.412
1223.582
1217.575
1239.385
1238.712
1237.951
1237.145
1236.326
1235.254
1233.89
1232.487
1231.042
1229.548
1227.967
1226.17
1223.781
1219.48
1240.487
1239.745
1238.976
1238.19
1237.402
1236.363
1235.034
1233.662
1232.249
1230.798
1229.3
1227.724
1226.001
1223.902
1220.736
1241.627
1240.878
1240.111
1239.333
1238.554
1237.541
1236.252
1234.919
1233.543
1232.127
1230.67
1229.159
1227.584
1225.901
1223.971
1242.725
1241.996
1241.249
1240.488
1239.723
1238.738
1237.496
1236.207
1234.873
1233.497
1232.078
1230.607
1229.088
1227.51
1225.845
1243.772
1243.076
1242.358
1241.624
1240.881
1239.929
1238.734
1237.493
1236.205
1234.873
1233.496
1232.066
1230.588
1229.06
1227.477
1213.297
1216.261
1214.722
1219.189
1217.844
1215.64
1222.07
1221.101
1219.507
1215.678
1239.999
1238.701
1237.337
1235.915
1234.439
1232.916
1231.356
1229.79
1228.313
1227.291
1226.931
1225.382
1223.658
1221.095
1215.201
1241.136
1239.812
1238.446
1237.059
1235.671
1234.308
1233.007
1231.83
1230.901
1230.477
1229.964
1228.507
1226.963
1225.081
1222.12
1214.215
1242.228
1240.903
1239.551
1238.204
1236.894
1235.658
1234.541
1233.612
1232.965
1232.741
1232.207
1230.863
1229.484
1227.977
1226.092
1222.468
1212.266
1243.277
1241.976
1240.657
1239.36
1238.12
1236.981
1235.99
1235.206
1234.701
1234.551
1234.021
1232.754
1231.478
1230.162
1228.727
1226.586
1222.215
1210.941
1244.282
1243.03
1241.764
1240.525
1239.352
1238.287
1237.376
1236.671
1236.228
1236.095
1235.567
1234.353
1233.136
1231.915
1230.669
1229.095
1226.649
1222.113
1210.393
1245.243
1244.062
1242.867
1241.696
1240.587
1239.579
1238.714
1238.04
1237.606
1237.454
1236.922
1235.746
1234.569
1233.397
1232.233
1230.88
1229.125
1226.696
1222.207
1210.663
1246.161
1245.07
1243.96
1242.865
1241.818
1240.852
1240.005
1239.324
1238.858
1238.656
1238.114
1236.972
1235.827
1234.691
1233.57
1232.308
1230.803
1229.074
1226.727
1222.487
1211.695
1247.036
1246.048
1245.035
1244.022
1243.034
1242.098
1241.246
1240.52
1239.979
1239.696
1239.145
1238.036
1236.928
1235.829
1234.749
1233.535
1232.122
1230.624
1228.934
1226.719
1222.886
1213.358
1247.867
1246.992
1246.083
1245.155
1244.223
1243.305
1242.424
1241.614
1240.941
1240.525
1239.989
1238.921
1237.864
1236.82
1235.797
1234.626
1233.252
1231.833
1230.341
1228.696
1226.637
1223.297
1215.459
1248.655
1247.896
1247.092
1246.248
1245.369
1244.46
1243.53
1242.595
1241.7
1241.006
1240.566
1239.581
1238.62
1237.672
1236.742
1235.627
1234.279
1232.892
1231.462
1229.974
1228.368
1226.45
1223.622
1217.658
1240.617
1239.975
1239.241
1238.457
1237.652
1236.606
1235.287
1233.927
1232.527
1231.087
1229.596
1228.006
1226.204
1223.811
1219.521
1241.66
1240.955
1240.218
1239.458
1238.688
1237.678
1236.396
1235.069
1233.701
1232.293
1230.844
1229.338
1227.755
1226.026
1223.92
1242.739
1242.028
1241.296
1240.548
1239.791
1238.81
1237.571
1236.285
1234.955
1233.583
1232.169
1230.703
1229.186
1227.605
1225.915
1243.777
1243.088
1242.377
1241.649
1240.91
1239.959
1238.766
1237.526
1236.24
1234.909
1233.534
1232.107
1230.63
1229.104
1227.519
1244.766
1244.11
1243.43
1242.73
1242.015
1241.1
1239.954
1238.762
1237.522
1236.238
1234.907
1233.521
1232.085
1230.6
1229.064
1213.371
1216.274
1214.982
1219.131
1217.834
1216.352
1221.771
1220.669
1219.409
1217.263
1224.393
1223.57
1222.536
1220.994
1217.582
1241.2
1239.973
1238.685
1237.343
1235.95
1234.515
1233.048
1231.577
1230.188
1229.208
1228.826
1227.448
1226.103
1224.603
1222.417
1216.606
1242.273
1241.023
1239.732
1238.421
1237.11
1235.822
1234.592
1233.477
1232.588
1232.15
1231.619
1230.274
1228.943
1227.558
1225.926
1222.85
1214.41
1243.305
1242.053
1240.775
1239.502
1238.263
1237.093
1236.034
1235.147
1234.518
1234.267
1233.719
1232.442
1231.173
1229.891
1228.53
1226.529
1222.553
1212.499
1244.295
1243.067
1241.821
1240.594
1239.422
1238.343
1237.401
1236.651
1236.156
1235.981
1235.44
1234.22
1233.002
1231.788
1230.559
1229.012
1226.633
1222.305
1211.199
1245.243
1244.062
1242.867
1241.696
1240.587
1239.579
1238.714
1238.04
1237.606
1237.454
1236.922
1235.746
1234.569
1233.397
1232.233
1230.88
1229.125
1226.696
1222.207
1210.663
1246.149
1245.037
1243.909
1242.804
1241.756
1240.802
1239.982
1239.34
1238.919
1238.756
1238.225
1237.087
1235.944
1234.805
1233.677
1232.41
1230.903
1229.155
1226.744
1222.301
1210.914
1247.013
1245.987
1244.941
1243.909
1242.92
1242.008
1241.207
1240.56
1240.113
1239.908
1239.374
1238.271
1237.162
1236.054
1234.958
1233.736
1232.329
1230.827
1229.105
1226.774
1222.572
1211.899
1247.835
1246.908
1245.955
1245.001
1244.07
1243.186
1242.382
1241.695
1241.18
1240.904
1240.368
1239.3
1238.229
1237.16
1236.102
1234.917
1233.555
1232.144
1230.651
1228.968
1226.764
1222.945
1213.521
1248.614
1247.795
1246.942
1246.069
1245.192
1244.327
1243.495
1242.731
1242.094
1241.698
1241.179
1240.155
1239.136
1238.124
1237.124
1235.981
1234.648
1233.277
1231.86
1230.373
1228.732
1226.668
1223.336
1215.573
1249.351
1248.643
1247.889
1247.097
1246.27
1245.415
1244.538
1243.656
1242.811
1242.155
1241.734
1240.793
1239.869
1238.953
1238.044
1236.958
1235.653
1234.307
1232.923
1231.498
1230.012
1228.397
1226.474
1223.646
1217.722
1241.785
1241.173
1240.47
1239.712
1238.926
1237.908
1236.636
1235.32
1233.963
1232.567
1231.13
1229.629
1228.032
1226.224
1223.825
1242.771
1242.102
1241.399
1240.668
1239.92
1238.942
1237.708
1236.428
1235.105
1233.74
1232.334
1230.876
1229.363
1227.774
1226.037
1243.79
1243.119
1242.423
1241.706
1240.975
1240.028
1238.838
1237.601
1236.318
1234.991
1233.621
1232.198
1230.725
1229.201
1227.612
1244.772
1244.122
1243.448
1242.753
1242.043
1241.129
1239.985
1238.793
1237.555
1236.272
1234.943
1233.559
1232.125
1230.642
1229.107
1245.706
1245.09
1244.447
1243.782
1243.098
1242.22
1241.123
1239.979
1238.789
1237.552
1236.268
1234.929
1233.537
1232.093
1230.6
1216.282
1215.091
1219.112
1217.843
1216.686
1221.701
1220.541
1219.402
1218.037
1224.11
1223.091
1222.099
1220.96
1219.008
1226.521
1225.735
1224.855
1223.86
1222.473
1218.665
1242.334
1241.175
1239.958
1238.69
1237.375
1236.021
1234.637
1233.251
1231.939
1230.993
1230.577
1229.282
1228.07
1226.885
1225.592
1223.139
1216.758
1243.347
1242.166
1240.946
1239.707
1238.468
1237.25
1236.086
1235.028
1234.175
1233.726
1233.178
1231.894
1230.649
1229.431
1228.194
1226.388
1222.929
1214.605
1244.322
1243.14
1241.932
1240.729
1239.557
1238.449
1237.445
1236.599
1235.989
1235.72
1235.16
1233.93
1232.715
1231.518
1230.328
1228.835
1226.576
1222.637
1212.731
1245.256
1244.097
1242.921
1241.761
1240.653
1239.631
1238.738
1238.022
1237.54
1237.348
1236.803
1235.622
1234.444
1233.276
1232.122
1230.779
1229.043
1226.68
1222.396
1211.456
1246.149
1245.037
1243.909
1242.804
1241.756
1240.802
1239.982
1239.34
1238.919
1238.756
1238.225
1237.087
1235.944
1234.805
1233.677
1232.41
1230.903
1229.155
1226.744
1222.301
1210.914
1247.002
1245.956
1244.894
1243.851
1242.862
1241.961
1241.185
1240.575
1240.171
1240.002
1239.479
1238.38
1237.271
1236.161
1235.059
1233.835
1232.43
1230.926
1229.186
1226.791
1222.39
1211.129
1247.814
1246.85
1245.867
1244.895
1243.963
1243.102
1242.346
1241.734
1241.308
1241.105
1240.584
1239.521
1238.448
1237.372
1236.3
1235.108
1233.754
1232.349
1230.852
1229.137
1226.819
1222.635
1212.083
1248.584
1247.716
1246.822
1245.925
1245.048
1244.216