/*--------------------------------*- C++ -*----------------------------------*\
| =========                 |                                                 |
| \\      /  F ield         | OpenFOAM: The Open Source CFD Toolbox           |
|  \\    /   O peration     | Version:  2306                                  |
|   \\  /    A nd           | Website:  www.openfoam.com                      |
|    \\/     M anipulation  |                                                 |
\*---------------------------------------------------------------------------*/
FoamFile
{
    version     2.0;
    format      ascii;
    arch        "LSB;label=32;scalar=64";
    class       volVectorField;
    location    "0.6/air";
    object      U;
}
// * * * * * * * * * * * * * * * * * * * * * * * * * * * * * * * * * * * * * //

dimensions      [0 1 -1 0 0 0 0];

internalField   nonuniform List<vector> 
16000
(
(0.3525852 0.05308985 -0.05317743)
(0.6305732 0.1010403 -0.08193766)
(0.377348 0.003685668 -0.003567555)
(0.6307736 0.08158018 -0.1022723)
(0.7573399 0.08667703 -0.08171543)
(0.7432317 0.008992849 -0.006636212)
(1.26764 0.1701906 -0.1736063)
(0.2878392 -0.001223517 0.001235454)
(0.743431 0.006758186 -0.008622175)
(0.7580498 0.08113495 -0.09009082)
(0.8186178 0.05415186 -0.07956171)
(0.9432262 0.009335236 -0.006947421)
(1.600559 0.1610394 -0.1924618)
(0.593123 -0.00166991 0.002080459)
(1.642247 0.01728847 -0.01703052)
(1.601821 0.1873307 -0.1695775)
(0.3259854 0.0007880779 -0.0007789097)
(0.5933412 -0.002090569 0.001627961)
(0.9441581 0.007025505 -0.008891822)
(0.8202593 0.07876124 -0.0605111)
(0.8434561 0.01833759 -0.07841309)
(1.050816 0.006496436 -0.006486864)
(1.775021 0.1066256 -0.1929907)
(0.7732146 -0.001527695 0.002277949)
(2.179771 0.01948894 -0.01971374)
(2.075253 0.1842433 -0.1965403)
(0.6651569 0.001330553 -0.001401467)
(1.360768 -0.003056261 0.002823177)
(2.1816 0.01951533 -0.01958056)
(1.779039 0.1864388 -0.1216518)
(0.3041875 -0.0004013971 0.0004119027)
(0.6653622 0.001375799 -0.00142078)
(0.7742805 -0.002316345 0.001311409)
(1.053371 0.006495504 -0.006246686)
(0.8466627 0.07730293 -0.02829728)
(0.8434561 -0.01833759 -0.07841309)
(1.098812 0.002241572 -0.006098089)
(1.846391 0.03696455 -0.1911231)
(0.8779835 -0.0009202129 0.002341673)
(2.477908 0.01501234 -0.02155561)
(2.299996 0.1282257 -0.2047284)
(0.8629684 0.00129052 -0.001535463)
(1.853588 -0.002927703 0.003429645)
(2.957963 0.02490911 -0.02605556)
(2.303769 0.1893142 -0.1496613)
(0.6248142 -0.000716077 0.0006952203)
(1.512901 0.00223866 -0.002603186)
(1.855666 -0.00388013 0.002255122)
(2.484254 0.02073963 -0.01601503)
(1.85524 0.182957 -0.0594155)
(0.3164504 0.0002769503 -0.000266846)
(0.6250124 -0.0007163681 0.0006431123)
(0.8640052 0.001474603 -0.001634738)
(0.8809128 -0.002416442 0.0004022085)
(1.104359 0.005982997 -0.002493584)
(0.8492565 0.07680983 0.004016356)
(0.0003116319 -0.00120698 -0.0005819064)
(0.8186178 -0.05415186 -0.07956171)
(1.098812 -0.002241572 -0.006098089)
(1.846391 -0.03696455 -0.1911231)
(0.9266369 -0.0003045606 0.002388955)
(2.6142 0.005485493 -0.02163073)
(2.396552 0.04518422 -0.2045013)
(0.9767497 0.0008276364 -0.001539819)
(2.149036 -0.001865163 0.004067101)
(3.431268 0.01805357 -0.02595413)
(2.576877 0.1320657 -0.1577713)
(0.8140075 -0.0007139917 0.0007368127)
(2.04993 0.00224169 -0.002946221)
(2.581085 -0.004140372 0.003053474)
(3.437697 0.0239103 -0.02025488)
(2.407442 0.1864411 -0.07602032)
(0.6477249 0.0004649305 -0.000503099)
(1.4301 -0.001372821 0.001051362)
(2.052005 0.002326923 -0.003226184)
(2.156181 -0.004779053 0.0005479373)
(2.629143 0.02009185 -0.007752389)
(1.863162 0.1810071 0.006636536)
(0.3091245 -0.0001135154 0.0001239432)
(0.6479262 0.0004795424 -0.0005450666)
(0.81501 -0.0007909251 0.0004167673)
(0.9796486 0.001442651 -0.001564345)
(0.9328338 -0.00252881 -0.0006889189)
(1.109377 0.005764866 0.001041188)
(0.8288269 0.07727183 0.03481714)
(0.0003246275 -0.003494265 -0.0006016524)
(0.000338179 -0.001080484 -0.0005337277)
(0.0003135231 -0.001209578 -0.001131639)
(0.7573399 -0.08667703 -0.08171543)
(1.050816 -0.006496436 -0.006486864)
(1.775021 -0.1066256 -0.1929907)
(0.9266369 0.0003045604 0.002388955)
(2.6142 -0.005485493 -0.02163073)
(2.396552 -0.04518422 -0.2045013)
(1.029296 0.0002791061 -0.001532536)
(2.287773 -0.0006276967 0.004449824)
(3.645703 0.006761395 -0.02608656)
(2.692508 0.04695933 -0.1589712)
(0.9237985 -0.0004787262 0.0007358708)
(2.369104 0.001482879 -0.002949298)
(3.026348 -0.002908193 0.003901396)
(4.005737 0.01908817 -0.0224788)
(2.701133 0.1303688 -0.0825846)
(0.8420389 0.0004576143 -0.000572445)
(1.945461 -0.001465914 0.001144172)
(2.838801 0.002306627 -0.003790146)
(3.03332 -0.005406632 0.001044358)
(3.665217 0.02292029 -0.01040154)
(2.419224 0.1840638 0.005696789)
(0.6340539 -0.0002037868 0.0001869636)
(1.477602 0.0007542197 -0.001096851)
(1.947468 -0.001702391 0.0005852868)
(2.37631 0.002085665 -0.003310569)
(2.304101 -0.005546768 -0.001568247)
(2.6437 0.01913413 0.001540701)
(1.804525 0.1808828 0.06899118)
(0.3128575 0.0001098211 -0.0001001685)
(0.6342531 -0.000206862 0.0001360311)
(0.8430541 0.0005146153 -0.0007746033)
(0.9266017 -0.000823815 -0.0001685274)
(1.035497 0.001377422 -0.001566085)
(0.9378901 -0.002662803 -0.002077204)
(1.069351 0.005768234 0.003728655)
(0.7757462 0.07915978 0.0626599)
(0.0003482501 -0.006303805 -0.000646488)
(0.0003578592 -0.003128869 -0.0005497411)
(0.0003265254 -0.003507688 -0.001178771)
(0.0002589383 -0.00101383 -0.0004942561)
(0.0003386057 -0.001083522 -0.001037616)
(0.0003111651 -0.001202583 -0.003090897)
(0.6305732 -0.1010403 -0.08193766)
(0.9432262 -0.009335236 -0.006947421)
(1.600559 -0.1610394 -0.1924618)
(0.8779835 0.0009202128 0.002341674)
(2.477908 -0.01501234 -0.02155561)
(2.299996 -0.1282257 -0.2047284)
(1.029296 -0.0002791062 -0.001532536)
(2.287773 0.0006276964 0.004449824)
(3.645703 -0.006761395 -0.02608656)
(2.692508 -0.04695933 -0.1589712)
(0.9747733 -0.0001665378 0.0007354174)
(2.518365 0.0005071917 -0.002890894)
(3.237555 -0.0009960555 0.004421681)
(4.26809 0.007174143 -0.02299598)
(2.826193 0.04651038 -0.08458221)
(0.9543211 0.0002977977 -0.0005900675)
(2.254215 -0.001037965 0.001171749)
(3.317516 0.001507613 -0.003852063)
(3.579149 -0.003783085 0.00149033)
(4.283269 0.01842536 -0.01180326)
(2.716721 0.1285721 0.003136297)
(0.8253359 -0.0001983456 0.0001796591)
(2.005916 0.0007619554 -0.001346634)
(2.704663 -0.001904546 0.0005564055)
(3.324605 0.001962515 -0.004033829)
(3.258123 -0.006458003 -0.001770587)
(3.687749 0.02158305 0.001499514)
(2.340411 0.1830467 0.08242691)
(0.6409605 0.0001845974 -0.0002071236)
(1.449284 -0.0004279848 0.0001229378)
(2.007946 0.0007579373 -0.001693931)
(2.261189 -0.001955422 -0.0006044329)
(2.534914 0.001705429 -0.003383838)
(2.318406 -0.006167703 -0.004041996)
(2.53063 0.01778028 0.009138263)
(1.651293 0.1797801 0.1198085)
(0.3103212 -2.354739e-05 3.29501e-05)
(0.6411606 0.0001867671 -0.000253776)
(0.8263391 -0.0002312363 -8.183615e-05)
(0.957158 0.0004984191 -0.0009788137)
(0.9807692 -0.0008765902 -0.0009721946)
(1.040705 0.001259904 -0.001818546)
(0.8966475 -0.002886616 -0.003952929)
(0.973967 0.005672349 0.004269728)
(0.6663562 0.08006754 0.06908115)
(0.0003919082 -0.008271816 -0.0009922597)
(0.0003937729 -0.005620985 -0.0005865404)
(0.000350129 -0.00621721 -0.001273047)
(0.0002727556 -0.002935624 -0.000508607)
(0.0003582842 -0.003143096 -0.001076432)
(0.0003239939 -0.003475918 -0.003160636)
(0.0003827772 -0.0009447663 -0.0004630137)
(0.0002591546 -0.001017078 -0.0009609578)
(0.000335112 -0.00107809 -0.002836092)
(0.000303549 -0.001176031 -0.001057554)
(0.3525852 -0.05308985 -0.05317743)
(0.7432317 -0.008992849 -0.006636212)
(1.26764 -0.1701906 -0.1736063)
(0.7732146 0.001527695 0.002277949)
(2.179771 -0.01948894 -0.01971374)
(2.075253 -0.1842433 -0.1965403)
(0.9767497 -0.0008276366 -0.001539819)
(2.149036 0.001865163 0.0040671)
(3.431268 -0.01805357 -0.02595413)
(2.576877 -0.1320657 -0.1577713)
(0.9747733 0.0001665379 0.0007354175)
(2.518365 -0.0005071918 -0.002890894)
(3.237555 0.0009960554 0.004421681)
(4.26809 -0.007174143 -0.02299598)
(2.826193 -0.04651038 -0.08458221)
(1.00633 0.0001011975 -0.0005955002)
(2.399312 -0.0003699924 0.001185653)
(3.543883 0.0005127637 -0.003789924)
(3.839922 -0.001317048 0.00181878)
(4.569661 0.006918415 -0.01220221)
(2.843921 0.04586159 0.001274013)
(0.9361609 -0.0001317432 0.0001682378)
(2.321213 0.0005059995 -0.001441466)
(3.168834 -0.001396805 0.0005362268)
(3.91031 0.001222532 -0.004194111)
(3.855851 -0.004560711 -0.001716974)
(4.309891 0.01725575 0.00156958)
(2.626804 0.1273224 0.08348441)
(0.8337241 0.0001856246 -0.0002491477)
(1.969919 -0.0004544029 4.353813e-05)
(2.782964 0.0007503372 -0.002172043)
(3.175698 -0.002263708 -0.0009044649)
(3.564817 0.001453519 -0.004183334)
(3.279664 -0.007190791 -0.004824351)
(3.509766 0.01982485 0.01145641)
(2.138634 0.1776613 0.1398273)
(0.6362021 -4.90589e-05 2.968209e-05)
(1.463444 0.0002704702 -0.0005739488)
(1.971924 -0.0005757097 -0.0003841229)
(2.328264 0.0006257928 -0.002232591)
(2.415342 -0.002262133 -0.002213554)
(2.54972 0.001189268 -0.003679337)
(2.200562 -0.006771971 -0.006937227)
(2.267782 0.0140494 0.01136582)
(1.363361 0.162402 0.1246883)
(0.3114026 5.211542e-05 -4.372339e-05)
(0.6364013 -4.829808e-05 -1.433656e-05)
(0.8347293 0.0001978426 -0.0004653079)
(0.9389623 -0.0002516934 -0.0004795789)
(1.012395 0.0004525226 -0.001282321)
(0.9857754 -0.0009857166 -0.002032764)
(0.9959464 0.001024071 -0.002481901)
(0.8024329 -0.003179339 -0.006376399)
(0.7924304 0.005730398 8.112801e-05)
(0.4235828 0.05497313 -0.0009306816)
(0.0004388125 -0.01647267 -0.001323205)
(0.0004597401 -0.007371911 -0.0008825059)
(0.0003924825 -0.008093949 -0.001911308)
(0.0002979943 -0.005267349 -0.000541769)
(0.0003941514 -0.005550082 -0.001154157)
(0.0003472473 -0.006078548 -0.003296304)
(0.000395232 -0.002735347 -0.0004760784)
(0.0002730054 -0.002950072 -0.0009960495)
(0.0003545381 -0.00311683 -0.002890625)
(0.0003159506 -0.003422273 -0.001095964)
(0.0003762312 -0.0008945536 -0.0004372138)
(0.0003850085 -0.0009479979 -0.0009001469)
(0.0002563838 -0.001012302 -0.002626775)
(0.0003198127 -0.00105667 -0.0009696897)
(0.0003040271 -0.001177275 -0.01056524)
(0.377348 -0.003685668 -0.003567555)
(0.6307736 -0.08158018 -0.1022723)
(0.593123 0.00166991 0.002080459)
(1.642247 -0.01728847 -0.01703052)
(1.601821 -0.1873307 -0.1695775)
(0.8629684 -0.00129052 -0.001535463)
(1.853588 0.002927703 0.003429645)
(2.957963 -0.02490911 -0.02605556)
(2.303769 -0.1893142 -0.1496613)
(0.9237985 0.0004787263 0.000735871)
(2.369104 -0.001482878 -0.002949298)
(3.026348 0.002908193 0.003901396)
(4.005737 -0.01908817 -0.0224788)
(2.701133 -0.1303688 -0.0825846)
(1.00633 -0.0001011976 -0.0005955002)
(2.399312 0.0003699923 0.001185653)
(3.543883 -0.0005127637 -0.003789924)
(3.839922 0.001317048 0.00181878)
(4.569661 -0.006918415 -0.01220221)
(2.843921 -0.04586159 0.001274013)
(0.9875748 -4.583158e-05 0.0001633752)
(2.469071 0.0001731629 -0.001468931)
(3.389335 -0.0005065147 0.0005388446)
(4.189434 0.0004039587 -0.004171648)
(4.142402 -0.001604821 -0.00160589)
(4.598012 0.006462604 0.001569455)
(2.749412 0.04526908 0.0817973)
(0.9452454 0.0001219546 -0.0002644933)
(2.281381 -0.0003229304 -1.214938e-05)
(3.256337 0.0004857762 -0.002375548)
(3.74468 -0.001702589 -0.001023675)
(4.205657 0.0008123088 -0.004403129)
(3.882108 -0.005097082 -0.005084055)
(4.088943 0.01578241 0.01307829)
(2.394633 0.122124 0.1421609)
(0.8278891 -4.695495e-05 1.067968e-05)
(1.987784 0.0002741663 -0.0007546506)
(2.736362 -0.0006503707 -0.00064027)
(3.263278 0.0005651792 -0.002909271)
(3.409652 -0.002674801 -0.00282697)
(3.587159 0.0008431208 -0.00437993)
(3.099867 -0.007626775 -0.007952584)
(3.095665 0.01726828 0.01610583)
(1.743361 0.1533018 0.1409466)
(0.6380828 8.862186e-05 -0.0001047698)
(1.453528 -0.0001449979 -0.0001375113)
(1.989791 0.0002291627 -0.00110401)
(2.288343 -0.0007328527 -0.001240852)
(2.485266 0.0003700984 -0.002863718)
(2.429596 -0.00273625 -0.004122476)
(2.422431 0.0004093593 -0.004296501)
(1.934045 -0.007487465 -0.01010453)
(1.774121 0.01126029 0.007261498)
(0.792261 0.1065923 0.02308976)
(0.310216 1.171873e-05 -2.756325e-06)
(0.6382816 8.565544e-05 -0.0001536585)
(0.8288887 -5.845425e-05 -0.0002129958)
(0.9480507 0.0001824087 -0.0007273744)
(0.9935631 -0.0002955126 -0.001025822)
(1.017485 0.0003492916 -0.001799959)
(0.9422456 -0.001213362 -0.003443633)
(0.8935767 0.0007178832 -0.003590487)
(0.6381243 -0.003080539 -0.01019972)
(0.4639229 -0.00136384 -0.02470673)
(0.002092953 -0.01209207 -0.01068818)
(0.000529684 -0.01450107 -0.001185154)
(0.0004367243 -0.01291878 -0.002511943)
(0.0003428252 -0.006903834 -0.0008156488)
(0.0004579807 -0.007221037 -0.001700523)
(0.0003879745 -0.007867318 -0.003903782)
(0.0004174083 -0.004905514 -0.0005063215)
(0.0002982756 -0.005203279 -0.001066285)
(0.0003898934 -0.00543177 -0.002995528)
(0.0003383352 -0.005910583 -0.001176551)
(0.0003864953 -0.00258994 -0.0004493645)
(0.0003975158 -0.002749451 -0.0009322327)
(0.0002700915 -0.002926488 -0.002674555)
(0.0003385988 -0.00307666 -0.001000895)
(0.0003164338 -0.003389908 -0.01068068)
(0.0004280924 -0.0008475826 -0.0004151793)
(0.0003787802 -0.0008977768 -0.0008500275)
(0.0003827 -0.0009437703 -0.002460796)
(0.0002440487 -0.0009934676 -0.0008982268)
(0.000325428 -0.001056876 -0.009702081)
(3.143816e-05 -0.0001281014 -0.004037445)
(0.2878392 0.001223517 0.001235454)
(0.743431 -0.006758186 -0.008622175)
(0.7580498 -0.08113495 -0.09009082)
(0.6651569 -0.001330553 -0.001401467)
(1.360768 0.003056261 0.002823178)
(2.1816 -0.01951533 -0.01958056)
(1.779039 -0.1864388 -0.1216518)
(0.8140075 0.0007139918 0.0007368127)
(2.04993 -0.00224169 -0.002946221)
(2.581085 0.004140372 0.003053474)
(3.437697 -0.0239103 -0.02025488)
(2.407442 -0.1864411 -0.07602032)
(0.9543211 -0.0002977978 -0.0005900675)
(2.254215 0.001037966 0.001171749)
(3.317516 -0.001507613 -0.003852063)
(3.579149 0.003783085 0.00149033)
(4.283269 -0.01842536 -0.01180326)
(2.716721 -0.1285721 0.003136297)
(0.9875748 4.583152e-05 0.0001633752)
(2.469071 -0.000173163 -0.001468931)
(3.389335 0.0005065148 0.0005388447)
(4.189434 -0.0004039586 -0.004171648)
(4.142402 0.001604821 -0.00160589)
(4.598012 -0.006462604 0.001569455)
(2.749412 -0.04526908 0.0817973)
(0.99694 4.148407e-05 -0.0002701101)
(2.427649 -0.000115651 -3.60891e-05)
(3.48078 0.0001635225 -0.002441632)
(4.017043 -0.0006249657 -0.001047407)
(4.512276 0.000249422 -0.004414894)
(4.170914 -0.001800373 -0.005151918)
(4.356187 0.005909627 0.01357001)
(2.503647 0.04308159 0.1403835)
(0.9388862 -3.252782e-05 -1.072304e-06)
(2.30105 0.0001802807 -0.0008402873)
(3.20433 -0.0004838388 -0.0007859865)
(3.842989 0.0003292184 -0.003200683)
(4.032843 -0.002039385 -0.003034099)
(4.233006 0.0003566392 -0.004531353)
(3.65997 -0.00533051 -0.008287118)
(3.579932 0.01374648 0.0185776)
(1.938622 0.1026765 0.1424221)
(0.8300594 9.189116e-05 -0.0001356888)
(1.975128 -0.0001606635 -0.0002484792)
(2.759269 0.0002134301 -0.001485512)
(3.211185 -0.0008686052 -0.001722724)
(3.501286 0.000231317 -0.00365801)
(3.431208 -0.003233559 -0.00492115)
(3.393837 7.975756e-05 -0.004582893)
(2.697249 -0.00778287 -0.01058844)
(2.363236 0.01525521 0.01404916)
(0.9705529 0.09469634 0.03283495)
(0.635953 2.256184e-05 -3.219255e-05)
(1.457084 0.0001050979 -0.0003846001)
(1.977123 -0.0002431068 -0.000614451)
(2.30802 0.000108711 -0.001722531)
(2.443646 -0.000976785 -0.002334517)
(2.499751 -7.704396e-05 -0.00368148)
(2.305551 -0.003508054 -0.006220081)
(2.134446 -0.0007459817 -0.005144497)
(1.481091 -0.007793148 -0.01280228)
(0.9521224 0.004754804 -0.01568797)
(0.003378375 0.000510368 -0.007428974)
(0.310354 2.690943e-05 -1.870452e-05)
(0.6361516 1.52108e-05 -8.065986e-05)
(0.831055 8.843783e-05 -0.0003504869)
(0.9416749 -7.598911e-05 -0.0005332429)
(1.002936 0.0001413464 -0.001096458)
(0.9985788 -0.0003939112 -0.001788217)
(0.9730843 0.0001290521 -0.002665542)
(0.8432723 -0.001505281 -0.005153896)
(0.7134547 0.0006047781 -0.006618745)
(0.3604967 -0.006922751 -0.02569736)
(0.002394856 -0.01087398 -0.009304243)
(0.0005499258 -0.009942371 -0.014648)
(0.0003918071 -0.01354074 -0.001097193)
(0.000524465 -0.01142803 -0.002217891)
(0.000430678 -0.01158201 -0.004494909)
(0.0004564311 -0.006426238 -0.0007600748)
(0.0003419199 -0.006765746 -0.001571692)
(0.0004513425 -0.00702556 -0.003500896)
(0.0003766976 -0.007604203 -0.0015951)
(0.0004045276 -0.004642742 -0.0004775717)
(0.0004197506 -0.004847067 -0.0009963727)
(0.0002950656 -0.005094576 -0.002766113)
(0.000372685 -0.005297413 -0.001066604)
(0.0003388571 -0.005811663 -0.01089658)
(0.0004373173 -0.002453843 -0.0004265503)
(0.0003890944 -0.002603759 -0.0008799759)
(0.0003950963 -0.002728104 -0.00250375)
(0.0002574228 -0.002892335 -0.0009262962)
(0.0003442349 -0.003043861 -0.009781346)
(3.26819e-05 -0.0003674042 -0.004074743)
(0.0004338036 -0.0008090145 -0.0003959278)
(0.0004315385 -0.0008507466 -0.0008071652)
(0.0003768466 -0.0008939208 -0.002323883)
(0.0003726562 -0.0009267772 -0.000841415)
(0.0002488014 -0.0009930045 -0.008987519)
(3.199688e-05 -0.0001156211 -0.003707737)
(2.798009e-05 -0.000115366 -0.004783917)
(0.3259854 -0.0007880778 -0.0007789098)
(0.5933412 0.002090569 0.001627961)
(0.9441581 -0.007025505 -0.008891822)
(0.8202593 -0.07876124 -0.0605111)
(0.6248142 0.000716077 0.0006952202)
(1.512901 -0.00223866 -0.002603186)
(1.855666 0.00388013 0.002255122)
(2.484254 -0.02073963 -0.01601503)
(1.85524 -0.182957 -0.0594155)
(0.8420389 -0.0004576143 -0.0005724451)
(1.945461 0.001465914 0.001144172)
(2.838801 -0.002306627 -0.003790146)
(3.03332 0.005406632 0.001044358)
(3.665217 -0.02292029 -0.01040154)
(2.419224 -0.1840638 0.005696789)
(0.9361609 0.0001317431 0.0001682379)
(2.321213 -0.0005059995 -0.001441465)
(3.168834 0.001396805 0.0005362268)
(3.91031 -0.001222532 -0.004194111)
(3.855851 0.004560712 -0.001716974)
(4.309891 -0.01725575 0.00156958)
(2.626804 -0.1273224 0.08348441)
(0.99694 -4.14841e-05 -0.0002701101)
(2.427649 0.0001156509 -3.60891e-05)
(3.48078 -0.0001635224 -0.002441632)
(4.017043 0.0006249657 -0.001047407)
(4.512276 -0.0002494219 -0.004414894)
(4.170914 0.001800373 -0.005151918)
(4.356187 -0.005909627 0.01357001)
(2.503647 -0.04308159 0.1403835)
(0.9903648 -1.18151e-05 -5.747833e-06)
(2.448059 6.1043e-05 -0.0008718066)
(3.426503 -0.0001770133 -0.0008446479)
(4.119999 0.0001032114 -0.003294741)
(4.332325 -0.0007530304 -0.003071133)
(4.542086 8.396927e-05 -0.004520515)
(3.927562 -0.001871608 -0.00841776)
(3.801991 0.00516421 0.01924316)
(2.021285 0.03571497 0.1408708)
(0.9411457 6.11828e-05 -0.0001492812)
(2.287008 -0.0001205967 -0.0003120628)
(3.229738 0.0001261289 -0.001672869)
(3.7846 -0.0006675681 -0.001957567)
(4.135915 6.09323e-05 -0.003963374)
(4.05929 -0.002456301 -0.005101819)
(3.994735 -0.0001329381 -0.004455724)
(3.166241 -0.005226718 -0.01060176)
(2.698964 0.01189716 0.01612443)
(1.057565 0.06104328 0.03410579)
(0.8275398 2.798578e-05 -5.596934e-05)
(1.979313 0.0001052544 -0.0005307571)
(2.742811 -0.0002926794 -0.0008985154)
(3.2366 4.747045e-05 -0.002297895)
(3.446776 -0.00118797 -0.003011807)
(3.523184 -0.000294836 -0.004421058)
(3.242451 -0.00400411 -0.006858077)
(2.960935 -0.0008480462 -0.004542283)
(2.027465 -0.007274103 -0.01105592)
(1.226753 0.006821881 -0.007781975)
(0.003996482 0.0004308968 -0.00525808)
(0.6360896 3.979472e-05 -5.761737e-05)
(1.45289 -7.064572e-06 -0.0002544415)
(1.9813 4.957525e-05 -0.0008662684)
(2.293935 -0.0003751361 -0.00132353)
(2.464068 -0.0001170257 -0.002469408)
(2.45793 -0.001402347 -0.003646187)
(2.373385 -0.0008382084 -0.004726375)
(2.026448 -0.004593281 -0.008168645)
(1.642108 -0.001972556 -0.006906275)
(0.7715984 -0.006543218 -0.01899575)
(0.004104211 -6.527008e-05 -0.006481552)
(0.0005625466 -0.001968179 -0.01059894)
(0.3099356 1.810779e-05 -1.024683e-05)
(0.6362878 4.075031e-05 -9.741052e-05)
(0.8285335 1.192505e-05 -0.0002682543)
(0.9439227 7.401797e-05 -0.0006181823)
(0.9963246 -0.0001159911 -0.0009784183)
(1.007968 4.735672e-05 -0.001663291)
(0.954648 -0.0006034323 -0.002873817)
(0.8719352 -0.0001588721 -0.003888723)
(0.6706859 -0.001542231 -0.008204263)
(0.4062493 -0.004016445 -0.02294839)
(0.001810193 -0.01017152 -0.008648795)
(0.0006863427 -0.008839384 -0.01270087)
(0.0005178098 -0.009087051 -0.01033222)
(0.000499369 -0.01259317 -0.001019025)
(0.0003885102 -0.0106823 -0.002048933)
(0.0005156328 -0.01026589 -0.003985218)
(0.0004166853 -0.01034011 -0.001991085)
(0.0004362067 -0.006081192 -0.0007166791)
(0.0004578137 -0.006299613 -0.001464516)
(0.0003372938 -0.006585617 -0.003227185)
(0.0004306949 -0.006814065 -0.001422204)
(0.0003767195 -0.007455875 -0.01131099)
(0.0004531894 -0.004397567 -0.0004529859)
(0.0004071836 -0.004588383 -0.0009398709)
(0.0004171009 -0.004746994 -0.002585803)
(0.000281755 -0.004974994 -0.0009854343)
(0.0003783782 -0.005203257 -0.009922572)
(3.497598e-05 -0.0006301275 -0.004150661)
(0.0004419191 -0.002342164 -0.0004066701)
(0.0004408156 -0.002467273 -0.0008352599)
(0.0003870747 -0.002583994 -0.002363458)
(0.0003848216 -0.002698079 -0.0008669924)
(0.0002621353 -0.002859955 -0.009050937)
(3.389756e-05 -0.0003318253 -0.003731924)
(2.907973e-05 -0.000333968 -0.004828822)
(0.0004574123 -0.0007734468 -0.0003788389)
(0.000437536 -0.0008121249 -0.0007697462)
(0.0004298502 -0.0008472091 -0.002206795)
(0.0003684208 -0.0008782672 -0.0007946554)
(0.0003746678 -0.0009261856 -0.008421148)
(2.427544e-05 -0.0001089125 -0.003434747)
(2.753793e-05 -0.0001043946 -0.004393154)
(2.699674e-05 -0.0001151381 -0.004718958)
(0.3041875 0.0004013971 0.0004119026)
(0.6653622 -0.001375799 -0.00142078)
(0.7742805 0.002316345 0.001311408)
(1.053371 -0.006495504 -0.006246686)
(0.8466627 -0.07730293 -0.02829728)
(0.6477249 -0.0004649303 -0.0005030991)
(1.4301 0.001372821 0.001051362)
(2.052005 -0.002326922 -0.003226184)
(2.156181 0.004779053 0.0005479374)
(2.629143 -0.02009185 -0.007752389)
(1.863162 -0.1810071 0.006636536)
(0.8253359 0.0001983456 0.0001796591)
(2.005916 -0.0007619554 -0.001346634)
(2.704663 0.001904546 0.0005564056)
(3.324605 -0.001962516 -0.004033829)
(3.258123 0.006458003 -0.001770587)
(3.687749 -0.02158305 0.001499514)
(2.340411 -0.1830467 0.08242691)
(0.9452454 -0.0001219547 -0.0002644932)
(2.281381 0.0003229304 -1.214939e-05)
(3.256337 -0.0004857763 -0.002375548)
(3.74468 0.00170259 -0.001023675)
(4.205657 -0.0008123087 -0.004403129)
(3.882108 0.005097082 -0.005084054)
(4.088943 -0.01578241 0.01307829)
(2.394633 -0.122124 0.1421609)
(0.9903648 1.181517e-05 -5.747858e-06)
(2.448059 -6.104284e-05 -0.0008718066)
(3.426503 0.0001770131 -0.0008446479)
(4.119999 -0.0001032114 -0.00329474)
(4.332325 0.0007530305 -0.003071133)
(4.542086 -8.396929e-05 -0.004520515)
(3.927562 0.001871607 -0.00841776)
(3.801991 -0.00516421 0.01924316)
(2.021285 -0.03571497 0.1408708)
(0.9926444 2.083419e-05 -0.0001545559)
(2.433436 -4.467235e-05 -0.0003377865)
(3.45295 3.960991e-05 -0.001743579)
(4.058942 -0.000247785 -0.002042197)
(4.440389 2.334678e-06 -0.004045944)
(4.361173 -0.0009044176 -0.005094866)
(4.28128 -8.018826e-05 -0.004330883)
(3.388775 -0.001801574 -0.01063278)
(2.850881 0.004425415 0.0164353)
(1.093471 0.02084018 0.03416742)
(0.9384712 1.985933e-05 -6.827449e-05)
(2.291367 6.645269e-05 -0.0006054476)
(3.211321 -0.0002303525 -0.001050724)
(3.812891 -1.282036e-05 -0.002566893)
(4.074703 -0.0009251378 -0.003279911)
(4.162778 -0.0003310786 -0.004601037)
(3.826272 -0.002956205 -0.006795837)
(3.465187 -0.0006137063 -0.003929652)
(2.356211 -0.00452468 -0.01027292)
(1.377557 0.005248452 -0.006387261)
(0.004297703 0.0002703013 -0.004611441)
(0.8276057 4.001135e-05 -8.12673e-05)
(1.974205 -6.718788e-06 -0.0003821959)
(2.747709 2.767747e-05 -0.0011894)
(3.218142 -0.0004749947 -0.001805249)
(3.473235 -0.0002455625 -0.003173076)
(3.468392 -0.001688662 -0.00437091)
(3.331136 -0.001072814 -0.005105245)
(2.821971 -0.00487828 -0.008077318)
(2.236585 -0.001581707 -0.004440926)
(1.019647 -0.004894489 -0.01150134)
(0.005064805 7.44816e-06 -0.004563698)
(0.0005701335 -0.001010478 -0.007837549)
(0.6352647 2.846631e-05 -4.218071e-05)
(1.452882 2.002615e-05 -0.000273845)
(1.976187 -7.384557e-05 -0.0007122127)
(2.298265 -6.283535e-05 -0.001477649)
(2.449352 -0.000595321 -0.002216243)
(2.478397 -0.0005235616 -0.003395386)
(2.332821 -0.002127847 -0.005148199)
(2.088565 -0.001959889 -0.005851636)
(1.553201 -0.005438107 -0.009952899)
(0.8612642 -0.002716487 -0.01609328)
(0.00326286 -0.0001191955 -0.006006688)
(0.0007060434 -0.001900571 -0.009197931)
(0.0005274525 -0.002610685 -0.008642424)
(0.3097411 2.196314e-05 -1.440665e-05)
(0.6354621 2.58138e-05 -8.446353e-05)
(0.8285967 3.844037e-05 -0.000274123)
(0.9412421 -2.957652e-06 -0.0005438358)
(0.9985808 3.656302e-05 -0.000989251)
(1.001324 -0.0002062146 -0.00161936)
(0.9637946 -0.0001538112 -0.002544824)
(0.85475 -0.0008751095 -0.004263462)
(0.6948528 -0.0002472778 -0.006657649)
(0.3797327 -0.005248802 -0.02226524)
(0.002059944 -0.009444183 -0.0080368)
(0.0004952903 -0.008262479 -0.01179923)
(0.0006444864 -0.008099408 -0.009002835)
(0.000488181 -0.008273483 -0.005793634)
(0.0004711168 -0.01190416 -0.0009614668)
(0.0004984366 -0.009937872 -0.001904481)
(0.0003824743 -0.009602679 -0.003665152)
(0.0004912145 -0.009211343 -0.001755305)
(0.0004164354 -0.009790737 -0.01179864)
(0.0004809965 -0.005758856 -0.0006788618)
(0.0004380987 -0.005962561 -0.001380978)
(0.0004539983 -0.006133703 -0.003009831)
(0.0003221389 -0.006396415 -0.001313291)
(0.0004356473 -0.006673173 -0.01020467)
(3.887741e-05 -0.0008074182 -0.00426943)
(0.0004556643 -0.004196417 -0.0004316872)
(0.0004567441 -0.004346728 -0.0008914382)
(0.0004049863 -0.004494541 -0.002438998)
(0.0004063901 -0.004638718 -0.0009208998)
(0.0002863773 -0.004884257 -0.009161032)
(3.741368e-05 -0.0005675755 -0.003780152)
(3.11052e-05 -0.0005727318 -0.004918959)
(0.000464842 -0.002239142 -0.0003890269)
(0.0004457015 -0.002355243 -0.0007963436)
(0.0004390548 -0.002448874 -0.002243578)
(0.0003784776 -0.002556811 -0.0008184805)
(0.0003867548 -0.00266725 -0.008475087)
(2.564855e-05 -0.0003126392 -0.00345331)
(2.922101e-05 -0.0003025266 -0.004422463)
(2.806092e-05 -0.0003297883 -0.004762772)
(0.0004652273 -0.0007423622 -0.0003634961)
(0.0004616002 -0.0007764878 -0.0007365088)
(0.0004360518 -0.0008088327 -0.002104543)
(0.0004225445 -0.0008326503 -0.0007546157)
(0.0003695525 -0.0008775429 -0.007953303)
(3.884054e-05 -0.0001017246 -0.003218384)
(2.079462e-05 -9.84833e-05 -0.0040696)
(2.607615e-05 -0.0001044103 -0.004333584)
(2.629253e-05 -0.000112054 -0.004255877)
(0.3164504 -0.0002769502 -0.000266846)
(0.6250124 0.000716368 0.0006431123)
(0.8640052 -0.001474604 -0.001634739)
(0.8809128 0.002416442 0.0004022085)
(1.104359 -0.005982997 -0.002493584)
(0.8492565 -0.07680983 0.004016356)
(0.6340539 0.0002037867 0.0001869636)
(1.477602 -0.0007542199 -0.001096851)
(1.947468 0.001702391 0.0005852869)
(2.37631 -0.002085665 -0.003310569)
(2.304101 0.005546768 -0.001568247)
(2.6437 -0.01913413 0.001540701)
(1.804525 -0.1808828 0.06899118)
(0.8337241 -0.0001856247 -0.0002491476)
(1.969919 0.0004544029 4.353797e-05)
(2.782964 -0.0007503372 -0.002172043)
(3.175698 0.002263708 -0.0009044649)
(3.564817 -0.001453519 -0.004183334)
(3.279664 0.007190791 -0.004824351)
(3.509766 -0.01982485 0.01145641)
(2.138634 -0.1776613 0.1398273)
(0.9388862 3.25279e-05 -1.072359e-06)
(2.30105 -0.0001802807 -0.0008402873)
(3.20433 0.0004838388 -0.0007859864)
(3.842989 -0.0003292184 -0.003200683)
(4.032843 0.002039385 -0.003034099)
(4.233006 -0.0003566389 -0.004531353)
(3.65997 0.00533051 -0.008287118)
(3.579932 -0.01374648 0.0185776)
(1.938622 -0.1026765 0.1424221)
(0.9926444 -2.083424e-05 -0.0001545559)
(2.433436 4.46724e-05 -0.0003377865)
(3.45295 -3.960979e-05 -0.001743579)
(4.058942 0.0002477849 -0.002042197)
(4.440389 -2.334576e-06 -0.004045944)
(4.361173 0.0009044178 -0.005094866)
(4.28128 8.018829e-05 -0.004330883)
(3.388775 0.001801574 -0.01063278)
(2.850881 -0.004425415 0.0164353)
(1.093471 -0.02084018 0.03416742)
(0.9899175 6.792899e-06 -7.308883e-05)
(2.437822 2.167376e-05 -0.0006344889)
(3.4337 -8.677459e-05 -0.001110927)
(4.088439 -1.370425e-05 -0.002662719)
(4.376319 -0.0003449207 -0.003355133)
(4.469695 -0.0001397485 -0.004603305)
(4.105881 -0.001072884 -0.00665592)
(3.703894 -0.0002212247 -0.00362641)
(2.510682 -0.001506783 -0.01003962)
(1.44482 0.001888495 -0.006068102)
(0.004421635 8.949787e-05 -0.004329441)
(0.9384671 2.469186e-05 -9.205935e-05)
(2.285892 -7.964978e-06 -0.0004518842)
(3.21637 -1.114031e-07 -0.001353506)
(3.792145 -0.0003832268 -0.002037143)
(4.104202 -0.0002474526 -0.003453071)
(4.101241 -0.001298213 -0.00454512)
(3.925911 -0.0008487007 -0.004965575)
(3.311005 -0.003403084 -0.00754974)
(2.59149 -0.0008375406 -0.003277745)
(1.16508 -0.002615261 -0.009718458)
(0.00559252 1.63101e-05 -0.003972311)
(0.0005712395 -0.0003143862 -0.006898476)
(0.8265452 3.021581e-05 -6.419288e-05)
(1.973949 1.129867e-05 -0.0003944232)
(2.741427 -9.650322e-05 -0.001009791)
(3.223163 -0.0001275815 -0.001979965)
(3.453879 -0.0007618871 -0.002853715)
(3.494923 -0.0007237233 -0.004071709)
(3.278148 -0.002429728 -0.005617637)
(2.902628 -0.002037339 -0.005423965)
(2.123835 -0.005195847 -0.008029134)
(1.133428 -0.001321319 -0.009007212)
(0.004138546 -4.136978e-05 -0.004208169)
(0.0007189082 -0.0009937965 -0.006763378)
(0.0005340653 -0.001395464 -0.007461498)
(0.6348455 3.609335e-05 -4.86408e-05)
(1.451056 3.219011e-06 -0.000248774)
(1.975925 -4.591421e-05 -0.0007063807)
(2.292774 -0.0001861452 -0.001332278)
(2.453674 -0.0002686802 -0.002223017)
(2.463594 -0.0009855763 -0.003299564)
(2.352653 -0.001223375 -0.004521195)
(2.051305 -0.003173647 -0.006617215)
(1.60388 -0.003034331 -0.007446807)
(0.8102651 -0.004887556 -0.01616467)
(0.003668777 -9.182643e-05 -0.005571634)
(0.0005176716 -0.001794523 -0.008520723)
(0.000660749 -0.002457926 -0.007511004)
(0.0005005201 -0.00312561 -0.00468851)
(0.3094137 1.843876e-05 -1.113006e-05)
(0.6350424 3.272977e-05 -9.050882e-05)
(0.8275315 2.278684e-05 -0.0002568776)