/*--------------------------------*- C++ -*----------------------------------*\
| =========                 |                                                 |
| \\      /  F ield         | OpenFOAM: The Open Source CFD Toolbox           |
|  \\    /   O peration     | Version:  2306                                  |
|   \\  /    A nd           | Website:  www.openfoam.com                      |
|    \\/     M anipulation  |                                                 |
\*---------------------------------------------------------------------------*/
FoamFile
{
    version     2.0;
    format      ascii;
    arch        "LSB;label=32;scalar=64";
    class       volScalarField;
    location    "0.6/air";
    object      X.N2;
}
// * * * * * * * * * * * * * * * * * * * * * * * * * * * * * * * * * * * * * //

dimensions      [0 0 0 0 0 0 0];

internalField   nonuniform List<scalar> 
16000
(
0.7930833
0.7930752
0.7945917
0.7931238
0.7930652
0.7944997
0.7931104
0.7971582
0.7947116
0.7932219
0.7930572
0.7943773
0.7930955
0.7970562
0.7945907
0.7931959
0.7997572
0.7972925
0.7950178
0.7934118
0.7930529
0.7942708
0.7930845
0.7969167
0.7944368
0.7931675
0.7996568
0.7971603
0.7948613
0.7933633
0.8022671
0.7998912
0.7976261
0.7955684
0.7937546
0.7930529
0.7942103
0.7930788
0.7967928
0.7943067
0.7931468
0.7995192
0.7969872
0.7946637
0.793308
0.8021712
0.7997617
0.7974587
0.7953792
0.7936744
0.8046596
0.802395
0.8002224
0.7982148
0.7964085
0.7943374
0.8278785
0.7930572
0.7942103
0.7930788
0.7967215
0.794234
0.7931363
0.7993966
0.7968373
0.7944978
0.7932668
0.8020397
0.7995917
0.7972425
0.795137
0.7935751
0.8045688
0.8022714
0.8000599
0.7980164
0.7961921
0.7942285
0.8069357
0.804781
0.8027108
0.8008037
0.7991028
0.7975761
0.7952563
0.8267104
0.8294496
0.828063
0.7930652
0.7942708
0.7930845
0.7967215
0.794234
0.7931363
0.7993259
0.7967522
0.7944055
0.7932458
0.8019227
0.799444
0.797057
0.7949316
0.7934983
0.8044444
0.8021093
0.7998497
0.7977591
0.7959123
0.7940841
0.8068495
0.8046641
0.8025563
0.8006136
0.7988794
0.797328
0.7951127
0.8091063
0.8070507
0.8050807
0.803264
0.8016739
0.800322
0.7991206
0.7966407
0.8243491
0.8284027
0.8268992
0.830237
0.8296185
0.8284311
0.7930752
0.7943773
0.7930955
0.7967928
0.7943067
0.7931468
0.7993259
0.7967522
0.7944055
0.7932458
0.8018553
0.7993599
0.7969523
0.7948167
0.7934582
0.8043338
0.8019686
0.799669
0.7975383
0.7956704
0.7939606
0.8067316
0.8045108
0.8023567
0.800367
0.7985872
0.7970054
0.7949136
0.8090244
0.8069397
0.8049347
0.8030841
0.8014634
0.8000774
0.7988333
0.7964293
0.8111826
0.8092157
0.8073347
0.8056056
0.8040902
0.8028582
0.8018961
0.8010938
0.7986898
0.8207043
0.8262915
0.8245531
0.8292637
0.8285748
0.8272751
0.8309165
0.8303929
0.8299555
0.8289818
0.7930833
0.7944997
0.7931104
0.7969167
0.7944368
0.7931675
0.7993966
0.7968373
0.7944978
0.7932668
0.8018553
0.7993599
0.7969523
0.7948167
0.7934582
0.80427
0.8018886
0.7995667
0.7974138
0.7955333
0.7938913
0.8066266
0.8043778
0.8021853
0.800155
0.7983353
0.7967287
0.794738
0.8089122
0.8067943
0.8047461
0.8028513
0.801188
0.7997542
0.7984577
0.7961378
0.8111044
0.8091102
0.8071962
0.8054357
0.803892
0.8026317
0.8016255
0.8007387
0.7982961
0.8131749
0.811287
0.809486
0.8078321
0.806389
0.8052115
0.8043715
0.8038478
0.803567
0.8017767
0.815428
0.8230483
0.8209658
0.8273018
0.8264756
0.8249544
0.8300051
0.8294225
0.8289176
0.8278352
0.831653
0.8310622
0.8307043
0.8304599
0.8297136
0.7945917
0.7931238
0.7970562
0.7945907
0.7931959
0.7995192
0.7969872
0.7946637
0.793308
0.8019227
0.799444
0.797057
0.7949316
0.7934983
0.80427
0.8018886
0.7995667
0.7974138
0.7955333
0.7938913
0.8065661
0.8043022
0.8020885
0.8000351
0.7981928
0.7965725
0.7946376
0.8088124
0.8066683
0.8045843
0.8026515
0.80095
0.799474
0.7981361
0.7958863
0.8109972
0.8089719
0.8070173
0.805216
0.8036333
0.802332
0.8012654
0.800281
0.7978198
0.8131
0.8111862
0.8093541
0.8076709
0.806202
0.804999
0.8041241
0.8035229
0.8030486
0.8008398
0.8150919
0.8132748
0.8115449
0.8099595
0.8085747
0.8074517
0.8066408
0.8062279
0.8062219
0.8066919
0.8068094
0.8183933
0.8159688
0.8242902
0.8232794
0.8214526
0.8281685
0.8274713
0.8268381
0.8255433
0.8307934
0.8301534
0.8297388
0.8294288
0.8285766
0.832495
0.8317904
0.8313534
0.8311704
0.8311306
0.8307677
0.7971582
0.7947116
0.7932219
0.7996568
0.7971603
0.7948613
0.7933633
0.8020397
0.7995917
0.7972425
0.795137
0.7935751
0.8043338
0.8019686
0.799669
0.7975383
0.7956704
0.7939606
0.8065661
0.8043022
0.8020885
0.8000351
0.7981928
0.7965725
0.7946376
0.8087548
0.8065965
0.8044928
0.8025385
0.8008151
0.7993151
0.7979549
0.7957444
0.8109019
0.808852
0.8068638
0.8050275
0.8034103
0.8020714
0.8009529
0.7998951
0.797443
0.8129974
0.8110541
0.8091839
0.8074624
0.8059581
0.8047186
0.8037939
0.8030973
0.8024348
0.8000005
0.8150199
0.8131783
0.8114189
0.8098059
0.808397
0.8072512
0.806409
0.8059314
0.805749
0.805705
0.8041329
0.8169405
0.8151878
0.8135217
0.8119967
0.8106665
0.8095823
0.8088054
0.8083909
0.8084649
0.8091489
0.8109125
0.8093215
0.8199727
0.8188581
0.8167746
0.8253505
0.8245025
0.8237114
0.822127
0.8290615
0.8283267
0.8278051
0.8273711
0.8263106
0.8316804
0.8309332
0.830449
0.8302106
0.830106
0.8296407
0.8334084
0.8326253
0.8320648
0.8317891
0.8317903
0.832097
0.8309849
0.7997572
0.7972925
0.7950178
0.7934118
0.8021712
0.7997617
0.7974587
0.7953792
0.7936744
0.8044444
0.8021093
0.7998497
0.7977591
0.7959123
0.7940841
0.8066266
0.8043778
0.8021853
0.800155
0.7983353
0.7967287
0.794738
0.8087548
0.8065965
0.8044928
0.8025385
0.8008151
0.7993151
0.7979549
0.7957444
0.810847
0.8087837
0.8067771
0.8049209
0.803284
0.8019232
0.8007759
0.79968
0.7972406
0.8129062
0.8109396
0.809038
0.8072837
0.8057478
0.8044754
0.8035064
0.8027344
0.8019452
0.7994276
0.8149214
0.8130518
0.8112563
0.8096074
0.8081655
0.8069868
0.8061004
0.8055416
0.8051842
0.8047866
0.802712
0.8168713
0.8150951
0.813401
0.8118499
0.8104971
0.8093916
0.8085865
0.8081125
0.8080289
0.8082389
0.8084465
0.8061782
0.8187268
0.8170328
0.8154248
0.8139545
0.8126718
0.8116264
0.8108665
0.8104623
0.8104976
0.8112041
0.8130465
0.8130329
0.8112743
0.8213131
0.8203998
0.8195553
0.8177117
0.8264047
0.8255483
0.8248992
0.8243124
0.8229605
0.8300391
0.8292104
0.8286381
0.8282959
0.828067
0.827397
0.8326327
0.8318128
0.8312116
0.8308898
0.8308358
0.8310788
0.8298599
0.8343781
0.8335325
0.8328855
0.8324756
0.8323687
0.8326837
0.8322961
0.8312039
0.8022671
0.7998912
0.7976261
0.7955684
0.7937546
0.8045688
0.8022714
0.8000599
0.7980164
0.7961921
0.7942285
0.8067316
0.8045108
0.8023567
0.800367
0.7985872
0.7970054
0.7949136
0.8088124
0.8066683
0.8045843
0.8026515
0.80095
0.799474
0.7981361
0.7958863
0.810847
0.8087837
0.8067771
0.8049209
0.803284
0.8019232
0.8007759
0.79968
0.7972406
0.8128536
0.8108745
0.8089555
0.8071828
0.8056288
0.8043374
0.8033431
0.8025311
0.8016807
0.7991413
0.8148338
0.8129422
0.8111169
0.8094373
0.8079661
0.8067576
0.8058324
0.8052083
0.8047307
0.8041353
0.8018889
0.8167765
0.8149736
0.8132453
0.8116602
0.8102765
0.8091403
0.8082953
0.8077476
0.8075077
0.8073907
0.8070513
0.8044579
0.8186601
0.8169435
0.8153089
0.8138138
0.8125097
0.8114443
0.810658
0.810199
0.8100872
0.8103568
0.8107604
0.8101691
0.8079897
0.8204561
0.8188158
0.8172609
0.8158403
0.8146013
0.8135886
0.8128504
0.8124397
0.8124563
0.8130769
0.8148415
0.8150015
0.8146909
0.812872
0.8225995
0.8217109
0.8210398
0.8203722
0.8187161
0.8275216
0.8265907
0.8259178
0.8254511
0.8250587
0.824089
0.8310699
0.8301801
0.8295036
0.8290961
0.8289369
0.829054
0.8276207
0.8336369
0.8327588
0.8320768
0.8316271
0.8314741
0.8317341
0.8312792
0.8300809
0.8353821
0.8344966
0.8337803
0.833275
0.8330221
0.8332042
0.8328678
0.832497
0.8314248
0.8046596
0.802395
0.8002224
0.7982148
0.7964085
0.7943374
0.8068495
0.8046641
0.8025563
0.8006136
0.7988794
0.797328
0.7951127
0.8089122
0.8067943
0.8047461
0.8028513
0.801188
0.7997542
0.7984577
0.7961378
0.8109019
0.808852
0.8068638
0.8050275
0.8034103
0.8020714
0.8009529
0.7998951
0.797443
0.8128536
0.8108745
0.8089555
0.8071828
0.8056288
0.8043374
0.8033431
0.8025311
0.8016807
0.7991413
0.8147833
0.8128798
0.8110382
0.8093412
0.8078532
0.8066275
0.8056804
0.8050212
0.8044849
0.8038023
0.8015033
0.8166922
0.8148683
0.8131118
0.8114977
0.8100865
0.8089227
0.8080424
0.8074362
0.8070887
0.8067875
0.8062042
0.8034871
0.8185686
0.8168266
0.8151592
0.813632
0.8122986
0.8112046
0.8103808
0.8098539
0.8095975
0.8095674
0.8094652
0.8085255
0.8060754
0.8203916
0.8187297
0.8171492
0.8157051
0.8144458
0.8134142
0.8126511
0.8121885
0.8120675
0.8122781
0.8127051
0.8123434
0.8117025
0.8095762
0.8221327
0.820542
0.8190357
0.8176608
0.8164615
0.81548
0.8147585
0.8143505
0.8143346
0.8148977
0.8165017
0.8166648
0.8165265
0.816057
0.8142206
0.8239166
0.8229735
0.8223067
0.8217887
0.8212549
0.8199233
0.8286731
0.8276976
0.8269383
0.8264321
0.8261364
0.8260735
0.824321
0.8321439
0.8312042
0.8304579
0.8299349
0.8296944
0.8298463
0.8292573
0.8278462
0.8346718
0.8337575
0.8330102
0.8324706
0.8321777
0.8323136
0.8319192
0.8314813
0.8303038
0.83641
0.8354957
0.8347335
0.8341513
0.8337932
0.8338098
0.8333764
0.8330534
0.8326995
0.8316475
0.8069357
0.804781
0.8027108
0.8008037
0.7991028
0.7975761
0.7952563
0.8090244
0.8069397
0.8049347
0.8030841
0.8014634
0.8000774
0.7988333
0.7964293
0.8109972
0.8089719
0.8070173
0.805216
0.8036333
0.802332
0.8012654
0.800281
0.7978198
0.8129062
0.8109396
0.809038
0.8072837
0.8057478
0.8044754
0.8035064
0.8027344
0.8019452
0.7994276
0.8147833
0.8128798
0.8110382
0.8093412
0.8078532
0.8066275
0.8056804
0.8050212
0.8044849
0.8038023
0.8015033
0.8166436
0.8148084
0.8130364
0.8114059
0.809979
0.8087992
0.807899
0.8072617
0.8068613
0.8064786
0.8057961
0.803041
0.8184873
0.8167253
0.815031
0.8134762
0.8121169
0.810997
0.8101404
0.8095595
0.8092047
0.8090064
0.8086775
0.8075598
0.8049924
0.8203032
0.818617
0.8170052
0.8155303
0.8142433
0.8131846
0.8123862
0.8118596
0.8116036
0.8115348
0.8114953
0.8108152
0.8098952
0.8075523
0.8220702
0.8204588
0.818928
0.8175305
0.8163119
0.8153126
0.8145673
0.8141103
0.8139637
0.8141405
0.8144876
0.814179
0.8137493
0.8130518
0.8109535
0.8237605
0.8222158
0.8207544
0.8194213
0.8182587
0.8173057
0.8166018
0.8161934
0.8161587
0.8166567
0.8181405
0.818218
0.8180857
0.8177796
0.8172199
0.8155507
0.8252413
0.8242705
0.8235337
0.8230037
0.8225969
0.8223244
0.8201703
0.8298541
0.8288406
0.8280267
0.8274221
0.8270706
0.8270682
0.8262822
0.8245544
0.8332409
0.8322721
0.8314686
0.8308665
0.8304983
0.8305433
0.8300335
0.8294621
0.8280734
0.8357276
0.8347873
0.8339976
0.8333851
0.8329926
0.832969
0.8324866
0.8321058
0.831685
0.8305285
0.8374514
0.8365192
0.8357227
0.835088
0.8346448
0.8345402
0.8339721
0.83355
0.8332407
0.8329037
0.8319193
0.8091063
0.8070507
0.8050807
0.803264
0.8016739
0.800322
0.7991206
0.7966407
0.8111044
0.8091102
0.8071962
0.8054357
0.803892
0.8026317
0.8016255
0.8007387
0.7982961
0.8129974
0.8110541
0.8091839
0.8074624
0.8059581
0.8047186
0.8037939
0.8030973
0.8024348
0.8000005
0.8148338
0.8129422
0.8111169
0.8094373
0.8079661
0.8067576
0.8058324
0.8052083
0.8047307
0.8041353
0.8018889
0.8166436
0.8148084
0.8130364
0.8114059
0.809979
0.8087992
0.807899
0.8072617
0.8068613
0.8064786
0.8057961
0.803041
0.8184405
0.8166677
0.8149585
0.8133882
0.8120141
0.8108792
0.8100041
0.8093945
0.8089918
0.8087191
0.8082976
0.8071044
0.8044983
0.8202247
0.8185193
0.8168817
0.8153806
0.814069
0.8129858
0.8121565
0.8115792
0.8112314
0.8110071
0.81076
0.8099158
0.8088372
0.8063954
0.8219848
0.8203499
0.8187891
0.8173621
0.8161171
0.8150921
0.8143134
0.8137957
0.8135213
0.8134357
0.8133471
0.8127499
0.8120666
0.8111487
0.8088833
0.8237
0.8221353
0.8206503
0.8192956
0.8181145
0.8171445
0.8164181
0.8159627
0.8158039
0.8159351
0.8162314
0.8158741
0.815487
0.814983
0.8142292
0.8123194
0.8253429
0.823841
0.8224213
0.8211269
0.819998
0.8190716
0.8183839
0.8179784
0.817924
0.8183756
0.8197427
0.8197651
0.8195546
0.8192518
0.8188428
0.8183777
0.8158206
0.8265757
0.8255778
0.8248005
0.8241889
0.8237555
0.8235748
0.8225433
0.8204177
0.8310466
0.8300139
0.8291536
0.8284846
0.8280228
0.8279389
0.8272598
0.8264921
0.8247892
0.834353
0.8333637
0.8325246
0.8318574
0.8314003
0.8312978
0.8307181
0.8302223
0.8296686
0.8283023
0.8367944
0.8358386
0.8350175
0.8343559
0.8338823
0.8337427
0.833132
0.832661
0.832294
0.8318905
0.8308027
0.8385004
0.8375566
0.8367373
0.8360626
0.8355598
0.8353564
0.8346942
0.8341358
0.8337251
0.8334295
0.8331529
0.8321973
0.8111826
0.8092157
0.8073347
0.8056056
0.8040902
0.8028582
0.8018961
0.8010938
0.7986898
0.8131
0.8111862
0.8093541
0.8076709
0.806202
0.804999
0.8041241
0.8035229
0.8030486
0.8008398
0.8149214
0.8130518
0.8112563
0.8096074
0.8081655
0.8069868
0.8061004
0.8055416
0.8051842
0.8047866
0.802712
0.8166922
0.8148683
0.8131118
0.8114977
0.8100865
0.8089227
0.8080424
0.8074362
0.8070887
0.8067875
0.8062042
0.8034871
0.8184405
0.8166677
0.8149585
0.8133882
0.8120141
0.8108792
0.8100041
0.8093945
0.8089918
0.8087191
0.8082976
0.8071044
0.8044983
0.8201794
0.8184637
0.816812
0.815296
0.8139704
0.8128731
0.8120263
0.8114222
0.8110297
0.810737
0.8104053
0.809491
0.8083429
0.8058681
0.8219088
0.8202555
0.81867
0.817218
0.8159495
0.8149012
0.8140932
0.8135276
0.8131667
0.8129354
0.8126543
0.8119091
0.8110796
0.8100274
0.80769
0.8236172
0.8220299
0.8205161
0.8191332
0.8179268
0.8169322
0.816174
0.8156608
0.8153806
0.8152633
0.8151501
0.8145264
0.8139121
0.8132085
0.8122804
0.8102537
0.8252842
0.823763
0.8223205
0.8210054
0.8198588
0.8189161
0.8182068
0.8177566
0.8175835
0.8176856
0.8179244
0.8175434
0.8171038
0.8166336
0.8160557
0.8154024
0.8125965
0.8268831
0.825421
0.8240401
0.8227817
0.8216842
0.8207823
0.8201102
0.8197077
0.8196397
0.8200474
0.8213229
0.8212886
0.8210301
0.820651
0.8202402
0.8198971
0.8186127
0.8160887
0.827905
0.8268969
0.8260818
0.8254204
0.8248955
0.8246649
0.8237749
0.8227625
0.8206654
0.8322449
0.8311997
0.8303128
0.8295892
0.8290534
0.8288396
0.8281174
0.8274525
0.8267033
0.8250253
0.8354709
0.8344709
0.8336057
0.8328961
0.8323656
0.8321578
0.8314624
0.8308943
0.8304125
0.8298766
0.8285815
0.8378666
0.8369013
0.8360597
0.8353609
0.834831
0.8345966
0.8338973
0.8332964
0.8328369
0.8324837
0.8321412
0.8310831
0.8395522
0.8386018
0.8377666
0.8370639
0.8365148
0.8362399
0.835503
0.8348494
0.8343009
0.8339017
0.8336598
0.8334077
0.8324087
0.8131749
0.811287
0.809486
0.8078321
0.806389
0.8052115
0.8043715
0.8038478
0.803567
0.8017767
0.8150199
0.8131783
0.8114189
0.8098059
0.808397
0.8072512
0.806409
0.8059314
0.805749
0.805705
0.8041329
0.8167765
0.8149736
0.8132453
0.8116602
0.8102765
0.8091403
0.8082953
0.8077476
0.8075077
0.8073907
0.8070513
0.8044579
0.8184873
0.8167253
0.815031
0.8134762
0.8121169
0.810997
0.8101404
0.8095595
0.8092047
0.8090064
0.8086775
0.8075598
0.8049924
0.8201794
0.8184637
0.816812
0.815296
0.8139704
0.8128731
0.8120263
0.8114222
0.8110297
0.810737
0.8104053
0.809491
0.8083429
0.8058681
0.821865
0.8202018
0.8186027
0.8171366
0.8158547
0.814793
0.8139684
0.8133774
0.8129746
0.8126793
0.8123203
0.8115121
0.810618
0.8095052
0.8071458
0.8235435
0.8219385
0.820401
0.8189941
0.8177653
0.8167485
0.8159624
0.8154036
0.8150414
0.8147865
0.8144931
0.8137337
0.8129885
0.8121609
0.8111246
0.80906
0.8252039
0.8236609
0.8221906
0.8208484
0.8196776
0.8187114
0.8179717
0.8174662
0.8171773
0.8170431
0.816894
0.8162656
0.8156183
0.8149716
0.8142356
0.8134458
0.8105322
0.8268261
0.8253453
0.8239424
0.822664
0.8215496
0.8206321
0.8199393
0.8194938
0.8193121
0.8193855
0.8195851
0.8191725
0.8187068
0.8181812
0.8176292
0.8171194
0.8156405
0.8128719
0.8283838
0.826959
0.8256142
0.8243894
0.823321
0.8224422
0.8217847
0.8213859
0.8213059
0.8216787
0.8228713
0.8227992
0.8224919
0.8220674
0.8215796
0.8212188
0.8201111
0.8188463
0.8163551
0.829227
0.8282126
0.8273781
0.8266713
0.8260889
0.82575
0.824851
0.8239754
0.8229822
0.8209135
0.8334413
0.832392
0.831486
0.8307288
0.8301303
0.8298267
0.8290075
0.828297
0.8276465
0.8269158
0.8253129
0.8365899
0.8355845
0.8347034
0.8339617
0.8333816
0.8330866
0.8323138
0.8316283
0.8310718
0.8306042
0.8301303
0.8288671
0.8389398
0.8379697
0.8371142
0.8363897
0.8358162
0.8355136
0.8347437
0.8340531
0.8334621
0.8330142
0.8327151
0.8323974
0.8312963
0.8406036
0.8396502
0.8388044
0.8380811
0.8374985
0.8371667
0.83638
0.8356508
0.8350059
0.8344674
0.8341171
0.8338953
0.8336012
0.832552
0.8150919
0.8132748
0.8115449
0.8099595
0.8085747
0.8074517
0.8066408
0.8062279
0.8062219
0.8066919
0.8068094
0.8168713
0.8150951
0.813401
0.8118499
0.8104971
0.8093916
0.8085865
0.8081125
0.8080289
0.8082389
0.8084465
0.8061782
0.8185686
0.8168266
0.8151592
0.813632
0.8122986
0.8112046
0.8103808
0.8098539
0.8095975
0.8095674
0.8094652
0.8085255
0.8060754
0.8202247
0.8185193
0.8168817
0.8153806
0.814069
0.8129858
0.8121565
0.8115792
0.8112314
0.8110071
0.81076
0.8099158
0.8088372
0.8063954
0.821865
0.8202018
0.8186027
0.8171366
0.8158547
0.814793
0.8139684
0.8133774
0.8129746
0.8126793
0.8123203
0.8115121
0.810618
0.8095052
0.8071458
0.8235011
0.8218866
0.820336
0.8189155
0.817674
0.8166444
0.8158424
0.8152596
0.8148576
0.8145425
0.8141764
0.8133595
0.8125565
0.8116723
0.8105865
0.8085155
0.8251324
0.8235724
0.8220793
0.820714
0.8195218
0.8185343
0.8177678
0.8172189
0.8168518
0.816587
0.816268
0.8155138
0.8147472
0.8139905
0.813154
0.8122824
0.8093387
0.826748
0.8252463
0.8238165
0.8225121
0.8213743
0.8204343
0.8197123
0.8192139
0.8189214
0.8187691
0.8185999
0.817955
0.8172982
0.8166131
0.8159235
0.8152883
0.8136827
0.8108094
0.8283283
0.8268855
0.8255194
0.8242753
0.8231906
0.8222968
0.8216194
0.8211793
0.8209901
0.8210423
0.8212052
0.8207768
0.8202791
0.8197258
0.819116
0.8186147
0.8173352
0.815877
0.8131454
0.8298474
0.8284576
0.8271466
0.8259531
0.824912
0.8240547
0.8234112
0.8230162
0.8229266
0.8232684
0.8243912
0.8242856
0.8239481
0.8234784
0.8229457
0.8224982
0.8214174
0.8203237
0.8190785
0.8166198
0.8305357
0.8295224
0.8286734
0.8279408
0.827307
0.8268972
0.8259248
0.8250374
0.8241762
0.8232022
0.8212141
0.8346321
0.8335828
0.8326669
0.8318844
0.8312455
0.8308661
0.8299857
0.8291765
0.8284777
0.8278416
0.8271746
0.8256071
0.8377062
0.8366994
0.8358082
0.8350453
0.8344268
0.8340704
0.8332351
0.832471
0.8317955
0.8312508
0.8308379
0.8303898
0.8290843
0.840011
0.8390394
0.838175
0.8374319
0.8368272
0.8364705
0.8356543
0.8348921
0.8342102
0.8336292
0.8332305
0.8329517
0.8325921
0.831441
0.8416522
0.8406985
0.839846
0.8391078
0.8384996
0.8381249
0.837301
0.8365213
0.8357999
0.8351638
0.8346705
0.8343372
0.834074
0.8337323
0.8326252
0.815428
0.8169405
0.8151878
0.8135217
0.8119967
0.8106665
0.8095823
0.8088054
0.8083909
0.8084649
0.8091489
0.8109125
0.8093215
0.8186601
0.8169435
0.8153089
0.8138138
0.8125097
0.8114443
0.810658
0.810199
0.8100872
0.8103568
0.8107604
0.8101691
0.8079897
0.8203032
0.818617
0.8170052
0.8155303
0.8142433
0.8131846
0.8123862
0.8118596
0.8116036
0.8115348
0.8114953
0.8108152
0.8098952
0.8075523
0.8219088
0.8202555
0.81867
0.817218
0.8159495
0.8149012
0.8140932
0.8135276
0.8131667
0.8129354
0.8126543
0.8119091
0.8110796
0.8100274
0.80769
0.8235011
0.8218866
0.820336
0.8189155
0.817674
0.8166444
0.8158424
0.8152596
0.8148576
0.8145425
0.8141764
0.8133595
0.8125565
0.8116723
0.8105865
0.8085155
0.8250913
0.823522
0.8220164
0.8206381
0.8194336
0.8184338
0.8176524
0.8170804
0.8166754
0.8163536
0.8159662
0.8151589
0.8143398
0.8135328
0.8126497
0.8117405
0.8087944
0.8266787
0.8251604
0.8237086
0.8223819
0.8212236
0.8202632
0.8195156
0.8189755
0.8186083
0.8183316
0.8180013
0.8172387
0.816472
0.8156874
0.8149097
0.8141968
0.8125179
0.8096165
0.8282524
0.8267892
0.8253972
0.8241279
0.8230209
0.8221055
0.8214
0.820909
0.8206135
0.8204497
0.8202605
0.8196129
0.818937
0.8182388
0.8175062
0.8168972
0.8155021
0.8139184
0.8110852
0.8297935
0.828386
0.8270545
0.8258423
0.8247855
0.8239138
0.8232512
0.8228164
0.8226217
0.8226553
0.82279
0.8223468
0.8218332
0.821248
0.8206097
0.8200402
0.8188146
0.8175495
0.8161121
0.8134171
0.8312763
0.8299192
0.82864
0.8274758
0.8264602
0.8256231
0.8249929
0.8246021
0.8245042
0.8248192
0.8258797
0.8257496
0.8253862
0.8248899
0.8243135
0.8238141
0.8226846
0.8216147
0.820535
0.8193092
0.816938
0.8318294
0.83082
0.8299648
0.8292123
0.8285476
0.8280756
0.8270626
0.8261
0.8252241
0.8243773
0.8234689
0.8215218
0.8358144
0.8347686
0.8338474
0.8330495
0.8323793
0.8319481
0.8310173
0.8301457
0.8293465
0.8286596
0.8280792
0.8274392
0.8258308
0.8388172
0.837812
0.8369152
0.8361374
0.8354921
0.8350868
0.8342122
0.8333847
0.8326294
0.831964
0.831469
0.8310768
0.8305868
0.8292316
0.8410779
0.8401074
0.8392378
0.8384815
0.8378531
0.8374557
0.8366052
0.8357961
0.8350418
0.8343687
0.8338331
0.8334515
0.8331313
0.832724
0.8315148
0.8426963
0.8417442
0.840888
0.8401392
0.8395115
0.8391027
0.8382539
0.8374365
0.8366638
0.8359503
0.8353564
0.834878
0.8345042
0.834195
0.8337992
0.8207043
0.8183933
0.8159688
0.8187268
0.8170328
0.8154248
0.8139545
0.8126718
0.8116264
0.8108665
0.8104623
0.8104976
0.8112041
0.8130465
0.8130329
0.8112743
0.8203916
0.8187297
0.8171492
0.8157051
0.8144458
0.8134142
0.8126511
0.8121885
0.8120675
0.8122781
0.8127051
0.8123434
0.8117025
0.8095762
0.8219848
0.8203499
0.8187891
0.8173621
0.8161171
0.8150921
0.8143134
0.8137957
0.8135213
0.8134357
0.8133471
0.8127499
0.8120666
0.8111487
0.8088833
0.8235435
0.8219385
0.820401
0.8189941
0.8177653
0.8167485
0.8159624
0.8154036
0.8150414
0.8147865
0.8144931
0.8137337
0.8129885
0.8121609
0.8111246
0.80906
0.8250913
0.823522
0.8220164
0.8206381
0.8194336
0.8184338
0.8176524
0.8170804
0.8166754
0.8163536
0.8159662
0.8151589
0.8143398
0.8135328
0.8126497
0.8117405
0.8087944
0.8266387
0.8251116
0.8236477
0.8223085
0.8211383
0.8201662
0.8194042
0.8188421
0.8184387
0.8181077
0.8177127
0.8169006
0.8160856
0.8152557
0.8144369
0.8136876
0.8119754
0.8090724
0.8281849
0.8267058
0.8252925
0.8240018
0.8228749
0.8219399
0.8212099
0.8206789
0.8203117
0.8200289
0.8196863
0.818928
0.8181498
0.8173607
0.8165494
0.8158733
0.8144089
0.8127526
0.8098933
0.8297195
0.8282924
0.8269358
0.8256993
0.8246209
0.8237284
0.8230388
0.8225551
0.822258
0.8220842
0.8218819
0.8212308
0.8205503
0.8198313
0.8190829
0.8184189
0.8170951
0.8157149
0.8141529
0.8113596
0.8312237
0.8298496
0.8285504
0.8273682
0.8263374
0.8254864
0.8248377
0.8244086
0.8242093
0.8242274
0.8243376
0.8238865
0.8233587
0.8227582
0.8220882
0.821483
0.8202277
0.8190131
0.8177624
0.8163456
0.8137438
0.8326726
0.8313463
0.8300968
0.8289601
0.8279685
0.8271504
0.8265327
0.8261462
0.8260414
0.8263325
0.8273379
0.8271874
0.8268065
0.8262881
0.8256869
0.8251389
0.8239903
0.8228698
0.8218107
0.8207449
0.8195868
0.8172637
0.8331063
0.8321035
0.8312457
0.8304822
0.8297934
0.8292812
0.8282329
0.8272283
0.8262754
0.8254111
0.8246211
0.8237417
0.8217558
0.8369865
0.8359462
0.8350237
0.8342156
0.8335248
0.8330523
0.8320925
0.8311695
0.8303067
0.8295175
0.828881
0.828322
0.8276402
0.8259827
0.839921
0.8389196
0.8380205
0.8372327
0.8365675
0.8361261
0.8352227
0.8343552
0.8335355
0.8327891
0.8321695
0.8316919
0.8312582
0.8307204
0.8293069
0.842139
0.8411713
0.8402994
0.839534
0.8388879
0.8384583
0.8375852
0.8367412
0.8359391
0.8351926
0.8345619
0.8340413
0.8336192
0.8332529
0.8327913
0.8437346
0.8427855
0.8419278
0.8411717
0.8405293
0.8400934
0.839227
0.8383841
0.8375731
0.8368075
0.8361337
0.8355531
0.8350353
0.8346172
0.8342566
0.8243491
0.8230483
0.8209658
0.8199727
0.8188581
0.8167746
0.8204561
0.8188158
0.8172609
0.8158403
0.8146013
0.8135886
0.8128504
0.8124397
0.8124563
0.8130769
0.8148415
0.8150015
0.8146909
0.812872
0.8220702
0.8204588
0.818928
0.8175305
0.8163119
0.8153126
0.8145673
0.8141103
0.8139637
0.8141405
0.8144876
0.814179
0.8137493
0.8130518
0.8109535
0.8236172
0.8220299
0.8205161
0.8191332
0.8179268
0.8169322
0.816174
0.8156608
0.8153806
0.8152633
0.8151501
0.8145264
0.8139121
0.8132085
0.8122804
0.8102537
0.8251324
0.8235724
0.8220793
0.820714
0.8195218
0.8185343
0.8177678
0.8172189
0.8168518
0.816587
0.816268
0.8155138
0.8147472
0.8139905
0.813154
0.8122824
0.8093387
0.8266387
0.8251116
0.8236477
0.8223085
0.8211383
0.8201662
0.8194042
0.8188421
0.8184387
0.8181077
0.8177127
0.8169006
0.8160856
0.8152557
0.8144369
0.8136876
0.8119754
0.8090724
0.8281461
0.8266583
0.8252334
0.8239306
0.8227924
0.8218461
0.8211022
0.8205501
0.8201483
0.8198136
0.8194095
0.8186046
0.8177816
0.8169512
0.8161032
0.8153955
0.8138989
0.8122095
0.8093496
0.8296539
0.8282113
0.8268341
0.8255769
0.8244794
0.823568
0.8228547
0.8223325
0.8219667
0.8216788
0.8213299
0.8205739
0.8197976
0.8189946
0.8181753
0.8174522
0.8160693
0.8146202
0.8129863
0.810169
0.8311517
0.8297585
0.828435
0.8272292
0.8261776
0.8253066
0.8246318
0.8241555
0.8238576
0.8236761
0.8234628
0.8228137
0.8221286
0.8214038
0.8206336
0.8199451
0.8186043
0.8172919
0.8159265
0.8143863
0.8116902
0.8326212
0.8312784
0.8300096
0.8288554
0.8278491
0.8270176
0.8263821
0.8259585
0.8257558
0.8257604
0.82585
0.8253931
0.8248582
0.8242445
0.82356
0.8229181
0.8216602
0.8204139
0.8192103
0.8179739
0.8166263
0.8140781
0.834038
0.8327408
0.8315193
0.8304085
0.8294393
0.8286392
0.8280334
0.8276512
0.8275405
0.8278105
0.8287662
0.8285992
0.8282047
0.8276726
0.8270513
0.8264746
0.8253064
0.8241654
0.8230538
0.8220055
0.8209974
0.8198706
0.8175114
0.8343658
0.833371
0.832514
0.8317436
0.8310401
0.8304958
0.8294313
0.8283904
0.8273943
0.8264511
0.8256378
0.8248704
0.823949
0.8219147
0.838147
0.837114
0.8361927
0.8353788
0.8346731
0.834171
0.8331906
0.8322378
0.8313226
0.8304686
0.8297258
0.8291072
0.8285064
0.8277765
0.8260603
0.8410165
0.8400202
0.8391213
0.8383272
0.8376476
0.8371778
0.8362567
0.8353597
0.8344993
0.8336875
0.8329838
0.8323794
0.8318611
0.8313811
0.8307886
0.8431933
0.8422297
0.8413574
0.840586
0.8399266
0.8394717
0.838583
0.8377158
0.8368782
0.8360832
0.8353767
0.8347593
0.8341993
0.8337327
0.8333148
0.8447663
0.8438213
0.8429637
0.8422028
0.8415493
0.8410916
0.8402133
0.8393523
0.8385153
0.8377108
0.8369829
0.836321
0.8357022
0.8351417
0.8346747
0.8267104
0.8262915
0.8245531
0.8242902
0.8232794
0.8214526
0.8213131
0.8203998
0.8195553
0.8177117
0.8221327
0.820542
0.8190357
0.8176608
0.8164615
0.81548
0.8147585
0.8143505
0.8143346
0.8148977
0.8165017
0.8166648
0.8165265
0.816057
0.8142206
0.8237
0.8221353
0.8206503
0.8192956
0.8181145
0.8171445
0.8164181
0.8159627
0.8158039
0.8159351
0.8162314
0.8158741
0.815487
0.814983
0.8142292
0.8123194
0.8252039
0.8236609
0.8221906
0.8208484
0.8196776
0.8187114
0.8179717
0.8174662
0.8171773
0.8170431
0.816894
0.8162656
0.8156183
0.8149716
0.8142356
0.8134458
0.8105322
0.8266787
0.8251604
0.8237086
0.8223819
0.8212236
0.8202632
0.8195156
0.8189755
0.8186083
0.8183316
0.8180013
0.8172387
0.816472
0.8156874
0.8149097
0.8141968
0.8125179
0.8096165
0.8281461
0.8266583
0.8252334
0.8239306
0.8227924
0.8218461
0.8211022
0.8205501
0.8201483
0.8198136
0.8194095
0.8186046
0.8177816
0.8169512
0.8161032
0.8153955
0.8138989
0.8122095
0.8093496
0.829616
0.8281652
0.8267766
0.8255078
0.8243993
0.8234771
0.8227505
0.822208
0.8218089
0.8214713
0.8210638
0.8202638
0.8194456
0.8186044
0.817752
0.8170011
0.8155906
0.8141094
0.8124429
0.809626
0.8310876
0.8296795
0.828336
0.8271102
0.8260402
0.825151
0.8244534
0.82394
0.8235759
0.8232847
0.822931
0.8221823
0.8214068
0.820604
0.8197688
0.819028
0.8176358
0.8162645
0.8148306
0.8132192
0.8105016
0.832551
0.8311896
0.8298972
0.8287202
0.8276938
0.8268429
0.8261822
0.825713
0.8254152
0.8252274
0.8250057
0.8243597
0.8236758
0.8229459
0.8221695
0.8214527
0.8201203
0.8187887
0.8174876
0.816137
0.8146672
0.8120284
0.8339879
0.8326746
0.8314343
0.8303065
0.8293232
0.82851
0.827887
0.8274689
0.8272635
0.8272565
0.8273281
0.8268679
0.8263283
0.8257087
0.8250123
0.8243518
0.8230865
0.8218362
0.8205988
0.8194062
0.8182281
0.8169135
0.8143324
0.8353746
0.8341046
0.8329096
0.831823
0.8308751
0.8300917
0.8294973
0.8291193
0.8290036
0.8292546
0.8301656
0.8299848
0.8295803
0.8290382
0.8284053
0.8278054
0.8266344
0.8254728
0.8243394
0.8232366
0.8222398
0.8212555
0.8200863
0.8176795
0.8356073
0.8346219
0.8337675
0.832994
0.8322805
0.8317145
0.8306396
0.8295817
0.8285482
0.8275605
0.8266641
0.8258695
0.8250596
0.8240896
0.8219959
0.8392951
0.8382705
0.8373524
0.8365357
0.8358199
0.835295
0.8343039
0.8333298
0.832384
0.8314767
0.8306658
0.8299385
0.8292788
0.8286313
0.8278461
0.8421028
0.8411128
0.8402157
0.8394181
0.838728
0.8382362
0.8373035
0.8363882
0.8354978
0.8346444
0.8338729
0.8331826
0.8325387
0.8319756
0.8314437
0.8442398
0.8432813
0.8424102
0.8416351
0.840966
0.8404907
0.839592
0.8387087
0.8378475
0.8370164
0.8362591
0.8355646
0.834909
0.8343061
0.8337905
0.8457907
0.8448505
0.8439944
0.8432305
0.8425687
0.8420935
0.8412075
0.8403342
0.8394787
0.8386477
0.8378789
0.8371619
0.836463
0.8358031
0.8351959
0.8278785
0.8284027
0.8268992
0.8273018
0.8264756
0.8249544
0.8253505
0.8245025
0.8237114
0.822127
0.8225995
0.8217109
0.8210398
0.8203722
0.8187161
0.8237605
0.8222158
0.8207544
0.8194213
0.8182587
0.8173057
0.8166018
0.8161934
0.8161587
0.8166567
0.8181405
0.818218
0.8180857
0.8177796
0.8172199
0.8155507
0.8252842
0.823763
0.8223205
0.8210054
0.8198588
0.8189161
0.8182068
0.8177566
0.8175835
0.8176856
0.8179244
0.8175434
0.8171038
0.8166336
0.8160557
0.8154024
0.8125965
0.826748
0.8252463
0.8238165
0.8225121
0.8213743
0.8204343
0.8197123
0.8192139
0.8189214
0.8187691
0.8185999
0.817955
0.8172982
0.8166131
0.8159235
0.8152883
0.8136827
0.8108094
0.8281849
0.8267058
0.8252925
0.8240018
0.8228749
0.8219399
0.8212099
0.8206789
0.8203117
0.8200289
0.8196863
0.818928
0.8181498
0.8173607
0.8165494
0.8158733
0.8144089
0.8127526
0.8098933
0.829616
0.8281652
0.8267766
0.8255078
0.8243993
0.8234771
0.8227505
0.822208
0.8218089
0.8214713
0.8210638
0.8202638
0.8194456
0.8186044
0.817752
0.8170011
0.8155906
0.8141094
0.8124429
0.809626
0.8310508
0.8296346
0.8282802
0.8270431
0.8259625
0.8250628
0.8243524
0.8238194
0.8234233
0.8230844
0.8226746
0.8218842
0.8210692
0.8202309
0.8193655
0.8186001
0.8171838
0.815785
0.8143191
0.8126755
0.8099595
0.8324885
0.8311126
0.8298009
0.8286045
0.8275602
0.8266918
0.8260091