/*--------------------------------*- C++ -*----------------------------------*\
| =========                 |                                                 |
| \\      /  F ield         | OpenFOAM: The Open Source CFD Toolbox           |
|  \\    /   O peration     | Version:  2306                                  |
|   \\  /    A nd           | Website:  www.openfoam.com                      |
|    \\/     M anipulation  |                                                 |
\*---------------------------------------------------------------------------*/
FoamFile
{
    version     2.0;
    format      ascii;
    arch        "LSB;label=32;scalar=64";
    class       volScalarField;
    location    "0.6/air";
    object      X.O2;
}
// * * * * * * * * * * * * * * * * * * * * * * * * * * * * * * * * * * * * * //

dimensions      [0 0 0 0 0 0 0];

internalField   nonuniform List<scalar> 
16000
(
0.2069167
0.2069248
0.2054083
0.2068762
0.2069348
0.2055003
0.2068896
0.2028418
0.2052884
0.2067781
0.2069428
0.2056227
0.2069045
0.2029438
0.2054093
0.2068041
0.2002428
0.2027075
0.2049822
0.2065882
0.2069471
0.2057292
0.2069155
0.2030833
0.2055632
0.2068325
0.2003432
0.2028397
0.2051387
0.2066367
0.1977329
0.2001088
0.2023739
0.2044316
0.2062454
0.2069471
0.2057897
0.2069212
0.2032072
0.2056933
0.2068532
0.2004808
0.2030128
0.2053363
0.206692
0.1978288
0.2002383
0.2025413
0.2046208
0.2063256
0.1953404
0.197605
0.1997776
0.2017852
0.2035915
0.2056626
0.1721215
0.2069428
0.2057897
0.2069212
0.2032785
0.205766
0.2068637
0.2006034
0.2031627
0.2055022
0.2067332
0.1979603
0.2004083
0.2027575
0.204863
0.2064249
0.1954312
0.1977286
0.1999401
0.2019836
0.2038079
0.2057715
0.1930643
0.195219
0.1972892
0.1991963
0.2008972
0.2024239
0.2047437
0.1732896
0.1705504
0.171937
0.2069348
0.2057292
0.2069155
0.2032785
0.205766
0.2068637
0.2006741
0.2032478
0.2055945
0.2067542
0.1980773
0.200556
0.202943
0.2050684
0.2065017
0.1955556
0.1978907
0.2001503
0.2022409
0.2040877
0.2059159
0.1931505
0.1953359
0.1974437
0.1993864
0.2011206
0.202672
0.2048873
0.1908937
0.1929493
0.1949193
0.196736
0.1983261
0.199678
0.2008794
0.2033593
0.1756509
0.1715973
0.1731008
0.169763
0.1703815
0.1715689
0.2069248
0.2056227
0.2069045
0.2032072
0.2056933
0.2068532
0.2006741
0.2032478
0.2055945
0.2067542
0.1981447
0.2006401
0.2030477
0.2051833
0.2065418
0.1956662
0.1980314
0.200331
0.2024617
0.2043296
0.2060394
0.1932684
0.1954892
0.1976433
0.199633
0.2014128
0.2029946
0.2050864
0.1909756
0.1930603
0.1950653
0.1969159
0.1985366
0.1999226
0.2011667
0.2035707
0.1888174
0.1907843
0.1926653
0.1943944
0.1959098
0.1971418
0.1981039
0.1989062
0.2013102
0.1792957
0.1737085
0.1754469
0.1707363
0.1714252
0.1727249
0.1690835
0.1696071
0.1700445
0.1710182
0.2069167
0.2055003
0.2068896
0.2030833
0.2055632
0.2068325
0.2006034
0.2031627
0.2055022
0.2067332
0.1981447
0.2006401
0.2030477
0.2051833
0.2065418
0.19573
0.1981114
0.2004333
0.2025862
0.2044667
0.2061087
0.1933734
0.1956222
0.1978147
0.199845
0.2016647
0.2032713
0.205262
0.1910878
0.1932057
0.1952539
0.1971487
0.198812
0.2002458
0.2015423
0.2038622
0.1888956
0.1908898
0.1928038
0.1945643
0.196108
0.1973683
0.1983745
0.1992613
0.2017039
0.1868251
0.188713
0.190514
0.1921679
0.193611
0.1947885
0.1956285
0.1961522
0.196433
0.1982233
0.184572
0.1769517
0.1790342
0.1726982
0.1735244
0.1750456
0.1699949
0.1705775
0.1710824
0.1721648
0.168347
0.1689378
0.1692957
0.1695401
0.1702864
0.2054083
0.2068762
0.2029438
0.2054093
0.2068041
0.2004808
0.2030128
0.2053363
0.206692
0.1980773
0.200556
0.202943
0.2050684
0.2065017
0.19573
0.1981114
0.2004333
0.2025862
0.2044667
0.2061087
0.1934339
0.1956978
0.1979115
0.1999649
0.2018072
0.2034275
0.2053624
0.1911876
0.1933317
0.1954157
0.1973485
0.19905
0.200526
0.2018639
0.2041137
0.1890028
0.1910281
0.1929827
0.194784
0.1963667
0.197668
0.1987346
0.199719
0.2021802
0.1869
0.1888138
0.1906459
0.1923291
0.193798
0.195001
0.1958759
0.1964771
0.1969514
0.1991602
0.1849081
0.1867252
0.1884551
0.1900405
0.1914253
0.1925483
0.1933592
0.1937721
0.1937781
0.1933081
0.1931906
0.1816067
0.1840312
0.1757098
0.1767206
0.1785474
0.1718315
0.1725287
0.1731619
0.1744567
0.1692066
0.1698466
0.1702612
0.1705712
0.1714234
0.167505
0.1682096
0.1686466
0.1688296
0.1688694
0.1692323
0.2028418
0.2052884
0.2067781
0.2003432
0.2028397
0.2051387
0.2066367
0.1979603
0.2004083
0.2027575
0.204863
0.2064249
0.1956662
0.1980314
0.200331
0.2024617
0.2043296
0.2060394
0.1934339
0.1956978
0.1979115
0.1999649
0.2018072
0.2034275
0.2053624
0.1912452
0.1934035
0.1955072
0.1974615
0.1991849
0.2006849
0.2020451
0.2042556
0.1890981
0.191148
0.1931362
0.1949725
0.1965897
0.1979286
0.1990471
0.2001049
0.202557
0.1870026
0.1889459
0.1908161
0.1925376
0.1940419
0.1952814
0.1962061
0.1969027
0.1975652
0.1999995
0.1849801
0.1868217
0.1885811
0.1901941
0.191603
0.1927488
0.193591
0.1940686
0.194251
0.194295
0.1958671
0.1830595
0.1848122
0.1864783
0.1880033
0.1893335
0.1904177
0.1911946
0.1916091
0.1915351
0.1908511
0.1890875
0.1906785
0.1800273
0.1811419
0.1832254
0.1746495
0.1754975
0.1762886
0.177873
0.1709385
0.1716733
0.1721949
0.1726289
0.1736894
0.1683196
0.1690668
0.169551
0.1697894
0.169894
0.1703593
0.1665916
0.1673747
0.1679352
0.1682109
0.1682097
0.167903
0.1690151
0.2002428
0.2027075
0.2049822
0.2065882
0.1978288
0.2002383
0.2025413
0.2046208
0.2063256
0.1955556
0.1978907
0.2001503
0.2022409
0.2040877
0.2059159
0.1933734
0.1956222
0.1978147
0.199845
0.2016647
0.2032713
0.205262
0.1912452
0.1934035
0.1955072
0.1974615
0.1991849
0.2006849
0.2020451
0.2042556
0.189153
0.1912163
0.1932229
0.1950791
0.196716
0.1980768
0.1992241
0.20032
0.2027594
0.1870938
0.1890604
0.190962
0.1927163
0.1942522
0.1955246
0.1964936
0.1972656
0.1980548
0.2005724
0.1850786
0.1869482
0.1887437
0.1903926
0.1918345
0.1930132
0.1938996
0.1944584
0.1948158
0.1952134
0.197288
0.1831287
0.1849049
0.186599
0.1881501
0.1895029
0.1906084
0.1914135
0.1918875
0.1919711
0.1917611
0.1915535
0.1938218
0.1812732
0.1829672
0.1845752
0.1860455
0.1873282
0.1883736
0.1891335
0.1895377
0.1895024
0.1887959
0.1869535
0.1869671
0.1887257
0.1786869
0.1796002
0.1804447
0.1822883
0.1735953
0.1744517
0.1751008
0.1756876
0.1770395
0.1699609
0.1707896
0.1713619
0.1717041
0.171933
0.172603
0.1673673
0.1681872
0.1687884
0.1691102
0.1691642
0.1689212
0.1701401
0.1656219
0.1664675
0.1671145
0.1675244
0.1676313
0.1673163
0.1677039
0.1687961
0.1977329
0.2001088
0.2023739
0.2044316
0.2062454
0.1954312
0.1977286
0.1999401
0.2019836
0.2038079
0.2057715
0.1932684
0.1954892
0.1976433
0.199633
0.2014128
0.2029946
0.2050864
0.1911876
0.1933317
0.1954157
0.1973485
0.19905
0.200526
0.2018639
0.2041137
0.189153
0.1912163
0.1932229
0.1950791
0.196716
0.1980768
0.1992241
0.20032
0.2027594
0.1871464
0.1891255
0.1910445
0.1928172
0.1943712
0.1956626
0.1966569
0.1974689
0.1983193
0.2008587
0.1851662
0.1870578
0.1888831
0.1905627
0.1920339
0.1932424
0.1941676
0.1947917
0.1952693
0.1958647
0.1981111
0.1832235
0.1850264
0.1867547
0.1883398
0.1897235
0.1908597
0.1917047
0.1922524
0.1924923
0.1926093
0.1929487
0.1955421
0.1813399
0.1830565
0.1846911
0.1861862
0.1874903
0.1885557
0.189342
0.189801
0.1899128
0.1896432
0.1892396
0.1898309
0.1920103
0.1795439
0.1811842
0.1827391
0.1841597
0.1853987
0.1864114
0.1871496
0.1875603
0.1875437
0.1869231
0.1851585
0.1849985
0.1853091
0.187128
0.1774005
0.1782891
0.1789602
0.1796278
0.1812839
0.1724784
0.1734093
0.1740822
0.1745489
0.1749413
0.175911
0.1689301
0.1698199
0.1704964
0.1709039
0.1710631
0.170946
0.1723793
0.1663631
0.1672412
0.1679232
0.1683729
0.1685259
0.1682659
0.1687208
0.1699191
0.1646179
0.1655034
0.1662197
0.166725
0.1669779
0.1667958
0.1671322
0.167503
0.1685752
0.1953404
0.197605
0.1997776
0.2017852
0.2035915
0.2056626
0.1931505
0.1953359
0.1974437
0.1993864
0.2011206
0.202672
0.2048873
0.1910878
0.1932057
0.1952539
0.1971487
0.198812
0.2002458
0.2015423
0.2038622
0.1890981
0.191148
0.1931362
0.1949725
0.1965897
0.1979286
0.1990471
0.2001049
0.202557
0.1871464
0.1891255
0.1910445
0.1928172
0.1943712
0.1956626
0.1966569
0.1974689
0.1983193
0.2008587
0.1852167
0.1871202
0.1889618
0.1906588
0.1921468
0.1933725
0.1943196
0.1949788
0.1955151
0.1961977
0.1984967
0.1833078
0.1851317
0.1868882
0.1885023
0.1899135
0.1910773
0.1919576
0.1925638
0.1929113
0.1932125
0.1937958
0.1965129
0.1814314
0.1831734
0.1848408
0.186368
0.1877014
0.1887954
0.1896192
0.1901461
0.1904025
0.1904326
0.1905348
0.1914745
0.1939246
0.1796084
0.1812703
0.1828508
0.1842949
0.1855542
0.1865858
0.1873489
0.1878115
0.1879325
0.1877219
0.1872949
0.1876566
0.1882975
0.1904238
0.1778673
0.179458
0.1809643
0.1823392
0.1835385
0.18452
0.1852415
0.1856495
0.1856654
0.1851023
0.1834983
0.1833352
0.1834735
0.183943
0.1857794
0.1760834
0.1770265
0.1776933
0.1782113
0.1787451
0.1800767
0.1713269
0.1723024
0.1730617
0.1735679
0.1738636
0.1739265
0.175679
0.1678561
0.1687958
0.1695421
0.1700651
0.1703056
0.1701537
0.1707427
0.1721538
0.1653282
0.1662425
0.1669898
0.1675294
0.1678223
0.1676864
0.1680808
0.1685187
0.1696962
0.16359
0.1645043
0.1652665
0.1658487
0.1662068
0.1661902
0.1666236
0.1669466
0.1673005
0.1683525
0.1930643
0.195219
0.1972892
0.1991963
0.2008972
0.2024239
0.2047437
0.1909756
0.1930603
0.1950653
0.1969159
0.1985366
0.1999226
0.2011667
0.2035707
0.1890028
0.1910281
0.1929827
0.194784
0.1963667
0.197668
0.1987346
0.199719
0.2021802
0.1870938
0.1890604
0.190962
0.1927163
0.1942522
0.1955246
0.1964936
0.1972656
0.1980548
0.2005724
0.1852167
0.1871202
0.1889618
0.1906588
0.1921468
0.1933725
0.1943196
0.1949788
0.1955151
0.1961977
0.1984967
0.1833564
0.1851916
0.1869636
0.1885941
0.190021
0.1912008
0.192101
0.1927383
0.1931387
0.1935214
0.1942039
0.196959
0.1815127
0.1832747
0.184969
0.1865238
0.1878831
0.189003
0.1898596
0.1904405
0.1907953
0.1909936
0.1913225
0.1924402
0.1950076
0.1796968
0.181383
0.1829948
0.1844697
0.1857567
0.1868154
0.1876138
0.1881404
0.1883964
0.1884652
0.1885047
0.1891848
0.1901048
0.1924477
0.1779298
0.1795412
0.181072
0.1824695
0.1836881
0.1846874
0.1854327
0.1858897
0.1860363
0.1858595
0.1855124
0.185821
0.1862507
0.1869482
0.1890465
0.1762395
0.1777842
0.1792456
0.1805787
0.1817413
0.1826943
0.1833982
0.1838066
0.1838413
0.1833433
0.1818595
0.181782
0.1819143
0.1822204
0.1827801
0.1844493
0.1747587
0.1757295
0.1764663
0.1769963
0.1774031
0.1776756
0.1798297
0.1701459
0.1711594
0.1719733
0.1725779
0.1729294
0.1729318
0.1737178
0.1754456
0.1667591
0.1677279
0.1685314
0.1691335
0.1695017
0.1694567
0.1699665
0.1705379
0.1719266
0.1642724
0.1652127
0.1660024
0.1666149
0.1670074
0.167031
0.1675134
0.1678942
0.168315
0.1694715
0.1625486
0.1634808
0.1642773
0.164912
0.1653552
0.1654598
0.1660279
0.16645
0.1667593
0.1670963
0.1680807
0.1908937
0.1929493
0.1949193
0.196736
0.1983261
0.199678
0.2008794
0.2033593
0.1888956
0.1908898
0.1928038
0.1945643
0.196108
0.1973683
0.1983745
0.1992613
0.2017039
0.1870026
0.1889459
0.1908161
0.1925376
0.1940419
0.1952814
0.1962061
0.1969027
0.1975652
0.1999995
0.1851662
0.1870578
0.1888831
0.1905627
0.1920339
0.1932424
0.1941676
0.1947917
0.1952693
0.1958647
0.1981111
0.1833564
0.1851916
0.1869636
0.1885941
0.190021
0.1912008
0.192101
0.1927383
0.1931387
0.1935214
0.1942039
0.196959
0.1815595
0.1833323
0.1850415
0.1866118
0.1879859
0.1891208
0.1899959
0.1906055
0.1910082
0.1912809
0.1917024
0.1928956
0.1955017
0.1797753
0.1814807
0.1831183
0.1846194
0.185931
0.1870142
0.1878435
0.1884208
0.1887686
0.1889929
0.18924
0.1900842
0.1911628
0.1936046
0.1780152
0.1796501
0.1812109
0.1826379
0.1838829
0.1849079
0.1856866
0.1862043
0.1864787
0.1865643
0.1866529
0.1872501
0.1879334
0.1888513
0.1911167
0.1763
0.1778647
0.1793497
0.1807044
0.1818855
0.1828555
0.1835819
0.1840373
0.1841961
0.1840649
0.1837686
0.1841259
0.184513
0.185017
0.1857708
0.1876806
0.1746571
0.176159
0.1775787
0.1788731
0.180002
0.1809284
0.1816161
0.1820216
0.182076
0.1816244
0.1802573
0.1802349
0.1804454
0.1807482
0.1811572
0.1816223
0.1841794
0.1734243
0.1744222
0.1751995
0.1758111
0.1762445
0.1764252
0.1774567
0.1795823
0.1689534
0.1699861
0.1708464
0.1715154
0.1719772
0.1720611
0.1727402
0.1735079
0.1752108
0.165647
0.1666363
0.1674754
0.1681426
0.1685997
0.1687022
0.1692819
0.1697777
0.1703314
0.1716977
0.1632056
0.1641614
0.1649825
0.1656441
0.1661177
0.1662573
0.166868
0.167339
0.167706
0.1681095
0.1691973
0.1614996
0.1624434
0.1632627
0.1639374
0.1644402
0.1646436
0.1653058
0.1658642
0.1662749
0.1665705
0.1668471
0.1678027
0.1888174
0.1907843
0.1926653
0.1943944
0.1959098
0.1971418
0.1981039
0.1989062
0.2013102
0.1869
0.1888138
0.1906459
0.1923291
0.193798
0.195001
0.1958759
0.1964771
0.1969514
0.1991602
0.1850786
0.1869482
0.1887437
0.1903926
0.1918345
0.1930132
0.1938996
0.1944584
0.1948158
0.1952134
0.197288
0.1833078
0.1851317
0.1868882
0.1885023
0.1899135
0.1910773
0.1919576
0.1925638
0.1929113
0.1932125
0.1937958
0.1965129
0.1815595
0.1833323
0.1850415
0.1866118
0.1879859
0.1891208
0.1899959
0.1906055
0.1910082
0.1912809
0.1917024
0.1928956
0.1955017
0.1798206
0.1815363
0.183188
0.184704
0.1860296
0.1871269
0.1879737
0.1885778
0.1889703
0.189263
0.1895947
0.190509
0.1916571
0.1941319
0.1780912
0.1797445
0.18133
0.182782
0.1840505
0.1850988
0.1859068
0.1864724
0.1868333
0.1870646
0.1873457
0.1880909
0.1889204
0.1899726
0.19231
0.1763828
0.1779701
0.1794839
0.1808668
0.1820732
0.1830678
0.183826
0.1843392
0.1846194
0.1847367
0.1848499
0.1854736
0.1860879
0.1867915
0.1877196
0.1897463
0.1747158
0.176237
0.1776795
0.1789946
0.1801412
0.1810839
0.1817932
0.1822434
0.1824165
0.1823144
0.1820756
0.1824566
0.1828962
0.1833664
0.1839443
0.1845976
0.1874035
0.1731169
0.174579
0.1759599
0.1772183
0.1783158
0.1792177
0.1798898
0.1802923
0.1803603
0.1799526
0.1786771
0.1787114
0.1789699
0.179349
0.1797598
0.1801029
0.1813873
0.1839113
0.172095
0.1731031
0.1739182
0.1745796
0.1751045
0.1753351
0.1762251
0.1772375
0.1793346
0.1677551
0.1688003
0.1696872
0.1704108
0.1709466
0.1711604
0.1718826
0.1725475
0.1732967
0.1749747
0.1645291
0.1655291
0.1663943
0.1671039
0.1676344
0.1678422
0.1685376
0.1691057
0.1695875
0.1701234
0.1714185
0.1621334
0.1630987
0.1639403
0.1646391
0.165169
0.1654034
0.1661027
0.1667036
0.1671631
0.1675163
0.1678588
0.1689169
0.1604478
0.1613982
0.1622334
0.1629361
0.1634852
0.1637601
0.164497
0.1651506
0.1656991
0.1660983
0.1663402
0.1665923
0.1675913
0.1868251
0.188713
0.190514
0.1921679
0.193611
0.1947885
0.1956285
0.1961522
0.196433
0.1982233
0.1849801
0.1868217
0.1885811
0.1901941
0.191603
0.1927488
0.193591
0.1940686
0.194251
0.194295
0.1958671
0.1832235
0.1850264
0.1867547
0.1883398
0.1897235
0.1908597
0.1917047
0.1922524
0.1924923
0.1926093
0.1929487
0.1955421
0.1815127
0.1832747
0.184969
0.1865238
0.1878831
0.189003
0.1898596
0.1904405
0.1907953
0.1909936
0.1913225
0.1924402
0.1950076
0.1798206
0.1815363
0.183188
0.184704
0.1860296
0.1871269
0.1879737
0.1885778
0.1889703
0.189263
0.1895947
0.190509
0.1916571
0.1941319
0.178135
0.1797982
0.1813973
0.1828634
0.1841453
0.185207
0.1860316
0.1866226
0.1870254
0.1873207
0.1876797
0.1884879
0.189382
0.1904948
0.1928542
0.1764565
0.1780615
0.179599
0.1810059
0.1822347
0.1832515
0.1840376
0.1845964
0.1849586
0.1852135
0.1855069
0.1862663
0.1870115
0.1878391
0.1888754
0.19094
0.1747961
0.1763391
0.1778094
0.1791516
0.1803224
0.1812886
0.1820283
0.1825338
0.1828227
0.1829569
0.183106
0.1837344
0.1843817
0.1850284
0.1857644
0.1865542
0.1894678
0.1731739
0.1746547
0.1760576
0.177336
0.1784504
0.1793679
0.1800607
0.1805062
0.1806879
0.1806145
0.1804149
0.1808275
0.1812932
0.1818188
0.1823708
0.1828806
0.1843595
0.1871281
0.1716162
0.173041
0.1743858
0.1756106
0.176679
0.1775578
0.1782153
0.1786141
0.1786941
0.1783213
0.1771287
0.1772008
0.1775081
0.1779326
0.1784204
0.1787812
0.1798889
0.1811537
0.1836449
0.170773
0.1717874
0.1726219
0.1733287
0.1739111
0.17425
0.175149
0.1760246
0.1770178
0.1790865
0.1665587
0.167608
0.168514
0.1692712
0.1698697
0.1701733
0.1709925
0.171703
0.1723535
0.1730842
0.1746871
0.1634101
0.1644155
0.1652966
0.1660383
0.1666184
0.1669134
0.1676862
0.1683717
0.1689282
0.1693958
0.1698697
0.1711329
0.1610602
0.1620303
0.1628858
0.1636103
0.1641838
0.1644864
0.1652563
0.1659469
0.1665379
0.1669858
0.1672849
0.1676026
0.1687037
0.1593964
0.1603498
0.1611956
0.1619189
0.1625015
0.1628333
0.16362
0.1643492
0.1649941
0.1655326
0.1658829
0.1661047
0.1663988
0.167448
0.1849081
0.1867252
0.1884551
0.1900405
0.1914253
0.1925483
0.1933592
0.1937721
0.1937781
0.1933081
0.1931906
0.1831287
0.1849049
0.186599
0.1881501
0.1895029
0.1906084
0.1914135
0.1918875
0.1919711
0.1917611
0.1915535
0.1938218
0.1814314
0.1831734
0.1848408
0.186368
0.1877014
0.1887954
0.1896192
0.1901461
0.1904025
0.1904326
0.1905348
0.1914745
0.1939246
0.1797753
0.1814807
0.1831183
0.1846194
0.185931
0.1870142
0.1878435
0.1884208
0.1887686
0.1889929
0.18924
0.1900842
0.1911628
0.1936046
0.178135
0.1797982
0.1813973
0.1828634
0.1841453
0.185207
0.1860316
0.1866226
0.1870254
0.1873207
0.1876797
0.1884879
0.189382
0.1904948
0.1928542
0.1764989
0.1781134
0.179664
0.1810845
0.182326
0.1833556
0.1841576
0.1847404
0.1851424
0.1854575
0.1858236
0.1866405
0.1874435
0.1883277
0.1894135
0.1914845
0.1748676
0.1764276
0.1779207
0.179286
0.1804782
0.1814657
0.1822322
0.1827811
0.1831482
0.183413
0.183732
0.1844862
0.1852528
0.1860095
0.186846
0.1877176
0.1906613
0.173252
0.1747537
0.1761835
0.1774879
0.1786257
0.1795657
0.1802877
0.1807861
0.1810786
0.1812309
0.1814001
0.182045
0.1827018
0.1833869
0.1840765
0.1847117
0.1863173
0.1891906
0.1716717
0.1731145
0.1744806
0.1757247
0.1768094
0.1777032
0.1783806
0.1788207
0.1790099
0.1789577
0.1787948
0.1792232
0.1797209
0.1802742
0.180884
0.1813853
0.1826648
0.184123
0.1868546
0.1701526
0.1715424
0.1728534
0.1740469
0.175088
0.1759453
0.1765888
0.1769838
0.1770734
0.1767316
0.1756088
0.1757144
0.1760519
0.1765216
0.1770543
0.1775018
0.1785826
0.1796763
0.1809215
0.1833802
0.1694643
0.1704776
0.1713266
0.1720592
0.172693
0.1731028
0.1740752
0.1749626
0.1758238
0.1767978
0.1787859
0.1653679
0.1664172
0.1673331
0.1681156
0.1687545
0.1691339
0.1700143
0.1708235
0.1715223
0.1721584
0.1728254
0.1743929
0.1622938
0.1633006
0.1641918
0.1649547
0.1655732
0.1659296
0.1667649
0.167529
0.1682045
0.1687492
0.1691621
0.1696102
0.1709157
0.159989
0.1609606
0.161825
0.1625681
0.1631728
0.1635295
0.1643457
0.1651079
0.1657898
0.1663708
0.1667695
0.1670483
0.1674079
0.168559
0.1583478
0.1593015
0.160154
0.1608922
0.1615004
0.1618751
0.162699
0.1634787
0.1642001
0.1648362
0.1653295
0.1656628
0.165926
0.1662677
0.1673748
0.184572
0.1830595
0.1848122
0.1864783
0.1880033
0.1893335
0.1904177
0.1911946
0.1916091
0.1915351
0.1908511
0.1890875
0.1906785
0.1813399
0.1830565
0.1846911
0.1861862
0.1874903
0.1885557
0.189342
0.189801
0.1899128
0.1896432
0.1892396
0.1898309
0.1920103
0.1796968
0.181383
0.1829948
0.1844697
0.1857567
0.1868154
0.1876138
0.1881404
0.1883964
0.1884652
0.1885047
0.1891848
0.1901048
0.1924477
0.1780912
0.1797445
0.18133
0.182782
0.1840505
0.1850988
0.1859068
0.1864724
0.1868333
0.1870646
0.1873457
0.1880909
0.1889204
0.1899726
0.19231
0.1764989
0.1781134
0.179664
0.1810845
0.182326
0.1833556
0.1841576
0.1847404
0.1851424
0.1854575
0.1858236
0.1866405
0.1874435
0.1883277
0.1894135
0.1914845
0.1749087
0.176478
0.1779836
0.1793619
0.1805664
0.1815662
0.1823476
0.1829196
0.1833246
0.1836464
0.1840338
0.1848411
0.1856602
0.1864672
0.1873503
0.1882595
0.1912056
0.1733213
0.1748396
0.1762914
0.1776181
0.1787764
0.1797368
0.1804844
0.1810245
0.1813917
0.1816684
0.1819987
0.1827613
0.183528
0.1843126
0.1850903
0.1858032
0.1874821
0.1903835
0.1717476
0.1732108
0.1746028
0.1758721
0.1769791
0.1778945
0.1786
0.179091
0.1793865
0.1795503
0.1797395
0.1803871
0.181063
0.1817612
0.1824938
0.1831028
0.1844979
0.1860816
0.1889148
0.1702065
0.171614
0.1729455
0.1741577
0.1752145
0.1760862
0.1767488
0.1771836
0.1773783
0.1773447
0.17721
0.1776532
0.1781668
0.178752
0.1793903
0.1799598
0.1811854
0.1824505
0.1838879
0.1865829
0.1687237
0.1700808
0.17136
0.1725242
0.1735398
0.1743769
0.1750071
0.1753979
0.1754958
0.1751808
0.1741203
0.1742504
0.1746138
0.1751101
0.1756865
0.1761859
0.1773154
0.1783853
0.179465
0.1806908
0.183062
0.1681706
0.16918
0.1700352
0.1707877
0.1714524
0.1719244
0.1729374
0.1739
0.1747759
0.1756227
0.1765311
0.1784782
0.1641856
0.1652314
0.1661526
0.1669505
0.1676207
0.1680519
0.1689827
0.1698543
0.1706535
0.1713404
0.1719208
0.1725608
0.1741692
0.1611828
0.162188
0.1630848
0.1638626
0.1645079
0.1649132
0.1657878
0.1666153
0.1673706
0.168036
0.168531
0.1689232
0.1694132
0.1707684
0.1589221
0.1598926
0.1607622
0.1615185
0.1621469
0.1625443
0.1633948
0.1642039
0.1649582
0.1656313
0.1661669
0.1665485
0.1668687
0.167276
0.1684852
0.1573037
0.1582558
0.159112
0.1598608
0.1604885
0.1608973
0.1617461
0.1625635
0.1633362
0.1640497
0.1646436
0.165122
0.1654958
0.165805
0.1662008
0.1792957
0.1816067
0.1840312
0.1812732
0.1829672
0.1845752
0.1860455
0.1873282
0.1883736
0.1891335
0.1895377
0.1895024
0.1887959
0.1869535
0.1869671
0.1887257
0.1796084
0.1812703
0.1828508
0.1842949
0.1855542
0.1865858
0.1873489
0.1878115
0.1879325
0.1877219
0.1872949
0.1876566
0.1882975
0.1904238
0.1780152
0.1796501
0.1812109
0.1826379
0.1838829
0.1849079
0.1856866
0.1862043
0.1864787
0.1865643
0.1866529
0.1872501
0.1879334
0.1888513
0.1911167
0.1764565
0.1780615
0.179599
0.1810059
0.1822347
0.1832515
0.1840376
0.1845964
0.1849586
0.1852135
0.1855069
0.1862663
0.1870115
0.1878391
0.1888754
0.19094
0.1749087
0.176478
0.1779836
0.1793619
0.1805664
0.1815662
0.1823476
0.1829196
0.1833246
0.1836464
0.1840338
0.1848411
0.1856602
0.1864672
0.1873503
0.1882595
0.1912056
0.1733613
0.1748884
0.1763523
0.1776915
0.1788617
0.1798338
0.1805958
0.1811579
0.1815613
0.1818923
0.1822873
0.1830994
0.1839144
0.1847443
0.1855631
0.1863124
0.1880246
0.1909276
0.1718151
0.1732942
0.1747075
0.1759982
0.1771251
0.1780601
0.1787901
0.1793211
0.1796883
0.1799711
0.1803137
0.181072
0.1818502
0.1826393
0.1834506
0.1841267
0.1855911
0.1872474
0.1901067
0.1702805
0.1717076
0.1730642
0.1743007
0.1753791
0.1762716
0.1769612
0.1774449
0.177742
0.1779158
0.1781181
0.1787692
0.1794497
0.1801687
0.1809171
0.1815811
0.1829049
0.1842851
0.1858471
0.1886404
0.1687763
0.1701504
0.1714496
0.1726318
0.1736626
0.1745136
0.1751623
0.1755914
0.1757907
0.1757726
0.1756624
0.1761135
0.1766413
0.1772418
0.1779118
0.178517
0.1797723
0.1809869
0.1822376
0.1836544
0.1862562
0.1673274
0.1686537
0.1699032
0.1710399
0.1720315
0.1728496
0.1734673
0.1738538
0.1739586
0.1736675
0.1726621
0.1728126
0.1731935
0.1737119
0.1743131
0.1748611
0.1760097
0.1771302
0.1781893
0.1792551
0.1804132
0.1827363
0.1668937
0.1678965
0.1687543
0.1695178
0.1702066
0.1707188
0.1717671
0.1727717
0.1737246
0.1745889
0.1753789
0.1762583
0.1782442
0.1630135
0.1640538
0.1649763
0.1657844
0.1664752
0.1669477
0.1679075
0.1688305
0.1696933
0.1704825
0.171119
0.171678
0.1723598
0.1740173
0.160079
0.1610804
0.1619795
0.1627673
0.1634325
0.1638739
0.1647773
0.1656448
0.1664645
0.1672109
0.1678305
0.1683081
0.1687418
0.1692796
0.1706931
0.157861
0.1588287
0.1597006
0.160466
0.1611121
0.1615417
0.1624148
0.1632588
0.1640609
0.1648074
0.1654381
0.1659587
0.1663808
0.1667471
0.1672087
0.1562654
0.1572145
0.1580722
0.1588283
0.1594707
0.1599066
0.160773
0.1616159
0.1624269
0.1631925
0.1638663
0.1644469
0.1649647
0.1653828
0.1657434
0.1756509
0.1769517
0.1790342
0.1800273
0.1811419
0.1832254
0.1795439
0.1811842
0.1827391
0.1841597
0.1853987
0.1864114
0.1871496
0.1875603
0.1875437
0.1869231
0.1851585
0.1849985
0.1853091
0.187128
0.1779298
0.1795412
0.181072
0.1824695
0.1836881
0.1846874
0.1854327
0.1858897
0.1860363
0.1858595
0.1855124
0.185821
0.1862507
0.1869482
0.1890465
0.1763828
0.1779701
0.1794839
0.1808668
0.1820732
0.1830678
0.183826
0.1843392
0.1846194
0.1847367
0.1848499
0.1854736
0.1860879
0.1867915
0.1877196
0.1897463
0.1748676
0.1764276
0.1779207
0.179286
0.1804782
0.1814657
0.1822322
0.1827811
0.1831482
0.183413
0.183732
0.1844862
0.1852528
0.1860095
0.186846
0.1877176
0.1906613
0.1733613
0.1748884
0.1763523
0.1776915
0.1788617
0.1798338
0.1805958
0.1811579
0.1815613
0.1818923
0.1822873
0.1830994
0.1839144
0.1847443
0.1855631
0.1863124
0.1880246
0.1909276
0.1718539
0.1733417
0.1747666
0.1760694
0.1772076
0.1781539
0.1788978
0.1794499
0.1798517
0.1801864
0.1805905
0.1813954
0.1822184
0.1830488
0.1838968
0.1846045
0.1861011
0.1877905
0.1906504
0.1703461
0.1717887
0.1731659
0.1744231
0.1755206
0.176432
0.1771453
0.1776675
0.1780333
0.1783212
0.1786701
0.1794261
0.1802024
0.1810054
0.1818247
0.1825478
0.1839307
0.1853798
0.1870137
0.189831
0.1688483
0.1702415
0.171565
0.1727708
0.1738224
0.1746934
0.1753682
0.1758445
0.1761424
0.1763239
0.1765372
0.1771863
0.1778714
0.1785962
0.1793664
0.1800549
0.1813957
0.1827081
0.1840735
0.1856137
0.1883098
0.1673788
0.1687216
0.1699904
0.1711446
0.1721509
0.1729824
0.1736179
0.1740415
0.1742442
0.1742396
0.17415
0.1746069
0.1751418
0.1757555
0.17644
0.1770819
0.1783398
0.1795861
0.1807897
0.1820261
0.1833737
0.1859219
0.165962
0.1672592
0.1684807
0.1695915
0.1705607
0.1713608
0.1719666
0.1723488
0.1724595
0.1721895
0.1712338
0.1714008
0.1717953
0.1723274
0.1729487
0.1735254
0.1746936
0.1758346
0.1769462
0.1779945
0.1790026
0.1801294
0.1824886
0.1656342
0.166629
0.167486
0.1682564
0.1689599
0.1695042
0.1705687
0.1716096
0.1726057
0.1735489
0.1743622
0.1751296
0.176051
0.1780853
0.161853
0.162886
0.1638073
0.1646212
0.1653269
0.165829
0.1668094
0.1677622
0.1686774
0.1695314
0.1702742
0.1708928
0.1714936
0.1722235
0.1739397
0.1589835
0.1599798
0.1608787
0.1616728
0.1623524
0.1628222
0.1637433
0.1646403
0.1655007
0.1663125
0.1670162
0.1676206
0.1681389
0.1686189
0.1692114
0.1568067
0.1577703
0.1586426
0.159414
0.1600734
0.1605283
0.161417
0.1622842
0.1631218
0.1639168
0.1646233
0.1652407
0.1658007
0.1662673
0.1666852
0.1552337
0.1561787
0.1570363
0.1577972
0.1584507
0.1589084
0.1597867
0.1606477
0.1614847
0.1622892
0.1630171
0.163679
0.1642978
0.1648583
0.1653253
0.1732896
0.1737085
0.1754469
0.1757098
0.1767206
0.1785474
0.1786869
0.1796002
0.1804447
0.1822883
0.1778673
0.179458
0.1809643
0.1823392
0.1835385
0.18452
0.1852415
0.1856495
0.1856654
0.1851023
0.1834983
0.1833352
0.1834735
0.183943
0.1857794
0.1763
0.1778647
0.1793497
0.1807044
0.1818855
0.1828555
0.1835819
0.1840373
0.1841961
0.1840649
0.1837686
0.1841259
0.184513
0.185017
0.1857708
0.1876806
0.1747961
0.1763391
0.1778094
0.1791516
0.1803224
0.1812886
0.1820283
0.1825338
0.1828227
0.1829569
0.183106
0.1837344
0.1843817
0.1850284
0.1857644
0.1865542
0.1894678
0.1733213
0.1748396
0.1762914
0.1776181
0.1787764
0.1797368
0.1804844
0.1810245
0.1813917
0.1816684
0.1819987
0.1827613
0.183528
0.1843126
0.1850903
0.1858032
0.1874821
0.1903835
0.1718539
0.1733417
0.1747666
0.1760694
0.1772076
0.1781539
0.1788978
0.1794499
0.1798517
0.1801864
0.1805905
0.1813954
0.1822184
0.1830488
0.1838968
0.1846045
0.1861011
0.1877905
0.1906504
0.170384
0.1718348
0.1732234
0.1744922
0.1756007
0.1765229
0.1772495
0.177792
0.1781911
0.1785287
0.1789362
0.1797362
0.1805544
0.1813956
0.182248
0.1829989
0.1844094
0.1858906
0.1875571
0.190374
0.1689124
0.1703205
0.171664
0.1728898
0.1739598
0.174849
0.1755466
0.17606
0.1764241
0.1767153
0.177069
0.1778177
0.1785932
0.179396
0.1802312
0.180972
0.1823642
0.1837355
0.1851694
0.1867808
0.1894984
0.167449
0.1688104
0.1701028
0.1712798
0.1723062
0.1731571
0.1738178
0.174287
0.1745848
0.1747726
0.1749943
0.1756403
0.1763242
0.1770541
0.1778305
0.1785473
0.1798797
0.1812113
0.1825124
0.183863
0.1853328
0.1879716
0.1660121
0.1673254
0.1685657
0.1696935
0.1706768
0.17149
0.172113
0.1725311
0.1727365
0.1727435
0.1726719
0.1731321
0.1736717
0.1742913
0.1749877
0.1756482
0.1769135
0.1781638
0.1794012
0.1805938
0.1817719
0.1830865
0.1856676
0.1646254
0.1658954
0.1670904
0.168177
0.1691249
0.1699083
0.1705027
0.1708807
0.1709964
0.1707454
0.1698344
0.1700152
0.1704197
0.1709618
0.1715947
0.1721946
0.1733656
0.1745272
0.1756606
0.1767634
0.1777602
0.1787445
0.1799137
0.1823205
0.1643927
0.1653781
0.1662325
0.167006
0.1677195
0.1682855
0.1693604
0.1704183
0.1714518
0.1724395
0.1733359
0.1741305
0.1749404
0.1759104
0.1780041
0.1607049
0.1617295
0.1626476
0.1634643
0.1641801
0.164705
0.1656961
0.1666702
0.167616
0.1685233
0.1693342
0.1700615
0.1707212
0.1713687
0.1721539
0.1578972
0.1588872
0.1597843
0.1605819
0.161272
0.1617638
0.1626965
0.1636118
0.1645022
0.1653556
0.1661271
0.1668174
0.1674613
0.1680244
0.1685563
0.1557602
0.1567187
0.1575898
0.1583649
0.159034
0.1595093
0.160408
0.1612913
0.1621525
0.1629836
0.1637409
0.1644354
0.165091
0.1656939
0.1662095
0.1542093
0.1551495
0.1560056
0.1567695
0.1574313
0.1579065
0.1587925
0.1596658
0.1605213
0.1613523
0.1621211
0.1628381
0.163537
0.1641969
0.1648041
0.1721215
0.1715973
0.1731008
0.1726982
0.1735244
0.1750456
0.1746495
0.1754975
0.1762886
0.177873
0.1774005
0.1782891
0.1789602
0.1796278
0.1812839
0.1762395
0.1777842
0.1792456
0.1805787
0.1817413
0.1826943
0.1833982
0.1838066
0.1838413
0.1833433
0.1818595
0.181782
0.1819143
0.1822204
0.1827801
0.1844493
0.1747158
0.176237
0.1776795
0.1789946
0.1801412
0.1810839
0.1817932
0.1822434
0.1824165
0.1823144
0.1820756
0.1824566
0.1828962
0.1833664
0.1839443
0.1845976
0.1874035
0.173252
0.1747537
0.1761835
0.1774879
0.1786257
0.1795657
0.1802877
0.1807861
0.1810786
0.1812309
0.1814001
0.182045
0.1827018
0.1833869
0.1840765
0.1847117
0.1863173
0.1891906
0.1718151
0.1732942
0.1747075
0.1759982
0.1771251
0.1780601
0.1787901
0.1793211
0.1796883
0.1799711
0.1803137
0.181072
0.1818502
0.1826393
0.1834506
0.1841267
0.1855911
0.1872474
0.1901067
0.170384
0.1718348
0.1732234
0.1744922
0.1756007
0.1765229
0.1772495
0.177792
0.1781911
0.1785287
0.1789362
0.1797362
0.1805544
0.1813956
0.182248
0.1829989
0.1844094
0.1858906
0.1875571
0.190374
0.1689492
0.1703654
0.1717198
0.1729569
0.1740375
0.1749372
0.1756476
0.1761806
0.1765767
0.1769156
0.1773254
0.1781158
0.1789308
0.1797691
0.1806345
0.1813999
0.1828162
0.184215
0.1856809
0.1873245
0.1900405
0.1675115
0.1688874
0.1701991
0.1713955
0.1724398
0.1733082
0.1739909