/*--------------------------------*- C++ -*----------------------------------*\
| =========                 |                                                 |
| \\      /  F ield         | OpenFOAM: The Open Source CFD Toolbox           |
|  \\    /   O peration     | Version:  2306                                  |
|   \\  /    A nd           | Website:  www.openfoam.com                      |
|    \\/     M anipulation  |                                                 |
\*---------------------------------------------------------------------------*/
FoamFile
{
    version     2.0;
    format      ascii;
    arch        "LSB;label=32;scalar=64";
    class       volVectorField;
    location    "0.9/phiEA";
    object      i;
}
// * * * * * * * * * * * * * * * * * * * * * * * * * * * * * * * * * * * * * //

dimensions      [0 -2 0 0 0 1 0];

internalField   nonuniform List<vector> 
20000
(
(-567.2383 2324.862 1946.848)
(-595.3825 7471.068 1982.432)
(-1138.377 2043.42 1780.992)
(-566.5749 2323.439 5753.157)
(-656.7201 14119.47 2054.303)
(-1187.249 6576.25 1809.189)
(-594.6895 7466.77 5858.701)
(-1064.214 1836.138 1639.077)
(-1137.146 2042.292 5267.113)
(-565.2941 2320.64 9410.445)
(-761.2916 22979.21 2150.06)
(-1294.068 12460.38 1865.74)
(-655.9658 14112.77 6071.887)
(-1100.208 5914.158 1663.228)
(-1185.972 6572.86 5350.965)
(-593.3515 7458.319 9583.946)
(-911.8155 1683.482 1525.031)
(-1063.19 1835.172 4850.736)
(-1134.767 2040.066 8623.43)
(-563.4268 2316.499 12968.19)
(-920.6058 32777.61 2200.915)
(-1476.98 20340.35 1938.643)
(-760.446 22973.35 6355.548)
(-1179.296 11222.16 1711.573)
(-1292.697 12455.2 5519.181)
(-654.5093 14099.6 9934.45)
(-939.02 5425.43 1546.508)
(-1099.157 5911.258 4922.657)
(-1183.505 6566.167 8761.699)
(-591.4005 7445.81 13208.41)
(-778.4725 1564.093 1430.394)
(-910.9808 1682.623 4515.831)
(-1061.209 1833.261 7948.334)
(-1131.297 2036.762 11892.17)
(-560.99 2311.031 15238.46)
(-1130.083 37243.75 2064.205)
(-1757.07 29089.7 1965.268)
(-919.6632 32781.04 6503.451)
(-1315.804 18349.19 1773.049)
(-1475.472 20336.37 5735.873)
(-758.8129 22961.95 10400.2)
(-998.9638 10304.42 1589.47)
(-1178.191 11217.77 5066.669)
(-1290.047 12444.99 9039.192)
(-652.3848 14080.12 13693.85)
(-800.2424 5042.675 1449.907)
(-938.1667 5422.853 4579.849)
(-1097.124 5905.521 8067.124)
(-1179.905 6556.23 12084.07)
(-588.8541 7429.293 15521.85)
(-673.4287 1465.783 1349.188)
(-777.7691 1563.313 4237.719)
(-909.3634 1680.921 7404.799)
(-1058.316 1830.42 10968.43)
(-1126.768 2032.39 13980.61)
(-765.7994 3161.367 20030.34)
(-1335.36 33540.69 1988.754)
(-2127.01 33096.21 1818.98)
(-1129.102 37252.24 6087.598)
(-1526.71 26277.31 1790.68)
(-1755.429 29094.48 5813.361)
(-917.8454 32788.32 10637.82)
(-1102.846 16866.22 1643.662)
(-1314.624 18346.02 5249.707)
(-1472.557 20328.59 9396.435)
(-756.4309 22945.21 14338.53)
(-848.2976 9583.898 1488.929)
(-998.0732 10300.54 4707.943)
(-1176.051 11209.08 8305.099)
(-1286.179 12429.82 12469.38)
(-649.6114 14054.4 16094.79)
(-691.6298 4727.179 1367.155)
(-799.5249 5040.334 4295.92)
(-936.513 5417.746 7510.651)
(-1094.153 5896.987 11133.5)
(-1175.205 6543.079 14207.34)
(-803.8525 10164.42 20428.28)
(-591.4771 1382.082 1278.009)
(-672.8192 1465.065 3998.919)
(-776.4049 1561.765 6953.051)
(-906.9996 1678.388 10224.23)
(-1054.537 1826.658 12900.49)
(-1538.668 2780.835 18378.29)
(-762.7496 3153.497 18585.38)
(-1502.708 25458.76 1967.565)
(-2490.231 29814.44 1731.457)
(-1334.331 33544.55 5857.116)
(-1807.364 29912.15 1650.117)
(-2125.354 33105.56 5371.58)
(-1127.219 37269.61 9932.989)
(-1264.025 24174.1 1656.523)
(-1525.475 26282.22 5301.038)
(-1752.261 29104.27 9521.086)
(-915.1962 32799.73 14662.33)
(-931.7909 15698.57 1537.889)
(-1101.906 16863.54 4869.475)
(-1312.339 18339.81 8607.482)
(-1468.301 20317.1 12965.45)
(-753.3206 22923.21 16855.88)
(-731.862 8988.936 1403.086)
(-847.5521 9580.379 4412.351)
(-996.3465 10292.84 7722.564)
(-1172.925 11196.16 11464.39)
(-1281.129 12409.73 14662.87)
(-886.8441 19236.7 21233.57)
(-607.1527 4458.342 1294.71)
(-691.009 4725.023 4052.537)
(-798.1331 5035.69 7049.366)
(-934.0957 5410.142 10371.46)
(-1090.273 5885.682 13095.7)
(-1604.846 8953.974 18699.71)
(-800.6571 10140.62 19005.92)
(-526.9313 1309.027 1214.551)
(-590.9385 1381.414 3789.475)
(-671.6357 1463.639 6564.855)
(-774.4094 1559.46 9605.34)
(-903.9111 1675.032 12030.09)
(-1440.704 2499.582 16959.34)
(-1532.998 2774.422 17048.34)
(-759.6512 3144.545 18831.21)
(-1618.083 15653.19 1965.939)
(-2786.781 22631.53 1698.776)
(-1501.633 25459.67 5790.945)
(-2083.597 26942.98 1564.414)
(-2488.533 29819.24 5107.245)
(-1332.361 33552.55 9540.797)
(-1479.162 27527.33 1522.936)
(-1806.18 29921.2 4877.379)
(-2122.169 33124.45 8778.473)
(-1124.484 37296.12 13661.65)
(-1061.676 22514.15 1547.779)
(-1263.053 24178.92 4906.926)
(-1523.084 26292.2 8690.129)
(-1747.639 29119.2 13135.6)
(-911.7385 32815.4 17235.01)
(-801.8965 14732.44 1447.991)
(-931.0082 15696.22 4558.403)
(-1100.081 16858.26 7989.778)
(-1308.998 18330.62 11884.96)
(-1462.743 20301.94 15249.74)
(-1028.58 31405.17 22297.98)
(-641.841 8481.232 1328.114)
(-731.2188 8985.703 4159.803)
(-846.1051 9573.399 7242.145)
(-993.8214 10281.37 10666.37)
(-1168.839 11179.02 13487.24)
(-1749.599 16989.42 19346.57)
(-883.3477 19199.81 19858.05)
(-540.7238 4223.54 1230.182)
(-606.6049 4456.338 3839.336)
(-689.8035 4720.743 6653.644)
(-796.0969 5028.77 9739.388)
(-930.9366 5400.06 12204.3)
(-1489.565 8055.11 17237.35)
(-1598.946 8934.635 17393.52)
(-797.4029 10113.51 19305.85)
(-475.0654 1244.157 1157.305)
(-526.4485 1308.401 3602.64)
(-589.892 1380.088 6224.127)
(-669.9035 1461.513 9073.206)
(-771.8008 1556.403 11306.03)
(-1235.138 2292.234 15816.24)
(-1435.974 2494.011 15727.46)
(-1527.236 2767.028 17269.93)
(-756.5045 3134.511 19076.31)
(-1676.517 5263.03 1967.626)
(-2991.509 13915.1 1689.111)
(-1616.975 15653.19 5784.583)
(-2309.46 20445.97 1530.481)
(-2785.033 22633.22 5008.245)
(-1499.577 25461.66 9425.514)
(-1690.859 24793.48 1440.857)
(-2082.435 26947.76 4619.233)
(-2485.279 29828.97 8334.401)
(-1329.505 33564.85 13104.03)
(-1235.363 25643.81 1420.787)
(-1478.245 27535.96 4504.674)
(-1803.897 29939.42 7979.622)
(-2117.54 33153.03 12087.73)
(-1120.923 37331.94 16032.42)
(-911.0562 21138.38 1455.844)
(-1060.873 22518.84 4587.203)
(-1261.17 24188.69 8050.121)
(-1519.591 26307.34 11997.97)
(-1741.603 29139.38 15449.42)
(-1245.331 45027.66 22782.22)
(-702.3173 13906.63 1369.738)
(-801.2239 14730.33 4293.844)
(-929.4884 15691.58 7483.99)
(-1097.412 16850.43 11038.44)
(-1304.63 18318.47 13985.35)
(-1997.924 27820.3 20177.65)
(-1024.644 31375.6 20973.92)
(-571.2725 8037.29 1261.453)
(-641.2744 8478.231 3939.103)
(-729.969 8979.284 6831.365)
(-843.9873 9562.994 10007.86)
(-990.5204 10266.16 12553.49)
(-1597.011 15305.92 17796.07)
(-1743.227 16959.94 18090.03)
(-879.772 19157.98 20268.82)
(-487.3902 4014.931 1172.012)
(-540.2331 4221.664 3649.325)
(-605.5399 4452.357 6306.741)
(-688.0385 4714.363 9196.845)
(-793.4347 5019.589 11464.72)
(-1272.098 7390.911 16065.1)
(-1484.693 8038.324 16028.31)
(-1592.936 8912.306 17664.1)
(-794.0901 10083.11 19605.03)
(-432.5657 1185.778 1105.16)
(-474.6279 1243.569 3434.001)
(-525.5094 1307.159 5919.965)
(-588.359 1378.11 8605.873)
(-667.6379 1458.693 10683.25)
(-1054.659 2129.983 14865.58)
(-1231.274 2287.233 14664.19)
(-1431.168 2487.549 15927.56)
(-1521.383 2758.655 17490.9)
(-753.3096 3123.396 28158.08)
(-1676.517 -5263.03 1967.626)
(-3095.298 4678.692 1686.825)
(-1675.393 5262.962 5788.973)
(-2465.588 12568.02 1519.1)
(-2989.722 13915.58 4978.764)
(-1614.86 15653.27 9412.061)
(-1863.765 18811.62 1407.575)
(-2308.295 20447.78 4516.956)
(-2781.685 22636.67 8167.569)
(-1496.601 25464.82 12937.54)
(-1406.217 23096.95 1342.457)
(-1689.971 24798.09 4257.736)
(-2080.199 26957.39 7547.29)
(-2480.559 29843.68 11462.14)
(-1325.793 33581.52 15362.94)
(-1057.228 24081.92 1334.892)
(-1234.611 25652.03 4205.031)
(-1476.473 27553.3 7376.277)
(-1800.571 29966.91 10997.17)
(-2111.511 33191.39 14194.94)
(-1532.069 51251.66 20908.67)
(-796.725 19960.84 1376.121)
(-910.3695 21142.9 4316.712)
(-1059.315 22528.29 7530.427)
(-1258.414 24203.46 11121.08)
(-1515.026 26327.71 14118.29)
(-2379.664 39992.77 20430.92)
(-1240.979 45059.55 21395.56)
(-624.5981 13183.6 1300.328)
(-701.7267 13904.71 4063.413)
(-799.9165 14726.16 7053.494)
(-927.2631 15684.69 10344.87)
(-1093.921 16840.07 12994.5)
(-1782.825 25104.52 18505.68)
(-1990.878 27799.28 18980.24)
(-1020.605 31343.67 21522.37)
(-514.7089 7642.489 1201.443)
(-570.7658 8034.485 3742.754)
(-640.1728 8472.269 6472.126)
(-728.1387 8969.709 9444.478)
(-841.2175 9549.179 11782.75)
(-1353.605 14056.82 16564.98)
(-1591.853 15280.5 16634.78)
(-1736.706 16925.95 18461.21)
(-876.1172 19111.15 20679.16)
(-443.7103 3827.106 1119.055)
(-486.9457 4013.165 3477.942)
(-539.2783 4217.935 5997.35)
(-603.9797 4446.418 8720.963)
(-685.7298 4705.893 10829.67)
(-1084.249 6870.447 15092.78)
(-1268.135 7375.847 14934.81)
(-1479.73 8018.817 16272.96)
(-1586.815 8886.984 17934.03)
(-790.7189 10049.4 29018.04)
(-397.0554 1132.711 1057.302)
(-432.1656 1185.223 3280.307)
(-473.7761 1242.4 5645.24)
(-524.133 1305.306 8188.459)
(-586.353 1375.484 10136.1)
(-912.3069 1996.329 14048.03)
(-1051.397 2125.408 13780.61)
(-1227.351 2281.408 14847.73)
(-1426.286 2480.195 16127.1)
(-1515.439 2749.303 25811.64)
(-359.6299 1497.67 19585.31)
(-1618.083 -15653.19 1965.939)
(-3095.298 -4678.692 1686.825)
(-1675.393 -5262.962 5788.973)
(-2544.812 4225.145 1515.789)
(-3093.49 4678.783 4971.703)
(-1673.248 5262.854 9418.096)
(-1983.158 11561.58 1395.898)
(-2464.415 12568.61 4482.611)
(-2986.301 13916.56 8117.502)
(-1611.797 15653.48 12915.8)
(-1545.639 17522.98 1310.301)
(-1862.884 18813.42 4157.615)
(-2306.058 20451.44 7375.927)
(-2776.835 22641.9 11226.71)
(-1492.734 25469.19 15161.42)
(-1200.997 21690.71 1260.123)
(-1405.494 23101.37 3969.526)
(-1688.26 24807.36 6963.288)
(-2076.95 26971.91 10389.55)
(-2474.421 29863.41 13447.95)
(-1812.817 46079.58 19855.17)
(-923.2817 22744.4 1260.696)
(-1056.587 24089.75 3952.858)
(-1233.155 25668.52 6890.655)
(-1473.889 27579.43 10172.77)
(-1796.237 30003.76 12921.59)
(-2886.99 45576.8 18523.12)
(-1527.724 51315.17 19080.24)
(-707.9467 18928.73 1305.603)
(-796.1241 19965.2 4082.001)
(-909.0353 21152.02 7090.391)
(-1057.034 22542.57 10408.58)
(-1254.812 24223.31 13091.97)
(-2071.078 36136.99 18672.97)
(-2372.047 40028.75 19196.8)
(-1236.536 45103.41 21926.77)
(-562.4458 12539.89 1237.96)
(-624.071 13181.83 3858.903)
(-700.5776 13900.92 6678.255)
(-798.0009 14719.97 9754.215)
(-924.3515 15675.55 12182.44)
(-1495.132 23079.63 17195.66)
(-1777.28 25087.39 17402.39)
(-1983.637 27776.03 19477.28)
(-1016.464 31309.28 22072.22)
(-468.4291 7286.735 1146.869)
(-514.2505 7639.851 3565.899)
(-569.7796 8028.907 6152.299)
(-638.5582 8463.37 8951.508)
(-725.7436 8956.989 11123.13)
(-1149.622 13075.59 15549.14)
(-1349.44 14034.08 15480.23)
(-1586.572 15250.96 16971.01)
(-1730.036 16887.41 18832.03)
(-872.3835 19059.29 30768.02)
(-407.226 3656.297 1070.476)
(-443.3042 3825.437 3321.834)
(-486.0803 4009.655 5718.103)
(-537.8785 4212.371 8296.305)
(-601.9377 4438.531 10272.44)
(-937.0552 6441.281 14258.06)
(-1080.911 6856.665 14028.6)
(-1264.1 7358.27 15159.52)
(-1474.675 7996.586 16517.05)
(-1580.584 8858.661 26538.51)
(-377.3554 4830.313 20315.46)
(-366.8814 1084.072 1013.102)
(-396.6871 1132.184 3139.18)
(-431.3864 1184.117 5394.697)
(-472.5268 1240.654 7811.235)
(-522.3309 1302.845 9647.215)
(-801.2089 1882.5 13329.81)
(-909.4746 1992.092 13021.24)
(-1048.087 2120.063 13951.07)
(-1223.368 2274.761 15030.78)
(-1421.327 2471.951 23792.06)
(-726.039 1320.414 17943.95)
(-324.9299 1322.026 21127.68)
(-1502.708 -25458.76 1967.565)
(-2991.509 -13915.1 1689.111)
(-1616.975 -15653.19 5784.583)
(-2544.812 -4225.145 1515.789)
(-3093.49 -4678.783 4971.703)
(-1673.248 -5262.854 9418.096)
(-2043.698 3886.449 1392.293)
(-2543.634 4225.278 4472.608)
(-3090.032 4678.974 8105.344)
(-1670.142 5262.721 12922.94)
(-1641.826 10768.69 1298.77)
(-1982.276 11562.19 4122.495)
(-2462.163 12569.8 7318.306)
(-2981.347 13918.07 11155.67)
(-1607.819 15653.85 15133.56)
(-1318.254 16455.53 1229.203)
(-1544.926 17524.73 3872.888)
(-1861.188 18817.03 6795.917)
(-2302.809 20456.94 10148.76)
(-2770.53 22648.93 13166.74)
(-2041.539 34935.76 19519.15)
(-1047.761 20486.69 1189.247)
(-1200.384 21694.94 3728.153)
(-1404.099 23110.24 6497.1)
(-1685.77 24821.31 9592.955)
(-2072.722 26991.33 12197.12)
(-3384.543 40984.88 17389.19)
(-1808.367 46110.23 17759.48)
(-819.7779 21571.56 1195.249)
(-922.7232 22751.88 3734.867)
(-1055.347 24105.46 6481.568)
(-1231.032 25693.36 9508.718)
(-1470.519 27614.43 11958.72)
(-2457.088 41202.87 16865.74)
(-2879.615 45641.29 16916.66)
(-1523.415 51397.1 19028.89)
(-637.1362 18009.04 1242.376)
(-707.4118 18932.94 3874.263)
(-794.9552 19973.98 6708.268)
(-907.0809 21165.78 9804.933)
(-1054.05 22561.73 12257.8)
(-1715.619 33250.14 17317.39)
(-2065.295 36172.17 17542.41)
(-2364.251 40075.31 19682.25)
(-1232.001 45159.29 22463.29)
(-511.661 11959.32 1181.327)
(-561.9698 12538.25 3675.044)
(-623.0446 13178.34 6344.995)
(-698.8927 13895.27 9239.085)
(-795.4934 14711.74 11490.65)
(-1263.425 21484.37 16122.36)
(-1490.701 23064.86 16166.73)
(-1771.571 25068.21 17853.39)
(-1976.202 27750.44 19975.62)
(-1012.219 31272.3 33032.73)
(-429.7971 6962.982 1096.851)
(-468.0107 7284.244 3404.983)
(-513.3578 7634.605 5864.033)
(-568.3334 8020.579 8512.382)
(-636.4444 8451.544 10545.74)
(-991.8043 12265.06 14679.95)
(-1146.13 13054.83 14528.41)
(-1345.179 14007.54 15789.57)
(-1581.166 15217.28 17306.94)
(-1723.217 16844.29 28014.99)
(-416.1762 9230.649 21819.36)
(-376.233 3499.689 1025.626)
(-406.8523 3654.715 3178.559)
(-442.5128 3822.119 5463.582)
(-484.8107 4004.414 7912.813)
(-536.0457 4204.979 9775.009)
(-822.5294 6075.473 13525.68)
(-934.161 6428.519 13251.16)
(-1077.515 6840.535 14237.51)
(-1259.993 7338.174 15383.72)
(-1469.529 7971.624 24434.14)
(-757.0042 4264.849 18570.38)
(-340.2869 4290.125 22134.91)
(-340.8444 1039.195 972.0704)
(-366.5405 1083.571 3008.776)
(-395.9692 1131.135 5164.497)
(-430.2427 1182.467 7467.035)
(-470.8904 1238.336 9205.232)
(-713.7045 1783.124 12688.07)
(-798.7014 1878.544 12354.46)
(-906.6023 1987.132 13180.91)
(-1044.729 2113.95 14121.06)
(-1219.327 2267.291 22169.77)
(-684.2379 1188.018 16529.15)
(-661.3937 1168.456 19343.79)
(-288.2742 1094.78 22069.88)
(-1335.36 -33540.69 1988.754)
(-2786.781 -22631.53 1698.776)
(-1501.633 -25459.67 5790.945)
(-2465.588 -12568.02 1519.1)
(-2989.722 -13915.58 4978.764)
(-1614.86 -15653.27 9412.061)
(-2043.698 -3886.449 1392.293)
(-2543.634 -4225.278 4472.608)
(-3090.032 -4678.974 8105.344)
(-1670.142 -5262.721 12922.94)
(-1690.57 3619.744 1295.115)
(-2042.815 3886.593 4111.659)
(-2541.372 4225.545 7301.502)
(-3085.024 4679.27 11138.26)
(-1666.109 5262.568 15141.14)
(-1399.104 10112.28 1217.978)
(-1641.115 10769.3 3838.259)
(-1980.58 11563.42 6737.225)
(-2458.894 12571.59 10067.73)
(-2974.909 13920.1 13081.64)
(-2199.209 21468.74 19456.91)
(-1149.255 15541.91 1159.563)
(-1317.651 16457.22 3635.286)
(-1543.55 17528.23 6335.739)
(-1858.723 18822.46 9358.182)
(-2298.583 20464.31 11910.28)
(-3790.395 31071.84 16958.34)
(-2036.934 34945.1 17306.96)
(-929.7818 19430.98 1126.881)
(-1047.228 20490.74 3520.204)
(-1199.2 21703.41 6106.251)
(-1402.066 23123.57 8956.528)
(-1682.528 24839.94 11267.92)
(-2836.43 37045.52 15776.31)
(-3377.176 41018.13 15563.55)
(-1804.033 46150.51 17366.11)
(-737.4249 20526.05 1136.699)
(-819.282 21578.71 3542.451)
(-921.6401 22766.87 6127.618)
(-1053.535 24129.11 8948.92)
(-1228.26 25726.6 11182.86)
(-2011.795 37923.29 15612.03)
(-2451.766 41263.88 15403.94)
(-2872.285 45722.13 16883.87)
(-1519.144 51497.59 18975.61)
(-579.3614 17178.94 1185.059)
(-636.6541 18013.09 3687.9)
(-706.3703 18941.39 6369.815)
(-793.2418 19987.23 9280.422)
(-904.5227 21184.23 11550.81)
(-1441.193 30970.36 16215.75)
(-1711.056 33283.89 16266.4)
(-2059.356 36216.93 17983.57)
(-2356.275 40132.49 20172.49)
(-1227.373 45227.27 33587.47)
(-469.3027 11430.57 1129.484)
(-511.2271 11957.8 3508.002)
(-561.0422 12535.01 6045.188)
(-621.5387 13173.13 8781.334)
(-696.686 13887.76 10887.1)
(-1087.295 20163.92 15208.21)
(-1259.732 21471.23 15155.21)
(-1486.143 23048.18 16582.2)
(-1765.699 25046.89 18305.58)
(-1968.571 27722.41 29896.27)
(-483.2815 15427.7 23812.77)
(-396.9963 6665.967 1050.708)
(-429.4124 6960.622 3257.427)
(-467.1952 7279.288 5601.578)
(-512.0477 7626.768 8116.377)
(-566.4391 8009.506 10031.23)
(-869.747 11573.19 13919.19)
(-988.7857 12245.86 13714.6)
(-1142.559 13030.53 14816.39)
(-1340.822 13977.17 16098.64)
(-1575.638 15179.42 25738.1)
(-825.031 8171.388 19860.24)
(-374.2035 8375.354 24273.5)
(-349.495 3355.148 984.0052)
(-375.8871 3498.184 3046.221)
(-406.1236 3651.567 5229.838)
(-441.3511 3817.162 7563.092)
(-483.1474 3997.449 9325.626)
(-732.468 5755.9 12871.9)
(-819.97 6063.554 12569.38)
(-931.2183 6413.546 13447.02)
(-1074.061 6822.052 14445.95)
(-1255.815 7315.555 22752.33)
(-707.2686 3840.393 17086.18)
(-688.3561 3797.389 20220.54)
(-300.7808 3571.985 23320.66)
(-318.0971 997.5662 933.8165)
(-340.5273 1038.718 2887.663)
(-365.8754 1082.574 4951.66)
(-394.915 1129.57 7150.62)
(-428.7439 1180.275 8801.789)
(-643.399 1694.864 12107.89)
(-711.4518 1779.407 11758.89)
(-796.1595 1873.903 12504.94)
(-903.6901 1981.448 13340.15)
(-1041.324 2107.068 20824.68)
(-588.1367 1090.107 15394.46)
(-630.305 1052.402 17802.27)
(-593.0224 969.7138 20197.94)
(-250.0524 821.7113 22814.94)
(-1130.083 -37243.75 2064.205)
(-2490.231 -29814.44 1731.457)
(-1334.331 -33544.55 5857.116)
(-2309.46 -20445.97 1530.481)
(-2785.033 -22633.22 5008.245)
(-1499.577 -25461.66 9425.514)
(-1983.158 -11561.58 1395.898)
(-2464.415 -12568.61 4482.611)
(-2986.301 -13916.56 8117.502)
(-1611.797 -15653.48 12915.8)
(-1690.57 -3619.744 1295.115)
(-2042.815 -3886.593 4111.659)
(-2541.372 -4225.545 7301.502)
(-3085.024 -4679.27 11138.26)
(-1666.109 -5262.568 15141.14)
(-1440.06 3399.014 1214.371)
(-1689.858 3619.89 3827.296)
(-2041.116 3886.882 6719.132)
(-2538.089 4225.95 10044.08)
(-3078.517 4679.671 13060.66)
(-2279.068 7217.03 19458.82)
(-1219.214 9550.636 1148.706)
(-1398.504 10112.87 3601.603)
(-1639.743 10770.52 6277.972)
(-1978.115 11565.26 9275.895)
(-2454.643 12573.98 11813.75)
(-4070.493 19093.45 16825.07)
(-2194.482 21470.55 17198.64)
(-1019.46 14741 1098.387)
(-1148.731 15543.54 3431.082)
(-1316.487 16460.6 5951.296)
(-1541.548 17533.49 8730.393)
(-1855.515 18829.72 10988.56)
(-3146.189 28076.27 15344.42)
(-3782.885 31083.95 15042.42)
(-2032.481 34958.2 16775.31)
(-836.0854 18489.87 1071.192)
(-929.3095 19434.86 3337.088)
(-1046.196 20498.84 5769.201)
(-1197.473 21716.15 8422.537)
(-1399.417 23141.37 10525.25)
(-2302.742 34093.87 14577.84)
(-2831.345 37077.53 14121.39)
(-3369.99 41059.85 15228.24)
(-1799.815 46200.38 16971.06)
(-670.3212 19582.07 1083.715)
(-736.9787 20532.9 3370.204)
(-818.3193 21593.05 5814.935)
(-920.0566 22789.44 8464.245)
(-1051.169 24160.76 10528.54)
(-1680.427 35331.65 14601.69)
(-2007.655 37980.8 14258.7)
(-2446.456 41339.71 15374.95)
(-2865 45819.45 16849.23)
(-1514.909 51616.79 27507.04)
(-531.2141 16422.44 1132.664)
(-578.9226 17182.85 3518.867)
(-635.7147 18021.23 6065.979)
(-704.8426 18954.14 8815.59)
(-790.9979 20004.97 10936.29)
(-1236.747 29080.13 15282.2)
(-1437.414 31002.63 15229.96)
(-1706.37 33326.46 16673.12)
(-2053.259 36271.31 18429.1)
(-2348.115 40200.37 30176.44)
(-588.8926 23034.51 24316.54)
(-433.3616 10945.15 1081.706)
(-468.9043 11429.13 3355.016)
(-510.3809 11954.77 5772.631)
(-559.6804 12530.17 8369.314)
(-619.5655 13166.21 10350.58)
(-952.2273 19034.94 14410.73)
(-1084.116 20152.01 14294.29)
(-1255.936 21456.31 15542.42)
(-1481.457 23029.52 16998.8)
(-1759.664 25023.33 27389.31)
(-943.1931 13700.53 21554.33)
(-434.4494 14807.84 27346.51)
(-368.7102 6391.696 1007.913)
(-396.6405 6663.724 3121.236)
(-428.6621 6955.924 5360.767)
(-465.9977 7271.882 7755.642)
(-510.3308 7616.345 9567.064)
(-774.0599 10968.08 13241.28)
(-867.0833 11555.29 13002.69)
(-985.7014 12223.33 13984.89)
(-1138.911 13002.64 15104.14)
(-1336.368 13942.94 23935.48)
(-758.1477 7368.759 18233.45)
(-748.0992 7433.73 22084.53)
(-328.6172 7146.006 26097.69)
(-326.1393 3221.031 945.2126)
(-349.1734 3353.715 2923.353)
(-375.2121 3495.19 5013.809)
(-405.0532 3646.864 7241.757)
(-439.8286 3810.574 8915.663)
(-660.1691 5471.918 12281.25)
(-730.1706 5744.699 11961)
(-817.3688 6049.543 12754.11)
(-928.2274 6396.359 13642.44)
(-1070.55 6801.212 21361.89)
(-605.6017 3525.751 15901.94)
(-650.5231 3423.07 18586.81)
(-615.0805 3168.554 21295.53)
(-259.2817 2678.999 24265.46)
(-298.0259 958.7733 898.0176)
(-317.8009 997.1103 2774.7)
(-339.9081 1037.768 4753.874)
(-364.898 1081.085 6857.925)
(-393.5328 1127.49 8430.777)
(-585.7987 1615.422 11578.25)
(-641.3533 1691.355 11220.58)
(-709.169 1775.039 11901.37)
(-793.5833 1868.577 12655.03)
(-900.7381 1975.04 19670.79)
(-502.5372 1013.368 14455.29)
(-544.3221 966.2754 16568.47)
(-573.2251 874.1998 18576.06)
(-521.6412 729.4185 20876.07)
(-210.7195 514.5719 15936.38)
(-920.6058 -32777.61 2200.915)
(-2127.01 -33096.21 1818.98)
(-1129.102 -37252.24 6087.598)
(-2083.597 -26942.98 1564.414)
(-2488.533 -29819.24 5107.245)
(-1332.361 -33552.55 9540.797)
(-1863.765 -18811.62 1407.575)
(-2308.295 -20447.78 4516.956)
(-2781.685 -22636.67 8167.569)
(-1496.601 -25464.82 12937.54)
(-1641.826 -10768.69 1298.77)
(-1982.276 -11562.19 4122.495)
(-2462.163 -12569.8 7318.306)
(-2981.347 -13918.07 11155.67)
(-1607.819 -15653.85 15133.56)
(-1440.06 -3399.014 1214.371)
(-1689.858 -3619.89 3827.296)
(-2041.116 -3886.882 6719.132)
(-2538.089 -4225.95 10044.08)
(-3078.517 -4679.671 13060.66)
(-2279.068 -7217.03 19458.82)
(-1254.645 3210.188 1145.187)
(-1439.46 3399.159 3590.792)
(-1688.486 3620.183 6259.709)
(-2038.648 3887.317 9250.544)
(-2533.821 4226.491 11785.56)
(-4212.482 6418.435 16791)
(-2274.278 7217.16 17184.57)
(-1081.262 9058.376 1087.914)
(-1218.694 9551.211 3398.517)
(-1397.345 10114.06 5895.162)
(-1637.746 10772.34 8649.513)
(-1974.907 11567.72 10890.71)
(-3360.178 17247.88 15198.57)
(-4062.842 19097.12 14876.34)
(-2189.919 21473.64 16618.11)
(-916.51 14027.11 1043.829)
(-1018.997 14742.56 3251.562)
(-1147.72 15546.78 5620.562)
(-1314.79 16465.66 8205.499)
(-1538.939 17540.51 10256.34)
(-2540.033 25834.36 14160.34)
(-3141.151 28088.45 13611.76)
(-3775.615 31099.33 14586.18)
(-2028.178 34975.02 16242.99)
(-759.8148 17640.13 1020.869)
(-835.6614 18493.59 3173.466)
(-928.3948 19442.62 5472.137)
(-1044.691 20511.02 7961.71)
(-1195.221 21733.15 9901.85)
(-1915.34 31763.15 13619.8)
(-2298.841 34124.28 13049.06)
(-2826.372 37117.21 13818.49)
(-3362.986 41110.03 14891.29)
(-1795.714 46259.81 24017.15)
(-614.4408 18721.52 1035.352)
(-669.9158 19588.64 3214.237)
(-736.112 20546.63 5534.812)
(-816.9107 21614.62 8035.803)
(-917.9876 22819.62 9961.788)
(-1438.15 33181.81 13749.55)
(-1677.021 35386.04 13335.74)
(-2003.522 38051.98 14231.67)
(-2441.157 41430.48 15344.26)
(-2857.76 45933.38 24445.77)
(-735.4243 26533.34 18242.24)
(-490.388 15727.56 1084.431)
(-530.8116 16426.2 3364.271)
(-578.0669 17190.69 5790.216)
(-634.3357 18033.51 8398.073)
(-702.8409 18971.21 10391.48)
(-1081.515 27461.81 14470.74)
(-1233.508 29111 14352.1)
(-1433.535 31043.14 15609.21)
(-1701.559 33377.91 17083.88)
(-2047.002 36335.38 27564.53)
(-1130.245 20513.08 21870.66)
(-536.1372 24497.49 28669.2)
(-402.3833 10496.65 1037.431)
(-432.9934 10943.8 3213.956)
(-468.1266 11426.29 5522.857)
(-509.1378 11950.25 7994.55)
(-557.8951 12523.74 9867.486)
(-846.8027 18046.24 13701.84)
(-949.4297 19024.01 13543.63)
(-1080.849 20138.42 14658.01)
(-1252.035 21439.52 15930.68)
(-1476.643 23008.77 25428.52)
(-847.2841 12375.56 19734.84)
(-854.7892 13188.5 24757.08)
(-379.7042 13669.42 30644)
(-344.0099 6137.085 968.0475)
(-368.3795 6389.559 2994.87)
(-395.946 6659.258 5138.374)
(-427.5596 6948.901 7424.49)
(-464.4276 7262.03 9144.085)
(-697.3702 10429.84 12629.71)
(-771.6729 10951.27 12368.56)
(-864.3629 11534.22 13257.84)
(-982.5515 12197.43 14254.96)
(-1135.185 12971.14 22453.11)
(-644.2969 6771.233 16947.48)
(-695.5849 6711.023 20256.18)
(-664.3381 6356.772 23738.24)
(-279.8253 5446.018 27642.57)
(-305.5344 3096.02 908.9187)
(-325.8389 3219.662 2808.785)
(-348.5453 3350.86 4813.123)
(-374.2202 3490.716 6944.629)
(-403.6497 3640.612 8538.837)
(-600.9654 5216.188 11742.38)
(-658.0842 5461.343 11411.52)
(-727.8365 5731.513 12136.01)
(-814.7259 6033.438 12938.43)
(-925.1882 6376.954 20171.32)
(-516.5397 3278.79 14924.67)
(-559.6974 3144.591 17286.01)
(-589.8873 2858.828 19561.67)
(-537.9961 2381.269 22154.84)
(-216.3559 1640.933 17003.79)
(-280.1576 922.4819 864.4047)
(-297.7483 958.3373 2668.941)
(-317.2222 996.2028 4569.295)
(-338.9978 1036.348 6585.799)
(-363.6161 1079.106 8087.453)
(-537.6791 1543.197 11091.15)
(-583.9247 1612.098 10729.29)
(-639.2806 1687.227 11355.98)
(-706.8559 1770.021 12043.49)
(-790.9728 1862.567 18658.91)
(-434.6634 950.0829 13650.78)
(-465.7447 898.6489 15549.74)
(-498.0356 803.0915 17279.51)
(-513.5678 658.1619 19191.64)
(-448.0906 458.2074 14582.18)
(-1539.653 2540.661 50563.94)
(-761.2916 -22979.21 2150.06)
(-1757.07 -29089.7 1965.268)
(-919.6632 -32781.04 6503.451)
(-1807.364 -29912.15 1650.117)
(-2125.354 -33105.56 5371.58)
(-1127.219 -37269.61 9932.989)
(-1690.859 -24793.48 1440.857)
(-2082.435 -26947.76 4619.233)
(-2485.279 -29828.97 8334.401)
(-1329.505 -33564.85 13104.03)
(-1545.639 -17522.98 1310.301)
(-1862.884 -18813.42 4157.615)
(-2306.058 -20451.44 7375.927)
(-2776.835 -22641.9 11226.71)
(-1492.734 -25469.19 15161.42)
(-1399.104 -10112.28 1217.978)
(-1641.115 -10769.3 3838.259)
(-1980.58 -11563.42 6737.225)
(-2458.894 -12571.59 10067.73)
(-2974.909 -13920.1 13081.64)
(-2199.209 -21468.74 19456.91)
(-1254.645 -3210.188 1145.187)
(-1439.46 -3399.159 3590.792)
(-1688.486 -3620.183 6259.709)
(-2038.648 -3887.317 9250.544)
(-2533.821 -4226.491 11785.56)
(-4212.482 -6418.435 16791)
(-2274.278 -7217.16 17184.57)
(-1112.558 3044.706 1084.502)
(-1254.125 3210.328 3387.98)
(-1438.302 3399.447 5877.174)
(-1686.49 3620.621 8623.974)
(-2035.436 3887.896 10860.58)
(-3468.739 5797.135 15155.86)
(-4204.754 6419.197 14831.87)
(-2269.657 7217.593 16589.01)
(-971.9297 8619.649 1033.737)
(-1080.803 9058.932 3220.158)
(-1217.688 9552.36 5566.321)
(-1395.657 10115.84 8126.967)
(-1635.147 10774.77 10160.25)
(-2703.773 15867.95 14014.43)
(-3355.126 17251.86 13438.78)
(-4055.453 19101.87 14378.13)
(-2185.522 21478 16037.42)
(-832.7642 13382.56 994.5755)
(-916.0947 14028.61 3091.351)
(-1018.101 14745.68 5329.54)
(-1146.244 15551.65 7753.595)
(-1312.579 16472.42 9643.858)
(-2106.746 24065.96 13219.56)
(-2536.207 25846.15 12561.75)
(-3136.266 28103.57 13199.8)
(-3768.583 31117.96 14129.23)
(-2024.026 34995.54 22729.47)
(-696.3351 16865.44 974.9914)
(-759.43 17643.7 3025.519)
(-834.8392 18501.03 5206.477)
(-927.0586 19454.27 7555.268)
(-1042.727 20527.27 9363.614)
(-1635.876 29830.68 12815.47)
(-1912.151 31792.02 12191.71)
(-2295.023 34161.75 12769.56)
(-2821.51 37164.54 13514.08)
(-3356.163 41168.65 21089.91)
(-876.936 23491.99 14941.68)
(-567.0833 17930.86 990.8877)
(-614.0695 18727.82 3071.795)
(-669.1276 19601.8 5280.98)
(-734.8429 20567.28 7651.736)
(-815.0693 21643.46 9460.575)
(-1255.933 31340.36 13011.35)
(-1435.242 33233.42 12557.39)
(-1673.621 35453.18 13310.27)
(-1999.397 38136.94 14203.06)
(-2435.871 41536.31 22263.69)
(-1391.113 23652.9 16244.48)
(-695.5691 28965.21 17932.38)
(-455.2174 15085.22 1039.78)
(-490.0165 15731.19 3221.89)
(-530.0262 16433.77 5537.849)
(-576.81 17202.51 8018.933)
(-632.528 18049.94 9901.942)
(-960.9671 26043.07 13751.32)
(-1078.674 27491.37 13589.33)
(-1230.185 29149.61 14708.5)
(-1429.556 31091.92 15992.23)
(-1696.622 33438.29 25548.67)
(-989.8025 18555.31 19970.74)
(-1036.072 21886.3 25823.34)
(-475.0584 26800.16 34426.85)
(-375.3428 10080.08 996.2166)
(-402.0413 10495.37 3083.183)
(-432.2742 10941.13 5292.421)
(-466.9834 11422.05 7650.943)
(-507.5074 11944.24 9427.912)
(-762.5001 17165.87 13063.51)
(-844.301 18036.11 12876.59)
(-946.5565 19011.48 13887.21)
(-1077.495 20123.07 15022.72)
(-1248.031 21420.78 23827.08)
(-712.3751 11383.98 18313.02)
(-776.8097 11928.11 22647.88)
(-755.2476 12205.01 27745.03)
(-318.4905 11476.17 34068.28)
(-322.2246 5899.661 930.7669)
(-343.7013 6135.045 2877.103)
(-367.7336 6385.303 4931.906)
(-394.9251 6652.58 7118.516)
(-426.1136 6939.557 8755.65)
(-634.6313 9944.766 12072.36)
(-695.2066 10413.98 11796.64)
(-769.2357 10931.45 12610.47)
(-861.5856 11509.96 13512.79)
(-979.336 12168.12 21188.25)
(-547.6202 6301.025 15891.98)
(-594.069 6170.863 18813.7)
(-627.3144 5744.335 21757.94)
(-574.5091 4853.93 25141.09)
(-228.558 3224.877 19563.18)
(-287.194 2979.044 874.8482)
(-305.2529 3094.711 2701.55)
(-325.2521 3216.935 4625.892)
(-347.6217 3346.593 6668.474)
(-372.919 3484.766 8190.273)
(-551.5223 4983.592 11247.04)
(-599.0566 5206.166 10910.33)
(-655.9664 5448.876 11577.9)
(-725.4658 5716.336 12310.64)
(-812.0416 6015.233 19128.69)
(-446.3865 3074.922 14089.13)
(-478.0911 2925.601 16215.24)
(-510.7389 2627.662 18182.85)
(-526.0156 2150.32 20342.24)
(-458.1516 1462.548 15525.13)
(-1566.416 7656.555 53898.69)
(-264.1073 888.4097 832.7543)
(-279.8966 922.0642 2569.6)
(-297.2055 957.469 4396.397)
(-316.371 994.8465 6331.726)
(-337.8033 1034.461 7768.143)
(-496.7965 1476.991 10640.36)
(-535.9506 1540.037 10277.53)
(-582.0264 1608.181 10858.31)
(-637.181 1682.478 11491.01)
(-704.5129 1764.353 17756.03)
(-381.6027 896.1368 12946.03)
(-402.8485 842.8115 14678.83)
(-426.9516 747.1667 16210.76)
(-449.71 604.9412 17845.65)
(-452.0082 413.9616 13403.16)
(-3328.993 2273.027 46336.19)
(-1425.938 1702.253 29861.47)
(-656.7201 -14119.47 2054.303)
(-1476.98 -20340.35 1938.643)
(-760.446 -22973.35 6355.548)
(-1526.71 -26277.31 1790.68)
(-1755.429 -29094.48 5813.361)
(-917.8454 -32788.32 10637.82)
(-1479.162 -27527.33 1522.936)
(-1806.18 -29921.2 4877.379)