/*--------------------------------*- C++ -*----------------------------------*\
| =========                 |                                                 |
| \\      /  F ield         | OpenFOAM: The Open Source CFD Toolbox           |
|  \\    /   O peration     | Version:  2306                                  |
|   \\  /    A nd           | Website:  www.openfoam.com                      |
|    \\/     M anipulation  |                                                 |
\*---------------------------------------------------------------------------*/
FoamFile
{
    version     2.0;
    format      ascii;
    arch        "LSB;label=32;scalar=64";
    class       volScalarField;
    location    "0.9/phiEA";
    object      phi;
}
// * * * * * * * * * * * * * * * * * * * * * * * * * * * * * * * * * * * * * //

dimensions      [1 2 -3 0 0 -1 0];

internalField   nonuniform List<scalar> 
20000
(
-0.004727194
-0.004860043
-0.004403058
-0.004722744
-0.005154112
-0.004519824
-0.004855512
-0.004076693
-0.004398987
-0.004714044
-0.00566687
-0.004778843
-0.005149416
-0.004181615
-0.004515689
-0.004846652
-0.003794935
-0.004072946
-0.004391018
-0.004701234
-0.00646721
-0.005231846
-0.005661956
-0.004414645
-0.004774579
-0.005140233
-0.003891134
-0.004177813
-0.004507594
-0.004833606
-0.003555655
-0.003791449
-0.004065605
-0.004379276
-0.004684402
-0.007539876
-0.005941149
-0.006462179
-0.004822881
-0.005227415
-0.005652343
-0.00410496
-0.004410732
-0.004766228
-0.005126709
-0.003645032
-0.003887599
-0.004170363
-0.004495662
-0.004816461
-0.003350094
-0.003552386
-0.003784613
-0.004054779
-0.004363836
-0.004666403
-0.008595424
-0.006894115
-0.007535158
-0.005463169
-0.005936657
-0.006452345
-0.004479958
-0.004818829
-0.005218736
-0.005638184
-0.003843808
-0.004101327
-0.004403064
-0.004753918
-0.005108933
-0.003433853
-0.003641718
-0.003880666
-0.004159374
-0.004479973
-0.004798127
-0.003170839
-0.00334701
-0.003545969
-0.003774524
-0.004040535
-0.00434732
-0.004651018
-0.009456487
-0.007832361
-0.008590878
-0.006324442
-0.006889957
-0.007525962
-0.005068744
-0.005459077
-0.005927862
-0.006437864
-0.004192683
-0.004476201
-0.004810882
-0.005205938
-0.005619569
-0.003620218
-0.003840405
-0.004094199
-0.004391749
-0.004737727
-0.005089921
-0.003249815
-0.003430728
-0.003635213
-0.003870432
-0.004144915
-0.004463188
-0.004782414
-0.003012107
-0.003167918
-0.003340953
-0.003536493
-0.003761244
-0.004025292
-0.004333206
-0.004635428
-0.01005021
-0.008597797
-0.00945199
-0.007172435
-0.007828404
-0.008582036
-0.005861335
-0.00632067
-0.006881837
-0.007512454
-0.00474087
-0.005064957
-0.005451053
-0.005914895
-0.006418831
-0.003947506
-0.004189168
-0.004468828
-0.004799154
-0.0051891
-0.005599656
-0.003425601
-0.003617011
-0.003833723
-0.004083675
-0.004376859
-0.004720403
-0.005073544
-0.003086908
-0.003246856
-0.00342459
-0.003625605
-0.00385696
-0.004129441
-0.004448807
-0.00476645
-0.002869735
-0.003009331
-0.003162177
-0.003332005
-0.003524014
-0.003747027
-0.004012269
-0.004318906
-0.004619633
-0.01035095
-0.009125591
-0.01004572
-0.00786404
-0.008593914
-0.00944325
-0.006641734
-0.007168859
-0.007820687
-0.008569071
-0.005479206
-0.005857854
-0.006313294
-0.006869892
-0.007494735
-0.004462072
-0.004737332
-0.005057528
-0.005439213
-0.005897837
-0.00639847
-0.003734457
-0.003944197
-0.004182264
-0.004457939
-0.004783716
-0.005171081
-0.005582406
-0.003253452
-0.003422566
-0.00361071
-0.003823851
-0.004069819
-0.004360921
-0.004705482
-0.005056824
-0.00294083
-0.003084097
-0.003241039
-0.00341552
-0.003612951
-0.003842537
-0.004116186
-0.004434199
-0.004750237
-0.002740641
-0.00286709
-0.003003872
-0.003153691
-0.003320215
-0.003510651
-0.003734883
-0.003999079
-0.004304423
-0.004603634
-0.01035095
-0.009392945
-0.01034646
-0.008340776
-0.009121731
-0.01003699
-0.007278105
-0.007860542
-0.008586349
-0.009430446
-0.00620623
-0.006638441
-0.007161877
-0.007809353
-0.008552084
-0.005155414
-0.005475959
-0.005851039
-0.006302431
-0.006854208
-0.007475809
-0.004220266
-0.004458744
-0.004730385
-0.005046557
-0.005423629
-0.005879582
-0.00638086
-0.003546182
-0.003731326
-0.003937692
-0.004172062
-0.004443597
-0.004767188
-0.005155471
-0.0055647
-0.00309916
-0.003250569
-0.003416598
-0.003601397
-0.003810848
-0.004054981
-0.004347199
-0.004690253
-0.005039762
-0.0028084
-0.002938151
-0.003078567
-0.00323244
-0.003403569
-0.0035994
-0.003830185
-0.004102727
-0.004419367
-0.004733775
-0.002622555
-0.002738115
-0.002861886
-0.002995799
-0.003142507
-0.003307586
-0.003499238
-0.003722587
-0.003985723
-0.004289755
-0.004433512
-0.01005021
-0.009392945
-0.01034646
-0.008582213
-0.00938909
-0.01033772
-0.007716684
-0.008337304
-0.009114211
-0.0100242
-0.006799032
-0.007274888
-0.007853716
-0.008575245
-0.009413679
-0.005838181
-0.006203162
-0.006632002
-0.007151608
-0.007794488
-0.008533956
-0.004875076
-0.005152362
-0.005469595
-0.005840994
-0.006288157
-0.006837446
-0.007459887
-0.0040068
-0.004217121
-0.004452205
-0.004720119
-0.005032108
-0.005406943
-0.005863786
-0.00636281
-0.003377544
-0.00354321
-0.003725169
-0.003928074
-0.004158619
-0.004428237
-0.004752874
-0.005139447
-0.005546535
-0.002959333
-0.003096414
-0.003244897
-0.003407772
-0.003589123
-0.003796919
-0.00404221
-0.004333197
-0.004674714
-0.005022359
-0.002687281
-0.002805842
-0.00293288
-0.003070388
-0.003221106
-0.003390766
-0.003587797
-0.003817645
-0.004089065
-0.004404309
-0.004558318
-0.002513752
-0.002620138
-0.002733143
-0.002854187
-0.002985156
-0.003130523
-0.003296801
-0.003487683
-0.003710137
-0.003972201
-0.00413382
-0.004089981
-0.009456487
-0.009125591
-0.01004572
-0.008582213
-0.00938909
-0.01033772
-0.007938767
-0.008578749
-0.009381581
-0.01032493
-0.007207543
-0.007713494
-0.00833053
-0.009103176
-0.01000747
-0.006394883
-0.006796037
-0.007268602
-0.007843683
-0.008560688
-0.009395791
-0.005519946
-0.005835301
-0.006197157
-0.006622525
-0.007138129
-0.007778615
-0.008518992
-0.004627824
-0.004872195
-0.005146378
-0.005460209
-0.005827787
-0.006272896
-0.006823336
-0.007444008
-0.003815725
-0.004003816
-0.004210936
-0.004442538
-0.004706593
-0.005016633
-0.005392507
-0.005847587
-0.006344316
-0.003224785
-0.003374714
-0.003537362
-0.003716061
-0.003915396
-0.004144216
-0.004414938
-0.004738184
-0.005123009
-0.005527913
-0.002831486
-0.002956711
-0.003091009
-0.003236506
-0.003396137
-0.003575972
-0.003784932
-0.004029181
-0.004318914
-0.004658866
-0.004836038
-0.002575699
-0.002684834
-0.002800807
-0.002925081
-0.003059604
-0.00320896
-0.003379805
-0.003576019
-0.003804919
-0.004075199
-0.004243855
-0.00420015
-0.002412908
-0.002511436
-0.00261538
-0.002725784
-0.002844032
-0.002973749
-0.00312029
-0.003285884
-0.003475986
-0.003697535
-0.00382848
-0.003819206
-0.003729256
-0.008595424
-0.008597797
-0.00945199
-0.008340776
-0.009121731
-0.01003699
-0.007938767
-0.008578749
-0.009381581
-0.01032493
-0.007414386
-0.007935585
-0.00857199
-0.009370563
-0.01030818
-0.006778498
-0.007204575
-0.007707261
-0.008320577
-0.009088713
-0.009989612
-0.006045744
-0.006392073
-0.00679018
-0.007259354
-0.007830519
-0.00854515
-0.009381147
-0.005239461
-0.005517228
-0.00582966
-0.006188311
-0.006610076
-0.007123729
-0.007765506
-0.008504356
-0.004406632
-0.004625092
-0.004866539
-0.005137547
-0.005447861
-0.00581366
-0.006260048
-0.006809252
-0.007428172
-0.003642723
-0.003812885
-0.003997945
-0.004201787
-0.004429794
-0.004692102
-0.005003246
-0.005377706
-0.005830982
-0.006325372
-0.003085166
-0.003222084
-0.003369144
-0.003528707
-0.003704051
-0.00390181
-0.004131748
-0.004401293
-0.004723118
-0.005106155
-0.005327539
-0.002713734
-0.002828979
-0.00295155
-0.00308301
-0.00322544
-0.003383668
-0.003564656
-0.003772705
-0.004015894
-0.004304352
-0.004489225
-0.004447491
-0.002472291
-0.002573355
-0.002680016
-0.002793354
-0.002914794
-0.003048045
-0.003198563
-0.003368681
-0.003564068
-0.003792006
-0.003927481
-0.003916577
-0.003820488
-0.002318984
-0.002410687
-0.002506875
-0.002608334
-0.002716076
-0.002833146
-0.002964009
-0.003109932
-0.003274833
-0.003464148
-0.003563622
-0.003538819
-0.003489027
-0.003354318
-0.007539876
-0.007832361
-0.008590878
-0.00786404
-0.008593914
-0.00944325
-0.007716684
-0.008337304
-0.009114211
-0.0100242
-0.007414386
-0.007935585
-0.00857199
-0.009370563
-0.01030818
-0.006972727
-0.007411426
-0.007929369
-0.008562059
-0.009356122
-0.01029032
-0.006408056
-0.006775714
-0.00719877
-0.007698094
-0.008307518
-0.009073275
-0.009975038
-0.005738166
-0.006043094
-0.006386573
-0.006781555
-0.007247212
-0.007816459
-0.008532424
-0.009366946
-0.004988642
-0.005236885
-0.0055119
-0.005821344
-0.006176685
-0.00659677
-0.007111836
-0.007752676
-0.008490049
-0.004206438
-0.004404033
-0.004619727
-0.004858189
-0.005125924
-0.005434648
-0.005801767
-0.006247223
-0.006795196
-0.007412382
-0.003484661
-0.003640014
-0.003807296
-0.003989257
-0.004189723
-0.004416136
-0.004679567
-0.004989522
-0.005362535
-0.005813966
-0.006121679
-0.002956612
-0.003082584
-0.003216766
-0.003360896
-0.00351729
-0.003691177
-0.003890049
-0.004118958
-0.004387301
-0.004707675
-0.004924804
-0.004898096
-0.002604631
-0.002711333
-0.002824041
-0.002943908
-0.003072458
-0.003213578
-0.003372938
-0.003553115
-0.003760238
-0.00400235
-0.004148512
-0.004135655
-0.004026921
-0.002375988
-0.002470042
-0.002568736
-0.002672881
-0.00278352
-0.002903765
-0.003038151
-0.003188011
-0.003357393
-0.003551943
-0.003654465
-0.00362652
-0.003569837
-0.003422794
-0.002231139
-0.002316849
-0.002406308
-0.002500118
-0.002599035
-0.002705666
-0.002823852
-0.00295415
-0.003099449
-0.00326365
-0.003338366
-0.003293952
-0.003235071
-0.003145941
-0.002968758
-0.00646721
-0.006894115
-0.007535158
-0.007172435
-0.007828404
-0.008582036
-0.007278105
-0.007860542
-0.008586349
-0.009430446
-0.007207543
-0.007713494
-0.00833053
-0.009103176
-0.01000747
-0.006972727
-0.007411426
-0.007929369
-0.008562059
-0.009356122
-0.01029032
-0.006591495
-0.006969951
-0.007405638
-0.007920227
-0.008549032
-0.00934071
-0.01027575
-0.006081804
-0.00640543
-0.006770266
-0.007190225
-0.007686059
-0.008293574
-0.009060671
-0.009960948
-0.005463196
-0.005735655
-0.006037902
-0.00637847
-0.006770225
-0.007234238
-0.007804945
-0.008520079
-0.009353188
-0.004761698
-0.004986194
-0.005231833
-0.005504041
-0.005810408
-0.006164254
-0.006585779
-0.007100194
-0.007740126
-0.008476071
-0.004023591
-0.004203961
-0.004398928
-0.004611801
-0.004847193
-0.005113482
-0.005423524
-0.005789895
-0.006234423
-0.00678117
-0.007247081
-0.003339172
-0.003482072
-0.003634679
-0.00379902
-0.003977795
-0.00417679
-0.004404323
-0.004666718
-0.004975457
-0.00534699
-0.005630936
-0.005681478
-0.002837531
-0.002954139
-0.003077497
-0.00320889
-0.003350014
-0.003505049
-0.003680033
-0.003877986
-0.004105844
-0.004372961
-0.004541544
-0.004536055
-0.004415988
-0.002503043
-0.002602327
-0.0027066
-0.002816726
-0.002933823
-0.003061143
-0.003203371
-0.003361996
-0.003541348
-0.003747532
-0.003857435
-0.003824075
-0.003753074
-0.003577568
-0.002285926
-0.002373827
-0.002465609
-0.002561895
-0.002663463
-0.002772975
-0.002894325
-0.00302811
-0.003177306
-0.003345943
-0.003422813
-0.003374475
-0.003307921
-0.003206726
-0.003011639
-0.002148683
-0.002229086
-0.002312642
-0.002399821
-0.0024912
-0.002589063
-0.002696778
-0.002814445
-0.002944173
-0.00308884
-0.003144841
-0.003085218
-0.00301134
-0.002919617
-0.002793158
-0.002713867
-0.00566687
-0.005941149
-0.006462179
-0.006324442
-0.006889957
-0.007525962
-0.006641734
-0.007168859
-0.007820687
-0.008569071
-0.006799032
-0.007274888
-0.007853716
-0.008575245
-0.009413679
-0.006778498
-0.007204575
-0.007707261
-0.008320577
-0.009088713
-0.009989612
-0.006591495
-0.006969951
-0.007405638
-0.007920227
-0.008549032
-0.00934071
-0.01027575
-0.006255787
-0.006588877
-0.00696452
-0.007397118
-0.007908225
-0.008535121
-0.009328137
-0.01026168
-0.005790191
-0.006079317
-0.006400287
-0.006762239
-0.007179
-0.007673201
-0.008282188
-0.009048482
-0.009947341
-0.005214446
-0.00546081
-0.005730734
-0.006030247
-0.006367818
-0.006758112
-0.007223611
-0.007793773
-0.008508114
-0.009339874
-0.004554462
-0.004759365
-0.004981389
-0.005224378
-0.005493702
-0.005798711
-0.006153985
-0.006575021
-0.007088805
-0.007727857
-0.008332791
-0.003855329
-0.004021224
-0.004199092
-0.004391382
-0.004601359
-0.004835419
-0.005103008
-0.005412422
-0.005778047
-0.006221649
-0.006634228
-0.006939554
-0.00320444
-0.003336693
-0.003476972
-0.003626779
-0.0037881
-0.003965505
-0.004165605
-0.004392216
-0.004653552
-0.004961049
-0.005179809
-0.005234697
-0.005166039
-0.002726678
-0.002835159
-0.002949265
-0.003069961
-0.003198493
-0.003338342
-0.003494454
-0.003668604
-0.003865619
-0.004092407
-0.004218734
-0.004185772
-0.004099568
-0.003876629
-0.002408054
-0.00250083
-0.002597786
-0.002699588
-0.00280707
-0.002923007
-0.003051408
-0.003192964
-0.003350842
-0.003529356
-0.003611598
-0.003556001
-0.003473306
-0.00334438
-0.003105502
-0.002201397
-0.002283848
-0.002369568
-0.00245904
-0.002552863
-0.002653363
-0.002763949
-0.002884746
-0.003017924
-0.003166447
-0.003224015
-0.003160105
-0.003078264
-0.002974464
-0.002831342
-0.002739273
-0.002071049
-0.002146708
-0.002225038
-0.002306405
-0.002391255
-0.002481633
-0.00258055
-0.002687784
-0.002804925
-0.002934078
-0.002976146
-0.002905831
-0.002820041
-0.002717968
-0.002595349
-0.002559901
-0.002572358
-0.005154112
-0.005231846
-0.005661956
-0.005463169
-0.005936657
-0.006452345
-0.005861335
-0.00632067
-0.006881837
-0.007512454
-0.00620623
-0.006638441
-0.007161877
-0.007809353
-0.008552084
-0.006394883
-0.006796037
-0.007268602
-0.007843683
-0.008560688
-0.009395791
-0.006408056
-0.006775714
-0.00719877
-0.007698094
-0.008307518
-0.009073275
-0.009975038
-0.006255787
-0.006588877
-0.00696452
-0.007397118
-0.007908225
-0.008535121
-0.009328137
-0.01026168
-0.005955747
-0.006253308
-0.006583751
-0.006956518
-0.007385926
-0.007895402
-0.008523772
-0.00931599
-0.0102481
-0.005526416
-0.005787828
-0.006074444
-0.006392707
-0.00675169
-0.007167002
-0.007662702
-0.008271176
-0.009036707
-0.009934219
-0.004987331
-0.005212172
-0.00545613
-0.005723473
-0.006020179
-0.006356427
-0.006748192
-0.007213301
-0.007782945
-0.00849653
-0.009204747
-0.004363792
-0.004552234
-0.004754783
-0.004974293
-0.005214564
-0.005482639
-0.005789049
-0.006143934
-0.006564497
-0.00707767
-0.007602011
-0.008095245
-0.003699543
-0.003853064
-0.00401657
-0.00419189
-0.004381439
-0.004590177
-0.004825507
-0.005092553
-0.005401341
-0.005766224
-0.006087821
-0.006359913
-0.006649335
-0.003079047
-0.003202063
-0.003331807
-0.003469414
-0.00361635
-0.003776387
-0.003954876
-0.004154141
-0.004379809
-0.004640065
-0.0048061
-0.004818084
-0.004770157
-0.004533916
-0.002623049
-0.002724401
-0.002830483
-0.002942042
-0.003060009
-0.00318734
-0.003328241
-0.003483588
-0.003656888
-0.003852948
-0.003947898
-0.003888713
-0.003786615
-0.00361122
-0.003280379
-0.002318914
-0.002405927
-0.002496467
-0.002591054
-0.002690329
-0.002796713
-0.002913702
-0.003041482
-0.003182354
-0.003339475
-0.003401085
-0.003329018
-0.003230312
-0.003098811
-0.002915037
-0.002790432
-0.002121815
-0.002199397
-0.002279751
-0.002363254
-0.002450367
-0.002543174
-0.002644718
-0.002754791
-0.002875029
-0.003007593
-0.003050824
-0.002976066
-0.002882305
-0.00276838
-0.002629846
-0.002582632
-0.00258938
-0.001997765
-0.002069145
-0.00214281
-0.002219037
-0.002298169
-0.002382065
-0.002473466
-0.002571934
-0.002678681
-0.002795293
-0.002826839
-0.002749511
-0.002655547
-0.002544859
-0.002416485
-0.002380967
-0.002429764
-0.002415252
-0.004860043
-0.004778843
-0.005149416
-0.004822881
-0.005227415
-0.005652343
-0.005068744
-0.005459077
-0.005927862
-0.006437864
-0.005479206
-0.005857854
-0.006313294
-0.006869892
-0.007494735
-0.005838181
-0.006203162
-0.006632002
-0.007151608
-0.007794488
-0.008533956
-0.006045744
-0.006392073
-0.00679018
-0.007259354
-0.007830519
-0.00854515
-0.009381147
-0.006081804
-0.00640543
-0.006770266
-0.007190225
-0.007686059
-0.008293574
-0.009060671
-0.009960948
-0.005955747
-0.006253308
-0.006583751
-0.006956518
-0.007385926
-0.007895402
-0.008523772
-0.00931599
-0.0102481
-0.005684364
-0.005953392
-0.00624845
-0.006576194
-0.006946001
-0.007373964
-0.007884942
-0.008512808
-0.009304269
-0.01023503
-0.005285603
-0.005524165
-0.005783194
-0.006067255
-0.006382738
-0.006740409
-0.007157205
-0.007652548
-0.008260539
-0.009025349
-0.009801517
-0.004778395
-0.00498516
-0.005207711
-0.005449222
-0.005713921
-0.00600941
-0.006347097
-0.006738567
-0.007203308
-0.007772461
-0.00837891
-0.008992713
-0.004187286
-0.00436166
-0.004547855
-0.004748014
-0.004964951
-0.005204061
-0.0054735
-0.005779591
-0.006134101
-0.006554207
-0.006963445
-0.007392697
-0.007900139
-0.003554585
-0.003697372
-0.003848608
-0.004009684
-0.004182398
-0.004370786
-0.004580762
-0.004815614
-0.005082119
-0.005390283
-0.005642351
-0.00583793
-0.006100295
-0.006397194
-0.002961851
-0.003076766
-0.003197377
-0.003324567
-0.003459436
-0.003605163
-0.003766259
-0.003943983
-0.004142395
-0.004367101
-0.004495037
-0.004471038
-0.004394243
-0.004200059
-0.003709368
-0.00252582
-0.00262086
-0.002719909
-0.002823551
-0.002932502
-0.003049333
-0.003177689
-0.003317882
-0.00347245
-0.003644884
-0.003716695
-0.003638847
-0.003518679
-0.003340296
-0.003071362
-0.002866605
-0.002235003
-0.002316867
-0.00240173
-0.002489997
-0.002582164
-0.002680396
-0.002787803
-0.002904214
-0.003031363
-0.003171543
-0.003217896
-0.003134547
-0.003023839
-0.002882753
-0.002705526
-0.002628431
-0.002621621
-0.002046698
-0.002119888
-0.002195452
-0.002273675
-0.002354915
-0.002441061
-0.002534882
-0.002635947
-0.002745501
-0.002865173
-0.002897589
-0.002815775
-0.002713959
-0.002591777
-0.002448215
-0.00240154
-0.002445018
-0.002425712
-0.001928429
-0.00199593
-0.002065389
-0.00213703
-0.00221111
-0.002289331
-0.00237422
-0.0024652
-0.002563216
-0.002669472
-0.002692981
-0.002611229
-0.002512244
-0.002395883
-0.002262132
-0.002217195
-0.002261297
-0.002284631
-0.002248992
-0.004727194
-0.004519824
-0.004855512
-0.004414645
-0.004774579
-0.005140233
-0.004479958
-0.004818829
-0.005218736
-0.005638184
-0.00474087
-0.005064957
-0.005451053
-0.005914895
-0.006418831
-0.005155414
-0.005475959
-0.005851039
-0.006302431
-0.006854208
-0.007475809
-0.005519946
-0.005835301
-0.006197157
-0.006622525
-0.007138129
-0.007778615
-0.008518992
-0.005738166
-0.006043094
-0.006386573
-0.006781555
-0.007247212
-0.007816459
-0.008532424
-0.009366946
-0.005790191
-0.006079317
-0.006400287
-0.006762239
-0.007179
-0.007673201
-0.008282188
-0.009048482
-0.009947341
-0.005684364
-0.005953392
-0.00624845
-0.006576194
-0.006946001
-0.007373964
-0.007884942
-0.008512808
-0.009304269
-0.01023503
-0.005436616
-0.00568212
-0.005948773
-0.006241285
-0.006566258
-0.006934756
-0.007364205
-0.007874835
-0.008502227
-0.009292974
-0.0101029
-0.005064082
-0.005283454
-0.005519747
-0.005776356
-0.006057798
-0.006372075
-0.006731198
-0.007147729
-0.007642739
-0.008250277
-0.008910449
-0.009597438
-0.004584999
-0.004776318
-0.004980897
-0.005201122
-0.00544013
-0.005703698
-0.006000589
-0.006338045
-0.006729237
-0.007193632
-0.007666001
-0.008193948
-0.008828797
-0.004023069
-0.004185243
-0.004357469
-0.004541384
-0.004739097
-0.004954948
-0.005195385
-0.005464555
-0.005770339
-0.006124487
-0.006448643
-0.006773365
-0.007220295
-0.007757664
-0.003419126
-0.003552501
-0.003693099
-0.003842012
-0.004000604
-0.004172226
-0.004361817
-0.004571365
-0.00480574
-0.005071707
-0.005274435
-0.005411073
-0.005601392
-0.005874219
-0.006226339
-0.002851915
-0.002959658
-0.003072265
-0.003190429
-0.003315003
-0.003448729
-0.003595488
-0.003755878
-0.003932821
-0.004130364
-0.004230463
-0.004181557
-0.00407865
-0.003874382
-0.003456295
-0.002956524
-0.002434309
-0.002523714
-0.002616541
-0.002713248
-0.002814393
-0.002922265
-0.003040093
-0.003167791
-0.003307264
-0.003461039
-0.003515818
-0.003425411
-0.003292477
-0.003105122
-0.002847103
-0.002696694
-0.002663587
-0.002155809
-0.002233031
-0.002312826
-0.002395506
-0.002481451
-0.002572625
-0.00267185
-0.002778718
-0.002894544
-0.003021054
-0.003055917
-0.002965345
-0.002846789
-0.002698276
-0.002517864
-0.002443014
-0.00247392
-0.002444561
-0.001975632
-0.002044841
-0.002116087
-0.002189601
-0.00226565
-0.002345965
-0.002433096
-0.002526468
-0.00262705
-0.002736079
-0.002760241
-0.002674022
-0.002567366
-0.00243991
-0.002291677
-0.002236138
-0.002275111
-0.002294011
-0.002254973
-0.001862696
-0.001926658
-0.001992307
-0.002059818
-0.002129393
-0.002202602
-0.002281787
-0.00236628
-0.002456837
-0.002554395
-0.002571653
-0.002487318
-0.00238555
-0.002266131
-0.002129143
-0.002075264
-0.002106055
-0.002127682
-0.00213038
-0.002077937
-0.004403058
-0.004722744
-0.004181615
-0.004515689
-0.004846652
-0.00410496
-0.004410732
-0.004766228
-0.005126709
-0.004192683
-0.004476201
-0.004810882
-0.005205938
-0.005619569
-0.004462072
-0.004737332
-0.005057528
-0.005439213
-0.005897837
-0.00639847
-0.004875076
-0.005152362
-0.005469595
-0.005840994
-0.006288157
-0.006837446
-0.007459887
-0.005239461
-0.005517228
-0.00582966
-0.006188311
-0.006610076
-0.007123729
-0.007765506
-0.008504356
-0.005463196
-0.005735655
-0.006037902
-0.00637847
-0.006770225
-0.007234238
-0.007804945
-0.008520079
-0.009353188
-0.005526416
-0.005787828
-0.006074444
-0.006392707
-0.00675169
-0.007167002
-0.007662702
-0.008271176
-0.009036707
-0.009934219
-0.005436616
-0.00568212
-0.005948773
-0.006241285
-0.006566258
-0.006934756
-0.007364205
-0.007874835
-0.008502227
-0.009292974
-0.0101029
-0.005208723
-0.005434474
-0.005677717
-0.005941957
-0.006231859
-0.006555629
-0.006925582
-0.007354776
-0.007865082
-0.008492031
-0.009178843
-0.009900933
-0.004859049
-0.005062026
-0.005279234
-0.005513225
-0.005767355
-0.006047679
-0.006363369
-0.00672229
-0.007138576
-0.007633276
-0.008146464
-0.008733491
-0.009442938
-0.004405084
-0.004583009
-0.004772238
-0.004974599
-0.005192446
-0.005430397
-0.005695326
-0.00599203
-0.00632927
-0.006720203
-0.007095374
-0.007498527
-0.008050694
-0.008716448
-0.003869633
-0.004021109
-0.004181225
-0.004351272
-0.004532858
-0.004729549
-0.004946686
-0.005186891
-0.005455803
-0.005761292
-0.006025853
-0.006272952
-0.006616739
-0.007094107
-0.00768052
-0.003292078
-0.003417124
-0.003548398
-0.003686772
-0.003833312
-0.003990872
-0.004163662
-0.004352866
-0.004561987
-0.004795887
-0.004962623
-0.005058158
-0.005192181
-0.0053954
-0.005720755
-0.002748461
-0.002849805
-0.002955331
-0.003065591
-0.003181251
-0.00330474
-0.00343947
-0.003585572
-0.003745242
-0.00392139
-0.004001009
-0.003935202
-0.003814586
-0.00359761
-0.003196533
-0.002777385
-0.002700768
-0.002347956
-0.00243228
-0.002519556
-0.002610133
-0.002704446
-0.002804564
-0.002913406
-0.003030618
-0.003157646
-0.003296386
-0.003338352
-0.003239977
-0.003099053
-0.002905498
-0.002648289
-0.002504884
-0.002511562
-0.002466874
-0.002080893
-0.002153907
-0.002229137
-0.002306833
-0.002387282
-0.002472279
-0.002564418
-0.002663137
-0.002769458
-0.00288469
-0.002910793
-0.002815794
-0.002692754
-0.002539884
-0.002356556
-0.002274338
-0.002301292
-0.002310919
-0.002265375
-0.001908263
-0.00197384
-0.002041175
-0.002110447
-0.00218187
-0.002257035
-0.002338306
-0.002425015
-0.002517934
-0.002618026
-0.00263577
-0.002547024
-0.002437793
-0.002307688
-0.002156878
-0.002092914
-0.002118777
-0.002136177
-0.002135739
-0.002081005
-0.00180026
-0.001860987
-0.001923162
-0.001986933
-0.002052455
-0.002121196
-0.00219534
-0.002274152
-0.002358247
-0.002448375
-0.002460705
-0.002375055
-0.002272084
-0.00215149
-0.002013346
-0.00195286
-0.001971171
-0.001981989
-0.001985459
-0.001971033
-0.001904884
-0.004076693
-0.004398987
-0.004714044
-0.003891134
-0.004177813
-0.004507594
-0.004833606
-0.003843808
-0.004101327
-0.004403064
-0.004753918
-0.005108933
-0.003947506
-0.004189168
-0.004468828
-0.004799154
-0.0051891
-0.005599656
-0.004220266
-0.004458744
-0.004730385
-0.005046557
-0.005423629
-0.005879582
-0.00638086
-0.004627824
-0.004872195
-0.005146378
-0.005460209
-0.005827787
-0.006272896
-0.006823336
-0.007444008
-0.004988642
-0.005236885
-0.0055119
-0.005821344
-0.006176685
-0.00659677
-0.007111836
-0.007752676
-0.008490049
-0.005214446
-0.00546081
-0.005730734
-0.006030247
-0.006367818
-0.006758112
-0.007223611
-0.007793773
-0.008508114
-0.009339874
-0.005285603
-0.005524165
-0.005783194
-0.006067255
-0.006382738
-0.006740409
-0.007157205
-0.007652548
-0.008260539
-0.009025349
-0.009801517
-0.005208723
-0.005434474
-0.005677717
-0.005941957
-0.006231859
-0.006555629
-0.006925582
-0.007354776
-0.007865082
-0.008492031
-0.009178843
-0.009900933
-0.004997799
-0.005206674
-0.005430268
-0.005671217
-0.005932986
-0.006221773
-0.006546958
-0.006916719
-0.007345677
-0.007855683
-0.008389
-0.009004181
-0.009748961
-0.004668319
-0.004857079
-0.005057987
-0.005273
-0.005504638
-0.005757722
-0.006039415
-0.006354948
-0.006713684
-0.007129745
-0.007537542
-0.007986545
-0.008599362
-0.009339086
-0.004236994
-0.004403175
-0.004579098
-0.004766208
-0.004966304
-0.005183157
-0.005422426
-0.005687202
-0.005983734
-0.006320774
-0.006628466
-0.00694078
-0.007368775
-0.007952364
-0.008659104
-0.003725741
-0.003867749
-0.004017252
-0.004175281
-0.004343104
-0.004523724
-0.004721662
-0.004938598
-0.005178582
-0.005447246
-0.005668477
-0.005861683
-0.006128167
-0.006502059
-0.007025665
-0.003172539
-0.003290153
-0.003413179
-0.003542321
-0.003678424
-0.003823985
-0.003982678
-0.004155114
-0.004343932
-0.004552628
-0.004692661
-0.004758987
-0.004853488
-0.005001584
-0.005255569
-0.002650854
-0.00274643
-0.002845641
-0.002948912
-0.003056771
-0.003171399
-0.003295865
-0.003429981
-0.003575414
-0.003734349
-0.003798484
-0.00372154
-0.003589649
-0.003364866
-0.002970662
-0.002578098
-0.002544935
-0.002483752
-0.002266279
-0.002346
-0.002428274
-0.002513386
-0.002601664
-0.002694997
-0.002796058
-0.002904321
-0.003020907
-0.003147253
-0.003179437
-0.0030762
-0.002930992
-0.002734522
-0.002478131
-0.002331355
-0.00233541
-0.002330941
-0.002276954
-0.002009882
-0.002079059
-0.002150153
-0.002223361
-0.002298912
-0.002378454
-0.002464389
-0.002556051
-0.002654257
-0.002760024
-0.002779314
-0.002681856
-0.002556664
-0.002402078
-0.0022178
-0.002128518
-0.002142895
-0.002151492
-0.002145062
-0.002086214
-0.001844275
-0.001906533
-0.001970302
-0.002035735
-0.002102994
-0.00217357
-0.002249663
-0.002330536
-0.002416818
-0.002509279
-0.002521963
-0.002431979
-0.002321767
-0.002190883
-0.002039532
-0.001969438
-0.001983028
-0.001989813
-0.001990308
-0.001973766
-0.001905969
-0.001740859
-0.001798609
-0.001857611
-0.001917974
-0.001979829
-0.00204455
-0.002114199
-0.00218799
-0.002266427
-0.002350119
-0.002358505
-0.002272434
-0.002169334
-0.002048884
-0.001911108
-0.001846297
-0.001854763
-0.001855037
-0.001849912
-0.001838293
-0.001809212
-0.001731701
-0.003794935
-0.004072946
-0.004391018
-0.004701234
-0.003645032
-0.003887599
-0.004170363
-0.004495662
-0.004816461
-0.003620218
-0.003840405
-0.004094199
-0.004391749
-0.004737727
-0.005089921
-0.003734457
-0.003944197
-0.004182264
-0.004457939
-0.004783716
-0.005171081
-0.005582406
-0.0040068
-0.004217121
-0.004452205
-0.004720119
-0.005032108
-0.005406943
-0.005863786
-0.00636281
-0.004406632
-0.004625092
-0.004866539
-0.005137547
-0.005447861
-0.00581366
-0.006260048
-0.006809252
-0.007428172
-0.004761698
-0.004986194
-0.005231833
-0.005504041
-0.005810408
-0.006164254
-0.006585779
-0.007100194
-0.007740126
-0.008476071
-0.004987331
-0.005212172
-0.00545613
-0.005723473
-0.006020179
-0.006356427
-0.006748192
-0.007213301
-0.007782945
-0.00849653
-0.009204747
-0.005064082
-0.005283454
-0.005519747
-0.005776356
-0.006057798
-0.006372075
-0.006731198
-0.007147729
-0.007642739
-0.008250277
-0.008910449
-0.009597438
-0.004997799
-0.005206674
-0.005430268
-0.005671217
-0.005932986
-0.006221773
-0.006546958
-0.006916719
-0.007345677
-0.007855683
-0.008389
-0.009004181
-0.009748961
-0.004801593
-0.004995836
-0.005202649
-0.005424055
-0.005662658
-0.005923385
-0.006213544
-0.00653858
-0.006908165
-0.007336908
-0.007760709
-0.008231298
-0.00887263
-0.009647354
-0.004490132
-0.004666429
-0.004853208
-0.005052019
-0.00526479
-0.005495444
-0.005749855
-0.006031424
-0.006346813
-0.006705381
-0.007040409
-0.007390053
-0.007865307
-0.008509122
-0.009286862
-0.004079371
-0.00423516
-0.004399421
-0.004573315
-0.004758262
-0.00495742
-0.005175548
-0.005414691
-0.005679328
-0.005975701
-0.006234494
-0.006484119
-0.006820992
-0.007279689
-0.007902127
-0.003590366
-0.00372393
-0.003864042
-0.004011544
-0.004167446
-0.004334353
-0.00451618
-0.00471394
-0.004930685
-0.005170458
-0.005359458
-0.005513983
-0.005726385
-0.006022149
-0.006439844
-0.00305977
-0.003170685
-0.003286357
-0.003407336
-0.003534301
-0.003669473
-0.003816133
-0.0039745
-0.004146584
-0.004335017
-0.004454584
-0.004499968
-0.004566292
-0.004675296
-0.004872224
-0.002558546
-0.002648896
-0.002742418
-0.002839461
-0.002940428
-0.003047302
-0.00316288
-0.003286769
-0.00342026
-0.00356501
-0.003617235
-0.003532989
-0.003394534
-0.003166281
-0.002778921
-0.002398875
-0.002365679
-0.002346092
-0.00228499
-0.002188869
-0.002264393
-0.002342138
-0.002422329
-0.002505231
-0.002592572
-0.002686821
-0.002787336
-0.00289501
-0.003010959
-0.003035521
-0.002929589
-0.002782601
-0.002585927
-0.002332015
-0.002181679
-0.002174336
-0.002169635
-0.002155444
-0.002091793
-0.001942442
-0.002008111
-0.002075436
-0.002144582
-0.002215725
-0.002290408
-0.00237086
-0.002456345
-0.002547524
-0.00264521
-0.002659131
-0.002560554
-0.002434834
-0.002280381
-0.002097063
-0.002002884
-0.00200551
-0.00200392
-0.001998745
-0.001978406
-0.001907761
-0.001783401
-0.001842605
-0.001903116
-0.001965051
-0.002028544
-0.002094991
-0.002166468
-0.002242184
-0.002322655
-0.002408506
-0.002417142
-0.002326827
-0.002216709
-0.002086351
-0.001935937
-0.001861956
-0.0018659
-0.001862329
-0.001854376
-0.001840756
-0.001810142
-0.001731185
-0.001684268
-0.001739263