/*--------------------------------*- C++ -*----------------------------------*\
| =========                 |                                                 |
| \\      /  F ield         | OpenFOAM: The Open Source CFD Toolbox           |
|  \\    /   O peration     | Version:  2306                                  |
|   \\  /    A nd           | Website:  www.openfoam.com                      |
|    \\/     M anipulation  |                                                 |
\*---------------------------------------------------------------------------*/
FoamFile
{
    version     2.0;
    format      ascii;
    arch        "LSB;label=32;scalar=64";
    class       volScalarField;
    location    "0.9/phiEA";
    object      T;
}
// * * * * * * * * * * * * * * * * * * * * * * * * * * * * * * * * * * * * * //

dimensions      [0 0 0 1 0 0 0];

internalField   nonuniform List<scalar> 
20000
(
1109.119
1108.987
1110.68
1109.129
1108.682
1110.668
1108.998
1112.134
1110.687
1109.144
1108.117
1110.638
1108.694
1112.156
1110.675
1109.013
1113.512
1112.137
1110.698
1109.164
1107.173
1110.577
1108.131
1112.203
1110.644
1108.71
1113.545
1112.158
1110.685
1109.033
1114.849
1113.512
1112.144
1110.713
1109.188
1105.795
1110.462
1107.192
1112.283
1110.582
1108.151
1113.618
1112.205
1110.654
1108.731
1114.885
1113.545
1112.165
1110.7
1109.058
1116.149
1114.846
1113.516
1112.155
1110.732
1109.217
1104.237
1110.263
1105.824
1112.401
1110.464
1107.217
1113.745
1112.283
1110.591
1108.175
1114.965
1113.617
1112.211
1110.668
1108.758
1116.185
1114.881
1113.548
1112.176
1110.719
1109.087
1117.414
1116.144
1114.846
1113.524
1112.17
1110.756
1109.247
1102.813
1109.972
1104.28
1112.537
1110.262
1105.858
1113.94
1112.397
1110.471
1107.247
1115.106
1113.741
1112.287
1110.604
1108.204
1116.266
1114.961
1113.619
1112.221
1110.687
1108.789
1117.449
1116.18
1114.882
1113.555
1112.191
1110.743
1109.118
1118.639
1117.406
1116.142
1114.851
1113.535
1112.189
1110.78
1109.277
1101.755
1109.647
1102.87
1112.629
1109.97
1104.327
1114.193
1112.528
1110.265
1105.897
1115.326
1113.933
1112.397
1110.482
1107.282
1116.409
1115.1
1113.742
1112.295
1110.621
1108.239
1117.527
1116.26
1114.96
1113.625
1112.235
1110.71
1108.821
1118.673
1117.441
1116.178
1114.886
1113.566
1112.21
1110.767
1109.148
1119.825
1118.631
1117.402
1116.144
1114.859
1113.55
1112.209
1110.805
1109.307
1101.196
1109.372
1101.822
1112.662
1109.647
1102.93
1114.422
1112.615
1109.972
1104.378
1115.617
1114.18
1112.522
1110.272
1105.941
1116.632
1115.316
1113.93
1112.402
1110.497
1107.323
1117.666
1116.4
1115.097
1113.746
1112.307
1110.644
1108.275
1118.748
1117.519
1116.257
1114.963
1113.635
1112.253
1110.734
1108.854
1119.857
1118.664
1117.437
1116.179
1114.893
1113.581
1112.229
1110.791
1109.179
1120.969
1119.815
1118.625
1117.402
1116.149
1114.871
1113.566
1112.229
1110.829
1109.337
1101.196
1109.216
1101.268
1112.659
1109.375
1101.892
1114.588
1112.647
1109.652
1102.994
1115.894
1114.404
1112.606
1109.979
1104.434
1116.93
1115.602
1114.17
1112.521
1110.284
1105.99
1117.884
1116.621
1115.31
1113.93
1112.41
1110.518
1107.365
1118.881
1117.656
1116.396
1115.099
1113.754
1112.324
1110.667
1108.311
1119.929
1118.738
1117.514
1116.257
1114.97
1113.649
1112.271
1110.758
1108.887
1121
1119.847
1118.658
1117.436
1116.184
1114.905
1113.596
1112.248
1110.816
1109.21
1122.071
1120.958
1119.808
1118.623
1117.405
1116.158
1114.883
1113.582
1112.249
1110.854
1109.485
1101.755
1109.216
1101.268
1112.649
1109.221
1101.344
1114.689
1112.644
1109.383
1101.966
1116.11
1114.567
1112.637
1109.661
1103.063
1117.22
1115.874
1114.39
1112.601
1109.991
1104.496
1118.176
1116.914
1115.59
1114.165
1112.524
1110.301
1106.04
1119.091
1117.871
1116.613
1115.308
1113.934
1112.423
1110.538
1107.407
1120.055
1118.87
1117.649
1116.395
1115.103
1113.766
1112.34
1110.69
1108.348
1121.068
1119.918
1118.732
1117.512
1116.261
1114.981
1113.664
1112.29
1110.782
1108.92
1122.1
1120.988
1119.839
1118.655
1117.439
1116.192
1114.917
1113.612
1112.268
1110.84
1109.363
1123.13
1122.059
1120.95
1119.804
1118.624
1117.411
1116.167
1114.895
1113.597
1112.269
1110.975
1109.767
1102.813
1109.372
1101.822
1112.649
1109.221
1101.344
1114.735
1112.635
1109.23
1101.423
1116.251
1114.667
1112.634
1109.395
1102.044
1117.45
1116.087
1114.551
1112.631
1109.675
1103.136
1118.462
1117.199
1115.858
1114.38
1112.601
1110.007
1104.557
1119.372
1118.159
1116.901
1115.582
1114.163
1112.532
1110.319
1106.09
1120.256
1119.077
1117.862
1116.608
1115.309
1113.943
1112.436
1110.559
1107.451
1121.189
1120.043
1118.862
1117.646
1116.397
1115.112
1113.778
1112.357
1110.713
1108.386
1122.165
1121.056
1119.91
1118.728
1117.514
1116.269
1114.991
1113.678
1112.308
1110.806
1109.083
1123.158
1122.088
1120.98
1119.835
1118.656
1117.445
1116.201
1114.928
1113.627
1112.287
1110.96
1109.659
1124.146
1123.117
1122.05
1120.945
1119.804
1118.628
1117.418
1116.176
1114.907
1113.613
1112.367
1111.194
1110.065
1104.237
1109.647
1102.87
1112.659
1109.375
1101.892
1114.735
1112.635
1109.23
1101.423
1116.319
1114.714
1112.624
1109.244
1101.507
1117.604
1116.226
1114.65
1112.628
1109.411
1102.127
1118.693
1117.427
1116.068
1114.539
1112.629
1109.693
1103.21
1119.649
1118.441
1117.182
1115.846
1114.374
1112.605
1110.023
1104.618
1120.525
1119.354
1118.145
1116.891
1115.578
1114.166
1112.539
1110.336
1106.14
1121.38
1120.241
1119.066
1117.856
1116.607
1115.314
1113.951
1112.449
1110.581
1107.494
1122.281
1121.176
1120.034
1118.857
1117.646
1116.403
1115.121
1113.791
1112.374
1110.736
1108.569
1123.22
1122.153
1121.047
1119.905
1118.728
1117.519
1116.277
1115.002
1113.692
1112.327
1110.924
1109.411
1124.172
1123.145
1122.079
1120.975
1119.835
1118.66
1117.451
1116.21
1114.94
1113.642
1112.384
1111.18
1109.975
1125.119
1124.133
1123.108
1122.044
1120.943
1119.806
1118.633
1117.424
1116.185
1114.919
1113.692
1112.543
1111.416
1110.373
1105.795
1109.972
1104.28
1112.662
1109.647
1102.93
1114.689
1112.644
1109.383
1101.966
1116.319
1114.714
1112.624
1109.244
1101.507
1117.681
1116.294
1114.696
1112.618
1109.262
1101.594
1118.848
1117.58
1116.206
1114.637
1112.626
1109.431
1102.21
1119.873
1118.669
1117.407
1116.053
1114.53
1112.631
1109.711
1103.282
1120.792
1119.628
1118.424
1117.169
1115.838
1114.372
1112.608
1110.04
1104.679
1121.638
1120.507
1119.34
1118.134
1116.886
1115.578
1114.169
1112.547
1110.354
1106.191
1122.464
1121.365
1120.23
1119.059
1117.853
1116.61
1115.32
1113.96
1112.462
1110.602
1107.708
1123.331
1122.267
1121.166
1120.028
1118.856
1117.65
1116.409
1115.13
1113.803
1112.39
1110.851
1108.951
1124.232
1123.207
1122.143
1121.041
1119.904
1118.732
1117.525
1116.285
1115.013
1113.706
1112.419
1111.144
1109.769
1125.145
1124.16
1123.135
1122.073
1120.973
1119.837
1118.664
1117.457
1116.219
1114.952
1113.719
1112.555
1111.402
1110.306
1126.05
1125.106
1124.123
1123.101
1122.042
1120.945
1119.809
1118.637
1117.431
1116.194
1114.981
1113.83
1112.715
1111.639
1110.69
1107.173
1110.263
1105.824
1112.629
1109.97
1104.327
1114.588
1112.647
1109.652
1102.994
1116.251
1114.667
1112.634
1109.395
1102.044
1117.681
1116.294
1114.696
1112.618
1109.262
1101.594
1118.926
1117.655
1116.274
1114.682
1112.617
1109.284
1101.682
1120.025
1118.823
1117.558
1116.19
1114.627
1112.628
1109.452
1102.292
1121.007
1119.85
1118.649
1117.391
1116.042
1114.526
1112.633
1109.729
1103.354
1121.893
1120.771
1119.611
1118.41
1117.159
1115.833
1114.371
1112.612
1110.057
1104.739
1122.711
1121.62
1120.493
1119.329
1118.128
1116.884
1115.578
1114.172
1112.554
1110.372
1106.433
1123.507
1122.449
1121.353
1120.222
1119.055
1117.854
1116.613
1115.325
1113.968
1112.475
1110.707
1108.154
1124.339
1123.317
1122.257
1121.159
1120.026
1118.858
1117.654
1116.415
1115.138
1113.815
1112.473
1111.069
1109.384
1125.202
1124.219
1123.197
1122.136
1121.039
1119.905
1118.735
1117.53
1116.292
1115.023
1113.777
1112.582
1111.37
1110.153
1126.075
1125.132
1124.149
1123.129
1122.07
1120.974
1119.839
1118.668
1117.463
1116.227
1115.011
1113.852
1112.724
1111.628
1110.648
1126.939
1126.037
1125.096
1124.116
1123.098
1122.042
1120.946
1119.812
1118.641
1117.437
1116.241
1115.087
1113.964
1112.887
1111.864
1110.872
1108.117
1110.462
1107.192
1112.537
1110.262
1105.858
1114.422
1112.615
1109.972
1104.378
1116.11
1114.567
1112.637
1109.661
1103.063
1117.604
1116.226
1114.65
1112.628
1109.411
1102.127
1118.926
1117.655
1116.274
1114.682
1112.617
1109.284
1101.682
1120.101
1118.9
1117.634
1116.257
1114.673
1112.619
1109.306
1101.769
1121.154
1120.001
1118.802
1117.541
1116.178
1114.622
1112.63
1109.473
1102.372
1122.1
1120.984
1119.83
1118.633
1117.379
1116.035
1114.522
1112.636
1109.747
1103.426
1122.956
1121.872
1120.753
1119.596
1118.4
1117.153
1115.829
1114.369
1112.616
1110.074
1105.027
1123.744
1122.693
1121.605
1120.481
1119.321
1118.124
1116.882
1115.578
1114.174
1112.562
1110.459
1106.883
1124.508
1123.491
1122.436
1121.344
1120.217
1119.054
1117.854
1116.615
1115.33
1113.976
1112.54
1110.915
1108.671
1125.305
1124.325
1123.306
1122.249
1121.155
1120.026
1118.859
1117.657
1116.42
1115.147
1113.875
1112.62
1111.3
1109.865
1126.13
1125.189
1124.209
1123.19
1122.133
1121.039
1119.907
1118.738
1117.535
1116.3
1115.077
1113.899
1112.742
1111.601
1110.556
1126.963
1126.061
1125.121
1124.142
1123.125
1122.07
1120.975
1119.842
1118.672
1117.469
1116.271
1115.112
1113.981
1112.892
1111.856
1110.844
1127.787
1126.926
1126.026
1125.088
1124.112
1123.097
1122.042
1120.947
1119.814
1118.646
1117.471
1116.32
1115.189
1114.096
1113.057
1111.991
1110.929
1108.682
1110.577
1108.131
1112.401
1110.464
1107.217
1114.193
1112.528
1110.265
1105.897
1115.894
1114.404
1112.606
1109.979
1104.434
1117.45
1116.087
1114.551
1112.631
1109.675
1103.136
1118.848
1117.58
1116.206
1114.637
1112.626
1109.431
1102.21
1120.101
1118.9
1117.634
1116.257
1114.673
1112.619
1109.306
1101.769
1121.228
1120.076
1118.879
1117.616
1116.244
1114.667
1112.621
1109.329
1101.854
1122.241
1121.13
1119.98
1118.785
1117.528
1116.169
1114.617
1112.632
1109.493
1102.452
1123.154
1122.078
1120.965
1119.814
1118.62
1117.37
1116.028
1114.518
1112.638
1109.766
1103.763
1123.979
1122.935
1121.855
1120.739
1119.586
1118.393
1117.147
1115.824
1114.367
1112.62
1110.156
1105.512
1124.736
1123.726
1122.678
1121.593
1120.473
1119.317
1118.121
1116.879
1115.577
1114.177
1112.601
1110.628
1107.344
1125.468
1124.492
1123.478
1122.427
1121.339
1120.215
1119.053
1117.855
1116.618
1115.334
1114.017
1112.659
1111.145
1109.282
1126.23
1125.291
1124.313
1123.298
1122.244
1121.154
1120.026
1118.861
1117.661
1116.426
1115.19
1113.977
1112.766
1111.544
1110.39
1127.017
1126.117
1125.178
1124.201
1123.185
1122.132
1121.039
1119.909
1118.742
1117.54
1116.339
1115.166
1114.016
1112.902
1111.838
1110.788
1127.81
1126.949
1126.051
1125.113
1124.138
1123.124
1122.069
1120.976
1119.844
1118.676
1117.501
1116.345
1115.208
1114.107
1113.058
1111.985
1110.906
1128.593
1127.773
1126.915
1126.018
1125.083
1124.11
1123.096
1122.042
1120.948
1119.817
1118.668
1117.527
1116.394
1115.288
1114.226
1113.152
1112.024
1110.999
1108.987
1110.638
1108.694
1112.283
1110.582
1108.151
1113.94
1112.397
1110.471
1107.247
1115.617
1114.18
1112.522
1110.272
1105.941
1117.22
1115.874
1114.39
1112.601
1109.991
1104.496
1118.693
1117.427
1116.068
1114.539
1112.629
1109.693
1103.21
1120.025
1118.823
1117.558
1116.19
1114.627
1112.628
1109.452
1102.292
1121.228
1120.076
1118.879
1117.616
1116.244
1114.667
1112.621
1109.329
1101.854
1122.312
1121.203
1120.055
1118.861
1117.602
1116.235
1114.661
1112.624
1109.351
1101.939
1123.29
1122.218
1121.11
1119.963
1118.771
1117.518
1116.16
1114.611
1112.635
1109.514
1102.83
1124.17
1123.132
1122.059
1120.949
1119.801
1118.611
1117.362
1116.021
1114.514
1112.641
1109.854
1104.305
1124.962
1123.959
1122.918
1121.841
1120.728
1119.578
1118.386
1117.141
1115.82
1114.366
1112.641
1110.307
1105.962
1125.688
1124.718
1123.71
1122.666
1121.585
1120.468
1119.312
1118.117
1116.877
1115.577
1114.191
1112.675
1110.805
1107.806
1126.387
1125.452
1124.479
1123.468
1122.42
1121.336
1120.213
1119.052
1117.855
1116.62
1115.359
1114.086
1112.781
1111.406
1110.033
1127.113
1126.215
1125.279
1124.305
1123.292
1122.243
1121.153
1120.026
1118.863
1117.664
1116.455
1115.258
1114.073
1112.913
1111.802
1110.702
1127.862
1127.003
1126.106
1125.17
1124.196
1123.184
1122.131
1121.04
1119.91
1118.745
1117.567
1116.401
1115.249
1114.129
1113.061
1111.972
1110.86
1128.616
1127.796
1126.939
1126.043
1125.108
1124.136
1123.122
1122.069
1120.977
1119.846
1118.697
1117.552
1116.414
1115.301
1114.23
1113.151
1112.019
1110.979
1129.36
1128.58
1127.762
1126.907
1126.013
1125.081
1124.108
1123.095
1122.042
1120.949
1119.83
1118.705
1117.578
1116.466
1115.385
1114.298
1113.173
1112.063
1111.077
1109.119
1110.668
1108.998
1112.203
1110.644
1108.71
1113.745
1112.283
1110.591
1108.175
1115.326
1113.933
1112.397
1110.482
1107.282
1116.93
1115.602
1114.17
1112.521
1110.284
1105.99
1118.462
1117.199
1115.858
1114.38
1112.601
1110.007
1104.557
1119.873
1118.669
1117.407
1116.053
1114.53
1112.631
1109.711
1103.282
1121.154
1120.001
1118.802
1117.541
1116.178
1114.622
1112.63
1109.473
1102.372
1122.312
1121.203
1120.055
1118.861
1117.602
1116.235
1114.661
1112.624
1109.351
1101.939
1123.358
1122.289
1121.182
1120.037
1118.846
1117.591
1116.226
1114.655
1112.626
1109.373
1102.338
1124.301
1123.267
1122.198
1121.093
1119.949
1118.76
1117.508
1116.152
1114.606
1112.637
1109.613
1103.424
1125.147
1124.148
1123.114
1122.043
1120.936
1119.792
1118.602
1117.353
1116.013
1114.51
1112.654
1110.009
1104.784
1125.906
1124.943
1123.942
1122.904
1121.83
1120.72
1119.571
1118.379
1117.135
1115.815
1114.359
1112.683
1110.458
1106.371
1126.599
1125.67
1124.703
1123.698
1122.657
1121.579
1120.463
1119.308
1118.114
1116.875
1115.577
1114.218
1112.75
1110.985
1108.257
1127.265
1126.371
1125.439
1124.469
1123.461
1122.417
1121.333
1120.21
1119.051
1117.856
1116.632
1115.395
1114.151
1112.909
1111.711
1110.586
1127.955
1127.098
1126.203
1125.27
1124.299
1123.29
1122.241
1121.152
1120.026
1118.864
1117.681
1116.497
1115.318
1114.165
1113.062
1111.952
1110.792
1128.667
1127.848
1126.992
1126.097
1125.164
1124.193
1123.182
1122.13
1121.04
1119.912
1118.761
1117.607
1116.457
1115.328
1114.24
1113.15
1112.009
1110.942
1129.382
1128.603
1127.785
1126.93
1126.037
1125.106
1124.134
1123.121
1122.069
1120.977
1119.858
1118.729
1117.598
1116.479
1115.39
1114.299
1113.172
1112.058
1111.061
1130.088
1129.347
1128.569
1127.754
1126.901
1126.01
1125.079
1124.106
1123.094
1122.042
1120.955
1119.85
1118.737
1117.627
1116.535
1115.438
1114.311
1113.194
1112.104
1111.16
1110.68
1109.129
1112.156
1110.675
1109.013
1113.618
1112.205
1110.654
1108.731
1115.106
1113.741
1112.287
1110.604
1108.204
1116.632
1115.316
1113.93
1112.402
1110.497
1107.323
1118.176
1116.914
1115.59
1114.165
1112.524
1110.301
1106.04
1119.649
1118.441
1117.182
1115.846
1114.374
1112.605
1110.023
1104.618
1121.007
1119.85
1118.649
1117.391
1116.042
1114.526
1112.633
1109.729
1103.354
1122.241
1121.13
1119.98
1118.785
1117.528
1116.169
1114.617
1112.632
1109.493
1102.452
1123.358
1122.289
1121.182
1120.037
1118.846
1117.591
1116.226
1114.655
1112.626
1109.373
1102.338
1124.366
1123.335
1122.268
1121.165
1120.023
1118.835
1117.58
1116.217
1114.65
1112.629
1109.479
1102.962
1125.273
1124.278
1123.248
1122.182
1121.079
1119.938
1118.75
1117.498
1116.143
1114.601
1112.649
1109.78
1103.939
1126.084
1125.126
1124.13
1123.098
1122.031
1120.927
1119.782
1118.592
1117.345
1116.007
1114.49
1112.681
1110.158
1105.2
1126.811
1125.887
1124.926
1123.928
1122.893
1121.822
1120.712
1119.563
1118.372
1117.129
1115.794
1114.352
1112.728
1110.605
1106.73
1127.471
1126.582
1125.655
1124.691
1123.689
1122.651
1121.573
1120.457
1119.303
1118.11
1116.864
1115.575
1114.244
1112.823
1111.159
1128.103
1127.249
1126.358
1125.429
1124.462
1123.457
1122.413
1121.329
1120.208
1119.05
1117.857
1116.643
1115.423
1114.213
1113.05
1111.924
1110.706
1128.757
1127.941
1127.086
1126.194
1125.264
1124.296
1123.287
1122.238
1121.151
1120.026
1118.872
1117.702
1116.53
1115.373
1114.255
1113.147
1111.993
1110.887
1129.432
1128.653
1127.837
1126.983
1126.091
1125.161
1124.191
1123.18
1122.129
1121.04
1119.919
1118.782
1117.64
1116.507
1115.403
1114.301
1113.17
1112.05
1111.03
1130.109
1129.369
1128.592
1127.777
1126.925
1126.034
1125.103
1124.132
1123.12
1122.068
1120.981
1119.873
1118.756
1117.64
1116.541
1115.44
1114.312
1113.193
1112.101
1111.147
1130.776
1130.075
1129.336
1128.561
1127.748
1126.898
1126.007
1125.076
1124.105
1123.093
1122.041
1120.962
1119.867
1118.766
1117.673
1116.573
1115.446
1114.324
1113.216
1112.148
1111.247
1112.134
1110.687
1109.144
1113.545
1112.158
1110.685
1109.033
1114.965
1113.617
1112.211
1110.668
1108.758
1116.409
1115.1
1113.742
1112.295
1110.621
1108.239
1117.884
1116.621
1115.31
1113.93
1112.41
1110.518
1107.365
1119.372
1118.159
1116.901
1115.582
1114.163
1112.532
1110.319
1106.09
1120.792
1119.628
1118.424
1117.169
1115.838
1114.372
1112.608
1110.04
1104.679
1122.1
1120.984
1119.83
1118.633
1117.379
1116.035
1114.522
1112.636
1109.747
1103.426
1123.29
1122.218
1121.11
1119.963
1118.771
1117.518
1116.16
1114.611
1112.635
1109.514
1102.83
1124.366
1123.335
1122.268
1121.165
1120.023
1118.835
1117.58
1116.217
1114.65
1112.629
1109.479
1102.962
1125.336
1124.344
1123.316
1122.251
1121.151
1120.012
1118.824
1117.57
1116.208
1114.644
1112.641
1109.655
1103.499
1126.206
1125.251
1124.26
1123.232
1122.168
1121.068
1119.927
1118.739
1117.488
1116.135
1114.576
1112.672
1109.936
1104.378
1126.983
1126.064
1125.108
1124.115
1123.086
1122.021
1120.917
1119.772
1118.583
1117.336
1115.972
1114.463
1112.712
1110.298
1105.551
1127.676
1126.792
1125.871
1124.912
1123.917
1122.885
1121.814
1120.704
1119.556
1118.365
1117.099
1115.761
1114.349
1112.773
1110.743
1128.303
1127.454
1126.567
1125.643
1124.682
1123.683
1122.644
1121.567
1120.452
1119.299
1118.092
1116.844
1115.572
1114.267
1112.891
1128.901
1128.087
1127.236
1126.348
1125.421
1124.457
1123.453
1122.409
1121.326
1120.206
1119.044
1117.85
1116.646
1115.444
1114.273
1113.141
1111.974
1110.819
1129.52
1128.743
1127.929
1127.077
1126.187
1125.26
1124.292
1123.284
1122.236
1121.15
1120.026
1118.875
1117.714
1116.556
1115.423
1114.304
1113.168
1112.039
1110.984
1130.157
1129.418
1128.642
1127.828
1126.977
1126.088
1125.158
1124.188
1123.178
1122.128
1121.04
1119.925
1118.797
1117.668
1116.554
1115.444
1114.313
1113.192
1112.095
1111.121
1130.797
1130.096
1129.358
1128.583
1127.771
1126.921
1126.031
1125.101
1124.13
1123.119
1122.066
1120.984
1119.885
1118.779
1117.679
1116.575
1115.448
1114.324
1113.216
1112.146
1111.236
1131.426
1130.763
1130.064
1129.328
1128.555
1127.745
1126.895
1126.004
1125.074
1124.103
1123.087
1122.036
1120.964
1119.88
1118.793
1117.698
1116.578
1115.454
1114.336
1113.239
1112.194
1111.335
1113.512
1112.137
1110.698
1109.164
1114.885
1113.545
1112.165
1110.7
1109.058
1116.266
1114.961
1113.619
1112.221
1110.687
1108.789
1117.666
1116.4
1115.097
1113.746
1112.307
1110.644
1108.275
1119.091
1117.871
1116.613
1115.308
1113.934
1112.423
1110.538
1107.407
1120.525
1119.354
1118.145
1116.891
1115.578
1114.166
1112.539
1110.336
1106.14
1121.893
1120.771
1119.611
1118.41
1117.159
1115.833
1114.371
1112.612
1110.057
1104.739
1123.154
1122.078
1120.965
1119.814
1118.62
1117.37
1116.028
1114.518
1112.638
1109.766
1103.763
1124.301
1123.267
1122.198
1121.093
1119.949
1118.76
1117.508
1116.152
1114.606
1112.637
1109.613
1103.424
1125.336
1124.344
1123.316
1122.251
1121.151
1120.012
1118.824
1117.57
1116.208
1114.644
1112.641
1109.655
1103.499
1126.268
1125.314
1124.325
1123.299
1122.238
1121.14
1120
1118.813
1117.559
1116.199
1114.617
1112.664
1109.817
1103.954
1127.101
1126.185
1125.233
1124.244
1123.219
1122.158
1121.058
1119.917
1118.728
1117.478
1116.093
1114.538
1112.697
1110.08
1104.743
1127.843
1126.963
1126.047
1125.093
1124.103
1123.076
1122.011
1120.907
1119.763
1118.574
1117.294
1115.918
1114.442
1112.743
1110.429
1128.502
1127.657
1126.776
1125.857
1124.901
1123.908
1122.876
1121.806
1120.696
1119.548
1118.33
1117.052
1115.733
1114.348
1112.816
1129.095
1128.286
1127.439
1126.555
1125.634
1124.675
1123.676
1122.638
1121.561
1120.447
1119.275
1118.059
1116.823
1115.567
1114.286
1129.659
1128.885
1128.074
1127.226
1126.34
1125.416
1124.452
1123.448
1122.405
1121.323
1120.193
1119.022
1117.833
1116.638
1115.456
1114.307
1113.164
1112.025
1110.926
1130.243
1129.505
1128.731
1127.919
1127.07
1126.183
1125.256
1124.288
1123.281
1122.234
1121.143
1120.015
1118.869
1117.718
1116.577
1115.449
1114.315
1113.19
1112.086
1111.083
1130.844
1130.144
1129.407
1128.633
1127.822
1126.973
1126.084
1125.155
1124.186
1123.176
1122.123
1121.033
1119.924
1118.806
1117.693
1116.58
1115.45
1114.325
1113.214
1112.141
1111.214
1131.447
1130.784
1130.085
1129.349
1128.577
1127.767
1126.918
1126.028
1125.098
1124.128
1123.111
1122.058
1120.982
1119.892
1118.799
1117.701
1116.58
1115.454
1114.336
1113.238
1112.192
1111.326
1132.039
1131.414
1130.752
1130.055
1129.322
1128.551
1127.741
1126.891
1126.001
1125.071
1124.093
1123.073
1122.028
1120.964
1119.891
1118.808
1117.701
1116.582
1115.46
1114.347
1113.262
1112.239
1111.423
1114.849
1113.512
1112.144
1110.713
1109.188
1116.185
1114.881
1113.548
1112.176
1110.719
1109.087
1117.527
1116.26
1114.96
1113.625
1112.235
1110.71
1108.821
1118.881
1117.656
1116.396
1115.099
1113.754
1112.324
1110.667
1108.311
1120.256
1119.077
1117.862
1116.608
1115.309
1113.943
1112.436
1110.559
1107.451
1121.638
1120.507
1119.34
1118.134
1116.886
1115.578
1114.169
1112.547
1110.354
1106.191
1122.956
1121.872
1120.753
1119.596
1118.4
1117.153
1115.829
1114.369
1112.616
1110.074
1105.027
1124.17
1123.132
1122.059
1120.949
1119.801
1118.611
1117.362
1116.021
1114.514
1112.641
1109.854
1104.305
1125.273
1124.278
1123.248
1122.182
1121.079
1119.938
1118.75
1117.498
1116.143
1114.601
1112.649
1109.78
1103.939
1126.268
1125.314
1124.325
1123.299
1122.238
1121.14
1120
1118.813
1117.559
1116.199
1114.617
1112.664
1109.817
1103.954
1127.161
1126.247
1125.296
1124.309
1123.286
1122.227
1121.129
1119.989
1118.802
1117.549
1116.154
1114.575
1112.688
1109.966
1104.331
1127.958
1127.081
1126.168
1125.217
1124.231
1123.208
1122.147
1121.047
1119.906
1118.718
1117.428
1116.028
1114.507
1112.723
1110.213
1128.665
1127.824
1126.946
1126.032
1125.081
1124.094
1123.067
1122.001
1120.897
1119.754
1118.528
1117.227
1115.872
1114.425
1112.774
1129.289
1128.484
1127.642
1126.762
1125.846
1124.893
1123.9
1122.868
1121.797
1120.689
1119.51
1118.273
1117.009
1115.709
1114.348
1129.849
1129.079
1128.272
1127.427
1126.546
1125.627
1124.668
1123.67
1122.632
1121.556
1120.419
1119.232
1118.025
1116.8
1115.559
1130.379
1129.644
1128.873
1128.064
1127.218
1126.334
1125.41
1124.447
1123.443
1122.4
1121.304
1120.159
1118.99
1117.805
1116.617
1115.455
1114.316
1113.187
1112.076
1111.033
1130.928
1130.229
1129.494
1128.721
1127.912
1127.066
1126.179
1125.252
1124.285
1123.278
1122.221
1121.12
1119.995
1118.856
1117.715
1116.586
1115.454
1114.326
1113.213
1112.135
1111.182
1131.493
1130.831
1130.132
1129.398
1128.626
1127.818
1126.969
1126.081
1125.152
1124.183
1123.165
1122.105
1121.02
1119.919
1118.813
1117.705
1116.583
1115.456
1114.336
1113.238
1112.189
1111.309
1132.059
1131.434
1130.773
1130.076
1129.343
1128.573
1127.763
1126.914
1126.025
1125.095
1124.116
1123.094
1122.045
1120.976
1119.897
1118.81
1117.702
1116.583
1115.46
1114.348
1113.261
1112.238
1111.416
1132.615
1132.026
1131.403
1130.744
1130.049
1129.318
1128.547
1127.737
1126.888
1125.998
1125.058
1124.071
1123.056
1122.017
1120.962
1119.897
1118.808
1117.702
1116.584
1115.466
1114.359
1113.284
1112.285
1111.508
1116.149
1114.846
1113.516
1112.155
1110.732
1109.217
1117.449
1116.18
1114.882
1113.555
1112.191
1110.743
1109.118
1118.748
1117.519
1116.257
1114.963
1113.635
1112.253
1110.734
1108.854
1120.055
1118.87
1117.649
1116.395
1115.103
1113.766
1112.34
1110.69
1108.348
1121.38
1120.241
1119.066
1117.856
1116.607
1115.314
1113.951
1112.449
1110.581
1107.494
1122.711
1121.62
1120.493
1119.329
1118.128
1116.884
1115.578
1114.172
1112.554
1110.372
1106.433
1123.979
1122.935
1121.855
1120.739
1119.586
1118.393
1117.147
1115.824
1114.367
1112.62
1110.156
1105.512
1125.147
1124.148
1123.114
1122.043
1120.936
1119.792
1118.602
1117.353
1116.013
1114.51
1112.654
1110.009
1104.784
1126.206
1125.251
1124.26
1123.232
1122.168
1121.068
1119.927
1118.739
1117.488
1116.135
1114.576
1112.672
1109.936
1104.378
1127.161
1126.247
1125.296
1124.309
1123.286
1122.227
1121.129
1119.989
1118.802
1117.549
1116.154
1114.575
1112.688
1109.966
1104.331
1128.016
1127.14
1126.228
1125.28
1124.296
1123.275
1122.216
1121.117
1119.978
1118.791
1117.496
1116.083
1114.54
1112.712
1110.101
1128.776
1127.938
1127.064
1126.152
1125.205
1124.221
1123.198
1122.136
1121.036
1119.895
1118.665
1117.35
1115.971
1114.482
1112.748
1129.447
1128.646
1127.807
1126.932
1126.021
1125.072
1124.084
1123.057
1121.992
1120.888
1119.705
1118.454
1117.168
1115.833
1114.413
1130.038
1129.271
1128.468
1127.629
1126.752
1125.838
1124.885
1123.892
1122.86
1121.789
1120.648
1119.447
1118.222
1116.971
1115.687
1130.564
1129.833
1129.065
1128.26
1127.418
1126.539
1125.62
1124.661
1123.663
1122.626
1121.525
1120.369
1119.188
1117.989
1116.774
1131.061
1130.364
1129.632
1128.862
1128.056
1127.212
1126.328
1125.405
1124.441
1123.438
1122.378
1121.261
1120.115
1118.945
1117.759
1116.594
1115.457
1114.326
1113.211
1112.127
1111.139
1131.575
1130.914
1130.217
1129.484
1128.714
1127.907
1127.061
1126.174
1125.248
1124.281
1123.261
1122.189
1121.089
1119.967
1118.835
1117.712
1116.587
1115.458
1114.337
1113.236
1112.184
1111.282
1132.104
1131.479
1130.819
1130.123
1129.391
1128.622
1127.813
1126.965
1126.077
1125.149
1124.168
1123.139
1122.082
1121.002
1119.91
1118.815
1117.706
1116.585
1115.462
1114.348
1113.261
1112.236
1111.403
1132.634
1132.046
1131.423
1130.764
1130.07
1129.339
1128.569
1127.76
1126.91
1126.021
1125.08
1124.091
1123.072
1122.028
1120.968
1119.899
1118.81
1117.703
1116.585
1115.466
1114.359
1113.284
1112.285
1111.504
1133.154
1132.602
1132.016
1131.394
1130.738
1130.045
1129.314
1128.543
1127.734
1126.885
1125.982
1125.03
1124.046
1123.036
1122.004
1120.961
1119.896
1118.807
1117.701
1116.586
1115.471
1114.37
1113.307
1112.329
1111.59
1117.414
1116.144
1114.846
1113.524
1112.17
1110.756
1109.247
1118.673
1117.441
1116.178
1114.886
1113.566
1112.21
1110.767
1109.148
1119.929
1118.738
1117.514
1116.257
1114.97
1113.649
1112.271
1110.758
1108.887
1121.189
1120.043
1118.862
1117.646
1116.397
1115.112
1113.778
1112.357
1110.713
1108.386
1122.464
1121.365
1120.23
1119.059
1117.853
1116.61
1115.32
1113.96
1112.462
1110.602
1107.708
1123.744
1122.693
1121.605
1120.481
1119.321
1118.124
1116.882
1115.578
1114.174
1112.562
1110.459
1106.883
1124.962
1123.959
1122.918
1121.841
1120.728
1119.578
1118.386
1117.141
1115.82
1114.366
1112.641
1110.307
1105.962
1126.084
1125.126
1124.13
1123.098
1122.031
1120.927
1119.782
1118.592
1117.345
1116.007
1114.49
1112.681
1110.158
1105.2
1127.101
1126.185
1125.233
1124.244
1123.219
1122.158
1121.058
1119.917
1118.728
1117.478
1116.093
1114.538
1112.697
1110.08
1104.743
1128.016
1127.14
1126.228
1125.28
1124.296
1123.275
1122.216
1121.117
1119.978
1118.791
1117.496
1116.083
1114.54
1112.712
1110.101
1128.832
1127.996
1127.123
1126.213
1125.267
1124.285
1123.264
1122.205
1121.106
1119.967
1118.735
1117.413
1116.022
1114.511
1112.736
1129.556
1128.757
1127.921
1127.049
1126.14
1125.195
1124.211
1123.187
1122.126
1121.026
1119.841
1118.581
1117.281
1115.923
1114.462
1130.192
1129.429
1128.629
1127.793
1126.921
1126.011
1125.062
1124.074
1123.048
1121.982
1120.839
1119.628
1118.389
1117.117
1115.8
1130.749
1130.021
1129.256
1128.455
1127.618
1126.744
1125.83
1124.876
1123.883
1122.852
1121.748
1120.581
1119.39
1118.175
1116.937
1131.242
1130.548
1129.819
1129.053
1128.251
1127.411
1126.532
1125.613
1124.654
1123.656
1122.592
1121.469
1120.317
1119.143
1117.952
1131.705
1131.046
1130.352
1129.621
1128.854
1128.05
1127.206
1126.323
1125.399
1124.436
1123.412
1122.327
1121.207
1120.057
1118.881
1117.721
1116.591
1115.46
1114.337
1113.235
1112.178
1111.246
1132.184
1131.561
1130.902
1130.208
1129.477
1128.709
1127.902
1127.056
1126.17
1125.243
1124.26
1123.221
1122.149
1121.049
1119.932
1118.822
1117.71
1116.587
1115.463
1114.348
1113.26
1112.233
1111.383
1132.678
1132.091
1131.468
1130.811
1130.117
1129.387
1128.618
1127.809
1126.961
1126.073
1125.131
1124.135
1123.108
1122.053
1120.981
1119.904
1118.813
1117.705
1116.586
1115.467
1114.359
1113.284
1112.284
1111.496
1133.173
1132.622
1132.036
1131.415
1130.758
1130.066
1129.335
1128.565
1127.756
1126.907
1126.004
1125.049
1124.062
1123.046
1122.01
1120.963
1119.897
1118.808
1117.702
1116.587
1115.471
1114.37
1113.307
1112.33
1111.588
1133.657
1133.141
1132.592
1132.007
1131.388
1130.733
1130.041
1129.309
1128.539
1127.73
1126.866
1125.949
1124.999
1124.019
1123.014
1121.996
1120.958
1119.893
1118.805
1117.701
1116.588
1115.476
1114.381
1113.328
1112.372
1111.703
1118.639
1117.406
1116.142
1114.851
1113.535
1112.189
1110.78
1109.277
1119.857
1118.664
1117.437
1116.179
1114.893
1113.581
1112.229
1110.791
1109.179
1121.068
1119.918
1118.732
1117.512
1116.261
1114.981
1113.664
1112.29
1110.782
1108.92
1122.281
1121.176
1120.034
1118.857
1117.646
1116.403
1115.121
1113.791
1112.374
1110.736
1108.569
1123.507
1122.449
1121.353
1120.222
1119.055
1117.854
1116.613
1115.325
1113.968
1112.475
1110.707
1108.154
1124.736
1123.726
1122.678
1121.593
1120.473
1119.317
1118.121
1116.879
1115.577
1114.177
1112.601
1110.628
1107.344
1125.906
1124.943
1123.942
1122.904
1121.83
1120.72
1119.571
1118.379
1117.135
1115.815
1114.359
1112.683
1110.458
1106.371
1126.983
1126.064
1125.108
1124.115
1123.086
1122.021
1120.917
1119.772
1118.583
1117.336
1115.972
1114.463
1112.712
1110.298
1105.551
1127.958
1127.081
1126.168
1125.217
1124.231
1123.208
1122.147
1121.047
1119.906
1118.718
1117.428
1116.028
1114.507
1112.723
1110.213