/*--------------------------------*- C++ -*----------------------------------*\
| =========                 |                                                 |
| \\      /  F ield         | OpenFOAM: The Open Source CFD Toolbox           |
|  \\    /   O peration     | Version:  2306                                  |
|   \\  /    A nd           | Website:  www.openfoam.com                      |
|    \\/     M anipulation  |                                                 |
\*---------------------------------------------------------------------------*/
FoamFile
{
    version     2.0;
    format      ascii;
    arch        "LSB;label=32;scalar=64";
    class       volScalarField;
    location    "0.3/fuel";
    object      diffSp.H2;
}
// * * * * * * * * * * * * * * * * * * * * * * * * * * * * * * * * * * * * * //

dimensions      [0 2 -1 0 0 0 0];

internalField   nonuniform List<scalar> 
16000
(
8.39712e-05
8.396601e-05
8.412022e-05
8.397994e-05
8.395228e-05
8.412285e-05
8.39749e-05
8.425487e-05
8.41272e-05
8.399952e-05
8.392614e-05
8.412719e-05
8.396148e-05
8.42594e-05
8.412989e-05
8.399478e-05
8.437668e-05
8.426039e-05
8.414322e-05
8.402263e-05
8.387447e-05
8.413381e-05
8.393589e-05
8.426827e-05
8.413434e-05
8.398201e-05
8.438161e-05
8.426494e-05
8.414606e-05
8.401825e-05
8.448969e-05
8.438108e-05
8.427347e-05
8.416223e-05
8.407005e-05
8.380426e-05
8.413694e-05
8.388508e-05
8.428309e-05
8.414111e-05
8.395746e-05
8.43916e-05
8.427385e-05
8.415081e-05
8.400622e-05
8.449459e-05
8.438602e-05
8.427811e-05
8.416524e-05
8.406639e-05
8.459643e-05
8.449322e-05
8.439194e-05
8.428908e-05
8.420143e-05
0.0001261212
8.370606e-05
8.414251e-05
8.381604e-05
8.430065e-05
8.414436e-05
8.390813e-05
8.440856e-05
8.42887e-05
8.4158e-05
8.398286e-05
8.450466e-05
8.439603e-05
8.428718e-05
8.417034e-05
8.405582e-05
8.460115e-05
8.449813e-05
8.439694e-05
8.429383e-05
8.420484e-05
0.000126116
8.469802e-05
8.459928e-05
8.450238e-05
8.440501e-05
8.432153e-05
0.0001263155
0.0001261285
8.361603e-05
8.412812e-05
8.37191e-05
8.432602e-05
8.415e-05
8.384095e-05
8.443053e-05
8.43062e-05
8.416173e-05
8.39352e-05
8.452185e-05
8.441296e-05
8.430224e-05
8.417805e-05
8.403477e-05
8.461094e-05
8.450819e-05
8.440705e-05
8.430311e-05
8.421072e-05
0.0001261007
8.470252e-05
8.4604e-05
8.450733e-05
8.441008e-05
8.432653e-05
0.0001263207
0.0001261234
8.479518e-05
8.470032e-05
8.46071e-05
8.451349e-05
8.443241e-05
0.0001264933
0.0001263215
0.0001261387
8.354739e-05
8.41102e-05
8.363016e-05
8.433673e-05
8.413578e-05
8.374572e-05
8.446184e-05
8.433139e-05
8.416782e-05
8.387005e-05
8.454493e-05
8.44348e-05
8.431992e-05
8.418236e-05
8.399023e-05
8.46277e-05
8.452534e-05
8.442409e-05
8.431844e-05
8.421957e-05
0.00012607
8.471189e-05
8.461377e-05
8.451745e-05
8.442031e-05
8.43363e-05
0.0001263297
0.0001261084
8.479945e-05
8.470481e-05
8.461185e-05
8.451848e-05
8.443766e-05
0.0001265008
0.0001263267
0.0001261338
8.488828e-05
8.479703e-05
8.470706e-05
8.461666e-05
8.453703e-05
0.0001266578
0.0001264982
0.0001263299
0.0001261478
8.351114e-05
8.409297e-05
8.356228e-05
8.434213e-05
8.411812e-05
8.365814e-05
8.448166e-05
8.434198e-05
8.415402e-05
8.377665e-05
8.457761e-05
8.446585e-05
8.434518e-05
8.418902e-05
8.392873e-05
8.465064e-05
8.454827e-05
8.444598e-05
8.433636e-05
8.422526e-05
0.0001260046
8.472798e-05
8.463048e-05
8.453466e-05
8.44375e-05
8.435232e-05
0.0001263432
0.0001260783
8.48084e-05
8.471417e-05
8.462166e-05
8.452869e-05
8.444822e-05
0.0001265156
0.0001263357
0.0001261192
8.489235e-05
8.48013e-05
8.471158e-05
8.462144e-05
8.454215e-05
0.0001266657
0.0001265057
0.0001263351
0.000126143
8.497762e-05
8.488978e-05
8.48029e-05
8.471538e-05
8.463717e-05
0.0001268133
0.0001266618
0.0001265051
0.0001263373
0.0001261583
8.351114e-05
8.408306e-05
8.352643e-05
8.434281e-05
8.410114e-05
8.359117e-05
8.449588e-05
8.434738e-05
8.413676e-05
8.369049e-05
8.460083e-05
8.448546e-05
8.435582e-05
8.41757e-05
8.383826e-05
8.468297e-05
8.458068e-05
8.447695e-05
8.436178e-05
8.423338e-05
0.0001259139
8.475028e-05
8.465327e-05
8.455757e-05
8.445948e-05
8.437101e-05
0.000126352
0.0001260136
8.482378e-05
8.47302e-05
8.463839e-05
8.454598e-05
8.446587e-05
0.0001265396
0.0001263493
0.0001260897
8.490089e-05
8.481023e-05
8.472096e-05
8.463131e-05
8.455261e-05
0.0001266816
0.0001265204
0.0001263443
0.0001261287
8.49815e-05
8.489384e-05
8.480718e-05
8.471992e-05
8.464206e-05
0.000126821
0.0001266697
0.0001265126
0.0001263426
0.0001261537
8.506337e-05
8.497881e-05
8.489491e-05
8.481019e-05
8.473345e-05
0.0001269624
0.0001268166
0.0001266675
0.0001265112
0.0001263459
0.0003072521
8.354739e-05
8.408306e-05
8.352643e-05
8.434249e-05
8.409138e-05
8.355576e-05
8.450362e-05
8.43481e-05
8.41201e-05
8.362447e-05
8.46185e-05
8.449957e-05
8.436129e-05
8.415889e-05
8.375419e-05
8.470724e-05
8.460366e-05
8.449646e-05
8.43725e-05
8.422112e-05
0.0001257799
8.47816e-05
8.468534e-05
8.458984e-05
8.449045e-05
8.439717e-05
0.0001263643
0.000125924
8.484528e-05
8.475236e-05
8.466113e-05
8.456891e-05
8.448832e-05
0.0001265676
0.000126358
0.0001260261
8.491559e-05
8.482555e-05
8.4737e-05
8.464809e-05
8.457022e-05
0.000126708
0.0001265444
0.0001263579
0.0001261
8.498967e-05
8.490235e-05
8.481612e-05
8.472934e-05
8.46521e-05
0.0001268367
0.0001266855
0.0001265273
0.0001263518
0.0001261399
8.506709e-05
8.498268e-05
8.489898e-05
8.481449e-05
8.473807e-05
0.0001269697
0.0001268243
0.0001266754
0.0001265187
0.0001263513
0.0003072426
8.514568e-05
8.506431e-05
8.498333e-05
8.490136e-05
8.482627e-05
0.0001271059
0.0001269651
0.0001268214
0.0001266725
0.0001265182
0.0003076939
0.0003073147
8.361603e-05
8.409297e-05
8.356228e-05
8.434249e-05
8.409138e-05
8.355576e-05
8.450714e-05
8.434782e-05
8.411051e-05
8.358952e-05
8.462917e-05
8.450728e-05
8.436211e-05
8.414256e-05
8.368945e-05
8.472615e-05
8.462119e-05
8.451052e-05
8.437809e-05
8.420508e-05
0.0001256553
8.480589e-05
8.470938e-05
8.461267e-05
8.450989e-05
8.440834e-05
0.0001263461
0.0001257912
8.487541e-05
8.478343e-05
8.469304e-05
8.46011e-05
8.451969e-05
0.0001266066
0.0001263701
0.0001259377
8.49363e-05
8.484692e-05
8.475908e-05
8.467081e-05
8.459345e-05
0.0001267415
0.0001265721
0.0001263666
0.0001260373
8.500376e-05
8.4917e-05
8.483144e-05
8.47454e-05
8.466911e-05
0.000126863
0.0001267118
0.0001265512
0.0001263655
0.0001261119
8.507493e-05
8.499083e-05
8.49075e-05
8.482346e-05
8.474762e-05
0.0001269848
0.0001268399
0.0001266911
0.0001265333
0.0001263606
0.0003072129
8.514925e-05
8.506802e-05
8.498721e-05
8.490544e-05
8.483063e-05
0.0001271128
0.0001269724
0.000126829
0.0001266804
0.0001265258
0.0003077071
0.0003073083
8.522466e-05
8.514641e-05
8.506831e-05
8.498907e-05
8.491576e-05
0.0001272444
0.0001271081
0.0001269691
0.0001268255
0.0001266784
0.0003081009
0.000307742
0.0003074087
8.370606e-05
8.41102e-05
8.363016e-05
8.434281e-05
8.410114e-05
8.359117e-05
8.450714e-05
8.434782e-05
8.411051e-05
8.358952e-05
8.46343e-05
8.451079e-05
8.436188e-05
8.413315e-05
8.365512e-05
8.473798e-05
8.463179e-05
8.451822e-05
8.4379e-05
8.418926e-05
0.0001255593
8.482502e-05
8.472814e-05
8.463011e-05
8.452392e-05
8.441424e-05
0.0001263224
0.0001256679
8.489929e-05
8.48075e-05
8.471691e-05
8.46238e-05
8.453931e-05
0.0001266232
0.0001263519
0.0001258062
8.496524e-05
8.487682e-05
8.479e-05
8.470261e-05
8.462587e-05
0.0001267882
0.0001266106
0.0001263786
0.0001259499
8.502373e-05
8.493758e-05
8.485273e-05
8.476745e-05
8.469203e-05
0.0001268977
0.0001267449
0.0001265787
0.0001263742
0.0001260502
8.508847e-05
8.500486e-05
8.492213e-05
8.483879e-05
8.476386e-05
0.0001270102
0.000126866
0.0001267173
0.0001265571
0.0001263744
0.0003071515
8.51568e-05
8.507584e-05
8.499536e-05
8.491398e-05
8.48397e-05
0.0001271271
0.0001269873
0.0001268445
0.000126696
0.0001265404
0.00030773
0.0003072859
8.52281e-05
8.514997e-05
8.507202e-05
8.499296e-05
8.49199e-05
0.0001272509
0.000127115
0.0001269763
0.0001268331
0.0001266862
0.000308119
0.0003077551
0.0003074071
8.530039e-05
8.522521e-05
8.514997e-05
8.507345e-05
8.500207e-05
0.000127378
0.0001272462
0.0001271114
0.0001269725
0.0001268304
0.0003084807
0.0003081385
0.0003078137
0.0003074916
8.380426e-05
8.412812e-05
8.37191e-05
8.434213e-05
8.411812e-05
8.365814e-05
8.450362e-05
8.43481e-05
8.41201e-05
8.362447e-05
8.46343e-05
8.451079e-05
8.436188e-05
8.413315e-05
8.365512e-05
8.474378e-05
8.46369e-05
8.452174e-05
8.437883e-05
8.41801e-05
0.0001255084
8.483719e-05
8.473989e-05
8.464066e-05
8.453162e-05
8.441536e-05
0.000126299
0.0001255728
8.491822e-05
8.482649e-05
8.473556e-05
8.464116e-05
8.455346e-05
0.000126632
0.0001263284
0.0001256841
8.498858e-05
8.490051e-05
8.481391e-05
8.472633e-05
8.464862e-05
0.0001268173
0.0001266269
0.0001263605
0.0001258197
8.505158e-05
8.496632e-05
8.488248e-05
8.479825e-05
8.472396e-05
0.0001269459
0.0001267911
0.0001266169
0.0001263861
0.0001259641
8.510777e-05
8.502472e-05
8.494264e-05
8.486003e-05
8.478604e-05
0.0001270443
0.0001269003
0.0001267502
0.0001265844
0.0001263832
0.0003070108
8.516985e-05
8.508932e-05
8.500938e-05
8.492861e-05
8.485516e-05
0.0001271514
0.0001270126
0.0001268706
0.0001267221
0.0001265642
0.0003077638
0.0003072378
8.523539e-05
8.51575e-05
8.507984e-05
8.500112e-05
8.492852e-05
0.0001272645
0.0001271292
0.0001269912
0.0001268486
0.0001267019
0.0003081539
0.0003077779
0.0003073956
8.530372e-05
8.522864e-05
8.515353e-05
8.507716e-05
8.500599e-05
0.0001273841
0.0001272527
0.0001271183
0.0001269798
0.000126838
0.0003084993
0.0003081556
0.0003078273
0.0003074955
8.537296e-05
8.53008e-05
8.522839e-05
8.515459e-05
8.508524e-05
0.0001275069
0.0001273794
0.000127249
0.0001271143
0.0001269766
0.0003088424
0.0003085093
0.0003081947
0.0003078744
0.0003075766
8.387447e-05
8.414251e-05
8.381604e-05
8.433673e-05
8.413578e-05
8.374572e-05
8.449588e-05
8.434738e-05
8.413676e-05
8.369049e-05
8.462917e-05
8.450728e-05
8.436211e-05
8.414256e-05
8.368945e-05
8.474378e-05
8.46369e-05
8.452174e-05
8.437883e-05
8.41801e-05
0.0001255084
8.484321e-05
8.474566e-05
8.464575e-05
8.453515e-05
8.44153e-05
0.0001262855
0.0001255223
8.493039e-05
8.48386e-05
8.474726e-05
8.465167e-05
8.456123e-05
0.0001266338
0.0001263053
0.0001255899
8.500714e-05
8.49193e-05
8.483278e-05
8.474488e-05
8.466599e-05
0.0001268384
0.0001266356
0.0001263372
0.0001256988
8.507435e-05
8.498947e-05
8.490601e-05
8.4822e-05
8.474768e-05
0.0001269797
0.0001268199
0.0001266329
0.000126368
0.0001258351
8.513463e-05
8.505238e-05
8.497124e-05
8.488966e-05
8.481692e-05
0.0001270919
0.0001269481
0.000126796
0.0001266223
0.0001263952
0.0003068099
8.518856e-05
8.510851e-05
8.502915e-05
8.494907e-05
8.48765e-05
0.0001271844
0.0001270465
0.0001269046
0.0001267547
0.0001265913
0.0003077842
0.000307112
8.524801e-05
8.51705e-05
8.50933e-05
8.501513e-05
8.494325e-05
0.0001272875
0.0001271533
0.0001270163
0.0001268745
0.0001267278
0.0003082102
0.0003078117
0.0003073679
8.531078e-05
8.523591e-05
8.516106e-05
8.508499e-05
8.501423e-05
0.000127397
0.0001272661
0.0001271325
0.0001269946
0.0001268534
0.0003085363
0.0003081883
0.0003078512
0.0003074971
8.537618e-05
8.530411e-05
8.523182e-05
8.515815e-05
8.508899e-05
0.0001275128
0.0001273856
0.0001272554
0.0001271212
0.0001269838
0.0003088604
0.0003085266
0.000308211
0.0003078887
0.0003075868
8.544245e-05
8.537324e-05
8.530364e-05
8.523256e-05
8.516534e-05
0.0001276312
0.0001275081
0.0001273818
0.0001272514
0.0001271178
0.0003091915
0.0003088631
0.0003085532
0.0003082411
0.0003079357
8.392614e-05
8.413694e-05
8.388508e-05
8.432602e-05
8.415e-05
8.384095e-05
8.448166e-05
8.434198e-05
8.415402e-05
8.377665e-05
8.46185e-05
8.449957e-05
8.436129e-05
8.415889e-05
8.375419e-05
8.473798e-05
8.463179e-05
8.451822e-05
8.4379e-05
8.418926e-05
0.0001255593
8.484321e-05
8.474566e-05
8.464575e-05
8.453515e-05
8.44153e-05
0.0001262855
0.0001255223
8.493643e-05
8.484459e-05
8.4753e-05
8.465675e-05
8.456479e-05
0.0001266337
0.0001262919
0.0001255399
8.501916e-05
8.493141e-05
8.484483e-05
8.475652e-05
8.467651e-05
0.00012685
0.0001266373
0.0001263144
0.0001256055
8.50925e-05
8.500792e-05
8.492471e-05
8.484078e-05
8.47662e-05
0.0001270056
0.0001268407
0.0001266415
0.000126345
0.0001257153
8.515687e-05
8.507499e-05
8.499425e-05
8.491305e-05
8.484063e-05
0.0001271271
0.0001269815
0.0001268243
0.000126638
0.000126377
0.0003065079
8.521456e-05
8.513521e-05
8.505669e-05
8.497755e-05
8.490618e-05
0.0001272304
0.0001270936
0.0001269519
0.0001268001
0.0001266289
0.00030781
0.0003069174
8.52662e-05
8.51891e-05
8.511242e-05
8.503485e-05
8.496377e-05
0.0001273194
0.0001271861
0.0001270499
0.0001269082
0.0001267601
0.0003082727
0.0003078296
0.0003072648
8.532302e-05
8.524848e-05
8.517403e-05
8.509844e-05
8.502831e-05
0.0001274191
0.0001272891
0.0001271564
0.0001270196
0.0001268791
0.0003085972
0.0003082409
0.0003078882
0.0003074951
8.538305e-05
8.531115e-05
8.523909e-05
8.516568e-05
8.509687e-05
0.0001275251
0.0001273984
0.0001272689
0.0001271352
0.0001269986
0.0003088967
0.0003085607
0.0003082419
0.0003079143
0.0003076034
8.544557e-05
8.537645e-05
8.530696e-05
8.523599e-05
8.516893e-05
0.0001276368
0.0001275139
0.0001273879
0.0001272578
0.0001271246
0.0003092085
0.0003088797
0.0003085692
0.0003082564
0.0003079507
8.55089e-05
8.544261e-05
8.53758e-05
8.530742e-05
8.524241e-05
0.0001277509
0.0001276321
0.0001275101
0.0001273838
0.0001272543
0.0003095294
0.0003092054
0.0003088968
0.0003085883
0.0003082873
8.395228e-05
8.413381e-05
8.393589e-05
8.430065e-05
8.414436e-05
8.390813e-05
8.446184e-05
8.433139e-05
8.416782e-05
8.387005e-05
8.460083e-05
8.448546e-05
8.435582e-05
8.41757e-05
8.383826e-05
8.472615e-05
8.462119e-05
8.451052e-05
8.437809e-05
8.420508e-05
0.0001256553
8.483719e-05
8.473989e-05
8.464066e-05
8.453162e-05
8.441536e-05
0.000126299
0.0001255728
8.493643e-05
8.484459e-05
8.4753e-05
8.465675e-05
8.456479e-05
0.0001266337
0.0001262919
0.0001255399
8.502514e-05
8.493742e-05
8.485079e-05
8.476225e-05
8.46816e-05
0.0001268553
0.0001266373
0.0001263012
0.000125556
8.510433e-05
8.501988e-05
8.493675e-05
8.485276e-05
8.477782e-05
0.0001270212
0.0001268522
0.0001266432
0.0001263224
0.000125623
8.517464e-05
8.509304e-05
8.50126e-05
8.493165e-05
8.485936e-05
0.0001271547
0.0001270071
0.0001268449
0.0001266465
0.0001263542
0.0003062289
8.52363e-05
8.51573e-05
8.507916e-05
8.500043e-05
8.492951e-05
0.0001272657
0.0001271284
0.0001269849
0.000126828
0.0001266443
0.0003077654
0.0003066192
8.529143e-05
8.521495e-05
8.5139e-05
8.506228e-05
8.499228e-05
0.0001273636
0.0001272317
0.0001270966
0.0001269551
0.0001268052
0.0003083585
0.000307851
0.000307075
8.534074e-05
8.526657e-05
8.519257e-05
8.51175e-05
8.504808e-05
0.0001274496
0.0001273206
0.0001271889
0.0001270528
0.0001269126
0.0003086718
0.0003082966
0.0003079076
0.0003074253
8.539495e-05
8.532335e-05
8.525163e-05
8.517863e-05
8.511038e-05
0.0001275461
0.0001274203
0.0001272917
0.000127159
0.0001270234
0.000308957
0.0003086168
0.0003082924
0.000307956
0.0003076337
8.545226e-05
8.538329e-05
8.531399e-05
8.524325e-05
8.51765e-05
0.0001276486
0.0001275261
0.0001274007
0.0001272712
0.0001271386
0.0003092433
0.0003089129
0.0003086005
0.0003082856
0.0003079786
8.551195e-05
8.544573e-05
8.537901e-05
8.531073e-05
8.524586e-05
0.0001277563
0.0001276377
0.0001275159
0.0001273899
0.0001272607
0.0003095455
0.000309221
0.0003089119
0.0003086029
0.0003083018
8.557238e-05
8.550898e-05
8.544492e-05
8.537923e-05
8.531648e-05
0.0001278662
0.0001277517
0.0001276338
0.0001275118
0.0001273863
0.000309857
0.0003095374
0.0003092304
0.0003089227
0.0003086232
8.396601e-05
8.412719e-05
8.396148e-05
8.428309e-05
8.414111e-05
8.395746e-05
8.443053e-05
8.43062e-05
8.416173e-05
8.39352e-05
8.457761e-05
8.446585e-05
8.434518e-05
8.418902e-05
8.392873e-05
8.470724e-05
8.460366e-05
8.449646e-05
8.43725e-05
8.422112e-05
0.0001257799
8.482502e-05
8.472814e-05
8.463011e-05
8.452392e-05
8.441424e-05
0.0001263224
0.0001256679
8.493039e-05
8.48386e-05
8.474726e-05
8.465167e-05
8.456123e-05
0.0001266338
0.0001263053
0.0001255899
8.502514e-05
8.493742e-05
8.485079e-05
8.476225e-05
8.46816e-05
0.0001268553
0.0001266373
0.0001263012
0.000125556
8.511022e-05
8.502584e-05
8.494274e-05
8.48587e-05
8.478353e-05
0.0001270288
0.0001268575
0.0001266432
0.0001263093
0.0001255739
8.518626e-05
8.510481e-05
8.502451e-05
8.494364e-05
8.487131e-05
0.000127172
0.0001270227
0.0001268564
0.0001266482
0.0001263318
0.0003060138
8.525371e-05
8.517497e-05
8.509713e-05
8.501869e-05
8.494804e-05
0.0001272936
0.0001271558
0.0001270103
0.0001268484
0.0001266527
0.0003077118
0.0003063506
8.531274e-05
8.523656e-05
8.516097e-05
8.508463e-05
8.50151e-05
0.0001273983
0.0001272666
0.0001271312
0.0001269878
0.0001268328
0.0003083922
0.0003077993
0.0003067676
8.536529e-05
8.529166e-05
8.52183e-05
8.514398e-05
8.507552e-05
0.0001274921
0.0001273645
0.0001272342
0.0001270992
0.0001269592
0.0003087754
0.000308376
0.0003079312
0.0003072191
8.541225e-05
8.534097e-05
8.526965e-05
8.519711e-05
8.512947e-05
0.0001275756
0.0001274506
0.000127323
0.0001271913
0.0001270564
0.0003090343
0.0003086835
0.0003083435
0.0003079807
0.0003076216
8.546386e-05
8.539515e-05
8.532616e-05
8.525578e-05
8.518951e-05
0.0001276687
0.000127547
0.0001274224
0.0001272938
0.0001271623
0.0003093014
0.0003089681
0.0003086525
0.0003083343
0.0003080276
8.551847e-05
8.545239e-05
8.538584e-05
8.531777e-05
8.525316e-05
0.0001277676
0.0001276494
0.0001275281
0.0001274026
0.000127274
0.0003095784
0.0003092526
0.0003089419
0.0003086312
0.0003083292
8.557535e-05
8.551201e-05
8.544803e-05
8.538244e-05
8.531981e-05
0.0001278714
0.000127757
0.0001276394
0.0001275176
0.0001273924
0.0003098721
0.0003095521
0.0003092446
0.0003089362
0.0003086363
8.563294e-05
8.557237e-05
8.551106e-05
8.544805e-05
8.538759e-05
0.000127977
0.0001278668
0.0001277531
0.0001276352
0.0001275139
0.0003101743
0.00030986
0.0003095552
0.0003092485
0.0003089482
8.39712e-05
8.412285e-05
8.39749e-05
8.426827e-05
8.413434e-05
8.398201e-05
8.440856e-05
8.42887e-05
8.4158e-05
8.398286e-05
8.454493e-05
8.44348e-05
8.431992e-05
8.418236e-05
8.399023e-05
8.468297e-05
8.458068e-05
8.447695e-05
8.436178e-05
8.423338e-05
0.0001259139
8.480589e-05
8.470938e-05
8.461267e-05
8.450989e-05
8.440834e-05
0.0001263461
0.0001257912
8.491822e-05
8.482649e-05
8.473556e-05
8.464116e-05
8.455346e-05
0.000126632
0.0001263284
0.0001256841
8.501916e-05
8.493141e-05
8.484483e-05
8.475652e-05
8.467651e-05
0.00012685
0.0001266373
0.0001263144
0.0001256055
8.511022e-05
8.502584e-05
8.494274e-05
8.48587e-05
8.478353e-05
0.0001270288
0.0001268575
0.0001266432
0.0001263093
0.0001255739
8.519205e-05
8.511068e-05
8.503044e-05
8.49496e-05
8.487723e-05
0.0001271805
0.0001270302
0.0001268616
0.0001266483
0.000126319
0.0003058997
8.526514e-05
8.518654e-05
8.510885e-05
8.503054e-05
8.495999e-05
0.0001273114
0.0001271729
0.0001270257
0.0001268598
0.0001266544
0.0003076602
0.0003061461
8.532983e-05
8.525389e-05
8.517856e-05
8.510251e-05
8.50333e-05
0.0001274259
0.0001272943
0.0001271582
0.0001270129
0.000126853
0.0003084112
0.0003077447
0.0003065011
8.538622e-05
8.531285e-05
8.52398e-05
8.516584e-05
8.509781e-05
0.0001275261
0.0001273989
0.0001272688
0.0001271333
0.0001269914
0.0003088378
0.0003084002
0.0003078682
0.0003068905
8.54362e-05
8.53654e-05
8.529464e-05
8.522276e-05
8.515596e-05
0.0001276165
0.0001274928
0.0001273666
0.0001272362
0.0001271025
0.000309142
0.0003087806
0.0003084241
0.0003080011
0.000307408
8.548079e-05
8.541236e-05
8.534372e-05
8.527374e-05
8.5208e-05
0.0001276972
0.0001275763
0.0001274526
0.0001273249
0.0001271943
0.0003093777
0.0003090375
0.0003087126
0.0003083821
0.0003080662
8.55298e-05
8.546394e-05
8.539767e-05
8.532991e-05
8.526572e-05
0.0001277871
0.0001276695
0.0001275488
0.0001274242
0.0001272965
0.0003096337
0.0003093056
0.0003089923
0.000308679
0.0003083772
8.558173e-05
8.551851e-05
8.545468e-05
8.538927e-05
8.532687e-05
0.0001278823
0.0001277683
0.000127651
0.0001275297
0.000127405
0.0003099033
0.000309582
0.0003092729
0.0003089626
0.0003086614
8.563584e-05
8.557534e-05
8.551409e-05
8.545116e-05
8.539081e-05
0.000127982
0.0001278719
0.0001277584
0.0001276408
0.0001275196
0.0003101886
0.0003098738
0.0003095684
0.000309261
0.0003089599
8.56906e-05
8.563286e-05
8.557426e-05
8.551392e-05
8.545579e-05
0.0001280834
0.0001279774
0.000127868
0.0001277543
0.000127637
0.0003104815
0.0003101731
0.0003098718
0.0003095668
0.0003092662
8.412022e-05
8.397994e-05
8.42594e-05
8.412989e-05
8.399478e-05
8.43916e-05
8.427385e-05
8.415081e-05
8.400622e-05
8.452185e-05
8.441296e-05
8.430224e-05
8.417805e-05
8.403477e-05
8.465064e-05
8.454827e-05
8.444598e-05
8.433636e-05
8.422526e-05
0.0001260046
8.47816e-05
8.468534e-05
8.458984e-05
8.449045e-05
8.439717e-05
0.0001263643
0.000125924
8.489929e-05
8.48075e-05
8.471691e-05
8.46238e-05
8.453931e-05
0.0001266232
0.0001263519
0.0001258062
8.500714e-05
8.49193e-05
8.483278e-05
8.474488e-05
8.466599e-05
0.0001268384
0.0001266356
0.0001263372
0.0001256988
8.510433e-05
8.501988e-05
8.493675e-05
8.485276e-05
8.477782e-05
0.0001270212
0.0001268522
0.0001266432
0.0001263224
0.000125623
8.519205e-05
8.511068e-05
8.503044e-05
8.49496e-05
8.487723e-05
0.0001271805
0.0001270302
0.0001268616
0.0001266483
0.000126319
0.0003058997
8.527084e-05
8.519232e-05
8.511469e-05
8.503645e-05
8.496593e-05
0.0001273202
0.0001271814
0.0001270332
0.000126865
0.0001266545
0.0003076307
0.0003060382
8.534108e-05
8.526527e-05
8.519009e-05
8.511418e-05
8.504511e-05
0.0001274437
0.000127312
0.0001271753
0.0001270282
0.0001268642
0.0003084154
0.0003076949
0.0003063026
8.540302e-05
8.532986e-05
8.525706e-05
8.518335e-05
8.511563e-05
0.0001275533
0.0001274264
0.0001272962
0.0001271602
0.0001270163
0.0003088843
0.0003084144
0.0003078095
0.0003066198
8.545679e-05
8.538621e-05
8.531573e-05
8.524416e-05
8.517775e-05
0.0001276497
0.0001275265
0.0001274007
0.0001272705
0.0001271363
0.0003092157
0.0003088335
0.000308437
0.0003079241
0.0003070326
8.55042e-05
8.543619e-05
8.536805e-05
8.529865e-05
8.523365e-05
0.0001277367
0.000127617
0.0001274945
0.0001273682
0.0001272389
0.0003094846
0.0003091395
0.0003088109
0.000308463
0.0003081072
0.0007765281
8.55464e-05
8.548079e-05
8.541482e-05
8.534741e-05
8.52837e-05
0.0001278146
0.0001276977
0.0001275779
0.0001274541
0.0001273274
0.0003097079
0.0003093745
0.0003090545
0.0003087325
0.0003084245
8.559282e-05
8.552979e-05
8.546621e-05
8.540107e-05
8.533904e-05
0.000127901
0.0001277876
0.000127671
0.0001275503
0.0001274265
0.000309956
0.0003096325
0.0003093208
0.0003090077
0.0003087051
8.564208e-05
8.558169e-05
8.552058e-05
8.545781e-05
8.539766e-05
0.0001279926
0.0001278828
0.0001277696
0.0001276523
0.0001275317
0.0003102182
0.0003099021
0.000309595
0.0003092855
0.0003089826
8.569345e-05
8.563575e-05
8.557722e-05
8.551695e-05
8.545891e-05
0.0001280883
0.0001279824
0.0001278731
0.0001277596
0.0001276425
0.000310495
0.0003101862
0.0003098841
0.0003095783
0.0003092768
8.574544e-05
8.569046e-05
8.563457e-05
8.557689e-05
8.55211e-05
0.0001281855
0.0001280837
0.0001279785
0.000127869
0.0001277558
0.0003107784
0.0003104768
0.0003101798
0.0003098778
0.0003095779
8.425487e-05
8.41272e-05
8.399952e-05
8.438161e-05
8.426494e-05
8.414606e-05
8.401825e-05
8.450466e-05
8.439603e-05
8.428718e-05
8.417034e-05
8.405582e-05
8.46277e-05
8.452534e-05
8.442409e-05
8.431844e-05
8.421957e-05
0.00012607
8.475028e-05
8.465327e-05
8.455757e-05
8.445948e-05
8.437101e-05
0.000126352
0.0001260136
8.487541e-05
8.478343e-05
8.469304e-05
8.46011e-05
8.451969e-05
0.0001266066
0.0001263701
0.0001259377
8.498858e-05
8.490051e-05
8.481391e-05
8.472633e-05
8.464862e-05
0.0001268173
0.0001266269
0.0001263605
0.0001258197
8.50925e-05
8.500792e-05
8.492471e-05
8.484078e-05
8.47662e-05
0.0001270056
0.0001268407
0.0001266415
0.000126345
0.0001257153
8.518626e-05
8.510481e-05
8.502451e-05
8.494364e-05
8.487131e-05
0.000127172
0.0001270227
0.0001268564
0.0001266482
0.0001263318
0.0003060138
8.527084e-05
8.519232e-05
8.511469e-05
8.503645e-05
8.496593e-05
0.0001273202
0.0001271814
0.0001270332
0.000126865
0.0001266545
0.0003076307
0.0003060382
8.53467e-05
8.527095e-05
8.519584e-05
8.512001e-05
8.505099e-05
0.0001274526
0.0001273207
0.0001271837
0.0001270356
0.0001268694
0.0003084158
0.0003076672
0.0003061989
8.541412e-05
8.534108e-05
8.52684e-05
8.519483e-05
8.512726e-05
0.0001275709
0.0001274441
0.0001273138
0.0001271771
0.0001270315
0.0003089104
0.0003084169
0.0003077597
0.0003064239
8.547334e-05
8.540295e-05
8.533267e-05
8.526134e-05
8.519521e-05
0.0001276763
0.0001275535
0.0001274279
0.0001272977
0.0001271629
0.0003092733
0.000308874
0.0003084449
0.0003078597
0.000306743
8.552448e-05
8.545668e-05
8.538877e-05
8.531965e-05
8.525499e-05
0.0001277692
0.0001276499
0.000127528
0.000127402
0.0001272729
0.0003095624
0.0003092045
0.0003088536
0.0003084642
0.0003080021
0.0007750585
8.556934e-05
8.55041e-05
8.543857e-05
8.537167e-05
8.53086e-05
0.0001278529
0.000127737
0.0001276183
0.0001274958
0.0001273704
0.000309812
0.0003094767
0.0003091582
0.0003088333
0.0003085308
0.0007784594
0.0007769549
8.560912e-05
8.554632e-05
8.5483e-05
8.541817e-05
8.535655e-05
0.0001279279
0.000127815
0.000127699
0.0001275791
0.0001274561
0.0003100276
0.0003096997
0.0003093825
0.0003090621
0.0003087524
8.565295e-05
8.559273e-05
8.553183e-05
8.546931e-05
8.540949e-05
0.0001280107
0.0001279014
0.0001277888
0.0001276721
0.0001275522
0.0003102684
0.0003099501
0.0003096404
0.0003093277
0.0003090222
8.569957e-05
8.564197e-05
8.558356e-05
8.552343e-05
8.546557e-05
0.0001280985
0.0001279929
0.0001278839
0.0001277707
0.000127654
0.0003105232
0.000310213
0.0003099091
0.0003096011
0.0003092974
8.574822e-05
8.56933e-05
8.563746e-05
8.557984e-05
8.552414e-05
0.0001281902
0.0001280885
0.0001279834
0.000127874
0.0001277611
0.0003107913
0.0003104891
0.0003101914
0.0003098885
0.0003095876
8.579746e-05
8.574524e-05
8.569202e-05
8.563698e-05
8.558357e-05
0.0001282833
0.0001281857
0.0001280846
0.0001279793
0.0001278703
0.0003110652
0.0003107708
0.0003104792
0.0003101812
0.0003098834
8.437668e-05
8.426039e-05
8.414322e-05
8.402263e-05
8.449459e-05
8.438602e-05
8.427811e-05
8.416524e-05
8.406639e-05
8.461094e-05
8.450819e-05
8.440705e-05
8.430311e-05
8.421072e-05
0.0001261007
8.472798e-05
8.463048e-05
8.453466e-05
8.44375e-05
8.435232e-05
0.0001263432
0.0001260783
8.484528e-05
8.475236e-05
8.466113e-05
8.456891e-05
8.448832e-05
0.0001265676
0.000126358
0.0001260261
8.496524e-05
8.487682e-05
8.479e-05
8.470261e-05
8.462587e-05
0.0001267882
0.0001266106
0.0001263786
0.0001259499
8.507435e-05
8.498947e-05
8.490601e-05
8.4822e-05
8.474768e-05
0.0001269797
0.0001268199
0.0001266329
0.000126368
0.0001258351
8.517464e-05
8.509304e-05
8.50126e-05
8.493165e-05
8.485936e-05
0.0001271547
0.0001270071
0.0001268449
0.0001266465
0.0001263542
0.0003062289
8.526514e-05
8.518654e-05
8.510885e-05
8.503054e-05
8.495999e-05
0.0001273114
0.0001271729
0.0001270257
0.0001268598
0.0001266544
0.0003076602
0.0003061461
8.53467e-05
8.527095e-05
8.519584e-05
8.512001e-05
8.505099e-05
0.0001274526
0.0001273207
0.0001271837
0.0001270356
0.0001268694
0.0003084158
0.0003076672
0.0003061989
8.541967e-05
8.534668e-05
8.527406e-05
8.520057e-05
8.513306e-05
0.0001275797
0.0001274529
0.0001273225
0.0001271855
0.0001270389
0.0003089227
0.0003084169
0.0003077326
0.0003063227
8.548429e-05
8.5414e-05
8.534385e-05
8.527264e-05
8.520665e-05
0.0001276937
0.000127571
0.0001274455
0.0001273152
0.0001271797
0.0003093087
0.0003088972
0.0003084448
0.0003078088
0.0003065448
8.554081e-05
8.547316e-05
8.540545e-05
8.533653e-05
8.527212e-05
0.0001277953
0.0001276764
0.0001275547
0.0001274291
0.0001272999
0.0003096243
0.0003092562
0.0003088875
0.0003084656
0.0003079229
0.0007740521
8.558935e-05
8.552428e-05
8.545896e-05
8.539231e-05
8.532954e-05
0.0001278848
0.0001277693
0.0001276511
0.000127529
0.000127404
0.0003098907
0.0003095469
0.0003092145
0.0003088663
0.0003085104
0.0007780431
0.0007756163
8.563164e-05
8.556916e-05
8.550622e-05
8.544185e-05
8.53808e-05
0.0001279651
0.0001278531
0.0001277381
0.0001276194
0.0001274976
0.0003101284
0.0003098002
0.0003094872
0.0003091702
0.0003088797
0.0007796996
0.0007786448
0.000777196
8.566899e-05
8.560896e-05
8.55483e-05
8.548604e-05
8.542658e-05
0.0001280369
0.000127928
0.0001278161
0.0001277
0.0001275808
0.0003103375
0.0003100153
0.0003097007
0.0003093812
0.0003090675
8.571024e-05
8.56528e-05
8.559457e-05
8.553466e-05
8.547709e-05
0.0001281162
0.000128011
0.0001279024
0.0001277898
0.0001276737
0.0003105713
0.0003102587
0.000309952
0.0003096405
0.0003093333
8.575424e-05
8.56994e-05
8.564366e-05
8.558617e-05
8.553064e-05
0.0001282001
0.0001280987
0.0001279938
0.0001278848
0.0001277721
0.0003108184
0.0003105147
0.000310215
0.0003099097
0.0003096063
8.58002e-05
8.574802e-05
8.569484e-05
8.563986e-05
8.558653e-05
0.0001282878
0.0001281903
0.0001280894
0.0001279842
0.0001278753
0.0003110776
0.0003107826
0.0003104901
0.0003101911
0.0003098922
8.584672e-05
8.579723e-05
8.574665e-05
8.569423e-05
8.564321e-05
0.0001283768
0.0001282834
0.0001281864
0.0001280852
0.0001279804
0.0003113417
0.0003110552
0.0003107696
0.0003104767
0.0003101822
8.448969e-05
8.438108e-05
8.427347e-05
8.416223e-05
8.407005e-05
8.460115e-05
8.449813e-05
8.439694e-05
8.429383e-05
8.420484e-05
0.000126116
8.471189e-05
8.461377e-05
8.451745e-05
8.442031e-05
8.43363e-05
0.0001263297
0.0001261084
8.482378e-05
8.47302e-05
8.463839e-05
8.454598e-05
8.446587e-05
0.0001265396
0.0001263493
0.0001260897
8.49363e-05
8.484692e-05
8.475908e-05
8.467081e-05
8.459345e-05
0.0001267415
0.0001265721
0.0001263666
0.0001260373
8.505158e-05
8.496632e-05
8.488248e-05
8.479825e-05
8.472396e-05
0.0001269459
0.0001267911
0.0001266169
0.0001263861
0.0001259641
8.515687e-05
8.507499e-05
8.499425e-05
8.491305e-05
8.484063e-05
0.0001271271
0.0001269815
0.0001268243
0.000126638
0.000126377
0.0003065079
8.525371e-05
8.517497e-05
8.509713e-05
8.501869e-05
8.494804e-05
0.0001272936
0.0001271558
0.0001270103
0.0001268484
0.0001266527
0.0003077118
0.0003063506
8.534108e-05
8.526527e-05
8.519009e-05
8.511418e-05
8.504511e-05
0.0001274437
0.000127312
0.0001271753
0.0001270282
0.0001268642
0.0003084154