/*--------------------------------*- C++ -*----------------------------------*\
| =========                 |                                                 |
| \\      /  F ield         | OpenFOAM: The Open Source CFD Toolbox           |
|  \\    /   O peration     | Version:  2306                                  |
|   \\  /    A nd           | Website:  www.openfoam.com                      |
|    \\/     M anipulation  |                                                 |
\*---------------------------------------------------------------------------*/
FoamFile
{
    version     2.0;
    format      ascii;
    arch        "LSB;label=32;scalar=64";
    class       volScalarField;
    location    "0.3/fuel";
    object      eta.fuel;
}
// * * * * * * * * * * * * * * * * * * * * * * * * * * * * * * * * * * * * * //

dimensions      [1 2 -3 0 0 -1 0];

internalField   nonuniform List<scalar> 
16000
(
0.09202847
0.09243761
0.08702092
0.08837143
0.09323306
0.08729967
0.0887538
0.08251785
0.08366361
0.0857338
0.09439112
0.08782918
0.08949621
0.08273694
0.0839246
0.08609843
0.07881947
0.07942553
0.08122836
0.0840723
0.09581319
0.08857498
0.09057646
0.08314791
0.08441961
0.08680601
0.07900293
0.0796309
0.0814772
0.08442763
0.07571081
0.07594307
0.07717342
0.07967789
0.0833605
0.09723423
0.08944095
0.09190194
0.08371532
0.08511645
0.08783605
0.07934402
0.08001547
0.08194874
0.08511747
0.07586999
0.07611521
0.07736923
0.07991986
0.08371472
0.07301891
0.07301449
0.07384253
0.0757292
0.07898908
0
0.09812652
0.09023432
0.09322551
0.08435105
0.08592469
0.08910122
0.07980718
0.08054607
0.08261261
0.08612327
0.07616398
0.07643464
0.07773547
0.08037831
0.08440336
0.07316031
0.07316398
0.07400669
0.07591936
0.07922927
0
0.07063706
0.07047707
0.07104167
0.07248933
0.07507262
0
0
0.09854978
0.09067692
0.09404886
0.08489806
0.08666394
0.09036701
0.08031029
0.08113961
0.0833826
0.0873623
0.07655746
0.07686797
0.07824067
0.08102422
0.08541004
0.07342019
0.07343951
0.0743109
0.07627488
0.07968464
0
0.070765
0.07060998
0.07118428
0.07264866
0.07526091
0
0
0.06849094
0.0682303
0.06861461
0.06976682
0.07186545
0
0
0
0.09870637
0.0908459
0.09443303
0.08517
0.08707194
0.09115014
0.08071815
0.08164889
0.08408682
0.08860779
0.07697304
0.07733764
0.0788054
0.0817743
0.08665613
0.07376365
0.07380783
0.07472338
0.07676543
0.08032711
0
0.07099933
0.07085374
0.07144675
0.07294374
0.07561304
0
0
0.06860838
0.06835067
0.06874147
0.06990522
0.07202301
0
0
0
0.06653222
0.06620416
0.06646487
0.06740846
0.06917374
0
0
0
0
0.09874886
0.09087966
0.09457036
0.08524458
0.08722396
0.09151246
0.08089475
0.08189857
0.08447232
0.08937776
0.0772905
0.07771664
0.07928917
0.08246146
0.08791794
0.07411717
0.07419566
0.07516979
0.07731394
0.08107501
0
0.07130564
0.0711754
0.0717973
0.07334381
0.07609931
0
0
0.06882302
0.06857068
0.06897377
0.07015971
0.07231482
0
0
0
0.06664125
0.06631476
0.06657983
0.06753157
0.06931049
0
0
0
0
0.06472528
0.0643532
0.06452528
0.06531975
0.0668439
0
0
0
0
0
0.09874886
0.09087458
0.09460523
0.08523376
0.0872509
0.09163979
0.08091641
0.0819638
0.08461363
0.08973449
0.07740572
0.07787738
0.07952354
0.08283583
0.08870117
0.07437163
0.07448989
0.07552877
0.0777837
0.08176254
0
0.07161371
0.07150522
0.07216563
0.07377658
0.07664375
0
0
0.06910094
0.06885772
0.06927994
0.07049951
0.07271064
0
0
0
0.06684033
0.06651649
0.0667896
0.0677568
0.06956194
0
0
0
0
0.06482743
0.06445599
0.06463098
0.06543133
0.0669655
0
0
0
0
0
0.06304324
0.06264393
0.06275231
0.06343502
0.06478149
0
0
0
0
0
0
0.09870637
0.09087458
0.09460523
0.0852118
0.08724369
0.09167102
0.0808802
0.08195029
0.08463661
0.08986056
0.07739317
0.07789343
0.0795824
0.08297225
0.0890682
0.07444467
0.07459317
0.07567822
0.07800926
0.08213671
0
0.07182287
0.07174037
0.07244348
0.07412387
0.07711061
0
0
0.06937477
0.06914509
0.06959298
0.07085612
0.07313905
0
0
0
0.0670961
0.06677713
0.0670629
0.06805349
0.06989775
0
0
0
0
0.0650139
0.0646433
0.06482345
0.06563475
0.06718793
0
0
0
0
0
0.06313972
0.06274034
0.06285062
0.06353765
0.06489168
0
0
0
0
0
0
0.0614657
0.06105107
0.06111394
0.0617118
0.06292104
0
0
0
0
0
0
0
0.09854978
0.09087966
0.09457036
0.0852118
0.08724369
0.09167102
0.08084843
0.08192797
0.08462834
0.08989191
0.07734032
0.07785645
0.07956718
0.08299394
0.08920156
0.07440883
0.0745772
0.0756902
0.0780645
0.08227387
0
0.07186622
0.07180408
0.07253804
0.07426627
0.07733359
0
0
0.0695506
0.06933777
0.06981435
0.07112404
0.07348266
0
0
0
0.06734369
0.06703259
0.06733554
0.0683563
0.07025015
0
0
0
0
0.06525192
0.06488338
0.06507173
0.06589957
0.06748093
0
0
0
0
0
0.06331596
0.06291599
0.06302947
0.06372435
0.06509251
0
0
0
0
0
0
0.06155743
0.06114223
0.06120621
0.0618073
0.06302238
0
0
0
0
0
0
0
0.05997767
0.05955547
0.05958596
0.06011887
0.06122027
0
0
0
0
0
0
0
0
0.09812652
0.0908459
0.09443303
0.08523376
0.0872509
0.09163979
0.08084843
0.08192797
0.08462834
0.08989191
0.07730199
0.07782512
0.07954475
0.08298561
0.08923672
0.07434469
0.07452464
0.07565268
0.07804849
0.08229683
0
0.07181436
0.07176621
0.07251945
0.07427561
0.07738783
0
0
0.0695728
0.06937363
0.06987113
0.07121288
0.07362208
0
0
0
0.06749459
0.06719407
0.06751637
0.06856911
0.07051436
0
0
0
0
0.06547885
0.06511443
0.06531406
0.06616313
0.06777981
0
0
0
0
0
0.06353974
0.06313963
0.06325831
0.06396496
0.06535393
0
0
0
0
0
0
0.06172519
0.06130845
0.06137407
0.06198085
0.06320669
0
0
0
0
0
0
0
0.06006528
0.05964224
0.05967328
0.06020854
0.06131457
0
0
0
0
0
0
0
0
0.05856799
0.05814309
0.05815009
0.05863264
0.05964816
0
0
0
0
0
0
0
0
0
0.09723423
0.09067692
0.09404886
0.08524458
0.08722396
0.09151246
0.0808802
0.08195029
0.08463661
0.08986056
0.07730199
0.07782512
0.07954475
0.08298561
0.08923672
0.07430191
0.07448717
0.07562167
0.07802614
0.08228942
0
0.07174264
0.071703
0.07246703
0.07423771
0.07737188
0
0
0.06951004
0.06932067
0.0698316
0.07119237
0.07363009
0
0
0
0.06750165
0.06721013
0.06754658
0.06862117
0.07060032
0
0
0
0
0.0656108
0.06525267
0.06546517
0.06633648
0.06798909
0
0
0
0
0
0.06375044
0.06335154
0.06347751
0.06419913
0.06561387
0
0
0
0
0
0
0.06193735
0.06151896
0.06158739
0.06220268
0.06344415
0
0
0
0
0
0
0
0.06022578
0.05980066
0.05983227
0.0603715
0.0614859
0
0
0
0
0
0
0
0
0.05865203
0.05822605
0.05823327
0.05871754
0.05973671
0
0
0
0
0
0
0
0
0
0.05722611
0.05680354
0.05679294
0.05723534
0.05818131
0
0
0
0
0
0
0
0
0
0
0.09581319
0.09023432
0.09322551
0.08517
0.08707194
0.09115014
0.08091641
0.0819638
0.08461363
0.08973449
0.07734032
0.07785645
0.07956718
0.08299394
0.08920156
0.07430191
0.07448717
0.07562167
0.07802614
0.08228942
0
0.07169693
0.07166132
0.07243015
0.07420693
0.0773498
0
0
0.06943344
0.06925027
0.06976895
0.0711399
0.07359197
0
0
0
0.06743156
0.06714688
0.06749261
0.06858026
0.07057855
0
0
0
0
0.06560697
0.06525457
0.06547653
0.06636274
0.06803853
0
0
0
0
0
0.06386801
0.06347213
0.06360653
0.06434361
0.06578394
0
0
0
0
0
0
0.06213517
0.06171587
0.06178849
0.06241448
0.06367499
0
0
0
0
0
0
0
0.06042812
0.06000048
0.06003324
0.06057837
0.06170482
0
0
0
0
0
0
0
0
0.05880635
0.05837781
0.05838495
0.05887199
0.05989761
0
0
0
0
0
0
0
0
0
0.05730707
0.05688321
0.05687254
0.05731626
0.05826517
0
0
0
0
0
0
0
0
0
0
0.05594279
0.05552693
0.05550469
0.05591397
0.05680208
0
0
0
0
0
0
0
0
0
0
0.09439112
0.08944095
0.09190194
0.08489806
0.08666394
0.09036701
0.08089475
0.08189857
0.08447232
0.08937776
0.07739317
0.07789343
0.0795824
0.08297225
0.0890682
0.07434469
0.07452464
0.07565268
0.07804849
0.08229683
0
0.07169693
0.07166132
0.07243015
0.07420693
0.0773498
0
0
0.06938595
0.06920579
0.06972802
0.07110335
0.07356129
0
0
0
0.067352
0.06707184
0.06742305
0.06851781
0.07052584
0
0
0
0
0.06553216
0.06518444
0.06541273
0.0663078
0.06799652
0
0
0
0
0
0.06385657
0.06346391
0.06360445
0.06435161
0.06580785
0
0
0
0
0
0
0.06224187
0.06182316
0.0619008
0.06253756
0.06381644
0
0
0
0
0
0
0
0.0606153
0.06018554
0.06022021
0.0607727
0.06191353
0
0
0
0
0
0
0
0
0.05900041
0.05856862
0.05857588
0.05906697
0.06010177
0
0
0
0
0
0
0
0
0
0.0574561
0.0570293
0.05701798
0.05746368
0.05841767
0
0
0
0
0
0
0
0
0
0
0.05602109
0.05560376
0.05558119
0.05599144
0.05688202
0
0
0
0
0
0
0
0
0
0
0.05471125
0.05430457
0.05427587
0.05465901
0.05549762
0
0
0
0
0
0
0
0
0
0
0.09323306
0.08857498
0.09057646
0.08435105
0.08592469
0.08910122
0.08071815
0.08164889
0.08408682
0.08860779
0.07740572
0.07787738
0.07952354
0.08283583
0.08870117
0.07440883
0.0745772
0.0756902
0.0780645
0.08227387
0
0.07174264
0.071703
0.07246703
0.07423771
0.07737188
0
0
0.06938595
0.06920579
0.06972802
0.07110335
0.07356129
0
0
0
0.06730357
0.06702565
0.06737941
0.06847729
0.07048935
0
0
0
0
0.06545107
0.06510658
0.06533871
0.0662386
0.06793388
0
0
0
0
0
0.06377899
0.06338936
0.06353409
0.06428715
0.06575197
0
0
0
0
0
0
0.06222536
0.06180792
0.06188917
0.06253258
0.06382234
0
0
0
0
0
0
0
0.0607135
0.06028285
0.06031998
0.06087963
0.06203382
0
0
0
0
0
0
0
0
0.05917887
0.05874393
0.05875174
0.05924769
0.06029323
0
0
0
0
0
0
0
0
0
0.0576432
0.05721254
0.05720048
0.05764903
0.05861011
0
0
0
0
0
0
0
0
0
0
0.05616561
0.05574502
0.05572133
0.05613289
0.05702762
0
0
0
0
0
0
0
0
0
0
0.05478711
0.05437895
0.05434971
0.05473351
0.05557416
0
0
0
0
0
0
0
0
0
0
0.05352737
0.05313011
0.0530982
0.05346128
0.05425849
0
0
0
0
0
0
0
0
0
0
0.09243761
0.08782918
0.08949621
0.08371532
0.08511645
0.08783605
0.08031029
0.08113961
0.0833826
0.0873623
0.0772905
0.07771664
0.07928917
0.08246146
0.08791794
0.07444467
0.07459317
0.07567822
0.07800926
0.08213671
0
0.07181436
0.07176621
0.07251945
0.07427561
0.07738783
0
0
0.06943344
0.06925027
0.06976895
0.0711399
0.07359197
0
0
0
0.06730357
0.06702565
0.06737941
0.06847729
0.07048935
0
0
0
0
0.0654023
0.06505946
0.06529341
0.06619543
0.06789343
0
0
0
0
0
0.06369741
0.06331004
0.06345736
0.06421361
0.06568265
0
0
0
0
0
0
0.06214663
0.06173081
0.06181462
0.06246178
0.06375709
0
0
0
0
0
0
0
0.06069357
0.06026301
0.06030176
0.06086547
0.06202697
0
0
0
0
0
0
0
0
0.05927049
0.05883347
0.05884216
0.05934254
0.06039758
0
0
0
0
0
0
0
0
0
0.05781452
0.0573799
0.05736721
0.05781909
0.05878817
0
0
0
0
0
0
0
0
0
0
0.05634689
0.05592191
0.05589675
0.05631015
0.05721058
0
0
0
0
0
0
0
0
0
0
0.05492756
0.0545161
0.05448534
0.05486988
0.05571388
0
0
0
0
0
0
0
0
0
0
0.05360106
0.05320225
0.05316974
0.05353323
0.05433212
0
0
0
0
0
0
0
0
0
0
0.05238614
0.0519998
0.05196564
0.05231274
0.05307565
0
0
0
0
0
0
0
0
0
0
0.09202847
0.08729967
0.0887538
0.08314791
0.08441961
0.08680601
0.07980718
0.08054607
0.08261261
0.08612327
0.07697304
0.07733764
0.0788054
0.0817743
0.08665613
0.07437163
0.07448989
0.07552877
0.0777837
0.08176254
0
0.07186622
0.07180408
0.07253804
0.07426627
0.07733359
0
0
0.06951004
0.06932067
0.0698316
0.07119237
0.07363009
0
0
0
0.067352
0.06707184
0.06742305
0.06851781
0.07052584
0
0
0
0
0.0654023
0.06505946
0.06529341
0.06619543
0.06789343
0
0
0
0
0
0.06364876
0.0632626
0.06341116
0.06416881
0.06563957
0
0
0
0
0
0
0.06206545
0.06165103
0.06173649
0.06238561
0.06368349
0
0
0
0
0
0
0
0.06061464
0.06018489
0.06022481
0.06079064
0.0619555
0
0
0
0
0
0
0
0
0.05924844
0.05881058
0.05881968
0.05932209
0.06038172
0
0
0
0
0
0
0
0
0
0.05790112
0.05746349
0.05745039
0.05790498
0.05888062
0
0
0
0
0
0
0
0
0
0
0.05651255
0.0560828
0.05605608
0.05647147
0.05737814
0
0
0
0
0
0
0
0
0
0
0.0551037
0.05468774
0.05465486
0.05504038
0.0558889
0
0
0
0
0
0
0
0
0
0
0.05373794
0.05333571
0.05330156
0.0536653
0.05446686
0
0
0
0
0
0
0
0
0
0
0.05245787
0.05206996
0.05203509
0.05238248
0.05314676
0
0
0
0
0
0
0
0
0
0
0.05128426
0.05090898
0.0508747
0.05120753
0.05194111
0
0
0
0
0
0
0
0
0
0
0.08702092
0.08837143
0.08273694
0.0839246
0.08609843
0.07934402
0.08001547
0.08194874
0.08511747
0.07655746
0.07686797
0.07824067
0.08102422
0.08541004
0.07411717
0.07419566
0.07516979
0.07731394
0.08107501
0
0.07182287
0.07174037
0.07244348
0.07412387
0.07711061
0
0
0.0695728
0.06937363
0.06987113
0.07121288
0.07362208
0
0
0
0.06743156
0.06714688
0.06749261
0.06858026
0.07057855
0
0
0
0
0.06545107
0.06510658
0.06533871
0.0662386
0.06793388
0
0
0
0
0
0.06364876
0.0632626
0.06341116
0.06416881
0.06563957
0
0
0
0
0
0
0.06201732
0.06160369
0.06168996
0.06233993
0.0636388
0
0
0
0
0
0
0
0.0605344
0.06010552
0.06014626
0.06071313
0.06187932
0
0
0
0
0
0
0
0
0.05917007
0.05873237
0.05874184
0.059245
0.06030634
0
0
0
0
0
0
0
0
0
0.05787798
0.05743878
0.05742514
0.0578805
0.05885864
0
0
0
0
0
0
0
0
0
0
0.05659567
0.05616191
0.05613376
0.05655045
0.0574618
0
0
0
0
0
0
0
0
0
0
0
0.05526446
0.05484354
0.0548082
0.05519462
0.05604787
0
0
0
0
0
0
0
0
0
0
0.05390961
0.05350267
0.05346621
0.05383016
0.05463523
0
0
0
0
0
0
0
0
0
0
0.05259153
0.05220017
0.05216346
0.05251092
0.05327728
0
0
0
0
0
0
0
0
0
0
0.05135424
0.05097733
0.05094228
0.05127526
0.05201006
0
0
0
0
0
0
0
0
0
0
0.05021597
0.04985461
0.04982094
0.05014232
0.05084912
0
0
0
0
0
0
0
0
0
0
0.08251785
0.08366361
0.0857338
0.07900293
0.0796309
0.0814772
0.08442763
0.07616398
0.07643464
0.07773547
0.08037831
0.08440336
0.07376365
0.07380783
0.07472338
0.07676543
0.08032711
0
0.07161371
0.07150522
0.07216563
0.07377658
0.07664375
0
0
0.0695506
0.06933777
0.06981435
0.07112404
0.07348266
0
0
0
0.06750165
0.06721013
0.06754658
0.06862117
0.07060032
0
0
0
0
0.06553216
0.06518444
0.06541273
0.0663078
0.06799652
0
0
0
0
0
0.06369741
0.06331004
0.06345736
0.06421361
0.06568265
0
0
0
0
0
0
0.06201732
0.06160369
0.06168996
0.06233993
0.0636388
0
0
0
0
0
0
0
0.06048702
0.06005867
0.06009983
0.06066713
0.06183377
0
0
0
0
0
0
0
0
0.05909115
0.05865392
0.0586637
0.05916709
0.06022886
0
0
0
0
0
0
0
0
0
0.05780076
0.05736119
0.0573473
0.05780261
0.05878107
0
0
0
0
0
0
0
0
0
0
0.05657255
0.05613636
0.05610692
0.0565234
0.05743592
0
0
0
0
0
0
0
0
0
0
0
0.05534482
0.05491963
0.05488177
0.05526839
0.05612476
0
0
0
0
0
0
0
0
0
0
0
0
0.05406633
0.0536541
0.05361487
0.0539787
0.05478726
0
0
0
0
0
0
0
0
0
0
0.05275924
0.05236312
0.05232379
0.05267114
0.05344013
0
0
0
0
0
0
0
0
0
0
0.05148509
0.05110462
0.05106765
0.05140042
0.05213703
0
0
0
0
0
0
0
0
0
0
0.05028439
0.04992136
0.04988683
0.05020827
0.05091609
0
0
0
0
0
0
0
0
0
0
0.04917959
0.0488312
0.04880153
0.04911283
0.04979639
0
0
0
0
0
0
0
0
0
0
0.07881947
0.07942553
0.08122836
0.0840723
0.07586999
0.07611521
0.07736923
0.07991986
0.08371472
0.07342019
0.07343951
0.0743109
0.07627488
0.07968464
0
0.07130564
0.0711754
0.0717973
0.07334381
0.07609931
0
0
0.06937477
0.06914509
0.06959298
0.07085612
0.07313905
0
0
0
0.06749459
0.06719407
0.06751637
0.06856911
0.07051436
0
0
0
0
0.06560697
0.06525457
0.06547653
0.06636274
0.06803853
0
0
0
0
0
0.06377899
0.06338936
0.06353409
0.06428715
0.06575197
0
0
0
0
0
0
0.06206545
0.06165103
0.06173649
0.06238561
0.06368349
0
0
0
0
0
0
0
0.06048702
0.06005867
0.06009983
0.06066713
0.06183377
0
0
0
0
0
0
0
0
0.05904468
0.05860778
0.05861776
0.05912119
0.060183
0
0
0
0
0
0
0
0
0
0.05772347
0.05728403
0.05727007
0.05772513
0.05870322
0
0
0
0
0
0
0
0
0
0
0.05649715
0.05605996
0.05602976
0.05644556
0.05735762
0
0
0
0
0
0
0
0
0
0
0
0.0553222
0.0548943
0.05485429
0.05523991
0.05609643
0
0
0
0
0
0
0
0
0
0
0
0
0.05414481
0.05372784
0.05368576
0.05404861
0.05485906
0
0
0
0
0
0
0
0
0
0
0
0
0
0.05291249
0.05251096
0.05246845
0.05281527
0.05358658
0
0
0
0
0
0
0
0
0
0
0.0516494
0.05126401
0.05122428
0.05155655
0.05229534
0
0
0
0
0
0
0
0
0
0
0.05041277
0.05004611
0.0500095
0.05033057
0.05103985
0
0
0
0
0
0
0
0
0
0
0.04924655
0.04889652
0.04886593
0.04917716
0.04986161
0
0
0
0
0
0
0
0
0
0
0.04817274
0.04783728
0.04781117
0.04811633
0.0487787
0
0
0
0
0
0
0
0
0
0
0.07571081
0.07594307
0.07717342
0.07967789
0.0833605
0.07316031
0.07316398
0.07400669
0.07591936
0.07922927
0
0.07099933
0.07085374
0.07144675
0.07294374
0.07561304
0
0
0.06910094
0.06885772
0.06927994
0.07049951
0.07271064
0
0
0
0.06734369
0.06703259
0.06733554
0.0683563
0.07025015
0
0
0
0
0.0656108
0.06525267
0.06546517
0.06633648
0.06798909
0
0
0
0
0
0.06385657
0.06346391
0.06360445
0.06435161
0.06580785
0
0
0
0
0
0
0.06214663
0.06173081
0.06181462
0.06246178
0.06375709
0
0
0
0
0
0
0
0.0605344
0.06010552
0.06014626
0.06071313
0.06187932
0
0
0
0
0
0
0
0
0.05904468
0.05860778
0.05861776
0.05912119
0.060183
0
0
0
0
0
0
0
0
0
0.05767803
0.05723877
0.05722481
0.05767971
0.05865747
0
0
0
0
0
0
0
0
0
0
0.05642182
0.05598438
0.0559538
0.056369
0.05728023
0
0
0
0
0
0
0
0
0
0
0
0.05524886
0.05481973
0.05477835
0.0551628
0.05601823
0
0
0
0
0
0
0
0
0
0
0
0
0.0541232
0.05370317
0.05365864
0.05401962
0.05482939
0
0
0
0
0
0
0
0
0
0
0
0
0
0.05298958
0.05258316
0.05253728
0.05288271
0.05365463
0
0
0
0
0
0
0
0
0
0
0
0
0
0
0.05179978
0.0514088
0.05136568
0.0516969
0.05243747
0
0
0
0
0
0
0
0
0
0
0.05057422
0.05020246
0.05016284
0.05048318
0.05119414
0
0
0
0
0
0
0
0
0
0
0.04937263
0.04901905
0.04898625
0.04929689
0.04998257
0
0
0
0
0
0
0
0
0
0
0.04823837
0.04790126
0.04787423
0.04817923
0.04884233
0
0
0
0
0
0
0
0
0
0
0.04719331
0.04687065
0.04684854
0.04714766
0.04779338
0
0
0
0
0
0
0
0
0
0
0.07301891
0.07301449
0.07384253
0.0757292
0.07898908
0
0.070765
0.07060998
0.07118428
0.07264866
0.07526091
0
0
0.06882302
0.06857068
0.06897377
0.07015971
0.07231482
0
0
0
0.0670961
0.06677713
0.0670629
0.06805349
0.06989775
0
0
0
0
0.06547885
0.06511443
0.06531406
0.06616313
0.06777981
0
0
0
0
0
0.06386801
0.06347213
0.06360653
0.06434361
0.06578394
0
0
0
0
0
0
0.06222536
0.06180792
0.06188917
0.06253258
0.06382234
0
0
0
0
0
0
0
0.06061464
0.06018489
0.06022481
0.06079064
0.0619555
0
0
0
0
0
0
0
0
0.05909115
0.05865392
0.0586637
0.05916709
0.06022886
0
0
0
0
0
0
0
0
0
0.05767803
0.05723877
0.05722481
0.05767971
0.05865747
0
0
0
0
0
0
0
0
0
0
0.05637757
0.05594012
0.0559094
0.05632426
0.05723496
0
0
0
0
0
0
0
0
0
0
0
0.05517564
0.05474608
0.05470395
0.05508751
0.05594178
0
0
0
0
0
0
0
0
0
0
0
0
0.05405222
0.05363067
0.05358456
0.05394377
0.05475198
0
0
0
0
0
0
0
0
0
0
0
0
0
0.05296931
0.05255965
0.05251095
0.0528542
0.05362453
0
0
0
0
0
0
0
0
0
0
0
0
0
0
0.05187603
0.05147993
0.05143322
0.05176246
0.05250315
0
0
0
0
0
0
0
0
0
0
0
0
0
0
0
0.0507225
0.05034475
0.05030148
0.05062049
0.05133259
0
0
0
0
0
0
0
0
0
0
0.04953141
0.04917286
0.04913681
0.04944639
0.05013343
0
0
0
0
0
0
0
0
0
0
0.04836238
0.04802172
0.04799252
0.04829673
0.04896077
0
0
0
0
0
0
0
0
0
0
0.04725772
0.04693341
0.04691035
0.04720928
0.04785561
0
0
0
0
0
0
0
0
0
0
0.04623935
0.04592937
0.04591157
0.04620557
0.04683531
0
0
0
0
0
0
0
0
0
0
0.07063706
0.07047707
0.07104167
0.07248933
0.07507262
0
0
0.06860838
0.06835067
0.06874147
0.06990522
0.07202301
0
0
0
0.06684033
0.06651649
0.0667896
0.0677568
0.06956194
0
0
0
0
0.06525192
0.06488338
0.06507173
0.06589957
0.06748093
0
0
0
0
0
0.06375044
0.06335154
0.06347751
0.06419913
0.06561387
0
0
0
0
0
0
0.06224188
0.06182316
0.0619008
0.06253756
0.06381644
0
0
0
0
0
0
0
0.06069357
0.06026301
0.06030176
0.06086547
0.06202697
0
0
0
0
0
0
0
0
0.05917007
0.05873237
0.05874184
0.059245
0.06030634
0
0
0
0
0
0
0
0
0
0.05772347
0.05728403
0.05727007
0.05772513
0.05870322
0
0
0
0
0
0
0
0
0
0
0.05637757
0.05594012
0.0559094
0.05632426
0.05723496
0
0
0
0
0
0
0
0
0
0
0
0.05513263
0.05470295
0.05466051
0.05504361
0.05589719
0
0
0
0
0
0
0
0
0
0
0
0
0.05398124
0.05355907
0.05351205
0.05387003
0.0546768
0
0
0
0
0
0
0
0
0
0
0
0
0
0.05290082
0.05248951
0.05243894
0.05278023
0.05354841
0
0
0
0
0
0
0
0
0
0
0
0
0
0
0.05185739
0.05145787
0.05140817
0.05173483
0.0524736
0
0
0
0
0
0
0
0
0
0
0
0
0
0
0
0.05079871
0.05041531
0.05036819
0.05068493
0.05139649
0
0
0
0
0
0
0
0
0
0
0
0
0
0
0
0
0.04967772
0.04931339
0.04927322
0.04958112
0.05026892
0
0
0
0
0
0
0
0
0
0
0.04851883
0.04817315
0.04814077
0.04844361
0.04910861
0
0
0
0
0
0
0
0
0
0
0.04737985
0.04705201
0.04702672
0.04732485
0.04797187
0
0
0
0
0
0
0
0
0
0
0.04630263
0.04599101
0.04597224
0.04626599
0.04689629
0
0
0
0
0
0
0
0
0
0
0.04530779
0.04501164
0.04499845
0.04528809
0.0459033
0
0
0
0
0
0
0
0
0
0
0.06849094
0.0682303
0.06861461
0.06976682
0.07186545
0
0
0
0.06664125
0.06631476
0.06657983
0.06753157
0.06931049
0
0
0
0
0.0650139
0.0646433
0.06482345
0.06563475
0.06718793
0
0
0
0
0
0.06353974
0.06313963
0.06325831
0.06396496
0.06535393
0
0
0
0
0
0
0.06213517
0.06171587
0.06178849
0.06241448
0.06367499
0
0
0
0
0
0
0
0.0607135
0.06028285
0.06031998
0.06087963
0.06203382
0
0
0
0
0
0
0
0
0.05924844
0.05881058
0.05881968
0.05932209
0.06038172
0
0
0
0
0
0
0
0
0
0.05780077
0.05736119
0.0573473
0.05780261
0.05878107
0
0
0
0
0
0
0
0
0
0
0.05642182
0.05598439
0.0559538
0.056369
0.05728023
0
0
0
0
0
0
0
0
0
0
0
0.05513263
0.05470295
0.05466051
0.05504361
0.05589719
0
0
0
0
0
0
0
0
0
0
0
0
0.05393952
0.05351716
0.05346973
0.05382708
0.05463305
0
0
0
0
0
0
0
0
0
0
0
0
0
0.05283212
0.05242009
0.05236846
0.05270836
0.05347479
0
0
0
0
0
0
0
0
0
0
0
0
0
0
0.05179151
0.0513902
0.05133851
0.05166296
0.05239938
0
0
0
0
0
0
0
0
0
0
0
0
0
0
0
0.0507823
0.05039498
0.05034467
0.05065864
0.05136788
0
0
0
0
0
0
0
0
0
0
0
0
0
0
0
0
0.04975397
0.04938416
0.04933956
0.04964487
0.05033177
0
0
0
0
0
0
0
0
0
0
0
0
0
0
0
0
0
0.04866355
0.04831203
0.04827566
0.04857628
0.04924159
0
0
0
0
0
0
0
0
0
0
0.04753422
0.04720138
0.04717282
0.04746957
0.04811715
0
0
0
0
0
0
0
0
0
0
0.04642305
0.04610792
0.0460869
0.04637976
0.04701067
0
0
0
0
0
0
0
0
0
0
0.04537008
0.04507225
0.04505806
0.04534742
0.04596311
0
0
0
0
0
0
0
0
0
0
0.04439766
0.04411454
0.04410746
0.04439348
0.0449954
0
0
0
0
0
0
0
0
0
0
0.06653222
0.06620416
0.06646487
0.06740846
0.06917374
0
0
0
0
0.06482743
0.06445599
0.06463098
0.06543133
0.0669655
0
0
0
0
0
0.06331596
0.06291599
0.06302947
0.06372435
0.06509251
0
0
0
0
0
0
0.06193735
0.06151896
0.06158739
0.06220268
0.06344415
0
0
0
0
0
0
0
0.0606153
0.06018554
0.06022021
0.0607727
0.06191353
0
0
0
0
0
0
0
0
0.05927049
0.05883347
0.05884216
0.05934254
0.06039758
0
0
0
0
0
0
0
0
0
0.05787798
0.05743878
0.05742514
0.0578805
0.05885864
0
0
0
0
0
0
0
0
0
0
0.05649715
0.05605997
0.05602976
0.05644556
0.05735762
0
0
0
0
0
0
0
0
0
0
0
0.05517564
0.05474608
0.05470395
0.05508751
0.05594178
0
0
0
0
0
0
0
0
0
0
0
0
0.05393952
0.05351716
0.05346973
0.05382708
0.05463305
0
0
0
0
0
0
0
0
0
0
0
0
0
0.0527917
0.05237943
0.05232732
0.05266651
0.053432
0
0
0
0
0
0
0
0
0
0
0
0
0
0
0.05172513
0.05132301
0.05127018
0.05159309
0.05232764
0
0
0
0
0
0
0
0
0
0
0
0
0
0
0
0.05071942
0.0503299
0.05027748
0.05058913
0.05129578
0
0
0
0
0
0
0
0
0
0
0
0
0
0
0
0
0.04973973
0.04936614
0.04931785
0.04962019
0.05030456
0
0
0
0
0
0
0
0
0
0
0
0
0
0
0
0
0
0.04874014
0.04838305
0.04834238
0.04863979
0.04930382
0
0
0
0
0
0
0
0
0
0
0
0
0
0
0
0
0
0
0.04767766
0.04733895
0.04730627
0.04760086
0.04824814
0
0
0
0
0
0
0
0
0
0
0.04657558
0.04625547
0.04623113
0.04652246
0.04715385
0
0
0
0
0
0
0
0
0
0
0.04548905
0.04518763
0.04517118
0.04545957
0.04607573
0
0
0
0
0
0
0
0
0
0
0.04445898
0.04417425
0.04416612
0.04445181
0.04505414
0
0
0
0
0
0
0
0
0
0
0.04350858
0.04323721
0.04323582
0.0435201
0.04410991
0
0
0
0
0
0
0
0
0
0
0.06472528
0.0643532
0.06452528
0.06531975
0.0668439
0
0
0
0
0
0.06313972
0.06274034
0.06285062
0.06353765
0.06489168
0
0
0
0
0
0
0.06172519
0.06130845
0.06137407
0.06198085
0.06320669
0
0
0
0
0
0
0
0.06042812
0.06000048
0.06003324
0.06057837
0.06170482
0
0
0
0
0
0
0
0
0.05917887
0.05874392
0.05875174
0.05924769
0.06029323
0
0
0
0
0
0
0
0
0
0.05790112
0.05746349
0.05745039
0.05790498
0.05888062
0
0
0
0
0
0
0
0
0
0
0.05657256
0.05613637
0.05610692
0.0565234
0.05743592
0
0
0
0
0
0
0
0
0
0
0
0.05524886
0.05481974
0.05477835
0.0551628
0.05601823
0
0
0
0
0
0
0
0
0
0
0
0
0.05398124
0.05355907
0.05351205
0.05387003
0.0546768
0
0
0
0
0
0
0
0
0
0
0
0
0
0.0527917
0.05237943
0.05232732
0.05266651
0.053432
0
0
0
0
0
0
0
0
0
0
0
0
0
0
0.05168603
0.05128361
0.05123026
0.05155241
0.05228594
0
0
0
0
0
0
0
0
0
0
0
0
0
0
0
0.0506556
0.05026499
0.05021134
0.0505214
0.05122605
0
0
0
0
0
0
0
0
0
0
0
0
0
0
0
0
0.04967975
0.04930404
0.04925324
0.04955315
0.05023484
0
0
0
0
0
0
0
0
0
0
0
0
0
0
0
0
0
0.04872822
0.04836727
0.04832304
0.04861698
0.04927826
0
0
0
0
0
0
0
0
0
0
0
0
0
0
0
0
0
0
0.04775488
0.04741051
0.0473734
0.04766487
0.04831019
0
0
0
0
0
0
0
0
0
0
0
0
0
0
0
0
0
0
0
0.04671798
0.04639201
0.04636347
0.04665244
0.04728352
0
0
0
0
0
0
0
0
0
0
0.04564009
0.04533357
0.04531376
0.04560053
0.04621693
0
0
0
0
0
0
0
0
0
0
0.04457651
0.04428834
0.04427783
0.0445625
0.04516518
0
0
0
0
0
0
0
0
0
0
0.04356899
0.04329602
0.04329364
0.04357751
0.04416766
0
0
0
0
0
0
0
0
0
0
0.04263974
0.04237939
0.04238272
0.04266523
0.04324521
0
0
0
0
0
0
0
0
0
0
0.06304324
0.06264393
0.06275231
0.06343502
0.06478149
0
0
0
0
0
0
0.06155743
0.06114223
0.06120621
0.0618073
0.06302238
0
0
0
0
0
0
0
0.06022578
0.05980066
0.05983227
0.0603715
0.0614859
0
0
0
0
0
0
0
0
0.05900041
0.05856862
0.05857588
0.05906697
0.06010177
0
0
0
0
0
0
0
0
0
0.05781452
0.05737989
0.05736721
0.05781909
0.05878817
0
0
0
0
0
0
0
0
0
0
0.05659567
0.05616191
0.05613376
0.05655045
0.0574618
0
0
0
0
0
0
0
0
0
0
0
0.0553222
0.0548943
0.05485429
0.05523991
0.05609642
0
0
0
0
0
0
0
0
0
0
0
0
0.05405222
0.05363067
0.05358456
0.05394378
0.05475198
0
0
0
0
0
0
0
0
0
0
0
0
0
0.05283212
0.05242009
0.05236846
0.05270836
0.05347479
0
0
0
0
0
0
0
0
0
0
0
0
0
0
0.05168603
0.05128361
0.05123026
0.05155241
0.05228594
0
0
0
0
0
0
0
0
0
0
0
0
0
0
0
0.05061791
0.05022686
0.05017265
0.05048193
0.05118551
0
0
0
0
0
0
0
0
0
0
0
0
0
0
0
0
0.04961837
0.04924161
0.04918933
0.04948759
0.05016724
0
0
0
0
0
0
0
0
0
0
0
0
0
0
0
0
0
0.04867116
0.04830804
0.0482614
0.04855253
0.04921103
0
0
0
0
0
0
0
0
0
0
0
0
0
0
0
0
0
0
0.04774547
0.0473971
0.04735636
0.04764448
0.04828655
0
0
0
0
0
0
0
0
0
0
0
0
0
0
0
0
0
0
0
0.04679599
0.04646438
0.04643129
0.04671697
0.04734613
0
0
0
0
0
0
0
0
0
0
0
0
0
0
0
0
0
0
0
0
0.04578187
0.04546929
0.04544527
0.04572953
0.04634536
0
0
0
0
0
0
0
0
0
0
0.04472607
0.04443301
0.04441896
0.04470192
0.04530469
0
0
0
0
0
0
0
0
0
0
0.0436852
0.04340884
0.04340418
0.04368688
0.04427728
0
0
0
0
0
0
0
0
0
0
0.04269931
0.04243737
0.04243971
0.04272184
0.04330207
0
0
0
0
0
0
0
0
0
0
0.04178913
0.04154032
0.04154801
0.04182811
0.04239862
0
0
0
0
0
0
0
0
0
0
0.0614657
0.06105107
0.06111394
0.0617118
0.06292104
0
0
0
0
0
0
0
0.06006528
0.05964224
0.05967328
0.06020854
0.06131457
0
0
0
0
0
0
0
0
0.05880635
0.05837781
0.05838495
0.05887199
0.05989761
0
0
0
0
0
0
0
0
0
0.0576432
0.05721254
0.05720047
0.05764903
0.05861011
0
0
0
0
0
0
0
0
0
0
0.05651255
0.05608281
0.05605608
0.05647146
0.05737814
0
0
0
0
0
0
0
0
0
0
0.05534483
0.05491963
0.05488178
0.05526839
0.05612476
0
0
0
0
0
0
0
0
0
0
0
0
0.0541232
0.05370317
0.05365865
0.05401962
0.05482939
0
0
0
0
0
0
0
0
0
0
0
0
0
0.05290082
0.05248951
0.05243894
0.05278023
0.05354841
0
0
0
0
0
0
0
0
0
0
0
0
0
0
0.05172513
0.05132301
0.05127018
0.05159309
0.05232764
0
0
0
0
0
0
0
0
0
0
0
0
0
0
0
0.05061791
0.05022686
0.05017266
0.05048192
0.05118551
0
0
0
0
0
0
0
0
0
0
0
0
0
0
0
0
0.04958204
0.04920486
0.0491519
0.04944933
0.05012791
0
0
0
0
0
0
0
0
0
0
0
0
0
0
0
0
0
0.04861222
0.04824801
0.04819994
0.04848918
0.0491456
0
0
0
0
0
0
0
0
0
0
0
0
0
0
0
0
0
0
0.04769146
0.04734077
0.04729757
0.04758299
0.04822191
0
0
0
0
0
0
0
0
0
0
0
0
0
0
0
0
0
0
0
0.04678913
0.04645354
0.04641667
0.04669892
0.04732494
0
0
0
0
0
0
0
0
0
0
0
0
0
0
0
0
0
0
0
0
0.04586108
0.04554262
0.04551402
0.04579483
0.04640854
0
0
0
0
0
0
0
0
0
0
0
0
0
0
0
0
0
0
0
0
0.04486723
0.04456833
0.04454982
0.0448302
0.04543219
0
0
0
0
0
0
0
0
0
0
0.04383343
0.04355222
0.0435442
0.04382496
0.04441531
0
0
0
0
0
0
0
0
0
0
0.04281429
0.042549
0.04254908
0.04283011
0.04341039
0
0
0
0
0
0
0
0
0
0
0.04184788
0.04159753
0.04160423
0.04188393
0.0424547
0
0
0
0
0
0
0
0
0
0
0.0409576
0.04071815
0.04073097
0.04100865
0.04156941
0
0
0
0
0
0
0
0
0
0
0.05997767
0.05955547
0.05958596
0.06011887
0.06122027
0
0
0
0
0
0
0
0
0.05865203
0.05822605
0.05823327
0.05871754
0.05973671
0
0
0
0
0
0
0
0
0
0.0574561
0.0570293
0.05701798
0.05746368
0.05841767
0
0
0
0
0
0
0
0
0
0
0.0563469
0.05592192
0.05589675
0.05631015
0.05721058
0
0
0
0
0
0
0
0
0
0
0.05526446
0.05484354
0.0548082
0.05519462
0.05604787
0
0
0
0
0
0
0
0
0
0
0.0541448
0.05372784
0.05368576
0.05404862
0.05485906
0
0
0
0
0
0
0
0
0
0
0
0
0
0.05296932
0.05255965
0.05251095
0.0528542
0.05362453
0
0
0
0
0
0
0
0
0
0
0
0
0
0
0.05179151
0.0513902
0.05133851
0.05166296
0.05239939
0
0
0
0
0
0
0
0
0
0
0
0
0
0
0
0.0506556
0.05026499
0.05021134
0.0505214
0.05122605
0
0
0
0
0
0
0
0
0
0
0
0
0
0
0
0
0.04958204
0.04920486
0.0491519
0.04944933
0.05012791
0
0
0
0
0
0
0
0
0
0
0
0
0
0
0
0
0
0.04857722
0.04821258
0.04816386
0.04845215
0.04910748
0
0
0
0
0
0
0
0
0
0
0
0
0
0
0
0
0
0
0.04763502
0.04728312
0.04723847
0.04752207
0.04815869
0
0
0
0
0
0
0
0
0
0
0
0
0
0
0
0
0
0
0
0.04673811
0.04640022
0.04636076
0.04664027
0.04726327
0
0
0
0
0
0
0
0
0
0
0
0
0
0
0
0
0
0
0
0
0.04585703
0.04553437
0.04550201
0.04577924
0.04638972
0
0
0
0
0
0
0
0
0
0
0
0
0
0
0
0
0
0
0
0
0.04494758
0.044643
0.04461966
0.04489653
0.04549619
0
0
0
0
0
0
0
0
0
0
0
0
0
0
0
0
0
0
0
0
0.04397411
0.04368711
0.0436748
0.04395269
0.04454213
0
0
0
0
0
0
0
0
0
0
0.04296132
0.04269123
0.04268796
0.04296717
0.04354712
0
0
0
0
0
0
0
0
0
0
0.04196167
0.04170806
0.04171251
0.0419911
0.04256196
0
0
0
0
0
0
0
0
0
0
0.04101562
0.04077461
0.04078646
0.04106372
0.04162471
0
0
0
0
0
0
0
0
0
0
0.0401428
0.03991372
0.03992985
0.04020614
0.0407575
0
0
0
0
0
0
0
0
0
0
0.05856799
0.05814309
0.05815009
0.05863264
0.05964816
0
0
0
0
0
0
0
0
0
0.05730707
0.05688321
0.05687254
0.05731626
0.05826517
0
0
0
0
0
0
0
0
0
0
0.05616561
0.05574502
0.05572133
0.05613289
0.05702762
0
0
0
0
0
0
0
0
0
0
0.0551037
0.05468774
0.05465487
0.05504038
0.0558889
0
0
0
0
0
0
0
0
0
0
0.05406633
0.0536541
0.05361487
0.05397871
0.05478726
0
0
0
0
0
0
0
0
0
0
0.05298959
0.05258316
0.05253728
0.05288271
0.05365463
0
0
0
0
0
0
0
0
0
0
0
0
0
0
0.05185739
0.05145788
0.05140816
0.05173483
0.0524736
0
0
0
0
0
0
0
0
0
0
0
0
0
0
0
0.05071943
0.0503299
0.05027749
0.05058913
0.05129578
0
0
0
0
0
0
0
0
0
0
0
0
0
0
0
0
0.04961837
0.04924162
0.04918933
0.04948759
0.05016724
0
0
0
0
0
0
0
0
0
0
0
0
0
0
0
0
0
0.04857722
0.04821258
0.04816386
0.04845215
0.04910748
0
0
0
0
0
0
0
0
0
0
0
0
0
0
0
0
0
0
0.0476014
0.04724899
0.04720368
0.04748638
0.0481218
0
0
0
0
0
0