/*--------------------------------*- C++ -*----------------------------------*\
| =========                 |                                                 |
| \\      /  F ield         | OpenFOAM: The Open Source CFD Toolbox           |
|  \\    /   O peration     | Version:  2306                                  |
|   \\  /    A nd           | Website:  www.openfoam.com                      |
|    \\/     M anipulation  |                                                 |
\*---------------------------------------------------------------------------*/
FoamFile
{
    version     2.0;
    format      ascii;
    arch        "LSB;label=32;scalar=64";
    class       volScalarField;
    location    "0.3/fuel";
    object      H2;
}
// * * * * * * * * * * * * * * * * * * * * * * * * * * * * * * * * * * * * * //

dimensions      [0 0 0 0 0 0 0];

internalField   nonuniform List<scalar> 
16000
(
0.5807317
0.5858847
0.5164405
0.5810345
0.5963845
0.5197951
0.5861943
0.4578682
0.516667
0.5816247
0.6123876
0.5265822
0.5967086
0.4603354
0.5200252
0.5867977
0.4107378
0.458038
0.517109
0.5824922
0.6333884
0.5368129
0.6127355
0.4653132
0.5268199
0.5973401
0.4126586
0.4605075
0.5204743
0.5876846
0.3726038
0.4108695
0.4583698
0.5177592
0.583632
0.6563956
0.5500521
0.6337724
0.4727854
0.5370628
0.6134134
0.4165253
0.4654899
0.5272837
0.5982681
0.3741484
0.4127919
0.4608436
0.5211348
0.5888499
0.3411857
0.3727092
0.4111272
0.4588583
0.5186138
0.5847609
0.6742925
0.5643625
0.6568264
0.4824007
0.5503202
0.6345206
0.42231
0.4729695
0.5375505
0.6144095
0.3772519
0.4166616
0.465835
0.5279659
0.5994874
0.342457
0.3742548
0.4130525
0.4613384
0.522003
0.5900039
0.3148517
0.3412719
0.3729153
0.4115068
0.4595004
0.5194601
0.5856972
0.6860219
0.5754628
0.6747527
0.4927265
0.5646536
0.657666
0.4297203
0.4825959
0.5508433
0.6356202
0.3818827
0.4224513
0.4733292
0.5382677
0.6157182
0.3450076
0.3773605
0.4169282
0.466343
0.5288624
0.600695
0.3159175
0.342544
0.374463
0.4134363
0.4619889
0.5228627
0.5909611
0.2924508
0.3149237
0.3414408
0.3732192
0.412006
0.4601364
0.5201617
0.5866287
0.6928473
0.5827789
0.6864982
0.5006906
0.5757669
0.6756495
0.4376376
0.4929359
0.5652217
0.6589006
0.387794
0.4298691
0.4829773
0.5516127
0.6370654
0.3488057
0.3819948
0.4227276
0.4738586
0.5392103
0.6170145
0.3180535
0.3450963
0.3775729
0.4173208
0.4670109
0.5297503
0.6016971
0.2933579
0.31599
0.3427144
0.3747698
0.413941
0.4626331
0.5235755
0.5919136
0.2731542
0.2925118
0.3150647
0.3416898
0.3736189
0.4125004
0.4606634
0.5208594
0.5875554
0.6959608
0.5870775
0.6933321
0.5059226
0.5830895
0.687426
0.4437174
0.5009072
0.5763605
0.676968
0.394085
0.437796
0.493345
0.5660578
0.6605243
0.3536406
0.3879115
0.43016
0.4835387
0.5526242
0.6384973
0.3212287
0.3488969
0.3822141
0.4231346
0.4745546
0.5401438
0.6180923
0.2951741
0.3181272
0.3452698
0.377886
0.4178372
0.4676723
0.5304867
0.6026948
0.273936
0.2934193
0.3161322
0.3429656
0.3751735
0.414441
0.4631669
0.5242843
0.5928612
0.2563519
0.2732066
0.2926314
0.3152727
0.3420176
0.3740148
0.4129099
0.4611872
0.5215532
0.5884773
0.6959608
0.5890549
0.6964493
0.5089926
0.5873913
0.6942762
0.4477008
0.5061425
0.5836956
0.6887899
0.3989
0.4438803
0.5013306
0.577234
0.6787021
0.3587702
0.3942093
0.4381057
0.4939475
0.5671575
0.6621344
0.3252619
0.3537358
0.3881412
0.4305886
0.4842769
0.5536261
0.639694
0.2978703
0.3213044
0.3490755
0.3825373
0.4236698
0.4752439
0.5409193
0.6191672
0.2755002
0.2952365
0.3182718
0.3455256
0.3782978
0.4183486
0.4682206
0.5312193
0.6036879
0.257033
0.2739888
0.2935399
0.3163419
0.3432962
0.3755733
0.4148551
0.4636976
0.5249892
0.5938039
0.2415851
0.2563974
0.2733094
0.2928079
0.3155466
0.3423423
0.3743427
0.413317
0.4617079
0.522243
0.5929379
0.6928473
0.5890549
0.6964493
0.5104045
0.5893701
0.6974005
0.4500349
0.509214
0.5880036
0.6956637
0.4020485
0.4478655
0.5065722
0.5845873
0.6905832
0.3626861
0.3990274
0.444199
0.5019541
0.5783827
0.6804217
0.3295303
0.3588706
0.3944527
0.4385622
0.4947402
0.5682474
0.6634925
0.3012889
0.3253407
0.3539222
0.3884799
0.4311523
0.4850082
0.5544619
0.6408938
0.2778196
0.2979343
0.3214529
0.3493388
0.3829625
0.4241999
0.4758162
0.5416919
0.6202392
0.2583948
0.2755537
0.2953589
0.318485
0.3458623
0.3787058
0.4187725
0.4687659
0.5319482
0.6046764
0.242184
0.2570788
0.2740923
0.2937177
0.316618
0.3436238
0.3759045
0.4152668
0.4642252
0.5256902
0.5983656
0.2285023
0.241625
0.2564867
0.2734611
0.2930404
0.315818
0.3426111
0.3746686
0.4137214
0.4622255
0.5255795
0.5960092
0.6860219
0.5870775
0.6933321
0.5104045
0.5893701
0.6974005
0.4511077
0.5106265
0.589985
0.6987984
0.4038915
0.4502004
0.5096465
0.5889043
0.6974879
0.3652426
0.4021769
0.4481876
0.5072048
0.5857598
0.6923615
0.332782
0.3627886
0.3992767
0.4446686
0.5027744
0.5795213
0.6818729
0.3048995
0.3296131
0.3590672
0.3948116
0.4391629
0.4955257
0.5691639
0.6648667
0.280756
0.3013553
0.3254951
0.3541971
0.3889256
0.4317107
0.485618
0.5552985
0.6420967
0.2604121
0.2778744
0.2980597
0.3216718
0.3496854
0.3833838
0.4246398
0.4763862
0.5424617
0.6213082
0.2433807
0.2584412
0.2756587
0.2955395
0.3187657
0.3461958
0.3790439
0.4191939
0.4693082
0.5326732
0.6094618
0.229033
0.2422242
0.2571687
0.2742451
0.2939519
0.3168916
0.343895
0.3762336
0.4156758
0.4647496
0.5290805
0.6015204
0.2168288
0.2285375
0.2417034
0.2566186
0.273661
0.2932708
0.3160426
0.3428782
0.3749922
0.4141233
0.4647277
0.5278691
0.5983379
0.6742925
0.5827789
0.6864982
0.5089926
0.5873913
0.6942762
0.4511077
0.5106265
0.589985
0.6987984
0.4047382
0.4512734
0.5110602
0.5908896
0.7006361
0.3667378
0.4040203
0.4505239
0.5102834
0.5900886
0.6992969
0.334902
0.3653457
0.4024282
0.4486623
0.508037
0.5869219
0.6938594
0.3076453
0.3328664
0.3629895
0.3996444
0.4452866
0.5035873
0.5804791
0.6833418
0.2838521
0.3049691
0.3297755
0.3593573
0.3952839
0.4397583
0.4961859
0.5700887
0.6662572
0.2629628
0.2808128
0.3014855
0.325723
0.3545589
0.3893671
0.4321762
0.486228
0.5561358
0.6433025
0.2451518
0.2604596
0.2779818
0.2982448
0.3219601
0.3500287
0.3837333
0.4250779
0.4769539
0.5432287
0.6264929
0.230093
0.2434213
0.2585323
0.2758137
0.2957772
0.3190438
0.3464721
0.3793799
0.4196129
0.4698474
0.5361816
0.6128255
0.2173025
0.2290685
0.242303
0.2573015
0.2744464
0.294184
0.3171181
0.3441645
0.3765605
0.4160823
0.4672849
0.5314152
0.6039235
0.206347
0.2168602
0.2286068
0.2418192
0.2567924
0.2738592
0.2934615
0.3162658
0.3431435
0.3753138
0.4160658
0.4664404
0.5296016
0.5999032
0.6563956
0.5754628
0.6747527
0.5059226
0.5830895
0.687426
0.4500349
0.509214
0.5880036
0.6956637
0.4047382
0.4512734
0.5110602
0.5908896
0.7006361
0.3674245
0.4048671
0.4515976
0.5116987
0.592079
0.7024584
0.3361413
0.3668411
0.4042724
0.4510007
0.5111209
0.5912622
0.7008184
0.3094337
0.3349868
0.3655477
0.4027988
0.4492869
0.5088616
0.587898
0.695373
0.2862034
0.3077161
0.3330318
0.3632858
0.4001283
0.4458991
0.5042708
0.5814459
0.6848287
0.2656484
0.2839115
0.3051057
0.3300153
0.3597393
0.3957521
0.4402585
0.4968517
0.5710217
0.6676644
0.2473889
0.2630119
0.2809241
0.3016776
0.3260231
0.3549175
0.3897351
0.4326417
0.4868381
0.5569737
0.6491821
0.2316609
0.2451934
0.2605527
0.2781404
0.2984885
0.3222457
0.3503136
0.3840813
0.4255141
0.4775192
0.5469457
0.6303356
0.2182481
0.2301289
0.2435011
0.2586669
0.2760179
0.2960129
0.3192742
0.3467468
0.3797139
0.4200293
0.4724557
0.5386298
0.6154349
0.2067725
0.2173341
0.2291382
0.2424195
0.2574764
0.2746459
0.2943761
0.317343
0.3444322
0.3768853
0.4180471
0.4690262
0.5331885
0.605546
0.196883
0.2063752
0.2169219
0.2287093
0.2419717
0.2569647
0.2740232
0.2936509
0.3164874
0.343407
0.3768677
0.417393
0.4677348
0.5307644
0.6006898
0.6333884
0.5643625
0.6568264
0.5006906
0.5757669
0.6756495
0.4477008
0.5061425
0.5836956
0.6887899
0.4038915
0.4502004
0.5096465
0.5889043
0.6974879
0.3674245
0.4048671
0.4515976
0.5116987
0.592079
0.7024584
0.3367102
0.3675279
0.4051195
0.4520751
0.5125385
0.5932576
0.7039902
0.3104784
0.3362261
0.3670435
0.404644
0.4516279
0.5119509
0.5922468
0.7023536
0.2877333
0.3095047
0.335153
0.3658458
0.4032866
0.4499058
0.5095539
0.5888815
0.6969022
0.2676854
0.2862636
0.307855
0.3332761
0.3636759
0.400608
0.4464138
0.5049602
0.5824216
0.6863338
0.2497414
0.2656997
0.284028
0.3053073
0.3303311
0.360118
0.3961455
0.4407628
0.497523
0.5719632
0.6745915
0.2336392
0.2474318
0.2631082
0.2810884
0.3019307
0.3263204
0.3552162
0.390103
0.4331073
0.4874485
0.5610527
0.6541899
0.2196459
0.2316975
0.2452748
0.2606902
0.2783494
0.29873
0.3224826
0.3505971
0.3844277
0.4259484
0.4802579
0.5496574
0.6335054
0.2076213
0.21828
0.2301995
0.2436191
0.2588441
0.2762202
0.2962081
0.3195031
0.3470197
0.3800459
0.4220434
0.4742704
0.5405177
0.6172284
0.1972671
0.2068008
0.2173961
0.2292412
0.2425729
0.2576498
0.274811
0.2945669
0.3175665
0.3446981
0.3784551
0.419394
0.4703471
0.5343831
0.6063641
0.1882953
0.1969084
0.2064306
0.2170132
0.2288443
0.242123
0.2571073
0.274186
0.2938389
0.3167075
0.3446801
0.377928
0.4183951
0.4686028
0.5313482
0.6123876
0.5500521
0.6337724
0.4927265
0.5646536
0.657666
0.4437174
0.5009072
0.5763605
0.676968
0.4020485
0.4478655
0.5065722
0.5845873
0.6905832
0.3667378
0.4040203
0.4505239
0.5102834
0.5900886
0.6992969
0.3367102
0.3675279
0.4051195
0.4520751
0.5125385
0.5932576
0.7039902
0.3109579
0.3367951
0.3677303
0.4054914
0.4527034
0.5133706
0.5942457
0.7055346
0.2886266
0.3105494
0.3363924
0.367342
0.405133
0.4522494
0.5126466
0.5932376
0.7039025
0.2690099
0.2877937
0.309644
0.3353983
0.3662382
0.40377
0.4504252
0.510251
0.5898725
0.6984474
0.2515239
0.2677374
0.2863819
0.30806
0.3335978
0.3640626
0.4010111
0.446933
0.5056556
0.5834063
0.693744
0.2357175
0.2497861
0.2658003
0.2842002
0.305573
0.3306441
0.3604361
0.3965419
0.4412712
0.4982001
0.5765847
0.68196
0.2214082
0.233677
0.247516
0.2632504
0.2813049
0.3021816
0.3265682
0.3555149
0.3904709
0.4335729
0.4904184
0.5644121
0.6590427
0.2088754
0.2196785
0.2317694
0.2453952
0.2608713
0.2785564
0.2989304
0.3227184
0.3508794
0.3847725
0.4280517
0.4822482
0.5518613
0.6358319
0.1980334
0.20765
0.2183428
0.2303037
0.2437745
0.2590198
0.2763878
0.296402
0.3197306
0.3472909
0.3816509
0.4234419
0.4756673
0.5418084
0.6181453
0.1886439
0.1972926
0.2068564
0.2174879
0.229377
0.2427251
0.2577933
0.274975
0.2947564
0.3177885
0.345983
0.3795298
0.4204147
0.4712359
0.5349845
0.180468
0.1883183
0.1969583
0.2065124
0.2171335
0.2289781
0.2422481
0.2572489
0.2743477
0.2940257
0.3177709
0.3455479
0.3787281
0.4190666
0.4690384
0.5963845
0.5368129
0.6127355
0.4824007
0.5503202
0.6345206
0.4376376
0.4929359
0.5652217
0.6589006
0.3989
0.4438803
0.5013306
0.577234
0.6787021
0.3652426
0.4021769
0.4481876
0.5072048
0.5857598
0.6923615
0.3361413
0.3668411
0.4042724
0.4510007
0.5111209
0.5912622
0.7008184
0.3109579
0.3367951
0.3677303
0.4054914
0.4527034
0.5133706
0.5942457
0.7055346
0.2890366
0.3110289
0.3369614
0.3680289
0.4059809
0.4533259
0.5140678
0.5952395
0.7070918
0.2697829
0.288687
0.3106887
0.3366379
0.3677349
0.4056177
0.4527703
0.5133465
0.5942347
0.7054653
0.2526821
0.2690619
0.2879122
0.3098497
0.3357214
0.3666271
0.4041756
0.4509481
0.5109531
0.5908711
0.7060407
0.2372907
0.2515692
0.2678394
0.2865566
0.3083302
0.3339167
0.3643875
0.4014175
0.4474565
0.5063571
0.5882411
0.701537
0.2232579
0.2357568
0.249874
0.2659491
0.284427
0.3058365
0.3309071
0.3607566
0.3969415
0.4417838
0.5015216
0.5812511
0.6912047
0.2104555
0.2214418
0.2337512
0.2476403
0.2634379
0.2815196
0.3023906
0.3268158
0.3558135
0.3908387
0.4358377
0.4928515
0.5675703
0.6633641
0.1991649
0.2089046
0.2197424
0.2318757
0.2455539
0.2610509
0.2787282
0.2991298
0.3229531
0.3511603
0.3864421
0.4295771
0.4838616
0.5534565
0.6370945
0.189339
0.1980592
0.2077062
0.2184356
0.2304411
0.2439286
0.2591654
0.2765543
0.2965947
0.3199566
0.3486021
0.3827638
0.4245174
0.4766211
0.5424659
0.1807857
0.188667
0.1973428
0.2069387
0.2176089
0.2295116
0.242851
0.2579359
0.2751379
0.2949447
0.3188609
0.3468617
0.3803437
0.4211011
0.4716831
0.1733044
0.1804889
0.1883635
0.1970321
0.2066203
0.2172528
0.2290889
0.2423724
0.2573895
0.2745083
0.294928
0.3184951
0.3462024
0.379264
0.4194035
0.5858847
0.5265822
0.5967086
0.4727854
0.5370628
0.6134134
0.4297203
0.4825959
0.5508433
0.6356202
0.394085
0.437796
0.493345
0.5660578
0.6605243
0.3626861
0.3990274
0.444199
0.5019541
0.5783827
0.6804217
0.334902
0.3653457
0.4024282
0.4486623
0.508037
0.5869219
0.6938594
0.3104784
0.3362261
0.3670435
0.404644
0.4516279
0.5119509
0.5922468
0.7023536
0.2890366
0.3110289
0.3369614
0.3680289
0.4059809
0.4533259
0.5140678
0.5952395
0.7070918
0.2701376
0.2890969
0.3111682
0.3372068
0.368422
0.406466
0.4538473
0.5147686
0.596239
0.7086618
0.2533578
0.2698349
0.2888055
0.3108944
0.3369611
0.3681244
0.4060238
0.4532941
0.5140504
0.5952381
0.7131345
0.2383123
0.2527274
0.2691641
0.2880873
0.3101206
0.3360416
0.3669533
0.4045838
0.4514746
0.5116601
0.5957656
0.7136758
0.2246569
0.2373305
0.2516581
0.2679902
0.2867869
0.308598
0.3341847
0.3647151
0.4018272
0.4479844
0.5097992
0.5930791
0.7109672
0.2121124
0.2232928
0.2358342
0.2500038
0.2661451
0.2846519
0.3060577
0.331172
0.3610797
0.3973444
0.4442979
0.5048556
0.5868749
0.7031662
0.2005896
0.2104855
0.2215077
0.2338609
0.2478043
0.2636237
0.2816984
0.3025995
0.3270634
0.356112
0.3926277
0.4376895
0.49513
0.570306
0.6663445
0.190365
0.1991911
0.2089619
0.219837
0.2320159
0.2457112
0.2611999
0.2788991
0.2993282
0.3231867
0.3525202
0.3876514
0.4308125
0.485027
0.554313
0.1814191
0.1893624
0.1981098
0.2077894
0.218558
0.2305773
0.2440561
0.2593099
0.2767197
0.2967861
0.3210492
0.3495103
0.3836191
0.4252513
0.4771065
0.1735951
0.1808067
0.1887124
0.197417
0.2070471
0.2177288
0.229623
0.2429761
0.2580774
0.2752996
0.295854
0.3195936
0.3475269
0.3808907
0.4214464
0.1667241
0.1733235
0.18053
0.1884304
0.1971294
0.2067274
0.2173516
0.2291989
0.2424958
0.2575291
0.275284
0.295542
0.3190411
0.3466406
0.3795327
0.5807317
0.5197951
0.5861943
0.4653132
0.5268199
0.5973401
0.42231
0.4729695
0.5375505
0.6144095
0.387794
0.4298691
0.4829773
0.5516127
0.6370654
0.3587702
0.3942093
0.4381057
0.4939475
0.5671575
0.6621344
0.332782
0.3627886
0.3992767
0.4446686
0.5027744
0.5795213
0.6818729
0.3094337
0.3349868
0.3655477
0.4027988
0.4492869
0.5088616
0.587898
0.695373
0.2886266
0.3105494
0.3363924
0.367342
0.405133
0.4522494
0.5126466
0.5932376
0.7039025
0.2701376
0.2890969
0.3111682
0.3372068
0.368422
0.406466
0.4538473
0.5147686
0.596239
0.7086618
0.2536678
0.2701895
0.2892153
0.3113737
0.33753
0.3688116
0.4068722
0.4543713
0.5154731
0.5972442
0.7163615
0.2389081
0.253403
0.2699369
0.2889804
0.3111652
0.3372815
0.3684507
0.406432
0.4538207
0.5147583
0.60015
0.7206005
0.2255648
0.2383521
0.2528164
0.269315
0.288318
0.3103892
0.3363102
0.3672817
0.4049947
0.4520046
0.5151237
0.6004657
0.7225219
0.2133647
0.2246922
0.2374088
0.2517896
0.2681889
0.2870153
0.308823
0.3344548
0.3650453
0.4022404
0.4505743
0.513227
0.598716
0.7222352
0.2020825
0.2121436
0.2233614
0.2359486
0.250175
0.2663395
0.2848408
0.3062806
0.331439
0.3614053
0.3993199
0.4468176
0.5088545
0.5939118
0.7194888
0.1916561
0.2006165
0.2105444
0.2216052
0.2340055
0.2479668
0.2637785
0.2818771
0.3028083
0.3273109
0.3575638
0.3940887
0.4394219
0.4970968
0.5721492
0.1823536
0.1903888
0.1992427
0.2090465
0.2199617
0.2321548
0.2458417
0.2613481
0.2790692
0.2995256
0.3243173
0.3535042
0.3886301
0.4317041
0.485652
0.1741746
0.1814403
0.1894082
0.1981848
0.207899
0.2186793
0.2306901
0.2441829
0.2594535
0.276884
0.2977114
0.3218053
0.3502079
0.3842025
0.4256246
0.1669912
0.1736143
0.1808481
0.1887797
0.1975148
0.2071548
0.2178281
0.2297337
0.2431003
0.2582179
0.276081
0.2964749
0.320148
0.3479738
0.3811658
0.1606592
0.1667416
0.1733611
0.180591
0.1885187
0.197226
0.206816
0.2174496
0.2293081
0.2426183
0.2582033
0.2758115
0.2960048
0.3194065
0.3468603
0.5164405
0.5810345
0.4603354
0.5200252
0.5867977
0.4165253
0.4654899
0.5272837
0.5982681
0.3818827
0.4224513
0.4733292
0.5382677
0.6157182
0.3536406
0.3879115
0.43016
0.4835387
0.5526242
0.6384973
0.3295303
0.3588706
0.3944527
0.4385622
0.4947402
0.5682474
0.6634925
0.3076453
0.3328664
0.3629895
0.3996444
0.4452866
0.5035873
0.5804791
0.6833418
0.2877333
0.3095047
0.335153
0.3658458
0.4032866
0.4499058
0.5095539
0.5888815
0.6969022
0.2697829
0.288687
0.3106887
0.3366379
0.3677349
0.4056177
0.4527703
0.5133465
0.5942347
0.7054653
0.2536678
0.2701895
0.2892153
0.3113737
0.33753
0.3688116
0.4068722
0.4543713
0.5154731
0.5972442
0.7163615
0.2391814
0.2537129
0.2702914
0.2893901
0.3116445
0.3378504
0.3691378
0.4072803
0.4548978
0.5161812
0.602162
0.7237448
0.2260943
0.2389479
0.2534919
0.2700876
0.2892109
0.3114338
0.3375499
0.3687786
0.4068424
0.4543502
0.5182222
0.6047288
0.729019
0.2141772
0.2256001
0.2384304
0.2529479
0.2695139
0.2885468
0.3106145
0.3365805
0.3676122
0.4054084
0.4546005
0.5184367
0.605715
0.7325993
0.2032101
0.2133962
0.2247616
0.2375245
0.251963
0.268386
0.2872071
0.3090499
0.334727
0.3653782
0.4042668
0.4531506
0.5172064
0.6052397
0.7355159
0.1930082
0.2021105
0.2122049
0.223463
0.2360994
0.2503448
0.2665028
0.2850312
0.3065053
0.3317082
0.3630021
0.4012986
0.4498363
0.5138329
0.6032495
0.7485031
0.183529
0.1916805
0.2006696
0.2106317
0.2217338
0.234149
0.2481022
0.2639333
0.2820557
0.303017
0.3285142
0.3587483
0.3954548
0.4409157
0.4984184
0.1750294
0.1823752
0.1904354
0.199319
0.2091582
0.2200854
0.2322701
0.2459715
0.2614956
0.2792384
0.3004813
0.3251347
0.3543002
0.3893362
0.4321821
0.1675233
0.174194
0.1814821
0.1894762
0.1982837
0.2080078
0.2187798
0.2308022
0.2443088
0.2595962
0.2776782
0.2983513
0.322386
0.3506836
0.3844992
0.1609053
0.1670088
0.1736521
0.1809093
0.1888683
0.1976119
0.2072438
0.2179267
0.2298435
0.2432236
0.2588968
0.2766141
0.2969445
0.3205204
0.3481984
0.1550525
0.1606754
0.1667762
0.1734168
0.1806713
0.1886063
0.1973059
0.2069039
0.2175469
0.2294165
0.24321
0.2586617
0.276209
0.2963145
0.3195897
0.4578682
0.516667
0.5816247
0.4126586
0.4605075
0.5204743
0.5876846
0.3772519
0.4166616
0.465835
0.5279659
0.5994874
0.3488057
0.3819948
0.4227276
0.4738586
0.5392103
0.6170145
0.3252619
0.3537358
0.3881412
0.4305886
0.4842769
0.5536261
0.639694
0.3048995
0.3296131
0.3590672
0.3948116
0.4391629
0.4955257
0.5691639
0.6648667
0.2862034
0.3077161
0.3330318
0.3632858
0.4001283
0.4458991
0.5042708
0.5814459
0.6848287
0.2690099
0.2877937
0.309644
0.3353983
0.3662382
0.40377
0.4504252
0.510251
0.5898725
0.6984474
0.2533578
0.2698349
0.2888055
0.3108944
0.3369611
0.3681244
0.4060238
0.4532941
0.5140504
0.5952381
0.7131345
0.2391814
0.2537129
0.2702914
0.2893901
0.3116445
0.3378504
0.3691378
0.4072803
0.4548978
0.5161812
0.602162
0.7237448
0.2263371
0.2392211
0.2538017
0.2704421
0.2896205
0.3119129
0.3381186
0.3694655
0.4076903
0.4554269
0.5196438
0.6066835
0.7319686
0.2146507
0.2261295
0.239026
0.2536232
0.2702863
0.2894395
0.3116587
0.3378196
0.3691083
0.407255
0.4569404
0.5214403
0.6097093
0.7383878
0.2039413
0.2142086
0.2256695
0.238546
0.2531213
0.2697112
0.2887386
0.3108412
0.3368526
0.3679448
0.4074338
0.457081
0.5221267
0.6115051
0.7438785
0.1940289
0.2032384
0.2134582
0.2248642
0.2376771
0.2521349
0.2685516
0.2874004
0.3092785
0.3350015
0.3670109
0.4062818
0.4561389
0.5217943
0.612713
0.7539885
0.1847592
0.1930335
0.2021657
0.2122957
0.2235969
0.2362491
0.2504874
0.2666673
0.285223
0.3067317
0.3330277
0.3646007
0.4036677
0.4535873
0.520402
0.6194843
0.7655144
0.1761039
0.1835512
0.1917285
0.2007481
0.2107467
0.2218613
0.2342684
0.2482375
0.2640879
0.2822343
0.3040318
0.3294955
0.3598555
0.3966322
0.441919
0.1683079
0.1750491
0.1824177
0.1905045
0.1994196
0.209269
0.2201879
0.2323847
0.2461006
0.2616423
0.2800574
0.3011718
0.3257957
0.3548743
0.3897147
0.1613956
0.1675411
0.1742322
0.1815439
0.1895657
0.1983817
0.2080979
0.2188796
0.2309135
0.2444339
0.2602857
0.2782272
0.2988425
0.3227817
0.3509254
0.1552799
0.1609215
0.1670434
0.1737081
0.18099
0.1889563
0.1976922
0.2073322
0.2180246
0.2299526
0.2438191
0.2593599
0.2770173
0.2972599
0.3207076
0.1498545
0.1550674
0.1607072
0.1668273
0.1734903
0.1807511
0.1886787
0.1973853
0.2069912
0.2176436
0.22994
0.2436121
0.259007
0.276475
0.2964697
0.4107378
0.458038
0.517109
0.5824922
0.3741484
0.4127919
0.4608436
0.5211348
0.5888499
0.3450076
0.3773605
0.4169282
0.466343
0.5288624
0.600695
0.3212287
0.3488969
0.3822141
0.4231346
0.4745546
0.5401438
0.6180923
0.3012889
0.3253407
0.3539222
0.3884799
0.4311523
0.4850082
0.5544619
0.6408938
0.2838521
0.3049691
0.3297755
0.3593573
0.3952839
0.4397583
0.4961859
0.5700887
0.6662572
0.2676854
0.2862636
0.307855
0.3332761
0.3636759
0.400608
0.4464138
0.5049602
0.5824216
0.6863338
0.2526821
0.2690619
0.2879122
0.3098497
0.3357214
0.3666271
0.4041756
0.4509481
0.5109531
0.5908711
0.7060407
0.2389081
0.253403
0.2699369
0.2889804
0.3111652
0.3372815
0.3684507
0.406432
0.4538207
0.5147583
0.60015
0.7206005
0.2263371
0.2392211
0.2538017
0.2704421
0.2896205
0.3119129
0.3381186
0.3694655
0.4076903
0.4554269
0.5196438
0.6066835
0.7319686
0.2148679
0.2263722
0.2392991
0.2539329
0.2706405
0.2898489
0.3121376
0.3383879
0.3697946
0.4081023
0.4580134
0.5228172
0.6115436
0.7410324
0.2043675
0.2146821
0.2261987
0.2391414
0.2537963
0.2704833
0.2896309
0.3118847
0.3380907
0.3694396
0.4092727
0.4593444
0.524933
0.6150749
0.7486788
0.1946904
0.2039696
0.2142705
0.225772
0.2386986
0.2532933
0.2698767
0.2889316
0.3110693
0.3371263
0.3695731
0.4093684
0.4598422
0.5261853
0.6177959
0.758896
0.1856874
0.1940544
0.2032941
0.2135499
0.2249996
0.2378285
0.2522794
0.2687185
0.2875952
0.3095089
0.3363473
0.3686339
0.408618
0.4595791
0.5270288
0.6228396
0.7679284
0.1772278
0.1847822
0.1930834
0.2022473
0.2124154
0.2237298
0.2363747
0.2506311
0.2668331
0.2854162
0.3078417
0.3343484
0.3665143
0.4066082
0.4585228
0.531755
0.629555
0.7784663
0.1692939
0.1761241
0.1835948
0.1917995
0.2008517
0.2108608
0.2219675
0.2343878
0.2483728
0.2642425
0.2831023
0.3048589
0.3304125
0.3608095
0.3974228
0.1621183
0.168326
0.1750878
0.1824805
0.1905956
0.1995194
0.2093609
0.2202899
0.2324988
0.2462291
0.2623524
0.2806489
0.30173
0.3262723
0.355182
0.1557331
0.161412
0.1675761
0.1742887
0.1816254
0.1896546
0.1984629
0.2081873
0.2189787
0.2310241
0.2450382
0.260762
0.2786485
0.2991773
0.3229829
0.1500654
0.1552949
0.1609535
0.1670948
0.1737819
0.1810701
0.1890291
0.1977719
0.20742
0.2181218
0.2304794
0.2442252
0.25971
0.277288
0.2974184
0.145023
0.1498683
0.1550967
0.1607542
0.1668947
0.1735633
0.1808171
0.1887506
0.197464
0.2070779
0.2181101
0.2302957
0.2439149
0.259238
0.2766083
0.3726038
0.4108695
0.4583698
0.5177592
0.583632
0.342457
0.3742548
0.4130525
0.4613384
0.522003
0.5900039
0.3180535
0.3450963
0.3775729
0.4173208
0.4670109
0.5297503
0.6016971
0.2978703
0.3213044
0.3490755
0.3825373
0.4236698
0.4752439
0.5409193
0.6191672
0.280756
0.3013553
0.3254951
0.3541971
0.3889256
0.4317107
0.485618
0.5552985
0.6420967
0.2656484
0.2839115
0.3051057
0.3300153
0.3597393
0.3957521
0.4402585
0.4968517
0.5710217
0.6676644
0.2515239
0.2677374
0.2863819
0.30806
0.3335978
0.3640626
0.4010111
0.446933
0.5056556
0.5834063
0.693744
0.2383123
0.2527274
0.2691641
0.2880873
0.3101206
0.3360416
0.3669533
0.4045838
0.4514746
0.5116601
0.5957656
0.7136758
0.2260943
0.2389479
0.2534919
0.2700876
0.2892109
0.3114338
0.3375499
0.3687786
0.4068424
0.4543502
0.5182222
0.6047288
0.729019
0.2148679
0.2263722
0.2392991
0.2539329
0.2706405
0.2898489
0.3121376
0.3383879
0.3697946
0.4081023
0.4580134
0.5228172
0.6115436
0.7410324
0.2045629
0.2148992
0.2264413
0.2394144
0.2541058
0.2708374
0.29004
0.3123633
0.3386585
0.3701253
0.4101156
0.4603816
0.526222
0.6167289
0.7509202
0.1950759
0.2043957
0.2147439
0.226301
0.2392936
0.253968
0.2706483
0.2898232
0.3121119
0.3383631
0.3710598
0.4111445
0.4619526
0.5286874
0.620792
0.7622382
0.1862888
0.194716
0.2040252
0.2143621
0.2259073
0.2388499
0.2534375
0.2700431
0.2891258
0.3112988
0.3384664
0.3711281
0.4115215
0.4628761
0.5305822
0.6259384
0.7707656
0.1780755
0.1857106
0.1941047
0.2033765
0.2136709
0.2251339
0.2379556
0.2524249
0.2688866
0.2877916
0.3106387
0.3376849
0.3705152
0.4113053
0.4634963
0.5340958
0.6311863
0.7797011
0.1703247
0.1772488
0.1848275
0.1931572
0.202355
0.2125343
0.2238414
0.2365013
0.2507758
0.2670001
0.2863637
0.3089524
0.3359288
0.3688873
0.4104703
0.467023
0.5387532
0.6377587
0.7886298
0.1630261
0.1693124
0.1761639
0.1836594
0.1918932
0.2009544
0.2109558
0.2220736
0.2345071
0.2485079
0.2649938
0.2838094
0.3056316
0.3312024
0.3614501
0.1564008
0.1621349
0.1683615
0.1751452
0.1825634
0.190686
0.1996022
0.2094522
0.2203914
0.2326122
0.2468509
0.262865
0.2811269
0.3021325
0.3265278
0.1504853
0.1557481
0.1614442
0.1676279
0.1743632
0.1817063
0.1897282
0.1985436
0.2082762
0.2190772
0.2315583
0.2454556
0.2611275
0.2789355
0.2993474
0.145219
0.1500792
0.1553244
0.1610007
0.1671625
0.1738552
0.1811364
0.1891014
0.1978511
0.2075071
0.2185911
0.2308384
0.2445321
0.259945
0.2774241
0.1405214
0.1450359
0.1498955
0.1551402
0.1608163
0.1669617
0.1736236
0.1808826
0.188822
0.1975422
0.2074963
0.218427
0.2305635
0.2441175
0.2593537
0.3411857
0.3727092
0.4111272
0.4588583
0.5186138
0.5847609
0.3159175
0.342544
0.374463
0.4134363
0.4619889
0.5228627
0.5909611
0.2951741
0.3181272
0.3452698
0.377886
0.4178372
0.4676723
0.5304867
0.6026948
0.2778196
0.2979343
0.3214529
0.3493388
0.3829625
0.4241999
0.4758162
0.5416919
0.6202392
0.2629628
0.2808128
0.3014855
0.325723
0.3545589
0.3893671
0.4321762
0.486228
0.5561358
0.6433025
0.2497414
0.2656997
0.284028
0.3053073
0.3303311
0.360118
0.3961455
0.4407628
0.497523
0.5719632
0.6745915
0.2372907
0.2515692
0.2678394
0.2865566
0.3083302
0.3339167
0.3643875
0.4014175
0.4474565
0.5063571
0.5882411
0.701537
0.2255648
0.2383521
0.2528164
0.269315
0.288318
0.3103892
0.3363102
0.3672817
0.4049947
0.4520046
0.5151237
0.6004657
0.7225219
0.2146507
0.2261295
0.239026
0.2536232
0.2702863
0.2894395
0.3116587
0.3378196
0.3691083
0.407255
0.4569404
0.5214403
0.6097093
0.7383878
0.2045629
0.2148992
0.2264413
0.2394144
0.2541058
0.2708374
0.29004
0.3123633
0.3386585
0.3701253
0.4101156
0.4603816
0.526222
0.6167289
0.7509202
0.1952526
0.204591
0.2149609
0.2265435
0.2395665
0.2542773
0.2710021
0.290232
0.3125899
0.3389302
0.371741
0.4119581
0.4629216
0.5298474
0.6222148
0.7639047
0.1866392
0.1951014
0.2044511
0.2148352
0.2264359
0.2394447
0.2541117
0.2708141
0.2900165
0.3123401
0.3396951
0.3725623
0.413175
0.4647541
0.5326793
0.6281089
0.7729783
0.1786246
0.186312
0.1947662
0.2041075
0.2144829
0.2260415
0.2389768
0.2535826
0.2702106
0.2893212
0.3124223
0.3397458
0.3728584
0.4138858
0.4661585
0.5362598
0.6331367
0.7813695
0.1711018
0.1780967
0.1857563
0.1941792
0.2034852
0.2137909
0.2252467
0.2380838
0.2525716
0.2690561
0.2887545
0.3117615
0.3392352
0.3726779
0.4143611
0.4687735
0.5399031
0.6387492
0.7893702
0.1639749
0.1703439
0.1772901
0.1848945
0.1932545
0.2024619
0.212634
0.2239538
0.2366288
0.2509217
0.2678188
0.2873117
0.3102814
0.3378876
0.3719999
0.4171053
0.4722307
0.5444485
0.6445885
0.7966308
0.1572392
0.1630432
0.1693489
0.1762228
0.1837446
0.1919862
0.2010399
0.2110508
0.2221796
0.2346263
0.2491649
0.2656057
0.28447
0.3062972
0.3317328
0.151104
0.1564161
0.1621676
0.1684141
0.1752209
0.1826456
0.190761
0.1996845
0.2095431
0.2204924
0.2331614
0.2472995
0.2632792
0.2814715
0.3023482
0.1456092
0.1504993
0.1557779
0.1614919
0.1676962
0.1744371
0.1817733
0.1898012
0.1986237
0.2083644
0.2195529
0.2319272
0.2457758
0.2613765
0.2790814
0.1407039
0.1452319
0.1501065
0.155368
0.1610631
0.1672298
0.1739158
0.1812022
0.1891732
0.1979297
0.207928
0.2189109
0.2311098
0.2447381
0.260063
0.1363178
0.1405333
0.1450611
0.1499358
0.1551976
0.160878
0.1670171
0.1736835
0.1809476
0.1888929
0.1979197
0.2077805
0.2186656
0.2307426
0.244219
0.3148517
0.3412719
0.3729153
0.4115068
0.4595004
0.5194601
0.5856972
0.2933579
0.31599
0.3427144
0.3747698
0.413941
0.4626331
0.5235755
0.5919136
0.2755002
0.2952365
0.3182718
0.3455256
0.3782978
0.4183486
0.4682206
0.5312193
0.6036879
0.2604121
0.2778744
0.2980597
0.3216718
0.3496854
0.3833838
0.4246398
0.4763862
0.5424617
0.6213082
0.2473889
0.2630119
0.2809241
0.3016776
0.3260231
0.3549175
0.3897351
0.4326417
0.4868381
0.5569737
0.6491821
0.2357175
0.2497861
0.2658003
0.2842002
0.305573
0.3306441
0.3604361
0.3965419
0.4412712
0.4982001
0.5765847
0.68196
0.2246569
0.2373305
0.2516581
0.2679902
0.2867869
0.308598
0.3341847
0.3647151
0.4018272
0.4479844
0.5097992
0.5930791
0.7109672
0.2141772
0.2256001
0.2384304
0.2529479
0.2695139
0.2885468
0.3106145
0.3365805
0.3676122
0.4054084
0.4546005
0.5184367
0.605715
0.7325993
0.2043675
0.2146821
0.2261987
0.2391414
0.2537963
0.2704833
0.2896309
0.3118847
0.3380907
0.3694396
0.4092727
0.4593444
0.524933
0.6150749
0.7486788
0.1952526
0.204591
0.2149609
0.2265435
0.2395665
0.2542773
0.2710021
0.290232
0.3125899
0.3389302
0.371741
0.4119581
0.4629216
0.5298474
0.6222148
0.7639047
0.1867998
0.195278
0.2046464
0.2150521
0.2266783
0.2397173
0.2544208
0.2711675
0.2904248
0.3128175
0.3402581
0.3732192
0.4139342
0.4656246
0.5336762
0.6292105
0.7741542
0.1789444
0.1866623
0.1951514
0.2045332
0.2149557
0.2265698
0.2395711
0.2542562
0.2709807
0.2902107
0.313456
0.3409302
0.3741922
0.4153552
0.4677299
0.5377793
0.634688
0.7827934
0.1716051
0.1786457
0.1863576
0.1948405
0.204216
0.2146028
0.226154
0.2391044
0.2537286
0.2703791
0.2902777
0.3134949
0.3411694
0.3747578
0.4164415
0.4703912
0.5412778
0.6400705
0.7904216
0.1646898
0.1711212
0.1781383
0.1858239
0.1942774
0.2035931
0.2138917
0.2253604
0.2382129
0.2527194
0.269887
0.2897113
0.3130627
0.3410165
0.3751349
0.4184715
0.4730938
0.5451619
0.64532
0.7971475
0.1581151
0.1639925
0.1703818
0.1773513
0.184983
0.1933512
0.2025516
0.2127345
0.224067
0.2367573
0.2516366
0.268638
0.2884458
0.3119277
0.3404542
0.3773373
0.4211523
0.4764552
0.5491877
0.6502161
0.8028301
0.1518806
0.1572549
0.1630767
0.1694029
0.1763006
0.1838291
0.1920636
0.2011254
0.2111457
0.2222856
0.2352059
0.2496998
0.2661773
0.2850389
0.306744
0.1461839
0.1511182
0.1564463
0.162216
0.1684836
0.1752961
0.1827138
0.1908355
0.1997664
0.2096336
0.220981
0.2335575
0.2476621