/*--------------------------------*- C++ -*----------------------------------*\
| =========                 |                                                 |
| \\      /  F ield         | OpenFOAM: The Open Source CFD Toolbox           |
|  \\    /   O peration     | Version:  2306                                  |
|   \\  /    A nd           | Website:  www.openfoam.com                      |
|    \\/     M anipulation  |                                                 |
\*---------------------------------------------------------------------------*/
FoamFile
{
    version     2.0;
    format      ascii;
    arch        "LSB;label=32;scalar=64";
    class       volScalarField;
    location    "0.3/fuel";
    object      H2O;
}
// * * * * * * * * * * * * * * * * * * * * * * * * * * * * * * * * * * * * * //

dimensions      [0 0 0 0 0 0 0];

internalField   nonuniform List<scalar> 
16000
(
0.419417
0.4142632
0.4836967
0.4191141
0.4037616
0.4803416
0.4139535
0.5422557
0.4834701
0.4185238
0.3877557
0.4735535
0.4034375
0.5397883
0.4801114
0.4133499
0.5893738
0.5420858
0.483028
0.4176561
0.3667507
0.4633213
0.3874077
0.53481
0.4733157
0.4028058
0.5874529
0.5396162
0.4796623
0.4124629
0.6274968
0.589242
0.541754
0.4823777
0.416516
0.3437382
0.4500798
0.3663665
0.527337
0.4630713
0.3867296
0.583586
0.5346333
0.4728518
0.4018776
0.6259522
0.5873196
0.53928
0.4790016
0.4112974
0.6589053
0.6273915
0.5889843
0.5412655
0.481523
0.4153869
0.3258365
0.4357667
0.3433073
0.5177207
0.4498117
0.3656181
0.577801
0.5271529
0.4625835
0.3857333
0.6228487
0.5834497
0.5342881
0.4721696
0.400658
0.6576341
0.6258458
0.587059
0.5387852
0.4781333
0.4101431
0.6852307
0.658819
0.6271853
0.5886048
0.5406233
0.4806765
0.4144505
0.3141036
0.424664
0.3253762
0.5073935
0.4354756
0.3424674
0.5703902
0.5175254
0.4492885
0.3645182
0.6182179
0.5776597
0.5267931
0.4618662
0.3844242
0.6550834
0.6227401
0.5831831
0.53378
0.4712729
0.3994502
0.684165
0.657547
0.6256376
0.5866752
0.5381346
0.4772735
0.4091856
0.7076241
0.6851588
0.6586502
0.6268815
0.5881056
0.5399873
0.4799749
0.4135187
0.307276
0.4173461
0.3136271
0.4994282
0.4243598
0.3244791
0.5624723
0.5071841
0.4349073
0.3412324
0.6123064
0.5702414
0.517144
0.4485189
0.3630727
0.6512855
0.6181058
0.5773833
0.5262637
0.4609234
0.3831276
0.6820291
0.6549948
0.6225277
0.5827904
0.5331121
0.4703849
0.3984478
0.706717
0.6840924
0.6573767
0.6253308
0.5861704
0.5374903
0.4765606
0.408233
0.7269139
0.7075631
0.6850178
0.6584011
0.6264818
0.5876111
0.5394602
0.4792771
0.4125918
0.3041613
0.4130464
0.306791
0.4941953
0.4170354
0.3126989
0.556392
0.4992115
0.4237661
0.3231601
0.6060152
0.562314
0.506775
0.4340711
0.3396082
0.6464506
0.612189
0.5699505
0.5165825
0.4475073
0.3616404
0.6788541
0.6511943
0.6178864
0.5769764
0.5255676
0.4599897
0.3820495
0.7049009
0.6819554
0.6548213
0.6222146
0.582274
0.5324506
0.4696484
0.3974499
0.7261321
0.7066556
0.6839503
0.6571254
0.6249272
0.5856704
0.5369565
0.4758517
0.4072852
0.7437101
0.7268615
0.7074435
0.6848097
0.6580734
0.6260858
0.5872015
0.5389363
0.4785832
0.4116697
0.3041613
0.4110683
0.3036726
0.4911246
0.4127325
0.3058466
0.5524081
0.4939753
0.4164292
0.3113347
0.6012
0.5562291
0.4987881
0.4228925
0.3214255
0.641321
0.6058909
0.5620042
0.5061724
0.4329712
0.3379977
0.6748211
0.6463554
0.6119592
0.5695219
0.5158442
0.4465052
0.3604433
0.7022049
0.6787783
0.6510157
0.6175632
0.5764412
0.5248782
0.4592142
0.3809744
0.724568
0.7048385
0.6818108
0.6545655
0.6218027
0.5817626
0.5319023
0.4689156
0.3964566
0.743029
0.7260793
0.7065351
0.6837406
0.6567948
0.6245273
0.5852562
0.5364257
0.4751466
0.4063422
0.7584713
0.7436646
0.7267587
0.7072669
0.6845359
0.6577488
0.6257579
0.5867945
0.5384156
0.4778932
0.4072082
0.307276
0.4110683
0.3036726
0.4897125
0.4107531
0.3027211
0.5500737
0.4909032
0.4121201
0.3044586
0.5980513
0.5522434
0.4935456
0.4155373
0.3095408
0.6374051
0.6010726
0.5559104
0.4981645
0.4217435
0.3197054
0.6705528
0.6412207
0.6056475
0.5615477
0.5053796
0.4318811
0.3366392
0.6987866
0.6747422
0.646169
0.6116205
0.5689582
0.5151128
0.4456692
0.3592432
0.7222489
0.702141
0.6786299
0.6507523
0.617138
0.575911
0.5243059
0.4584414
0.3799021
0.7416674
0.7245145
0.7047162
0.6815976
0.6542288
0.6213948
0.5813387
0.5313569
0.4681867
0.3954679
0.7578725
0.7429832
0.7259758
0.7063572
0.6834645
0.6564673
0.6241961
0.5848446
0.5358981
0.4744456
0.4017796
0.7715493
0.7584314
0.7435753
0.7266069
0.7070345
0.6842645
0.6574799
0.6254321
0.58639
0.537898
0.4745562
0.4041362
0.3141036
0.4130464
0.306791
0.4897125
0.4107531
0.3027211
0.5490007
0.4894904
0.410138
0.3013228
0.5962081
0.5499082
0.4904706
0.4112191
0.3026337
0.6348486
0.5979229
0.5519212
0.4929129
0.4143645
0.3077619
0.6673012
0.6373026
0.6008233
0.5554407
0.4973441
0.4206047
0.3182538
0.6951762
0.67047
0.641024
0.6052887
0.5609469
0.504594
0.4309643
0.3352646
0.7193127
0.6987202
0.6745878
0.6458941
0.6111748
0.5683997
0.514503
0.4448324
0.35804
0.7396503
0.7221941
0.7020155
0.6784109
0.6504058
0.6167168
0.575471
0.5237359
0.4576714
0.3788329
0.7566761
0.741621
0.7244095
0.7045356
0.681317
0.6538953
0.6210567
0.5809173
0.5308146
0.4674615
0.3906813
0.7710186
0.7578324
0.7428934
0.725823
0.7061231
0.683191
0.656196
0.623867
0.5844355
0.5353737
0.4710547
0.3986241
0.7832183
0.771514
0.7583531
0.7434434
0.7264071
0.7068041
0.6840399
0.6572129
0.6251084
0.5859881
0.5353955
0.4722663
0.401807
0.3258365
0.4173461
0.3136271
0.4911246
0.4127325
0.3058466
0.5490007
0.4894904
0.410138
0.3013228
0.5953613
0.548835
0.4890567
0.4092332
0.2994844
0.6333533
0.5960793
0.5495846
0.4898337
0.4100346
0.3008242
0.6651811
0.6347455
0.5976716
0.5514465
0.4920806
0.4132022
0.3062635
0.6924305
0.6672168
0.6371018
0.6004556
0.5548227
0.4965311
0.4196466
0.3167844
0.7162169
0.6951066
0.6703076
0.6407339
0.6048163
0.5603515
0.5039337
0.4300394
0.3338737
0.7370999
0.719256
0.69859
0.6743599
0.6455323
0.6107333
0.5679342
0.5138929
0.443995
0.3568339
0.7549051
0.7396029
0.7220867
0.7018305
0.6781227
0.6500624
0.6163672
0.5750329
0.5231681
0.4569043
0.3736469
0.7699587
0.7566354
0.7415299
0.7242546
0.7042978
0.6810388
0.653619
0.6207207
0.5804983
0.5302753
0.4639526
0.3873168
0.7827446
0.7709831
0.7577536
0.7427606
0.7256218
0.705891
0.6829645
0.6559266
0.6235401
0.5840291
0.5328381
0.4687197
0.3962204
0.7936959
0.7831868
0.7714447
0.7582373
0.7432696
0.7262089
0.7066135
0.6838167
0.6569476
0.6247868
0.5840456
0.5336826
0.4705335
0.4002414
0.3437382
0.424664
0.3253762
0.4941953
0.4170354
0.3126989
0.5500737
0.4909032
0.4121201
0.3044586
0.5953613
0.548835
0.4890567
0.4092332
0.2994844
0.6326665
0.5952324
0.5485108
0.4884181
0.4080436
0.2976615
0.6639419
0.6332499
0.5958273
0.5491078
0.488996
0.4088606
0.2993022
0.6906422
0.6650963
0.6345434
0.5973009
0.5508219
0.4912558
0.4122259
0.3047495
0.7138658
0.6923597
0.6670513
0.6368055
0.5999717
0.5542102
0.4958476
0.4186797
0.315297
0.7344145
0.7161575
0.69497
0.6700678
0.6403519
0.6043481
0.5598513
0.5032678
0.4291062
0.3324661
0.7526683
0.7370508
0.7191447
0.6983978
0.6740599
0.6451738
0.6103653
0.5674686
0.5132827
0.4431569
0.3509527
0.7683911
0.7548636
0.7395098
0.7219281
0.7015868
0.6778371
0.6497776
0.6160192
0.5745967
0.5226027
0.4531867
0.3698032
0.7817991
0.7699228
0.7565556
0.7413954
0.7240504
0.7040622
0.6808085
0.6533443
0.6203867
0.5800818
0.5276667
0.4615039
0.3847069
0.7932705
0.782713
0.7709134
0.7576371
0.7425857
0.7254223
0.7056989
0.6827395
0.6556589
0.6232153
0.5820642
0.5310966
0.466946
0.3945975
0.8031562
0.7936677
0.7831251
0.7713423
0.7580848
0.7430973
0.726045
0.7064241
0.6835951
0.6566841
0.6232329
0.5827183
0.5323881
0.4693705
0.3994545
0.3667507
0.4357667
0.3433073
0.4994282
0.4243598
0.3244791
0.5524081
0.4939753
0.4164292
0.3113347
0.5962081
0.5499082
0.4904706
0.4112191
0.3026337
0.6326665
0.5952324
0.5485108
0.4884181
0.4080436
0.2976615
0.6633729
0.6325632
0.5949801
0.5480332
0.4875782
0.4068647
0.2961293
0.6895975
0.663857
0.6330476
0.5954556
0.5484806
0.488166
0.4078759
0.2977665
0.7123359
0.6905712
0.6649301
0.6342454
0.5968132
0.5502029
0.4905635
0.4112422
0.3032197
0.7323777
0.7138056
0.6922208
0.6668071
0.6364154
0.599492
0.5536954
0.4951581
0.4177038
0.3137915
0.750316
0.7343633
0.716041
0.6947684
0.6697521
0.6399733
0.6039547
0.559347
0.5025964
0.4281645
0.325537
0.766413
0.7526254
0.7369545
0.7189803
0.6981448
0.6737626
0.644875
0.6099974
0.567003
0.5126723
0.4390772
0.3459436
0.7804015
0.7683545
0.7547821
0.7393723
0.7217192
0.7013452
0.6776002
0.649494
0.6156728
0.5741624
0.5198637
0.4504745
0.3666327
0.7924218
0.7817672
0.7698523
0.7564377
0.7412181
0.7238481
0.7038671
0.6805796
0.6530714
0.6200547
0.5780677
0.5258519
0.4596158
0.3829129
0.8027721
0.7932422
0.782651
0.7708104
0.7574837
0.7424123
0.7252572
0.7055081
0.6825161
0.655393
0.6216455
0.5807172
0.5297756
0.4657513
0.3937792
0.8117404
0.8031308
0.7936124
0.7830339
0.7712073
0.7579336
0.7429547
0.7258821
0.706236
0.683375
0.6554109
0.6221726
0.5817161
0.5315201
0.4687866
0.3877557
0.4500798
0.3663665
0.5073935
0.4354756
0.3424674
0.556392
0.4992115
0.4237661
0.3231601
0.5980513
0.5522434
0.4935456
0.4155373
0.3095408
0.6333533
0.5960793
0.5495846
0.4898337
0.4100346
0.3008242
0.6633729
0.6325632
0.5949801
0.5480332
0.4875782
0.4068647
0.2961293
0.6891179
0.6632881
0.6323607
0.5946081
0.5474049
0.4867459
0.4058764
0.2945844
0.7114426
0.6895264
0.6636907
0.6327491
0.5949666
0.547859
0.4874701
0.4068849
0.296217
0.7310534
0.7122756
0.6904319
0.6646848
0.633853
0.5963298
0.5496835
0.4898663
0.4102509
0.3016741
0.7485338
0.7323258
0.7136873
0.6920158
0.6664854
0.6360287
0.5990889
0.5531762
0.4944626
0.4167188
0.306379
0.764335
0.7502713
0.7342626
0.7158689
0.6945027
0.669439
0.6396552
0.6035583
0.5588385
0.5019193
0.4235421
0.3181664
0.7786394
0.7663752
0.7525413
0.7368123
0.7187639
0.6978939
0.6735148
0.6445764
0.6096295
0.5665374
0.5097021
0.4357171
0.3410895
0.7911679
0.780369
0.7682825
0.7546617
0.7391911
0.7215121
0.7011449
0.6773644
0.6492118
0.615328
0.572059
0.5178732
0.4482702
0.3643056
0.8020059
0.7923932
0.7817044
0.7697481
0.7562823
0.7410424
0.7236806
0.7036731
0.6803521
0.6528002
0.6184497
0.5766691
0.5244548
0.4583248
0.3819958
0.8113919
0.8027466
0.7931866
0.7825592
0.7706747
0.7573315
0.7422688
0.7250932
0.7053186
0.6822941
0.6541081
0.6205708
0.5796964
0.5288867
0.4651498
0.8195646
0.8117174
0.8030809
0.7935305
0.7829136
0.7710735
0.7578084
0.7428132
0.7257204
0.7060492
0.6823117
0.6545432
0.6213725
0.5810445
0.5310844
0.4037616
0.4633213
0.3874077
0.5177207
0.4498117
0.3656181
0.5624723
0.5071841
0.4349073
0.3412324
0.6012
0.5562291
0.4987881
0.4228925
0.3214255
0.6348486
0.5979229
0.5519212
0.4929129
0.4143645
0.3077619
0.6639419
0.6332499
0.5958273
0.5491078
0.488996
0.4088606
0.2993022
0.6891179
0.6632881
0.6323607
0.5946081
0.5474049
0.4867459
0.4058764
0.2945844
0.7110327
0.6890469
0.6631217
0.6320621
0.5941186
0.5467824
0.4860487
0.4048824
0.2930267
0.7302804
0.7113823
0.6893872
0.6634453
0.6323561
0.5944819
0.5473381
0.4867702
0.4058876
0.2946538
0.7473757
0.7310013
0.712157
0.6902262
0.6643618
0.6334641
0.5959242
0.5491606
0.4891641
0.4092521
0.2940783
0.762762
0.7484885
0.7322237
0.7135126
0.6917457
0.6661665
0.6357038
0.5986825
0.5526526
0.493761
0.4118831
0.2985836
0.7767901
0.7642957
0.7501835
0.7341139
0.7156421
0.6942393
0.6691761
0.6393347
0.6031587
0.5583259
0.4985973
0.4188747
0.3089192
0.7895881
0.7786059
0.766301
0.7524169
0.7366248
0.7185492
0.697685
0.6732672
0.6442778
0.6092617
0.5642724
0.5072687
0.4325583
0.336767
0.8008746
0.7911387
0.780305
0.7681762
0.7545031
0.7390115
0.7213404
0.7009455
0.6771297
0.6489309
0.6136583
0.5705335
0.5162596
0.4466747
0.3630427
0.8106969
0.8019802
0.7923369
0.7816116
0.7696107
0.7561282
0.7408969
0.7235141
0.7034805
0.6801261
0.6514891
0.6173368
0.5755935
0.5235009
0.4576672
0.8192469
0.8113688
0.8026964
0.7931043
0.7824383
0.77054
0.7572056
0.7421263
0.7249303
0.7051303
0.6812218
0.6532294
0.6197569
0.5790099
0.5284394
0.8267252
0.8195436
0.8116722
0.8030071
0.7934226
0.7827942
0.7709627
0.7576842
0.7426726
0.7255598
0.7051471
0.6815875
0.6538887
0.6208366
0.5807076
0.4142632
0.4735535
0.4034375
0.527337
0.4630713
0.3867296
0.5703902
0.5175254
0.4492885
0.3645182
0.6060152
0.562314
0.506775
0.4340711
0.3396082
0.6374051
0.6010726
0.5559104
0.4981645
0.4217435
0.3197054
0.6651811
0.6347455
0.5976716
0.5514465
0.4920806
0.4132022
0.3062635
0.6895975
0.663857
0.6330476
0.5954556
0.5484806
0.488166
0.4078759
0.2977665
0.7110327
0.6890469
0.6631217
0.6320621
0.5941186
0.5467824
0.4860487
0.4048824
0.2930267
0.7299257
0.7109724
0.6889077
0.6628763
0.631669
0.5936335
0.5462609
0.4853477
0.4038827
0.2914561
0.7467
0.7302284
0.7112638
0.6891815
0.6631221
0.6319667
0.5940758
0.5468143
0.4860662
0.4048839
0.286982
0.7617405
0.7473304
0.7308992
0.711982
0.6899553
0.6640416
0.6331379
0.595516
0.5486341
0.488457
0.4043566
0.2864408
0.7753913
0.7627222
0.7483996
0.732073
0.7132823
0.6914779
0.6658986
0.6353762
0.5982727
0.5521247
0.4903185
0.407044
0.2891505
0.7879314
0.7767552
0.7642183
0.7500537
0.7339179
0.7154171
0.6940181
0.6689112
0.6390116
0.6027558
0.5558117
0.495263
0.4132499
0.2969544
0.7994502
0.7895581
0.77854
0.7661913
0.752253
0.736439
0.7183704
0.6974761
0.6730196
0.6439793
0.6074726
0.5624206
0.5049899
0.4298221
0.3337858
0.809671
0.8008484
0.7910815
0.7802105
0.7680361
0.7543458
0.7388626
0.7211695
0.7007471
0.6768962
0.647571
0.6124491
0.5692981
0.5150941
0.4458181
0.8186136
0.8106735
0.8019295
0.7922538
0.7814893
0.7694745
0.7560006
0.7407524
0.7233487
0.703289
0.6790336
0.6505809
0.6164814
0.5748596
0.5230154
0.8264345
0.8192259
0.8113233
0.8026223
0.7929959
0.7823183
0.7704286
0.7570806
0.7419848
0.7247686
0.7042211
0.6804891
0.6525643
0.6192099
0.5786647
0.8333027
0.8267061
0.8195025
0.8116053
0.8029097
0.7933156
0.7826955
0.7708527
0.7575608
0.742533
0.7247843
0.7045331
0.6810416
0.6534505
0.6205679
0.419417
0.4803416
0.4139535
0.53481
0.4733157
0.4028058
0.577801
0.5271529
0.4625835
0.3857333
0.6123064
0.5702414
0.517144
0.4485189
0.3630727
0.641321
0.6058909
0.5620042
0.5061724
0.4329712
0.3379977
0.6673012
0.6373026
0.6008233
0.5554407
0.4973441
0.4206047
0.3182538
0.6906422
0.6650963
0.6345434
0.5973009
0.5508219
0.4912558
0.4122259
0.3047495
0.7114426
0.6895264
0.6636907
0.6327491
0.5949666
0.547859
0.4874701
0.4068849
0.296217
0.7299257
0.7109724
0.6889077
0.6628763
0.631669
0.5936335
0.5462609
0.4853477
0.4038827
0.2914561
0.7463901
0.7298738
0.710854
0.6887022
0.6625531
0.6312794
0.5932273
0.5457369
0.4846432
0.4028772
0.2837538
0.7611447
0.7466548
0.7301264
0.7110889
0.6889107
0.6628017
0.6316404
0.5936676
0.5462876
0.4853581
0.399971
0.2795135
0.7744834
0.7617007
0.7472414
0.7307483
0.7117513
0.6896867
0.663773
0.6328095
0.595105
0.548104
0.4849929
0.3996554
0.2775918
0.7866793
0.775356
0.7626439
0.7482681
0.7318743
0.713054
0.6912529
0.6656285
0.635046
0.5978596
0.5495346
0.4868902
0.4014058
0.2778791
0.7979576
0.7879003
0.7766866
0.764104
0.7498825
0.7337235
0.7152283
0.6937952
0.6686441
0.638686
0.6007803
0.5532918
0.4912636
0.4062116
0.2806272
0.8083802
0.7994232
0.7894991
0.7784425
0.7660467
0.7520905
0.7362842
0.7181917
0.6972673
0.6727722
0.6425276
0.6060116
0.5606881
0.5030229
0.4279786
0.8176792
0.8096473
0.8007968
0.7909968
0.7800858
0.7678972
0.7542154
0.7387144
0.7209994
0.7005497
0.6757656
0.6465871
0.6114703
0.5684064
0.5144691
0.8258551
0.8185924
0.8106276
0.8018546
0.7921441
0.781368
0.7693617
0.7558739
0.7406088
0.7231844
0.7023638
0.6782775
0.6498833
0.6158981
0.5744862
0.8330357
0.8264153
0.8191845
0.8112561
0.8025244
0.7928883
0.782219
0.770318
0.7569564
0.7418442
0.7239874
0.7036003
0.6799347
0.6521174
0.6189348
0.8393651
0.8332852
0.8266684
0.8194416
0.811517
0.8028132
0.793227
0.7825975
0.7707435
0.7574383
0.7418588
0.7242568
0.7040703
0.6806761
0.6532308
0.4836967
0.4191141
0.5397883
0.4801114
0.4133499
0.583586
0.5346333
0.4728518
0.4018776
0.6182179
0.5776597
0.5267931
0.4618662
0.3844242
0.6464506
0.612189
0.5699505
0.5165825
0.4475073
0.3616404
0.6705528
0.6412207
0.6056475
0.5615477
0.5053796
0.4318811
0.3366392
0.6924305
0.6672168
0.6371018
0.6004556
0.5548227
0.4965311
0.4196466
0.3167844
0.7123359
0.6905712
0.6649301
0.6342454
0.5968132
0.5502029
0.4905635
0.4112422
0.3032197
0.7302804
0.7113823
0.6893872
0.6634453
0.6323561
0.5944819
0.5473381
0.4867702
0.4058876
0.2946538
0.7463901
0.7298738
0.710854
0.6887022
0.6625531
0.6312794
0.5932273
0.5457369
0.4846432
0.4028772
0.2837538
0.7608715
0.7463449
0.7297719
0.7106792
0.6884314
0.6622328
0.6309533
0.5928192
0.5452104
0.483935
0.3979583
0.276368
0.773954
0.761105
0.746566
0.7299757
0.7108584
0.6886422
0.6625333
0.6313125
0.5932572
0.545758
0.4818938
0.3953911
0.2710921
0.785867
0.7744481
0.7616225
0.7471099
0.7305494
0.7115226
0.6894615
0.6635027
0.632479
0.5946914
0.545508
0.4816795
0.3944049
0.2675111
0.7968301
0.7866478
0.7752866
0.7625282
0.7480948
0.7316772
0.7128622
0.6910261
0.6653562
0.6347131
0.5958331
0.5469581
0.4829102
0.3948806
0.2645941
0.8070284
0.7979295
0.7878389
0.776585
0.7639531
0.7497127
0.7335603
0.715038
0.6935705
0.6683751
0.6370893
0.5988016
0.5502729
0.4862845
0.3968719
0.251602
0.8165041
0.8083558
0.7993702
0.7894119
0.778314
0.7659033
0.7519551
0.7361295
0.7180131
0.6970586
0.6715689
0.641343
0.6046456
0.5591943
0.5017011
0.8250005
0.8176576
0.8096006
0.8007206
0.7908851
0.7799621
0.767782
0.7540856
0.738567
0.7208302
0.6995941
0.6749483
0.6457911
0.6107642
0.5679284
0.8325037
0.8258357
0.8185506
0.8105597
0.8017557
0.7920354
0.7812675
0.7692496
0.755748
0.7404661
0.7223903
0.701724
0.6776969
0.6494077
0.6156014
0.839119
0.8330181
0.8263775
0.8191233
0.8111675
0.8024274
0.7927992
0.7821205
0.7702082
0.7568331
0.7411654
0.7234542
0.7031306
0.6795623
0.6518927
0.8449695
0.8393489
0.8332507
0.8266128
0.8193612
0.8114295
0.8027333
0.7931391
0.7825002
0.7706351
0.7568467
0.7414005
0.7238593
0.7037607
0.680493
0.5422557
0.4834701
0.4185238
0.5874529
0.5396162
0.4796623
0.4124629
0.6228487
0.5834497
0.5342881
0.4721696
0.400658
0.6512855
0.6181058
0.5773833
0.5262637
0.4609234
0.3831276
0.6748211
0.6463554
0.6119592
0.5695219
0.5158442
0.4465052
0.3604433
0.6951762
0.67047
0.641024
0.6052887
0.5609469
0.504594
0.4309643
0.3352646
0.7138658
0.6923597
0.6670513
0.6368055
0.5999717
0.5542102
0.4958476
0.4186797
0.315297
0.7310534
0.7122756
0.6904319
0.6646848
0.633853
0.5963298
0.5496835
0.4898663
0.4102509
0.3016741
0.7467
0.7302284
0.7112638
0.6891815
0.6631221
0.6319667
0.5940758
0.5468143
0.4860662
0.4048839
0.286982
0.7608715
0.7463449
0.7297719
0.7106792
0.6884314
0.6622328
0.6309533
0.5928192
0.5452104
0.483935
0.3979583
0.276368
0.7737113
0.7608318
0.7462561
0.7296213
0.7104489
0.688163
0.6619646
0.6306256
0.5924092
0.5446812
0.4804719
0.3934358
0.2681415
0.7853934
0.7739188
0.7610269
0.7464347
0.729777
0.7106299
0.6884173
0.6622636
0.6309828
0.5928446
0.5431677
0.4786753
0.3904093
0.2617202
0.796099
0.7858355
0.7743788
0.7615068
0.7469365
0.7303521
0.7113308
0.6892348
0.6632307
0.6321465
0.5926659
0.5430272
0.4779889
0.3886134
0.256228
0.8060078
0.7968018
0.7865858
0.775184
0.7623757
0.7479228
0.7315116
0.7126689
0.6907975
0.6650818
0.6330805
0.5938181
0.5439696
0.4783217
0.3874057
0.246114
0.8152741
0.807003
0.7978744
0.7877482
0.7764511
0.7638035
0.7495702
0.7333958
0.7148462
0.6933441
0.6670556
0.6354907
0.5964324
0.5465218
0.4797147
0.3806322
0.2345819
0.8239263
0.8164819
0.8083078
0.7992917
0.7892969
0.7781865
0.7657839
0.7518198
0.7359749
0.7178346
0.6960439
0.6705876
0.6402359
0.6034682
0.5581909
0.8317192
0.8249808
0.8176152
0.8095316
0.80062
0.7907744
0.7798596
0.7676673
0.7539564
0.7384203
0.7200113
0.6989037
0.6742873
0.645217
0.6103858
0.8386288
0.8324859
0.8257976
0.8184888
0.8104702
0.8016577
0.7919453
0.7811677
0.7691383
0.755623
0.7397767
0.7218413
0.7012328
0.6773011
0.6491658
0.8447421
0.8391028
0.8329835
0.8263216
0.8190426
0.8110795
0.8023471
0.7927108
0.7820226
0.7700991
0.7562376
0.7407024
0.7230511
0.7028153
0.6793751
0.8501652
0.8449546
0.8393172
0.8331996
0.8265393
0.8192815
0.811357
0.802654
0.7930518
0.7824036
0.7701117
0.7564446
0.7410553
0.7235934
0.7036055
0.5893738
0.5420858
0.483028
0.4176561
0.6259522
0.5873196
0.53928
0.4790016
0.4112974
0.6550834
0.6227401
0.5831831
0.53378
0.4712729
0.3994502
0.6788541
0.6511943
0.6178864
0.5769764
0.5255676
0.4599897
0.3820495
0.6987866
0.6747422
0.646169
0.6116205
0.5689582
0.5151128
0.4456692
0.3592432
0.7162169
0.6951066
0.6703076
0.6407339
0.6048163
0.5603515
0.5039337
0.4300394
0.3338737
0.7323777
0.7138056
0.6922208
0.6668071
0.6364154
0.599492
0.5536954
0.4951581
0.4177038
0.3137915
0.7473757
0.7310013
0.712157
0.6902262
0.6643618
0.6334641
0.5959242
0.5491606
0.4891641
0.4092521
0.2940783
0.7611447
0.7466548
0.7301264
0.7110889
0.6889107
0.6628017
0.6316404
0.5936676
0.5462876
0.4853581
0.399971
0.2795135
0.7737113
0.7608318
0.7462561
0.7296213
0.7104489
0.688163
0.6619646
0.6306256
0.5924092
0.5446812
0.4804719
0.3934358
0.2681415
0.7851763
0.7736761
0.7607538
0.746125
0.7294228
0.7102205
0.6879384
0.6616953
0.6302965
0.5919972
0.5420946
0.477298
0.3885744
0.2590744
0.7956729
0.785362
0.7738497
0.7609115
0.7462616
0.72958
0.7104385
0.6881913
0.6619926
0.6306515
0.5908269
0.5407636
0.475182
0.3850424
0.2514256
0.8053463
0.7960707
0.7857736
0.7742762
0.7613543
0.7467646
0.7301867
0.7111378
0.6890067
0.662957
0.6305181
0.5907312
0.5402658
0.4739298
0.382321
0.2412041
0.8143461
0.8059823
0.7967461
0.7864941
0.7750486
0.7622243
0.7477784
0.7313448
0.7124741
0.6905671
0.6637361
0.6314575
0.5914818
0.5405292
0.4730865
0.3772758
0.2321667
0.8228025
0.8152511
0.8069532
0.7977928
0.7876284
0.7763182
0.7636779
0.7494265
0.73323
0.7146529
0.6922343
0.665735
0.6335772
0.5934919
0.5415859
0.4683592
0.3705575
0.2216226
0.8307335
0.823906
0.8164383
0.8082368
0.7991882
0.7891828
0.7780803
0.7656645
0.7516846
0.7358204
0.7169667
0.6952169
0.6696707
0.6392819
0.6026775
0.8379063
0.8317012
0.8249421
0.8175524
0.8094405
0.8005202
0.7906825
0.7797576
0.7675533
0.753828
0.7377102
0.7194199
0.6983455
0.6738107
0.6449093
0.844289
0.8386125
0.8324509
0.8257411
0.8184073
0.8103813
0.8015765
0.7918559
0.7810686
0.7690278
0.7550187
0.7393004
0.7214201
0.7008981
0.6771
0.8499544
0.8447271
0.8390709
0.8329321
0.8262477
0.8189625
0.8110067
0.8022674
0.7926231
0.7819254
0.7695724
0.7558317
0.7403524
0.7227804
0.7026568
0.8549947
0.8501514
0.8449252
0.8392701
0.8331321
0.8264663
0.8192155
0.8112851
0.8025752
0.7929652
0.7819371
0.7697561
0.7561418
0.7408243
0.7234601
0.6274968
0.589242
0.541754
0.4823777
0.416516
0.6576341
0.6258458
0.587059
0.5387852
0.4781333
0.4101431
0.6820291
0.6549948
0.6225277
0.5827904
0.5331121
0.4703849
0.3984478
0.7022049
0.6787783
0.6510157
0.6175632
0.5764412
0.5248782
0.4592142
0.3809744
0.7193127
0.6987202
0.6745878
0.6458941
0.6111748
0.5683997
0.514503
0.4448324
0.35804
0.7344145
0.7161575
0.69497
0.6700678
0.6403519
0.6043481
0.5598513
0.5032678
0.4291062
0.3324661
0.7485338
0.7323258
0.7136873
0.6920158
0.6664854
0.6360287
0.5990889
0.5531762
0.4944626
0.4167188
0.306379
0.7617405
0.7473304
0.7308992
0.711982
0.6899553
0.6640416
0.6331379
0.595516
0.5486341
0.488457
0.4043566
0.2864408
0.773954
0.761105
0.746566
0.7299757
0.7108584
0.6886422
0.6625333
0.6313125
0.5932572
0.545758
0.4818938
0.3953911
0.2710921
0.7851763
0.7736761
0.7607538
0.746125
0.7294228
0.7102205
0.6879384
0.6616953
0.6302965
0.5919972
0.5420946
0.477298
0.3885744
0.2590744
0.7954775
0.785145
0.773607
0.7606385
0.7459521
0.729226
0.7100294
0.6877127
0.6614247
0.6299658
0.5899838
0.5397262
0.4738927
0.3833879
0.2491832
0.8049609
0.7956447
0.7853003
0.7737473
0.7607593
0.7460899
0.729415
0.7102462
0.6879642
0.6617201
0.6290314
0.588955
0.5381551
0.471427
0.3793238
0.2378602
0.8137447
0.8053208
0.7960151
0.785682
0.774141
0.761203
0.7466204
0.7300203
0.7109436
0.6887772
0.661617
0.6289632
0.5885781
0.5372317
0.4695322
0.3741757
0.229328
0.821955
0.8143229
0.805932
0.7966637
0.7863732
0.7749143
0.7620972
0.7476329
0.7311767
0.7122777
0.6894373
0.6623985
0.6295762
0.5887945
0.5366117
0.4660178
0.3689255
0.2203873
0.8297028
0.8227815
0.8152058
0.8068794
0.7976851
0.7875096
0.7762067
0.7635513
0.7492818
0.7330631
0.7137055
0.6911236
0.6641546
0.6312042
0.5896298
0.5330845
0.4613588
0.3623502
0.2114531
0.8369987
0.830715
0.8238662
0.8163737
0.8081431
0.7990855
0.7890878
0.7779742
0.7655453
0.7515494
0.7350691
0.7162596
0.6944442
0.6688809
0.6386414
0.8436215
0.8378897
0.8316657
0.8248847
0.8174695
0.8093501
0.8004374
0.7905912
0.7796561
0.7674398
0.7532063
0.7371977
0.7189419
0.6979431
0.6735553
0.8495346
0.844274
0.8385803
0.8323991
0.8256666
0.8183264
0.8103078
0.8014958
0.791767
0.7809702
0.7684936
0.7546013
0.738935
0.7211331
0.7007279
0.8547987
0.8499406
0.8446976
0.8390237
0.8328644
0.8261745
0.8188962
0.8109344
0.8021882
0.7925359
0.7814562
0.7692134
0.7555248
0.7401174
0.7226444
0.8594944
0.8549818
0.8501242
0.8448818
0.839208
0.8330652
0.826406
0.81915
0.8112138
0.8024971
0.7925467
0.7816202
0.7694883
0.7559393
0.7407086
0.6589053
0.6273915
0.5889843
0.5412655
0.481523
0.4153869
0.684165
0.657547
0.6256376
0.5866752
0.5381346
0.4772735
0.4091856
0.7049009
0.6819554
0.6548213
0.6222146
0.582274
0.5324506
0.4696484
0.3974499
0.7222489
0.702141
0.6786299
0.6507523
0.617138
0.575911
0.5243059
0.4584414
0.3799021
0.7370999
0.719256
0.69859
0.6743599
0.6455323
0.6107333
0.5679342
0.5138929
0.443995
0.3568339
0.750316
0.7343633
0.716041
0.6947684
0.6697521
0.6399733
0.6039547
0.559347
0.5025964
0.4281645
0.325537
0.762762
0.7484885
0.7322237
0.7135126
0.6917457
0.6661665
0.6357038
0.5986825
0.5526526
0.493761
0.4118831
0.2985836
0.7744834
0.7617007
0.7472414
0.7307483
0.7117513
0.6896867
0.663773
0.6328095
0.595105
0.548104
0.4849929
0.3996554
0.2775918
0.7853934
0.7739188
0.7610269
0.7464347
0.729777
0.7106299
0.6884173
0.6622636
0.6309828
0.5928446
0.5431677
0.4786753
0.3904093
0.2617202
0.7954775
0.785145
0.773607
0.7606385
0.7459521
0.729226
0.7100294
0.6877127
0.6614247
0.6299658
0.5899838
0.5397262
0.4738927
0.3833879
0.2491832
0.8047842
0.7954494
0.7850833
0.7735049
0.7604865
0.7457806
0.7290613
0.7098374
0.6874861
0.661153
0.6283501
0.5881413
0.537186
0.4702667
0.3779006
0.2361928
0.8133944
0.8049355
0.7955892
0.785209
0.7736124
0.7606083
0.7459462
0.7292493
0.7100529
0.6877359
0.6603882
0.6275289
0.5869244
0.5353534
0.4674345
0.3720044
0.2271142
0.821406
0.8137216
0.8052706
0.7959329
0.7855613
0.7740068
0.7610761
0.7464753
0.7298528
0.7107482
0.6876538
0.6603376
0.6272329
0.5862138
0.533949
0.4638531
0.3669743
0.2187179
0.8289259
0.8219338
0.8142772
0.8058575
0.796555
0.7862532
0.7748015
0.7619691
0.7474862
0.7310072
0.7113149
0.6883146
0.6608483
0.6274135
0.5857386
0.5313336
0.4602086
0.3613593
0.2107123
0.8360501
0.8296836
0.8227402
0.8151388
0.806782
0.7975782
0.7874099
0.7760943
0.7634238
0.749136
0.7322444
0.7127576
0.6897947
0.6621959
0.6280917
0.5829942
0.5278755
0.4556616
0.3555173
0.203447
0.8427832
0.8369816
0.8306785
0.8238073
0.8162885
0.8080501
0.7989999
0.7889929
0.7778682
0.7654261
0.7508925
0.7344573
0.7155991
0.6937787
0.6683505
0.848916
0.8436062
0.837857
0.831613
0.824809
0.8173873
0.8092752
0.8003551
0.7905003
0.7795552
0.7668908
0.7527577
0.7367836
0.7185973
0.6977274
0.8544086
0.8495206
0.8442442
0.8385326
0.8323308
0.8255927
0.8182595
0.8102347
0.8014158
0.7916788
0.7804945
0.7681248
0.7542812
0.7386861
0.7209872
0.8593119
0.8547859
0.8499133
0.844654
0.8389613
0.8327972
0.8261139
0.8188304
0.8108627
0.8021096
0.7921152
0.7811364
0.7689421
0.7553188
0.7399993
0.8636962
0.8594825
0.8549566
0.850084
0.8448244
0.8391463
0.8330098
0.8263461
0.819085
0.8111429
0.8021197
0.7922627
0.7813817
0.7693092
0.7558378
0.6852307
0.658819
0.6271853
0.5886048
0.5406233
0.4806765
0.4144505
0.706717
0.6840924
0.6573767
0.6253308
0.5861704
0.5374903
0.4765606
0.408233
0.724568
0.7048385
0.6818108
0.6545655
0.6218027
0.5817626
0.5319023
0.4689156
0.3964566
0.7396503
0.7221941
0.7020155
0.6784109
0.6504058
0.6167168
0.575471
0.5237359
0.4576714
0.3788329
0.7526683
0.7370508
0.7191447
0.6983978
0.6740599
0.6451738
0.6103653
0.5674686
0.5132827
0.4431569
0.3509527
0.764335
0.7502713
0.7342626
0.7158689
0.6945027
0.669439
0.6396552
0.6035583
0.5588385
0.5019193
0.4235421
0.3181664
0.7753913
0.7627222
0.7483996
0.732073
0.7132823
0.6914779
0.6658986
0.6353762
0.5982727
0.5521247
0.4903185
0.407044
0.2891505
0.785867
0.7744481
0.7616225
0.7471099
0.7305494
0.7115226
0.6894615
0.6635027
0.632479
0.5946914
0.545508
0.4816795
0.3944049
0.2675111
0.7956729
0.785362
0.7738497
0.7609115
0.7462616
0.72958
0.7104385
0.6881913
0.6619926
0.6306515
0.5908269
0.5407636
0.475182
0.3850424
0.2514256
0.8047842
0.7954494
0.7850833
0.7735049
0.7604865
0.7457806
0.7290613
0.7098374
0.6874861
0.661153
0.6283501
0.5881413
0.537186
0.4702667
0.3779006
0.2361928
0.8132339
0.8047588
0.795394
0.7849921
0.7733701
0.7603357
0.7456371
0.7288959
0.7096446
0.6872585
0.6598252
0.6268719
0.5861652
0.5344827
0.4664373
0.3709024
0.2259377
0.8210862
0.8133714
0.8048854
0.7955072
0.7850885
0.7734786
0.7604819
0.7458018
0.7290827
0.7098587
0.6866201
0.6591532
0.625899
0.5847442
0.5323773
0.4623331
0.3654224
0.2172933
0.8284227
0.8213849
0.813676
0.8051963
0.7958243
0.7854414
0.7738943
0.7609485
0.7463293
0.7296843
0.7097918
0.6865813
0.6589141
0.6253336
0.5836579
0.5297155
0.4588334
0.3600374
0.2096603
0.8353353
0.8289065
0.8218922
0.8142096
0.8057593
0.7964471
0.7861524
0.7746878
0.7618399
0.7473384
0.7301764
0.7103583
0.6870136
0.6590671
0.6249566
0.5816277
0.5270122
0.4549479
0.3547855
0.20293
0.8419075
0.8360325
0.8296458
0.822679
0.8150503
0.8066854
0.7974885
0.7873094
0.7759811
0.7632953
0.7484211
0.7314254
0.7116237
0.6881486
0.6596296
0.6227541
0.5789464
0.5236498
0.4509207
0.3498871
0.1972436
0.8481396
0.8427675
0.8369481
0.8306245
0.8237295
0.816204
0.8079727
0.7989144
0.788898
0.7777622
0.7648466
0.7503577
0.7338858
0.7150303
0.6933319
0.853834
0.8489019
0.843576
0.8378086
0.8315436
0.8247339
0.8173191
0.8092006
0.8002732
0.7904099
0.7790667
0.7664947
0.7523952
0.736485