/*--------------------------------*- C++ -*----------------------------------*\
| =========                 |                                                 |
| \\      /  F ield         | OpenFOAM: The Open Source CFD Toolbox           |
|  \\    /   O peration     | Version:  2306                                  |
|   \\  /    A nd           | Website:  www.openfoam.com                      |
|    \\/     M anipulation  |                                                 |
\*---------------------------------------------------------------------------*/
FoamFile
{
    version     2.0;
    format      ascii;
    arch        "LSB;label=32;scalar=64";
    class       volScalarField;
    location    "0.3/fuel";
    object      iDmdtfuel.H2O;
}
// * * * * * * * * * * * * * * * * * * * * * * * * * * * * * * * * * * * * * //

dimensions      [1 -3 -1 0 0 0 0];

internalField   nonuniform List<scalar> 
16000
(
99.53378
100.3005
90.1192
94.2834
101.8193
90.60906
94.98366
81.83694
85.61821
90.58914
104.0796
91.55654
96.36906
82.2038
86.06808
91.24558
75.15793
77.95381
82.4257
88.30147
106.9606
92.91627
98.42872
82.9054
86.93733
92.54361
75.45353
78.29232
82.84864
88.9336
69.64147
71.74672
75.18275
80.42543
87.29191
109.9699
94.55202
101.051
83.89371
88.18418
94.47322
76.01481
78.93909
83.66537
90.18383
69.88932
72.02053
75.50187
80.83276
87.91664
64.9544
66.60222
69.30181
73.43227
79.51734
0
112.0934
96.11883
103.7865
85.04569
89.68338
96.93077
76.79486
79.84985
84.83691
92.04406
70.35764
72.53995
76.11123
81.61932
89.15335
65.16761
66.83254
69.56057
73.73985
79.91894
0
60.88952
62.21834
64.41674
67.74895
72.62385
0
0
113.2962
97.12211
105.7075
86.09317
91.11851
99.49671
77.68286
80.91111
86.24598
94.41783
71.00167
73.26162
76.96932
82.74817
90.99682
65.56915
67.26734
70.05113
74.32707
80.69479
0
61.07651
62.41703
64.63487
67.99862
72.92681
0
0
57.30552
58.40653
60.24578
63.02339
67.02477
0
0
0
113.8924
97.62257
106.7896
86.7142
92.03422
101.2927
78.45803
81.87565
87.59536
96.90381
71.72091
74.08288
77.9694
84.10742
93.35715
66.11663
67.86508
70.73268
75.15428
81.80941
0
61.42789
62.79087
65.04638
68.4718
73.50533
0
0
57.47195
58.58121
60.43431
63.23406
67.27062
0
0
0
54.10765
55.0378
56.61264
58.98465
62.36975
0
0
0
0
114.1298
97.83447
107.3228
86.98483
92.48897
102.3013
78.88674
82.44577
88.45364
98.64143
72.32741
74.79932
78.87839
85.41104
95.84148
66.71831
68.53232
71.5083
76.11908
83.15402
0
61.90361
63.3004
65.61206
69.12937
74.32084
0
0
57.78428
58.90918
60.78882
63.6314
67.73663
0
0
0
54.25749
55.19362
56.77868
59.16693
62.57723
0
0
0
0
51.22635
52.02559
53.39656
55.46329
58.39087
0
0
0
0
0
114.1298
97.90589
107.5341
87.07425
92.68034
102.797
79.04677
82.69319
88.87857
99.61701
72.64106
75.19428
79.41392
86.23805
97.57877
67.2105
69.09441
72.18472
76.99662
84.44673
0
62.41938
63.86003
66.24342
69.87803
75.27313
0
0
58.20463
59.353
61.2719
64.17767
68.38454
0
0
0
54.53853
55.48581
57.09023
59.50957
62.96856
0
0
0
0
51.36249
52.16617
53.54491
55.62399
58.57043
0
0
0
0
0
48.60922
49.30626
50.51648
52.34326
54.92091
0
0
0
0
0
0
113.8924
97.90589
107.5341
87.09362
92.74437
102.993
79.07961
82.7743
89.05681
100.097
72.73757
75.3409
79.64548
86.64693
98.55672
67.44875
69.38396
72.55618
77.51184
85.26516
0
62.83019
64.31717
66.77486
70.53098
76.14031
0
0
58.65514
59.83381
61.80232
64.7875
69.12279
0
0
0
54.91496
55.87884
57.51172
59.97651
63.50674
0
0
0
0
51.61783
52.42964
53.82291
55.9254
58.90795
0
0
0
0
0
48.73392
49.43423
50.65052
52.48697
55.07926
0
0
0
0
0
0
46.21613
46.83174
47.91276
49.5467
51.84553
0
0
0
0
0
0
0
113.2962
97.83447
107.3228
87.09362
92.74437
102.993
79.07567
82.79152
89.11623
100.2871
72.73926
75.37037
79.72095
86.8185
99.04023
67.50542
69.47221
72.69329
77.73398
85.66991
0
63.0166
64.53733
67.04734
70.88802
76.64767
0
0
59.00571
60.21606
62.23506
65.30059
69.7669
0
0
0
55.31451
56.29969
57.96812
60.48922
64.10788
0
0
0
0
51.95846
52.78233
54.19675
56.33318
59.36804
0
0
0
0
0
48.96789
49.67406
50.90157
52.75618
55.37626
0
0
0
0
0
0
46.33109
46.94917
48.03495
49.67666
51.98719
0
0
0
0
0
0
0
44.01624
44.56518
45.54031
47.01634
49.08812
0
0
0
0
0
0
0
0
112.0934
97.62257
106.7896
87.07425
92.68034
102.797
79.07567
82.79152
89.11623
100.2871
72.72296
75.36631
79.73677
86.87578
99.23275
67.48857
69.47292
72.72031
77.8062
85.84038
0
63.0473
64.58874
67.12952
71.01906
76.86593
0
0
59.15521
60.38837
62.44223
65.56224
70.11743
0
0
0
55.61916
56.62641
58.33035
60.90712
64.61352
0
0
0
0
52.31704
53.15628
54.5968
56.77468
59.87341
0
0
0
0
0
49.27899
49.99383
51.23754
53.11819
55.77815
0
0
0
0
0
0
46.54695
47.16933
48.26381
49.92001
52.25255
0
0
0
0
0
0
0
44.12275
44.67362
45.65257
47.13491
49.21627
0
0
0
0
0
0
0
0
41.98538
42.47829
43.36453
44.70885
46.59235
0
0
0
0
0
0
0
0
0
109.9699
97.12211
105.7075
86.98483
92.48897
102.3013
79.07961
82.7743
89.05681
100.097
72.72296
75.36631
79.73677
86.87578
99.23275
67.46528
69.45739
72.71612
77.82127
85.89766
0
63.01919
64.57217
67.12938
71.04445
76.93692
0
0
59.16858
60.41563
62.48962
65.64031
70.24536
0
0
0
55.74163
56.76459
58.49243
61.10587
64.86985
0
0
0
0
52.5857
53.44064
54.90672
57.1246
60.28502
0
0
0
0
0
49.6042
50.33003
51.59348
53.50547
56.21336
0
0
0
0
0
0
46.83321
47.46189
48.56882
50.24562
52.60944
0
0
0
0
0
0
0
44.32295
44.87709
45.86295
47.35694
49.45622
0
0
0
0
0
0
0
0
42.08451
42.5789
43.46832
44.81788
46.70931
0
0
0
0
0
0
0
0
0
40.1025
40.54886
41.35886
42.59099
44.31563
0
0
0
0
0
0
0
0
0
0
106.9606
96.11883
103.7865
86.7142
92.03422
101.2927
79.04677
82.69319
88.87857
99.61701
72.73926
75.37037
79.72096
86.8185
99.04023
67.46528
69.45739
72.71612
77.82127
85.89766
0
62.99198
64.55007
67.11431
71.04014
76.9518
0
0
59.13372
60.38848
62.47307
65.63943
70.26979
0
0
0
55.74327
56.77569
58.51697
61.15038
64.94548
0
0
0
0
52.68791
53.5538
55.03661
57.27993
60.47939
0
0
0
0
0
49.84425
50.58115
51.86347
53.80497
56.55791
0
0
0
0
0
0
47.13079
47.76733
48.88925
50.59046
52.99127
0
0
0
0
0
0
0
44.58785
45.14676
46.14238
47.6528
49.77732
0
0
0
0
0
0
0
0
42.27109
42.76792
43.66299
45.02214
46.92831
0
0
0
0
0
0
0
0
0
40.19516
40.64265
41.45527
42.69187
44.42322
0
0
0
0
0
0
0
0
0
0
38.34978
38.75751
39.50249
40.63727
42.22531
0
0
0
0
0
0
0
0
0
0
104.0796
94.55202
101.051
86.09317
91.11851
99.49672
78.88674
82.44577
88.45364
98.64143
72.73757
75.3409
79.64548
86.64693
98.55672
67.48857
69.47292
72.72031
77.8062
85.84038
0
62.99198
64.55007
67.11431
71.04014
76.9518
0
0
59.10446
60.36263
62.45172
65.62457
70.26536
0
0
0
55.70448
56.74213
58.49031
61.13361
64.94392
0
0
0
0
52.68156
53.55393
55.04583
57.30239
60.52198
0
0
0
0
0
49.93111
50.67555
51.96976
53.92931
56.70959
0
0
0
0
0
0
47.34775
47.99202
49.1279
50.85149
53.28614
0
0
0
0
0
0
0
44.86191
45.4267
46.43384
47.96346
50.1174
0
0
0
0
0
0
0
0
42.51753
43.01786
43.92088
45.29341
47.22018
0
0
0
0
0
0
0
0
0
40.36982
40.81907
41.63633
42.88104
44.62477
0
0
0
0
0
0
0
0
0
0
38.43674
38.84529
39.59245
40.73104
42.32489
0
0
0
0
0
0
0
0
0
0
36.71303
37.08773
37.77715
38.82771
40.29636
0
0
0
0
0
0
0
0
0
0
101.8193
92.91627
98.42872
85.04569
89.68338
96.93077
78.45803
81.87565
87.59536
96.90381
72.64106
75.19428
79.41392
86.23805
97.57877
67.50542
69.47221
72.69329
77.73398
85.66991
0
63.01919
64.57217
67.12938
71.04445
76.93692
0
0
59.10446
60.36263
62.45172
65.62457
70.26536
0
0
0
55.67435
56.71429
58.46534
61.11263
64.92902
0
0
0
0
52.64073
53.51661
55.01302
57.27582
60.50475
0
0
0
0
0
49.91941
50.66821
51.96857
53.937
56.73052
0
0
0
0
0
0
47.42292
48.07222
49.2165
50.95313
53.40739
0
0
0
0
0
0
0
45.05968
45.63007
46.64759
48.1943
50.37438
0
0
0
0
0
0
0
0
42.77148
43.27608
44.18833
45.5762
47.52663
0
0
0
0
0
0
0
0
0
40.60018
41.05194
41.87564
43.13159
44.89247
0
0
0
0
0
0
0
0
0
0
38.60091
39.01069
39.76164
40.90711
42.51162
0
0
0
0
0
0
0
0
0
0
36.79483
37.17022
37.86144
38.91527
40.38896
0
0
0
0
0
0
0
0
0
0
35.18136
35.52644
36.16729
37.14474
38.50917
0
0
0
0
0
0
0
0
0
0
100.3005
91.55654
96.36906
83.89371
88.18418
94.47322
77.68286
80.91111
86.24598
94.41783
72.32741
74.79932
78.87839
85.41104
95.84148
67.44875
69.38396
72.55618
77.51184
85.26516
0
63.0473
64.58874
67.12952
71.01906
76.86593
0
0
59.13372
60.38848
62.47307
65.63943
70.26979
0
0
0
55.67435
56.71429
58.46534
61.11263
64.92902
0
0
0
0
52.61047
53.48789
54.98611
57.25132
60.48379
0
0
0
0
0
49.87779
50.62891
51.93215
53.90447
56.70365
0
0
0
0
0
0
47.40787
48.05988
49.20823
50.9508
53.41385
0
0
0
0
0
0
0
45.12563
45.69946
46.7228
48.27894
50.47338
0
0
0
0
0
0
0
0
42.95318
43.46172
44.38198
45.78306
47.75391
0
0
0
0
0
0
0
0
0
40.83681
41.29158
42.12261
43.39127
45.17151
0
0
0
0
0
0
0
0
0
0
38.81722
39.22868
39.98485
41.13979
42.75895
0
0
0
0
0
0
0
0
0
0
36.94956
37.3259
38.02022
39.07991
40.56282
0
0
0
0
0
0
0
0
0
0
35.25854
35.60413
36.24657
37.22684
38.59566
0
0
0
0
0
0
0
0
0
0
33.74429
34.06362
34.66058
35.5734
36.84649
0
0
0
0
0
0
0
0
0
0
99.53378
90.60906
94.98366
82.9054
86.93733
92.54361
76.79486
79.84985
84.83691
92.04406
71.72091
74.08288
77.9694
84.10742
93.35715
67.2105
69.09441
72.18472
76.99662
84.44673
0
63.0166
64.53733
67.04734
70.88802
76.64767
0
0
59.16858
60.41563
62.48962
65.64031
70.24536
0
0
0
55.70448
56.74213
58.49031
61.13361
64.94392
0
0
0
0
52.61047
53.48789
54.98611
57.25132
60.48379
0
0
0
0
0
49.84789
50.60001
51.90436
53.87807
56.67922
0
0
0
0
0
0
47.36641
48.01979
49.16989
50.91476
53.38113
0
0
0
0
0
0
0
45.10844
45.684
46.7098
48.26979
50.47004
0
0
0
0
0
0
0
0
43.01181
43.5226
44.44704
45.85484
47.83625
0
0
0
0
0
0
0
0
0
41.00493
41.46236
42.29956
43.57879
45.3752
0
0
0
0
0
0
0
0
0
0
39.0389
39.45227
40.2143
41.37976
43.01527
0
0
0
0
0
0
0
0
0
0
37.15327
37.53088
38.2294
39.29709
40.79258
0
0
0
0
0
0
0
0
0
0
35.4048
35.75103
36.39618
37.38146
38.75829
0
0
0
0
0
0
0
0
0
0
33.81728
34.137
34.73532
35.65066
36.92761
0
0
0
0
0
0
0
0
0
0
32.39344
32.68957
33.24763
34.10182
35.29362
0
0
0
0
0
0
0
0
0
0
90.1192
94.2834
82.2038
86.06808
91.24558
76.01481
78.93909
83.66537
90.18383
71.00167
73.26162
76.96932
82.74817
90.99682
66.71831
68.53232
71.5083
76.11908
83.15402
0
62.83019
64.31717
66.77486
70.53098
76.14031
0
0
59.15521
60.38837
62.44223
65.56224
70.11743
0
0
0
55.74327
56.77569
58.51697
61.15038
64.94548
0
0
0
0
52.64073
53.51661
55.01302
57.27582
60.50475
0
0
0
0
0
49.84789
50.60001
51.90436
53.87807
56.67922
0
0
0
0
0
0
47.33725
47.99119
49.1419
50.88747
53.35482
0
0
0
0
0
0
0
45.06767
45.64404
46.67068
48.23189
50.43389
0
0
0
0
0
0
0
0
42.99337
43.50516
44.43111
45.84116
47.82627
0
0
0
0
0
0
0
0
0
41.05772
41.5165
42.35662
43.64085
45.44498
0
0
0
0
0
0
0
0
0
0
39.19569
39.61051
40.37725
41.5512
43.19996
0
0
0
0
0
0
0
0
0
0
0
37.36165
37.74065
38.44372
39.52019
41.02951
0
0
0
0
0
0
0
0
0
0
35.59726
35.94433
36.59308
37.58512
38.97283
0
0
0
0
0
0
0
0
0
0
33.95586
34.27604
34.87663
35.79645
37.08039
0
0
0
0
0
0
0
0
0
0
32.46264
32.75904
33.31829
34.17469
35.36999
0
0
0
0
0
0
0
0
0
0
31.11953
31.39656
31.91928
32.721
33.83891
0
0
0
0
0
0
0
0
0
0
81.83694
85.61821
90.58914
75.45353
78.29232
82.84864
88.9336
70.35764
72.53995
76.11123
81.61932
89.15335
66.11663
67.86508
70.73268
75.15428
81.80941
0
62.41938
63.86003
66.24342
69.87803
75.27313
0
0
59.00571
60.21606
62.23506
65.30059
69.7669
0
0
0
55.74163
56.76459
58.49243
61.10587
64.86985
0
0
0
0
52.68156
53.55393
55.04583
57.30239
60.52198
0
0
0
0
0
49.87779
50.62891
51.93215
53.90447
56.70365
0
0
0
0
0
0
47.33725
47.99119
49.1419
50.88747
53.35482
0
0
0
0
0
0
0
45.03943
45.61611
46.64296
48.2044
50.40671
0
0
0
0
0
0
0
0
42.95365
43.46583
44.39211
45.80251
47.7883
0
0
0
0
0
0
0
0
0
41.0387
41.49793
42.33884
43.62438
45.43058
0
0
0
0
0
0
0
0
0
0
39.24402
39.65928
40.42799
41.60561
43.26023
0
0
0
0
0
0
0
0
0
0
0
37.50848
37.88842
38.59485
39.67817
41.1984
0
0
0
0
0
0
0
0
0
0
0
0
35.79389
36.14178
36.79436
37.79365
39.19316
0
0
0
0
0
0
0
0
0
0
34.13816
34.45889
35.06248
35.98828
37.28163
0
0
0
0
0
0
0
0
0
0
32.59431
32.89093
33.45215
34.31248
35.51408
0
0
0
0
0
0
0
0
0
0
31.1853
31.46249
31.98622
32.78993
33.91096
0
0
0
0
0
0
0
0
0
0
29.91677
30.17589
30.66824
31.42212
32.47353
0
0
0
0
0
0
0
0
0
0
75.15793
77.95381
82.4257
88.30147
69.88932
72.02053
75.50188
80.83276
87.91664
65.56915
67.26734
70.05113
74.32707
80.69479
0
61.90361
63.3004
65.61206
69.12937
74.32084
0
0
58.65514
59.83381
61.80232
64.7875
69.12279
0
0
0
55.61916
56.62641
58.33035
60.90712
64.61352
0
0
0
0
52.68791
53.5538
55.03661
57.27993
60.47939
0
0
0
0
0
49.91941
50.66821
51.96857
53.937
56.73052
0
0
0
0
0
0
47.36641
48.01979
49.16989
50.91476
53.38113
0
0
0
0
0
0
0
45.03943
45.61611
46.64296
48.2044
50.40671
0
0
0
0
0
0
0
0
42.92644
43.43874
44.365
45.77527
47.76094
0
0
0
0
0
0
0
0
0
41.00027
41.45957
42.30044
43.58584
45.39191
0
0
0
0
0
0
0
0
0
0
39.22508
39.64021
40.40917
41.58739
43.24315
0
0
0
0
0
0
0
0
0
0
0
37.55312
37.93313
38.64057
39.72653
41.25121
0
0
0
0
0
0
0
0
0
0
0
0
35.93213
36.28035
36.93564
37.94026
39.34882
0
0
0
0
0
0
0
0
0
0
0
0
0
34.32423
34.64544
35.25212
36.18425
37.48763
0
0
0
0
0
0
0
0
0
0
32.76748
33.06434
33.62813
34.49367
35.70369
0
0
0
0
0
0
0
0
0
0
31.3107
31.58795
32.11331
32.92054
34.04718
0
0
0
0
0
0
0
0
0
0
29.97937
30.23861
30.73183
31.48746
32.5417
0
0
0
0
0
0
0
0
0
0
28.77939
29.02223
29.48625
30.19818
31.18882
0
0
0
0
0
0
0
0
0
0
69.64147
71.74672
75.18275
80.42543
87.29191
65.16761
66.83254
69.56057
73.73985
79.91894
0
61.42789
62.79087
65.04638
68.4718
73.50533
0
0
58.20463
59.353
61.2719
64.17767
68.38454
0
0
0
55.31451
56.29969
57.96812
60.48922
64.10788
0
0
0
0
52.5857
53.44064
54.90672
57.1246
60.28502
0
0
0
0
0
49.93111
50.67555
51.96976
53.92931
56.70959
0
0
0
0
0
0
47.40787
48.05988
49.20823
50.9508
53.41385
0
0
0
0
0
0
0
45.06767
45.64404
46.67068
48.23189
50.43389
0
0
0
0
0
0
0
0
42.92644
43.43874
44.365
45.77527
47.76094
0
0
0
0
0
0
0
0
0
40.97415
41.43344
42.27413
43.5592
45.36479
0
0
0
0
0
0
0
0
0
0
39.18819
39.60307
40.3717
41.54945
43.20461
0
0
0
0
0
0
0
0
0
0
0
37.53454
37.91418
38.62132
39.70736
41.23246
0
0
0
0
0
0
0
0
0
0
0
0
35.97381
36.32169
36.97758
37.98384
39.39575
0
0
0
0
0
0
0
0
0
0
0
0
0
34.45486
34.77608
35.38475
36.3214
37.63214
0
0
0
0
0
0
0
0
0
0
0
0
0
0
32.94412
33.24108
33.80747
34.67842
35.89734
0
0
0
0
0
0
0
0
0
0
31.47567
31.75285
32.28034
33.0922
34.22632
0
0
0
0
0
0
0
0
0
0
30.09898
30.35822
30.85282
31.61154
32.67086
0
0
0
0
0
0
0
0
0
0
28.83907
29.08198
29.54678
30.26028
31.25346
0
0
0
0
0
0
0
0
0
0
27.70224
27.93023
28.3683
29.04118
29.97793
0
0
0
0
0
0
0
0
0
0
64.9544
66.60222
69.30181
73.43227
79.51734
0
61.07651
62.41703
64.63487
67.99862
72.92681
0
0
57.78428
58.90918
60.78882
63.6314
67.73663
0
0
0
54.91496
55.87884
57.51172
59.97651
63.50674
0
0
0
0
52.31704
53.15628
54.5968
56.77468
59.87341
0
0
0
0
0
49.84425
50.58115
51.86347
53.80497
56.55791
0
0
0
0
0
0
47.42292
48.07222
49.2165
50.95313
53.40739
0
0
0
0
0
0
0
45.10844
45.684
46.7098
48.26979
50.47004
0
0
0
0
0
0
0
0
42.95365
43.46583
44.39211
45.80251
47.7883
0
0
0
0
0
0
0
0
0
40.97415
41.43344
42.27413
43.5592
45.36479
0
0
0
0
0
0
0
0
0
0
39.16324
39.57795
40.3463
41.52358
43.17809
0
0
0
0
0
0
0
0
0
0
0
37.49925
37.8785
38.58502
39.67033
41.19454
0
0
0
0
0
0
0
0
0
0
0
0
35.95586
36.30313
36.9585
37.96429
39.37611
0
0
0
0
0
0
0
0
0
0
0
0
0
34.49409
34.81474
35.42357
36.3614
37.67442
0
0
0
0
0
0
0
0
0
0
0
0
0
0
33.06806
33.3647
33.93262
34.80725
36.03256
0
0
0
0
0
0
0
0
0
0
0
0
0
0
0
31.64399
31.92083
32.45041
33.26703
34.40894
0
0
0
0
0
0
0
0
0
0
30.25638
30.51549
31.0118
31.77456
32.84063
0
0
0
0
0
0
0
0
0
0
28.95339
29.19619
29.66223
30.37846
31.37619
0
0
0
0
0
0
0
0
0
0
27.75925
27.98726
28.426
29.10032
30.03937
0
0
0
0
0
0
0
0
0
0
26.68069
26.89511
27.30932
27.94631
28.83295
0
0
0
0
0
0
0
0
0
0
60.88952
62.21834
64.41674
67.74895
72.62385
0
0
57.47195
58.58121
60.43431
63.23406
67.27062
0
0
0
54.53853
55.48581
57.09023
59.50957
62.96856
0
0
0
0
51.95846
52.78233
54.19675
56.33318
59.36804
0
0
0
0
0
49.6042
50.33003
51.59348
53.50547
56.21336
0
0
0
0
0
0
47.34775
47.99202
49.1279
50.85149
53.28614
0
0
0
0
0
0
0
45.12563
45.69946
46.7228
48.27894
50.47338
0
0
0
0
0
0
0
0
42.99337
43.50516
44.43111
45.84116
47.82627
0
0
0
0
0
0
0
0
0
41.00027
41.45957
42.30044
43.58584
45.39191
0
0
0
0
0
0
0
0
0
0
39.16324
39.57796
40.3463
41.52358
43.17809
0
0
0
0
0
0
0
0
0
0
0
37.47547
37.85448
38.56059
39.64534
41.16879
0
0
0
0
0
0
0
0
0
0
0
0
35.92223
36.26898
36.92361
37.92842
39.33911
0
0
0
0
0
0
0
0
0
0
0
0
0
34.47691
34.79683
35.40491
36.34206
37.65445
0
0
0
0
0
0
0
0
0
0
0
0
0
0
33.10528
33.40114
33.96898
34.8443
36.07137
0
0
0
0
0
0
0
0
0
0
0
0
0
0
0
31.76226
32.03826
32.56896
33.38868
34.53599
0
0
0
0
0
0
0
0
0
0
0
0
0
0
0
0
30.417
30.67575
31.17357
31.94045
33.01348
0
0
0
0
0
0
0
0
0
0
29.10387
29.34639
29.81397
30.53372
31.53746
0
0
0
0
0
0
0
0
0
0
27.86869
28.09651
28.53632
29.21315
30.1563
0
0
0
0
0
0
0
0
0
0
26.73523
26.94962
27.36443
28.00272
28.89148
0
0
0
0
0
0
0
0
0
0
25.70978
25.91254
26.3048
26.9087
27.7492
0
0
0
0
0
0
0
0
0
0
57.30552
58.40653
60.24578
63.02339
67.02477
0
0
0
54.25749
55.19362
56.77868
59.16693
62.57723
0
0
0
0
51.61783
52.42964
53.82291
55.9254
58.90795
0
0
0
0
0
49.27899
49.99382
51.23754
53.11819
55.77815
0
0
0
0
0
0
47.13079
47.76733
48.88925
50.59046
52.99127
0
0
0
0
0
0
0
45.05968
45.63007
46.64759
48.1943
50.37438
0
0
0
0
0
0
0
0
43.01181
43.5226
44.44704
45.85484
47.83625
0
0
0
0
0
0
0
0
0
41.03871
41.49793
42.33884
43.62438
45.43058
0
0
0
0
0
0
0
0
0
0
39.18819
39.60307
40.3717
41.54945
43.20461
0
0
0
0
0
0
0
0
0
0
0
37.47547
37.85448
38.56059
39.64534
41.16879
0
0
0
0
0
0
0
0
0
0
0
0
35.89962
36.24607
36.90024
37.90438
39.31424
0
0
0
0
0
0
0
0
0
0
0
0
0
34.44493
34.76427
35.3715
36.30758
37.61861
0
0
0
0
0
0
0
0
0
0
0
0
0
0
33.08898
33.38401
33.95099
34.82541
36.05165
0
0
0
0
0
0
0
0
0
0
0
0
0
0
0
31.79809
32.07291
32.60328
33.4234
34.57195
0
0
0
0
0
0
0
0
0
0
0
0
0
0
0
0
30.53004
30.78796
31.2863
32.05574
33.13349
0
0
0
0
0
0
0
0
0
0
0
0
0
0
0
0
0
29.25752
29.49949
29.96845
30.6916
31.70152
0
0
0
0
0
0
0
0
0
0
28.01282
28.24025
28.68135
29.36142
30.30992
0
0
0
0
0
0
0
0
0
0
26.84017
27.05431
27.47004
28.11059
29.00314
0
0
0
0
0
0
0
0
0
0
25.76207
25.96473
26.35752
26.9626
27.80504
0
0
0
0
0
0
0
0
0
0
24.78619
24.97788
25.35065
25.924
26.72188
0
0
0
0
0
0
0
0
0
0
54.10765
55.0378
56.61264
58.98465
62.36975
0
0
0
0
51.36249
52.16617
53.54491
55.62399
58.57043
0
0
0
0
0
48.96789
49.67406
50.90157
52.75618
55.37626
0
0
0
0
0
0
46.83321
47.46189
48.56882
50.24562
52.60944
0
0
0
0
0
0
0
44.86191
45.4267
46.43384
47.96346
50.1174
0
0
0
0
0
0
0
0
42.95318
43.46172
44.38198
45.78306
47.75391
0
0
0
0
0
0
0
0
0
41.05773
41.5165
42.35662
43.64085
45.44498
0
0
0
0
0
0
0
0
0
0
39.22509
39.64021
40.40917
41.58739
43.24315
0
0
0
0
0
0
0
0
0
0
0
37.49925
37.8785
38.58502
39.67033
41.19454
0
0
0
0
0
0
0
0
0
0
0
0
35.89962
36.24608
36.90024
37.90438
39.31424
0
0
0
0
0
0
0
0
0
0
0
0
0
34.42344
34.74247
35.34919
36.28456
37.59468
0
0
0
0
0
0
0
0
0
0
0
0
0
0
33.05863
33.35302
33.91912
34.79239
36.01721
0
0
0
0
0
0
0
0
0
0
0
0
0
0
0
31.78297
32.05667
32.58608
33.40521
34.55272
0
0
0
0
0
0
0
0
0
0
0
0
0
0
0
0
30.56459
30.82139
31.31898
32.08856
33.16721
0
0
0
0
0
0
0
0
0
0
0
0
0
0
0
0
0
29.36588
29.60687
30.07627
30.80131
31.8153
0
0
0
0
0
0
0
0
0
0
0
0
0
0
0
0
0
0
28.16011
28.38686
28.82905
29.51226
30.4661
0
0
0
0
0
0
0
0
0
0
26.97845
27.19211
27.60894
28.25237
29.14988
0
0
0
0
0
0
0
0
0
0
25.8629
26.0652
26.45878
27.06591
27.91181
0
0
0
0
0
0
0
0
0
0
24.83635
25.02795
25.40115
25.97558
26.77524
0
0
0
0
0
0
0
0
0
0
23.90718
24.08801
24.44242
24.98825
25.74673
0
0
0
0
0
0
0
0
0
0
51.22635
52.02559
53.39656
55.46329
58.39087
0
0
0
0
0
48.73392
49.43423
50.65052
52.48697
55.07926
0
0
0
0
0
0
46.54695
47.16933
48.26381
49.92001
52.25255
0
0
0
0
0
0
0
44.58785
45.14676
46.14238
47.6528
49.77732
0
0
0
0
0
0
0
0
42.77148
43.27608
44.18833
45.5762
47.52663
0
0
0
0
0
0
0
0
0
41.00493
41.46236
42.29956
43.57879
45.3752
0
0
0
0
0
0
0
0
0
0
39.24403
39.65929
40.42799
41.60561
43.26023
0
0
0
0
0
0
0
0
0
0
0
37.53454
37.91418
38.62132
39.70735
41.23246
0
0
0
0
0
0
0
0
0
0
0
0
35.92223
36.26898
36.92361
37.92842
39.33911
0
0
0
0
0
0
0
0
0
0
0
0
0
34.42344
34.74247
35.34919
36.28456
37.59468
0
0
0
0
0
0
0
0
0
0
0
0
0
0
33.03824
33.33229
33.89788
34.77042
35.9943
0
0
0
0
0
0
0
0
0
0
0
0
0
0
0
31.75436
32.02725
32.55574
33.3737
34.51973
0
0
0
0
0
0
0
0
0
0
0
0
0
0
0
0
30.55056
30.80632
31.30268
32.07118
33.1487
0
0
0
0
0
0
0
0
0
0
0
0
0
0
0
0
0
29.3994
29.63919
30.10787
30.83259
31.84718
0
0
0
0
0
0
0
0
0
0
0
0
0
0
0
0
0
0
28.26429
28.48992
28.93232
29.61727
30.5744
0
0
0
0
0
0
0
0
0
0
0
0
0
0
0
0
0
0
0
27.11992
27.3328
27.75048
28.39667
29.29914
0
0
0
0
0
0
0
0
0
0
25.99589
26.19754
26.59204
27.20176
28.05217
0
0
0
0
0
0
0
0
0
0
24.93331
25.12457
25.4984
26.07468
26.87753
0
0
0
0
0
0
0
0
0
0
23.95536
24.13608
24.49089
25.03768
25.79779
0
0
0
0
0
0
0
0
0
0
23.06997
23.24044
23.57717
24.09715
24.81984
0
0
0
0
0
0
0
0
0
0
48.60922
49.30626
50.51648
52.34326
54.92091
0
0
0
0
0
0
46.33109
46.94917
48.03495
49.67666
51.98719
0
0
0
0
0
0
0
44.32295
44.87709
45.86295
47.35694
49.45622
0
0
0
0
0
0
0
0
42.51753
43.01786
43.92088
45.29341
47.22018
0
0
0
0
0
0
0
0
0
40.83681
41.29158
42.12261
43.39127
45.1715
0
0
0
0
0
0
0
0
0
0
39.19569
39.61052
40.37725
41.5512
43.19996
0
0
0
0
0
0
0
0
0
0
0
37.55312
37.93313
38.64058
39.72653
41.25121
0
0
0
0
0
0
0
0
0
0
0
0
35.95586
36.30313
36.9585
37.96429
39.37611
0
0
0
0
0
0
0
0
0
0
0
0
0
34.44493
34.76427
35.3715
36.30758
37.61861
0
0
0
0
0
0
0
0
0
0
0
0
0
0
33.03824
33.33229
33.89788
34.77042
35.9943
0
0
0
0
0
0
0
0
0
0
0
0
0
0
0
31.73509
32.00756
32.53553
33.35277
34.49786
0
0
0
0
0
0
0
0
0
0
0
0
0
0
0
0
30.52357
30.77857
31.27387
32.04118
33.11723
0
0
0
0
0
0
0
0
0
0
0
0
0
0
0
0
0
29.38649
29.6252
30.09274
30.81613
31.8295
0
0
0
0
0
0
0
0
0
0
0
0
0
0
0
0
0
0
28.29703
28.52134
28.96293
29.64756
30.60481
0
0
0
0
0
0
0
0
0
0
0
0
0
0
0
0
0
0
0
27.22031
27.43201
27.8497
28.49731
29.40283
0
0
0
0
0
0
0
0
0
0
0
0
0
0
0
0
0
0
0
0
26.13213
26.33279
26.72797
27.34012
28.19499
0
0
0
0
0
0
0
0
0
0
25.06128
25.25195
25.62645
26.20507
27.01204
0
0
0
0
0
0
0
0
0
0
24.04871
24.22906
24.58447
25.13289
25.89593
0
0
0
0
0
0
0
0
0
0
23.11629
23.28664
23.62373
24.14461
24.86879
0
0
0
0
0
0
0
0
0
0
22.27132
22.43255
22.75255
23.24786
23.93698
0
0
0
0
0
0
0
0
0
0
46.21613
46.83174
47.91276
49.5467
51.84553
0
0
0
0
0
0
0
44.12274
44.67362
45.65257
47.13491
49.21627
0
0
0
0
0
0
0
0
42.27109
42.76792
43.66299
45.02214
46.92831
0
0
0
0
0
0
0
0
0
40.60019
41.05194
41.87564
43.13159
44.89247
0
0
0
0
0
0
0
0
0
0
39.03891
39.45228
40.2143
41.37976
43.01527
0
0
0
0
0
0
0
0
0
0
37.50848
37.88843
38.59485
39.67817
41.1984
0
0
0
0
0
0
0
0
0
0
0
0
35.97381
36.32169
36.97759
37.98384
39.39575
0
0
0
0
0
0
0
0
0
0
0
0
0
34.47691
34.79683
35.40491
36.34206
37.65445
0
0
0
0
0
0
0
0
0
0
0
0
0
0
33.05863
33.35303
33.91912
34.79239
36.01721
0
0
0
0
0
0
0
0
0
0
0
0
0
0
0
31.73509
32.00756
32.53553
33.35277
34.49786
0
0
0
0
0
0
0
0
0
0
0
0
0
0
0
0
30.50535
30.75996
31.25467
32.02126
33.0964
0
0
0
0
0
0
0
0
0
0
0
0
0
0
0
0
0
29.36105
29.59902
30.06556
30.78763
31.79954
0
0
0
0
0
0
0
0
0
0
0
0
0
0
0
0
0
0
28.28531
28.50847
28.94889
29.63228
30.58808
0
0
0
0
0
0
0
0
0
0
0
0
0
0
0
0
0
0
0
27.25239
27.46277
27.87951
28.52669
29.43231
0
0
0
0
0
0
0
0
0
0
0
0
0
0
0
0
0
0
0
0
26.22923
26.4285
26.82357
27.43686
28.29439
0
0
0
0
0
0
0
0
0
0
0
0
0
0
0
0
0
0
0
0
25.19259
25.38233
25.75722
26.33801
27.14901
0
0
0
0
0
0
0
0
0
0
24.17203
24.35174
24.70781
25.25825
26.02507
0
0
0
0
0
0
0
0
0
0
23.20628
23.37623
23.71383
24.23627
24.96309
0
0
0
0
0
0
0
0
0
0
22.3159
22.47701
22.79733
23.29346
23.98399
0
0
0
0
0
0
0
0
0
0
21.50985
21.66132
21.96608
22.43813
23.09538
0
0
0
0
0
0
0
0
0
0
44.01624
44.56518
45.54031
47.01634
49.08812
0
0
0
0
0
0
0
0
42.08451
42.5789
43.46832
44.81788
46.70931
0
0
0
0
0
0
0
0
0
40.36983
40.81907
41.63633
42.88104
44.62477
0
0
0
0
0
0
0
0
0
0
38.81722
39.22868
39.98485
41.13979
42.75895
0
0
0
0
0
0
0
0
0
0
37.36165
37.74066
38.44372
39.52019
41.02951
0
0
0
0
0
0
0
0
0
0
35.93213
36.28035
36.93564
37.94026
39.34882
0
0
0
0
0
0
0
0
0
0
0
0
0
34.49409
34.81474
35.42357
36.3614
37.67442
0
0
0
0
0
0
0
0
0
0
0
0
0
0
33.08898
33.38401
33.95099
34.82541
36.05165
0
0
0
0
0
0
0
0
0
0
0
0
0
0
0
31.75436
32.02725
32.55575
33.3737
34.51973
0
0
0
0
0
0
0
0
0
0
0
0
0
0
0
0
30.50535
30.75996
31.25467
32.02126
33.0964
0
0
0
0
0
0
0
0
0
0
0
0
0
0
0
0
0
29.34383
29.58141
30.0474
30.7687
31.77971
0
0
0
0
0
0
0
0
0
0
0
0
0
0
0
0
0
0
28.26144
28.48379
28.92324
29.60539
30.55961
0
0
0
0
0
0
0
0
0
0
0
0
0
0
0
0
0
0
0
27.24181
27.45108
27.86659
28.51251
29.41677
0
0
0
0
0
0
0
0
0
0
0
0
0
0
0
0
0
0
0
0
26.26091
26.45872
26.85282
27.46553
28.32302
0
0
0
0
0
0
0
0
0
0
0
0
0
0
0
0
0
0
0
0
25.28659
25.47501
25.84954
26.43129
27.2446
0
0
0
0
0
0
0
0
0
0
0
0
0
0
0
0
0
0
0
0
24.29878
24.47751
24.83397
25.3862
26.15671
0
0
0
0
0
0
0
0
0
0
23.32528
23.49454
23.8327
24.35706
25.08727
0
0
0
0
0
0
0
0
0
0
22.40272
22.56343
22.88419
23.38175
24.0748
0
0
0
0
0
0
0
0
0
0
21.55282
21.70413
22.00919
22.482
23.14055
0
0
0
0
0
0
0
0
0
0
20.78261
20.92545
21.21489
21.66556
22.29282
0
0
0
0
0
0
0
0
0
0
41.98538
42.47828
43.36453
44.70885
46.59235
0
0
0
0
0
0
0
0
0
40.19517
40.64265
41.45527
42.69187
44.42322
0
0
0
0
0
0
0
0
0
0
38.60092
39.01069
39.76164
40.90711
42.51162
0
0
0
0
0
0
0
0
0
0
37.15327
37.53088
38.2294
39.29709
40.79258
0
0
0
0
0
0
0
0
0
0
35.79389
36.14178
36.79436
37.79365
39.19315
0
0
0
0
0
0
0
0
0
0
34.45486
34.77608
35.38475
36.3214
37.63214
0
0
0
0
0
0
0
0
0
0
0
0
0
0
33.10528
33.40115
33.96898
34.8443
36.07137
0
0
0
0
0
0
0
0
0
0
0
0
0
0
0
31.78297
32.05667
32.58608
33.40521
34.55272
0
0
0
0
0
0
0
0
0
0
0
0
0
0
0
0
30.52357
30.77858
31.27387
32.04118
33.11723
0
0
0
0
0
0
0
0
0
0
0
0
0
0
0
0
0
29.34383
29.58141
30.0474
30.7687
31.77971
0
0
0
0
0
0
0
0
0
0
0
0
0
0
0
0
0
0
28.2452
28.46713
28.90604
29.58749
30.54076
0
0
0
0
0
0
0
0
0
0
0
0
0
0
0
0
0
0
0
27.21942
27.42791
27.8424
28.48712
29.38992
0
0
0
0
0
0
0
0
0
0
0
0
0
0
0
0
0
0
0
0
26.25157
26.44817
26.84108
27.45247
28.30859
0
0
0
0
0
0
0
0
0
0
0
0
0
0
0
0
0
0
0
0
25.31788
25.50493
25.87833
26.45946
27.27255
0
0
0
0
0
0
0
0
0
0
0
0
0
0
0
0
0
0
0
0
24.38996
24.56734
24.92344
25.47633
26.2489
0
0
0
0
0
0
0
0
0
0
0
0
0
0
0
0
0
0
0
0
23.4478
23.61606
23.95448
24.48056
25.21399
0
0
0
0
0
0
0
0
0
0
22.51763
22.67768
22.9989
23.49821
24.19448
0
0
0
0
0
0
0
0
0
0
21.63671
21.78756
22.09303
22.56715
23.22804
0
0
0
0
0
0
0
0
0
0
20.82406
20.96674
21.25642
21.70781
22.33629
0
0
0
0
0
0
0
0
0
0
20.08957
20.22221
20.49775
20.92737
21.52695
0
0
0
0
0
0
0
0
0
0
40.1025
40.54886
41.35886
42.59099
44.31563
0
0
0
0
0
0
0
0
0
0
38.43674
38.84529
39.59245
40.73104
42.32489
0
0
0
0
0
0
0
0
0
0
36.94956
37.3259
38.02022
39.07991
40.56282
0
0
0
0
0
0
0
0
0
0
35.59726
35.94433
36.59308
37.58513
38.97282
0
0
0
0
0
0
0
0
0
0
34.32423
34.64544
35.25212
36.18425
37.48764
0
0
0
0
0
0
0
0
0
0
33.06806
33.3647
33.93262
34.80725
36.03256
0
0
0
0
0
0
0
0
0
0
0
0
0
0
0
31.79809
32.07291
32.60328
33.4234
34.57195
0
0
0
0
0
0
0
0
0
0
0
0
0
0
0
0
30.55057
30.80632
31.30268
32.07118
33.1487
0
0
0
0
0
0
0
0
0
0
0
0
0
0
0
0
0
29.36106
29.59902
30.06557
30.78763
31.79954
0
0
0
0
0
0
0
0
0
0
0
0
0
0
0
0
0
0
28.2452
28.46713
28.90605
29.58749
30.54076
0
0
0
0
0
0
0
0
0
0
0
0
0
0
0
0
0
0
0
27.2041
27.41221
27.82614
28.47017
29.37208
0
0
0
0
0
0
0
0
0
0
0
0
0
0
0
0
0
0
0
0
26.23065
26.42642
26.81837
27.42853
28.28323
0
0
0
0
0
0
0
0
0
0
0
0
0
0
0
0
0
0
0
0
25.3097
25.4956
25.86772
26.44758
27.25926
0
0
0
0
0
0
0
0
0
0
0
0
0
0
0
0
0
0
0
0
24.421
24.59696
24.95201
25.50409
26.27639
0
0
0
0
0
0
0
0
0
0
0
0
0
0
0
0
0
0
0
0
23.53638
23.70329
24.04126
24.56797
25.30309
0
0
0
0
0
0
0
0
0
0
0
0
0
0
0
0
0
0
0
0
22.63616
22.79523
23.11663
23.61747
24.31681
0
0
0
0
0
0
0
0
0
0
21.74786
21.89796
22.20385
22.67957
23.34344
0
0
0
0
0
0
0
0
0
0
20.90514
21.04741
21.3374
21.79002
22.42068
0
0
0
0
0
0
0
0
0
0
20.12962
20.26205
20.53782
20.96809
21.56881
0
0
0
0
0
0
0
0
0
0
19.42826
19.55156
19.81206
20.22239
20.79502
0
0
0
0
0
0
0
0
0
0
38.34979
38.75751
39.50249
40.63726
42.22531
0
0
0
0
0
0
0
0
0
0
36.79484
37.17022
37.86144
38.91527
40.38896
0
0
0
0
0
0
0
0
0
0
35.4048
35.75103
36.39618
37.38146
38.75829
0
0
0
0
0
0
0
0
0
0
34.13816
34.45889
35.06248
35.98829
37.28163
0
0
0
0
0
0
0
0
0
0
32.94412
33.24108
33.80747
34.67842
35.89735
0
0
0
0
0
0
0
0
0
0
31.76226
32.03826
32.56896
33.38868
34.53599
0
0
0
0
0
0
0
0
0
0
0
0
0
0
0
0
30.5646
30.8214
31.31898
32.08856
33.16721
0
0
0
0
0
0
0
0
0
0
0
0
0
0
0
0
0
29.38649
29.62521
30.09274
30.81613
31.82951
0
0
0
0
0
0
0
0
0
0
0
0
0
0
0
0
0
0
28.26144
28.48379
28.92324
29.60539
30.55961
0
0
0
0
0
0
0
0
0
0
0
0
0
0
0
0
0
0
0
27.2041
27.41221
27.82614
28.47017
29.37208
0
0
0
0
0
0
0
0
0
0
0
0
0
0
0
0
0
0
0
0
26.21625
26.41161
26.80302
27.41249
28.26634
0
0
0
0
0
0
0
0
0
0
0
0
0
0
0
0
0
0
0
0
25.29017
25.47529
25.8464
26.4251
27.23535
0
0
0
0
0
0
0
0
0
0
0
0
0
0
0
0
0
0
0
0
24.41398
24.58877
24.94262
25.49335
26.26429
0
0
0
0
0
0
0
0
0
0
0
0
0
0
0
0
0
0
0
0
23.56718
23.73273
24.0696
24.59556
25.33022
0
0
0
0
0
0
0
0
0
0
0
0
0
0
0
0
0
0
0
0
22.72229
22.88006
23.20098
23.7023
24.40325
0
0
0
0
0
0
0
0
0
0
0
0
0
0
0
0
0
0
0
0
21.86276
22.01178
22.31782
22.79492
23.46161
0
0
0
0
0
0
0
0
0
0
21.01269
21.15428
21.44455
21.89868
22.5321
0
0
0
0
0
0
0
0
0
0
20.20816
20.34006
20.61616
21.04752
21.6503
0
0
0
0
0
0
0
0
0
0
19.46693
19.59008
19.85073
20.26169
20.83537
0
0
0
0
0
0
0
0
0
0
18.80298
18.91123
19.1578
19.5481
20.09589
0
0
0
0
0
0
0
0
0
0
36.71303
37.08774
37.77715
38.82771
40.29636
0
0
0
0
0
0
0
0
0
0
35.25854
35.60413
36.24658
37.22684
38.59566
0
0
0
0
0
0
0
0
0
0
33.95586
34.27604
34.87663
35.79645
37.08039
0
0
0
0
0
0
0
0
0
0
32.76748
33.06434
33.62813
34.49367
35.70369
0
0
0
0
0
0
0
0
0
0
31.64399
31.92083
32.45041
33.26703
34.40894
0
0
0
0
0
0
0
0
0
0
30.53004
30.78796
31.2863
32.05575
33.13349
0
0
0
0
0
0
0
0
0
0
0
0
0
0
0
0
0
29.3994
29.63919
30.10787
30.83259
31.84718
0
0
0
0
0
0
0
0
0
0
0
0
0
0
0
0
0
0
28.28531
28.50847
28.9489
29.63228
30.58808
0
0
0
0
0
0
0
0
0
0
0
0
0