/*--------------------------------*- C++ -*----------------------------------*\
| =========                 |                                                 |
| \\      /  F ield         | OpenFOAM: The Open Source CFD Toolbox           |
|  \\    /   O peration     | Version:  2306                                  |
|   \\  /    A nd           | Website:  www.openfoam.com                      |
|    \\/     M anipulation  |                                                 |
\*---------------------------------------------------------------------------*/
FoamFile
{
    version     2.0;
    format      ascii;
    arch        "LSB;label=32;scalar=64";
    class       volScalarField;
    location    "0.3/fuel";
    object      iDmdtfuel.H2;
}
// * * * * * * * * * * * * * * * * * * * * * * * * * * * * * * * * * * * * * //

dimensions      [1 -3 -1 0 0 0 0];

internalField   nonuniform List<scalar> 
16000
(
-11.13798
-11.22379
-10.08448
-10.55046
-11.39374
-10.13929
-10.62882
-9.15768
-9.58081
-10.13707
-11.64667
-10.24532
-10.78385
-9.198732
-9.631152
-10.21052
-8.410289
-8.723152
-9.223564
-9.881071
-11.96905
-10.39747
-11.01433
-9.277243
-9.728422
-10.35577
-8.443367
-8.761032
-9.270891
-9.951808
-7.792989
-8.028569
-8.413067
-8.999731
-9.7681
-12.3058
-10.58052
-11.30776
-9.387836
-9.867946
-10.5717
-8.506175
-8.833406
-9.362285
-10.09171
-7.820723
-8.059209
-8.448777
-9.045311
-9.838008
-7.268498
-7.452892
-7.75498
-8.217184
-8.898113
-0
-12.54342
-10.75585
-11.61387
-9.516744
-10.03571
-10.8467
-8.593464
-8.935322
-9.493382
-10.29987
-7.873129
-8.117333
-8.516964
-9.133328
-9.976398
-7.292357
-7.478665
-7.783936
-8.251604
-8.943053
-0
-6.813632
-6.962329
-7.208333
-7.581213
-8.126721
-0
-0
-12.67802
-10.86812
-11.82883
-9.633959
-10.1963
-11.13384
-8.692832
-9.054079
-9.651059
-10.5655
-7.945197
-8.198089
-8.612986
-9.259649
-10.18269
-7.33729
-7.527319
-7.83883
-8.317314
-9.029873
-0
-6.834556
-6.984562
-7.232742
-7.609151
-8.160623
-0
-0
-6.412577
-6.535781
-6.741597
-7.052415
-7.500175
-0
-0
-0
-12.74473
-10.92412
-11.94992
-9.703453
-10.29877
-11.33481
-8.779575
-9.162012
-9.802056
-10.84369
-8.025681
-8.289989
-8.724897
-9.411751
-10.44681
-7.398554
-7.594207
-7.915097
-8.409881
-9.1546
-0
-6.873877
-7.026396
-7.278791
-7.662101
-8.22536
-0
-0
-6.4312
-6.555328
-6.762693
-7.07599
-7.527686
-0
-0
-0
-6.05473
-6.158815
-6.335042
-6.600474
-6.979272
-0
-0
-0
-0
-12.77131
-10.94783
-12.00959
-9.733737
-10.34966
-11.44768
-8.827549
-9.225809
-9.8981
-11.03813
-8.093549
-8.37016
-8.826615
-9.557628
-10.72481
-7.465883
-7.668873
-8.00189
-8.517843
-9.305064
-0
-6.92711
-7.083413
-7.342091
-7.735684
-8.316617
-0
-0
-6.466151
-6.592029
-6.802363
-7.120453
-7.579834
-0
-0
-0
-6.071497
-6.176252
-6.353623
-6.620871
-7.002489
-0
-0
-0
-0
-5.732308
-5.821744
-5.975157
-6.206428
-6.534029
-0
-0
-0
-0
-0
-12.77131
-10.95582
-12.03323
-9.743744
-10.37107
-11.50315
-8.845456
-9.253497
-9.94565
-11.1473
-8.128648
-8.414356
-8.886541
-9.650172
-10.91922
-7.520959
-7.731771
-8.077582
-8.616041
-9.44972
-0
-6.984825
-7.146037
-7.412742
-7.81946
-8.42318
-0
-0
-6.513188
-6.641692
-6.856421
-7.181581
-7.652336
-0
-0
-0
-6.102946
-6.208948
-6.388485
-6.659213
-7.046279
-0
-0
-0
-0
-5.747542
-5.837476
-5.991758
-6.22441
-6.554122
-0
-0
-0
-0
-0
-5.439447
-5.517447
-5.652872
-5.857291
-6.145735
-0
-0
-0
-0
-0
-0
-12.74473
-10.95582
-12.03323
-9.745911
-10.37824
-11.52508
-8.84913
-9.262573
-9.965595
-11.20101
-8.139447
-8.430764
-8.912453
-9.695926
-11.02865
-7.547619
-7.764172
-8.119149
-8.673695
-9.541303
-0
-7.030795
-7.197192
-7.472211
-7.892526
-8.520219
-0
-0
-6.563601
-6.695496
-6.915776
-7.249822
-7.734948
-0
-0
-0
-6.145069
-6.252928
-6.43565
-6.711465
-7.106503
-0
-0
-0
-0
-5.776115
-5.866957
-6.022867
-6.258139
-6.591891
-0
-0
-0
-0
-0
-5.453402
-5.531767
-5.667871
-5.873373
-6.163454
-0
-0
-0
-0
-0
-0
-5.171656
-5.240544
-5.361512
-5.544353
-5.801595
-0
-0
-0
-0
-0
-0
-0
-12.67802
-10.94783
-12.00959
-9.745911
-10.37824
-11.52508
-8.848691
-9.2645
-9.972245
-11.22229
-8.139636
-8.434062
-8.920898
-9.715125
-11.08276
-7.553961
-7.774048
-8.134492
-8.698553
-9.586595
-0
-7.051655
-7.221828
-7.502701
-7.932479
-8.576993
-0
-0
-6.602831
-6.73827
-6.9642
-7.307237
-7.807025
-0
-0
-0
-6.18978
-6.300022
-6.486723
-6.768838
-7.173771
-0
-0
-0
-0
-5.814232
-5.906425
-6.0647
-6.30377
-6.643376
-0
-0
-0
-0
-0
-5.479583
-5.558605
-5.695965
-5.903499
-6.196689
-0
-0
-0
-0
-0
-0
-5.184521
-5.253684
-5.375185
-5.558896
-5.817447
-0
-0
-0
-0
-0
-0
-0
-4.925485
-4.986913
-5.096032
-5.261202
-5.493037
-0
-0
-0
-0
-0
-0
-0
-0
-12.54342
-10.92412
-11.94992
-9.743744
-10.37107
-11.50315
-8.848691
-9.2645
-9.972245
-11.22229
-8.137812
-8.433607
-8.922668
-9.721535
-11.1043
-7.552076
-7.774128
-8.137516
-8.706634
-9.605671
-0
-7.05509
-7.22758
-7.511897
-7.947143
-8.601417
-0
-0
-6.61956
-6.757553
-6.987383
-7.336516
-7.846249
-0
-0
-0
-6.22387
-6.336583
-6.527256
-6.815601
-7.230353
-0
-0
-0
-0
-5.854358
-5.948271
-6.109467
-6.353175
-6.699927
-0
-0
-0
-0
-0
-5.514395
-5.594387
-5.73356
-5.944008
-6.241661
-0
-0
-0
-0
-0
-0
-5.208676
-5.278322
-5.400795
-5.586126
-5.847142
-0
-0
-0
-0
-0
-0
-0
-4.937404
-4.999047
-5.108593
-5.27447
-5.507377
-0
-0
-0
-0
-0
-0
-0
-0
-4.698229
-4.753386
-4.852558
-5.00299
-5.213756
-0
-0
-0
-0
-0
-0
-0
-0
-0
-12.3058
-10.86812
-11.82883
-9.733737
-10.34966
-11.44768
-8.84913
-9.262573
-9.965595
-11.20101
-8.137812
-8.433607
-8.922668
-9.721535
-11.1043
-7.54947
-7.77239
-8.137047
-8.708321
-9.612081
-0
-7.051945
-7.225726
-7.511881
-7.949984
-8.60936
-0
-0
-6.621056
-6.760603
-6.992686
-7.345252
-7.860564
-0
-0
-0
-6.237575
-6.352046
-6.545394
-6.837842
-7.259037
-0
-0
-0
-0
-5.884422
-5.98009
-6.144147
-6.392331
-6.745987
-0
-0
-0
-0
-0
-5.550787
-5.632009
-5.773391
-5.987345
-6.290362
-0
-0
-0
-0
-0
-0
-5.240709
-5.311059
-5.434926
-5.622563
-5.887078
-0
-0
-0
-0
-0
-0
-0
-4.959806
-5.021816
-5.132135
-5.299315
-5.534227
-0
-0
-0
-0
-0
-0
-0
-0
-4.709322
-4.764645
-4.864172
-5.01519
-5.226844
-0
-0
-0
-0
-0
-0
-0
-0
-0
-4.487532
-4.537481
-4.62812
-4.765998
-4.958988
-0
-0
-0
-0
-0
-0
-0
-0
-0
-0
-11.96905
-10.75585
-11.61387
-9.703453
-10.29877
-11.33481
-8.845456
-9.253497
-9.94565
-11.1473
-8.139636
-8.434062
-8.920898
-9.715125
-11.08276
-7.54947
-7.77239
-8.137047
-8.708321
-9.612081
-0
-7.0489
-7.223252
-7.510195
-7.949502
-8.611026
-0
-0
-6.617155
-6.757564
-6.990833
-7.345154
-7.863299
-0
-0
-0
-6.237758
-6.353288
-6.548139
-6.842822
-7.2675
-0
-0
-0
-0
-5.895859
-5.992753
-6.158682
-6.409713
-6.767738
-0
-0
-0
-0
-0
-5.577649
-5.660109
-5.803603
-6.020859
-6.328918
-0
-0
-0
-0
-0
-0
-5.274008
-5.345239
-5.470783
-5.661151
-5.929805
-0
-0
-0
-0
-0
-0
-0
-4.989449
-5.051992
-5.163404
-5.332422
-5.57016
-0
-0
-0
-0
-0
-0
-0
-0
-4.7302
-4.785796
-4.885957
-5.038047
-5.251351
-0
-0
-0
-0
-0
-0
-0
-0
-0
-4.497901
-4.547975
-4.638909
-4.777286
-4.971027
-0
-0
-0
-0
-0
-0
-0
-0
-0
-0
-4.2914
-4.337025
-4.42039
-4.547373
-4.725078
-0
-0
-0
-0
-0
-0
-0
-0
-0
-0
-11.64667
-10.58052
-11.30776
-9.633959
-10.1963
-11.13384
-8.827549
-9.225809
-9.8981
-11.03813
-8.139447
-8.430764
-8.912453
-9.695926
-11.02865
-7.552076
-7.774128
-8.137516
-8.706634
-9.605671
-0
-7.0489
-7.223252
-7.510195
-7.949502
-8.611026
-0
-0
-6.613881
-6.754672
-6.988444
-7.343491
-7.862803
-0
-0
-0
-6.233418
-6.349532
-6.545156
-6.840945
-7.267326
-0
-0
-0
-0
-5.895148
-5.992768
-6.159713
-6.412226
-6.772504
-0
-0
-0
-0
-0
-5.587369
-5.670673
-5.815497
-6.034774
-6.345891
-0
-0
-0
-0
-0
-0
-5.298286
-5.370382
-5.497488
-5.69036
-5.962801
-0
-0
-0
-0
-0
-0
-0
-5.020117
-5.083318
-5.196019
-5.367186
-5.608215
-0
-0
-0
-0
-0
-0
-0
-0
-4.757777
-4.813765
-4.914815
-5.068403
-5.284011
-0
-0
-0
-0
-0
-0
-0
-0
-0
-4.517446
-4.567718
-4.65917
-4.798455
-4.993581
-0
-0
-0
-0
-0
-0
-0
-0
-0
-0
-4.301131
-4.346848
-4.430457
-4.557867
-4.736221
-0
-0
-0
-0
-0
-0
-0
-0
-0
-0
-4.108245
-4.150175
-4.227321
-4.344881
-4.509225
-0
-0
-0
-0
-0
-0
-0
-0
-0
-0
-11.39374
-10.39747
-11.01433
-9.516744
-10.03571
-10.8467
-8.779575
-9.162012
-9.802056
-10.84369
-8.128648
-8.414356
-8.886541
-9.650172
-10.91922
-7.553961
-7.774048
-8.134492
-8.698553
-9.586595
-0
-7.051945
-7.225726
-7.511881
-7.949984
-8.60936
-0
-0
-6.613881
-6.754672
-6.988444
-7.343491
-7.862803
-0
-0
-0
-6.230046
-6.346417
-6.542362
-6.838598
-7.265658
-0
-0
-0
-0
-5.890579
-5.988592
-6.156042
-6.409253
-6.770575
-0
-0
-0
-0
-0
-5.58606
-5.669851
-5.815364
-6.035634
-6.348234
-0
-0
-0
-0
-0
-0
-5.306698
-5.379356
-5.507403
-5.701734
-5.97637
-0
-0
-0
-0
-0
-0
-0
-5.042248
-5.106075
-5.219937
-5.393017
-5.636972
-0
-0
-0
-0
-0
-0
-0
-0
-4.786195
-4.842661
-4.944742
-5.100047
-5.318304
-0
-0
-0
-0
-0
-0
-0
-0
-0
-4.543223
-4.593776
-4.685949
-4.826492
-5.023537
-0
-0
-0
-0
-0
-0
-0
-0
-0
-0
-4.319502
-4.365356
-4.449389
-4.577569
-4.757116
-0
-0
-0
-0
-0
-0
-0
-0
-0
-0
-4.117399
-4.159405
-4.236754
-4.354679
-4.519587
-0
-0
-0
-0
-0
-0
-0
-0
-0
-0
-3.936849
-3.975464
-4.047176
-4.156554
-4.309236
-0
-0
-0
-0
-0
-0
-0
-0
-0
-0
-11.22379
-10.24532
-10.78385
-9.387836
-9.867946
-10.5717
-8.692832
-9.054079
-9.651059
-10.5655
-8.093549
-8.37016
-8.826615
-9.557628
-10.72481
-7.547619
-7.764172
-8.119149
-8.673695
-9.541303
-0
-7.05509
-7.22758
-7.511897
-7.947143
-8.601417
-0
-0
-6.617155
-6.757564
-6.990833
-7.345154
-7.863299
-0
-0
-0
-6.230046
-6.346417
-6.542362
-6.838598
-7.265658
-0
-0
-0
-0
-5.887193
-5.985377
-6.153031
-6.406511
-6.76823
-0
-0
-0
-0
-0
-5.581402
-5.665454
-5.811289
-6.031994
-6.345227
-0
-0
-0
-0
-0
-0
-5.305014
-5.377975
-5.506477
-5.701473
-5.977093
-0
-0
-0
-0
-0
-0
-0
-5.049628
-5.11384
-5.228354
-5.402488
-5.64805
-0
-0
-0
-0
-0
-0
-0
-0
-4.806528
-4.863434
-4.966413
-5.123195
-5.343737
-0
-0
-0
-0
-0
-0
-0
-0
-0
-4.569702
-4.620591
-4.713586
-4.855551
-5.054761
-0
-0
-0
-0
-0
-0
-0
-0
-0
-0
-4.343707
-4.38975
-4.474367
-4.603606
-4.784793
-0
-0
-0
-0
-0
-0
-0
-0
-0
-0
-4.134713
-4.176826
-4.254522
-4.373103
-4.539042
-0
-0
-0
-0
-0
-0
-0
-0
-0
-0
-3.945485
-3.984157
-4.056048
-4.165741
-4.318915
-0
-0
-0
-0
-0
-0
-0
-0
-0
-0
-3.776039
-3.811772
-3.878573
-3.980718
-4.12318
-0
-0
-0
-0
-0
-0
-0
-0
-0
-0
-11.13798
-10.13929
-10.62882
-9.277243
-9.728422
-10.35577
-8.593464
-8.935322
-9.493382
-10.29987
-8.025681
-8.289989
-8.724897
-9.411751
-10.44681
-7.520959
-7.731771
-8.077582
-8.616041
-9.44972
-0
-7.051655
-7.221828
-7.502701
-7.932479
-8.576993
-0
-0
-6.621056
-6.760603
-6.992686
-7.345252
-7.860564
-0
-0
-0
-6.233418
-6.349532
-6.545156
-6.840945
-7.267326
-0
-0
-0
-0
-5.887193
-5.985377
-6.153031
-6.406511
-6.76823
-0
-0
-0
-0
-0
-5.578056
-5.66222
-5.808178
-6.029039
-6.342492
-0
-0
-0
-0
-0
-0
-5.300375
-5.373489
-5.502187
-5.69744
-5.973431
-0
-0
-0
-0
-0
-0
-0
-5.047704
-5.112111
-5.226899
-5.401465
-5.647676
-0
-0
-0
-0
-0
-0
-0
-0
-4.813088
-4.870246
-4.973693
-5.131228
-5.352951
-0
-0
-0
-0
-0
-0
-0
-0
-0
-4.588515
-4.639703
-4.733386
-4.876534
-5.077556
-0
-0
-0
-0
-0
-0
-0
-0
-0
-0
-4.368514
-4.414771
-4.500042
-4.63046
-4.813475
-0
-0
-0
-0
-0
-0
-0
-0
-0
-0
-4.157508
-4.199763
-4.277929
-4.397406
-4.564753
-0
-0
-0
-0
-0
-0
-0
-0
-0
-0
-3.961852
-4.000596
-4.072789
-4.183043
-4.337113
-0
-0
-0
-0
-0
-0
-0
-0
-0
-0
-3.784206
-3.819983
-3.886936
-3.989364
-4.132257
-0
-0
-0
-0
-0
-0
-0
-0
-0
-0
-3.624877
-3.658014
-3.720461
-3.816046
-3.949411
-0
-0
-0
-0
-0
-0
-0
-0
-0
-0
-10.08448
-10.55046
-9.198732
-9.631152
-10.21052
-8.506175
-8.833406
-9.362285
-10.09171
-7.945197
-8.198089
-8.612986
-9.259649
-10.18269
-7.465883
-7.668873
-8.00189
-8.517843
-9.305064
-0
-7.030795
-7.197192
-7.472211
-7.892526
-8.520219
-0
-0
-6.61956
-6.757553
-6.987383
-7.336516
-7.846249
-0
-0
-0
-6.237758
-6.353288
-6.548139
-6.842822
-7.2675
-0
-0
-0
-0
-5.890579
-5.988592
-6.156042
-6.409253
-6.770575
-0
-0
-0
-0
-0
-5.578056
-5.66222
-5.808178
-6.029039
-6.342492
-0
-0
-0
-0
-0
-0
-5.297112
-5.370288
-5.499055
-5.694387
-5.970487
-0
-0
-0
-0
-0
-0
-0
-5.043143
-5.107639
-5.222522
-5.397223
-5.64363
-0
-0
-0
-0
-0
-0
-0
-0
-4.811025
-4.868295
-4.97191
-5.129697
-5.351834
-0
-0
-0
-0
-0
-0
-0
-0
-0
-4.594423
-4.64576
-4.739772
-4.883478
-5.085363
-0
-0
-0
-0
-0
-0
-0
-0
-0
-0
-4.386059
-4.432478
-4.518277
-4.649644
-4.834142
-0
-0
-0
-0
-0
-0
-0
-0
-0
-0
-0
-4.180827
-4.223237
-4.301912
-4.42237
-4.591266
-0
-0
-0
-0
-0
-0
-0
-0
-0
-0
-3.983389
-4.022226
-4.094822
-4.205833
-4.36112
-0
-0
-0
-0
-0
-0
-0
-0
-0
-0
-3.799713
-3.835542
-3.902749
-4.005678
-4.149353
-0
-0
-0
-0
-0
-0
-0
-0
-0
-0
-3.63262
-3.665787
-3.728368
-3.824201
-3.957956
-0
-0
-0
-0
-0
-0
-0
-0
-0
-0
-3.482324
-3.513324
-3.571817
-3.66153
-3.786626
-0
-0
-0
-0
-0
-0
-0
-0
-0
-0
-9.15768
-9.58081
-10.13707
-8.443367
-8.761032
-9.270891
-9.951808
-7.873129
-8.117333
-8.516964
-9.133328
-9.976398
-7.398554
-7.594207
-7.915097
-8.409881
-9.1546
-0
-6.984825
-7.146037
-7.412742
-7.81946
-8.42318
-0
-0
-6.602831
-6.73827
-6.9642
-7.307237
-7.807025
-0
-0
-0
-6.237575
-6.352046
-6.545394
-6.837842
-7.259037
-0
-0
-0
-0
-5.895148
-5.992768
-6.159713
-6.412226
-6.772504
-0
-0
-0
-0
-0
-5.581402
-5.665454
-5.811289
-6.031994
-6.345227
-0
-0
-0
-0
-0
-0
-5.297112
-5.370288
-5.499055
-5.694387
-5.970487
-0
-0
-0
-0
-0
-0
-0
-5.039982
-5.104513
-5.219419
-5.394147
-5.640589
-0
-0
-0
-0
-0
-0
-0
-0
-4.80658
-4.863894
-4.967546
-5.125372
-5.347585
-0
-0
-0
-0
-0
-0
-0
-0
-0
-4.592295
-4.643682
-4.737782
-4.881635
-5.083753
-0
-0
-0
-0
-0
-0
-0
-0
-0
-0
-4.391467
-4.437935
-4.523955
-4.655732
-4.840886
-0
-0
-0
-0
-0
-0
-0
-0
-0
-0
-0
-4.197258
-4.239773
-4.318823
-4.440048
-4.610165
-0
-0
-0
-0
-0
-0
-0
-0
-0
-0
-0
-0
-4.005392
-4.044321
-4.117345
-4.229168
-4.385775
-0
-0
-0
-0
-0
-0
-0
-0
-0
-0
-3.820113
-3.856004
-3.923546
-4.027145
-4.171872
-0
-0
-0
-0
-0
-0
-0
-0
-0
-0
-3.647354
-3.680546
-3.743347
-3.83962
-3.97408
-0
-0
-0
-0
-0
-0
-0
-0
-0
-0
-3.489683
-3.520702
-3.579307
-3.669244
-3.794689
-0
-0
-0
-0
-0
-0
-0
-0
-0
-0
-3.347733
-3.376728
-3.431824
-3.516184
-3.633838
-0
-0
-0
-0
-0
-0
-0
-0
-0
-0
-8.410289
-8.723152
-9.223564
-9.881071
-7.820723
-8.059209
-8.448777
-9.045311
-9.838008
-7.33729
-7.527319
-7.83883
-8.317314
-9.029873
-0
-6.92711
-7.083413
-7.342091
-7.735684
-8.316617
-0
-0
-6.563602
-6.695496
-6.915776
-7.249822
-7.734948
-0
-0
-0
-6.22387
-6.336583
-6.527256
-6.815601
-7.230353
-0
-0
-0
-0
-5.895859
-5.992753
-6.158682
-6.409713
-6.767738
-0
-0
-0
-0
-0
-5.586059
-5.669851
-5.815364
-6.035634
-6.348234
-0
-0
-0
-0
-0
-0
-5.300375
-5.373489
-5.502187
-5.69744
-5.973431
-0
-0
-0
-0
-0
-0
-0
-5.039982
-5.104513
-5.219419
-5.394147
-5.640589
-0
-0
-0
-0
-0
-0
-0
-0
-4.803535
-4.860863
-4.964512
-5.122324
-5.344523
-0
-0
-0
-0
-0
-0
-0
-0
-0
-4.587994
-4.63939
-4.733485
-4.877323
-5.079425
-0
-0
-0
-0
-0
-0
-0
-0
-0
-0
-4.389348
-4.435801
-4.521849
-4.653694
-4.838975
-0
-0
-0
-0
-0
-0
-0
-0
-0
-0
-0
-4.202253
-4.244776
-4.32394
-4.44546
-4.616074
-0
-0
-0
-0
-0
-0
-0
-0
-0
-0
-0
-0
-4.020861
-4.059828
-4.133155
-4.245573
-4.403194
-0
-0
-0
-0
-0
-0
-0
-0
-0
-0
-0
-0
-0
-3.840934
-3.876879
-3.944767
-4.049074
-4.194924
-0
-0
-0
-0
-0
-0
-0
-0
-0
-0
-3.666732
-3.69995
-3.76304
-3.859895
-3.995298
-0
-0
-0
-0
-0
-0
-0
-0
-0
-0
-3.503716
-3.53474
-3.59353
-3.683859
-3.809933
-0
-0
-0
-0
-0
-0
-0
-0
-0
-0
-3.354738
-3.383747
-3.438939
-3.523496
-3.641466
-0
-0
-0
-0
-0
-0
-0
-0
-0
-0
-3.220458
-3.247633
-3.299557
-3.379224
-3.490078
-0
-0
-0
-0
-0
-0
-0
-0
-0
-0
-7.792989
-8.028569
-8.413067
-8.999731
-9.7681
-7.292357
-7.478665
-7.783936
-8.251604
-8.943053
-0
-6.873877
-7.026396
-7.278791
-7.662101
-8.22536
-0
-0
-6.513188
-6.641692
-6.856421
-7.181581
-7.652336
-0
-0
-0
-6.18978
-6.300022
-6.486723
-6.768838
-7.173771
-0
-0
-0
-0
-5.884422
-5.98009
-6.144147
-6.392331
-6.745987
-0
-0
-0
-0
-0
-5.587369
-5.670673
-5.815497
-6.034774
-6.345891
-0
-0
-0
-0
-0
-0
-5.305014
-5.377975
-5.506477
-5.701473
-5.977093
-0
-0
-0
-0
-0
-0
-0
-5.043143
-5.107639
-5.222522
-5.397223
-5.64363
-0
-0
-0
-0
-0
-0
-0
-0
-4.803535
-4.860863
-4.964512
-5.122324
-5.344523
-0
-0
-0
-0
-0
-0
-0
-0
-0
-4.585071
-4.636466
-4.730541
-4.874342
-5.076391
-0
-0
-0
-0
-0
-0
-0
-0
-0
-0
-4.385219
-4.431645
-4.517656
-4.649448
-4.834663
-0
-0
-0
-0
-0
-0
-0
-0
-0
-0
-0
-4.200173
-4.242656
-4.321785
-4.443315
-4.613977
-0
-0
-0
-0
-0
-0
-0
-0
-0
-0
-0
-0
-4.025525
-4.064454
-4.137849
-4.250451
-4.408446
-0
-0
-0
-0
-0
-0
-0
-0
-0
-0
-0
-0
-0
-3.855552
-3.891497
-3.959608
-4.064421
-4.211094
-0
-0
-0
-0
-0
-0
-0
-0
-0
-0
-0
-0
-0
-0
-3.686498
-3.719728
-3.783108
-3.880569
-4.016968
-0
-0
-0
-0
-0
-0
-0
-0
-0
-0
-3.522177
-3.553194
-3.61222
-3.703069
-3.829978
-0
-0
-0
-0
-0
-0
-0
-0
-0
-0
-3.368123
-3.397132
-3.452478
-3.53738
-3.65592
-0
-0
-0
-0
-0
-0
-0
-0
-0
-0
-3.227137
-3.254319
-3.30633
-3.386173
-3.49731
-0
-0
-0
-0
-0
-0
-0
-0
-0
-0
-3.099923
-3.125436
-3.174456
-3.249753
-3.354577
-0
-0
-0
-0
-0
-0
-0
-0
-0
-0
-7.268498
-7.452892
-7.75498
-8.217184
-8.898113
-0
-6.834556
-6.984562
-7.232742
-7.609151
-8.160623
-0
-0
-6.466151
-6.592029
-6.802363
-7.120453
-7.579834
-0
-0
-0
-6.145069
-6.252928
-6.43565
-6.711465
-7.106503
-0
-0
-0
-0
-5.854358
-5.948271
-6.109467
-6.353175
-6.699927
-0
-0
-0
-0
-0
-5.577649
-5.660109
-5.803603
-6.020859
-6.328918
-0
-0
-0
-0
-0
-0
-5.306698
-5.379356
-5.507403
-5.701734
-5.97637
-0
-0
-0
-0
-0
-0
-0
-5.047704
-5.112111
-5.226899
-5.401465
-5.647676
-0
-0
-0
-0
-0
-0
-0
-0
-4.80658
-4.863894
-4.967546
-5.125372
-5.347585
-0
-0
-0
-0
-0
-0
-0
-0
-0
-4.585071
-4.636466
-4.730541
-4.874342
-5.076391
-0
-0
-0
-0
-0
-0
-0
-0
-0
-0
-4.382427
-4.428834
-4.514813
-4.646553
-4.831696
-0
-0
-0
-0
-0
-0
-0
-0
-0
-0
-0
-4.196224
-4.238663
-4.317723
-4.439172
-4.609733
-0
-0
-0
-0
-0
-0
-0
-0
-0
-0
-0
-0
-4.023516
-4.062377
-4.135713
-4.248263
-4.406247
-0
-0
-0
-0
-0
-0
-0
-0
-0
-0
-0
-0
-0
-3.859942
-3.895824
-3.963953
-4.068897
-4.215826
-0
-0
-0
-0
-0
-0
-0
-0
-0
-0
-0
-0
-0
-0
-3.700367
-3.733561
-3.797113
-3.894985
-4.032099
-0
-0
-0
-0
-0
-0
-0
-0
-0
-0
-0
-0
-0
-0
-0
-3.541012
-3.57199
-3.631251
-3.722632
-3.850414
-0
-0
-0
-0
-0
-0
-0
-0
-0
-0
-3.385736
-3.414731
-3.470269
-3.555623
-3.674917
-0
-0
-0
-0
-0
-0
-0
-0
-0
-0
-3.23993
-3.267099
-3.319249
-3.399397
-3.511044
-0
-0
-0
-0
-0
-0
-0
-0
-0
-0
-3.106303
-3.131817
-3.180914
-3.256371
-3.361452
-0
-0
-0
-0
-0
-0
-0
-0
-0
-0
-2.985611
-3.009604
-3.055955
-3.127236
-3.226452
-0
-0
-0
-0
-0
-0
-0
-0
-0
-0
-6.813632
-6.962329
-7.208333
-7.581213
-8.126721
-0
-0
-6.4312
-6.555328
-6.762693
-7.07599
-7.527686
-0
-0
-0
-6.102946
-6.208948
-6.388485
-6.659213
-7.046279
-0
-0
-0
-0
-5.814232
-5.906425
-6.0647
-6.30377
-6.643376
-0
-0
-0
-0
-0
-5.550787
-5.632009
-5.773391
-5.987345
-6.290362
-0
-0
-0
-0
-0
-0
-5.298286
-5.370382
-5.497488
-5.69036
-5.962801
-0
-0
-0
-0
-0
-0
-0
-5.049628
-5.11384
-5.228354
-5.402488
-5.64805
-0
-0
-0
-0
-0
-0
-0
-0
-4.811025
-4.868295
-4.97191
-5.129697
-5.351834
-0
-0
-0
-0
-0
-0
-0
-0
-0
-4.587994
-4.63939
-4.733485
-4.877323
-5.079425
-0
-0
-0
-0
-0
-0
-0
-0
-0
-0
-4.382427
-4.428835
-4.514813
-4.646553
-4.831696
-0
-0
-0
-0
-0
-0
-0
-0
-0
-0
-0
-4.193564
-4.235975
-4.31499
-4.436375
-4.606852
-0
-0
-0
-0
-0
-0
-0
-0
-0
-0
-0
-0
-4.019754
-4.058555
-4.131809
-4.244249
-4.402108
-0
-0
-0
-0
-0
-0
-0
-0
-0
-0
-0
-0
-0
-3.858019
-3.89382
-3.961864
-4.066733
-4.213591
-0
-0
-0
-0
-0
-0
-0
-0
-0
-0
-0
-0
-0
-0
-3.704532
-3.73764
-3.801181
-3.899131
-4.036442
-0
-0
-0
-0
-0
-0
-0
-0
-0
-0
-0
-0
-0
-0
-0
-3.554246
-3.585131
-3.644517
-3.736245
-3.864631
-0
-0
-0
-0
-0
-0
-0
-0
-0
-0
-0
-0
-0
-0
-0
-0
-3.40371
-3.432664
-3.488371
-3.574185
-3.69426
-0
-0
-0
-0
-0
-0
-0
-0
-0
-0
-3.256768
-3.283907
-3.33623
-3.41677
-3.52909
-0
-0
-0
-0
-0
-0
-0
-0
-0
-0
-3.118549
-3.144043
-3.193259
-3.268997
-3.374536
-0
-0
-0
-0
-0
-0
-0
-0
-0
-0
-2.991714
-3.015704
-3.062122
-3.133548
-3.233001
-0
-0
-0
-0
-0
-0
-0
-0
-0
-0
-2.876965
-2.899654
-2.943548
-3.011126
-3.105179
-0
-0
-0
-0
-0
-0
-0
-0
-0
-0
-6.412577
-6.535781
-6.741597
-7.052415
-7.500175
-0
-0
-0
-6.071497
-6.176252
-6.353623
-6.620871
-7.002489
-0
-0
-0
-0
-5.776115
-5.866957
-6.022867
-6.258139
-6.591891
-0
-0
-0
-0
-0
-5.514395
-5.594387
-5.73356
-5.944008
-6.241661
-0
-0
-0
-0
-0
-0
-5.274008
-5.345239
-5.470783
-5.661151
-5.929805
-0
-0
-0
-0
-0
-0
-0
-5.042248
-5.106075
-5.219937
-5.393017
-5.636972
-0
-0
-0
-0
-0
-0
-0
-0
-4.813088
-4.870246
-4.973693
-5.131228
-5.352951
-0
-0
-0
-0
-0
-0
-0
-0
-0
-4.592295
-4.643682
-4.737782
-4.881635
-5.083753
-0
-0
-0
-0
-0
-0
-0
-0
-0
-0
-4.385219
-4.431645
-4.517656
-4.649448
-4.834663
-0
-0
-0
-0
-0
-0
-0
-0
-0
-0
-0
-4.193564
-4.235976
-4.31499
-4.436375
-4.606852
-0
-0
-0
-0
-0
-0
-0
-0
-0
-0
-0
-0
-4.017223
-4.055992
-4.129194
-4.241558
-4.399324
-0
-0
-0
-0
-0
-0
-0
-0
-0
-0
-0
-0
-0
-3.854441
-3.890176
-3.958126
-4.062874
-4.209581
-0
-0
-0
-0
-0
-0
-0
-0
-0
-0
-0
-0
-0
-0
-3.702708
-3.735723
-3.799168
-3.897017
-4.034236
-0
-0
-0
-0
-0
-0
-0
-0
-0
-0
-0
-0
-0
-0
-0
-3.558256
-3.589009
-3.648357
-3.74013
-3.868655
-0
-0
-0
-0
-0
-0
-0
-0
-0
-0
-0
-0
-0
-0
-0
-0
-3.416358
-3.44522
-3.500985
-3.587087
-3.707689
-0
-0
-0
-0
-0
-0
-0
-0
-0
-0
-0
-0
-0
-0
-0
-0
-0
-3.273962
-3.301039
-3.353516
-3.434438
-3.547449
-0
-0
-0
-0
-0
-0
-0
-0
-0
-0
-3.134678
-3.160128
-3.209488
-3.285588
-3.391727
-0
-0
-0
-0
-0
-0
-0
-0
-0
-0
-3.003456
-3.027419
-3.07394
-3.145618
-3.245496
-0
-0
-0
-0
-0
-0
-0
-0
-0
-0
-2.882815
-2.905494
-2.949447
-3.017157
-3.111427
-0
-0
-0
-0
-0
-0
-0
-0
-0
-0
-2.773614
-2.795063
-2.836777
-2.900936
-2.99022
-0
-0
-0
-0
-0
-0
-0
-0
-0
-0
-6.05473
-6.158815
-6.335042
-6.600474
-6.979272
-0
-0
-0
-0
-5.747542
-5.837476
-5.991758
-6.22441
-6.554122
-0
-0
-0
-0
-0
-5.479583
-5.558605
-5.695965
-5.903499
-6.196689
-0
-0
-0
-0
-0
-0
-5.240709
-5.311059
-5.434926
-5.622563
-5.887078
-0
-0
-0
-0
-0
-0
-0
-5.020117
-5.083318
-5.196019
-5.367186
-5.608215
-0
-0
-0
-0
-0
-0
-0
-0
-4.806528
-4.863434
-4.966413
-5.123195
-5.343737
-0
-0
-0
-0
-0
-0
-0
-0
-0
-4.594423
-4.64576
-4.739772
-4.883478
-5.085363
-0
-0
-0
-0
-0
-0
-0
-0
-0
-0
-4.389348
-4.435801
-4.521849
-4.653694
-4.838975
-0
-0
-0
-0
-0
-0
-0
-0
-0
-0
-0
-4.196224
-4.238663
-4.317724
-4.439172
-4.609733
-0
-0
-0
-0
-0
-0
-0
-0
-0
-0
-0
-0
-4.017223
-4.055992
-4.129194
-4.241559
-4.399324
-0
-0
-0
-0
-0
-0
-0
-0
-0
-0
-0
-0
-0
-3.852036
-3.887736
-3.955629
-4.060299
-4.206903
-0
-0
-0
-0
-0
-0
-0
-0
-0
-0
-0
-0
-0
-0
-3.699312
-3.732255
-3.795603
-3.893322
-4.030381
-0
-0
-0
-0
-0
-0
-0
-0
-0
-0
-0
-0
-0
-0
-0
-3.556563
-3.587191
-3.646433
-3.738094
-3.866502
-0
-0
-0
-0
-0
-0
-0
-0
-0
-0
-0
-0
-0
-0
-0
-0
-3.420225
-3.448962
-3.504642
-3.590759
-3.711462
-0
-0
-0
-0
-0
-0
-0
-0
-0
-0
-0
-0
-0
-0
-0
-0
-0
-3.286087
-3.313054
-3.365581
-3.446714
-3.560181
-0
-0
-0
-0
-0
-0
-0
-0
-0
-0
-0
-0
-0
-0
-0
-0
-0
-0
-3.15116
-3.176533
-3.226015
-3.302468
-3.409204
-0
-0
-0
-0
-0
-0
-0
-0
-0
-0
-3.01893
-3.04284
-3.089483
-3.161484
-3.261917
-0
-0
-0
-0
-0
-0
-0
-0
-0
-0
-2.894099
-2.916736
-2.960779
-3.028717
-3.123375
-0
-0
-0
-0
-0
-0
-0
-0
-0
-0
-2.779226
-2.800666
-2.842428
-2.906707
-2.996191
-0
-0
-0
-0
-0
-0
-0
-0
-0
-0
-2.675251
-2.695486
-2.735144
-2.796224
-2.881098
-0
-0
-0
-0
-0
-0
-0
-0
-0
-0
-5.732308
-5.821744
-5.975157
-6.206428
-6.534029
-0
-0
-0
-0
-0
-5.453402
-5.531767
-5.667871
-5.873373
-6.163454
-0
-0
-0
-0
-0
-0
-5.208676
-5.278322
-5.400795
-5.586126
-5.847142
-0
-0
-0
-0
-0
-0
-0
-4.989449
-5.051992
-5.163404
-5.332422
-5.57016
-0
-0
-0
-0
-0
-0
-0
-0
-4.786195
-4.842661
-4.944742
-5.100047
-5.318304
-0
-0
-0
-0
-0
-0
-0
-0
-0
-4.588516
-4.639702
-4.733386
-4.876534
-5.077556
-0
-0
-0
-0
-0
-0
-0
-0
-0
-0
-4.391468
-4.437936
-4.523955
-4.655732
-4.840887
-0
-0
-0
-0
-0
-0
-0
-0
-0
-0
-0
-4.200173
-4.242656
-4.321786
-4.443315
-4.613977
-0
-0
-0
-0
-0
-0
-0
-0
-0
-0
-0
-0
-4.019754
-4.058555
-4.13181
-4.244249
-4.402108
-0
-0
-0
-0
-0
-0
-0
-0
-0
-0
-0
-0
-0
-3.852036
-3.887736
-3.955629
-4.060299
-4.206903
-0
-0
-0
-0
-0
-0
-0
-0
-0
-0
-0
-0
-0
-0
-3.69703
-3.729935
-3.793225
-3.890863
-4.027818
-0
-0
-0
-0
-0
-0
-0
-0
-0
-0
-0
-0
-0
-0
-0
-3.553362
-3.583899
-3.643038
-3.734569
-3.862812
-0
-0
-0
-0
-0
-0
-0
-0
-0
-0
-0
-0
-0
-0
-0
-0
-3.418655
-3.447275
-3.502819
-3.588814
-3.709391
-0
-0
-0
-0
-0
-0
-0
-0
-0
-0
-0
-0
-0
-0
-0
-0
-0
-3.289838
-3.316671
-3.369117
-3.450215
-3.563748
-0
-0
-0
-0
-0
-0
-0
-0
-0
-0
-0
-0
-0
-0
-0
-0
-0
-0
-3.162818
-3.188066
-3.237572
-3.314218
-3.421323
-0
-0
-0
-0
-0
-0
-0
-0
-0
-0
-0
-0
-0
-0
-0
-0
-0
-0
-0
-3.034761
-3.058583
-3.105322
-3.177631
-3.27862
-0
-0
-0
-0
-0
-0
-0
-0
-0
-0
-2.90898
-2.931545
-2.975691
-3.043919
-3.139081
-0
-0
-0
-0
-0
-0
-0
-0
-0
-0
-2.790076
-2.811478
-2.85331
-2.917797
-3.007637
-0
-0
-0
-0
-0
-0
-0
-0
-0
-0
-2.680641
-2.700865
-2.740569
-2.801755
-2.886813
-0
-0
-0
-0
-0
-0
-0
-0
-0
-0
-2.581565
-2.600642
-2.638322
-2.696508
-2.777379
-0
-0
-0
-0
-0
-0
-0
-0
-0
-0
-5.439447
-5.517447
-5.652872
-5.857292
-6.145735
-0
-0
-0
-0
-0
-0
-5.184521
-5.253684
-5.375185
-5.558896
-5.817447
-0
-0
-0
-0
-0
-0
-0
-4.959806
-5.021816
-5.132135
-5.299315
-5.534227
-0
-0
-0
-0
-0
-0
-0
-0
-4.757777
-4.813765
-4.914815
-5.068403
-5.284011
-0
-0
-0
-0
-0
-0
-0
-0
-0
-4.569702
-4.620591
-4.713586
-4.855551
-5.054761
-0
-0
-0
-0
-0
-0
-0
-0
-0
-0
-4.386059
-4.432478
-4.518277
-4.649644
-4.834142
-0
-0
-0
-0
-0
-0
-0
-0
-0
-0
-0
-4.202253
-4.244776
-4.32394
-4.44546
-4.616074
-0
-0
-0
-0
-0
-0
-0
-0
-0
-0
-0
-0
-4.023516
-4.062377
-4.135714
-4.248263
-4.406247
-0
-0
-0
-0
-0
-0
-0
-0
-0
-0
-0
-0
-0
-3.854441
-3.890176
-3.958126
-4.062874
-4.209581
-0
-0
-0
-0
-0
-0
-0
-0
-0
-0
-0
-0
-0
-0
-3.69703
-3.729935
-3.793225
-3.890863
-4.027818
-0
-0
-0
-0
-0
-0
-0
-0
-0
-0
-0
-0
-0
-0
-0
-3.551206
-3.581696
-3.640776
-3.732227
-3.860364
-0
-0
-0
-0
-0
-0
-0
-0
-0
-0
-0
-0
-0
-0
-0
-0
-3.415635
-3.44417
-3.499595
-3.585458
-3.70587
-0
-0
-0
-0
-0
-0
-0
-0
-0
-0
-0
-0
-0
-0
-0
-0
-0
-3.288393
-3.315106
-3.367424
-3.448372
-3.561771
-0
-0
-0
-0
-0
-0
-0
-0
-0
-0
-0
-0
-0
-0
-0
-0
-0
-0
-3.166481
-3.191582
-3.240997
-3.317608
-3.424726
-0
-0
-0
-0
-0
-0
-0
-0
-0
-0
-0
-0
-0
-0
-0
-0
-0
-0
-0
-3.045995
-3.069684
-3.116424
-3.188893
-3.290222
-0
-0
-0
-0
-0
-0
-0
-0
-0
-0
-0
-0
-0
-0
-0
-0
-0
-0
-0
-0
-2.924226
-2.94668
-2.990901
-3.059402
-3.155063
-0
-0
-0
-0
-0
-0
-0
-0
-0
-0
-2.804396
-2.825732
-2.86764
-2.932388
-3.022689
-0
-0
-0
-0
-0
-0
-0
-0
-0
-0
-2.691087
-2.71127
-2.751041
-2.812409
-2.897795
-0
-0
-0
-0
-0
-0
-0
-0
-0
-0
-2.586749
-2.605811
-2.643532
-2.701819
-2.782856
-0
-0
-0
-0
-0
-0
-0
-0
-0
-0
-2.492195
-2.510237
-2.546046
-2.601471
-2.678585
-0
-0
-0
-0
-0
-0
-0
-0
-0
-0
-5.171656
-5.240544
-5.361512
-5.544353
-5.801596
-0
-0
-0
-0
-0
-0
-0
-4.937404
-4.999047
-5.108593
-5.27447
-5.507377
-0
-0
-0
-0
-0
-0
-0
-0
-4.7302
-4.785796
-4.885957
-5.038047
-5.251351
-0
-0
-0
-0
-0
-0
-0
-0
-0
-4.543224
-4.593776
-4.685949
-4.826492
-5.023537
-0
-0
-0
-0
-0
-0
-0
-0
-0
-0
-4.368514
-4.414771
-4.500042
-4.63046
-4.813475
-0
-0
-0
-0
-0
-0
-0
-0
-0
-0
-4.197258
-4.239774
-4.318823
-4.440048
-4.610165
-0
-0
-0
-0
-0
-0
-0
-0
-0
-0
-0
-0
-4.025525
-4.064454
-4.137849
-4.250451
-4.408445
-0
-0
-0
-0
-0
-0
-0
-0
-0
-0
-0
-0
-0
-3.85802
-3.893819
-3.961864
-4.066733
-4.213591
-0
-0
-0
-0
-0
-0
-0
-0
-0
-0
-0
-0
-0
-0
-3.699312
-3.732255
-3.795603
-3.893322
-4.030382
-0
-0
-0
-0
-0
-0
-0
-0
-0
-0
-0
-0
-0
-0
-0
-3.551206
-3.581696
-3.640777
-3.732227
-3.860364
-0
-0
-0
-0
-0
-0
-0
-0
-0
-0
-0
-0
-0
-0
-0
-0
-3.413596
-3.442088
-3.497445
-3.583229
-3.703538
-0
-0
-0
-0
-0
-0
-0
-0
-0
-0
-0
-0
-0
-0
-0
-0
-0
-3.285547
-3.312176
-3.364383
-3.445184
-3.558418
-0
-0
-0
-0
-0
-0
-0
-0
-0
-0
-0
-0
-0
-0
-0
-0
-0
-0
-3.16517
-3.190142
-3.239426
-3.315898
-3.422853
-0
-0
-0
-0
-0
-0
-0
-0
-0
-0
-0
-0
-0
-0
-0
-0
-0
-0
-0
-3.049584
-3.073127
-3.119761
-3.192181
-3.293521
-0
-0
-0
-0
-0
-0
-0
-0
-0
-0
-0
-0
-0
-0
-0
-0
-0
-0
-0
-0
-2.935091
-2.95739
-3.001599
-3.070228
-3.166186
-0
-0
-0
-0
-0
-0
-0
-0
-0
-0
-0
-0
-0
-0
-0
-0
-0
-0
-0
-0
-2.81909
-2.840322
-2.882273
-2.947264
-3.038016
-0
-0
-0
-0
-0
-0
-0
-0
-0
-0
-2.704887
-2.724998
-2.764843
-2.826437
-2.912246
-0
-0
-0
-0
-0
-0
-0
-0
-0
-0
-2.596819
-2.615836
-2.653615
-2.712076
-2.793409
-0
-0
-0
-0
-0
-0
-0
-0
-0
-0
-2.497184
-2.515212
-2.551056
-2.606574
-2.683846
-0
-0
-0
-0
-0
-0
-0
-0
-0
-0
-2.406985
-2.423935
-2.458039
-2.510862
-2.584408
-0
-0
-0
-0
-0
-0
-0
-0
-0
-0
-4.925485
-4.986913
-5.096032
-5.261202
-5.493037
-0
-0
-0
-0
-0
-0
-0
-0
-4.709322
-4.764645
-4.864172
-5.01519
-5.226844
-0
-0
-0
-0
-0
-0
-0
-0
-0
-4.517446
-4.567717
-4.659169
-4.798455
-4.993581
-0
-0
-0
-0
-0
-0
-0
-0
-0
-0
-4.343708
-4.38975
-4.474367
-4.603606
-4.784793
-0
-0
-0
-0
-0
-0
-0
-0
-0
-0
-4.180827
-4.223238
-4.301912
-4.42237
-4.591266
-0
-0
-0
-0
-0
-0
-0
-0
-0
-0
-4.020861
-4.059828
-4.133155
-4.245574
-4.403194
-0
-0
-0
-0
-0
-0
-0
-0
-0
-0
-0
-0
-0
-3.859943
-3.895824
-3.963953
-4.068897
-4.215826
-0
-0
-0
-0
-0
-0
-0
-0
-0
-0
-0
-0
-0
-0
-3.702708
-3.735723
-3.799168
-3.897017
-4.034236
-0
-0
-0
-0
-0
-0
-0
-0
-0
-0
-0
-0
-0
-0
-0
-3.553362
-3.583899
-3.643038
-3.734569
-3.862812
-0
-0
-0
-0
-0
-0
-0
-0
-0
-0
-0
-0
-0
-0
-0
-0
-3.413596
-3.442088
-3.497445
-3.583229
-3.703538
-0
-0
-0
-0
-0
-0
-0
-0
-0
-0
-0
-0
-0
-0
-0
-0
-0
-3.28362
-3.310205
-3.362351
-3.443065
-3.556199
-0
-0
-0
-0
-0
-0
-0
-0
-0
-0
-0
-0
-0
-0
-0
-0
-0
-0
-3.162499
-3.18738
-3.236555
-3.312889
-3.419668
-0
-0
-0
-0
-0
-0
-0
-0
-0
-0
-0
-0
-0
-0
-0
-0
-0
-0
-0
-3.048401
-3.071819
-3.118314
-3.190594
-3.291782
-0
-0
-0
-0
-0
-0
-0
-0
-0
-0
-0
-0
-0
-0
-0
-0
-0
-0
-0
-0
-2.938636
-2.960772
-3.004872
-3.073436
-3.169389
-0
-0
-0
-0
-0
-0
-0
-0
-0
-0
-0
-0
-0
-0
-0
-0
-0
-0
-0
-0
-2.829609
-2.850693
-2.892603
-2.957702
-3.048713
-0
-0
-0
-0
-0
-0
-0
-0
-0
-0
-0
-0
-0
-0
-0
-0
-0
-0
-0
-0
-2.719071
-2.739072
-2.77896
-2.840755
-2.926976
-0
-0
-0
-0
-0
-0
-0
-0
-0
-0
-2.610134
-2.629076
-2.666916
-2.725593
-2.807304
-0
-0
-0
-0
-0
-0
-0
-0
-0
-0
-2.506899
-2.524883
-2.560777
-2.616454
-2.694008
-0
-0
-0
-0
-0
-0
-0
-0
-0
-0
-2.411794
-2.428726
-2.462862
-2.515771
-2.589464
-0
-0
-0
-0
-0
-0
-0
-0
-0
-0