/*--------------------------------*- C++ -*----------------------------------*\
| =========                 |                                                 |
| \\      /  F ield         | OpenFOAM: The Open Source CFD Toolbox           |
|  \\    /   O peration     | Version:  2306                                  |
|   \\  /    A nd           | Website:  www.openfoam.com                      |
|    \\/     M anipulation  |                                                 |
\*---------------------------------------------------------------------------*/
FoamFile
{
    version     2.0;
    format      ascii;
    arch        "LSB;label=32;scalar=64";
    class       volScalarField;
    location    "0.3/fuel";
    object      j;
}
// * * * * * * * * * * * * * * * * * * * * * * * * * * * * * * * * * * * * * //

dimensions      [0 -3 0 0 0 1 0];

internalField   nonuniform List<scalar> 
16000
(
1.066157e+09
1.07437e+09
9.653129e+08
1.009918e+09
1.090639e+09
9.705601e+08
1.017419e+09
8.765974e+08
9.171005e+08
9.703466e+08
1.11485e+09
9.80709e+08
1.032258e+09
8.80527e+08
9.219193e+08
9.773781e+08
8.05055e+08
8.350032e+08
8.829039e+08
9.458423e+08
1.145709e+09
9.952737e+08
1.05432e+09
8.880422e+08
9.312303e+08
9.91282e+08
8.082214e+08
8.386291e+08
8.874342e+08
9.526134e+08
7.459655e+08
7.685158e+08
8.05321e+08
8.61478e+08
9.350283e+08
1.177944e+09
1.012795e+09
1.082408e+09
8.986284e+08
9.445859e+08
1.011951e+09
8.142335e+08
8.45557e+08
8.961827e+08
9.660051e+08
7.486202e+08
7.714488e+08
8.087392e+08
8.658411e+08
9.417201e+08
6.957599e+08
7.134105e+08
7.423271e+08
7.865706e+08
8.517509e+08
0
1.20069e+09
1.029578e+09
1.111711e+09
9.109679e+08
9.606446e+08
1.038275e+09
8.225891e+08
8.553126e+08
9.087316e+08
9.85931e+08
7.536367e+08
7.770126e+08
8.152663e+08
8.742663e+08
9.549672e+08
6.980437e+08
7.158776e+08
7.450989e+08
7.898653e+08
8.560526e+08
0
6.522188e+08
6.664525e+08
6.900007e+08
7.256937e+08
7.779112e+08
0
0
1.213573e+09
1.040325e+09
1.132287e+09
9.22188e+08
9.76017e+08
1.06576e+09
8.321009e+08
8.666804e+08
9.238248e+08
1.011358e+09
7.605352e+08
7.847428e+08
8.244578e+08
8.86358e+08
9.747135e+08
7.023448e+08
7.205349e+08
7.503535e+08
7.961553e+08
8.643633e+08
0
6.542218e+08
6.685808e+08
6.923372e+08
7.28368e+08
7.811564e+08
0
0
6.138288e+08
6.256222e+08
6.453234e+08
6.750757e+08
7.179366e+08
0
0
0
1.219959e+09
1.045685e+09
1.143878e+09
9.288402e+08
9.858256e+08
1.084998e+09
8.404042e+08
8.77012e+08
9.382787e+08
1.037986e+09
7.682394e+08
7.935396e+08
8.351702e+08
9.009176e+08
9.999963e+08
7.082091e+08
7.269376e+08
7.57654e+08
8.05016e+08
8.763025e+08
0
6.579856e+08
6.725852e+08
6.967451e+08
7.334365e+08
7.873532e+08
0
0
6.156115e+08
6.274933e+08
6.473429e+08
6.773324e+08
7.2057e+08
0
0
0
5.795747e+08
5.89538e+08
6.06407e+08
6.318148e+08
6.680743e+08
0
0
0
0
1.222503e+09
1.047955e+09
1.149589e+09
9.317391e+08
9.906967e+08
1.095802e+09
8.449963e+08
8.831188e+08
9.474723e+08
1.056599e+09
7.747359e+08
8.012138e+08
8.449069e+08
9.148814e+08
1.026607e+09
7.14654e+08
7.340848e+08
7.659621e+08
8.153504e+08
8.907053e+08
0
6.630812e+08
6.78043e+08
7.028044e+08
7.404801e+08
7.960886e+08
0
0
6.18957e+08
6.310064e+08
6.511401e+08
6.815885e+08
7.255617e+08
0
0
0
5.811797e+08
5.912071e+08
6.081855e+08
6.337673e+08
6.702967e+08
0
0
0
0
5.487116e+08
5.572727e+08
5.719578e+08
5.940957e+08
6.254545e+08
0
0
0
0
0
1.222503e+09
1.04872e+09
1.151853e+09
9.326969e+08
9.927466e+08
1.101112e+09
8.467104e+08
8.857691e+08
9.520239e+08
1.067049e+09
7.780956e+08
8.054444e+08
8.506432e+08
9.237399e+08
1.045216e+09
7.199261e+08
7.401056e+08
7.732075e+08
8.247502e+08
9.045521e+08
0
6.686059e+08
6.840375e+08
7.095672e+08
7.484994e+08
8.06289e+08
0
0
6.234595e+08
6.357603e+08
6.563147e+08
6.874399e+08
7.325018e+08
0
0
0
5.841901e+08
5.943369e+08
6.115226e+08
6.374374e+08
6.744884e+08
0
0
0
0
5.501699e+08
5.587786e+08
5.735469e+08
5.95817e+08
6.273779e+08
0
0
0
0
0
5.206783e+08
5.281446e+08
5.411079e+08
5.606754e+08
5.88286e+08
0
0
0
0
0
0
1.219959e+09
1.04872e+09
1.151853e+09
9.329044e+08
9.934324e+08
1.103211e+09
8.470621e+08
8.866379e+08
9.539331e+08
1.07219e+09
7.791294e+08
8.07015e+08
8.531235e+08
9.281197e+08
1.055691e+09
7.224781e+08
7.432071e+08
7.771864e+08
8.30269e+08
9.133188e+08
0
6.730063e+08
6.889342e+08
7.152597e+08
7.554935e+08
8.155779e+08
0
0
6.282853e+08
6.409106e+08
6.619963e+08
6.939721e+08
7.404096e+08
0
0
0
5.882223e+08
5.985468e+08
6.160374e+08
6.424391e+08
6.802533e+08
0
0
0
0
5.52905e+08
5.616007e+08
5.765247e+08
5.990456e+08
6.309932e+08
0
0
0
0
0
5.22014e+08
5.295154e+08
5.425436e+08
5.622148e+08
5.899821e+08
0
0
0
0
0
0
4.950446e+08
5.016388e+08
5.132181e+08
5.307201e+08
5.55344e+08
0
0
0
0
0
0
0
1.213573e+09
1.047955e+09
1.149589e+09
9.329044e+08
9.934324e+08
1.103211e+09
8.4702e+08
8.868224e+08
9.545696e+08
1.074227e+09
7.791474e+08
8.073307e+08
8.53932e+08
9.299574e+08
1.060871e+09
7.230851e+08
7.441524e+08
7.786551e+08
8.326485e+08
9.176542e+08
0
6.75003e+08
6.912924e+08
7.181784e+08
7.593179e+08
8.210124e+08
0
0
6.320404e+08
6.45005e+08
6.666316e+08
6.99468e+08
7.47309e+08
0
0
0
5.925021e+08
6.030548e+08
6.209262e+08
6.479311e+08
6.866923e+08
0
0
0
0
5.565537e+08
5.653786e+08
5.805292e+08
6.034135e+08
6.359215e+08
0
0
0
0
0
5.245202e+08
5.320843e+08
5.452328e+08
5.650985e+08
5.931634e+08
0
0
0
0
0
0
4.96276e+08
5.028966e+08
5.145269e+08
5.321122e+08
5.568614e+08
0
0
0
0
0
0
0
4.714805e+08
4.773605e+08
4.878056e+08
5.036161e+08
5.25808e+08
0
0
0
0
0
0
0
0
1.20069e+09
1.045685e+09
1.143878e+09
9.326969e+08
9.927466e+08
1.101112e+09
8.4702e+08
8.868224e+08
9.545696e+08
1.074227e+09
7.789729e+08
8.072872e+08
8.541013e+08
9.30571e+08
1.062933e+09
7.229046e+08
7.4416e+08
7.789445e+08
8.33422e+08
9.194802e+08
0
6.753319e+08
6.91843e+08
7.190586e+08
7.607215e+08
8.233503e+08
0
0
6.336417e+08
6.468508e+08
6.688507e+08
7.022707e+08
7.510637e+08
0
0
0
5.957653e+08
6.065545e+08
6.248062e+08
6.524074e+08
6.921085e+08
0
0
0
0
5.603946e+08
5.693842e+08
5.848143e+08
6.081427e+08
6.413347e+08
0
0
0
0
0
5.278525e+08
5.355095e+08
5.488315e+08
5.689762e+08
5.974683e+08
0
0
0
0
0
0
4.985882e+08
5.052549e+08
5.169784e+08
5.347187e+08
5.597039e+08
0
0
0
0
0
0
0
4.726213e+08
4.78522e+08
4.890081e+08
5.048862e+08
5.271807e+08
0
0
0
0
0
0
0
0
4.497269e+08
4.550067e+08
4.644997e+08
4.788994e+08
4.990745e+08
0
0
0
0
0
0
0
0
0
1.177944e+09
1.040325e+09
1.132287e+09
9.317391e+08
9.906967e+08
1.095802e+09
8.470621e+08
8.866379e+08
9.539331e+08
1.07219e+09
7.789729e+08
8.072872e+08
8.541013e+08
9.30571e+08
1.062933e+09
7.226552e+08
7.439937e+08
7.788996e+08
8.335835e+08
9.200938e+08
0
6.750308e+08
6.916656e+08
7.190571e+08
7.609935e+08
8.241107e+08
0
0
6.33785e+08
6.471428e+08
6.693584e+08
7.031069e+08
7.52434e+08
0
0
0
5.970772e+08
6.080346e+08
6.265424e+08
6.545363e+08
6.948542e+08
0
0
0
0
5.632724e+08
5.7243e+08
5.88134e+08
6.118908e+08
6.457437e+08
0
0
0
0
0
5.31336e+08
5.391108e+08
5.526442e+08
5.731245e+08
6.021301e+08
0
0
0
0
0
0
5.016545e+08
5.083886e+08
5.202455e+08
5.382066e+08
5.635266e+08
0
0
0
0
0
0
0
4.747658e+08
4.807015e+08
4.912615e+08
5.072644e+08
5.297509e+08
0
0
0
0
0
0
0
0
4.507887e+08
4.560844e+08
4.656114e+08
4.800672e+08
5.003273e+08
0
0
0
0
0
0
0
0
0
4.295584e+08
4.343396e+08
4.430159e+08
4.562139e+08
4.746875e+08
0
0
0
0
0
0
0
0
0
0
1.145709e+09
1.029578e+09
1.111711e+09
9.288402e+08
9.858256e+08
1.084998e+09
8.467104e+08
8.857691e+08
9.520239e+08
1.067049e+09
7.791474e+08
8.073307e+08
8.53932e+08
9.299574e+08
1.060871e+09
7.226552e+08
7.439937e+08
7.788996e+08
8.335835e+08
9.200938e+08
0
6.747394e+08
6.914288e+08
7.188957e+08
7.609474e+08
8.242702e+08
0
0
6.334115e+08
6.468519e+08
6.69181e+08
7.030975e+08
7.526957e+08
0
0
0
5.970947e+08
6.081535e+08
6.268052e+08
6.55013e+08
6.956643e+08
0
0
0
0
5.643672e+08
5.736422e+08
5.895253e+08
6.135546e+08
6.478257e+08
0
0
0
0
0
5.339073e+08
5.418006e+08
5.555362e+08
5.763326e+08
6.058207e+08
0
0
0
0
0
0
5.04842e+08
5.116604e+08
5.236778e+08
5.419004e+08
5.676166e+08
0
0
0
0
0
0
0
4.776033e+08
4.8359e+08
4.942547e+08
5.104335e+08
5.331904e+08
0
0
0
0
0
0
0
0
4.527873e+08
4.581091e+08
4.676967e+08
4.822552e+08
5.026732e+08
0
0
0
0
0
0
0
0
0
4.30551e+08
4.353442e+08
4.440486e+08
4.572945e+08
4.758398e+08
0
0
0
0
0
0
0
0
0
0
4.107842e+08
4.151515e+08
4.231314e+08
4.352866e+08
4.52297e+08
0
0
0
0
0
0
0
0
0
0
1.11485e+09
1.012795e+09
1.082408e+09
9.22188e+08
9.76017e+08
1.06576e+09
8.449963e+08
8.831188e+08
9.474723e+08
1.056599e+09
7.791294e+08
8.07015e+08
8.531235e+08
9.281197e+08
1.055691e+09
7.229046e+08
7.4416e+08
7.789445e+08
8.33422e+08
9.194802e+08
0
6.747394e+08
6.914288e+08
7.188957e+08
7.609474e+08
8.242702e+08
0
0
6.330981e+08
6.46575e+08
6.689523e+08
7.029384e+08
7.526482e+08
0
0
0
5.966793e+08
6.07794e+08
6.265196e+08
6.548334e+08
6.956476e+08
0
0
0
0
5.642992e+08
5.736435e+08
5.89624e+08
6.137952e+08
6.482819e+08
0
0
0
0
0
5.348377e+08
5.428118e+08
5.566748e+08
5.776645e+08
6.074454e+08
0
0
0
0
0
0
5.07166e+08
5.140671e+08
5.262341e+08
5.446963e+08
5.707751e+08
0
0
0
0
0
0
0
4.805389e+08
4.865886e+08
4.973766e+08
5.137612e+08
5.368332e+08
0
0
0
0
0
0
0
0
4.55427e+08
4.607863e+08
4.70459e+08
4.851609e+08
5.057995e+08
0
0
0
0
0
0
0
0
0
4.324219e+08
4.37234e+08
4.45988e+08
4.593208e+08
4.779988e+08
0
0
0
0
0
0
0
0
0
0
4.117156e+08
4.160918e+08
4.24095e+08
4.36291e+08
4.533636e+08
0
0
0
0
0
0
0
0
0
0
3.932521e+08
3.972657e+08
4.046504e+08
4.159034e+08
4.31635e+08
0
0
0
0
0
0
0
0
0
0
1.090639e+09
9.952737e+08
1.05432e+09
9.109679e+08
9.606446e+08
1.038275e+09
8.404042e+08
8.77012e+08
9.382787e+08
1.037986e+09
7.780956e+08
8.054444e+08
8.506432e+08
9.237399e+08
1.045216e+09
7.230851e+08
7.441524e+08
7.786551e+08
8.326485e+08
9.176542e+08
0
6.750308e+08
6.916656e+08
7.190571e+08
7.609935e+08
8.241107e+08
0
0
6.330981e+08
6.46575e+08
6.689523e+08
7.029384e+08
7.526482e+08
0
0
0
5.963564e+08
6.074958e+08
6.262522e+08
6.546087e+08
6.95488e+08
0
0
0
0
5.638618e+08
5.732439e+08
5.892727e+08
6.135106e+08
6.480973e+08
0
0
0
0
0
5.347124e+08
5.427331e+08
5.56662e+08
5.777469e+08
6.076697e+08
0
0
0
0
0
0
5.079712e+08
5.149261e+08
5.271831e+08
5.457851e+08
5.720739e+08
0
0
0
0
0
0
0
4.826573e+08
4.88767e+08
4.996662e+08
5.162339e+08
5.395858e+08
0
0
0
0
0
0
0
0
4.581472e+08
4.635523e+08
4.733238e+08
4.8819e+08
5.090821e+08
0
0
0
0
0
0
0
0
0
4.348893e+08
4.397284e+08
4.485514e+08
4.620045e+08
4.808662e+08
0
0
0
0
0
0
0
0
0
0
4.134741e+08
4.178634e+08
4.259073e+08
4.38177e+08
4.553638e+08
0
0
0
0
0
0
0
0
0
0
3.941283e+08
3.981492e+08
4.055533e+08
4.168414e+08
4.326268e+08
0
0
0
0
0
0
0
0
0
0
3.768456e+08
3.805419e+08
3.874064e+08
3.978763e+08
4.124915e+08
0
0
0
0
0
0
0
0
0
0
1.07437e+09
9.80709e+08
1.032258e+09
8.986284e+08
9.445859e+08
1.011951e+09
8.321009e+08
8.666804e+08
9.238248e+08
1.011358e+09
7.747359e+08
8.012138e+08
8.449069e+08
9.148814e+08
1.026607e+09
7.224781e+08
7.432071e+08
7.771864e+08
8.30269e+08
9.133188e+08
0
6.753319e+08
6.91843e+08
7.190586e+08
7.607215e+08
8.233503e+08
0
0
6.334115e+08
6.468519e+08
6.69181e+08
7.030975e+08
7.526957e+08
0
0
0
5.963564e+08
6.074958e+08
6.262522e+08
6.546087e+08
6.95488e+08
0
0
0
0
5.635377e+08
5.729361e+08
5.889844e+08
6.132482e+08
6.478729e+08
0
0
0
0
0
5.342665e+08
5.423122e+08
5.562719e+08
5.773984e+08
6.073819e+08
0
0
0
0
0
0
5.0781e+08
5.147939e+08
5.270945e+08
5.457601e+08
5.721431e+08
0
0
0
0
0
0
0
4.833637e+08
4.895103e+08
5.004719e+08
5.171404e+08
5.406462e+08
0
0
0
0
0
0
0
0
4.600935e+08
4.655407e+08
4.753981e+08
4.904058e+08
5.115166e+08
0
0
0
0
0
0
0
0
0
4.374239e+08
4.422952e+08
4.511969e+08
4.647861e+08
4.838551e+08
0
0
0
0
0
0
0
0
0
0
4.157911e+08
4.201985e+08
4.282982e+08
4.406693e+08
4.580131e+08
0
0
0
0
0
0
0
0
0
0
3.957856e+08
3.998168e+08
4.07254e+08
4.18605e+08
4.344891e+08
0
0
0
0
0
0
0
0
0
0
3.776723e+08
3.81374e+08
3.882556e+08
3.987557e+08
4.134179e+08
0
0
0
0
0
0
0
0
0
0
3.614524e+08
3.648729e+08
3.712672e+08
3.810449e+08
3.946817e+08
0
0
0
0
0
0
0
0
0
0
1.066157e+09
9.705601e+08
1.017419e+09
8.880422e+08
9.312303e+08
9.91282e+08
8.225891e+08
8.553126e+08
9.087316e+08
9.85931e+08
7.682394e+08
7.935396e+08
8.351702e+08
9.009176e+08
9.999963e+08
7.199261e+08
7.401056e+08
7.732075e+08
8.247502e+08
9.045521e+08
0
6.75003e+08
6.912924e+08
7.181784e+08
7.593179e+08
8.210124e+08
0
0
6.33785e+08
6.471428e+08
6.693584e+08
7.031069e+08
7.52434e+08
0
0
0
5.966793e+08
6.07794e+08
6.265196e+08
6.548334e+08
6.956476e+08
0
0
0
0
5.635377e+08
5.729361e+08
5.889844e+08
6.132482e+08
6.478729e+08
0
0
0
0
0
5.339463e+08
5.420026e+08
5.559742e+08
5.771155e+08
6.071201e+08
0
0
0
0
0
0
5.073659e+08
5.143645e+08
5.266839e+08
5.45374e+08
5.717926e+08
0
0
0
0
0
0
0
4.831796e+08
4.893448e+08
5.003326e+08
5.170425e+08
5.406104e+08
0
0
0
0
0
0
0
0
4.607215e+08
4.661928e+08
4.76095e+08
4.911747e+08
5.123986e+08
0
0
0
0
0
0
0
0
0
4.392248e+08
4.441246e+08
4.530922e+08
4.667948e+08
4.86037e+08
0
0
0
0
0
0
0
0
0
0
4.181657e+08
4.225935e+08
4.307559e+08
4.432398e+08
4.607586e+08
0
0
0
0
0
0
0
0
0
0
3.979677e+08
4.020124e+08
4.094947e+08
4.209313e+08
4.369502e+08
0
0
0
0
0
0
0
0
0
0
3.792389e+08
3.829476e+08
3.898581e+08
4.00412e+08
4.151599e+08
0
0
0
0
0
0
0
0
0
0
3.622342e+08
3.656589e+08
3.720678e+08
3.818725e+08
3.955505e+08
0
0
0
0
0
0
0
0
0
0
3.469828e+08
3.501548e+08
3.561324e+08
3.65282e+08
3.780481e+08
0
0
0
0
0
0
0
0
0
0
9.653129e+08
1.009918e+09
8.80527e+08
9.219193e+08
9.773781e+08
8.142335e+08
8.45557e+08
8.961827e+08
9.660051e+08
7.605352e+08
7.847428e+08
8.244578e+08
8.86358e+08
9.747135e+08
7.14654e+08
7.340848e+08
7.659621e+08
8.153504e+08
8.907053e+08
0
6.730063e+08
6.889342e+08
7.152597e+08
7.554935e+08
8.155779e+08
0
0
6.336417e+08
6.468508e+08
6.688507e+08
7.022707e+08
7.510637e+08
0
0
0
5.970947e+08
6.081535e+08
6.268052e+08
6.55013e+08
6.956643e+08
0
0
0
0
5.638618e+08
5.732439e+08
5.892727e+08
6.135106e+08
6.480973e+08
0
0
0
0
0
5.339463e+08
5.420026e+08
5.559742e+08
5.771155e+08
6.071201e+08
0
0
0
0
0
0
5.070536e+08
5.140582e+08
5.26384e+08
5.450818e+08
5.715108e+08
0
0
0
0
0
0
0
4.827429e+08
4.889167e+08
4.999136e+08
5.166365e+08
5.402232e+08
0
0
0
0
0
0
0
0
4.60524e+08
4.660061e+08
4.759244e+08
4.910282e+08
5.122916e+08
0
0
0
0
0
0
0
0
0
4.397903e+08
4.447045e+08
4.537035e+08
4.674594e+08
4.867844e+08
0
0
0
0
0
0
0
0
0
0
4.198451e+08
4.242885e+08
4.325014e+08
4.450762e+08
4.627369e+08
0
0
0
0
0
0
0
0
0
0
0
4.001998e+08
4.042594e+08
4.117903e+08
4.23321e+08
4.394881e+08
0
0
0
0
0
0
0
0
0
0
3.813005e+08
3.850181e+08
3.919672e+08
4.025935e+08
4.174579e+08
0
0
0
0
0
0
0
0
0
0
3.637186e+08
3.671482e+08
3.735814e+08
3.834341e+08
3.97187e+08
0
0
0
0
0
0
0
0
0
0
3.47724e+08
3.508989e+08
3.568892e+08
3.660626e+08
3.78866e+08
0
0
0
0
0
0
0
0
0
0
3.333372e+08
3.363047e+08
3.419037e+08
3.504914e+08
3.624659e+08
0
0
0
0
0
0
0
0
0
0
8.765974e+08
9.171005e+08
9.703466e+08
8.082214e+08
8.386292e+08
8.874342e+08
9.526134e+08
7.536367e+08
7.770126e+08
8.152663e+08
8.742663e+08
9.549672e+08
7.082091e+08
7.269376e+08
7.57654e+08
8.05016e+08
8.763025e+08
0
6.686059e+08
6.840375e+08
7.095672e+08
7.484994e+08
8.06289e+08
0
0
6.320404e+08
6.45005e+08
6.666316e+08
6.99468e+08
7.47309e+08
0
0
0
5.970772e+08
6.080346e+08
6.265424e+08
6.545363e+08
6.948542e+08
0
0
0
0
5.642992e+08
5.736435e+08
5.89624e+08
6.137952e+08
6.482819e+08
0
0
0
0
0
5.342665e+08
5.423122e+08
5.562719e+08
5.773984e+08
6.073819e+08
0
0
0
0
0
0
5.070536e+08
5.140582e+08
5.26384e+08
5.450818e+08
5.715108e+08
0
0
0
0
0
0
0
4.824404e+08
4.886175e+08
4.996166e+08
5.16342e+08
5.399321e+08
0
0
0
0
0
0
0
0
4.600985e+08
4.655848e+08
4.755066e+08
4.906141e+08
5.11885e+08
0
0
0
0
0
0
0
0
0
4.395866e+08
4.445055e+08
4.53513e+08
4.67283e+08
4.866303e+08
0
0
0
0
0
0
0
0
0
0
4.203628e+08
4.248109e+08
4.330449e+08
4.456589e+08
4.633824e+08
0
0
0
0
0
0
0
0
0
0
0
4.017726e+08
4.058423e+08
4.134092e+08
4.250132e+08
4.412972e+08
0
0
0
0
0
0
0
0
0
0
0
0
3.834067e+08
3.871331e+08
3.941232e+08
4.048271e+08
4.19818e+08
0
0
0
0
0
0
0
0
0
0
3.656713e+08
3.691068e+08
3.755722e+08
3.854889e+08
3.993426e+08
0
0
0
0
0
0
0
0
0
0
3.491343e+08
3.523116e+08
3.583231e+08
3.675386e+08
3.804095e+08
0
0
0
0
0
0
0
0
0
0
3.340417e+08
3.370109e+08
3.426208e+08
3.512298e+08
3.632376e+08
0
0
0
0
0
0
0
0
0
0
3.204539e+08
3.232294e+08
3.285033e+08
3.365784e+08
3.478406e+08
0
0
0
0
0
0
0
0
0
0
8.05055e+08
8.350032e+08
8.829039e+08
9.458423e+08
7.486202e+08
7.714488e+08
8.087392e+08
8.658411e+08
9.417201e+08
7.023448e+08
7.205349e+08
7.503535e+08
7.961553e+08
8.643633e+08
0
6.630812e+08
6.78043e+08
7.028044e+08
7.404801e+08
7.960886e+08
0
0
6.282853e+08
6.409106e+08
6.619963e+08
6.939721e+08
7.404096e+08
0
0
0
5.957653e+08
6.065545e+08
6.248062e+08
6.524074e+08
6.921085e+08
0
0
0
0
5.643672e+08
5.736422e+08
5.895253e+08
6.135546e+08
6.478257e+08
0
0
0
0
0
5.347124e+08
5.427331e+08
5.56662e+08
5.777469e+08
6.076697e+08
0
0
0
0
0
0
5.073659e+08
5.143645e+08
5.266839e+08
5.45374e+08
5.717926e+08
0
0
0
0
0
0
0
4.824404e+08
4.886175e+08
4.996166e+08
5.16342e+08
5.399321e+08
0
0
0
0
0
0
0
0
4.598071e+08
4.652946e+08
4.752162e+08
4.903223e+08
5.115919e+08
0
0
0
0
0
0
0
0
0
4.391749e+08
4.440947e+08
4.531017e+08
4.668703e+08
4.86216e+08
0
0
0
0
0
0
0
0
0
0
4.2016e+08
4.246066e+08
4.328433e+08
4.454638e+08
4.631995e+08
0
0
0
0
0
0
0
0
0
0
0
4.022507e+08
4.063211e+08
4.13899e+08
4.255312e+08
4.418628e+08
0
0
0
0
0
0
0
0
0
0
0
0
3.848874e+08
3.886175e+08
3.956365e+08
4.063975e+08
4.214854e+08
0
0
0
0
0
0
0
0
0
0
0
0
0
3.676644e+08
3.711051e+08
3.776035e+08
3.87588e+08
4.015492e+08
0
0
0
0
0
0
0
0
0
0
3.509893e+08
3.54169e+08
3.602081e+08
3.694794e+08
3.824405e+08
0
0
0
0
0
0
0
0
0
0
3.353849e+08
3.383547e+08
3.439822e+08
3.526288e+08
3.646968e+08
0
0
0
0
0
0
0
0
0
0
3.211243e+08
3.239012e+08
3.291843e+08
3.372783e+08
3.485708e+08
0
0
0
0
0
0
0
0
0
0
3.082707e+08
3.10872e+08
3.158423e+08
3.234682e+08
3.340795e+08
0
0
0
0
0
0
0
0
0
0
7.459655e+08
7.685158e+08
8.05321e+08
8.61478e+08
9.350283e+08
6.980437e+08
7.158776e+08
7.450989e+08
7.898653e+08
8.560526e+08
0
6.579856e+08
6.725852e+08
6.967451e+08
7.334365e+08
7.873532e+08
0
0
6.234595e+08
6.357603e+08
6.563147e+08
6.874399e+08
7.325018e+08
0
0
0
5.925021e+08
6.030548e+08
6.209262e+08
6.479311e+08
6.866923e+08
0
0
0
0
5.632724e+08
5.7243e+08
5.88134e+08
6.118908e+08
6.457437e+08
0
0
0
0
0
5.348377e+08
5.428118e+08
5.566748e+08
5.776645e+08
6.074454e+08
0
0
0
0
0
0
5.0781e+08
5.147939e+08
5.270945e+08
5.457601e+08
5.721431e+08
0
0
0
0
0
0
0
4.827429e+08
4.889167e+08
4.999136e+08
5.166365e+08
5.402232e+08
0
0
0
0
0
0
0
0
4.598071e+08
4.652946e+08
4.752162e+08
4.903223e+08
5.115919e+08
0
0
0
0
0
0
0
0
0
4.388951e+08
4.438147e+08
4.528199e+08
4.665849e+08
4.859255e+08
0
0
0
0
0
0
0
0
0
0
4.197648e+08
4.242087e+08
4.32442e+08
4.450574e+08
4.627867e+08
0
0
0
0
0
0
0
0
0
0
0
4.020517e+08
4.061182e+08
4.136927e+08
4.253258e+08
4.41662e+08
0
0
0
0
0
0
0
0
0
0
0
0
3.853339e+08
3.890602e+08
3.960858e+08
4.068644e+08
4.219881e+08
0
0
0
0
0
0
0
0
0
0
0
0
0
3.690637e+08
3.725044e+08
3.790241e+08
3.890571e+08
4.030971e+08
0
0
0
0
0
0
0
0
0
0
0
0
0
0
3.528813e+08
3.560622e+08
3.621291e+08
3.714584e+08
3.845148e+08
0
0
0
0
0
0
0
0
0
0
3.37152e+08
3.401211e+08
3.457713e+08
3.544675e+08
3.666157e+08
0
0
0
0
0
0
0
0
0
0
3.224056e+08
3.251824e+08
3.304803e+08
3.386074e+08
3.499543e+08
0
0
0
0
0
0
0
0
0
0
3.089101e+08
3.11512e+08
3.164907e+08
3.241334e+08
3.347718e+08
0
0
0
0
0
0
0
0
0
0
2.967329e+08
2.99175e+08
3.038673e+08
3.110749e+08
3.211089e+08
0
0
0
0
0
0
0
0
0
0
6.957599e+08
7.134105e+08
7.423271e+08
7.865706e+08
8.517509e+08
0
6.542218e+08
6.685808e+08
6.923372e+08
7.28368e+08
7.811564e+08
0
0
6.18957e+08
6.310064e+08
6.511401e+08
6.815885e+08
7.255617e+08
0
0
0
5.882223e+08
5.985468e+08
6.160374e+08
6.424391e+08
6.802533e+08
0
0
0
0
5.603946e+08
5.693842e+08
5.848143e+08
6.081427e+08
6.413347e+08
0
0
0
0
0
5.339073e+08
5.418006e+08
5.555362e+08
5.763326e+08
6.058207e+08
0
0
0
0
0
0
5.079712e+08
5.149261e+08
5.271831e+08
5.457851e+08
5.720739e+08
0
0
0
0
0
0
0
4.831796e+08
4.893448e+08
5.003326e+08
5.170425e+08
5.406104e+08
0
0
0
0
0
0
0
0
4.600985e+08
4.655848e+08
4.755066e+08
4.906141e+08
5.11885e+08
0
0
0
0
0
0
0
0
0
4.388951e+08
4.438147e+08
4.528199e+08
4.665849e+08
4.859255e+08
0
0
0
0
0
0
0
0
0
0
4.194975e+08
4.239397e+08
4.321699e+08
4.447803e+08
4.625027e+08
0
0
0
0
0
0
0
0
0
0
0
4.016737e+08
4.05736e+08
4.133039e+08
4.249293e+08
4.412558e+08
0
0
0
0
0
0
0
0
0
0
0
0
3.851416e+08
3.888614e+08
3.958814e+08
4.066549e+08
4.217776e+08
0
0
0
0
0
0
0
0
0
0
0
0
0
3.694839e+08
3.729185e+08
3.7944e+08
3.894855e+08
4.0355e+08
0
0
0
0
0
0
0
0
0
0
0
0
0
0
3.542089e+08
3.573863e+08
3.634697e+08
3.728383e+08
3.859632e+08
0
0
0
0
0
0
0
0
0
0
0
0
0
0
0
3.38955e+08
3.419204e+08
3.47593e+08
3.563402e+08
3.685718e+08
0
0
0
0
0
0
0
0
0
0
3.240916e+08
3.268671e+08
3.321833e+08
3.403536e+08
3.517728e+08
0
0
0
0
0
0
0
0
0
0
3.101346e+08
3.127354e+08
3.177273e+08
3.253993e+08
3.360864e+08
0
0
0
0
0
0
0
0
0
0
2.973435e+08
2.997858e+08
3.044855e+08
3.117085e+08
3.21767e+08
0
0
0
0
0
0
0
0
0
0
2.857905e+08
2.880872e+08
2.925241e+08
2.993473e+08
3.088445e+08
0
0
0
0
0
0
0
0
0
0
6.522188e+08
6.664525e+08
6.900007e+08
7.256937e+08
7.779112e+08
0
0
6.156115e+08
6.274933e+08
6.473429e+08
6.773324e+08
7.2057e+08
0
0
0
5.841901e+08
5.943369e+08
6.115226e+08
6.374374e+08
6.744884e+08
0
0
0
0
5.565537e+08
5.653786e+08
5.805292e+08
6.034135e+08
6.359215e+08
0
0
0
0
0
5.31336e+08
5.391108e+08
5.526442e+08
5.731245e+08
6.021301e+08
0
0
0
0
0
0
5.07166e+08
5.140671e+08
5.262341e+08
5.446963e+08
5.707751e+08
0
0
0
0
0
0
0
4.833637e+08
4.895103e+08
5.004719e+08
5.171404e+08
5.406462e+08
0
0
0
0
0
0
0
0
4.60524e+08
4.660061e+08
4.759244e+08
4.910282e+08
5.122916e+08
0
0
0
0
0
0
0
0
0
4.391749e+08
4.440947e+08
4.531017e+08
4.668703e+08
4.86216e+08
0
0
0
0
0
0
0
0
0
0
4.194975e+08
4.239397e+08
4.321699e+08
4.447803e+08
4.625027e+08
0
0
0
0
0
0
0
0
0
0
0
4.01419e+08
4.054788e+08
4.130422e+08
4.246616e+08
4.4098e+08
0
0
0
0
0
0
0
0
0
0
0
0
3.847814e+08
3.884956e+08
3.955077e+08
4.062707e+08
4.213814e+08
0
0
0
0
0
0
0
0
0
0
0
0
0
3.692998e+08
3.727267e+08
3.792401e+08
3.892784e+08
4.033361e+08
0
0
0
0
0
0
0
0
0
0
0
0
0
0
3.546076e+08
3.577768e+08
3.638591e+08
3.732351e+08
3.863789e+08
0
0
0
0
0
0
0
0
0
0
0
0
0
0
0
3.402219e+08
3.431783e+08
3.488628e+08
3.576432e+08
3.699327e+08
0
0
0
0
0
0
0
0
0
0
0
0
0
0
0
0
3.258121e+08
3.285837e+08
3.339161e+08
3.421305e+08
3.536243e+08
0
0
0
0
0
0
0
0
0
0
3.117465e+08
3.143442e+08
3.193527e+08
3.270623e+08
3.378139e+08
0
0
0
0
0
0
0
0
0
0
2.985158e+08
3.009561e+08
3.056672e+08
3.12917e+08
3.230195e+08
0
0
0
0
0
0
0
0
0
0
2.863747e+08
2.886712e+08
2.931144e+08
2.999515e+08
3.094714e+08
0
0
0
0
0
0
0
0
0
0
2.753906e+08
2.775625e+08
2.817642e+08
2.882329e+08
2.972359e+08
0
0
0
0
0
0
0
0
0
0
6.138288e+08
6.256222e+08
6.453234e+08
6.750757e+08
7.179366e+08
0
0
0
5.811797e+08
5.912071e+08
6.081855e+08
6.337673e+08
6.702967e+08
0
0
0
0
5.52905e+08
5.616007e+08
5.765247e+08
5.990456e+08
6.309932e+08
0
0
0
0
0
5.278525e+08
5.355095e+08
5.488315e+08
5.689762e+08
5.974683e+08
0
0
0
0
0
0
5.04842e+08
5.116604e+08
5.236778e+08
5.419004e+08
5.676166e+08
0
0
0
0
0
0
0
4.826573e+08
4.88767e+08
4.996662e+08
5.162339e+08
5.395858e+08
0
0
0
0
0
0
0
0
4.607215e+08
4.661928e+08
4.76095e+08
4.911747e+08
5.123986e+08
0
0
0
0
0
0
0
0
0
4.395866e+08
4.445055e+08
4.53513e+08
4.67283e+08
4.866302e+08
0
0
0
0
0
0
0
0
0
0
4.197648e+08
4.242088e+08
4.32442e+08
4.450574e+08
4.627867e+08
0
0
0
0
0
0
0
0
0
0
0
4.01419e+08
4.054788e+08
4.130422e+08
4.246616e+08
4.4098e+08
0
0
0
0
0
0
0
0
0
0
0
0
3.845392e+08
3.882503e+08
3.952573e+08
4.060132e+08
4.21115e+08
0
0
0
0
0
0
0
0
0
0
0
0
0
3.689572e+08
3.723779e+08
3.788823e+08
3.88909e+08
4.029522e+08
0
0
0
0
0
0
0
0
0
0
0
0
0
0
3.54433e+08
3.575932e+08
3.636664e+08
3.730328e+08
3.861677e+08
0
0
0
0
0
0
0
0
0
0
0
0
0
0
0
3.406056e+08
3.435494e+08
3.492304e+08
3.580151e+08
3.703178e+08
0
0
0
0
0
0
0
0
0
0
0
0
0
0
0
0
3.270228e+08
3.297856e+08
3.351236e+08
3.433655e+08
3.549098e+08
0
0
0
0
0
0
0
0
0
0
0
0
0
0
0
0
0
3.133923e+08
3.159842e+08
3.210074e+08
3.287534e+08
3.395712e+08
0
0
0
0
0
0
0
0
0
0
3.000596e+08
3.024958e+08
3.072207e+08
3.145052e+08
3.246651e+08
0
0
0
0
0
0
0
0
0
0
2.874988e+08
2.897925e+08
2.942457e+08
3.011069e+08
3.106675e+08
0
0
0
0
0
0
0
0
0
0
2.759507e+08
2.781216e+08
2.823289e+08
2.888102e+08
2.97834e+08
0
0
0
0
0
0
0
0
0
0
2.654976e+08
2.675508e+08
2.715438e+08
2.776853e+08
2.862318e+08
0
0
0
0
0
0
0
0
0
0
5.795747e+08
5.89538e+08
6.06407e+08
6.318148e+08
6.680743e+08
0
0
0
0
5.501699e+08
5.587786e+08
5.735469e+08
5.95817e+08
6.273779e+08
0
0
0
0
0
5.245202e+08
5.320843e+08
5.452328e+08
5.650985e+08
5.931634e+08
0
0
0
0
0
0
5.016545e+08
5.083886e+08
5.202455e+08
5.382066e+08
5.635266e+08
0
0
0
0
0
0
0
4.805389e+08
4.865886e+08
4.973766e+08
5.137612e+08
5.368332e+08
0
0
0
0
0
0
0
0
4.600935e+08
4.655407e+08
4.753982e+08
4.904058e+08
5.115166e+08
0
0
0
0
0
0
0
0
0
4.397903e+08
4.447044e+08
4.537035e+08
4.674594e+08
4.867844e+08
0
0
0
0
0
0
0
0
0
0
4.2016e+08
4.246066e+08
4.328433e+08
4.454638e+08
4.631995e+08
0
0
0
0
0
0
0
0
0
0
0
4.016737e+08
4.05736e+08
4.133039e+08
4.249293e+08
4.412558e+08
0
0
0
0
0
0
0
0
0
0
0
0
3.845392e+08
3.882503e+08
3.952573e+08
4.060132e+08
4.211149e+08
0
0
0
0
0
0
0
0
0
0
0
0
0
3.687271e+08
3.721444e+08
3.786433e+08
3.886625e+08
4.026959e+08
0
0
0
0
0
0
0
0
0
0
0
0
0
0
3.541079e+08
3.572613e+08
3.633251e+08
3.726791e+08
3.857987e+08
0
0
0
0
0
0
0
0
0
0
0
0
0
0
0
3.404436e+08
3.433754e+08
3.490462e+08
3.578203e+08
3.701118e+08
0
0
0
0
0
0
0
0
0
0
0
0
0
0
0
0
3.27393e+08
3.301437e+08
3.354736e+08
3.43717e+08
3.552709e+08
0
0
0
0
0
0
0
0
0
0
0
0
0
0
0
0
0
3.14553e+08
3.171343e+08
3.221623e+08
3.299286e+08
3.407899e+08
0
0
0
0
0
0
0
0
0
0
0
0
0
0
0
0
0
0
3.016374e+08
3.040662e+08
3.088027e+08
3.161209e+08
3.26338e+08
0
0
0
0
0
0
0
0
0
0
2.8898e+08
2.912687e+08
2.957335e+08
3.026256e+08
3.122393e+08
0
0
0
0
0
0
0
0
0
0
2.770308e+08
2.791977e+08
2.834135e+08
2.899168e+08
2.989777e+08
0
0
0
0
0
0
0
0
0
0
2.660348e+08
2.680871e+08
2.720847e+08
2.782377e+08
2.868033e+08
0
0
0
0
0
0
0
0
0
0
2.560821e+08
2.580191e+08
2.618152e+08
2.67662e+08
2.757864e+08
0
0
0
0
0
0
0
0
0
0
5.487116e+08
5.572728e+08
5.719579e+08
5.940957e+08
6.254545e+08
0
0
0
0
0
5.22014e+08
5.295154e+08
5.425436e+08
5.622148e+08
5.899821e+08
0
0
0
0
0
0
4.985882e+08
5.052549e+08
5.169784e+08
5.347187e+08
5.597039e+08
0
0
0
0
0
0
0
4.776033e+08
4.8359e+08
4.942547e+08
5.104335e+08
5.331904e+08
0
0
0
0
0
0
0
0
4.581472e+08
4.635523e+08
4.733238e+08
4.8819e+08
5.090821e+08
0
0
0
0
0
0
0
0
0
4.392249e+08
4.441246e+08
4.530922e+08
4.667948e+08
4.86037e+08
0
0
0
0
0
0
0
0
0
0
4.203629e+08
4.248109e+08
4.330449e+08
4.456589e+08
4.633824e+08
0
0
0
0
0
0
0
0
0
0
0
4.020517e+08
4.061182e+08
4.136927e+08
4.253258e+08
4.41662e+08
0
0
0
0
0
0
0
0
0
0
0
0
3.847814e+08
3.884956e+08
3.955077e+08
4.062707e+08
4.213814e+08
0
0
0
0
0
0
0
0
0
0
0
0
0
3.687271e+08
3.721444e+08
3.786433e+08
3.886626e+08
4.026959e+08
0
0
0
0
0
0
0
0
0
0
0
0
0
0
3.538895e+08
3.570393e+08
3.630975e+08
3.724437e+08
3.855534e+08
0
0
0
0
0
0
0
0
0
0
0
0
0
0
0
3.401372e+08
3.430603e+08
3.487213e+08
3.574828e+08
3.697585e+08
0
0
0
0
0
0
0
0
0
0
0
0
0
0
0
0
3.272427e+08
3.299823e+08
3.35299e+08
3.435308e+08
3.550727e+08
0
0
0
0
0
0
0
0
0
0
0
0
0
0
0
0
0
3.14912e+08
3.174805e+08
3.225008e+08
3.302637e+08
3.411314e+08
0
0
0
0
0
0
0
0
0
0
0
0
0
0
0
0
0
0
3.027533e+08
3.051701e+08
3.099089e+08
3.172457e+08
3.27498e+08
0
0
0
0
0
0
0
0
0
0
0
0
0
0
0
0
0
0
0
2.904953e+08
2.927756e+08
2.972496e+08
3.041713e+08
3.138381e+08
0
0
0
0
0
0
0
0
0
0
2.784552e+08
2.806152e+08
2.84841e+08
2.91372e+08
3.004811e+08
0
0
0
0
0
0
0
0
0
0
2.670734e+08
2.691221e+08
2.731264e+08
2.792992e+08
2.878989e+08
0
0
0
0
0
0
0
0
0
0
2.565981e+08
2.585339e+08
2.623345e+08
2.681914e+08
2.763334e+08
0
0
0
0
0
0
0
0
0
0
2.471142e+08
2.489403e+08
2.525471e+08
2.581169e+08
2.65858e+08
0
0
0
0
0
0
0
0
0
0
5.206783e+08
5.281446e+08
5.411079e+08
5.606754e+08
5.88286e+08
0
0
0
0
0
0
4.96276e+08
5.028965e+08
5.145269e+08
5.321122e+08
5.568614e+08
0
0
0
0
0
0
0
4.747658e+08
4.807015e+08
4.912615e+08
5.072644e+08
5.297509e+08
0
0
0
0
0
0
0
0
4.55427e+08
4.607863e+08
4.70459e+08
4.851609e+08
5.057995e+08
0
0
0
0
0
0
0
0
0
4.37424e+08
4.422952e+08
4.511969e+08
4.647861e+08
4.838551e+08
0
0
0
0
0
0
0
0
0
0
4.198452e+08
4.242885e+08
4.325014e+08
4.450762e+08
4.627369e+08
0
0
0
0
0
0
0
0
0
0
0
4.022507e+08
4.063212e+08
4.13899e+08
4.255312e+08
4.418628e+08
0
0
0
0
0
0
0
0
0
0
0
0
3.851416e+08
3.888614e+08
3.958814e+08
4.06655e+08
4.217776e+08
0
0
0
0
0
0
0
0
0
0
0
0
0
3.689573e+08
3.723779e+08
3.788823e+08
3.889091e+08
4.029522e+08
0
0
0
0
0
0
0
0
0
0
0
0
0
0
3.538895e+08
3.570393e+08
3.630975e+08
3.724437e+08
3.855534e+08
0
0
0
0
0
0
0
0
0
0
0
0
0
0
0
3.399308e+08
3.428494e+08
3.485047e+08
3.572586e+08
3.695242e+08
0
0
0
0
0
0
0
0
0
0
0
0
0
0
0
0
3.269536e+08
3.296851e+08
3.349904e+08
3.432095e+08
3.547357e+08
0
0
0
0
0
0
0
0
0
0
0
0
0
0
0
0
0
3.147737e+08
3.173307e+08
3.223388e+08
3.300873e+08
3.409421e+08
0
0
0
0
0
0
0
0
0
0
0
0
0
0
0
0
0
0
3.03104e+08
3.055067e+08
3.102368e+08
3.175702e+08
3.278238e+08
0
0
0
0
0
0
0
0
0
0
0
0
0
0
0
0
0
0
0
2.915707e+08
2.938383e+08
2.983124e+08
3.052493e+08
3.149488e+08
0
0
0
0
0
0
0
0
0
0
0
0
0
0
0
0
0
0
0
0
2.799146e+08
2.82064e+08
2.86297e+08
2.92854e+08
3.020109e+08
0
0
0
0
0
0
0
0
0
0
2.684442e+08
2.704866e+08
2.74498e+08
2.806959e+08
2.893398e+08
0
0
0
0
0
0
0
0
0
0
2.57598e+08
2.595299e+08
2.633369e+08
2.692112e+08
2.773846e+08
0
0
0
0
0
0
0
0
0
0
2.476105e+08
2.494352e+08
2.530458e+08
2.586253e+08
2.663823e+08
0
0
0
0
0
0
0
0
0
0
2.385595e+08
2.402865e+08
2.437142e+08
2.490197e+08
2.564013e+08
0
0
0
0
0
0
0
0
0
0
4.950446e+08
5.016388e+08
5.132181e+08
5.307201e+08
5.553441e+08
0
0
0
0
0
0
0
4.726213e+08
4.78522e+08
4.890081e+08
5.048862e+08
5.271807e+08
0
0
0
0
0
0
0
0
4.527873e+08
4.581091e+08
4.676967e+08
4.822552e+08
5.026732e+08
0
0
0
0
0
0
0
0
0
4.348894e+08
4.397284e+08
4.485514e+08
4.620045e+08
4.808662e+08
0
0
0
0
0
0
0
0
0
0
4.181657e+08
4.225935e+08
4.307559e+08
4.432398e+08
4.607586e+08
0
0
0
0
0
0
0
0
0
0
4.017726e+08