/*--------------------------------*- C++ -*----------------------------------*\
| =========                 |                                                 |
| \\      /  F ield         | OpenFOAM: The Open Source CFD Toolbox           |
|  \\    /   O peration     | Version:  2306                                  |
|   \\  /    A nd           | Website:  www.openfoam.com                      |
|    \\/     M anipulation  |                                                 |
\*---------------------------------------------------------------------------*/
FoamFile
{
    version     2.0;
    format      ascii;
    arch        "LSB;label=32;scalar=64";
    class       volScalarField;
    location    "0.3/fuel";
    object      p_rgh;
}
// * * * * * * * * * * * * * * * * * * * * * * * * * * * * * * * * * * * * * //

dimensions      [1 -1 -2 0 0 0 0];

internalField   nonuniform List<scalar> 
16000
(
100491.1
100485.1
100407
100474.9
100474.2
100400.9
100468.6
100339.8
100393.6
100439.7
100454.9
100389.7
100457.2
100334.4
100387.4
100432.9
100289.4
100328.8
100364.6
100399
100436.8
100370.6
100437.2
100324.3
100375.9
100420.5
100284.7
100323.3
100358.1
100391.6
100251.6
100280.1
100304.7
100331
100314.8
100400.2
100351.1
100418.1
100307.4
100356.4
100398.8
100275.8
100313
100346
100378
100247.4
100275.3
100299
100324.1
100306.1
100222
100243.5
100259.7
100276.9
100261.2
100298.7
100393.2
100316.5
100380.4
100289.7
100336.3
100377.6
100261
100295.7
100325.5
100354.5
100239.5
100266.3
100288.3
100311.3
100289.9
100218.2
100239.3
100254.8
100270.9
100253.6
100289.8
100198.3
100214.9
100225.9
100236.1
100219.1
100247.9
100293.6
100387.5
100306.9
100372.6
100259.7
100301.1
100337.4
100245.4
100277.7
100304.3
100330.7
100226.5
100251.2
100270.4
100289.7
100262.6
100211.2
100231.3
100245.4
100259.7
100239.3
100273.1
100194.9
100211.1
100221.6
100231
100212.6
100240.2
100284.6
100178.9
100192.1
100199.5
100205.5
100187.1
100208
100243.7
100284.9
100386.4
100299.8
100366.3
100250.6
100291.2
100327.9
100219.6
100247.4
100267.8
100287.8
100212.7
100235.4
100251.7
100267.1
100233.7
100199.6
100218.1
100230
100241.1
100215.6
100245
100188.6
100204
100213.4
100221.3
100200.4
100225.6
100267.8
100175.8
100188.7
100195.6
100201
100181.6
100201.5
100235.9
100275.8
100162.6
100173.3
100178.4
100181.6
100163.2
100177.7
100204.5
100236.5
100277.7
100385.9
100297.5
100365
100243.9
100283.8
100320.6
100211.3
100238
100257
100276.4
100190.1
100209.3
100220.5
100229.2
100185.1
100187.3
100204.1
100213.6
100221.5
100190.2
100215.2
100178.2
100192.3
100199.8
100205.3
100180.4
100201.4
100239.4
100170.1
100182.3
100188.4
100192.6
100171.2
100189.1
100221.2
100258.7
100159.9
100170.2
100174.9
100177.7
100158.4
100172.2
100197.9
100228.7
100268.5
100148.9
100157.6
100161.1
100162.5
100144.5
100155.1
100174.8
100198.6
100230.6
100268.7
100385.9
100296.5
100364.3
100241.6
100281.4
100318.7
100205.4
100231.2
100249.1
100267.8
100182.7
100200.9
100210.6
100217.4
100169.5
100167.4
100181.3
100186.9
100189.3
100149.2
100165.5
100167.1
100179.9
100185.4
100188.3
100158.9
100175.6
100209.3
100160.7
100171.8
100176.4
100178.6
100154.1
100168.8
100196.9
100230
100154.7
100164.4
100168.4
100170.2
100149.4
100161.6
100185.5
100213.9
100251.2
100146.3
100154.8
100157.9
100159
100140.3
100150.3
100169.2
100191.9
100222.6
100259.4
100137
100144.3
100146.6
100146.9
100129.6
100137.4
100152.5
100169.8
100193.6
100223.2
100245.9
100386.4
100296.5
100364.3
100240.6
100280.3
100317.8
100203.2
100228.8
100246.4
100265.3
100177.4
100194.8
100203.5
100208.9
100158.5
100160.7
100173.8
100178.1
100178.8
100135.4
100149.1
100149.4
100159.8
100162.2
100160.9
100124.7
100134
100159.2
100150.7
100160.6
100163.6
100163.8
100135.9
100147
100170.9
100199.3
100146.1
100155
100157.7
100157.9
100134.7
100144.4
100165.1
100189.3
100222.1
100141.6
100149.6
100152
100152.3
100132.4
100141.2
100158.6
100179.4
100207.7
100241.8
100134.7
100141.7
100143.7
100143.7
100125.9
100133.2
100147.7
100164.1
100187
100215.1
100236.3
100126.7
100132.8
100134.3
100133.8
100117.3
100123.3
100135.2
100148.2
100165.6
100187.5
100204.3
100251.2
100387.5
100297.5
100365
100240.6
100280.3
100317.8
100202.2
100227.7
100245.2
100264.1
100175.4
100192.6
100200.9
100205.9
100154.6
100155.9
100168.5
100171.9
100171.4
100125.7
100137.6
100143.4
100153
100154.5
100151.8
100113
100119.7
100142.6
100134.7
100142.7
100143.2
100140.1
100107
100112.4
100129.1
100148.5
100137
100144.8
100146.2
100144.7
100118.8
100125.8
100143.1
100163
100191
100133.7
100140.9
100142.4
100141.3
100119.4
100126.3
100141.3
100158.8
100183
100212.3
100130.3
100136.9
100138.4
100137.6
100118.8
100125.2
100138.5
100153.5
100174.4
100200
100218
100124.5
100130.5
100131.7
100130.9
100114
100119.5
100130.9
100143.3
100159.9
100180.7
100196.1
100241.6
100117.6
100122.9
100123.7
100122.6
100107.1
100111.7
100121.3
100131.4
100144.6
100160.3
100171.9
100208.7
100242.5
100393.2
100299.8
100366.3
100241.6
100281.4
100318.7
100202.2
100227.7
100245.2
100264.1
100174.5
100191.6
100199.8
100204.6
100152.8
100154.1
100166.4
100169.6
100168.6
100122
100133.5
100139
100148.2
100149
100145.3
100104.8
100109.8
100130.9
100129.2
100136.6
100136.3
100132
100097.1
100100.5
100114.7
100131.5
100122.5
100128.7
100128.1
100123.9
100094.1
100096.8
100108.5
100120.8
100139.6
100125.4
100131.7
100132
100129.6
100105.6
100110.2
100122.7
100136.7
100156.4
100180.6
100123.1
100129.1
100129.6
100127.8
100107.3
100112.1
100123.6
100136
100153.6
100175
100187.5
100120.5
100126.1
100126.8
100125.4
100107.7
100112.4
100122.9
100134.1
100149.2
100168
100180.6
100223.5
100115.6
100120.7
100121.3
100120
100104.1
100108.3
100117.5
100127.1
100139.7
100154.6
100165
100200.6
100232.7
100109.6
100114.1
100114.4
100113
100098.4
100102
100109.9
100117.9
100128.2
100140.1
100147.1
100175.5
100201.5
100240.7
100400.2
100306.9
100372.6
100243.9
100283.8
100320.6
100203.2
100228.8
100246.4
100265.3
100174.5
100191.6
100199.8
100204.6
100152.8
100153.3
100165.5
100168.5
100167.4
100120.4
100131.6
100137.4
100146.4
100146.9
100142.9
100101.7
100106.1
100126.7
100125.3
100132.3
100131.3
100126.3
100090.1
100092.1
100104.7
100119.7
100117.5
100123.2
100121.9
100116.8
100085.4
100086.6
100096.4
100106.2
100122.3
100112.2
100117.2
100115.7
100111.1
100083.9
100085.3
100093.5
100101.8
100113.8
100128.4
100115.4
100120.6
100120.2
100117.2
100095
100098.1
100107.5
100117.3
100131.4
100148.1
100154.4
100113.8
100118.8
100118.8
100116.4
100097.4
100100.9
100109.8
100119.1
100131.6
100147.1
100155.1
100192.7
100111.9
100116.6
100116.8
100115
100098.4
100101.9
100110.4
100119
100130.4
100143.8
100152.1
100185.1
100214.2
100107.7
100112.1
100112.2
100110.6
100095.6
100098.9
100106.5
100114.1
100123.9
100135.1
100141.3
100168.7
100193.2
100230.8
100102.4
100106.3
100106.3
100104.7
100090.9
100093.7
100100.4
100106.9
100115.1
100124.2
100128.7
100150.2
100169.6
100200
100238.7
100436.8
100316.5
100380.4
100250.6
100291.2
100327.9
100205.4
100231.2
100249.1
100267.8
100175.4
100192.6
100200.9
100205.9
100154.6
100153.3
100165.5
100168.5
100167.4
100120.4
100131.6
100136.6
100145.5
100145.9
100141.8
100100.3
100104.4
100124.8
100123.8
100130.6
100129.5
100124.2
100087.4
100088.9
100100.9
100115.3
100113.9
100119.3
100117.4
100111.7
100079.4
100079.6
100088
100096.1
100110.2
100107.6
100112.1
100110.1
100104.7
100076.4
100076.5
100083.3
100089.6
100099.2
100110.7
100103.3
100107.3
100105.5
100100.6
100075.9
100076.3
100082.5
100087.9
100096.2
100105.1
100100.8
100106.7
100111.1
100110.2
100106.9
100086.3
100088.4
100095.7
100102.9
100112.8
100124.7
100127.4
100159.6
100105.7
100109.9
100109.4
100106.8
100089.1
100091.6
100098.8
100105.8
100115.3
100126.2
100130.8
100159.3
100182.1
100104.2
100108.3
100108.1
100106
100090.4
100093.2
100100.1
100107
100115.8
100125.8
100130.4
100155.7
100177.5
100212
100100.6
100104.4
100104.3
100102.4
100088.3
100091
100097.3
100103.5
100111.3
100119.9
100123.7
100144.4
100162.6
100191.6
100228.7
100095.9
100099.3
100099.1
100097.3
100084.3
100086.6
100092.3
100097.7
100104.4
100111.6
100114.2
100131.3
100145.2
100168.3
100198.4
100454.9
100351.1
100418.1
100259.7
100301.1
100337.4
100211.3
100238
100257
100276.4
100177.4
100194.8
100203.5
100208.9
100158.5
100154.1
100166.4
100169.6
100168.6
100122
100133.5
100136.6
100145.5
100145.9
100141.8
100100.3
100104.4
100124.8
100123.1
100129.8
100128.6
100123.2
100086.2
100087.5
100099.2
100113.3
100112.5
100117.8
100115.7
100109.8
100077.1
100076.8
100084.8
100092.3
100105.7
100104.3
100108.5
100106.1
100100.2
100071.1
100070.5
100076.2
100081.2
100088.9
100098.4
100099.1
100102.7
100100.4
100094.9
100069.2
100068.6
100073.7
100077.6
100083.9
100090.2
100081.9
100095.6
100098.9
100096.8
100091.9
100069.2
100069.2
100073.9
100077.7
100083.2
100089.1
100083.7
100102.3
100099.1
100102.8
100101.6
100098.1
100079.1
100080.4
100086.3
100091.7
100099
100107.2
100107.8
100131.5
100147.7
100098.5
100102.1
100101.3
100098.5
100082
100083.8
100089.7
100095.3
100102.5
100110.6
100112.4
100134.2
100150.7
100178.9
100097.4
100100.9
100100.4
100098.2
100083.6
100085.7
100091.5
100097.1
100104.1
100111.7
100114.2
100133.5
100149.5
100175.8
100209.8
100094.3
100097.6
100097.2
100095.2
100082
100084.1
100089.5
100094.6
100100.9
100107.8
100109.9
100126.3
100139.3
100161.3
100189.9
100090
100093
100092.6
100090.7
100078.5
100080.4
100085.3
100089.8
100095.4
100101.2
100102.7
100116.6
100127
100144.1
100167
100474.2
100370.6
100437.2
100289.7
100336.3
100377.6
100219.6
100247.4
100267.8
100287.8
100182.7
100200.9
100210.6
100217.4
100169.5
100155.9
100168.5
100171.9
100171.4
100125.7
100137.6
100137.4
100146.4
100146.9
100142.9
100101.7
100106.1
100126.7
100123.1
100129.8
100128.6
100123.2
100086.2
100087.5
100099.2
100113.3
100111.9
100117.1
100115
100108.9
100076
100075.6
100083.4
100090.6
100103.7
100103
100107.1
100104.6
100098.5
100069
100068.1
100073.5
100077.9
100085.1
100093.8
100096.1
100099.4
100096.7
100090.8
100064.5
100063.3
100067.6
100070.5
100075.4
100079.9
100068.9
100091.7
100094.7
100092.1
100086.7
100063.2
100062.4
100066.2
100068.9
100072.9
100076.8
100068.2
100084.7
100088.8
100091.6
100089.3
100084.5
100063.7
100063.3
100067
100069.7
100073.7
100077.4
100071.9
100084.8
100079.8
100092.4
100095.5
100094.1
100090.5
100072.9
100073.8
100078.5
100082.7
100088.3
100094.2
100093.1
100111.1
100122
100143.5
100092
100095.2
100094.2
100091.3
100075.8
100077.2
100082.2
100086.6
100092.4
100098.5
100098.8
100115.3
100127.3
100148.2
100175.3
100091.2
100094.3
100093.6
100091.3
100077.6
100079.3
100084.2
100088.8
100094.5
100100.5
100101.6
100116.9
100128.2
100148.1
100173.9
100088.5
100091.4
100090.9
100088.8
100076.3
100078
100082.7
100087
100092.3
100097.8
100098.9
100112.2
100121.9
100138.2
100159.9
100084.6
100087.4
100086.8
100084.9
100073.3
100074.9
100079.1
100083
100087.7
100092.5
100093.3
100104.8
100112.8
100126.1
100143
100485.1
100389.7
100457.2
100307.4
100356.4
100398.8
100245.4
100277.7
100304.3
100330.7
100190.1
100209.3
100220.5
100229.2
100185.1
100160.7
100173.8
100178.1
100178.8
100135.4
100149.1
100139
100148.2
100149
100145.3
100104.8
100109.8
100130.9
100123.8
100130.6
100129.5
100124.2
100087.4
100088.9
100100.9
100115.3
100111.9
100117.1
100115
100108.9
100076
100075.6
100083.4
100090.6
100103.7
100102.4
100106.5
100103.9
100097.7
100068.1
100067
100072.2
100076.5
100083.3
100091.7
100094.9
100098.2
100095.3
100089.2
100062.7
100061.3
100065.2
100067.8
100072.2
100076
100063.9
100088.9
100091.6
100088.8
100083
100059
100057.7
100060.8
100062.8
100065.7
100068.2
100057.6
100072.6
100085.2
100087.6
100085
100079.7
100058.2
100057.2
100060.2
100062
100064.9
100067
100059.2
100070.3
100064.6
100082.8
100085.1
100082.7
100078.1
100058.9
100058.3
100061.3
100063.4
100066.3
100068.7
100063
100072.7
100067.1
100064.3
100086.3
100089
100087.4
100083.9
100067.5
100068.1
100072.1
100075.4
100079.8
100084.1
100082.2
100095.8
100103.4
100118.7
100138.8
100086.2
100088.9
100087.8
100084.9
100070.5
100071.5
100075.7
100079.4
100084
100088.8
100088.1
100101.3
100109.5
100125.2
100145.3
100085.6
100088.3
100087.5
100085.2
100072.3
100073.6
100077.9
100081.7
100086.5
100091.3
100091.5
100103.9
100112.4
100127
100146.6
100083.2
100085.8
100085.2
100083.1
100071.3
100072.7
100076.8
100080.4
100084.9
100089.4
100089.8
100100.9
100108.3
100121
100137
100079.7
100082.2
100081.5
100079.6
100068.7
100070
100073.7
100077.1
100081.1
100085.1
100085.4
100095.1
100101.4
100112
100125.1
100491.1
100400.9
100468.6
100324.3
100375.9
100420.5
100261
100295.7
100325.5
100354.5
100212.7
100235.4
100251.7
100267.1
100233.7
100167.4
100181.3
100186.9
100189.3
100149.2
100165.5
100143.4
100153
100154.5
100151.8
100113
100119.7
100142.6
100125.3
100132.3
100131.3
100126.3
100090.1
100092.1
100104.7
100119.7
100112.5
100117.8
100115.7
100109.8
100077.1
100076.8
100084.8
100092.3
100105.7
100102.4
100106.5
100103.9
100097.7
100068.1
100067
100072.2
100076.5
100083.3
100091.7
100094.3
100097.6
100094.7
100088.5
100061.9
100060.3
100064.2
100066.5
100070.7
100074.3
100061.7
100087.8
100090.5
100087.5
100081.6
100057.4
100055.8
100058.8
100060.4
100063
100065
100053.5
100068.2
100082.6
100084.9
100081.9
100076.3
100054.5
100053
100055.5
100056.6
100058.7
100059.8
100050.4
100060.4
100054.3
100079.4
100081.5
100078.8
100073.7
100054
100052.8
100055.2
100056.5
100058.5
100059.8
100052.3
100060.8
100054.7
100052.2
100077.4
100079.4
100077
100072.5
100054.8
100054
100056.6
100058.1
100060.3
100061.9
100056.5
100063.7
100058.4
100054.9
100024.7
100080.9
100083.2
100081.6
100078.1
100062.8
100063.1
100066.5
100069.2
100072.7
100076.1
100073.6
100084.5
100089.4
100100.7
100114.9
100081
100083.3
100082.1
100079.3
100065.7
100066.5
100070.1
100073.2
100077
100080.8
100079.6
100090.3
100096.3
100107.7
100122.8
100080.5
100082.9
100082.1
100079.7
100067.6
100068.7
100072.4
100075.6
100079.6
100083.6
100083.3
100093.6
100100
100111.3
100125.7
100078.4
100080.7
100080
100077.9
100066.8
100068
100071.6
100074.7
100078.5
100082.3
100082.2
100091.7
100097.5
100107.5
100120
100075.2
100077.4
100076.7
100074.8
100064.5
100065.6
100068.9
100071.8
100075.3
100078.8
100078.6
100087.1
100092.1
100100.7
100111.1
100407
100474.9
100334.4
100387.4
100432.9
100275.8
100313
100346
100378
100226.5
100251.2
100270.4
100289.7
100262.6
100187.3
100204.1
100213.6
100221.5
100190.2
100215.2
100149.4
100159.8
100162.2
100160.9
100124.7
100134
100159.2
100129.2
100136.6
100136.3
100132
100097.1
100100.5
100114.7
100131.5
100113.9
100119.3
100117.4
100111.7
100079.4
100079.6
100088
100096.1
100110.2
100103
100107.1
100104.6
100098.5
100069
100068.1
100073.5
100077.9
100085.1
100093.8
100094.3
100097.6
100094.7
100088.5
100061.9
100060.3
100064.2
100066.5
100070.7
100074.3
100061.7
100087.3
100089.9
100086.9
100080.9
100056.7
100055
100057.8
100059.3
100061.7
100063.5
100051.6
100066.2
100081.6
100083.8
100080.7
100075
100053
100051.3
100053.6
100054.6
100056.3
100057
100047
100056.7
100050.7
100077
100078.9
100076
100070.6
100050.5
100049
100051
100051.8
100053.1
100053.6
100045
100052.6
100046.4
100044.2
100074.3
100076
100073.3
100068.5
100050.3
100049
100051.1
100052
100053.5
100054.1
100047.3
100053.7
100048.3
100045.1
100024
100072.6
100074.3
100071.9
100067.6
100051.1
100050.3
100052.5
100053.6
100055.4
100056.5
100051.2
100057
100051.8
100048.5
100023.8
100023.9
100075.9
100078
100076.3
100072.9
100058.7
100058.8
100061.7
100063.9
100066.8
100069.4
100066.8
100075.7
100079
100087.1
100097.6
100076.1
100078.3
100077
100074.2
100061.5
100062.1
100065.2
100067.8
100071
100074.1
100072.6
100081.6
100085.9
100094.8
100105.7
100075.9
100078
100077.1
100074.7
100063.3
100064.2
100067.5
100070.3
100073.7
100077
100076.3
100085.1
100090.1
100099.1
100110.2
100073.9
100076.1
100075.3
100073.2
100062.7
100063.7
100066.9
100069.6
100073
100076.2
100075.8
100083.9
100088.6
100096.8
100106.6
100071
100073
100072.3
100070.4
100060.6
100061.6
100064.6
100067.1
100070.2
100073.2
100072.8
100080.1
100084.3
100091.5
100100
100339.8
100393.6
100439.7
100284.7
100323.3
100358.1
100391.6
100239.5
100266.3
100288.3
100311.3
100289.9
100199.6
100218.1
100230
100241.1
100215.6
100245
100167.1
100179.9
100185.4
100188.3
100158.9
100175.6
100209.3
100134.7
100142.7
100143.2
100140.1
100107
100112.4
100129.1
100148.5
100117.5
100123.2
100121.9
100116.8
100085.4
100086.6
100096.4
100106.2
100122.3
100104.3
100108.5
100106.1
100100.2
100071.1
100070.5
100076.2
100081.2
100088.9
100098.4
100094.9
100098.2
100095.3
100089.2
100062.7
100061.3
100065.2
100067.8
100072.2
100076
100063.9
100087.3
100089.9
100086.9
100080.9
100056.7
100055
100057.8
100059.3
100061.7
100063.5
100051.6
100066.2
100081.1
100083.3
100080.2
100074.4
100052.3
100050.6
100052.8
100053.6
100055.3
100055.8
100045.5
100055
100049.1
100076.1
100077.9
100074.9
100069.4
100049.2
100047.5
100049.4
100050
100051.1
100051.3
100042.2
100049.5
100043.5
100041.7
100072
100073.6
100070.7
100065.6
100047.1
100045.6
100047.3
100047.7
100048.7
100048.8
100041.1
100046.8
100041.4
100038.6
100023.8
100069.6
100071.1
100068.5
100063.8
100047
100045.8
100047.5
100048.1
100049.2
100049.6
100043.3
100048.5
100043.3
100040.5
100023.2
100023.8
100068.2
100069.6
100067.3
100063.2
100047.9
100047
100048.9
100049.8
100051.2
100051.9
100047.1
100051.8
100046.9
100043.5
100023.3
100023.1
100023.9
100071.4
100073.2
100071.5
100068.3
100054.9
100055
100057.5
100059.4
100061.8
100063.9
100061.2
100068.6
100070.9
100077.1
100084.6
100071.7
100073.6
100072.3
100069.6
100057.7
100058.1
100060.9
100063.1
100065.9
100068.4
100066.8
100074.3
100077.7
100084.6
100093.1
100071.6
100073.5
100072.5
100070.2
100059.5
100060.2
100063.1
100065.5
100068.5
100071.3
100070.4
100078
100082
100089.3
100098.1
100069.8
100071.8
100070.9
100068.9
100059
100059.8
100062.7
100065.1
100068
100070.8
100070.2
100077.3
100081.2
100087.9
100096
100067.2
100069
100068.2
100066.3
100057.1
100057.9
100060.7
100062.9
100065.6
100068.2
100067.7
100074.2
100077.7
100083.7
100090.8
100289.4
100328.8
100364.6
100399
100247.4
100275.3
100299
100324.1
100306.1
100211.2
100231.3
100245.4
100259.7
100239.3
100273.1
100178.2
100192.3
100199.8
100205.3
100180.4
100201.4
100239.4
100150.7
100160.6
100163.6
100163.8
100135.9
100147
100170.9
100199.3
100122.5
100128.7
100128.1
100123.9
100094.1
100096.8
100108.5
100120.8
100139.6
100107.6
100112.1
100110.1
100104.7
100076.4
100076.5
100083.3
100089.6
100099.2
100110.7
100096.1
100099.4
100096.7
100090.8
100064.5
100063.3
100067.6
100070.5
100075.4
100079.9
100068.9
100087.8
100090.5
100087.5
100081.6
100057.4
100055.8
100058.8
100060.4
100063
100065
100053.5
100068.2
100081.1
100083.3
100080.2
100074.4
100052.3
100050.6
100052.8
100053.6
100055.3
100055.8
100045.5
100055
100049.1
100075.6
100077.4
100074.3
100068.9
100048.6
100046.9
100048.6
100049.1
100050.1
100050.2
100040.9
100048.2
100042.2
100040.6
100071.2
100072.6
100069.7
100064.5
100045.9
100044.3
100045.8
100046.1
100046.9
100046.7
100038.6
100044.3
100039
100036.6
100023.8
100067.5
100068.9
100066
100061.2
100044.1
100042.6
100044
100044.3
100045
100044.9
100037.9
100042.6
100037.6
100035.2
100023.1
100023.8
100065.4
100066.7
100064.1
100059.7
100044
100042.9
100044.3
100044.8
100045.7
100045.8
100040.1
100044.3
100039.7
100036.8
100022.9
100023.1
100023.8
100064.1
100065.4
100063.1
100059.2
100045
100044.1
100045.7
100046.5
100047.6
100048.1
100043.6
100047.5
100043
100039.8
100022.6
100022.8
100023.1
100023.8
100067.3
100068.9
100067.2
100064.1
100051.6
100051.5
100053.8
100055.4
100057.4
100059.1
100056.4
100062.8
100064.4
100069.2
100074.9
100067.7
100069.4
100068.1
100065.4
100054.2
100054.5
100057
100058.9
100061.3
100063.4
100061.7
100068.3
100070.9
100076.5
100083.2
100067.6
100069.4
100068.3
100066.1
100056
100056.6
100059.2
100061.3
100063.9
100066.3
100065.3
100071.9
100075.2
100081.3
100088.5
100066
100067.8
100066.9
100064.9
100055.6
100056.3
100058.9
100061
100063.6
100066
100065.3
100071.6
100074.8
100080.6
100087.2
100063.5
100065.2
100064.4
100062.6
100053.9
100054.6
100057.1
100059.1
100061.5
100063.8
100063.2
100069
100071.9
100077.1
100083.1
100251.6
100280.1
100304.7
100331
100314.8
100218.2
100239.3
100254.8
100270.9
100253.6
100289.8
100188.6
100204
100213.4
100221.3
100200.4
100225.6
100267.8
100160.7
100171.8
100176.4
100178.6
100154.1
100168.8
100196.9
100230
100137
100144.8
100146.2
100144.7
100118.8
100125.8
100143.1
100163
100191
100112.2
100117.2
100115.7
100111.1
100083.9
100085.3
100093.5
100101.8
100113.8
100128.4
100099.1
100102.7
100100.4
100094.9
100069.2
100068.6
100073.7
100077.6
100083.9
100090.2
100081.9
100088.9
100091.6
100088.8
100083
100059
100057.7
100060.8
100062.8
100065.7
100068.2
100057.6
100072.6
100081.6
100083.8
100080.7
100075
100053
100051.3
100053.6
100054.6
100056.3
100057
100047
100056.7
100050.7
100075.6
100077.4
100074.3
100068.9
100048.6
100046.9
100048.6
100049.1
100050.1
100050.2
100040.9
100048.2
100042.2
100040.6
100070.7
100072.2
100069.2
100064
100045.3
100043.6
100045.1
100045.4
100046.1
100045.7
100037.6
100043.1
100037.9
100035.7
100023.8
100066.7
100068
100065.1
100060.2
100043
100041.4
100042.7
100042.8
100043.4
100043
100035.8
100040.4
100035.5
100033.5
100023.1
100023.8
100063.4
100064.6
100061.9
100057.3
100041.4
100040
100041.2
100041.4
100041.9
100041.6
100035.3
100039.2
100034.8
100032.4
100022.8
100023
100023.8
100061.5
100062.6
100060.2
100056
100041.4
100040.3
100041.6
100041.9
100042.6
100042.6
100037.4
100041
100036.7
100034.2
100022.2
100022.7
100023.1
100023.8
100060.4
100061.6
100059.4
100055.6
100042.3
100041.5
100042.9
100043.5
100044.5
100044.8
100040.6
100044
100039.8
100036.8
100022.1
100022.2
100022.8
100023.1
100023.8
100063.5
100064.9
100063.3
100060.3
100048.5
100048.4
100050.4
100051.8
100053.5
100054.9
100052.3
100057.9
100059
100062.9
100067.3
100063.9
100065.4
100064.2
100061.6
100051
100051.3
100053.5
100055.2
100057.3
100059.1
100057.3
100063.1
100065.2
100069.9
100075.2
100063.9
100065.5
100064.5
100062.3
100052.7
100053.2
100055.6
100057.5
100059.8
100061.9
100060.8
100066.7
100069.4
100074.5
100080.5
100062.5
100064.1
100063.2
100061.3
100052.5
100053.1
100055.4
100057.4
100059.7
100061.8
100060.9
100066.6
100069.3
100074.3
100079.9
100060.2
100061.7
100060.9
100059.1
100050.9
100051.5
100053.8
100055.6
100057.8
100059.8
100059.1
100064.3
100066.9
100071.4
100076.6
100222
100243.5
100259.7
100276.9
100261.2
100298.7
100194.9
100211.1
100221.6
100231
100212.6
100240.2
100284.6
100170.1
100182.3
100188.4
100192.6
100171.2
100189.1
100221.2
100258.7
100146.1
100155
100157.7
100157.9
100134.7
100144.4
100165.1
100189.3
100222.1
100125.4
100131.7
100132
100129.6
100105.6
100110.2
100122.7
100136.7
100156.4
100180.6
100103.3
100107.3
100105.5
100100.6
100075.9
100076.3
100082.5
100087.9
100096.2
100105.1
100100.8
100091.7
100094.7
100092.1
100086.7
100063.2
100062.4
100066.2
100068.9
100072.9
100076.8
100068.2
100084.7
100082.6
100084.9
100081.9
100076.3
100054.5
100053
100055.5
100056.6
100058.7
100059.8
100050.4
100060.4
100054.3
100076.1
100077.9
100074.9
100069.4
100049.2
100047.5
100049.4
100050
100051.1
100051.3
100042.2
100049.5
100043.5
100041.7
100070.7
100072.2
100069.2
100064
100045.3
100043.6
100045.1
100045.4
100046.1
100045.7
100037.6
100043.1
100037.9
100035.7
100023.8
100066.3
100067.6
100064.7
100059.7
100042.5
100040.8
100042.1
100042.2
100042.6
100042.2
100034.8
100039.5
100034.7
100032.8
100023.1
100023.7
100062.7
100063.7
100061
100056.3
100040.3
100038.8
100040
100040
100040.4
100039.9
100033.4
100037.3
100033
100031
100022.8
100023
100023.8
100059.7
100060.7
100058.1
100053.7
100038.9
100037.6
100038.7
100038.8
100039.1
100038.8
100033.1
100036.5
100032.4
100030.4
100022.1
100022.7
100023.1
100023.8
100058
100059
100056.6
100052.6
100039
100037.9
100039.1
100039.3
100039.9
100039.8
100035
100038.1
100034.2
100031.9
100021.8
100022.1
100022.8
100023.1
100023.8
100057
100058
100055.9
100052.3
100039.9
100039.1
100040.4
100040.9
100041.7
100041.9
100038
100041
100037.1
100034.4
100021.4
100021.7
100022.2
100022.8
100023.1
100023.8
100060
100061.2
100059.7
100056.8
100045.7
100045.6
100047.4
100048.6
100050.1
100051.3
100048.8
100053.7
100054.5
100057.7
100061.2
100060.4
100061.8
100060.5
100058.1
100048.1
100048.3
100050.3
100051.8
100053.7
100055.2
100053.5
100058.6
100060.3
100064.3
100068.7
100060.4
100061.9
100060.9
100058.8
100049.8
100050.2
100052.4
100054.1
100056.1
100057.9
100056.8
100062.1
100064.3
100068.8
100073.9
100059.1
100060.6
100059.8
100057.9
100049.5
100050.1
100052.2
100054
100056.1
100057.9
100057.1
100062.1
100064.5
100068.8
100073.7
100057
100058.4
100057.6
100055.9
100048.1
100048.6
100050.7
100052.4
100054.4
100056.2
100055.5
100060.2
100062.4
100066.4
100070.9
100198.3
100214.9
100225.9
100236.1
100219.1
100247.9
100293.6
100175.8
100188.7
100195.6
100201
100181.6
100201.5
100235.9
100275.8
100154.7
100164.4
100168.4
100170.2
100149.4
100161.6
100185.5
100213.9
100251.2
100133.7
100140.9
100142.4
100141.3
100119.4
100126.3
100141.3
100158.8
100183
100212.3
100115.4
100120.6
100120.2
100117.2
100095
100098.1
100107.5
100117.3
100131.4
100148.1
100154.4
100095.6
100098.9
100096.8
100091.9
100069.2
100069.2
100073.9
100077.7
100083.2
100089.1
100083.7
100102.3
100085.2
100087.6
100085
100079.7
100058.2
100057.2
100060.2
100062
100064.9
100067
100059.2
100070.3
100064.6
100077
100078.9
100076
100070.6
100050.5
100049
100051
100051.8
100053.1
100053.6
100045
100052.6
100046.4
100044.2
100071.2
100072.6
100069.7
100064.5
100045.9
100044.3
100045.8
100046.1
100046.9
100046.7
100038.6
100044.3
100039
100036.6
100023.8
100066.3
100067.6
100064.7
100059.7
100042.5
100040.8
100042.1
100042.2
100042.6
100042.2
100034.8
100039.5
100034.7
100032.8
100023.1
100023.7
100062.3
100063.4
100060.6
100055.9
100039.9
100038.3
100039.4
100039.4
100039.7
100039.2
100032.6
100036.5
100032.3
100030.4
100022.8
100023
100023.8
100059
100059.9
100057.2
100052.8
100038
100036.6
100037.5
100037.5
100037.8
100037.3
100031.4
100034.8
100030.9
100029.2
100022.2
100022.7
100023
100023.8
100056.3
100057.1
100054.6
100050.5
100036.7
100035.4
100036.4
100036.4
100036.7
100036.4
100031.2
100034.1
100030.5
100028.6
100021.7
100022.1
100022.7
100023.1
100023.8
100054.7
100055.6
100053.3
100049.5
100036.8
100035.8
100036.8
100037
100037.5
100037.4
100032.9
100035.7
100032.1
100030.1
100021.2
100021.7
100022.1
100022.8
100023.1
100023.8
100053.9
100054.8
100052.7
100049.3
100037.6
100036.9
100038
100038.5
100039.2
100039.3
100035.7
100038.3
100034.8
100032.3
100020.9
100021.1
100021.7
100022.1
100022.7
100023
100023.8
100056.7
100057.9
100056.3
100053.5
100043.1
100042.9
100044.6
100045.7
100047
100048
100045.6
100050
100050.6
100053.3
100056.2
100057.2
100058.4
100057.2
100054.8
100045.4
100045.5
100047.4
100048.7
100050.4
100051.8
100050.1
100054.7
100056
100059.5
100063.2
100057.2
100058.6
100057.6
100055.6
100047
100047.4
100049.4
100050.9
100052.8
100054.4
100053.2
100058
100059.9
100063.8
100068.2
100056
100057.4
100056.6
100054.8
100046.8
100047.3
100049.3
100050.9
100052.8
100054.4
100053.6
100058.2
100060.2
100064
100068.3
100054
100055.3
100054.6
100052.9
100045.5
100046
100047.9
100049.5
100051.3
100052.9
100052.1
100056.5
100058.4
100062
100066
100178.9
100192.1
100199.5
100205.5
100187.1
100208
100243.7
100284.9
100159.9
100170.2
100174.9
100177.7
100158.4
100172.2
100197.9
100228.7
100268.5
100141.6
100149.6
100152
100152.3
100132.4
100141.2
100158.6
100179.4
100207.7
100241.8
100123.1
100129.1
100129.6
100127.8
100107.3
100112.1
100123.6
100136
100153.6
100175
100187.5
100106.7
100111.1
100110.2
100106.9
100086.3
100088.4
100095.7
100102.9
100112.8
100124.7
100127.4
100159.6
100088.8
100091.6
100089.3
100084.5
100063.7
100063.3
100067
100069.7
100073.7
100077.4
100071.9
100084.8
100079.8
100079.4
100081.5
100078.8
100073.7
100054
100052.8
100055.2
100056.5
100058.5
100059.8
100052.3
100060.8
100054.7
100052.2
100072
100073.6
100070.7
100065.6
100047.1
100045.6
100047.3
100047.7
100048.7
100048.8
100041.1
100046.8
100041.4
100038.6
100023.8
100066.7
100068
100065.1
100060.2
100043
100041.4
100042.7
100042.8
100043.4
100043
100035.8
100040.4
100035.5
100033.5
100023.1
100023.8
100062.3
100063.4
100060.6
100055.9
100039.9
100038.3
100039.4
100039.4
100039.7
100039.2
100032.6
100036.5
100032.3
100030.4
100022.8
100023
100023.8
100058.6
100059.6
100056.8
100052.4
100037.5
100036.1
100037
100037
100037.2
100036.6
100030.7
100034
100030.2
100028.7
100022.1
100022.7
100023
100023.8
100055.6
100056.4
100053.8
100049.6
100035.8
100034.5
100035.3
100035.3
100035.5
100035
100029.7
100032.6
100029.2
100027.6
100021.7
100022.1
100022.7
100023
100023.8
100053.1
100053.9
100051.4
100047.5
100034.7
100033.5
100034.3
100034.3
100034.6
100034.2
100029.5
100032.1
100028.8
100027.2
100021.1
100021.6
100022.1
100022.7
100023
100023.8
100051.7
100052.5
100050.3
100046.7
100034.8
100033.8
100034.7
100034.9
100035.3
100035.2
100031.1
100033.6
100030.3
100028.4
100020.6
100021.1
100021.7
100022.1
100022.7
100023
100023.8
100050.9
100051.7
100049.8
100046.5
100035.6
100034.8
100035.9
100036.3
100036.9
100037
100033.7
100036
100032.7
100030.5
100020.2
100020.6
100021.1
100021.7
100022.1
100022.7
100023
100023.8
100053.6
100054.7
100053.2
100050.5
100040.7
100040.5
100042.1
100043
100044.2
100045.1
100042.8
100046.7
100047.2
100049.5
100051.9
100054.1
100055.3
100054.1
100051.8
100042.9
100043
100044.7
100045.9
100047.4
100048.6
100047
100051.2
100052.3
100055.3
100058.5
100054.2
100055.5
100054.5
100052.6
100044.4
100044.7
100046.6
100048
100049.7
100051.1
100050
100054.3
100056
100059.4
100063.2
100053.1
100054.4
100053.5
100051.8
100044.3
100044.7
100046.6
100048
100049.7
100051.3
100050.4
100054.6
100056.4
100059.8
100063.5
100051.2
100052.4
100051.7
100050.1
100043
100043.5
100045.3
100046.7
100048.4
100049.9
100049.1
100053.1
100054.8
100058
100061.6
100162.6
100173.3
100178.4
100181.6
100163.2
100177.7
100204.5