/*--------------------------------*- C++ -*----------------------------------*\
| =========                 |                                                 |
| \\      /  F ield         | OpenFOAM: The Open Source CFD Toolbox           |
|  \\    /   O peration     | Version:  2306                                  |
|   \\  /    A nd           | Website:  www.openfoam.com                      |
|    \\/     M anipulation  |                                                 |
\*---------------------------------------------------------------------------*/
FoamFile
{
    version     2.0;
    format      ascii;
    arch        "LSB;label=32;scalar=64";
    class       volScalarField;
    location    "0.3/fuel";
    object      T;
}
// * * * * * * * * * * * * * * * * * * * * * * * * * * * * * * * * * * * * * //

dimensions      [0 0 0 1 0 0 0];

internalField   nonuniform List<scalar> 
16000
(
1010.205
1010.127
1011.151
1010.204
1009.947
1011.144
1010.126
1012.048
1011.148
1010.208
1009.611
1011.128
1009.947
1012.063
1011.141
1010.131
1012.911
1012.044
1011.149
1010.217
1009.047
1011.093
1009.612
1012.093
1011.125
1009.951
1012.933
1012.058
1011.143
1010.139
1013.756
1012.905
1012.043
1011.155
1010.23
1008.221
1011.024
1009.051
1012.144
1011.089
1009.618
1012.98
1012.088
1011.126
1009.961
1013.78
1012.926
1012.057
1011.148
1010.153
1014.585
1013.748
1012.902
1012.046
1011.165
1010.248
1007.286
1010.902
1008.23
1012.217
1011.018
1009.06
1013.061
1012.137
1011.089
1009.629
1013.833
1012.973
1012.086
1011.131
1009.975
1014.609
1013.772
1012.923
1012.06
1011.159
1010.172
1015.396
1014.576
1013.744
1012.904
1012.054
1011.18
1010.267
1006.432
1010.722
1007.302
1012.299
1010.894
1008.244
1013.184
1012.208
1011.017
1009.074
1013.925
1013.052
1012.135
1011.094
1009.646
1014.664
1013.824
1012.969
1012.089
1011.141
1009.995
1015.42
1014.6
1013.767
1012.924
1012.067
1011.173
1010.191
1016.188
1015.386
1014.57
1013.743
1012.909
1012.066
1011.196
1010.286
1005.797
1010.523
1006.456
1012.351
1010.714
1007.324
1013.341
1012.286
1010.89
1008.263
1014.067
1013.173
1012.203
1011.02
1009.093
1014.759
1013.915
1013.048
1012.136
1011.103
1009.667
1015.474
1014.654
1013.819
1012.97
1012.096
1011.155
1010.015
1016.211
1015.41
1014.594
1013.766
1012.929
1012.079
1011.189
1010.21
1016.958
1016.176
1015.379
1014.568
1013.746
1012.918
1012.078
1011.211
1010.305
1005.462
1010.353
1005.827
1012.367
1010.515
1006.485
1013.481
1012.336
1010.71
1007.35
1014.253
1013.326
1012.278
1010.891
1008.287
1014.907
1014.055
1013.166
1012.202
1011.028
1009.118
1015.569
1014.748
1013.908
1013.047
1012.142
1011.117
1009.69
1016.264
1015.463
1014.647
1013.818
1012.974
1012.107
1011.17
1010.036
1016.981
1016.2
1015.403
1014.592
1013.769
1012.938
1012.091
1011.204
1010.23
1017.706
1016.946
1016.169
1015.375
1014.569
1013.753
1012.928
1012.09
1011.227
1010.325
1005.462
1010.257
1005.495
1012.362
1010.348
1005.861
1013.581
1012.351
1010.512
1006.518
1014.428
1013.464
1012.325
1010.71
1007.381
1015.103
1014.237
1013.315
1012.273
1010.897
1008.316
1015.718
1014.894
1014.046
1013.163
1012.205
1011.041
1009.144
1016.358
1015.557
1014.74
1013.906
1013.05
1012.152
1011.131
1009.712
1017.033
1016.253
1015.456
1014.644
1013.82
1012.982
1012.118
1011.185
1010.057
1017.729
1016.969
1016.192
1015.399
1014.593
1013.776
1012.947
1012.103
1011.219
1010.25
1018.431
1017.694
1016.938
1016.164
1015.375
1014.574
1013.76
1012.937
1012.103
1011.242
1010.421
1005.797
1010.257
1005.495
1012.353
1010.253
1005.532
1013.641
1012.346
1010.346
1005.9
1014.563
1013.562
1012.34
1010.514
1006.556
1015.291
1014.41
1013.45
1012.319
1010.715
1007.416
1015.915
1015.086
1014.225
1013.309
1012.273
1010.907
1008.346
1016.504
1015.704
1014.884
1014.041
1013.163
1012.213
1011.054
1009.17
1017.125
1016.345
1015.549
1014.736
1013.907
1013.057
1012.162
1011.146
1009.735
1017.779
1017.021
1016.244
1015.452
1014.645
1013.826
1012.991
1012.13
1011.2
1010.078
1018.453
1017.716
1016.961
1016.187
1015.399
1014.597
1013.783
1012.957
1012.115
1011.235
1010.349
1019.132
1018.418
1017.685
1016.932
1016.163
1015.378
1014.579
1013.768
1012.947
1012.115
1011.321
1010.605
1006.432
1010.353
1005.827
1012.353
1010.253
1005.532
1013.669
1012.338
1010.252
1005.574
1014.651
1013.622
1012.335
1010.349
1005.943
1015.44
1014.543
1013.547
1012.333
1010.52
1006.598
1016.107
1015.272
1014.395
1013.441
1012.317
1010.725
1007.453
1016.699
1015.898
1015.073
1014.217
1013.306
1012.278
1010.918
1008.376
1017.268
1016.49
1015.693
1014.878
1014.04
1013.168
1012.221
1011.067
1009.197
1017.869
1017.111
1016.336
1015.543
1014.735
1013.912
1013.064
1012.172
1011.16
1009.759
1018.503
1017.767
1017.012
1016.239
1015.451
1014.649
1013.832
1012.999
1012.141
1011.216
1010.183
1019.153
1018.44
1017.707
1016.955
1016.186
1015.402
1014.602
1013.79
1012.966
1012.127
1011.313
1010.541
1019.808
1019.119
1018.409
1017.679
1016.93
1016.165
1015.382
1014.584
1013.775
1012.956
1012.179
1011.464
1010.797
1007.286
1010.523
1006.456
1012.362
1010.348
1005.861
1013.669
1012.338
1010.252
1005.574
1014.693
1013.649
1012.327
1010.256
1005.62
1015.54
1014.63
1013.606
1012.327
1010.357
1005.991
1016.26
1015.42
1014.527
1013.537
1012.33
1010.531
1006.641
1016.89
1016.088
1015.257
1014.384
1013.435
1012.319
1010.735
1007.489
1017.46
1016.682
1015.885
1015.064
1014.212
1013.307
1012.283
1010.929
1008.407
1018.009
1017.253
1016.479
1015.686
1014.875
1014.042
1013.173
1012.229
1011.08
1009.224
1018.59
1017.855
1017.101
1016.33
1015.541
1014.738
1013.917
1013.071
1012.183
1011.175
1009.876
1019.202
1018.49
1017.757
1017.006
1016.237
1015.453
1014.653
1013.838
1013.008
1012.153
1011.293
1010.394
1019.83
1019.141
1018.431
1017.701
1016.952
1016.187
1015.405
1014.607
1013.797
1012.975
1012.189
1011.455
1010.744
1020.46
1019.796
1019.109
1018.402
1017.675
1016.931
1016.166
1015.385
1014.589
1013.782
1013.006
1012.291
1011.607
1010.995
1008.221
1010.722
1007.302
1012.367
1010.515
1006.485
1013.641
1012.346
1010.346
1005.9
1014.693
1013.649
1012.327
1010.256
1005.62
1015.588
1014.672
1013.633
1012.32
1010.265
1005.671
1016.363
1015.518
1014.613
1013.595
1012.324
1010.369
1006.04
1017.043
1016.239
1015.403
1014.514
1013.53
1012.331
1010.542
1006.684
1017.648
1016.871
1016.072
1015.245
1014.377
1013.434
1012.321
1010.745
1007.525
1018.197
1017.443
1016.669
1015.875
1015.059
1014.211
1013.309
1012.287
1010.94
1008.437
1018.728
1017.994
1017.242
1016.471
1015.682
1014.876
1014.045
1013.178
1012.237
1011.094
1009.359
1019.288
1018.576
1017.845
1017.094
1016.326
1015.543
1014.741
1013.922
1013.079
1012.193
1011.249
1010.119
1019.877
1019.189
1018.48
1017.75
1017.003
1016.238
1015.456
1014.657
1013.844
1013.017
1012.212
1011.435
1010.622
1020.481
1019.817
1019.131
1018.424
1017.697
1016.953
1016.189
1015.408
1014.612
1013.804
1013.024
1012.3
1011.6
1010.956
1021.088
1020.448
1019.786
1019.102
1018.398
1017.675
1016.931
1016.168
1015.389
1014.595
1013.82
1013.093
1012.402
1011.752
1011.199
1009.047
1010.902
1008.23
1012.351
1010.714
1007.324
1013.581
1012.351
1010.512
1006.518
1014.651
1013.622
1012.335
1010.349
1005.943
1015.588
1014.672
1013.633
1012.32
1010.265
1005.671
1016.414
1015.567
1014.655
1013.622
1012.317
1010.278
1005.722
1017.147
1016.342
1015.5
1014.599
1013.587
1012.326
1010.382
1006.087
1017.8
1017.023
1016.222
1015.39
1014.506
1013.527
1012.332
1010.553
1006.726
1018.382
1017.629
1016.855
1016.06
1015.237
1014.373
1013.433
1012.324
1010.756
1007.561
1018.912
1018.18
1017.429
1016.658
1015.868
1015.057
1014.211
1013.31
1012.292
1010.951
1008.586
1019.423
1018.713
1017.982
1017.233
1016.466
1015.682
1014.877
1014.048
1013.183
1012.246
1011.162
1009.638
1019.962
1019.274
1018.566
1017.837
1017.09
1016.327
1015.544
1014.744
1013.926
1013.086
1012.246
1011.39
1010.392
1020.528
1019.864
1019.179
1018.472
1017.747
1017.003
1016.239
1015.458
1014.661
1013.851
1013.061
1012.317
1011.581
1010.866
1021.108
1020.468
1019.807
1019.123
1018.42
1017.697
1016.953
1016.191
1015.411
1014.617
1013.84
1013.108
1012.408
1011.746
1011.174
1021.69
1021.075
1020.437
1019.778
1019.098
1018.397
1017.675
1016.932
1016.17
1015.392
1014.622
1013.885
1013.178
1012.512
1011.897
1009.611
1011.024
1009.051
1012.299
1010.894
1008.244
1013.481
1012.336
1010.71
1007.35
1014.563
1013.562
1012.34
1010.514
1006.556
1015.54
1014.63
1013.606
1012.327
1010.357
1005.991
1016.414
1015.567
1014.655
1013.622
1012.317
1010.278
1005.722
1017.199
1016.393
1015.549
1014.641
1013.614
1012.318
1010.292
1005.773
1017.902
1017.126
1016.324
1015.487
1014.59
1013.584
1012.327
1010.394
1006.135
1018.532
1017.78
1017.006
1016.209
1015.38
1014.501
1013.524
1012.334
1010.564
1006.768
1019.094
1018.364
1017.613
1016.843
1016.051
1015.233
1014.37
1013.431
1012.326
1010.766
1007.735
1019.604
1018.895
1018.167
1017.418
1016.651
1015.865
1015.054
1014.21
1013.312
1012.297
1011.007
1008.863
1020.095
1019.408
1018.701
1017.974
1017.228
1016.464
1015.681
1014.878
1014.05
1013.188
1012.288
1011.296
1009.961
1020.611
1019.948
1019.263
1018.558
1017.833
1017.09
1016.327
1015.546
1014.747
1013.931
1013.124
1012.341
1011.539
1010.695
1021.155
1020.515
1019.854
1019.171
1018.468
1017.746
1017.003
1016.24
1015.461
1014.666
1013.883
1013.138
1012.42
1011.73
1011.121
1021.711
1021.095
1020.458
1019.799
1019.119
1018.419
1017.697
1016.954
1016.193
1015.414
1014.643
1013.902
1013.189
1012.515
1011.893
1022.268
1021.678
1021.065
1020.43
1019.773
1019.096
1018.396
1017.675
1016.933
1016.173
1015.411
1014.669
1013.948
1013.261
1012.621
1009.947
1011.093
1009.612
1012.217
1011.018
1009.06
1013.341
1012.286
1010.89
1008.263
1014.428
1013.464
1012.325
1010.71
1007.381
1015.44
1014.543
1013.547
1012.333
1010.52
1006.598
1016.363
1015.518
1014.613
1013.595
1012.324
1010.369
1006.04
1017.199
1016.393
1015.549
1014.641
1013.614
1012.318
1010.292
1005.773
1017.954
1017.178
1016.375
1015.534
1014.631
1013.61
1012.32
1010.305
1005.823
1018.633
1017.882
1017.109
1016.31
1015.476
1014.584
1013.58
1012.328
1010.406
1006.182
1019.241
1018.512
1017.763
1016.993
1016.199
1015.374
1014.496
1013.521
1012.336
1010.575
1006.97
1019.783
1019.076
1018.348
1017.601
1016.834
1016.046
1015.228
1014.367
1013.43
1012.329
1010.818
1008.028
1020.273
1019.588
1018.882
1018.156
1017.411
1016.647
1015.862
1015.052
1014.21
1013.313
1012.322
1011.115
1009.146
1020.742
1020.08
1019.396
1018.691
1017.968
1017.225
1016.463
1015.681
1014.879
1014.053
1013.214
1012.364
1011.444
1010.343
1021.237
1020.597
1019.937
1019.255
1018.552
1017.831
1017.089
1016.327
1015.547
1014.75
1013.957
1013.188
1012.435
1011.696
1011.024
1021.756
1021.141
1020.504
1019.846
1019.166
1018.466
1017.745
1017.003
1016.242
1015.463
1014.688
1013.937
1013.211
1012.522
1011.882
1022.289
1021.698
1021.085
1020.45
1019.794
1019.117
1018.417
1017.696
1016.955
1016.194
1015.431
1014.686
1013.96
1013.268
1012.622
1022.822
1022.256
1021.667
1021.057
1020.425
1019.771
1019.094
1018.395
1017.675
1016.934
1016.184
1015.441
1014.712
1014.008
1013.343
1010.127
1011.128
1009.947
1012.144
1011.089
1009.618
1013.184
1012.208
1011.017
1009.074
1014.253
1013.326
1012.278
1010.891
1008.287
1015.291
1014.41
1013.45
1012.319
1010.715
1007.416
1016.26
1015.42
1014.527
1013.537
1012.33
1010.531
1006.641
1017.147
1016.342
1015.5
1014.599
1013.587
1012.326
1010.382
1006.087
1017.954
1017.178
1016.375
1015.534
1014.631
1013.61
1012.32
1010.305
1005.823
1018.684
1017.933
1017.16
1016.36
1015.524
1014.625
1013.607
1012.321
1010.318
1005.872
1019.342
1018.613
1017.865
1017.094
1016.299
1015.469
1014.579
1013.577
1012.33
1010.419
1006.406
1019.928
1019.222
1018.496
1017.749
1016.983
1016.192
1015.368
1014.491
1013.519
1012.337
1010.63
1007.294
1020.45
1019.765
1019.061
1018.336
1017.592
1016.829
1016.041
1015.224
1014.364
1013.429
1012.343
1010.913
1008.299
1020.918
1020.257
1019.574
1018.871
1018.148
1017.406
1016.644
1015.859
1015.051
1014.209
1013.322
1012.37
1011.228
1009.429
1021.366
1020.727
1020.067
1019.386
1018.685
1017.964
1017.223
1016.461
1015.68
1014.88
1014.067
1013.257
1012.443
1011.611
1010.811
1021.837
1021.223
1020.586
1019.928
1019.249
1018.55
1017.829
1017.088
1016.327
1015.548
1014.766
1013.997
1013.248
1012.529
1011.861
1022.334
1021.743
1021.131
1020.496
1019.84
1019.164
1018.464
1017.744
1017.003
1016.243
1015.477
1014.723
1013.987
1013.282
1012.624
1022.842
1022.276
1021.687
1021.077
1020.445
1019.792
1019.115
1018.416
1017.696
1016.955
1016.204
1015.459
1014.725
1014.016
1013.346
1023.351
1022.809
1022.245
1021.659
1021.051
1020.422
1019.769
1019.093
1018.394
1017.674
1016.939
1016.201
1015.469
1014.754
1014.067
1010.205
1011.144
1010.126
1012.093
1011.125
1009.951
1013.061
1012.137
1011.089
1009.629
1014.067
1013.173
1012.203
1011.02
1009.093
1015.103
1014.237
1013.315
1012.273
1010.897
1008.316
1016.107
1015.272
1014.395
1013.441
1012.317
1010.725
1007.453
1017.043
1016.239
1015.403
1014.514
1013.53
1012.331
1010.542
1006.684
1017.902
1017.126
1016.324
1015.487
1014.59
1013.584
1012.327
1010.394
1006.135
1018.684
1017.933
1017.16
1016.36
1015.524
1014.625
1013.607
1012.321
1010.318
1005.872
1019.392
1018.664
1017.916
1017.145
1016.349
1015.517
1014.619
1013.603
1012.323
1010.332
1006.109
1020.027
1019.322
1018.596
1017.851
1017.084
1016.292
1015.462
1014.573
1013.574
1012.332
1010.48
1006.759
1020.593
1019.91
1019.206
1018.483
1017.739
1016.976
1016.186
1015.362
1014.486
1013.516
1012.347
1010.727
1007.58
1021.092
1020.432
1019.75
1019.048
1018.327
1017.586
1016.823
1016.036
1015.22
1014.361
1013.425
1012.371
1011.008
1008.545
1021.54
1020.902
1020.243
1019.563
1018.863
1018.143
1017.402
1016.64
1015.856
1015.049
1014.207
1013.339
1012.419
1011.342
1009.704
1021.965
1021.351
1020.715
1020.058
1019.379
1018.681
1017.961
1017.22
1016.46
1015.68
1014.884
1014.087
1013.297
1012.526
1011.806
1022.414
1021.823
1021.211
1020.577
1019.922
1019.246
1018.547
1017.827
1017.087
1016.327
1015.556
1014.788
1014.033
1013.305
1012.625
1022.886
1022.321
1021.732
1021.122
1020.491
1019.838
1019.161
1018.463
1017.743
1017.003
1016.249
1015.497
1014.754
1014.034
1013.352
1023.37
1022.829
1022.265
1021.679
1021.071
1020.442
1019.789
1019.113
1018.415
1017.695
1016.959
1016.218
1015.482
1014.762
1014.071
1023.855
1023.338
1022.799
1022.237
1021.654
1021.048
1020.419
1019.766
1019.091
1018.393
1017.674
1016.944
1016.215
1015.494
1014.794
1011.151
1010.204
1012.063
1011.141
1010.131
1012.98
1012.088
1011.126
1009.961
1013.925
1013.052
1012.135
1011.094
1009.646
1014.907
1014.055
1013.166
1012.202
1011.028
1009.118
1015.915
1015.086
1014.225
1013.309
1012.273
1010.907
1008.346
1016.89
1016.088
1015.257
1014.384
1013.435
1012.319
1010.735
1007.489
1017.8
1017.023
1016.222
1015.39
1014.506
1013.527
1012.332
1010.553
1006.726
1018.633
1017.882
1017.109
1016.31
1015.476
1014.584
1013.58
1012.328
1010.406
1006.182
1019.392
1018.664
1017.916
1017.145
1016.349
1015.517
1014.619
1013.603
1012.323
1010.332
1006.109
1020.077
1019.372
1018.647
1017.901
1017.134
1016.342
1015.509
1014.613
1013.6
1012.325
1010.397
1006.479
1020.69
1020.008
1019.305
1018.583
1017.84
1017.076
1016.284
1015.456
1014.568
1013.571
1012.34
1010.583
1007.064
1021.234
1020.574
1019.894
1019.193
1018.472
1017.732
1016.969
1016.179
1015.356
1014.482
1013.505
1012.366
1010.819
1007.827
1021.712
1021.075
1020.417
1019.738
1019.039
1018.32
1017.58
1016.817
1016.031
1015.216
1014.346
1013.421
1012.401
1011.1
1008.76
1022.137
1021.523
1020.888
1020.232
1019.555
1018.857
1018.138
1017.397
1016.636
1015.853
1015.039
1014.204
1013.355
1012.467
1011.451
1010.239
1022.54
1021.95
1021.339
1020.705
1020.051
1019.375
1018.677
1017.958
1017.218
1016.458
1015.677
1014.887
1014.102
1013.336
1012.617
1022.965
1022.4
1021.812
1021.202
1020.571
1019.919
1019.243
1018.545
1017.825
1017.086
1016.328
1015.562
1014.804
1014.064
1013.361
1023.415
1022.873
1022.31
1021.724
1021.116
1020.487
1019.835
1019.159
1018.461
1017.742
1017.003
1016.256
1015.512
1014.782
1014.079
1023.875
1023.358
1022.819
1022.257
1021.674
1021.068
1020.439
1019.787
1019.111
1018.414
1017.694
1016.961
1016.228
1015.503
1014.798
1024.335
1023.843
1023.328
1022.791
1022.232
1021.65
1021.045
1020.416
1019.764
1019.089
1018.388
1017.67
1016.947
1016.227
1015.518
1012.048
1011.148
1010.208
1012.933
1012.058
1011.143
1010.139
1013.833
1012.973
1012.086
1011.131
1009.975
1014.759
1013.915
1013.048
1012.136
1011.103
1009.667
1015.718
1014.894
1014.046
1013.163
1012.205
1011.041
1009.144
1016.699
1015.898
1015.073
1014.217
1013.306
1012.278
1010.918
1008.376
1017.648
1016.871
1016.072
1015.245
1014.377
1013.434
1012.321
1010.745
1007.525
1018.532
1017.78
1017.006
1016.209
1015.38
1014.501
1013.524
1012.334
1010.564
1006.768
1019.342
1018.613
1017.865
1017.094
1016.299
1015.469
1014.579
1013.577
1012.33
1010.419
1006.406
1020.077
1019.372
1018.647
1017.901
1017.134
1016.342
1015.509
1014.613
1013.6
1012.325
1010.397
1006.479
1020.739
1020.058
1019.355
1018.633
1017.89
1017.126
1016.334
1015.502
1014.608
1013.596
1012.334
1010.506
1006.797
1021.33
1020.672
1019.992
1019.292
1018.572
1017.832
1017.068
1016.277
1015.449
1014.562
1013.556
1012.357
1010.679
1007.323
1021.852
1021.216
1020.559
1019.881
1019.183
1018.465
1017.725
1016.962
1016.173
1015.351
1014.459
1013.488
1012.386
1010.906
1008.034
1022.307
1021.695
1021.06
1020.405
1019.729
1019.032
1018.314
1017.573
1016.811
1016.026
1015.194
1014.324
1013.419
1012.43
1011.185
1009.143
1022.71
1022.121
1021.51
1020.877
1020.224
1019.549
1018.852
1018.133
1017.393
1016.632
1015.838
1015.022
1014.2
1013.369
1012.51
1011.673
1010.557
1023.09
1022.525
1021.938
1021.329
1020.698
1020.046
1019.371
1018.673
1017.955
1017.215
1016.449
1015.666
1014.883
1014.111
1013.373
1023.493
1022.952
1022.389
1021.803
1021.196
1020.567
1019.915
1019.24
1018.542
1017.824
1017.081
1016.322
1015.563
1014.815
1014.092
1023.918
1023.402
1022.863
1022.301
1021.718
1021.113
1020.484
1019.832
1019.157
1018.459
1017.737
1016.998
1016.257
1015.523
1014.806
1024.355
1023.862
1023.347
1022.81
1022.251
1021.67
1021.065
1020.436
1019.784
1019.109
1018.408
1017.687
1016.96
1016.236
1015.523
1024.791
1024.323
1023.832
1023.32
1022.785
1022.228
1021.647
1021.042
1020.414
1019.762
1019.081
1018.376
1017.664
1016.948
1016.238
1012.911
1012.044
1011.149
1010.217
1013.78
1012.926
1012.057
1011.148
1010.153
1014.664
1013.824
1012.969
1012.089
1011.141
1009.995
1015.569
1014.748
1013.908
1013.047
1012.142
1011.117
1009.69
1016.504
1015.704
1014.884
1014.041
1013.163
1012.213
1011.054
1009.17
1017.46
1016.682
1015.885
1015.064
1014.212
1013.307
1012.283
1010.929
1008.407
1018.382
1017.629
1016.855
1016.06
1015.237
1014.373
1013.433
1012.324
1010.756
1007.561
1019.241
1018.512
1017.763
1016.993
1016.199
1015.374
1014.496
1013.521
1012.336
1010.575
1006.97
1020.027
1019.322
1018.596
1017.851
1017.084
1016.292
1015.462
1014.573
1013.574
1012.332
1010.48
1006.759
1020.739
1020.058
1019.355
1018.633
1017.89
1017.126
1016.334
1015.502
1014.608
1013.596
1012.334
1010.506
1006.797
1021.379
1020.72
1020.041
1019.341
1018.622
1017.882
1017.118
1016.326
1015.495
1014.602
1013.58
1012.35
1010.605
1007.064
1021.947
1021.312
1020.656
1019.978
1019.281
1018.564
1017.824
1017.061
1016.27
1015.443
1014.535
1013.533
1012.374
1010.768
1007.537
1022.446
1021.834
1021.201
1020.546
1019.871
1019.175
1018.457
1017.717
1016.955
1016.166
1015.322
1014.424
1013.475
1012.406
1010.986
1008.393
1022.879
1022.29
1021.68
1021.048
1020.396
1019.722
1019.026
1018.307
1017.568
1016.806
1016
1015.161
1014.305
1013.419
1012.457
1011.363
1009.559
1023.259
1022.694
1022.108
1021.499
1020.869
1020.218
1019.543
1018.847
1018.128
1017.389
1016.613
1015.811
1015.004
1014.195
1013.381
1012.593
1011.811
1010.736
1023.617
1023.076
1022.513
1021.928
1021.321
1020.693
1020.041
1019.366
1018.67
1017.951
1017.202
1016.427
1015.647
1014.871
1014.114
1023.996
1023.48
1022.941
1022.38
1021.796
1021.192
1020.563
1019.911
1019.236
1018.54
1017.814
1017.064
1016.309
1015.557
1014.821
1024.398
1023.906
1023.391
1022.854
1022.295
1021.714
1021.109
1020.481
1019.829
1019.154
1018.45
1017.723
1016.989
1016.256
1015.532
1024.81
1024.342
1023.852
1023.339
1022.804
1022.247
1021.666
1021.062
1020.433
1019.782
1019.1
1018.393
1017.676
1016.957
1016.242
1025.223
1024.779
1024.313
1023.824
1023.314
1022.781
1022.224
1021.643
1021.039
1020.411
1019.75
1019.062
1018.362
1017.655
1016.947
1013.756
1012.905
1012.043
1011.155
1010.23
1014.609
1013.772
1012.923
1012.06
1011.159
1010.172
1015.474
1014.654
1013.819
1012.97
1012.096
1011.155
1010.015
1016.358
1015.557
1014.74
1013.906
1013.05
1012.152
1011.131
1009.712
1017.268
1016.49
1015.693
1014.878
1014.04
1013.168
1012.221
1011.067
1009.197
1018.197
1017.443
1016.669
1015.875
1015.059
1014.211
1013.309
1012.287
1010.94
1008.437
1019.094
1018.364
1017.613
1016.843
1016.051
1015.233
1014.37
1013.431
1012.326
1010.766
1007.735
1019.928
1019.222
1018.496
1017.749
1016.983
1016.192
1015.368
1014.491
1013.519
1012.337
1010.63
1007.294
1020.69
1020.008
1019.305
1018.583
1017.84
1017.076
1016.284
1015.456
1014.568
1013.571
1012.34
1010.583
1007.064
1021.379
1020.72
1020.041
1019.341
1018.622
1017.882
1017.118
1016.326
1015.495
1014.602
1013.58
1012.35
1010.605
1007.064
1021.995
1021.36
1020.704
1020.027
1019.331
1018.614
1017.874
1017.11
1016.318
1015.489
1014.573
1013.555
1012.366
1010.696
1007.284
1022.54
1021.929
1021.296
1020.642
1019.968
1019.273
1018.556
1017.816
1017.053
1016.263
1015.41
1014.493
1013.515
1012.391
1010.849
1007.904
1023.016
1022.428
1021.819
1021.188
1020.536
1019.863
1019.168
1018.45
1017.71
1016.948
1016.134
1015.277
1014.394
1013.465
1012.427
1011.155
1008.846
1023.427
1022.862
1022.276
1021.668
1021.039
1020.389
1019.715
1019.019
1018.301
1017.562
1016.777
1015.959
1015.13
1014.288
1013.418
1012.515
1011.553
1009.859
1023.784
1023.244
1022.681
1022.097
1021.491
1020.863
1020.212
1019.538
1018.841
1018.123
1017.366
1016.578
1015.783
1014.985
1014.187
1013.395
1012.644
1011.891
1010.87
1024.119
1023.603
1023.064
1022.503
1021.921
1021.316
1020.688
1020.036
1019.362
1018.666
1017.934
1017.17
1016.396
1015.619
1014.849
1024.475
1023.983
1023.468
1022.932
1022.373
1021.792
1021.187
1020.559
1019.907
1019.233
1018.526
1017.788
1017.041
1016.291
1015.547
1024.854
1024.385
1023.895
1023.382
1022.848
1022.291
1021.71
1021.105
1020.477
1019.826
1019.142
1018.429
1017.705
1016.976
1016.251
1025.242
1024.798
1024.332
1023.844
1023.333
1022.8
1022.243
1021.663
1021.058
1020.43
1019.769
1019.078
1018.375
1017.664
1016.952
1025.631
1025.211
1024.769
1024.305
1023.818
1023.31
1022.777
1022.22
1021.64
1021.036
1020.397
1019.726
1019.041
1018.345
1017.645
1014.585
1013.748
1012.902
1012.046
1011.165
1010.248
1015.42
1014.6
1013.767
1012.924
1012.067
1011.173
1010.191
1016.264
1015.463
1014.647
1013.818
1012.974
1012.107
1011.17
1010.036
1017.125
1016.345
1015.549
1014.736
1013.907
1013.057
1012.162
1011.146
1009.735
1018.009
1017.253
1016.479
1015.686
1014.875
1014.042
1013.173
1012.229
1011.08
1009.224
1018.912
1018.18
1017.429
1016.658
1015.868
1015.057
1014.211
1013.31
1012.292
1010.951
1008.586
1019.783
1019.076
1018.348
1017.601
1016.834
1016.046
1015.228
1014.367
1013.43
1012.329
1010.818
1008.028
1020.593
1019.91
1019.206
1018.483
1017.739
1016.976
1016.186
1015.362
1014.486
1013.516
1012.347
1010.727
1007.58
1021.33
1020.672
1019.992
1019.292
1018.572
1017.832
1017.068
1016.277
1015.449
1014.562
1013.556
1012.357
1010.679
1007.323
1021.995
1021.36
1020.704
1020.027
1019.331
1018.614
1017.874
1017.11
1016.318
1015.489
1014.573
1013.555
1012.366
1010.696
1007.284
1022.588
1021.977
1021.345
1020.691
1020.017
1019.322
1018.605
1017.866
1017.102
1016.311
1015.454
1014.528
1013.534
1012.382
1010.779
1007.661
1023.11
1022.523
1021.914
1021.283
1020.632
1019.96
1019.265
1018.548
1017.808
1017.046
1016.226
1015.357
1014.457
1013.499
1012.408
1011.019
1008.383
1023.563
1022.999
1022.414
1021.806
1021.178
1020.528
1019.855
1019.16
1018.443
1017.703
1016.913
1016.082
1015.237
1014.368
1013.458
1012.472
1011.365
1009.212
1023.951
1023.41
1022.848
1022.264
1021.659
1021.032
1020.382
1019.708
1019.013
1018.295
1017.531
1016.731
1015.921
1015.103
1014.272
1013.417
1012.577
1011.688
1010.095
1024.285
1023.769
1023.231
1022.671
1022.088
1021.484
1020.857
1020.206
1019.532
1018.836
1018.098
1017.324
1016.542
1015.754
1014.966
1014.161
1013.403
1012.674
1011.951
1010.987
1024.597
1024.105
1023.591
1023.054
1022.496
1021.915
1021.311
1020.683
1020.032
1019.358
1018.645
1017.894
1017.13
1016.356
1015.579
1024.93
1024.462
1023.972
1023.459
1022.925
1022.368
1021.787
1021.183
1020.555
1019.904
1019.216
1018.493
1017.757
1017.012
1016.267
1025.285
1024.841
1024.375
1023.887
1023.376
1022.843
1022.287
1021.706
1021.102
1020.474
1019.81
1019.114
1018.403
1017.683
1016.961
1025.65
1025.23
1024.788
1024.324
1023.837
1023.329
1022.796
1022.239
1021.659
1021.055
1020.415
1019.742
1019.053
1018.354
1017.649
1026.015
1025.619
1025.201
1024.761
1024.299
1023.814
1023.306
1022.773
1022.217
1021.637
1021.019
1020.368
1019.699
1019.018
1018.327
1015.396
1014.576
1013.744
1012.904
1012.054
1011.18
1010.267
1016.211
1015.41
1014.594
1013.766
1012.929
1012.079
1011.189
1010.21
1017.033
1016.253
1015.456
1014.644
1013.82
1012.982
1012.118
1011.185
1010.057
1017.869
1017.111
1016.336
1015.543
1014.735
1013.912
1013.064
1012.172
1011.16
1009.759
1018.728
1017.994
1017.242
1016.471
1015.682
1014.876
1014.045
1013.178
1012.237
1011.094
1009.359
1019.604
1018.895
1018.167
1017.418
1016.651
1015.865
1015.054
1014.21
1013.312
1012.297
1011.007
1008.863
1020.45
1019.765
1019.061
1018.336
1017.592
1016.829
1016.041
1015.224
1014.364
1013.429
1012.343
1010.913
1008.299
1021.234
1020.574
1019.894
1019.193
1018.472
1017.732
1016.969
1016.179
1015.356
1014.482
1013.505
1012.366
1010.819
1007.827
1021.947
1021.312
1020.656
1019.978
1019.281
1018.564
1017.824
1017.061
1016.27
1015.443
1014.535
1013.533
1012.374
1010.768
1007.537
1022.588
1021.977
1021.345
1020.691
1020.017
1019.322
1018.605
1017.866
1017.102
1016.311
1015.454
1014.528
1013.534
1012.382
1010.779
1007.661
1023.157
1022.57
1021.962
1021.331
1020.68
1020.009
1019.314
1018.597
1017.858
1017.095
1016.273
1015.398
1014.489
1013.517
1012.398
1010.952
1008.155
1023.656
1023.093
1022.508
1021.901
1021.273
1020.624
1019.952
1019.257
1018.54
1017.801
1017.007
1016.168
1015.311
1014.426
1013.487
1012.448
1011.241
1008.787
1024.086
1023.546
1022.985
1022.401
1021.797
1021.17
1020.521
1019.848
1019.153
1018.436
1017.667
1016.857
1016.036
1015.202
1014.347
1013.443
1012.532
1011.53
1009.518
1024.451
1023.935
1023.397
1022.837
1022.255
1021.652
1021.025
1020.375
1019.702
1019.006
1018.263
1017.48
1016.688
1015.887
1015.079
1014.237
1013.414
1012.621
1011.792
1010.302
1024.763
1024.271
1023.756
1023.22
1022.662
1022.082
1021.478
1020.851
1020.2
1019.527
1018.808
1018.051
1017.283
1016.506
1015.726
1014.911
1014.142
1013.407
1012.697
1012.003
1011.1
1025.052
1024.584
1024.093
1023.581
1023.047
1022.49
1021.91
1021.305
1020.678
1020.027
1019.334
1018.599
1017.847
1017.079
1016.301
1025.361
1024.917
1024.451
1023.963
1023.452
1022.92
1022.363
1021.783
1021.178
1020.551
1019.884
1019.178
1018.454
1017.719
1016.977
1025.693
1025.273
1024.831
1024.366
1023.88
1023.372
1022.839
1022.282
1021.702
1021.098
1020.456
1019.777
1019.081
1018.373
1017.658
1026.034
1025.638
1025.22
1024.78
1024.317
1023.833
1023.324
1022.792
1022.236
1021.655
1021.037
1020.383
1019.712
1019.026
1018.332
1026.376
1026.004
1025.61
1025.193
1024.755
1024.294
1023.81
1023.301
1022.769
1022.213
1021.618
1020.986
1020.336
1019.671
1018.993
1016.188
1015.386
1014.57
1013.743
1012.909
1012.066
1011.196
1010.286
1016.981
1016.2
1015.403
1014.592
1013.769
1012.938
1012.091
1011.204
1010.23
1017.779
1017.021
1016.244
1015.452
1014.645
1013.826
1012.991
1012.13
1011.2
1010.078
1018.59
1017.855
1017.101
1016.33
1015.541
1014.738
1013.917
1013.071
1012.183
1011.175
1009.876
1019.423
1018.713
1017.982
1017.233
1016.466
1015.682
1014.877
1014.048
1013.183
1012.246
1011.162
1009.638
1020.273
1019.588
1018.882
1018.156
1017.411
1016.647
1015.862
1015.052
1014.21
1013.313
1012.322
1011.115
1009.146
1021.092
1020.432
1019.75
1019.048
1018.327
1017.586
1016.823
1016.036
1015.22
1014.361
1013.425
1012.371
1011.008
1008.545
1021.852
1021.216
1020.559
1019.881
1019.183
1018.465
1017.725
1016.962
1016.173
1015.351
1014.459
1013.488
1012.386
1010.906
1008.034
1022.54
1021.929
1021.296
1020.642
1019.968
1019.273
1018.556
1017.816
1017.053
1016.263
1015.41
1014.493
1013.515
1012.391
1010.849
1007.904
1023.157
1022.57
1021.962
1021.331
1020.68
1020.009
1019.314
1018.597
1017.858
1017.095
1016.273
1015.398
1014.489
1013.517
1012.398
1010.952
1008.155
1023.703
1023.14
1022.555
1021.949
1021.321
1020.672
1020
1019.306
1018.589
1017.85
1017.055
1016.212
1015.35
1014.456
1013.503
1012.436
1011.179
1008.576
1024.179
1023.639
1023.078
1022.495
1021.891
1021.265
1020.616
1019.944
1019.249
1018.533
1017.762
1016.946
1016.117
1015.272
1014.4
1013.464
1012.505
1011.423
1009.137
1024.585
1024.07
1023.532
1022.973
1022.392
1021.789
1021.163
1020.513
1019.841
1019.146
1018.398
1017.609
1016.808
1015.996
1015.172
1014.298
1013.427
1012.581
1011.664
1009.793
1024.927
1024.435
1023.921
1023.385
1022.828
1022.248
1021.645
1021.018
1020.368
1019.695
1018.972
1018.208
1017.433
1016.649
1015.857
1015.02
1014.196
1013.412
1012.656
1011.879
1010.5
1025.216
1024.748
1024.258
1023.746
1023.212
1022.656
1022.076
1021.472
1020.845
1020.194
1019.497
1018.758
1018.005
1017.241
1016.471
1015.65
1014.874
1014.132
1013.412
1012.718
1012.05
1011.216
1025.482
1025.038
1024.572
1024.084
1023.573
1023.041
1022.484
1021.904
1021.3
1020.673
1020.001
1019.283
1018.545
1017.788
1017.013
1025.769
1025.349
1024.907
1024.442
1023.956
1023.447
1022.915
1022.358
1021.778
1021.174
1020.528
1019.84
1019.133
1018.409
1017.675
1026.077
1025.681
1025.263
1024.822
1024.36
1023.875
1023.367
1022.834
1022.278
1021.698
1021.078
1020.418
1019.739
1019.045
1018.341
1026.394
1026.022
1025.628
1025.212
1024.774
1024.313
1023.828
1023.32
1022.788
1022.232
1021.636