/*--------------------------------*- C++ -*----------------------------------*\
| =========                 |                                                 |
| \\      /  F ield         | OpenFOAM: The Open Source CFD Toolbox           |
|  \\    /   O peration     | Version:  2306                                  |
|   \\  /    A nd           | Website:  www.openfoam.com                      |
|    \\/     M anipulation  |                                                 |
\*---------------------------------------------------------------------------*/
FoamFile
{
    version     2.0;
    format      ascii;
    arch        "LSB;label=32;scalar=64";
    class       volVectorField;
    location    "0.3/fuel";
    object      U;
}
// * * * * * * * * * * * * * * * * * * * * * * * * * * * * * * * * * * * * * //

dimensions      [0 1 -1 0 0 0 0];

internalField   nonuniform List<vector> 
16000
(
(9.152007e-05 6.685197e-05 -0.004462653)
(9.155021e-05 0.0001839162 -0.004530263)
(0.0001642774 6.682338e-05 -0.00367587)
(8.958711e-05 7.121485e-05 -0.01410618)
(9.190718e-05 0.000326981 -0.004667262)
(0.0001635995 0.0001874439 -0.003715652)
(8.950802e-05 0.0001943592 -0.01431798)
(0.0001275814 5.958216e-05 -0.003035872)
(0.0001606008 6.9934e-05 -0.01163629)
(8.292523e-05 7.741321e-05 -0.02088226)
(9.183418e-05 0.0004059652 -0.004877897)
(0.0001627172 0.0003291829 -0.003794815)
(8.964165e-05 0.0003448989 -0.01474695)
(0.0001261562 0.0001680425 -0.003062784)
(0.0001597526 0.0001945231 -0.01176118)
(8.261208e-05 0.0002117491 -0.0211936)
(9.574163e-05 5.219567e-05 -0.002564724)
(0.0001247139 6.197091e-05 -0.009622999)
(0.0001484248 7.371249e-05 -0.01724502)
(7.49874e-05 8.248248e-05 -0.03422342)
(9.332948e-05 0.0005946675 -0.005154888)
(0.0001602799 0.0004191377 -0.003913469)
(8.920589e-05 0.0004304226 -0.01540651)
(0.0001236142 0.0002933087 -0.003115879)
(0.0001585256 0.0003411762 -0.0120096)
(8.225995e-05 0.0003744281 -0.02182408)
(9.441658e-05 0.0001475926 -0.002584358)
(0.0001231907 0.0001733265 -0.009707629)
(0.0001472332 0.0002047026 -0.0174289)
(7.439989e-05 0.0002319784 -0.03473151)
(7.31376e-05 4.604847e-05 -0.002209005)
(9.361854e-05 5.411433e-05 -0.008138534)
(0.0001152068 6.459549e-05 -0.0142755)
(0.0001343001 7.634559e-05 -0.02828335)
(6.218146e-05 0.0001029581 -0.02779992)
(9.1244e-05 0.0004732576 -0.005468117)
(0.0001597283 0.0005870711 -0.004063294)
(9.022009e-05 0.0006255003 -0.01627372)
(0.0001189407 0.0003753393 -0.003194542)
(0.0001555341 0.0004350715 -0.0123821)
(8.105288e-05 0.0004717779 -0.0227934)
(9.199318e-05 0.0002567458 -0.002622858)
(0.0001204551 0.0003022209 -0.009874529)
(0.0001452995 0.0003581162 -0.01779466)
(7.347853e-05 0.0004087834 -0.03576011)
(7.204066e-05 0.0001304171 -0.002224001)
(9.222953e-05 0.0001517481 -0.008200359)
(0.0001135126 0.000180204 -0.01440026)
(0.0001327103 0.0002165769 -0.02858367)
(6.09783e-05 0.000287701 -0.02821164)
(5.768244e-05 4.100479e-05 -0.001931664)
(7.151087e-05 4.763901e-05 -0.007016356)
(8.653099e-05 5.607227e-05 -0.01208334)
(0.000104167 6.619033e-05 -0.02343)
(0.0001106164 9.031877e-05 -0.02297963)
(0.0005313678 0.0009413513 -0.0553643)
(9.413621e-05 0.0001382434 -0.005694158)
(0.000152604 0.0004793223 -0.004226918)
(8.75225e-05 0.0005004867 -0.01725635)
(0.0001146695 0.0005165859 -0.003291884)
(0.0001542641 0.0006068756 -0.01285261)
(8.100354e-05 0.0006755343 -0.02406772)
(8.773994e-05 0.0003293135 -0.002679406)
(0.0001154762 0.0003870436 -0.01012194)
(0.0001411982 0.000458063 -0.01834318)
(7.1368e-05 0.000519875 -0.03734259)
(7.001608e-05 0.0002263289 -0.002253268)
(8.968097e-05 0.000263736 -0.008321539)
(0.0001104323 0.0003135608 -0.01464632)
(0.000129957 0.0003778842 -0.02918073)
(5.879327e-05 0.0005042134 -0.02904611)
(5.677734e-05 0.0001162575 -0.001943497)
(7.03692e-05 0.0001338044 -0.007063628)
(8.504044e-05 0.0001567608 -0.01217457)
(0.0001022741 0.0001882436 -0.02363391)
(0.0001080839 0.0002534211 -0.02322286)
(0.0005195881 0.002670974 -0.05618641)
(4.66356e-05 3.681878e-05 -0.001709706)
(5.639996e-05 4.235431e-05 -0.006140533)
(6.607715e-05 4.916505e-05 -0.01042459)
(7.829437e-05 5.71149e-05 -0.01984495)
(8.560562e-05 7.664751e-05 -0.01904081)
(0.0009463716 0.0008194508 -0.04576546)
(0.0005455579 0.0009711697 -0.03907333)
(9.572361e-05 7.418076e-05 -0.005834151)
(0.0001549476 0.0001814852 -0.004337269)
(8.999912e-05 0.000154372 -0.01796242)
(0.000105191 0.0004239725 -0.003396687)
(0.0001462292 0.0004962005 -0.01336817)
(7.705657e-05 0.000545979 -0.02551217)
(8.355334e-05 0.0004489664 -0.002748312)
(0.0001108302 0.0005310879 -0.01042826)
(0.0001384223 0.0006337816 -0.01903613)
(7.007414e-05 0.0007337186 -0.03942456)
(6.652249e-05 0.0002906768 -0.002295957)
(8.523152e-05 0.0003384254 -0.008499645)
(0.0001049271 0.0004022041 -0.01501116)
(0.0001245689 0.0004848881 -0.03007687)
(5.464112e-05 0.0006509007 -0.03032986)
(5.509809e-05 0.0002013828 -0.001966503)
(6.825766e-05 0.000232017 -0.007155846)
(8.228903e-05 0.000271945 -0.01235341)
(9.879316e-05 0.0003268245 -0.0240358)
(0.000103415 0.0004401288 -0.02370718)
(0.0004977543 0.004677241 -0.05784955)
(4.588019e-05 0.0001044684 -0.001719284)
(5.546202e-05 0.0001190917 -0.006177869)
(6.486882e-05 0.0001376303 -0.01049441)
(7.668563e-05 0.0001626307 -0.01999415)
(8.318599e-05 0.0002153309 -0.0192059)
(0.0009222087 0.002330921 -0.04625138)
(0.000532825 0.002828245 -0.03965713)
(3.855692e-05 3.330335e-05 -0.001528177)
(4.559987e-05 3.798453e-05 -0.00543897)
(5.210955e-05 4.358145e-05 -0.009128979)
(5.975832e-05 4.987388e-05 -0.01713074)
(6.446893e-05 6.535901e-05 -0.01613103)
(0.0007319986 0.0006931674 -0.03792471)
(0.0009757549 0.0008441991 -0.03228507)
(0.000532837 0.001004498 -0.04336834)
(9.706806e-05 1.755098e-05 -0.005910202)
(0.0001559735 0.0001022729 -0.004403355)
(9.13197e-05 8.354005e-05 -0.0183992)
(0.0001037224 0.0001710896 -0.003463928)
(0.0001479796 0.0001907609 -0.01371417)
(7.857687e-05 0.0001849111 -0.02654845)
(7.549373e-05 0.0003692783 -0.00282178)
(0.0001008765 0.0004361224 -0.01075944)
(0.0001286433 0.0005196717 -0.01979609)
(6.466551e-05 0.0005988566 -0.04179241)
(6.299054e-05 0.0003937315 -0.00234731)
(8.080968e-05 0.0004602419 -0.00871681)
(9.959625e-05 0.0005485692 -0.01546302)
(0.0001200475 0.0006651794 -0.03120976)
(5.061213e-05 0.0008980493 -0.03202056)
(5.222953e-05 0.0002588393 -0.001999867)
(6.462824e-05 0.0002980512 -0.007290455)
(7.753319e-05 0.0003492746 -0.01261634)
(9.267609e-05 0.0004199351 -0.02463225)
(9.496145e-05 0.000567978 -0.02443389)
(0.0004569331 0.00605223 -0.06041559)
(4.447383e-05 0.0001806906 -0.001737851)
(5.371923e-05 0.0002061368 -0.006250428)
(6.2625e-05 0.0002382484 -0.01063062)
(7.369799e-05 0.0002815646 -0.02028641)
(7.865898e-05 0.0003723578 -0.01953189)
(0.0008770565 0.004045232 -0.04721625)
(0.0005091325 0.004952005 -0.04083813)
(3.791853e-05 9.454632e-05 -0.001536091)
(4.481948e-05 0.0001068883 -0.005469218)
(5.112522e-05 0.0001221091 -0.00918416)
(5.84723e-05 0.0001421171 -0.01724499)
(6.252217e-05 0.0001837051 -0.0162518)
(0.0007095519 0.001973084 -0.0382547)
(0.0009499099 0.002460979 -0.03263029)
(0.0005195331 0.002877862 -0.04401838)
(3.242527e-05 3.031113e-05 -0.001377122)
(3.770491e-05 3.432477e-05 -0.00486473)
(4.212935e-05 3.899569e-05 -0.008090432)
(4.711753e-05 4.40742e-05 -0.01500966)
(4.913089e-05 5.660593e-05 -0.01392779)
(0.0005515473 0.000589938 -0.03213345)
(0.0007545855 0.0007136366 -0.02674441)
(0.0009495452 0.0008686567 -0.03582726)
(0.0005201079 0.001011027 -0.04404022)
(9.764262e-05 5.937188e-06 -0.005943007)
(0.0001573498 3.601351e-05 -0.004438425)
(9.252303e-05 2.198801e-05 -0.01863641)
(0.0001024311 9.753174e-05 -0.003502947)
(0.000148626 0.000107551 -0.01392128)
(7.929225e-05 0.000101399 -0.02718903)
(7.36095e-05 0.0001536343 -0.002866913)
(9.913196e-05 0.0001774702 -0.01097072)
(0.0001290811 0.0002057553 -0.02030554)
(6.506949e-05 0.0002203732 -0.04348344)
(5.654709e-05 0.0003242162 -0.002401673)
(7.244945e-05 0.0003786182 -0.008949459)
(8.887817e-05 0.0004509973 -0.01595204)
(0.0001082467 0.0005470592 -0.03245742)
(4.177797e-05 0.0007446761 -0.03394015)
(4.928492e-05 0.0003489031 -0.002039553)
(6.09359e-05 0.0004028539 -0.00745249)
(7.271979e-05 0.0004726165 -0.01293704)
(8.654938e-05 0.0005690207 -0.02537145)
(8.642001e-05 0.0007677185 -0.02535347)
(0.0004159192 0.008318546 -0.06379486)
(4.208884e-05 0.0002323526 -0.001764643)
(5.075166e-05 0.0002649771 -0.006355731)
(5.879746e-05 0.0003062084 -0.01082951)
(6.858523e-05 0.0003619876 -0.0207165)
(7.090172e-05 0.0004799697 -0.02001548)
(0.0007960313 0.00522536 -0.0486695)
(0.0004650498 0.006412525 -0.04268494)
(3.672711e-05 0.0001633259 -0.001551394)
(4.336492e-05 0.0001847466 -0.005527822)
(4.929088e-05 0.0002110295 -0.009291407)
(5.607421e-05 0.0002455624 -0.01746769)
(5.886977e-05 0.0003168801 -0.01648887)
(0.0006672207 0.003409691 -0.03890408)
(0.0009015017 0.004270453 -0.03331599)
(0.0004946601 0.005037688 -0.04533317)
(3.187938e-05 8.6087e-05 -0.001383772)
(3.704694e-05 9.664579e-05 -0.004889741)
(4.131534e-05 0.0001093301 -0.008135164)
(4.607906e-05 0.0001256525 -0.01510001)
(4.761095e-05 0.0001591434 -0.01402025)
(0.000533634 0.001679699 -0.03237502)
(0.0007307878 0.002080667 -0.02697896)
(0.0009228064 0.00249235 -0.03621178)
(0.0005062209 0.002929798 -0.04470589)
(2.769037e-05 2.773913e-05 -0.001249579)
(3.171331e-05 3.121641e-05 -0.004386533)
(3.484167e-05 3.517438e-05 -0.007239841)
(3.808933e-05 3.934272e-05 -0.01330862)
(3.871257e-05 4.971431e-05 -0.01220578)
(0.0004201705 0.0005102283 -0.0277487)
(0.0005686649 0.0006070212 -0.02265407)
(0.0007340934 0.0007327352 -0.0296746)
(0.000928311 0.0008713634 -0.03637151)
(0.0005454971 0.001130928 -0.03723515)
(9.764262e-05 -5.937184e-06 -0.005943007)
(0.0001579287 1.143232e-05 -0.00445334)
(9.303624e-05 7.275461e-06 -0.0187387)
(0.0001023203 3.674296e-05 -0.003523051)
(0.0001498041 3.843307e-05 -0.01403127)
(8.016313e-05 3.090777e-05 -0.0275368)
(7.214108e-05 8.807151e-05 -0.002892313)
(9.766489e-05 0.0001011079 -0.01109329)
(0.0001289021 0.0001161116 -0.0206105)
(6.507922e-05 0.0001221276 -0.0445276)
(5.483477e-05 0.0001374713 -0.002433711)
(7.040207e-05 0.0001583777 -0.009091462)
(8.658639e-05 0.0001866025 -0.01626376)
(0.0001071649 0.0002232439 -0.03328879)
(3.980594e-05 0.0003084996 -0.0353155)
(4.408336e-05 0.0002874885 -0.002081339)
(5.428632e-05 0.0003317082 -0.007624932)
(6.392848e-05 0.0003889354 -0.01328099)
(7.494248e-05 0.0004684025 -0.02617535)
(6.960584e-05 0.0006347549 -0.02636289)
(0.0003307737 0.006915509 -0.06769899)
(3.961553e-05 0.0003120049 -0.001796195)
(4.769149e-05 0.0003564973 -0.006481079)
(5.485537e-05 0.0004120775 -0.01106901)
(6.331585e-05 0.0004871226 -0.02124144)
(6.273373e-05 0.0006428124 -0.02061539)
(0.0007124881 0.007043518 -0.05050732)
(0.0004203073 0.008808223 -0.04509888)
(3.471784e-05 0.0002100834 -0.001573382)
(4.090497e-05 0.0002375718 -0.005612455)
(4.618713e-05 0.000271329 -0.009447107)
(5.20155e-05 0.000315783 -0.0177932)
(5.272088e-05 0.0004081663 -0.01683755)
(0.0005949636 0.004397572 -0.03987172)
(0.0008148451 0.005518072 -0.03436881)
(0.0004486659 0.006531405 -0.04739807)
(3.085877e-05 0.0001485551 -0.001396606)
(3.581787e-05 0.000166843 -0.00493808)
(3.979477e-05 0.0001886911 -0.00822184)
(4.413782e-05 0.0002167805 -0.01527544)
(4.475576e-05 0.0002740348 -0.01420092)
(0.0004998006 0.00289561 -0.03284728)
(0.0006858616 0.003595276 -0.02744076)
(0.0008725708 0.004323957 -0.03697536)
(0.0004801408 0.005127883 -0.04604918)
(2.721875e-05 7.880697e-05 -0.001255245)
(3.115171e-05 8.793205e-05 -0.004407564)
(3.415854e-05 9.866322e-05 -0.007276849)
(3.723607e-05 0.0001122012 -0.0133819)
(3.750382e-05 0.0001397905 -0.01227889)
(0.0004062361 0.001452951 -0.02793376)
(0.0005497233 0.001770068 -0.02282583)
(0.0007098191 0.002103078 -0.02993593)
(0.0009007077 0.002526859 -0.036766)
(0.0005297272 0.003246605 -0.03779324)
(2.39422e-05 2.550427e-05 -0.001140542)
(2.708784e-05 2.85491e-05 -0.003982491)
(2.931281e-05 3.194175e-05 -0.006531116)
(3.150717e-05 3.541993e-05 -0.01191481)
(3.128158e-05 4.416264e-05 -0.01082459)
(0.0003310205 0.0004476385 -0.02432168)
(0.0004331529 0.0005247767 -0.01955841)
(0.0005533979 0.0006225756 -0.02513361)
(0.0007174812 0.0007339598 -0.03011841)
(0.0009708789 0.0009692043 -0.03074223)
(0.004527107 0.0105276 -0.09773189)
(9.706806e-05 -1.755099e-05 -0.005910202)
(0.0001579287 -1.143232e-05 -0.00445334)
(9.303624e-05 -7.275457e-06 -0.0187387)
(0.0001022574 1.159732e-05 -0.00353141)
(0.0001502969 1.216075e-05 -0.01407806)
(8.053227e-05 9.9484e-06 -0.02768674)
(7.176956e-05 3.419414e-05 -0.002904986)
(9.746541e-05 3.833702e-05 -0.01115654)
(0.0001296279 4.264561e-05 -0.02077253)
(6.556295e-05 4.12541e-05 -0.04509436)
(5.35405e-05 7.908221e-05 -0.002451177)
(6.883023e-05 9.069741e-05 -0.009171358)
(8.478026e-05 0.0001061873 -0.01644467)
(0.0001060308 0.000126098 -0.033786)
(3.830303e-05 0.0001732585 -0.03616428)
(4.260028e-05 0.0001235175 -0.002104981)
(5.24672e-05 0.0001411731 -0.007725823)
(6.158291e-05 0.0001644837 -0.01349078)
(7.201499e-05 0.0001972882 -0.02668412)
(6.517157e-05 0.0002725209 -0.02703919)
(0.0003087836 0.002916822 -0.0704269)
(3.534492e-05 0.0002571759 -0.001829279)
(4.234061e-05 0.0002936835 -0.00661382)
(4.793359e-05 0.0003392589 -0.01132418)
(5.402206e-05 0.0004010345 -0.02180752)
(4.859231e-05 0.000530353 -0.02126492)
(0.0005533193 0.005829258 -0.05257557)
(0.0003288623 0.007327407 -0.04815886)
(3.261894e-05 0.0002812295 -0.001599042)
(3.8345e-05 0.0003184657 -0.005712196)
(4.295726e-05 0.0003636281 -0.009632519)
(4.778211e-05 0.0004229087 -0.01818543)
(4.619164e-05 0.0005437731 -0.01726354)
(0.0005183063 0.005876115 -0.04107102)
(0.0007249791 0.007435546 -0.0356886)
(0.0004013355 0.008963066 -0.05009419)
(2.914522e-05 0.000191115 -0.001414977)
(3.37501e-05 0.0002145972 -0.005007587)
(3.723718e-05 0.0002426558 -0.008347053)
(4.087497e-05 0.0002787962 -0.0155304)
(3.998755e-05 0.0003527836 -0.0144648)
(0.0004429957 0.003731057 -0.03354544)
(0.0006092526 0.004637854 -0.02814536)
(0.0007829859 0.005590215 -0.03815489)
(0.000432176 0.006655528 -0.048187)
(2.633581e-05 0.0001358688 -0.001266165)
(3.010096e-05 0.000151645 -0.004448131)
(3.288028e-05 0.0001700915 -0.007348383)
(3.563832e-05 0.000193334 -0.01352375)
(3.523146e-05 0.0002403889 -0.01242123)
(0.0003798987 0.00250045 -0.02829371)
(0.0005139206 0.003051152 -0.02316188)
(0.0006639399 0.00363335 -0.03045032)
(0.0008486966 0.00438327 -0.03754703)
(0.0004997687 0.005681707 -0.03892978)
(2.353091e-05 7.247487e-05 -0.00114543)
(2.660337e-05 8.044572e-05 -0.004000424)
(2.873188e-05 8.962751e-05 -0.006562251)
(3.079464e-05 0.0001010381 -0.01197546)
(3.029968e-05 0.0001241924 -0.01088388)
(0.0003199665 0.001274823 -0.0244681)
(0.0004184363 0.001530381 -0.01969006)
(0.0005341594 0.001787143 -0.02532505)
(0.0006927232 0.002128533 -0.0303869)
(0.0009398552 0.002784289 -0.03107145)
(0.00437889 0.03037168 -0.09936792)
(2.093375e-05 2.354737e-05 -0.001046329)
(2.342654e-05 2.623477e-05 -0.003636852)
(2.504775e-05 2.91766e-05 -0.005931983)
(2.651615e-05 3.211481e-05 -0.01075295)
(2.588897e-05 3.960423e-05 -0.009692687)
(0.0002674533 0.0003973205 -0.0215728)
(0.0003412281 0.0004602476 -0.01713972)
(0.0004214332 0.0005378171 -0.02169758)
(0.0005410432 0.0006230537 -0.02550505)
(0.0007500841 0.0008144138 -0.0254509)
(0.008045593 0.00893292 -0.08064941)
(0.004659428 0.01046966 -0.01002055)
(9.572361e-05 -7.418077e-05 -0.005834151)
(0.0001573498 -3.601351e-05 -0.004438425)
(9.252303e-05 -2.198801e-05 -0.01863641)
(0.0001022574 -1.159732e-05 -0.00353141)
(0.0001502969 -1.216075e-05 -0.01407806)
(8.053227e-05 -9.948397e-06 -0.02768674)
(7.159463e-05 1.077374e-05 -0.002910117)
(9.736381e-05 1.207501e-05 -0.01118285)
(0.0001299247 1.341422e-05 -0.02084149)
(6.576442e-05 1.304868e-05 -0.04533872)
(5.315222e-05 3.126851e-05 -0.002459576)
(6.840802e-05 3.533682e-05 -0.009211293)
(8.439548e-05 4.078211e-05 -0.0165381)
(0.0001062338 4.755837e-05 -0.03405025)
(3.79819e-05 6.576179e-05 -0.03662497)
(4.149635e-05 7.122805e-05 -0.002117439)
(5.11055e-05 8.110944e-05 -0.007780796)
(5.982916e-05 9.400156e-05 -0.01360888)
(6.981495e-05 0.0001121347 -0.02697913)
(6.191002e-05 0.0001541486 -0.02744353)
(0.0002925905 0.001640996 -0.07210771)
(3.406872e-05 0.0001115605 -0.001847258)
(4.078307e-05 0.0001265081 -0.006688311)
(4.593134e-05 0.0001454812 -0.01147338)
(5.132921e-05 0.0001716473 -0.02214993)
(4.413743e-05 0.0002304999 -0.02167901)
(0.0005076445 0.002525363 -0.05390818)
(0.0003042935 0.003103023 -0.05000721)
(2.90568e-05 0.0002318492 -0.001625865)
(3.396178e-05 0.0002624178 -0.005817429)
(3.742287e-05 0.0002994226 -0.009829088)
(4.054248e-05 0.0003481311 -0.01860583)
(3.532383e-05 0.0004479863 -0.01772041)
(0.0003874504 0.004850351 -0.0424103)
(0.0005552209 0.006154742 -0.03738874)
(0.0003065579 0.007464018 -0.05362382)
(2.734545e-05 0.000255185 -0.001436243)
(3.158412e-05 0.0002868207 -0.005088769)
(3.455676e-05 0.0003241382 -0.008494682)
(3.744689e-05 0.000372015 -0.01583418)
(3.49047e-05 0.0004682634 -0.01478307)
(0.0003823835 0.004960563 -0.03439746)
(0.0005277999 0.006195893 -0.02901019)
(0.000689237 0.007529059 -0.03963195)
(0.0003822245 0.009128863 -0.05096314)
(2.485897e-05 0.0001748095 -0.001281745)
(2.834062e-05 0.000195072 -0.004506248)
(3.074013e-05 0.000218757 -0.007451275)
(3.296653e-05 0.0002486407 -0.01372888)
(3.145613e-05 0.0003093271 -0.0126279)
(0.0003360158 0.003219655 -0.02882246)
(0.0004538498 0.003932 -0.02367248)
(0.0005858327 0.004688545 -0.03124098)
(0.0007562355 0.005669718 -0.03877605)
(0.0004450484 0.007385623 -0.04072757)
(2.276009e-05 0.0001248535 -0.001154839)
(2.569582e-05 0.0001386126 -0.004034962)
(2.764348e-05 0.0001543677 -0.006622313)
(2.945881e-05 0.00017392 -0.01209258)
(2.845279e-05 0.0002133372 -0.01099898)
(0.0002990633 0.002191039 -0.02475173)
(0.0003906029 0.002633519 -0.01994635)
(0.0004977686 0.003080096 -0.02569947)
(0.000645869 0.00367697 -0.03091353)
(0.0008809051 0.004829317 -0.03173146)
(0.004078696 0.05310705 -0.1025158)
(2.057238e-05 6.692629e-05 -0.00105059)
(2.300455e-05 7.394347e-05 -0.003652331)
(2.454811e-05 8.189096e-05 -0.005958544)
(2.591261e-05 9.162557e-05 -0.01080401)
(2.507633e-05 0.0001113811 -0.009741762)
(0.0002584906 0.001131577 -0.02169163)
(0.0003295629 0.001342269 -0.01724393)
(0.0004065151 0.00154394 -0.02184435)
(0.000521494 0.001806997 -0.02570199)
(0.0007226885 0.002339812 -0.0256742)
(0.007757906 0.02576533 -0.0816519)
(0.004512657 0.03052856 -0.01044702)
(1.847299e-05 2.182156e-05 -0.0009641844)
(2.048833e-05 2.421068e-05 -0.003338022)
(2.16725e-05 2.678385e-05 -0.005419204)
(2.267014e-05 2.92968e-05 -0.009770346)
(2.18064e-05 3.579366e-05 -0.008749013)
(0.0002213767 0.0003560711 -0.0193199)
(0.0002756898 0.0004084031 -0.01520018)
(0.000331966 0.0004714147 -0.01901334)
(0.0004119439 0.0005378792 -0.02201531)
(0.0005658952 0.0006904439 -0.02154865)
(0.006211054 0.007474135 -0.06674142)
(0.00830456 0.008907233 -0.008227772)
(0.004501572 0.01076213 -0.02880836)
(9.413621e-05 -0.0001382434 -0.005694158)
(0.0001559735 -0.0001022729 -0.004403355)
(9.13197e-05 -8.354006e-05 -0.0183992)
(0.0001023203 -3.674296e-05 -0.003523051)
(0.0001498041 -3.843307e-05 -0.01403127)
(8.016313e-05 -3.090777e-05 -0.0275368)
(7.159463e-05 -1.077374e-05 -0.002910117)
(9.736381e-05 -1.207501e-05 -0.01118285)
(0.0001299247 -1.341422e-05 -0.02084149)
(6.576442e-05 -1.304868e-05 -0.04533872)
(5.297202e-05 9.844377e-06 -0.002462864)
(6.821105e-05 1.11145e-05 -0.009227476)
(8.42134e-05 1.279302e-05 -0.01657701)
(0.0001063043 1.487657e-05 -0.03416277)
(3.783442e-05 2.042893e-05 -0.03682362)
(4.113748e-05 2.851542e-05 -0.002123178)
(5.068493e-05 3.213136e-05 -0.007807286)
(5.930853e-05 3.688665e-05 -0.013668)
(6.921501e-05 4.364484e-05 -0.02713156)
(6.099129e-05 6.061661e-05 -0.02765846)
(0.0002882469 0.0006321308 -0.07301993)
(3.312779e-05 6.444292e-05 -0.001856397)
(3.963231e-05 7.285018e-05 -0.006727531)
(4.445951e-05 8.337086e-05 -0.01155473)
(4.936347e-05 9.788245e-05 -0.02234251)
(4.097209e-05 0.0001307275 -0.02191908)
(0.0004746681 0.001428725 -0.05470246)
(0.0002863601 0.001746523 -0.05113842)
(2.795586e-05 0.0001013075 -0.001639874)
(3.26313e-05 0.0001140413 -0.005874098)
(3.574503e-05 0.0001296626 -0.009939328)
(3.832653e-05 0.0001505478 -0.01884933)
(3.174093e-05 0.000195921 -0.01799927)
(0.0003448755 0.002120841 -0.04322235)
(0.0005054296 0.002670156 -0.03826322)
(0.0002797428 0.0031808 -0.05564606)
(2.433219e-05 0.000210391 -0.001458419)
(2.793433e-05 0.0002363655 -0.005174185)
(3.00441e-05 0.0002669112 -0.008650608)
(3.169788e-05 0.0003061784 -0.01615835)
(2.659908e-05 0.000385347 -0.01512203)
(0.000282486 0.004087543 -0.03534493)
(0.0003892254 0.005114367 -0.03015027)
(0.0005144849 0.006233726 -0.04162224)
(0.0002839123 0.007608397 -0.05489893)
(2.330134e-05 0.0002329112 -0.001299646)
(2.648757e-05 0.00026009 -0.004573575)
(2.848568e-05 0.0002914378 -0.007571499)
(3.014524e-05 0.0003308198 -0.01397087)
(2.742189e-05 0.0004094343 -0.01287441)
(0.0002890651 0.004265679 -0.0294594)
(0.0003896622 0.005227015 -0.02428913)
(0.0005024912 0.006261864 -0.03221045)
(0.000658741 0.007635186 -0.0403053)
(0.0003871992 0.01012785 -0.04307364)
(2.147484e-05 0.0001606434 -0.001168224)
(2.41808e-05 0.0001783172 -0.00408428)
(2.582799e-05 0.0001985384 -0.006708388)
(2.723392e-05 0.0002236604 -0.01226122)
(2.539616e-05 0.0002744085 -0.01116527)
(0.0002644054 0.002819682 -0.02516617)
(0.0003442529 0.003391306 -0.02033465)
(0.0004367776 0.0039702 -0.02627322)
(0.0005662077 0.004746363 -0.03174141)
(0.0007765295 0.006251307 -0.03276122)
(0.003538665 0.06922736 -0.108258)
(1.989458e-05 0.000115215 -0.001058784)
(2.221332e-05 0.0001273122 -0.003682109)
(2.361111e-05 0.0001409282 -0.006009704)
(2.478009e-05 0.0001575804 -0.01090238)
(2.354725e-05 0.0001911614 -0.0098368)
(0.0002415368 0.00194281 -0.02192102)
(0.0003074918 0.002306816 -0.01744601)
(0.000378285 0.002656471 -0.02212998)
(0.0004844813 0.003114064 -0.02608564)
(0.0006705425 0.004041682 -0.02611884)
(0.007182611 0.04465484 -0.08351606)
(0.004214973 0.05380937 -0.01130698)
(1.815329e-05 6.20298e-05 -0.000967931)
(2.011795e-05 6.825237e-05 -0.003351523)
(2.12384e-05 7.519081e-05 -0.005442141)
(2.215275e-05 8.359591e-05 -0.009813922)
(2.112302e-05 0.0001006687 -0.008790316)
(0.0002139703 0.001014126 -0.01941832)
(0.0002662374 0.0011911 -0.01528479)
(0.0003201564 0.00135336 -0.01912956)
(0.0003968107 0.001560015 -0.02216648)
(0.0005443692 0.001983649 -0.02171195)
(0.005963436 0.02155303 -0.06744086)
(0.008018474 0.02596444 -0.008538484)
(0.004347502 0.03116354 -0.02963781)
(1.644015e-05 2.028947e-05 -0.000892005)
(1.808516e-05 2.242732e-05 -0.003077322)
(1.896523e-05 2.46958e-05 -0.004975668)
(1.962761e-05 2.686505e-05 -0.008929023)
(1.867063e-05 3.256528e-05 -0.007950805)
(0.0001865072 0.0003216336 -0.01744147)
(0.0002282037 0.0003659248 -0.01361095)
(0.0002681913 0.000418124 -0.01686109)
(0.0003244658 0.0004712335 -0.01928974)
(0.000430741 0.0005955129 -0.0185977)
(0.004691409 0.006320762 -0.05649199)
(0.006412654 0.007461095 -0.006785519)
(0.008003662 0.00911401 -0.02372469)
(0.004461006 0.01083101 -0.01063554)
(9.1244e-05 -0.0004732576 -0.005468117)
(0.0001549476 -0.0001814852 -0.004337269)
(8.999912e-05 -0.000154372 -0.01796242)
(0.0001024311 -9.753174e-05 -0.003502947)
(0.000148626 -0.000107551 -0.01392128)
(7.929225e-05 -0.0001013991 -0.02718903)
(7.176956e-05 -3.419414e-05 -0.002904986)
(9.746541e-05 -3.833702e-05 -0.01115654)
(0.0001296279 -4.264561e-05 -0.02077253)
(6.556295e-05 -4.12541e-05 -0.04509436)
(5.297202e-05 -9.844377e-06 -0.002462864)
(6.821105e-05 -1.11145e-05 -0.009227476)
(8.42134e-05 -1.279302e-05 -0.01657701)
(0.0001063043 -1.487657e-05 -0.03416277)
(3.783442e-05 -2.042893e-05 -0.03682362)
(4.097172e-05 8.974007e-06 -0.002125331)
(5.049074e-05 1.010041e-05 -0.007817669)
(5.906904e-05 1.156206e-05 -0.01369198)
(6.893947e-05 1.363428e-05 -0.02719509)
(6.057517e-05 1.880172e-05 -0.02775002)
(0.000286291 0.0001959451 -0.07341329)
(3.280627e-05 2.60297e-05 -0.001860401)
(3.92515e-05 2.919189e-05 -0.006745637)
(4.398e-05 3.315932e-05 -0.011594)
(4.872817e-05 3.870733e-05 -0.02243895)
(3.987583e-05 5.206537e-05 -0.02204319)
(0.0004644377 0.0005655629 -0.05512442)
(0.0002812865 0.0006755257 -0.05175211)
(2.714947e-05 5.859211e-05 -0.001646728)
(3.165636e-05 6.577724e-05 -0.005902865)
(3.452302e-05 7.445098e-05 -0.009997415)
(3.672606e-05 8.603499e-05 -0.01898194)
(2.921581e-05 0.0001112741 -0.01815611)
(0.0003148462 0.001202373 -0.04369097)
(0.0004696573 0.001510595 -0.0387759)
(0.0002603854 0.001791475 -0.05687723)
(2.33769e-05 9.244926e-05 -0.001469557)
(2.679241e-05 0.0001034088 -0.005218349)
(2.863097e-05 0.000116419 -0.008734525)
(2.987945e-05 0.0001333814 -0.01633824)
(2.380694e-05 0.0001692026 -0.01532046)
(0.0002488514 0.001795637 -0.03588948)
(0.0003437856 0.002237475 -0.03066811)
(0.0004614791 0.002710168 -0.04256635)
(0.0002548989 0.003257216 -0.05686776)
(2.072198e-05 0.0001920244 -0.001318281)
(2.340432e-05 0.0002143387 -0.00464427)
(2.474131e-05 0.0002399688 -0.007698127)
(2.548103e-05 0.0002722096 -0.01422825)
(2.09086e-05 0.0003366353 -0.01313552)
(0.0002129623 0.003510407 -0.03016628)
(0.0002840971 0.004306783 -0.02511979)
(0.0003614569 0.005168805 -0.03355903)
(0.0004789236 0.006322485 -0.04260179)
(0.000275804 0.008449596 -0.04633427)
(2.011471e-05 0.0002136462 -0.001183498)
(2.257995e-05 0.0002372626 -0.00414099)
(2.39081e-05 0.0002639202 -0.006808143)
(2.487588e-05 0.0002968837 -0.01245837)
(2.212429e-05 0.000362409 -0.01136162)
(0.0002272619 0.003725836 -0.02565978)
(0.00029461 0.004492719 -0.0207973)
(0.0003714561 0.005276943 -0.02696554)
(0.0004809473 0.006339429 -0.03274944)
(0.0006653688 0.008420404 -0.03405069)
(0.002950391 0.09441025 -0.115326)
(1.876736e-05 0.0001482414 -0.001070412)
(2.089639e-05 0.000163782 -0.003724505)
(2.205313e-05 0.0001812498 -0.00608278)
(2.289997e-05 0.0002026297 -0.01104353)
(2.10243e-05 0.0002457994 -0.009973509)
(0.0002135297 0.002499062 -0.02225473)
(0.0002709148 0.002968856 -0.0177516)
(0.0003313166 0.003421397 -0.0225669)
(0.0004225026 0.004014896 -0.02668889)
(0.000582037 0.005219762 -0.02681064)
(0.006173693 0.05787849 -0.08703334)
(0.003670076 0.07028534 -0.01558772)
(1.755324e-05 0.0001067196 -0.0009751326)
(1.942295e-05 0.000117435 -0.003377472)
(2.042371e-05 0.0001293067 -0.005486269)
(2.118122e-05 0.0001436635 -0.00989775)
(1.983682e-05 0.000172648 -0.008870158)
(0.0001999567 0.001739664 -0.01960777)
(0.0002483481 0.002044896 -0.01544834)
(0.0002978024 0.002325576 -0.01935485)
(0.000368152 0.002683951 -0.0224594)
(0.0005034043 0.003418343 -0.02203565)
(0.005471353 0.03720422 -0.06871532)
(0.007445476 0.04534375 -0.009170609)
(0.004035383 0.05566158 -0.03123254)
(1.615544e-05 5.768088e-05 -0.0008953256)
(1.775776e-05 6.323486e-05 -0.0030892)
(1.858499e-05 6.934032e-05 -0.004995681)
(1.917932e-05 7.666372e-05 -0.008966671)
(1.808831e-05 9.159152e-05 -0.007986055)
(0.0001802866 0.0009160554 -0.01752436)
(0.0002203963 0.001067222 -0.01368107)
(0.0002586313 0.001200384 -0.0169555)
(0.0003124995 0.001366734 -0.01940961)
(0.0004141155 0.001710876 -0.01872273)
(0.004498483 0.01822412 -0.05701574)
(0.006164634 0.0217432 -0.007027165)
(0.007706195 0.0263831 -0.02429922)
(0.004304198 0.03146519 -0.01115162)
(1.474263e-05 1.892055e-05 -0.0008281223)
(1.610012e-05 2.084549e-05 -0.002848123)
(1.675137e-05 2.285942e-05 -0.00458856)
(1.718903e-05 2.474781e-05 -0.008201021)
(1.619274e-05 2.979474e-05 -0.007267264)
(0.0001597464 0.0002924886 -0.01585245)
(0.0001922724 0.0003304757 -0.01228615)
(0.0002220149 0.0003744973 -0.01509774)
(0.0002621191 0.0004177984 -0.01710477)
(0.0003392318 0.0005213632 -0.0162935)
(0.003568904 0.005442173 -0.04874545)
(0.004842415 0.006313451 -0.005727895)
(0.006178891 0.00761934 -0.01960825)
(0.007935985 0.009162419 -0.008742888)
(0.004369898 0.0108165 -0.005443177)
(9.332948e-05 -0.0005946675 -0.005154888)
(0.000152604 -0.0004793223 -0.004226918)
(8.75225e-05 -0.0005004867 -0.01725635)
(0.0001037224 -0.0001710896 -0.003463928)
(0.0001479796 -0.0001907609 -0.01371417)
(7.857687e-05 -0.0001849111 -0.02654845)
(7.214108e-05 -8.807151e-05 -0.002892313)
(9.76649e-05 -0.0001011079 -0.01109329)
(0.0001289021 -0.0001161116 -0.0206105)
(6.507922e-05 -0.0001221277 -0.04452761)
(5.315222e-05 -3.126851e-05 -0.002459576)
(6.840802e-05 -3.533682e-05 -0.009211293)
(8.439548e-05 -4.078211e-05 -0.0165381)
(0.0001062338 -4.755837e-05 -0.03405025)
(3.79819e-05 -6.57618e-05 -0.03662497)
(4.097172e-05 -8.974007e-06 -0.002125331)
(5.049074e-05 -1.010041e-05 -0.007817669)
(5.906904e-05 -1.156206e-05 -0.01369198)
(6.893947e-05 -1.363428e-05 -0.02719509)
(6.057517e-05 -1.880172e-05 -0.02775002)
(0.000286291 -0.0001959451 -0.07341329)
(3.265806e-05 8.189626e-06 -0.001861823)
(3.907628e-05 9.173747e-06 -0.006752439)
(4.376053e-05 1.039092e-05 -0.01160941)
(4.843913e-05 1.208843e-05 -0.0224781)
(3.938385e-05 1.615106e-05 -0.02209495)
(0.0004598429 0.000175192 -0.05530406)
(0.0002790108 0.0002092663 -0.05201614)
(2.686441e-05 2.382364e-05 -0.00164956)
(3.131927e-05 2.657585e-05 -0.005915495)
(3.410459e-05 2.989246e-05 -0.01002428)
(3.617772e-05 3.437101e-05 -0.01904598)
(2.829988e-05 4.462e-05 -0.01823472)
(0.0003041528 0.0004807809 -0.04393284)
(0.0004582836 0.0005990087 -0.03904707)
(0.0002545423 0.0006973852 -0.05754601)
(2.268058e-05 5.351574e-05 -0.001474791)
(2.596044e-05 5.971418e-05 -0.005239914)
(2.760789e-05 6.693967e-05 -0.008777155)
(2.857405e-05 7.63427e-05 -0.01643288)
(2.184619e-05 9.618788e-05 -0.01542856)
(0.0002252729 0.001019118 -0.0361938)
(0.0003118035 0.001268226 -0.03095864)
(0.0004236825 0.001533076 -0.04311367)
(0.0002341476 0.001835396 -0.05805276)
(1.988782e-05 8.475445e-05 -0.001327287)
(2.24172e-05 9.425933e-05 -0.004679385)
(2.354057e-05 0.0001052436 -0.007763558)
(2.397114e-05 0.0001192287 -0.01436515)
(1.869268e-05 0.0001482407 -0.01328222)
(0.000186961 0.001546658 -0.03055217)
(0.0002483917 0.001892046 -0.02545746)