/*--------------------------------*- C++ -*----------------------------------*\
| =========                 |                                                 |
| \\      /  F ield         | OpenFOAM: The Open Source CFD Toolbox           |
|  \\    /   O peration     | Version:  2306                                  |
|   \\  /    A nd           | Website:  www.openfoam.com                      |
|    \\/     M anipulation  |                                                 |
\*---------------------------------------------------------------------------*/
FoamFile
{
    version     2.0;
    format      ascii;
    arch        "LSB;label=32;scalar=64";
    class       volScalarField;
    location    "0.3/fuel";
    object      X.H2O;
}
// * * * * * * * * * * * * * * * * * * * * * * * * * * * * * * * * * * * * * //

dimensions      [0 0 0 0 0 0 0];

internalField   nonuniform List<scalar> 
16000
(
0.07479232
0.07333835
0.09488707
0.07470628
0.0704399
0.09373927
0.07325165
0.1170457
0.09480918
0.07453881
0.06618085
0.09145308
0.07035177
0.1160227
0.09366096
0.0730829
0.1383863
0.116975
0.09465735
0.07429316
0.06086404
0.08809543
0.06609028
0.1139847
0.09137386
0.07018027
0.1374432
0.1159517
0.0935083
0.07283539
0.1586052
0.1383213
0.116837
0.0944344
0.07397131
0.05536687
0.08390122
0.06076954
0.110989
0.08801468
0.0659141
0.1355651
0.113913
0.09121946
0.06992879
0.1577261
0.137378
0.115813
0.09328416
0.07251114
0.1777427
0.1585451
0.1381945
0.1166341
0.09414206
0.07365358
0.05130921
0.07954857
0.05526701
0.1072424
0.08381798
0.06058571
0.1328049
0.1109161
0.08785733
0.0656558
0.155976
0.1354994
0.113773
0.09099279
0.06959936
0.1769183
0.1576658
0.1372507
0.1156093
0.09299027
0.07219105
0.1958841
0.1776867
0.1584275
0.1380079
0.1163679
0.09385331
0.07339081
0.04874685
0.07629455
0.05120726
0.1033486
0.07946191
0.05507271
0.1293529
0.1071676
0.08365576
0.0603162
0.1534045
0.1327382
0.1107739
0.08762634
0.06531748
0.1752776
0.1559152
0.1353709
0.1135673
0.09069561
0.06927419
0.1951077
0.176862
0.1575477
0.1370633
0.1153419
0.09270001
0.07192633
0.2131128
0.1958316
0.1775769
0.1582543
0.1377629
0.1161049
0.09361451
0.07313006
0.04728957
0.07420554
0.04864435
0.100433
0.07620685
0.05100892
0.125765
0.103271
0.07929296
0.05478775
0.1501891
0.1292845
0.1070215
0.0834176
0.05996318
0.1728672
0.1533428
0.1326078
0.1105649
0.08732352
0.06498355
0.1935629
0.1752209
0.1557962
0.135182
0.1132974
0.0904021
0.06900515
0.2123792
0.195055
0.1767519
0.1573739
0.1368173
0.1150777
0.09245995
0.07166363
0.2295038
0.2130634
0.1957287
0.1774152
0.1580269
0.1375206
0.1158873
0.09337755
0.07287133
0.04663282
0.07299813
0.04718698
0.09855753
0.07411781
0.04844505
0.1230775
0.1003547
0.07603589
0.05071811
0.1468476
0.1256943
0.1031195
0.07904484
0.05441436
0.169854
0.150126
0.129151
0.1068068
0.08310537
0.05961471
0.1912938
0.1728098
0.1532222
0.1324162
0.1102906
0.08702446
0.0647068
0.2109198
0.1935098
0.17511
0.1556211
0.134934
0.1130307
0.09015928
0.06873805
0.2288088
0.2123296
0.1949518
0.1765897
0.1571457
0.1365741
0.1148592
0.09222173
0.07140295
0.2451232
0.2294571
0.2129665
0.195577
0.1772027
0.1578019
0.1373203
0.1156715
0.09314243
0.07261462
0.04663282
0.07244755
0.04653023
0.09747143
0.07291055
0.04698755
0.1213476
0.09847939
0.07394685
0.04815291
0.1443441
0.1230063
0.1002019
0.07578485
0.05033712
0.1667228
0.1467824
0.1255561
0.1028967
0.07871942
0.05404562
0.1884576
0.1697953
0.1500026
0.1289545
0.1065251
0.08279699
0.05932447
0.2087765
0.1912401
0.1726975
0.1530447
0.1321645
0.1100196
0.08677669
0.06443158
0.2274264
0.2108699
0.1934059
0.1749466
0.1553911
0.1346888
0.1128101
0.08991823
0.0684729
0.2444632
0.228762
0.2122324
0.1947996
0.1763765
0.1569199
0.136373
0.1146423
0.09198534
0.07114431
0.2600288
0.245079
0.2293656
0.2128236
0.1953775
0.1769925
0.1576159
0.1371215
0.1154573
0.09290913
0.07138181
0.04728957
0.07244755
0.04653023
0.09697547
0.07236008
0.04633082
0.120345
0.09739352
0.07273991
0.04669529
0.1427318
0.1212766
0.09832686
0.07369584
0.04777027
0.1643768
0.1442785
0.1228671
0.09997721
0.07545564
0.04996092
0.1855106
0.1666622
0.1466548
0.1253526
0.1026043
0.07839791
0.05373577
0.2060978
0.1884026
0.1696804
0.1498208
0.1286964
0.1062467
0.0825404
0.0590344
0.2253963
0.208726
0.1911348
0.172532
0.1528115
0.1319157
0.1097951
0.08653037
0.0641579
0.2431507
0.2273793
0.2107721
0.1932526
0.1747318
0.1551636
0.1344859
0.1125911
0.08967895
0.0682097
0.2594009
0.2444189
0.2286702
0.2120891
0.1945995
0.1761656
0.1567332
0.1361735
0.1144272
0.0917508
0.06990227
0.2742718
0.2599869
0.2449924
0.2292306
0.2126356
0.1951801
0.1768187
0.1574313
0.1369243
0.1152448
0.09178778
0.07054182
0.04874685
0.07299813
0.04718698
0.09697547
0.07236008
0.04633082
0.1198869
0.09689769
0.07218965
0.04603862
0.1417968
0.1202742
0.09724146
0.07248942
0.04631253
0.1628653
0.1426664
0.1211378
0.09810266
0.07336672
0.04739249
0.1833024
0.1643159
0.1441502
0.1226623
0.09968231
0.07513041
0.0496447
0.2033148
0.1854539
0.1665436
0.1464669
0.1250854
0.1023153
0.07812831
0.05342332
0.2228593
0.2060462
0.1882951
0.1695111
0.1495821
0.1284413
0.1060151
0.08228423
0.0587445
0.2412234
0.2253486
0.208627
0.1909797
0.1723144
0.1525809
0.1317096
0.1095719
0.08628552
0.06388578
0.2581523
0.2431061
0.2272869
0.2106278
0.1930511
0.1745194
0.1549753
0.1342845
0.1123737
0.08944145
0.06694549
0.2736734
0.2593588
0.244332
0.2285348
0.2119005
0.1944014
0.1759911
0.1565479
0.1359754
0.1142137
0.09062343
0.06905241
0.2878979
0.274232
0.2599046
0.2448644
0.2290529
0.2124495
0.1950168
0.1766461
0.1572481
0.1367286
0.1142226
0.09102491
0.0699097
0.05130921
0.07420554
0.04864435
0.09747143
0.07291055
0.04698755
0.1198869
0.09689769
0.07218965
0.04603862
0.1413695
0.1198163
0.09674589
0.07193947
0.04565596
0.1619885
0.1417317
0.120136
0.09701796
0.07216101
0.04593467
0.1818794
0.1628047
0.1425386
0.1209336
0.09780842
0.07304163
0.04707553
0.2012293
0.1832455
0.1641966
0.1439612
0.1223932
0.09939084
0.0748576
0.04932576
0.2202237
0.2032616
0.1853429
0.1663687
0.1462199
0.1248211
0.102073
0.07785703
0.05310825
0.2388151
0.2228106
0.2059451
0.1881365
0.1692886
0.1493459
0.1282291
0.1057838
0.08202849
0.0584548
0.256319
0.2411783
0.2252552
0.208481
0.1907757
0.1720992
0.1523899
0.1315046
0.1093501
0.08604213
0.06257688
0.2724837
0.25811
0.2430187
0.2271506
0.210438
0.1928517
0.1743436
0.1547885
0.1340846
0.1121579
0.08829958
0.06606667
0.2873268
0.2736335
0.2592764
0.2442037
0.2283566
0.2117139
0.1942376
0.175818
0.156364
0.1357789
0.1131869
0.08985386
0.06840996
0.3009481
0.28786
0.2741538
0.2597832
0.244696
0.228877
0.2122956
0.1948548
0.176475
0.1570664
0.1357869
0.1135279
0.09045119
0.06948708
0.05536687
0.07629455
0.05120726
0.09855753
0.07411781
0.04844505
0.120345
0.09739352
0.07273991
0.04669529
0.1413695
0.1198163
0.09674589
0.07193947
0.04565596
0.1615876
0.1413045
0.1196783
0.09652278
0.07161149
0.0452782
0.1810536
0.1619281
0.1416044
0.1199325
0.09672468
0.07183663
0.04561812
0.1998851
0.1818227
0.1626859
0.1423504
0.1206654
0.09751763
0.07276938
0.04675646
0.2182487
0.2011758
0.183134
0.1640208
0.1437128
0.1221271
0.09914634
0.07458302
0.0490041
0.2363133
0.2201736
0.2031572
0.1851792
0.1661387
0.1459756
0.1245995
0.1018291
0.07758403
0.05279054
0.2540284
0.2387691
0.2227152
0.2057959
0.1879279
0.1690684
0.1491495
0.1280172
0.105553
0.08177317
0.05705513
0.2707369
0.2562763
0.2410898
0.2251173
0.2082889
0.1905738
0.1719209
0.1521999
0.1313009
0.1091295
0.0848705
0.06161836
0.2861914
0.2724435
0.258027
0.2428896
0.2269713
0.2102501
0.1926867
0.1741691
0.154603
0.1338861
0.1111196
0.08750989
0.06539043
0.3004024
0.2872887
0.273555
0.2591546
0.2440348
0.2281801
0.2115595
0.1940751
0.1756462
0.1561816
0.1348333
0.1124867
0.08927294
0.06797859
0.313459
0.300912
0.2877854
0.2740382
0.2596232
0.2445293
0.2287315
0.2121429
0.1946941
0.1763051
0.1561915
0.1351474
0.1130056
0.09006781
0.06927536
0.06086404
0.07954857
0.05526701
0.100433
0.07620685
0.05100892
0.1213476
0.09847939
0.07394685
0.04815291
0.1417968
0.1202742
0.09724146
0.07248942
0.04631253
0.1615876
0.1413045
0.1196783
0.09652278
0.07161149
0.0452782
0.180676
0.1615274
0.1411775
0.1194753
0.09623003
0.07128754
0.04496196
0.199105
0.1809972
0.1618099
0.141417
0.1196654
0.09643484
0.07156534
0.04529991
0.2169755
0.199832
0.1817118
0.162511
0.142103
0.1204003
0.0972741
0.07249581
0.04643526
0.2344385
0.2181983
0.2010711
0.1829695
0.1637898
0.1434671
0.1219039
0.09890026
0.07430665
0.04867971
0.2516489
0.2362659
0.2200752
0.2030033
0.1849639
0.1659111
0.1457707
0.1243764
0.1015837
0.07730932
0.05124285
0.2685544
0.2539847
0.2386788
0.2225744
0.2055996
0.1877215
0.1688852
0.1489533
0.1278056
0.1053225
0.08053917
0.05587963
0.2845245
0.2706962
0.2561924
0.2409593
0.2249359
0.2080988
0.1904065
0.1717436
0.1520111
0.1310984
0.1080671
0.08402386
0.060835
0.2993174
0.2861532
0.2723646
0.2579045
0.2427197
0.2267937
0.2100947
0.192523
0.1739959
0.1544189
0.1329308
0.1104025
0.08690491
0.06492838
0.3129368
0.3003661
0.287214
0.2734392
0.2589942
0.2438676
0.2280342
0.2114063
0.1939138
0.1754758
0.1553033
0.134189
0.1119583
0.08888339
0.06776181
0.3254631
0.3134245
0.3008409
0.2876754
0.273886
0.2594648
0.2443913
0.2285871
0.2119914
0.1945346
0.1754873
0.1555976
0.1346665
0.1126566
0.08987583
0.06618085
0.08390122
0.06076954
0.1033486
0.07946191
0.05507271
0.1230775
0.1003547
0.07603589
0.05071811
0.1427318
0.1212766
0.09832686
0.07369584
0.04777027
0.1619885
0.1417317
0.120136
0.09701796
0.07216101
0.04593467
0.180676
0.1615274
0.1411775
0.1194753
0.09623003
0.07128754
0.04496196
0.1987481
0.1806198
0.1614095
0.1409905
0.1192087
0.09594072
0.07101678
0.04464428
0.2162364
0.1990521
0.1808868
0.1616358
0.1411707
0.1194013
0.09619243
0.07129307
0.04498004
0.2332299
0.2169254
0.1997278
0.1815481
0.162281
0.1418583
0.1201782
0.09702938
0.07222091
0.04611194
0.2498658
0.234391
0.2180996
0.2009166
0.1827532
0.163561
0.143261
0.1216792
0.09865258
0.07402848
0.04709993
0.2662875
0.251604
0.2361729
0.21993
0.2028008
0.1847507
0.1657202
0.1455644
0.124152
0.1013368
0.07597147
0.04962571
0.282442
0.268513
0.2538991
0.2385455
0.2223891
0.2054053
0.1875498
0.1687022
0.1487574
0.1275944
0.1042077
0.0795338
0.05475485
0.2977247
0.2844858
0.2706165
0.2560685
0.2407875
0.2247562
0.2079412
0.1902402
0.1715674
0.1518233
0.1301222
0.1073009
0.08334077
0.06026419
0.3118989
0.299281
0.286078
0.2722481
0.2577432
0.2425514
0.2266467
0.2099404
0.1923604
0.1738239
0.1535321
0.1322716
0.1098535
0.08649325
0.06469302
0.324963
0.3129022
0.3002948
0.2871037
0.2732866
0.2588353
0.2437292
0.2278893
0.2112543
0.1937538
0.1746549
0.1547052
0.1337028
0.111604
0.08868781
0.3369902
0.3254301
0.3133566
0.3007358
0.2875303
0.2737352
0.2593338
0.2442545
0.2284439
0.2118411
0.1937664
0.1749324
0.1551512
0.1343453
0.1124818
0.0704399
0.08809543
0.06609028
0.1072424
0.08381798
0.06058571
0.125765
0.103271
0.07929296
0.05478775
0.1443441
0.1230063
0.1002019
0.07578485
0.05033712
0.1628653
0.1426664
0.1211378
0.09810266
0.07336672
0.04739249
0.1810536
0.1619281
0.1416044
0.1199325
0.09672468
0.07183663
0.04561812
0.1987481
0.1806198
0.1614095
0.1409905
0.1192087
0.09594072
0.07101678
0.04464428
0.2158984
0.1986954
0.1805096
0.1612357
0.1407448
0.1189452
0.09569889
0.0707452
0.04432517
0.2325282
0.2161866
0.1989484
0.180724
0.1614068
0.1409271
0.1191804
0.09594914
0.07101983
0.04465852
0.2487162
0.2331826
0.2168272
0.199574
0.1813329
0.1620533
0.1416534
0.119955
0.09678348
0.07194469
0.04454047
0.2645887
0.2498207
0.2342976
0.2179538
0.2007132
0.1825391
0.1633692
0.1430534
0.121453
0.09840329
0.07267395
0.04546908
0.280279
0.2662448
0.2515158
0.2360354
0.2197388
0.2026002
0.1845718
0.1655281
0.1453569
0.1239261
0.1001331
0.07463834
0.04763808
0.2957349
0.2824026
0.2684316
0.2537726
0.23837
0.2222056
0.2052437
0.1873783
0.1685195
0.1485618
0.1265718
0.1033023
0.07859754
0.05376487
0.3103751
0.2976878
0.2844099
0.2704987
0.2559053
0.2406172
0.2246073
0.2077846
0.1900749
0.1713922
0.1509179
0.1294188
0.1066835
0.0828491
0.05995587
0.323969
0.311864
0.2992093
0.285967
0.2720946
0.2575833
0.2424121
0.2265009
0.2097872
0.192199
0.1729955
0.1529205
0.1317669
0.1094801
0.08628419
0.3365108
0.3249299
0.3128341
0.3001895
0.2869582
0.2731354
0.2587039
0.243592
0.2277456
0.2111035
0.1929829
0.1740961
0.1542539
0.1333769
0.1114262
0.348068
0.3369586
0.3253652
0.3132562
0.3005974
0.2873865
0.2736105
0.2592037
0.2441187
0.2283017
0.2111169
0.1932454
0.1745152
0.1548529
0.1341844
0.07333835
0.09145308
0.07035177
0.110989
0.08801468
0.0659141
0.1293529
0.1071676
0.08365576
0.0603162
0.1468476
0.1256943
0.1031195
0.07904484
0.05441436
0.1643768
0.1442785
0.1228671
0.09997721
0.07545564
0.04996092
0.1818794
0.1628047
0.1425386
0.1209336
0.09780842
0.07304163
0.04707553
0.199105
0.1809972
0.1618099
0.141417
0.1196654
0.09643484
0.07156534
0.04529991
0.2158984
0.1986954
0.1805096
0.1612357
0.1407448
0.1189452
0.09569889
0.0707452
0.04432517
0.2322072
0.2158487
0.1985919
0.1803472
0.1610073
0.1405017
0.1187248
0.09545634
0.07047282
0.04400462
0.2480487
0.2324811
0.2160889
0.1987954
0.1805098
0.1611802
0.1407233
0.1189587
0.09570497
0.07074562
0.04309806
0.2634933
0.2486713
0.2330897
0.2166823
0.1993718
0.1811199
0.1618627
0.1414474
0.1197307
0.09653638
0.07060185
0.04298905
0.2786581
0.2645458
0.2497322
0.2341597
0.217762
0.2005119
0.1823594
0.163176
0.1428445
0.1212254
0.09718803
0.07133673
0.04353624
0.2936682
0.2802384
0.2661609
0.2513854
0.2358544
0.2195494
0.2024319
0.1843918
0.1653347
0.145148
0.122824
0.09893766
0.07305495
0.04513212
0.3084717
0.2956973
0.2823251
0.2683114
0.2536061
0.2381962
0.2220529
0.2050822
0.187207
0.1683372
0.1476145
0.1257419
0.1024609
0.0777934
0.05308839
0.3225098
0.3103399
0.2976154
0.2842977
0.2703435
0.2557437
0.2404762
0.2244593
0.2076289
0.1899105
0.1705469
0.1502659
0.1288519
0.1062396
0.08258607
0.3355579
0.3239357
0.3117956
0.2991033
0.2858207
0.2719424
0.2574511
0.2422739
0.2263561
0.2096351
0.1914212
0.1724243
0.1524523
0.1314236
0.1092905
0.347608
0.3364791
0.3248648
0.3127335
0.3000507
0.2868141
0.2730103
0.2585735
0.2434558
0.227603
0.2103768
0.1924583
0.1736745
0.1539514
0.1332133
0.3587214
0.3480377
0.3368965
0.3252691
0.3131238
0.3004601
0.2872677
0.2734868
0.2590747
0.243984
0.2276169
0.2106258
0.1928537
0.1742365
0.1547036
0.07479232
0.09373927
0.07325165
0.1139847
0.09137386
0.07018027
0.1328049
0.1109161
0.08785733
0.0656558
0.1501891
0.1292845
0.1070215
0.0834176
0.05996318
0.1667228
0.1467824
0.1255561
0.1028967
0.07871942
0.05404562
0.1833024
0.1643159
0.1441502
0.1226623
0.09968231
0.07513041
0.0496447
0.1998851
0.1818227
0.1626859
0.1423504
0.1206654
0.09751763
0.07276938
0.04675646
0.2162364
0.1990521
0.1808868
0.1616358
0.1411707
0.1194013
0.09619243
0.07129307
0.04498004
0.2322072
0.2158487
0.1985919
0.1803472
0.1610073
0.1405017
0.1187248
0.09545634
0.07047282
0.04400462
0.2477432
0.2321602
0.2157512
0.1984394
0.1801335
0.1607813
0.1402985
0.1185038
0.09521306
0.07019964
0.04244993
0.2628573
0.2480041
0.2323887
0.2159447
0.1985942
0.1802978
0.1609907
0.1405188
0.1187361
0.09545993
0.06941426
0.04160612
0.2776129
0.2634508
0.2485833
0.2329526
0.2164914
0.1991715
0.1809414
0.161671
0.1412404
0.1195053
0.09533376
0.06932937
0.04122646
0.2921196
0.2786173
0.2644617
0.2496014
0.2339781
0.2175719
0.2003429
0.1821785
0.1629815
0.1426342
0.1201146
0.0959908
0.06980123
0.04128311
0.3064947
0.2936295
0.2801585
0.266037
0.2512136
0.2356751
0.2193905
0.2022625
0.1842106
0.16514
0.1441281
0.1217292
0.09752036
0.07110852
0.04182692
0.3206869
0.3084358
0.2956234
0.2822106
0.268153
0.2534411
0.2380516
0.2219004
0.204921
0.187036
0.1674534
0.1468457
0.1249704
0.1017395
0.07725517
0.3341591
0.3224761
0.3102708
0.2975083
0.2841498
0.2701897
0.2556097
0.240336
0.2243122
0.2074741
0.1891173
0.1699382
0.1497404
0.1284444
0.1060022
0.3466937
0.335526
0.3238702
0.3116944
0.2989637
0.2856757
0.2718166
0.2573198
0.2421367
0.2262123
0.2089021
0.1908852
0.171987
0.1521338
0.1312494
0.3582796
0.3475776
0.3364168
0.3247685
0.3126008
0.2999131
0.2866949
0.2728862
0.2584441
0.2433206
0.2269159
0.2098824
0.1920625
0.1733919
0.1537995
0.3689732
0.3586923
0.3479782
0.3368045
0.3251425
0.3129926
0.3003466
0.2871497
0.273364
0.2589468
0.2433346
0.2271525
0.2102566
0.192592
0.174097
0.09488707
0.07470628
0.1160227
0.09366096
0.0730829
0.1355651
0.113913
0.09121946
0.06992879
0.1534045
0.1327382
0.1107739
0.08762634
0.06531748
0.169854
0.150126
0.129151
0.1068068
0.08310537
0.05961471
0.1855106
0.1666622
0.1466548
0.1253526
0.1026043
0.07839791
0.05373577
0.2012293
0.1832455
0.1641966
0.1439612
0.1223932
0.09939084
0.0748576
0.04932576
0.2169755
0.199832
0.1817118
0.162511
0.142103
0.1204003
0.0972741
0.07249581
0.04643526
0.2325282
0.2161866
0.1989484
0.180724
0.1614068
0.1409271
0.1191804
0.09594914
0.07101983
0.04465852
0.2477432
0.2321602
0.2157512
0.1984394
0.1801335
0.1607813
0.1402985
0.1185038
0.09521306
0.07019964
0.04244993
0.2625663
0.2476988
0.2320681
0.2156073
0.1982386
0.1799221
0.1605923
0.1400947
0.1182822
0.09496905
0.06887404
0.0409856
0.277006
0.262815
0.2479165
0.2322523
0.2157548
0.1983949
0.1801205
0.1608005
0.1403134
0.1185127
0.0942688
0.06818928
0.03995508
0.291121
0.2775724
0.2633671
0.2484533
0.2327721
0.2163024
0.1990037
0.1807621
0.1614784
0.1410323
0.1184074
0.09419553
0.06792752
0.03926282
0.3050134
0.2920808
0.2785373
0.2643375
0.2494292
0.2337982
0.2174124
0.2001727
0.1819964
0.1627856
0.1416074
0.1190195
0.09461694
0.06805371
0.03870319
0.3187939
0.3064578
0.2935534
0.2800405
0.2658737
0.2510434
0.2355247
0.2192305
0.202092
0.1840282
0.1641892
0.1431142
0.1204302
0.09578064
0.06858368
0.03625595
0.3324119
0.3206526
0.3083652
0.2955142
0.2820597
0.267996
0.2533038
0.2379071
0.2217481
0.20476
0.1862071
0.1667361
0.1461308
0.124309
0.1012573
0.3453517
0.3341269
0.32241
0.3101685
0.2973672
0.2840032
0.2700623
0.2554766
0.2401966
0.2241659
0.2067267
0.1885463
0.1694477
0.1493625
0.1282265
0.3574017
0.3466632
0.3354634
0.3237734
0.3115609
0.2988253
0.2855558
0.2716916
0.2571894
0.2420004
0.2255194
0.208397
0.1904748
0.1716897
0.1519721
0.3685487
0.3582505
0.3475179
0.3363246
0.3246416
0.3124692
0.2997993
0.2865766
0.2727631
0.2583157
0.2426692
0.2264485
0.2095094
0.1917972
0.17325
0.3788441
0.3689454
0.3586352
0.34789
0.3366832
0.3250169
0.3128841
0.300234
0.2870326
0.2732422
0.2583298
0.2428945
0.2268035
0.21001
0.192461
0.1170457
0.09480918
0.07453881
0.1374432
0.1159517
0.0935083
0.07283539
0.155976
0.1354994
0.113773
0.09099279
0.06959936
0.1728672
0.1533428
0.1326078
0.1105649
0.08732352
0.06498355
0.1884576
0.1697953
0.1500026
0.1289545
0.1065251
0.08279699
0.05932447
0.2033148
0.1854539
0.1665436
0.1464669
0.1250854
0.1023153
0.07812831
0.05342332
0.2182487
0.2011758
0.183134
0.1640208
0.1437128
0.1221271
0.09914634
0.07458302
0.0490041
0.2332299
0.2169254
0.1997278
0.1815481
0.162281
0.1418583
0.1201782
0.09702938
0.07222091
0.04611194
0.2480487
0.2324811
0.2160889
0.1987954
0.1805098
0.1611802
0.1407233
0.1189587
0.09570497
0.07074562
0.04309806
0.2625663
0.2476988
0.2320681
0.2156073
0.1982386
0.1799221
0.1605923
0.1400947
0.1182822
0.09496905
0.06887404
0.0409856
0.2767283
0.2625241
0.2476114
0.231932
0.215418
0.1980399
0.1797453
0.1604028
0.1398902
0.1180598
0.09378361
0.06767097
0.03938425
0.2905411
0.2769657
0.2627318
0.2477871
0.2320727
0.2155668
0.1982281
0.1799424
0.1606095
0.1401074
0.117426
0.09317362
0.06687414
0.03815551
0.3040581
0.2910824
0.2774928
0.2632436
0.248282
0.2325932
0.2161441
0.198835
0.1805818
0.1612848
0.1400182
0.1173674
0.09294148
0.06640438
0.03711894
0.3173753
0.3049763
0.2920044
0.2784189
0.2641737
0.2492584
0.2336472
0.2172518
0.2000014
0.181813
0.1618291
0.1405942
0.1177614
0.09305396
0.06608977
0.03524393
0.3305974
0.3187586
0.3063851
0.2934409
0.279885
0.2657118
0.2509006
0.2353732
0.2190695
0.2019203
0.1831369
0.1632434
0.1419103
0.118835
0.09352611
0.06434417
0.03315793
0.3436754
0.3323791
0.3205852
0.3082609
0.2953702
0.2819101
0.2678654
0.2531666
0.2377629
0.221596
0.2039794
0.1855344
0.1660689
0.1455176
0.1238667
0.3561131
0.3453209
0.3340636
0.3223121
0.3100336
0.2972273
0.2838818
0.2699356
0.2553442
0.2400579
0.2234595
0.2061889
0.188086
0.1690949
0.1491604
0.3677051
0.3573724
0.3466031
0.3353706
0.3236457
0.3114286
0.2987108
0.2854367
0.2715676
0.25706
0.2413436
0.2250419
0.2080103
0.1901956
0.1715387
0.3784359
0.3685208
0.3581932
0.3474295
0.336203
0.3245157
0.3123605
0.2996863
0.2864592
0.2726409
0.2576968
0.2422262
0.2260959
0.2092594
0.191664
0.3883536
0.3788174
0.3688905
0.3585506
0.3477737
0.3365629
0.3249131
0.3127765
0.3001222
0.2869165
0.272655
0.2579117
0.2425637
0.2265704
0.2098865
0.1383863
0.116975
0.09465735
0.07429316
0.1577261
0.137378
0.115813
0.09328416
0.07251114
0.1752776
0.1559152
0.1353709
0.1135673
0.09069561
0.06927419
0.1912938
0.1728098
0.1532222
0.1324162
0.1102906
0.08702446
0.0647068
0.2060978
0.1884026
0.1696804
0.1498208
0.1286964
0.1062467
0.0825404
0.0590344
0.2202237
0.2032616
0.1853429
0.1663687
0.1462199
0.1248211
0.102073
0.07785703
0.05310825
0.2344385
0.2181983
0.2010711
0.1829695
0.1637898
0.1434671
0.1219039
0.09890026
0.07430665
0.04867971
0.2487162
0.2331826
0.2168272
0.199574
0.1813329
0.1620533
0.1416534
0.119955
0.09678348
0.07194469
0.04454047
0.2628573
0.2480041
0.2323887
0.2159447
0.1985942
0.1802978
0.1609907
0.1405188
0.1187361
0.09545993
0.06941426
0.04160612
0.2767283
0.2625241
0.2476114
0.231932
0.215418
0.1980399
0.1797453
0.1604028
0.1398902
0.1180598
0.09378361
0.06767097
0.03938425
0.2902758
0.2766881
0.2624411
0.2474824
0.2317529
0.2152305
0.1978737
0.1795679
0.1602126
0.1396851
0.1169786
0.09270827
0.06639422
0.03765452
0.3035034
0.2905027
0.2768866
0.2626089
0.2476168
0.2318948
0.2154095
0.1980608
0.1797637
0.1604178
0.1391041
0.116426
0.09199719
0.06547711
0.03622322
0.3164607
0.3040213
0.2910065
0.2773752
0.2630808
0.2481123
0.2324433
0.2159849
0.1986655
0.1804005
0.1603406
0.1390567
0.11622
0.09157855
0.06477641
0.03434914
0.3292377
0.3173399
0.3049034
0.2918916
0.278263
0.2640113
0.2491151
0.2334952
0.2170901
0.1998289
0.1809169
0.1608846
0.1394289
0.116329
0.09129753
0.06349086
0.03272787
0.3419346
0.3305636
0.3186891
0.3062776
0.2932924
0.2797307
0.265576
0.2507569
0.2352207
0.2189074
0.2010812
0.1822498
0.1621195
0.1404308
0.1167672
0.08973555
0.06180568
0.03087726
0.3545036
0.343644
0.3323145
0.3204854
0.3081233
0.2952274
0.2817856
0.2677349
0.2530296
0.2376188
0.2208584
0.2033459
0.1849084
0.1654965
0.1451074
0.3664669
0.3560835
0.3452602
0.3339699
0.3221831
0.3098999
0.2971114
0.283761
0.2698096
0.2552126
0.2393886
0.2229512
0.2057553
0.187755
0.1689062
0.3776247
0.367677
0.3573148
0.3465143
0.3352484
0.3235191
0.3113192
0.2985971
0.2853184
0.2714445
0.2564361
0.2408911
0.2246764
0.2077473
0.1900539
0.3879607
0.3784091
0.3684658
0.3581084
0.3473129
0.3360824
0.3244116
0.3122525
0.2995743
0.2863427
0.2720518
0.257276
0.2418919
0.2258595
0.2091339
0.3975195
0.3883278
0.3787647
0.3688093
0.358439
0.3476584
0.3364634
0.3248101
0.3126696
0.3000114
0.2863566
0.272257
0.2575974
0.2423427
0.2264536
0.1586052
0.1383213
0.116837
0.0944344
0.07397131
0.1769183
0.1576658
0.1372507
0.1156093
0.09299027
0.07219105
0.1935629
0.1752209
0.1557962
0.135182
0.1132974
0.0904021
0.06900515
0.2087765
0.1912401
0.1726975
0.1530447
0.1321645
0.1100196
0.08677669
0.06443158
0.2228593
0.2060462
0.1882951
0.1695111
0.1495821
0.1284413
0.1060151
0.08228423
0.0587445
0.2363133
0.2201736
0.2031572
0.1851792
0.1661387
0.1459756
0.1245995
0.1018291
0.07758403
0.05279054
0.2498658
0.234391
0.2180996
0.2009166
0.1827532
0.163561
0.143261
0.1216792
0.09865258
0.07402848
0.04709993
0.2634933
0.2486713
0.2330897
0.2166823
0.1993718
0.1811199
0.1618627
0.1414474
0.1197307
0.09653638
0.07060185
0.04298905
0.277006
0.262815
0.2479165
0.2322523
0.2157548
0.1983949
0.1801205
0.1608005
0.1403134
0.1185127
0.0942688
0.06818928
0.03995508
0.2902758
0.2766881
0.2624411
0.2474824
0.2317529
0.2152305
0.1978737
0.1795679
0.1602126
0.1396851
0.1169786
0.09270827
0.06639422
0.03765452
0.3032496
0.2902375
0.2766092
0.2623185
0.2473125
0.2315754
0.2150737
0.1977069
0.17939
0.1600218
0.1386871
0.1159971
0.09156619
0.06505049
0.03580834
0.3159295
0.3034668
0.2904272
0.2767695
0.2624469
0.247448
0.2317459
0.2152516
0.1978927
0.1795843
0.159484
0.1381801
0.1153503
0.09074663
0.06401063
0.03374542
0.328361
0.3164255
0.3039489
0.2908943
0.2772202
0.2629194
0.2479701
0.2322927
0.2158249
0.1984951
0.1795164
0.1594448
0.1379948
0.1149718
0.09012102
0.06270952
0.03222536
0.3406303
0.3292038
0.3172703
0.3047956
0.2917428
0.2781083
0.2638751
0.2489709
0.2333421
0.2169272
0.1989857
0.1800314
0.1597973
0.1381011
0.1147183
0.08897017
0.06140083
0.03066326
0.3528322
0.3419023
0.3304971
0.3185862
0.3061358
0.2931453
0.2796013
0.2654393
0.2506121
0.2350672
0.2181148
0.2002459
0.1811951
0.1607377
0.1385124
0.1132863
0.08746326
0.05978724
0.02913281
0.3649203
0.3544734
0.3435821
0.3322189
0.3203538
0.3079869
0.2951086
0.2816613
0.2676046
0.2528929
0.23692
0.2202599
0.2027562
0.1843712
0.1651134
0.3764341
0.3664385
0.3560253
0.3451704
0.3338464
0.3220552
0.3097892
0.2969961
0.283641
0.2696844
0.2545768
0.2389069
0.2225415
0.2054434
0.1875778
0.3871803
0.3775977
0.3676217
0.3572296
0.3463971
0.3351271
0.3234144
0.3112105
0.2984843
0.2852011
0.2708506
0.2560063
0.2405447
0.2244279
0.2076138
0.3971413
0.387935
0.3783562
0.3683843
0.3579965
0.3471973
0.3359827
0.3243082
0.3121454
0.2994631
0.2857811
0.2716513
0.2569585
0.2416679
0.2257409
0.4063587
0.3974948
0.3882772
0.3786866
0.3687021
0.3583283
0.347563
0.3363647
0.3247078
0.3125637
0.2994768
0.2859773
0.2719579
0.2573875
0.242232
0.1777427
0.1585451
0.1381945
0.1166341
0.09414206
0.07365358
0.1951077
0.176862
0.1575477
0.1370633
0.1153419
0.09270001
0.07192633
0.2109198
0.1935098
0.17511
0.1556211
0.134934
0.1130307
0.09015928
0.06873805
0.2253963
0.208726
0.1911348
0.172532
0.1528115
0.1319157
0.1097951
0.08653037
0.0641579
0.2388151
0.2228106
0.2059451
0.1881365
0.1692886
0.1493459
0.1282291
0.1057838
0.08202849
0.0584548
0.2516489
0.2362659
0.2200752
0.2030033
0.1849639
0.1659111
0.1457707
0.1243764
0.1015837
0.07730932
0.05124285
0.2645887
0.2498207
0.2342976
0.2179538
0.2007132
0.1825391
0.1633692
0.1430534
0.121453
0.09840329
0.07267395
0.04546908
0.2776129
0.2634508
0.2485833
0.2329526
0.2164914
0.1991715
0.1809414
0.161671
0.1412404
0.1195053
0.09533376
0.06932937
0.04122646
0.2905411
0.2769657
0.2627318
0.2477871
0.2320727
0.2155668
0.1982281
0.1799424
0.1606095
0.1401074
0.117426
0.09317362
0.06687414
0.03815551
0.3032496
0.2902375
0.2766092
0.2623185
0.2473125
0.2315754
0.2150737
0.1977069
0.17939
0.1600218
0.1386871
0.1159971
0.09156619
0.06505049
0.03580834
0.3156864
0.303213
0.2901622
0.2764925
0.262157
0.2471442
0.2314271
0.2149164
0.1975397
0.1792114
0.1590932
0.1377804
0.1149531
0.0903631
0.06364913
0.03344608
0.3278519
0.3158945
0.3033947
0.2903157
0.2766153
0.2622864
0.2473067
0.2315964
0.215093
0.1977241
0.1787101
0.1586235
0.1371849
0.1142055
0.08943262
0.06216608
0.03183568
0.3397893
0.3283273
0.3163562
0.3038417
0.2907464
0.2770664
0.2627842
0.2478272
0.2321412
0.2156641
0.1976634
0.178677
0.1584546
0.1368385
0.1136357
0.08826738
0.06091909
0.03037501
0.3515798
0.3405978
0.3291372
0.3171672
0.3046535
0.2915952
0.2779785
0.2637379
0.2488256
0.2331879
0.2161311
0.1981521
0.1790115
0.1585577
0.1366073
0.1125817
0.08709448
0.05954648
0.02900726
0.3633143
0.3528011
0.3418385
0.3303986
0.3184506
0.3059952
0.2930218
0.2794711
0.2653016
0.2504664
0.2343165
0.2173255
0.199252
0.1798978
0.1589453
0.13528
0.1112024
0.08564903
0.05813961
0.02778654
0.374947
0.3648913
0.3544141
0.3434905
0.3320929
0.3202233
0.3078734
0.29499
0.2815371
0.2674745
0.2522293
0.2363529
0.2197026
0.20225
0.1840116
0.3860347
0.3764068
0.3663826
0.3559392
0.345052
0.3337239
0.3219492
0.309679
0.2968815
0.2835216
0.2690794
0.2541194
0.2385186
0.2222467
0.2052765
0.3963899
0.3871543
0.3775446
0.3675398
0.3571171
0.3462808
0.3350268
0.3233104
0.3111027
0.2983722
0.284635
0.2704417
0.2556773
0.2403092
0.2243017
0.4059944
0.3971165
0.3878842
0.378278
0.3682769
0.3578855
0.3471017
0.3358837
0.3242057
0.3120391
0.2989269
0.2853993
0.2713492
0.2567457
0.2415554
0.4148864
0.4063349
0.397446
0.3882021
0.3785836
0.3685958
0.3582367
0.3474683
0.3362668
0.3246064
0.3120526
0.2991147
0.2856921
0.2717581
0.2572824
0.1958841
0.1776867
0.1584275
0.1380079
0.1163679
0.09385331
0.07339081
0.2123792
0.195055
0.1767519
0.1573739
0.1368173
0.1150777
0.09245995
0.07166363
0.2274264
0.2108699
0.1934059
0.1749466
0.1553911
0.1346888
0.1128101
0.08991823
0.0684729
0.2412234
0.2253486
0.208627
0.1909797
0.1723144
0.1525809
0.1317096
0.1095719
0.08628552
0.06388578
0.2540284
0.2387691
0.2227152
0.2057959
0.1879279
0.1690684
0.1491495
0.1280172
0.105553
0.08177317
0.05705513
0.2662875
0.251604
0.2361729
0.21993
0.2028008
0.1847507
0.1657202
0.1455644
0.124152
0.1013368
0.07597147
0.04962571
0.2786581
0.2645458
0.2497322
0.2341597
0.217762
0.2005119
0.1823594
0.163176
0.1428445
0.1212254
0.09718803
0.07133673
0.04353624
0.291121
0.2775724
0.2633671
0.2484533
0.2327721
0.2163024
0.1990037
0.1807621
0.1614784
0.1410323
0.1184074
0.09419553
0.06792752
0.03926282
0.3035034
0.2905027
0.2768866
0.2626089
0.2476168
0.2318948
0.2154095
0.1980608
0.1797637
0.1604178
0.1391041
0.116426
0.09199719
0.06547711
0.03622322
0.3156864
0.303213
0.2901622
0.2764925
0.262157
0.2471442
0.2314271
0.2149164
0.1975397
0.1792114
0.1590932
0.1377804
0.1149531
0.0903631
0.06364913
0.03344608
0.3276189
0.3156515
0.3031412
0.2900509
0.2763387
0.2619969
0.2470034
0.2312782
0.2147585
0.1973718
0.1783421
0.1582489
0.1368148
0.1138519
0.08910691
0.06189146
0.03162936
0.3393008
0.3278184
0.3158256
0.3032882
0.2901686
0.2764624
0.2621521
0.2471649
0.2314464
0.2149338
0.196902
0.177904
0.1576959
0.1361248
0.1130012
0.08777665
0.0605377
0.03012985
0.3507724
0.339757
0.3282611
0.3162538
0.3037005
0.2905998
0.2769377
0.2626483
0.2476835
0.231989
0.214879
0.1968735
0.1777485
0.1573755
0.1355998
0.1119343
0.08665526
0.05922626