/*--------------------------------*- C++ -*----------------------------------*\
| =========                 |                                                 |
| \\      /  F ield         | OpenFOAM: The Open Source CFD Toolbox           |
|  \\    /   O peration     | Version:  2306                                  |
|   \\  /    A nd           | Website:  www.openfoam.com                      |
|    \\/     M anipulation  |                                                 |
\*---------------------------------------------------------------------------*/
FoamFile
{
    version     2.0;
    format      ascii;
    arch        "LSB;label=32;scalar=64";
    class       volScalarField;
    location    "0.3/fuel";
    object      X.H2;
}
// * * * * * * * * * * * * * * * * * * * * * * * * * * * * * * * * * * * * * //

dimensions      [0 0 0 0 0 0 0];

internalField   nonuniform List<scalar> 
16000
(
0.9252077
0.9266616
0.9051129
0.9252937
0.9295601
0.9062607
0.9267483
0.8829543
0.9051908
0.9254612
0.9338192
0.9085469
0.9296482
0.8839773
0.906339
0.9269171
0.8616137
0.883025
0.9053426
0.9257068
0.939136
0.9119046
0.9339097
0.8860153
0.9086261
0.9298197
0.8625568
0.8840483
0.9064917
0.9271646
0.8413948
0.8616787
0.883163
0.9055656
0.9260287
0.9446331
0.9160988
0.9392305
0.889011
0.9119853
0.9340859
0.8644349
0.886087
0.9087805
0.9300712
0.8422739
0.862622
0.884187
0.9067158
0.9274889
0.8222573
0.8414549
0.8618055
0.8833659
0.9058579
0.9263464
0.9486908
0.9204514
0.944733
0.8927576
0.916182
0.9394143
0.8671951
0.8890839
0.9121427
0.9343442
0.844024
0.8645006
0.886227
0.9090072
0.9304006
0.8230817
0.8423342
0.8627493
0.8843907
0.9070097
0.9278089
0.8041159
0.8223133
0.8415725
0.8619921
0.8836321
0.9061467
0.9266092
0.9512532
0.9237054
0.9487927
0.8966514
0.9205381
0.9449273
0.8706471
0.8928324
0.9163442
0.9396838
0.8465955
0.8672618
0.8892261
0.9123737
0.9346825
0.8247224
0.8440848
0.8646291
0.8864327
0.9093044
0.9307258
0.8048923
0.823138
0.8424523
0.8629367
0.8846581
0.9073
0.9280737
0.7868872
0.8041684
0.8224231
0.8417457
0.8622371
0.8838951
0.9063855
0.9268699
0.9527104
0.9257945
0.9513557
0.899567
0.9237932
0.9489911
0.874235
0.896729
0.920707
0.9452123
0.8498109
0.8707155
0.8929785
0.9165824
0.9400368
0.8271328
0.8466572
0.8673922
0.8894351
0.9126765
0.9350164
0.8064371
0.8247791
0.8442038
0.864818
0.8867026
0.9095979
0.9309949
0.7876208
0.804945
0.8232481
0.8426261
0.8631827
0.8849223
0.9075401
0.9283364
0.7704962
0.7869366
0.8042713
0.8225848
0.8419731
0.8624794
0.8841127
0.9066224
0.9271287
0.9533672
0.9270019
0.952813
0.9014425
0.9258822
0.951555
0.8769225
0.8996453
0.9239641
0.9492819
0.8531524
0.8743057
0.8968805
0.9209552
0.9455856
0.830146
0.849874
0.870849
0.8931932
0.9168946
0.9403853
0.8087062
0.8271902
0.8467778
0.8675838
0.8897094
0.9129755
0.9352932
0.7890802
0.8064902
0.82489
0.8443789
0.865066
0.8869693
0.9098407
0.931262
0.7711912
0.7876704
0.8050482
0.8234103
0.8428543
0.8634259
0.8851408
0.9077783
0.928597
0.7548768
0.7705429
0.7870335
0.804423
0.8227973
0.8421981
0.8626797
0.8843285
0.9068576
0.9273854
0.9533672
0.9275524
0.9534698
0.9025286
0.9270894
0.9530125
0.8786524
0.9015206
0.9260532
0.9518471
0.8556559
0.8769937
0.8997981
0.9242152
0.9496629
0.8332772
0.8532176
0.8744439
0.8971033
0.9212806
0.9459544
0.8115424
0.8302047
0.8499974
0.8710455
0.8934749
0.917203
0.9406755
0.7912235
0.8087599
0.8273025
0.8469553
0.8678355
0.8899804
0.9132233
0.9355684
0.7725736
0.7891301
0.8065941
0.8250534
0.8446089
0.8653112
0.8871899
0.9100818
0.9315271
0.7555368
0.771238
0.7877676
0.8052004
0.8236235
0.8430801
0.863627
0.8853577
0.9080147
0.9288557
0.7399712
0.754921
0.7706344
0.7871764
0.8046225
0.8230075
0.8423841
0.8628785
0.8845427
0.9070909
0.9286182
0.9527104
0.9275524
0.9534698
0.9030245
0.9276399
0.9536692
0.879655
0.9026065
0.9272601
0.9533047
0.8572682
0.8787234
0.9016731
0.9263042
0.9522297
0.8356232
0.8557215
0.8771329
0.9000228
0.9245444
0.9500391
0.8144894
0.8333378
0.8533452
0.8746474
0.8973957
0.9216021
0.9462642
0.7939022
0.8115974
0.8303196
0.8501792
0.8713036
0.8937533
0.9174596
0.9409656
0.7746037
0.791274
0.8088652
0.827468
0.8471885
0.8680843
0.8902049
0.9134696
0.9358421
0.7568493
0.7726207
0.7892279
0.8067474
0.8252682
0.8448364
0.8655141
0.8874089
0.9103211
0.9317903
0.7405991
0.7555811
0.7713298
0.7879109
0.8054005
0.8238344
0.8432668
0.8638265
0.8855728
0.9082492
0.9300977
0.7257282
0.7400131
0.7550076
0.7707694
0.7873644
0.8048199
0.8231813
0.8425687
0.8630757
0.8847552
0.9082122
0.9294582
0.9512532
0.9270019
0.952813
0.9030245
0.9276399
0.9536692
0.8801131
0.9031023
0.9278104
0.9539614
0.8582032
0.8797258
0.9027585
0.9275106
0.9536875
0.8371347
0.8573336
0.8788622
0.9018973
0.9266333
0.9526075
0.8166976
0.8356841
0.8558498
0.8773377
0.9003177
0.9248696
0.9503553
0.7966852
0.8145461
0.8334564
0.8535331
0.8749146
0.8976847
0.9218717
0.9465767
0.7771407
0.7939538
0.8117049
0.8304889
0.8504179
0.8715587
0.8939849
0.9177158
0.9412555
0.7587766
0.7746514
0.791373
0.8090203
0.8276856
0.8474191
0.8682904
0.8904281
0.9137145
0.9361142
0.7418477
0.7568939
0.7727131
0.7893722
0.8069489
0.8254806
0.8450247
0.8657155
0.8876263
0.9105586
0.9330545
0.7263266
0.7406412
0.755668
0.7714652
0.7880995
0.8055986
0.8240089
0.8434521
0.8640246
0.8857863
0.9093766
0.9309476
0.7121021
0.725768
0.7400954
0.7551356
0.7709471
0.7875505
0.8049832
0.8233539
0.8427519
0.8632714
0.8857774
0.9089751
0.9300903
0.9486908
0.9257945
0.9513557
0.9025286
0.9270894
0.9530125
0.8801131
0.9031023
0.9278104
0.9539614
0.8586305
0.8801837
0.9032541
0.9280605
0.954344
0.8380115
0.8582683
0.879864
0.902982
0.927839
0.9540653
0.8181206
0.8371953
0.8574614
0.8790664
0.9021916
0.9269584
0.9529245
0.7987707
0.8167545
0.8358034
0.8560388
0.8776068
0.9006092
0.9251424
0.9506742
0.7797763
0.7967384
0.8146571
0.8336313
0.8537801
0.8751789
0.897927
0.922143
0.9468917
0.7611849
0.7771894
0.7940549
0.8118635
0.8307114
0.8506541
0.8717709
0.8942162
0.9179715
0.9415452
0.743681
0.7588217
0.7747448
0.791519
0.8092243
0.8279008
0.8476101
0.8684954
0.8906499
0.9139579
0.9374231
0.7275163
0.74189
0.7569813
0.7728494
0.789562
0.8071483
0.8256564
0.8452115
0.8659154
0.8878421
0.9117004
0.9339333
0.7126732
0.7263665
0.7407236
0.7557963
0.7716434
0.7882861
0.8057624
0.824182
0.843636
0.8642211
0.8868131
0.9101461
0.93159
0.6990519
0.71214
0.7258462
0.7402168
0.755304
0.771123
0.7877044
0.8051452
0.823525
0.8429336
0.8642131
0.8864721
0.9095488
0.9305129
0.9446331
0.9237054
0.9487927
0.9014425
0.9258822
0.951555
0.879655
0.9026065
0.9272601
0.9533047
0.8586305
0.8801837
0.9032541
0.9280605
0.954344
0.8384124
0.8586955
0.8803217
0.9034772
0.9283885
0.9547218
0.8189464
0.8380719
0.8583956
0.8800675
0.9032753
0.9281634
0.9543819
0.8001149
0.8181773
0.8373141
0.8576496
0.8793346
0.9024824
0.9272306
0.9532435
0.7817513
0.7988242
0.816866
0.8359792
0.8562872
0.8778729
0.9008537
0.925417
0.9509959
0.7636867
0.7798264
0.7968428
0.8148208
0.8338613
0.8540244
0.8754005
0.8981709
0.922416
0.9472095
0.7459716
0.7612309
0.7772848
0.7942041
0.8120721
0.8309316
0.8508505
0.8719828
0.894447
0.9182268
0.9429449
0.7292631
0.7437237
0.7589102
0.7748827
0.7917111
0.8094262
0.8280791
0.8478001
0.8686991
0.8908705
0.9151295
0.9383816
0.7138086
0.7275565
0.741973
0.7571104
0.7730287
0.7897499
0.8073133
0.8258309
0.845397
0.8661139
0.8888804
0.9124901
0.9346096
0.6995976
0.7127113
0.726445
0.7408454
0.7559652
0.7718199
0.7884405
0.8059249
0.8243538
0.8438184
0.8651667
0.8875133
0.9107271
0.9320214
0.686541
0.699088
0.7122146
0.7259618
0.7403768
0.7554707
0.7712685
0.7878571
0.8053059
0.8236949
0.8438085
0.8648526
0.8869944
0.9099322
0.9307246
0.939136
0.9204514
0.944733
0.899567
0.9237932
0.9489911
0.8786524
0.9015206
0.9260532
0.9518471
0.8582032
0.8797258
0.9027585
0.9275106
0.9536875
0.8384124
0.8586955
0.8803217
0.9034772
0.9283885
0.9547218
0.819324
0.8384726
0.8588225
0.8805247
0.90377
0.9287125
0.955038
0.800895
0.8190028
0.8381901
0.858583
0.8803346
0.9035652
0.9284347
0.9547001
0.7830245
0.800168
0.8182882
0.837489
0.857897
0.8795997
0.9027259
0.9275042
0.9535647
0.7655615
0.7818017
0.7989289
0.8170305
0.8362102
0.8565329
0.8780961
0.9010997
0.9256934
0.9513203
0.7483511
0.7637341
0.7799248
0.7969967
0.8150361
0.8340889
0.8542293
0.8756236
0.8984163
0.9226907
0.9487571
0.7314456
0.7460153
0.7613212
0.7774256
0.7944004
0.8122785
0.8311148
0.8510467
0.8721944
0.8946775
0.9194608
0.9441204
0.7154755
0.7293038
0.7438076
0.7590407
0.7750641
0.7919012
0.8095935
0.8282564
0.8479889
0.8689016
0.8919329
0.9159761
0.939165
0.7006826
0.7138468
0.7276354
0.7420955
0.7572803
0.7732063
0.7899053
0.807477
0.8260041
0.8455811
0.8670692
0.8895975
0.9130951
0.9350716
0.6870632
0.6996339
0.712786
0.7265608
0.7410058
0.7561324
0.7719658
0.7885937
0.8060862
0.8245242
0.8446967
0.865811
0.8880417
0.9111166
0.9322382
0.6745369
0.6865755
0.6991591
0.7123246
0.726114
0.7405352
0.7556087
0.7714129
0.7880086
0.8054654
0.8245127
0.8444024
0.8653335
0.8873434
0.9101242
0.9338192
0.9160988
0.9392305
0.8966514
0.9205381
0.9449273
0.8769225
0.8996453
0.9239641
0.9492819
0.8572682
0.8787234
0.9016731
0.9263042
0.9522297
0.8380115
0.8582683
0.879864
0.902982
0.927839
0.9540653
0.819324
0.8384726
0.8588225
0.8805247
0.90377
0.9287125
0.955038
0.8012519
0.8193802
0.8385905
0.8590095
0.8807913
0.9040593
0.9289832
0.9553557
0.7837636
0.8009479
0.8191132
0.8383642
0.8588293
0.8805987
0.9038076
0.9287069
0.95502
0.7667701
0.7830746
0.8002722
0.8184519
0.837719
0.8581417
0.8798218
0.9029706
0.9277791
0.9538881
0.7501342
0.765609
0.7819004
0.7990834
0.8172468
0.836439
0.856739
0.8783208
0.9013474
0.9259715
0.9529001
0.7337125
0.748396
0.7638271
0.78007
0.7971992
0.8152493
0.8342798
0.8544356
0.875848
0.8986632
0.9240285
0.9503743
0.717558
0.731487
0.7461009
0.7614545
0.7776109
0.7945947
0.8124502
0.8312978
0.8512426
0.8724056
0.8957923
0.9204662
0.9452452
0.7022753
0.7155142
0.7293835
0.7439315
0.7592125
0.7752438
0.7920588
0.8097598
0.8284326
0.8481767
0.8698778
0.8926991
0.9166592
0.9397358
0.6881011
0.700719
0.713922
0.7277519
0.7422568
0.7574486
0.7733533
0.7900596
0.8076396
0.8261761
0.8464679
0.8677284
0.8901465
0.9135067
0.935307
0.675037
0.6870978
0.6997052
0.7128963
0.7267134
0.7411647
0.7562708
0.7721107
0.7887457
0.8062462
0.8253451
0.8452948
0.8662972
0.888396
0.9113122
0.6630098
0.6745699
0.6866434
0.6992642
0.7124697
0.7262648
0.7406662
0.7557455
0.7715561
0.7881589
0.8062336
0.8250676
0.8448488
0.8656547
0.8875182
0.9295601
0.9119046
0.9339097
0.8927576
0.916182
0.9394143
0.874235
0.896729
0.920707
0.9452123
0.8556559
0.8769937
0.8997981
0.9242152
0.9496629
0.8371347
0.8573336
0.8788622
0.9018973
0.9266333
0.9526075
0.8189464
0.8380719
0.8583956
0.8800675
0.9032753
0.9281634
0.9543819
0.8012519
0.8193802
0.8385905
0.8590095
0.8807913
0.9040593
0.9289832
0.9553557
0.7841016
0.8013046
0.8194904
0.8387643
0.8592552
0.8810548
0.9043011
0.9292548
0.9556748
0.7674718
0.7838134
0.8010516
0.819276
0.8385932
0.8590729
0.8808196
0.9040509
0.9289802
0.9553415
0.7512838
0.7668174
0.7831728
0.800426
0.8186671
0.8379467
0.8583466
0.880045
0.9032165
0.9280553
0.9554595
0.7354113
0.7501793
0.7657024
0.7820462
0.7992868
0.8174609
0.8366308
0.8569466
0.878547
0.9015967
0.927326
0.9545309
0.719721
0.7337552
0.7484842
0.7639646
0.7802612
0.7973998
0.8154282
0.8344719
0.8546431
0.8760739
0.8998669
0.9253617
0.9523619
0.7042651
0.7175974
0.7315684
0.7462274
0.76163
0.7777944
0.7947563
0.8126217
0.8314805
0.8514382
0.8734282
0.8966977
0.9214025
0.9462351
0.6896249
0.7023122
0.7155901
0.7295013
0.7440947
0.7593828
0.7753927
0.7922154
0.8099251
0.8286078
0.8490821
0.8705812
0.8933165
0.9171509
0.9400441
0.676031
0.688136
0.7007907
0.714033
0.7279054
0.7424167
0.7575879
0.7734991
0.7902128
0.807801
0.8270045
0.8470795
0.8682331
0.8905199
0.9137158
0.6634892
0.6750701
0.6871659
0.6998105
0.7130418
0.7268646
0.7412961
0.756408
0.7722544
0.7888965
0.8070171
0.8259039
0.8457461
0.8666231
0.8885738
0.651932
0.6630414
0.6746348
0.6867438
0.6994026
0.7126135
0.7263895
0.7407963
0.7558813
0.7716983
0.7888831
0.8067546
0.8254848
0.8451471
0.8658156
0.9266616
0.9085469
0.9296482
0.889011
0.9119853
0.9340859
0.8706471
0.8928324
0.9163442
0.9396838
0.8531524
0.8743057
0.8968805
0.9209552
0.9455856
0.8356232
0.8557215
0.8771329
0.9000228
0.9245444
0.9500391
0.8181206
0.8371953
0.8574614
0.8790664
0.9021916
0.9269584
0.9529245
0.800895
0.8190028
0.8381901
0.858583
0.8803346
0.9035652
0.9284347
0.9547001
0.7841016
0.8013046
0.8194904
0.8387643
0.8592552
0.8810548
0.9043011
0.9292548
0.9556748
0.7677928
0.7841513
0.8014081
0.8196528
0.8389927
0.8594983
0.8812752
0.9045437
0.9295272
0.9559954
0.7519513
0.7675189
0.7839111
0.8012046
0.8194902
0.8388198
0.8592767
0.8810413
0.904295
0.9292544
0.9569019
0.7365067
0.7513287
0.7669103
0.7833177
0.8006282
0.8188801
0.8381373
0.8585526
0.8802693
0.9034636
0.9293981
0.9570109
0.7213419
0.7354542
0.7502678
0.7658403
0.782238
0.7994881
0.8176406
0.836824
0.8571555
0.8787746
0.902812
0.9286633
0.9564638
0.7063318
0.7197616
0.7338391
0.7486146
0.7641456
0.7804506
0.7975681
0.8156082
0.8346653
0.854852
0.877176
0.9010623
0.9269451
0.9548679
0.6915283
0.7043027
0.7176749
0.7316886
0.7463939
0.7618038
0.7779471
0.7949178
0.812793
0.8316628
0.8523855
0.8742581
0.8975391
0.9222066
0.9469116
0.6774902
0.6896601
0.7023846
0.7157023
0.7296565
0.7442563
0.7595238
0.7755407
0.7923711
0.8100895
0.8294531
0.8497341
0.8711481
0.8937604
0.9174139
0.6644421
0.6760643
0.6882044
0.7008967
0.7141793
0.7280576
0.7425489
0.7577261
0.7736439
0.7903649
0.8085788
0.8275757
0.8475477
0.8685764
0.8907095
0.652392
0.6635209
0.6751352
0.6872665
0.6999493
0.7131859
0.7269897
0.7414265
0.7565442
0.772397
0.7896232
0.8075417
0.8263255
0.8460486
0.8667867
0.6412786
0.6519623
0.6631035
0.6747309
0.6868762
0.6995399
0.7127323
0.7265132
0.7409253
0.756016
0.7723831
0.7893742
0.8071463
0.8257635
0.8452964
0.9252077
0.9062607
0.9267483
0.8860153
0.9086261
0.9298197
0.8671951
0.8890839
0.9121427
0.9343442
0.8498109
0.8707155
0.8929785
0.9165824
0.9400368
0.8332772
0.8532176
0.8744439
0.8971033
0.9212806
0.9459544
0.8166976
0.8356841
0.8558498
0.8773377
0.9003177
0.9248696
0.9503553
0.8001149
0.8181773
0.8373141
0.8576496
0.8793346
0.9024824
0.9272306
0.9532435
0.7837636
0.8009479
0.8191132
0.8383642
0.8588293
0.8805987
0.9038076
0.9287069
0.95502
0.7677928
0.7841513
0.8014081
0.8196528
0.8389927
0.8594983
0.8812752
0.9045437
0.9295272
0.9559954
0.7522568
0.7678398
0.7842488
0.8015606
0.8198665
0.8392187
0.8597015
0.8814962
0.9047869
0.9298004
0.9575501
0.7371427
0.7519959
0.7676113
0.7840553
0.8014058
0.8197022
0.8390093
0.8594812
0.8812639
0.9045401
0.9305857
0.9583939
0.7223871
0.7365492
0.7514167
0.7670474
0.7835086
0.8008285
0.8190586
0.838329
0.8587596
0.8804947
0.9046662
0.9306706
0.9587735
0.7078804
0.7213827
0.7355383
0.7503986
0.7660219
0.7824281
0.7996571
0.8178215
0.8370185
0.8573658
0.8798854
0.9040092
0.9301988
0.9587169
0.6935053
0.7063705
0.7198415
0.733963
0.7487864
0.7643249
0.7806095
0.7977375
0.8157894
0.83486
0.8558719
0.8782708
0.9024796
0.9288915
0.9581731
0.6793131
0.6915642
0.7043766
0.7177894
0.731847
0.7465589
0.7619484
0.7780996
0.795079
0.812964
0.8325466
0.8531543
0.8750296
0.8982605
0.9227448
0.6658409
0.6775239
0.6897292
0.7024917
0.7158502
0.7298103
0.7443903
0.759664
0.7756878
0.7925259
0.8108827
0.8300618
0.8502596
0.8715556
0.8939978
0.6533063
0.664474
0.6761298
0.6883056
0.7010363
0.7143243
0.7281834
0.7426802
0.7578633
0.7737877
0.7910979
0.8091148
0.828013
0.8478662
0.8687506
0.6417204
0.6524224
0.6635832
0.6752315
0.6873992
0.7000869
0.7133051
0.7271138
0.7415559
0.7566794
0.7730841
0.7901176
0.8079375
0.8266081
0.8462005
0.6310268
0.6413077
0.6520218
0.6631955
0.6748575
0.6870074
0.6996534
0.7128503
0.726636
0.7410532
0.7566654
0.7728475
0.7897434
0.807408
0.825903
0.9051129
0.9252937
0.8839773
0.906339
0.9269171
0.8644349
0.886087
0.9087805
0.9300712
0.8465955
0.8672618
0.8892261
0.9123737
0.9346825
0.830146
0.849874
0.870849
0.8931932
0.9168946
0.9403853
0.8144894
0.8333378
0.8533452
0.8746474
0.8973957
0.9216021
0.9462642
0.7987707
0.8167545
0.8358034
0.8560388
0.8776068
0.9006092
0.9251424
0.9506742
0.7830245
0.800168
0.8182882
0.837489
0.857897
0.8795997
0.9027259
0.9275042
0.9535647
0.7674718
0.7838134
0.8010516
0.819276
0.8385932
0.8590729
0.8808196
0.9040509
0.9289802
0.9553415
0.7522568
0.7678398
0.7842488
0.8015606
0.8198665
0.8392187
0.8597015
0.8814962
0.9047869
0.9298004
0.9575501
0.7374337
0.7523012
0.7679319
0.7843927
0.8017614
0.8200779
0.8394077
0.8599053
0.8817178
0.905031
0.931126
0.9590144
0.722994
0.737185
0.7520835
0.7677477
0.7842452
0.8016051
0.8198795
0.8391995
0.8596866
0.8814873
0.9057312
0.9318107
0.9600449
0.708879
0.7224276
0.7366329
0.7515467
0.7672279
0.7836976
0.8009963
0.8192379
0.8385216
0.8589677
0.8815926
0.9058045
0.9320725
0.9607372
0.6949866
0.7079192
0.7214627
0.7356625
0.7505708
0.7662018
0.7825876
0.7998273
0.8180036
0.8372144
0.8583926
0.8809805
0.9053831
0.9319463
0.9612968
0.6812061
0.6935422
0.7064466
0.7199595
0.7341263
0.7489566
0.7644753
0.7807695
0.797908
0.8159718
0.8358108
0.8568858
0.8795698
0.9042194
0.9314163
0.963744
0.6675881
0.6793474
0.6916348
0.7044858
0.7179403
0.732004
0.7466962
0.7620929
0.7782519
0.79524
0.8137929
0.8332639
0.8538692
0.875691
0.8987427
0.6546483
0.6658731
0.67759
0.6898315
0.7026328
0.7159968
0.7299377
0.7445234
0.7598034
0.7758341
0.7932733
0.8114537
0.8305523
0.8506375
0.8717735
0.6425983
0.6533368
0.6645366
0.6762266
0.6884391
0.7011747
0.7144442
0.7283084
0.7428106
0.7579996
0.7744806
0.791603
0.8095252
0.8283103
0.8480279
0.6314513
0.6417495
0.6524821
0.6636754
0.6753584
0.6875308
0.7002007
0.7134234
0.7272369
0.7416843
0.7573308
0.7735515
0.7904906
0.8082028
0.82675
0.6211559
0.6310546
0.6413648
0.65211
0.6633168
0.6749831
0.6871159
0.699766
0.7129674
0.7267578
0.7416702
0.7571055
0.7731965
0.78999
0.807539
0.8829543
0.9051908
0.9254612
0.8625568
0.8840483
0.9064917
0.9271646
0.844024
0.8645006
0.886227
0.9090072
0.9304006
0.8271328
0.8466572
0.8673922
0.8894351
0.9126765
0.9350164
0.8115424
0.8302047
0.8499974
0.8710455
0.8934749
0.917203
0.9406755
0.7966852
0.8145461
0.8334564
0.8535331
0.8749146
0.8976847
0.9218717
0.9465767
0.7817513
0.7988242
0.816866
0.8359792
0.8562872
0.8778729
0.9008537
0.925417
0.9509959
0.7667701
0.7830746
0.8002722
0.8184519
0.837719
0.8581417
0.8798218
0.9029706
0.9277791
0.9538881
0.7519513
0.7675189
0.7839111
0.8012046
0.8194902
0.8388198
0.8592767
0.8810413
0.904295
0.9292544
0.9569019
0.7374337
0.7523012
0.7679319
0.7843927
0.8017614
0.8200779
0.8394077
0.8599053
0.8817178
0.905031
0.931126
0.9590144
0.7232717
0.7374759
0.7523886
0.768068
0.784582
0.8019601
0.8202547
0.8395972
0.8601098
0.8819402
0.9062164
0.932329
0.9606157
0.7094589
0.7230343
0.7372682
0.7522129
0.7679273
0.7844332
0.8017719
0.8200576
0.8393905
0.8598926
0.882574
0.9068264
0.9331259
0.9618445
0.6959419
0.7089176
0.7225072
0.7367564
0.751718
0.7674068
0.7838559
0.801165
0.8194182
0.8387152
0.8599818
0.8826326
0.9070585
0.9335956
0.9628811
0.6826247
0.6950237
0.7079956
0.7215811
0.7358263
0.7507416
0.7663528
0.7827482
0.7999986
0.818187
0.8381709
0.8594058
0.8822386
0.906946
0.9339102
0.9647561
0.6694026
0.6812414
0.6936149
0.7065591
0.720115
0.7342882
0.7490994
0.7646268
0.7809305
0.7980797
0.8168631
0.8367566
0.8580897
0.881165
0.9064739
0.9356558
0.9668421
0.6563246
0.6676209
0.6794148
0.6917391
0.7046298
0.7180899
0.7321346
0.7468334
0.7622371
0.778404
0.7960206
0.8144656
0.8339311
0.8544824
0.8761333
0.6438869
0.6546791
0.6659364
0.6776879
0.6899664
0.7027727
0.7161182
0.7300644
0.7446558
0.7599421
0.7765405
0.7938111
0.811914
0.8309051
0.8508396
0.6322949
0.6426276
0.6533969
0.6646294
0.6763543
0.6885714
0.7012892
0.7145633
0.7284324
0.74294
0.7586564
0.7749581
0.7919897
0.8098044
0.8284613
0.6215641
0.6314792
0.6418068
0.6525705
0.663797
0.6754843
0.6876395
0.7003137
0.7135408
0.7273591
0.7423032
0.7577738
0.7739041
0.7907406
0.808336
0.6116464
0.6211826
0.6311095
0.6414494
0.6522263
0.6634371
0.6750869
0.6872235
0.6998778
0.7130835
0.727345
0.7420883
0.7574363
0.7734296
0.7901135
0.8616137
0.883025
0.9053426
0.9257068
0.8422739
0.862622
0.884187
0.9067158
0.9274889
0.8247224
0.8440848
0.8646291
0.8864327
0.9093044
0.9307258
0.8087062
0.8271902
0.8467778
0.8675838
0.8897094
0.9129755
0.9352932
0.7939022
0.8115974
0.8303196
0.8501792
0.8713036
0.8937533
0.9174596
0.9409656
0.7797763
0.7967384
0.8146571
0.8336313
0.8537801
0.8751789
0.897927
0.922143
0.9468917
0.7655615
0.7818017
0.7989289
0.8170305
0.8362102
0.8565329
0.8780961
0.9010997
0.9256934
0.9513203
0.7512838
0.7668174
0.7831728
0.800426
0.8186671
0.8379467
0.8583466
0.880045
0.9032165
0.9280553
0.9554595
0.7371427
0.7519959
0.7676113
0.7840553
0.8014058
0.8197022
0.8390093
0.8594812
0.8812639
0.9045401
0.9305857
0.9583939
0.7232717
0.7374759
0.7523886
0.768068
0.784582
0.8019601
0.8202547
0.8395972
0.8601098
0.8819402
0.9062164
0.932329
0.9606157
0.7097242
0.7233119
0.7375589
0.7525176
0.7682471
0.7847695
0.8021263
0.8204321
0.8397874
0.8603149
0.8830214
0.9072917
0.9336058
0.9623455
0.6964966
0.7094973
0.7231134
0.7373911
0.7523832
0.7681052
0.7845905
0.8019392
0.8202363
0.8395822
0.8608959
0.883574
0.9080028
0.9345229
0.9637768
0.6835393
0.6959787
0.7089935
0.7226248
0.7369192
0.7518877
0.7675567
0.7840151
0.8013345
0.8195995
0.8396594
0.8609433
0.88378
0.9084214
0.9352236
0.9656509
0.6707623
0.6826601
0.6950966
0.7081084
0.721737
0.7359887
0.7508849
0.7665048
0.7829099
0.8001711
0.8190831
0.8391154
0.8605711
0.883671
0.9087025
0.9365091
0.9672721
0.6580654
0.6694364
0.6813109
0.6937224
0.7067076
0.7202693
0.734424
0.7492431
0.7647793
0.7810926
0.7989188
0.8177502
0.8378805
0.8595692
0.8832328
0.9102645
0.9381943
0.9691227
0.6454964
0.656356
0.6676855
0.6795146
0.6918767
0.7047726
0.7182144
0.7322651
0.7469704
0.7623812
0.7791416
0.7966541
0.8150916
0.8345035
0.8548926
0.6335331
0.6439165
0.6547398
0.6660301
0.6778169
0.6901001
0.7028886
0.716239
0.7301904
0.7447874
0.7606114
0.7770488
0.7942447
0.812245
0.8310938
0.6223753
0.632323
0.6426852
0.6534857
0.6647516
0.6764809
0.6886808
0.7014029
0.7146816
0.7285555
0.7435639
0.7591089
0.7753236
0.7922527
0.8099461
0.6120393
0.6215909
0.6315342
0.6418916
0.6526871
0.6639176
0.6755884
0.6877475
0.7004257
0.7136573
0.7279482
0.742724
0.7581081
0.7741405
0.7908661
0.6024805
0.6116722
0.6212353
0.6311907
0.641561
0.6523416
0.6635366
0.6751899
0.6873304
0.6999886
0.7136434
0.727743
0.7424026
0.7576573
0.7735464
0.8413948
0.8616787
0.883163
0.9055656
0.9260287
0.8230817
0.8423342
0.8627493
0.8843907
0.9070097
0.9278089
0.8064371
0.8247791
0.8442038
0.864818
0.8867026
0.9095979
0.9309949
0.7912235
0.8087599
0.8273025
0.8469553
0.8678355
0.8899804
0.9132233
0.9355684
0.7771407
0.7939538
0.8117049
0.8304889
0.8504179
0.8715587
0.8939849
0.9177158
0.9412555
0.7636867
0.7798264
0.7968428
0.8148208
0.8338613
0.8540244
0.8754005
0.8981709
0.922416
0.9472095
0.7501342
0.765609
0.7819004
0.7990834
0.8172468
0.836439
0.856739
0.8783208
0.9013474
0.9259715
0.9529001
0.7365067
0.7513287
0.7669103
0.7833177
0.8006282
0.8188801
0.8381373
0.8585526
0.8802693
0.9034636
0.9293981
0.9570109
0.722994
0.737185
0.7520835
0.7677477
0.7842452
0.8016051
0.8198795
0.8391995
0.8596866
0.8814873
0.9057312
0.9318107
0.9600449
0.7097242
0.7233119
0.7375589
0.7525176
0.7682471
0.7847695
0.8021263
0.8204321
0.8397874
0.8603149
0.8830214
0.9072917
0.9336058
0.9623455
0.6967504
0.7097625
0.7233908
0.7376815
0.7526875
0.7684246
0.7849263
0.8022931
0.82061
0.8399782
0.8613129
0.8840029
0.9084338
0.9349495
0.9641917
0.6840705
0.6965332
0.7095728
0.7232305
0.7375531
0.752552
0.7682541
0.7847484
0.8021073
0.8204157
0.840516
0.8618199
0.8846497
0.9092534
0.9359894
0.9662546
0.671639
0.6835745
0.6960511
0.7091057
0.7227798
0.7370806
0.7520299
0.7677073
0.7841751
0.8015049
0.8204836
0.8405552
0.8620052
0.8850282
0.909879
0.9372905
0.9677746
0.6593697
0.6707962
0.6827297
0.6952044
0.7082572
0.7218917
0.7361249
0.7510291
0.7666579
0.7830728
0.8010143
0.8199686
0.8402027
0.8618989
0.8852817
0.9110298
0.9385992
0.9693367
0.6471678
0.6580977
0.6695029
0.6814138
0.6938642
0.7068547
0.7203987
0.7345607
0.7493879
0.7649328
0.7818852
0.7997541
0.8188049
0.8392623
0.8614876
0.8867137
0.9125367
0.9402128
0.9708672
0.6350797
0.6455266
0.6564179
0.6677811
0.6796462
0.6920131
0.7048914
0.7183387
0.7323954
0.7471071
0.76308
0.7797401
0.7972438
0.8156288
0.8348866
0.6235659
0.6335615
0.6439747
0.6548296
0.6661536
0.6779448
0.6902108
0.7030039
0.716359
0.7303156
0.7454232
0.7610931
0.7774585
0.7945566
0.8124222
0.6128197
0.6224023
0.6323783
0.6427704
0.6536029
0.6648729
0.6765856
0.6887895
0.7015157
0.7147989
0.7291494
0.7439937
0.7594553
0.7755721
0.7923862
0.6028587
0.612065
0.6216438
0.6316157
0.6420035
0.6528027
0.6640173
0.6756918
0.6878546
0.7005369
0.7142189
0.7283487
0.7430415
0.7583321
0.7742591
0.5936413
0.6025052
0.6117228
0.6213134
0.6312979
0.6416717
0.652437
0.6636353
0.6752922
0.6874363
0.7005232
0.7140227
0.7280421
0.7426125
0.757768
0.8222573
0.8414549
0.8618055
0.8833659
0.9058579
0.9263464
0.8048923
0.823138
0.8424523
0.8629367
0.8846581
0.9073
0.9280737
0.7890802
0.8064902
0.82489
0.8443789
0.865066
0.8869693
0.9098407
0.931262
0.7746037
0.791274
0.8088652
0.827468
0.8471885
0.8680843
0.8902049
0.9134696
0.9358421
0.7611849
0.7771894
0.7940549
0.8118635
0.8307114
0.8506541
0.8717709
0.8942162
0.9179715
0.9415452
0.7483511
0.7637341
0.7799248
0.7969967
0.8150361
0.8340889
0.8542293
0.8756236
0.8984163
0.9226907
0.9487571
0.7354113
0.7501793
0.7657024
0.7820462
0.7992868
0.8174609
0.8366308
0.8569466
0.878547
0.9015967
0.927326
0.9545309
0.7223871
0.7365492
0.7514167
0.7670474
0.7835086
0.8008285
0.8190586
0.838329
0.8587596
0.8804947
0.9046662
0.9306706
0.9587735
0.7094589
0.7230343
0.7372682
0.7522129
0.7679273
0.7844332
0.8017719
0.8200576
0.8393905
0.8598926
0.882574
0.9068264
0.9331259
0.9618445
0.6967504
0.7097625
0.7233908
0.7376815
0.7526875
0.7684246
0.7849263
0.8022931
0.82061
0.8399782
0.8613129
0.8840029
0.9084338
0.9349495
0.9641917
0.6843136
0.696787
0.7098378
0.7235075
0.737843
0.7528558
0.7685729
0.7850836
0.8024603
0.8207886
0.8409068
0.8622196
0.8850469
0.9096369
0.9363509
0.9665539
0.6721481
0.6841055
0.6966053
0.7096843
0.7233847
0.7377136
0.7526933
0.7684036
0.784907
0.8022759
0.8212899
0.8413765
0.8628151
0.8857945
0.9105674
0.9378339
0.9681643
0.6602107
0.6716727
0.6836438
0.6961583
0.7092536
0.7229336
0.7372158
0.7521728
0.7678588
0.7843359
0.8023366
0.821323
0.8415454
0.8631615
0.8863643
0.9117326
0.9390809
0.969625
0.6484202
0.6594022
0.6708628
0.6828328
0.6953465
0.7084048
0.7220215
0.7362621
0.7511744
0.7668121
0.7838689
0.8018479
0.8209885
0.8414423
0.8633927
0.8874183
0.9129055
0.9404535
0.9709927
0.6366857
0.6471989
0.6581615
0.6696014
0.6815494
0.6940048
0.7069782
0.7205289
0.7346984
0.7495336
0.7656835
0.7826745
0.800748
0.8201022
0.8410547
0.86472
0.8887976
0.914351
0.9418604
0.9722135
0.625053
0.6351087
0.6455859
0.6565095
0.6679071
0.6797767
0.6921266
0.70501
0.7184629
0.7325255
0.7477707
0.7636471
0.7802974
0.79775
0.8159884
0.6139653
0.6235932
0.6336174
0.6440608
0.654948
0.6662761
0.6780508
0.690321
0.7031185
0.7164784
0.7309206
0.7458806
0.7614814
0.7777533
0.7947235
0.6036101
0.6128457
0.6224554
0.6324602
0.6428829
0.6537192
0.6649732
0.6766896
0.6888973
0.7016278
0.715365
0.7295583
0.7443227
0.7596908
0.7756983
0.5940056
0.6028835
0.6121158
0.621722
0.6317231
0.6421145
0.6528983
0.6641163
0.6757943
0.6879609
0.7010731
0.7146007
0.7286508
0.7432543
0.7584446
0.5851136
0.5936651
0.602554
0.6117979
0.6214164
0.6314042
0.6417633
0.6525317
0.6637332
0.6753936
0.6879474
0.7008853
0.7143079
0.7282419
0.7427176
0.8041159
0.8223133
0.8415725
0.8619921
0.8836321
0.9061467
0.9266092
0.7876208
0.804945
0.8232481
0.8426261
0.8631827
0.8849223
0.9075401
0.9283364
0.7725736
0.7891301
0.8065941
0.8250534
0.8446089
0.8653112
0.8871899
0.9100818
0.9315271
0.7587766
0.7746514
0.791373
0.8090203
0.8276856
0.8474191
0.8682904
0.8904281
0.9137145
0.9361142
0.7459716
0.7612309
0.7772848
0.7942041
0.8120721
0.8309316
0.8508505
0.8719828
0.894447
0.9182268
0.9429449
0.7337125
0.748396
0.7638271
0.78007
0.7971992
0.8152493
0.8342798
0.8544356
0.875848
0.8986632
0.9240285
0.9503743
0.7213419
0.7354542
0.7502678
0.7658403
0.782238
0.7994881
0.8176406
0.836824
0.8571555
0.8787746
0.902812
0.9286633
0.9564638
0.708879
0.7224276
0.7366329
0.7515467
0.7672279
0.7836976
0.8009963
0.8192379
0.8385216
0.8589677
0.8815926
0.9058045
0.9320725
0.9607372
0.6964966
0.7094973
0.7231134
0.7373911
0.7523832
0.7681052
0.7845905
0.8019392
0.8202363
0.8395822
0.8608959
0.883574
0.9080028
0.9345229
0.9637768
0.6843136
0.696787
0.7098378
0.7235075
0.737843
0.7528558
0.7685729
0.7850836
0.8024603
0.8207886
0.8409068
0.8622196
0.8850469
0.9096369
0.9363509
0.9665539
0.6723811
0.6843485
0.6968588
0.7099491
0.7236613
0.7380031
0.7529966
0.7687218
0.7852415
0.8026282
0.8216579
0.8417511
0.8631852
0.8861481
0.9108931
0.9381085
0.9683706
0.6606992
0.6721816
0.6841744
0.6967118
0.7098314
0.7235376
0.7378479
0.7528351
0.7685536
0.7850662
0.803098
0.822096
0.8423041
0.8638752
0.8869988
0.9122233
0.9394623
0.9698701
0.6492276
0.660243
0.6717389
0.6837462
0.6962995
0.7094002
0.7230623
0.7373517
0.7523165
0.768011
0.785121
0.8031265
0.8222515
0.8426245
0.8644002
0.8880657
0.9133447
0.9407737
0.9711707
0.637889
0.6484513
0.659466
0.6709615
0.6829688
0.6954875
0.7085286
0.7221522
0.7364003
0.7513207
0.767566
0.7846564
0.8028086
0.822152
0.8428377
0.8653758
0.8891395
0.9145761
0.9420351
0.9722996
0.6265972
0.6367155
0.64726
0.6582558
0.6697312
0.6816839
0.6941228
0.7071025
0.7206601
0.734837
0.7502464
0.7664314
0.783614
0.8019708
0.8217855
0.844077
0.8666532
0.8904617
0.9158373
0.9431962
0.9732406
0.6153961
0.6250808
0.6351656
0.6456738
0.6566303
0.6680321
0.6798853
0.69224
0.7051285
0.7185869
0.7331569
0.7483092
0.7641752
0.7807759
0.798089
0.6047129
0.6139915
0.6236468
0.6337001
0.6441744
0.6550655
0.6663777
0.6781562
0.6904305
0.7032324
0.7170551
0.7313559