/*--------------------------------*- C++ -*----------------------------------*\
| =========                 |                                                 |
| \\      /  F ield         | OpenFOAM: The Open Source CFD Toolbox           |
|  \\    /   O peration     | Version:  2306                                  |
|   \\  /    A nd           | Website:  www.openfoam.com                      |
|    \\/     M anipulation  |                                                 |
\*---------------------------------------------------------------------------*/
FoamFile
{
    version     2.0;
    format      ascii;
    arch        "LSB;label=32;scalar=64";
    class       volScalarField;
    location    "0.3/electrolyte";
    object      T;
}
// * * * * * * * * * * * * * * * * * * * * * * * * * * * * * * * * * * * * * //

dimensions      [0 0 0 1 0 0 0];

internalField   nonuniform List<scalar> 
4000
(
1049.597
1049.5
1050.751
1049.594
1049.274
1050.743
1049.497
1051.832
1050.747
1049.592
1048.853
1050.723
1049.272
1051.85
1050.739
1049.495
1052.859
1051.826
1050.742
1049.589
1048.14
1050.683
1048.851
1051.888
1050.718
1049.27
1052.885
1051.843
1050.734
1049.492
1053.856
1052.851
1051.82
1050.737
1049.587
1047.087
1050.605
1048.142
1051.954
1050.677
1048.85
1052.942
1051.881
1050.713
1049.267
1053.884
1052.877
1051.837
1050.729
1049.49
1054.83
1053.847
1052.843
1051.813
1050.733
1045.889
1050.468
1047.097
1052.052
1050.597
1048.144
1053.042
1051.945
1050.67
1048.849
1053.947
1052.933
1051.874
1050.708
1049.265
1054.858
1053.875
1052.868
1051.83
1050.724
1055.78
1054.819
1053.837
1052.835
1051.806
1044.793
1050.256
1045.91
1052.172
1050.458
1047.107
1053.198
1052.041
1050.589
1048.146
1054.057
1053.032
1051.937
1050.664
1048.848
1054.921
1053.937
1052.924
1051.867
1050.702
1055.808
1054.847
1053.865
1052.86
1051.823
1056.706
1055.769
1054.808
1053.827
1052.826
1043.98
1050.013
1044.825
1052.253
1050.245
1045.931
1053.403
1052.156
1050.447
1047.117
1054.231
1053.185
1052.03
1050.581
1048.149
1055.034
1054.046
1053.022
1051.928
1050.658
1055.87
1054.91
1053.926
1052.915
1051.859
1056.733
1055.796
1054.836
1053.855
1052.851
1057.607
1056.694
1055.757
1054.797
1053.818
1043.551
1049.805
1044.02
1052.285
1050.004
1044.856
1053.586
1052.235
1050.234
1045.951
1054.465
1053.386
1052.141
1050.436
1047.127
1055.211
1054.218
1053.172
1052.019
1050.573
1055.981
1055.021
1054.035
1053.011
1051.919
1056.794
1055.858
1054.899
1053.916
1052.906
1057.633
1056.721
1055.785
1054.825
1053.845
1058.48
1057.594
1056.682
1055.745
1054.787
1043.551
1049.687
1043.595
1052.286
1049.798
1044.059
1053.718
1052.266
1049.995
1044.887
1054.684
1053.566
1052.217
1050.223
1045.971
1055.45
1054.447
1053.369
1052.126
1050.426
1056.155
1055.197
1054.204
1053.159
1052.007
1056.902
1055.968
1055.009
1054.023
1053.001
1057.692
1056.781
1055.846
1054.887
1053.905
1058.506
1057.62
1056.709
1055.773
1054.814
1059.325
1058.467
1057.581
1056.669
1055.733
1043.98
1049.687
1043.595
1052.28
1049.681
1043.638
1053.797
1052.268
1049.791
1044.097
1054.851
1053.696
1052.247
1049.985
1044.916
1055.679
1054.663
1053.546
1052.199
1050.212
1056.392
1055.432
1054.429
1053.352
1052.11
1057.072
1056.141
1055.182
1054.19
1053.146
1057.796
1056.888
1055.955
1054.996
1054.011
1058.563
1057.679
1056.769
1055.834
1054.876
1059.35
1058.493
1057.607
1056.696
1055.761
1060.142
1059.312
1058.454
1057.568
1056.657
1044.793
1049.805
1044.02
1052.28
1049.681
1043.638
1053.833
1052.262
1049.675
1043.679
1054.96
1053.774
1052.249
1049.783
1044.133
1055.858
1054.828
1053.674
1052.228
1049.975
1056.62
1055.658
1054.642
1053.526
1052.181
1057.302
1056.373
1055.414
1054.411
1053.334
1057.962
1057.057
1056.126
1055.167
1054.176
1058.665
1057.783
1056.874
1055.941
1054.984
1059.406
1058.55
1057.666
1056.756
1055.821
1060.167
1059.337
1058.479
1057.594
1056.683
1060.93
1060.129
1059.299
1058.441
1057.556
1045.889
1050.013
1044.825
1052.286
1049.798
1044.059
1053.833
1052.262
1049.675
1043.679
1055.012
1053.811
1052.243
1049.669
1043.72
1055.977
1054.936
1053.752
1052.23
1049.775
1056.8
1055.835
1054.806
1053.652
1052.209
1057.526
1056.599
1055.637
1054.621
1053.505
1058.186
1057.284
1056.355
1055.395
1054.393
1058.826
1057.947
1057.041
1056.11
1055.152
1059.505
1058.651
1057.769
1056.861
1055.928
1060.221
1059.393
1058.536
1057.652
1056.743
1060.954
1060.153
1059.324
1058.466
1057.581
1061.689
1060.917
1060.116
1059.286
1058.428
1047.087
1050.256
1045.91
1052.285
1050.004
1044.856
1053.797
1052.268
1049.791
1044.097
1055.012
1053.811
1052.243
1049.669
1043.72
1056.035
1054.988
1053.788
1052.224
1049.662
1056.921
1055.953
1054.912
1053.729
1052.21
1057.704
1056.778
1055.812
1054.783
1053.63
1058.404
1057.505
1056.578
1055.615
1054.599
1059.044
1058.168
1057.266
1056.337
1055.377
1059.663
1058.81
1057.931
1057.026
1056.095
1060.318
1059.491
1058.636
1057.755
1056.847
1061.007
1060.208
1059.379
1058.522
1057.639
1061.712
1060.941
1060.14
1059.31
1058.453
1062.418
1061.675
1060.903
1060.102
1059.272
1048.14
1050.468
1047.097
1052.253
1050.245
1045.931
1053.718
1052.266
1049.995
1044.887
1054.96
1053.774
1052.249
1049.783
1044.133
1056.035
1054.988
1053.788
1052.224
1049.662
1056.981
1056.011
1054.964
1053.765
1052.205
1057.824
1056.898
1055.929
1054.889
1053.706
1058.579
1057.682
1056.755
1055.79
1054.76
1059.257
1058.384
1057.485
1056.557
1055.594
1059.875
1059.026
1058.15
1057.248
1056.318
1060.472
1059.647
1058.795
1057.916
1057.01
1061.102
1060.304
1059.477
1058.622
1057.74
1061.765
1060.994
1060.194
1059.365
1058.509
1062.441
1061.699
1060.927
1060.126
1059.297
1063.118
1062.405
1061.662
1060.89
1060.089
1048.853
1050.605
1048.142
1052.172
1050.458
1047.107
1053.586
1052.235
1050.234
1045.951
1054.851
1053.696
1052.247
1049.985
1044.916
1055.977
1054.936
1053.752
1052.23
1049.775
1056.981
1056.011
1054.964
1053.765
1052.205
1057.884
1056.958
1055.987
1054.94
1053.742
1058.697
1057.801
1056.875
1055.906
1054.865
1059.427
1058.557
1057.66
1056.733
1055.767
1060.083
1059.237
1058.364
1057.464
1056.536
1060.679
1059.857
1059.008
1058.132
1057.229
1061.253
1060.456
1059.632
1058.779
1057.9
1061.858
1061.088
1060.29
1059.463
1058.608
1062.493
1061.751
1060.98
1060.18
1059.351
1063.14
1062.428
1061.685
1060.913
1060.113
1063.788
1063.104
1062.391
1061.649
1060.876
1049.274
1050.683
1048.851
1052.052
1050.597
1048.144
1053.403
1052.156
1050.447
1047.117
1054.684
1053.566
1052.217
1050.223
1045.971
1055.858
1054.828
1053.674
1052.228
1049.975
1056.921
1055.953
1054.912
1053.729
1052.21
1057.884
1056.958
1055.987
1054.94
1053.742
1058.755
1057.861
1056.934
1055.963
1054.916
1059.543
1058.675
1057.779
1056.852
1055.882
1060.25
1059.407
1058.536
1057.638
1056.711
1060.883
1060.064
1059.217
1058.344
1057.444
1061.456
1060.662
1059.84
1058.99
1058.114
1062.006
1061.238
1060.441
1059.616
1058.763
1062.584
1061.844
1061.074
1060.275
1059.448
1063.191
1062.479
1061.737
1060.966
1060.166
1063.81
1063.127
1062.414
1061.672
1060.9
1064.429
1063.775
1063.091
1062.378
1061.635
1049.5
1050.723
1049.272
1051.954
1050.677
1048.85
1053.198
1052.041
1050.589
1048.146
1054.465
1053.386
1052.141
1050.436
1047.127
1055.679
1054.663
1053.546
1052.199
1050.212
1056.8
1055.835
1054.806
1053.652
1052.209
1057.824
1056.898
1055.929
1054.889
1053.706
1058.755
1057.861
1056.934
1055.963
1054.916
1059.601
1058.733
1057.838
1056.911
1055.939
1060.364
1059.522
1058.653
1057.756
1056.829
1061.047
1060.23
1059.386
1058.515
1057.617
1061.656
1060.864
1060.045
1059.198
1058.324
1062.205
1061.439
1060.645
1059.822
1058.972
1062.729
1061.99
1061.222
1060.425
1059.6
1063.282
1062.57
1061.83
1061.06
1060.261
1063.861
1063.178
1062.465
1061.724
1060.952
1064.452
1063.797
1063.114
1062.401
1061.658
1065.042
1064.417
1063.762
1063.078
1062.365
1049.597
1050.743
1049.497
1051.888
1050.718
1049.27
1053.042
1051.945
1050.67
1048.849
1054.231
1053.185
1052.03
1050.581
1048.149
1055.45
1054.447
1053.369
1052.126
1050.426
1056.62
1055.658
1054.642
1053.526
1052.181
1057.704
1056.778
1055.812
1054.783
1053.63
1058.697
1057.801
1056.875
1055.906
1054.865
1059.601
1058.733
1057.838
1056.911
1055.939
1060.42
1059.579
1058.711
1057.815
1056.887
1061.159
1060.343
1059.5
1058.631
1057.734
1061.817
1061.027
1060.21
1059.365
1058.494
1062.402
1061.638
1060.846
1060.025
1059.178
1062.926
1062.189
1061.422
1060.628
1059.805
1063.425
1062.715
1061.975
1061.207
1060.41
1063.95
1063.268
1062.556
1061.815
1061.045
1064.501
1063.847
1063.164
1062.452
1061.71
1065.064
1064.439
1063.784
1063.101
1062.387
1065.625
1065.029
1064.404
1063.749
1063.065
1050.751
1049.594
1051.85
1050.739
1049.495
1052.942
1051.881
1050.713
1049.267
1054.057
1053.032
1051.937
1050.664
1048.848
1055.211
1054.218
1053.172
1052.019
1050.573
1056.392
1055.432
1054.429
1053.352
1052.11
1057.526
1056.599
1055.637
1054.621
1053.505
1058.579
1057.682
1056.755
1055.79
1054.76
1059.543
1058.675
1057.779
1056.852
1055.882
1060.42
1059.579
1058.711
1057.815
1056.887
1061.214
1060.399
1059.557
1058.689
1057.792
1061.927
1061.138
1060.322
1059.479
1058.609
1062.561
1061.798
1061.008
1060.19
1059.345
1063.12
1062.384
1061.62
1060.827
1060.006
1063.619
1062.91
1062.172
1061.405
1060.61
1064.091
1063.41
1062.7
1061.96
1061.191
1064.589
1063.936
1063.254
1062.542
1061.801
1065.113
1064.488
1063.834
1063.151
1062.438
1065.647
1065.051
1064.426
1063.771
1063.087
1066.18
1065.613
1065.016
1064.391
1063.736
1051.832
1050.747
1049.592
1052.885
1051.843
1050.734
1049.492
1053.947
1052.933
1051.874
1050.708
1049.265
1055.034
1054.046
1053.022
1051.928
1050.658
1056.155
1055.197
1054.204
1053.159
1052.007
1057.302
1056.373
1055.414
1054.411
1053.334
1058.404
1057.505
1056.578
1055.615
1054.599
1059.427
1058.557
1057.66
1056.733
1055.767
1060.364
1059.522
1058.653
1057.756
1056.829
1061.214
1060.399
1059.557
1058.689
1057.792
1061.982
1061.194
1060.378
1059.536
1058.667
1062.669
1061.907
1061.118
1060.302
1059.458
1063.276
1062.542
1061.779
1060.988
1060.17
1063.81
1063.102
1062.366
1061.601
1060.808
1064.283
1063.602
1062.893
1062.155
1061.388
1064.729
1064.077
1063.395
1062.685
1061.945
1065.2
1064.576
1063.922
1063.24
1062.528
1065.695
1065.1
1064.475
1063.821
1063.137
1066.201
1065.634
1065.038
1064.413
1063.758
1066.706
1066.168
1065.6
1065.004
1064.378
1052.859
1051.826
1050.742
1049.589
1053.884
1052.877
1051.837
1050.729
1049.49
1054.921
1053.937
1052.924
1051.867
1050.702
1055.981
1055.021
1054.035
1053.011
1051.919
1057.072
1056.141
1055.182
1054.19
1053.146
1058.186
1057.284
1056.355
1055.395
1054.393
1059.257
1058.384
1057.485
1056.557
1055.594
1060.25
1059.407
1058.536
1057.638
1056.711
1061.159
1060.343
1059.5
1058.631
1057.734
1061.982
1061.194
1060.378
1059.536
1058.667
1062.723
1061.962
1061.174
1060.358
1059.515
1063.383
1062.65
1061.888
1061.098
1060.281
1063.964
1063.258
1062.523
1061.76
1060.969
1064.471
1063.792
1063.085
1062.348
1061.583
1064.918
1064.267
1063.586
1062.877
1062.139
1065.338
1064.715
1064.062
1063.381
1062.67
1065.782
1065.187
1064.562
1063.909
1063.226
1066.249
1065.683
1065.087
1064.462
1063.807
1066.727
1066.189
1065.622
1065.025
1064.4
1067.204
1066.694
1066.155
1065.588
1064.991
1053.856
1052.851
1051.82
1050.737
1049.587
1054.858
1053.875
1052.868
1051.83
1050.724
1055.87
1054.91
1053.926
1052.915
1051.859
1056.902
1055.968
1055.009
1054.023
1053.001
1057.962
1057.057
1056.126
1055.167
1054.176
1059.044
1058.168
1057.266
1056.337
1055.377
1060.083
1059.237
1058.364
1057.464
1056.536
1061.047
1060.23
1059.386
1058.515
1057.617
1061.927
1061.138
1060.322
1059.479
1058.609
1062.723
1061.962
1061.174
1060.358
1059.515
1063.437
1062.704
1061.942
1061.153
1060.337
1064.07
1063.364
1062.631
1061.868
1061.078
1064.624
1063.946
1063.24
1062.505
1061.741
1065.105
1064.454
1063.775
1063.067
1062.33
1065.525
1064.903
1064.251
1063.57
1062.861
1065.918
1065.324
1064.7
1064.048
1063.366
1066.335
1065.769
1065.173
1064.549
1063.895
1066.775
1066.237
1065.67
1065.074
1064.449
1067.225
1066.715
1066.177
1065.609
1065.013
1067.673
1067.192
1066.682
1066.143
1065.575
1054.83
1053.847
1052.843
1051.813
1050.733
1055.808
1054.847
1053.865
1052.86
1051.823
1056.794
1055.858
1054.899
1053.916
1052.906
1057.796
1056.888
1055.955
1054.996
1054.011
1058.826
1057.947
1057.041
1056.11
1055.152
1059.875
1059.026
1058.15
1057.248
1056.318
1060.883
1060.064
1059.217
1058.344
1057.444
1061.817
1061.027
1060.21
1059.365
1058.494
1062.669
1061.907
1061.118
1060.302
1059.458
1063.437
1062.704
1061.942
1061.153
1060.337
1064.123
1063.418
1062.684
1061.923
1061.133
1064.729
1064.052
1063.346
1062.612
1061.849
1065.256
1064.607
1063.929
1063.222
1062.486
1065.71
1065.088
1064.438
1063.758
1063.05
1066.104
1065.51
1064.887
1064.235
1063.554
1066.471
1065.905
1065.31
1064.686
1064.033
1066.86
1066.322
1065.755
1065.16
1064.535
1067.272
1066.763
1066.224
1065.657
1065.061
1067.694
1067.213
1066.703
1066.164
1065.597
1068.115
1067.662
1067.18
1066.67
1066.131
1055.78
1054.819
1053.837
1052.835
1051.806
1056.733
1055.796
1054.836
1053.855
1052.851
1057.692
1056.781
1055.846
1054.887
1053.905
1058.665
1057.783
1056.874
1055.941
1054.984
1059.663
1058.81
1057.931
1057.026
1056.095
1060.679
1059.857
1059.008
1058.132
1057.229
1061.656
1060.864
1060.045
1059.198
1058.324
1062.561
1061.798
1061.008
1060.19
1059.345
1063.383
1062.65
1061.888
1061.098
1060.281
1064.123
1063.418
1062.684
1061.923
1061.133
1064.781
1064.104
1063.399
1062.665
1061.903
1065.36
1064.711
1064.034
1063.327
1062.593
1065.86
1065.239
1064.59
1063.911
1063.204
1066.287
1065.694
1065.072
1064.421
1063.741
1066.654
1066.089
1065.495
1064.872
1064.219
1066.994
1066.457
1065.891
1065.296
1064.672
1067.356
1066.847
1066.309
1065.742
1065.146
1067.741
1067.26
1066.75
1066.212
1065.644
1068.136
1067.683
1067.201
1066.691
1066.152
1068.528
1068.103
1067.65
1067.168
1066.658
1056.706
1055.769
1054.808
1053.827
1052.826
1057.633
1056.721
1055.785
1054.825
1053.845
1058.563
1057.679
1056.769
1055.834
1054.876
1059.505
1058.651
1057.769
1056.861
1055.928
1060.472
1059.647
1058.795
1057.916
1057.01
1061.456
1060.662
1059.84
1058.99
1058.114
1062.402
1061.638
1060.846
1060.025
1059.178
1063.276
1062.542
1061.779
1060.988
1060.17
1064.07
1063.364
1062.631
1061.868
1061.078
1064.781
1064.104
1063.399
1062.665
1061.903
1065.412
1064.763
1064.086
1063.381
1062.646
1065.963
1065.343
1064.693
1064.016
1063.309
1066.436
1065.844
1065.222
1064.572
1063.893
1066.836
1066.271
1065.678
1065.056
1064.404
1067.177
1066.64
1066.074
1065.48
1064.856
1067.49
1066.981
1066.444
1065.877
1065.282
1067.825
1067.344
1066.835
1066.296
1065.729
1068.182
1067.73
1067.248
1066.738
1066.199
1068.549
1068.124
1067.671
1067.189
1066.679
1068.914
1068.517
1068.092
1067.638
1067.156
1057.607
1056.694
1055.757
1054.797
1053.818
1058.506
1057.62
1056.709
1055.773
1054.814
1059.406
1058.55
1057.666
1056.756
1055.821
1060.318
1059.491
1058.636
1057.755
1056.847
1061.253
1060.456
1059.632
1058.779
1057.9
1062.205
1061.439
1060.645
1059.822
1058.972
1063.12
1062.384
1061.62
1060.827
1060.006
1063.964
1063.258
1062.523
1061.76
1060.969
1064.729
1064.052
1063.346
1062.612
1061.849
1065.412
1064.763
1064.086
1063.381
1062.646
1066.015
1065.394
1064.746
1064.068
1063.362
1066.538
1065.946
1065.325
1064.676
1063.998
1066.984
1066.42
1065.827
1065.206
1064.555
1067.358
1066.821
1066.256
1065.662
1065.039
1067.671
1067.163
1066.625
1066.059
1065.465
1067.958
1067.477
1066.968
1066.43
1065.863
1068.266
1067.813
1067.332
1066.822
1066.283
1068.596
1068.171
1067.718
1067.236
1066.726
1068.935
1068.538
1068.113
1067.659
1067.177
1069.272
1068.903
1068.506
1068.081
1067.627
1058.48
1057.594
1056.682
1055.745
1054.787
1059.35
1058.493
1057.607
1056.696
1055.761
1060.221
1059.393
1058.536
1057.652
1056.743
1061.102
1060.304
1059.477
1058.622
1057.74
1062.006
1061.238
1060.441
1059.616
1058.763
1062.926
1062.189
1061.422
1060.628
1059.805
1063.81
1063.102
1062.366
1061.601
1060.808
1064.624
1063.946
1063.24
1062.505
1061.741
1065.36
1064.711
1064.034
1063.327
1062.593
1066.015
1065.394
1064.746
1064.068
1063.362
1066.59
1065.998
1065.377
1064.728
1064.05
1067.086
1066.522
1065.929
1065.308
1064.659
1067.505
1066.969
1066.404
1065.811
1065.189
1067.851
1067.343
1066.806
1066.24
1065.646
1068.138
1067.657
1067.148
1066.611
1066.045
1068.398
1067.945
1067.464
1066.955
1066.416
1068.678
1068.254
1067.801
1067.319
1066.809
1068.981
1068.584
1068.159
1067.706
1067.224
1069.293
1068.924
1068.527
1068.101
1067.647
1069.603
1069.261
1068.892
1068.495
1068.069
1059.325
1058.467
1057.581
1056.669
1055.733
1060.167
1059.337
1058.479
1057.594
1056.683
1061.007
1060.208
1059.379
1058.522
1057.639
1061.858
1061.088
1060.29
1059.463
1058.608
1062.729
1061.99
1061.222
1060.425
1059.6
1063.619
1062.91
1062.172
1061.405
1060.61
1064.471
1063.792
1063.085
1062.348
1061.583
1065.256
1064.607
1063.929
1063.222
1062.486
1065.963
1065.343
1064.693
1064.016
1063.309
1066.59
1065.998
1065.377
1064.728
1064.05
1067.137
1066.573
1065.981
1065.36
1064.711
1067.606
1067.07
1066.505
1065.913
1065.291
1067.997
1067.489
1066.953
1066.388
1065.794
1068.317
1067.836
1067.328
1066.79
1066.225
1068.577
1068.124
1067.643
1067.134
1066.596
1068.81
1068.385
1067.932
1067.451
1066.941
1069.064
1068.667
1068.242
1067.788
1067.307
1069.339
1068.97
1068.573
1068.148
1067.694
1069.623
1069.282
1068.913
1068.515
1068.09
1069.905
1069.592
1069.251
1068.881
1068.484
1060.142
1059.312
1058.454
1057.568
1056.657
1060.954
1060.153
1059.324
1058.466
1057.581
1061.765
1060.994
1060.194
1059.365
1058.509
1062.584
1061.844
1061.074
1060.275
1059.448
1063.425
1062.715
1061.975
1061.207
1060.41
1064.283
1063.602
1062.893
1062.155
1061.388
1065.105
1064.454
1063.775
1063.067
1062.33
1065.86
1065.239
1064.59
1063.911
1063.204
1066.538
1065.946
1065.325
1064.676
1063.998
1067.137
1066.573
1065.981
1065.36
1064.711
1067.656
1067.121
1066.557
1065.964
1065.343
1068.098
1067.59
1067.054
1066.489
1065.896
1068.463
1067.982
1067.474
1066.937
1066.372
1068.755
1068.302
1067.822
1067.313
1066.775
1068.988
1068.564
1068.111
1067.63
1067.12
1069.195
1068.798
1068.373
1067.92
1067.438
1069.421
1069.052
1068.655
1068.23
1067.776
1069.669
1069.328
1068.959
1068.561
1068.136
1069.926
1069.612
1069.271
1068.902
1068.504
1070.18
1069.895
1069.581
1069.24
1068.87
1060.93
1060.129
1059.299
1058.441
1057.556
1061.712
1060.941
1060.14
1059.31
1058.453
1062.493
1061.751
1060.98
1060.18
1059.351
1063.282
1062.57
1061.83
1061.06
1060.261
1064.091
1063.41
1062.7
1061.96
1061.191
1064.918
1064.267
1063.586
1062.877
1062.139
1065.71
1065.088
1064.438
1063.758
1063.05
1066.436
1065.844
1065.222
1064.572
1063.893
1067.086
1066.522
1065.929
1065.308
1064.659
1067.656
1067.121
1066.557
1065.964
1065.343
1068.148
1067.641
1067.105
1066.54
1065.947
1068.562
1068.082
1067.574
1067.038
1066.473
1068.9
1068.448
1067.967
1067.459
1066.922
1069.166
1068.741
1068.288
1067.807
1067.298
1069.372
1068.975
1068.55
1068.097
1067.616
1069.551
1069.182
1068.785
1068.36
1067.907
1069.751
1069.41
1069.041
1068.643
1068.218
1069.971
1069.658
1069.317
1068.947
1068.55
1070.201
1069.915
1069.602
1069.26
1068.89
1070.428
1070.17
1069.884
1069.571
1069.229
1061.689
1060.917
1060.116
1059.286
1058.428
1062.441
1061.699
1060.927
1060.126
1059.297
1063.191
1062.479
1061.737
1060.966
1060.166
1063.95
1063.268
1062.556
1061.815
1061.045
1064.729
1064.077
1063.395
1062.685
1061.945
1065.525
1064.903
1064.251
1063.57
1062.861
1066.287
1065.694
1065.072
1064.421
1063.741
1066.984
1066.42
1065.827
1065.206
1064.555
1067.606
1067.07
1066.505
1065.913
1065.291
1068.148
1067.641
1067.105
1066.54
1065.947
1068.613
1068.133
1067.625
1067.089
1066.524
1069
1068.547
1068.067
1067.559
1067.022
1069.31
1068.886
1068.433
1067.952
1067.443
1069.549
1069.152
1068.727
1068.274
1067.793
1069.729
1069.359
1068.962
1068.537
1068.083
1069.881
1069.54
1069.17
1068.773
1068.348
1070.053
1069.74
1069.398
1069.029
1068.631
1070.247
1069.961
1069.647
1069.306
1068.936
1070.448
1070.19
1069.905
1069.591
1069.249
1070.648
1070.418
1070.16
1069.874
1069.56
1062.418
1061.675
1060.903
1060.102
1059.272
1063.14
1062.428
1061.685
1060.913
1060.113
1063.861
1063.178
1062.465
1061.724
1060.952
1064.589
1063.936
1063.254
1062.542
1061.801
1065.338
1064.715
1064.062
1063.381
1062.67
1066.104
1065.51
1064.887
1064.235
1063.554
1066.836
1066.271
1065.678
1065.056
1064.404
1067.505
1066.969
1066.404
1065.811
1065.189
1068.098
1067.59
1067.054
1066.489
1065.896
1068.613
1068.133
1067.625
1067.089
1066.524
1069.05
1068.598
1068.117
1067.609
1067.073
1069.41
1068.985
1068.532
1068.052
1067.543
1069.693
1069.296
1068.871
1068.418
1067.937
1069.905
1069.535
1069.138
1068.713
1068.259
1070.058
1069.716
1069.346
1068.949
1068.523
1070.183
1069.869
1069.528
1069.158
1068.761
1070.328
1070.042
1069.729
1069.387
1069.017
1070.494
1070.236
1069.95
1069.636
1069.295
1070.668
1070.438
1070.18
1069.894
1069.58
1070.841
1070.638
1070.408
1070.149
1069.863
1063.118
1062.405
1061.662
1060.89
1060.089
1063.81
1063.127
1062.414
1061.672
1060.9
1064.501
1063.847
1063.164
1062.452
1061.71
1065.2
1064.576
1063.922
1063.24
1062.528
1065.918
1065.324
1064.7
1064.048
1063.366
1066.654
1066.089
1065.495
1064.872
1064.219
1067.358
1066.821
1066.256
1065.662
1065.039
1067.997
1067.489
1066.953
1066.388
1065.794
1068.562
1068.082
1067.574
1067.038
1066.473
1069.05
1068.598
1068.117
1067.609
1067.073
1069.46
1069.035
1068.583
1068.102
1067.594
1069.792
1069.395
1068.97
1068.518
1068.037
1070.049
1069.679
1069.282
1068.857
1068.404
1070.233
1069.891
1069.522
1069.124
1068.699
1070.359
1070.045
1069.703
1069.333
1068.936
1070.457
1070.171
1069.858
1069.516
1069.146
1070.575
1070.317
1070.031
1069.717
1069.376
1070.714
1070.484
1070.225
1069.939
1069.625
1070.861
1070.658
1070.428
1070.17
1069.883
1071.006
1070.831
1070.628
1070.398
1070.139
1063.788
1063.104
1062.391
1061.649
1060.876
1064.452
1063.797
1063.114
1062.401
1061.658
1065.113
1064.488
1063.834
1063.151
1062.438
1065.782
1065.187
1064.562
1063.909
1063.226
1066.471
1065.905
1065.31
1064.686
1064.033
1067.177
1066.64
1066.074
1065.48
1064.856
1067.851
1067.343
1066.806
1066.24
1065.646
1068.463
1067.982
1067.474
1066.937
1066.372
1069
1068.547
1068.067
1067.559
1067.022
1069.46
1069.035
1068.583
1068.102
1067.594
1069.842
1069.445
1069.02
1068.568
1068.087
1070.148
1069.778
1069.381
1068.956
1068.503
1070.377
1070.035
1069.665
1069.268
1068.842
1070.534
1070.22
1069.878
1069.508
1069.111
1070.633
1070.347
1070.033
1069.691
1069.321
1070.704
1070.446
1070.16
1069.846
1069.504
1070.795
1070.565
1070.306
1070.02
1069.706
1070.906
1070.704
1070.473
1070.215
1069.929
1071.026
1070.851
1070.648
1070.418
1070.159
1071.143
1070.996
1070.821
1070.618
1070.387
1064.429
1063.775
1063.091
1062.378
1061.635
1065.064
1064.439
1063.784
1063.101
1062.387
1065.695
1065.1
1064.475
1063.821
1063.137
1066.335
1065.769
1065.173
1064.549
1063.895
1066.994
1066.457
1065.891
1065.296
1064.672
1067.671
1067.163
1066.625
1066.059
1065.465
1068.317
1067.836
1067.328
1066.79
1066.225
1068.9
1068.448
1067.967
1067.459
1066.922
1069.41
1068.985
1068.532
1068.052
1067.543
1069.842
1069.445
1069.02
1068.568
1068.087
1070.198
1069.828
1069.431
1069.006
1068.553
1070.476
1070.134
1069.764
1069.367
1068.941
1070.678
1070.363
1070.021
1069.651
1069.254
1070.808
1070.521
1070.207
1069.865
1069.495
1070.88
1070.621
1070.334
1070.02
1069.678
1070.924
1070.693
1070.435
1070.148
1069.834
1070.987
1070.785
1070.554
1070.296
1070.009
1071.072
1070.896
1070.694
1070.463
1070.204
1071.163
1071.016
1070.841
1070.638
1070.408
1071.253
1071.134
1070.987
1070.811
1070.608
1065.042
1064.417
1063.762
1063.078
1062.365
1065.647
1065.051
1064.426
1063.771
1063.087
1066.249
1065.683
1065.087
1064.462
1063.807
1066.86
1066.322
1065.755
1065.16
1064.535
1067.49
1066.981
1066.444
1065.877
1065.282
1068.138
1067.657
1067.148
1066.611
1066.045
1068.755
1068.302
1067.822
1067.313
1066.775
1069.31
1068.886
1068.433
1067.952
1067.443
1069.792
1069.395
1068.97
1068.518
1068.037
1070.198
1069.828
1069.431
1069.006
1068.553
1070.526
1070.184
1069.814
1069.416
1068.991
1070.777
1070.462
1070.12
1069.75
1069.352
1070.952
1070.665
1070.35
1070.008
1069.638
1071.055
1070.796
1070.509
1070.194
1069.852
1071.1
1070.868
1070.609
1070.322
1070.008
1071.116
1070.913
1070.682
1070.424
1070.137
1071.153
1070.977
1070.774
1070.543
1070.285
1071.209
1071.062
1070.886
1070.684
1070.453
1071.273
1071.154
1071.007
1070.831
1070.628
1071.335
1071.244
1071.124
1070.977
1070.801
1065.625
1065.029
1064.404
1063.749
1063.065
1066.201
1065.634
1065.038
1064.413
1063.758
1066.775
1066.237
1065.67
1065.074
1064.449
1067.356
1066.847
1066.309
1065.742
1065.146
1067.958
1067.477
1066.968
1066.43
1065.863
1068.577
1068.124
1067.643
1067.134
1066.596
1069.166
1068.741
1068.288
1067.807
1067.298
1069.693
1069.296
1068.871
1068.418
1067.937
1070.148
1069.778
1069.381
1068.956
1068.503
1070.526
1070.184
1069.814
1069.416
1068.991
1070.827
1070.512
1070.17
1069.8
1069.402
1071.051
1070.763
1070.449
1070.106
1069.736
1071.198
1070.939
1070.651
1070.337
1069.994
1071.275
1071.043
1070.783
1070.496
1070.181
1071.292
1071.088
1070.856
1070.597
1070.31
1071.281
1071.106
1070.902
1070.671
1070.412
1071.29
1071.143
1070.967
1070.764
1070.533
1071.319
1071.199
1071.052
1070.876
1070.673
1071.355
1071.264
1071.144
1070.997
1070.821
1071.389
1071.325
1071.234
1071.115
1070.967
1066.18
1065.613
1065.016
1064.391
1063.736
1066.727
1066.189
1065.622
1065.025
1064.4
1067.272
1066.763
1066.224
1065.657
1065.061
1067.825
1067.344
1066.835
1066.296
1065.729
1068.398
1067.945
1067.464
1066.955
1066.416
1068.988
1068.564
1068.111
1067.63
1067.12
1069.549
1069.152
1068.727
1068.274
1067.793
1070.049
1069.679
1069.282
1068.857
1068.404
1070.476
1070.134
1069.764
1069.367
1068.941
1070.827
1070.512
1070.17
1069.8
1069.402
1071.1
1070.813
1070.498
1070.156
1069.786
1071.297
1071.037
1070.75
1070.435
1070.093
1071.418
1071.186
1070.926
1070.638
1070.324
1071.467
1071.262
1071.03
1070.771
1070.483
1071.457
1071.28
1071.076
1070.844
1070.585
1071.419
1071.271
1071.095
1070.892
1070.66
1071.4
1071.28
1071.132
1070.957
1070.753
1071.4
1071.309
1071.189
1071.042
1070.866
1071.409
1071.345
1071.254
1071.135
1070.987
1071.415
1071.38
1071.316
1071.225
1071.105
1066.706
1066.168
1065.6
1065.004
1064.378
1067.225
1066.715
1066.177
1065.609
1065.013
1067.741
1067.26
1066.75
1066.212
1065.644
1068.266
1067.813
1067.332
1066.822
1066.283
1068.81
1068.385
1067.932
1067.451
1066.941
1069.372
1068.975
1068.55
1068.097
1067.616
1069.905
1069.535
1069.138
1068.713
1068.259
1070.377
1070.035
1069.665
1069.268
1068.842
1070.777
1070.462
1070.12
1069.75
1069.352
1071.1
1070.813
1070.498
1070.156
1069.786
1071.347
1071.087
1070.8
1070.485
1070.142
1071.517
1071.284
1071.024
1070.737
1070.422
1071.61
1071.405
1071.173
1070.913
1070.625
1071.632
1071.454
1071.25
1071.018
1070.758
1071.594
1071.445
1071.269
1071.065
1070.833
1071.529
1071.408
1071.26
1071.084
1070.881
1071.481
1071.39
1071.27
1071.122
1070.946
1071.455
1071.391
1071.3
1071.18
1071.032
1071.435
1071.4
1071.336
1071.245
1071.125
1071.406
1071.371
1071.307
1071.216
1067.204
1066.694
1066.155
1065.588
1064.991
1067.694
1067.213
1066.703
1066.164
1065.597
1068.182
1067.73
1067.248
1066.738
1066.199
1068.678
1068.254
1067.801
1067.319
1066.809
1069.195
1068.798
1068.373
1067.92
1067.438
1069.729
1069.359
1068.962
1068.537
1068.083
1070.233
1069.891
1069.522
1069.124
1068.699
1070.678
1070.363
1070.021
1069.651
1069.254
1071.051
1070.763
1070.449
1070.106
1069.736
1071.347
1071.087
1070.8
1070.485
1070.142
1071.567
1071.334
1071.074
1070.786
1070.471
1071.709
1071.504
1071.271
1071.011
1070.724
1071.775
1071.597
1071.393
1071.16
1070.9
1071.769
1071.62
1071.442
1071.238
1071.006
1071.704
1071.582
1071.434
1071.257
1071.053
1071.61
1071.518
1071.398
1071.25
1071.073
1071.536
1071.471
1071.38
1071.26
1071.112
1071.481
1071.446
1071.381
1071.29
1071.17
1071.426
1071.391
1071.327
1071.236
1071.397
1071.362
1071.298
1067.673
1067.192
1066.682
1066.143
1065.575
1068.136
1067.683
1067.201
1066.691
1066.152
1068.596
1068.171
1067.718
1067.236
1066.726
1069.064
1068.667
1068.242
1067.788
1067.307
1069.551
1069.182
1068.785
1068.36
1067.907
1070.058
1069.716
1069.346
1068.949
1068.523
1070.534
1070.22
1069.878
1069.508
1069.111
1070.952
1070.665
1070.35
1070.008
1069.638
1071.297
1071.037
1070.75
1070.435
1070.093
1071.567
1071.334
1071.074
1070.786
1070.471
1071.759
1071.554
1071.321
1071.061
1070.773
1071.874
1071.696
1071.491
1071.258
1070.998
1071.912
1071.763
1071.585
1071.38
1071.148
1071.879
1071.757
1071.608
1071.43
1071.226
1071.785
1071.693
1071.571
1071.423
1071.246
1071.665
1071.6
1071.508
1071.387
1071.239
1071.563
1071.526
1071.462
1071.37
1071.25
1071.472
1071.436
1071.372
1071.28
1071.417
1071.382
1071.318
1071.388
1071.353
1068.115
1067.662
1067.18
1066.67
1066.131
1068.549
1068.124
1067.671
1067.189
1066.679
1068.981
1068.584
1068.159
1067.706
1067.224
1069.421
1069.052
1068.655
1068.23
1067.776
1069.881
1069.54
1069.17
1068.773
1068.348
1070.359
1070.045
1069.703
1069.333
1068.936
1070.808
1070.521
1070.207
1069.865
1069.495
1071.198
1070.939
1070.651
1070.337
1069.994
1071.517
1071.284
1071.024
1070.737
1070.422
1071.759
1071.554
1071.321
1071.061
1070.773
1071.924
1071.746
1071.541
1071.308
1071.048
1072.011
1071.862
1071.684
1071.479
1071.246
1072.023
1071.9
1071.751
1071.573
1071.368
1071.96
1071.867
1071.745
1071.596
1071.419
1071.84
1071.774
1071.682
1071.56
1071.412
1071.694
1071.655
1071.589
1071.498
1071.377
1071.554
1071.517
1071.452
1071.36
1071.463
1071.427
1071.362
1071.408
1071.372
1071.379
1068.528
1068.103
1067.65
1067.168
1066.658
1068.935
1068.538
1068.113
1067.659
1067.177
1069.339
1068.97
1068.573
1068.148
1067.694
1069.751
1069.41
1069.041
1068.643
1068.218
1070.183
1069.869
1069.528
1069.158
1068.761
1070.633
1070.347
1070.033
1069.691
1069.321
1071.055
1070.796
1070.509
1070.194
1069.852
1071.418
1071.186
1070.926
1070.638
1070.324
1071.709
1071.504
1071.271
1071.011
1070.724
1071.924
1071.746