/*--------------------------------*- C++ -*----------------------------------*\
| =========                 |                                                 |
| \\      /  F ield         | OpenFOAM: The Open Source CFD Toolbox           |
|  \\    /   O peration     | Version:  2306                                  |
|   \\  /    A nd           | Website:  www.openfoam.com                      |
|    \\/     M anipulation  |                                                 |
\*---------------------------------------------------------------------------*/
FoamFile
{
    version     2.0;
    format      ascii;
    arch        "LSB;label=32;scalar=64";
    class       volVectorField;
    location    "0.9/phiEA";
    object      i;
}
// * * * * * * * * * * * * * * * * * * * * * * * * * * * * * * * * * * * * * //

dimensions      [0 -2 0 0 0 1 0];

internalField   nonuniform List<vector> 
20000
(
(-587.2362 2367.063 1982.26)
(-616.2835 7607.512 2018.287)
(-1178.901 2076.59 1810.705)
(-586.55 2365.622 5861.292)
(-679.5988 14379.99 2091.066)
(-1229.286 6683.886 1839.141)
(-615.5669 7603.159 5968.191)
(-1102.421 1863.214 1663.596)
(-1177.627 2075.453 5358.255)
(-585.2241 2362.787 9594.469)
(-787.5642 23408 2187.99)
(-1339.434 12667.18 1896.177)
(-678.8193 14373.2 6184.148)
(-1139.443 6002.186 1687.908)
(-1227.965 6680.467 5442.85)
(-614.1822 7594.597 9770.27)
(-944.7651 1706.371 1545.383)
(-1101.359 1862.241 4926.372)
(-1175.161 2073.207 8779.362)
(-583.2896 2358.59 13230.09)
(-952.085 33394.97 2239.012)
(-1528.102 20683.14 1969.622)
(-786.6907 23402.08 6471.377)
(-1220.818 11391.84 1736.581)
(-1338.016 12661.97 5612.57)
(-677.3125 14359.86 10125.48)
(-972.7222 5499.908 1566.988)
(-1138.354 5999.267 4998.797)
(-1225.409 6673.713 8918.918)
(-612.1615 7581.919 13473.57)
(-807.0784 1583.643 1447.234)
(-943.8997 1705.507 4578.999)
(-1099.304 1860.317 8078.593)
(-1171.563 2069.871 12115.05)
(-580.7639 2353.048 15553.38)
(-1168.455 37949.66 2098.853)
(-1817.095 29586.06 1995.807)
(-951.1121 33398.53 6619.868)
(-1361.345 18631.39 1798.4)
(-1526.543 20679.15 5830.962)
(-785.0025 23390.57 10597.31)
(-1034.352 10448.16 1610.21)
(-1219.675 11387.42 5143.835)
(-1335.272 12651.66 9199.014)
(-675.1134 14340.12 13965.69)
(-829.4692 5106.314 1466.851)
(-971.838 5497.315 4643.415)
(-1136.245 5993.488 8198.268)
(-1221.677 6663.681 12308.8)
(-609.5231 7565.173 15840.67)
(-698.6018 1482.462 1363.007)
(-806.3489 1582.858 4290.358)
(-942.2211 1703.794 7514.358)
(-1096.299 1857.454 11155.6)
(-1166.864 2065.457 14249.47)
(-792.7871 3218.878 20447.93)
(-1380.56 34179.42 2021.54)
(-2198.895 33664.9 1846.009)
(-1167.444 37958.36 6193.74)
(-1578.573 26687.04 1815.542)
(-1815.401 29591 5907.225)
(-949.2344 33406.07 10836.07)
(-1141.225 17105.59 1664.679)
(-1360.125 18628.23 5327.97)
(-1523.528 20671.35 9559.236)
(-782.5384 23373.66 14619.02)
(-878.9195 9706.804 1506.092)
(-1033.43 10444.25 4772.332)
(-1217.457 11378.67 8438.04)
(-1331.266 12636.35 12697.86)
(-672.2412 14314.05 16421.62)
(-717.3473 4781.497 1381.059)
(-828.7255 5103.96 4348.888)
(-970.1226 5492.174 7620.914)
(-1133.162 5984.889 11321.96)
(-1216.802 6650.401 14478.44)
(-832.063 10350.43 20851.55)
(-613.922 1396.188 1289.169)
(-697.9695 1481.74 4042.487)
(-804.9323 1581.301 7045.094)
(-939.7657 1701.244 10382.55)
(-1092.374 1853.662 13127.15)
(-1593.405 2826.119 18735.24)
(-789.6255 3210.892 18972.05)
(-1553.552 25945.56 1999.881)
(-2573.85 30328.45 1756.338)
(-1379.499 34183.38 5957.714)
(-1867.752 30382.1 1671.946)
(-2197.187 33674.48 5454.993)
(-1165.5 37976.14 10114.22)
(-1307.152 24521.99 1677.122)
(-1577.298 26692.09 5377.912)
(-1812.127 29601.1 9682.027)
(-946.496 33417.86 14944.57)
(-964.8948 15903.4 1555.289)
(-1140.253 17102.92 4934.749)
(-1357.76 18622.03 8742.382)
(-1519.124 20659.83 13198.26)
(-779.3195 23351.42 17193.07)
(-758.8029 9093.902 1417.174)
(-878.1473 9703.266 4466.008)
(-1031.641 10436.5 7834.273)
(-1214.216 11365.65 11655.46)
(-1326.032 12616.08 14938.51)
(-917.7339 19592.26 21668.46)
(-630.0885 4504.303 1305.938)
(-716.7036 4779.33 4096.377)
(-827.281 5099.288 7141.992)
(-967.6129 5484.518 10530.8)
(-1129.133 5973.493 13323.93)
(-1661.636 9100.963 19060.07)
(-828.7514 10326.27 19398.91)
(-547.1372 1320.798 1223.348)
(-613.3634 1395.517 3825.048)
(-696.7406 1480.307 6641.775)
(-802.8585 1578.982 9739.192)
(-936.5554 1697.864 12222.59)
(-1492.377 2536.571 17260.75)
(-1587.521 2819.633 17378.73)
(-786.4138 3201.803 19222.26)
(-1672.871 15953.45 1998.322)
(-2880.067 23022.46 1722.767)
(-1552.443 25946.49 5890.146)
(-2152.4 27367.7 1584.372)
(-2572.102 30333.38 5184.276)
(-1377.467 34191.56 9712.86)
(-1528.73 27926.63 1540.982)
(-1866.532 30391.35 4945.224)
(-2193.901 33693.82 8922.145)
(-1162.675 38003.28 13920.12)
(-1098.733 22811.99 1564.838)
(-1306.149 24526.94 4971.008)
(-1574.828 26702.35 8822.874)
(-1807.348 29616.49 13366.01)
(-942.9202 33434.03 17574.39)
(-831.0158 14907.46 1462.283)
(-964.0852 15901.05 4612.819)
(-1138.365 17097.65 8103.071)
(-1354.301 18612.84 12078.93)
(-1513.368 20644.63 15530.65)
(-1064.076 31992.06 22747.87)
(-665.8796 8570.118 1339.492)
(-758.1365 9090.653 4204.221)
(-876.647 9696.247 7335.983)
(-1029.022 10424.96 10827.82)
(-1209.977 11348.39 13718.66)
(-1810.909 17272.13 19713.85)
(-914.1124 19554.84 20263.95)
(-561.3773 4261.921 1239.031)
(-629.5204 4502.29 3875.129)
(-715.4522 4775.027 6731.048)
(-825.166 5092.324 9874.092)
(-964.3311 5474.363 12398.05)
(-1542.638 8175.4 17541.2)
(-1655.516 9081.405 17727.96)
(-825.3792 10298.76 19704.28)
(-493.3852 1253.787 1163.978)
(-546.6364 1320.171 3631.1)
(-612.2765 1394.185 6287.694)
(-694.9399 1478.169 9185.896)
(-800.1457 1575.905 11469.52)
(-1279.728 2323.51 16072.66)
(-1487.462 2530.947 16006.37)
(-1581.543 2812.15 17603.93)
(-783.1522 3191.611 19471.71)
(-1733.321 5364.159 2000.131)
(-3091.526 14155.76 1712.795)
(-1671.728 15953.44 5883.976)
(-2385.146 20768.81 1549.634)
(-2878.266 23024.2 5082.643)
(-1550.322 25948.51 9595.26)
(-1746.775 25154.52 1457.348)
(-2151.204 27372.59 4681.514)
(-2568.745 30343.35 8467.554)
(-1374.518 34204.14 13349.7)
(-1277.794 25985.87 1435.705)
(-1527.785 27935.42 4561.15)
(-1864.177 30409.96 8097.443)
(-2189.12 33723.06 12294.08)
(-1158.996 38039.94 16343.48)
(-943.6471 21393 1469.862)
(-1097.904 22816.78 4640.648)
(-1304.203 24536.94 8161.56)
(-1571.216 26717.89 12189.1)
(-1801.105 29637.27 15727.64)
(-1287.921 45876.81 23234.89)
(-728.3191 14054.95 1381.287)
(-830.3198 14905.35 4338.917)
(-962.5115 15896.41 7579.185)
(-1135.6 17089.83 11202.23)
(-1349.776 18600.68 14220.33)
(-2067.062 28290.2 20553.09)
(-1060.002 31962.14 21396.37)
(-592.9315 8111.596 1270.42)
(-665.2926 8567.104 3975.369)
(-756.8403 9084.201 6909.79)
(-874.4494 9685.778 10144.33)
(-1025.597 10409.65 12749.83)
(-1653.203 15538.01 18104.92)
(-1804.303 17242.33 18432.72)
(-910.409 19512.37 20682.35)
(-506.1207 4046.36 1178.722)
(-560.8685 4260.038 3677.955)
(-628.4148 4498.29 6370.7)
(-713.6184 4768.609 9310.246)
(-822.3988 5083.083 11629.25)
(-1317.715 7492.702 16323.49)
(-1537.579 8158.453 16310.24)
(-1649.281 9058.804 18003.04)
(-821.9465 10267.87 20008.88)
(-449.2473 1193.443 1109.916)
(-492.9315 1253.197 3456.059)
(-545.6612 1318.924 5971.632)
(-610.6828 1392.197 8699.85)
(-692.5832 1475.333 10821.61)
(-1093.378 2156.699 15083.77)
(-1275.711 2318.466 14901.44)
(-1482.468 2524.416 16209.45)
(-1575.47 2803.669 17828.49)
(-779.841 3180.317 28740.54)
(-1733.321 -5364.159 2000.131)
(-3198.747 4759.656 1710.422)
(-1732.162 5364.087 5888.729)
(-2546.032 12766.64 1537.951)
(-3089.684 14156.25 5052.26)
(-1669.544 15953.5 9582.11)
(-1924.853 19086.14 1423.417)
(-2383.948 20770.67 4576.852)
(-2874.814 23027.74 8296.4)
(-1547.248 25951.72 13179.95)
(-1453.944 23406.47 1356.096)
(-1745.861 25159.22 4309.583)
(-2148.901 27382.44 7655.934)
(-2563.874 30358.41 11653.88)
(-1370.683 34221.17 15658.76)
(-1094.54 24374.53 1347.12)
(-1277.018 25994.22 4252.092)
(-1525.957 27953.09 7475.134)
(-1860.744 30438.03 11167.52)
(-2182.89 33762.31 14444.6)
(-1584.109 52223.88 21318.59)
(-825.854 20176.75 1387.448)
(-942.9375 21397.61 4361.004)
(-1096.293 22826.42 7624.114)
(-1301.354 24552.06 11282.44)
(-1566.494 26738.8 14350.05)
(-2460.961 40676.48 20802.84)
(-1283.419 45909.55 21820.25)
(-648.0459 13307.71 1309.433)
(-727.7077 14053.04 4100.228)
(-828.9654 14901.19 7133.088)
(-960.2053 15889.52 10483.35)
(-1131.983 17079.46 13193.72)
(-1844.507 25491.54 18820.24)
(-2059.765 28269.07 19332.79)
(-1055.822 31929.81 21955.2)
(-534.3615 7703.432 1208.239)
(-592.4064 8108.78 3771.759)
(-664.1497 8561.114 6536.925)
(-754.9403 9074.572 9559.372)
(-871.5732 9671.876 11949.46)
(-1401.525 14253.45 16827.46)
(-1647.852 15512.35 16922.89)
(-1797.544 17207.94 18810.24)
(-906.6239 19464.8 21100.32)
(-460.7695 3852.159 1123.834)
(-505.66 4044.59 3500.121)
(-559.8773 4256.295 6049.323)
(-626.7935 4492.321 8815.519)
(-711.2179 4760.088 10968.9)
(-1123.816 6957.431 15312.64)
(-1313.597 7477.506 15174.56)
(-1532.425 8138.739 16558.62)
(-1642.933 9033.153 18277.46)
(-818.4535 10233.61 29614.57)
(-412.2995 1138.565 1060.322)
(-448.8327 1192.886 3296.581)
(-492.0472 1252.024 5686.177)
(-544.2303 1317.063 8265.732)
(-608.5958 1389.558 10252.21)
(-946.3827 2019.124 14233.1)
(-1089.984 2152.087 13982.52)
(-1271.633 2312.586 15087.51)
(-1477.396 2516.98 16411.97)
(-1569.304 2794.191 26308.72)
(-372.2766 1525.075 19988.56)
(-1672.871 -15953.45 1998.322)
(-3198.747 -4759.656 1710.422)
(-1732.162 -5364.087 5888.729)
(-2627.671 4291.943 1534.542)
(-3196.885 4759.751 5044.942)
(-1729.946 5363.969 9588.731)
(-2047.806 11730.5 1411.507)
(-2544.827 12767.25 4541.615)
(-3086.156 14157.26 8244.862)
(-1666.379 15953.7 13158.6)
(-1597.675 17758.49 1323.43)
(-1923.948 19087.97 4207.533)
(-2381.645 20774.4 7480.652)
(-2869.808 23033.11 11412.47)
(-1543.252 25956.16 15453.32)
(-1242.964 21955.7 1271.304)
(-1453.199 23410.96 4012.776)
(-1744.1 25168.66 7054.502)
(-2145.552 27397.26 10547.14)
(-2557.535 30378.61 13680.31)
(-1874.2 46957.36 20241.74)
(-956.6631 22992.7 1270.536)
(-1093.879 24382.47 3991.812)
(-1275.516 26010.99 6973.777)
(-1523.29 27979.71 10316.6)
(-1856.267 30475.64 13128.69)
(-2984.587 46361.08 18853.09)
(-1579.618 52288.78 19454.35)
(-734.2424 19109.56 1314.527)
(-825.2327 20181.18 4118.185)
(-941.5572 21406.89 7168.776)
(-1093.933 22840.99 10545.08)
(-1297.627 24572.36 13288.43)
(-2141.43 36701.56 18983.34)
(-2453.081 40713.39 19546.01)
(-1278.824 45954.49 22361.6)
(-583.7378 12641.84 1244.861)
(-647.5002 13305.95 3888.352)
(-726.5168 14049.24 6744.039)
(-826.9792 14894.99 9870.84)
(-957.1859 15880.38 12351.63)
(-1547.143 23407.93 17462.82)
(-1838.761 25474.37 17697.74)
(-2052.267 28245.66 19838.51)
(-1051.535 31894.97 22515.44)
(-486.3355 7335.426 1151.705)
(-533.8866 7700.787 3588.357)
(-591.3834 8103.181 6204.942)
(-662.4732 8552.171 9047.297)
(-752.4522 9061.777 11264.2)
(-1191.095 13243.73 15772.45)
(-1397.202 14230.52 15725.07)
(-1642.373 15482.51 17264.39)
(-1790.632 17168.92 19187.41)
(-902.7573 19412.1 31393.43)
(-422.8179 3675.479 1073.504)
(-460.3486 3850.487 3338.184)
(-504.7617 4041.069 5759.264)
(-558.4227 4250.706 8374.034)
(-624.67 4484.393 10389.27)
(-971.8745 6515.528 14444.52)
(-1120.345 6943.538 14232.6)
(-1309.405 7459.757 15402.42)
(-1527.176 8116.255 16806.43)
(-1636.472 9004.447 27045.59)
(-390.5737 4919.199 20731.17)
(-380.8503 1088.258 1014.544)
(-411.918 1138.038 3150.207)
(-448.0239 1191.779 5425.928)
(-490.7487 1250.273 7873.429)
(-542.3555 1314.592 9743.444)
(-831.5934 1901.78 13485.53)
(-943.4354 2014.857 13192.51)
(-1086.542 2146.695 14155.12)
(-1267.494 2305.869 15273.07)
(-1472.246 2508.638 24211.4)
(-751.7888 1342.104 18287.79)
(-336.3257 1346.364 21559.8)
(-1553.552 -25945.56 1999.881)
(-3091.526 -14155.76 1712.795)
(-1671.728 -15953.44 5883.976)
(-2627.671 -4291.943 1534.542)
(-3196.885 -4759.751 5044.942)
(-1729.946 -5363.969 9588.731)
(-2110.148 3943.264 1407.831)
(-2626.461 4292.079 4531.322)
(-3193.318 4759.949 8232.289)
(-1726.736 5363.822 13166.54)
(-1696.825 10913.69 1311.734)
(-2046.901 11731.13 4171.722)
(-2542.51 12768.46 7421.572)
(-3081.042 14158.81 11339.41)
(-1662.267 15954.04 15425.88)
(-1364.011 16657.33 1239.992)
(-1596.941 17760.27 3914.621)
(-1922.204 19091.66 6883.951)
(-2378.299 20780.04 10300.93)
(-2863.298 23040.32 13392.04)
(-2110.632 35603.71 19899.15)
(-1085.337 20711.76 1198.238)
(-1242.333 21959.99 3763.987)
(-1451.761 23419.97 6573.919)
(-1741.533 25182.87 9726.155)
(-2141.19 27417.1 12389.15)
(-3498.234 41692.14 17693.84)
(-1869.603 46988.67 18105.34)
(-849.9447 21779.7 1202.952)
(-956.0864 23000.27 3766.617)
(-1092.598 24398.41 6551.114)
(-1273.322 26036.23 9630.492)
(-1519.809 28015.34 12134.38)
(-2539.204 41851.15 17140.06)
(-2976.964 46426.95 17218.18)
(-1575.165 52372.47 19402.02)
(-661.0366 18157.76 1249.128)
(-733.6891 19113.82 3903.201)
(-824.0228 20190.1 6773.079)
(-939.5334 21420.89 9919.973)
(-1090.843 22860.54 12424.74)
(-1774.152 33729.51 17580.94)
(-2135.447 36737.56 17833.85)
(-2445.015 40761.06 20040.06)
(-1274.133 46011.68 22908.37)
(-531.0729 12040.96 1186.234)
(-583.245 12640.21 3697.842)
(-646.4364 13302.46 6398.441)
(-724.7691 14043.59 9336.335)
(-824.3773 14886.76 11633.86)
(-1308.296 21765.27 16349.68)
(-1542.551 23393.12 16417.57)
(-1832.846 25455.1 18155.96)
(-2044.568 28219.88 20345.55)
(-1047.142 31857.49 33694.98)
(-446.1692 7000.398 1099.908)
(-485.9022 7332.93 3421.521)
(-532.9605 7695.524 5905.7)
(-589.8815 8094.816 8591.101)
(-660.2766 8540.282 10664.09)
(-1028.295 12408.65 14869.34)
(-1187.468 13222.81 14736.73)
(-1392.78 14203.72 16038.89)
(-1636.766 15448.45 17605.6)
(-1783.565 17125.22 28542.56)
(-430.6522 9402.13 22260.94)
(-390.5221 3513.461 1027.063)
(-422.4308 3673.895 3189.618)
(-459.5275 3847.161 5494.959)
(-503.4425 4035.809 7975.344)
(-556.5166 4243.28 9871.802)
(-853.5841 6138.303 13682.55)
(-968.8642 6502.671 13424.19)
(-1116.815 6927.262 14444.21)
(-1305.139 7439.451 15629.78)
(-1521.834 8090.994 24861.32)
(-783.7194 4335.443 18923.46)
(-352.1798 4369.53 22584.9)
(-353.6883 1041.846 972.0733)
(-380.4973 1087.758 3015.027)
(-411.1733 1136.988 5186.907)
(-446.8356 1190.125 7515.568)
(-489.0465 1247.948 9283.491)
(-741.0589 1799.216 12817.55)
(-828.9835 1897.799 12498.57)
(-940.4469 2009.856 13354.01)
(-1083.05 2140.523 14327.27)
(-1263.294 2298.317 22526.43)
(-708.6798 1205.77 16819.07)
(-684.7599 1187.823 19711.81)
(-298.3569 1115.037 22518.98)
(-1380.56 -34179.42 2021.54)
(-2880.067 -23022.46 1722.767)
(-1552.443 -25946.49 5890.146)
(-2546.032 -12766.64 1537.951)
(-3089.684 -14156.25 5052.26)
(-1669.544 -15953.5 9582.11)
(-2110.148 -3943.264 1407.831)
(-2626.461 -4292.079 4531.322)
(-3193.318 -4759.949 8232.289)
(-1726.736 -5363.822 13166.54)
(-1747.066 3668.526 1308.036)
(-2109.242 3943.411 4160.675)
(-2624.134 4292.354 7404.295)
(-3188.147 4760.254 11321.42)
(-1722.565 5363.651 15434.37)
(-1447.468 10236.59 1228.657)
(-1696.094 10914.31 3879.5)
(-2045.158 11732.38 6824.125)
(-2539.144 12770.3 10217.89)
(-3074.393 14160.9 13304.56)
(-2273.683 21880.4 19836.89)
(-1190.249 15713.46 1168.256)
(-1363.39 16659.03 3669.946)
(-1595.525 17763.82 6410.052)
(-1919.665 19097.19 9486.971)
(-2373.943 20787.57 12095.9)
(-3917.318 31608.88 17252.66)
(-2105.873 35613.21 17643.94)
(-963.7689 19619.85 1133.904)
(-1084.787 20715.85 3549.42)
(-1241.111 21968.58 6170.633)
(-1449.664 23433.51 9069.535)
(-1738.189 25201.85 11431)
(-2930.132 37630.05 16028.67)
(-3490.625 41726.11 15836.4)
(-1865.125 47029.78 17704.4)
(-764.8693 20697.44 1142.465)
(-849.4324 21786.93 3567.747)
(-954.9668 23015.45 6185.085)
(-1090.725 24422.4 9051.64)
(-1270.456 26070.01 11332.33)
(-2079.229 38474.06 15845.15)
(-2533.705 41913.35 15654.65)
(-2969.388 46509.47 17184.97)
(-1570.75 52475.07 19347.71)
(-601.1673 17298.25 1189.844)
(-660.5378 18161.86 3710.281)
(-732.6108 19122.39 6422.476)
(-822.2475 20203.54 9376.402)
(-936.8825 21439.66 11692.23)
(-1491.494 31380.71 16440.16)
(-1769.429 33763.94 16513.88)
(-2129.301 36783.29 18282.19)
(-2436.763 40819.54 20539)
(-1269.346 46081.2 34252.31)
(-487.0606 11493.53 1132.58)
(-530.6238 12039.44 3524.779)
(-582.2835 12636.97 6087.478)
(-644.874 13297.25 8861.251)
(-722.4785 14036.08 11007.26)
(-1126.768 20403.94 15401.05)
(-1304.465 21752.1 15368.68)
(-1537.827 23376.38 16839.19)
(-1826.763 25433.66 18615.4)
(-2036.667 28191.6 30449.03)
(-499.9465 15717.34 24288.42)
(-412.004 6692.999 1052.146)
(-445.771 6998.035 3268.587)
(-485.0564 7327.962 5633.306)
(-531.6001 7687.658 8179.664)
(-587.9129 8083.692 10129.24)
(-902.3086 11694.79 14078.49)
(-1025.159 12389.32 13891.31)
(-1183.76 13198.28 15028.55)
(-1388.259 14173.04 16352.44)
(-1631.033 15410.15 26181.37)
(-853.8819 8308.401 20232.52)
(-387.1996 8531.816 24761.76)
(-362.6344 3363.941 983.9901)
(-390.1641 3511.957 3052.464)
(-421.675 3670.743 5252.32)
(-458.3208 3842.192 7611.853)
(-501.7129 4028.819 9404.307)
(-760.4336 5808.376 13002.29)
(-850.9213 6126.306 12714.96)
(-965.804 6487.576 13622.35)
(-1113.225 6908.601 14655.35)
(-1300.801 7416.583 23115.52)
(-732.3776 3898.268 17383.46)
(-712.5679 3860.791 20602.3)
(-311.2697 3638.416 23792.42)
(-329.9336 998.7977 932.4982)
(-353.3602 1041.369 2889.555)
(-379.8077 1086.761 4966.031)
(-410.0784 1135.421 7186.723)
(-445.2771 1187.927 8863.751)
(-668.201 1708.033 12213.63)
(-738.7143 1795.479 11878.71)
(-826.3382 1893.125 12650.61)
(-937.4173 2004.123 13515.08)
(-1079.51 2133.572 21128.23)
(-609.2813 1105.126 15641)
(-652.7051 1068.284 18112.34)
(-613.8905 985.9081 20580.13)
(-258.7719 836.9868 23277.5)
(-1168.455 -37949.66 2098.853)
(-2573.85 -30328.45 1756.338)
(-1379.499 -34183.38 5957.714)
(-2385.146 -20768.81 1549.634)
(-2878.266 -23024.2 5082.643)
(-1550.322 -25948.51 9595.26)
(-2047.806 -11730.5 1411.507)
(-2544.827 -12767.25 4541.615)
(-3086.156 -14157.26 8244.862)
(-1666.379 -15953.7 13158.6)
(-1747.066 -3668.526 1308.036)
(-2109.242 -3943.411 4160.675)
(-2624.134 -4292.354 7404.295)
(-3188.147 -4760.254 11321.42)
(-1722.565 -5363.651 15434.37)
(-1489.741 3440.85 1225.028)
(-1746.335 3668.673 3868.407)
(-2107.496 3943.706 6805.683)
(-2620.754 4292.77 10193.59)
(-3181.426 4760.668 13282.91)
(-2356.293 7355.633 19839.8)
(-1262.561 9656.382 1157.331)
(-1446.85 10237.19 3635.933)
(-1694.682 10915.54 6351.471)
(-2042.621 11734.26 9403.113)
(-2534.765 12772.76 11997)
(-4206.619 19423.79 17115.89)
(-2268.796 21882.2 17534.5)
(-1056.562 14885.09 1105.192)
(-1189.709 15715.09 3459.407)
(-1362.19 16662.45 6013.734)
(-1593.46 17769.16 8839.916)
(-1916.36 19104.58 11146.44)
(-3249.348 28519.85 15587.52)
(-3909.562 31621.27 15303.61)
(-2101.271 35626.54 17101.97)
(-867.0285 18645.59 1076.428)
(-963.2816 19623.76 3360.358)
(-1083.722 20724.05 5822.472)
(-1239.327 21981.48 8518.066)
(-1446.929 23451.59 10664.34)
(-2378.927 34590.7 14792.61)
(-2924.885 37662.69 14347.44)
(-3483.202 41768.72 15495.38)
(-1860.767 47080.67 17301.74)
(-695.3789 19719.78 1087.725)
(-764.4084 20704.34 3389.646)
(-848.4368 21801.41 5861.566)
(-953.3282 23038.29 8549.987)
(-1088.276 24454.48 10655.34)
(-1738.157 35803.4 14800.47)
(-2074.951 38532.57 14471.75)
(-2528.218 41990.61 15625.34)
(-2961.858 46608.74 17149.87)
(-1566.373 52596.74 28046.48)
(-551.1742 16514.7 1135.659)
(-600.7134 17302.19 3535.304)
(-659.565 18170.09 6107.632)
(-731.0273 19135.3 8894.488)
(-819.9209 20221.55 11055.02)
(-1280.989 29430.9 15472.72)
(-1487.58 31413.56 15440.71)
(-1764.58 33807.34 16926.71)
(-2122.993 36838.79 18734.98)
(-2428.322 40888.89 30724.35)
(-609.0295 23470.76 24796.71)
(-449.6452 10990.91 1083.152)
(-486.6483 11492.1 3366.317)
(-529.7468 12036.41 5804.807)
(-580.8705 12632.13 8433.538)
(-642.8252 13290.32 10450.09)
(-987.4752 19238.33 14572.96)
(-1123.468 20392 14475.42)
(-1300.527 21737.11 15761.15)
(-1532.972 23357.61 17261.95)
(-1820.512 25409.93 27852.19)
(-975.7907 13933.57 21951.41)
(-449.4198 15087.41 27889.9)
(-382.5123 6409.168 1007.874)
(-411.6359 6690.755 3127.498)
(-444.9931 6993.33 5383.452)
(-483.8132 7320.536 7804.936)
(-529.8159 7677.196 9646.684)
(-803.3992 11069.74 13373.66)
(-899.5395 11676.77 13151.35)
(-1021.954 12366.6 14164.87)
(-1179.972 13170.13 15320.12)
(-1383.639 14138.44 24312.15)
(-784.7491 7481.416 18546.09)
(-774.1982 7559.416 22495.82)
(-340.0148 7280.129 26620.21)
(-338.2492 3225.221 943.8649)
(-362.3016 3362.509 2925.199)
(-389.4645 3508.962 5028.183)
(-420.5637 3666.033 7277.983)
(-456.738 3835.586 8977.915)
(-685.5318 5514.9 12387.7)
(-758.0433 5797.111 12082.02)
(-848.2154 6112.192 12901.64)
(-962.6939 6470.237 13820.08)
(-1109.576 6887.548 21670.99)
(-627.2383 3574.75 16154.66)
(-673.5154 3475.147 18908.01)
(-636.644 3221.837 21695.47)
(-268.302 2729.036 24754.6)
(-308.9411 958.69 895.4893)
(-329.6272 998.3431 2772.586)
(-352.7186 1040.42 4760.897)
(-378.7932 1085.272 6882.686)
(-408.6417 1133.338 8477.895)
(-608.3838 1625.908 11662.46)
(-666.072 1704.508 11318.45)
(-736.3384 1791.084 12022.5)
(-823.6575 1887.758 12802.24)
(-934.3468 1997.656 19928.31)
(-520.9119 1026.199 14665.14)
(-563.7892 979.7193 16832.11)
(-593.4916 887.5015 18897.93)
(-539.918 741.6859 21269.59)
(-218.0404 524.1974 16258.83)
(-952.085 -33394.97 2239.012)
(-2198.895 -33664.9 1846.009)
(-1167.444 -37958.36 6193.74)
(-2152.4 -27367.7 1584.372)
(-2572.102 -30333.38 5184.276)
(-1377.467 -34191.56 9712.86)
(-1924.853 -19086.14 1423.417)
(-2383.948 -20770.67 4576.852)
(-2874.814 -23027.74 8296.4)
(-1547.248 -25951.72 13179.95)
(-1696.825 -10913.69 1311.734)
(-2046.901 -11731.13 4171.722)
(-2542.51 -12768.46 7421.572)
(-3081.042 -14158.81 11339.41)
(-1662.267 -15954.04 15425.88)
(-1489.741 -3440.85 1225.028)
(-1746.335 -3668.673 3868.407)
(-2107.496 -3943.706 6805.683)
(-2620.754 -4292.77 10193.59)
(-3181.426 -4760.668 13282.91)
(-2356.293 -7355.633 19839.8)
(-1299.182 3245.787 1153.809)
(-1489.124 3440.995 3625.058)
(-1744.924 3668.969 6332.993)
(-2104.957 3944.149 9377.28)
(-2616.357 4293.327 11968.04)
(-4353.301 6529.536 17080.82)
(-2351.339 7355.748 17520.98)
(-1120.51 9147.26 1094.686)
(-1262.025 9656.96 3426.638)
(-1445.656 10238.38 5957.049)
(-1692.625 10917.39 8757.905)
(-2039.318 11736.77 11046.73)
(-3469.869 17520.57 15438.26)
(-4198.716 19427.54 15133.53)
(-2264.079 21885.32 16942.63)
(-950.3071 14146.05 1048.914)
(-1056.084 14886.66 3274.176)
(-1188.666 15718.37 5672.352)
(-1360.439 16667.58 8298.321)
(-1590.77 17776.29 10391.31)
(-2623.333 26211.51 14367.54)
(-3244.153 28532.29 13827.5)
(-3902.052 31636.99 14839.55)
(-2096.824 35643.68 16559.32)
(-788.0831 17765.47 1024.481)
(-866.5908 18649.34 3191.326)
(-962.3365 19631.59 5515.409)
(-1082.166 20736.36 8041.606)
(-1236.999 21998.71 10020.13)
(-1980.371 32189.01 13803.37)
(-2374.901 34621.64 13241.43)
(-2919.752 37703.13 14039.84)
(-3475.966 41819.93 15152.71)
(-1856.528 47141.32 24485.26)
(-637.3911 18828.28 1037.762)
(-694.9601 19726.4 3228.365)
(-763.5118 20718.2 5571.601)
(-846.9785 21823.21 8106.295)
(-951.1854 23068.84 10068.36)
(-1488.917 33585.3 13918.59)
(-1734.634 35858.63 13517.42)
(-2070.68 38604.96 14444.45)
(-2522.743 42083.04 15594.31)
(-2954.374 46724.92 24882.22)
(-760.4149 27038.16 18599.95)
(-508.6987 15794.94 1085.795)
(-550.758 16518.5 3375.293)
(-599.8273 17310.11 5821.877)
(-658.1354 18182.49 8461.477)
(-728.9511 19152.59 10489.85)
(-1121.058 27759.22 14631.13)
(-1277.631 29462.26 14531.07)
(-1483.563 31454.76 15825.18)
(-1759.601 33859.73 17343.64)
(-2116.52 36904.13 28021.8)
(-1168.839 20866.08 22267.08)
(-554.4692 24964.04 29233.16)
(-417.3621 10526.58 1037.372)
(-449.2644 10989.57 3220.264)
(-485.8425 11489.26 5545.822)
(-528.4572 12031.9 8044.531)
(-579.0167 12625.69 9948.278)
(-878.5893 18216.45 13836.63)
(-984.5699 19227.37 13696.04)
(-1120.077 20378.35 14843.63)
(-1296.483 21720.23 16154.68)
(-1527.984 23336.73 25821.67)
(-876.5467 12567.77 20067.25)
(-884.2945 13414.71 25210.81)
(-392.7827 13928.78 31250.37)
(-356.7329 6145.722 966.6526)
(-382.1704 6407.033 2996.658)
(-410.9163 6686.287 5152.811)
(-443.849 6986.295 7461.038)
(-482.1819 7310.655 9207.008)
(-723.9924 10513.23 12737.7)
(-800.9173 11052.83 12492.11)
(-896.7118 11655.55 13409.27)
(-1018.681 12340.47 14438.21)
(-1176.103 13138.31 22773.7)
(-667.0414 6866.711 17213.13)
(-719.9141 6814.55 20601.36)
(-687.466 6464.999 24178.18)
(-289.5185 5548.636 28194.19)
(-316.7029 3095.948 906.3499)
(-337.9386 3223.855 2806.589)
(-361.6509 3359.657 4820.085)
(-388.4351 3504.486 6969.413)
(-419.1053 3659.771 8586.118)
(-624.0659 5250.462 11827.1)
(-683.3627 5504.275 11510.32)
(-755.6151 5783.84 12258.66)
(-845.4666 6095.959 13087.91)
(-959.5342 6450.651 20433.55)
(-535.3211 3320.667 15139.78)
(-579.6039 3188.7 17559.03)
(-610.6469 2902.661 19898)
(-556.7914 2421.57 22569.39)
(-223.8614 1671.739 17345.9)
(-290.2161 921.1801 860.7653)
(-308.6542 958.2556 2663.153)
(-329.028 997.4376 4569.555)
(-351.7743 1039.002 6600.178)
(-377.4615 1083.292 8121.013)
(-558.3188 1551.212 11155.74)
(-606.4341 1622.572 10807.22)
(-663.9151 1700.358 11454.9)
(-733.9314 1786.032 12165.9)
(-820.9415 1881.698 18875.64)
(-450.8389 961.0333 13828.83)
(-482.6855 910.1369 15774.17)
(-515.7542 814.3557 17553.13)
(-531.6251 668.2536 19522.96)
(-463.7089 465.9869 14856.5)
(-1592.979 2588.614 51580.07)
(-787.5642 -23408 2187.99)
(-1817.095 -29586.06 1995.807)
(-951.1121 -33398.53 6619.868)
(-1867.752 -30382.1 1671.946)
(-2197.187 -33674.48 5454.993)
(-1165.5 -37976.14 10114.22)
(-1746.775 -25154.52 1457.348)
(-2151.204 -27372.59 4681.514)
(-2568.745 -30343.35 8467.554)
(-1374.518 -34204.14 13349.7)
(-1597.675 -17758.49 1323.43)
(-1923.948 -19087.97 4207.533)
(-2381.645 -20774.4 7480.652)
(-2869.808 -23033.11 11412.47)
(-1543.252 -25956.16 15453.32)
(-1447.468 -10236.59 1228.657)
(-1696.094 -10914.31 3879.5)
(-2045.158 -11732.38 6824.125)
(-2539.144 -12770.3 10217.89)
(-3074.393 -14160.9 13304.56)
(-2273.683 -21880.4 19836.89)
(-1299.182 -3245.787 1153.809)
(-1489.124 -3440.995 3625.058)
(-1744.924 -3668.969 6332.993)
(-2104.957 -3944.149 9377.28)
(-2616.357 -4293.327 11968.04)
(-4353.301 -6529.536 17080.82)
(-2351.339 -7355.748 17520.98)
(-1152.891 3074.64 1091.283)
(-1298.647 3245.928 3416.087)
(-1487.932 3441.285 5938.952)
(-1742.868 3669.413 8732.065)
(-2101.65 3944.739 11016.03)
(-3581.742 5888.816 15394.45)
(-4345.317 6530.319 15087.91)
(-2346.561 7356.174 16913.72)
(-1007.693 8693.084 1038.817)
(-1120.036 9147.816 3242.668)
(-1260.987 9658.115 5617.768)
(-1443.915 10240.18 8219.019)
(-1689.945 10919.85 10293.88)
(-2791.966 16099.85 14218.94)
(-3464.661 17524.65 13650.77)
(-4191.084 19432.42 14626.77)
(-2259.533 21889.73 16350.58)
(-863.6526 13478.44 998.0947)
(-949.8787 14147.55 3108.756)
(-1055.159 14889.8 5371.72)
(-1187.141 15723.28 7831.426)
(-1358.156 16674.41 9758.936)
(-2177.706 24389.46 13397.09)
(-2619.389 26223.51 12745.62)
(-3239.116 28547.72 13409.1)
(-3894.79 31656.02 14374.77)
(-2092.533 35664.59 23172.18)
(-722.2384 16962.86 977.1215)
(-787.6859 17769.05 3038.458)
(-865.7409 18656.83 5240.643)
(-960.9543 19643.35 7621.081)
(-1080.134 20752.79 9463.266)
(-1693.06 30195.21 12971.98)
(-1977.077 32218.32 12356.13)
(-2370.962 34659.74 12957.93)
(-2914.735 37751.34 13730.71)
(-3468.918 41879.72 21460.44)
(-906.6458 23940.06 15233.07)
(-588.1459 18009.14 991.8375)
(-637.0076 18834.62 3081.075)
(-694.1446 19739.66 5308.821)
(-762.1974 20739.02 7708.361)
(-845.0703 21852.35 9548.967)
(-1301.352 31682.69 13153.85)
(-1485.906 33637.61 12711.9)
(-1731.117 35926.78 13491.72)
(-2066.417 38691.32 14415.55)
(-2517.281 42190.78 22626.74)
(-1438.149 24062 16534.84)
(-719.2138 29518.54 18283.86)
(-472.0655 15129.7 1039.653)
(-508.3147 15798.6 3227.971)
(-549.9449 16526.11 5560.397)
(-598.5245 17322.03 8068.255)
(-656.26 18199.1 9981.824)
(-996.6645 26292.13 13884.65)
(-1118.111 27789.18 13740.01)
(-1274.186 29501.44 14891.94)
(-1479.441 31504.34 16213.49)
(-1754.494 33921.19 25937.01)
(-1023.4 18847.17 20301.58)
(-1071.437 22266.1 26290.04)
(-491.3048 27313.18 35101.58)
(-389.154 10095.38 994.7743)
(-417.0086 10525.31 3084.929)
(-448.5196 10986.9 5306.977)
(-484.6569 11485.02 7687.936)
(-526.7644 12025.88 9491.704)
(-791.365 17305.68 13173.43)
(-875.9907 18206.29 13003.26)
(-981.5865 19214.79 14043.43)
(-1116.597 20362.91 15212.85)
(-1292.331 21701.38 24161.79)
(-737.1132 11547.05 18595.36)
(-803.594 12115.01 23027.53)
(-781.2958 12415.88 28251.38)
(-329.4603 11694.86 34740.26)
(-333.9611 5900.12 928.1289)
(-356.4139 6143.685 2874.779)
(-381.5015 6402.779 4938.801)
(-409.8573 6679.604 7143.425)
(-442.3471 6976.932 8803.35)
(-658.8889 10011.41 12158.21)
(-721.7428 10497.3 11897.45)
(-798.3836 11032.89 12736.33)
(-893.8254 11631.1 13666.99)
(-1015.341 12310.89 21460.28)
(-567.3198 6382.668 16118.13)
(-614.9737 6258.63 19106.98)
(-649.1953 5833.612 22127)
(-594.4697 4937.053 25605.44)
(-236.4647 3285.863 19952.9)
(-297.4868 2975.021 871.1582)
(-316.4121 3094.642 2695.648)
(-337.331 3221.133 4626.031)
(-360.693 3355.392 6682.785)
(-387.0837 3498.533 8223.878)
(-572.6367 5009.849 11311.93)
(-622.0805 5240.403 10988.96)
(-681.1596 5491.74 11678.04)
(-753.1489 5768.558 12434.92)
(-842.6748 6077.602 19349.38)
(-462.9186 3110.671 14271.67)
(-495.3958 2963.302 16447.68)
(-528.825 2664.8 18468.71)
(-544.4447 2183.519 20690.78)
(-474.0912 1487.496 15815.08)
(-1620.626 7801.357 54976.65)
(-273.3861 885.983 828.1019)
(-289.9466 920.7644 2560.435)
(-308.0925 957.3902 4390.448)
(-328.1454 996.084 6336.542)
(-350.534 1037.116 7789.282)
(-515.7103 1482.73 10687.02)
(-556.5212 1548.044 10337.3)
(-604.4593 1618.639 10937.09)
(-661.7303 1695.582 11591)
(-731.4934 1780.323 17936.26)
(-396.0272 905.4017 13095.9)
(-417.7684 852.6166 14869.3)
(-442.3995 756.793 16443.72)
(-465.6209 613.4898 18127.29)
(-467.7997 420.3745 13634.11)
(-3444.537 2312.149 47202.75)
(-1475.281 1734.464 30449.43)
(-679.5988 -14379.99 2091.066)
(-1528.102 -20683.14 1969.622)
(-786.6907 -23402.08 6471.377)
(-1578.573 -26687.04 1815.542)
(-1815.401 -29591 5907.225)
(-949.2344 -33406.07 10836.07)
(-1528.73 -27926.63 1540.982)
(-1866.532 -30391.35 4945.224)
(-2193.901 -33693.82 8922.145)