/*--------------------------------*- C++ -*----------------------------------*\
| =========                 |                                                 |
| \\      /  F ield         | OpenFOAM: The Open Source CFD Toolbox           |
|  \\    /   O peration     | Version:  2306                                  |
|   \\  /    A nd           | Website:  www.openfoam.com                      |
|    \\/     M anipulation  |                                                 |
\*---------------------------------------------------------------------------*/
FoamFile
{
    version     2.0;
    format      ascii;
    arch        "LSB;label=32;scalar=64";
    class       volScalarField;
    location    "0.9/phiEA";
    object      phi;
}
// * * * * * * * * * * * * * * * * * * * * * * * * * * * * * * * * * * * * * //

dimensions      [1 2 -3 0 0 -1 0];

internalField   nonuniform List<scalar> 
20000
(
-0.004819777
-0.004955038
-0.004484213
-0.004815246
-0.005254492
-0.004602876
-0.004950425
-0.004146119
-0.004480075
-0.00480638
-0.005776752
-0.00486615
-0.005249712
-0.004252589
-0.004598672
-0.004941396
-0.003854259
-0.004142317
-0.004471966
-0.004793316
-0.006592092
-0.005326715
-0.00577175
-0.004489101
-0.004861816
-0.005240357
-0.003951766
-0.00424873
-0.004590435
-0.004928093
-0.003606253
-0.003850727
-0.004134859
-0.004460008
-0.00477614
-0.007685035
-0.006048043
-0.006586974
-0.004903551
-0.005322213
-0.00576196
-0.004168539
-0.004485132
-0.004853321
-0.005226568
-0.003696747
-0.003948184
-0.004241163
-0.004578286
-0.004910599
-0.003393071
-0.003602945
-0.003843793
-0.004123851
-0.004444274
-0.004757765
-0.008760644
-0.007017347
-0.007680238
-0.005553752
-0.006043482
-0.006576961
-0.004548803
-0.00489944
-0.005313387
-0.005747528
-0.003898043
-0.004164859
-0.004477344
-0.004840789
-0.005208435
-0.003477783
-0.003693394
-0.003941152
-0.004229992
-0.004562301
-0.004891885
-0.003207052
-0.003389956
-0.003596447
-0.003833551
-0.00410936
-0.004427437
-0.00474206
-0.009638145
-0.007971752
-0.008756023
-0.006428524
-0.007013127
-0.007670878
-0.005146002
-0.005549602
-0.006034541
-0.006562206
-0.004251422
-0.004544998
-0.004891372
-0.005300363
-0.005728545
-0.0036663
-0.0038946
-0.004157631
-0.004465845
-0.004824297
-0.005189033
-0.003286835
-0.003474627
-0.003686807
-0.003930765
-0.004215284
-0.004545192
-0.004875847
-0.003042259
-0.003204106
-0.003383831
-0.003586842
-0.003820061
-0.004093846
-0.004413049
-0.004726145
-0.01024325
-0.008750401
-0.009633574
-0.007289872
-0.007967738
-0.008747026
-0.00595006
-0.006424702
-0.007004878
-0.00765712
-0.004806808
-0.005142168
-0.00554146
-0.006021351
-0.006542802
-0.003997435
-0.004247867
-0.004537524
-0.004879457
-0.00528322
-0.00570823
-0.003464441
-0.00366306
-0.003887835
-0.004146952
-0.004450703
-0.004806644
-0.005172321
-0.003117733
-0.00328385
-0.00346842
-0.00367707
-0.003917082
-0.004199537
-0.004530534
-0.004859554
-0.002894403
-0.003039462
-0.003198309
-0.003374775
-0.003574186
-0.003805614
-0.004080593
-0.004398473
-0.004710023
-0.01054977
-0.009287321
-0.01023868
-0.007992393
-0.008746464
-0.009624682
-0.006741809
-0.007286251
-0.007959902
-0.008733822
-0.005554964
-0.005946538
-0.006417221
-0.006992734
-0.007639061
-0.004518154
-0.004803231
-0.005134639
-0.005529436
-0.00600399
-0.006522036
-0.003776556
-0.003994093
-0.004240878
-0.004526477
-0.004863763
-0.005264865
-0.005690632
-0.003285797
-0.003461379
-0.00365669
-0.003877832
-0.004132882
-0.004434488
-0.004791441
-0.00515526
-0.002966048
-0.003114901
-0.003277977
-0.003459241
-0.003664238
-0.003902426
-0.004186049
-0.004515646
-0.004843006
-0.002760324
-0.002891742
-0.003033959
-0.003189734
-0.003362835
-0.003560626
-0.003793273
-0.004067169
-0.004383709
-0.004693692
-0.01054977
-0.009559302
-0.0105452
-0.008476661
-0.009283406
-0.0102298
-0.007387461
-0.007988851
-0.008738784
-0.009611642
-0.006291715
-0.006738478
-0.007279172
-0.007948383
-0.008716513
-0.005219892
-0.005551683
-0.005939635
-0.006406194
-0.006976778
-0.007619763
-0.004267581
-0.004514795
-0.004796201
-0.005123513
-0.005513599
-0.005985402
-0.006504077
-0.003581253
-0.003773398
-0.003987517
-0.004230543
-0.004511919
-0.004846954
-0.005248964
-0.005672569
-0.003125623
-0.003282893
-0.003455355
-0.003647267
-0.003864648
-0.004117809
-0.004420528
-0.004775923
-0.005137851
-0.002828521
-0.002963353
-0.003109326
-0.003269288
-0.00344714
-0.003650489
-0.003889876
-0.004172353
-0.004500529
-0.004826206
-0.00263769
-0.002757787
-0.002886503
-0.003025813
-0.003178424
-0.003350039
-0.003549046
-0.003780778
-0.004053577
-0.004368759
-0.004520054
-0.01024325
-0.009559302
-0.0105452
-0.008721915
-0.009555392
-0.01053631
-0.007832446
-0.008473146
-0.009275773
-0.01021678
-0.006892477
-0.007384207
-0.007981931
-0.008727501
-0.009594556
-0.005910985
-0.006288616
-0.006731959
-0.007268752
-0.007933265
-0.008698031
-0.004929513
-0.005216813
-0.005545245
-0.005929452
-0.006391695
-0.006959718
-0.00760353
-0.004046238
-0.00426441
-0.004508186
-0.004785805
-0.005108851
-0.005496636
-0.005969319
-0.006485669
-0.003406244
-0.00357826
-0.003767184
-0.003977788
-0.004216916
-0.00449632
-0.004832396
-0.005232643
-0.00565404
-0.002980448
-0.003122862
-0.003277176
-0.003446438
-0.00363484
-0.003850519
-0.004104836
-0.004406283
-0.004760091
-0.005120093
-0.002702751
-0.002825952
-0.002958047
-0.003101074
-0.003257827
-0.00343417
-0.003638717
-0.003877136
-0.004158451
-0.004485183
-0.004647143
-0.002524725
-0.002635266
-0.002752789
-0.002878745
-0.003015066
-0.0031663
-0.003339113
-0.003537322
-0.003768127
-0.004039816
-0.004209823
-0.004169475
-0.009638145
-0.009287321
-0.01023868
-0.008721915
-0.009555392
-0.01053631
-0.008057775
-0.008718408
-0.00954777
-0.01052328
-0.007306486
-0.00782922
-0.00846628
-0.009264561
-0.01019972
-0.006474504
-0.006889452
-0.007377844
-0.007971752
-0.008712698
-0.00957632
-0.00558145
-0.005908079
-0.006282543
-0.006722354
-0.007255064
-0.007917114
-0.008682776
-0.004673228
-0.004926609
-0.005210768
-0.005535743
-0.005916054
-0.006376186
-0.006945356
-0.007587339
-0.003848014
-0.004043233
-0.004258168
-0.004498409
-0.004772098
-0.00509314
-0.00548196
-0.005952826
-0.006466808
-0.003247688
-0.003403398
-0.003572365
-0.003757983
-0.003964955
-0.004202311
-0.004482814
-0.004817458
-0.0052159
-0.005635043
-0.002847717
-0.002977815
-0.003117421
-0.00326871
-0.003434675
-0.00362152
-0.00383836
-0.004091601
-0.004391754
-0.004743944
-0.004929987
-0.002586911
-0.002700297
-0.002820891
-0.002950189
-0.003090185
-0.003245541
-0.003423065
-0.003626768
-0.003864205
-0.004144342
-0.004321665
-0.004281672
-0.002420061
-0.002522406
-0.002630489
-0.002745385
-0.002868507
-0.003003542
-0.003155948
-0.003328052
-0.003525454
-0.003755323
-0.003893563
-0.003889204
-0.003801394
-0.008760644
-0.008750401
-0.009633574
-0.008476661
-0.009283406
-0.0102298
-0.008057775
-0.008718408
-0.00954777
-0.01052328
-0.007516116
-0.008054558
-0.008711558
-0.009536576
-0.01050622
-0.006862832
-0.007303488
-0.007822911
-0.008456182
-0.009249855
-0.01018152
-0.006113042
-0.00647167
-0.006883529
-0.007368473
-0.007958386
-0.00869689
-0.009561391
-0.005290792
-0.005578711
-0.005902381
-0.00627359
-0.006709728
-0.007240433
-0.007903775
-0.008667855
-0.00444383
-0.004670478
-0.004920903
-0.005201839
-0.005523233
-0.005901716
-0.006363128
-0.006931021
-0.007571193
-0.003668503
-0.003845159
-0.004037316
-0.004248929
-0.004485512
-0.004757406
-0.005079549
-0.005466913
-0.005935919
-0.006447488
-0.003102773
-0.003244977
-0.003397791
-0.003563635
-0.003745843
-0.003951197
-0.004189667
-0.004468957
-0.004802136
-0.005198734
-0.005430654
-0.002725494
-0.002845203
-0.002972627
-0.003109363
-0.003257539
-0.003422063
-0.003610058
-0.003825958
-0.004078105
-0.004376941
-0.00457111
-0.004533603
-0.002479595
-0.002584563
-0.00269546
-0.002813392
-0.002939818
-0.00307851
-0.003235023
-0.003411796
-0.003614643
-0.003851086
-0.003994044
-0.003988189
-0.003894313
-0.002322617
-0.002417839
-0.002517833
-0.00262341
-0.002735611
-0.002857526
-0.002993703
-0.003145469
-0.003316856
-0.003513443
-0.003619257
-0.003598842
-0.003552763
-0.003418843
-0.007685035
-0.007971752
-0.008756023
-0.007992393
-0.008746464
-0.009624682
-0.007832446
-0.008473146
-0.009275773
-0.01021678
-0.007516116
-0.008054558
-0.008711558
-0.009536576
-0.01050622
-0.007059452
-0.007513126
-0.008048265
-0.008701484
-0.009521893
-0.010488
-0.006479362
-0.006860023
-0.007297619
-0.007813622
-0.008442925
-0.009234151
-0.01016666
-0.005794362
-0.006110372
-0.006466115
-0.0068748
-0.007356159
-0.007944104
-0.008683944
-0.009546914
-0.005030725
-0.0052882
-0.005573337
-0.005893974
-0.006261813
-0.006696226
-0.007228349
-0.00789072
-0.008653269
-0.004236159
-0.004441219
-0.004665073
-0.004912471
-0.005190079
-0.00550984
-0.005889645
-0.006350095
-0.006916714
-0.007555093
-0.00350449
-0.003665783
-0.003839534
-0.004028553
-0.004236737
-0.004471684
-0.004744698
-0.005065617
-0.00545149
-0.005918594
-0.006239765
-0.002969368
-0.003100185
-0.003239631
-0.003389484
-0.003552111
-0.003732824
-0.003939287
-0.004176696
-0.004454749
-0.004786432
-0.005014032
-0.004992657
-0.002612286
-0.002723089
-0.002840246
-0.002964939
-0.003098725
-0.003245558
-0.003411211
-0.003598368
-0.003813313
-0.004064347
-0.004218419
-0.004210936
-0.004104595
-0.002379691
-0.002477346
-0.002579934
-0.002688292
-0.002803492
-0.002928694
-0.003068515
-0.003224349
-0.003400362
-0.003602342
-0.00371135
-0.003687866
-0.003634922
-0.003488592
-0.002231528
-0.002320485
-0.002413456
-0.002511055
-0.002614063
-0.002725125
-0.002848151
-0.002983744
-0.003134864
-0.003305527
-0.003385829
-0.003345283
-0.003289818
-0.003203199
-0.003025477
-0.006592092
-0.007017347
-0.007680238
-0.007289872
-0.007967738
-0.008747026
-0.007387461
-0.007988851
-0.008738784
-0.009611642
-0.007306486
-0.00782922
-0.00846628
-0.009264561
-0.01019972
-0.007059452
-0.007513126
-0.008048265
-0.008701484
-0.009521893
-0.010488
-0.006664835
-0.007056652
-0.007507274
-0.008039002
-0.008688258
-0.009506215
-0.01047315
-0.006141369
-0.006476717
-0.006854521
-0.00728897
-0.007801418
-0.008428761
-0.009221328
-0.01015229
-0.005509293
-0.005791836
-0.006105135
-0.006457924
-0.006863324
-0.007342995
-0.007932407
-0.008671384
-0.009532888
-0.004795347
-0.005028265
-0.005283111
-0.005565403
-0.005882911
-0.006249214
-0.006685073
-0.007216521
-0.00787795
-0.008639019
-0.004046471
-0.004233673
-0.004436082
-0.00465708
-0.004901361
-0.005177484
-0.005498565
-0.005877596
-0.006337086
-0.006902438
-0.007386551
-0.003353546
-0.003501894
-0.003660422
-0.003831199
-0.004016986
-0.00422366
-0.004459724
-0.004731671
-0.005051338
-0.005435688
-0.005732241
-0.005790886
-0.002845833
-0.002966892
-0.003095079
-0.003231709
-0.003378515
-0.003539749
-0.003721555
-0.003927071
-0.004163398
-0.004440187
-0.004617495
-0.00461814
-0.004500991
-0.002506915
-0.002609983
-0.002718345
-0.002832898
-0.002954787
-0.003087313
-0.00323525
-0.003400144
-0.00358645
-0.003800425
-0.003917152
-0.003888437
-0.003821249
-0.003646262
-0.00228631
-0.002377534
-0.002472909
-0.00257307
-0.002678825
-0.002792871
-0.002919172
-0.003058373
-0.00321352
-0.003388763
-0.003471345
-0.003426926
-0.003363777
-0.003265007
-0.00306916
-0.002146079
-0.002229481
-0.00231628
-0.002406957
-0.002502101
-0.002604032
-0.002716173
-0.002838662
-0.002973666
-0.003124132
-0.003185163
-0.003129018
-0.003058186
-0.002968911
-0.002843777
-0.002765435
-0.005776752
-0.006048043
-0.006586974
-0.006428524
-0.007013127
-0.007670878
-0.006741809
-0.007286251
-0.007959902
-0.008733822
-0.006892477
-0.007384207
-0.007981931
-0.008727501
-0.009594556
-0.006862832
-0.007303488
-0.007822911
-0.008456182
-0.009249855
-0.01018152
-0.006664835
-0.007056652
-0.007507274
-0.008039002
-0.008688258
-0.009506215
-0.01047315
-0.006317062
-0.006662198
-0.007051166
-0.007498651
-0.008026832
-0.008674128
-0.009493425
-0.0104588
-0.005839071
-0.006138866
-0.00647153
-0.006846407
-0.007277601
-0.007788372
-0.008417195
-0.009208928
-0.01013842
-0.005251329
-0.005506895
-0.005786878
-0.006097407
-0.006447148
-0.006851049
-0.007332213
-0.007921058
-0.008659211
-0.009519315
-0.004580392
-0.004793006
-0.005023431
-0.005275594
-0.005554956
-0.005871071
-0.006238807
-0.006674157
-0.00720495
-0.007865466
-0.008492946
-0.003871936
-0.004044099
-0.00422878
-0.004428484
-0.004646544
-0.004889458
-0.005166881
-0.005487311
-0.005865571
-0.006324104
-0.006752872
-0.007072993
-0.003213805
-0.003351064
-0.003496775
-0.003652476
-0.003820193
-0.004004576
-0.004212351
-0.004447465
-0.004718322
-0.005036711
-0.005265733
-0.005328829
-0.005265327
-0.002730875
-0.002843462
-0.002962007
-0.003087509
-0.003221244
-0.003366745
-0.00352905
-0.003709997
-0.003914548
-0.004149772
-0.004283576
-0.004255745
-0.004173672
-0.003950978
-0.002408439
-0.002504706
-0.002605437
-0.002711311
-0.002823192
-0.002943894
-0.003077495
-0.003224738
-0.003388862
-0.003574304
-0.003662551
-0.003611008
-0.003531707
-0.003404997
-0.003164788
-0.002198718
-0.002284238
-0.002373276
-0.002466329
-0.002564004
-0.002668666
-0.00278378
-0.00290951
-0.003048084
-0.003202536
-0.00326525
-0.003204862
-0.003126049
-0.003024599
-0.002882609
-0.002791321
-0.00206569
-0.002144112
-0.00222544
-0.002310041
-0.00239837
-0.002492492
-0.00259547
-0.002707113
-0.002829059
-0.002963468
-0.003010129
-0.002943045
-0.002860023
-0.002760178
-0.002639053
-0.002606137
-0.002621123
-0.005254492
-0.005326715
-0.00577175
-0.005553752
-0.006043482
-0.006576961
-0.00595006
-0.006424702
-0.007004878
-0.00765712
-0.006291715
-0.006738478
-0.007279172
-0.007948383
-0.008716513
-0.006474504
-0.006889452
-0.007377844
-0.007971752
-0.008712698
-0.00957632
-0.006479362
-0.006860023
-0.007297619
-0.007813622
-0.008442925
-0.009234151
-0.01016666
-0.006317062
-0.006662198
-0.007051166
-0.007498651
-0.008026832
-0.008674128
-0.009493425
-0.0104588
-0.00600604
-0.006314568
-0.006657027
-0.007043077
-0.007487315
-0.008013822
-0.008662601
-0.009481068
-0.01044496
-0.005565544
-0.005836696
-0.006133957
-0.006463876
-0.006835735
-0.007265441
-0.00777772
-0.008406009
-0.00919695
-0.01012504
-0.005015777
-0.005249048
-0.005502187
-0.005779557
-0.006087235
-0.006435618
-0.006840995
-0.007321752
-0.007910059
-0.008647426
-0.009381556
-0.00438264
-0.004578158
-0.004788402
-0.005016286
-0.005265692
-0.005543772
-0.005861291
-0.00622862
-0.006663477
-0.007193637
-0.007737407
-0.008250765
-0.003710387
-0.003869669
-0.004039428
-0.004221539
-0.004418463
-0.004635254
-0.004879438
-0.005156298
-0.005476079
-0.005853571
-0.006188093
-0.006473649
-0.006777089
-0.003083794
-0.003211429
-0.003346168
-0.003489185
-0.00364198
-0.003808383
-0.003993845
-0.00420076
-0.004434904
-0.004704649
-0.004879407
-0.004898022
-0.004855906
-0.004620834
-0.00262346
-0.002728601
-0.002838782
-0.002954762
-0.003077507
-0.003210013
-0.003356559
-0.003518077
-0.00369815
-0.003901716
-0.004003234
-0.003948479
-0.003849911
-0.003676428
-0.003342982
-0.00231608
-0.002406318
-0.002500344
-0.002598694
-0.002702017
-0.002812776
-0.002934523
-0.003067484
-0.003214022
-0.003377366
-0.003444386
-0.003375959
-0.003280253
-0.003150871
-0.002967735
-0.002843449
-0.002116317
-0.002196727
-0.002280148
-0.00236696
-0.002457634
-0.002554273
-0.002659972
-0.002774556
-0.002899708
-0.003037648
-0.00308558
-0.003014096
-0.002923089
-0.002811303
-0.002674084
-0.002629259
-0.002638467
-0.001989858
-0.002063797
-0.002140227
-0.002219446
-0.002301796
-0.002389153
-0.002484289
-0.002586804
-0.002697945
-0.002819343
-0.002855141
-0.002780877
-0.00268952
-0.002580894
-0.002453943
-0.002420981
-0.002473595
-0.002460941
-0.004955038
-0.00486615
-0.005249712
-0.004903551
-0.005322213
-0.00576196
-0.005146002
-0.005549602
-0.006034541
-0.006562206
-0.005554964
-0.005946538
-0.006417221
-0.006992734
-0.007639061
-0.005910985
-0.006288616
-0.006731959
-0.007268752
-0.007933265
-0.008698031
-0.006113042
-0.00647167
-0.006883529
-0.007368473
-0.007958386
-0.00869689
-0.009561391
-0.006141369
-0.006476717
-0.006854521
-0.00728897
-0.007801418
-0.008428761
-0.009221328
-0.01015229
-0.00600604
-0.006314568
-0.006657027
-0.007043077
-0.007487315
-0.008013822
-0.008662601
-0.009481068
-0.01044496
-0.005724634
-0.006003673
-0.006309674
-0.006649398
-0.007032437
-0.007475192
-0.008003209
-0.008651463
-0.009469144
-0.01043162
-0.0053158
-0.005563285
-0.005832034
-0.006126708
-0.006453804
-0.006824316
-0.007255513
-0.007767417
-0.008395205
-0.009185395
-0.00998975
-0.004799099
-0.005013601
-0.005244565
-0.005495231
-0.005769918
-0.006076347
-0.006426174
-0.006831241
-0.007311613
-0.007899408
-0.00852776
-0.00916539
-0.004199626
-0.004380506
-0.004573765
-0.004781595
-0.005006872
-0.005255087
-0.005534534
-0.005851718
-0.006218654
-0.006653035
-0.007077578
-0.007524403
-0.00805185
-0.003560114
-0.003708217
-0.003865203
-0.004032513
-0.004211986
-0.004407723
-0.004625749
-0.004869436
-0.005145735
-0.00546487
-0.005727843
-0.005934117
-0.00620938
-0.006520013
-0.002962337
-0.003081516
-0.003206739
-0.003338905
-0.003479156
-0.003630715
-0.00379817
-0.003982846
-0.004188884
-0.004422038
-0.004557614
-0.004539261
-0.004467185
-0.004275552
-0.003780201
-0.002522735
-0.002621277
-0.002724112
-0.002831838
-0.002945187
-0.00306677
-0.003200294
-0.003346113
-0.003506829
-0.003686011
-0.00376374
-0.003689858
-0.003572773
-0.003396151
-0.003126762
-0.002921071
-0.002229206
-0.002314041
-0.002402128
-0.002493873
-0.002589783
-0.002692041
-0.002803815
-0.002924968
-0.00305728
-0.003203104
-0.0032544
-0.003174443
-0.003066466
-0.002927308
-0.002750945
-0.002675849
-0.002671319
-0.002038594
-0.002114402
-0.002192794
-0.00227408
-0.002358612
-0.002448301
-0.002545944
-0.00265115
-0.002765199
-0.002889768
-0.002926536
-0.002847833
-0.002748617
-0.00262842
-0.002486126
-0.002441878
-0.002489112
-0.002471599
-0.001918171
-0.001988036
-0.002060058
-0.002134461
-0.002211521
-0.002292945
-0.002381285
-0.002475988
-0.002578034
-0.002688669
-0.002716142
-0.002637355
-0.002540882
-0.002426505
-0.00229412
-0.002251517
-0.00229928
-0.002325802
-0.002291452
-0.004819777
-0.004602876
-0.004950425
-0.004489101
-0.004861816
-0.005240357
-0.004548803
-0.00489944
-0.005313387
-0.005747528
-0.004806808
-0.005142168
-0.00554146
-0.006021351
-0.006542802
-0.005219892
-0.005551683
-0.005939635
-0.006406194
-0.006976778
-0.007619763
-0.00558145
-0.005908079
-0.006282543
-0.006722354
-0.007255064
-0.007917114
-0.008682776
-0.005794362
-0.006110372
-0.006466115
-0.0068748
-0.007356159
-0.007944104
-0.008683944
-0.009546914
-0.005839071
-0.006138866
-0.00647153
-0.006846407
-0.007277601
-0.007788372
-0.008417195
-0.009208928
-0.01013842
-0.005724634
-0.006003673
-0.006309674
-0.006649398
-0.007032437
-0.007475192
-0.008003209
-0.008651463
-0.009469144
-0.01043162
-0.005467704
-0.005722382
-0.005999026
-0.006302448
-0.006639357
-0.007021055
-0.007465302
-0.007992955
-0.008640716
-0.009457654
-0.01029691
-0.005086081
-0.005313645
-0.005558846
-0.005825147
-0.006117165
-0.006443024
-0.006814993
-0.00724591
-0.007757465
-0.00838478
-0.009068507
-0.009781688
-0.004598588
-0.00479702
-0.005009324
-0.005237939
-0.005486068
-0.005759597
-0.00606743
-0.006417011
-0.006821786
-0.007301795
-0.007791258
-0.008339575
-0.008998277
-0.004029407
-0.004197584
-0.004376306
-0.004567267
-0.004772623
-0.004996787
-0.005246328
-0.005525491
-0.005842352
-0.00620891
-0.006545912
-0.006884438
-0.007348954
-0.007906592
-0.003419749
-0.003558034
-0.003703941
-0.003858589
-0.004023388
-0.004201744
-0.004398681
-0.004616262
-0.004859454
-0.005135194
-0.00534744
-0.005493094
-0.005693707
-0.005979253
-0.006345818
-0.002848466
-0.00296015
-0.003077018
-0.00319978
-0.003329307
-0.00346839
-0.003620974
-0.003787703
-0.003971576
-0.004176719
-0.004283695
-0.004239802
-0.004140932
-0.003938768
-0.003518451
-0.003012709
-0.002428005
-0.002520637
-0.002616965
-0.002717449
-0.002822659
-0.002934907
-0.003057479
-0.003190327
-0.003335405
-0.003495306
-0.003555494
-0.003468781
-0.003338654
-0.003152897
-0.002894759
-0.002745299
-0.002714083
-0.002147271
-0.002227245
-0.002310014
-0.002395911
-0.002485319
-0.002580216
-0.00268346
-0.002794679
-0.002915229
-0.003046882
-0.003086326
-0.002998982
-0.00288302
-0.002736315
-0.002556776
-0.002484006
-0.002518515
-0.002490806
-0.001965121
-0.002036749
-0.002110618
-0.002186958
-0.002266057
-0.00234965
-0.002440313
-0.002537494
-0.002642201
-0.00275571
-0.00278393
-0.002700725
-0.002596584
-0.002471052
-0.002324052
-0.002270734
-0.002313311
-0.002335345
-0.002297546
-0.001850266
-0.001916415
-0.001984435
-0.002054508
-0.002126838
-0.002203012
-0.002285389
-0.002373322
-0.002467588
-0.002569162
-0.002590142
-0.002508701
-0.002409405
-0.002291948
-0.002156331
-0.002104581
-0.002138648
-0.00216341
-0.002168739
-0.002117095
-0.004484213
-0.004815246
-0.004252589
-0.004598672
-0.004941396
-0.004168539
-0.004485132
-0.004853321
-0.005226568
-0.004251422
-0.004544998
-0.004891372
-0.005300363
-0.005728545
-0.004518154
-0.004803231
-0.005134639
-0.005529436
-0.00600399
-0.006522036
-0.004929513
-0.005216813
-0.005545245
-0.005929452
-0.006391695
-0.006959718
-0.00760353
-0.005290792
-0.005578711
-0.005902381
-0.00627359
-0.006709728
-0.007240433
-0.007903775
-0.008667855
-0.005509293
-0.005791836
-0.006105135
-0.006457924
-0.006863324
-0.007342995
-0.007932407
-0.008671384
-0.009532888
-0.005565544
-0.005836696
-0.006133957
-0.006463876
-0.006835735
-0.007265441
-0.00777772
-0.008406009
-0.00919695
-0.01012504
-0.005467704
-0.005722382
-0.005999026
-0.006302448
-0.006639357
-0.007021055
-0.007465302
-0.007992955
-0.008640716
-0.009457654
-0.01029691
-0.005231383
-0.005465557
-0.005717958
-0.005992162
-0.006292936
-0.006628612
-0.007011768
-0.007455747
-0.00798306
-0.008630359
-0.009341552
-0.010091
-0.004873514
-0.005084023
-0.005309411
-0.005552287
-0.005816076
-0.006106947
-0.006434221
-0.006805975
-0.007236634
-0.007747864
-0.008279328
-0.008888483
-0.009624172
-0.004412109
-0.004596599
-0.004792932
-0.005003
-0.005229208
-0.005476255
-0.005751144
-0.006058777
-0.00640813
-0.00681263
-0.007202097
-0.007621119
-0.00819382
-0.008883738
-0.003870429
-0.00402745
-0.004193564
-0.004370092
-0.004558698
-0.004763009
-0.004988456
-0.005237753
-0.005516644
-0.005833194
-0.006108943
-0.006367617
-0.006725283
-0.007220532
-0.007827943
-0.00328817
-0.003417754
-0.003553934
-0.003697605
-0.003849858
-0.004013603
-0.004193122
-0.004389655
-0.004606793
-0.004849492
-0.005024765
-0.005128203
-0.005270912
-0.005484339
-0.00582304
-0.002741388
-0.002846365
-0.002955831
-0.003070342
-0.003190581
-0.003319002
-0.003459081
-0.00361099
-0.003776979
-0.003960033
-0.004045927
-0.00398475
-0.003867764
-0.003652627
-0.003249798
-0.002827402
-0.002751974
-0.002338675
-0.002425988
-0.002516493
-0.002610565
-0.002708639
-0.002812803
-0.002926011
-0.003047951
-0.003180111
-0.003324436
-0.003371412
-0.003276557
-0.003138316
-0.00294629
-0.002689099
-0.002546858
-0.002556812
-0.002513542
-0.002069826
-0.002145383
-0.00222337
-0.002304035
-0.002387691
-0.002476134
-0.002571986
-0.00267471
-0.002785366
-0.002905306
-0.002935681
-0.002843817
-0.002723304
-0.002572217
-0.002389787
-0.002309489
-0.002339907
-0.002352546
-0.002308145
-0.001895528
-0.001963344
-0.002033105
-0.002105
-0.002179241
-0.002257442
-0.002341979
-0.002432208
-0.002528923
-0.002633126
-0.00265468
-0.00256888
-0.002462133
-0.002333944
-0.002184396
-0.002122466
-0.002151555
-0.002172039
-0.002174191
-0.002120222
-0.001785828
-0.001848573
-0.001912945
-0.001979089
-0.002047169
-0.002118651
-0.002195749
-0.002277742
-0.002365265
-0.002459089
-0.00247493
-0.002392128
-0.002291613
-0.002172998
-0.002036269
-0.00197778
-0.001999016
-0.002012662
-0.002018794
-0.002006496
-0.001940719
-0.004146119
-0.004480075
-0.00480638
-0.003951766
-0.00424873
-0.004590435
-0.004928093
-0.003898043
-0.004164859
-0.004477344
-0.004840789
-0.005208435
-0.003997435
-0.004247867
-0.004537524
-0.004879457
-0.00528322
-0.00570823
-0.004267581
-0.004514795
-0.004796201
-0.005123513
-0.005513599
-0.005985402
-0.006504077
-0.004673228
-0.004926609
-0.005210768
-0.005535743
-0.005916054
-0.006376186
-0.006945356
-0.007587339
-0.005030725
-0.0052882
-0.005573337
-0.005893974
-0.006261813
-0.006696226
-0.007228349
-0.00789072
-0.008653269
-0.005251329
-0.005506895
-0.005786878
-0.006097407
-0.006447148
-0.006851049
-0.007332213
-0.007921058
-0.008659211
-0.009519315
-0.0053158
-0.005563285
-0.005832034
-0.006126708
-0.006453804
-0.006824316
-0.007255513
-0.007767417
-0.008395205
-0.009185395
-0.00998975
-0.005231383
-0.005465557
-0.005717958
-0.005992162
-0.006292936
-0.006628612
-0.007011768
-0.007455747
-0.00798306
-0.008630359
-0.009341552
-0.010091
-0.005012713
-0.005229332
-0.005461336
-0.00571142
-0.005983121
-0.006282751
-0.006619846
-0.007002796
-0.007446526
-0.007973524
-0.008525705
-0.00916387
-0.009936055
-0.004675832
-0.004871545
-0.005079976
-0.00530315
-0.005543644
-0.005806362
-0.006098604
-0.006425708
-0.006797264
-0.007227685
-0.007650732
-0.008116882
-0.008752028
-0.009518294
-0.004237957
-0.004410203
-0.004592686
-0.004786884
-0.004994662
-0.005219854
-0.005468217
-0.005742942
-0.00605039
-0.00639953
-0.006719659
-0.007045233
-0.007489299
-0.00809377
-0.008825276
-0.003721417
-0.003868552
-0.004023596
-0.004187612
-0.004361894
-0.004549514
-0.004755067
-0.004980301
-0.005229364
-0.005507994
-0.005739243
-0.005942549
-0.006220682
-0.006608748
-0.007150877
-0.003164457
-0.003286253
-0.003413817
-0.003547856
-0.003689239
-0.003840493
-0.004005365
-0.004184516
-0.004380648
-0.004597345
-0.004745132
-0.00481861
-0.004920726
-0.005077448
-0.005342217
-0.002640429
-0.002739368
-0.002842214
-0.00294942
-0.003061515
-0.003180702
-0.00331009
-0.003449539
-0.003600761
-0.003765995
-0.003835933
-0.003763352
-0.003634887
-0.003411846
-0.003016234
-0.002621244
-0.002590767
-0.002530742
-0.00225425
-0.002336733
-0.002422
-0.002510339
-0.002602101
-0.002699177
-0.002804273
-0.002916888
-0.003038185
-0.003169645
-0.003206502
-0.003106684
-0.002964109
-0.002769204
-0.002512984
-0.00236734
-0.002374567
-0.002372916
-0.002319945
-0.001996478
-0.002068007
-0.002141652
-0.002217615
-0.002296129
-0.002378863
-0.002468232
-0.002563596
-0.002665792
-0.002775878
-0.002799181
-0.002704795
-0.002582117
-0.002429343
-0.002246048
-0.002158544
-0.002176025
-0.002187597
-0.002183675
-0.002125529
-0.001829493
-0.001893815
-0.001959832
-0.002027694
-0.00209757
-0.002170952
-0.002250069
-0.002334197
-0.002423988
-0.002520231
-0.002536511
-0.00244943
-0.002341693
-0.002212758
-0.002062734
-0.001994558
-0.00201103
-0.0020206
-0.00202372
-0.002009276
-0.001941825
-0.001724585
-0.001784195
-0.001845226
-0.001907791
-0.001972017
-0.002039285
-0.002111663
-0.002188399
-0.002270005
-0.002357114
-0.002368827
-0.002285572
-0.00218493
-0.002066494
-0.001930208
-0.001867311
-0.001878431
-0.001881245
-0.001878545
-0.001869156
-0.00184174
-0.001764226
-0.003854259
-0.004142317
-0.004471966
-0.004793316
-0.003696747
-0.003948184
-0.004241163
-0.004578286
-0.004910599
-0.0036663
-0.0038946
-0.004157631
-0.004465845
-0.004824297
-0.005189033
-0.003776556
-0.003994093
-0.004240878
-0.004526477
-0.004863763
-0.005264865
-0.005690632
-0.004046238
-0.00426441
-0.004508186
-0.004785805
-0.005108851
-0.005496636
-0.005969319
-0.006485669
-0.00444383
-0.004670478
-0.004920903
-0.005201839
-0.005523233
-0.005901716
-0.006363128
-0.006931021
-0.007571193
-0.004795347
-0.005028265
-0.005283111
-0.005565403
-0.005882911
-0.006249214
-0.006685073
-0.007216521
-0.00787795
-0.008639019
-0.005015777
-0.005249048
-0.005502187
-0.005779557
-0.006087235
-0.006435618
-0.006840995
-0.007321752
-0.007910059
-0.008647426
-0.009381556
-0.005086081
-0.005313645
-0.005558846
-0.005825147
-0.006117165
-0.006443024
-0.006814993
-0.00724591
-0.007757465
-0.00838478
-0.009068507
-0.009781688
-0.005012713
-0.005229332
-0.005461336
-0.00571142
-0.005983121
-0.006282751
-0.006619846
-0.007002796
-0.007446526
-0.007973524
-0.008525705
-0.00916387
-0.009936055
-0.004809359
-0.00501075
-0.005225298
-0.005455096
-0.005702805
-0.005973438
-0.006274443
-0.006611375
-0.006994138
-0.007437639
-0.007877164
-0.008365517
-0.009030044
-0.009832463
-0.004491226
-0.004673946
-0.004867671
-0.00507399
-0.005294897
-0.005534385
-0.00579843
-0.006090534
-0.006417484
-0.00678886
-0.007137149
-0.007501088
-0.007993726
-0.008660222
-0.00946505
-0.004074733
-0.004236129
-0.004406452
-0.004586894
-0.004778909
-0.004985728
-0.005212192
-0.005460418
-0.005734991
-0.00604227
-0.006312195
-0.006573368
-0.006923683
-0.007398792
-0.008042653
-0.003581324
-0.003719613
-0.003864852
-0.004017888
-0.004179758
-0.004353106
-0.004541928
-0.004747292
-0.004972323
-0.005221162
-0.005419245
-0.005582854
-0.005805414
-0.006113086
-0.006545525
-0.003047827
-0.003162614
-0.003282471
-0.003407981
-0.003539829
-0.003680263
-0.003832608
-0.003997142
-0.004175926
-0.004371659
-0.004498355
-0.004550314
-0.004623527
-0.004740088
-0.004946142
-0.002545026
-0.002638484
-0.002735375
-0.00283605
-0.00294094
-0.003052033
-0.00317216
-0.003300957
-0.003439764
-0.003590285
-0.003647905
-0.00356785
-0.003432709
-0.003206245
-0.002817842
-0.002435854
-0.002405319
-0.002388331
-0.002328133
-0.002174301
-0.002252379
-0.002332894
-0.002416078
-0.002502199
-0.002593008
-0.00269099
-0.002795527
-0.002907538
-0.003028182
-0.00305713
-0.002954548
-0.0028102
-0.00261518
-0.002361647
-0.002212417
-0.002207926
-0.002206028
-0.002194237
-0.002131214
-0.001926884
-0.001994724
-0.002064411
-0.002136109
-0.002210004
-0.002287637
-0.002371269
-0.002460176
-0.002555044
-0.002656706
-0.002674413
-0.00257887
-0.002455674
-0.002303099
-0.002120884
-0.002028408
-0.002033812
-0.002034913
-0.002032291
-0.002013996
-0.001943652
-0.001766733
-0.00182784
-0.001890429
-0.001954616
-0.002020536
-0.00208959
-0.002163859
-0.002242589
-0.002326304
-0.002415651
-0.002427695
-0.002340255
-0.002232622
-0.002104263
-0.001955271
-0.001883138
-0.001889703
-0.001888634
-0.001883075
-0.001871658
-0.001842686
-0.001763701
-0.001666303
-0.001723009
-0.001780966
-0.001840255