/*--------------------------------*- C++ -*----------------------------------*\
| =========                 |                                                 |
| \\      /  F ield         | OpenFOAM: The Open Source CFD Toolbox           |
|  \\    /   O peration     | Version:  2306                                  |
|   \\  /    A nd           | Website:  www.openfoam.com                      |
|    \\/     M anipulation  |                                                 |
\*---------------------------------------------------------------------------*/
FoamFile
{
    version     2.0;
    format      ascii;
    arch        "LSB;label=32;scalar=64";
    class       volScalarField;
    location    "0.9/phiEA";
    object      T;
}
// * * * * * * * * * * * * * * * * * * * * * * * * * * * * * * * * * * * * * //

dimensions      [0 0 0 1 0 0 0];

internalField   nonuniform List<scalar> 
20000
(
1150.799
1150.653
1152.525
1150.81
1150.317
1152.514
1150.665
1154.112
1152.533
1150.827
1149.695
1152.484
1150.33
1154.137
1152.521
1150.682
1155.596
1154.115
1152.545
1150.849
1148.655
1152.424
1149.711
1154.193
1152.491
1150.349
1155.632
1154.14
1152.532
1150.704
1157.022
1155.596
1154.123
1152.561
1150.875
1147.14
1152.311
1148.678
1154.288
1152.429
1149.733
1155.714
1154.195
1152.502
1150.372
1157.062
1155.632
1154.147
1152.548
1150.731
1158.405
1157.019
1155.599
1154.134
1152.582
1150.906
1145.425
1152.113
1147.173
1154.43
1152.313
1148.706
1155.857
1154.288
1152.439
1149.76
1157.149
1155.712
1154.201
1152.517
1150.401
1158.444
1157.058
1155.635
1154.159
1152.569
1150.764
1159.746
1158.399
1157.02
1155.607
1154.15
1152.607
1150.939
1143.859
1151.819
1145.474
1154.601
1152.111
1147.212
1156.078
1154.426
1152.32
1148.739
1157.304
1155.853
1154.293
1152.453
1149.792
1158.531
1157.145
1155.715
1154.212
1152.537
1150.435
1159.784
1158.438
1157.058
1155.643
1154.174
1152.594
1150.797
1161.045
1159.738
1158.397
1157.024
1155.619
1154.171
1152.633
1150.971
1142.695
1151.49
1143.924
1154.728
1151.817
1145.528
1156.366
1154.59
1152.114
1147.255
1157.546
1156.07
1154.426
1152.332
1148.778
1158.684
1157.297
1155.853
1154.301
1152.472
1149.83
1159.867
1158.524
1157.144
1155.721
1154.226
1152.562
1150.47
1161.081
1159.775
1158.435
1157.062
1155.654
1154.194
1152.62
1150.83
1162.301
1161.036
1159.734
1158.399
1157.032
1155.635
1154.192
1152.659
1151.004
1142.08
1151.21
1142.771
1154.793
1151.49
1143.992
1156.633
1154.713
1151.819
1145.586
1157.867
1156.351
1154.584
1152.122
1147.304
1158.925
1157.535
1156.066
1154.431
1152.349
1148.823
1160.015
1158.675
1157.294
1155.857
1154.314
1152.496
1149.869
1161.16
1159.858
1158.52
1157.147
1155.731
1154.246
1152.587
1150.505
1162.335
1161.071
1159.771
1158.436
1157.07
1155.67
1154.215
1152.646
1150.863
1163.512
1162.29
1161.03
1159.733
1158.404
1157.045
1155.651
1154.212
1152.685
1151.037
1142.08
1151.051
1142.162
1154.812
1151.213
1142.85
1156.832
1154.776
1151.495
1144.065
1158.176
1156.613
1154.703
1151.827
1145.649
1159.248
1157.85
1156.341
1154.582
1152.135
1147.358
1160.248
1158.913
1157.529
1156.066
1154.439
1152.37
1148.869
1161.301
1160.004
1158.67
1157.296
1155.866
1154.331
1152.52
1149.909
1162.41
1161.15
1159.853
1158.521
1157.154
1155.746
1154.265
1152.613
1150.541
1163.544
1162.324
1161.065
1159.77
1158.441
1157.082
1155.686
1154.235
1152.672
1150.897
1164.678
1163.501
1162.283
1161.027
1159.736
1158.413
1157.057
1155.668
1154.233
1152.711
1151.197
1142.695
1151.051
1142.162
1154.814
1151.056
1142.247
1156.958
1154.795
1151.22
1142.934
1158.42
1156.81
1154.764
1151.504
1144.142
1159.564
1158.155
1156.598
1154.697
1151.838
1145.717
1160.56
1159.23
1157.838
1156.335
1154.585
1152.153
1147.414
1161.523
1160.234
1158.904
1157.526
1156.07
1154.452
1152.392
1148.916
1162.544
1161.289
1159.997
1158.669
1157.3
1155.878
1154.348
1152.545
1149.949
1163.616
1162.399
1161.143
1159.851
1158.525
1157.165
1155.761
1154.285
1152.638
1150.578
1164.709
1163.532
1162.316
1161.062
1159.772
1158.45
1157.094
1155.702
1154.256
1152.698
1151.063
1165.798
1164.665
1163.492
1162.279
1161.028
1159.743
1158.423
1157.07
1155.684
1154.254
1152.84
1151.503
1143.859
1151.21
1142.771
1154.814
1151.056
1142.247
1157.017
1154.797
1151.065
1142.337
1158.581
1156.934
1154.783
1151.232
1143.022
1159.816
1158.395
1156.791
1154.756
1151.517
1144.223
1160.868
1159.541
1158.137
1156.587
1154.695
1151.855
1145.785
1161.822
1160.542
1159.216
1157.829
1156.333
1154.592
1152.171
1147.469
1162.756
1161.509
1160.224
1158.9
1157.527
1156.079
1154.466
1152.415
1148.963
1163.744
1162.531
1161.281
1159.994
1158.671
1157.309
1155.891
1154.366
1152.57
1149.99
1164.777
1163.604
1162.39
1161.139
1159.853
1158.533
1157.176
1155.776
1154.304
1152.664
1150.755
1165.827
1164.696
1163.524
1162.312
1161.062
1159.778
1158.459
1157.106
1155.717
1154.276
1152.826
1151.384
1166.872
1165.785
1164.656
1163.487
1162.278
1161.033
1159.75
1158.432
1157.082
1155.701
1154.358
1153.074
1151.825
1145.425
1151.49
1143.924
1154.812
1151.213
1142.85
1157.017
1154.797
1151.065
1142.337
1158.661
1156.993
1154.784
1151.078
1142.43
1159.987
1158.555
1156.914
1154.775
1151.248
1143.114
1161.116
1159.791
1158.375
1156.777
1154.752
1151.536
1144.305
1162.117
1160.845
1159.523
1158.124
1156.58
1154.698
1151.872
1145.853
1163.041
1161.803
1160.527
1159.206
1157.824
1156.335
1154.6
1152.19
1147.525
1163.945
1162.74
1161.497
1160.217
1158.898
1157.532
1156.087
1154.479
1152.437
1149.011
1164.899
1163.73
1162.522
1161.276
1159.994
1158.677
1157.318
1155.903
1154.383
1152.594
1150.19
1165.893
1164.764
1163.594
1162.385
1161.139
1159.858
1158.541
1157.187
1155.791
1154.323
1152.79
1151.111
1166.9
1165.814
1164.686
1163.518
1162.311
1161.066
1159.785
1158.468
1157.118
1155.733
1154.378
1153.06
1151.726
1167.901
1166.859
1165.775
1164.65
1163.485
1162.281
1161.037
1159.756
1158.441
1157.095
1155.783
1154.542
1153.31
1152.16
1147.14
1151.819
1145.474
1154.793
1151.49
1143.992
1156.958
1154.795
1151.22
1142.934
1158.661
1156.993
1154.784
1151.078
1142.43
1160.072
1158.634
1156.973
1154.776
1151.096
1142.528
1161.285
1159.96
1158.533
1156.899
1154.771
1151.27
1143.207
1162.357
1161.091
1159.77
1158.358
1156.768
1154.753
1151.555
1144.386
1163.323
1162.095
1160.826
1159.509
1158.115
1156.577
1154.701
1151.89
1145.921
1164.217
1163.021
1161.788
1160.516
1159.2
1157.824
1156.337
1154.607
1152.208
1147.58
1165.091
1163.929
1162.728
1161.49
1160.214
1158.901
1157.537
1156.095
1154.493
1152.46
1149.245
1166.009
1164.884
1163.719
1162.515
1161.274
1159.997
1158.683
1157.327
1155.916
1154.4
1152.716
1150.606
1166.963
1165.879
1164.754
1163.588
1162.383
1161.142
1159.863
1158.549
1157.198
1155.805
1154.42
1153.024
1151.5
1167.928
1166.887
1165.804
1164.68
1163.516
1162.313
1161.071
1159.791
1158.477
1157.13
1155.813
1154.558
1153.297
1152.086
1168.884
1167.887
1166.848
1165.768
1164.647
1163.486
1162.283
1161.041
1159.763
1158.451
1157.158
1155.926
1154.723
1153.548
1152.504
1148.655
1152.113
1147.173
1154.728
1151.817
1145.528
1156.832
1154.776
1151.495
1144.065
1158.581
1156.934
1154.783
1151.232
1143.022
1160.072
1158.634
1156.973
1154.776
1151.096
1142.528
1161.369
1160.044
1158.611
1156.957
1154.773
1151.119
1142.626
1162.52
1161.258
1159.937
1158.515
1156.888
1154.771
1151.291
1143.298
1163.552
1162.332
1161.07
1159.753
1158.346
1156.762
1154.755
1151.573
1144.467
1164.486
1163.3
1162.076
1160.812
1159.498
1158.109
1156.574
1154.704
1151.907
1145.988
1165.351
1164.198
1163.006
1161.776
1160.508
1159.198
1157.823
1156.34
1154.615
1152.227
1147.848
1166.194
1165.075
1163.917
1162.719
1161.485
1160.215
1158.903
1157.542
1156.104
1154.506
1152.571
1149.733
1167.075
1165.995
1164.873
1163.712
1162.512
1161.276
1160.001
1158.689
1157.336
1155.928
1154.486
1152.947
1151.078
1167.988
1166.949
1165.868
1164.747
1163.585
1162.385
1161.146
1159.869
1158.556
1157.209
1155.879
1154.59
1153.263
1151.918
1168.91
1167.914
1166.876
1165.796
1164.676
1163.516
1162.315
1161.075
1159.797
1158.486
1157.191
1155.951
1154.734
1153.537
1152.458
1169.823
1168.871
1167.876
1166.841
1165.764
1164.646
1163.487
1162.286
1161.046
1159.769
1158.498
1157.268
1156.066
1154.903
1153.788
1152.701
1149.695
1152.311
1148.678
1154.601
1152.111
1147.212
1156.633
1154.713
1151.819
1145.586
1158.42
1156.81
1154.764
1151.504
1144.142
1159.987
1158.555
1156.914
1154.775
1151.248
1143.114
1161.369
1160.044
1158.611
1156.957
1154.773
1151.119
1142.626
1162.601
1161.342
1160.021
1158.593
1156.945
1154.773
1151.142
1142.723
1163.708
1162.494
1161.236
1159.919
1158.501
1156.881
1154.772
1151.312
1143.388
1164.706
1163.527
1162.311
1161.052
1159.74
1158.338
1156.756
1154.756
1151.592
1144.546
1165.609
1164.465
1163.282
1162.061
1160.801
1159.491
1158.104
1156.572
1154.708
1151.924
1146.307
1166.443
1165.332
1164.182
1162.994
1161.768
1160.505
1159.195
1157.823
1156.342
1154.622
1152.319
1148.345
1167.252
1166.177
1165.062
1163.907
1162.714
1161.484
1160.215
1158.906
1157.547
1156.112
1154.573
1152.791
1150.299
1168.096
1167.06
1165.983
1164.865
1163.708
1162.512
1161.277
1160.004
1158.695
1157.344
1155.99
1154.638
1153.192
1151.602
1168.969
1167.974
1166.938
1165.861
1164.743
1163.585
1162.387
1161.149
1159.874
1158.564
1157.264
1156.005
1154.757
1153.509
1152.356
1169.849
1168.896
1167.903
1166.868
1165.792
1164.676
1163.517
1162.317
1161.079
1159.803
1158.531
1157.295
1156.085
1154.909
1153.779
1152.671
1170.718
1169.809
1168.859
1167.868
1166.836
1165.763
1164.646
1163.488
1162.288
1161.05
1159.803
1158.579
1157.373
1156.202
1155.081
1153.923
1152.764
1150.317
1152.424
1149.711
1154.43
1152.313
1148.706
1156.366
1154.59
1152.114
1147.255
1158.176
1156.613
1154.703
1151.827
1145.649
1159.816
1158.395
1156.791
1154.756
1151.517
1144.223
1161.285
1159.96
1158.533
1156.899
1154.771
1151.27
1143.207
1162.601
1161.342
1160.021
1158.593
1156.945
1154.773
1151.142
1142.723
1163.787
1162.575
1161.319
1160.001
1158.578
1156.938
1154.774
1151.165
1142.819
1164.856
1163.683
1162.472
1161.217
1159.904
1158.491
1156.874
1154.773
1151.333
1143.478
1165.819
1164.682
1163.507
1162.294
1161.039
1159.73
1158.329
1156.751
1154.757
1151.611
1144.922
1166.691
1165.588
1164.446
1163.267
1162.05
1160.793
1159.484
1158.098
1156.569
1154.711
1152.009
1146.846
1167.492
1166.424
1165.316
1164.17
1162.985
1161.763
1160.501
1159.192
1157.822
1156.344
1154.66
1152.496
1148.852
1168.267
1167.236
1166.164
1165.052
1163.901
1162.712
1161.483
1160.216
1158.908
1157.552
1156.153
1154.693
1153.033
1150.967
1169.073
1168.081
1167.048
1165.974
1164.86
1163.707
1162.512
1161.279
1160.008
1158.7
1157.388
1156.093
1154.788
1153.451
1152.175
1169.905
1168.954
1167.963
1166.93
1165.856
1164.742
1163.585
1162.388
1161.152
1159.879
1158.604
1157.355
1156.125
1154.922
1153.76
1152.61
1170.743
1169.834
1168.885
1167.895
1166.863
1165.791
1164.675
1163.518
1162.32
1161.083
1159.835
1158.606
1157.394
1156.214
1155.083
1153.916
1152.739
1171.57
1170.704
1169.798
1168.851
1167.863
1166.834
1165.761
1164.646
1163.489
1162.291
1161.073
1159.86
1158.655
1157.474
1156.336
1155.18
1153.959
1152.84
1150.653
1152.484
1150.33
1154.288
1152.429
1149.733
1156.078
1154.426
1152.32
1148.739
1157.867
1156.351
1154.584
1152.122
1147.304
1159.564
1158.155
1156.598
1154.697
1151.838
1145.717
1161.116
1159.791
1158.375
1156.777
1154.752
1151.536
1144.305
1162.52
1161.258
1159.937
1158.515
1156.888
1154.771
1151.291
1143.298
1163.787
1162.575
1161.319
1160.001
1158.578
1156.938
1154.774
1151.165
1142.819
1164.931
1163.761
1162.552
1161.299
1159.986
1158.567
1156.93
1154.775
1151.187
1142.914
1165.963
1164.831
1163.661
1162.453
1161.202
1159.893
1158.481
1156.867
1154.774
1151.354
1143.899
1166.893
1165.796
1164.662
1163.49
1162.28
1161.029
1159.72
1158.321
1156.746
1154.759
1151.702
1145.526
1167.73
1166.67
1165.57
1164.431
1163.255
1162.042
1160.785
1159.478
1158.093
1156.567
1154.728
1152.166
1147.346
1168.498
1167.473
1166.408
1165.304
1164.16
1162.979
1161.758
1160.497
1159.19
1157.821
1156.356
1154.732
1152.682
1149.362
1169.238
1168.251
1167.222
1166.153
1165.045
1163.897
1162.709
1161.482
1160.216
1158.91
1157.575
1156.221
1154.815
1153.307
1151.786
1170.006
1169.058
1168.069
1167.039
1165.968
1164.858
1163.705
1162.512
1161.28
1160.011
1158.729
1157.456
1156.19
1154.939
1153.723
1152.516
1170.798
1169.891
1168.943
1167.954
1166.924
1165.854
1164.74
1163.585
1162.389
1161.155
1159.906
1158.666
1157.439
1156.24
1155.087
1153.903
1152.689
1171.594
1170.729
1169.823
1168.876
1167.889
1166.861
1165.789
1164.675
1163.519
1162.322
1161.103
1159.886
1158.676
1157.488
1156.342
1155.18
1153.953
1152.819
1172.379
1171.556
1170.693
1169.789
1168.845
1167.86
1166.832
1165.76
1164.646
1163.49
1162.304
1161.108
1159.912
1158.727
1157.574
1156.411
1155.202
1153.999
1152.925
1150.799
1152.514
1150.665
1154.193
1152.491
1150.349
1155.857
1154.288
1152.439
1149.76
1157.546
1156.07
1154.426
1152.332
1148.778
1159.248
1157.85
1156.341
1154.582
1152.135
1147.358
1160.868
1159.541
1158.137
1156.587
1154.695
1151.855
1145.785
1162.357
1161.091
1159.77
1158.358
1156.768
1154.753
1151.555
1144.386
1163.708
1162.494
1161.236
1159.919
1158.501
1156.881
1154.772
1151.312
1143.388
1164.931
1163.761
1162.552
1161.299
1159.986
1158.567
1156.93
1154.775
1151.187
1142.914
1166.036
1164.906
1163.739
1162.533
1161.284
1159.974
1158.557
1156.923
1154.776
1151.21
1143.359
1167.031
1165.939
1164.81
1163.643
1162.438
1161.191
1159.882
1158.471
1156.86
1154.775
1151.455
1144.562
1167.925
1166.87
1165.777
1164.645
1163.477
1162.27
1161.019
1159.711
1158.313
1156.74
1154.766
1151.861
1146.061
1168.728
1167.71
1166.652
1165.555
1164.42
1163.247
1162.033
1160.778
1159.471
1158.088
1156.555
1154.765
1152.324
1147.802
1169.461
1168.48
1167.458
1166.396
1165.294
1164.154
1162.974
1161.753
1160.493
1159.187
1157.818
1156.378
1154.804
1152.871
1149.859
1170.166
1169.221
1168.237
1167.211
1166.146
1165.041
1163.894
1162.707
1161.48
1160.216
1158.921
1157.609
1156.283
1154.944
1153.628
1152.389
1170.895
1169.991
1169.045
1168.059
1167.032
1165.965
1164.855
1163.704
1162.512
1161.282
1160.028
1158.77
1157.516
1156.282
1155.091
1153.882
1152.614
1171.647
1170.783
1169.879
1168.934
1167.948
1166.921
1165.852
1164.739
1163.585
1162.391
1161.17
1159.945
1158.722
1157.518
1156.353
1155.179
1153.942
1152.778
1172.402
1171.58
1170.717
1169.814
1168.871
1167.886
1166.859
1165.788
1164.674
1163.519
1162.333
1161.134
1159.932
1158.742
1157.58
1156.412
1155.201
1153.995
1152.908
1173.147
1172.366
1171.545
1170.684
1169.783
1168.842
1167.858
1166.83
1165.759
1164.646
1163.495
1162.323
1161.14
1159.96
1158.798
1157.628
1156.424
1155.224
1154.044
1153.017
1152.525
1150.81
1154.137
1152.521
1150.682
1155.714
1154.195
1152.502
1150.372
1157.304
1155.853
1154.293
1152.453
1149.792
1158.925
1157.535
1156.066
1154.431
1152.349
1148.823
1160.56
1159.23
1157.838
1156.335
1154.585
1152.153
1147.414
1162.117
1160.845
1159.523
1158.124
1156.58
1154.698
1151.872
1145.853
1163.552
1162.332
1161.07
1159.753
1158.346
1156.762
1154.755
1151.573
1144.467
1164.856
1163.683
1162.472
1161.217
1159.904
1158.491
1156.874
1154.773
1151.333
1143.478
1166.036
1164.906
1163.739
1162.533
1161.284
1159.974
1158.557
1156.923
1154.776
1151.21
1143.359
1167.101
1166.011
1164.885
1163.72
1162.518
1161.272
1159.962
1158.546
1156.915
1154.777
1151.318
1144.056
1168.058
1167.008
1165.919
1164.792
1163.629
1162.427
1161.179
1159.87
1158.461
1156.853
1154.78
1151.626
1145.139
1168.916
1167.903
1166.851
1165.76
1164.632
1163.466
1162.26
1161.008
1159.701
1158.305
1156.714
1154.785
1152.015
1146.528
1169.684
1168.708
1167.692
1166.637
1165.543
1164.411
1163.238
1162.025
1160.77
1159.464
1158.062
1156.541
1154.805
1152.477
1148.204
1170.382
1169.443
1168.464
1167.445
1166.386
1165.288
1164.148
1162.968
1161.748
1160.489
1159.174
1157.812
1156.4
1154.876
1153.054
1171.05
1170.149
1169.208
1168.226
1167.204
1166.141
1165.037
1163.89
1162.704
1161.479
1160.216
1158.93
1157.634
1156.341
1155.083
1153.852
1152.521
1171.742
1170.88
1169.978
1169.035
1168.052
1167.029
1165.962
1164.853
1163.703
1162.512
1161.288
1160.047
1158.802
1157.569
1156.37
1155.177
1153.926
1152.719
1172.454
1171.633
1170.771
1169.87
1168.927
1167.945
1166.919
1165.85
1164.738
1163.585
1162.397
1161.191
1159.977
1158.772
1157.594
1156.415
1155.2
1153.986
1152.875
1173.169
1172.388
1171.568
1170.708
1169.808
1168.867
1167.883
1166.856
1165.786
1164.674
1163.522
1162.347
1161.16
1159.974
1158.804
1157.63
1156.425
1155.224
1154.041
1153.002
1173.873
1173.133
1172.354
1171.536
1170.678
1169.78
1168.839
1167.855
1166.828
1165.758
1164.644
1163.499
1162.337
1161.169
1160.006
1158.836
1157.637
1156.437
1155.247
1154.091
1153.111
1154.112
1152.533
1150.827
1155.632
1154.14
1152.532
1150.704
1157.149
1155.712
1154.201
1152.517
1150.401
1158.684
1157.297
1155.853
1154.301
1152.472
1149.83
1160.248
1158.913
1157.529
1156.066
1154.439
1152.37
1148.869
1161.822
1160.542
1159.216
1157.829
1156.333
1154.592
1152.171
1147.469
1163.323
1162.095
1160.826
1159.509
1158.115
1156.577
1154.701
1151.89
1145.921
1164.706
1163.527
1162.311
1161.052
1159.74
1158.338
1156.756
1154.756
1151.592
1144.546
1165.963
1164.831
1163.661
1162.453
1161.202
1159.893
1158.481
1156.867
1154.774
1151.354
1143.899
1167.101
1166.011
1164.885
1163.72
1162.518
1161.272
1159.962
1158.546
1156.915
1154.777
1151.318
1144.056
1168.125
1167.077
1165.991
1164.867
1163.705
1162.506
1161.26
1159.951
1158.536
1156.908
1154.782
1151.498
1144.659
1169.045
1168.036
1166.988
1165.902
1164.778
1163.617
1162.415
1161.167
1159.859
1158.452
1156.82
1154.792
1151.787
1145.632
1169.866
1168.895
1167.884
1166.835
1165.747
1164.622
1163.456
1162.249
1160.999
1159.692
1158.264
1156.677
1154.808
1152.161
1146.923
1170.598
1169.664
1168.691
1167.678
1166.626
1165.534
1164.402
1163.23
1162.017
1160.763
1159.431
1158.023
1156.531
1154.845
1152.622
1171.26
1170.364
1169.428
1168.451
1167.435
1166.379
1165.281
1164.142
1162.962
1161.743
1160.469
1159.15
1157.805
1156.418
1154.941
1171.893
1171.034
1170.135
1169.197
1168.218
1167.198
1166.136
1165.032
1163.887
1162.701
1161.471
1160.206
1158.928
1157.65
1156.395
1155.172
1153.906
1152.645
1172.546
1171.727
1170.868
1169.968
1169.028
1168.048
1167.025
1165.959
1164.851
1163.701
1162.51
1161.289
1160.056
1158.825
1157.616
1156.419
1155.198
1153.974
1152.825
1173.22
1172.44
1171.621
1170.762
1169.863
1168.924
1167.941
1166.916
1165.847
1164.737
1163.584
1162.401
1161.204
1160.004
1158.819
1157.635
1156.427
1155.222
1154.034
1152.974
1173.895
1173.155
1172.377
1171.559
1170.702
1169.804
1168.864
1167.88
1166.854
1165.785
1164.67
1163.523
1162.356
1161.182
1160.013
1158.839
1157.638
1156.438
1155.247
1154.089
1153.1
1174.558
1173.859
1173.122
1172.345
1171.53
1170.674
1169.776
1168.836
1167.852
1166.826
1165.751
1164.637
1163.5
1162.349
1161.195
1160.031
1158.841
1157.644
1156.449
1155.271
1154.14
1153.207
1155.596
1154.115
1152.545
1150.849
1157.062
1155.632
1154.147
1152.548
1150.731
1158.531
1157.145
1155.715
1154.212
1152.537
1150.435
1160.015
1158.675
1157.294
1155.857
1154.314
1152.496
1149.869
1161.523
1160.234
1158.904
1157.526
1156.07
1154.452
1152.392
1148.916
1163.041
1161.803
1160.527
1159.206
1157.824
1156.335
1154.6
1152.19
1147.525
1164.486
1163.3
1162.076
1160.812
1159.498
1158.109
1156.574
1154.704
1151.907
1145.988
1165.819
1164.682
1163.507
1162.294
1161.039
1159.73
1158.329
1156.751
1154.757
1151.611
1144.922
1167.031
1165.939
1164.81
1163.643
1162.438
1161.191
1159.882
1158.471
1156.86
1154.775
1151.455
1144.562
1168.125
1167.077
1165.991
1164.867
1163.705
1162.506
1161.26
1159.951
1158.536
1156.908
1154.782
1151.498
1144.659
1169.11
1168.103
1167.057
1165.973
1164.852
1163.694
1162.494
1161.247
1159.939
1158.525
1156.873
1154.793
1151.665
1145.171
1169.99
1169.023
1168.016
1166.971
1165.888
1164.767
1163.606
1162.404
1161.156
1159.849
1158.403
1156.771
1154.808
1151.936
1146.045
1170.774
1169.845
1168.876
1167.869
1166.822
1165.737
1164.611
1163.445
1162.239
1160.989
1159.645
1158.202
1156.647
1154.832
1152.297
1171.47
1170.578
1169.647
1168.676
1167.666
1166.617
1165.526
1164.394
1163.221
1162.009
1160.725
1159.377
1157.989
1156.524
1154.884
1172.097
1171.243
1170.349
1169.415
1168.441
1167.428
1166.372
1165.274
1164.135
1162.957
1161.718
1160.431
1159.124
1157.795
1156.432
1172.693
1171.877
1171.02
1170.124
1169.188
1168.212
1167.193
1166.131
1165.028
1163.883
1162.687
1161.446
1160.185
1158.916
1157.654
1156.423
1155.195
1153.96
1152.763
1173.31
1172.532
1171.714
1170.858
1169.961
1169.024
1168.044
1167.021
1165.956
1164.848
1163.692
1162.496
1161.281
1160.057
1158.843
1157.641
1156.429
1155.221
1154.025
1152.933
1173.944
1173.205
1172.428
1171.611
1170.755
1169.859
1168.92
1167.938
1166.913
1165.845
1164.73
1163.575
1162.398
1161.211
1160.027
1158.844
1157.641
1156.439
1155.246
1154.084
1153.076
1174.58
1173.881
1173.144
1172.368
1171.553
1170.698
1169.8
1168.86
1167.877
1166.852
1165.776
1164.659
1163.518
1162.362
1161.201
1160.034
1158.843
1157.645
1156.449
1155.27
1154.138
1153.198
1175.204
1174.545
1173.848
1173.113
1172.339
1171.525
1170.67
1169.773
1168.832
1167.849
1166.814
1165.734
1164.626
1163.498
1162.359
1161.209
1160.034
1158.844
1157.65
1156.461
1155.294
1154.189
1153.303
1157.022
1155.596
1154.123
1152.561
1150.875
1158.444
1157.058
1155.635
1154.159
1152.569
1150.764
1159.867
1158.524
1157.144
1155.721
1154.226
1152.562
1150.47
1161.301
1160.004
1158.67
1157.296
1155.866
1154.331
1152.52
1149.909
1162.756
1161.509
1160.224
1158.9
1157.527
1156.079
1154.466
1152.415
1148.963
1164.217
1163.021
1161.788
1160.516
1159.2
1157.824
1156.337
1154.607
1152.208
1147.58
1165.609
1164.465
1163.282
1162.061
1160.801
1159.491
1158.104
1156.572
1154.708
1151.924
1146.307
1166.893
1165.796
1164.662
1163.49
1162.28
1161.029
1159.72
1158.321
1156.746
1154.759
1151.702
1145.526
1168.058
1167.008
1165.919
1164.792
1163.629
1162.427
1161.179
1159.87
1158.461
1156.853
1154.78
1151.626
1145.139
1169.11
1168.103
1167.057
1165.973
1164.852
1163.694
1162.494
1161.247
1159.939
1158.525
1156.873
1154.793
1151.665
1145.171
1170.053
1169.088
1168.083
1167.04
1165.959
1164.84
1163.682
1162.482
1161.235
1159.927
1158.473
1156.818
1154.806
1151.818
1145.598
1170.895
1169.969
1169.004
1168
1166.958
1165.877
1164.756
1163.594
1162.392
1161.145
1159.794
1158.327
1156.729
1154.825
1152.074
1171.641
1170.754
1169.827
1168.861
1167.856
1166.812
1165.727
1164.601
1163.435
1162.229
1160.938
1159.57
1158.148
1156.622
1154.858
1172.301
1171.451
1170.562
1169.633
1168.665
1167.658
1166.608
1165.517
1164.385
1163.213
1161.968
1160.663
1159.329
1157.958
1156.518
1172.892
1172.08
1171.228
1170.336
1169.405
1168.434
1167.421
1166.365
1165.267
1164.129
1162.927
1161.671
1160.392
1159.096
1157.781
1173.453
1172.677
1171.863
1171.009
1170.116
1169.182
1168.206
1167.187
1166.126
1165.023
1163.863
1162.649
1161.41
1160.151
1158.887
1157.648
1156.432
1155.218
1154.014
1152.88
1174.032
1173.295
1172.519
1171.704
1170.85
1169.956
1169.019
1168.039
1167.017
1165.952
1164.834
1163.667
1162.473
1161.264
1160.052
1158.851
1157.645
1156.44
1155.244
1154.077
1153.042
1174.628
1173.93
1173.194
1172.419
1171.604
1170.751
1169.854
1168.916
1167.934
1166.91
1165.833
1164.709
1163.559
1162.39
1161.215
1160.039
1158.846
1157.647
1156.45
1155.269
1154.134
1153.179
1175.225
1174.566
1173.87
1173.135
1172.361
1171.548
1170.693
1169.796
1168.857
1167.874
1166.839
1165.755
1164.644
1163.51
1162.365
1161.211
1160.035
1158.846
1157.65
1156.461
1155.294
1154.188
1153.296
1175.811
1175.191
1174.534
1173.839
1173.106
1172.334
1171.521
1170.666
1169.769
1168.829
1167.834
1166.789
1165.714
1164.612
1163.494
1162.363
1161.209
1160.034
1158.846
1157.655
1156.472
1155.318
1154.238
1153.396
1158.405
1157.019
1155.599
1154.134
1152.582
1150.906
1159.784
1158.438
1157.058
1155.643
1154.174
1152.594
1150.797
1161.16
1159.858
1158.52
1157.147
1155.731
1154.246
1152.587
1150.505
1162.544
1161.289
1159.997
1158.669
1157.3
1155.878
1154.348
1152.545
1149.949
1163.945
1162.74
1161.497
1160.217
1158.898
1157.532
1156.087
1154.479
1152.437
1149.011
1165.351
1164.198
1163.006
1161.776
1160.508
1159.198
1157.823
1156.34
1154.615
1152.227
1147.848
1166.691
1165.588
1164.446
1163.267
1162.05
1160.793
1159.484
1158.098
1156.569
1154.711
1152.009
1146.846
1167.925
1166.87
1165.777
1164.645
1163.477
1162.27
1161.019
1159.711
1158.313
1156.74
1154.766
1151.861
1146.061
1169.045
1168.036
1166.988
1165.902
1164.778
1163.617
1162.415
1161.167
1159.859
1158.452
1156.82
1154.792
1151.787
1145.632
1170.053
1169.088
1168.083
1167.04
1165.959
1164.84
1163.682
1162.482
1161.235
1159.927
1158.473
1156.818
1154.806
1151.818
1145.598
1170.956
1170.032
1169.069
1168.067
1167.026
1165.948
1164.829
1163.67
1162.47
1161.224
1159.869
1158.391
1156.771
1154.821
1151.959
1171.759
1170.874
1169.951
1168.988
1167.987
1166.947
1165.866
1164.744
1163.583
1162.381
1161.087
1159.706
1158.261
1156.694
1154.844
1172.468
1171.621
1170.736
1169.812
1168.849
1167.846
1166.802
1165.717
1164.591
1163.425
1162.177
1160.858
1159.505
1158.102
1156.603
1173.091
1172.282
1171.435
1170.548
1169.622
1168.656
1167.649
1166.599
1165.508
1164.376
1163.17
1161.901
1160.606
1159.286
1157.931
1173.647
1172.875
1172.065
1171.215
1170.326
1169.398
1168.427
1167.413
1166.358
1165.261
1164.096
1162.872
1161.622
1160.352
1159.066
1174.172
1173.437
1172.664
1171.852
1171.001
1170.11
1169.176
1168.2
1167.182
1166.121
1164.998
1163.816
1162.601
1161.359
1160.1
1158.859
1157.649
1156.441
1155.242
1154.069
1152.996
1174.714
1174.017
1173.283
1172.509
1171.697
1170.845
1169.951
1169.014
1168.035
1167.013
1165.933
1164.798
1163.632
1162.442
1161.24
1160.047
1158.851
1157.649
1156.451
1155.268
1154.13
1153.151
1175.272
1174.614
1173.918
1173.184
1172.412
1171.6
1170.746
1169.85
1168.912
1167.931
1166.893
1165.804
1164.683
1163.538
1162.379
1161.217
1160.039
1158.848
1157.652
1156.462
1155.294
1154.186
1153.282
1175.831
1175.212
1174.555
1173.861
1173.128
1172.357
1171.544
1170.689
1169.792
1168.853
1167.858
1166.81
1165.73
1164.624
1163.5
1162.366
1161.211
1160.035
1158.847
1157.656
1156.472
1155.318
1154.237
1153.391
1176.378
1175.798
1175.18
1174.525
1173.832
1173.102
1172.33
1171.517
1170.662
1169.765
1168.811
1167.803
1166.761
1165.691
1164.597
1163.491
1162.362
1161.208
1160.034
1158.848
1157.66
1156.484
1155.341
1154.285
1153.484
1159.746
1158.399
1157.02
1155.607
1154.15
1152.607
1150.939
1161.081
1159.775
1158.435
1157.062
1155.654
1154.194
1152.62
1150.83
1162.41
1161.15
1159.853
1158.521
1157.154
1155.746
1154.265
1152.613
1150.541
1163.744
1162.531
1161.281
1159.994
1158.671
1157.309
1155.891
1154.366
1152.57
1149.99
1165.091
1163.929
1162.728
1161.49
1160.214
1158.901
1157.537
1156.095
1154.493
1152.46
1149.245
1166.443
1165.332
1164.182
1162.994
1161.768
1160.505
1159.195
1157.823
1156.342
1154.622
1152.319
1148.345
1167.73
1166.67
1165.57
1164.431
1163.255
1162.042
1160.785
1159.478
1158.093
1156.567
1154.728
1152.166
1147.346
1168.916
1167.903
1166.851
1165.76
1164.632
1163.466
1162.26
1161.008
1159.701
1158.305
1156.714
1154.785
1152.015
1146.528
1169.99
1169.023
1168.016
1166.971
1165.888
1164.767
1163.606
1162.404
1161.156
1159.849
1158.403
1156.771
1154.808
1151.936
1146.045
1170.956
1170.032
1169.069
1168.067
1167.026
1165.948
1164.829
1163.67
1162.47
1161.224
1159.869
1158.391
1156.771
1154.821
1151.959
1171.818
1170.935
1170.013
1169.052
1168.053
1167.015
1165.936
1164.817
1163.658
1162.458
1161.163
1159.776
1158.32
1156.732
1154.838
1172.582
1171.739
1170.857
1169.935
1168.976
1167.977
1166.936
1165.855
1164.733
1163.572
1162.323
1160.996
1159.63
1158.205
1156.666
1173.254
1172.448
1171.605
1170.722
1169.8
1168.839
1167.836
1166.792
1165.707
1164.581
1163.373
1162.094
1160.787
1159.448
1158.062
1173.841
1173.073
1172.266
1171.421
1170.537
1169.613
1168.648
1167.64
1166.59
1165.499
1164.332
1163.098
1161.839
1160.555
1159.247
1174.362
1173.63
1172.861
1172.053
1171.205
1170.319
1169.39
1168.419
1167.406
1166.351
1165.225
1164.035
1162.816
1161.573
1160.311
1174.851
1174.156
1173.424
1172.653
1171.843
1170.994
1170.103
1169.17
1168.194
1167.176
1166.093
1164.943
1163.757
1162.537
1161.289
1160.056
1158.856
1157.652
1156.452
1155.267
1154.124
1153.112
1175.356
1174.7
1174.005
1173.273
1172.501
1171.691
1170.839
1169.945
1169.009
1168.03
1166.99
1165.89
1164.753
1163.588
1162.403
1161.224
1160.044
1158.851
1157.653
1156.462
1155.293
1154.183
1153.26
1175.877
1175.259
1174.603
1173.909
1173.177
1172.407
1171.595
1170.741
1169.846
1168.908
1167.911
1166.857
1165.768
1164.651
1163.513
1162.371
1161.215
1160.038
1158.849
1157.656
1156.473
1155.318
1154.236
1153.382
1176.399
1175.818
1175.201
1174.546
1173.854
1173.123
1172.352
1171.539
1170.685
1169.788
1168.834
1167.823
1166.778
1165.702
1164.603
1163.493
1162.364
1161.209
1160.035
1158.849
1157.66
1156.484
1155.341
1154.286
1153.482
1176.908
1176.366
1175.787
1175.171
1174.518
1173.828
1173.097
1172.325
1171.512
1170.658
1169.745
1168.774
1167.768
1166.731
1165.666
1164.588
1163.488
1162.359
1161.205
1160.033
1158.849
1157.665
1156.494
1155.364
1154.33
1153.607
1161.045
1159.738
1158.397
1157.024
1155.619
1154.171
1152.633
1150.971
1162.335
1161.071
1159.771
1158.436
1157.07
1155.67
1154.215
1152.646
1150.863
1163.616
1162.399
1161.143
1159.851
1158.525
1157.165
1155.761
1154.285
1152.638
1150.578
1164.899
1163.73
1162.522
1161.276
1159.994
1158.677
1157.318
1155.903
1154.383
1152.594
1150.19
1166.194
1165.075
1163.917
1162.719
1161.485
1160.215
1158.903
1157.542
1156.104
1154.506
1152.571
1149.733
1167.492
1166.424
1165.316
1164.17
1162.985
1161.763
1160.501
1159.192
1157.822
1156.344
1154.66
1152.496
1148.852
1168.728
1167.71
1166.652
1165.555
1164.42
1163.247
1162.033
1160.778
1159.471
1158.088
1156.555
1154.765
1152.324
1147.802
1169.866
1168.895
1167.884
1166.835
1165.747
1164.622
1163.456
1162.249
1160.999
1159.692
1158.264
1156.677
1154.808
1152.161
1146.923
1170.895
1169.969
1169.004
1168
1166.958
1165.877
1164.756
1163.594
1162.392
1161.145
1159.794
1158.327
1156.729
1154.825
1152.074
1171.818