/*--------------------------------*- C++ -*----------------------------------*\
| =========                 |                                                 |
| \\      /  F ield         | OpenFOAM: The Open Source CFD Toolbox           |
|  \\    /   O peration     | Version:  2306                                  |
|   \\  /    A nd           | Website:  www.openfoam.com                      |
|    \\/     M anipulation  |                                                 |
\*---------------------------------------------------------------------------*/
FoamFile
{
    version     2.0;
    format      ascii;
    arch        "LSB;label=32;scalar=64";
    class       volScalarField;
    location    "1.2/electrolyte";
    object      T;
}
// * * * * * * * * * * * * * * * * * * * * * * * * * * * * * * * * * * * * * //

dimensions      [0 0 0 1 0 0 0];

internalField   nonuniform List<scalar> 
4000
(
1163.753
1163.599
1165.579
1163.761
1163.245
1165.568
1163.608
1167.253
1165.584
1163.769
1162.584
1165.541
1163.253
1167.281
1165.573
1163.616
1168.814
1167.254
1165.588
1163.777
1161.468
1165.487
1162.594
1167.345
1165.545
1163.262
1168.854
1167.282
1165.577
1163.625
1170.309
1168.811
1167.254
1165.592
1163.785
1159.823
1165.384
1161.485
1167.455
1165.489
1162.605
1168.944
1167.344
1165.548
1163.271
1170.351
1168.851
1167.282
1165.581
1163.633
1171.753
1170.304
1168.809
1167.255
1165.596
1157.945
1165.201
1159.853
1167.625
1165.383
1161.502
1169.103
1167.453
1165.491
1162.617
1170.447
1168.94
1167.344
1165.551
1163.28
1171.795
1170.346
1168.848
1167.282
1165.584
1173.15
1171.746
1170.298
1168.806
1167.255
1156.224
1164.901
1157.995
1167.841
1165.196
1159.884
1169.356
1167.619
1165.382
1161.52
1170.618
1169.098
1167.45
1165.492
1162.628
1171.889
1170.441
1168.936
1167.343
1165.554
1173.19
1171.787
1170.34
1168.845
1167.282
1174.499
1173.141
1171.738
1170.293
1168.803
1154.945
1164.549
1156.293
1168
1164.896
1158.044
1169.694
1167.827
1165.191
1159.915
1170.89
1169.346
1167.612
1165.381
1161.538
1172.058
1170.61
1169.092
1167.447
1165.494
1173.28
1171.881
1170.435
1168.932
1167.342
1174.537
1173.181
1171.78
1170.334
1168.841
1175.799
1174.488
1173.131
1171.73
1170.287
1154.27
1164.243
1155.027
1168.079
1164.546
1156.36
1170.003
1167.982
1164.89
1158.093
1171.26
1169.678
1167.814
1165.186
1159.945
1172.327
1170.879
1169.337
1167.605
1165.38
1173.442
1172.048
1170.602
1169.086
1167.444
1174.623
1173.27
1171.873
1170.428
1168.928
1175.835
1174.526
1173.171
1171.771
1170.328
1177.05
1175.788
1174.478
1173.122
1171.722
1154.27
1164.068
1154.359
1168.103
1164.244
1155.108
1170.228
1168.06
1164.543
1156.427
1171.611
1169.98
1167.964
1164.884
1158.141
1172.694
1171.241
1169.661
1167.8
1165.18
1173.7
1172.314
1170.867
1169.326
1167.598
1174.776
1173.43
1172.038
1170.593
1169.079
1175.916
1174.611
1173.26
1171.864
1170.421
1177.084
1175.824
1174.515
1173.161
1171.763
1178.251
1177.038
1175.776
1174.467
1173.112
1154.945
1164.068
1154.359
1168.105
1164.071
1154.447
1170.368
1168.084
1164.244
1155.187
1171.882
1170.203
1168.04
1164.54
1156.492
1173.048
1171.587
1169.958
1167.946
1164.878
1174.051
1172.675
1171.223
1169.644
1167.786
1175.02
1173.685
1172.3
1170.855
1169.316
1176.061
1174.763
1173.419
1172.027
1170.584
1177.161
1175.904
1174.6
1173.25
1171.855
1178.284
1177.072
1175.812
1174.504
1173.151
1179.403
1178.238
1177.025
1175.764
1174.456
1156.224
1164.243
1155.027
1168.105
1164.071
1154.447
1170.433
1168.086
1164.073
1154.533
1172.06
1170.342
1168.064
1164.244
1155.265
1173.327
1171.856
1170.178
1168.02
1164.536
1174.394
1173.024
1171.563
1169.936
1167.927
1175.354
1174.032
1172.655
1171.204
1169.626
1176.293
1175.005
1173.671
1172.287
1170.842
1177.299
1176.048
1174.75
1173.407
1172.017
1178.357
1177.148
1175.892
1174.588
1173.239
1179.434
1178.271
1177.059
1175.799
1174.493
1180.504
1179.389
1178.225
1177.012
1175.752
1157.945
1164.549
1156.293
1168.103
1164.244
1155.108
1170.433
1168.086
1164.073
1154.533
1172.147
1170.406
1168.066
1164.075
1154.617
1173.514
1172.032
1170.315
1168.044
1164.243
1174.667
1173.3
1171.829
1170.153
1168
1175.68
1174.37
1173
1171.54
1169.913
1176.609
1175.335
1174.012
1172.636
1171.185
1177.518
1176.277
1174.99
1173.656
1172.273
1178.488
1177.285
1176.034
1174.737
1173.395
1179.503
1178.343
1177.135
1175.879
1174.576
1180.534
1179.42
1178.257
1177.046
1175.787
1181.557
1180.491
1179.376
1178.212
1177
1159.823
1164.901
1157.995
1168.079
1164.546
1156.36
1170.368
1168.084
1164.244
1155.187
1172.147
1170.406
1168.066
1164.075
1154.617
1173.606
1172.118
1170.379
1168.046
1164.077
1174.85
1173.485
1172.004
1170.289
1168.023
1175.942
1174.64
1173.274
1171.802
1170.127
1176.919
1175.657
1174.346
1172.976
1171.516
1177.818
1176.589
1175.315
1173.992
1172.616
1178.696
1177.502
1176.262
1174.974
1173.641
1179.628
1178.473
1177.271
1176.021
1174.724
1180.601
1179.489
1178.33
1177.122
1175.866
1181.585
1180.52
1179.406
1178.244
1177.033
1182.561
1181.543
1180.477
1179.362
1178.198
1161.468
1165.201
1159.853
1168
1164.896
1158.044
1170.228
1168.06
1164.543
1156.427
1172.06
1170.342
1168.064
1164.244
1155.265
1173.606
1172.118
1170.379
1168.046
1164.077
1174.941
1173.577
1172.089
1170.352
1168.026
1176.118
1174.822
1173.457
1171.975
1170.262
1177.168
1175.916
1174.614
1173.247
1171.775
1178.112
1176.896
1175.634
1174.322
1172.952
1178.981
1177.798
1176.57
1175.295
1173.973
1179.827
1178.68
1177.486
1176.245
1174.959
1180.72
1179.613
1178.459
1177.256
1176.006
1181.649
1180.586
1179.475
1178.316
1177.108
1182.588
1181.571
1180.506
1179.392
1178.23
1183.517
1182.547
1181.529
1180.463
1179.348
1162.584
1165.384
1161.485
1167.841
1165.196
1159.884
1170.003
1167.982
1164.89
1158.093
1171.882
1170.203
1168.04
1164.54
1156.492
1173.514
1172.032
1170.315
1168.044
1164.243
1174.941
1173.577
1172.089
1170.352
1168.026
1176.206
1174.913
1173.548
1172.06
1170.325
1177.336
1176.091
1174.795
1173.429
1171.947
1178.349
1177.143
1175.89
1174.588
1173.22
1179.261
1178.09
1176.873
1175.61
1174.299
1180.098
1178.962
1177.779
1176.55
1175.275
1180.91
1179.811
1178.664
1177.47
1176.229
1181.763
1180.705
1179.598
1178.444
1177.242
1182.65
1181.635
1180.572
1179.461
1178.302
1183.544
1182.574
1181.557
1180.492
1179.378
1184.427
1183.504
1182.533
1181.515
1180.449
1163.245
1165.487
1162.594
1167.625
1165.383
1161.502
1169.694
1167.827
1165.191
1159.915
1171.611
1169.98
1167.964
1164.884
1158.141
1173.327
1171.856
1170.178
1168.02
1164.536
1174.85
1173.485
1172.004
1170.289
1168.023
1176.206
1174.913
1173.548
1172.06
1170.325
1177.42
1176.179
1174.885
1173.519
1172.031
1178.51
1177.31
1176.065
1174.767
1173.401
1179.487
1178.325
1177.118
1175.865
1174.561
1180.366
1179.239
1178.067
1176.85
1175.587
1181.17
1180.079
1178.942
1177.759
1176.53
1181.946
1180.894
1179.794
1178.647
1177.453
1182.76
1181.749
1180.69
1179.583
1178.429
1183.603
1182.636
1181.621
1180.558
1179.447
1184.453
1183.53
1182.56
1181.543
1180.478
1185.291
1184.414
1183.49
1182.519
1181.501
1163.599
1165.541
1163.253
1167.455
1165.489
1162.605
1169.356
1167.619
1165.382
1161.52
1171.26
1169.678
1167.814
1165.186
1159.945
1173.048
1171.587
1169.958
1167.946
1164.878
1174.667
1173.3
1171.829
1170.153
1168
1176.118
1174.822
1173.457
1171.975
1170.262
1177.42
1176.179
1174.885
1173.519
1172.031
1178.59
1177.394
1176.152
1174.857
1173.49
1179.641
1178.485
1177.284
1176.038
1174.739
1180.582
1179.464
1178.301
1177.093
1175.839
1181.426
1180.344
1179.217
1178.045
1176.827
1182.195
1181.151
1180.06
1178.923
1177.739
1182.935
1181.93
1180.878
1179.778
1178.631
1183.709
1182.745
1181.734
1180.675
1179.568
1184.51
1183.589
1182.621
1181.606
1180.543
1185.316
1184.439
1183.516
1182.546
1181.529
1186.111
1185.278
1184.4
1183.476
1182.505
1163.753
1165.568
1163.608
1167.345
1165.545
1163.262
1169.103
1167.453
1165.491
1162.617
1170.89
1169.346
1167.612
1165.381
1161.538
1172.694
1171.241
1169.661
1167.8
1165.18
1174.394
1173.024
1171.563
1169.936
1167.927
1175.942
1174.64
1173.274
1171.802
1170.127
1177.336
1176.091
1174.795
1173.429
1171.947
1178.59
1177.394
1176.152
1174.857
1173.49
1179.718
1178.565
1177.368
1176.124
1174.829
1180.729
1179.617
1178.46
1177.258
1176.011
1181.633
1180.559
1179.44
1178.277
1177.068
1182.441
1181.405
1180.323
1179.196
1178.022
1183.175
1182.177
1181.132
1180.041
1178.903
1183.878
1182.919
1181.914
1180.861
1179.761
1184.612
1183.694
1182.73
1181.719
1180.66
1185.371
1184.496
1183.575
1182.607
1181.591
1186.134
1185.302
1184.425
1183.502
1182.532
1186.886
1186.097
1185.264
1184.386
1183.461
1165.579
1163.761
1167.281
1165.573
1163.616
1168.944
1167.344
1165.548
1163.271
1170.618
1169.098
1167.45
1165.492
1162.628
1172.327
1170.879
1169.337
1167.605
1165.38
1174.051
1172.675
1171.223
1169.644
1167.786
1175.68
1174.37
1173
1171.54
1169.913
1177.168
1175.916
1174.614
1173.247
1171.775
1178.51
1177.31
1176.065
1174.767
1173.401
1179.718
1178.565
1177.368
1176.124
1174.829
1180.803
1179.693
1178.539
1177.341
1176.097
1181.774
1180.706
1179.592
1178.435
1177.233
1182.64
1181.611
1180.536
1179.417
1178.253
1183.411
1182.421
1181.384
1180.302
1179.174
1184.109
1183.157
1182.158
1181.113
1180.022
1184.776
1183.863
1182.903
1181.897
1180.844
1185.47
1184.598
1183.68
1182.715
1181.703
1186.188
1185.357
1184.482
1183.56
1182.592
1186.909
1186.121
1185.288
1184.411
1183.487
1187.618
1186.872
1186.083
1185.25
1184.372
1167.253
1165.584
1163.769
1168.854
1167.282
1165.577
1163.625
1170.447
1168.94
1167.344
1165.551
1163.28
1172.058
1170.61
1169.092
1167.447
1165.494
1173.7
1172.314
1170.867
1169.326
1167.598
1175.354
1174.032
1172.655
1171.204
1169.626
1176.919
1175.657
1174.346
1172.976
1171.516
1178.349
1177.143
1175.89
1174.588
1173.22
1179.641
1178.485
1177.284
1176.038
1174.739
1180.803
1179.693
1178.539
1177.341
1176.097
1181.845
1180.779
1179.669
1178.514
1177.315
1182.776
1181.751
1180.682
1179.568
1178.41
1183.603
1182.619
1181.589
1180.514
1179.394
1184.337
1183.391
1182.4
1181.363
1180.28
1184.999
1184.091
1183.138
1182.14
1181.094
1185.629
1184.76
1183.847
1182.887
1181.881
1186.284
1185.456
1184.583
1183.665
1182.7
1186.961
1186.174
1185.343
1184.467
1183.546
1187.64
1186.895
1186.107
1185.274
1184.397
1188.307
1187.605
1186.859
1186.07
1185.236
1168.814
1167.254
1165.588
1163.777
1170.351
1168.851
1167.282
1165.581
1163.633
1171.889
1170.441
1168.936
1167.343
1165.554
1173.442
1172.048
1170.602
1169.086
1167.444
1175.02
1173.685
1172.3
1170.855
1169.316
1176.609
1175.335
1174.012
1172.636
1171.185
1178.112
1176.896
1175.634
1174.322
1172.952
1179.487
1178.325
1177.118
1175.865
1174.561
1180.729
1179.617
1178.46
1177.258
1176.011
1181.845
1180.779
1179.669
1178.514
1177.315
1182.844
1181.822
1180.755
1179.644
1178.489
1183.734
1182.754
1181.729
1180.659
1179.544
1184.522
1183.582
1182.597
1181.567
1180.491
1185.219
1184.318
1183.372
1182.38
1181.343
1185.844
1184.981
1184.074
1183.12
1182.121
1186.438
1185.613
1184.745
1183.831
1182.871
1187.054
1186.27
1185.442
1184.568
1183.649
1187.691
1186.947
1186.16
1185.329
1184.453
1188.329
1187.627
1186.882
1186.093
1185.26
1188.956
1188.295
1187.591
1186.845
1186.056
1170.309
1168.811
1167.254
1165.592
1163.785
1171.795
1170.346
1168.848
1167.282
1165.584
1173.28
1171.881
1170.435
1168.932
1167.342
1174.776
1173.43
1172.038
1170.593
1169.079
1176.293
1175.005
1173.671
1172.287
1170.842
1177.818
1176.589
1175.315
1173.992
1172.616
1179.261
1178.09
1176.873
1175.61
1174.299
1180.582
1179.464
1178.301
1177.093
1175.839
1181.774
1180.706
1179.592
1178.435
1177.233
1182.844
1181.822
1180.755
1179.644
1178.489
1183.8
1182.822
1181.799
1180.732
1179.62
1184.649
1183.713
1182.732
1181.706
1180.636
1185.399
1184.502
1183.562
1182.576
1181.545
1186.058
1185.201
1184.299
1183.352
1182.36
1186.647
1185.827
1184.964
1184.056
1183.102
1187.203
1186.423
1185.598
1184.729
1183.814
1187.782
1187.04
1186.256
1185.427
1184.553
1188.379
1187.678
1186.934
1186.147
1185.315
1188.977
1188.316
1187.614
1186.868
1186.08
1189.563
1188.943
1188.282
1187.578
1186.832
1171.753
1170.304
1168.809
1167.255
1165.596
1173.19
1171.787
1170.34
1168.845
1167.282
1174.623
1173.27
1171.873
1170.428
1168.928
1176.061
1174.763
1173.419
1172.027
1170.584
1177.518
1176.277
1174.99
1173.656
1172.273
1178.981
1177.798
1176.57
1175.295
1173.973
1180.366
1179.239
1178.067
1176.85
1175.587
1181.633
1180.559
1179.44
1178.277
1177.068
1182.776
1181.751
1180.682
1179.568
1178.41
1183.8
1182.822
1181.799
1180.732
1179.62
1184.713
1183.778
1182.8
1181.776
1180.708
1185.521
1184.629
1183.692
1182.71
1181.684
1186.232
1185.379
1184.482
1183.541
1182.555
1186.854
1186.04
1185.182
1184.28
1183.332
1187.406
1186.63
1185.81
1184.947
1184.038
1187.927
1187.189
1186.407
1185.582
1184.713
1188.467
1187.768
1187.026
1186.241
1185.412
1189.025
1188.366
1187.664
1186.92
1186.132
1189.584
1188.964
1188.303
1187.6
1186.855
1190.131
1189.551
1188.93
1188.269
1187.565
1173.15
1171.746
1170.298
1168.806
1167.255
1174.537
1173.181
1171.78
1170.334
1168.841
1175.916
1174.611
1173.26
1171.864
1170.421
1177.299
1176.048
1174.75
1173.407
1172.017
1178.696
1177.502
1176.262
1174.974
1173.641
1180.098
1178.962
1177.779
1176.55
1175.275
1181.426
1180.344
1179.217
1178.045
1176.827
1182.64
1181.611
1180.536
1179.417
1178.253
1183.734
1182.754
1181.729
1180.659
1179.544
1184.713
1183.778
1182.8
1181.776
1180.708
1185.583
1184.692
1183.757
1182.778
1181.754
1186.351
1185.501
1184.608
1183.671
1182.688
1187.023
1186.213
1185.36
1184.462
1183.52
1187.608
1186.836
1186.022
1185.163
1184.26
1188.124
1187.39
1186.614
1185.793
1184.929
1188.609
1187.912
1187.174
1186.392
1185.567
1189.112
1188.454
1187.754
1187.012
1186.227
1189.631
1189.013
1188.353
1187.651
1186.906
1190.152
1189.572
1188.952
1188.29
1187.587
1190.66
1190.119
1189.539
1188.918
1188.255
1174.499
1173.141
1171.738
1170.293
1168.803
1175.835
1174.526
1173.171
1171.771
1170.328
1177.161
1175.904
1174.6
1173.25
1171.855
1178.488
1177.285
1176.034
1174.737
1173.395
1179.827
1178.68
1177.486
1176.245
1174.959
1181.17
1180.079
1178.942
1177.759
1176.53
1182.441
1181.405
1180.323
1179.196
1178.022
1183.603
1182.619
1181.589
1180.514
1179.394
1184.649
1183.713
1182.732
1181.706
1180.636
1185.583
1184.692
1183.757
1182.778
1181.754
1186.411
1185.563
1184.671
1183.736
1182.756
1187.139
1186.332
1185.482
1184.588
1183.65
1187.772
1187.005
1186.194
1185.34
1184.442
1188.321
1187.591
1186.819
1186.004
1185.145
1188.801
1188.109
1187.374
1186.597
1185.776
1189.25
1188.594
1187.898
1187.159
1186.377
1189.716
1189.098
1188.44
1187.74
1186.998
1190.198
1189.619
1189
1188.339
1187.637
1190.68
1190.139
1189.559
1188.939
1188.277
1191.15
1190.648
1190.107
1189.526
1188.905
1175.799
1174.488
1173.131
1171.73
1170.287
1177.084
1175.824
1174.515
1173.161
1171.763
1178.357
1177.148
1175.892
1174.588
1173.239
1179.628
1178.473
1177.271
1176.021
1174.724
1180.91
1179.811
1178.664
1177.47
1176.229
1182.195
1181.151
1180.06
1178.923
1177.739
1183.411
1182.421
1181.384
1180.302
1179.174
1184.522
1183.582
1182.597
1181.567
1180.491
1185.521
1184.629
1183.692
1182.71
1181.684
1186.411
1185.563
1184.671
1183.736
1182.756
1187.197
1186.391
1185.543
1184.651
1183.715
1187.885
1187.12
1186.312
1185.462
1184.567
1188.481
1187.755
1186.986
1186.175
1185.321
1188.993
1188.304
1187.574
1186.801
1185.985
1189.437
1188.786
1188.093
1187.358
1186.58
1189.85
1189.236
1188.58
1187.883
1187.144
1190.28
1189.703
1189.085
1188.427
1187.726
1190.725
1190.185
1189.606
1188.987
1188.326
1191.169
1190.668
1190.127
1189.547
1188.926
1191.602
1191.138
1190.636
1190.094
1189.513
1177.05
1175.788
1174.478
1173.122
1171.722
1178.284
1177.072
1175.812
1174.504
1173.151
1179.503
1178.343
1177.135
1175.879
1174.576
1180.72
1179.613
1178.459
1177.256
1176.006
1181.946
1180.894
1179.794
1178.647
1177.453
1183.175
1182.177
1181.132
1180.041
1178.903
1184.337
1183.391
1182.4
1181.363
1180.28
1185.399
1184.502
1183.562
1182.576
1181.545
1186.351
1185.501
1184.608
1183.671
1182.688
1187.197
1186.391
1185.543
1184.651
1183.715
1187.942
1187.178
1186.372
1185.523
1184.63
1188.591
1187.867
1187.101
1186.293
1185.442
1189.149
1188.464
1187.737
1186.968
1186.156
1189.625
1188.976
1188.287
1187.556
1186.783
1190.034
1189.422
1188.77
1188.077
1187.342
1190.412
1189.837
1189.222
1188.566
1187.868
1190.806
1190.267
1189.69
1189.072
1188.413
1191.213
1190.713
1190.173
1189.593
1188.973
1191.621
1191.157
1190.656
1190.115
1189.534
1192.016
1191.59
1191.126
1190.624
1190.082
1178.251
1177.038
1175.776
1174.467
1173.112
1179.434
1178.271
1177.059
1175.799
1174.493
1180.601
1179.489
1178.33
1177.122
1175.866
1181.763
1180.705
1179.598
1178.444
1177.242
1182.935
1181.93
1180.878
1179.778
1178.631
1184.109
1183.157
1182.158
1181.113
1180.022
1185.219
1184.318
1183.372
1182.38
1181.343
1186.232
1185.379
1184.482
1183.541
1182.555
1187.139
1186.332
1185.482
1184.588
1183.65
1187.942
1187.178
1186.372
1185.523
1184.63
1188.646
1187.924
1187.159
1186.353
1185.503
1189.256
1188.573
1187.849
1187.083
1186.274
1189.777
1189.132
1188.446
1187.719
1186.95
1190.217
1189.609
1188.96
1188.27
1187.539
1190.592
1190.019
1189.407
1188.755
1188.061
1190.935
1190.399
1189.823
1189.208
1188.551
1191.293
1190.793
1190.255
1189.677
1189.058
1191.664
1191.202
1190.7
1190.16
1189.58
1192.035
1191.609
1191.146
1190.643
1190.102
1192.393
1192.005
1191.578
1191.114
1190.611
1179.403
1178.238
1177.025
1175.764
1174.456
1180.534
1179.42
1178.257
1177.046
1175.787
1181.649
1180.586
1179.475
1178.316
1177.108
1182.76
1181.749
1180.69
1179.583
1178.429
1183.878
1182.919
1181.914
1180.861
1179.761
1184.999
1184.091
1183.138
1182.14
1181.094
1186.058
1185.201
1184.299
1183.352
1182.36
1187.023
1186.213
1185.36
1184.462
1183.52
1187.885
1187.12
1186.312
1185.462
1184.567
1188.646
1187.924
1187.159
1186.353
1185.503
1189.31
1188.628
1187.905
1187.141
1186.333
1189.882
1189.239
1188.556
1187.831
1187.064
1190.367
1189.761
1189.115
1188.429
1187.701
1190.771
1190.202
1189.593
1188.944
1188.254
1191.111
1190.577
1190.005
1189.392
1188.739
1191.419
1190.922
1190.385
1189.809
1189.193
1191.742
1191.28
1190.781
1190.242
1189.663
1192.077
1191.652
1191.19
1190.688
1190.148
1192.412
1192.023
1191.598
1191.134
1190.631
1192.735
1192.382
1191.993
1191.567
1191.102
1180.504
1179.389
1178.225
1177.012
1175.752
1181.585
1180.52
1179.406
1178.244
1177.033
1182.65
1181.635
1180.572
1179.461
1178.302
1183.709
1182.745
1181.734
1180.675
1179.568
1184.776
1183.863
1182.903
1181.897
1180.844
1185.844
1184.981
1184.074
1183.12
1182.121
1186.854
1186.04
1185.182
1184.28
1183.332
1187.772
1187.005
1186.194
1185.34
1184.442
1188.591
1187.867
1187.101
1186.293
1185.442
1189.31
1188.628
1187.905
1187.141
1186.333
1189.935
1189.293
1188.611
1187.887
1187.122
1190.469
1189.866
1189.222
1188.538
1187.813
1190.917
1190.351
1189.744
1189.098
1188.412
1191.286
1190.756
1190.186
1189.577
1188.927
1191.592
1191.097
1190.563
1189.99
1189.377
1191.866
1191.407
1190.909
1190.372
1189.796
1192.154
1191.73
1191.268
1190.768
1190.229
1192.454
1192.066
1191.641
1191.177
1190.676
1192.753
1192.401
1192.012
1191.586
1191.122
1193.04
1192.724
1192.371
1191.982
1191.555
1181.557
1180.491
1179.376
1178.212
1177
1182.588
1181.571
1180.506
1179.392
1178.23
1183.603
1182.636
1181.621
1180.558
1179.447
1184.612
1183.694
1182.73
1181.719
1180.66
1185.629
1184.76
1183.847
1182.887
1181.881
1186.647
1185.827
1184.964
1184.056
1183.102
1187.608
1186.836
1186.022
1185.163
1184.26
1188.481
1187.755
1186.986
1186.175
1185.321
1189.256
1188.573
1187.849
1187.083
1186.274
1189.935
1189.293
1188.611
1187.887
1187.122
1190.521
1189.919
1189.276
1188.593
1187.869
1191.018
1190.453
1189.849
1189.205
1188.52
1191.43
1190.902
1190.335
1189.728
1189.082
1191.764
1191.272
1190.741
1190.171
1189.561
1192.036
1191.578
1191.083
1190.549
1189.975
1192.276
1191.854
1191.394
1190.895
1190.358
1192.529
1192.142
1191.718
1191.256
1190.755
1192.794
1192.443
1192.055
1191.629
1191.165
1193.058
1192.742
1192.39
1192.001
1191.574
1193.309
1193.029
1192.713
1192.36
1191.97
1182.561
1181.543
1180.477
1179.362
1178.198
1183.544
1182.574
1181.557
1180.492
1179.378
1184.51
1183.589
1182.621
1181.606
1180.543
1185.47
1184.598
1183.68
1182.715
1181.703
1186.438
1185.613
1184.745
1183.831
1182.871
1187.406
1186.63
1185.81
1184.947
1184.038
1188.321
1187.591
1186.819
1186.004
1185.145
1189.149
1188.464
1187.737
1186.968
1186.156
1189.882
1189.239
1188.556
1187.831
1187.064
1190.521
1189.919
1189.276
1188.593
1187.869
1191.069
1190.505
1189.902
1189.259
1188.575
1191.529
1191.002
1190.437
1189.832
1189.188
1191.906
1191.415
1190.886
1190.319
1189.712
1192.205
1191.75
1191.257
1190.725
1190.155
1192.443
1192.023
1191.565
1191.069
1190.534
1192.649
1192.264
1191.841
1191.381
1190.882
1192.868
1192.518
1192.13
1191.706
1191.243
1193.098
1192.783
1192.431
1192.043
1191.617
1193.327
1193.047
1192.731
1192.378
1191.989
1193.543
1193.298
1193.018
1192.702
1192.349
1183.517
1182.547
1181.529
1180.463
1179.348
1184.453
1183.53
1182.56
1181.543
1180.478
1185.371
1184.496
1183.575
1182.607
1181.591
1186.284
1185.456
1184.583
1183.665
1182.7
1187.203
1186.423
1185.598
1184.729
1183.814
1188.124
1187.39
1186.614
1185.793
1184.929
1188.993
1188.304
1187.574
1186.801
1185.985
1189.777
1189.132
1188.446
1187.719
1186.95
1190.469
1189.866
1189.222
1188.538
1187.813
1191.069
1190.505
1189.902
1189.259
1188.575
1191.579
1191.053
1190.489
1189.885
1189.242
1192.003
1191.514
1190.987
1190.421
1189.816
1192.344
1191.891
1191.4
1190.871
1190.303
1192.61
1192.191
1191.736
1191.242
1190.71
1192.814
1192.43
1192.009
1191.551
1191.055
1192.987
1192.638
1192.252
1191.829
1191.368
1193.171
1192.857
1192.506
1192.119
1191.694
1193.367
1193.088
1192.772
1192.42
1192.031
1193.561
1193.316
1193.036
1192.72
1192.367
1193.742
1193.533
1193.288
1193.007
1192.691
1184.427
1183.504
1182.533
1181.515
1180.449
1185.316
1184.439
1183.516
1182.546
1181.529
1186.188
1185.357
1184.482
1183.56
1182.592
1187.054
1186.27
1185.442
1184.568
1183.649
1187.927
1187.189
1186.407
1185.582
1184.713
1188.801
1188.109
1187.374
1186.597
1185.776
1189.625
1188.976
1188.287
1187.556
1186.783
1190.367
1189.761
1189.115
1188.429
1187.701
1191.018
1190.453
1189.849
1189.205
1188.52
1191.579
1191.053
1190.489
1189.885
1189.242
1192.052
1191.564
1191.037
1190.472
1189.868
1192.44
1191.988
1191.498
1190.971
1190.405
1192.747
1192.33
1191.876
1191.385
1190.855
1192.978
1192.596
1192.177
1191.721
1191.227
1193.149
1192.801
1192.417
1191.996
1191.537
1193.288
1192.975
1192.626
1192.239
1191.816
1193.439
1193.16
1192.846
1192.495
1192.107
1193.6
1193.356
1193.077
1192.761
1192.409
1193.76
1193.55
1193.306
1193.025
1192.709
1193.907
1193.732
1193.523
1193.277
1192.997
1185.291
1184.414
1183.49
1182.519
1181.501
1186.134
1185.302
1184.425
1183.502
1182.532
1186.961
1186.174
1185.343
1184.467
1183.546
1187.782
1187.04
1186.256
1185.427
1184.553
1188.609
1187.912
1187.174
1186.392
1185.567
1189.437
1188.786
1188.093
1187.358
1186.58
1190.217
1189.609
1188.96
1188.27
1187.539
1190.917
1190.351
1189.744
1189.098
1188.412
1191.529
1191.002
1190.437
1189.832
1189.188
1192.052
1191.564
1191.037
1190.472
1189.868
1192.489
1192.037
1191.548
1191.022
1190.456
1192.841
1192.426
1191.973
1191.483
1190.955
1193.113
1192.733
1192.316
1191.861
1191.37
1193.311
1192.965
1192.582
1192.163
1191.707
1193.448
1193.136
1192.788
1192.404
1191.982
1193.554
1193.277
1192.963
1192.613
1192.227
1193.672
1193.428
1193.149
1192.834
1192.483
1193.799
1193.59
1193.346
1193.066
1192.75
1193.924
1193.75
1193.54
1193.295
1193.014
1194.038
1193.897
1193.722
1193.512
1193.267
1186.111
1185.278
1184.4
1183.476
1182.505
1186.909
1186.121
1185.288
1184.411
1183.487
1187.691
1186.947
1186.16
1185.329
1184.453
1188.467
1187.768
1187.026
1186.241
1185.412
1189.25
1188.594
1187.898
1187.159
1186.377
1190.034
1189.422
1188.77
1188.077
1187.342
1190.771
1190.202
1189.593
1188.944
1188.254
1191.43
1190.902
1190.335
1189.728
1189.082
1192.003
1191.514
1190.987
1190.421
1189.816
1192.489
1192.037
1191.548
1191.022
1190.456
1192.889
1192.474
1192.022
1191.533
1191.006
1193.206
1192.827
1192.411
1191.958
1191.468
1193.444
1193.099
1192.719
1192.301
1191.847
1193.608
1193.298
1192.951
1192.569
1192.149
1193.712
1193.436
1193.124
1192.775
1192.391
1193.786
1193.543
1193.265
1192.951
1192.601
1193.87
1193.661
1193.417
1193.138
1192.823
1193.963
1193.789
1193.58
1193.335
1193.055
1194.055
1193.914
1193.74
1193.53
1193.284
1194.134
1194.028
1193.887
1193.712
1193.502
1186.886
1186.097
1185.264
1184.386
1183.461
1187.64
1186.895
1186.107
1185.274
1184.397
1188.379
1187.678
1186.934
1186.147
1185.315
1189.112
1188.454
1187.754
1187.012
1186.227
1189.85
1189.236
1188.58
1187.883
1187.144
1190.592
1190.019
1189.407
1188.755
1188.061
1191.286
1190.756
1190.186
1189.577
1188.927
1191.906
1191.415
1190.886
1190.319
1189.712
1192.44
1191.988
1191.498
1190.971
1190.405
1192.889
1192.474
1192.022
1191.533
1191.006
1193.253
1192.874
1192.459
1192.007
1191.517
1193.536
1193.192
1192.813
1192.396
1191.943
1193.74
1193.43
1193.085
1192.704
1192.287
1193.87
1193.595
1193.284
1192.938
1192.555
1193.942
1193.7
1193.424
1193.111
1192.763
1193.982
1193.775
1193.532
1193.254
1192.939
1194.033
1193.859
1193.65
1193.406
1193.127
1194.093
1193.953
1193.779
1193.569
1193.324
1194.151
1194.045
1193.904
1193.729
1193.519
1194.198
1194.125
1194.018
1193.877
1193.702
1187.618
1186.872
1186.083
1185.25
1184.372
1188.329
1187.627
1186.882
1186.093
1185.26
1189.025
1188.366
1187.664
1186.92
1186.132
1189.716
1189.098
1188.44
1187.74
1186.998
1190.412
1189.837
1189.222
1188.566
1187.868
1191.111
1190.577
1190.005
1189.392
1188.739
1191.764
1191.272
1190.741
1190.171
1189.561
1192.344
1191.891
1191.4
1190.871
1190.303
1192.841
1192.426
1191.973
1191.483
1190.955
1193.253
1192.874
1192.459
1192.007
1191.517
1193.582
1193.239
1192.86
1192.445
1191.992
1193.831
1193.522
1193.178
1192.798
1192.382
1194.001
1193.726
1193.417
1193.072
1192.69
1194.098
1193.858
1193.582
1193.271
1192.924
1194.137
1193.93
1193.688
1193.411
1193.098
1194.145
1193.972
1193.764
1193.521
1193.242
1194.163
1194.023
1193.849
1193.64
1193.395
1194.19
1194.084
1193.943
1193.768
1193.558
1194.215
1194.142
1194.035
1193.894
1193.719
1194.228
1194.188
1194.115
1194.009
1193.867
1188.307
1187.605
1186.859
1186.07
1185.236
1188.977
1188.316
1187.614
1186.868
1186.08
1189.631
1189.013
1188.353
1187.651
1186.906
1190.28
1189.703
1189.085
1188.427
1187.726
1190.935
1190.399
1189.823
1189.208
1188.551
1191.592
1191.097
1190.563
1189.99
1189.377
1192.205
1191.75
1191.257
1190.725
1190.155
1192.747
1192.33
1191.876
1191.385
1190.855
1193.206
1192.827
1192.411
1191.958
1191.468
1193.582
1193.239
1192.86
1192.445
1191.992
1193.877
1193.569
1193.225
1192.846
1192.43
1194.091
1193.817
1193.509
1193.164
1192.784
1194.227
1193.988
1193.713
1193.404
1193.058
1194.292
1194.086
1193.845
1193.569
1193.258
1194.298
1194.125
1193.918
1193.676
1193.399
1194.274
1194.134
1193.961
1193.752
1193.509
1194.258
1194.153
1194.013
1193.838
1193.629
1194.253
1194.18
1194.074
1193.933
1193.758
1194.245
1194.205
1194.132
1194.025
1193.884
1194.219
1194.179
1194.106
1193.999
1188.956
1188.295
1187.591
1186.845
1186.056
1189.584
1188.964
1188.303
1187.6
1186.855
1190.198
1189.619
1189
1188.339
1187.637
1190.806
1190.267
1189.69
1189.072
1188.413
1191.419
1190.922
1190.385
1189.809
1189.193
1192.036
1191.578
1191.083
1190.549
1189.975
1192.61
1192.191
1191.736
1191.242
1190.71
1193.113
1192.733
1192.316
1191.861
1191.37
1193.536
1193.192
1192.813
1192.396
1191.943
1193.877
1193.569
1193.225
1192.846
1192.43
1194.136
1193.863
1193.555
1193.211
1192.831
1194.316
1194.077
1193.804
1193.495
1193.15
1194.42
1194.214
1193.975
1193.7
1193.39
1194.451
1194.28
1194.074
1193.833
1193.557
1194.425
1194.287
1194.114
1193.906
1193.664
1194.369
1194.263
1194.124
1193.95
1193.741
1194.321
1194.248
1194.143
1194.002
1193.828
1194.283
1194.243
1194.17
1194.064
1193.923
1194.236
1194.196
1194.122
1194.016
1194.21
1194.17
1194.096
1189.563
1188.943
1188.282
1187.578
1186.832
1190.152
1189.572
1188.952
1188.29
1187.587
1190.725
1190.185
1189.606
1188.987
1188.326
1191.293
1190.793
1190.255
1189.677
1189.058
1191.866
1191.407
1190.909
1190.372
1189.796
1192.443
1192.023
1191.565
1191.069
1190.534
1192.978
1192.596
1192.177
1191.721
1191.227
1193.444
1193.099
1192.719
1192.301
1191.847
1193.831
1193.522
1193.178
1192.798
1192.382
1194.136
1193.863
1193.555
1193.211
1192.831
1194.361
1194.123
1193.85
1193.541
1193.197
1194.508
1194.303
1194.064
1193.79
1193.481
1194.578
1194.407
1194.202
1193.962
1193.687
1194.578
1194.44
1194.268
1194.061
1193.82
1194.519
1194.414
1194.275
1194.102
1193.895
1194.431
1194.358
1194.253
1194.113
1193.939
1194.352
1194.312
1194.239
1194.132
1193.992
1194.274
1194.234
1194.16
1194.054
1194.227
1194.186
1194.113
1194.2
1194.16
1190.131
1189.551
1188.93
1188.269
1187.565
1190.68
1190.139
1189.559
1188.939
1188.277
1191.213
1190.713
1190.173
1189.593
1188.973
1191.742
1191.28
1190.781
1190.242
1189.663
1192.276
1191.854
1191.394
1190.895
1190.358
1192.814
1192.43
1192.009
1191.551
1191.055
1193.311
1192.965
1192.582
1192.163
1191.707
1193.74
1193.43
1193.085
1192.704
1192.287
1194.091
1193.817
1193.509
1193.164
1192.784
1194.361
1194.123
1193.85
1193.541
1193.197
1194.553
1194.348
1194.11
1193.836
1193.528
1194.666
1194.495
1194.291
1194.051
1193.777
1194.704
1194.566
1194.395
1194.189
1193.949
1194.671
1194.566
1194.428
1194.256
1194.049
1194.581
1194.508
1194.403
1194.264
1194.091
1194.461
1194.421
1194.348
1194.242
1194.102
1194.342
1194.302
1194.229
1194.122
1194.264
1194.224
1194.151
1194.217
1194.177
1194.191
1190.66
1190.119
1189.539
1188.918
1188.255
1191.169
1190.668
1190.127
1189.547
1188.926
1191.664
1191.202
1190.7
1190.16
1189.58
1192.154
1191.73
1191.268
1190.768
1190.229
1192.649
1192.264
1191.841
1191.381
1190.882
1193.149
1192.801
1192.417
1191.996
1191.537
1193.608
1193.298
1192.951
1192.569
1192.149
1194.001
1193.726
1193.417
1193.072
1192.69
1194.316
1194.077
1193.804
1193.495
1193.15
1194.553
1194.348
1194.11
1193.836
1193.528