/*--------------------------------*- C++ -*----------------------------------*\
| =========                 |                                                 |
| \\      /  F ield         | OpenFOAM: The Open Source CFD Toolbox           |
|  \\    /   O peration     | Version:  2306                                  |
|   \\  /    A nd           | Website:  www.openfoam.com                      |
|    \\/     M anipulation  |                                                 |
\*---------------------------------------------------------------------------*/
FoamFile
{
    version     2.0;
    format      ascii;
    arch        "LSB;label=32;scalar=64";
    class       volVectorField;
    location    "0.6/phiEC";
    object      i;
}
// * * * * * * * * * * * * * * * * * * * * * * * * * * * * * * * * * * * * * //

dimensions      [0 -2 0 0 0 1 0];

internalField   nonuniform List<vector> 
20000
(
(37.83186 82.41765 17855.48)
(37.42376 241.0192 17678.1)
(90.27778 78.33666 17086.04)
(116.0567 272.3513 18595.8)
(36.63797 380.509 17334.98)
(89.34408 229.0803 16917.48)
(114.6991 799.9819 18371.45)
(104.3402 73.0806 16023.57)
(276.1035 258.7759 17771.98)
(202.5943 531.1156 20266.46)
(35.53765 487.28 16851.26)
(87.54662 361.6479 16591.46)
(112.0667 1273.157 17927.12)
(103.3206 213.7075 15866.35)
(273.005 760.0821 17558.98)
(199.9179 1578.365 19977.2)
(97.99098 68.14096 14974.76)
(317.9153 241.3661 16651.92)
(479.0527 504.3517 19321.81)
(304.9867 850.8798 23131.97)
(34.22081 548.1326 16268.1)
(85.03043 463.1085 16131.86)
(108.3423 1646.481 17277.83)
(101.3584 337.3726 15562.25)
(266.9986 1209.588 17137.16)
(194.6313 2567.749 19370.76)
(97.0703 199.262 14828.17)
(314.5416 708.9331 16453.33)
(472.9681 1498.735 19047.45)
(300.6489 2591.389 22888.83)
(85.85216 63.87382 14044.18)
(297.8872 225.0393 15556.39)
(547.4586 470.2697 18073.67)
(714.6623 807.5018 21981.23)
(432.7422 1017.382 27016.04)
(32.81709 553.3888 15643.26)
(82.01997 520.927 15577.82)
(103.8357 1867.872 16462.41)
(98.61244 432.0136 15133.59)
(258.5049 1564.171 16520.83)
(186.9364 3416.705 18399.15)
(95.29861 314.5662 14544.64)
(308.0046 1128.155 16060.07)
(460.9573 2437.935 18472.36)
(291.7466 4429.251 22311)
(85.06173 186.7838 13906.77)
(294.8453 660.975 15371.25)
(540.8654 1397.41 17818.01)
(704.8423 2458.988 21750.81)
(427.5221 3220.294 27184.79)
(74.05836 60.2367 13241.98)
(260.7044 210.9469 14588.69)
(510.6374 438.4197 16873.47)
(807.5839 752.6795 20516.12)
(1002.222 965.1809 25574.88)
(553.0993 639.3823 29832.04)
(31.47365 500.9235 15045.33)
(78.81137 525.9171 14984.2)
(98.99573 1892.151 15561.99)
(95.3282 485.9419 14616.84)
(248.2321 1774.406 15746.94)
(177.3154 3979.796 17025.34)
(92.81978 402.807 14144.97)
(298.7656 1458.816 15485.52)
(443.4912 3243.546 17551.22)
(277.9279 6337.316 21163.19)
(83.54076 294.8673 13641)
(288.9523 1051.828 15004.64)
(527.8607 2272.981 17282.18)
(684.7137 4202.042 21203.42)
(416.1484 6019.033 27575.47)
(73.38189 176.148 13112.39)
(258.0942 619.5835 14415.14)
(504.707 1302.755 16635.17)
(796.9976 2291.902 20301.51)
(990.4325 3054.356 25734.56)
(549.9016 1909.471 30327.04)
(64.22266 57.10915 12549.88)
(224.8026 198.938 13755.92)
(445.9458 410.9658 15821.98)
(748.2239 701.6386 19137.79)
(1116.146 899.4839 23813.53)
(1266.928 607.4049 28156.07)
(640.4589 396.3786 30987.16)
(30.33088 397.1552 14538.31)
(75.7405 476.0614 14416.13)
(94.36545 1708.977 14706.85)
(91.82847 490.5941 14063.19)
(237.2022 1797.448 14892.45)
(166.7269 4064.516 15326.44)
(89.85546 453.0873 13663.19)
(287.5978 1654.846 14764.14)
(421.6741 3777.7 16249.14)
(259.0757 8013.288 18919.67)
(81.41285 377.5821 13266.36)
(280.6258 1360.104 14469.04)
(508.9703 3023.873 16424.05)
(653.5249 6010.607 20116.55)
(396.264 10199.37 28351.95)
(72.08021 278.0774 12861.75)
(253.0381 985.9604 14071.49)
(493.014 2118.983 16135.73)
(775.3297 3916.078 19791.77)
(964.8046 5706.452 26104.51)
(543.4911 3075.947 31475.23)
(63.63708 167.0024 12427.02)
(222.5691 584.3122 13592.25)
(440.8619 1221.177 15598.6)
(738.7265 2136.446 18937.77)
(1103.473 2846.117 23962.15)
(1259.635 1813.388 28624.18)
(638.6014 1140.16 31424)
(56.35092 54.38091 11946.21)
(194.9317 188.6118 13037.78)
(384.2397 387.5797 14919.97)
(651.4039 657.7055 17942.81)
(1025.298 838.4536 22194.85)
(1391.728 566.4515 26170.79)
(1456.582 377.8039 29174.91)
(734.3238 202.5361 31723.55)
(29.5033 254.3239 14172.5)
(73.12795 377.4518 13934.42)
(90.44645 1348.506 13997.64)
(88.47889 444.0893 13533.38)
(226.6494 1623.484 14080.86)
(156.6701 3629.637 13809.65)
(86.69694 457.424 13147)
(275.6107 1676.324 13967.67)
(397.6771 3858.063 14639.26)
(236.4313 8323.535 14389.95)
(78.86834 424.7136 12814.74)
(270.5638 1542.857 13796.57)
(485.4008 3521.655 15211.2)
(611.0604 7598.321 17992.99)
(362.6514 17526.27 29995.84)
(70.25915 356.0829 12508.43)
(245.8948 1274.931 13569.43)
(476.0381 2818.947 15335.91)
(741.8275 5600.783 18779.88)
(920.1536 9664.401 26840.3)
(534.2601 3672.265 33679.43)
(62.51029 263.6399 12189.38)
(218.2426 929.834 13268.15)
(430.8391 1986.291 15130.44)
(719.3008 3650.341 18462.71)
(1076.002 5316.244 24306.6)
(1245.066 2919.532 29710.59)
(635.0608 1685.614 32326.91)
(55.83679 159.0244 11829.21)
(192.9983 553.9831 12882.6)
(379.8902 1151.688 14709.29)
(643.2696 2002.671 17755.31)
(1013.947 2652.916 22333.32)
(1383.802 1690.845 26606.35)
(1452.236 1086.179 29586.82)
(733.62 569.7178 32073.28)
(50.05579 51.96787 11412.89)
(171.0462 179.6036 12411.36)
(333.1352 367.471 14142.74)
(560.6506 620.2961 16921.74)
(889.1562 785.9656 20806.69)
(1268.519 528.1442 24377.57)
(1585.856 352.913 27081.93)
(1657.452 195.4984 29784.66)
(834.3477 46.65445 32129.61)
(29.06969 87.46344 13981.35)
(71.23562 241.712 13586.86)
(87.62506 859.5927 13497.26)
(85.62872 352.1064 13084.1)
(217.7148 1281.102 13407.71)
(148.3166 2816.324 12645.23)
(83.67391 414.064 12653.04)
(264.1407 1514.102 13211.17)
(374.8766 3445.534 13201.64)
(215.9667 7071.396 11527.25)
(76.15723 428.7785 12330.88)
(259.7652 1562.878 13054.12)
(459.4945 3596.542 13711.79)
(560.1316 7892.445 13706.67)
(303.3828 18849.35 6812.727)
(68.08158 400.5311 12082.53)
(237.2634 1446.239 12939.07)
(454.8689 3282.942 14205.52)
(696.3214 7079.355 16803.18)
(844.9726 16597.46 28398.37)
(524.5905 1866.406 37773.97)
(60.9339 337.5958 11854.41)
(212.1303 1202.357 12794.65)
(416.2907 2642.422 14380.7)
(689.2958 5220.525 17519.74)
(1028.334 9001.05 24991.92)
(1224.187 3483.259 31797.24)
(630.4819 1724.928 33697.72)
(54.84749 251.0456 11602.93)
(189.253 881.5723 12575.31)
(371.3157 1873.272 14267.74)
(626.6362 3421.771 17309.98)
(989.3702 4955.057 22654.28)
(1368.031 2721.462 27617.46)
(1444.002 1604.419 30439.02)
(732.2805 802.2341 32729.57)
(49.59851 151.9681 11301.09)
(169.3486 527.525 12263.59)
(329.37 1091.937 13942.98)
(553.6931 1888.769 16744.89)
(879.4389 2486.834 20936.46)
(1261.385 1576.416 24783.35)
(1581 1014.359 27464.63)
(1655.572 549.285 30112.02)
(834.7273 134.145 32435.59)
(44.94972 49.80814 10936.18)
(151.9489 171.6357 11857.83)
(292.3404 349.9275 13464.69)
(485.9871 588.1301 16042.77)
(764.2481 741.2803 19625.23)
(1096.285 495.1137 22851.62)
(1438.29 329.2357 25216.1)
(1787.61 183.7425 27608.08)
(1868.13 50.45028 30069.43)
(940.3412 -103.4468 32250.29)
(29.06969 -87.46344 13981.35)
(70.24396 83.12727 13405.24)
(86.1532 294.8294 13239.81)
(83.56382 225.4841 12759.92)
(211.2803 816.6602 12932.72)
(142.4124 1769.978 11872.91)
(81.10139 328.3012 12234.15)
(254.4262 1194.816 12583.66)
(355.9236 2673.748 12097.71)
(199.9505 5221.974 9746.335)
(73.56241 388.1338 11867.85)
(249.432 1411.64 12348.91)
(434.8688 3212.101 12372.68)
(514.0426 6706.587 10996.48)
(262.8245 12916.87 4938.977)
(65.76146 404.3647 11626.21)
(228.0008 1465.005 12243.11)
(431.6086 3352.743 12808.1)
(641.8437 7353.357 12813.81)
(712.9067 17851.08 6477.97)
(59.04891 379.7368 11450.61)
(204.7448 1363.916 12200.15)
(398.1524 3077.361 13321.09)
(648.5857 6598.484 15677.75)
(948.4486 15453.8 26443.26)
(1202.426 1769.71 35674.35)
(626.5939 783.095 35239.59)
(53.46344 321.469 11283.96)
(183.9619 1139.953 12126.38)
(358.8703 2492.08 13560.62)
(600.9535 4893.633 16426.04)
(946.806 8388.869 23292.96)
(1345.555 3245.871 29559.99)
(1433.442 1640.258 31734.39)
(730.5929 759.583 33564.57)
(48.7186 239.9063 11084.85)
(166.0601 839.4701 11970.97)
(321.9473 1776.092 13524.32)
(539.4668 3227.18 16324.85)
(858.4108 4644.838 21237.29)
(1247.215 2537.055 25725.43)
(1571.861 1497.678 28256.81)
(1652.076 771.9623 30727.21)
(835.2961 194.324 32973.54)
(44.53857 145.6525 10829.03)
(150.4389 504.1224 11716.61)
(289.0342 1039.809 13274.46)
(479.964 1790.832 15875.08)
(755.9373 2345.461 19747.61)
(1090.168 1477.811 23231.94)
(1433.868 946.2229 25572.47)
(1785.238 515.9623 27911.15)
(1868.448 143.6288 30351.77)
(942.0027 -274.2112 32586.78)
(40.73006 47.85634 10505.85)
(136.4583 164.5039 11362.95)
(259.7377 334.4087 12865.31)
(426.5319 560.0651 15275.8)
(662.3231 702.8572 18609.09)
(941.1892 466.969 21556.38)
(1240.318 308.6936 23637.25)
(1612.986 171.78 25695.4)
(1994.782 49.83907 27828.52)
(2087.561 -86.83174 30073.68)
(1052.008 -289.8432 32056.23)
(29.5033 -254.3239 14172.5)
(70.24396 -83.12727 13405.24)
(86.1532 -294.8294 13239.81)
(82.48154 77.54688 12590.52)
(207.9227 280.1109 12688.31)
(139.3708 602.3666 11490.52)
(79.23743 210.2402 11931.9)
(247.4272 761.672 12140.85)
(342.5178 1680.52 11365.34)
(189.1388 3169.006 8709.144)
(71.35423 307.7417 11475.2)
(240.6787 1113.966 11763.95)
(414.3803 2492.736 11344.26)
(477.9094 4953.695 9309.699)
(235.6437 8452.544 3889.988)
(63.54087 366.0339 11189.54)
(219.1371 1323.238 11582.07)
(409.4936 2994.393 11560.03)
(592.4628 6249.173 10290.78)
(622.1713 12239.48 4704.688)
(57.04051 383.3714 11017.98)
(196.8193 1381.614 11543.78)
(378.2248 3142.789 12011.16)
(599.8911 6853.86 11960.38)
(808.7522 16621.33 6048.852)
(51.80843 361.5972 10899.44)
(177.5686 1293.129 11562.71)
(343.3545 2902.283 12561.23)
(566.1218 6185.308 14699.37)
(875.6302 14401.65 24645.61)
(1322.267 1648.803 33169.73)
(1424.549 744.2148 33192.88)
(729.2615 324.5306 34267.55)
(47.48758 307.2051 10780.02)
(161.4143 1085.513 11543.46)
(311.1736 2362.81 12853.84)
(517.5026 4615.38 15491.11)
(822.0167 7863.651 21835.93)
(1227.071 3025.617 27535.53)
(1560.245 1530.391 29461.65)
(1647.793 729.3926 31511.51)
(835.7874 186.9416 33583.96)
(43.74741 229.9363 10621.77)
(147.5139 802.2297 11436.97)
(282.5163 1691.308 12875.76)
(467.6483 3059.866 15476.79)
(737.9549 4380.835 20031.32)
(1078.025 2378.325 24114.94)
(1425.57 1396.873 26310.24)
(1780.909 724.4417 28481.13)
(1868.846 204.9247 30848.75)
(944.7596 -346.1306 33166.28)
(40.35711 139.9449 10402.89)
(135.1006 483.1753 11227.6)
(256.7966 993.6962 12683.51)
(421.2425 1705.381 15116.1)
(655.1281 2223.903 18725.13)
(935.9541 1393.809 21915.07)
(1236.51 887.1667 23971.2)
(1610.728 482.2768 25977.26)
(1994.475 141.31 28088.1)
(2090.322 -230.0267 30378.66)
(1055.539 -781.8544 32517.05)
(37.17829 46.07864 10114.26)
(123.6553 158.0584 10916.13)
(233.2903 320.5172 12329.21)
(379.0443 535.2364 14597.46)
(581.4021 669.3301 17722.17)
(815.53 442.7625 20442.99)
(1064.091 291.1538 22299.55)
(1387.941 161.1576 24086.51)
(1790.446 47.37409 25889.8)
(2205.573 -75.83857 27786.35)
(2314.523 -254.526 29774.07)
(1168.558 -564.2683 31424.18)
(30.33088 -397.1552 14538.31)
(71.23562 -241.712 13586.86)
(87.62506 -859.5927 13497.26)
(82.48154 -77.54688 12590.52)
(207.9227 -280.1109 12688.31)
(139.3708 -602.3666 11490.52)
(78.26039 72.30445 11773.96)
(243.7738 261.2535 11912.99)
(335.6079 571.9497 11002.68)
(183.7218 1059.606 8231.196)
(69.75419 197.0741 11191.88)
(234.3709 710.1362 11351.16)
(399.8757 1566.821 10661.9)
(453.4819 3006.719 8326.987)
(218.8438 4800.255 3323.692)
(61.65113 290.2189 10819.24)
(211.6283 1044.205 11033.74)
(391.0861 2323.816 10601.5)
(553.6692 4616.368 8720.151)
(561.1603 8012.737 3711.522)
(55.11827 347.0305 10603.97)
(189.2352 1247.915 10920.34)
(359.2769 2806.876 10841.25)
(555.7187 5824.842 9609.253)
(712.3146 11399.41 4398.333)
(50.04506 365.0583 10487.47)
(170.7079 1309.909 10940.37)
(326.3086 2963.989 11325.75)
(524.4709 6424.686 11214.73)
(751.4232 15489.74 5643.427)
(46.01555 345.553 10412.56)
(155.8008 1231.376 11006.69)
(297.742 2751.745 11906.23)
(487.7171 5833.657 13862.49)
(761.2054 13499.98 23103.86)
(1206.256 1536.834 30899.39)
(1550.55 694.1589 30818.89)
(1644.497 311.2169 32173.18)
(836.0306 80.10805 34019.44)
(42.64055 294.4385 10329.61)
(143.3816 1037.359 11028.41)
(273.0557 2250.027 12237.26)
(448.6339 4376.136 14686.2)
(706.8375 7416.815 20595.91)
(1060.777 2836.275 25811.63)
(1415.064 1427.153 27432.6)
(1775.734 683.7906 29208.49)
(1869.05 194.2868 31413.75)
(947.613 -286.3223 33799.98)
(39.63946 220.9261 10203.76)
(132.4705 768.8966 10959.57)
(250.9986 1616.307 12302.48)
(410.4269 2913.879 14736.79)
(639.5601 4153.841 18994.12)
(925.5644 2243.147 22747.87)
(1229.371 1309.645 24662.63)
(1606.633 676.924 26507.48)
(1993.834 200.3354 28545.33)
(2094.897 -290.0272 30904.04)
(1061.521 -1018.874 33327.46)
(36.83758 134.7465 10015.12)
(122.4236 464.2443 10786.08)
(230.6456 952.4185 12154.96)
(374.3388 1629.782 14444.83)
(575.083 2117.831 17832.66)
(810.9971 1321.564 20783.09)
(1060.827 836.7576 22614.5)
(1385.965 452.4303 24350.56)
(1789.927 134.142 26130.63)
(2207.351 -200.8484 28064.33)
(2320.693 -686.7267 30186.22)
(1175.086 -1545.44 32121.04)
(34.1398 44.44924 9755.574)
(112.8772 152.1878 10509.47)
(211.4259 307.9619 11845.02)
(340.5177 513.0093 13990.41)
(516.8149 639.6668 16937.28)
(716.0219 421.6398 19470.91)
(921.9394 276.059 21149.99)
(1189.915 152.0178 22725.88)
(1537.27 44.64913 24269.25)
(1968.913 -69.049 25840.19)
(2418.132 -228.1414 27462.79)
(2546.905 -498.9824 29062.59)
(1288.167 -986.7105 30118.87)
(31.47365 -500.9235 15045.33)
(73.12795 -377.4518 13934.42)
(90.44645 -1348.506 13997.64)
(83.56382 -225.4841 12759.92)
(211.2803 -816.6602 12932.72)
(142.4124 -1769.978 11872.91)
(78.26039 -72.30445 11773.96)
(243.7738 -261.2535 11912.99)
(335.6079 -571.9497 11002.68)
(183.7218 -1059.606 8231.196)
(68.91546 67.77645 11043.83)
(231.0779 243.5776 11138.74)
(392.3947 533.267 10323.98)
(441.2312 1005.436 7874.04)
(210.802 1558.262 3074.364)
(60.28183 185.8525 10552.05)
(206.2169 665.6645 10646.79)
(378.0492 1460.664 9965.494)
(527.397 2802.224 7804.951)
(523.3565 4551.839 3175.167)
(53.48243 275.1513 10252.89)
(182.8103 984.7642 10403.21)
(343.5033 2178.292 9942.736)
(520.983 4303.037 8145.552)
(647.2097 7464.396 3473.734)
(48.35735 330.4532 10093.23)
(164.1427 1183.147 10349.27)
(310.1007 2647.178 10222.32)
(486.6782 5460.093 9010.806)
(665.4886 10624.06 4105.429)
(44.44715 348.8606 10018.87)
(149.7767 1247.355 10414.05)
(282.9858 2810.25 10734.75)
(452.1028 6059.424 10575.7)
(655.1622 14519.92 5291.191)
(41.31699 331.1929 9977.42)
(138.3884 1176.753 10515.45)
(261.2609 2620.405 11334.83)
(422.8483 5531.309 13141.88)
(654.8529 12733.1 21791.75)
(1042.972 1440.647 28964.82)
(1406.33 647.2678 28697.14)
(1771.841 291.5688 29822.76)
(1869.028 82.54065 31817.72)
(949.4337 -110.9562 34228.84)
(38.63543 282.9009 9923.045)
(128.7548 994.2576 10567.98)
(242.5827 2150.256 11692.27)
(393.728 4167.381 13983.87)
(612.6205 7032.631 19529.43)
(910.8113 2675.088 24348.12)
(1220.345 1337.986 25714.55)
(1601.781 638.7146 27184.36)
(1992.96 188.7555 29065.64)
(2099.624 -239.5819 31478.82)
(1067.904 -875.6115 34244.06)
(36.18197 212.7195 9823.381)
(120.0378 738.7713 10528.55)
(225.4318 1549.17 11789.75)
(364.7167 2784.721 14082.32)
(561.41 3955.759 18088.82)
(802.0013 2126.898 21572.74)
(1054.712 1235.23 23266.59)
(1382.39 634.9757 24847.3)
(1788.953 189.7763 26554.93)
(2210.29 -253.1058 28543.31)
(2331.144 -895.233 30910.92)
(1186.414 -2073.135 33406.61)
(33.82673 129.9817 9659.946)
(111.752 447.0012 10384.25)
(209.0267 915.1111 11677.59)
(336.286 1562.104 13844.12)
(511.1929 2023.982 17042.87)
(712.0409 1258.522 19794.79)
(919.1127 793.3791 21448.62)
(1188.213 426.7677 22974.88)
(1536.748 126.3792 24494.7)
(1970.067 -182.8532 26097.31)
(2422.61 -615.6475 27836.1)
(2558.417 -1366.88 29681.41)
(1299.503 -2764.289 31160.73)
(31.50444 42.94798 9425.279)
(103.6555 146.8067 10136.95)
(193.0145 296.5256 11404.22)
(308.6551 492.9188 13441.89)
(464.4056 613.1099 16234.46)
(636.6435 402.9522 18610.27)
(809.5482 262.8864 20146.07)
(1030.878 144.134 21556.9)
(1317.052 42.15469 22901.3)
(1686.791 -64.29346 24224.01)
(2146.68 -209.7456 25530.16)
(2629.963 -449.1412 26762.15)
(2780.726 -873.3513 27731.67)
(1407.277 -1606.129 27795.57)
(32.81709 -553.3888 15643.26)
(75.7405 -476.0614 14416.13)
(94.36545 -1708.977 14706.85)
(85.62872 -352.1064 13084.1)
(217.7148 -1281.102 13407.71)
(148.3166 -2816.324 12645.23)
(79.23743 -210.2402 11931.9)
(247.4272 -761.672 12140.85)
(342.5178 -1680.52 11365.34)
(189.1388 -3169.006 8709.144)
(68.91546 -67.77645 11043.83)
(231.0779 -243.5776 11138.74)
(392.3947 -533.267 10323.98)
(441.2312 -1005.436 7874.04)
(210.802 -1558.262 3074.364)
(59.56405 63.91717 10412.42)
(203.3917 228.3237 10447.68)
(371.3232 497.1398 9650.52)
(514.2059 937.0984 7383.072)
(505.2327 1477.844 2938.963)
(52.29711 176.2032 9999.568)
(178.1799 627.7706 10038.28)
(332.3301 1369.191 9346.561)
(497.4394 2612.087 7292.621)
(606.7489 4240.979 2974.319)
(46.9211 262.0074 9758.919)
(158.581 933.6525 9858.954)
(296.6074 2054.348 9374.891)
(456.9493 4033.576 7638.754)
(607.3656 6957.08 3243.819)
(42.94603 315.7908 9642.122)
(144.0122 1126.645 9851.159)
(268.955 2509.864 9688.494)
(419.7857 5149.625 8496.945)
(581.7386 9958.833 3849.483)
(39.90677 334.3631 9600.083)
(133.03 1192.023 9949.082)
(248.3028 2676.118 10219.2)
(392.0167 5745.373 10025.19)
(564.2171 13695.07 4989.971)
(37.43484 318.2152 9584.655)
(124.2649 1127.86 10076.32)
(232.0903 2504.216 10829.82)
(371.0817 5267.485 12513.12)
(567.615 12073.77 20663.3)
(895.5853 1358.781 27322.15)
(1212.852 606.8135 26899.83)
(1598.162 272.2874 27756.2)
(1992.249 79.891 29438.06)
(2102.635 -92.74969 31868)
(1072.114 -348.7487 34890.7)
(35.26473 272.3923 9553.096)
(116.6672 955.3035 10152.3)
(217.8638 2060.943 11204.86)
(349.8601 3982.685 13362.74)
(537.7483 6697.364 18598.59)
(789.2279 2536.483 23090.08)
(1046.983 1261.96 24258.7)
(1378.167 599.078 25481.51)
(1787.762 178.4392 27037.95)
(2213.314 -208.9472 29067.49)
(2342.299 -769.6765 31730.38)
(1198.981 -1849.56 34983.23)
(33.22431 205.1976 9474.985)
(109.5724 711.3322 10136.28)
(204.2969 1488.489 11326.67)
(327.6326 2669.092 13496.64)
(499.0276 3780.494 17287.67)
(704.1402 2025.455 20546.78)
(913.8161 1171.202 22066.92)
(1185.136 598.9507 23443.33)
(1535.787 178.69 24891.94)
(1971.972 -230.3947 26540.39)
(2430.198 -802.8208 28492.51)
(2578.392 -1834.189 30823.06)
(1319.875 -3881.056 33220.55)
(31.2154 125.5916 9332.88)
(102.6216 431.1963 10016.15)
(190.8226 881.1285 11243)
(304.8159 1500.931 13301.32)
(459.3494 1939.958 16335.67)
(633.1017 1202.746 18919.79)
(807.0656 755.5246 20430.46)
(1029.401 404.6365 21793)
(1316.583 119.3095 23113.87)
(1687.641 -170.2593 24464.51)
(2149.909 -566.057 25874.69)
(2638.503 -1230.565 27320.86)
(2800.711 -2447.201 28652.99)
(1425.86 -4647.12 29207.53)
(29.1921 41.55881 9119.769)
(95.65657 141.8488 9793.881)
(177.2579 286.0427 11000.34)
(281.8134 474.6179 12942.34)
(421.04 589.1044 15599.08)
(572.2189 386.2223 17839.27)
(719.9215 251.2332 19256.92)
(905.3294 137.2523 20535.69)
(1140.958 39.96456 21726.25)
(1444.215 -60.55686 22862.21)
(1835.068 -195.8469 23935.73)
(2321.619 -413.577 24872.23)
(2837.168 -786.8575 25498.68)
(3008.923 -1420.305 25477.89)
(1519.935 -2398.671 46960.16)
(34.22081 -548.1326 16268.1)
(78.81137 -525.9171 14984.2)
(98.99573 -1892.151 15561.99)
(88.47889 -444.0893 13533.38)
(226.6494 -1623.484 14080.86)
(156.6701 -3629.637 13809.65)
(81.10139 -328.3012 12234.15)
(254.4262 -1194.816 12583.66)
(355.9236 -2673.748 12097.71)
(199.9505 -5221.974 9746.335)
(69.75419 -197.0741 11191.88)
(234.3709 -710.1362 11351.16)
(399.8757 -1566.821 10661.9)
(453.4819 -3006.719 8326.987)
(218.8438 -4800.255 3323.692)
(59.56405 -63.91717 10412.42)
(203.3917 -228.3237 10447.68)
(371.3232 -497.1398 9650.52)
(514.2059 -937.0984 7383.072)
(505.2327 -1477.844 2938.963)
(51.67577 60.59861 9867.194)
(175.7625 215.3258 9850.492)
(326.565 466.0069 9051.312)
(485.6118 873.5253 6899.436)
(587.3156 1377.024 2754.356)
(45.8804 167.7859 9517.697)
(154.5727 595.1867 9512.956)
(287.0492 1291.281 8812.613)
(436.7933 2448.512 6839.231)
(571.1931 3952.897 2778.407)
(41.66858 250.3818 9322.64)
(139.1287 889.0641 9384.246)
(257.2743 1947.777 8884.976)
(394.3621 3804.187 7202.841)
(532.0455 6521.441 3041.821)
(38.55704 302.6675 9238.99)
(127.9025 1076.668 9411.146)
(235.9819 2390.064 9222.839)
(364.0397 4882.686 8054.054)
(501.451 9392.891 3630.127)
(36.15564 321.2612 9222.102)
(119.4467 1142.497 9533.473)
(220.5629 2557.46 9763.615)
(344.0029 5471.337 9544.897)
(489.1459 12985.9 4730.62)
(34.16792 306.3949 9227.274)
(112.5943 1083.673 9679.889)
(208.4282 2400.206 10378.21)
(329.7116 5034.059 11957.1)
(498.2164 11498.36 19678.38)
(776.0455 1288.387 25910.1)
(1040.569 572.3341 25376.6)
(1375.027 255.375 26017.37)
(1786.869 75.43085 27383.81)
(2215.232 -80.85125 29422.53)
(2349.658 -306.6441 32308.32)
(1207.672 -757.5971 36225.02)
(32.3815 262.7604 9214.257)
(106.493 919.8226 9774)
(197.4313 1980.22 10764.68)
(314.2714 3817.33 12806.92)
(477.9741 6400.696 17774.85)
(692.9213 2415.53 21991.79)
(907.1225 1196.557 23007.62)
(1181.504 565.0818 24041.44)
(1534.638 167.9192 25344.2)
(1973.925 -190.1628 27025.36)
(2438.306 -690.4686 29234.77)
(2600.552 -1636.98 32223.28)
(1343.898 -3694.023 36084.81)
(30.6592 198.2672 9154.166)
(100.6188 686.1814 9776.952)
(186.5013 1433.215 10905.11)
(296.9653 2564.576 12967.44)
(448.4081 3623.572 16570.29)
(626.0726 1935.702 19638.47)
(802.4138 1115.328 21019.27)
(1026.733 567.8936 22237.17)
(1315.725 168.6738 23488.43)
(1689.04 -214.5249 24878.96)
(2155.387 -738.2708 26480.55)
(2653.327 -1651.783 28351.8)
(2836.625 -3437.099 30475.51)
(1460.917 -6997.218 32257.49)
(28.92417 121.5293 9030.359)
(94.70199 416.6341 9677.163)
(175.2438 849.9789 10844.82)
(278.3057 1445.207 12806.99)
(416.4526 1864.006 15696.33)
(569.0337 1152.813 18135.95)
(717.713 722.0357 19528.7)
(904.0325 385.3186 20760.53)
(1140.547 113.1111 21927.8)
(1444.902 -160.3668 23088.93)
(1837.586 -528.5712 24257.78)
(2327.899 -1133.237 25387.3)
(2852.021 -2205.297 26329.15)
(3041.576 -4110.719 26721.54)
(1548.102 -7226.209 50121.07)
(27.14313 40.26865 8836.131)
(88.63751 137.2609 9476.534)
(163.5878 276.3838 10628.33)
(258.8336 457.842 12484.52)
(384.4884 567.2364 15020.22)
(518.8863 371.1002 17142.01)
(647.1687 240.8018 18460.11)
(805.2392 131.1658 19630.86)
(1002.153 38.04861 20699.32)
(1251.076 -57.42508 21692.55)
(1570.198 -184.5661 22594.48)
(1980.359 -386.3437 23322.87)
(2490.608 -724.8187 23695.81)
(3033.549 -1279.605 23400.45)
(3220.238 -2117.003 42803.77)
(207.8427 -486.7831 14787.42)
(35.53765 -487.28 16851.26)
(82.01997 -520.927 15577.82)
(103.8357 -1867.872 16462.41)
(91.82847 -490.5941 14063.19)
(237.2022 -1797.448 14892.45)
(166.7269 -4064.516 15326.44)
(83.67391 -414.064 12653.04)
(264.1407 -1514.102 13211.17)
(374.8766 -3445.534 13201.64)
(215.9667 -7071.396 11527.25)
(71.35423 -307.7417 11475.2)
(240.6787 -1113.966 11763.95)
(414.3803 -2492.736 11344.26)
(477.9094 -4953.695 9309.699)
(235.6437 -8452.544 3889.988)
(60.28183 -185.8525 10552.05)
(206.2169 -665.6645 10646.79)
(378.0492 -1460.664 9965.494)
(527.397 -2802.224 7804.951)
(523.3565 -4551.839 3175.167)
(51.67577 -60.59861 9867.194)
(175.7625 -215.3258 9850.492)
(326.565 -466.0069 9051.312)
(485.6118 -873.5253 6899.436)
(587.3156 -1377.024 2754.356)
(45.33487 57.70375 9391.645)
(152.4801 204.1493 9334.911)
(282.1173 439.4889 8534.151)
(426.6655 818.8226 6470.667)
(553.8043 1283.511 2573.414)
(40.74295 160.341 9092.119)
(135.6094 566.7616 9054.763)
(249.0001 1224.29 8351.841)
(377.124 2309.25 6448.751)
(501.1041 3705.366 2605.551)
(37.40843 239.9766 8932.782)
(123.5588 849.6243 8964.936)
(225.7248 1854.8 8457.642)
(342.0307 3606.958 6826.967)
(458.9648 6150.735 2868.338)
(34.93131 290.8075 8875.156)
(114.8361 1031.933 9017.877)
(209.6023 2284.084 8811.394)
(319.4321 4649.765 7667.685)
(434.807 8906.31 3441.157)
(32.99928 309.3278 8878.186)
(108.2236 1097.735 9158.307)
(198.0619 2451.239 9356.258)
(305.6189 5228.877 9120.273)
(429.2863 12366.99 4504.325)
(31.37367 295.5607 8899.955)
(102.7721 1043.424 9319.132)
(188.8714 2306.197 9970.394)
(296.1504 4825.073 11459.58)
(442.7974 10989.15 18806.79)
(681.3427 1226.957 24677.38)
(901.5683 542.675 24067.62)
(1178.806 240.8811 24546.8)
(1533.792 70.95929 25668.08)
(1975.16 -73.57227 27353.9)
(2443.659 -275.1539 29758.28)
(2615.877 -670.6882 33326.25)
(1361.992 -1590.545 38830.13)
(29.88106 253.8859 8902.243)
(97.78923 887.3007 9427.478)
(180.2287 1906.689 10363.98)
(284.8433 3667.863 12304.7)
(429.472 6135.063 17037.24)
(616.0909 2308.508 21019.46)
(796.5349 1139.482 21915.13)
(1023.585 535.7845 22804.29)
(1314.705 158.4884 23914.89)
(1690.473 -177.0615 25332.63)
(2161.248 -635.0667 27165.71)
(2669.782 -1474.715 29616.55)
(2878.966 -3272.861 33011.9)
(1506.272 -7459.142 37336.07)
(28.40859 191.8542 8857.425)
(92.85283 663.0082 9446.038)
(171.2729 1382.55 10518.87)
(271.1328 2469.367 12485.5)
(406.5257 3481.719 15921.76)
(562.7121 1855.346 18824.79)
(713.5748 1065.896 20091.43)
(901.689 540.7853 21183.53)
(1139.796 159.9117 22282.96)
(1446.034 -202.0661 23479.66)
(1841.86 -689.4346 24824.15)
(2338.808 -1521.408 26337.85)
(2878.72 -3098.51 27972.69)
(3103.178 -6193.093 29411.67)
(1604.458 -12009.59 57684.97)
(26.89393 117.7565 8749.496)
(87.75263 403.1588 9363.59)
(161.7281 821.2778 10478.06)
(255.6102 1394.126 12353.94)
(380.297 1794.816 15113.86)
(515.9965 1107.678 17427.07)
(645.1828 692.0575 18720.62)
(804.0859 368.2325 19845.73)
(1001.792 107.6898 20891.27)
(1251.662 -152.076 21907.52)
(1572.282 -498.1379 22898.04)
(1985.305 -1058.674 23804.17)
(2501.579 -2031.68 24460.92)
(3057.71 -3704.571 24519.79)
(3269.486 -6380.976 45561.97)
(213.8003 -1551.386 15800.61)
(25.31164 39.06673 8571.966)
(82.41753 133 9181.889)
(151.5904 267.4457 10284.16)
(238.8909 442.3844 12062.73)
(353.1812 547.1901 14489.55)
(473.9117 357.3251 16506.59)
(586.9233 231.3738 17739.31)
(723.9794 125.7194 18819.69)
(891.5218 36.35708 19788.99)
(1099.055 -54.70126 20669.82)
(1360.197 -175.0099 21442.4)
(1693.548 -364.1184 22021.3)
(2120.161 -677.1479 22226.23)
(2648.864 -1178.693 21750.94)
(3209.863 -1906.198 39301.13)
(433.014 -427.2065 13461.19)
(246.3488 -778.3782 21162.52)
(36.63797 -380.509 17334.98)
(85.03043 -463.1085 16131.86)
(108.3423 -1646.481 17277.83)
(95.3282 -485.9419 14616.84)
(248.2321 -1774.406 15746.94)
(177.3154 -3979.796 17025.34)
(86.69694 -457.424 13147)
(275.6107 -1676.324 13967.67)
(397.6771 -3858.063 14639.26)
(236.4313 -8323.535 14389.95)
(73.56241 -388.1338 11867.85)
(249.432 -1411.639 12348.91)
(434.8688 -3212.101 12372.68)
(514.0426 -6706.587 10996.48)
(262.8245 -12916.87 4938.977)
(61.65113 -290.2189 10819.24)
(211.6283 -1044.205 11033.74)
(391.0861 -2323.816 10601.5)
(553.6692 -4616.368 8720.151)
(561.1602 -8012.737 3711.522)
(52.29711 -176.2032 9999.568)
(178.1799 -627.7705 10038.28)
(332.3301 -1369.191 9346.561)
(497.4394 -2612.087 7292.621)
(606.7489 -4240.979 2974.319)
(45.33487 -57.70375 9391.645)
(152.4801 -204.1493 9334.911)
(282.1173 -439.4889 8534.151)
(426.6655 -818.8226 6470.667)
(553.8043 -1283.511 2573.414)
(40.25774 55.14332 8971.66)
(133.772 194.3993 8885.217)
(244.7308 416.6877 8087.814)
(368.462 772.2482 6101.133)
(486.2255 1203.136 2413.394)
(36.57616 153.6775 8711.84)
(120.4283 541.6188 8650.062)
(218.4591 1165.845 7949.937)
(327.1079 2189.511 6111.938)
(432.5079 3494.697 2456.853)
(33.88942 230.573 8580.946)
(110.9303 814.3224 8590.2)
(200.4779 1772.55 8080.104)
(300.1033 3434.869 6499.083)
(398.0259 5832.01 2718.808)
(31.88078 280.0053 8544.127)
(104.0412 991.5031 8662.904)
(188.2054 2189.214 8443.561)
(283.7581 4443.689 7326.179)
(381.5568 8481.692 3276.29)
(30.29985 298.3899 8563.21)
(98.77904 1056.965 8816.915)
(179.4671 2355.231 8988.44)
(274.4816 5011.802 8740.425)
(381.4574 11819.3 4304.203)
(28.95056 285.5785 8598.555)
(94.37013 1006.533 8988.688)
(172.4081 2220.564 9599.173)
(268.4026 4636.161 11010.08)
(397.8313 10533.19 18026.34)
(605.7885 1172.601 23586.11)
(791.6567 516.7925 22924.59)
(1021.246 228.3934 23283.47)
(1313.959 66.96945 24220.3)
(1691.378 -68.50251 25639.99)
(2165.123 -253.1073 27648.98)
(2681.166 -604.3552 30613.12)
(2910.848 -1409.611 35445.29)
(1546.156 -3502.916 44214.41)
(27.68728 245.6739 8613.65)
(90.24032 857.3358 9108.363)
(165.5089 1839.287 9996.864)
(260.0572 3531.704 11847.35)
(389.3446 5894.928 16370.43)
(553.7346 2212.689 20148.47)
(708.3446 1088.986 20947.6)
(898.924 510.213 21723.61)
(1138.905 150.2566 22687.32)
(1447.192 -166.7835 23907.37)
(1846.436 -593.1096 25464.7)
(2350.933 -1358.591 27504.25)
(2910.208 -2951.791 30261.58)
(3182.875 -6606.755 33900.29)
(1687.477 -15650.94 74225.96)
(26.41438 185.8983 8581.93)
(86.03849 641.5646 9139.939)
(158.0618 1335.866 10163.11)
(249.0187 2382.09 12043.81)
(371.2267 3352.492 15330.92)
(510.2612 1782.711 18088.95)
(641.4614 1021.644 19259.98)
(802.0016 516.8078 20249.99)
(1001.132 152.2503 21229.5)
(1252.626 -191.6255 22278.01)
(1575.82 -649.7677 23431.92)
(1993.903 -1421.441 24692.5)
(2521.317 -2855.227 25975.61)
(3103.318 -5584.219 26943.17)
(3368.057 -10615.84 52184.53)
(226.6813 -3044.923 18225.78)
(25.07918 114.2418 8487.917)
(81.59449 390.6439 9072.451)
(149.8665 794.7184 10138.75)
(235.9147 1347.058 11936.56)
(349.3294 1731.389 14579.87)
(471.2714 1066.562 16781.07)
(585.1217 664.9622 17989.61)
(722.9427 352.9427 19025.65)
(891.2017 102.9028 19972.44)
(1099.569 -144.8648 20874.56)
(1361.985 -472.3538 21730.24)
(1697.657 -997.8047 22474.92)
(2128.824 -1898.202 22940.99)
(2666.714 -3413.036 22781.5)
(3246.025 -5748.019 41774.24)
(443.3072 -1362.999 14341.97)
(256.1297 -2535.736 22540.65)
(23.66174 37.94411 8325.285)
(76.85746 129.0305 8907.461)
(140.9577 259.1445 9964.59)