/*--------------------------------*- C++ -*----------------------------------*\
| =========                 |                                                 |
| \\      /  F ield         | OpenFOAM: The Open Source CFD Toolbox           |
|  \\    /   O peration     | Version:  2306                                  |
|   \\  /    A nd           | Website:  www.openfoam.com                      |
|    \\/     M anipulation  |                                                 |
\*---------------------------------------------------------------------------*/
FoamFile
{
    version     2.0;
    format      ascii;
    arch        "LSB;label=32;scalar=64";
    class       volScalarField;
    location    "0.6/phiEC";
    object      phi;
}
// * * * * * * * * * * * * * * * * * * * * * * * * * * * * * * * * * * * * * //

dimensions      [1 2 -3 0 0 -1 0];

internalField   nonuniform List<scalar> 
20000
(
0.7398619
0.7398611
0.7398581
0.7400422
0.7398595
0.7398573
0.7400395
0.7398529
0.7400306
0.7402338
0.7398573
0.7398558
0.7400342
0.7398521
0.740028
0.7402285
0.7398477
0.7400146
0.7402136
0.7404475
0.7398546
0.7398537
0.7400267
0.7398507
0.740023
0.740218
0.739847
0.7400122
0.7402085
0.740439
0.7398431
0.7399988
0.7401859
0.740417
0.7406965
0.7398518
0.7398512
0.7400177
0.7398488
0.7400159
0.7402028
0.7398457
0.7400075
0.7401986
0.7404216
0.7398424
0.7399965
0.7401812
0.7404089
0.7406863
0.7398391
0.7399848
0.7401588
0.740376
0.7406532
0.740915
0.7398491
0.7398485
0.7400081
0.7398464
0.7400073
0.7401839
0.7398439
0.7400009
0.7401841
0.7403947
0.7398412
0.7399922
0.7401719
0.7403924
0.7406643
0.7398385
0.7399827
0.7401544
0.7403685
0.7406435
0.7409086
0.7398357
0.7399727
0.7401349
0.7403363
0.7405962
0.7408597
0.7410676
0.7398468
0.7398459
0.7399988
0.7398439
0.7399982
0.740163
0.7398417
0.7399929
0.7401661
0.7403582
0.7398395
0.739986
0.7401585
0.7403669
0.7406261
0.7398373
0.7399786
0.7401458
0.7403531
0.7406226
0.7408959
0.7398351
0.7399707
0.7401307
0.7403292
0.7405872
0.7408536
0.7410637
0.7398327
0.7399623
0.7401142
0.7403012
0.7405416
0.7407883
0.7410036
0.7412249
0.7398451
0.7398438
0.739991
0.7398415
0.7399894
0.7401432
0.7398393
0.7399843
0.7401464
0.7403146
0.7398374
0.7399786
0.7401417
0.7403323
0.7405623
0.7398357
0.7399728
0.7401332
0.7403294
0.7405865
0.7408778
0.739834
0.7399669
0.7401226
0.7403149
0.7405678
0.7408415
0.7410562
0.7398321
0.7399604
0.7401103
0.7402947
0.7405332
0.7407826
0.7409998
0.7412228
0.73983
0.7399532
0.7400964
0.7402711
0.7404937
0.7407205
0.740922
0.7411514
0.7413849
0.7398442
0.7398422
0.7399853
0.7398395
0.7399819
0.7401267
0.7398371
0.7399761
0.7401276
0.740275
0.7398352
0.7399706
0.7401233
0.7402909
0.7404508
0.7398338
0.7399658
0.7401176
0.7402971
0.740526
0.7408592
0.7398325
0.7399614
0.7401109
0.7402927
0.7405341
0.7408244
0.7410468
0.7398311
0.7399568
0.7401027
0.7402812
0.740515
0.7407714
0.7409927
0.7412192
0.7398295
0.7399514
0.7400928
0.7402649
0.7404859
0.7407152
0.7409184
0.7411495
0.7413844
0.7398277
0.7399452
0.7400809
0.7402452
0.7404527
0.7406614
0.740845
0.7410591
0.7413014
0.7415462
0.7398442
0.7398413
0.7399824
0.739838
0.7399766
0.7401151
0.7398352
0.7399692
0.7401119
0.7402439
0.7398331
0.7399629
0.7401057
0.7402534
0.7403738
0.7398317
0.7399584
0.7401004
0.7402586
0.7404205
0.7398306
0.7399549
0.7400962
0.7402627
0.7404778
0.7408067
0.741039
0.7398296
0.7399516
0.7400916
0.7402604
0.7404836
0.7407554
0.7409838
0.7412148
0.7398285
0.739948
0.7400855
0.7402522
0.7404688
0.7407047
0.7409118
0.7411459
0.7413835
0.7398272
0.7399435
0.7400774
0.7402393
0.7404452
0.7406565
0.7408417
0.7410573
0.7413009
0.7415472
0.7398255
0.739938
0.7400672
0.7402225
0.7404173
0.7406109
0.7407781
0.7409727
0.741198
0.7414521
0.7417074
0.7398451
0.7398413
0.7399824
0.7398372
0.7399738
0.740109
0.7398338
0.7399642
0.7401008
0.7402228
0.7398314
0.7399565
0.7400911
0.7402239
0.7403217
0.7398297
0.7399512
0.7400841
0.7402236
0.7403475
0.7398287
0.7399478
0.7400801
0.7402268
0.7403795
0.7398279
0.7399454
0.7400778
0.7402323
0.7404312
0.7407389
0.7409763
0.7412116
0.7398271
0.739943
0.740075
0.7402326
0.7404394
0.7406899
0.7409035
0.7411418
0.7413825
0.7398262
0.7399402
0.7400705
0.7402273
0.7404292
0.7406467
0.7408355
0.741054
0.7413
0.7415489
0.7398251
0.7399364
0.7400639
0.7402169
0.7404103
0.7406062
0.7407751
0.740971
0.7411976
0.741453
0.7417103
0.7398236
0.7399316
0.7400549
0.7402025
0.7403864
0.7405673
0.740721
0.7408978
0.7411019
0.7413374
0.7416022
0.7418667
0.7398468
0.7398422
0.7399853
0.7398372
0.7399738
0.740109
0.7398331
0.7399616
0.7400951
0.7402122
0.7398301
0.7399518
0.7400808
0.7402039
0.7402892
0.7398281
0.7399451
0.7400705
0.7401961
0.7402981
0.7398268
0.739941
0.7400648
0.7401942
0.7403116
0.739826
0.7399387
0.7400626
0.7401986
0.7403396
0.7398254
0.7399371
0.7400619
0.7402061
0.7403902
0.7406745
0.7408965
0.7411386
0.7413817
0.7398249
0.7399355
0.7400605
0.7402087
0.7404014
0.7406327
0.7408277
0.74105
0.7412989
0.7415507
0.7398241
0.7399332
0.7400573
0.7402055
0.740395
0.7405969
0.7407693
0.7409678
0.7411966
0.7414544
0.7417152
0.7398231
0.73993
0.7400517
0.7401972
0.7403797
0.7405629
0.7407181
0.7408962
0.7411015
0.7413382
0.7416047
0.7418724
0.7398218
0.7399257
0.7400439
0.7401846
0.7403591
0.7405293
0.7406717
0.7408339
0.741019
0.7412316
0.7414759
0.7417499
0.7420216
0.7398491
0.7398438
0.739991
0.739838
0.7399766
0.7401151
0.7398331
0.7399616
0.7400951
0.7402122
0.7398294
0.7399494
0.7400755
0.7401938
0.7402737
0.7398268
0.7399408
0.7400608
0.7401774
0.7402674
0.7398252
0.7399353
0.740052
0.7401685
0.7402656
0.7398242
0.7399323
0.7400481
0.740168
0.7402763
0.7398237
0.7399307
0.7400475
0.7401743
0.7403044
0.7398233
0.7399298
0.740048
0.7401835
0.740355
0.7406183
0.7408213
0.7410471
0.741298
0.7415518
0.7398229
0.7399287
0.7400477
0.7401878
0.7403687
0.7405838
0.740762
0.7409642
0.7411955
0.7414559
0.7417205
0.7398223
0.7399269
0.7400454
0.7401862
0.7403652
0.7405541
0.7407126
0.7408933
0.7411006
0.7413394
0.741609
0.7418822
0.7398214
0.7399241
0.7400408
0.7401795
0.7403527
0.7405251
0.740669
0.7408324
0.7410186
0.7412323
0.7414782
0.7417549
0.7420315
0.7398202
0.7399203
0.7400338
0.7401685
0.7403347
0.7404957
0.7406288
0.7407788
0.7409482
0.7411405
0.7413604
0.741612
0.7418928
0.7421679
0.7398518
0.7398459
0.7399988
0.7398395
0.7399819
0.7401267
0.7398338
0.7399642
0.7401008
0.7402228
0.7398294
0.7399494
0.7400755
0.7401938
0.7402737
0.7398262
0.7399385
0.7400559
0.7401681
0.7402526
0.739824
0.7399312
0.740043
0.7401511
0.7402369
0.7398227
0.7399268
0.7400361
0.740144
0.7402334
0.739822
0.7399246
0.7400338
0.7401455
0.740245
0.7398216
0.7399237
0.7400343
0.7401534
0.7402741
0.7398213
0.7399233
0.7400358
0.7401638
0.7403247
0.7405702
0.7407559
0.7409615
0.7411947
0.7414568
0.7417239
0.739821
0.7399226
0.7400362
0.7401693
0.7403402
0.7405416
0.7407057
0.7408899
0.7410996
0.7413407
0.7416137
0.7418931
0.7398205
0.7399212
0.7400347
0.740169
0.7403389
0.7405167
0.7406638
0.7408296
0.7410177
0.7412334
0.7414821
0.7417635
0.7420492
0.7398198
0.7399188
0.7400308
0.7401635
0.7403286
0.7404917
0.7406261
0.7407774
0.7409478
0.7411412
0.7413624
0.7416165
0.7419015
0.742184
0.7398187
0.7399153
0.7400246
0.7401537
0.7403127
0.7404657
0.7405908
0.7407308
0.7408873
0.7410629
0.7412612
0.7414869
0.7417435
0.7420272
0.7422996
0.7398546
0.7398485
0.7400081
0.7398415
0.7399894
0.7401432
0.7398352
0.7399692
0.7401119
0.7402439
0.7398301
0.7399518
0.7400808
0.7402039
0.7402892
0.7398262
0.7399385
0.7400559
0.7401681
0.7402526
0.7398234
0.739929
0.7400383
0.7401424
0.7402231
0.7398216
0.7399229
0.7400276
0.7401277
0.7402067
0.7398205
0.7399195
0.7400224
0.7401228
0.7402048
0.7398199
0.7399179
0.7400213
0.740126
0.7402181
0.7398197
0.7399174
0.7400226
0.7401351
0.740248
0.7398195
0.7399174
0.7400248
0.7401464
0.7402983
0.7405287
0.7407
0.7408873
0.7410988
0.7413415
0.7416167
0.7419007
0.7398193
0.739917
0.7400259
0.7401528
0.7403149
0.7405049
0.7406573
0.7408264
0.7410168
0.7412346
0.7414862
0.7417732
0.7420703
0.7398189
0.739916
0.740025
0.7401534
0.7403153
0.7404837
0.7406212
0.7407748
0.740947
0.7411422
0.741366
0.7416243
0.7419173
0.7422144
0.7398183
0.7399139
0.7400217
0.740149
0.7403068
0.7404618
0.7405883
0.7407294
0.7408869
0.7410635
0.7412632
0.741491
0.7417514
0.7420414
0.7423235
0.7398173
0.7399107
0.7400161
0.7401403
0.7402926
0.7404385
0.7405568
0.7406883
0.7408341
0.7409961
0.7411768
0.7413799
0.7416091
0.741867
0.7421476
0.7425361
0.7398573
0.7398512
0.7400177
0.7398439
0.7399982
0.740163
0.7398371
0.7399761
0.7401276
0.740275
0.7398314
0.7399565
0.7400911
0.7402239
0.7403217
0.7398268
0.7399408
0.7400608
0.7401774
0.7402674
0.7398234
0.739929
0.7400383
0.7401424
0.7402231
0.739821
0.7399209
0.7400232
0.7401195
0.7401939
0.7398195
0.7399157
0.7400143
0.7401074
0.7401798
0.7398185
0.7399129
0.7400104
0.7401045
0.7401802
0.7398181
0.7399118
0.7400102
0.7401091
0.7401949
0.739818
0.7399118
0.7400122
0.740119
0.7402252
0.7398179
0.739912
0.7400149
0.7401308
0.7402749
0.7404926
0.7406518
0.740824
0.7410161
0.7412353
0.741489
0.7417799
0.7420862
0.7398178
0.7399119
0.7400165
0.7401379
0.7402924
0.7404723
0.740615
0.7407717
0.7409461
0.7411433
0.7413698
0.741633
0.7419359
0.7422539
0.7398175
0.7399111
0.7400161
0.7401393
0.7402941
0.7404541
0.7405836
0.7407269
0.7408862
0.7410645
0.7412665
0.7414982
0.7417656
0.7420683
0.7423718
0.7398169
0.7399093
0.7400133
0.7401357
0.740287
0.7404348
0.7405544
0.740687
0.7408337
0.7409967
0.7411787
0.7413837
0.7416163
0.7418798
0.7421687
0.7425767
0.739816
0.7399064
0.7400082
0.7401279
0.7402743
0.7404138
0.7405261
0.7406503
0.7407871
0.7409378
0.7411042
0.7412888
0.7414945
0.7417238
0.7419775
0.7423629
0.7428939
0.7398595
0.7398537
0.7400267
0.7398464
0.7400073
0.7401839
0.7398393
0.7399843
0.7401464
0.7403146
0.7398331
0.7399629
0.7401057
0.7402534
0.7403738
0.7398281
0.7399451
0.7400705
0.7401961
0.7402981
0.739824
0.7399312
0.740043
0.7401511
0.7402369
0.739821
0.7399209
0.7400232
0.7401195
0.7401939
0.7398189
0.7399138
0.7400101
0.7400997
0.7401678
0.7398175
0.7399094
0.7400027
0.74009
0.7401566
0.7398168
0.7399071
0.7399998
0.7400886
0.7401589
0.7398164
0.7399064
0.7400003
0.7400941
0.7401746
0.7398164
0.7399066
0.7400028
0.7401045
0.7402051
0.7398164
0.7399071
0.7400059
0.7401168
0.740254
0.7404606
0.7406098
0.7407694
0.7409454
0.741144
0.7413724
0.7416391
0.74195
0.742289
0.7398163
0.7399073
0.7400079
0.7401243
0.740272
0.7404432
0.7405776
0.740724
0.7408853
0.7410655
0.7412701
0.7415062
0.7417824
0.7421033
0.7424436
0.7398161
0.7399067
0.7400079
0.7401263
0.7402747
0.7404274
0.7405499
0.7406846
0.740833
0.7409976
0.7411818
0.7413905
0.7416294
0.7419041
0.7422114
0.7426654
0.7398156
0.7399051
0.7400055
0.7401234
0.7402688
0.7404102
0.7405237
0.740649
0.7407867
0.7409383
0.741106
0.7412925
0.7415012
0.7417356
0.7419966
0.7423985
0.7429587
0.7398147
0.7399025
0.7400009
0.7401164
0.7402573
0.7403911
0.7404981
0.7406159
0.740745
0.7408862
0.7410408
0.7412105
0.7413971
0.7416021
0.7418266
0.7421753
0.7426886
0.7432415
0.7398611
0.7398558
0.7400342
0.7398488
0.7400159
0.7402028
0.7398417
0.7399929
0.7401661
0.7403582
0.7398352
0.7399706
0.7401233
0.7402909
0.7404508
0.7398297
0.7399512
0.7400841
0.7402236
0.7403475
0.7398252
0.7399353
0.740052
0.7401685
0.7402656
0.7398216
0.7399229
0.7400276
0.7401277
0.7402067
0.7398189
0.7399138
0.7400101
0.7400997
0.7401678
0.739817
0.7399075
0.7399987
0.7400826
0.7401452
0.7398158
0.7399037
0.7399925
0.7400747
0.7401365
0.7398152
0.7399018
0.7399903
0.7400745
0.7401404
0.7398149
0.7399014
0.7399914
0.7400807
0.7401567
0.7398149
0.7399019
0.7399943
0.7400915
0.740187
0.739815
0.7399026
0.7399977
0.740104
0.7402351
0.740432
0.7405727
0.7407218
0.7408847
0.7410662
0.7412725
0.7415118
0.7417951
0.7421344
0.7425283
0.739815
0.7399029
0.7399999
0.7401119
0.7402534
0.740417
0.7405442
0.7406818
0.7408322
0.7409986
0.7411852
0.7413979
0.7416449
0.7419357
0.7422749
0.7428304
0.7398148
0.7399025
0.7400003
0.7401144
0.7402569
0.7404031
0.7405194
0.7406467
0.7407861
0.7409392
0.7411089
0.7412988
0.7415135
0.741758
0.742035
0.7424765
0.7431052
0.7398144
0.7399012
0.7399983
0.7401121
0.740252
0.7403877
0.7404959
0.7406147
0.7407446
0.7408867
0.7410425
0.741214
0.7414034
0.7416131
0.7418441
0.7422073
0.7427453
0.743328
0.7398136
0.7398988
0.7399941
0.7401057
0.7402417
0.7403702
0.7404724
0.7405846
0.7407069
0.74084
0.7409847
0.7411421
0.7413133
0.7414988
0.7416986
0.7420107
0.7424744
0.7430052
0.7435758
0.7398619
0.7398573
0.7400395
0.7398507
0.740023
0.740218
0.7398439
0.7400009
0.7401841
0.7403947
0.7398374
0.7399786
0.7401417
0.7403323
0.7405623
0.7398317
0.7399584
0.7401004
0.7402586
0.7404205
0.7398268
0.739941
0.7400648
0.7401942
0.7403116
0.7398227
0.7399268
0.7400361
0.740144
0.7402334
0.7398195
0.7399157
0.7400143
0.7401074
0.7401798
0.739817
0.7399075
0.7399987
0.7400826
0.7401452
0.7398153
0.7399019
0.7399887
0.7400678
0.7401258
0.7398142
0.7398986
0.7399833
0.7400613
0.7401191
0.7398137
0.739897
0.7399818
0.740062
0.740124
0.7398135
0.7398969
0.7399832
0.7400686
0.7401407
0.7398136
0.7398975
0.7399865
0.7400797
0.7401708
0.7398137
0.7398984
0.7399901
0.7400923
0.7402179
0.7404062
0.7405394
0.7406797
0.7408316
0.7409992
0.7411874
0.7414032
0.7416566
0.7419637
0.7423499
0.7432343
0.7398138
0.7398989
0.7399926
0.7401004
0.7402364
0.740393
0.7405139
0.7406441
0.7407853
0.7409402
0.7411121
0.7413059
0.7415279
0.7417871
0.7420923
0.742622
0.7433876
0.7398136
0.7398987
0.7399932
0.7401034
0.7402406
0.7403808
0.7404917
0.7406125
0.740744
0.7408876
0.7410453
0.74122
0.7414149
0.741634
0.7418795
0.7422774
0.7428736
0.7435235
0.7398132
0.7398975
0.7399916
0.7401016
0.7402365
0.7403669
0.7404703
0.7405834
0.7407066
0.7408405
0.7409863
0.7411454
0.7413193
0.7415091
0.741715
0.7420401
0.7425252
0.7430806
0.7436803
0.7398125
0.7398953
0.7399878
0.7400958
0.7402271
0.7403509
0.7404488
0.7405559
0.7406722
0.7407982
0.7409345
0.7410816
0.7412401
0.7414098
0.7415899
0.7418717
0.7422892
0.7427652
0.7433097
0.7438937
0.7398581
0.7400422
0.7398521
0.740028
0.7402285
0.7398457
0.7400075
0.7401986
0.7404216
0.7398395
0.739986
0.7401585
0.7403669
0.7406261
0.7398338
0.7399658
0.7401176
0.7402971
0.740526
0.7408592
0.7398287
0.7399478
0.7400801
0.7402268
0.7403795
0.7398242
0.7399323
0.7400481
0.740168
0.7402763
0.7398205
0.7399195
0.7400224
0.7401228
0.7402048
0.7398175
0.7399094
0.7400027
0.74009
0.7401566
0.7398153
0.7399019
0.7399887
0.7400678
0.7401258
0.7398137
0.7398968
0.7399797
0.7400546
0.7401088
0.7398128
0.7398939
0.739975
0.7400492
0.7401036
0.7398123
0.7398927
0.739974
0.7400506
0.7401094
0.7398122
0.7398927
0.7399758
0.7400576
0.7401263
0.7398123
0.7398935
0.7399792
0.7400688
0.740156
0.7455997
0.7398125
0.7398945
0.7399831
0.7400815
0.7402022
0.7403826
0.7405094
0.7406421
0.7407847
0.7409407
0.7411142
0.7413108
0.7415389
0.7418129
0.7421601
0.7429798
0.744007
0.7398126
0.7398951
0.7399858
0.7400898
0.7402208
0.7403711
0.7404864
0.7406099
0.7407432
0.7408885
0.7410484
0.7412267
0.7414286
0.7416612
0.7419323
0.7424085
0.7431221
0.7438913
0.7398125
0.7398951
0.7399866
0.7400931
0.7402255
0.7403603
0.7404663
0.7405813
0.740706
0.7408413
0.740989
0.7411511
0.7413302
0.7415288
0.7417481
0.7421047
0.7426405
0.7432515
0.7439148
0.7398122
0.7398941
0.7399853
0.7400918
0.7402222
0.7403477
0.7404468
0.7405548
0.7406719
0.7407987
0.740936
0.7410847
0.7412458
0.7414197
0.7416054
0.7418991
0.7423359
0.7428328
0.7434006
0.7440123
0.7398115
0.739892
0.7399818
0.7400865
0.7402136
0.740333
0.740427
0.7405295
0.7406405
0.7407602
0.740889
0.7410274
0.7411753
0.7413322
0.7414965
0.7417537
0.7421335
0.7425601
0.7430452
0.7435996
0.7440509
0.7398529
0.7400306
0.7402338
0.739847
0.7400122
0.7402085
0.740439
0.7398412
0.7399922
0.7401719
0.7403924
0.7406643
0.7398357
0.7399728
0.7401332
0.7403294
0.7405865
0.7408778
0.7398306
0.7399549
0.7400962
0.7402627
0.7404778
0.7408067
0.741039
0.739826
0.7399387
0.7400626
0.7401986
0.7403396
0.739822
0.7399246
0.7400338
0.7401455
0.740245
0.7398185
0.7399129
0.7400104
0.7401045
0.7401802
0.7398158
0.7399037
0.7399925
0.7400747
0.7401365
0.7398137
0.7398968
0.7399797
0.7400546
0.7401088
0.7398123
0.7398922
0.7399715
0.7400429
0.7400938
0.7398114
0.7398896
0.7399675
0.7400384
0.7400898
0.7398111
0.7398886
0.7399669
0.7400403
0.7400961
0.739811
0.7398888
0.7399689
0.7400475
0.7401131
0.7469697
0.7398112
0.7398898
0.7399726
0.7400588
0.7401424
0.7450828
0.7457597
0.7398114
0.7398909
0.7399765
0.7400715
0.7401877
0.7403611
0.740482
0.740608
0.7407427
0.740889
0.7410504
0.7412313
0.7414389
0.7416854
0.7419949
0.7427319
0.7436696
0.7445989
0.7398115
0.7398916
0.7399794
0.74008
0.7402063
0.7403509
0.7404612
0.7405789
0.7407052
0.7408422
0.7409919
0.7411575
0.7413432
0.7415545
0.7417974
0.7422255
0.7428642
0.7435743
0.7443412
0.7398115
0.7398917
0.7399805
0.7400835
0.7402114
0.7403413
0.7404429
0.7405528
0.7406713
0.7407995
0.7409386
0.7410902
0.7412562
0.7414383
0.7416366
0.7419594
0.742442
0.7429862
0.7436051
0.7442758
0.7398112
0.7398908
0.7399794
0.7400826
0.7402087
0.7403299
0.740425
0.7405284
0.7406402
0.7407607
0.7408905
0.7410304
0.7411808
0.7413415
0.7415111
0.7417796
0.7421771
0.7426222
0.7431267
0.7437025
0.7441746
0.7398106
0.739889
0.7399763
0.7400779
0.7402009
0.7403163
0.7404067
0.740505
0.7406112
0.7407253
0.7408476
0.7409783
0.7411172
0.7412633
0.7414148
0.7416522
0.7420015
0.7423883
0.7428211
0.7433121
0.7437432
0.7440657
0.7398477
0.7400146
0.7402136
0.7404475
0.7398424
0.7399965
0.7401812
0.7404089
0.7406863
0.7398373
0.7399786
0.7401458
0.7403531
0.7406226
0.7408959
0.7398325
0.7399614
0.7401109
0.7402927
0.7405341
0.7408244
0.7410468
0.7398279
0.7399454
0.7400778
0.7402323
0.7404312
0.7407389
0.7409763
0.7412116
0.7398237
0.7399307
0.7400475
0.7401743
0.7403044
0.7398199
0.7399179
0.7400213
0.740126
0.7402181
0.7398168
0.7399071
0.7399998
0.7400886
0.7401589
0.7398142
0.7398986
0.7399833
0.7400613
0.7401191
0.7398123
0.7398922
0.7399715
0.7400429
0.7400938
0.739811
0.739888
0.7399642
0.7400322
0.7400804
0.7398102
0.7398857
0.7399606
0.7400285
0.7400774
0.7398099
0.7398849
0.7399604
0.7400308
0.7400841
0.7478936
0.7398099
0.7398853
0.7399626
0.7400383
0.7401011
0.7462959
0.7470421
0.7398101
0.7398863
0.7399664
0.7400496
0.7401299
0.7446364
0.745225
0.7459959
0.7398103
0.7398875
0.7399705
0.7400622
0.7401743
0.7403412
0.740457
0.740577
0.7407047
0.7408427
0.7409938
0.7411619
0.741353
0.7415772
0.7418559
0.7425239
0.7433585
0.7441981
0.745081
0.7398105
0.7398884
0.7399735
0.7400708
0.7401929
0.7403322
0.7404379
0.7405504
0.7406706
0.7408003
0.7409414
0.7410963
0.7412685
0.7414627
0.7416831
0.7420723
0.742648
0.7432766
0.7439783
0.7447414
0.7398105
0.7398885
0.7399748
0.7400746
0.7401983
0.7403237
0.7404212
0.7405264
0.7406396
0.7407614
0.740893
0.7410356
0.7411907
0.7413593
0.7415407
0.7418364
0.7422761
0.7427633
0.74331
0.7439316
0.7444487
0.7398102
0.7398878
0.7399739
0.7400741
0.7401962
0.7403133
0.7404047
0.740504
0.7406109
0.7407258
0.7408491
0.7409812
0.7411225
0.7412723
0.7414287
0.7416767
0.7420426
0.7424462
0.7428959
0.7434041
0.7438504
0.7441898
0.7398097
0.7398861
0.739971
0.7400697
0.7401891
0.7403007
0.7403878
0.7404823
0.7405841
0.7406932
0.7408097
0.7409336
0.7410647
0.7412017
0.7413424
0.7415634
0.7418878
0.7422427
0.7426338
0.74307
0.7434445
0.7437567
0.7440802
0.7398431
0.7399988
0.7401859
0.740417
0.7406965
0.7398385
0.7399827
0.7401544
0.7403685
0.7406435
0.7409086
0.739834
0.7399669
0.7401226
0.7403149
0.7405678
0.7408415
0.7410562
0.7398296
0.7399516
0.7400916
0.7402604
0.7404836
0.7407554
0.7409838
0.7412148
0.7398254
0.7399371
0.7400619
0.7402061
0.7403902
0.7406745
0.7408965
0.7411386
0.7413817
0.7398216
0.7399237
0.7400343
0.7401534
0.7402741
0.7398181
0.7399118
0.7400102
0.7401091
0.7401949
0.7398152
0.7399018
0.7399903
0.7400745
0.7401404
0.7398128
0.7398939
0.739975
0.7400492
0.7401036
0.739811
0.739888
0.7399642
0.7400322
0.7400804
0.7398098
0.7398842
0.7399574
0.7400226
0.7400684
0.7398091
0.739882
0.7399543
0.7400195
0.740066
0.7484871
0.7398088
0.7398814
0.7399543
0.7400221
0.7400731
0.7471113
0.7479477
0.7398088
0.7398819
0.7399567
0.7400297
0.74009
0.7457321
0.7463593
0.747176
0.7398091
0.739883
0.7399606
0.740041
0.7401184
0.7442838
0.7447656
0.7454346
0.7462677
0.7398094
0.7398843
0.7399648
0.7400536
0.7401618
0.7403228
0.7404339
0.7405486
0.7406701
0.7408008
0.7409432
0.7411005
0.7412779
0.7414843
0.7417382
0.7423514
0.743104
0.7438391
0.7446286
0.7454925
0.7398096
0.7398853
0.739968
0.7400623
0.7401803
0.7403149
0.7404164
0.7405241
0.7406389
0.7407622
0.7408957
0.7410415
0.7412025
0.7413825
0.7415848
0.7419428
0.7424686
0.7430305
0.7436452
0.7443379
0.7449279
0.7398096
0.7398856
0.7399694
0.7400663
0.7401861
0.7403072
0.7404011
0.7405021
0.7406103
0.7407265
0.7408515
0.7409863
0.741132
0.7412893
0.7414569
0.7417305
0.7421358
0.7425778
0.7430643
0.7436093
0.7440882
0.7444648
0.7398093
0.739885
0.7399688
0.740066
0.7401845
0.7402977
0.7403859
0.7404813
0.7405838
0.7406936
0.7408111
0.7409364
0.7410698
0.7412103
0.7413557
0.7415867
0.7419267
0.7422972
0.7427035
0.7431544
0.7435402
0.7438642
0.7442048
0.7398088
0.7398834
0.7399661
0.7400621
0.740178
0.7402861
0.7403701
0.7404612
0.7405589
0.7406635
0.7407747
0.7408927
0.7410168
0.7411459
0.7412775
0.7414847
0.7417883
0.7421172
0.7424751
0.7428681
0.7431936
0.743457
0.7437701
0.7440946
0.7398391
0.7399848
0.7401588
0.740376
0.7406532
0.740915
0.7398351
0.7399707
0.7401307
0.7403292
0.7405872
0.7408536
0.7410637
0.7398311
0.7399568
0.7401027
0.7402812
0.740515
0.7407714
0.7409927
0.7412192
0.7398271
0.739943
0.740075
0.7402326
0.7404394
0.7406899
0.7409035
0.7411418
0.7413825
0.7398233
0.7399298
0.740048
0.7401835
0.740355
0.7406183
0.7408213
0.7410471
0.741298
0.7415518
0.7398197
0.7399174
0.7400226
0.7401351
0.740248
0.7398164
0.7399064
0.7400003
0.7400941
0.7401746
0.7398137
0.739897
0.7399818
0.740062
0.740124
0.7398114
0.7398896
0.7399675
0.7400384
0.7400898
0.7398098
0.7398842
0.7399574
0.7400226
0.7400684
0.7398086
0.7398806
0.7399512
0.7400138
0.7400574
0.7487801
0.739808
0.7398787
0.7399484
0.7400111
0.7400557
0.7476341
0.7485366
0.7398078
0.7398782
0.7399487
0.740014
0.7400629
0.7464672
0.7471579
0.7480537
0.7398079
0.7398788
0.7399512
0.7400217
0.7400797
0.7452949
0.7457896
0.7464763
0.7473594
0.7398081
0.73988
0.7399552
0.740033
0.7401077
0.7439986
0.7444035
0.744956
0.7456751
0.7465557
0.7398084
0.7398814
0.7399595
0.7400455
0.7401502
0.7403058
0.7404125
0.7405224
0.7406384
0.7407627
0.7408974
0.7410455
0.7412114
0.741403
0.7416371
0.742206
0.7428949
0.7435491
0.7442308
0.7449955
0.7456826
0.7398087
0.7398824
0.7399628
0.7400543
0.7401686
0.7402987
0.7403965
0.7404998
0.7406097
0.7407273
0.740854
0.7409919
0.7411433
0.7413114
0.7414989
0.7418314
0.7423171
0.7428274
0.7433727
0.7439738
0.7445055
0.7449453
0.7398087
0.7398828
0.7399643
0.7400585
0.7401747
0.7402919
0.7403824
0.7404795
0.7405833
0.7406943
0.7408134
0.7409413
0.7410789
0.7412265
0.7413826
0.741638
0.742015
0.7424211
0.7428606
0.7433428
0.7437531
0.7441028
0.7444806
0.7398085
0.7398823
0.7399639
0.7400585
0.7401735
0.7402832
0.7403683
0.7404602
0.7405587
0.7406639
0.740776
0.7408954
0.7410217
0.7411542
0.7412903
0.741507
0.7418253
0.7421688
0.7425407
0.7429467
0.7432814
0.743553
0.7438779
0.7442196
0.739808
0.7398808
0.7399615
0.7400549
0.7401675
0.7402724
0.7403536
0.7404414
0.7405355
0.7406358
0.7407424
0.7408549
0.7409729
0.7410951
0.7412189
0.7414141
0.7417
0.7420072
0.7423383
0.742697
0.7429845
0.7432052
0.7434693
0.7437832
0.7441088
0.7398357
0.7399727
0.7401349
0.7403363
0.7405962
0.7408597
0.7410676
0.7398321
0.7399604
0.7401103
0.7402947
0.7405332
0.7407826
0.7409998
0.7412228
0.7398285
0.739948
0.7400855
0.7402522
0.7404688
0.7407047
0.7409118
0.7411459
0.7413835
0.7398249
0.7399355
0.7400605
0.7402087
0.7404014
0.7406327
0.7408277
0.74105
0.7412989
0.7415507
0.7398213
0.7399233
0.7400358
0.7401638
0.7403247
0.7405702
0.7407559
0.7409615
0.7411947
0.7414568
0.7417239
0.739818
0.7399118
0.7400122
0.740119
0.7402252
0.7398149
0.7399014
0.7399914
0.7400807
0.7401567
0.7398123
0.7398927
0.739974
0.7400506
0.7401094
0.7398102
0.7398857
0.7399606
0.7400285
0.7400774
0.7398086
0.7398806
0.7399512
0.7400138
0.7400574
0.7487801
0.7398076
0.7398772
0.7399454
0.7400056
0.7400473
0.7478918
0.7488284
0.739807
0.7398755
0.739943
0.7400034
0.7400461
0.7469378
0.7476762
0.7486349
0.7398068
0.7398752
0.7399434
0.7400065
0.7400536
0.7459725
0.7465093
0.7472491
0.7482084
0.7398069
0.7398759
0.7399461
0.7400143
0.7400702
0.7449442
0.7453481
0.7458956
0.7466361
0.7475827
0.7398072
0.7398772
0.7399502
0.7400255
0.7400977
0.7437603
0.7441108
0.7445798
0.7451746
0.7459292
0.7467105
0.7398076
0.7398786
0.7399545
0.740038
0.7401394
0.7402899
0.7403926
0.7404982
0.7406092
0.7407277
0.7408557
0.7409958
0.7411518
0.7413311
0.7415487
0.7420812
0.7427192
0.743312
0.7439121
0.744565
0.7451649
0.7457003
0.7398078
0.7398797
0.7399579
0.7400468
0.7401577
0.7402836
0.7403779
0.7404773
0.7405827
0.7406951
0.7408159
0.7409467
0.7410897
0.7412478
0.7414228
0.7417341
0.742187
0.7426562
0.7431485
0.7436779
0.7441272
0.7445211
0.7449622
0.7398079
0.7398801
0.7399596
0.7400511
0.740164
0.7402775
0.7403648
0.7404584
0.7405581
0.7406646
0.7407783
0.7409
0.7410305
0.7411698
0.7413161
0.7415559
0.7419094
0.7422862
0.7426885
0.7431224
0.7434767
0.7437665
0.7441172
0.7444961
0.7398077
0.7398797
0.7399593
0.7400514
0.7401632
0.7402696
0.7403518
0.7404404
0.7405352
0.7406362
0.7407436
0.7408575
0.7409777
0.741103
0.7412311
0.7414354
0.7417354
0.7420564
0.7424003
0.7427709
0.7430663
0.7432933
0.7435656
0.7438914
0.7442341
0.7398073
0.7398784
0.7399571
0.7400481
0.7401577
0.7402595
0.7403381
0.7404229
0.7405136
0.7406101
0.7407123
0.74082
0.7409325
0.7410485
0.7411654
0.7413502
0.7416207
0.7419096
0.7422183
0.7425494
0.7428072
0.7429954
0.7432167
0.7434814
0.7437962
0.7441254
0.7398327
0.7399623
0.7401142
0.7403012
0.7405416
0.7407883
0.7410036
0.7412249
0.7398295
0.7399514
0.7400928
0.7402649
0.7404859
0.7407152
0.7409184
0.7411495
0.7413844
0.7398262
0.7399402
0.7400705
0.7402273
0.7404292
0.7406467
0.7408355
0.741054
0.7413
0.7415489
0.7398229
0.7399287
0.7400477
0.7401878
0.7403687
0.7405838
0.740762
0.7409642
0.7411955
0.7414559
0.7417205
0.7398195
0.7399174
0.7400248
0.7401464
0.7402983
0.7405287
0.7407
0.7408873
0.7410988
0.7413415
0.7416167
0.7419007
0.7398164
0.7399066
0.7400028
0.7401045
0.7402051
0.7398135
0.7398969
0.7399832
0.7400686
0.7401407
0.7398111
0.7398886
0.7399669
0.7400403
0.7400961
0.7398091
0.739882
0.7399543
0.7400195
0.740066
0.7484871
0.7398076
0.7398772
0.7399454
0.7400056
0.7400473
0.7478918
0.7488284
0.7398066
0.7398741
0.7399401
0.7399981
0.740038
0.7471697
0.7479328
0.7489248
0.7398061
0.7398726
0.7399379
0.7399963
0.7400373
0.746406
0.7469757
0.74776
0.7487813
0.7398059
0.7398724
0.7399386
0.7399996
0.7400449
0.7455776
0.7460114
0.7465916
0.747382
0.7484087
0.7398061
0.7398731
0.7399413
0.7400074
0.7400613
0.7446521
0.7449941
0.7454462
0.7460404
0.7468301
0.7477174
0.7398064
0.7398745
0.7399455
0.7400185
0.7400884
0.7435561
0.7438662
0.7442761
0.7447824
0.7454056
0.7460653
0.7467253
0.7398067
0.739876
0.7399499
0.7400309
0.7401292
0.740275
0.7403742
0.7404757
0.7405822
0.7406955
0.7408175
0.7409504
0.741098
0.7412666
0.7414704
0.741972
0.7425683
0.7431131
0.7436524
0.7442221
0.7447195
0.7451807
0.7457176
0.739807
0.7398771
0.7399533
0.7400397
0.7401474
0.7402695
0.7403605
0.7404563
0.7405575
0.7406653
0.7407807
0.7409053
0.741041
0.7411902
0.7413546
0.7416478
0.7420731
0.742509
0.7429597
0.743435
0.7438205
0.7441414
0.7445363
0.7449786
0.7398071
0.7398777
0.7399551
0.7400442
0.7401539
0.7402641
0.7403485
0.7404387
0.7405347
0.7406369
0.7407458
0.740862
0.7409861
0.7411181
0.7412559
0.7414824
0.7418157
0.7421681
0.7425404
0.7429362
0.7432483
0.7434892
0.7437797
0.7441312
0.7445113
0.739807
0.7398773
0.739955
0.7400447
0.7401535
0.7402568
0.7403364
0.740422
0.7405133
0.7406105
0.7407135
0.7408225
0.740937
0.7410561
0.7411772
0.7413707
0.7416546
0.7419565
0.7422774
0.7426194
0.7428841
0.7430775
0.7433051
0.743578
0.7439046
0.744251
0.7398066
0.7398761
0.7399529
0.7400417
0.7401485
0.7402474
0.7403235
0.7404055
0.7404931
0.7405861
0.7406843
0.7407875
0.7408951
0.7410055
0.7411163
0.7412919
0.741549
0.741822
0.7421117
0.7424199
0.7426543
0.7428176
0.7430063
0.7432281
0.7434934
0.7438114
0.7441409
0.73983
0.7399532
0.7400964
0.7402711
0.7404937
0.7407205
0.740922
0.7411514
0.7413849
0.7398272
0.7399435
0.7400774
0.7402393
0.7404452
0.7406565
0.7408417
0.7410573
0.7413009
0.7415472
0.7398241
0.7399332
0.7400573
0.7402055
0.740395
0.7405969
0.7407693
0.7409678
0.7411966
0.7414544
0.7417152
0.739821
0.7399226
0.7400362
0.7401693
0.7403402
0.7405416
0.7407057
0.7408899
0.7410996
0.7413407
0.7416137
0.7418931
0.7398179
0.739912
0.7400149
0.7401308
0.7402749
0.7404926
0.7406518
0.740824
0.7410161
0.7412353
0.741489
0.7417799
0.7420862
0.7398149
0.7399019
0.7399943
0.7400915
0.740187
0.7398122
0.7398927
0.7399758
0.7400576
0.7401263
0.7398099
0.7398849
0.7399604
0.7400308
0.7400841
0.7478936
0.739808
0.7398787
0.7399484
0.7400111
0.7400557
0.7476341
0.7485366
0.7398066
0.7398741
0.7399401
0.7399981
0.740038
0.7471697
0.7479328
0.7489248
0.7398057
0.7398712
0.7399351
0.7399911
0.7400294
0.7466195
0.7472065
0.7480145
0.7490691
0.7398052
0.7398698
0.7399332
0.7399896
0.7400291
0.7459827
0.746441
0.7470511
0.7478845
0.7489748
0.7398051
0.7398697
0.739934
0.7399931
0.7400367
0.7452493
0.745614
0.7460875
0.7467115
0.7475536
0.7485364
0.7398053
0.7398706
0.7399369
0.7400009
0.7400531
0.7444022
0.7446992
0.745086
0.7455802
0.746216
0.7469467
0.7477306
0.7398056
0.739872
0.739941
0.740012
0.7400796
0.7433776
0.7436566
0.7440223
0.7444659
0.7449964
0.7455293
0.7460783
0.7467401
0.739806
0.7398735
0.7399455
0.7400243
0.7401197
0.7402611
0.7403569
0.7404547
0.7405571
0.7406657
0.7407823
0.7409089
0.7410489
0.7412083
0.7414002
0.7418753
0.7424364
0.7429423
0.7434346
0.7439431
0.7443654
0.7447339
0.745196
0.7457344
0.7398063
0.7398747
0.739949
0.7400331
0.7401378
0.7402562