/*--------------------------------*- C++ -*----------------------------------*\
| =========                 |                                                 |
| \\      /  F ield         | OpenFOAM: The Open Source CFD Toolbox           |
|  \\    /   O peration     | Version:  2306                                  |
|   \\  /    A nd           | Website:  www.openfoam.com                      |
|    \\/     M anipulation  |                                                 |
\*---------------------------------------------------------------------------*/
FoamFile
{
    version     2.0;
    format      ascii;
    arch        "LSB;label=32;scalar=64";
    class       volScalarField;
    location    "0.6/phiEC";
    object      T;
}
// * * * * * * * * * * * * * * * * * * * * * * * * * * * * * * * * * * * * * //

dimensions      [0 0 0 1 0 0 0];

internalField   nonuniform List<scalar> 
20000
(
1213.705
1213.703
1215.547
1213.64
1213.699
1215.547
1213.637
1217.984
1215.527
1213.511
1213.693
1215.545
1213.631
1217.983
1215.526
1213.506
1220.494
1217.984
1215.488
1213.323
1213.687
1215.543
1213.624
1217.982
1215.524
1213.497
1220.494
1217.983
1215.486
1213.314
1222.905
1220.501
1217.985
1215.434
1213.085
1213.679
1215.54
1213.614
1217.98
1215.521
1213.484
1220.492
1217.981
1215.483
1213.298
1222.904
1220.5
1217.983
1215.432
1213.068
1225.167
1222.914
1220.516
1217.99
1215.372
1212.887
1213.672
1215.538
1213.604
1217.978
1215.518
1213.469
1220.49
1217.979
1215.479
1213.275
1222.903
1220.499
1217.981
1215.427
1213.037
1225.166
1222.913
1220.515
1217.988
1215.368
1212.859
1227.277
1225.176
1222.932
1220.542
1218.004
1215.327
1212.759
1213.666
1215.535
1213.594
1217.975
1215.514
1213.452
1220.488
1217.976
1215.474
1213.249
1222.901
1220.496
1217.977
1215.421
1212.996
1225.165
1222.911
1220.512
1217.984
1215.361
1212.804
1227.276
1225.175
1222.931
1220.54
1218.002
1215.32
1212.723
1229.244
1227.285
1225.194
1222.963
1220.582
1218.026
1215.3
1212.642
1213.662
1215.533
1213.586
1217.973
1215.511
1213.435
1220.486
1217.972
1215.469
1213.221
1222.899
1220.493
1217.972
1215.414
1212.952
1225.163
1222.908
1220.508
1217.978
1215.351
1212.722
1227.275
1225.173
1222.928
1220.535
1217.996
1215.308
1212.649
1229.243
1227.284
1225.193
1222.961
1220.579
1218.022
1215.292
1212.598
1231.081
1229.251
1227.302
1225.224
1223.008
1220.625
1218.044
1215.281
1212.543
1213.66
1215.531
1213.579
1217.971
1215.507
1213.419
1220.484
1217.969
1215.463
1213.188
1222.896
1220.489
1217.967
1215.405
1212.921
1225.161
1222.905
1220.503
1217.969
1215.342
1212.618
1227.273
1225.171
1222.924
1220.528
1217.987
1215.291
1212.536
1229.242
1227.282
1225.19
1222.956
1220.573
1218.016
1215.275
1212.508
1231.081
1229.251
1227.301
1225.222
1223.006
1220.623
1218.04
1215.27
1212.493
1232.802
1231.088
1229.267
1227.329
1225.268
1223.055
1220.658
1218.067
1215.27
1212.466
1213.66
1215.53
1213.576
1217.97
1215.505
1213.407
1220.482
1217.967
1215.458
1213.156
1222.894
1220.486
1217.961
1215.395
1212.849
1225.159
1222.902
1220.497
1217.959
1215.335
1227.272
1225.168
1222.919
1220.519
1217.973
1215.273
1212.377
1229.241
1227.28
1225.186
1222.949
1220.564
1218.008
1215.251
1212.368
1231.08
1229.249
1227.298
1225.218
1223
1220.618
1218.033
1215.249
1212.39
1232.802
1231.088
1229.266
1227.328
1225.266
1223.053
1220.656
1218.063
1215.258
1212.412
1234.417
1232.808
1231.102
1229.292
1227.37
1225.313
1223.09
1220.694
1218.095
1215.27
1212.416
1213.662
1215.53
1213.576
1217.969
1215.504
1213.401
1220.48
1217.965
1215.453
1213.132
1222.892
1220.484
1217.957
1215.385
1212.776
1225.157
1222.899
1220.491
1217.95
1215.315
1227.27
1225.165
1222.913
1220.508
1217.953
1229.239
1227.278
1225.182
1222.94
1220.548
1217.998
1215.22
1212.168
1231.079
1229.247
1227.295
1225.212
1222.991
1220.612
1218.024
1215.217
1212.23
1232.801
1231.086
1229.263
1227.324
1225.261
1223.05
1220.652
1218.055
1215.233
1212.302
1234.416
1232.808
1231.101
1229.29
1227.368
1225.311
1223.089
1220.692
1218.091
1215.257
1212.36
1235.935
1234.422
1232.821
1231.125
1229.329
1227.411
1225.346
1223.129
1220.734
1218.13
1215.284
1212.392
1213.666
1215.531
1213.579
1217.969
1215.504
1213.401
1220.479
1217.963
1215.451
1213.118
1222.891
1220.482
1217.953
1215.376
1212.721
1225.155
1222.896
1220.487
1217.941
1215.291
1227.268
1225.162
1222.908
1220.498
1217.933
1229.238
1227.275
1225.177
1222.93
1220.522
1231.077
1229.245
1227.291
1225.203
1222.975
1220.605
1218.012
1215.173
1212.003
1232.8
1231.085
1229.26
1227.318
1225.252
1223.044
1220.646
1218.043
1215.194
1212.13
1234.415
1232.806
1231.099
1229.287
1227.363
1225.308
1223.086
1220.689
1218.082
1215.23
1212.246
1235.934
1234.422
1232.82
1231.123
1229.327
1227.41
1225.345
1223.128
1220.733
1218.125
1215.27
1212.336
1237.364
1235.94
1234.434
1232.841
1231.158
1229.366
1227.442
1225.383
1223.17
1220.778
1218.17
1215.31
1212.395
1213.672
1215.533
1213.586
1217.97
1215.505
1213.407
1220.479
1217.963
1215.451
1213.118
1222.89
1220.48
1217.951
1215.371
1212.692
1225.154
1222.894
1220.483
1217.934
1215.271
1227.266
1225.16
1222.903
1220.49
1217.916
1229.236
1227.273
1225.172
1222.92
1220.502
1231.076
1229.243
1227.286
1225.193
1222.95
1232.798
1231.082
1229.257
1227.311
1225.238
1223.039
1220.64
1218.028
1215.14
1211.888
1234.414
1232.805
1231.096
1229.282
1227.356
1225.304
1223.082
1220.683
1218.069
1215.188
1212.07
1235.934
1234.421
1232.818
1231.12
1229.323
1227.407
1225.343
1223.125
1220.729
1218.117
1215.243
1212.223
1237.364
1235.939
1234.433
1232.84
1231.156
1229.365
1227.441
1225.382
1223.169
1220.777
1218.166
1215.298
1212.34
1238.712
1237.369
1235.95
1234.453
1232.872
1231.192
1229.393
1227.475
1225.421
1223.214
1220.826
1218.217
1215.35
1212.423
1213.679
1215.535
1213.594
1217.971
1215.507
1213.419
1220.48
1217.965
1215.453
1213.132
1222.89
1220.48
1217.951
1215.371
1212.692
1225.153
1222.893
1220.482
1217.931
1215.26
1227.265
1225.158
1222.9
1220.484
1217.904
1229.234
1227.27
1225.168
1222.912
1220.487
1231.074
1229.24
1227.282
1225.184
1222.93
1232.797
1231.08
1229.252
1227.302
1225.214
1234.413
1232.803
1231.093
1229.275
1227.343
1225.299
1223.078
1220.676
1218.05
1215.128
1211.824
1235.933
1234.419
1232.816
1231.116
1229.316
1227.403
1225.34
1223.122
1220.724
1218.103
1215.2
1212.049
1237.363
1235.938
1234.431
1232.837
1231.153
1229.362
1227.439
1225.38
1223.167
1220.774
1218.158
1215.272
1212.23
1238.712
1237.368
1235.95
1234.451
1232.87
1231.191
1229.393
1227.474
1225.421
1223.213
1220.825
1218.214
1215.339
1212.369
1239.984
1238.717
1237.379
1235.968
1234.48
1232.902
1231.217
1229.423
1227.51
1225.462
1223.26
1220.876
1218.27
1215.401
1212.476
1213.687
1215.538
1213.604
1217.973
1215.511
1213.435
1220.482
1217.967
1215.458
1213.156
1222.891
1220.482
1217.953
1215.376
1212.721
1225.153
1222.893
1220.482
1217.931
1215.26
1227.265
1225.157
1222.899
1220.48
1217.897
1229.233
1227.269
1225.165
1222.906
1220.477
1231.073
1229.238
1227.278
1225.177
1222.917
1232.795
1231.078
1229.248
1227.294
1225.196
1234.412
1232.801
1231.089
1229.267
1227.321
1235.931
1234.417
1232.812
1231.11
1229.304
1227.399
1225.337
1223.119
1220.716
1218.082
1215.14
1211.809
1237.362
1235.937
1234.429
1232.833
1231.146
1229.358
1227.436
1225.378
1223.165
1220.769
1218.145
1215.232
1212.063
1238.711
1237.368
1235.948
1234.449
1232.867
1231.188
1229.391
1227.473
1225.42
1223.212
1220.823
1218.208
1215.316
1212.262
1239.984
1238.716
1237.378
1235.967
1234.479
1232.901
1231.216
1229.423
1227.509
1225.462
1223.26
1220.876
1218.268
1215.391
1212.422
1241.186
1239.989
1238.726
1237.395
1235.993
1234.508
1232.925
1231.244
1229.455
1227.547
1225.504
1223.308
1220.93
1218.327
1215.463
1213.372
1213.693
1215.54
1213.614
1217.975
1215.514
1213.452
1220.484
1217.969
1215.463
1213.188
1222.892
1220.484
1217.957
1215.385
1212.776
1225.154
1222.894
1220.483
1217.934
1215.271
1227.265
1225.157
1222.899
1220.48
1217.897
1229.233
1227.268
1225.163
1222.903
1220.472
1231.072
1229.237
1227.275
1225.172
1222.908
1232.794
1231.076
1229.245
1227.287
1225.184
1234.411
1232.799
1231.086
1229.259
1227.305
1235.93
1234.416
1232.809
1231.102
1229.284
1237.361
1235.935
1234.426
1232.828
1231.136
1229.354
1227.434
1225.376
1223.161
1220.761
1218.125
1215.177
1211.837
1238.71
1237.366
1235.946
1234.445
1232.861
1231.185
1229.389
1227.471
1225.418
1223.21
1220.819
1218.197
1215.282
1212.103
1239.984
1238.715
1237.377
1235.964
1234.476
1232.899
1231.215
1229.422
1227.509
1225.461
1223.26
1220.875
1218.264
1215.373
1212.314
1241.185
1239.988
1238.725
1237.394
1235.992
1234.507
1232.924
1231.243
1229.455
1227.547
1225.505
1223.309
1220.93
1218.326
1215.454
1213.298
1242.32
1241.19
1239.997
1238.741
1237.419
1236.019
1234.529
1232.95
1231.272
1229.488
1227.585
1225.548
1223.358
1220.984
1218.387
1216.282
1215.092
1213.699
1215.543
1213.624
1217.978
1215.518
1213.469
1220.486
1217.972
1215.469
1213.221
1222.894
1220.486
1217.961
1215.395
1212.849
1225.155
1222.896
1220.487
1217.941
1215.291
1227.265
1225.158
1222.9
1220.484
1217.904
1229.233
1227.268
1225.163
1222.903
1220.472
1231.072
1229.236
1227.274
1225.17
1222.903
1232.793
1231.075
1229.243
1227.282
1225.176
1234.409
1232.797
1231.083
1229.253
1227.294
1235.929
1234.414
1232.806
1231.096
1229.27
1237.36
1235.934
1234.423
1232.821
1231.118
1238.709
1237.365
1235.943
1234.44
1232.851
1231.182
1229.386
1227.469
1225.416
1223.207
1220.812
1218.18
1215.237
1211.898
1239.983
1238.714
1237.375
1235.961
1234.47
1232.896
1231.212
1229.42
1227.507
1225.46
1223.259
1220.874
1218.258
1215.347
1212.157
1241.185
1239.987
1238.724
1237.392
1235.989
1234.505
1232.923
1231.242
1229.454
1227.546
1225.505
1223.31
1220.932
1218.326
1215.438
1213.134
1242.32
1241.189
1239.997
1238.74
1237.417
1236.018
1234.528
1232.949
1231.272
1229.488
1227.585
1225.549
1223.359
1220.986
1218.388
1216.274
1214.982
1243.392
1242.324
1241.198
1240.011
1238.763
1237.443
1236.038
1234.552
1232.976
1231.303
1229.523
1227.625
1225.593
1223.407
1221.039
1219.105
1217.851
1216.824
1213.703
1215.545
1213.631
1217.98
1215.521
1213.484
1220.488
1217.976
1215.474
1213.249
1222.896
1220.489
1217.967
1215.405
1212.921
1225.157
1222.899
1220.491
1217.95
1215.315
1227.266
1225.16
1222.903
1220.49
1217.916
1229.233
1227.269
1225.165
1222.906
1220.477
1231.072
1229.236
1227.274
1225.17
1222.903
1232.793
1231.074
1229.242
1227.28
1225.172
1234.409
1232.796
1231.08
1229.249
1227.287
1235.928
1234.412
1232.803
1231.09
1229.26
1237.359
1235.932
1234.42
1232.815
1231.105
1238.708
1237.363
1235.94
1234.434
1232.835
1239.982
1238.713
1237.372
1235.956
1234.462
1232.893
1231.21
1229.418
1227.506
1225.459
1223.257
1220.869
1218.247
1215.315
1211.964
1241.184
1239.986
1238.722
1237.388
1235.984
1234.503
1232.921
1231.241
1229.453
1227.546
1225.505
1223.311
1220.933
1218.325
1215.419
1212.814
1242.32
1241.189
1239.995
1238.738
1237.415
1236.016
1234.527
1232.948
1231.272
1229.488
1227.586
1225.551
1223.362
1220.991
1218.391
1216.261
1214.722
1243.392
1242.324
1241.197
1240.01
1238.762
1237.442
1236.038
1234.551
1232.975
1231.303
1229.523
1227.625
1225.595
1223.41
1221.043
1219.112
1217.843
1216.686
1244.403
1243.395
1242.332
1241.211
1240.032
1238.785
1237.46
1236.059
1234.575
1233.003
1231.334
1229.558
1227.665
1225.638
1223.457
1221.665
1220.479
1219.42
1218.573
1213.705
1215.547
1213.637
1217.982
1215.524
1213.497
1220.49
1217.979
1215.479
1213.275
1222.899
1220.493
1217.972
1215.414
1212.952
1225.159
1222.902
1220.497
1217.959
1215.335
1227.268
1225.162
1222.908
1220.498
1217.933
1229.234
1227.27
1225.168
1222.912
1220.487
1231.072
1229.237
1227.275
1225.172
1222.908
1232.793
1231.074
1229.242
1227.28
1225.172
1234.408
1232.796
1231.079
1229.247
1227.283
1235.927
1234.411
1232.801
1231.086
1229.253
1237.358
1235.931
1234.417
1232.81
1231.096
1238.707
1237.362
1235.938
1234.428
1232.823
1239.981
1238.711
1237.37
1235.95
1234.447
1241.183
1239.985
1238.72
1237.384
1235.976
1234.5
1232.919
1231.239
1229.452
1227.545
1225.504
1223.311
1220.933
1218.324
1215.403
1211.908
1242.319
1241.187
1239.994
1238.735
1237.41
1236.014
1234.525
1232.947
1231.271
1229.488
1227.586
1225.552
1223.366
1220.997
1218.397
1216.257
1214.158
1243.391
1242.323
1241.196
1240.009
1238.759
1237.44
1236.036
1234.55
1232.975
1231.302
1229.524
1227.627
1225.598
1223.416
1221.05
1219.131
1217.834
1216.352
1244.403
1243.395
1242.331
1241.21
1240.031
1238.785
1237.46
1236.058
1234.575
1233.003
1231.334
1229.559
1227.666
1225.64
1223.46
1221.675
1220.495
1219.413
1218.415
1245.357
1244.407
1243.403
1242.344
1241.231
1240.053
1238.802
1237.479
1236.081
1234.6
1233.031
1231.366
1229.594
1227.705
1225.681
1224.003
1222.86
1221.849
1220.99
1220.342
1215.547
1213.64
1217.983
1215.526
1213.506
1220.492
1217.981
1215.483
1213.298
1222.901
1220.496
1217.977
1215.421
1212.996
1225.161
1222.905
1220.503
1217.969
1215.342
1212.618
1227.27
1225.165
1222.913
1220.508
1217.953
1229.236
1227.273
1225.172
1222.92
1220.502
1231.073
1229.238
1227.278
1225.177
1222.917
1232.793
1231.075
1229.243
1227.282
1225.176
1234.408
1232.796
1231.079
1229.247
1227.283
1235.927
1234.411
1232.8
1231.085
1229.25
1237.357
1235.93
1234.416
1232.806
1231.09
1238.707
1237.36
1235.935
1234.424
1232.815
1239.98
1238.71
1237.367
1235.945
1234.436
1241.182
1239.984
1238.717
1237.379
1235.962
1205.434
1242.318
1241.186
1239.991
1238.731
1237.403
1236.011
1234.524
1232.945
1231.269
1229.487
1227.586
1225.553
1223.369
1221.004
1218.41
1216.363
1212.679
1243.39
1242.322
1241.194
1240.006
1238.755
1237.438
1236.035
1234.549
1232.974
1231.302
1229.524
1227.629
1225.602
1223.424
1221.063
1219.189
1217.844
1215.64
1244.403
1243.394
1242.33
1241.208
1240.029
1238.783
1237.459
1236.058
1234.575
1233.003
1231.335
1229.561
1227.669
1225.646
1223.469
1221.701
1220.541
1219.402
1218.037
1245.357
1244.406
1243.402
1242.344
1241.23
1240.052
1238.801
1237.479
1236.081
1234.6
1233.032
1231.367
1229.596
1227.707
1225.685
1224.014
1222.882
1221.874
1220.982
1220.175
1246.256
1245.361
1244.414
1243.415
1242.363
1241.25
1240.069
1238.82
1237.5
1236.104
1234.626
1233.061
1231.399
1229.63
1227.743
1226.162
1225.047
1224.052
1223.216
1222.561
1221.289
1217.984
1215.527
1213.511
1220.494
1217.983
1215.486
1213.314
1222.903
1220.499
1217.981
1215.427
1213.037
1225.163
1222.908
1220.508
1217.978
1215.351
1212.722
1227.272
1225.168
1222.919
1220.519
1217.973
1215.273
1212.377
1229.238
1227.275
1225.177
1222.93
1220.522
1231.074
1229.24
1227.282
1225.184
1222.93
1232.794
1231.076
1229.245
1227.287
1225.184
1234.409
1232.796
1231.08
1229.249
1227.287
1235.927
1234.411
1232.8
1231.085
1229.25
1237.357
1235.929
1234.415
1232.805
1231.087
1238.706
1237.36
1235.934
1234.421
1232.81
1239.979
1238.709
1237.365
1235.941
1234.428
1241.181
1239.982
1238.715
1237.374
1235.952
1197.686
1242.317
1241.185
1239.989
1238.726
1237.39
1217.806
1207.679
1243.39
1242.321
1241.192
1240.002
1238.748
1237.435
1236.033
1234.548
1232.973
1231.301
1229.524
1227.63
1225.606
1223.433
1221.082
1219.463
1217.983
1214.001
1244.402
1243.393
1242.329
1241.206
1240.025
1238.781
1237.457
1236.057
1234.574
1233.003
1231.335
1229.562
1227.673
1225.654
1223.482
1221.772
1220.669
1219.409
1217.263
1245.357
1244.406
1243.401
1242.342
1241.227
1240.051
1238.8
1237.478
1236.08
1234.6
1233.032
1231.368
1229.599
1227.712
1225.693
1224.041
1222.941
1221.938
1220.968
1219.779
1246.256
1245.36
1244.413
1243.414
1242.362
1241.25
1240.068
1238.819
1237.5
1236.104
1234.627
1233.061
1231.4
1229.633
1227.747
1226.172
1225.07
1224.083
1223.245
1222.552
1221.122
1247.102
1246.259
1245.367
1244.425
1243.432
1242.382
1241.265
1240.085
1238.839
1237.521
1236.128
1234.653
1233.09
1231.431
1229.665
1228.169
1227.08
1226.088
1225.238
1224.578
1223.392
1221.391
1220.494
1217.984
1215.488
1213.323
1222.904
1220.5
1217.983
1215.432
1213.068
1225.165
1222.911
1220.512
1217.984
1215.361
1212.804
1227.273
1225.171
1222.924
1220.528
1217.987
1215.291
1212.536
1229.239
1227.278
1225.182
1222.94
1220.548
1217.998
1215.22
1212.168
1231.076
1229.243
1227.286
1225.193
1222.95
1232.795
1231.078
1229.248
1227.294
1225.196
1234.409
1232.797
1231.083
1229.253
1227.294
1235.927
1234.411
1232.801
1231.086
1229.253
1237.357
1235.929
1234.415
1232.805
1231.087
1238.706
1237.359
1235.933
1234.419
1232.807
1239.978
1238.708
1237.363
1235.938
1234.423
1241.181
1239.981
1238.713
1237.37
1235.945
1191.531
1242.316
1241.184
1239.987
1238.721
1237.38
1217.097
1201.586
1243.389
1242.32
1241.19
1239.997
1238.736
1222.079
1218.724
1210.078
1244.401
1243.392
1242.327
1241.202
1240.018
1238.778
1237.455
1236.055
1234.573
1233.002
1231.335
1229.564
1227.677
1225.663
1223.502
1222.07
1221.101
1219.507
1215.678
1245.356
1244.405
1243.4
1242.339
1241.224
1240.049
1238.799
1237.477
1236.079
1234.6
1233.033
1231.37
1229.602
1227.72
1225.706
1224.11
1223.091
1222.099
1220.96
1219.008
1246.256
1245.36
1244.412
1243.412
1242.36
1241.248
1240.067
1238.819
1237.499
1236.104
1234.627
1233.063
1231.403
1229.637
1227.754
1226.197
1225.128
1224.165
1223.319
1222.533
1220.729
1247.102
1246.259
1245.367
1244.424
1243.432
1242.381
1241.265
1240.085
1238.838
1237.521
1236.128
1234.654
1233.092
1231.433
1229.668
1228.179
1227.101
1226.12
1225.276
1224.61
1223.383
1221.224
1247.896
1247.105
1246.266
1245.378
1244.442
1243.45
1242.396
1241.281
1240.103
1238.859
1237.543
1236.153
1234.68
1233.12
1231.462
1230.045
1228.982
1227.994
1227.122
1226.418
1225.294
1223.481
1221.494
1222.905
1220.501
1217.985
1215.434
1213.085
1225.166
1222.913
1220.515
1217.988
1215.368
1212.859
1227.275
1225.173
1222.928
1220.535
1217.996
1215.308
1212.649
1229.241
1227.28
1225.186
1222.949
1220.564
1218.008
1215.251
1212.368
1231.077
1229.245
1227.291
1225.203
1222.975
1220.605
1218.012
1215.173
1212.003
1232.797
1231.08
1229.252
1227.302
1225.214
1234.411
1232.799
1231.086
1229.259
1227.305
1235.928
1234.412
1232.803
1231.09
1229.26
1237.357
1235.93
1234.416
1232.806
1231.09
1238.706
1237.359
1235.933
1234.419
1232.807
1239.978
1238.707
1237.363
1235.937
1234.421
1241.18
1239.98
1238.711
1237.367
1235.941
1187.385
1242.316
1241.183
1239.985
1238.718
1237.374
1215.83
1196.482
1243.388
1242.318
1241.188
1239.993
1238.727
1222.905
1218.235
1205.3
1244.4
1243.391
1242.325
1241.198
1240.007
1224.784
1222.793
1219.848
1212.597
1245.355
1244.404
1243.398
1242.336
1241.217
1240.046
1238.797
1237.476
1236.078
1234.599
1233.032
1231.371
1229.606
1227.728
1225.725
1224.393
1223.57
1222.536
1220.994
1217.583
1246.255
1245.359
1244.411
1243.41
1242.356
1241.246
1240.066
1238.818
1237.498
1236.103
1234.627
1233.064
1231.406
1229.644
1227.766
1226.262
1225.276
1224.357
1223.485
1222.505
1219.982
1247.101
1246.258
1245.366
1244.423
1243.429
1242.38
1241.264
1240.084
1238.838
1237.521
1236.129
1234.655
1233.094
1231.437
1229.675
1228.202
1227.157
1226.202
1225.37
1224.685
1223.361
1220.832
1247.896
1247.105
1246.265
1245.378
1244.441
1243.45
1242.395
1241.281
1240.103
1238.859
1237.544
1236.153
1234.682
1233.122
1231.465
1230.054
1229.002
1228.025
1227.161
1226.46
1225.327
1223.472
1221.326
1248.641
1247.899
1247.111
1246.277
1245.395
1244.459
1243.464
1242.411
1241.298
1240.122
1238.88
1237.566
1236.178
1234.707
1233.148
1231.804
1230.771
1229.792
1228.903
1228.151
1227.038
1225.372
1223.571
1221.597
1225.167
1222.914
1220.516
1217.99
1215.372
1212.887
1227.276
1225.175
1222.931
1220.54
1218.002
1215.32
1212.723
1229.242
1227.282
1225.19
1222.956
1220.573
1218.016
1215.275
1212.508
1231.079
1229.247
1227.295
1225.212
1222.991
1220.612
1218.024
1215.217
1212.23
1232.798
1231.082
1229.257
1227.311
1225.238
1223.039
1220.64
1218.028
1215.14
1211.888
1234.412
1232.801
1231.089
1229.267
1227.321
1235.929
1234.414
1232.806
1231.096
1229.27
1237.358
1235.931
1234.417
1232.81
1231.096
1238.706
1237.36
1235.934
1234.421
1232.81
1239.978
1238.707
1237.363
1235.937
1234.421
1241.18
1239.98
1238.711
1237.366
1235.939
1185.31
1242.315
1241.182
1239.984
1238.715
1237.37
1214.681
1192.958
1243.387
1242.317
1241.186
1239.99
1238.721
1223.061
1217.275
1201.145
1244.4
1243.39
1242.322
1241.194
1239.999
1225.974
1223.548
1219.466
1208.889
1245.354
1244.403
1243.396
1242.332
1241.207
1226.931
1225.382
1223.658
1221.095
1215.201
1246.254
1245.358
1244.409
1243.407
1242.35
1241.244
1240.064
1238.817
1237.497
1236.103
1234.627
1233.065
1231.409
1229.652
1227.784
1226.522
1225.735
1224.855
1223.86
1222.473
1218.665
1247.101
1246.258
1245.365
1244.421
1243.426
1242.378
1241.262
1240.083
1238.837
1237.521
1236.129
1234.656
1233.097
1231.444
1229.686
1228.262
1227.295
1226.392
1225.574
1224.836
1223.322
1220.087
1247.896
1247.104
1246.265
1245.376
1244.439
1243.448
1242.394
1241.28
1240.103
1238.859
1237.544
1236.154
1234.684
1233.126
1231.471
1230.076
1229.054
1228.103
1227.257
1226.558
1225.401
1223.45
1220.935
1248.641
1247.899
1247.111
1246.276
1245.394
1244.459
1243.463
1242.41
1241.298
1240.122
1238.88
1237.567
1236.179
1234.709
1233.151
1231.812
1230.79
1229.821
1228.941
1228.194
1227.08
1225.404
1223.562
1221.429
1249.336
1248.644
1247.905
1247.122
1246.292
1245.411
1244.472
1243.478
1242.427
1241.316
1240.141
1238.901
1237.59
1236.202
1234.733
1233.458
1232.457
1231.494
1230.597
1229.807
1228.691
1227.104
1225.449
1223.66
1221.699
1227.277
1225.176
1222.932
1220.542
1218.004
1215.327
1212.759
1229.243
1227.284
1225.193
1222.961
1220.579
1218.022
1215.292
1212.598
1231.08
1229.249
1227.298
1225.218
1223
1220.618
1218.033
1215.249
1212.39
1232.8
1231.085
1229.26
1227.318
1225.252
1223.044
1220.646
1218.043
1215.194
1212.13
1234.413
1232.803
1231.093
1229.275
1227.343
1225.299
1223.078
1220.676
1218.05
1215.128
1211.824
1235.93
1234.416
1232.809
1231.102
1229.284
1237.359
1235.932
1234.42
1232.815
1231.105
1238.707
1237.36
1235.935
1234.424
1232.815
1239.978
1238.708
1237.363
1235.938
1234.423
1241.18
1239.98
1238.711
1237.366
1235.939
1185.31
1242.315
1241.181
1239.983
1238.714
1237.368
1214.021
1191.174
1243.387
1242.317
1241.185
1239.987
1238.717
1222.979
1216.374
1198.212
1244.399
1243.389
1242.321
1241.191
1239.993
1226.536
1223.763
1218.732
1205.583
1245.354
1244.401
1243.394
1242.328
1241.199
1228.144
1226.428
1224.282
1220.768
1212.394
1246.253
1245.357
1244.407
1243.403
1242.34
1228.826
1227.448
1226.103
1224.603
1222.417
1216.606
1247.1
1246.257
1245.363
1244.417
1243.42
1242.376
1241.261
1240.082
1238.837
1237.52
1236.129
1234.657
1233.1
1231.451
1229.702
1228.497
1227.717
1226.874
1226.018
1225.125
1223.257
1218.783
1247.895
1247.103
1246.263
1245.374
1244.436
1243.447
1242.393
1241.279
1240.102
1238.858
1237.544
1236.156
1234.687
1233.131
1231.481
1230.13
1229.181
1228.281
1227.46
1226.752
1225.539
1223.41
1220.194
1248.64
1247.898
1247.11
1246.274
1245.392
1244.458
1243.462
1242.41
1241.297
1240.122
1238.88
1237.568
1236.181
1234.713
1233.157
1231.833
1230.838
1229.894
1229.032
1228.295
1227.178
1225.478
1223.54
1221.039
1249.336
1248.643
1247.905
1247.121
1246.291
1245.411
1244.472
1243.478
1242.426
1241.316
1240.142
1238.901
1237.591
1236.204
1234.736
1233.466
1232.475
1231.521
1230.632
1229.848
1228.734
1227.147
1225.481
1223.651
1221.533
1249.985
1249.339
1248.65
1247.916
1247.137
1246.308
1245.423
1244.486
1243.493
1242.443
1241.334
1240.162
1238.923
1237.613
1236.226
1235.016
1234.05
1233.107
1232.212
1231.396
1230.28
1228.749
1227.171
1225.526
1223.75
1221.796
1229.244
1227.285
1225.194
1222.963
1220.582
1218.026
1215.3
1212.642
1231.081
1229.251
1227.301
1225.222
1223.006
1220.623
1218.04
1215.27
1212.493
1232.801
1231.086
1229.263
1227.324
1225.261
1223.05
1220.652
1218.055
1215.233
1212.302
1234.414
1232.805
1231.096
1229.282
1227.356
1225.304
1223.082
1220.683
1218.069
1215.188
1212.07
1235.931
1234.417
1232.812
1231.11
1229.304
1227.399
1225.337
1223.119
1220.716
1218.082
1215.14
1211.809
1237.36
1235.934
1234.423
1232.821
1231.118
1238.707
1237.362
1235.938
1234.428
1232.823
1239.979
1238.709
1237.365
1235.941
1234.428
1241.18
1239.98
1238.711
1237.367
1235.941
1187.385
1242.315
1241.181
1239.983
1238.714
1237.368
1214.021
1191.174
1243.386
1242.316
1241.184
1239.986
1238.716
1222.886
1215.848
1196.712
1244.398
1243.388
1242.32
1241.188
1239.989
1226.787
1223.753
1218.031
1203.204
1245.353
1244.401
1243.392
1242.325
1241.194
1228.79
1226.972
1224.507
1220.202
1209.847
1246.253
1245.356
1244.405
1243.399
1242.333
1229.964
1228.507
1226.963
1225.081
1222.12
1214.215
1247.099
1246.256
1245.361
1244.414
1243.411
1230.577
1229.282
1228.07
1226.885
1225.592
1223.139
1216.758
1247.894
1247.102
1246.262
1245.371
1244.431
1243.445
1242.392
1241.278
1240.101
1238.858
1237.544
1236.156
1234.689
1233.138
1231.496
1230.345
1229.566
1228.728
1227.897
1227.113
1225.778
1223.342
1218.901
1248.64
1247.898
1247.109
1246.272
1245.389
1244.456
1243.461
1242.409
1241.297
1240.122
1238.88
1237.569
1236.183
1234.718
1233.166
1231.883
1230.955
1230.059
1229.224
1228.491
1227.36
1225.614
1223.498
1220.301
1249.336
1248.643
1247.904
1247.12
1246.29
1245.409
1244.471
1243.477
1242.426
1241.315
1240.142
1238.902
1237.593
1236.208
1234.741
1233.485
1232.52
1231.588
1230.718
1229.945
1228.835
1227.245
1225.555
1223.629
1221.143
1249.984
1249.339
1248.649
1247.915
1247.136
1246.308
1245.423
1244.485
1243.493
1242.443
1241.334
1240.162
1238.924
1237.614
1236.229
1235.023
1234.066
1233.132
1232.245
1231.435
1230.322
1228.793
1227.214
1225.558
1223.741
1221.63
1250.586
1249.987
1249.345
1248.659
1247.93
1247.152
1246.32
1245.437
1244.5
1243.509
1242.461
1241.353
1240.182
1238.944
1237.635
1236.486
1235.556
1234.638
1233.753
1232.925
1231.815
1230.331
1228.807
1227.238
1225.603
1223.834
1221.871
1231.081
1229.251
1227.302
1225.224
1223.008
1220.625
1218.044
1215.281
1212.543
1232.802
1231.088
1229.266
1227.328
1225.266
1223.053
1220.656
1218.063
1215.258
1212.412
1234.415
1232.806
1231.099
1229.287
1227.363
1225.308
1223.086
1220.689
1218.082
1215.23
1212.246
1235.933
1234.419
1232.816
1231.116
1229.316
1227.403
1225.34
1223.122
1220.724
1218.103
1215.2
1212.049
1237.361
1235.935
1234.426
1232.828
1231.136
1229.354
1227.434
1225.376
1223.161
1220.761
1218.125
1215.177
1211.837
1238.708
1237.363
1235.94
1234.434
1232.835
1239.98
1238.71
1237.367
1235.945
1234.436
1241.181
1239.981
1238.713
1237.37
1235.945
1191.531
1242.315
1241.182
1239.984
1238.715
1237.37
1214.681
1192.958
1243.386
1242.316
1241.184
1239.986
1238.716
1222.886
1215.848
1196.712
1244.398
1243.388
1242.319
1241.187
1239.987
1226.88
1223.704
1217.619
1201.974
1245.353
1244.4
1243.391
1242.323
1241.19
1229.128
1227.234
1224.539
1219.664
1207.983
1246.252
1245.355
1244.404
1243.396
1242.328
1230.595
1229.114
1227.455
1225.286
1221.683
1212.032
1247.099
1246.255
1245.359
1244.41
1243.404
1231.619
1230.274
1228.943
1227.558
1225.926
1222.85
1214.41
1247.894
1247.101
1246.26
1245.367
1244.421
1232.226
1230.983
1229.828
1228.742
1227.698
1226.126
1223.217
1216.91
1248.639
1247.897
1247.107
1246.269
1245.384
1244.454
1243.46
1242.408
1241.296
1240.121
1238.88
1237.57
1236.186
1234.724
1233.179
1232.079
1231.306
1230.468
1229.633
1228.854
1227.673
1225.848
1223.426
1219.021
1249.335
1248.642
1247.903
1247.118
1246.287
1245.408
1244.47
1243.476
1242.426
1241.315
1240.142
1238.903
1237.595
1236.212
1234.75
1233.531
1232.628
1231.742
1230.897
1230.132
1229.021
1227.425
1225.69
1223.586
1220.409
1249.984
1249.338
1248.648
1247.914
1247.134
1246.307
1245.422
1244.485
1243.493
1242.443
1241.334
1240.163
1238.925
1237.617
1236.234
1235.041
1234.108
1233.196
1232.325
1231.527
1230.419
1228.893
1227.311
1225.631
1223.718
1221.242
1250.586
1249.987
1249.345
1248.659
1247.93
1247.152
1246.32
1245.436
1244.5
1243.509
1242.461
1241.353
1240.183
1238.946
1237.637
1236.493
1235.572
1234.663
1233.784
1232.961
1231.855
1230.373
1228.851
1227.28
1225.635
1223.825
1221.705
1251.142
1250.589
1249.993
1249.355
1248.674
1247.945
1247.164
1246.333
1245.451
1244.516
1243.526
1242.479
1241.372
1240.202
1238.965
1237.875
1236.983
1236.094
1235.223
1234.393
1233.298
1231.86
1230.382
1228.865
1227.304
1225.675
1223.898
1221.931
1232.802
1231.088
1229.267
1227.329
1225.268
1223.055
1220.658
1218.067
1215.27
1212.466
1234.416
1232.808
1231.101
1229.29
1227.368
1225.311
1223.089
1220.692
1218.091
1215.257
1212.36
1235.934
1234.421
1232.818
1231.12
1229.323
1227.407
1225.343
1223.125
1220.729
1218.117
1215.243
1212.223
1237.362
1235.937
1234.429
1232.833
1231.146
1229.358
1227.436
1225.378
1223.165
1220.769
1218.145
1215.232
1212.063
1238.709
1237.365
1235.943
1234.44
1232.851
1231.182
1229.386
1227.469
1225.416
1223.207
1220.812
1218.18
1215.237
1211.898
1239.981
1238.711
1237.37
1235.95
1234.447
1241.181
1239.982
1238.715
1237.374
1235.952
1197.686
1242.316
1241.183
1239.985
1238.718
1237.374
1215.83
1196.482
1243.387
1242.317
1241.185
1239.987
1238.717
1222.979
1216.374
1198.212
1244.398
1243.388
1242.319
1241.187
1239.987
1226.88
1223.704
1217.619
1201.974
1245.352
1244.4
1243.39
1242.322
1241.189
1229.273
1227.337
1224.52
1219.346
1207.009
1246.252
1245.354
1244.403
1243.394
1242.325
1230.939
1229.443
1227.707
1225.339
1221.278
1210.421
1247.098
1246.254
1245.358
1244.407
1243.399
1232.207
1230.863
1229.484
1227.977
1226.092
1222.468
1212.266
1247.893
1247.1
1246.258
1245.364
1244.415
1233.178
1231.894
1230.649
1229.431
1228.194
1226.388
1222.929
1214.605
1248.638
1247.896
1247.105
1246.266
1245.375
1233.791
1232.592
1231.47
1230.418
1229.439
1228.134
1226.184
1223.296
1217.062
1249.335
1248.641
1247.901
1247.115
1246.282
1245.406
1244.469
1243.475
1242.425
1241.315
1240.142
1238.904
1237.597
1236.218
1234.762
1233.712
1232.95
1232.117
1231.275
1230.477
1229.341
1227.733
1225.918
1223.511
1219.142
1249.984
1249.338
1248.647
1247.911
1247.132
1246.305
1245.421
1244.484
1243.492
1242.443
1241.335
1240.164
1238.928
1237.622
1236.242
1235.085
1234.209
1233.338
1232.492
1231.703
1230.599
1229.078
1227.49
1225.765
1223.675
1220.511
1250.586
1249.987
1249.344
1248.657
1247.928
1247.151
1246.319
1245.436
1244.5
1243.509
1242.461
1241.354
1240.185
1238.949
1237.642
1236.51
1235.612
1234.722
1233.859
1233.048
1231.947
1230.47
1228.951
1227.377
1225.708
1223.802
1221.318
1251.142
1250.589
1249.993
1249.354