/*--------------------------------*- C++ -*----------------------------------*\
| =========                 |                                                 |
| \\      /  F ield         | OpenFOAM: The Open Source CFD Toolbox           |
|  \\    /   O peration     | Version:  2306                                  |
|   \\  /    A nd           | Website:  www.openfoam.com                      |
|    \\/     M anipulation  |                                                 |
\*---------------------------------------------------------------------------*/
FoamFile
{
    version     2.0;
    format      ascii;
    arch        "LSB;label=32;scalar=64";
    class       volScalarField;
    location    "1.5/electrolyte";
    object      T;
}
// * * * * * * * * * * * * * * * * * * * * * * * * * * * * * * * * * * * * * //

dimensions      [0 0 0 1 0 0 0];

internalField   nonuniform List<scalar> 
4000
(
1220.271
1220.099
1222.332
1220.281
1219.703
1222.322
1220.11
1224.192
1222.338
1220.292
1218.965
1222.297
1219.714
1224.226
1222.327
1220.12
1225.903
1224.194
1222.343
1220.302
1217.721
1222.246
1218.979
1224.301
1222.301
1219.725
1225.949
1224.227
1222.333
1220.131
1227.53
1225.901
1224.195
1222.349
1220.312
1215.886
1222.149
1217.742
1224.432
1222.249
1218.993
1226.05
1224.301
1222.306
1219.737
1227.577
1225.946
1224.228
1222.338
1220.141
1229.094
1227.524
1225.899
1224.196
1222.354
1213.792
1221.974
1215.923
1224.637
1222.149
1217.763
1226.231
1224.43
1222.251
1219.007
1227.683
1226.047
1224.301
1222.31
1219.748
1229.14
1227.571
1225.943
1224.229
1222.342
1230.605
1229.087
1227.519
1225.896
1224.197
1211.872
1221.676
1213.851
1224.902
1221.969
1215.96
1226.519
1224.631
1222.148
1217.784
1227.872
1226.225
1224.428
1222.254
1219.021
1229.243
1227.676
1226.043
1224.3
1222.314
1230.648
1229.132
1227.565
1225.94
1224.229
1232.061
1230.595
1229.079
1227.513
1225.893
1210.444
1221.32
1211.953
1225.111
1221.67
1213.909
1226.907
1224.887
1221.963
1215.996
1228.175
1226.509
1224.624
1222.148
1217.806
1229.427
1227.863
1226.22
1224.425
1222.256
1230.746
1229.234
1227.67
1226.039
1224.3
1232.102
1230.638
1229.124
1227.559
1225.937
1233.462
1232.049
1230.585
1229.071
1227.507
1209.691
1221.008
1210.54
1225.232
1221.316
1212.032
1227.267
1225.091
1221.664
1213.967
1228.586
1226.889
1224.872
1221.958
1216.033
1229.722
1228.162
1226.499
1224.616
1222.147
1230.92
1229.417
1227.855
1226.213
1224.422
1232.194
1230.735
1229.225
1227.662
1226.034
1233.501
1232.09
1230.628
1229.115
1227.553
1234.809
1233.45
1232.038
1230.575
1229.062
1209.691
1220.829
1209.795
1225.285
1221.009
1210.635
1227.536
1225.21
1221.313
1212.11
1228.981
1227.243
1225.071
1221.658
1214.024
1230.124
1228.567
1226.871
1224.857
1221.953
1231.2
1229.708
1228.149
1226.488
1224.609
1232.359
1230.908
1229.406
1227.846
1226.207
1233.588
1232.182
1230.724
1229.216
1227.655
1234.845
1233.488
1232.079
1230.617
1229.107
1236.1
1234.796
1233.437
1232.026
1230.564
1210.444
1220.829
1209.795
1225.302
1220.832
1209.897
1227.707
1225.262
1221.008
1210.728
1229.29
1227.509
1225.187
1221.309
1212.186
1230.515
1228.956
1227.218
1225.05
1221.651
1231.583
1230.104
1228.547
1226.852
1224.842
1232.623
1231.185
1229.693
1228.136
1226.477
1233.744
1232.345
1230.896
1229.395
1227.836
1234.928
1233.575
1232.17
1230.713
1229.206
1236.135
1234.832
1233.476
1232.067
1230.607
1237.336
1236.086
1234.782
1233.425
1232.015
1211.872
1221.008
1210.54
1225.302
1220.832
1209.897
1227.789
1225.279
1220.834
1209.998
1229.494
1227.678
1225.24
1221.008
1210.819
1230.825
1229.261
1227.481
1225.165
1221.305
1231.956
1230.489
1228.93
1227.194
1225.03
1232.984
1231.562
1230.083
1228.527
1226.833
1233.993
1232.607
1231.17
1229.679
1228.123
1235.075
1233.729
1232.332
1230.883
1229.383
1236.213
1234.914
1233.562
1232.157
1230.702
1237.369
1236.121
1234.818
1233.463
1232.055
1238.517
1237.321
1236.072
1234.769
1233.412
1213.792
1221.32
1211.953
1225.285
1221.009
1210.635
1227.789
1225.279
1220.834
1209.998
1229.595
1227.759
1225.257
1220.835
1210.097
1231.033
1229.463
1227.648
1225.216
1221.007
1232.255
1230.796
1229.232
1227.453
1225.142
1233.337
1231.931
1230.463
1228.904
1227.169
1234.333
1232.963
1231.541
1230.062
1228.506
1235.311
1233.976
1232.591
1231.154
1229.664
1236.353
1235.06
1233.715
1232.318
1230.87
1237.443
1236.199
1234.9
1233.548
1232.144
1238.548
1237.354
1236.107
1234.805
1233.45
1239.643
1238.502
1237.307
1236.058
1234.755
1215.886
1221.676
1213.851
1225.232
1221.316
1212.032
1227.707
1225.262
1221.008
1210.728
1229.595
1227.759
1225.257
1220.835
1210.097
1231.137
1229.563
1227.729
1225.234
1220.836
1232.457
1231.003
1229.433
1227.619
1225.193
1233.622
1232.227
1230.767
1229.203
1227.425
1234.668
1233.313
1231.905
1230.437
1228.878
1235.633
1234.312
1232.942
1231.52
1230.041
1236.577
1235.294
1233.96
1232.574
1231.138
1237.576
1236.337
1235.045
1233.7
1232.304
1238.619
1237.429
1236.184
1234.886
1233.535
1239.673
1238.533
1237.34
1236.092
1234.791
1240.716
1239.628
1238.487
1237.293
1236.044
1217.721
1221.974
1215.923
1225.111
1221.67
1213.909
1227.536
1225.21
1221.313
1212.11
1229.494
1227.678
1225.24
1221.008
1210.819
1231.137
1229.563
1227.729
1225.234
1220.836
1232.558
1231.105
1229.532
1227.698
1225.21
1233.814
1232.427
1230.972
1229.402
1227.589
1234.937
1233.594
1232.199
1230.738
1229.173
1235.95
1234.643
1233.287
1231.88
1230.411
1236.882
1235.612
1234.291
1232.92
1231.498
1237.79
1236.559
1235.277
1233.942
1232.557
1238.747
1237.561
1236.322
1235.03
1233.685
1239.742
1238.604
1237.414
1236.169
1234.871
1240.745
1239.659
1238.519
1237.325
1236.078
1241.737
1240.702
1239.614
1238.473
1237.278
1218.965
1222.149
1217.742
1224.902
1221.969
1215.96
1227.267
1225.091
1221.664
1213.967
1229.29
1227.509
1225.187
1221.309
1212.186
1231.033
1229.463
1227.648
1225.216
1221.007
1232.558
1231.105
1229.532
1227.698
1225.21
1233.911
1232.527
1231.074
1229.5
1227.668
1235.12
1233.786
1232.398
1230.941
1229.37
1236.206
1234.911
1233.567
1232.17
1230.709
1237.183
1235.926
1234.619
1233.262
1231.854
1238.08
1236.861
1235.591
1234.27
1232.899
1238.95
1237.772
1236.542
1235.259
1233.925
1239.863
1238.731
1237.545
1236.306
1235.014
1240.811
1239.727
1238.589
1237.399
1236.154
1241.765
1240.731
1239.644
1238.504
1237.31
1242.707
1241.723
1240.687
1239.599
1238.458
1219.703
1222.246
1218.979
1224.637
1222.149
1217.763
1226.907
1224.887
1221.963
1215.996
1228.981
1227.243
1225.071
1221.658
1214.024
1230.825
1229.261
1227.481
1225.165
1221.305
1232.457
1231.003
1229.433
1227.619
1225.193
1233.911
1232.527
1231.074
1229.5
1227.668
1235.212
1233.881
1232.497
1231.043
1229.468
1236.38
1235.093
1233.757
1232.368
1230.911
1237.426
1236.18
1234.884
1233.539
1232.142
1238.367
1237.16
1235.902
1234.594
1233.237
1239.227
1238.06
1236.841
1235.57
1234.249
1240.058
1238.933
1237.755
1236.524
1235.242
1240.928
1239.848
1238.715
1237.529
1236.29
1241.828
1240.796
1239.711
1238.574
1237.383
1242.734
1241.751
1240.716
1239.629
1238.489
1243.627
1242.693
1241.708
1240.672
1239.584
1220.099
1222.297
1219.714
1224.432
1222.249
1218.993
1226.519
1224.631
1222.148
1217.784
1228.586
1226.889
1224.872
1221.958
1216.033
1230.515
1228.956
1227.218
1225.05
1221.651
1232.255
1230.796
1229.232
1227.453
1225.142
1233.814
1232.427
1230.972
1229.402
1227.589
1235.212
1233.881
1232.497
1231.043
1229.468
1236.467
1235.184
1233.852
1232.467
1231.011
1237.592
1236.353
1235.065
1233.728
1232.338
1238.599
1237.401
1236.154
1234.858
1233.512
1239.502
1238.344
1237.136
1235.878
1234.57
1240.324
1239.208
1238.04
1236.82
1235.549
1241.115
1240.041
1238.915
1237.737
1236.507
1241.941
1240.912
1239.832
1238.699
1237.513
1242.795
1241.813
1240.781
1239.696
1238.558
1243.653
1242.719
1241.736
1240.701
1239.613
1244.497
1243.612
1242.678
1241.693
1240.657
1220.271
1222.322
1220.11
1224.301
1222.301
1219.725
1226.231
1224.43
1222.251
1219.007
1228.175
1226.509
1224.624
1222.148
1217.806
1230.124
1228.567
1226.871
1224.857
1221.953
1231.956
1230.489
1228.93
1227.194
1225.03
1233.622
1232.227
1230.767
1229.203
1227.425
1235.12
1233.786
1232.398
1230.941
1229.37
1236.467
1235.184
1233.852
1232.467
1231.011
1237.675
1236.44
1235.155
1233.823
1232.436
1238.758
1237.566
1236.326
1235.037
1233.699
1239.724
1238.575
1237.377
1236.128
1234.831
1240.587
1239.48
1238.322
1237.113
1235.854
1241.37
1240.304
1239.188
1238.019
1236.799
1242.121
1241.098
1240.024
1238.898
1237.719
1242.903
1241.925
1240.896
1239.816
1238.683
1243.711
1242.78
1241.798
1240.765
1239.68
1244.522
1243.638
1242.705
1241.721
1240.685
1245.32
1244.483
1243.598
1242.663
1241.678
1222.332
1220.281
1224.226
1222.327
1220.12
1226.05
1224.301
1222.306
1219.737
1227.872
1226.225
1224.428
1222.254
1219.021
1229.722
1228.162
1226.499
1224.616
1222.147
1231.583
1230.104
1228.547
1226.852
1224.842
1233.337
1231.931
1230.463
1228.904
1227.169
1234.937
1233.594
1232.199
1230.738
1229.173
1236.38
1235.093
1233.757
1232.368
1230.911
1237.675
1236.44
1235.155
1233.823
1232.436
1238.838
1237.649
1236.412
1235.127
1233.793
1239.876
1238.733
1237.541
1236.299
1235.009
1240.8
1239.701
1238.551
1237.352
1236.103
1241.623
1240.565
1239.458
1238.299
1237.09
1242.366
1241.351
1240.285
1239.167
1237.999
1243.077
1242.104
1241.081
1240.006
1238.88
1243.816
1242.888
1241.91
1240.88
1239.799
1244.579
1243.697
1242.765
1241.783
1240.75
1245.344
1244.508
1243.624
1242.69
1241.706
1246.095
1245.306
1244.469
1243.583
1242.648
1224.192
1222.338
1220.292
1225.949
1224.227
1222.333
1220.131
1227.683
1226.047
1224.301
1222.31
1219.748
1229.427
1227.863
1226.22
1224.425
1222.256
1231.2
1229.708
1228.149
1226.488
1224.609
1232.984
1231.562
1230.083
1228.527
1226.833
1234.668
1233.313
1231.905
1230.437
1228.878
1236.206
1234.911
1233.567
1232.17
1230.709
1237.592
1236.353
1235.065
1233.728
1232.338
1238.838
1237.649
1236.412
1235.127
1233.793
1239.952
1238.812
1237.623
1236.385
1235.099
1240.946
1239.852
1238.708
1237.515
1236.273
1241.828
1240.778
1239.677
1238.527
1237.327
1242.61
1241.602
1240.544
1239.435
1238.276
1243.314
1242.348
1241.332
1240.265
1239.147
1243.984
1243.061
1242.087
1241.064
1239.989
1244.681
1243.801
1242.872
1241.894
1240.864
1245.399
1244.565
1243.682
1242.75
1241.767
1246.119
1245.33
1244.494
1243.609
1242.675
1246.825
1246.082
1245.292
1244.454
1243.568
1225.903
1224.194
1222.343
1220.302
1227.577
1225.946
1224.228
1222.338
1220.141
1229.243
1227.676
1226.043
1224.3
1222.314
1230.92
1229.417
1227.855
1226.213
1224.422
1232.623
1231.185
1229.693
1228.136
1226.477
1234.333
1232.963
1231.541
1230.062
1228.506
1235.95
1234.643
1233.287
1231.88
1230.411
1237.426
1236.18
1234.884
1233.539
1232.142
1238.758
1237.566
1236.326
1235.037
1233.699
1239.952
1238.812
1237.623
1236.385
1235.099
1241.019
1239.928
1238.787
1237.597
1236.358
1241.968
1240.923
1239.828
1238.683
1237.489
1242.808
1241.806
1240.755
1239.654
1238.503
1243.548
1242.589
1241.581
1240.522
1239.413
1244.213
1243.295
1242.329
1241.312
1240.245
1244.843
1243.968
1243.044
1242.07
1241.046
1245.498
1244.666
1243.786
1242.857
1241.878
1246.173
1245.385
1244.55
1243.667
1242.734
1246.848
1246.105
1245.316
1244.479
1243.594
1247.51
1246.812
1246.068
1245.277
1244.44
1227.53
1225.901
1224.195
1222.349
1220.312
1229.14
1227.571
1225.943
1224.229
1222.342
1230.746
1229.234
1227.67
1226.039
1224.3
1232.359
1230.908
1229.406
1227.846
1226.207
1233.993
1232.607
1231.17
1229.679
1228.123
1235.633
1234.312
1232.942
1231.52
1230.041
1237.183
1235.926
1234.619
1233.262
1231.854
1238.599
1237.401
1236.154
1234.858
1233.512
1239.876
1238.733
1237.541
1236.299
1235.009
1241.019
1239.928
1238.787
1237.597
1236.358
1242.039
1240.996
1239.904
1238.762
1237.571
1242.943
1241.946
1240.9
1239.804
1238.658
1243.74
1242.786
1241.784
1240.732
1239.631
1244.44
1243.529
1242.569
1241.56
1240.501
1245.064
1244.195
1243.277
1242.31
1241.293
1245.655
1244.827
1243.952
1243.027
1242.053
1246.268
1245.483
1244.651
1243.77
1242.841
1246.9
1246.159
1245.371
1244.535
1243.652
1247.533
1246.835
1246.091
1245.301
1244.464
1248.151
1247.497
1246.798
1246.054
1245.263
1229.094
1227.524
1225.899
1224.196
1222.354
1230.648
1229.132
1227.565
1225.94
1224.229
1232.194
1230.735
1229.225
1227.662
1226.034
1233.744
1232.345
1230.896
1229.395
1227.836
1235.311
1233.976
1232.591
1231.154
1229.664
1236.882
1235.612
1234.291
1232.92
1231.498
1238.367
1237.16
1235.902
1234.594
1233.237
1239.724
1238.575
1237.377
1236.128
1234.831
1240.946
1239.852
1238.708
1237.515
1236.273
1242.039
1240.996
1239.904
1238.762
1237.571
1243.011
1242.016
1240.972
1239.879
1238.737
1243.871
1242.921
1241.923
1240.876
1239.78
1244.625
1243.719
1242.765
1241.762
1240.71
1245.284
1244.42
1243.509
1242.549
1241.539
1245.87
1245.047
1244.177
1243.259
1242.291
1246.421
1245.639
1244.811
1243.935
1243.01
1246.993
1246.254
1245.468
1244.635
1243.755
1247.583
1246.886
1246.144
1245.356
1244.52
1248.173
1247.519
1246.821
1246.077
1245.287
1248.749
1248.138
1247.483
1246.784
1246.04
1230.605
1229.087
1227.519
1225.896
1224.197
1232.102
1230.638
1229.124
1227.559
1225.937
1233.588
1232.182
1230.724
1229.216
1227.655
1235.075
1233.729
1232.332
1230.883
1229.383
1236.577
1235.294
1233.96
1232.574
1231.138
1238.08
1236.861
1235.591
1234.27
1232.899
1239.502
1238.344
1237.136
1235.878
1234.57
1240.8
1239.701
1238.551
1237.352
1236.103
1241.968
1240.923
1239.828
1238.683
1237.489
1243.011
1242.016
1240.972
1239.879
1238.737
1243.937
1242.989
1241.994
1240.949
1239.855
1244.752
1243.85
1242.9
1241.901
1240.853
1245.464
1244.605
1243.698
1242.744
1241.74
1246.083
1245.266
1244.401
1243.489
1242.528
1246.629
1245.853
1245.029
1244.159
1243.24
1247.142
1246.406
1245.624
1244.795
1243.918
1247.674
1246.979
1246.239
1245.453
1244.62
1248.222
1247.57
1246.873
1246.13
1245.341
1248.771
1248.16
1247.506
1246.807
1246.063
1249.305
1248.736
1248.125
1247.47
1246.77
1232.061
1230.595
1229.079
1227.513
1225.893
1233.501
1232.09
1230.628
1229.115
1227.553
1234.928
1233.575
1232.17
1230.713
1229.206
1236.353
1235.06
1233.715
1232.318
1230.87
1237.79
1236.559
1235.277
1233.942
1232.557
1239.227
1238.06
1236.841
1235.57
1234.249
1240.587
1239.48
1238.322
1237.113
1235.854
1241.828
1240.778
1239.677
1238.527
1237.327
1242.943
1241.946
1240.9
1239.804
1238.658
1243.937
1242.989
1241.994
1240.949
1239.855
1244.816
1243.915
1242.967
1241.971
1240.926
1245.587
1244.731
1243.828
1242.878
1241.879
1246.257
1245.444
1244.585
1243.678
1242.723
1246.837
1246.065
1245.247
1244.382
1243.469
1247.344
1246.613
1245.835
1245.012
1244.141
1247.818
1247.127
1246.39
1245.608
1244.779
1248.311
1247.66
1246.965
1246.224
1245.438
1248.819
1248.209
1247.556
1246.858
1246.116
1249.326
1248.758
1248.147
1247.492
1246.793
1249.82
1249.293
1248.724
1248.112
1247.456
1233.462
1232.049
1230.585
1229.071
1227.507
1234.845
1233.488
1232.079
1230.617
1229.107
1236.213
1234.914
1233.562
1232.157
1230.702
1237.576
1236.337
1235.045
1233.7
1232.304
1238.95
1237.772
1236.542
1235.259
1233.925
1240.324
1239.208
1238.04
1236.82
1235.549
1241.623
1240.565
1239.458
1238.299
1237.09
1242.808
1241.806
1240.755
1239.654
1238.503
1243.871
1242.921
1241.923
1240.876
1239.78
1244.816
1243.915
1242.967
1241.971
1240.926
1245.649
1244.795
1243.894
1242.945
1241.948
1246.377
1245.567
1244.711
1243.807
1242.856
1247.006
1246.238
1245.425
1244.565
1243.657
1247.546
1246.819
1246.047
1245.228
1244.363
1248.016
1247.328
1246.596
1245.818
1244.994
1248.452
1247.804
1247.112
1246.375
1245.592
1248.905
1248.297
1247.646
1246.95
1246.21
1249.373
1248.806
1248.196
1247.542
1246.844
1249.84
1249.313
1248.745
1248.133
1247.479
1250.293
1249.807
1249.28
1248.711
1248.098
1234.809
1233.45
1232.038
1230.575
1229.062
1236.135
1234.832
1233.476
1232.067
1230.607
1237.443
1236.199
1234.9
1233.548
1232.144
1238.747
1237.561
1236.322
1235.03
1233.685
1240.058
1238.933
1237.755
1236.524
1235.242
1241.37
1240.304
1239.188
1238.019
1236.799
1242.61
1241.602
1240.544
1239.435
1238.276
1243.74
1242.786
1241.784
1240.732
1239.631
1244.752
1243.85
1242.9
1241.901
1240.853
1245.649
1244.795
1243.894
1242.945
1241.948
1246.437
1245.629
1244.774
1243.873
1242.924
1247.123
1246.358
1245.547
1244.69
1243.786
1247.711
1246.988
1246.22
1245.405
1244.545
1248.213
1247.529
1246.801
1246.028
1245.21
1248.644
1248
1247.312
1246.579
1245.801
1249.043
1248.438
1247.789
1247.097
1246.359
1249.457
1248.892
1248.283
1247.632
1246.936
1249.886
1249.36
1248.793
1248.182
1247.528
1250.313
1249.828
1249.301
1248.732
1248.12
1250.727
1250.281
1249.795
1249.267
1248.698
1236.1
1234.796
1233.437
1232.026
1230.564
1237.369
1236.121
1234.818
1233.463
1232.055
1238.619
1237.429
1236.184
1234.886
1233.535
1239.863
1238.731
1237.545
1236.306
1235.014
1241.115
1240.041
1238.915
1237.737
1236.507
1242.366
1241.351
1240.285
1239.167
1237.999
1243.548
1242.589
1241.581
1240.522
1239.413
1244.625
1243.719
1242.765
1241.762
1240.71
1245.587
1244.731
1243.828
1242.878
1241.879
1246.437
1245.629
1244.774
1243.873
1242.924
1247.181
1246.418
1245.609
1244.754
1243.852
1247.825
1247.104
1246.338
1245.527
1244.67
1248.374
1247.694
1246.97
1246.201
1245.386
1248.836
1248.196
1247.512
1246.784
1246.01
1249.231
1248.629
1247.984
1247.296
1246.563
1249.592
1249.029
1248.423
1247.774
1247.081
1249.968
1249.444
1248.878
1248.27
1247.617
1250.358
1249.873
1249.347
1248.779
1248.169
1250.747
1250.301
1249.815
1249.288
1248.719
1251.122
1250.715
1250.269
1249.782
1249.254
1237.336
1236.086
1234.782
1233.425
1232.015
1238.548
1237.354
1236.107
1234.805
1233.45
1239.742
1238.604
1237.414
1236.169
1234.871
1240.928
1239.848
1238.715
1237.529
1236.29
1242.121
1241.098
1240.024
1238.898
1237.719
1243.314
1242.348
1241.332
1240.265
1239.147
1244.44
1243.529
1242.569
1241.56
1240.501
1245.464
1244.605
1243.698
1242.744
1241.74
1246.377
1245.567
1244.711
1243.807
1242.856
1247.181
1246.418
1245.609
1244.754
1243.852
1247.882
1247.163
1246.399
1245.589
1244.733
1248.484
1247.807
1247.085
1246.319
1245.508
1248.993
1248.356
1247.676
1246.951
1246.182
1249.418
1248.82
1248.179
1247.495
1246.766
1249.776
1249.216
1248.613
1247.968
1247.279
1250.1
1249.578
1249.015
1248.409
1247.759
1250.439
1249.956
1249.431
1248.865
1248.256
1250.791
1250.346
1249.861
1249.334
1248.766
1251.141
1250.735
1250.289
1249.803
1249.275
1251.478
1251.11
1250.703
1250.257
1249.77
1238.517
1237.321
1236.072
1234.769
1233.412
1239.673
1238.533
1237.34
1236.092
1234.791
1240.811
1239.727
1238.589
1237.399
1236.154
1241.941
1240.912
1239.832
1238.699
1237.513
1243.077
1242.104
1241.081
1240.006
1238.88
1244.213
1243.295
1242.329
1241.312
1240.245
1245.284
1244.42
1243.509
1242.549
1241.539
1246.257
1245.444
1244.585
1243.678
1242.723
1247.123
1246.358
1245.547
1244.69
1243.786
1247.882
1247.163
1246.399
1245.589
1244.733
1248.54
1247.864
1247.144
1246.379
1245.569
1249.102
1248.467
1247.789
1247.067
1246.3
1249.572
1248.977
1248.339
1247.658
1246.933
1249.959
1249.402
1248.804
1248.162
1247.478
1250.28
1249.761
1249.201
1248.598
1247.952
1250.568
1250.087
1249.564
1249
1248.394
1250.87
1250.427
1249.943
1249.418
1248.851
1251.184
1250.779
1250.334
1249.848
1249.321
1251.496
1251.129
1250.723
1250.277
1249.79
1251.795
1251.466
1251.099
1250.692
1250.245
1239.643
1238.502
1237.307
1236.058
1234.755
1240.745
1239.659
1238.519
1237.325
1236.078
1241.828
1240.796
1239.711
1238.574
1237.383
1242.903
1241.925
1240.896
1239.816
1238.683
1243.984
1243.061
1242.087
1241.064
1239.989
1245.064
1244.195
1243.277
1242.31
1241.293
1246.083
1245.266
1244.401
1243.489
1242.528
1247.006
1246.238
1245.425
1244.565
1243.657
1247.825
1247.104
1246.338
1245.527
1244.67
1248.54
1247.864
1247.144
1246.379
1245.569
1249.156
1248.522
1247.846
1247.125
1246.36
1249.678
1249.085
1248.449
1247.771
1247.048
1250.11
1249.556
1248.96
1248.322
1247.64
1250.46
1249.944
1249.386
1248.787
1248.146
1250.745
1250.266
1249.746
1249.185
1248.582
1250.997
1250.555
1250.073
1249.551
1248.986
1251.262
1250.858
1250.414
1249.93
1249.404
1251.539
1251.173
1250.767
1250.321
1249.835
1251.814
1251.485
1251.118
1250.711
1250.264
1252.075
1251.784
1251.455
1251.087
1250.68
1240.716
1239.628
1238.487
1237.293
1236.044
1241.765
1240.731
1239.644
1238.504
1237.31
1242.795
1241.813
1240.781
1239.696
1238.558
1243.816
1242.888
1241.91
1240.88
1239.799
1244.843
1243.968
1243.044
1242.07
1241.046
1245.87
1245.047
1244.177
1243.259
1242.291
1246.837
1246.065
1245.247
1244.382
1243.469
1247.711
1246.988
1246.22
1245.405
1244.545
1248.484
1247.807
1247.085
1246.319
1245.508
1249.156
1248.522
1247.846
1247.125
1246.36
1249.731
1249.139
1248.505
1247.828
1247.106
1250.213
1249.661
1249.068
1248.432
1247.753
1250.607
1250.094
1249.539
1248.943
1248.304
1250.921
1250.445
1249.928
1249.371
1248.771
1251.17
1250.731
1250.251
1249.732
1249.17
1251.386
1250.984
1250.542
1250.06
1249.537
1251.615
1251.25
1250.846
1250.401
1249.917
1251.856
1251.528
1251.161
1250.755
1250.309
1252.094
1251.803
1251.474
1251.106
1250.699
1252.318
1252.065
1251.773
1251.443
1251.075
1241.737
1240.702
1239.614
1238.473
1237.278
1242.734
1241.751
1240.716
1239.629
1238.489
1243.711
1242.78
1241.798
1240.765
1239.68
1244.681
1243.801
1242.872
1241.894
1240.864
1245.655
1244.827
1243.952
1243.027
1242.053
1246.629
1245.853
1245.029
1244.159
1243.24
1247.546
1246.819
1246.047
1245.228
1244.363
1248.374
1247.694
1246.97
1246.201
1245.386
1249.102
1248.467
1247.789
1247.067
1246.3
1249.731
1249.139
1248.505
1247.828
1247.106
1250.266
1249.715
1249.122
1248.487
1247.809
1250.709
1250.197
1249.645
1249.051
1248.414
1251.066
1250.592
1250.078
1249.523
1248.926
1251.343
1250.906
1250.43
1249.913
1249.355
1251.556
1251.156
1250.717
1250.237
1249.717
1251.738
1251.374
1250.971
1250.529
1250.046
1251.931
1251.604
1251.238
1250.833
1250.388
1252.135
1251.845
1251.516
1251.149
1250.743
1252.336
1252.083
1251.791
1251.462
1251.094
1252.525
1252.308
1252.054
1251.762
1251.432
1242.707
1241.723
1240.687
1239.599
1238.458
1243.653
1242.719
1241.736
1240.701
1239.613
1244.579
1243.697
1242.765
1241.783
1240.75
1245.498
1244.666
1243.786
1242.857
1241.878
1246.421
1245.639
1244.811
1243.935
1243.01
1247.344
1246.613
1245.835
1245.012
1244.141
1248.213
1247.529
1246.801
1246.028
1245.21
1248.993
1248.356
1247.676
1246.951
1246.182
1249.678
1249.085
1248.449
1247.771
1247.048
1250.266
1249.715
1249.122
1248.487
1247.809
1250.761
1250.25
1249.698
1249.105
1248.47
1251.166
1250.693
1250.181
1249.628
1249.034
1251.485
1251.05
1250.576
1250.062
1249.507
1251.726
1251.328
1250.891
1250.415
1249.897
1251.905
1251.543
1251.142
1250.702
1250.223
1252.051
1251.725
1251.361
1250.958
1250.515
1252.209
1251.919
1251.592
1251.226
1250.821
1252.377
1252.124
1251.833
1251.504
1251.137
1252.543
1252.326
1252.072
1251.78
1251.451
1252.695
1252.514
1252.297
1252.043
1251.751
1243.627
1242.693
1241.708
1240.672
1239.584
1244.522
1243.638
1242.705
1241.721
1240.685
1245.399
1244.565
1243.682
1242.75
1241.767
1246.268
1245.483
1244.651
1243.77
1242.841
1247.142
1246.406
1245.624
1244.795
1243.918
1248.016
1247.328
1246.596
1245.818
1244.994
1248.836
1248.196
1247.512
1246.784
1246.01
1249.572
1248.977
1248.339
1247.658
1246.933
1250.213
1249.661
1249.068
1248.432
1247.753
1250.761
1250.25
1249.698
1249.105
1248.47
1251.216
1250.745
1250.233
1249.681
1249.088
1251.583
1251.15
1250.678
1250.165
1249.612
1251.866
1251.47
1251.035
1250.561
1250.046
1252.072
1251.712
1251.314
1250.877
1250.4
1252.216
1251.892
1251.53
1251.129
1250.688
1252.327
1252.039
1251.713
1251.349
1250.945
1252.45
1252.198
1251.908
1251.58
1251.214
1252.583
1252.366
1252.113
1251.822
1251.493
1252.713
1252.532
1252.315
1252.061
1251.769
1252.83
1252.685
1252.504
1252.286
1252.032
1244.497
1243.612
1242.678
1241.693
1240.657
1245.344
1244.508
1243.624
1242.69
1241.706
1246.173
1245.385
1244.55
1243.667
1242.734
1246.993
1246.254
1245.468
1244.635
1243.755
1247.818
1247.127
1246.39
1245.608
1244.779
1248.644
1248
1247.312
1246.579
1245.801
1249.418
1248.82
1248.179
1247.495
1246.766
1250.11
1249.556
1248.96
1248.322
1247.64
1250.709
1250.197
1249.645
1249.051
1248.414
1251.216
1250.745
1250.233
1249.681
1249.088
1251.633
1251.201
1250.729
1250.217
1249.665
1251.963
1251.568
1251.135
1250.662
1250.149
1252.21
1251.852
1251.456
1251.02
1250.545
1252.38
1252.058
1251.698
1251.3
1250.862
1252.489
1252.203
1251.879
1251.516
1251.115
1252.567
1252.316
1252.027
1251.701
1251.336
1252.655
1252.439
1252.186
1251.896
1251.568
1252.752
1252.572
1252.355
1252.102
1251.81
1252.847
1252.702
1252.522
1252.304
1252.05
1252.929
1252.82
1252.675
1252.493
1252.275
1245.32
1244.483
1243.598
1242.663
1241.678
1246.119
1245.33
1244.494
1243.609
1242.675
1246.9
1246.159
1245.371
1244.535
1243.652
1247.674
1246.979
1246.239
1245.453
1244.62
1248.452
1247.804
1247.112
1246.375
1245.592
1249.231
1248.629
1247.984
1247.296
1246.563
1249.959
1249.402
1248.804
1248.162
1247.478
1250.607
1250.094
1249.539
1248.943
1248.304
1251.166
1250.693
1250.181
1249.628
1249.034
1251.633
1251.201
1250.729
1250.217
1249.665
1252.012
1251.618
1251.185
1250.713
1250.201
1252.305
1251.948
1251.553
1251.12
1250.646
1252.516
1252.196
1251.837
1251.441
1251.005
1252.652
1252.367
1252.045
1251.684
1251.285
1252.727
1252.477
1252.19
1251.866
1251.503
1252.77
1252.556
1252.304
1252.015
1251.688
1252.824
1252.644
1252.428
1252.175
1251.884
1252.887
1252.742
1252.562
1252.345
1252.09
1252.947
1252.837
1252.692
1252.511
1252.293
1252.995
1252.919
1252.81
1252.664
1252.483
1246.095
1245.306
1244.469
1243.583
1242.648
1246.848
1246.105
1245.316
1244.479
1243.594
1247.583
1246.886
1246.144
1245.356
1244.52
1248.311
1247.66
1246.965
1246.224
1245.438
1249.043
1248.438
1247.789
1247.097
1246.359
1249.776
1249.216
1248.613
1247.968
1247.279
1250.46
1249.944
1249.386
1248.787
1248.146
1251.066
1250.592
1250.078
1249.523
1248.926
1251.583
1251.15
1250.678
1250.165
1249.612
1252.012
1251.618
1251.185
1250.713
1250.201
1252.353
1251.997
1251.603
1251.17
1250.697
1252.61
1252.291
1251.934
1251.538
1251.104
1252.786
1252.502
1252.182
1251.823
1251.426
1252.887
1252.639
1252.354
1252.031
1251.67
1252.928
1252.715
1252.465
1252.177
1251.852
1252.938
1252.759
1252.544
1252.292
1252.003
1252.957
1252.813
1252.633
1252.417
1252.163
1252.985
1252.876
1252.732
1252.551
1252.334
1253.012
1252.937
1252.827
1252.682
1252.5
1253.026
1252.985
1252.91
1252.8
1252.654
1246.825
1246.082
1245.292
1244.454
1243.568
1247.533
1246.835
1246.091
1245.301
1244.464
1248.222
1247.57
1246.873
1246.13
1245.341
1248.905
1248.297
1247.646
1246.95
1246.21
1249.592
1249.029
1248.423
1247.774
1247.081
1250.28
1249.761
1249.201
1248.598
1247.952
1250.921
1250.445
1249.928
1249.371
1248.771
1251.485
1251.05
1250.576
1250.062
1249.507
1251.963
1251.568
1251.135
1250.662
1250.149
1252.353
1251.997
1251.603
1251.17
1250.697
1252.658
1252.339
1251.982
1251.588
1251.154
1252.879
1252.596
1252.276
1251.919
1251.524
1253.019
1252.772
1252.489
1252.168
1251.809
1253.086
1252.874
1252.626
1252.34
1252.017
1253.094
1252.916
1252.702
1252.452
1252.164
1253.07
1252.927
1252.748
1252.532
1252.28
1253.055
1252.947
1252.802
1252.622
1252.406
1253.05
1252.975
1252.866
1252.721
1252.54
1253.043
1253.002
1252.927
1252.817
1252.671
1253.016
1252.975
1252.9
1252.789
1247.51
1246.812
1246.068
1245.277
1244.44
1248.173
1247.519
1246.821
1246.077
1245.287
1248.819
1248.209
1247.556
1246.858
1246.116
1249.457
1248.892
1248.283
1247.632
1246.936
1250.1
1249.578
1249.015
1248.409
1247.759
1250.745
1250.266
1249.746
1249.185
1248.582
1251.343
1250.906
1250.43
1249.913
1249.355
1251.866
1251.47
1251.035
1250.561
1250.046
1252.305
1251.948
1251.553
1251.12
1250.646
1252.658
1252.339
1251.982
1251.588
1251.154
1252.926
1252.644
1252.324
1251.968
1251.573
1253.111
1252.865
1252.582
1252.262
1251.905
1253.217
1253.006
1252.759
1252.475
1252.154
1253.25
1253.074
1252.862
1252.613
1252.327
1253.224
1253.082
1252.904
1252.69
1252.439
1253.167
1253.059
1252.916
1252.736
1252.521
1253.12
1253.045
1252.936
1252.792
1252.611
1253.081
1253.04
1252.965
1252.856
1252.711
1253.033
1252.992
1252.917
1252.807
1253.006
1252.965
1252.89
1248.151
1247.497
1246.798
1246.054
1245.263
1248.771
1248.16
1247.506
1246.807
1246.063
1249.373
1248.806
1248.196
1247.542
1246.844
1249.968
1249.444
1248.878
1248.27
1247.617
1250.568
1250.087
1249.564
1249
1248.394
1251.17
1250.731
1250.251
1249.732
1249.17
1251.726
1251.328
1250.891
1250.415
1249.897
1252.21
1251.852
1251.456
1251.02
1250.545
1252.61
1252.291
1251.934
1251.538
1251.104
1252.926
1252.644
1252.324
1251.968
1251.573
1253.157
1252.912
1252.63
1252.31
1251.953
1253.308
1253.098
1252.851
1252.568
1252.248
1253.38
1253.204
1252.993
1252.746
1252.461
1253.38
1253.238
1253.061
1252.849
1252.6
1253.32
1253.213
1253.07
1252.892
1252.678
1253.231
1253.157
1253.048
1252.904
1252.725
1253.15
1253.11
1253.035
1252.926
1252.781
1253.071
1253.031
1252.955
1252.845
1253.023
1252.982
1252.907
1252.997
1252.955
1248.749
1248.138
1247.483
1246.784
1246.04
1249.326
1248.758
1248.147
1247.492
1246.793
1249.886
1249.36
1248.793
1248.182
1247.528
1250.439
1249.956
1249.431
1248.865
1248.256
1250.997
1250.555
1250.073
1249.551
1248.986
1251.556
1251.156
1250.717
1250.237
1249.717
1252.072
1251.712
1251.314
1250.877
1250.4
1252.516
1252.196
1251.837
1251.441
1251.005
1252.879
1252.596
1252.276
1251.919
1251.524
1253.157
1252.912
1252.63
1252.31
1251.953
1253.354
1253.144
1252.898
1252.616
1252.296
1253.47
1253.295
1253.084
1252.838
1252.554
1253.508
1253.367
1253.192
1252.98
1252.732
1253.474
1253.368
1253.226
1253.049
1252.836
1253.383
1253.309
1253.201
1253.058
1252.88
1253.261
1253.22
1253.146
1253.037
1252.893
1253.14
1253.1
1253.024
1252.915
1253.062
1253.021
1252.945
1253.013
1252.972
1252.987
1249.305
1248.736
1248.125
1247.47
1246.77
1249.84
1249.313
1248.745
1248.133
1247.479
1250.358
1249.873
1249.347
1248.779
1248.169
1250.87
1250.427
1249.943
1249.418
1248.851
1251.386
1250.984
1250.542
1250.06
1249.537
1251.905
1251.543
1251.142
1250.702
1250.223
1252.38
1252.058
1251.698
1251.3
1250.862
1252.786
1252.502
1252.182
1251.823
1251.426
1253.111
1252.865
1252.582
1252.262
1251.905
1253.354