/*--------------------------------*- C++ -*----------------------------------*\
| =========                 |                                                 |
| \\      /  F ield         | OpenFOAM: The Open Source CFD Toolbox           |
|  \\    /   O peration     | Version:  2306                                  |
|   \\  /    A nd           | Website:  www.openfoam.com                      |
|    \\/     M anipulation  |                                                 |
\*---------------------------------------------------------------------------*/
FoamFile
{
    version     2.0;
    format      ascii;
    arch        "LSB;label=32;scalar=64";
    class       volVectorField;
    location    "0.6/phiEA";
    object      i;
}
// * * * * * * * * * * * * * * * * * * * * * * * * * * * * * * * * * * * * * //

dimensions      [0 -2 0 0 0 1 0];

internalField   nonuniform List<vector> 
20000
(
(-656.1565 2511.993 2131.728)
(-687.2467 8077.675 2168.952)
(-1328.999 2201.092 1937.825)
(-655.3809 2510.504 6308.721)
(-755.0774 15283.64 2244.073)
(-1383.488 7088.467 1967.125)
(-686.4394 8073.181 6419.242)
(-1258.946 1967.112 1768.021)
(-1327.545 2199.92 5739.646)
(-653.8802 2507.572 10338.03)
(-870.9243 24906.79 2343.708)
(-1502.76 13446.86 2025.87)
(-754.2046 15276.65 6642.296)
(-1299.799 6340.069 1793.002)
(-1381.984 7084.945 5826.871)
(-684.8772 8064.332 10519.93)
(-1086.644 1792.562 1630.685)
(-1257.717 1966.112 5240.566)
(-1324.727 2197.603 9414.942)
(-651.6886 2503.228 14268.21)
(-1047.773 35565.46 2393.239)
(-1707.48 21979.84 2101.242)
(-869.9544 24900.83 6937.768)
(-1389.76 12043.71 1843.013)
(-1501.156 13441.5 6001.801)
(-752.5154 15262.9 10887.1)
(-1117.893 5780.328 1652.823)
(-1298.541 6337.07 5315.034)
(-1379.071 7077.98 9558.958)
(-682.5955 8051.219 14520.28)
(-931.5797 1654.616 1516.502)
(-1085.638 1791.677 4836.458)
(-1255.333 1964.133 8604.026)
(-1320.609 2194.159 13004.49)
(-648.8254 2497.489 16784.53)
(-1280.667 40433.07 2238.086)
(-2021.766 31468.04 2125.682)
(-1046.702 35569.69 7081.93)
(-1545.535 19716.74 1906.339)
(-1705.731 21975.85 6226.097)
(-868.0776 24889.21 11372.88)
(-1186.917 10989.5 1697.128)
(-1388.445 12039.18 5464.165)
(-1498.047 13430.89 9847.901)
(-750.0478 15242.53 15029.29)
(-956.802 5337.335 1536.539)
(-1116.867 5777.67 4902.51)
(-1296.101 6331.126 8727.179)
(-1374.813 7067.626 13204.57)
(-679.6143 8033.889 17082.08)
(-807.1307 1540.339 1418.695)
(-930.7318 1653.815 4500.166)
(-1083.682 1789.92 7946.558)
(-1251.844 1961.186 11893.06)
(-1315.226 2189.6 15306.17)
(-885.6345 3416.676 22069.96)
(-1508.911 36418.27 2151.446)
(-2437.658 35821.68 1962.518)
(-1279.565 40442.74 6610.93)
(-1787.002 28263.69 1921.935)
(-2019.881 31473.58 6297.279)
(-1044.634 35578.54 11604.72)
(-1306.955 18007.41 1752.822)
(-1544.141 19713.58 5652.93)
(-1702.341 21968.02 10218.21)
(-865.3357 24872.12 15702.4)
(-1012.612 10153.1 1576.64)
(-1185.852 10985.5 5034.738)
(-1385.891 12030.2 8973.925)
(-1493.503 13415.13 13606.2)
(-746.8231 15215.61 17683.2)
(-828.3296 4970 1437.07)
(-955.939 5334.929 4559.987)
(-1114.873 5772.397 8055.906)
(-1292.529 6322.274 12064.37)
(-1369.247 7053.912 15542.74)
(-927.6865 10992.37 22489)
(-708.6812 1442.627 1333.197)
(-806.3974 1539.604 4211.871)
(-929.0814 1652.223 7398.817)
(-1080.817 1787.303 10991.08)
(-1247.279 1957.28 14005.23)
(-1795.874 2996.155 20128.8)
(-882.053 3408.367 20471.98)
(-1694.961 27643.77 2125.756)
(-2846.029 32275.33 1864.555)
(-1507.763 36422.76 6347.031)
(-2109.075 32190.43 1767.135)
(-2435.774 35832.13 5805.068)
(-1277.443 40462.46 10808.24)
(-1493.854 25832.63 1763.982)
(-1785.556 28269.25 5698.37)
(-2016.232 31484.88 10332.86)
(-1041.615 35592.27 16018.59)
(-1109.914 16647.37 1626.815)
(-1305.837 18004.74 5200.926)
(-1541.434 19707.37 9286.213)
(-1697.384 21956.45 14121.02)
(-861.752 24849.64 18478.38)
(-875.2953 9458.383 1473.853)
(-1011.719 10149.48 4679.744)
(-1183.779 10977.56 8274.916)
(-1382.153 12016.82 12407.8)
(-1487.561 13394.24 16017.9)
(-1019.502 20827.45 23336.44)
(-726.9934 4655.689 1350.2)
(-827.5843 4967.794 4266.754)
(-954.259 5330.152 7497.923)
(-1111.95 5764.536 11143.31)
(-1287.856 6310.536 14207.96)
(-1869.691 9653.702 20465.33)
(-923.9478 10967.25 20916.96)
(-630.1735 1357.217 1257.289)
(-708.0356 1441.947 3959.672)
(-804.9687 1538.144 6928.787)
(-926.6607 1649.851 10239)
(-1077.066 1783.831 12948.89)
(-1703.883 2678.506 18419.97)
(-1789.139 2989.418 18667.91)
(-878.4182 3398.876 20737.22)
(-1823.231 16996.68 2122.662)
(-3179.342 24500.57 1827.377)
(-1693.767 27644.92 6267.438)
(-2426.117 29001.42 1672.672)
(-2844.114 32280.74 5509.58)
(-1505.561 36432.01 10360.61)
(-1743.943 29430.54 1618.586)
(-2107.699 32200.4 5232.166)
(-2432.143 35853.19 9506.532)
(-1274.358 40492.5 14889.68)
(-1261.797 23893.8 1635.29)
(-1492.707 25838 5233.448)
(-1782.747 28280.52 9359.483)
(-2010.9 31502.05 14277.75)
(-1037.671 35611.04 18848.86)
(-957.3169 15515.57 1519.725)
(-1108.981 16645.02 4829.57)
(-1303.661 17999.46 8550.195)
(-1537.469 19698.16 12842.66)
(-1690.902 21941.16 16627.45)
(-1176.592 34046.39 24452.07)
(-767.6015 8863.223 1384.247)
(-874.5257 9455.076 4376.654)
(-1009.98 10142.31 7696.425)
(-1180.742 10965.73 11448.4)
(-1377.26 11999.07 14614.64)
(-2031.399 18338.39 21142.53)
(-1015.439 20788.6 21818.28)
(-646.2972 4380.797 1273.127)
(-726.3376 4653.647 4010.477)
(-826.1316 4963.409 7019.767)
(-951.7945 5323.025 10377.06)
(-1108.124 5754.104 13129.15)
(-1759.371 8637.116 18709.72)
(-1862.707 9633.387 19031.41)
(-920.1443 10938.52 21241.24)
(-566.4684 1281.389 1189.112)
(-629.5972 1356.584 3735.611)
(-706.7762 1440.595 6517.238)
(-802.8711 1535.965 9593.121)
(-923.4895 1646.701 12067.64)
(-1471.634 2441.27 17032.54)
(-1698.169 2672.68 17079)
(-1782.302 2981.615 18906.55)
(-874.7303 3388.206 21001.69)
(-1888.2 5714.739 2123.958)
(-3409.393 15064.29 1816)
(-1822.004 16996.75 6256.7)
(-2685.218 22010.13 1635)
(-3177.379 24502.51 5397.194)
(-1691.48 27647.38 10223.1)
(-1990.124 26513.9 1529.312)
(-2424.776 29006.71 4947.867)
(-2840.432 32291.64 9010.856)
(-1502.364 36446.17 14254.65)
(-1465.395 27227.73 1498.539)
(-1742.869 29439.92 4795.898)
(-2105.038 32220.45 8578.352)
(-2426.854 35885.01 13112.9)
(-1270.336 40533.02 17493.53)
(-1085.57 22277.82 1526.399)
(-1260.847 23898.93 4854.269)
(-1490.477 25848.84 8602.691)
(-1778.635 28297.57 12943.07)
(-2003.929 31525.2 16811.7)
(-1417.325 48866.29 24924.58)
(-838.6105 14544.62 1426.604)
(-956.516 15513.47 4513.707)
(-1107.165 16640.39 7944.822)
(-1300.471 17991.63 11832.11)
(-1532.279 19685.96 15130.11)
(-2309.473 30068.16 22009.18)
(-1172.06 34015.98 22994.26)
(-682.0786 8342.212 1304.852)
(-766.9255 8860.167 4112.242)
(-873.0253 9448.505 7202.036)
(-1007.428 10131.61 10653.75)
(-1176.763 10950.01 13490.64)
(-1881.66 16429.62 19292.19)
(-2023.907 18307.49 19764.96)
(-1011.288 20744.35 22263.61)
(-580.8647 4136.637 1203.939)
(-645.7122 4378.895 3782.949)
(-725.0582 4649.586 6601.496)
(-823.9985 4956.864 9719.918)
(-948.5654 5313.562 12231.18)
(-1514.116 7875.931 17290.91)
(-1753.505 8619.56 17394.36)
(-1855.6 9609.82 19323.33)
(-916.2762 10906.19 21564.71)
(-513.791 1213.253 1127.326)
(-565.9485 1280.796 3534.242)
(-628.4718 1355.324 6151.302)
(-704.9256 1438.576 9027.192)
(-800.1215 1533.072 11310.42)
(-1261.861 2253.681 15875.16)
(-1466.94 2436.062 15789.69)
(-1692.37 2665.891 17293.46)
(-1775.364 2972.747 19144.52)
(-870.9895 3376.356 30991.14)
(-1888.2 -5714.739 2123.958)
(-3526.002 5065.049 1813.14)
(-1886.957 5714.687 6259.929)
(-2864.22 13530.08 1622.219)
(-3407.391 15064.86 5362.634)
(-1819.655 16996.98 10202.4)
(-2191.138 20119.54 1493.033)
(-2683.88 22012.15 4834.453)
(-3173.61 24506.45 8821.92)
(-1688.162 27651.25 14057.15)
(-1665.778 24529.47 1414.323)
(-1989.091 26518.93 4527.468)
(-2422.189 29017.33 8102.685)
(-2835.082 32308.12 12415.39)
(-1498.204 36465.31 16732.05)
(-1257.703 25390.73 1397.433)
(-1464.51 27236.57 4442.921)
(-1740.786 29458.78 7870.235)
(-2101.154 32250.68 11843.61)
(-2419.958 35927.69 15418.1)
(-1736.305 55648.7 22824.98)
(-949.7847 20889.94 1431.993)
(-1084.757 22282.71 4533.164)
(-1258.996 23909.27 7984.732)
(-1487.208 25865.2 11904.22)
(-1773.253 28320.48 15248.56)
(-2738.055 43269.16 22242.13)
(-1412.361 48903.09 23404.04)
(-744.71 13693.74 1344.245)
(-837.9085 14542.71 4238.848)
(-954.954 15509.31 7429.409)
(-1104.498 16633.49 11000.24)
(-1296.292 17981.23 13945.82)
(-2093.819 26979.84 20029.47)
(-2301.261 30046.75 20699.32)
(-1167.413 33982.96 23590.11)
(-612.8322 7879.095 1233.652)
(-681.4763 8339.367 3877.803)
(-765.6061 8854.088 6770.353)
(-870.8215 9438.691 9974.101)
(-1004.083 10117.38 12559.16)
(-1608.027 14993.91 17810.18)
(-1875.485 16403.07 18030.37)
(-2016.248 18271.67 20166.4)
(-1007.05 20694.65 22708.49)
(-526.7832 3917.159 1141.264)
(-580.3373 4134.856 3578.572)
(-644.5696 4375.11 6229.841)
(-723.1779 4643.522 9144.668)
(-821.202 4948.17 11460.68)
(-1296.165 7273.185 16110.06)
(-1509.314 7860.237 16072.19)
(-1747.534 8599.061 17657.01)
(-1848.371 9582.994 19614.57)
(-912.3438 10870.25 31909.26)
(-469.4642 1151.467 1070.934)
(-513.3183 1212.696 3351.647)
(-564.9325 1279.616 5822.173)
(-626.8169 1353.442 8523.647)
(-702.4983 1435.896 10646.6)
(-1093.285 2098.224 14880.71)
(-1257.893 2248.937 14714.84)
(-1462.177 2429.97 15985.25)
(-1686.484 2658.138 17507.35)
(-1768.325 2962.813 28245.43)
(-415.5792 1619.773 21541.86)
(-1823.231 -16996.68 2122.662)
(-3526.002 -5065.049 1813.14)
(-1886.957 -5714.687 6259.929)
(-2955.016 4548.644 1618.449)
(-3523.98 5065.163 5353.878)
(-1884.576 5714.61 10206.51)
(-2329.885 12366.31 1480.285)
(-2862.878 13530.74 4795.948)
(-3403.55 15066.02 8763.501)
(-1816.249 16997.42 14025.29)
(-1829.283 18612.52 1379.776)
(-2190.117 20121.5 4418.408)
(-2681.303 22016.21 7912.915)
(-3168.138 24512.4 12149.24)
(-1683.848 27656.56 16493.69)
(-1427.11 22875.02 1317.878)
(-1664.932 24534.22 4189.826)
(-1987.092 26529 7421.614)
(-2418.419 29033.32 11175.58)
(-2828.116 32330.19 14585.82)
(-2048.611 50038.16 21635.7)
(-1099.13 23812.34 1310.046)
(-1256.949 25399.07 4145.345)
(-1462.793 27254.31 7296.509)
(-1737.741 29487.17 10874.02)
(-2096.083 32291.15 13934.56)
(-3308.734 49335.83 20130.07)
(-1731.396 55719.7 20829.12)
(-842.8658 19672.63 1348.674)
(-949.0738 20894.61 4254.56)
(-1083.171 22292.56 7460.882)
(-1256.279 23924.87 11055.19)
(-1482.926 25887.16 14031.18)
(-2424.018 38873.68 20177.76)
(-2729.259 43309.73 20896.66)
(-1407.296 48952.89 23981.84)
(-668.8336 12936.75 1270.492)
(-744.0856 13691.98 3995.591)
(-836.538 14538.93 6980.508)
(-952.6588 15503.11 10291.45)
(-1101.002 16624.33 12970.42)
(-1771.656 24644.58 18463.58)
(-2087.228 26962.46 18833.09)
(-2292.829 30022.89 21237.88)
(-1162.651 33947.25 24187.49)
(-555.6477 7462.524 1169.206)
(-612.2896 7876.433 3667.435)
(-680.2994 8333.706 6387.291)
(-763.6665 8845.006 9380.237)
(-867.9313 9425.643 11762.09)
(-1372.133 13854.22 16582.2)
(-1603.007 14970.25 16641.87)
(-1869.168 16372.07 18392.1)
(-2008.421 18230.9 20567.48)
(-1002.724 20639.44 33777.83)
(-481.2871 3718.07 1084.079)
(-526.3038 3915.484 3393.328)
(-579.3063 4131.309 5895.746)
(-642.8892 4369.455 8633.184)
(-720.7113 4635.464 10785.85)
(-1122.126 6773.208 15096.87)
(-1292.114 7258.89 14972.51)
(-1504.429 7841.843 16311.95)
(-1741.46 8575.615 17919.06)
(-1841.018 9552.902 29018.7)
(-435.1899 5227.428 22324.99)
(-431.6006 1095.024 1019.156)
(-469.0315 1150.941 3184.901)
(-512.3937 1211.586 5523.515)
(-563.4374 1277.853 8070.461)
(-624.6449 1350.942 10055.67)
(-959.8719 1965.266 14008.86)
(-1089.844 2093.852 13791.77)
(-1253.869 2243.374 14895.28)
(-1457.347 2422.994 16180.28)
(-1680.513 2649.422 25823.75)
(-846.6787 1423.665 19625.8)
(-375.1471 1430.893 23216.79)
(-1694.961 -27643.77 2125.756)
(-3409.393 -15064.29 1816)
(-1822.004 -16996.75 6256.7)
(-2955.016 -4548.645 1618.449)
(-3523.98 -5065.163 5353.878)
(-1884.576 -5714.61 10206.51)
(-2400.217 4157.094 1476.35)
(-2953.669 4548.795 4784.584)
(-3520.101 5065.399 8748.566)
(-1881.125 5714.523 14029.74)
(-1942.061 11439.3 1367.435)
(-2328.866 12366.97 4380.096)
(-2860.29 13532.08 7848.442)
(-3397.975 15067.79 12066.63)
(-1811.82 16998.08 16453.77)
(-1565.287 17356.71 1285.066)
(-1828.452 18614.4 4086.049)
(-2188.145 20125.43 7239.446)
(-2677.55 22022.32 10909.2)
(-3161.019 24520.4 14268.26)
(-2302.986 37936.98 21245.24)
(-1246.116 21453.63 1234.747)
(-1426.392 22879.51 3906.335)
(-1663.293 24543.75 6873.773)
(-1984.175 26544.16 10244.52)
(-2413.505 29054.71 13138.49)
(-3868.399 44371.36 18871.53)
(-2043.623 50072.75 19352.96)
(-974.8174 22427.42 1233.096)
(-1098.472 23820.23 3887.929)
(-1255.483 25415.8 6812.259)
(-1460.279 27281.01 10087.62)
(-1733.762 29525.16 12800.58)
(-2867.224 44345.25 18198.52)
(-3300.294 49407.08 18384.63)
(-1726.527 55810.74 20773.19)
(-756.6701 18588.87 1274.188)
(-842.2346 19677.07 4008.508)
(-947.6861 20903.98 7005.952)
(-1080.842 22307.4 10334.89)
(-1252.719 23945.77 13035.71)
(-2027.461 35535.1 18569.44)
(-2417.199 38912.75 18955.27)
(-2720.26 43361.74 21423.26)
(-1402.127 49015.76 24565.45)
(-606.2475 12255.36 1203.808)
(-668.2718 12935.13 3777.624)
(-742.8651 13688.51 6582.896)
(-834.5225 14533.29 9673.686)
(-949.6478 15494.88 12138.9)
(-1504.828 22785.5 17174.02)
(-1766.35 24629.6 17357.35)
(-2080.451 26942.84 19319.06)
(-2284.177 29996.48 21777.86)
(-1157.774 33908.69 36189.73)
(-507.5651 7084.453 1110.443)
(-555.1548 7460.022 3476.913)
(-611.2287 7871.133 6043.299)
(-678.568 8325.245 8852.909)
(-761.1213 8832.927 11065.27)
(-1186.074 12907.28 15531.45)
(-1367.913 13832.71 15492.21)
(-1597.874 14942.51 16972.55)
(-1862.709 16336.59 18753.52)
(-2000.428 18185.14 30590.11)
(-478.1931 10000.69 23938.7)
(-442.4323 3536.15 1031.588)
(-480.8484 3716.49 3224.22)
(-525.3658 3912.148 5592.711)
(-577.7888 4126.011 8173.101)
(-640.6834 4361.939 10185.54)
(-984.7918 6345.292 14209.45)
(-1118.617 6760.032 14029.49)
(-1287.995 7242.09 15193.94)
(-1499.462 7820.745 16551.17)
(-1735.281 8549.214 26503.58)
(-881.2661 4601.289 20295.52)
(-392.1604 4646.322 24301.96)
(-398.8099 1043.15 971.376)
(-431.2024 1094.527 3031.722)
(-468.1845 1149.894 5250.597)
(-511.032 1209.928 7658.987)
(-561.4739 1275.511 9523.587)
(-853.4741 1849.025 13232.68)
(-956.8341 1961.205 12982.8)
(-1086.357 2088.715 13959.66)
(-1249.79 2236.991 15075.25)
(-1452.449 2415.134 23861.9)
(-808.4587 1273.898 17933.55)
(-770.4983 1260.76 21141.33)
(-332.5608 1185.703 24235.12)
(-1508.911 -36418.27 2151.446)
(-3179.342 -24500.57 1827.377)
(-1693.767 -27644.92 6267.438)
(-2864.22 -13530.08 1622.219)
(-3407.391 -15064.86 5362.634)
(-1819.655 -16996.98 10202.4)
(-2400.217 -4157.094 1476.35)
(-2953.669 -4548.795 4784.584)
(-3520.101 -5065.399 8748.566)
(-1881.125 -5714.523 14029.74)
(-1999.201 3845.324 1363.55)
(-2399.197 4157.252 4368.278)
(-2951.073 4549.099 7829.401)
(-3514.472 5065.761 12045.38)
(-1876.638 5714.433 16458.11)
(-1660.555 10667.13 1273.237)
(-1941.233 11439.95 4049)
(-2326.897 12368.31 7175.48)
(-2856.525 13534.08 10818.67)
(-3390.723 15070.18 14169.49)
(-2478.324 23312.69 21165.01)
(-1365.98 16278.07 1203.583)
(-1564.582 17358.49 3807.809)
(-1826.841 18618.16 6700.579)
(-2185.268 20131.34 9989.153)
(-2672.662 22030.48 12821.38)
(-4324.73 33639.85 18387.92)
(-2297.848 37947.82 18838.07)
(-1104.694 20206.51 1161.685)
(-1245.491 21457.89 3661.755)
(-1424.998 22888.52 6413.205)
(-1660.899 24558.06 9494.737)
(-1980.368 26564.4 12050.87)
(-3302.783 39878.2 17004.54)
(-3860.034 44408.23 16890.96)
(-2038.763 50117.8 18925.14)
(-874.8186 21194.05 1164.426)
(-974.2349 22434.9 3661.08)
(-1097.193 23836.05 6392.925)
(-1253.334 25440.98 9423.269)
(-1456.99 27316.73 11880.28)
(-2371.919 40548.18 16721.23)
(-2860.993 44411.94 16621.83)
(-3291.905 49496.06 18349.35)
(-1721.7 55921.96 20715.12)
(-685.6646 17612.78 1206.925)
(-756.1031 18593.11 3788.401)
(-841.0012 19686.01 6603.838)
(-945.6456 20918.11 9708.9)
(-1077.786 22327.28 12190.72)
(-1712.801 32871.05 17254.25)
(-2022.033 35572.08 17442.15)
(-2410.2 38962.13 19431.18)
(-2711.056 43425.27 21955.07)
(-1396.854 49091.79 36725.35)
(-553.657 11636.58 1143.057)
(-605.7378 12253.85 3580.434)
(-667.1729 12931.91 6226.352)
(-741.0689 13683.32 9126.143)
(-831.8768 14525.78 11413.82)
(-1297.964 21237.9 16074.76)
(-1500.391 22772.2 16142.86)
(-1760.895 24612.57 17802.09)
(-2073.485 26920.9 19806.33)
(-2275.304 29967.39 32588)
(-552.6791 16736.16 26074.51)
(-466.5161 6738.825 1056.531)
(-507.1144 7082.093 3303.098)
(-554.1903 7455.04 5731.539)
(-609.6666 7863.209 8379.07)
(-676.2947 8313.988 10446.22)
(-1040.096 12095.85 14612.84)
(-1182.428 12887.48 14509.05)
(-1363.602 13807.41 15797.95)
(-1592.63 14910.65 17302.95)
(-1856.109 16296.58 27885.05)
(-957.375 8825.798 21675.43)
(-429.7881 9080.938 26607.81)
(-408.7892 3368.916 983.1616)
(-442.0286 3534.655 3068.915)
(-479.9894 3713.343 5315.888)
(-523.9844 3907.163 7755.543)
(-575.7957 4118.965 9645.302)
(-875.4199 5970.971 13419.96)
(-981.6964 6333.049 13203.84)
(-1115.052 6744.517 14235.67)
(-1283.808 7222.783 15414.88)
(-1494.412 7796.937 24475.65)
(-834.6585 4120.465 18526.14)
(-800.6628 4099.912 22083.06)
(-346.4338 3871.02 25586.08)
(-370.0717 995.2307 927.1056)
(-398.4417 1042.679 2890.303)
(-430.4222 1093.536 4999.726)
(-466.9363 1148.33 7282.764)
(-509.2429 1207.724 9040.266)
(-767.1439 1745.808 12533.72)
(-850.7553 1845.23 12262.78)
(-953.756 1956.424 13139.97)
(-1082.823 2082.812 14127.12)
(-1245.656 2229.788 22229.31)
(-700.1552 1161.668 16564.27)
(-743.8117 1129.248 19303.99)
(-690.1669 1046.973 22062.61)
(-288.2469 890.5084 25040.77)
(-1280.667 -40433.07 2238.086)
(-2846.029 -32275.33 1864.555)
(-1507.763 -36422.76 6347.031)
(-2685.218 -22010.13 1635)
(-3177.379 -24502.51 5397.194)
(-1691.48 -27647.38 10223.1)
(-2329.885 -12366.31 1480.285)
(-2862.878 -13530.74 4795.948)
(-3403.55 -15066.02 8763.501)
(-1816.249 -16997.42 14025.29)
(-1999.201 -3845.324 1363.55)
(-2399.197 -4157.252 4368.278)
(-2951.073 -4549.099 7829.401)
(-3514.472 -5065.761 12045.38)
(-1876.638 -5714.432 16458.11)
(-1708.81 3585.691 1269.474)
(-1998.374 3845.479 4037.348)
(-2397.228 4157.567 7155.764)
(-2947.298 4549.557 10791.93)
(-3507.15 5066.249 14143.98)
(-2567.134 7836.822 21161.99)
(-1448.604 10004.06 1192.286)
(-1659.854 10667.75 3772.317)
(-1939.63 11441.24 6638.8)
(-2324.027 12370.32 9899.535)
(-2851.622 13536.77 12713.62)
(-4639.563 20671.22 18234.98)
(-2473.061 23314.98 18708.87)
(-1210.595 15331.82 1132.063)
(-1365.368 16279.77 3568.204)
(-1563.215 17362.07 6248.859)
(-1824.489 18623.8 9252.117)
(-2181.516 20139.23 11747.14)
(-3658.239 30225.34 16528.7)
(-4316.245 33653.43 16310.96)
(-2292.878 37962.74 18260)
(-991.1193 19095.85 1096.584)
(-1104.141 20210.55 3446.62)
(-1244.277 21466.42 6015.403)
(-1422.958 22902.05 8863.771)
(-1657.77 24577.17 11174.42)
(-2710.38 36461.2 15600.89)
(-3296.868 39913.25 15221.43)
(-3851.873 44454.3 16527.73)
(-2034.033 50173.28 18495.46)
(-792.5388 20082.93 1102.501)
(-874.2962 21201.16 3458.5)
(-973.0997 22449.89 6023.036)
(-1095.316 23859.85 8847.491)
(-1250.522 25474.65 11102.34)
(-1993.352 37516.06 15522.02)
(-2367.025 40610.4 15272.37)
(-2854.775 44494.61 16591.12)
(-3283.566 49602.9 18312.05)
(-1716.915 56053.54 30028.78)
(-626.039 16725.96 1145.71)
(-685.1507 17616.83 3589.524)
(-754.9942 18601.63 6243.848)
(-839.1862 19699.47 9155.209)
(-942.9673 20937.03 11455.99)
(-1473.632 30649.87 16137.85)
(-1708.288 32906 16205.29)
(-2016.461 35618.5 17877.96)
(-2403.018 39021.87 19911.81)
(-2701.645 43500.38 32840.07)
(-670.1894 25014.54 26578.92)
(-508.78 11070.62 1087.362)
(-553.1912 11635.17 3400.694)
(-604.7398 12250.85 5903.569)
(-665.5545 12927.1 8634.85)
(-738.7098 13676.42 10770.86)
(-1136.983 19909.93 15116.18)
(-1294.143 21225.86 15108.17)
(-1495.832 22756.98 16554.44)
(-1755.291 24593.39 18248.04)
(-2066.331 26896.51 29631.43)
(-1089.91 14816.19 23485.87)
(-496.7842 16076.77 29921.02)
(-430.9849 6420.976 1006.816)
(-466.1016 6736.594 3143.555)
(-506.2316 7077.394 5446.929)
(-552.7694 7447.588 7949.377)
(-607.6145 7852.663 9889.717)
(-924.1589 11385.37 13796.71)
(-1036.885 12077.46 13649.88)
(-1178.705 12864.14 14794.01)
(-1359.199 13778.29 16103.45)
(-1587.274 14874.63 25723.03)
(-892.6659 7914.249 19747.57)
(-867.6191 8034.7 24086.95)
(-377.3589 7753.066 28588.53)
(-379.3094 3214.399 938.3005)
(-408.4161 3367.498 2925.566)
(-441.2377 3531.677 5061.5)
(-478.7235 3708.637 7373.89)
(-522.169 3900.532 9154.788)
(-786.7416 5638.444 12709.41)
(-872.6513 5959.527 12469.51)
(-978.5519 6318.608 13396.97)
(-1111.43 6726.658 14441.41)
(-1279.555 7200.962 22792.21)
(-720.2669 3759.217 17101.26)
(-766.8549 3675.115 20142.32)
(-714.8804 3423.04 23244.52)
(-298.498 2904.958 26609.7)
(-344.6522 950.7734 885.9433)
(-369.7299 994.7829 2759.213)
(-397.7198 1041.74 4767.977)
(-429.2719 1092.056 6936.752)
(-465.2955 1146.249 8598.169)
(-695.7673 1653.048 11898.75)
(-764.6856 1742.244 11614.55)
(-848.0011 1840.756 12410.6)
(-950.6378 1950.925 13296.73)
(-1079.243 2076.144 20829.25)
(-600.8372 1072.781 15426.39)
(-647.2675 1030.328 17819.6)
(-675.5896 938.5671 20134.58)
(-606.4768 787.9969 22794.4)
(-242.706 558.1288 17486.48)
(-1047.773 -35565.46 2393.239)
(-2437.658 -35821.68 1962.518)
(-1279.565 -40442.74 6610.93)
(-2426.117 -29001.42 1672.672)
(-2844.114 -32280.74 5509.58)
(-1505.561 -36432.01 10360.61)
(-2191.138 -20119.54 1493.033)
(-2683.88 -22012.15 4834.453)
(-3173.61 -24506.45 8821.92)
(-1688.162 -27651.25 14057.15)
(-1942.061 -11439.3 1367.435)
(-2328.866 -12366.97 4380.096)
(-2860.29 -13532.08 7848.442)
(-3397.975 -15067.79 12066.63)
(-1811.82 -16998.08 16453.77)
(-1708.81 -3585.691 1269.474)
(-1998.374 -3845.479 4037.348)
(-2397.228 -4157.567 7155.764)
(-2947.298 -4549.557 10791.93)
(-3507.15 -5066.249 14143.98)
(-2567.134 -7836.822 21161.99)
(-1490.448 3362.772 1188.671)
(-1708.11 3585.841 3761.039)
(-1996.772 3845.79 6619.393)
(-2394.357 4158.04 9871.931)
(-2942.38 4550.169 12681.77)
(-4799.131 6948.728 18194.45)
(-2561.805 7837.057 18688.94)
(-1283.583 9422.458 1121.285)
(-1447.996 10004.66 3534.316)
(-1658.496 10669 6189.714)
(-1937.29 11443.19 9165.648)
(-2320.285 12373 11640.61)
(-3903.648 18568.69 16366.66)
(-4630.941 20675.41 16123.22)
(-2467.982 23318.66 18077.73)
(-1085.945 14489.18 1068.398)
(-1210.054 15333.44 3357.713)
(-1364.18 16283.17 5859.405)
(-1561.217 17367.43 8633.639)
(-1821.419 18631.32 10885.99)
(-2986.322 27631.2 15147.86)
(-3652.405 30238.75 14662.7)
(-4308.029 33670.56 15816.7)
(-2288.075 37981.71 17681.2)
(-897.7501 18095.25 1037.943)
(-990.6243 19099.69 3254.782)
(-1103.066 20218.65 5665.138)
(-1242.499 21479.23 8318.298)
(-1420.292 22920.11 10436.38)
(-2268.947 33734.17 14469.42)
(-2705.793 36494.11 13965.35)
(-3291.081 39956.56 14895.55)
(-3843.916 44509.54 16162.71)
(-2029.432 50239.16 26175.85)
(-723.485 19073.2 1046.21)
(-792.0659 20089.69 3275.7)
(-873.2771 21215.4 5692.432)
(-971.433 22472.45 8339.215)
(-1092.856 23891.67 10427.73)
(-1710.89 34986.72 14508.09)
(-1989.305 37574.33 14176.86)
(-2362.139 40687.25 15244)
(-2848.571 44593.36 16558.59)
(-3275.279 49727.76 26568.64)
(-833.5557 28825.38 19914.42)
(-575.182 15914.5 1089.637)
(-625.5699 16729.83 3408.433)
(-684.1447 17624.97 5918.347)
(-753.3612 18614.47 8659.205)
(-836.8024 19717.49 10805.81)
(-1289.288 28741.79 15167.04)
(-1469.758 30682.94 15155.79)
(-1703.656 32949.69 16608.78)
(-2010.743 35674.41 18318.1)
(-2395.652 39092.04 29780.92)
(-1300.314 22205.77 23795.73)
(-610.2028 26626.49 31319.09)
(-469.9518 10549.92 1036.033)
(-508.3519 11069.29 3235.833)
(-552.2786 11632.37 5609.159)
(-603.269 12246.38 8189.82)
(-663.4276 12920.7 10193.69)
(-1009.63 18745.97 14266.1)
(-1133.625 19898.9 14206.24)
(-1290.218 21212.03 15492.03)
(-1491.151 22739.77 16967.14)
(-1749.538 24571.96 27295.12)
(-994.617 13306.77 21344.84)
(-987.5265 14272.62 26960.7)
(-434.2662 14851.64 33508.54)
(-399.8613 6127.199 960.7773)
(-430.6019 6418.861 2996.36)
(-465.2891 6732.148 5185.528)
(-504.9303 7070.363 7556.89)
(-550.9016 7437.669 9384.842)
(-830.2918 10753.75 13062.96)
(-921.2904 11368.2 12886.79)
(-1033.607 12055.75 13917)
(-1174.905 12837.23 15078.74)
(-1354.705 13745.32 23936.47)
(-764.9318 7226.213 18208.42)
(-818.3286 7212.3 21927.69)
(-770.1703 6874.742 25877.61)
(-321.3515 5911.954 30266.77)
(-353.2373 3071.019 896.5959)
(-378.9631 3213.052 2792.713)
(-407.6844 3364.673 4826.558)
(-440.0713 3527.223 7022.984)
(-477.0592 3702.378 8706.266)
(-713.4559 5339.492 12064.18)
(-784.2396 5627.697 11808.75)
(-869.8396 5946.011 12651.24)
(-975.3586 6301.967 13589.69)
(-1107.751 6706.452 21350.75)
(-617.0995 3472.7 15920.16)
(-665.0078 3354.744 18581.88)
(-694.6113 3070.986 21190.2)
(-624.8278 2573.912 24173.33)
(-248.9789 1780.619 18641.75)
(-321.9847 909.3795 847.5469)
(-344.3339 950.3473 2637.275)
(-369.0596 993.8907 4553.036)
(-396.6549 1040.335 6616.953)
(-427.759 1090.087 8191.411)
(-635.7133 1568.922 11317.86)
(-693.5267 1649.69 11025.74)
(-762.1957 1738.039 11754.07)
(-845.2116 1835.604 12558.03)
(-947.4797 1944.706 19603.5)
(-520.583 999.0446 14451.68)
(-556.3172 951.8454 16588.42)
(-591.5324 856.755 18578.2)
(-604.4351 706.9977 20795.67)
(-520.3629 495.3993 15918.84)
(-1772.234 2759.159 55436.16)
(-870.9243 -24906.79 2343.708)
(-2021.766 -31468.04 2125.682)
(-1046.702 -35569.69 7081.93)
(-2109.075 -32190.43 1767.135)
(-2435.774 -35832.13 5805.068)
(-1277.443 -40462.46 10808.24)
(-1990.124 -26513.9 1529.312)
(-2424.776 -29006.71 4947.867)
(-2840.432 -32291.64 9010.856)
(-1502.364 -36446.17 14254.65)
(-1829.283 -18612.52 1379.776)
(-2190.117 -20121.5 4418.408)
(-2681.303 -22016.21 7912.915)
(-3168.138 -24512.4 12149.24)
(-1683.848 -27656.56 16493.69)
(-1660.555 -10667.13 1273.237)
(-1941.233 -11439.95 4049)
(-2326.897 -12368.31 7175.48)
(-2856.525 -13534.08 10818.67)
(-3390.723 -15070.18 14169.49)
(-2478.324 -23312.69 21165.01)
(-1490.448 -3362.772 1188.671)
(-1708.11 -3585.841 3761.039)
(-1996.772 -3845.79 6619.393)
(-2394.357 -4158.04 9871.931)
(-2942.38 -4550.169 12681.77)
(-4799.131 -6948.728 18194.45)
(-2561.805 -7837.056 18688.94)
(-1320.544 3167.254 1117.823)
(-1489.841 3362.916 3523.484)
(-1706.755 3586.142 6170.946)
(-1994.434 3846.255 9138.513)
(-2390.614 4158.671 11607.82)
(-4028.095 6241.139 16318.73)
(-4790.432 6949.62 16071.76)
(-2556.665 7837.619 18041.48)
(-1151.295 8904.577 1058.119)
(-1283.047 9423.028 3325.392)
(-1446.816 10005.85 5802.958)
(-1656.511 10670.87 8550.902)
(-1934.235 11445.79 10783.28)
(-3176.648 16972.66 14989.34)
(-3897.813 18573.11 14471.83)
(-4622.614 20680.79 15583.52)
(-2463.085 23323.72 17446.4)
(-983.5315 13730.07 1011.093)
(-1085.461 14490.72 3170.198)
(-1209.003 15336.67 5516.918)
(-1362.441 16288.27 8099.917)
(-1558.607 17374.58 10162.87)
(-2493.466 25562.66 14040.6)
(-2981.841 27643.98 13438.06)
(-3646.747 30255.33 14219.3)
(-4300.082 33691.2 15321.65)
(-2283.439 38004.7 24743.07)
(-819.4222 17185.93 984.6882)
(-897.3025 18098.91 3081.864)
(-989.6603 19107.39 5352.512)
(-1101.49 20230.8 7837.614)
(-1240.172 21496.32 9797.942)
(-1943.934 31460.06 13516.37)
(-2265.176 33765.08 12952.67)
(-2701.305 36534.58 13666.73)
(-3285.424 40008.12 14568.04)
(-3836.163 44573.92 22891.69)
(-991.2427 25519.84 16286.52)
(-664.6077 18149.1 994.6979)
(-723.0538 19079.64 3109.431)
(-791.1425 20103.23 5393.87)
(-871.7796 21236.81 7884.6)
(-969.2481 22502.6 9831.885)
(-1495.178 32813.03 13628.65)
(-1707.429 35041.52 13250.68)
(-1985.265 37646.16 14150.33)
(-2357.262 40778.84 15213.94)
(-2842.382 44708.36 24026.55)
(-1594.405 25614.85 17655.68)
(-788.4822 31490.32 19575.22)
(-531.1986 15167.68 1037.998)
(-574.7511 15918.21 3242.471)
(-624.6508 16737.61 5621.757)
(-682.6623 17637.22 8210.456)
(-751.2152 18631.64 10223.11)
(-1144.121 27067.92 14307.85)
(-1285.892 28773.14 14243.41)
(-1465.784 30724.17 15532.24)
(-1698.905 33002.16 17016.28)
(-2004.879 35739.86 27393.91)
(-1158.175 19969.59 21574.02)
(-1191.952 23709.51 28085.86)
(-540.8604 29152.86 37588.66)
(-435.9557 10068.48 988.5246)
(-469.5564 10548.67 3083.825)
(-507.5125 11066.66 5338.954)
(-550.9328 11628.18 7783.688)
(-601.3352 12240.41 9670.646)
(-906.725 17710.31 13502.93)
(-1006.635 18735.78 13406.64)
(-1130.177 19886.19 14566.28)
(-1286.19 21196.33 15876.95)
(-1486.347 22720.47 25375.9)
(-843.7793 12161.1 19653.79)
(-911.4225 12833.44 24486.44)
(-872.527 13216.63 30201.1)
(-364.4867 12476.71 37235.73)
(-372.3416 5854.513 917.9911)
(-399.506 6125.19 2859.994)
(-429.8507 6414.646 4944.218)
(-464.0907 6725.496 7196.22)
(-503.219 7061.002 8923.494)
(-752.7833 10185.54 12397.22)
(-827.702 10737.63 12200.89)
(-918.3629 11347.88 13138.28)
(-1030.262 12030.69 14183.91)
(-1171.027 12806.72 22411.11)
(-653.28 6679.126 16938.5)
(-704.7602 6589.024 20206.17)
(-737.4348 6176.6 23544.84)
(-665.8717 5252.067 27397.21)
(-262.5762 3502.655 21415.28)
(-329.9878 2937.505 857.698)
(-352.9149 3069.737 2669.157)
(-378.2837 3210.368 4608.699)
(-406.6049 3360.449 6698.742)
(-438.5371 3521.298 8293.718)
(-651.8116 5068.284 11474.12)
(-711.1763 5329.363 11208.84)
(-781.699 5614.99 11980.36)
(-866.9848 5930.419 12832.57)
(-972.1166 6283.121 20090.07)
(-534.2679 3234.789 14910.03)
(-570.6835 3100.187 17291.01)
(-606.2147 2804.588 19539.86)
(-618.6685 2311.009 22029.6)
(-531.6764 1581.917 16936.27)
(-1802.114 8317.102 59048.72)
(-301.6219 870.7422 811.6304)
(-321.6875 908.9734 2523.485)
(-343.7093 949.4981 4352.996)
(-368.07 992.5564 6320.208)
(-395.2537 1038.468 7815.328)
(-584.4213 1492.064 10783.33)
(-633.6579 1565.749 10487.16)
(-691.2577 1645.724 11157.82)
(-759.6744 1733.193 11893.23)
(-842.387 1829.774 18513.39)
(-456.9503 935.9322 13599.02)
(-482.1033 886.6653 15535.46)
(-509.4718 791.744 17289.01)
(-533.4449 645.6631 19182.5)
(-531.1137 444.9944 14521.16)
(-3862.416 2460.362 50551.55)
(-1641.367 1849.332 32661.6)
(-755.0774 -15283.64 2244.073)
(-1707.48 -21979.84 2101.242)
(-869.9544 -24900.83 6937.768)
(-1787.002 -28263.69 1921.935)
(-2019.881 -31473.58 6297.279)
(-1044.634 -35578.54 11604.72)
(-1743.943 -29430.54 1618.586)
(-2107.699 -32200.4 5232.166)
(-2432.143 -35853.19 9506.532)
(-1274.358 -40492.5 14889.68)