/*--------------------------------*- C++ -*----------------------------------*\
| =========                 |                                                 |
| \\      /  F ield         | OpenFOAM: The Open Source CFD Toolbox           |
|  \\    /   O peration     | Version:  2306                                  |
|   \\  /    A nd           | Website:  www.openfoam.com                      |
|    \\/     M anipulation  |                                                 |
\*---------------------------------------------------------------------------*/
FoamFile
{
    version     2.0;
    format      ascii;
    arch        "LSB;label=32;scalar=64";
    class       volScalarField;
    location    "0.6/phiEA";
    object      phi;
}
// * * * * * * * * * * * * * * * * * * * * * * * * * * * * * * * * * * * * * //

dimensions      [1 2 -3 0 0 -1 0];

internalField   nonuniform List<scalar> 
20000
(
-0.005170566
-0.005314108
-0.004795619
-0.005165693
-0.005632147
-0.004921396
-0.005309151
-0.004411138
-0.00479119
-0.005156146
-0.006187459
-0.005200675
-0.005627018
-0.004523544
-0.0049169
-0.005299436
-0.004076222
-0.004407096
-0.0047825
-0.005142064
-0.007055393
-0.005689788
-0.006182102
-0.004773427
-0.005196044
-0.005616965
-0.004178654
-0.004519446
-0.004908077
-0.005285105
-0.003790198
-0.004072494
-0.004399159
-0.00476967
-0.005123533
-0.008219771
-0.006456665
-0.007049922
-0.005211756
-0.005684985
-0.006171601
-0.004406526
-0.004769215
-0.005186956
-0.005602133
-0.003884748
-0.004174876
-0.004511395
-0.004895051
-0.005266247
-0.00354389
-0.003786732
-0.004065167
-0.00438743
-0.004752776
-0.005103699
-0.009365854
-0.007487962
-0.008214656
-0.005900098
-0.006451807
-0.007039205
-0.004806625
-0.005207399
-0.005675557
-0.006156107
-0.004095189
-0.004402647
-0.004760938
-0.005173534
-0.005582612
-0.00363191
-0.003881236
-0.004167448
-0.004499498
-0.004877896
-0.00524606
-0.003328981
-0.003540648
-0.003779912
-0.004054331
-0.004371975
-0.004734685
-0.00508675
-0.01030082
-0.008503619
-0.009360936
-0.006826824
-0.007483476
-0.008204661
-0.005435521
-0.005895705
-0.006442272
-0.007023397
-0.004464925
-0.004802619
-0.005198835
-0.005661629
-0.00613571
-0.00382789
-0.004091585
-0.004395018
-0.004748703
-0.005155856
-0.005561714
-0.003411417
-0.003628625
-0.003874325
-0.004156462
-0.00448382
-0.004859524
-0.005228765
-0.00313893
-0.003325934
-0.003534263
-0.003769821
-0.004040044
-0.004355418
-0.004719228
-0.005069579
-0.0109455
-0.009332266
-0.01029596
-0.007739551
-0.008499357
-0.009351346
-0.006282776
-0.006822785
-0.007474693
-0.008189951
-0.005046467
-0.005431489
-0.005887073
-0.006428189
-0.007002591
-0.004172389
-0.004461206
-0.004794737
-0.005186173
-0.00564328
-0.006113871
-0.00359502
-0.003824522
-0.004084492
-0.004383733
-0.004732577
-0.005136922
-0.005543718
-0.003216485
-0.003408331
-0.003622157
-0.003864098
-0.004141978
-0.004467023
-0.004843787
-0.005211199
-0.002968882
-0.003136056
-0.00331993
-0.00352481
-0.003756509
-0.004024733
-0.004341275
-0.004703571
-0.005052188
-0.01127205
-0.009903651
-0.01094065
-0.008484048
-0.009328089
-0.01028649
-0.007117266
-0.007735728
-0.008491026
-0.009337255
-0.005830285
-0.006279076
-0.006814865
-0.007461747
-0.008170627
-0.004714494
-0.005042729
-0.005423559
-0.005874312
-0.006409637
-0.006980314
-0.003917887
-0.004168915
-0.004453886
-0.004783076
-0.005169481
-0.005623624
-0.006094957
-0.003389261
-0.003591856
-0.003817887
-0.004073993
-0.00436885
-0.004715298
-0.005120619
-0.005525351
-0.003042104
-0.003213575
-0.00340225
-0.00361258
-0.003850606
-0.004126453
-0.004452637
-0.004827805
-0.005193363
-0.002815234
-0.002966164
-0.003130391
-0.003311037
-0.003512336
-0.003742237
-0.004011657
-0.004326953
-0.004687717
-0.005034576
-0.01127205
-0.01019308
-0.0112672
-0.008997273
-0.0098995
-0.0109312
-0.007797856
-0.008480311
-0.00931993
-0.01027259
-0.006602338
-0.007113771
-0.007728242
-0.008478761
-0.009318764
-0.005445407
-0.00582686
-0.006271814
-0.006803177
-0.007444721
-0.008149966
-0.004426141
-0.004711005
-0.005035372
-0.005411826
-0.005857489
-0.006389762
-0.00696105
-0.003693183
-0.003914626
-0.004162072
-0.004443047
-0.004767693
-0.00515159
-0.005606599
-0.006075547
-0.003205261
-0.003386279
-0.003585621
-0.00380806
-0.004060141
-0.004352897
-0.004700423
-0.005103981
-0.005506612
-0.002884562
-0.003039352
-0.003207838
-0.003393241
-0.00359994
-0.003836141
-0.004113159
-0.004438032
-0.004811581
-0.005175258
-0.002675287
-0.002812657
-0.002960804
-0.003121996
-0.003299297
-0.003498958
-0.00373005
-0.003998417
-0.004312453
-0.004671664
-0.004847354
-0.0109455
-0.01019308
-0.0112672
-0.009257196
-0.01018894
-0.01125775
-0.008266954
-0.008993565
-0.009891394
-0.01091733
-0.007231969
-0.007794443
-0.008472998
-0.009307925
-0.01025436
-0.006165393
-0.006599105
-0.007106918
-0.007717208
-0.008462647
-0.00929901
-0.005111598
-0.005442213
-0.00582013
-0.006261087
-0.006787794
-0.007426505
-0.008132585
-0.00417176
-0.004422868
-0.004704133
-0.005024479
-0.005396349
-0.005839458
-0.006372567
-0.006941307
-0.003492338
-0.00369011
-0.003908198
-0.004151934
-0.004428742
-0.004751199
-0.005136098
-0.005589125
-0.00605564
-0.003039071
-0.003202441
-0.003380397
-0.003576381
-0.003795089
-0.004045287
-0.004339167
-0.004685247
-0.005087008
-0.005487503
-0.002741085
-0.002881954
-0.003033924
-0.003199335
-0.003381348
-0.003586384
-0.003823756
-0.004099666
-0.004423208
-0.004795114
-0.004982335
-0.002546968
-0.002672839
-0.002807573
-0.002952856
-0.003110909
-0.003286702
-0.003487535
-0.003717713
-0.003985015
-0.004297774
-0.004501038
-0.004469696
-0.01030082
-0.009903651
-0.01094065
-0.009257196
-0.01018894
-0.01125775
-0.008504502
-0.009253496
-0.01018085
-0.01124387
-0.00766591
-0.00826357
-0.008986311
-0.00987947
-0.01089914
-0.006752551
-0.007228815
-0.007787757
-0.008462224
-0.00929216
-0.01023489
-0.005786846
-0.006162381
-0.006592761
-0.007096807
-0.007702698
-0.008445422
-0.009282704
-0.004817333
-0.005108603
-0.005435932
-0.005810182
-0.006246959
-0.006771327
-0.00741117
-0.008115251
-0.003944504
-0.004168678
-0.004416417
-0.004693952
-0.005010103
-0.005379755
-0.005823859
-0.006354934
-0.006921081
-0.003310992
-0.003489434
-0.00368405
-0.00389867
-0.004138548
-0.0044134
-0.00473692
-0.005120202
-0.005571202
-0.006035234
-0.002887748
-0.003036399
-0.003196878
-0.003371679
-0.00356418
-0.003781175
-0.004032504
-0.004325161
-0.00466977
-0.005069701
-0.005282973
-0.002609541
-0.002738607
-0.002876806
-0.003025876
-0.003188105
-0.003368588
-0.003574779
-0.003811187
-0.004085973
-0.004408167
-0.004619676
-0.004588937
-0.002428658
-0.002544639
-0.002668007
-0.002800032
-0.002942357
-0.003099011
-0.003275949
-0.003475972
-0.003705225
-0.00397145
-0.004141788
-0.004157074
-0.004073461
-0.009365854
-0.009332266
-0.01029596
-0.008997273
-0.0098995
-0.0109312
-0.008504502
-0.009253496
-0.01018085
-0.01124387
-0.007885643
-0.008501128
-0.009246259
-0.01016894
-0.01122568
-0.007157205
-0.007662785
-0.008256942
-0.008975626
-0.009863813
-0.01087972
-0.006337519
-0.006749614
-0.007222629
-0.007777896
-0.008448063
-0.009275312
-0.01021895
-0.005453327
-0.005784024
-0.006156464
-0.006583393
-0.007083502
-0.007687177
-0.008431195
-0.009266755
-0.004554559
-0.004814515
-0.005102711
-0.005426642
-0.005797072
-0.006231829
-0.006757463
-0.007395864
-0.008097963
-0.003739377
-0.003941591
-0.004162598
-0.004406855
-0.00468051
-0.004994683
-0.0053654
-0.005807866
-0.006336861
-0.006900365
-0.003145911
-0.003308241
-0.003483703
-0.003675064
-0.003886087
-0.004124188
-0.004400119
-0.00472227
-0.0051039
-0.005552829
-0.005815725
-0.002749034
-0.00288521
-0.003031124
-0.003188628
-0.003360162
-0.003551089
-0.003769203
-0.004019466
-0.004310879
-0.004653992
-0.004884478
-0.00485689
-0.002488267
-0.002607183
-0.002733715
-0.00286917
-0.003015243
-0.003176054
-0.003357665
-0.003563002
-0.003798433
-0.004072081
-0.004247946
-0.004262137
-0.004172269
-0.002319077
-0.002426438
-0.002540039
-0.002660838
-0.002790066
-0.002931088
-0.003088854
-0.003265064
-0.003464269
-0.003692587
-0.003827322
-0.003827614
-0.003796327
-0.003661859
-0.008219771
-0.008503619
-0.009360936
-0.008484048
-0.009328089
-0.01028649
-0.008266954
-0.008993565
-0.009891394
-0.01091733
-0.007885643
-0.008501128
-0.009246259
-0.01016894
-0.01122568
-0.007362101
-0.007882526
-0.008494518
-0.009235601
-0.01015331
-0.01120625
-0.006717022
-0.007154295
-0.007656655
-0.008247169
-0.008961583
-0.009847082
-0.01086386
-0.005971991
-0.006334768
-0.006743848
-0.0072135
-0.007764924
-0.008432918
-0.009261513
-0.01020349
-0.005155592
-0.005450672
-0.005778477
-0.006147722
-0.006571059
-0.007069262
-0.007674357
-0.00841727
-0.009251163
-0.004317437
-0.004551898
-0.004808965
-0.005093991
-0.005414393
-0.005783027
-0.00621909
-0.006743624
-0.007380588
-0.008080725
-0.003552695
-0.003736619
-0.003935845
-0.004153583
-0.004394225
-0.004666087
-0.004981346
-0.005350684
-0.005791474
-0.006318342
-0.006677652
-0.002994617
-0.003143298
-0.003302808
-0.003475202
-0.00366319
-0.003872582
-0.004111757
-0.004386495
-0.00470725
-0.005087191
-0.00535516
-0.005345682
-0.002621167
-0.002746619
-0.002880198
-0.003023298
-0.003177726
-0.003347802
-0.003539826
-0.003756993
-0.004006174
-0.004296322
-0.00448516
-0.004498733
-0.004396046
-0.002375947
-0.002486019
-0.002602526
-0.002726457
-0.002859079
-0.00300383
-0.003165739
-0.003346582
-0.003551053
-0.003785495
-0.003924128
-0.003921718
-0.003883574
-0.003736068
-0.002217188
-0.002316958
-0.002422052
-0.002533211
-0.002651361
-0.002779368
-0.002921467
-0.003078573
-0.003254049
-0.003452427
-0.003558325
-0.003537231
-0.003498322
-0.003421653
-0.003238768
-0.007055393
-0.007487962
-0.008214656
-0.007739551
-0.008499357
-0.009351346
-0.007797856
-0.008480311
-0.00931993
-0.01027259
-0.00766591
-0.00826357
-0.008986311
-0.00987947
-0.01089914
-0.007362101
-0.007882526
-0.008494518
-0.009235601
-0.01015331
-0.01120625
-0.00690918
-0.0073592
-0.007876415
-0.008484772
-0.009221592
-0.01013661
-0.01119041
-0.006329431
-0.006714297
-0.007148582
-0.00764761
-0.008234315
-0.008946566
-0.009833421
-0.01084854
-0.005645751
-0.005969403
-0.006329364
-0.006735331
-0.007201482
-0.007751045
-0.008420515
-0.009248127
-0.01018852
-0.004886973
-0.005153086
-0.005445449
-0.005770274
-0.006136204
-0.006557852
-0.0070575
-0.007661808
-0.008403649
-0.009235929
-0.00410168
-0.004314917
-0.004546654
-0.004800748
-0.005082488
-0.005401265
-0.005771202
-0.006206375
-0.006729811
-0.007365344
-0.00790027
-0.003381641
-0.003550077
-0.003731173
-0.00392732
-0.004141672
-0.00438067
-0.004653614
-0.004967674
-0.005335604
-0.00577468
-0.006119161
-0.00619662
-0.002855179
-0.002992131
-0.003138138
-0.003294747
-0.003463967
-0.003650445
-0.003860893
-0.004099007
-0.004372528
-0.004691857
-0.004907467
-0.004931695
-0.004818358
-0.002502757
-0.002618866
-0.002741849
-0.00287276
-0.003012954
-0.003166023
-0.003337168
-0.003528339
-0.003744546
-0.003992627
-0.00414059
-0.004133874
-0.00408158
-0.003903939
-0.002271518
-0.002373803
-0.00248158
-0.002595614
-0.002716861
-0.002848245
-0.002994061
-0.003155272
-0.003335337
-0.003538933
-0.003647724
-0.003623091
-0.003576536
-0.00348732
-0.003285279
-0.002122133
-0.002215163
-0.00231277
-0.002415539
-0.002524183
-0.002641185
-0.002770235
-0.00291173
-0.00306817
-0.003242903
-0.003326624
-0.003288225
-0.003233335
-0.003156462
-0.003036513
-0.002959133
-0.006187459
-0.006456665
-0.007049922
-0.006826824
-0.007483476
-0.008204661
-0.007117266
-0.007735728
-0.008491026
-0.009337255
-0.007231969
-0.007794443
-0.008472998
-0.009307925
-0.01025436
-0.007157205
-0.007662785
-0.008256942
-0.008975626
-0.009863813
-0.01087972
-0.00690918
-0.0073592
-0.007876415
-0.008484772
-0.009221592
-0.01013661
-0.01119041
-0.006510417
-0.006906463
-0.007353505
-0.007867396
-0.008471953
-0.009206614
-0.01012299
-0.0111751
-0.005983546
-0.006326868
-0.006708943
-0.007140147
-0.007635705
-0.008220562
-0.008934305
-0.00982021
-0.01083373
-0.005351451
-0.005643309
-0.005964316
-0.006321375
-0.006724114
-0.007188617
-0.007739678
-0.00840848
-0.009235152
-0.01017402
-0.004642592
-0.004884601
-0.005148153
-0.005437723
-0.005759463
-0.006123867
-0.006546943
-0.007045986
-0.007649531
-0.008390332
-0.009079768
-0.003904017
-0.004099289
-0.004309949
-0.004538886
-0.004789904
-0.005070156
-0.005390213
-0.005759399
-0.006193683
-0.006716026
-0.00720564
-0.007564557
-0.00322402
-0.00337915
-0.003544905
-0.003723091
-0.003916052
-0.004128884
-0.004368947
-0.004640828
-0.004953664
-0.005320154
-0.005594058
-0.005688118
-0.005633683
-0.002726073
-0.002852811
-0.002987221
-0.003130477
-0.003284089
-0.003451903
-0.003639413
-0.003848905
-0.004085937
-0.004358217
-0.004526312
-0.004522743
-0.00445647
-0.004228731
-0.002392675
-0.002500561
-0.002614319
-0.002734766
-0.002862925
-0.003001847
-0.003155955
-0.003326324
-0.003516631
-0.003731862
-0.003847717
-0.003816793
-0.003754237
-0.003636146
-0.003387153
-0.002174097
-0.002269469
-0.002369564
-0.002474987
-0.002586474
-0.002706557
-0.002838972
-0.002984149
-0.003144653
-0.003323932
-0.003409878
-0.003367545
-0.003304732
-0.003215378
-0.003077797
-0.002986724
-0.002033197
-0.002120196
-0.00221116
-0.002306551
-0.002406927
-0.002514488
-0.002632498
-0.002760992
-0.002901877
-0.003057643
-0.003124506
-0.003073633
-0.003005378
-0.002917957
-0.002805133
-0.002781909
-0.002804251
-0.005632147
-0.005689788
-0.006182102
-0.005900098
-0.006451807
-0.007039205
-0.006282776
-0.006822785
-0.007474693
-0.008189951
-0.006602338
-0.007113771
-0.007728242
-0.008478761
-0.009318764
-0.006752551
-0.007228815
-0.007787757
-0.008462224
-0.00929216
-0.01023489
-0.006717022
-0.007154295
-0.007656655
-0.008247169
-0.008961583
-0.009847082
-0.01086386
-0.006510417
-0.006906463
-0.007353505
-0.007867396
-0.008471953
-0.009206614
-0.01012299
-0.0111751
-0.006154584
-0.006507862
-0.006901127
-0.007345095
-0.007855527
-0.008458239
-0.009194394
-0.01010983
-0.01116034
-0.005671549
-0.005981127
-0.00632183
-0.006701033
-0.007129037
-0.007622963
-0.008209333
-0.008922446
-0.009807449
-0.01081946
-0.005083733
-0.00534914
-0.005638505
-0.005956793
-0.006310849
-0.006712101
-0.007178081
-0.007728649
-0.008396816
-0.009222591
-0.01002692
-0.004418732
-0.004640342
-0.004879929
-0.005140852
-0.005427534
-0.005747879
-0.006113677
-0.006536264
-0.007034722
-0.007637528
-0.008253732
-0.008820813
-0.003721904
-0.003901743
-0.004094573
-0.004302588
-0.004528632
-0.004778275
-0.005059774
-0.005379181
-0.005747618
-0.006181018
-0.006571599
-0.006907488
-0.007247763
-0.003078099
-0.003221647
-0.003374229
-0.003537227
-0.003712406
-0.003903953
-0.004117825
-0.004356931
-0.004627727
-0.004939313
-0.005154015
-0.005203327
-0.005182966
-0.004943665
-0.002606062
-0.002723813
-0.002848131
-0.002979928
-0.003120347
-0.003272642
-0.003441462
-0.0036281
-0.003836616
-0.004072546
-0.004204318
-0.004172177
-0.004091252
-0.003924992
-0.003577167
-0.00228999
-0.002390577
-0.00249622
-0.002607565
-0.0027254
-0.002852363
-0.002992292
-0.003145688
-0.003315271
-0.003504699
-0.00359619
-0.003546574
-0.003467051
-0.003349046
-0.00316834
-0.003042304
-0.002082954
-0.002172137
-0.002265417
-0.002363268
-0.002466268
-0.002576657
-0.002697737
-0.002829564
-0.002974093
-0.003133884
-0.0032025
-0.003147522
-0.003071357
-0.002971763
-0.002842216
-0.002806513
-0.002822744
-0.001949777
-0.002031342
-0.002116365
-0.002205214
-0.002298324
-0.002397676
-0.002506211
-0.002623706
-0.002751639
-0.002891908
-0.002945832
-0.002886472
-0.002808776
-0.002711924
-0.002593919
-0.002572891
-0.002640114
-0.002632517
-0.005314108
-0.005200674
-0.005627018
-0.005211756
-0.005684985
-0.006171601
-0.005435521
-0.005895705
-0.006442272
-0.007023397
-0.005830285
-0.006279076
-0.006814865
-0.007461747
-0.008170627
-0.006165393
-0.006599105
-0.007106918
-0.007717208
-0.008462647
-0.00929901
-0.006337519
-0.006749614
-0.007222629
-0.007777896
-0.008448063
-0.009275312
-0.01021895
-0.006329431
-0.006714297
-0.007148582
-0.00764761
-0.008234315
-0.008946566
-0.009833421
-0.01084854
-0.006154584
-0.006507862
-0.006901127
-0.007345095
-0.007855527
-0.008458239
-0.009194394
-0.01010983
-0.01116034
-0.005833626
-0.006152173
-0.00650284
-0.006893241
-0.00733402
-0.007842822
-0.008447052
-0.009182588
-0.01009712
-0.01114611
-0.005387749
-0.00566926
-0.00597637
-0.006314381
-0.00669061
-0.007117142
-0.007612558
-0.008198472
-0.008910992
-0.009795138
-0.01067509
-0.004838513
-0.005081541
-0.005344591
-0.005631397
-0.005946876
-0.006299573
-0.006702263
-0.007167857
-0.007717958
-0.008385522
-0.009095038
-0.009796062
-0.004212504
-0.004416592
-0.004635907
-0.004873011
-0.00513122
-0.005416614
-0.00573831
-0.006103701
-0.006525816
-0.007023709
-0.007514386
-0.008026488
-0.008608092
-0.003553328
-0.003719739
-0.003897257
-0.004087581
-0.004292867
-0.004517632
-0.004768484
-0.00504941
-0.00536817
-0.005735862
-0.006048322
-0.006301885
-0.006625313
-0.006972566
-0.002942473
-0.003075835
-0.003216958
-0.003366922
-0.003527073
-0.003700929
-0.003893489
-0.004106491
-0.004344619
-0.004614307
-0.004785
-0.00479479
-0.004745599
-0.004563256
-0.004044021
-0.002494128
-0.002603903
-0.002719346
-0.002841178
-0.002970282
-0.003109464
-0.003262737
-0.003430754
-0.003616504
-0.003824026
-0.003928552
-0.003875249
-0.003775199
-0.003608909
-0.003337627
-0.003125108
-0.002193932
-0.002287983
-0.002386428
-0.002489771
-0.002598632
-0.002715339
-0.002843277
-0.002982549
-0.003135224
-0.003304008
-0.003377091
-0.003314347
-0.003221426
-0.00309391
-0.002923612
-0.002856103
-0.002857779
-0.001997467
-0.002081077
-0.00216826
-0.002259398
-0.00235494
-0.002456902
-0.002568255
-0.002688789
-0.00282002
-0.002963896
-0.003019226
-0.002955708
-0.00287025
-0.002761662
-0.002627805
-0.002595029
-0.002656631
-0.002643883
-0.001871353
-0.001947999
-0.002027673
-0.002110673
-0.002197346
-0.002289485
-0.002389779
-0.002497835
-0.00261481
-0.002742176
-0.002786022
-0.002721086
-0.002637325
-0.002534042
-0.002410468
-0.00237974
-0.002443406
-0.002482128
-0.00245092
-0.005170566
-0.004921396
-0.005309151
-0.004773427
-0.005196044
-0.005616965
-0.004806625
-0.005207399
-0.005675557
-0.006156107
-0.005046467
-0.005431489
-0.005887073
-0.006428189
-0.007002591
-0.005445407
-0.00582686
-0.006271814
-0.006803177
-0.007444721
-0.008149966
-0.005786846
-0.006162381
-0.006592761
-0.007096807
-0.007702698
-0.008445422
-0.009282704
-0.005971991
-0.006334768
-0.006743848
-0.0072135
-0.007764924
-0.008432918
-0.009261513
-0.01020349
-0.005983546
-0.006326868
-0.006708943
-0.007140147
-0.007635705
-0.008220562
-0.008934305
-0.00982021
-0.01083373
-0.005833626
-0.006152173
-0.00650284
-0.006893241
-0.00733402
-0.007842822
-0.008447052
-0.009182588
-0.01009712
-0.01114611
-0.005541683
-0.005831344
-0.006147431
-0.006495414
-0.00688285
-0.007322161
-0.007832458
-0.008436243
-0.009171195
-0.01008488
-0.01100241
-0.005127811
-0.005385578
-0.005664756
-0.005969332
-0.006304562
-0.006679445
-0.007107428
-0.007602495
-0.008187981
-0.00889994
-0.009670599
-0.01045305
-0.004612624
-0.00483643
-0.005077223
-0.005337857
-0.005622022
-0.005936248
-0.006290337
-0.006692716
-0.007157948
-0.007707607
-0.008270831
-0.008894427
-0.009617565
-0.004021619
-0.004210467
-0.004412375
-0.004629338
-0.004863882
-0.005120893
-0.005407594
-0.005728943
-0.006093942
-0.006515601
-0.006910718
-0.007309427
-0.007839291
-0.008452736
-0.003396659
-0.003551262
-0.003715465
-0.003890605
-0.004078345
-0.004282436
-0.004508372
-0.004758712
-0.005039067
-0.005357182
-0.00561269
-0.005800533
-0.006046565
-0.006379606
-0.006786114
-0.002815992
-0.002940311
-0.00307136
-0.003209993
-0.003357256
-0.003516165
-0.003691005
-0.003882765
-0.004094877
-0.004332008
-0.004470015
-0.004451461
-0.00437416
-0.004184307
-0.00375505
-0.003222929
-0.002389432
-0.002492064
-0.002599634
-0.002712708
-0.002831979
-0.002959918
-0.003100047
-0.003252578
-0.003419779
-0.003604624
-0.003688656
-0.003620763
-0.003506507
-0.003331614
-0.003076019
-0.002930057
-0.0029034
-0.002103841
-0.00219201
-0.002284013
-0.002380263
-0.002481239
-0.002589034
-0.002706685
-0.002834013
-0.002972619
-0.003124562
-0.003183554
-0.00311207
-0.003010122
-0.002874622
-0.002702223
-0.002639671
-0.002687933
-0.002664368
-0.001917101
-0.001995667
-0.002077363
-0.002162499
-0.002251434
-0.002345992
-0.002448886
-0.002559731
-0.002679713
-0.002810341
-0.002855329
-0.002786249
-0.00269494
-0.002580394
-0.002441805
-0.002399988
-0.002458275
-0.002492286
-0.00245742
-0.001797466
-0.001869647
-0.001944481
-0.002022219
-0.00210314
-0.002188891
-0.00228194
-0.002381787
-0.00248936
-0.00260581
-0.00264167
-0.002573221
-0.002485885
-0.002378928
-0.002251855
-0.002211236
-0.002260395
-0.002298916
-0.00231431
-0.002264191
-0.004795619
-0.005165693
-0.004523544
-0.0049169
-0.005299436
-0.004406526
-0.004769215
-0.005186956
-0.005602133
-0.004464925
-0.004802619
-0.005198835
-0.005661629
-0.00613571
-0.004714494
-0.005042729
-0.005423559
-0.005874312
-0.006409637
-0.006980314
-0.005111598
-0.005442213
-0.00582013
-0.006261087
-0.006787794
-0.007426505
-0.008132585
-0.005453327
-0.005784024
-0.006156464
-0.006583393
-0.007083502
-0.007687177
-0.008431195
-0.009266755
-0.005645751
-0.005969403
-0.006329364
-0.006735331
-0.007201482
-0.007751045
-0.008420515
-0.009248127
-0.01018852
-0.005671549
-0.005981127
-0.00632183
-0.006701033
-0.007129037
-0.007622963
-0.008209333
-0.008922446
-0.009807449
-0.01081946
-0.005541683
-0.005831344
-0.006147431
-0.006495414
-0.00688285
-0.007322161
-0.007832458
-0.008436243
-0.009171195
-0.01008488
-0.01100241
-0.005274294
-0.005539519
-0.005826855
-0.006140416
-0.006485627
-0.006871721
-0.007312487
-0.007822444
-0.008425811
-0.009160216
-0.009961208
-0.01078274
-0.004888373
-0.005125748
-0.005381303
-0.005658089
-0.005960052
-0.00629404
-0.006670328
-0.007098034
-0.007592774
-0.008177859
-0.008788141
-0.00947878
-0.01028494
-0.00440355
-0.00461064
-0.004832324
-0.00507083
-0.005328973
-0.005611974
-0.005927543
-0.006281376
-0.006683463
-0.007148353
-0.007602486
-0.008090385
-0.008739034
-0.009495209
-0.003844229
-0.004019676
-0.00420645
-0.004406126
-0.004620666
-0.004854091
-0.005112363
-0.005398763
-0.005719779
-0.006084399
-0.006410799
-0.006722631
-0.007140513
-0.007702259
-0.008368614
-0.003250572
-0.003394687
-0.003547185
-0.003709125
-0.003881814
-0.004068433
-0.004273654
-0.004499128
-0.004748958
-0.005028745
-0.005242061
-0.005382707
-0.005565993
-0.005824212
-0.006212831
-0.002697704
-0.002813925
-0.002936035
-0.003064711
-0.003200776
-0.003346869
-0.003506732
-0.003680833
-0.003871777
-0.004082982
-0.004196421
-0.004158214
-0.004061036
-0.003858578
-0.003452608
-0.003017532
-0.002943838
-0.002291248
-0.002387455
-0.002487979
-0.002593289
-0.002703923
-0.002822093
-0.002950949
-0.00309039
-0.003242166
-0.003408536
-0.003476893
-0.003399371
-0.003275957
-0.003094592
-0.002841684
-0.002706296
-0.002728714
-0.002688622
-0.002019152
-0.002101999
-0.002188208
-0.002278113
-0.002372104
-0.00247207
-0.002580777
-0.00269786
-0.002824571
-0.002962501
-0.003010535
-0.002933444
-0.00282606
-0.002685699
-0.002510648
-0.002440831
-0.002486462
-0.002510599
-0.002468724
-0.001841388
-0.001915374
-0.001992107
-0.002071843
-0.002154874
-0.002242875
-0.002338334
-0.002440753
-0.002551084
-0.002670509
-0.002707301
-0.002634765
-0.002540118
-0.002422377
-0.002281069
-0.002229972
-0.002273997
-0.002308061
-0.002320114
-0.002267524
-0.001727725
-0.001795829
-0.001866271
-0.001939251
-0.002015
-0.002095045
-0.002181675
-0.002274305
-0.0023737
-0.002480786
-0.002510222
-0.002439707
-0.002350551
-0.002241982
-0.002113551
-0.002065375
-0.002100321
-0.002127217
-0.002145165
-0.002141015
-0.002075361
-0.004411138
-0.00479119
-0.005156146
-0.004178654
-0.004519446
-0.004908077
-0.005285105
-0.004095189
-0.004402647
-0.004760938
-0.005173534
-0.005582612
-0.004172389
-0.004461206
-0.004794737
-0.005186173
-0.00564328
-0.006113871
-0.004426141
-0.004711005
-0.005035372
-0.005411826
-0.005857489
-0.006389762
-0.006961051
-0.004817333
-0.005108603
-0.005435932
-0.005810182
-0.006246959
-0.006771327
-0.00741117
-0.008115251
-0.005155592
-0.005450672
-0.005778477
-0.006147722
-0.006571059
-0.007069262
-0.007674357
-0.00841727
-0.009251163
-0.005351451
-0.005643309
-0.005964316
-0.006321375
-0.006724114
-0.007188617
-0.007739678
-0.00840848
-0.009235152
-0.01017402
-0.005387749
-0.00566926
-0.00597637
-0.006314381
-0.00669061
-0.007117142
-0.007612558
-0.008198472
-0.008910992
-0.009795138
-0.01067509
-0.005274294
-0.005539519
-0.005826855
-0.006140416
-0.006485627
-0.006871721
-0.007312487
-0.007822444
-0.008425811
-0.009160216
-0.009961208
-0.01078274
-0.005027996
-0.005272237
-0.005535259
-0.00582021
-0.006131165
-0.006475139
-0.006862641
-0.007303139
-0.007812781
-0.008415759
-0.009049276
-0.009771925
-0.01061743
-0.004666766
-0.004886409
-0.005121683
-0.005374974
-0.005649294
-0.005950104
-0.006285448
-0.00666151
-0.007088958
-0.007583395
-0.00807546
-0.008615907
-0.009333376
-0.01017193
-0.004209266
-0.004401658
-0.00460673
-0.004826242
-0.005062392
-0.005319447
-0.005603743
-0.005919097
-0.006272689
-0.006674503
-0.00705091
-0.007437076
-0.007950567
-0.00863236
-0.009432754
-0.003678833
-0.003842374
-0.004015844
-0.004200494
-0.004397873
-0.004611364
-0.004846004
-0.005104012
-0.005390124
-0.005710818
-0.005986495
-0.006236333
-0.006567608
-0.007016821
-0.007627931
-0.003113959
-0.003248686
-0.003390792
-0.003541133
-0.003700744
-0.003872377
-0.004060088
-0.004264889
-0.004489902
-0.004739225
-0.004920606
-0.005027123
-0.005165044
-0.005361761
-0.005673277
-0.002586783
-0.002695725
-0.002809835
-0.00292968
-0.003055911
-0.003190871
-0.003337888
-0.003497064
-0.003670412
-0.003860524
-0.003955093
-0.003903482
-0.003793317
-0.003582622
-0.00318672
-0.002785181
-0.002764884
-0.002706974
-0.002198958
-0.002289354
-0.002383544
-0.002481907
-0.00258489
-0.002694482
-0.002813539
-0.002941752
-0.003080492
-0.0032315
-0.003287658
-0.003203982
-0.003075355
-0.002890858
-0.002639735
-0.002501817
-0.002523203
-0.00253229
-0.002481309
-0.001939373
-0.002017385
-0.002098354
-0.002182555
-0.002270303
-0.002363336
-0.002464184
-0.00257236
-0.002688867
-0.002814951
-0.002854302
-0.002773808
-0.002663569
-0.002521109
-0.002345261
-0.002267772
-0.002299788
-0.00232455
-0.002330211
-0.002273183
-0.001769925
-0.001839731
-0.001911958
-0.001986814
-0.002064537
-0.002146679
-0.00223555
-0.002330565
-0.002432504
-0.002542316
-0.00257252
-0.002497994
-0.002401777
-0.002282886
-0.00214094
-0.002082848
-0.002112909
-0.002135583
-0.002150385
-0.002143973
-0.002076538
-0.001661789
-0.001726151
-0.001792587
-0.001861251
-0.001932327
-0.002007241
-0.002088135
-0.002174371
-0.00226658
-0.00236552
-0.002389721
-0.002318165
-0.002228399
-0.002119663
-0.00199151
-0.00193819
-0.001961647
-0.001976604
-0.001985463
-0.001986099
-0.001965078
-0.001886455
-0.004076222
-0.004407096
-0.0047825
-0.005142064
-0.003884748
-0.004174876
-0.004511395
-0.004895051
-0.005266247
-0.00382789
-0.004091585
-0.004395018
-0.004748703
-0.005155856
-0.005561714
-0.003917887
-0.004168915
-0.004453886
-0.004783076
-0.005169481
-0.005623624
-0.006094957
-0.00417176
-0.004422868
-0.004704133
-0.005024479
-0.005396349
-0.005839458
-0.006372567
-0.006941307
-0.004554559
-0.004814515
-0.005102711
-0.005426642
-0.005797072
-0.006231829
-0.006757463
-0.007395864
-0.008097963
-0.004886973
-0.005153086
-0.005445449
-0.005770274
-0.006136204
-0.006557852
-0.0070575
-0.007661808
-0.008403649
-0.009235929
-0.005083733
-0.00534914
-0.005638505
-0.005956793
-0.006310849
-0.006712101
-0.007178081
-0.007728649
-0.008396816
-0.009222591
-0.01002692
-0.005127811
-0.005385578
-0.005664756
-0.005969332
-0.006304562
-0.006679445
-0.007107428
-0.007602495
-0.008187981
-0.00889994
-0.009670599
-0.01045305
-0.005027996
-0.005272237
-0.005535259
-0.00582021
-0.006131165
-0.006475139
-0.006862641
-0.007303139
-0.007812781
-0.008415759
-0.009049276
-0.009771925
-0.01061743
-0.004800044
-0.005026039
-0.005268186
-0.00552895
-0.005811444
-0.00612125
-0.006466583
-0.006853868
-0.007294119
-0.007803468
-0.008314181
-0.008879459
-0.009629355
-0.01050691
-0.004460842
-0.004664894
-0.004882538
-0.005115663
-0.005366621
-0.005639865
-0.005941981
-0.006277139
-0.006652992
-0.007080203
-0.007488513
-0.007917696
-0.008485326
-0.009235544
-0.0101151
-0.004028127
-0.00420746
-0.004397928
-0.004600934
-0.004818213
-0.005053342
-0.005311645
-0.005595757
-0.00591091
-0.006264278
-0.006583511
-0.006897571
-0.007308896
-0.007854561
-0.008577858
-0.003524174
-0.003677059
-0.003838714
-0.004010161
-0.004192628
-0.004389019
-0.00460368
-0.004838087
-0.005095842
-0.005381677
-0.005618884
-0.005823508
-0.006092532
-0.00645408
-0.006949711
-0.002985864
-0.003112155
-0.00324496
-0.003385009
-0.003533133
-0.003691747
-0.003864433
-0.004051758
-0.00425614
-0.004480695
-0.004637251
-0.004718709
-0.004823713
-0.004975529
-0.005223145
-0.002482529
-0.002584887
-0.002691808
-0.002803754
-0.002921268
-0.003046452
-0.003182306
-0.003328682
-0.003487159
-0.003659738
-0.00373953
-0.00367882
-0.003560716
-0.003346279
-0.002959364
-0.002574069
-0.002555811
-0.002548708
-0.002490045
-0.002112026
-0.002197141
-0.002285604
-0.002377727
-0.002473868
-0.002575861
-0.002686312
-0.002804767
-0.002932326
-0.003070352
-0.003116828
-0.003029423
-0.00289835
-0.002713531
-0.002465676
-0.002324232
-0.002333419
-0.002344087
-0.002341457
-0.002279245
-0.001864075
-0.001937677
-0.002013888
-0.002092934
-0.002175072
-0.002261908
-0.002355793
-0.002456143
-0.00256378
-0.002679704
-0.002712074
-0.002629701
-0.002518404
-0.002375854
-0.002201136
-0.002118106
-0.002136781
-0.002150671
-0.002159468
-0.002148997
-0.002078482
-0.001702364
-0.001768333
-0.00183645
-0.001906878
-0.001979806
-0.002056683
-0.002139666
-0.00222812
-0.002322684
-0.002424139
-0.002448973
-0.002373497
-0.00227692
-0.002158304
-0.0020173
-0.001954578
-0.001973388
-0.001984346
-0.001990237
-0.00198875
-0.001966082
-0.001885891
-0.001599378
-0.001660276
-0.001723036
-0.001787765
-0.001854605
-0.001924884
-0.002000619