/*--------------------------------*- C++ -*----------------------------------*\
| =========                 |                                                 |
| \\      /  F ield         | OpenFOAM: The Open Source CFD Toolbox           |
|  \\    /   O peration     | Version:  2306                                  |
|   \\  /    A nd           | Website:  www.openfoam.com                      |
|    \\/     M anipulation  |                                                 |
\*---------------------------------------------------------------------------*/
FoamFile
{
    version     2.0;
    format      ascii;
    arch        "LSB;label=32;scalar=64";
    class       volScalarField;
    location    "0.6/phiEA";
    object      T;
}
// * * * * * * * * * * * * * * * * * * * * * * * * * * * * * * * * * * * * * //

dimensions      [0 0 0 1 0 0 0];

internalField   nonuniform List<scalar> 
20000
(
1222.056
1221.891
1224.028
1222.07
1221.511
1224.016
1221.906
1225.809
1224.036
1222.089
1220.809
1223.986
1221.527
1225.838
1224.024
1221.926
1227.451
1225.812
1224.049
1222.114
1219.637
1223.926
1220.829
1225.902
1223.993
1221.549
1227.49
1225.841
1224.036
1221.951
1229.02
1227.45
1225.82
1224.067
1222.144
1217.93
1223.812
1219.664
1226.012
1223.932
1220.854
1227.579
1225.904
1224.006
1221.576
1229.062
1227.489
1225.849
1224.054
1221.982
1230.542
1229.016
1227.454
1225.833
1224.09
1222.18
1216.002
1223.614
1217.969
1226.177
1223.815
1219.696
1227.733
1226.012
1223.942
1220.885
1229.154
1227.576
1225.911
1224.023
1221.609
1230.582
1229.057
1227.492
1225.861
1224.077
1222.019
1232.022
1230.535
1229.016
1227.462
1225.85
1224.119
1222.217
1214.242
1223.321
1216.059
1226.382
1223.612
1218.015
1227.974
1226.173
1223.823
1219.735
1229.316
1227.729
1226.016
1223.958
1220.922
1230.672
1229.148
1227.579
1225.922
1224.045
1221.648
1232.061
1230.575
1229.057
1227.5
1225.878
1224.105
1222.056
1233.46
1232.013
1230.533
1229.021
1227.474
1225.873
1224.148
1222.254
1212.933
1222.993
1214.317
1226.549
1223.318
1216.122
1228.29
1226.37
1223.616
1218.065
1229.571
1227.965
1226.172
1223.836
1219.78
1230.831
1229.309
1227.729
1226.025
1223.979
1220.966
1232.146
1230.664
1229.147
1227.585
1225.938
1224.073
1221.688
1233.497
1232.051
1230.572
1229.061
1227.512
1225.9
1224.134
1222.094
1234.855
1233.45
1232.008
1230.534
1229.029
1227.492
1225.895
1224.177
1222.291
1212.242
1222.714
1213.022
1226.651
1222.992
1214.397
1228.589
1226.532
1223.32
1216.19
1229.91
1228.274
1226.363
1223.625
1218.122
1231.08
1229.559
1227.96
1226.177
1223.855
1219.831
1232.298
1230.821
1229.305
1227.733
1226.038
1224.006
1221.01
1233.578
1232.136
1230.66
1229.15
1227.596
1225.958
1224.101
1221.728
1234.889
1233.486
1232.046
1230.573
1229.069
1227.529
1225.922
1224.163
1222.133
1236.204
1234.843
1233.443
1232.007
1230.539
1229.043
1227.509
1225.918
1224.206
1222.329
1212.242
1222.556
1212.338
1226.699
1222.716
1213.115
1228.819
1226.631
1222.995
1214.481
1230.24
1228.567
1226.52
1223.328
1216.263
1231.414
1229.892
1228.263
1226.361
1223.639
1218.185
1232.537
1231.066
1229.552
1227.96
1226.186
1223.879
1219.884
1233.723
1232.286
1230.815
1229.306
1227.742
1226.057
1224.033
1221.056
1234.967
1233.567
1232.13
1230.66
1229.157
1227.612
1225.98
1224.129
1221.769
1236.237
1234.877
1233.479
1232.044
1230.578
1229.082
1227.546
1225.944
1224.192
1222.171
1237.506
1236.191
1234.834
1233.44
1232.01
1230.549
1229.056
1227.527
1225.941
1224.235
1222.511
1212.933
1222.556
1212.338
1226.717
1222.559
1212.438
1228.968
1226.679
1222.722
1213.212
1230.503
1228.794
1226.616
1223.004
1214.571
1231.742
1230.216
1228.55
1226.512
1223.34
1216.341
1232.857
1231.395
1229.878
1228.256
1226.364
1223.658
1218.249
1233.95
1232.522
1231.057
1229.548
1227.965
1226.201
1223.903
1219.938
1235.105
1233.709
1232.278
1230.813
1229.311
1227.755
1226.076
1224.06
1221.102
1236.311
1234.954
1233.559
1232.128
1230.664
1229.169
1227.628
1226.001
1224.158
1221.811
1237.537
1236.223
1234.868
1233.475
1232.047
1230.587
1229.095
1227.564
1225.967
1224.221
1222.36
1238.76
1237.492
1236.181
1234.829
1233.44
1232.017
1230.559
1229.069
1227.545
1225.964
1224.378
1222.859
1214.242
1222.714
1213.022
1226.717
1222.559
1212.438
1229.04
1226.696
1222.567
1212.542
1230.679
1228.941
1226.663
1222.733
1213.314
1232.007
1230.476
1228.774
1226.607
1223.018
1214.665
1233.174
1231.718
1230.198
1228.538
1226.51
1223.358
1216.42
1234.257
1232.838
1231.38
1229.869
1228.254
1226.371
1223.679
1218.312
1235.322
1233.934
1232.511
1231.052
1229.55
1227.974
1226.215
1223.928
1219.993
1236.443
1235.091
1233.7
1232.274
1230.815
1229.321
1227.769
1226.095
1224.088
1221.149
1237.609
1236.297
1234.945
1233.554
1232.129
1230.672
1229.181
1227.644
1226.022
1224.187
1222.013
1238.791
1237.523
1236.214
1234.863
1233.475
1232.053
1230.597
1229.108
1227.581
1225.989
1224.364
1222.725
1239.966
1238.745
1237.481
1236.175
1234.828
1233.444
1232.024
1230.569
1229.083
1227.562
1226.077
1224.638
1223.225
1216.002
1222.993
1214.317
1226.699
1222.716
1213.115
1229.04
1226.696
1222.567
1212.542
1230.767
1229.013
1226.68
1222.58
1212.65
1232.187
1230.651
1228.919
1226.653
1222.75
1213.421
1233.431
1231.98
1230.454
1228.758
1226.602
1223.038
1214.76
1234.56
1233.15
1231.699
1230.183
1228.53
1226.513
1223.377
1216.499
1235.615
1234.236
1232.822
1231.369
1229.864
1228.256
1226.379
1223.699
1218.377
1236.651
1235.306
1233.922
1232.504
1231.05
1229.555
1227.983
1226.23
1223.953
1220.048
1237.736
1236.428
1235.08
1233.694
1232.274
1230.821
1229.33
1227.783
1226.114
1224.115
1221.377
1238.859
1237.594
1236.287
1234.939
1233.554
1232.135
1230.681
1229.193
1227.66
1226.043
1224.327
1222.418
1239.996
1238.776
1237.513
1236.207
1234.862
1233.479
1232.06
1230.606
1229.121
1227.598
1226.1
1224.623
1223.114
1241.124
1239.951
1238.734
1237.474
1236.172
1234.831
1233.449
1232.03
1230.579
1229.096
1227.651
1226.278
1224.901
1223.606
1217.93
1223.321
1216.059
1226.651
1222.992
1214.397
1228.968
1226.679
1222.722
1213.212
1230.767
1229.013
1226.68
1222.58
1212.65
1232.277
1230.738
1228.99
1226.67
1222.598
1212.764
1233.606
1232.158
1230.627
1228.902
1226.647
1222.771
1213.528
1234.807
1233.404
1231.958
1230.436
1228.747
1226.602
1223.058
1214.854
1235.906
1234.536
1233.13
1231.683
1230.173
1228.527
1226.516
1223.396
1216.577
1236.932
1235.595
1234.22
1232.81
1231.362
1229.863
1228.259
1226.387
1223.719
1218.441
1237.936
1236.634
1235.292
1233.914
1232.5
1231.053
1229.561
1227.992
1226.245
1223.978
1220.316
1238.982
1237.72
1236.416
1235.073
1233.692
1232.278
1230.828
1229.34
1227.796
1226.133
1224.251
1221.851
1240.062
1238.844
1237.583
1236.28
1234.937
1233.557
1232.14
1230.689
1229.204
1227.676
1226.149
1224.586
1222.86
1241.153
1239.981
1238.765
1237.505
1236.204
1234.864
1233.483
1232.066
1230.616
1229.134
1227.684
1226.296
1224.887
1223.523
1242.234
1241.109
1239.94
1238.726
1237.47
1236.173
1234.833
1233.453
1232.037
1230.589
1229.164
1227.806
1226.476
1225.165
1223.997
1219.637
1223.614
1217.969
1226.549
1223.318
1216.122
1228.819
1226.631
1222.995
1214.481
1230.679
1228.941
1226.663
1222.733
1213.314
1232.277
1230.738
1228.99
1226.67
1222.598
1212.764
1233.694
1232.247
1230.713
1228.972
1226.664
1222.621
1212.877
1234.975
1233.578
1232.134
1230.607
1228.889
1226.646
1222.793
1213.633
1236.142
1234.781
1233.382
1231.939
1230.423
1228.741
1226.602
1223.077
1214.947
1237.211
1235.882
1234.516
1233.115
1231.672
1230.168
1228.524
1226.519
1223.414
1216.655
1238.206
1236.912
1235.578
1234.208
1232.802
1231.36
1229.863
1228.261
1226.395
1223.74
1218.749
1239.175
1237.918
1236.62
1235.283
1233.909
1232.501
1231.056
1229.566
1228.001
1226.259
1224.102
1220.872
1240.18
1238.965
1237.707
1236.408
1235.069
1233.694
1232.282
1230.834
1229.349
1227.809
1226.227
1224.507
1222.386
1241.217
1240.047
1238.832
1237.575
1236.276
1234.938
1233.56
1232.146
1230.698
1229.216
1227.756
1226.334
1224.852
1223.334
1242.262
1241.138
1239.969
1238.756
1237.501
1236.205
1234.866
1233.488
1232.073
1230.625
1229.199
1227.833
1226.489
1225.153
1223.945
1243.296
1242.219
1241.097
1239.931
1238.722
1237.47
1236.174
1234.836
1233.458
1232.044
1230.639
1229.281
1227.957
1226.672
1225.432
1224.221
1220.809
1223.812
1219.664
1226.382
1223.612
1218.015
1228.589
1226.532
1223.32
1216.19
1230.503
1228.794
1226.616
1223.004
1214.571
1232.187
1230.651
1228.919
1226.653
1222.75
1213.421
1233.694
1232.247
1230.713
1228.972
1226.664
1222.621
1212.877
1235.06
1233.665
1232.222
1230.693
1228.959
1226.663
1222.644
1212.989
1236.304
1234.948
1233.554
1232.114
1230.592
1228.881
1226.646
1222.815
1213.738
1237.439
1236.117
1234.758
1233.364
1231.925
1230.414
1228.734
1226.603
1223.097
1215.039
1238.475
1237.188
1235.862
1234.5
1233.103
1231.666
1230.162
1228.522
1226.522
1223.433
1217.023
1239.436
1238.186
1236.895
1235.565
1234.199
1232.798
1231.357
1229.862
1228.264
1226.403
1223.841
1219.319
1240.368
1239.157
1237.904
1236.61
1235.277
1233.908
1232.501
1231.058
1229.571
1228.01
1226.332
1224.344
1221.514
1241.332
1240.164
1238.952
1237.698
1236.403
1235.069
1233.695
1232.285
1230.84
1229.359
1227.876
1226.391
1224.778
1222.98
1242.325
1241.202
1240.034
1238.824
1237.57
1236.276
1234.94
1233.564
1232.151
1230.706
1229.275
1227.891
1226.515
1225.125
1223.832
1243.323
1242.246
1241.125
1239.96
1238.751
1237.5
1236.205
1234.868
1233.492
1232.079
1230.673
1229.31
1227.977
1226.68
1225.423
1224.188
1244.31
1243.281
1242.206
1241.088
1239.926
1238.72
1237.469
1236.175
1234.838
1233.462
1232.08
1230.724
1229.394
1228.104
1226.866
1225.582
1224.293
1221.511
1223.926
1220.829
1226.177
1223.815
1219.696
1228.29
1226.37
1223.616
1218.065
1230.24
1228.567
1226.52
1223.328
1216.263
1232.007
1230.476
1228.774
1226.607
1223.018
1214.665
1233.606
1232.158
1230.627
1228.902
1226.647
1222.771
1213.528
1235.06
1233.665
1232.222
1230.693
1228.959
1226.663
1222.644
1212.989
1236.386
1235.032
1233.641
1232.202
1230.677
1228.95
1226.662
1222.668
1213.1
1237.595
1236.278
1234.924
1233.534
1232.099
1230.582
1228.873
1226.645
1222.837
1213.842
1238.695
1237.414
1236.095
1234.74
1233.349
1231.916
1230.405
1228.728
1226.603
1223.117
1215.473
1239.696
1238.452
1237.168
1235.846
1234.488
1233.095
1231.659
1230.157
1228.519
1226.525
1223.525
1217.645
1240.62
1239.415
1238.168
1236.881
1235.555
1234.194
1232.794
1231.355
1229.862
1228.266
1226.444
1224.036
1219.901
1241.514
1240.35
1239.142
1237.893
1236.603
1235.274
1233.906
1232.502
1231.061
1229.577
1228.055
1226.461
1224.611
1222.27
1242.436
1241.315
1240.151
1238.943
1237.693
1236.402
1235.069
1233.697
1232.289
1230.846
1229.406
1227.988
1226.554
1225.063
1223.628
1243.384
1242.309
1241.189
1240.025
1238.818
1237.569
1236.276
1234.941
1233.567
1232.157
1230.748
1229.373
1228.021
1226.695
1225.402
1224.119
1244.337
1243.308
1242.234
1241.116
1239.954
1238.75
1237.5
1236.206
1234.87
1233.496
1232.112
1230.753
1229.416
1228.117
1226.869
1225.575
1224.265
1245.278
1244.295
1243.268
1242.197
1241.082
1239.923
1238.718
1237.469
1236.175
1234.84
1233.485
1232.139
1230.805
1229.503
1228.249
1226.974
1225.622
1224.379
1221.891
1223.986
1221.527
1226.012
1223.932
1220.854
1227.974
1226.173
1223.823
1219.735
1229.91
1228.274
1226.363
1223.625
1218.122
1231.742
1230.216
1228.55
1226.512
1223.34
1216.341
1233.431
1231.98
1230.454
1228.758
1226.602
1223.038
1214.76
1234.975
1233.578
1232.134
1230.607
1228.889
1226.646
1222.793
1213.633
1236.386
1235.032
1233.641
1232.202
1230.677
1228.95
1226.662
1222.668
1213.1
1237.673
1236.358
1235.008
1233.62
1232.185
1230.665
1228.941
1226.661
1222.691
1213.209
1238.845
1237.569
1236.255
1234.905
1233.519
1232.087
1230.571
1228.865
1226.645
1222.859
1214.327
1239.908
1238.67
1237.392
1236.077
1234.726
1233.339
1231.906
1230.396
1228.722
1226.604
1223.213
1216.171
1240.872
1239.673
1238.433
1237.152
1235.834
1234.48
1233.087
1231.652
1230.151
1228.516
1226.541
1223.695
1218.223
1241.759
1240.6
1239.398
1238.155
1236.871
1235.55
1234.189
1232.79
1231.353
1229.862
1228.28
1226.519
1224.24
1220.485
1242.613
1241.496
1240.335
1239.131
1237.885
1236.599
1235.272
1233.905
1232.502
1231.063
1229.603
1228.128
1226.592
1224.911
1223.193
1243.493
1242.419
1241.302
1240.141
1238.936
1237.69
1236.4
1235.069
1233.698
1232.292
1230.877
1229.479
1228.092
1226.716
1225.363
1224.014
1244.397
1243.368
1242.296
1241.179
1240.019
1238.816
1237.567
1236.276
1234.942
1233.57
1232.185
1230.815
1229.464
1228.145
1226.874
1225.56
1224.209
1245.304
1244.322
1243.295
1242.224
1241.11
1239.952
1238.748
1237.499
1236.206
1234.872
1233.517
1232.166
1230.827
1229.517
1228.255
1226.974
1225.616
1224.356
1246.199
1245.263
1244.283
1243.259
1242.191
1241.079
1239.92
1238.717
1237.468
1236.176
1234.853
1233.522
1232.193
1230.883
1229.609
1228.329
1226.998
1225.667
1224.476
1222.056
1224.016
1221.906
1225.902
1223.993
1221.549
1227.733
1226.012
1223.942
1220.885
1229.571
1227.965
1226.172
1223.836
1219.78
1231.414
1229.892
1228.263
1226.361
1223.639
1218.185
1233.174
1231.718
1230.198
1228.538
1226.51
1223.358
1216.42
1234.807
1233.404
1231.958
1230.436
1228.747
1226.602
1223.058
1214.854
1236.304
1234.948
1233.554
1232.114
1230.592
1228.881
1226.646
1222.815
1213.738
1237.673
1236.358
1235.008
1233.62
1232.185
1230.665
1228.941
1226.661
1222.691
1213.209
1238.921
1237.647
1236.335
1234.988
1233.604
1232.173
1230.654
1228.932
1226.66
1222.714
1213.723
1240.054
1238.82
1237.546
1236.235
1234.889
1233.507
1232.075
1230.56
1228.857
1226.644
1222.963
1215.095
1241.078
1239.884
1238.649
1237.374
1236.063
1234.715
1233.329
1231.896
1230.388
1228.716
1226.607
1223.382
1216.793
1242.004
1240.85
1239.654
1238.417
1237.14
1235.825
1234.472
1233.08
1231.645
1230.146
1228.503
1226.577
1223.865
1218.752
1242.852
1241.739
1240.583
1239.384
1238.145
1236.865
1235.544
1234.184
1232.786
1231.35
1229.859
1228.304
1226.596
1224.446
1221.054
1243.665
1242.595
1241.481
1240.323
1239.122
1237.88
1236.595
1235.269
1233.904
1232.502
1231.075
1229.64
1228.195
1226.728
1225.262
1223.872
1244.503
1243.476
1242.406
1241.291
1240.133
1238.933
1237.687
1236.398
1235.068
1233.7
1232.31
1230.922
1229.544
1228.191
1226.88
1225.538
1224.126
1245.362
1244.381
1243.355
1242.286
1241.173
1240.016
1238.813
1237.566
1236.275
1234.943
1233.586
1232.226
1230.875
1229.549
1228.267
1226.974
1225.604
1224.311
1246.224
1245.289
1244.309
1243.285
1242.218
1241.106
1239.949
1238.746
1237.498
1236.207
1234.883
1233.548
1232.214
1230.897
1229.616
1228.331
1226.998
1225.662
1224.457
1247.074
1246.184
1245.25
1244.273
1243.252
1242.187
1241.075
1239.918
1238.715
1237.467
1236.18
1234.871
1233.554
1232.244
1230.958
1229.668
1228.344
1227.022
1225.717
1224.578
1224.028
1222.07
1225.838
1224.024
1221.926
1227.579
1225.904
1224.006
1221.576
1229.316
1227.729
1226.016
1223.958
1220.922
1231.08
1229.559
1227.96
1226.177
1223.855
1219.831
1232.857
1231.395
1229.878
1228.256
1226.364
1223.658
1218.249
1234.56
1233.15
1231.699
1230.183
1228.53
1226.513
1223.377
1216.499
1236.142
1234.781
1233.382
1231.939
1230.423
1228.741
1226.602
1223.077
1214.947
1237.595
1236.278
1234.924
1233.534
1232.099
1230.582
1228.873
1226.645
1222.837
1213.842
1238.921
1237.647
1236.335
1234.988
1233.604
1232.173
1230.654
1228.932
1226.66
1222.714
1213.723
1240.127
1238.895
1237.624
1236.315
1234.972
1233.592
1232.161
1230.642
1228.923
1226.66
1222.825
1214.53
1241.22
1240.029
1238.798
1237.527
1236.22
1234.878
1233.495
1232.064
1230.55
1228.849
1226.643
1223.142
1215.766
1242.204
1241.055
1239.864
1238.631
1237.36
1236.052
1234.705
1233.318
1231.886
1230.379
1228.686
1226.62
1223.545
1217.338
1243.09
1241.982
1240.831
1239.638
1238.404
1237.131
1235.816
1234.463
1233.072
1231.638
1230.12
1228.487
1226.616
1224.031
1219.221
1243.899
1242.832
1241.722
1240.569
1239.374
1238.137
1236.858
1235.538
1234.179
1232.782
1231.338
1229.855
1228.326
1226.67
1224.646
1244.671
1243.647
1242.58
1241.468
1240.314
1239.117
1237.876
1236.591
1235.266
1233.902
1232.503
1231.087
1229.669
1228.257
1226.875
1225.506
1224.023
1245.466
1244.486
1243.463
1242.395
1241.284
1240.129
1238.929
1237.684
1236.397
1235.068
1233.706
1232.331
1230.957
1229.602
1228.286
1226.972
1225.586
1224.245
1246.282
1245.347
1244.368
1243.345
1242.279
1241.169
1240.012
1238.81
1237.564
1236.275
1234.949
1233.606
1232.261
1230.929
1229.63
1228.334
1226.997
1225.653
1224.42
1247.099
1246.209
1245.276
1244.299
1243.278
1242.214
1241.103
1239.946
1238.744
1237.497
1236.208
1234.896
1233.575
1232.258
1230.965
1229.67
1228.345
1227.022
1225.713
1224.563
1247.903
1247.059
1246.171
1245.24
1244.266
1243.247
1242.183
1241.072
1239.915
1238.713
1237.464
1236.182
1234.885
1233.583
1232.293
1230.998
1229.677
1228.357
1227.047
1225.769
1224.685
1225.809
1224.036
1222.089
1227.49
1225.841
1224.036
1221.951
1229.154
1227.576
1225.911
1224.023
1221.609
1230.831
1229.309
1227.729
1226.025
1223.979
1220.966
1232.537
1231.066
1229.552
1227.96
1226.186
1223.879
1219.884
1234.257
1232.838
1231.38
1229.869
1228.254
1226.371
1223.679
1218.312
1235.906
1234.536
1233.13
1231.683
1230.173
1228.527
1226.516
1223.396
1216.577
1237.439
1236.117
1234.758
1233.364
1231.925
1230.414
1228.734
1226.603
1223.097
1215.039
1238.845
1237.569
1236.255
1234.905
1233.519
1232.087
1230.571
1228.865
1226.645
1222.859
1214.327
1240.127
1238.895
1237.624
1236.315
1234.972
1233.592
1232.161
1230.642
1228.923
1226.66
1222.825
1214.53
1241.291
1240.102
1238.873
1237.605
1236.3
1234.959
1233.579
1232.148
1230.631
1228.915
1226.657
1223.012
1215.231
1242.342
1241.196
1240.008
1238.779
1237.512
1236.208
1234.865
1233.483
1232.052
1230.539
1228.811
1226.646
1223.31
1216.344
1243.286
1242.182
1241.035
1239.846
1238.618
1237.35
1236.041
1234.694
1233.308
1231.876
1230.337
1228.644
1226.638
1223.701
1217.803
1244.131
1243.069
1241.964
1240.816
1239.626
1238.395
1237.122
1235.808
1234.455
1233.064
1231.604
1230.079
1228.476
1226.655
1224.188
1244.899
1243.879
1242.815
1241.708
1240.558
1239.366
1238.13
1236.851
1235.532
1234.173
1232.762
1231.314
1229.849
1228.346
1226.738
1245.631
1244.653
1243.632
1242.568
1241.459
1240.308
1239.112
1237.871
1236.587
1235.263
1233.894
1232.494
1231.088
1229.687
1228.314
1226.968
1225.565
1224.164
1246.383
1245.45
1244.472
1243.451
1242.387
1241.279
1240.125
1238.925
1237.681
1236.395
1235.065
1233.707
1232.342
1230.984
1229.654
1228.339
1226.995
1225.64
1224.366
1247.155
1246.266
1245.333
1244.357
1243.338
1242.274
1241.164
1240.009
1238.808
1237.562
1236.272
1234.952
1233.619
1232.289
1230.979
1229.675
1228.347
1227.021
1225.706
1224.533
1247.928
1247.084
1246.196
1245.266
1244.292
1243.274
1242.209
1241.099
1239.943
1238.742
1237.492
1236.206
1234.904
1233.597
1232.3
1231.001
1229.679
1228.358
1227.047
1225.766
1224.672
1248.688
1247.889
1247.046
1246.161
1245.233
1244.261
1243.243
1242.179
1241.069
1239.913
1238.704
1237.453
1236.18
1234.895
1233.61
1232.319
1231.004
1229.685
1228.37
1227.073
1225.823
1224.792
1227.451
1225.812
1224.049
1222.114
1229.062
1227.489
1225.849
1224.054
1221.982
1230.672
1229.148
1227.579
1225.922
1224.045
1221.648
1232.298
1230.821
1229.305
1227.733
1226.038
1224.006
1221.01
1233.95
1232.522
1231.057
1229.548
1227.965
1226.201
1223.903
1219.938
1235.615
1234.236
1232.822
1231.369
1229.864
1228.256
1226.379
1223.699
1218.377
1237.211
1235.882
1234.516
1233.115
1231.672
1230.168
1228.524
1226.519
1223.414
1216.655
1238.695
1237.414
1236.095
1234.74
1233.349
1231.916
1230.405
1228.728
1226.603
1223.117
1215.473
1240.054
1238.82
1237.546
1236.235
1234.889
1233.507
1232.075
1230.56
1228.857
1226.644
1222.963
1215.095
1241.291
1240.102
1238.873
1237.605
1236.3
1234.959
1233.579
1232.148
1230.631
1228.915
1226.657
1223.012
1215.231
1242.412
1241.267
1240.08
1238.854
1237.589
1236.287
1234.947
1233.566
1232.136
1230.62
1228.873
1226.657
1223.185
1215.831
1243.42
1242.319
1241.175
1239.99
1238.765
1237.501
1236.196
1234.853
1233.471
1232.041
1230.488
1228.753
1226.654
1223.468
1216.831
1244.322
1243.264
1242.162
1241.018
1239.833
1238.607
1237.339
1236.03
1234.683
1233.298
1231.828
1230.271
1228.609
1226.659
1223.847
1245.127
1244.111
1243.051
1241.948
1240.803
1239.616
1238.385
1237.112
1235.799
1234.447
1233.026
1231.55
1230.044
1228.467
1226.693
1245.854
1244.88
1243.862
1242.801
1241.697
1240.551
1239.359
1238.123
1236.845
1235.526
1234.147
1232.725
1231.289
1229.839
1228.36
1246.545
1245.613
1244.639
1243.62
1242.558
1241.453
1240.302
1239.106
1237.866
1236.583
1235.247
1233.868
1232.474
1231.077
1229.694
1228.343
1226.992
1225.624
1224.298
1247.255
1246.367
1245.436
1244.461
1243.443
1242.381
1241.274
1240.12
1238.921
1237.678
1236.384
1235.05
1233.699
1232.344
1231.004
1229.681
1228.35
1227.019
1225.696
1224.488
1247.983
1247.14
1246.253
1245.323
1244.35
1243.333
1242.269
1241.16
1240.005
1238.805
1237.553
1236.26
1234.948
1233.627
1232.314
1231.006
1229.682
1228.359
1227.046
1225.761
1224.647
1248.712
1247.913
1247.071
1246.186
1245.258
1244.287
1243.269
1242.205
1241.095
1239.94
1238.73
1237.477
1236.199
1234.908
1233.617
1232.322
1231.006
1229.686
1228.371
1227.072
1225.821
1224.783
1249.428
1248.673
1247.876
1247.036
1246.154
1245.228
1244.256
1243.238
1242.175
1241.065
1239.898
1238.682
1237.439
1236.176
1234.904
1233.624
1232.322
1231.008
1229.691
1228.383
1227.098
1225.877
1224.899
1229.02
1227.45
1225.82
1224.067
1222.144
1230.582
1229.057
1227.492
1225.861
1224.077
1222.019
1232.146
1230.664
1229.147
1227.585
1225.938
1224.073
1221.688
1233.723
1232.286
1230.815
1229.306
1227.742
1226.057
1224.033
1221.056
1235.322
1233.934
1232.511
1231.052
1229.55
1227.974
1226.215
1223.928
1219.993
1236.932
1235.595
1234.22
1232.81
1231.362
1229.863
1228.259
1226.387
1223.719
1218.441
1238.475
1237.188
1235.862
1234.5
1233.103
1231.666
1230.162
1228.522
1226.522
1223.433
1217.023
1239.908
1238.67
1237.392
1236.077
1234.726
1233.339
1231.906
1230.396
1228.722
1226.604
1223.213
1216.171
1241.22
1240.029
1238.798
1237.527
1236.22
1234.878
1233.495
1232.064
1230.55
1228.849
1226.643
1223.142
1215.766
1242.412
1241.267
1240.08
1238.854
1237.589
1236.287
1234.947
1233.566
1232.136
1230.62
1228.873
1226.657
1223.185
1215.831
1243.488
1242.388
1241.246
1240.062
1238.839
1237.577
1236.275
1234.934
1233.554
1232.124
1230.564
1228.809
1226.661
1223.346
1216.336
1244.454
1243.397
1242.298
1241.157
1239.975
1238.753
1237.489
1236.184
1234.842
1233.46
1231.984
1230.407
1228.705
1226.665
1223.614
1245.314
1244.301
1243.244
1242.145
1241.004
1239.822
1238.596
1237.328
1236.02
1234.673
1233.247
1231.752
1230.215
1228.581
1226.681
1246.077
1245.107
1244.093
1243.036
1241.936
1240.794
1239.607
1238.376
1237.103
1235.79
1234.405
1232.963
1231.502
1230.013
1228.459
1246.764
1245.835
1244.864
1243.849
1242.791
1241.689
1240.543
1239.351
1238.116
1236.838
1235.494
1234.099
1232.686
1231.262
1229.826
1247.413
1246.528
1245.599
1244.626
1243.611
1242.551
1241.446
1240.296
1239.1
1237.861
1236.561
1235.207
1233.831
1232.44
1231.05
1229.689
1228.352
1227.017
1225.684
1224.43
1248.081
1247.239
1246.353
1245.425
1244.453
1243.437
1242.376
1241.268
1240.115
1238.917
1237.662
1236.355
1235.025
1233.681
1232.339
1231.014
1229.686
1228.361
1227.044
1225.753
1224.61
1248.766
1247.968
1247.127
1246.242
1245.315
1244.344
1243.328
1242.265
1241.156
1240.002
1238.79
1237.529
1236.241
1234.938
1233.631
1232.327
1231.009
1229.688
1228.372
1227.072
1225.817
1224.763
1249.452
1248.697
1247.901
1247.061
1246.179
1245.253
1244.282
1243.264
1242.201
1241.092
1239.924
1238.705
1237.457
1236.189
1234.91
1233.627
1232.324
1231.009
1229.692
1228.383
1227.098
1225.876
1224.892
1250.125
1249.414
1248.661
1247.866
1247.029
1246.149
1245.223
1244.251
1243.234
1242.171
1241.047
1239.868
1238.657
1237.421
1236.169
1234.908
1233.624
1232.322
1231.01
1229.697
1228.395
1227.124
1225.931
1225.003
1230.542
1229.016
1227.454
1225.833
1224.09
1222.18
1232.061
1230.575
1229.057
1227.5
1225.878
1224.105
1222.056
1233.578
1232.136
1230.66
1229.15
1227.596
1225.958
1224.101
1221.728
1235.105
1233.709
1232.278
1230.813
1229.311
1227.755
1226.076
1224.06
1221.102
1236.651
1235.306
1233.922
1232.504
1231.05
1229.555
1227.983
1226.23
1223.953
1220.048
1238.206
1236.912
1235.578
1234.208
1232.802
1231.36
1229.863
1228.261
1226.395
1223.74
1218.749
1239.696
1238.452
1237.168
1235.846
1234.488
1233.095
1231.659
1230.157
1228.519
1226.525
1223.525
1217.645
1241.078
1239.884
1238.649
1237.374
1236.063
1234.715
1233.329
1231.896
1230.388
1228.716
1226.607
1223.382
1216.793
1242.342
1241.196
1240.008
1238.779
1237.512
1236.208
1234.865
1233.483
1232.052
1230.539
1228.811
1226.646
1223.31
1216.344
1243.488
1242.388
1241.246
1240.062
1238.839
1237.577
1236.275
1234.934
1233.554
1232.124
1230.564
1228.809
1226.661
1223.346
1216.336
1244.52
1243.465
1242.367
1241.228
1240.048
1238.827
1237.565
1236.262
1234.922
1233.542
1232.064
1230.477
1228.755
1226.668
1223.495
1245.443
1244.431
1243.378
1242.281
1241.143
1239.964
1238.741
1237.477
1236.173
1234.83
1233.401
1231.894
1230.337
1228.665
1226.679
1246.261
1245.293
1244.282
1243.228
1242.132
1240.994
1239.811
1238.585
1237.317
1236.009
1234.62
1233.164
1231.685
1230.166
1228.558
1246.983
1246.057
1245.089
1244.078
1243.023
1241.926
1240.784
1239.597
1238.367
1237.094
1235.745
1234.335
1232.905
1231.458
1229.985
1247.629
1246.745
1245.819
1244.85
1243.838
1242.782
1241.681
1240.535
1239.343
1238.108
1236.803
1235.437
1234.049
1232.645
1231.232
1248.237
1247.396
1246.513
1245.586
1244.617
1243.604
1242.544
1241.44
1240.289
1239.094
1237.833
1236.51
1235.156
1233.779
1232.388
1231.022
1229.69
1228.362
1227.043
1225.745
1224.561
1248.863
1248.065
1247.225
1246.342
1245.416
1244.447
1243.431
1242.37
1241.263
1240.11
1238.895
1237.621
1236.317
1234.991
1233.656
1232.335
1231.014
1229.69
1228.373
1227.071
1225.812
1224.732
1249.505
1248.751
1247.955
1247.116
1246.234
1245.309
1244.339
1243.322
1242.26
1241.152
1239.982
1238.756
1237.498
1236.217
1234.924
1233.632
1232.327
1231.011
1229.693
1228.384
1227.098
1225.874
1224.877
1250.148
1249.438
1248.685
1247.89
1247.053
1246.173
1245.248
1244.277
1243.26
1242.197
1241.072
1239.89
1238.675
1237.434
1236.175
1234.91
1233.626
1232.324
1231.011
1229.698
1228.396
1227.124
1225.931
1224.998
1250.777
1250.11
1249.402
1248.651
1247.859
1247.023
1246.143
1245.218
1244.246
1243.229
1242.149
1241.009
1239.834
1238.63
1237.402
1236.165
1234.906
1233.623
1232.322
1231.012
1229.703
1228.408
1227.149
1225.984
1225.101
1232.022
1230.535
1229.016
1227.462
1225.85
1224.119
1222.217
1233.497
1232.051
1230.572
1229.061
1227.512
1225.9
1224.134
1222.094
1234.967
1233.567
1232.13
1230.66
1229.157
1227.612
1225.98
1224.129
1221.769
1236.443
1235.091
1233.7
1232.274
1230.815
1229.321
1227.769
1226.095
1224.088
1221.149
1237.936
1236.634
1235.292
1233.914
1232.5
1231.053
1229.561
1227.992
1226.245
1223.978
1220.316
1239.436
1238.186
1236.895
1235.565
1234.199
1232.798
1231.357
1229.862
1228.264
1226.403
1223.841
1219.319
1240.872
1239.673
1238.433
1237.152
1235.834
1234.48
1233.087
1231.652
1230.151
1228.516
1226.541
1223.695
1218.223
1242.204
1241.055
1239.864
1238.631
1237.36
1236.052
1234.705
1233.318
1231.886
1230.379
1228.686
1226.62
1223.545
1217.338
1243.42
1242.319
1241.175
1239.99
1238.765
1237.501
1236.196
1234.853
1233.471
1232.041
1230.488
1228.753
1226.654
1223.468
1216.831
1244.52
1243.465
1242.367
1241.228
1240.048
1238.827
1237.565
1236.262
1234.922
1233.542
1232.064
1230.477
1228.755
1226.668
1223.495
1245.508
1244.498
1243.445
1242.35
1241.213
1240.036
1238.815
1237.552
1236.25
1234.91
1233.479
1231.967
1230.401
1228.709
1226.679
1246.387
1245.421
1244.412
1243.361
1242.267
1241.132
1239.952
1238.73
1237.465
1236.161
1234.77
1233.306
1231.815
1230.277
1228.632
1247.163
1246.24
1245.274
1244.266
1243.215
1242.122
1240.983
1239.8
1238.574
1237.307
1235.955
1234.534
1233.092
1231.626
1230.125
1247.844
1246.963
1246.04
1245.074
1244.066
1243.014
1241.917
1240.774
1239.588
1238.358
1237.048
1235.671
1234.271
1232.853
1231.418
1248.449
1247.61
1246.73
1245.806
1244.839
1243.83
1242.774
1241.673
1240.527
1239.336
1238.07
1236.738
1235.379
1233.999
1232.604
1249.017
1248.22
1247.382
1246.501
1245.577
1244.609
1243.596
1242.537
1241.433
1240.283
1239.063
1237.773
1236.447
1235.09
1233.707
1232.344
1231.019
1229.693
1228.373
1227.069
1225.806
1224.691
1249.601
1248.847
1248.052
1247.214
1246.333
1245.41
1244.44
1243.425
1242.364
1241.258
1240.084
1238.846
1237.572
1236.269
1234.949
1233.64
1232.332
1231.014
1229.695
1228.384
1227.097
1225.87
1224.854
1250.201
1249.491
1248.739
1247.945
1247.108
1246.229
1245.304
1244.333
1243.317
1242.255
1241.128
1239.939
1238.715
1237.462
1236.189
1234.916
1233.63
1232.326
1231.012
1229.698
1228.396
1227.124
1225.93
1224.989
1250.8
1250.134
1249.425
1248.675
1247.883
1247.048
1246.168
1245.242
1244.271
1243.255
1242.173
1241.031
1239.852
1238.642
1237.408
1236.167
1234.908
1233.624
1232.323
1231.012
1229.703
1228.408
1227.149
1225.984
1225.1
1251.387
1250.763
1250.098
1249.392
1248.644
1247.853
1247.018
1246.138
1245.212
1244.242
1243.205
1242.106
1240.968
1239.798
1238.6
1237.391
1236.162
1234.903
1233.62
1232.321
1231.013
1229.708
1228.419
1227.174
1226.034
1225.238
1233.46
1232.013
1230.533
1229.021
1227.474
1225.873
1224.148
1222.254
1234.889
1233.486
1232.046
1230.573
1229.069
1227.529
1225.922
1224.163
1222.133
1236.311
1234.954
1233.559
1232.128
1230.664
1229.169
1227.628
1226.001
1224.158
1221.811
1237.736
1236.428
1235.08
1233.694
1232.274
1230.821
1229.33
1227.783
1226.114
1224.115
1221.377
1239.175
1237.918
1236.62
1235.283
1233.909
1232.501
1231.056
1229.566
1228.001
1226.259
1224.102
1220.872
1240.62
1239.415
1238.168
1236.881
1235.555
1234.194
1232.794
1231.355
1229.862
1228.266
1226.444
1224.036
1219.901
1242.004
1240.85
1239.654
1238.417
1237.14
1235.825
1234.472
1233.08
1231.645
1230.146
1228.503
1226.577
1223.865
1218.752
1243.286
1242.182
1241.035
1239.846
1238.618
1237.35
1236.041
1234.694
1233.308
1231.876
1230.337
1228.644
1226.638
1223.701
1217.803
1244.454
1243.397
1242.298
1241.157
1239.975
1238.753
1237.489
1236.184
1234.842
1233.46
1231.984
1230.407
1228.705
1226.665
1223.614