/*--------------------------------*- C++ -*----------------------------------*\
| =========                 |                                                 |
| \\      /  F ield         | OpenFOAM: The Open Source CFD Toolbox           |
|  \\    /   O peration     | Version:  2306                                  |
|   \\  /    A nd           | Website:  www.openfoam.com                      |
|    \\/     M anipulation  |                                                 |
\*---------------------------------------------------------------------------*/
FoamFile
{
    version     2.0;
    format      ascii;
    arch        "LSB;label=32;scalar=64";
    class       volScalarField;
    location    "1.2";
    object      contErrCp;
}
// * * * * * * * * * * * * * * * * * * * * * * * * * * * * * * * * * * * * * //

dimensions      [1 -1 -3 -1 0 0 0];

internalField   nonuniform List<scalar> 
52000
(
0
0
0
0
0
0
0
0
0
0
0
0
0
0
0
0
0
0
0
0
0
0
0
0
0
0
0
0
0
0
0
0
0
0
0
0
0
0
0
0
0
0
0
0
0
0
0
0
0
0
0
0
0
0
0
0
0
0
0
0
0
0
0
0
0
0
0
0
0
0
0
0
0
0
0
0
0
0
0
0
0
0
0
0
0
0
0
0
0
0
0
0
0
0
0
0
0
0
0
0
0
0
0
0
0
0
0
0
0
0
0
0
0
0
0
0
0
0
0
0
0
0
0
0
0
0
0
0
0
0
0
0
0
0
0
0
0
0
0
0
0
0
0
0
0
0
0
0
0
0
0
0
0
0
0
0
0
0
0
0
0
0
0
0
0
0
0
0
0
0
0
0
0
0
0
0
0
0
0
0
0
0
0
0
0
0
0
0
0
0
0
0
0
0
0
0
0
0
0
0
0
0
0
0
0
0
0
0
0
0
0
0
0
0
0
0
0
0
0
0
0
0
0
0
0
0
0
0
0
0
0
0
0
0
0
0
0
0
0
0
0.0001972997
0
0
0
0
0
0
0
0
0
0
0
0
0
0
0
0
0
0
0
0
0
0
0
0
0
0
0
0
0
0
0
0
0
0
0
0
0
0
0
0
0
0
0
0
0
0
0
0
0
0
0
0
0
0
0
0
0
0
0
0
0
0
0
0
0
0.0001560387
0
0
0
0
0
0.0002176583
-0.0007061861
0
0
0
0
0
0
0
0
0
0
0
0
0
0
0
0
0
0
0
0
0
0
0
0
0
0
0
0
0
0
0
0
0
0
0
0
0
0
0
0
0
0
0
0
0
0
0
0
0
0
0
0
0
0
0
0
0
0
0
0
0
0
0
0
0
0
0
0
0
0
-0.0008399247
0
0
0
0
0
-2.867376e-06
0.001203572
0
0
0
0
0
-0.0003685978
-0.0007817007
0.0001693231
0
0
0
0
0
0
0
0
0
0
0
0
0
0
0
0
0
0
0
0
0
0
0
0
0
0
0
0
0
0
0
0
0
0
0
0
0
0
0
0
0
0
0
0
0
0
0
0
0
0
0
0
0
0
0
0
0
0
0
0
0
0
0
0
0
0
0
0
0
0
0
0
0
0
0
-7.806217e-06
0
0
0
0
0
-4.454334e-05
0.001291387
0
0
0
0
0
4.427651e-05
3.725564e-05
-0.002704599
0
0
0
0
0
-2.266991e-05
0.0004137759
0.0009184724
-0.0007411691
0
0
0
0
0
0
0
0
0
0
0
0
0
0
0
0
0
0
0
0
0
0
0
0
0
0
0
0
0
0
0
0
0
0
0
0
0
0
0
0
0
0
0
0
0
0
0
0
0
0
0
0
0
0
0
0
0
0
0
0
0
0
0
0
0
0
0
0
0
0
0
0
0
0
0
0
0
0
0
0
0.0006481884
0
0
0
0
0
0.0002578397
-0.0005876161
0
0
0
0
0
-0.0005003034
0.001113216
0.001812563
0
0
0
0
0
0.0003216792
0.0002561054
0.0004681642
0.001927909
0
0
0
0
0
0.000325249
-0.0002683431
0.000149536
-0.0001433053
0.0002503506
0
0
0
0
0
0
0
0
0
0
0
0
0
0
0
0
0
0
0
0
0
0
0
0
0
0
0
0
0
0
0
0
0
0
0
0
0
0
0
0
0
0
0
0
0
0
0
0
0
0
0
0
0
0
0
0
0
0
0
0
0
0
0
0
0
0
0
0
0
0
0
0
0
0
0
0
0
0
0
0
0
0
0
0
0
-0.0006396603
0
0
0
0
0
0.0001152253
-0.0004850969
0
0
0
0
0
0.001200904
-0.001059926
-0.001485199
0
0
0
0
0
0.0001155124
-6.141282e-05
-0.001664456
-0.001306801
0
0
0
0
0
6.321233e-05
-0.0005326585
-0.001312297
-0.0004161131
0.0005074837
0
0
0
0
0
3.99351e-05
-0.0008764743
0.0006899161
-0.0002667701
-0.0002626691
-5.309036e-05
0
0
0
0
0
0
0
0
0
0
0
0
0
0
0
0
0
0
0
0
0
0
0
0
0
0
0
0
0
0
0
0
0
0
0
0
0
0
0
0
0
0
0
0
0
0
0
0
0
0
0
0
0
0
0
0
0
0
0
0
0
0
0
0
0
0
0
0
0
-2.912792e-07
0
0
0
0
0
0
0
0
0
0
0
0
0
0
0
0
0
0
0
0
-6.382242e-05
0
0
0
0
0
0.0001509663
0.0007097043
0
0
0
0
0
-0.0005145795
0.0008566644
-0.0005750034
0
0
0
0
0
0.0003107521
-0.001194296
0.0009157285
0.002181917
0
0
0
0
0
0.0005850659
-0.0001090278
0.0003875433
-0.0001295372
0.0002095685
0
0
0
0
0
-0.000212968
1.658338e-05
-0.0008992195
0.0007024987
0.000313084
0.0002862115
0
0
0
0
0
-0.0002855363
0.0001905391
0.0003222037
-8.450522e-05
9.425133e-05
0.000118865
-0.0005774135
0
0
0
0
0
0
0
0
0
0
0
0
0
0
0
0
0
0
0
0
0
0
0
0
0
0
0
0
0
0
0
0
0
0
0
0
0
0
0
0
0
0
0
0
0
0
0
0
0
0
0
0
0
0
0
0
0
3.790863e-07
0
0
0
0
0
0
0
0
0
0
0
0
0
0
0
3.327997e-06
-1.748348e-06
0
0
0
0
0
0
0
0
0
0
0
0
0
0
0
0
0
0
0
0
0.0001921642
0
0
0
0
0
0.0001660228
0.0002339874
0
0
0
0
0
-0.0003061614
-0.0005832749
-4.695025e-05
0
0
0
0
0
0.0001335634
0.0009373255
0.001055221
-0.0008937439
0
0
0
0
0
-0.0002124483
-0.001556779
0.0005443554
-0.0009949222
-0.001117545
0
0
0
0
0
0.0009503403
-0.002084837
0.0007675978
-0.0006709002
0.0006946213
-0.000690188
0
0
0
0
0
-0.0001944059
4.321264e-05
4.563608e-06
0.0003783678
-0.0005243266
-0.00127528
0.001313518
0
0
0
0
0
0.0004325181
0.0003334508
0.000284856
-0.0005725972
0.0006485576
-0.0004560867
-0.0001181685
0.0004432875
0
0
0
0
0
0
0
0
0
0
0
0
0
0
0
0
0
0
0
0
0
0
0
0
0
0
0
0
0
0
0
0
0
0
0
0
0
0
0
0
0
0
0
0
2.039641e-07
0
0
0
0
0
0
0
0
0
0
0
0
0
0
0
8.721925e-07
2.846217e-07
0
0
0
0
0
0
0
0
0
0
0
0
0
0
0
6.179711e-07
-3.309012e-06
-1.968244e-06
0
0
0
0
0
0
0
0
0
0
0
0
0
0
0
0
0
0
0
0
0.0001881406
0
0
0
0
0
-0.0002249377
0.0001533637
0
0
0
0
0
-3.548408e-05
-0.001621546
0.000857894
0
0
0
0
0
-0.0009131019
0.0009307884
0.0005869769
-0.0003261081
0
0
0
0
0
-0.0001777396
0.0008593466
-0.0004248721
-0.001732923
0.001489217
0
0
0
0
0
-0.0006237067
0.002101047
0.001322926
-0.0002643406
0.0001910751
1.812736e-05
0
0
0
0
0
0.0004900141
-0.001068593
4.089686e-05
-0.0002410593
0.000549141
0.0008454676
-0.002011575
0
0
0
0
0
-0.0009802329
-0.0004925085
6.662236e-05
0.0003604396
-0.001595654
0.0006998325
0.0009422441
-0.001142497
0
0
0
0
0
-0.0001361364
5.715087e-05
0.0001254494
-0.0003633713
8.505164e-05
-0.0004737124
0.0003229286
-9.677047e-05
-0.0006896187
0
0
0
0
0
0
0
0
0
0
0
0
0
0
0
0
0
0
0
0
0
0
0
0
0
0
0
0
0
0
1.841232e-06
0
0
0
0
0
0
0
0
0
0
0
0
0
0
0
1.181427e-06
-2.609205e-06
0
0
0
0
0
0
0
0
0
0
0
0
0
0
0
-3.837277e-06
-2.619668e-06
3.855252e-06
0
0
0
0
0
0
0
0
0
0
0
0
0
0
0
8.72129e-07
-1.371711e-06
1.467526e-06
1.653109e-06
0
0
0
0
0
0
0
0
0
0
0
0
0
0
0
0
0
0
0
0
-0.0002069093
0
0
0
0
0
0.0007803002
-0.001537689
0
0
0
0
0
-5.376096e-05
-0.0001614872
0.0001360644
0
0
0
0
0
0.0006815905
8.890658e-05
0.001792138
0.0001014424
0
0
0
0
0
6.012846e-05
0.001082617
-0.0004489475
-0.0003106143
0.0005414488
0
0
0
0
0
0.0003131041
-0.002567497
0.0001524629
-0.0006101999
0.0007099425
-0.001746453
0
0
0
0
0
0.0006272443
0.001091158
-0.0002926298
-0.0006902049
-7.517595e-05
3.150811e-05
0.00118893
0
0
0
0
0
0.0009514818
-0.0003207175
0.0004975339
-0.0008936121
0.00163239
0.000683088
-0.0006903368
0.001046132
0
0
0
0
0
-0.0002035284
0.001796076
0.000321859
-0.0007982939
0.001399824
0.001084641
-0.000345623
0.001089861
0.0006101514
0
0
0
0
0
2.661153e-05
0.000420375
-0.0001564552
0.0002503694
-2.835274e-05
0.0002372724
0.001319655
-0.0002929442
-0.0001499774
-0.0006382809
0
0
0
0
0
0
0
0
0
0
0
0
0
0
0
3.400485e-06
0
0
0
0
0
0
0
0
0
0
0
0
0
0
0
-1.171517e-06
-4.117185e-06
0
0
0
0
0
0
0
0
0
0
0
0
0
0
0
9.575979e-07
-1.507586e-06
2.642452e-06
0
0
0
0
0
0
0
0
0
0
0
0
0
0
0
-3.747637e-06
-2.456072e-06
-2.02471e-06
-6.261748e-06
0
0
0
0
0
0
0
0
0
0
0
0
0
0
0
-5.235341e-07
2.655988e-07
-7.007812e-07
7.96847e-06
1.067174e-06
0
0
0
0
0
0
0
0
0
0
0
0
0
0
0
0
0
0
0
0
0
0
0
0
0
-0.0002750487
0.0006142433
0
0
0
0
0
-0.0004382603
6.586267e-05
0.001559167
0
0
0
0
0
-6.574322e-05
0.0003034346
0.0003173094
-0.0003698221
0
0
0
0
0
0.0001981229
-0.001164414
0.001136194
-0.0006575679
0.00135584
0
0
0
0
0
-0.0002449939
0.001374915
-0.002270104
-0.0007560286
-0.0016004
-0.0002912321
0
0
0
0
0
-7.865833e-05
-0.0006463997
0.0009677655
-0.000649548
-0.0002734382
-0.001004405
0.001072156
0
0
0
0
0
-0.0003127108
0.0007755782
-0.001221942
0.0003897224
-7.934273e-05
-0.0009872802
0.0001591971
-0.0003877365
0
0
0
0
0
0.0008419275
-0.002137083
-0.001971713
-0.001308272
0.001669665
-0.00208319
-0.000430035
-0.0001785745
-0.001031157
0
0
0
0
0
-4.726211e-05
0.0008145608
-0.001727592
0.001429187
0.001811219
-0.000814362
-0.001187922
0.0002209407
-0.0006734518
0.001544276
0
0
0
0
0
-0.0002420025
-0.0001702192
-0.0004827785
0.0002268201
-3.546214e-05
0.0005038184
-0.0004054586
-0.0006596539
0.0003700894
0.0001741764
7.296762e-05
0
0
0
0
0
0
0
0
0
0
0
0
0
0
0
1.46838e-06
-3.800457e-06
0
0
0
0
0
0
0
0
0
0
0
0
0
0
0
3.081185e-06
-4.124805e-06
-4.733392e-06
0
0
0
0
0
0
0
0
0
0
0
0
0
0
0
1.880979e-06
-2.877447e-06
8.307857e-06
1.195096e-06
0
0
0
0
0
0
0
0
0
0
0
0
0
0
0
1.942721e-06
-2.890937e-06
-2.800878e-06
-3.700889e-06
2.528101e-06
0
0
0
0
0
0
0
0
0
0
0
0
0
0
0
7.881841e-07
-6.643187e-07
2.405547e-06
2.247639e-06
-6.423677e-06
1.266238e-05
0
0
0
0
0
0
0
0
0
0
0
0
0
0
0
0
0
0
0
0
0
0
0
0
0
0
0
0
0
0
7.975476e-05
-0.0003557717
-0.0005626159
0
0
0
0
0
-0.0002882226
-0.001140782
-0.001070899
-0.000737461
0
0
0
0
0
0.0002010726
-0.0002710245
-0.001624866
0.0008919584
-0.001184572
0
0
0
0
0
0.0002335408
-0.001208505
0.002144475
0.0005064138
0.002217884
-0.001551741
0
0
0
0
0
0.0004830967
0.0005260083
0.0009723613
0.0008924397
0.001645424
0.00144904
0.0007684826
0
0
0
0
0
-0.0003182372
-0.00104388
0.0005402028
0.000346056
-0.0003038528
-0.0008170048
0.0003479891
0.001184882
0
0
0
0
0
9.241998e-05
0.000656203
0.00142844
0.001220329
-0.0007820184
0.0001255443
0.0003320388
-0.000576473
-9.509022e-05
0
0
0
0
0
0.0007459645
-0.0005900323
0.002321245
-0.0005426969
-0.0005200589
-0.002857449
0.001822575
-0.0003226569
0.0003717107
-0.0003868457
0
0
0
0
0
-0.0002823038
-0.0005049469
0.0007287055
-0.0003467247
-0.001101462
0.0004160848
2.565064e-05
0.0005432186
0.0008125148
-0.0005894263
-0.0003770534
0
0
0
0
0
-0.0001028796
0.0003620642
-0.0002575211
-5.762025e-05
0.0002125318
-0.0002818584
-0.0003459243
-4.832429e-05
9.646464e-05
0.0001669563
0.0001734596
-3.96672e-06
0
0
0
0
0
0
0
0
0
0
0
0
0
0
0
4.210773e-07
-1.888396e-06
3.302907e-06
0
0
0
0
0
0
0
0
0
0
0
0
0
0
0
3.329378e-06
2.321862e-06
4.217128e-07
9.023828e-06
0
0
0
0
0
0
0
0
0
0
0
0
0
0
0
-6.720424e-07
-9.632635e-07
3.238123e-07
-3.233364e-06
-1.422687e-06
0
0
0
0
0
0
0
0
0
0
0
0
0
0
0
-9.172064e-07
-4.42031e-07
3.361069e-06
1.874853e-06
5.465758e-07
8.968252e-06
0
0
0
0
0
0
0
0
0
0
0
0
0
0
0
-2.623119e-07
-9.236925e-08
1.440715e-06
-1.902728e-06
-1.428003e-06
1.093672e-05
-1.707909e-05
0
0
0
0
0
0
0
0
0
0
0
0
0
0
0
0
0
0
0
0
0
0
0
0
0
0
0
0
0
0
0
0
0
0
0
0.0001745318
0.0005321308
0.001201228
-6.304342e-06
0
0
0
0
0
4.106343e-05
0.002119118
0.001894378
-0.000110375
0.001084595
0
0
0
0
0
0.0003994179
-0.0001519054
-0.0003015516
-0.001179032
-0.003133644
-0.0008029221
0
0
0
0
0
-0.0008906484
0.0001530116
-0.002052293
-0.0005767759
-0.0005009328
-0.000172187
0.0003967343
0
0
0
0
0
-6.293864e-06
0.0002178678
2.391603e-05
-0.001113691
-0.0007364956
0.001621442
-0.0007816664
-0.001794954
0
0
0
0
0
-5.271507e-05
0.0005027755
-0.00101585
0.0005206535
-0.0005611886
0.000959929
0.001644894
-4.804744e-06
-0.001054894
0
0
0
0
0
-0.000500812
-0.000623682
-0.0008075
-0.0008754236
-0.0003690805
0.001334852
0.0005277509
0.001481943
0.0007614055
0.0009518848
0
0
0
0
0
0.0001133477
-0.000871098
-0.000414965
-0.0003287409
0.0002707503
-0.0003829043
0.001083918
-0.0008299977
-0.001672471
0.0005652996
4.580602e-05
0
0
0
0
0
0.0001493949
0.0009684
0.001508834
-0.0009462833
-0.0001468944
0.000297898
-0.001308177
-0.0001316815
-1.29683e-07
-0.001593945
-2.230362e-05
-1.301537e-06
0
0
0
0
0
-4.21346e-05
-6.096708e-05
0.0003499778
4.778859e-05
-0.0004063598
-0.0004268831
-0.0001723144
3.789205e-05
0.0001959932
0.0002497374
-6.9455e-05
-2.216139e-06
-1.585443e-06
0
0
0
0
0
0
0
0
0
0
0
0
0
0
0
-2.452626e-06
-5.021547e-06
5.162697e-06
-4.552691e-07
0
0
0
0
0
0
0
0
0
0
0
0
0
0
0
-7.197519e-08
-3.22181e-07
4.282156e-06
-3.614399e-06
-5.970826e-06
0
0
0
0
0
0
0
0
0
0
0
0
0
0
0
6.130991e-07
5.423583e-07
-2.280077e-06
1.985101e-06
1.857062e-06
4.957419e-06
0
0
0
0
0
0
0
0
0
0
0
0
0
0
0
1.640492e-06
-8.472349e-07
1.281032e-06
4.634863e-07
2.380763e-06
-1.555705e-05
-3.978414e-05
0
0
0
0
0
0
0
0
0
0
0
0
0
0
0
-3.756928e-07
-4.856957e-07
1.784515e-06
1.767415e-06
1.491963e-06
-2.212757e-05
-7.589609e-06
-3.933719e-06
0
0
0
0
0
0
0
0
0
0
0
0
0
0
0
0
0
0
0
0
0
0
0
0
0
0
0
0
0
0
0
0
0
0
0
0
0
0
0
0
-0.0001736025
-0.000716364
-0.0002589484
-0.0006503266
0.0005311254
0
0
0
0
0
-0.0007654662
0.0004474221
-0.002377953
0.002293868
0.003390013
0.0003051241
0
0
0
0
0
0.0002255757
5.520925e-05
0.002663623
0.0008310145
9.243532e-05
0.001227392
0.0002234833
0
0
0
0
0
-0.0004712114
0.0008793218
-0.0009386591
0.001657235
-0.0002719268
-0.001686601
-0.0008996526
0.0007047213
0
0
0
0
0
0.0005846663
0.0009791237
0.000623985
-0.0004289259
0.0005924164
-0.0008385913
-0.001831984
-0.0003520943
-0.0003722449
0
0
0
0
0
0.0008405801
0.000327343
-0.0009853398
0.001121601
4.29048e-05
0.0005655173
-0.0006085924
-0.0004634421
-0.001299833
-0.0008205429
0
0
0
0
0
-8.820447e-05
0.001027838
-0.000112486
-0.0002337632
-0.0006335619
-0.001002923
-5.517545e-05
0.0003487743
3.137669e-05
0.0004560864
-0.000257777
0
0
0
0
0
0.0006582036
-0.0008619353
-0.001353958
0.0004319539
0.002036082
0.0002070534
0.001423173
0.0004746201
0.0002025006
0.001960128
-2.775151e-06
2.634598e-06
0
0
0
0
0
0.000449945
0.001121965
-0.0004855245
-0.0007937741
0.001994727
0.0003488293
0.0005115339
0.0007564753
-4.906559e-06
-0.0009193214
0.0003607936
2.218358e-06
3.778014e-06
0
0
0
0
0
-0.0001326457
-0.0002371652
0.0005154475
-3.316894e-05
1.182018e-05
0.0001533155
0.0005008423
0.0006444072
-0.0003132818
-0.001241383
-3.815535e-05
-6.642362e-07
2.160111e-06
-2.008989e-06
0
0
0
0
0
0
0
0
0
0
0
0
0
0
0
-8.159216e-07
4.744084e-06
6.031591e-06
-7.503271e-07
2.07548e-07
0
0
0
0
0
0
0
0
0
0
0
0
0
0
0
5.267434e-07
-8.889276e-07
1.128143e-06
-1.939737e-06
5.81994e-07
-7.27563e-06
0
0
0
0
0
0
0
0
0
0
0
0
0
0
0
-8.038145e-07
-1.645598e-06
2.514423e-06
-3.151141e-06
-9.434647e-07
1.517273e-05
-2.522409e-06
0
0
0
0
0
0
0
0
0
0
0
0
0
0
0
-3.088919e-06
1.140264e-06
2.253606e-06
4.491236e-07
9.445731e-07
9.232257e-06
-6.049212e-06
-2.99593e-05
0
0
0
0
0
0
0
0
0
0
0
0
0
0
0
5.253429e-07
1.503805e-06
4.521008e-06
-2.734535e-06
-7.458653e-07
-6.099351e-06
1.844652e-05
-3.610431e-05
1.024583e-05
0
0
0
0
0
0
0
0
0
0
0
0
0
0
0
0
0
0
0
0
0
0
0
0
0
0
0
0
0
0
0
0
0
0
0
0
0
0
0
0
0
0
0
0
0
-0.0003521493
-0.0004560466
0.0009400884
-0.001134987
-0.000630363
-0.0004840242
0
0
0
0
0
0.0002255119
0.001381625
-0.0001395662
-0.0001871447
-0.0007062697
-0.001322804
0.000356352
0
0
0
0
0
0.0003224304
-0.0007167306
-0.0006914265
-0.0004708856
0.0008569045
-0.0002774628
0.000221313
-4.392806e-05
0
0
0
0
0
-0.0005401483
-0.0003367316
-0.0009632469
-7.893888e-05
-0.0008408691
0.0001445301
0.0002136491
0.002098168
0.0006032478
0
0
0
0
0
-6.338076e-05
-0.0006872977
0.0008905801
0.0003973697
-7.232317e-05
-0.0005239308
0.002519193
-0.0004009992
-0.0003175958
0.001818334
0
0
0
0
0
0.0002055883
-0.0001044927
-3.271412e-05
0.0003423031
-0.0006314046
0.0008952263
-0.0001958653
-0.0007588481
-0.0003766701
0.0002361666
-0.0001578255
0
0
0
0
0
-4.741059e-05
0.0005523094
-0.0007431464
-4.26309e-05
-0.0008191382
-0.0002000287
4.435643e-05
-0.001572531
-0.001601405
-0.0002500371
0.000257985
-8.658057e-08
0
0
0
0
0
0.0001916302
-0.002742323
-0.000666352
-1.906819e-06
-0.001384362
-0.001250826
0.001252691
0.000193491
-0.0009984217
0.002338103
-0.0004680777
6.43765e-07
-1.63307e-06
0
0
0
0
0
0.0007887768
-1.011442e-06
-0.001276046
-0.0009425633
-0.0001068398
-0.001227297
-0.000729255
0.0005522091
0.0005475323
0.002165097
-0.0002291173
5.09166e-07
-3.627384e-06
3.846988e-08
0
0
0
0
0
0.0001193147
0.0004822999
0.0003953339
-0.0002888855
-0.0001532857
-2.936574e-05
0.000132398
0.0005551925
0.0003171055
-0.000204069
0.0003149141
-2.98841e-06
7.326861e-07
-8.181861e-07
4.295248e-06
0
0
0
0
0
0
0
0
0
0
0
0
0
0
0
3.800317e-07
1.964146e-06
-3.533153e-06
4.945482e-06
6.622547e-07
-2.749283e-05
0
0
0
0
0
0
0
0
0
0
0
0
0
0
0
4.535521e-07
9.710267e-07
-3.105153e-06
3.66918e-06
1.081666e-06
-4.106612e-06
1.071195e-05
0
0
0
0
0
0
0
0
0
0
0
0
0
0
0
1.964371e-06
2.008346e-06
-2.379711e-06
5.39104e-07
-5.084511e-07
4.952036e-06
-2.653182e-06
7.19408e-06
0
0
0
0
0
0
0
0
0
0
0
0
0
0
0
-1.056265e-06
7.311319e-07
1.816001e-07
-5.918769e-07
5.691491e-07
2.715738e-05
1.617111e-05
-1.358585e-05
3.894145e-05
0
0
0
0
0
0
0
0
0
0
0
0
0
0
0
-4.566577e-07
2.080194e-06
1.193289e-06
-3.39386e-06
1.508779e-06
2.094059e-06
-1.841859e-05
-4.295957e-05
3.144502e-05
1.32858e-05
0
0
0
0
0
0
0
0
0
0
0
0
0
0
0
0
0
0
0
0
0
0
0
0
0
0
0
0
0
0
0
0
0
0
0
0
0
0
0
0
0
0
0
0
0
0
0
0
0
0
0.0002154789
-0.0001082171
0.0002667849
-5.32664e-05
-3.872942e-05
0.0002046248
0.0001426215
0
0
0
0
0
-0.0006792112
0.001098079
0.0002648536
-0.0009238432
0.0003394117
3.945101e-05
-0.001352903
6.975832e-06
0
0
0
0
0
0.001001969
0.0003047808
0.00132276
0.0007618683
-0.0004002063
-0.001858928
0.001751967
-0.0007036155
-0.00152371
0
0
0
0
0
0.0003804225
0.0002648038
-0.0006035424
-0.0002807143
0.0001826451
0.0001411928
-0.001109039
-1.397808e-05
-0.0007814265
2.150725e-05
0
0
0
0
0
-9.693663e-05
-0.001160557
0.0008279702
0.0001438742
-5.777088e-05
-0.0004166039
0.001014488
-0.0003554793
0.001294537
0.000721894
-0.000682038
0
0
0
0
0
0.0001158381
0.0006199342
-0.0002332806
-2.442116e-05
-0.0004825834
-0.0003715984
-0.001935888
0.0006470767
0.001489482
-0.0003025875
-4.769057e-05
-3.94236e-06
0
0
0
0
0
-4.599572e-05
0.0002205131
0.0001556683
0.0003111221
-0.001127467
0.00101331
0.000798953
-0.001739064
0.0003179171
-0.001212162
9.737765e-05
-2.445116e-06
1.754685e-06
0
0
0
0
0
-0.0004585978
-0.0003787376
0.001659237
0.00177607
0.0008002549
0.001162928
-0.001194715
-0.0005324923
-0.0006882642
-0.0007552293
-0.0008510528
-5.799811e-07
5.528162e-07
2.416553e-06
0
0
0
0
0
0.0003310465
-0.0009415638
0.0006616781
-0.000693561
0.0004559669
0.0001770687
9.517582e-06
0.0001039425
-0.0009297988
8.784561e-05
-0.0002842865
1.512083e-06
-1.097702e-06
4.507466e-07
-2.316391e-06
0
0
0
0
0
6.504232e-05
2.686075e-05
-0.0002632057
-0.0003627386
-0.0005304002
0.0004125819
0.0004065262
4.738058e-05
-0.0002406039
-0.0006033548
-5.761681e-05
3.884213e-08
7.81683e-07
-5.703059e-06
2.976027e-06
2.010221e-05
0
0
0
0
0
0
0
0
0
0
0
0
0
0
0
2.802412e-06
-1.831e-06
-1.323885e-06
4.563368e-06
3.439048e-06
-2.249816e-05
1.417563e-05
0
0
0
0
0
0
0
0
0
0
0
0
0
0
0
1.687939e-06
-2.252035e-06
4.579994e-07
-2.833279e-06
-3.905049e-06
6.227941e-06
4.754733e-06
-5.226628e-06
0
0
0
0
0
0
0
0
0
0
0
0
0
0
0
2.237927e-06
-2.828409e-06
2.6187e-06
-1.795927e-06
-3.465899e-06
2.396196e-05
1.17823e-05
3.17904e-06
2.664622e-05
0
0
0
0
0
0
0
0
0
0
0
0
0
0
0
-3.573932e-06
-3.642782e-07
-2.568206e-06
2.661118e-06
1.328351e-06
7.255866e-06
-1.353507e-05
-1.857587e-05
5.456192e-06
-2.891038e-05
0
0
0
0
0
0
0
0
0
0
0
0
0
0
0
-1.123696e-06
8.075329e-07
2.913185e-06
-4.867292e-08
2.58743e-06
-2.822799e-05
-2.391727e-06
2.118046e-05
3.442803e-05
1.245952e-06
-77370.21
0
0
0
0
0
0
0
0
0
0
0
0
0
0
0
0
0
0
0
0
0
0
0
0
0
0
0
0
0
0
0
0
0
0
0
0
0
0
0
0
0
0
0
0
0
0
0
0
0
0
0
0
0
0
0
0.0002903922
-0.0004331328
4.067095e-05
-0.000205111
-0.0003139725
0.00043996
0.000199948
-0.0002706272
0
0
0
0
0
-0.0009982616
0.001813314
-0.0009445605
-0.0008641958
0.0005081134
0.001364577
-0.001313609
0.0005640513
0.000659818
0
0
0
0
0
0.0002059338
-0.0001851224
0.001005854
-0.0007339761
0.0007577201
0.0009522793
0.0005911443
8.411552e-05
0.000706495
-0.000789924
0
0
0
0
0
0.0002480153
-0.0003800785
-0.000696556
-0.0001743098
-7.856278e-05
0.001608075
-0.001423984
0.002473232
0.000767945
-0.0008645745
-0.0003557154
0
0
0
0
0
-0.0003709122
-0.0005956263
-0.0002023837
-0.0005560783
-0.0007854596
0.0004386405
0.001393704
-0.0005845652
-0.0001503391
-0.002111272
-0.0004121193
5.580717e-06
0
0
0
0
0
0.0002878343
-0.0005513932
-0.001044863
0.000791854
0.001688514
0.0005467182
0.0005088298
0.002762746
0.0008573989
0.0007782656
0.0002886806
3.834903e-06
3.771485e-06
0
0
0
0
0
0.0005227371
-0.001272151
9.77645e-05
-0.00128351
-0.001042726
-0.0004718746
-0.0008730125
-0.0005204899
0.0001718405
-4.097418e-05
0.0002632923
-1.705775e-06
1.826758e-06
-4.350392e-06
0
0
0
0
0
0.0003303994
0.001316132
-0.0004560888
0.001759331
-0.001097872
-0.001084748
0.0004762717
0.0008592645
-0.0003929245
0.0002327867
0.0003270293
1.301443e-06
-1.173386e-06
3.713109e-06
1.162288e-06
0
0
0
0
0
-0.0003315139
0.0001553908
-0.0003851734
-9.54181e-05
0.001289011
-0.001051264
-0.0007026987
0.0007090179
-0.001393402
0.0006959877
-1.986104e-05
-2.085937e-06
6.926513e-08
1.295053e-06
-1.847559e-06
-3.202029e-05
0
0
0
0
0
6.006879e-05
6.055571e-05
-0.000117009
-0.0005030027
-7.633114e-06
-0.0003476753
-0.0001722855
-0.0005161941
0.0003410089
-0.0001536088
1.518298e-05
-1.468571e-07
8.879631e-08
-6.514128e-06
-3.789883e-07
1.477567e-05
1.686659e-05
0
0
0
0
0
0
0
0
0
0
0
0
0
0
0
-1.247032e-06
-9.702074e-07
-1.177781e-06
-8.698594e-07
2.152991e-06
2.014593e-05
4.252547e-06
-3.884756e-06
0
0
0
0
0
0
0
0
0
0
0
0
0
0
0
1.35609e-06
2.127972e-06
-2.992809e-06
-2.158458e-06
1.854493e-07
-2.595883e-05
-3.034611e-05
-9.121588e-06
3.546123e-05
0
0
0
0
0
0
0
0
0
0
0
0
0
0
0
2.828174e-07
-3.599337e-07
-2.767511e-06
-1.579466e-06
-1.153456e-06
3.003426e-05
-3.730369e-05
7.851378e-06
3.809131e-07
-3.095446e-05
0
0
0
0
0
0
0
0
0
0
0
0
0
0
0
-9.900904e-07
8.110806e-08
-2.4589e-06
3.575864e-06
1.086227e-07
3.929039e-07
-1.610042e-05
-1.062666e-05
3.244163e-06
1.096402e-05
-78050
0
0
0
0
0
0
0
0
0
0
0
0
0
0
0
1.363883e-06
1.210799e-06
-1.035579e-06
1.016165e-06
-9.939709e-07
2.542631e-06
2.190973e-05
-3.175177e-06
-1.156803e-05
-1.763873e-05
-71096.4
-77982.42
0
0
0
0
0
0
0
0
0
0
0
0
0
0
0
0
0
0
0
0
0
0
0
0
0
0
0
0
0
0
0
0
0
0
0
0
0
0
0
0
0
0
0
0
0
0
0
0
0
0
0
0
0
0
0
0
0
0
0
0
0.000265979
-0.0006433958
0.0004010455
0.0001649641
-5.607854e-05
-0.0006179915
0.0007019384
0.0002667742
-9.951216e-05
0
0
0
0
0
-0.0007677485
0.001547379
-0.002543642
0.0006416856
0.0007331875
-0.001268216
-0.0003263974
0.0004344582
-1.955918e-05
0.001497668
0
0
0
0
0
-0.0004041262
0.0003200285
-0.0004550425
0.0005906993
-0.0002143184
-0.002391448
0.0007291373
-0.001372177
-0.00109789
2.896341e-05
0.0003412465
0
0
0
0
0
-0.0001875155
-0.000416677
0.0005522914
0.001062415
-0.0006063728
-0.000970103
-0.001784487
0.001114208
-0.0005170917
-0.0001278485
0.0005179816
5.750374e-06
0
0
0
0
0
-1.649864e-05
0.002221661
0.0007109972
0.0002682789
0.0003851281
0.001704599
-0.0002079274
-0.001718693
-0.0005261595
-0.0008064999
0.0009642556
1.973958e-06
4.835719e-07
0
0
0
0
0
-0.00023203
0.0001000529
-0.000350746
0.0008671828
-0.001360987
0.0005530374
-0.0007293301
-0.001374123
0.0006011745
0.0002702519
-9.811608e-05
-8.544076e-07
-7.282348e-07
-1.456774e-06
0
0
0
0
0
-0.0005072339
-0.00248546
0.0008508654
-0.001773697
0.001722866
0.00167674
0.0002771384
0.0005451124
0.0002267018
-0.0001401204
-0.0001894471
9.680011e-07
-2.526226e-06
2.646776e-06
-2.464025e-06
0
0
0
0
0
0.0008572047
-0.0001054298
0.0004874026
-0.0002499561
-0.001875564
0.001251519
0.0003989034
-0.0006009449
0.0009611966
-0.0008304733
0.0003889377
-2.340649e-06
-2.569847e-06
3.350255e-06
3.321227e-07
-2.003243e-05
0
0
0
0
0
3.356875e-05
0.0003887339
-0.00192755
0.0004278212
-0.0002367134
0.0009060563
0.0004992002
-0.0004301731
-0.001346343
0.00210821
-0.0002987891
-3.811956e-06
4.566941e-07
3.108636e-06
-3.47669e-06
1.663958e-05
1.891484e-05
0
0
0
0
0
0.0001132524
7.027937e-05
-8.004169e-05
0.0003190125
0.0002897923
0.0002044601
0.0007402477
0.0003501666
0.0006777867
-0.0002615776
-4.983237e-05
-7.876658e-07
-2.87811e-06
-2.296755e-06
-2.134495e-06
-5.598872e-07
3.049676e-05
-3.188042e-05
0
0
0
0
0
0
0
0
0
0
0
0
0
0
0
-2.531262e-06
-4.442345e-06
-5.120908e-07
3.644068e-06
2.487376e-06
7.949087e-08
-3.028916e-05
-2.56958e-06
-8.316526e-06
0
0
0
0
0
0
0
0
0
0
0
0
0
0
0
1.349876e-06
2.106258e-06
3.230143e-06
-3.617893e-06
-2.663765e-06
8.205441e-06
2.779595e-05
1.645957e-06
2.033624e-05
7.964848e-06
0
0
0
0
0
0
0
0
0
0
0
0
0
0
0
2.188634e-06
-2.12124e-06
2.248067e-06
-4.090261e-06
1.905032e-06
-1.069648e-05
-2.093372e-05
2.314182e-05
-2.280384e-05
3.671188e-06
-79416.07
0
0
0
0
0
0
0
0
0
0
0
0
0
0
0
8.656722e-07
-2.336976e-06
-1.468486e-06
1.033541e-06
-9.639681e-07
-1.247537e-05
1.265522e-06
-9.695532e-06
9.217275e-06
2.596447e-06
-71544.6
-78674.34
0
0
0
0
0
0
0
0
0
0
0
0
0
0
0
-7.081699e-07
-1.393222e-06
2.185788e-06
-3.952138e-06
1.242111e-06
-1.106855e-05
-6.471769e-06
4.279933e-06
7.218107e-06
-1.92009e-06
-65812.59
-71636.13
-79576.37
0
0
0
0
0
0
0
0
0
0
0
0
0
0
0
0
0
0
0
0
0
0
0
0
0
0
0
0
0
0
0
0
0
0
0
0
0
0
0
0
0
0
0
0
0
0
0
0
0
0
0
0
0
0
0
0
0
0
0
0
0
0
0
0
0
0.0003154616
-0.0004869591
-4.850583e-05
-0.0002207561
-0.000407825
0.0009114028
-8.357466e-05
-0.0003531163
-4.13868e-05
-0.0002728819
0
0
0
0
0
-2.927749e-05
0.000839867
-0.0007202143
0.0007534863
0.001239278
-0.0002858381
-0.0001909181
0.001091717
0.001336474
-0.0005917708
-0.0006025512
0
0
0
0
0
6.728465e-05
0.0006871323
0.0004714731
-0.0008502352
0.0002552544
0.001221613
0.0007281772
-0.0003374199
-0.0001256816
0.0008442448
0.0004725319
-3.080614e-06
0
0
0
0
0
-0.0002042156
0.001295957
0.0008141765
0.0002641001
0.0001297182
-0.001076023
0.001578666
0.001030305
-0.000508744
-0.0006788697
0.0003387867
1.662914e-07
-6.94751e-06
0
0
0
0
0
0.0002327884
0.0004466132
-0.0003969703
6.241896e-05
0.0006050395
-0.000908957
0.0003946102
-0.00132805
-0.0006657428
-0.0007011813
0.0003981918
-3.037335e-07
4.291985e-06
-3.346063e-06
0
0
0
0
0
0.000376971
0.001934865
0.0007036462
0.0002580436
-0.001999868
0.001334281
-0.0007821218
1.594627e-05
3.120493e-05
-0.0009455917
-0.0001364393
-2.943497e-06
-1.628892e-06
-5.13493e-06
3.347848e-06
0
0
0
0
0
0.0001756819
0.0005850404
0.0009208054
-0.0005649259
0.002263258
0.0001064503
-0.0001435927
-0.0003815595
0.0001505618
-0.0001353949
0.0004162422
2.548398e-07
-6.52162e-07
-4.971527e-06
4.082664e-06
3.722372e-06
0
0
0
0
0
-0.0003127737
-0.0001783694
0.0002192763
-0.001473036
0.00236415
0.0005936029
-0.002284811
0.001037791
0.0001853369
-0.0008698868
0.0001162392
-1.473876e-06
4.016345e-06
2.611234e-06
-6.062918e-07
-1.469733e-05
4.345879e-06
0
0
0
0
0
-0.000178976
0.0005056414
-0.0007117166
0.0006800503
-0.001323509
-0.000782643
-0.0007050764
-0.001069885
0.0001899118
0.0002348151
-0.0006806217
1.020607e-06
4.708211e-06
-1.020456e-06
-2.761357e-07
-3.692223e-05
-1.46735e-05
1.144729e-05
0
0
0
0
0
-0.0001557448
-0.0008617221
0.0001950793
0.0001835575
-0.0005209655
-0.0003290349
-0.0002673419
-0.0005188851
-0.0006111967
-0.0008068968
0.0002574851
5.329033e-07
-3.608932e-06
-3.425491e-06
3.440046e-06
-7.865217e-06
1.704864e-05
-5.329378e-05
-3.40073e-06
0
0
0
0
0
0
0
0
0
0
0
0
0
0
0
-1.902887e-06
3.214829e-07
-1.327171e-06
5.14213e-06
8.111072e-07
-7.213432e-06
3.107011e-06
1.233889e-05
4.152e-06
1.26929e-05
0
0
0
0
0
0
0
0
0
0
0
0
0
0
0
7.738009e-07
-7.179214e-07
4.172759e-06
4.070635e-06
-3.840318e-06
-1.847265e-05
-1.561876e-05
-1.547937e-05
1.728969e-05
-3.613828e-06
-81452.9
0
0
0
0
0
0
0
0
0
0
0
0
0
0
0
1.194102e-06
4.591636e-07
-2.85532e-06
1.069748e-07
-2.752491e-06
1.941575e-05
1.88787e-05
-1.104795e-05
1.693778e-05
2.116128e-05
-72423.67
-80064.68
0
0
0
0
0
0
0
0
0
0
0
0
0
0
0
-2.197648e-06
-4.460407e-08
3.593871e-06
-2.709148e-06
2.262352e-08
9.208733e-06
5.099022e-06
-7.348492e-06
2.119025e-05
5.604244e-06
-66158.18
-72092.67
-80297.09
0
0
0
0
0
0
0
0
0
0
0
0
0
0
0
-1.31983e-06
1.196723e-06
1.791821e-06
-5.396975e-07
1.461736e-06
4.387122e-06
-1.9994e-07
5.567975e-06
-3.464238e-05
-4.232009e-06
-61572.78
-66298.77
-73029.28
-82202.48
0
0
0
0
0
0
0
0
0
0
0
0
0
0
0
0
0
0
0
0
0
0
0
0
0
0
0
0
0
0
0
0
0
0
0
0
0
0
0
0
0
0
0
0
0
0
0
0
0
0
0
0
0
0
0
0
0
0
0
0
0
0
0
0
0
0
0
0
0
0
5.277819e-06
-0.0001615752
-3.801679e-05
0.0001511015
-6.519591e-05
0.0003730262
-0.0005220993
-9.635657e-05
-0.0003016835
7.67277e-05
0.0002214235
0
0
0
0
0
0.0003155643
-0.0003974734
-0.0005615195
0.0006738037
-0.001611718
-0.00186815
1.899038e-05
-0.0008345146
0.0007895459
-0.001121434
0.0004911692
-4.439194e-07
0
0
0
0
0
-0.0002451425
-0.0004317443
0.0006147076
-2.566912e-06
0.0003191066
0.0002759279
-0.001796711
0.0007927619
7.034798e-06
0.0008093089
0.0001866774
-3.961765e-06
-4.176591e-06
0
0
0
0
0
0.0001663592
0.0003229203
-0.002566601
-0.001279654
-0.0007095425
-0.0005648561
0.001128599
0.001233965
0.001561875
0.001988048
-6.658393e-05
2.768122e-06
-2.545338e-06
5.66187e-06
0
0
0
0
0
3.890363e-05
-0.001268255
-0.0006234794
-0.0002828771
0.001370257
-0.00153557
-0.0001925912
-0.001135599
0.001279585
0.001222879
-0.0001092387
-1.801266e-06
2.389685e-06
3.044698e-06
2.120829e-08
0
0
0
0
0
0.0003872357
-0.0001592274
-0.001010156
0.0007055967
0.0002442964
0.0009048621
0.00027069
-0.0001493199
0.001064122
0.0008322307
0.0005633826
-2.337388e-06
6.337379e-06
3.83972e-07
-1.09648e-06
1.540198e-05
0
0
0
0
0
4.834774e-05
-0.0008159427
0.0005147779
-0.000172004
-0.000880621
-0.001233789
-0.0005673214
-0.00165389
0.0002196677
-0.0002973249
0.0003664218
6.056178e-08
-6.343725e-07
-3.68613e-06
-3.529465e-06
1.558269e-05
-8.932354e-06
0
0
0
0
0
0.000121742
0.001160933
-9.217201e-06
-0.0005442625
0.002473068
-0.001432246
-0.001730481
-0.0006121104
0.001567631
0.0004245081
-0.0001993063
-2.881833e-07
1.507185e-06
9.293434e-06
1.807346e-07
-2.814655e-05
-9.295355e-06
5.821916e-06
0
0
0
0
0
7.728595e-06
0.0009964293
-0.001297745
0.0008723919
0.0003889372
0.001966384
5.531324e-05
0.0007707073
0.001112337
0.001138698
0.0003690282
-1.139789e-06
-4.400366e-08
1.364571e-07
3.926603e-07
-4.810214e-07
1.650863e-05
-5.78151e-06
1.730381e-05
0
0
0
0
0
-0.0001957028
0.0005108744
0.0009966827
-0.0001352876
-0.0003747968
0.0001280334
0.0004510617
0.0004857923
0.0001906206
0.0001012895
0.0001406766
9.732173e-07
2.008065e-07
-4.392002e-06
-1.066166e-06
1.578457e-05
1.645137e-05
-2.679371e-05
3.932215e-05
5.833946e-06
0
0
0
0
0
0
0
0
0
0
0
0
0
0
0
-3.784149e-07
-9.459707e-07
1.040823e-06
-1.550502e-06
2.341151e-06
1.493705e-05
-1.054168e-05
-2.530853e-06
-5.449046e-06
-1.234131e-05
-84056.31
0
0
0
0
0
0
0
0
0
0
0
0
0
0
0
1.930894e-06
1.760175e-06
-2.018122e-06
-1.314327e-06
3.00833e-08
-1.327786e-05
1.842811e-05
-1.434927e-05
-2.926603e-05
-1.194749e-05
-73673.78
-82136.8
0
0
0
0
0
0
0
0
0
0
0
0
0
0
0
8.333009e-07
1.063135e-06
-5.642075e-07
2.188117e-06
-1.730228e-06
-6.659014e-06
-1.152625e-05
-8.953058e-06
1.51293e-05
-2.405474e-05
-66828.84
-72988.36
-81745.66
0
0
0
0
0
0
0
0
0
0
0
0
0
0
0
-6.808698e-07
-2.04826e-06
8.360726e-07
-2.643059e-06
-3.647271e-08
1.696156e-05
1.511419e-05