/*--------------------------------*- C++ -*----------------------------------*\
| =========                 |                                                 |
| \\      /  F ield         | OpenFOAM: The Open Source CFD Toolbox           |
|  \\    /   O peration     | Version:  2306                                  |
|   \\  /    A nd           | Website:  www.openfoam.com                      |
|    \\/     M anipulation  |                                                 |
\*---------------------------------------------------------------------------*/
FoamFile
{
    version     2.0;
    format      ascii;
    arch        "LSB;label=32;scalar=64";
    class       volScalarField;
    location    "1.2";
    object      k;
}
// * * * * * * * * * * * * * * * * * * * * * * * * * * * * * * * * * * * * * //

dimensions      [1 1 -3 -1 0 0 0];

internalField   nonuniform List<scalar> 
52000
(
20
20
20
20
20
20
20
20
20
20
20
20
20
20
20
20
20
20
20
20
20
20
20
20
20
20
20
20
20
20
20
20
20
20
20
20
20
20
20
20
20
20
20
20
20
20
20
20
20
20
20
20
20
20
20
20
20
20
20
20
20
20
20
20
20
20
20
20
20
20
20
20
20
20
20
20
20
20
20
20
20
20
20
20
20
20
20
20
20
20
20
20
20
20
20
20
20
20
20
20
20
20
20
20
20
20
20
20
20
20
20
20
20
20
20
20
20
20
20
20
20
20
20
20
20
20
20
20
20
20
20
20
20
20
20
20
20
20
20
20
20
20
20
20
20
20
20
20
20
20
20
20
20
20
20
20
20
20
20
20
20
20
20
20
20
20
20
20
20
20
20
20
20
20
20
20
20
20
20
20
20
20
20
20
20
20
20
20
20
20
20
20
20
20
20
20
20
20
20
20
20
20
20
20
20
20
20
20
20
20
20
20
20
20
20
20
20
20
20
20
20
20
20
20
20
20
20
20
20
20
20
20
20
20
20
20
20
20
20
20
0.08011381
20
20
20
20
20
20
20
20
20
20
20
20
20
20
20
20
20
20
20
20
20
20
20
20
20
20
20
20
20
20
20
20
20
20
20
20
20
20
20
20
20
20
20
20
20
20
20
20
20
20
20
20
20
20
20
20
20
20
20
20
20
20
20
20
20
0.07949217
20
20
20
20
20
0.08084023
0.07948217
20
20
20
20
20
20
20
20
20
20
20
20
20
20
20
20
20
20
20
20
20
20
20
20
20
20
20
20
20
20
20
20
20
20
20
20
20
20
20
20
20
20
20
20
20
20
20
20
20
20
20
20
20
20
20
20
20
20
20
20
20
20
20
20
20
20
20
20
20
20
0.07915427
20
20
20
20
20
0.08066907
0.07797423
20
20
20
20
20
0.08102968
0.08066778
0.0791357
20
20
20
20
20
20
20
20
20
20
20
20
20
20
20
20
20
20
20
20
20
20
20
20
20
20
20
20
20
20
20
20
20
20
20
20
20
20
20
20
20
20
20
20
20
20
20
20
20
20
20
20
20
20
20
20
20
20
20
20
20
20
20
20
20
20
20
20
20
20
20
20
20
20
20
0.07896509
20
20
20
20
20
0.08052144
0.07704242
20
20
20
20
20
0.08095209
0.0801627
0.07702821
20
20
20
20
20
0.08118846
0.08095591
0.08051936
0.07893633
20
20
20
20
20
20
20
20
20
20
20
20
20
20
20
20
20
20
20
20
20
20
20
20
20
20
20
20
20
20
20
20
20
20
20
20
20
20
20
20
20
20
20
20
20
20
20
20
20
20
20
20
20
20
20
20
20
20
20
20
20
20
20
20
20
20
20
20
20
20
20
20
20
20
20
20
20
20
20
20
0.0788777
20
20
20
20
20
0.08041308
0.07648779
20
20
20
20
20
0.08088218
0.0797203
0.07562136
20
20
20
20
20
0.08114837
0.08072817
0.07971525
0.07644961
20
20
20
20
20
0.08133084
0.08115424
0.08089051
0.08040996
0.07883585
20
20
20
20
20
20
20
20
20
20
20
20
20
20
20
20
20
20
20
20
20
20
20
20
20
20
20
20
20
20
20
20
20
20
20
20
20
20
20
20
20
20
20
20
20
20
20
20
20
20
20
20
20
20
20
20
20
20
20
20
20
20
20
20
20
20
20
20
20
20
20
20
20
20
20
20
20
20
20
20
20
20
20
20
20
0.0788777
20
20
20
20
20
0.08035582
0.07622617
20
20
20
20
20
0.08082862
0.07939248
0.07474211
20
20
20
20
20
0.08111271
0.08051986
0.07899717
0.07470859
20
20
20
20
20
0.08130746
0.08104018
0.08052337
0.07937721
0.0761495
20
20
20
20
20
0.08146091
0.08131381
0.08112519
0.08084249
0.08035163
0.07881859
20
20
20
20
20
20
20
20
20
20
20
20
20
20
20
20
20
20
20
20
20
20
20
20
20
20
20
20
20
20
20
20
20
20
20
20
20
20
20
20
20
20
20
20
20
20
20
20
20
20
20
20
20
20
20
20
20
20
20
20
20
20
20
20
20
20
20
20
20
0.3567667
20
20
20
20
20
20
20
20
20
20
20
20
20
20
20
20
20
20
20
20
0.07896509
20
20
20
20
20
0.08035582
0.07622617
20
20
20
20
20
0.08079949
0.07921836
0.07431573
20
20
20
20
20
0.08108547
0.08035873
0.07845797
0.07357737
20
20
20
20
20
0.08128721
0.08093664
0.08018193
0.07844166
0.07422091
20
20
20
20
20
0.08144558
0.08125007
0.08094366
0.08036521
0.0791875
0.07609469
20
20
20
20
20
0.0815807
0.08145178
0.08130069
0.08110621
0.08082052
0.08035187
0.07888434
20
20
20
20
20
20
20
20
20
20
20
20
20
20
20
20
20
20
20
20
20
20
20
20
20
20
20
20
20
20
20
20
20
20
20
20
20
20
20
20
20
20
20
20
20
20
20
20
20
20
20
20
20
20
20
20
20
0.3567581
20
20
20
20
20
20
20
20
20
20
20
20
20
20
20
0.3568669
0.3568314
20
20
20
20
20
20
20
20
20
20
20
20
20
20
20
20
20
20
20
20
0.07915427
20
20
20
20
20
0.08041308
0.07648779
20
20
20
20
20
0.08079949
0.07921836
0.07431573
20
20
20
20
20
0.08107064
0.08027065
0.07816918
0.07301253
20
20
20
20
20
0.08127201
0.08085665
0.07991468
0.07773108
0.07293589
20
20
20
20
20
0.08143266
0.08119347
0.08077585
0.07991568
0.07812395
0.07412839
20
20
20
20
20
0.08156931
0.0814119
0.08120157
0.08087258
0.08028063
0.07916969
0.07628453
20
20
20
20
20
0.08169169
0.08157513
0.08144588
0.08129447
0.08110195
0.0808306
0.08041347
0.07904707
20
20
20
20
20
20
20
20
20
20
20
20
20
20
20
20
20
20
20
20
20
20
20
20
20
20
20
20
20
20
20
20
20
20
20
20
20
20
20
20
20
20
20
20
0.3567404
20
20
20
20
20
20
20
20
20
20
20
20
20
20
20
0.356861
0.3568217
20
20
20
20
20
20
20
20
20
20
20
20
20
20
20
0.3569624
0.3569266
0.3568974
20
20
20
20
20
20
20
20
20
20
20
20
20
20
20
20
20
20
20
20
0.07949217
20
20
20
20
20
0.08052144
0.07704242
20
20
20
20
20
0.08082862
0.07939248
0.07474211
20
20
20
20
20
0.08107064
0.08027065
0.07816918
0.07301253
20
20
20
20
20
0.08126383
0.08081281
0.07976756
0.07734777
0.07228711
20
20
20
20
20
0.08142317
0.08115051
0.08064442
0.07956026
0.07731044
0.07281129
20
20
20
20
20
0.08155995
0.08137737
0.08111185
0.08065349
0.07976797
0.07808695
0.07443398
20
20
20
20
20
0.08168241
0.08154668
0.0813855
0.08116953
0.08084083
0.0802878
0.07933092
0.07674854
20
20
20
20
20
0.081795
0.0816878
0.08157241
0.08144524
0.08129771
0.08111576
0.08087494
0.08053513
0.07934849
20
20
20
20
20
20
20
20
20
20
20
20
20
20
20
20
20
20
20
20
20
20
20
20
20
20
20
20
20
20
0.3567108
20
20
20
20
20
20
20
20
20
20
20
20
20
20
20
0.3568493
0.3568008
20
20
20
20
20
20
20
20
20
20
20
20
20
20
20
0.3569574
0.3569208
0.3568868
20
20
20
20
20
20
20
20
20
20
20
20
20
20
20
0.3570507
0.3570154
0.3569873
0.3569649
20
20
20
20
20
20
20
20
20
20
20
20
20
20
20
20
20
20
20
20
0.08011381
20
20
20
20
20
0.08066907
0.07797423
20
20
20
20
20
0.08088218
0.0797203
0.07562136
20
20
20
20
20
0.08108547
0.08035873
0.07845797
0.07357737
20
20
20
20
20
0.08126383
0.08081281
0.07976756
0.07734777
0.07228711
20
20
20
20
20
0.08141812
0.08112722
0.08057182
0.07936341
0.07686965
0.07214455
20
20
20
20
20
0.08155319
0.08135172
0.08104277
0.08047993
0.07935998
0.07725707
0.07321064
20
20
20
20
20
0.08167488
0.08152264
0.08133219
0.08105471
0.0805935
0.07977033
0.07834204
0.07516573
20
20
20
20
20
0.08178693
0.08166522
0.0815304
0.08137105
0.08116118
0.08085833
0.08039213
0.07966223
0.07756516
20
20
20
20
20
0.08189148
0.0817919
0.08168648
0.08157408
0.08145147
0.08131229
0.08114915
0.08095254
0.08071382
0.07990465
20
20
20
20
20
20
20
20
20
20
20
20
20
20
20
0.356654
20
20
20
20
20
20
20
20
20
20
20
20
20
20
20
0.3568318
0.3567636
20
20
20
20
20
20
20
20
20
20
20
20
20
20
20
0.3569475
0.3569092
0.3568636
20
20
20
20
20
20
20
20
20
20
20
20
20
20
20
0.3570462
0.3570107
0.3569814
0.3569537
20
20
20
20
20
20
20
20
20
20
20
20
20
20
20
0.3571328
0.3570973
0.3570691
0.3570488
0.357034
20
20
20
20
20
20
20
20
20
20
20
20
20
20
20
20
20
20
20
20
20
20
20
20
20
0.08084023
0.07948217
20
20
20
20
20
0.08095209
0.0801627
0.07702821
20
20
20
20
20
0.08111271
0.08051986
0.07899717
0.07470859
20
20
20
20
20
0.08127201
0.08085665
0.07991468
0.07773108
0.07293589
20
20
20
20
20
0.08141812
0.08112722
0.08057182
0.07936341
0.07686965
0.07214455
20
20
20
20
20
0.08154964
0.08133801
0.08100501
0.08038339
0.07913311
0.07680685
0.07259456
20
20
20
20
20
0.08166953
0.08150519
0.08129205
0.0809652
0.08039597
0.07935728
0.07758606
0.07415102
20
20
20
20
20
0.08178044
0.08164647
0.08149424
0.08130453
0.08103419
0.08061273
0.07993072
0.0788682
0.07639851
20
20
20
20
20
0.08188422
0.08177258
0.08165373
0.08152372
0.08137269
0.08118177
0.08092855
0.08058632
0.08013972
0.0789127
20
20
20
20
20
0.08198184
0.08188881
0.0817912
0.08168905
0.08158127
0.08146575
0.08133936
0.08120248
0.08106291
0.08095617
0.3564025
20
20
20
20
20
20
20
20
20
20
20
20
20
20
20
0.3568106
0.3566898
20
20
20
20
20
20
20
20
20
20
20
20
20
20
20
0.3569333
0.3568923
0.3568221
20
20
20
20
20
20
20
20
20
20
20
20
20
20
20
0.3570373
0.3570017
0.3569698
0.3569292
20
20
20
20
20
20
20
20
20
20
20
20
20
20
20
0.3571286
0.3570932
0.3570647
0.3570429
0.3570225
20
20
20
20
20
20
20
20
20
20
20
20
20
20
20
0.3572096
0.3571738
0.3571446
0.3571235
0.3571112
0.632614
20
20
20
20
20
20
20
20
20
20
20
20
20
20
20
20
20
20
20
20
20
20
20
20
20
20
20
20
20
20
0.08102968
0.08066778
0.0791357
20
20
20
20
20
0.08114837
0.08072817
0.07971525
0.07644961
20
20
20
20
20
0.08128721
0.08093664
0.08018193
0.07844166
0.07422091
20
20
20
20
20
0.08142317
0.08115051
0.08064442
0.07956026
0.07731044
0.07281129
20
20
20
20
20
0.08154964
0.08133801
0.08100501
0.08038339
0.07913311
0.07680685
0.07259456
20
20
20
20
20
0.08166673
0.08149599
0.08127041
0.0809159
0.08028555
0.07912723
0.07717669
0.07364776
20
20
20
20
20
0.08177586
0.08163309
0.08146767
0.08125381
0.08093422
0.08041549
0.07956209
0.07826426
0.07567331
20
20
20
20
20
0.08187839
0.08175669
0.08162609
0.08147976
0.08130112
0.08105893
0.08071587
0.08023251
0.07961311
0.07828843
20
20
20
20
20
0.08197516
0.08187152
0.08176345
0.08165049
0.08152932
0.08139352
0.08123374
0.08104887
0.08085445
0.08073051
0.356137
20
20
20
20
20
0.08206666
0.08197942
0.08188838
0.08179403
0.08169636
0.08159482
0.08148901
0.08138001
0.08127839
0.08122005
0.3568201
0.3564949
20
20
20
20
20
20
20
20
20
20
20
20
20
20
20
0.3569196
0.3568731
0.3567446
20
20
20
20
20
20
20
20
20
20
20
20
20
20
20
0.3570247
0.3569901
0.3569531
0.356886
20
20
20
20
20
20
20
20
20
20
20
20
20
20
20
0.3571203
0.3570855
0.3570564
0.3570313
0.3569975
20
20
20
20
20
20
20
20
20
20
20
20
20
20
20
0.3572056
0.3571701
0.3571408
0.3571192
0.3571053
0.6326074
20
20
20
20
20
20
20
20
20
20
20
20
20
20
20
0.3572815
0.3572458
0.3572154
0.3571924
0.3571785
0.6326557
0.6326168
20
20
20
20
20
20
20
20
20
20
20
20
20
20
20
20
20
20
20
20
20
20
20
20
20
20
20
20
20
20
20
20
20
20
20
0.08118846
0.08095591
0.08051936
0.07893633
20
20
20
20
20
0.08130746
0.08104018
0.08052337
0.07937721
0.0761495
20
20
20
20
20
0.08143266
0.08119347
0.08077585
0.07991568
0.07812395
0.07412839
20
20
20
20
20
0.08155319
0.08135172
0.08104277
0.08047993
0.07935998
0.07725707
0.07321064
20
20
20
20
20
0.08166673
0.08149599
0.08127041
0.0809159
0.08028555
0.07912723
0.07717669
0.07364776
20
20
20
20
20
0.08177348
0.08162612
0.08145357
0.08122624
0.08087881
0.08030489
0.07935678
0.0779384
0.07532196
20
20
20
20
20
0.08187428
0.08174548
0.08160615
0.08144708
0.08124591
0.08096132
0.08054396
0.0799487
0.07921244
0.07790404
20
20
20
20
20
0.08196981
0.08185739
0.08174032
0.08161755
0.08148338
0.08132678
0.08113191
0.08089498
0.08063917
0.08049798
0.3559303
20
20
20
20
20
0.08206045
0.08196357
0.08186368
0.08176171
0.08165745
0.08154925
0.08143542
0.08131723
0.0812142
0.08118236
0.3567732
0.356281
20
20
20
20
20
0.08214641
0.08206441
0.08197912
0.08189123
0.08180113
0.0817091
0.08161554
0.08152258
0.08143822
0.08139448
0.3569731
0.3568661
0.3565896
20
20
20
20
20
20
20
20
20
20
20
20
20
20
20
0.3570138
0.3569827
0.3569337
0.3568114
20
20
20
20
20
20
20
20
20
20
20
20
20
20
20
0.3571087
0.3570759
0.3570461
0.3570143
0.3569546
20
20
20
20
20
20
20
20
20
20
20
20
20
20
20
0.3571978
0.357163
0.3571339
0.3571113
0.3570936
0.6325933
20
20
20
20
20
20
20
20
20
20
20
20
20
20
20
0.3572777
0.3572423
0.357212
0.3571889
0.3571744
0.6326524
0.6326102
20
20
20
20
20
20
20
20
20
20
20
20
20
20
20
0.357349
0.3573137
0.3572826
0.3572575
0.3572407
0.6326917
0.6326582
0.6326196
20
20
20
20
20
20
20
20
20
20
20
20
20
20
20
20
20
20
20
20
20
20
20
20
20
20
20
20
20
20
20
20
20
20
20
20
20
20
20
20
0.08133084
0.08115424
0.08089051
0.08040996
0.07883585
20
20
20
20
20
0.08144558
0.08125007
0.08094366
0.08036521
0.0791875
0.07609469
20
20
20
20
20
0.08155995
0.08137737
0.08111185
0.08065349
0.07976797
0.07808695
0.07443398
20
20
20
20
20
0.08166953
0.08150519
0.08129205
0.0809652
0.08039597
0.07935728
0.07758606
0.07415102
20
20
20
20
20
0.08177348
0.08162612
0.08145357
0.08122624
0.08087881
0.08030489
0.07935678
0.0779384
0.07532196
20
20
20
20
20
0.08187215
0.08173969
0.08159572
0.08142961
0.0812157
0.08090693
0.08044726
0.07979049
0.07899653
0.07771835
20
20
20
20
20
0.08196603
0.08184747
0.08172385
0.08159356
0.08144882
0.08127459
0.08104969
0.0807681
0.08046206
0.08031436
0.3557922
20
20
20
20
20
0.08205547
0.08195065
0.08184322
0.08173448
0.08162382
0.08150812
0.08138368
0.08125045
0.08113319
0.08110704
0.3567116
0.3561068
20
20
20
20
20
0.08214061
0.0820497
0.08195652
0.08186259
0.08176892
0.08167615
0.08158508
0.08149967
0.08143258
0.08142392
0.3569806
0.3568272
0.3564176
20
20
20
20
20
0.08222152
0.08214431
0.08206418
0.08198188
0.081898
0.08181309
0.08172799
0.0816448
0.08157079
0.08153199
0.3570768
0.3570111
0.3569177
0.3566865
20
20
20
20
20
20
20
20
20
20
20
20
20
20
20
0.3570988
0.3570723
0.3570399
0.3569937
0.3568859
20
20
20
20
20
20
20
20
20
20
20
20
20
20
20
0.3571868
0.3571543
0.3571261
0.3571014
0.3570761
0.6325693
20
20
20
20
20
20
20
20
20
20
20
20
20
20
20
0.3572703
0.3572356
0.3572058
0.3571825
0.3571666
0.6326456
0.6325961
20
20
20
20
20
20
20
20
20
20
20
20
20
20
20
0.3573454
0.3573103
0.3572795
0.3572544
0.3572374
0.6326894
0.6326549
0.632613
20
20
20
20
20
20
20
20
20
20
20
20
20
20
20
0.3574124
0.3573777
0.3573464
0.3573199
0.3573001
0.6327251
0.6326939
0.6326607
0.6326224
20
20
20
20
20
20
20
20
20
20
20
20
20
20
20
20
20
20
20
20
20
20
20
20
20
20
20
20
20
20
20
20
20
20
20
20
20
20
20
20
20
20
20
20
20
0.08146091
0.08131381
0.08112519
0.08084249
0.08035163
0.07881859
20
20
20
20
20
0.08156931
0.0814119
0.08120157
0.08087258
0.08028063
0.07916969
0.07628453
20
20
20
20
20
0.08167488
0.08152264
0.08133219
0.08105471
0.0805935
0.07977033
0.07834204
0.07516573
20
20
20
20
20
0.08177586
0.08163309
0.08146767
0.08125381
0.08093422
0.08041549
0.07956209
0.07826426
0.07567331
20
20
20
20
20
0.08187215
0.08173969
0.08159572
0.08142961
0.0812157
0.08090693
0.08044726
0.07979049
0.07899653
0.07771835
20
20
20
20
20
0.08196408
0.08184237
0.08171531
0.08158093
0.08143021
0.08124579
0.08100349
0.08069613
0.08036244
0.08021408
0.3557233
20
20
20
20
20
0.08205196
0.0819416
0.08182876
0.08171494
0.08159907
0.08147665
0.08134199
0.08119369
0.08106064
0.08103604
0.3566591
0.3559878
20
20
20
20
20
0.08213594
0.08203771
0.08193786
0.08183866
0.08174151
0.08164706
0.08155572
0.08147146
0.08140809
0.08141198
0.3569688
0.3567773
0.3562731
20
20
20
20
20
0.08221608
0.08213057
0.08204321
0.08195573
0.08186963
0.08178636
0.08170798
0.08163852
0.08158879
0.08158477
0.3571024
0.3570164
0.3568835
0.356549
20
20
20
20
20
0.08229232
0.08221955
0.08214413
0.08206683
0.08198831
0.08190923
0.08183053
0.08175434
0.08168684
0.08165076
0.3571603
0.3571097
0.3570528
0.3569725
0.356785
20
20
20
20
20
20
20
20
20
20
20
20
20
20
20
0.3571774
0.3571518
0.3571242
0.357094
0.357054
0.6325321
20
20
20
20
20
20
20
20
20
20
20
20
20
20
20
0.3572598
0.3572276
0.357199
0.3571753
0.3571563
0.6326355
0.6325722
20
20
20
20
20
20
20
20
20
20
20
20
20
20
20
0.3573382
0.357304
0.3572737
0.3572488
0.3572312
0.6326849
0.6326481
0.6325989
20
20
20
20
20
20
20
20
20
20
20
20
20
20
20
0.3574089
0.3573745
0.3573434
0.357317
0.3572972
0.6327232
0.6326916
0.6326574
0.6326158
20
20
20
20
20
20
20
20
20
20
20
20
20
20
20
0.357472
0.3574383
0.357407
0.3573796
0.3573577
0.6327573
0.6327271
0.6326962
0.6326632
0.6326252
20
20
20
20
20
20
20
20
20
20
20
20
20
20
20
20
20
20
20
20
20
20
20
20
20
20
20
20
20
20
20
20
20
20
20
20
20
20
20
20
20
20
20
20
20
20
20
20
20
20
0.0815807
0.08145178
0.08130069
0.08110621
0.08082052
0.08035187
0.07888434
20
20
20
20
20
0.08168241
0.08154668
0.0813855
0.08116953
0.08084083
0.0802878
0.07933092
0.07674854
20
20
20
20
20
0.08178044
0.08164647
0.08149424
0.08130453
0.08103419
0.08061273
0.07993072
0.0788682
0.07639851
20
20
20
20
20
0.08187428
0.08174548
0.08160615
0.08144708
0.08124591
0.08096132
0.08054396
0.0799487
0.07921244
0.07790404
20
20
20
20
20
0.08196408
0.08184237
0.08171531
0.08158093
0.08143021
0.08124579
0.08100349
0.08069613
0.08036244
0.08021408
0.3557233
20
20
20
20
20
0.08205014
0.08193695
0.08182129
0.08170475
0.08158594
0.08145952
0.0813186
0.08116106
0.0810182
0.08099435
0.3566295
0.355928
20
20
20
20
20
0.08213265
0.08202932
0.08192471
0.08182162
0.08172166
0.08162525
0.08153219
0.08144592
0.08138099
0.08139049
0.3569531
0.3567344
0.3561725
20
20
20
20
20
0.08221169
0.08211936
0.08202591
0.08193395
0.0818457
0.08176314
0.08168876
0.08162681
0.08158823
0.08159771
0.3571094
0.3570076
0.3568424
0.3564312
20
20
20
20
20
0.08228721
0.08220666
0.08212453
0.08204257
0.08196244
0.08188589
0.08181526
0.08175471
0.08171285
0.08170969
0.3571909
0.3571296
0.3570545
0.3569414
0.3566765
20
20
20
20
20
0.08235912
0.08229048
0.08221941
0.08214667
0.08207294
0.08199889
0.08192551
0.08185473
0.08179215
0.08175749
0.3572337
0.3571894
0.3571453
0.3570964
0.357029
0.6324807
20
20
20
20
20
20
20
20
20
20
20
20
20
20
20
0.3572505
0.3572251
0.3571984
0.3571723
0.3571464
0.6326224
0.6325353
20
20
20
20
20
20
20
20
20
20
20
20
20
20
20
0.3573281
0.3572962
0.3572673
0.3572427
0.3572237
0.6326789
0.632638
0.6325751
20
20
20
20
20
20
20
20
20
20
20
20
20
20
20
0.3574021
0.3573684
0.3573379
0.3573118
0.3572918
0.6327197
0.6326871
0.6326507
0.6326018
20
20
20
20
20
20
20
20
20
20
20
20
20
20
20
0.3574687
0.3574351
0.3574041
0.3573768
0.3573549
0.6327556
0.6327252
0.6326938
0.6326599
0.6326187
20
20
20
20
20
20
20
20
20
20
20
20
20
20
20
0.3575283
0.3574955
0.3574646
0.3574368
0.3574132
0.6327886
0.632759
0.6327291
0.6326984
0.6326658
0.724471
20
20
20
20
20
20
20
20
20
20
20
20
20
20
20
20
20
20
20
20
20
20
20
20
20
20
20
20
20
20
20
20
20
20
20
20
20
20
20
20
20
20
20
20
20
20
20
20
20
20
20
20
20
20
20
0.08169169
0.08157513
0.08144588
0.08129447
0.08110195
0.0808306
0.08041347
0.07904707
20
20
20
20
20
0.08178693
0.08166522
0.0815304
0.08137105
0.08116118
0.08085833
0.08039213
0.07966223
0.07756516
20
20
20
20
20
0.08187839
0.08175669
0.08162609
0.08147976
0.08130112
0.08105893
0.08071587
0.08023251
0.07961311
0.07828843
20
20
20
20
20
0.08196603
0.08184747
0.08172385
0.08159356
0.08144882
0.08127459
0.08104969
0.0807681
0.08046206
0.08031436
0.3557922
20
20
20
20
20
0.08205014
0.08193695
0.08182129
0.08170475
0.08158594
0.08145952
0.0813186
0.08116106
0.0810182
0.08099435
0.3566295
0.355928
20
20
20
20
20
0.08213095
0.08202502
0.08191794
0.08181279
0.08171124
0.08161354
0.08151905
0.08143085
0.081364
0.08137589
0.356943
0.3567102
0.3561214
20
20
20
20
20
0.08220859
0.08211151
0.08201374
0.08191851
0.08182852
0.08174601
0.08167347
0.08161484
0.08158081
0.08159679
0.3571089
0.3569956
0.3568076
0.356348
20
20
20
20
20
0.08228307
0.08219614
0.08210836
0.0820224
0.0819407
0.0818658
0.08180067
0.08174992
0.08172152
0.08173179
0.3572046
0.3571362
0.3570471
0.3569072
0.3565828
20
20
20
20
20
0.08235431
0.08227837
0.08220102
0.08212399
0.08204893
0.08197764
0.08191251
0.08185736
0.08181976
0.08181536
0.3572643
0.3572134
0.357159
0.3570941
0.3570001
0.6324264
20
20
20
20
20
0.08242218
0.08235741
0.08229038
0.08222186
0.08215248
0.08208294
0.08201417
0.081948
0.08188937
0.08185592
0.3573008
0.3572599
0.3572206
0.3571821
0.3571408
0.6326072
0.6324845
20
20
20
20
20
20
20
20
20
20
20
20
20
20
20
0.3573189
0.3572934
0.3572668
0.3572412
0.3572183
0.6326724
0.6326249
0.6325385
20
20
20
20
20
20
20
20
20
20
20
20
20
20
20
0.3573923
0.3573609
0.3573318
0.3573062
0.3572855
0.6327153
0.6326811
0.6326406
0.632578
20
20
20
20
20
20
20
20
20
20
20
20
20
20
20
0.3574621
0.3574293
0.3573988
0.3573719
0.3573499
0.6327525
0.6327217
0.6326894
0.6326532
0.6326046
20
20
20
20
20
20
20
20
20
20
20
20
20
20
20
0.3575251
0.3574925
0.3574618
0.3574341
0.3574106
0.632787
0.6327573
0.6327272
0.6326961
0.6326624
0.7244662
20
20
20
20
20
20
20
20
20
20
20
20
20
20
20
0.3575814
0.3575496
0.3575194
0.3574914
0.3574669
0.632819
0.6327902
0.6327608
0.6327311
0.6327006
0.7245012
0.7244728
20
20
20
20
20
20
20
20
20
20
20
20
20
20
20
20
20
20
20
20
20
20
20
20
20
20
20
20
20
20
20
20
20
20
20
20
20
20
20
20
20
20
20
20
20
20
20
20
20
20
20
20
20
20
20
20
20
20
20
20
0.081795
0.0816878
0.08157241
0.08144524
0.08129771
0.08111576
0.08087494
0.08053513
0.07934849
20
20
20
20
20
0.08188422
0.08177258
0.08165373
0.08152372
0.08137269
0.08118177
0.08092855
0.08058632
0.08013972
0.0789127
20
20
20
20
20
0.08196981
0.08185739
0.08174032
0.08161755
0.08148338
0.08132678
0.08113191
0.08089498
0.08063917
0.08049798
0.3559303
20
20
20
20
20
0.08205196
0.0819416
0.08182876
0.08171494
0.08159907
0.08147665
0.08134199
0.08119369
0.08106064
0.08103604
0.3566591
0.3559878
20
20
20
20
20
0.08213095
0.08202502
0.08191794
0.08181279
0.08171124
0.08161354
0.08151905
0.08143085
0.081364
0.08137589
0.356943
0.3567102
0.3561214
20
20
20
20
20
0.08220699
0.08210749
0.08200749
0.08191053
0.08181957
0.08173692
0.08166499
0.08160748
0.08157494
0.0815938
0.3571071
0.3569878
0.3567879
0.3563054
20
20
20
20
20
0.08228015
0.08218877
0.08209699
0.08200812
0.08192517
0.08185112
0.08178918
0.08174379
0.08172212
0.08173914
0.35721
0.3571367
0.3570376
0.3568789
0.3565159
20
20
20
20
20
0.08235041
0.08226847
0.08218585
0.08210513
0.08202879
0.08195942
0.08190017
0.08185525
0.08183144
0.0818397
0.3572799
0.3572254
0.3571641
0.357087
0.3569715
0.6323795
20
20
20
20
20
0.08241765
0.08234602
0.0822731
0.08220057
0.08213001
0.08206319
0.08200237
0.08195112
0.08191596
0.08191017
0.3573294
0.3572839
0.3572378
0.3571897
0.3571346
0.6325912
0.632431
20
20
20
20
20
0.08248173
0.0824206
0.08235735
0.08229274
0.0822274
0.08216197
0.08209736
0.08203523
0.08198011
0.08194773
0.3573633
0.3573245
0.3572878
0.3572527
0.3572193
0.6326671
0.6326096
0.6324883
20
20
20
20
20
20
20
20
20
20
20
20
20
20
20
0.3573832
0.3573577
0.3573309
0.357305
0.3572818
0.6327113
0.6326745
0.6326273
0.6325416
20
20
20
20
20
20
20
20
20
20
20
20
20
20
20
0.3574527
0.3574219
0.3573929
0.3573665
0.3573443
0.6327488
0.6327172
0.6326833
0.6326431
0.632581
20
20
20
20
20
20
20
20
20
20
20
20
20
20
20
0.3575187
0.3574868
0.3574567
0.3574293
0.3574059
0.6327842
0.6327543
0.6327237
0.6326916
0.6326557
0.7244556
20
20
20
20
20
20
20
20
20
20
20
20
20
20
20
0.3575783
0.3575467
0.3575167
0.3574889
0.3574644
0.6328175
0.6327886
0.6327591
0.6327292
0.6326983
0.7244987
0.724468
20
20
20
20
20
20
20
20
20
20
20
20
20
20
20
0.3576315
0.3576009
0.3575714
0.3575437
0.3575186
0.6328486
0.6328205
0.6327918
0.6327626
0.6327331
0.7245272
0.7245028
0.7244743
20
20
20
20
20
20
20
20
20
20
20
20
20
20
20
20
20
20
20
20
20
20
20
20
20
20
20
20
20
20
20
20
20
20
20
20
20
20
20
20
20
20
20
20
20
20
20
20
20
20
20
20
20
20
20
20
20
20
20
20
20
20
20
20
20
0.08189148
0.0817919
0.08168648
0.08157408
0.08145147
0.08131229
0.08114915
0.08095254
0.08071382
0.07990465
20
20
20
20
20
0.08197516
0.08187152
0.08176345
0.08165049
0.08152932
0.08139352
0.08123374
0.08104887
0.08085445
0.08073051
0.356137
20
20
20
20
20
0.08205547
0.08195065
0.08184322
0.08173448
0.08162382
0.08150812
0.08138368
0.08125045
0.08113319
0.08110704
0.3567116
0.3561068
20
20
20
20
20
0.08213265
0.08202932
0.08192471
0.08182162
0.08172166
0.08162525
0.08153219
0.08144592
0.08138099
0.08139049
0.3569531
0.3567344
0.3561725
20
20
20
20
20
0.08220699
0.08210749
0.08200749
0.08191053
0.08181957
0.08173692
0.08166499
0.08160748
0.08157494
0.0815938
0.3571071
0.3569878
0.3567879
0.3563054
20
20
20
20
20
0.08227864
0.082185
0.08209115
0.08200075
0.08191711
0.08184339
0.08178285
0.08173978
0.08172091
0.08174096
0.3572116
0.3571357
0.3570315
0.3568631
0.3564814
20
20
20
20
20
0.08234765
0.08226155
0.08217518
0.08209179
0.08201443
0.08194619
0.08189052
0.08185153
0.08183507
0.08184982
0.3572873
0.3572306
0.3571648
0.3570793
0.3569488
0.6323458
20
20
20
20
20
0.08241397
0.08233671
0.08225884
0.08218286
0.08211117
0.08204629
0.08199122
0.08194993
0.08192803
0.081934
0.3573448
0.3572973
0.3572473
0.3571928
0.3571272
0.6325763
0.6323848
20
20
20
20
20
0.08247745
0.08240988
0.08234111
0.08227273
0.08220629
0.08214344
0.08208632
0.08203817
0.08200484
0.08199766
0.3573896
0.3573469
0.3573051
0.3572634
0.3572212
0.6326624
0.6325937
0.6324356
20
20
20
20
20
0.08253794
0.08248026
0.08242059
0.08235965
0.08229805
0.08223643
0.08217562
0.08211719
0.08206523
0.08203401
0.3574223
0.3573851
0.3573497
0.3573162
0.357285
0.6327096
0.6326691
0.6326121
0.6324921
20
20
20
20
20
20
20
20
20
20
20
20
20
20
20
0.3574436
0.3574183
0.3573915
0.3573652
0.3573412
0.6327458
0.6327132
0.6326766
0.6326298
0.6325449
20
20
20
20
20
20
20
20
20
20
20
20
20
20
20
0.3575096
0.3574796
0.3574508
0.3574241
0.3574006
0.6327808
0.6327505
0.6327192
0.6326855
0.6326456
0.724438
20
20
20
20
20
20
20
20
20
20
20
20
20
20
20
0.3575721
0.3575412
0.3575117
0.3574842
0.3574599
0.6328149
0.6327858
0.632756
0.6327257
0.6326939
0.7244937
0.7244575
20
20
20
20
20
20
20
20
20
20
20
20
20
20
20
0.3576285
0.3575981
0.3575688
0.3575412
0.3575162
0.6328472
0.632819
0.6327902
0.6327609
0.6327312
0.7245254
0.7245004
0.7244694
20
20
20
20
20
20
20
20
20
20
20
20
20
20
20
0.3576789
0.3576495
0.3576209
0.3575936
0.3575684
0.6328772
0.6328499
0.6328219
0.6327933
0.6327644
0.7245513
0.7245286
0.7245041
0.7244753
20
20
20
20
20
20
20
20
20
20
20
20
20
20
20
20
20
20
20
20
20
20
20
20
20
20
20
20
20
20
20
20
20
20
20
20
20
20
20
20
20
20
20
20
20
20
20
20
20
20
20
20
20
20
20
20
20
20
20
20
20
20
20
20
20
20
20
20
20
20
0.08198184
0.08188881
0.0817912
0.08168905
0.08158127
0.08146575
0.08133936
0.08120248
0.08106291
0.08095617
0.3564025
20
20
20
20
20
0.08206045
0.08196357
0.08186368
0.08176171
0.08165745
0.08154925
0.08143542
0.08131723
0.0812142
0.08118236
0.3567732
0.356281
20
20
20
20
20
0.08213594
0.08203771
0.08193786
0.08183866
0.08174151
0.08164706
0.08155572
0.08147146
0.08140809
0.08141198
0.3569688
0.3567773
0.3562731
20
20
20
20
20
0.08220859
0.08211151
0.08201374
0.08191851
0.08182852
0.08174601
0.08167347
0.08161484
0.08158081
0.08159679
0.3571089
0.3569956
0.3568076
0.356348
20
20
20
20
20
0.08227864
0.082185
0.08209115
0.08200075
0.08191711
0.08184339
0.08178285
0.08173978
0.08172091
0.08174096
0.3572116
0.3571357
0.3570315
0.3568631
0.3564814
20
20
20
20
20
0.08234622
0.08225799
0.0821697
0.08208492
0.08200699
0.08193925
0.08188524
0.08184894
0.0818357
0.08185341
0.3572903
0.3572324
0.3571642
0.3570744
0.3569362
0.6323284
20
20
20
20
20
0.08241136
0.08233018
0.08224881
0.08217034
0.08209775
0.08203405
0.08198256
0.08194717
0.08193252
0.08194464
0.3573526
0.3573041
0.3572518
0.3571931
0.3571206
0.6325648
0.6323517
20
20
20
20
20
0.08247398
0.08240111
0.08232769
0.08225609
0.08218859
0.0821276
0.08207594
0.08203719
0.08201631
0.08201999
0.357404
0.3573601
0.3573158
0.3572701
0.3572219
0.632658
0.6325789
0.6323901
20
20
20
20
20
0.08253392
0.08247018
0.08240531
0.08234083
0.0822782
0.08221898
0.08216519
0.08211977
0.08208795
0.08207975
0.3574461
0.3574055
0.3573659
0.3573274
0.3572897
0.6327091
0.6326642
0.6325961
0.6324402
20
20
20
20
20
0.08259101
0.0825366
0.0824803
0.08242282
0.08236474
0.08230667
0.0822494
0.08219438
0.08214537
0.08211537
0.3574782
0.3574424
0.3574081
0.3573753
0.3573447
0.6327454
0.6327113
0.632671
0.6326145
0.632496
20
20
20
20
20
20
20
20
20
20
20
20
20
20
20
0.3575006
0.3574757
0.357449
0.3574224
0.3573976
0.6327783
0.6327475
0.632715
0.6326788
0.6326323
0.7244111
20
20
20
20
20
20
20
20
20
20
20
20
20
20
20
0.3575633
0.3575342
0.3575059
0.3574791
0.3574547
0.6328117
0.6327824
0.6327523
0.6327212
0.6326877
0.7244861
0.7244399
20
20
20
20
20
20
20
20
20
20
20
20
20
20
20
0.3576226
0.3575928
0.357564
0.3575367
0.3575119
0.6328446
0.6328163
0.6327874
0.6327578
0.6327277
0.7245221
0.7244953
0.7244589
20
20
20
20
20
20
20
20
20
20
20
20
20
20
20
0.357676
0.3576468
0.3576184
0.3575912
0.3575661
0.6328759
0.6328485
0.6328204
0.6327918
0.6327627
0.7245499
0.7245269
0.7245016
0.7244704
20
20
20
20
20
20
20
20
20
20
20
20
20
20
20
0.3577237
0.3576956
0.3576679
0.3576413
0.3576162
0.6329048
0.6328784
0.6328512
0.6328233
0.6327949
0.7245746
0.7245526
0.7245297
0.724505
0.7244759
20
20
20
20
20
20
20
20
20
20
20
20
20
20
20
20
20
20
20
20
20
20
20
20
20
20
20
20
20
20
20
20
20
20
20
20
20
20
20
20
20
20
20
20
20
20
20
20
20
20
20
20
20
20
20
20
20
20
20
20
20
20
20
20
20
20
20
20
20
0.356654
20
20
20
20
20
0.08206666
0.08197942
0.08188838
0.08179403
0.08169636
0.08159482
0.08148901
0.08138001
0.08127839
0.08122005
0.3568201
0.3564949
20
20
20
20
20
0.08214061
0.0820497
0.08195652
0.08186259
0.08176892
0.08167615
0.08158508
0.08149967
0.08143258
0.08142392
0.3569806
0.3568272
0.3564176
20
20
20
20
20
0.08221169
0.08211936
0.08202591
0.08193395
0.0818457
0.08176314
0.08168876
0.08162681
0.08158823
0.08159771
0.3571094
0.3570076
0.3568424
0.3564312
20
20
20
20
20
0.08228015
0.08218877
0.08209699
0.08200812
0.08192517
0.08185112
0.08178918
0.08174379
0.08172212
0.08173914
0.35721
0.3571367
0.3570376
0.3568789
0.3565159
20
20
20
20
20
0.08234622
0.08225799
0.0821697
0.08208492
0.08200699
0.08193925
0.08188524
0.08184894
0.0818357
0.08185341
0.3572903
0.3572324
0.3571642
0.3570744
0.3569362
0.6323284
20
20
20
20
20
0.08241001
0.08232683
0.08224365
0.08216389
0.0820908
0.08202763
0.08197784
0.08194517
0.08193378
0.08194871
0.3573559
0.3573069
0.3572535
0.3571927
0.3571167
0.6325585
0.6323345
20
20
20
20
20
0.08247151
0.08239496
0.08231824
0.08224431
0.08217598
0.08211613
0.0820679
0.08203478
0.0820208
0.08203021
0.3574115
0.3573672
0.3573216
0.3572735
0.3572216
0.6326545
0.6325675
0.6323575
20
20
20
20
20
0.08253064
0.08246193