/*--------------------------------*- C++ -*----------------------------------*\
| =========                 |                                                 |
| \\      /  F ield         | OpenFOAM: The Open Source CFD Toolbox           |
|  \\    /   O peration     | Version:  2306                                  |
|   \\  /    A nd           | Website:  www.openfoam.com                      |
|    \\/     M anipulation  |                                                 |
\*---------------------------------------------------------------------------*/
FoamFile
{
    version     2.0;
    format      ascii;
    arch        "LSB;label=32;scalar=64";
    class       volScalarField;
    location    "1.2";
    object      rhoCp;
}
// * * * * * * * * * * * * * * * * * * * * * * * * * * * * * * * * * * * * * //

dimensions      [1 -1 -2 -1 0 0 0];

internalField   nonuniform List<scalar> 
52000
(
5346000
5346000
5346000
5346000
5346000
5346000
5346000
5346000
5346000
5346000
5346000
5346000
5346000
5346000
5346000
5346000
5346000
5346000
5346000
5346000
5346000
5346000
5346000
5346000
5346000
5346000
5346000
5346000
5346000
5346000
5346000
5346000
5346000
5346000
5346000
5346000
5346000
5346000
5346000
5346000
5346000
5346000
5346000
5346000
5346000
5346000
5346000
5346000
5346000
5346000
5346000
5346000
5346000
5346000
5346000
5346000
5346000
5346000
5346000
5346000
5346000
5346000
5346000
5346000
5346000
5346000
5346000
5346000
5346000
5346000
5346000
5346000
5346000
5346000
5346000
5346000
5346000
5346000
5346000
5346000
5346000
5346000
5346000
5346000
5346000
5346000
5346000
5346000
5346000
5346000
5346000
5346000
5346000
5346000
5346000
5346000
5346000
5346000
5346000
5346000
5346000
5346000
5346000
5346000
5346000
5346000
5346000
5346000
5346000
5346000
5346000
5346000
5346000
5346000
5346000
5346000
5346000
5346000
5346000
5346000
5346000
5346000
5346000
5346000
5346000
5346000
5346000
5346000
5346000
5346000
5346000
5346000
5346000
5346000
5346000
5346000
5346000
5346000
5346000
5346000
5346000
5346000
5346000
5346000
5346000
5346000
5346000
5346000
5346000
5346000
5346000
5346000
5346000
5346000
5346000
5346000
5346000
5346000
5346000
5346000
5346000
5346000
5346000
5346000
5346000
5346000
5346000
5346000
5346000
5346000
5346000
5346000
5346000
5346000
5346000
5346000
5346000
5346000
5346000
5346000
5346000
5346000
5346000
5346000
5346000
5346000
5346000
5346000
5346000
5346000
5346000
5346000
5346000
5346000
5346000
5346000
5346000
5346000
5346000
5346000
5346000
5346000
5346000
5346000
5346000
5346000
5346000
5346000
5346000
5346000
5346000
5346000
5346000
5346000
5346000
5346000
5346000
5346000
5346000
5346000
5346000
5346000
5346000
5346000
5346000
5346000
5346000
5346000
5346000
5346000
5346000
5346000
5346000
5346000
5346000
5346000
5346000
5346000
5346000
5346000
369.3443
5346000
5346000
5346000
5346000
5346000
5346000
5346000
5346000
5346000
5346000
5346000
5346000
5346000
5346000
5346000
5346000
5346000
5346000
5346000
5346000
5346000
5346000
5346000
5346000
5346000
5346000
5346000
5346000
5346000
5346000
5346000
5346000
5346000
5346000
5346000
5346000
5346000
5346000
5346000
5346000
5346000
5346000
5346000
5346000
5346000
5346000
5346000
5346000
5346000
5346000
5346000
5346000
5346000
5346000
5346000
5346000
5346000
5346000
5346000
5346000
5346000
5346000
5346000
5346000
5346000
372.5601
5346000
5346000
5346000
5346000
5346000
365.6077
372.6126
5346000
5346000
5346000
5346000
5346000
5346000
5346000
5346000
5346000
5346000
5346000
5346000
5346000
5346000
5346000
5346000
5346000
5346000
5346000
5346000
5346000
5346000
5346000
5346000
5346000
5346000
5346000
5346000
5346000
5346000
5346000
5346000
5346000
5346000
5346000
5346000
5346000
5346000
5346000
5346000
5346000
5346000
5346000
5346000
5346000
5346000
5346000
5346000
5346000
5346000
5346000
5346000
5346000
5346000
5346000
5346000
5346000
5346000
5346000
5346000
5346000
5346000
5346000
5346000
5346000
5346000
5346000
5346000
5346000
5346000
374.3281
5346000
5346000
5346000
5346000
5346000
366.4726
380.6139
5346000
5346000
5346000
5346000
5346000
364.6733
366.4815
374.4265
5346000
5346000
5346000
5346000
5346000
5346000
5346000
5346000
5346000
5346000
5346000
5346000
5346000
5346000
5346000
5346000
5346000
5346000
5346000
5346000
5346000
5346000
5346000
5346000
5346000
5346000
5346000
5346000
5346000
5346000
5346000
5346000
5346000
5346000
5346000
5346000
5346000
5346000
5346000
5346000
5346000
5346000
5346000
5346000
5346000
5346000
5346000
5346000
5346000
5346000
5346000
5346000
5346000
5346000
5346000
5346000
5346000
5346000
5346000
5346000
5346000
5346000
5346000
5346000
5346000
5346000
5346000
5346000
5346000
5346000
5346000
5346000
5346000
5346000
5346000
375.3242
5346000
5346000
5346000
5346000
5346000
367.2211
385.7043
5346000
5346000
5346000
5346000
5346000
365.0626
369.0558
385.7833
5346000
5346000
5346000
5346000
5346000
363.8813
365.046
367.2387
375.4775
5346000
5346000
5346000
5346000
5346000
5346000
5346000
5346000
5346000
5346000
5346000
5346000
5346000
5346000
5346000
5346000
5346000
5346000
5346000
5346000
5346000
5346000
5346000
5346000
5346000
5346000
5346000
5346000
5346000
5346000
5346000
5346000
5346000
5346000
5346000
5346000
5346000
5346000
5346000
5346000
5346000
5346000
5346000
5346000
5346000
5346000
5346000
5346000
5346000
5346000
5346000
5346000
5346000
5346000
5346000
5346000
5346000
5346000
5346000
5346000
5346000
5346000
5346000
5346000
5346000
5346000
5346000
5346000
5346000
5346000
5346000
5346000
5346000
5346000
5346000
5346000
5346000
5346000
5346000
5346000
375.7858
5346000
5346000
5346000
5346000
5346000
367.772
388.7893
5346000
5346000
5346000
5346000
5346000
365.4135
371.3352
393.6935
5346000
5346000
5346000
5346000
5346000
364.0808
366.1943
371.3658
389.004
5346000
5346000
5346000
5346000
5346000
363.1821
364.0545
365.3795
367.8025
376.0096
5346000
5346000
5346000
5346000
5346000
5346000
5346000
5346000
5346000
5346000
5346000
5346000
5346000
5346000
5346000
5346000
5346000
5346000
5346000
5346000
5346000
5346000
5346000
5346000
5346000
5346000
5346000
5346000
5346000
5346000
5346000
5346000
5346000
5346000
5346000
5346000
5346000
5346000
5346000
5346000
5346000
5346000
5346000
5346000
5346000
5346000
5346000
5346000
5346000
5346000
5346000
5346000
5346000
5346000
5346000
5346000
5346000
5346000
5346000
5346000
5346000
5346000
5346000
5346000
5346000
5346000
5346000
5346000
5346000
5346000
5346000
5346000
5346000
5346000
5346000
5346000
5346000
5346000
5346000
5346000
5346000
5346000
5346000
5346000
5346000
375.7858
5346000
5346000
5346000
5346000
5346000
368.0636
390.2591
5346000
5346000
5346000
5346000
5346000
365.6826
373.0394
398.7788
5346000
5346000
5346000
5346000
5346000
364.2578
367.2495
375.1169
398.9752
5346000
5346000
5346000
5346000
5346000
363.2974
364.6251
367.2367
373.1304
390.6923
5346000
5346000
5346000
5346000
5346000
362.5423
363.2689
364.2046
365.6291
368.1107
376.1037
5346000
5346000
5346000
5346000
5346000
5346000
5346000
5346000
5346000
5346000
5346000
5346000
5346000
5346000
5346000
5346000
5346000
5346000
5346000
5346000
5346000
5346000
5346000
5346000
5346000
5346000
5346000
5346000
5346000
5346000
5346000
5346000
5346000
5346000
5346000
5346000
5346000
5346000
5346000
5346000
5346000
5346000
5346000
5346000
5346000
5346000
5346000
5346000
5346000
5346000
5346000
5346000
5346000
5346000
5346000
5346000
5346000
5346000
5346000
5346000
5346000
5346000
5346000
5346000
5346000
5346000
5346000
5346000
5346000
364.7301
5346000
5346000
5346000
5346000
5346000
5346000
5346000
5346000
5346000
5346000
5346000
5346000
5346000
5346000
5346000
5346000
5346000
5346000
5346000
5346000
375.3242
5346000
5346000
5346000
5346000
5346000
368.0636
390.2591
5346000
5346000
5346000
5346000
5346000
365.829
373.9498
401.2818
5346000
5346000
5346000
5346000
5346000
364.3928
368.0691
377.9755
405.6153
5346000
5346000
5346000
5346000
5346000
363.3967
365.1437
368.9777
378.069
401.8381
5346000
5346000
5346000
5346000
5346000
362.6172
363.5855
365.1146
368.049
374.1331
391.0027
5346000
5346000
5346000
5346000
5346000
361.9569
362.5894
363.3388
364.3076
365.7512
368.1244
375.7628
5346000
5346000
5346000
5346000
5346000
5346000
5346000
5346000
5346000
5346000
5346000
5346000
5346000
5346000
5346000
5346000
5346000
5346000
5346000
5346000
5346000
5346000
5346000
5346000
5346000
5346000
5346000
5346000
5346000
5346000
5346000
5346000
5346000
5346000
5346000
5346000
5346000
5346000
5346000
5346000
5346000
5346000
5346000
5346000
5346000
5346000
5346000
5346000
5346000
5346000
5346000
5346000
5346000
5346000
5346000
5346000
5346000
364.7795
5346000
5346000
5346000
5346000
5346000
5346000
5346000
5346000
5346000
5346000
5346000
5346000
5346000
5346000
5346000
364.0123
364.2705
5346000
5346000
5346000
5346000
5346000
5346000
5346000
5346000
5346000
5346000
5346000
5346000
5346000
5346000
5346000
5346000
5346000
5346000
5346000
5346000
374.3281
5346000
5346000
5346000
5346000
5346000
367.772
388.7893
5346000
5346000
5346000
5346000
5346000
365.829
373.9498
401.2818
5346000
5346000
5346000
5346000
5346000
364.4663
368.5184
379.5217
408.9294
5346000
5346000
5346000
5346000
5346000
363.471
365.545
370.35
381.8941
409.3781
5346000
5346000
5346000
5346000
5346000
362.6797
363.8664
365.9584
370.3522
379.7804
402.3799
5346000
5346000
5346000
5346000
5346000
362.0121
362.7862
363.8321
365.4801
368.4917
374.2405
389.9367
5346000
5346000
5346000
5346000
5346000
361.4146
361.9861
362.6231
363.3776
364.3408
365.7161
367.8298
374.9175
5346000
5346000
5346000
5346000
5346000
5346000
5346000
5346000
5346000
5346000
5346000
5346000
5346000
5346000
5346000
5346000
5346000
5346000
5346000
5346000
5346000
5346000
5346000
5346000
5346000
5346000
5346000
5346000
5346000
5346000
5346000
5346000
5346000
5346000
5346000
5346000
5346000
5346000
5346000
5346000
5346000
5346000
5346000
5346000
364.882
5346000
5346000
5346000
5346000
5346000
5346000
5346000
5346000
5346000
5346000
5346000
5346000
5346000
5346000
5346000
364.0433
364.3278
5346000
5346000
5346000
5346000
5346000
5346000
5346000
5346000
5346000
5346000
5346000
5346000
5346000
5346000
5346000
363.3358
363.5893
363.8051
5346000
5346000
5346000
5346000
5346000
5346000
5346000
5346000
5346000
5346000
5346000
5346000
5346000
5346000
5346000
5346000
5346000
5346000
5346000
5346000
372.5601
5346000
5346000
5346000
5346000
5346000
367.2211
385.7043
5346000
5346000
5346000
5346000
5346000
365.6826
373.0394
398.7788
5346000
5346000
5346000
5346000
5346000
364.4663
368.5184
379.5217
408.9294
5346000
5346000
5346000
5346000
5346000
363.5109
365.7652
371.1091
383.9846
413.1924
5346000
5346000
5346000
5346000
5346000
362.7254
364.0796
366.6213
372.1904
384.1979
410.1071
5346000
5346000
5346000
5346000
5346000
362.0568
362.9561
364.2788
366.5844
371.125
379.9924
400.588
5346000
5346000
5346000
5346000
5346000
361.4594
362.1257
362.9216
363.9999
365.6516
368.47
373.4139
387.3511
5346000
5346000
5346000
5346000
5346000
360.9116
361.4355
362.0037
362.6337
363.3731
364.2878
365.5133
367.236
373.3589
5346000
5346000
5346000
5346000
5346000
5346000
5346000
5346000
5346000
5346000
5346000
5346000
5346000
5346000
5346000
5346000
5346000
5346000
5346000
5346000
5346000
5346000
5346000
5346000
5346000
5346000
5346000
5346000
5346000
5346000
365.0574
5346000
5346000
5346000
5346000
5346000
5346000
5346000
5346000
5346000
5346000
5346000
5346000
5346000
5346000
5346000
364.1045
364.452
5346000
5346000
5346000
5346000
5346000
5346000
5346000
5346000
5346000
5346000
5346000
5346000
5346000
5346000
5346000
363.3612
363.62
363.8686
5346000
5346000
5346000
5346000
5346000
5346000
5346000
5346000
5346000
5346000
5346000
5346000
5346000
5346000
5346000
362.6968
362.9616
363.1633
363.3299
5346000
5346000
5346000
5346000
5346000
5346000
5346000
5346000
5346000
5346000
5346000
5346000
5346000
5346000
5346000
5346000
5346000
5346000
5346000
5346000
369.3443
5346000
5346000
5346000
5346000
5346000
366.4726
380.6139
5346000
5346000
5346000
5346000
5346000
365.4135
371.3352
393.6935
5346000
5346000
5346000
5346000
5346000
364.3928
368.0691
377.9755
405.6153
5346000
5346000
5346000
5346000
5346000
363.5109
365.7652
371.1091
383.9846
413.1924
5346000
5346000
5346000
5346000
5346000
362.7496
364.1952
366.9884
373.2153
386.6279
414.029
5346000
5346000
5346000
5346000
5346000
362.0888
363.082
364.6231
367.4631
373.2432
384.5025
407.7633
5346000
5346000
5346000
5346000
5346000
361.4949
362.2429
363.1847
364.5724
366.8995
371.1269
378.6393
396.3246
5346000
5346000
5346000
5346000
5346000
360.9502
361.5457
362.2102
363.0008
364.053
365.5791
367.9574
371.7122
382.8719
5346000
5346000
5346000
5346000
5346000
360.4423
360.9284
361.4459
362.0026
362.614
363.3161
364.1413
365.1487
366.3627
370.5097
5346000
5346000
5346000
5346000
5346000
5346000
5346000
5346000
5346000
5346000
5346000
5346000
5346000
5346000
5346000
365.407
5346000
5346000
5346000
5346000
5346000
5346000
5346000
5346000
5346000
5346000
5346000
5346000
5346000
5346000
5346000
364.196
364.6815
5346000
5346000
5346000
5346000
5346000
5346000
5346000
5346000
5346000
5346000
5346000
5346000
5346000
5346000
5346000
363.4105
363.6802
364.0088
5346000
5346000
5346000
5346000
5346000
5346000
5346000
5346000
5346000
5346000
5346000
5346000
5346000
5346000
5346000
362.7192
362.9846
363.1938
363.3976
5346000
5346000
5346000
5346000
5346000
5346000
5346000
5346000
5346000
5346000
5346000
5346000
5346000
5346000
5346000
362.1091
362.3687
362.5854
362.7317
362.8527
5346000
5346000
5346000
5346000
5346000
5346000
5346000
5346000
5346000
5346000
5346000
5346000
5346000
5346000
5346000
5346000
5346000
5346000
5346000
5346000
5346000
5346000
5346000
5346000
5346000
365.6077
372.6126
5346000
5346000
5346000
5346000
5346000
365.0626
369.0558
385.7833
5346000
5346000
5346000
5346000
5346000
364.2578
367.2495
375.1169
398.9752
5346000
5346000
5346000
5346000
5346000
363.471
365.545
370.35
381.8941
409.3781
5346000
5346000
5346000
5346000
5346000
362.7496
364.1952
366.9884
373.2153
386.6279
414.029
5346000
5346000
5346000
5346000
5346000
362.1056
363.1493
364.8115
367.9534
374.4299
386.9874
411.3796
5346000
5346000
5346000
5346000
5346000
361.52
362.3278
363.3827
365.0195
367.9011
373.2706
382.7175
402.2535
5346000
5346000
5346000
5346000
5346000
360.9807
361.6365
362.3872
363.3294
364.6863
366.8172
370.3175
375.8624
389.3176
5346000
5346000
5346000
5346000
5346000
360.4769
361.0223
361.6061
362.2502
363.0036
363.9654
365.2457
366.9947
369.2794
375.6722
5346000
5346000
5346000
5346000
5346000
360.0036
360.4569
360.9356
361.4401
361.9777
362.5582
363.2012
363.9002
364.6266
365.1827
367.1472
5346000
5346000
5346000
5346000
5346000
5346000
5346000
5346000
5346000
5346000
5346000
5346000
5346000
5346000
5346000
364.296
365.1556
5346000
5346000
5346000
5346000
5346000
5346000
5346000
5346000
5346000
5346000
5346000
5346000
5346000
5346000
5346000
363.4806
363.7673
364.2697
5346000
5346000
5346000
5346000
5346000
5346000
5346000
5346000
5346000
5346000
5346000
5346000
5346000
5346000
5346000
362.7625
363.0272
363.2537
363.5471
5346000
5346000
5346000
5346000
5346000
5346000
5346000
5346000
5346000
5346000
5346000
5346000
5346000
5346000
5346000
362.1298
362.3881
362.6064
362.7622
362.9224
5346000
5346000
5346000
5346000
5346000
5346000
5346000
5346000
5346000
5346000
5346000
5346000
5346000
5346000
5346000
361.5577
361.8213
362.0389
362.205
362.3021
362.5724
5346000
5346000
5346000
5346000
5346000
5346000
5346000
5346000
5346000
5346000
5346000
5346000
5346000
5346000
5346000
5346000
5346000
5346000
5346000
5346000
5346000
5346000
5346000
5346000
5346000
5346000
5346000
5346000
5346000
5346000
364.6733
366.4815
374.4265
5346000
5346000
5346000
5346000
5346000
364.0808
366.1943
371.3658
389.004
5346000
5346000
5346000
5346000
5346000
363.3967
365.1437
368.9777
378.069
401.8381
5346000
5346000
5346000
5346000
5346000
362.7254
364.0796
366.6213
372.1904
384.1979
410.1071
5346000
5346000
5346000
5346000
5346000
362.1056
363.1493
364.8115
367.9534
374.4299
386.9874
411.3796
5346000
5346000
5346000
5346000
5346000
361.533
362.3724
363.4895
365.2661
368.463
374.4736
384.9571
405.2035
5346000
5346000
5346000
5346000
5346000
361.002
361.701
362.5171
363.58
365.1859
367.8163
372.2213
379.0715
393.4177
5346000
5346000
5346000
5346000
5346000
360.5041
361.0988
361.7405
362.4656
363.357
364.5772
366.3144
368.7915
371.9877
378.9813
5346000
5346000
5346000
5346000
5346000
360.0353
360.5406
361.0707
361.6287
362.2329
362.9148
363.7253
364.6657
365.6685
366.3069
369.0445
5346000
5346000
5346000
5346000
5346000
359.5923
360.0169
360.4626
360.9282
361.4142
361.925
362.4619
363.0234
363.5522
363.8804
364.1607
366.4982
5346000
5346000
5346000
5346000
5346000
5346000
5346000
5346000
5346000
5346000
5346000
5346000
5346000
5346000
5346000
363.5297
363.8548
364.7726
5346000
5346000
5346000
5346000
5346000
5346000
5346000
5346000
5346000
5346000
5346000
5346000
5346000
5346000
5346000
362.8227
363.0795
363.34
363.8196
5346000
5346000
5346000
5346000
5346000
5346000
5346000
5346000
5346000
5346000
5346000
5346000
5346000
5346000
5346000
362.1696
362.4232
362.6442
362.8223
363.075
5346000
5346000
5346000
5346000
5346000
5346000
5346000
5346000
5346000
5346000
5346000
5346000
5346000
5346000
5346000
361.577
361.8388
362.0558
362.2246
362.3326
362.6417
5346000
5346000
5346000
5346000
5346000
5346000
5346000
5346000
5346000
5346000
5346000
5346000
5346000
5346000
5346000
361.0446
361.3041
361.5317
361.7054
361.8276
362.0516
362.5373
5346000
5346000
5346000
5346000
5346000
5346000
5346000
5346000
5346000
5346000
5346000
5346000
5346000
5346000
5346000
5346000
5346000
5346000
5346000
5346000
5346000
5346000
5346000
5346000
5346000
5346000
5346000
5346000
5346000
5346000
5346000
5346000
5346000
5346000
5346000
363.8813
365.046
367.2387
375.4775
5346000
5346000
5346000
5346000
5346000
363.2974
364.6251
367.2367
373.1304
390.6923
5346000
5346000
5346000
5346000
5346000
362.6797
363.8664
365.9584
370.3522
379.7804
402.3799
5346000
5346000
5346000
5346000
5346000
362.0888
363.082
364.6231
367.4631
373.2432
384.5025
407.7633
5346000
5346000
5346000
5346000
5346000
361.533
362.3724
363.4895
365.2661
368.463
374.4736
384.9571
405.2035
5346000
5346000
5346000
5346000
5346000
361.0129
361.7345
362.5859
363.7163
365.4633
368.3786
373.2887
380.8224
395.4307
5346000
5346000
5346000
5346000
5346000
360.523
361.1525
361.8371
362.6256
363.6297
365.0642
367.1818
370.2434
374.0709
381.0434
5346000
5346000
5346000
5346000
5346000
360.0602
360.6083
361.1826
361.7889
362.4578
363.2436
364.2305
365.4341
366.7487
367.4731
370.5428
5346000
5346000
5346000
5346000
5346000
359.6216
360.0934
360.5824
361.0856
361.6042
362.1483
362.7252
363.3324
363.8667
364.0561
364.4618
368.0107
5346000
5346000
5346000
5346000
5346000
359.206
359.6046
360.0218
360.4549
360.903
361.365
361.8408
362.3188
362.7634
363.012
363.0867
363.849
365.8356
5346000
5346000
5346000
5346000
5346000
5346000
5346000
5346000
5346000
5346000
5346000
5346000
5346000
5346000
5346000
362.8546
363.0862
363.432
364.3035
5346000
5346000
5346000
5346000
5346000
5346000
5346000
5346000
5346000
5346000
5346000
5346000
5346000
5346000
5346000
362.2245
362.4621
362.687
362.9104
363.3451
5346000
5346000
5346000
5346000
5346000
5346000
5346000
5346000
5346000
5346000
5346000
5346000
5346000
5346000
5346000
361.6142
361.8701
362.0848
362.2598
362.3934
362.7929
5346000
5346000
5346000
5346000
5346000
5346000
5346000
5346000
5346000
5346000
5346000
5346000
5346000
5346000
5346000
361.0629
361.3203
361.5466
361.7205
361.8465
362.0819
362.6065
5346000
5346000
5346000
5346000
5346000
5346000
5346000
5346000
5346000
5346000
5346000
5346000
5346000
5346000
5346000
360.5634
360.8199
361.0488
361.2388
361.3752
361.6073
362.0202
362.5028
5346000
5346000
5346000
5346000
5346000
5346000
5346000
5346000
5346000
5346000
5346000
5346000
5346000
5346000
5346000
5346000
5346000
5346000
5346000
5346000
5346000
5346000
5346000
5346000
5346000
5346000
5346000
5346000
5346000
5346000
5346000
5346000
5346000
5346000
5346000
5346000
5346000
5346000
5346000
5346000
363.1821
364.0545
365.3795
367.8025
376.0096
5346000
5346000
5346000
5346000
5346000
362.6172
363.5855
365.1146
368.049
374.1331
391.0027
5346000
5346000
5346000
5346000
5346000
362.0568
362.9561
364.2788
366.5844
371.125
379.9924
400.588
5346000
5346000
5346000
5346000
5346000
361.52
362.3278
363.3827
365.0195
367.9011
373.2706
382.7175
402.2535
5346000
5346000
5346000
5346000
5346000
361.0129
361.7345
362.5859
363.7163
365.4633
368.3786
373.2887
380.8224
395.4307
5346000
5346000
5346000
5346000
5346000
360.5327
361.1801
361.8876
362.711
363.7791
365.3361
367.6713
371.057
375.2017
382.0464
5346000
5346000
5346000
5346000
5346000
360.0775
360.6556
361.2619
361.9053
362.6267
363.5008
364.6391
366.0695
367.6417
368.3997
371.5516
5346000
5346000
5346000
5346000
5346000
359.6447
360.1551
360.6809
361.2173
361.7676
362.3489
362.9786
363.6606
364.2647
364.4213
364.8837
369.2624
5346000
5346000
5346000
5346000
5346000
359.2334
359.6754
360.1311
360.5938
361.0596
361.5254
361.9888
362.4289
362.7857
362.8536
363.0008
364.091
367.0383
5346000
5346000
5346000
5346000
5346000
358.8425
359.2175
359.6091
360.0143
360.4309
360.8573
361.2894
361.7184
362.108
362.3341
362.3486
362.8328
363.4999
365.1525
5346000
5346000
5346000
5346000
5346000
5346000
5346000
5346000
5346000
5346000
5346000
5346000
5346000
5346000
5346000
362.2511
362.4443
362.6882
363.0129
363.7882
5346000
5346000
5346000
5346000
5346000
5346000
5346000
5346000
5346000
5346000
5346000
5346000
5346000
5346000
5346000
361.6657
361.9036
362.1118
362.3001
362.4851
363.0561
5346000
5346000
5346000
5346000
5346000
5346000
5346000
5346000
5346000
5346000
5346000
5346000
5346000
5346000
5346000
361.0982
361.3494
361.5717
361.7459
361.8809
362.1428
362.7574
5346000
5346000
5346000
5346000
5346000
5346000
5346000
5346000
5346000
5346000
5346000
5346000
5346000
5346000
5346000
360.5809
360.8353
361.0625
361.2519
361.3893
361.6258
362.0504
362.5719
5346000
5346000
5346000
5346000
5346000
5346000
5346000
5346000
5346000
5346000
5346000
5346000
5346000
5346000
5346000
360.1129
360.3631
360.5935
360.7903
360.9491
361.1814
361.5794
361.9893
362.4676
5346000
5346000
5346000
5346000
5346000
5346000
5346000
5346000
5346000
5346000
5346000
5346000
5346000
5346000
5346000
5346000
5346000
5346000
5346000
5346000
5346000
5346000
5346000
5346000
5346000
5346000
5346000
5346000
5346000
5346000
5346000
5346000
5346000
5346000
5346000
5346000
5346000
5346000
5346000
5346000
5346000
5346000
5346000
5346000
5346000
362.5423
363.2689
364.2046
365.6291
368.1107
376.1037
5346000
5346000
5346000
5346000
5346000
362.0121
362.7862
363.8321
365.4801
368.4917
374.2405
389.9367
5346000
5346000
5346000
5346000
5346000
361.4949
362.2429
363.1847
364.5724
366.8995
371.1269
378.6393
396.3246
5346000
5346000
5346000
5346000
5346000
361.002
361.701
362.5171
363.58
365.1859
367.8163
372.2213
379.0715
393.4177
5346000
5346000
5346000
5346000
5346000
360.5327
361.1801
361.8876
362.711
363.7791
365.3361
367.6713
371.057
375.2017
382.0464
5346000
5346000
5346000
5346000
5346000
360.0863
360.6798
361.303
361.9666
362.7177
363.6429
364.869
366.4308
368.1458
368.9077
372.0569
5346000
5346000
5346000
5346000
5346000
359.6607
360.198
360.7503
361.3115
361.8875
362.5022
363.1828
363.9399
364.6226
364.769
365.2491
370.123
5346000
5346000
5346000
5346000
5346000
359.2549
359.7325
360.2207
360.709
361.1919
361.6659
362.1305
362.5642
362.9006
362.9019
363.0671
364.4277
368.0662
5346000
5346000
5346000
5346000
5346000
358.8682
359.2835
359.7102
360.1408
360.5683
360.9866
361.3854
361.746
362.0133
362.0612
362.1373
362.7614
363.7066
366.1029
5346000
5346000
5346000
5346000
5346000
358.5002
358.8534
359.2216
359.6018
359.9917
360.3884
360.7881
361.1807
361.5375
361.7467
361.7605
362.1313
362.5536
363.1224
364.4667
5346000
5346000
5346000
5346000
5346000
5346000
5346000
5346000
5346000
5346000
5346000
5346000
5346000
5346000
5346000
361.6912
361.8805
362.0848
362.3121
362.6001
363.4723
5346000
5346000
5346000
5346000
5346000
5346000
5346000
5346000
5346000
5346000
5346000
5346000
5346000
5346000
5346000
361.1472
361.3804
361.5928
361.7689
361.9238
362.2362
363.0196
5346000
5346000
5346000
5346000
5346000
5346000
5346000
5346000
5346000
5346000
5346000
5346000
5346000
5346000
5346000
360.6145
360.8629
361.0854
361.273
361.4134
361.6603
362.1113
362.7224
5346000
5346000
5346000
5346000
5346000
5346000
5346000
5346000
5346000
5346000
5346000
5346000
5346000
5346000
5346000
360.1296
360.3778
360.6065
360.8022
360.961
361.1952
361.5979
362.0195
362.5366
5346000
5346000
5346000
5346000
5346000
5346000
5346000
5346000
5346000
5346000
5346000
5346000
5346000
5346000
5346000
359.6894
359.9331
360.1611
360.3641
360.5347
360.7778
361.1567
361.5522
361.9579
362.4338
5346000
5346000
5346000
5346000
5346000
5346000
5346000
5346000
5346000
5346000
5346000
5346000
5346000
5346000
5346000
5346000
5346000
5346000
5346000
5346000
5346000
5346000
5346000
5346000
5346000
5346000
5346000
5346000
5346000
5346000
5346000
5346000
5346000
5346000
5346000
5346000
5346000
5346000
5346000
5346000
5346000
5346000
5346000
5346000
5346000
5346000
5346000
5346000
5346000
5346000
361.9569
362.5894
363.3388
364.3076
365.7512
368.1244
375.7628
5346000
5346000
5346000
5346000
5346000
361.4594
362.1257
362.9216
363.9999
365.6516
368.47
373.4139
387.3511
5346000
5346000
5346000
5346000
5346000
360.9807
361.6365
362.3872
363.3294
364.6863
366.8172
370.3175
375.8624
389.3176
5346000
5346000
5346000
5346000
5346000
360.523
361.1525
361.8371
362.6256
363.6297
365.0642
367.1818
370.2434
374.0709
381.0434
5346000
5346000
5346000
5346000
5346000
360.0863
360.6798
361.303
361.9666
362.7177
363.6429
364.869
366.4308
368.1458
368.9077
372.0569
5346000
5346000
5346000
5346000
5346000
359.6689
360.22
360.786
361.3606
361.951
362.5856
363.2974
364.1008
364.8324
364.974
365.456
370.558
5346000
5346000
5346000
5346000
5346000
359.2698
359.7722
360.2834
360.7908
361.2873
361.771
362.2438
362.687
363.03
363.0009
363.1674
364.7216
368.7862
5346000
5346000
5346000
5346000
5346000
358.8883
359.3367
359.793
360.2453
360.6833
361.0979
361.4767
361.7994
362.0096
361.9866
362.0707
362.8046
363.9775
366.9314
5346000
5346000
5346000
5346000
5346000
358.5242
358.9151
359.3159
359.7189
360.1166
360.5008
360.8607
361.1755
361.4038
361.4446
361.5162
361.9584
362.5074
363.307
365.2055
5346000
5346000
5346000
5346000
5346000
358.1775
358.5104
358.8572
359.2147
359.5806
359.9519
360.3245
360.6895
361.02
361.2216
361.2406
361.5695
361.8952
362.2559
362.7378
364.0735
5346000
5346000
5346000
5346000
5346000
5346000
5346000
5346000
5346000
5346000
5346000
5346000
5346000
5346000
5346000
361.1734
361.3588
361.5592
361.7515
361.9543
362.3573
363.4326
5346000
5346000
5346000
5346000
5346000
5346000
5346000
5346000
5346000
5346000
5346000
5346000
5346000
5346000
5346000
360.6615
360.8928
361.1044
361.2895
361.438
361.7057
362.2047
362.9837
5346000
5346000
5346000
5346000
5346000
5346000
5346000
5346000
5346000
5346000
5346000
5346000
5346000
5346000
5346000
360.1618
360.4043
360.6283
360.8212
360.9805
361.2192
361.6324
362.0804
362.6868
5346000
5346000
5346000
5346000
5346000
5346000
5346000
5346000
5346000
5346000
5346000
5346000
5346000
5346000
5346000
359.7054
359.9473
360.1736
360.3753
360.5455
360.7894
361.1704
361.5706
361.9881
362.5026
5346000
5346000
5346000
5346000
5346000
5346000
5346000
5346000
5346000
5346000
5346000
5346000
5346000
5346000
5346000
359.2912
359.5271
359.7518
359.9561
360.1373
360.3826
360.7558
361.1325
361.5244
361.9278
362.396
5346000
5346000
5346000
5346000
5346000
5346000
5346000
5346000
5346000
5346000
5346000
5346000
5346000
5346000
5346000
5346000
5346000
5346000
5346000
5346000
5346000
5346000
5346000
5346000
5346000
5346000
5346000
5346000
5346000
5346000
5346000
5346000
5346000
5346000
5346000
5346000
5346000
5346000
5346000
5346000
5346000
5346000
5346000
5346000
5346000
5346000
5346000
5346000
5346000
5346000
5346000
5346000
5346000
5346000
5346000
361.4146
361.9861
362.6231
363.3776
364.3408
365.7161
367.8298
374.9175
5346000
5346000
5346000
5346000
5346000
360.9502
361.5457
362.2102
363.0008
364.053
365.5791
367.9574
371.7122
382.8719
5346000
5346000
5346000
5346000
5346000
360.5041
361.0988
361.7405
362.4656
363.357
364.5772
366.3144
368.7915
371.9877
378.9813
5346000
5346000
5346000
5346000
5346000
360.0775
360.6556
361.2619
361.9053
362.6267
363.5008
364.6391
366.0695
367.6417
368.3997
371.5516
5346000
5346000
5346000
5346000
5346000
359.6689
360.22
360.786
361.3606
361.951
362.5856
363.2974
364.1008
364.8324
364.974
365.456
370.558
5346000
5346000
5346000
5346000
5346000
359.2774
359.7924
360.3157
360.833
361.3373
361.8272
362.3071
362.7596
363.1117
363.0695
363.2338
364.8891
369.1535
5346000
5346000
5346000
5346000
5346000
358.9023
359.3737
359.8509
360.319
360.7654
361.1796
361.549
361.8547
362.0411
361.9836
362.0639
362.8778
364.213
367.5206
5346000
5346000
5346000
5346000
5346000
358.5432
358.9649
359.393
359.8154
360.2206
360.5966
360.929
361.1948
361.3547
361.3255
361.4033
361.8935
362.5391
363.5274
365.8558
5346000
5346000
5346000
5346000
5346000
358.2
358.5683
358.9454
359.3239
359.6962
360.054
360.3858
360.6734
360.879
360.9261
360.9982
361.3703
361.7661
362.2382
362.907
364.7143
5346000
5346000
5346000
5346000
5346000
357.873
358.187
358.5139
358.8506
359.1947
359.5433
359.8925
360.2337
360.5437
360.7374
360.7689
361.0701
361.364
361.6455
361.9574
362.5067
364.0253
5346000
5346000
5346000
5346000
5346000
5346000
5346000
5346000
5346000
5346000
5346000
5346000
5346000
5346000
5346000
360.6888
360.8751
361.072
361.2639
361.4392
361.747
362.3263
363.3935
5346000
5346000
5346000
5346000
5346000
5346000
5346000
5346000
5346000
5346000
5346000
5346000
5346000
5346000
5346000
360.2071
360.4335
360.6467
360.8353
360.998
361.2463
361.678
362.1739
362.9469
5346000
5346000
5346000
5346000
5346000
5346000
5346000
5346000
5346000
5346000
5346000
5346000
5346000
5346000
5346000
359.7364
359.9728
360.1945
360.3933