/*--------------------------------*- C++ -*----------------------------------*\
| =========                 |                                                 |
| \\      /  F ield         | OpenFOAM: The Open Source CFD Toolbox           |
|  \\    /   O peration     | Version:  2306                                  |
|   \\  /    A nd           | Website:  www.openfoam.com                      |
|    \\/     M anipulation  |                                                 |
\*---------------------------------------------------------------------------*/
FoamFile
{
    version     2.0;
    format      ascii;
    arch        "LSB;label=32;scalar=64";
    class       volScalarField;
    location    "1.2";
    object      T;
}
// * * * * * * * * * * * * * * * * * * * * * * * * * * * * * * * * * * * * * //

dimensions      [0 0 0 1 0 0 0];

internalField   nonuniform List<scalar> 
52000
(
1111.19
1111.188
1112.731
1111.135
1111.184
1112.73
1111.133
1114.821
1112.712
1111.028
1111.179
1112.728
1111.128
1114.82
1112.711
1111.024
1117.025
1114.819
1112.677
1110.872
1111.173
1112.726
1111.121
1114.819
1112.709
1111.016
1117.024
1114.818
1112.675
1110.865
1119.177
1117.03
1114.817
1112.628
1110.676
1111.167
1112.724
1111.113
1114.817
1112.706
1111.005
1117.023
1114.816
1112.672
1110.85
1119.176
1117.029
1114.815
1112.625
1110.662
1121.215
1119.184
1117.041
1114.817
1112.571
1110.515
1111.161
1112.721
1111.104
1114.814
1112.703
1110.991
1117.021
1114.814
1112.668
1110.831
1119.175
1117.027
1114.813
1112.62
1110.635
1121.215
1119.183
1117.04
1114.815
1112.567
1110.491
1123.124
1121.223
1119.199
1117.061
1114.824
1112.53
1110.411
1111.156
1112.718
1111.096
1114.812
1112.699
1110.977
1117.019
1114.81
1112.662
1110.808
1119.173
1117.025
1114.808
1112.614
1110.599
1121.213
1119.181
1117.037
1114.81
1112.559
1110.444
1123.124
1121.222
1119.198
1117.058
1114.821
1112.524
1110.38
1124.905
1123.132
1121.239
1119.225
1117.092
1114.838
1112.506
1110.317
1111.152
1112.716
1111.088
1114.81
1112.695
1110.962
1117.016
1114.807
1112.657
1110.783
1119.171
1117.021
1114.803
1112.606
1110.56
1121.212
1119.179
1117.033
1114.804
1112.549
1110.374
1123.123
1121.221
1119.195
1117.054
1114.815
1112.511
1110.318
1124.905
1123.131
1121.238
1119.223
1117.089
1114.835
1112.498
1110.28
1126.566
1124.912
1123.147
1121.266
1119.264
1117.127
1114.852
1112.489
1110.239
1111.15
1112.714
1111.083
1114.808
1112.692
1110.948
1117.014
1114.804
1112.65
1110.755
1119.168
1117.018
1114.798
1112.597
1110.531
1121.21
1119.176
1117.027
1114.795
1112.538
1110.284
1123.121
1121.218
1119.191
1117.047
1114.805
1112.494
1110.222
1124.904
1123.13
1121.235
1119.219
1117.083
1114.828
1112.481
1110.204
1126.566
1124.912
1123.146
1121.264
1119.262
1117.125
1114.847
1112.478
1110.197
1128.116
1126.572
1124.927
1123.173
1121.306
1119.305
1117.154
1114.87
1112.48
1110.18
1111.15
1112.713
1111.08
1114.806
1112.69
1110.938
1117.012
1114.801
1112.645
1110.728
1119.166
1117.015
1114.792
1112.586
1110.469
1121.208
1119.173
1117.022
1114.785
1112.529
1097.98
1123.12
1121.216
1119.186
1117.038
1114.791
1112.474
1110.087
1124.903
1123.128
1121.232
1119.212
1117.074
1114.818
1112.456
1110.086
1126.565
1124.91
1123.144
1121.26
1119.256
1117.119
1114.839
1112.457
1110.111
1128.116
1126.572
1124.926
1123.171
1121.303
1119.303
1117.152
1114.865
1112.468
1110.135
1129.565
1128.122
1126.586
1124.95
1123.21
1121.346
1119.336
1117.185
1114.893
1112.482
1110.143
1111.152
1112.713
1111.08
1114.805
1112.688
1110.933
1117.011
1114.799
1112.64
1110.707
1119.164
1117.012
1114.787
1112.575
1110.408
1121.206
1119.17
1117.016
1114.775
1112.507
1086.908
1123.118
1121.213
1119.181
1117.027
1114.771
1110.883
1086.726
1124.901
1123.125
1121.227
1119.203
1117.059
1114.807
1112.424
1109.918
1126.564
1124.908
1123.141
1121.254
1119.247
1117.112
1114.827
1112.424
1109.976
1128.115
1126.571
1124.924
1123.167
1121.298
1119.299
1117.147
1114.855
1112.442
1110.042
1129.565
1128.122
1126.585
1124.949
1123.208
1121.345
1119.334
1117.183
1114.888
1112.468
1110.096
1130.922
1129.571
1128.134
1126.607
1124.985
1123.249
1121.377
1119.37
1117.22
1114.923
1112.495
1110.129
1111.156
1112.714
1111.083
1114.805
1112.688
1110.933
1117.01
1114.798
1112.638
1110.696
1119.163
1117.01
1114.784
1112.566
1110.363
1121.204
1119.167
1117.011
1114.765
1112.482
1080.909
1123.116
1121.21
1119.176
1117.017
1114.751
1107.823
1060.056
1124.899
1123.122
1121.222
1119.193
1117.034
1114.091
1107.781
1080.568
1126.562
1124.906
1123.137
1121.246
1119.232
1117.104
1114.812
1112.379
1109.786
1128.114
1126.569
1124.921
1123.162
1121.29
1119.293
1117.14
1114.84
1112.403
1109.899
1129.564
1128.12
1126.583
1124.945
1123.204
1121.341
1119.331
1117.178
1114.877
1112.441
1110.001
1130.922
1129.57
1128.133
1126.606
1124.983
1123.247
1121.375
1119.369
1117.218
1114.917
1112.482
1110.082
1132.195
1130.927
1129.582
1128.154
1126.639
1125.02
1123.277
1121.41
1119.407
1117.259
1114.959
1112.522
1110.138
1111.161
1112.716
1111.088
1114.806
1112.69
1110.938
1117.01
1114.798
1112.638
1110.696
1119.162
1117.009
1114.782
1112.561
1110.339
1121.203
1119.165
1117.008
1114.758
1112.462
1077.557
1123.114
1121.207
1119.171
1117.008
1114.732
1105.191
1043.709
1124.898
1123.12
1121.217
1119.183
1117.014
1112.711
1098.76
1043.453
1126.561
1124.904
1123.132
1121.236
1119.208
1116.721
1112.751
1105.094
1077.02
1128.113
1126.567
1124.917
1123.155
1121.276
1119.287
1117.131
1114.82
1112.348
1109.696
1129.563
1128.119
1126.58
1124.94
1123.196
1121.336
1119.326
1117.17
1114.859
1112.398
1109.854
1130.921
1129.569
1128.132
1126.603
1124.979
1123.244
1121.373
1119.365
1117.212
1114.906
1112.454
1109.988
1132.194
1130.927
1129.581
1128.152
1126.637
1125.019
1123.276
1121.409
1119.406
1117.257
1114.954
1112.509
1110.092
1133.389
1132.199
1130.937
1129.6
1128.182
1126.671
1125.046
1123.308
1121.446
1119.447
1117.302
1115.002
1112.56
1110.168
1111.167
1112.718
1111.096
1114.808
1112.692
1110.948
1117.011
1114.799
1112.64
1110.707
1119.162
1117.009
1114.782
1112.561
1110.339
1121.202
1119.164
1117.006
1114.754
1112.45
1076.01
1123.113
1121.206
1119.168
1117.002
1114.718
1103.261
1034.027
1124.896
1123.118
1121.213
1119.175
1116.998
1111.474
1090.887
1018.963
1126.559
1124.902
1123.128
1121.227
1119.189
1116.014
1108.684
1090.759
1033.341
1128.111
1126.565
1124.913
1123.146
1121.253
1119.053
1116.089
1111.537
1103.081
1075.214
1129.562
1128.117
1126.577
1124.934
1123.184
1121.331
1119.32
1117.159
1114.835
1112.337
1109.649
1130.92
1129.568
1128.129
1126.598
1124.972
1123.24
1121.369
1119.361
1117.204
1114.887
1112.411
1109.842
1132.194
1130.926
1129.579
1128.15
1126.633
1125.016
1123.274
1121.407
1119.403
1117.251
1114.943
1112.482
1110
1133.389
1132.199
1130.937
1129.598
1128.181
1126.67
1125.045
1123.307
1121.445
1119.446
1117.3
1114.998
1112.548
1110.123
1134.511
1133.393
1132.208
1130.954
1129.626
1128.212
1126.695
1125.074
1123.341
1121.484
1119.49
1117.349
1115.051
1112.609
1110.22
1111.173
1112.721
1111.104
1114.81
1112.695
1110.962
1117.012
1114.801
1112.645
1110.728
1119.163
1117.01
1114.784
1112.566
1110.363
1121.202
1119.164
1117.006
1114.754
1112.45
1076.01
1123.113
1121.205
1119.166
1116.999
1114.71
1102.242
1029.472
1124.895
1123.116
1121.21
1119.17
1116.987
1110.529
1085.068
1003.773
1126.558
1124.9
1123.124
1121.22
1119.175
1115.392
1104.976
1078.026
1003.184
1128.11
1126.563
1124.909
1123.138
1121.236
1118.646
1114.058
1104.983
1084.7
1028.095
1129.561
1128.115
1126.573
1124.926
1123.162
1121.171
1118.73
1115.524
1110.605
1101.947
1074.86
1130.919
1129.566
1128.126
1126.592
1124.961
1123.235
1121.365
1119.355
1117.191
1114.86
1112.349
1109.642
1132.193
1130.924
1129.577
1128.146
1126.627
1125.012
1123.271
1121.404
1119.398
1117.243
1114.925
1112.442
1109.86
1133.388
1132.198
1130.935
1129.596
1128.178
1126.667
1125.043
1123.306
1121.443
1119.444
1117.295
1114.988
1112.525
1110.033
1134.511
1133.393
1132.208
1130.953
1129.624
1128.211
1126.694
1125.074
1123.341
1121.483
1119.489
1117.348
1115.048
1112.599
1110.174
1135.567
1134.515
1133.402
1132.224
1130.978
1129.653
1128.233
1126.72
1125.105
1123.376
1121.524
1119.535
1117.399
1115.105
1112.667
1111.065
1111.179
1112.724
1111.113
1114.812
1112.699
1110.977
1117.014
1114.804
1112.65
1110.755
1119.164
1117.012
1114.787
1112.575
1110.408
1121.203
1119.165
1117.008
1114.758
1112.462
1077.557
1123.113
1121.205
1119.166
1116.999
1114.71
1102.242
1029.472
1124.895
1123.115
1121.209
1119.167
1116.981
1110.015
1081.982
996.444
1126.557
1124.898
1123.121
1121.215
1119.165
1114.919
1102.113
1068.505
983.883
1128.109
1126.561
1124.906
1123.131
1121.223
1118.3
1112.223
1098.908
1068.162
994.7921
1129.56
1128.113
1126.57
1124.919
1123.147
1120.908
1117.602
1112.288
1102.089
1081.25
1027.102
1130.918
1129.564
1128.123
1126.585
1124.941
1123.113
1120.99
1118.452
1115.107
1110.101
1101.817
1075.938
1132.192
1130.923
1129.574
1128.14
1126.617
1125.008
1123.268
1121.4
1119.392
1117.23
1114.898
1112.385
1109.672
1133.387
1132.197
1130.933
1129.592
1128.172
1126.664
1125.041
1123.303
1121.44
1119.439
1117.288
1114.972
1112.49
1109.901
1134.511
1133.392
1132.206
1130.95
1129.621
1128.209
1126.692
1125.072
1123.339
1121.482
1119.488
1117.344
1115.041
1112.579
1110.085
1135.566
1134.515
1133.401
1132.223
1130.976
1129.652
1128.233
1126.72
1125.104
1123.376
1121.524
1119.535
1117.398
1115.103
1112.658
1111.003
1136.559
1135.57
1134.523
1133.416
1132.246
1131.002
1129.672
1128.257
1126.748
1125.137
1123.413
1121.566
1119.582
1117.451
1115.162
1113.451
1112.689
1111.184
1112.726
1111.121
1114.814
1112.703
1110.991
1117.016
1114.807
1112.657
1110.783
1119.166
1117.015
1114.792
1112.586
1110.469
1121.204
1119.167
1117.011
1114.765
1112.482
1080.909
1123.113
1121.206
1119.168
1117.002
1114.718
1103.261
1034.027
1124.895
1123.115
1121.209
1119.167
1116.981
1110.015
1081.982
996.444
1126.557
1124.897
1123.12
1121.212
1119.16
1114.662
1100.55
1063.419
974.401
1128.108
1126.56
1124.903
1123.127
1121.215
1118.043
1110.809
1094.165
1055.669
973.1058
1129.559
1128.112
1126.567
1124.913
1123.136
1120.693
1116.607
1109.309
1094.1
1062.487
993.1799
1130.917
1129.563
1128.119
1126.578
1124.927
1122.92
1120.289
1116.692
1110.942
1100.474
1080.81
1030.328
1132.191
1130.921
1129.571
1128.134
1126.599
1124.906
1122.997
1120.842
1118.265
1114.916
1110.128
1102.733
1078.676
1133.386
1132.195
1130.93
1129.587
1128.163
1126.66
1125.038
1123.3
1121.436
1119.433
1117.275
1114.949
1112.443
1109.73
1134.51
1133.391
1132.204
1130.947
1129.616
1128.205
1126.69
1125.07
1123.337
1121.479
1119.484
1117.339
1115.03
1112.552
1109.954
1135.566
1134.514
1133.4
1132.22
1130.974
1129.65
1128.231
1126.719
1125.103
1123.375
1121.523
1119.535
1117.397
1115.099
1112.642
1110.867
1136.559
1135.57
1134.523
1133.415
1132.245
1131.001
1129.672
1128.256
1126.747
1125.136
1123.413
1121.566
1119.583
1117.452
1115.162
1113.442
1112.598
1137.492
1136.562
1135.578
1134.536
1133.436
1132.268
1131.021
1129.694
1128.282
1126.777
1125.17
1123.451
1121.609
1119.63
1117.503
1115.858
1114.951
1114.322
1111.188
1112.728
1111.128
1114.817
1112.706
1111.005
1117.019
1114.81
1112.662
1110.808
1119.168
1117.018
1114.798
1112.597
1110.531
1121.206
1119.17
1117.016
1114.775
1112.507
1086.908
1123.114
1121.207
1119.171
1117.008
1114.732
1105.191
1043.709
1124.895
1123.116
1121.21
1119.17
1116.987
1110.529
1085.068
1003.773
1126.557
1124.897
1123.12
1121.212
1119.16
1114.662
1100.55
1063.419
974.401
1128.108
1126.559
1124.902
1123.125
1121.211
1117.905
1110.034
1091.557
1048.954
962.3422
1129.558
1128.11
1126.564
1124.909
1123.129
1120.538
1115.855
1106.979
1087.803
1048.225
971.0029
1130.916
1129.561
1128.117
1126.573
1124.917
1122.768
1119.69
1115.109
1107.052
1091.373
1061.722
998.3453
1132.19
1130.92
1129.568
1128.128
1126.587
1124.751
1122.5
1119.777
1116.046
1110.263
1100.454
1083.497
1038.288
1133.385
1132.194
1130.928
1129.581
1128.147
1126.571
1124.821
1122.908
1120.759
1118.211
1115.006
1110.72
1104.663
1083.789
1134.509
1133.39
1132.202
1130.942
1129.608
1128.202
1126.687
1125.068
1123.335
1121.476
1119.478
1117.329
1115.013
1112.519
1109.793
1135.565
1134.513
1133.398
1132.217
1130.969
1129.647
1128.229
1126.717
1125.102
1123.374
1121.522
1119.533
1117.395
1115.094
1112.621
1110.603
1136.558
1135.569
1134.522
1133.413
1132.242
1131
1129.67
1128.255
1126.747
1125.136
1123.413
1121.567
1119.584
1117.453
1115.161
1113.428
1112.382
1137.492
1136.562
1135.577
1134.535
1133.435
1132.268
1131.02
1129.693
1128.281
1126.777
1125.17
1123.451
1121.61
1119.632
1117.505
1115.862
1114.943
1114.208
1138.37
1137.495
1136.569
1135.59
1134.556
1133.458
1132.285
1131.04
1129.717
1128.308
1126.807
1125.204
1123.49
1121.652
1119.677
1118.116
1117.19
1116.452
1115.97
1111.19
1112.73
1111.133
1114.819
1112.709
1111.016
1117.021
1114.814
1112.668
1110.831
1119.171
1117.021
1114.803
1112.606
1110.56
1121.208
1119.173
1117.022
1114.785
1112.529
1097.98
1123.116
1121.21
1119.176
1117.017
1114.751
1107.823
1060.056
1124.896
1123.118
1121.213
1119.175
1116.998
1111.474
1090.887
1018.963
1126.557
1124.898
1123.121
1121.215
1119.165
1114.919
1102.113
1068.505
983.883
1128.108
1126.559
1124.902
1123.125
1121.211
1117.905
1110.034
1091.557
1048.954
962.3422
1129.557
1128.11
1126.563
1124.907
1123.125
1120.456
1115.448
1105.693
1084.321
1040.528
959.968
1130.915
1129.56
1128.115
1126.569
1124.911
1122.661
1119.247
1113.893
1103.975
1084.154
1047.185
977.6195
1132.189
1130.918
1129.566
1128.123
1126.578
1124.631
1122.088
1118.846
1114.017
1105.872
1091.275
1066.056
1010.844
1133.384
1132.192
1130.925
1129.576
1128.135
1126.437
1124.429
1122.172
1119.449
1115.787
1110.422
1102.122
1089.152
1052.378
1134.508
1133.388
1132.199
1130.937
1129.593
1128.122
1126.501
1124.76
1122.869
1120.762
1118.32
1115.403
1111.855
1107.54
1093.296
1135.564
1134.512
1133.396
1132.213
1130.961
1129.644
1128.227
1126.715
1125.1
1123.371
1121.519
1119.529
1117.39
1115.087
1112.603
1109.859
1136.558
1135.568
1134.52
1133.41
1132.238
1130.997
1129.668
1128.254
1126.745
1125.135
1123.412
1121.567
1119.586
1117.456
1115.163
1113.419
1111.916
1137.492
1136.561
1135.576
1134.534
1133.433
1132.266
1131.019
1129.692
1128.281
1126.776
1125.17
1123.452
1121.612
1119.636
1117.51
1115.876
1114.931
1113.931
1138.369
1137.495
1136.569
1135.589
1134.555
1133.457
1132.285
1131.04
1129.716
1128.308
1126.807
1125.205
1123.491
1121.654
1119.68
1118.124
1117.202
1116.444
1115.839
1139.194
1138.373
1137.502
1136.581
1135.608
1134.575
1133.473
1132.303
1131.061
1129.741
1128.336
1126.838
1125.239
1123.528
1121.694
1120.216
1119.287
1118.519
1117.954
1117.634
1112.731
1111.135
1114.82
1112.711
1111.024
1117.023
1114.816
1112.672
1110.85
1119.173
1117.025
1114.808
1112.614
1110.599
1121.21
1119.176
1117.027
1114.795
1112.538
1110.284
1123.118
1121.213
1119.181
1117.027
1114.771
1110.883
1086.726
1124.898
1123.12
1121.217
1119.183
1117.014
1112.711
1098.76
1043.453
1126.558
1124.9
1123.124
1121.22
1119.175
1115.392
1104.976
1078.026
1003.184
1128.108
1126.56
1124.903
1123.127
1121.215
1118.043
1110.809
1094.165
1055.669
973.1058
1129.557
1128.11
1126.563
1124.907
1123.125
1120.456
1115.448
1105.693
1084.321
1040.528
959.968
1130.915
1129.56
1128.114
1126.568
1124.908
1122.606
1119.011
1113.229
1102.266
1080.148
1039.332
967.357
1132.188
1130.917
1129.564
1128.119
1126.572
1124.549
1121.792
1118.147
1112.439
1102.373
1083.972
1052.802
993.423
1133.384
1132.191
1130.923
1129.571
1128.127
1126.335
1124.111
1121.547
1118.284
1113.544
1106.067
1093.943
1075.135
1032.049
1134.507
1133.387
1132.197
1130.932
1129.583
1128.001
1126.167
1124.189
1121.986
1119.373
1116.006
1111.482
1105.347
1097.36
1075.814
1135.563
1134.511
1133.394
1132.208
1130.948
1129.57
1128.06
1126.452
1124.74
1122.895
1120.873
1118.611
1116.11
1113.518
1111.464
1104.586
1136.557
1135.567
1134.518
1133.406
1132.23
1130.994
1129.666
1128.252
1126.743
1125.133
1123.411
1121.565
1119.585
1117.459
1115.169
1113.504
1110.702
1137.491
1136.56
1135.575
1134.531
1133.429
1132.264
1131.017
1129.691
1128.28
1126.775
1125.17
1123.453
1121.614
1119.641
1117.519
1115.921
1114.932
1113.342
1138.369
1137.495
1136.568
1135.587
1134.552
1133.455
1132.283
1131.039
1129.716
1128.308
1126.807
1125.206
1123.493
1121.658
1119.687
1118.146
1117.238
1116.43
1115.524
1139.194
1138.372
1137.502
1136.58
1135.607
1134.574
1133.472
1132.303
1131.061
1129.741
1128.336
1126.839
1125.24
1123.531
1121.697
1120.226
1119.306
1118.538
1117.945
1117.495
1139.968
1139.197
1138.379
1137.513
1136.598
1135.626
1134.59
1133.49
1132.323
1131.083
1129.766
1128.364
1126.87
1125.274
1123.566
1122.17
1121.246
1120.455
1119.845
1119.457
1118.523
1114.821
1112.712
1111.028
1117.024
1114.818
1112.675
1110.865
1119.175
1117.027
1114.813
1112.62
1110.635
1121.212
1119.179
1117.033
1114.804
1112.549
1110.374
1123.12
1121.216
1119.186
1117.038
1114.791
1112.474
1110.087
1124.899
1123.122
1121.222
1119.193
1117.034
1114.091
1107.781
1080.568
1126.559
1124.902
1123.128
1121.227
1119.189
1116.014
1108.684
1090.759
1033.341
1128.109
1126.561
1124.906
1123.131
1121.223
1118.3
1112.223
1098.908
1068.162
994.7921
1129.558
1128.11
1126.564
1124.909
1123.129
1120.538
1115.855
1106.979
1087.803
1048.225
971.0029
1130.915
1129.56
1128.114
1126.568
1124.908
1122.606
1119.011
1113.229
1102.266
1080.148
1039.332
967.357
1132.188
1130.917
1129.563
1128.118
1126.569
1124.506
1121.637
1117.771
1111.571
1100.42
1079.913
1045.653
984.8942
1133.383
1132.19
1130.921
1129.568
1128.122
1126.266
1123.887
1121.09
1117.399
1111.782
1102.578
1087.429
1064.526
1019.498
1134.506
1133.386
1132.195
1130.928
1129.575
1127.911
1125.899
1123.715
1121.224
1118.121
1113.841
1107.72
1099.088
1088.074
1064.897
1135.563
1134.509
1133.391
1132.203
1130.938
1129.46
1127.762
1125.97
1124.067
1121.986
1119.602
1116.747
1113.396
1109.849
1107.56
1098.169
1136.556
1135.566
1134.516
1133.401
1132.218
1130.926
1129.513
1128.017
1126.44
1124.773
1122.999
1121.104
1119.103
1117.169
1115.94
1114.753
1106.611
1137.49
1136.559
1135.573
1134.527
1133.422
1132.261
1131.015
1129.689
1128.278
1126.774
1125.169
1123.453
1121.616
1119.647
1117.534
1116.156
1115.039
1111.992
1138.368
1137.494
1136.566
1135.585
1134.548
1133.453
1132.282
1131.037
1129.715
1128.307
1126.807
1125.207
1123.496
1121.665
1119.698
1118.206
1117.343
1116.427
1114.882
1139.194
1138.372
1137.501
1136.579
1135.605
1134.573
1133.471
1132.302
1131.06
1129.74
1128.336
1126.84
1125.243
1123.535
1121.704
1120.249
1119.356
1118.589
1117.928
1117.165
1139.968
1139.197
1138.379
1137.512
1136.597
1135.626
1134.589
1133.489
1132.322
1131.083
1129.766
1128.364
1126.871
1125.276
1123.569
1122.179
1121.267
1120.482
1119.868
1119.447
1118.384
1140.694
1139.971
1139.203
1138.389
1137.529
1136.615
1135.64
1134.605
1133.508
1132.343
1131.106
1129.792
1128.393
1126.901
1125.308
1123.989
1123.08
1122.273
1121.617
1121.167
1120.251
1118.619
1117.025
1114.819
1112.677
1110.872
1119.176
1117.029
1114.815
1112.625
1110.662
1121.213
1119.181
1117.037
1114.81
1112.559
1110.444
1123.121
1121.218
1119.191
1117.047
1114.805
1112.494
1110.222
1124.901
1123.125
1121.227
1119.203
1117.059
1114.807
1112.424
1109.918
1126.561
1124.904
1123.132
1121.236
1119.208
1116.721
1112.751
1105.094
1077.02
1128.11
1126.563
1124.909
1123.138
1121.236
1118.646
1114.058
1104.983
1084.7
1028.095
1129.559
1128.112
1126.567
1124.913
1123.136
1120.693
1116.607
1109.309
1094.1
1062.487
993.1799
1130.915
1129.56
1128.115
1126.569
1124.911
1122.661
1119.247
1113.893
1103.975
1084.154
1047.185
977.6195
1132.188
1130.917
1129.563
1128.118
1126.569
1124.506
1121.637
1117.771
1111.571
1100.42
1079.913
1045.653
984.8942
1133.383
1132.19
1130.92
1129.567
1128.119
1126.23
1123.772
1120.849
1116.919
1110.807
1100.623
1083.808
1058.82
1013.44
1134.506
1133.385
1132.193
1130.925
1129.57
1127.849
1125.714
1123.377
1120.662
1117.158
1112.125
1104.685
1094.081
1081.03
1058.202
1135.562
1134.508
1133.389
1132.2
1130.931
1129.377
1127.525
1125.576
1123.502
1121.192
1118.44
1114.962
1110.693
1106.076
1103.529
1093.094
1136.555
1135.565
1134.513
1133.397
1132.209
1130.824
1129.241
1127.589
1125.879
1124.096
1122.206
1120.171
1118.013
1116.077
1115.389
1113.887
1101.57
1137.489
1136.558
1135.57
1134.523
1133.411
1132.197
1130.873
1129.475
1128.008
1126.474
1124.869
1123.195
1121.48
1119.861
1118.88
1118.462
1115.647
1108.77
1138.368
1137.493
1136.565
1135.581
1134.542
1133.451
1132.28
1131.036
1129.713
1128.306
1126.806
1125.207
1123.499
1121.672
1119.715
1118.475
1117.71
1116.493
1113.572
1139.193
1138.371
1137.499
1136.576
1135.601
1134.571
1133.47
1132.301
1131.059
1129.74
1128.336
1126.841
1125.246
1123.541
1121.715
1120.312
1119.488
1118.721
1117.91
1116.523
1139.967
1139.196
1138.378
1137.511
1136.595
1135.624
1134.588
1133.489
1132.322
1131.083
1129.766
1128.365
1126.873
1125.28
1123.576
1122.203
1121.32
1120.552
1119.927
1119.425
1118.056
1140.693
1139.971
1139.203
1138.389
1137.528
1136.615
1135.639
1134.605
1133.508
1132.343
1131.106
1129.792
1128.394
1126.903
1125.311
1123.998
1123.1
1122.302
1121.65
1121.192
1120.241
1118.479
1141.373
1140.696
1139.977
1139.213
1138.405
1137.545
1136.628
1135.655
1134.622
1133.527
1132.364
1131.13
1129.818
1128.421
1126.932
1125.685
1124.796
1123.986
1123.295
1122.775
1121.863
1120.336
1118.714
1119.177
1117.03
1114.817
1112.628
1110.676
1121.215
1119.183
1117.04
1114.815
1112.567
1110.491
1123.123
1121.221
1119.195
1117.054
1114.815
1112.511
1110.318
1124.903
1123.128
1121.232
1119.212
1117.074
1114.818
1112.456
1110.086
1126.562
1124.906
1123.137
1121.246
1119.232
1117.104
1114.812
1112.379
1109.786
1128.111
1126.565
1124.913
1123.146
1121.253
1119.053
1116.089
1111.537
1103.081
1075.214
1129.56
1128.113
1126.57
1124.919
1123.147
1120.908
1117.602
1112.288
1102.089
1081.25
1027.102
1130.916
1129.561
1128.117
1126.573
1124.917
1122.768
1119.69
1115.109
1107.052
1091.373
1061.722
998.3453
1132.188
1130.917
1129.564
1128.119
1126.572
1124.549
1121.792
1118.147
1112.439
1102.373
1083.972
1052.802
993.423
1133.383
1132.19
1130.92
1129.567
1128.119
1126.23
1123.772
1120.849
1116.919
1110.807
1100.623
1083.808
1058.82
1013.44
1134.505
1133.384
1132.193
1130.924
1129.568
1127.818
1125.618
1123.201
1120.362
1116.632
1111.169
1102.98
1091.293
1077.242
1054.974
1135.561
1134.507
1133.388
1132.197
1130.927
1129.321
1127.362
1125.299
1123.095
1120.598
1117.534
1113.525
1108.467
1102.974
1100.34
1089.69
1136.554
1135.564
1134.512
1133.394
1132.203
1130.747
1129.025
1127.243
1125.415
1123.522
1121.501
1119.282
1116.865
1114.696
1114.154
1112.5
1097.356
1137.489
1136.557
1135.568
1134.519
1133.402
1132.102
1130.62
1129.084
1127.512
1125.917
1124.301
1122.675
1121.104
1119.815
1119.524
1118.967
1115.037
1104.816
1138.367
1137.492
1136.563
1135.577
1134.531
1133.391
1132.147
1130.837
1129.467
1128.041
1126.562
1125.04
1123.504
1122.074
1121.193
1120.966
1119.17
1116.743
1111.032
1139.192
1138.37
1137.498
1136.573
1135.595
1134.569
1133.468
1132.299
1131.058
1129.738
1128.335
1126.841
1125.248
1123.548
1121.732
1120.577
1119.918
1119.087
1117.918
1115.34
1139.967
1139.195
1138.376
1137.509
1136.592
1135.622
1134.587
1133.488
1132.321
1131.082
1129.766
1128.366
1126.876
1125.286
1123.587
1122.264
1121.456
1120.722
1120.061
1119.389
1117.433
1140.693
1139.97
1139.202
1138.387
1137.526
1136.613
1135.638
1134.604
1133.507
1132.343
1131.106
1129.793
1128.396
1126.907
1125.317
1124.02
1123.152
1122.377
1121.732
1121.252
1120.217
1118.152
1141.372
1140.696
1139.976
1139.212
1138.404
1137.545
1136.627
1135.654
1134.622
1133.527
1132.364
1131.13
1129.819
1128.423
1126.934
1125.694
1124.816
1124.015
1123.33
1122.811
1121.888
1120.326
1118.574
1142.007
1141.375
1140.702
1139.986
1139.227
1138.42
1137.557
1136.642
1135.67
1134.64
1133.546
1132.386
1131.154
1129.844
1128.449
1127.271
1126.407
1125.601
1124.887
1124.31
1123.383
1121.937
1120.421
1118.81
1121.215
1119.184
1117.041
1114.817
1112.571
1110.515
1123.124
1121.222
1119.198
1117.058
1114.821
1112.524
1110.38
1124.904
1123.13
1121.235
1119.219
1117.083
1114.828
1112.481
1110.204
1126.564
1124.908
1123.141
1121.254
1119.247
1117.112
1114.827
1112.424
1109.976
1128.113
1126.567
1124.917
1123.155
1121.276
1119.287
1117.131
1114.82
1112.348
1109.696
1129.561
1128.115
1126.573
1124.926
1123.162
1121.171
1118.73
1115.524
1110.605
1101.947
1074.86
1130.917
1129.563
1128.119
1126.578
1124.927
1122.92
1120.289
1116.692
1110.942
1100.474
1080.81
1030.328
1132.189
1130.918
1129.566
1128.123
1126.578
1124.631
1122.088
1118.846
1114.017
1105.872
1091.275
1066.056
1010.844
1133.383
1132.19
1130.921
1129.568
1128.122
1126.266
1123.887
1121.09
1117.399
1111.782
1102.578
1087.429
1064.526
1019.498
1134.505
1133.384
1132.193
1130.924
1129.568
1127.818
1125.618
1123.201
1120.362
1116.632
1111.169
1102.98
1091.293
1077.242
1054.974
1135.561
1134.507
1133.387
1132.196
1130.925
1129.293
1127.278
1125.157
1122.881
1120.279
1117.035
1112.718
1107.206
1101.229
1098.596
1087.991
1136.554
1135.563
1134.51
1133.391
1132.199
1130.696
1128.876
1127.001
1125.086
1123.103
1120.965
1118.568
1115.889
1113.453
1112.965
1111.272
1094.456
1137.488
1136.556
1135.567
1134.516
1133.396
1132.031
1130.42
1128.768
1127.107
1125.452
1123.811
1122.185
1120.644
1119.442
1119.417
1118.839
1113.982
1101.381
1138.366
1137.49
1136.561
1135.574
1134.524
1133.302
1131.911
1130.474
1129.014
1127.551
1126.105
1124.707
1123.425
1122.449
1122.249
1121.914
1119.668
1116.272
1107.959
1139.192
1138.369
1137.496
1136.569
1135.585
1134.513
1133.344
1132.113
1130.829
1129.496
1128.121
1126.714
1125.307
1124
1123.177
1122.981
1121.561
1120.032
1117.959
1113.366
1139.966
1139.194
1138.375
1137.505
1136.586
1135.62
1134.585
1133.486
1132.32
1131.081
1129.765
1128.367
1126.878
1125.293
1123.603
1122.512
1121.884
1121.165
1120.37
1119.339
1116.337
1140.692
1139.969
1139.201
1138.385
1137.523
1136.611
1135.637
1134.603
1133.506
1132.342
1131.106
1129.794
1128.398
1126.912
1125.327
1124.077
1123.283
1122.552
1121.911
1121.372
1120.171
1117.531
1141.372
1140.695
1139.975
1139.211
1138.402
1137.544
1136.627
1135.653
1134.621
1133.526
1132.365
1131.131
1129.821
1128.426
1126.94
1125.715
1124.865
1124.088
1123.417
1122.896
1121.947
1120.301
1118.248
1142.007
1141.375
1140.701
1139.985
1139.227
1138.42
1137.557
1136.641
1135.67
1134.64
1133.546
1132.387
1131.155
1129.846
1128.451
1127.279
1126.425
1125.628
1124.922
1124.349
1123.42
1121.963
1120.411
1118.67
1142.598
1142.009
1141.381
1140.711
1140
1139.242
1138.432
1137.57
1136.656
1135.687
1134.658
1133.567
1132.408
1131.178
1129.869
1128.756
1127.919
1127.125
1126.4
1125.782
1124.843
1123.448
1122.011
1120.506
1118.905
1123.124
1121.223
1119.199
1117.061
1114.824
1112.53
1110.411
1124.905
1123.131
1121.238
1119.223
1117.089
1114.835
1112.498
1110.28
1126.565
1124.91
1123.144
1121.26
1119.256
1117.119
1114.839
1112.457
1110.111
1128.114
1126.569
1124.921
1123.162
1121.29
1119.293
1117.14
1114.84
1112.403
1109.899
1129.562
1128.117
1126.577
1124.934
1123.184
1121.331
1119.32
1117.159
1114.835
1112.337
1109.649
1130.918
1129.564
1128.123
1126.585
1124.941
1123.113
1120.99
1118.452
1115.107
1110.101
1101.817
1075.938
1132.19
1130.92
1129.568
1128.128
1126.587
1124.751
1122.5
1119.777
1116.046
1110.263
1100.454
1083.497
1038.288
1133.384
1132.191
1130.923
1129.571
1128.127
1126.335
1124.111
1121.547
1118.284
1113.544
1106.067
1093.943
1075.135
1032.049
1134.506
1133.385
1132.193
1130.925
1129.57
1127.849
1125.714
1123.377
1120.662
1117.158
1112.125
1104.685
1094.081
1081.03
1058.202
1135.561
1134.507
1133.387
1132.196
1130.925
1129.293
1127.278
1125.157
1122.881
1120.279
1117.035
1112.718
1107.206
1101.229
1098.596
1087.991
1136.554
1135.562
1134.51
1133.39
1132.197
1130.67
1128.801
1126.877
1124.915
1122.882
1120.675
1118.167
1115.328
1112.723
1112.26
1110.571
1092.991
1137.488
1136.555
1135.566
1134.513
1133.393
1131.983
1130.283
1128.549
1126.822
1125.12
1123.447
1121.795
1120.225
1119.009
1119.108
1118.545
1113.017
1098.96
1138.366
1137.49
1136.559
1135.57
1134.518
1133.235
1131.725
1130.183
1128.646
1127.148
1125.718
1124.397
1123.259
1122.502
1122.583
1122.259
1119.651
1115.466
1105.219
1139.191
1138.368
1137.494
1136.565
1135.578
1134.429
1133.123
1131.775
1130.41
1129.051
1127.724
1126.465
1125.346
1124.518
1124.339
1124.04
1122.411
1120.453
1117.571
1111.032
1139.966
1139.193
1138.373
1137.502
1136.577
1135.568
1134.468
1133.312
1132.106
1130.857
1129.57
1128.259
1126.952
1125.739
1124.953
1124.742
1123.494
1122.281
1120.979
1119.249
1114.623
1140.692
1139.968
1139.199
1138.382
1137.518
1136.609
1135.636
1134.602
1133.505
1132.341
1131.106
1129.794
1128.401
1126.919
1125.342
1124.306
1123.687
1123
1122.302
1121.603
1120.094
1116.444
1141.372
1140.695
1139.974
1139.209
1138.399
1137.542
1136.625
1135.653
1134.62
1133.526
1132.364
1131.132
1129.823
1128.432
1126.949
1125.767
1124.987
1124.257
1123.604
1123.064
1122.055
1120.255
1117.629
1142.006
1141.374
1140.701
1139.984
1139.225
1138.418
1137.556
1136.641
1135.67
1134.639
1133.547
1132.387
1131.157
1129.849
1128.457
1127.298
1126.471
1125.698
1125.008
1124.441
1123.504
1122.021
1120.386
1118.344
1142.598
1142.009
1141.38
1140.71
1139.999
1139.242
1138.431
1137.57
1136.656
1135.687
1134.658
1133.567
1132.409
1131.179
1129.871
1128.763
1127.936
1127.151
1126.434
1125.821
1124.883
1123.485
1122.037
1120.496
1118.766
1143.147
1142.6
1142.015
1141.389
1140.724
1140.014
1139.253
1138.444
1137.584
1136.672
1135.704
1134.677
1133.587
1132.43
1131.201
1130.148
1129.342
1128.564
1127.838
1127.194
1126.252
1124.9
1123.513
1122.086
1120.591
1118.995
1124.905
1123.132
1121.239
1119.225
1117.092
1114.838
1112.506
1110.317
1126.566
1124.912
1123.146
1121.264
1119.262
1117.125
1114.847
1112.478
1110.197
1128.115
1126.571
1124.924
1123.167
1121.298
1119.299
1117.147
1114.855
1112.442
1110.042
1129.563
1128.119
1126.58
1124.94
1123.196
1121.336
1119.326
1117.17
1114.859
1112.398
1109.854
1130.919
1129.566
1128.126
1126.592
1124.961
1123.235
1121.365
1119.355
1117.191
1114.86
1112.349
1109.642
1132.191
1130.921
1129.571
1128.134
1126.599
1124.906