/*--------------------------------*- C++ -*----------------------------------*\
| =========                 |                                                 |
| \\      /  F ield         | OpenFOAM: The Open Source CFD Toolbox           |
|  \\    /   O peration     | Version:  2306                                  |
|   \\  /    A nd           | Website:  www.openfoam.com                      |
|    \\/     M anipulation  |                                                 |
\*---------------------------------------------------------------------------*/
FoamFile
{
    version     2.0;
    format      ascii;
    arch        "LSB;label=32;scalar=64";
    class       volScalarField;
    location    "0.3";
    object      contErrCp;
}
// * * * * * * * * * * * * * * * * * * * * * * * * * * * * * * * * * * * * * //

dimensions      [1 -1 -3 -1 0 0 0];

internalField   nonuniform List<scalar> 
52000
(
0
0
0
0
0
0
0
0
0
0
0
0
0
0
0
0
0
0
0
0
0
0
0
0
0
0
0
0
0
0
0
0
0
0
0
0
0
0
0
0
0
0
0
0
0
0
0
0
0
0
0
0
0
0
0
0
0
0
0
0
0
0
0
0
0
0
0
0
0
0
0
0
0
0
0
0
0
0
0
0
0
0
0
0
0
0
0
0
0
0
0
0
0
0
0
0
0
0
0
0
0
0
0
0
0
0
0
0
0
0
0
0
0
0
0
0
0
0
0
0
0
0
0
0
0
0
0
0
0
0
0
0
0
0
0
0
0
0
0
0
0
0
0
0
0
0
0
0
0
0
0
0
0
0
0
0
0
0
0
0
0
0
0
0
0
0
0
0
0
0
0
0
0
0
0
0
0
0
0
0
0
0
0
0
0
0
0
0
0
0
0
0
0
0
0
0
0
0
0
0
0
0
0
0
0
0
0
0
0
0
0
0
0
0
0
0
0
0
0
0
0
0
0
0
0
0
0
0
0
0
0
0
0
0
0
0
0
0
0
0
-0.0001013616
0
0
0
0
0
0
0
0
0
0
0
0
0
0
0
0
0
0
0
0
0
0
0
0
0
0
0
0
0
0
0
0
0
0
0
0
0
0
0
0
0
0
0
0
0
0
0
0
0
0
0
0
0
0
0
0
0
0
0
0
0
0
0
0
0
0.0005089654
0
0
0
0
0
-0.0003387629
-0.000313817
0
0
0
0
0
0
0
0
0
0
0
0
0
0
0
0
0
0
0
0
0
0
0
0
0
0
0
0
0
0
0
0
0
0
0
0
0
0
0
0
0
0
0
0
0
0
0
0
0
0
0
0
0
0
0
0
0
0
0
0
0
0
0
0
0
0
0
0
0
0
-0.0005251356
0
0
0
0
0
0.0004599571
0.0003383827
0
0
0
0
0
0.0001914892
0.0005967478
-0.0002609971
0
0
0
0
0
0
0
0
0
0
0
0
0
0
0
0
0
0
0
0
0
0
0
0
0
0
0
0
0
0
0
0
0
0
0
0
0
0
0
0
0
0
0
0
0
0
0
0
0
0
0
0
0
0
0
0
0
0
0
0
0
0
0
0
0
0
0
0
0
0
0
0
0
0
0
0.0001327647
0
0
0
0
0
-0.0004296155
0.0005464092
0
0
0
0
0
-0.0009403131
-0.0008443419
-0.0002496653
0
0
0
0
0
-0.0001165715
-0.00036918
-2.083264e-05
0.0006853439
0
0
0
0
0
0
0
0
0
0
0
0
0
0
0
0
0
0
0
0
0
0
0
0
0
0
0
0
0
0
0
0
0
0
0
0
0
0
0
0
0
0
0
0
0
0
0
0
0
0
0
0
0
0
0
0
0
0
0
0
0
0
0
0
0
0
0
0
0
0
0
0
0
0
0
0
0
0
0
0
-0.0006192461
0
0
0
0
0
-0.0003085209
4.205827e-05
0
0
0
0
0
0.0002345786
-0.0004808067
0.0002385897
0
0
0
0
0
-0.0007623025
0.003219547
0.002152051
-0.0009723696
0
0
0
0
0
0.0004355828
0.0003702814
0.0001965154
5.670388e-05
-0.0001221193
0
0
0
0
0
0
0
0
0
0
0
0
0
0
0
0
0
0
0
0
0
0
0
0
0
0
0
0
0
0
0
0
0
0
0
0
0
0
0
0
0
0
0
0
0
0
0
0
0
0
0
0
0
0
0
0
0
0
0
0
0
0
0
0
0
0
0
0
0
0
0
0
0
0
0
0
0
0
0
0
0
0
0
0
0
8.431222e-05
0
0
0
0
0
0.0002695246
0.000112859
0
0
0
0
0
0.0005083678
0.001928158
-0.0004280296
0
0
0
0
0
0.0001427811
-0.001619429
-5.419212e-05
2.639271e-07
0
0
0
0
0
-0.0008281667
0.001637351
-0.002370249
-0.002447255
0.001078872
0
0
0
0
0
-2.893213e-05
4.922182e-05
-0.000490239
0.0004079766
0.0005332793
-0.0007269349
0
0
0
0
0
0
0
0
0
0
0
0
0
0
0
0
0
0
0
0
0
0
0
0
0
0
0
0
0
0
0
0
0
0
0
0
0
0
0
0
0
0
0
0
0
0
0
0
0
0
0
0
0
0
0
0
0
0
0
0
0
0
0
0
0
0
0
0
0
-9.133649e-07
0
0
0
0
0
0
0
0
0
0
0
0
0
0
0
0
0
0
0
0
-0.0001333253
0
0
0
0
0
-5.435814e-05
0.0009947636
0
0
0
0
0
-7.242832e-05
-0.001443248
2.408059e-05
0
0
0
0
0
0.001449449
-0.001127397
-0.001072501
0.001403876
0
0
0
0
0
0.0004311628
0.0001577624
0.001148004
0.001255163
0.0002826465
0
0
0
0
0
-0.0003123251
0.0007555852
-0.0007207337
-0.0002707412
0.0006590345
-0.001278352
0
0
0
0
0
-0.0004489209
0.0004657227
-0.0001223808
-0.0009799331
-0.0008438605
-0.0003855283
8.829821e-05
0
0
0
0
0
0
0
0
0
0
0
0
0
0
0
0
0
0
0
0
0
0
0
0
0
0
0
0
0
0
0
0
0
0
0
0
0
0
0
0
0
0
0
0
0
0
0
0
0
0
0
0
0
0
0
0
0
4.433428e-06
0
0
0
0
0
0
0
0
0
0
0
0
0
0
0
-2.360079e-06
4.575333e-06
0
0
0
0
0
0
0
0
0
0
0
0
0
0
0
0
0
0
0
0
-0.000765994
0
0
0
0
0
0.0001637933
0.0006365278
0
0
0
0
0
-9.104627e-05
-0.0004102542
-0.0006471099
0
0
0
0
0
-0.0002919927
0.0005155941
0.0001616072
0.0001558773
0
0
0
0
0
0.0006095603
-0.002192695
-0.000393591
0.0006282178
0.0008192011
0
0
0
0
0
0.0004488381
-0.001543427
-0.0009217852
-0.0003185806
-0.001028165
-0.0009462746
0
0
0
0
0
0.0003638169
0.0006009647
-0.0007320631
0.001722515
0.0009377694
0.0006424537
0.001520597
0
0
0
0
0
-0.0001424978
0.0004901031
-0.000256166
-0.0001493717
0.0003480764
-1.141465e-05
0.0001766838
-0.0006362745
0
0
0
0
0
0
0
0
0
0
0
0
0
0
0
0
0
0
0
0
0
0
0
0
0
0
0
0
0
0
0
0
0
0
0
0
0
0
0
0
0
0
0
0
5.293559e-06
0
0
0
0
0
0
0
0
0
0
0
0
0
0
0
4.495695e-07
-6.97111e-06
0
0
0
0
0
0
0
0
0
0
0
0
0
0
0
-1.532321e-06
-8.997809e-07
5.756343e-07
0
0
0
0
0
0
0
0
0
0
0
0
0
0
0
0
0
0
0
0
0.001330972
0
0
0
0
0
0.00015591
0.0006928024
0
0
0
0
0
0.0005474632
0.001684104
0.0001165959
0
0
0
0
0
-0.0002492541
0.0003688089
0.001360222
-0.000284103
0
0
0
0
0
-0.0006497515
0.0002766713
0.0004638888
-0.0007026475
-0.0005551763
0
0
0
0
0
2.02952e-06
0.0001741818
7.876226e-05
0.0003071552
0.001087276
-0.001165123
0
0
0
0
0
-0.0002233913
-0.001676098
0.001026485
0.001433985
-0.0004335481
0.0006332807
0.001313812
0
0
0
0
0
-0.0003306665
0.0003171252
0.0009305228
0.001117119
-0.0005360922
0.0003527838
-0.001125483
0.0008685641
0
0
0
0
0
-6.517459e-05
-3.255273e-05
0.0005778382
0.0001475813
-9.508272e-05
-0.0009075765
0.0007897546
0.0001900273
-0.0002850137
0
0
0
0
0
0
0
0
0
0
0
0
0
0
0
0
0
0
0
0
0
0
0
0
0
0
0
0
0
0
1.985831e-06
0
0
0
0
0
0
0
0
0
0
0
0
0
0
0
-4.132968e-06
-2.734947e-06
0
0
0
0
0
0
0
0
0
0
0
0
0
0
0
7.967858e-06
6.213593e-06
3.869457e-06
0
0
0
0
0
0
0
0
0
0
0
0
0
0
0
1.416141e-06
-3.098994e-06
-8.994714e-07
5.790193e-06
0
0
0
0
0
0
0
0
0
0
0
0
0
0
0
0
0
0
0
0
-0.0004359255
0
0
0
0
0
0.0004847962
-0.001929951
0
0
0
0
0
-0.001075962
-0.001452075
-0.0004782455
0
0
0
0
0
3.254293e-05
-0.0006279796
-0.001814631
-0.0001474621
0
0
0
0
0
0.0002055087
0.000750206
-0.0003199868
-0.0002130604
0.0002378327
0
0
0
0
0
0.0004030479
0.0004711897
0.0009659228
-0.0009714495
-0.000477572
-7.683377e-05
0
0
0
0
0
-0.0002780814
-0.0001200874
-0.0002270308
-0.0004523909
0.001034597
-0.002226546
0.001213908
0
0
0
0
0
-1.433114e-05
-0.0005988496
0.000305889
-0.0003514024
0.000915282
-0.0005603128
0.0003023982
-0.001646968
0
0
0
0
0
0.0002936716
0.0006770928
-0.001190843
-0.0005314625
-0.0007682002
0.001191894
-0.0008017735
0.000297013
0.001031064
0
0
0
0
0
-0.0001168927
-0.0002766912
0.0003493838
0.0001726914
0.0001225406
-0.0005828263
0.0003132625
-0.0001816868
-0.0001203275
0.0001813264
0
0
0
0
0
0
0
0
0
0
0
0
0
0
0
-3.494813e-07
0
0
0
0
0
0
0
0
0
0
0
0
0
0
0
3.02941e-06
5.287295e-06
0
0
0
0
0
0
0
0
0
0
0
0
0
0
0
-1.572356e-06
4.046042e-06
-1.585381e-06
0
0
0
0
0
0
0
0
0
0
0
0
0
0
0
5.180585e-06
6.502538e-06
5.487296e-06
9.484276e-06
0
0
0
0
0
0
0
0
0
0
0
0
0
0
0
-2.86882e-07
-7.19894e-07
3.418906e-06
-1.880534e-06
-4.984717e-06
0
0
0
0
0
0
0
0
0
0
0
0
0
0
0
0
0
0
0
0
0
0
0
0
0
-9.372683e-05
0.0006350066
0
0
0
0
0
1.805294e-05
0.001120859
0.002134278
0
0
0
0
0
0.0004358021
0.0001239215
0.0002699969
0.0009448963
0
0
0
0
0
-0.0001964472
0.0003255441
0.001678659
-0.0003341436
-0.001517781
0
0
0
0
0
-0.000428258
0.001287204
0.0009181994
-0.0003366677
0.0004714478
-0.001016927
0
0
0
0
0
0.0005348174
-0.0001573544
-0.000635624
-0.000997354
-0.0002846542
-0.0007783929
-0.0005123612
0
0
0
0
0
-0.0005593548
0.001878221
-0.0008043388
-0.0008158814
-0.0004606988
0.0001445489
0.0007851549
-0.001574914
0
0
0
0
0
0.0002763131
-0.0001938248
0.0009716248
-0.0004088028
-0.001043687
0.0005748249
-0.001556362
-0.0006867979
0.001705692
0
0
0
0
0
-0.0003361267
0.000157419
0.0003723211
-0.0003063674
-0.0007639616
0.0007940537
-0.00058435
0.001793945
-0.0004428561
-0.001280094
0
0
0
0
0
-0.0001158064
3.32602e-05
-0.0005169347
-0.0007991504
-0.0003241455
0.0001012759
0.0004922453
-0.0004644966
-8.739072e-05
0.0003249671
0.0002560046
0
0
0
0
0
0
0
0
0
0
0
0
0
0
0
1.757038e-06
-5.241164e-06
0
0
0
0
0
0
0
0
0
0
0
0
0
0
0
2.478266e-07
2.891962e-06
-1.882285e-06
0
0
0
0
0
0
0
0
0
0
0
0
0
0
0
3.274067e-06
1.654049e-06
-4.232495e-06
-6.817462e-06
0
0
0
0
0
0
0
0
0
0
0
0
0
0
0
4.909694e-08
-4.808047e-07
5.458729e-06
1.814433e-06
-3.177653e-06
0
0
0
0
0
0
0
0
0
0
0
0
0
0
0
1.404052e-06
-3.077443e-07
6.401779e-07
2.297828e-07
-2.293081e-06
1.135781e-06
0
0
0
0
0
0
0
0
0
0
0
0
0
0
0
0
0
0
0
0
0
0
0
0
0
0
0
0
0
0
2.272233e-05
-0.0002244413
-0.0007934706
0
0
0
0
0
0.0004795556
0.00111336
-0.002133724
-0.0009235419
0
0
0
0
0
0.0008182717
-0.0008301642
-0.001338576
0.001620679
0.0008238324
0
0
0
0
0
0.0004974391
-0.001260172
-0.001267105
0.0001877397
8.120153e-05
0.001270672
0
0
0
0
0
-0.0006974196
-0.0003475451
-0.0001674085
-0.0009409533
0.0009360566
0.0003162393
0.002435754
0
0
0
0
0
-0.0002796136
-0.001499859
0.002084386
-0.0001141259
-0.0008716724
0.0006055274
-3.389845e-05
0.001000036
0
0
0
0
0
-0.0003952166
0.001532828
-0.001903443
0.0008689553
0.0008117884
0.0005113435
-0.0004562246
0.0006571792
0.0008401532
0
0
0
0
0
0.000145748
-0.000520762
-0.0002953945
0.0001917199
-0.00128211
-0.001424147
-0.0009054231
0.0002885366
0.0006988962
-0.0001086074
0
0
0
0
0
-0.0002789403
0.001023811
-0.0007574253
0.001143496
0.0002164341
0.0001341078
-0.0006507532
0.0007666197
-0.001686103
-0.0001814161
0.0003807317
0
0
0
0
0
-0.0004210083
9.791054e-05
-0.0007058869
-0.0001559089
0.0005588293
0.0004210659
-0.0004602842
-0.0006895092
-0.0008143526
-0.0001263372
-3.861652e-05
3.278288e-06
0
0
0
0
0
0
0
0
0
0
0
0
0
0
0
1.454216e-06
-1.227217e-06
5.902137e-07
0
0
0
0
0
0
0
0
0
0
0
0
0
0
0
-1.14493e-06
-8.685488e-07
8.081449e-06
-1.179408e-05
0
0
0
0
0
0
0
0
0
0
0
0
0
0
0
-7.489292e-07
-8.874518e-07
5.76707e-08
-4.472175e-06
1.685384e-06
0
0
0
0
0
0
0
0
0
0
0
0
0
0
0
5.666514e-07
-2.818696e-07
3.399744e-06
2.282312e-06
-6.458533e-07
-6.524655e-05
0
0
0
0
0
0
0
0
0
0
0
0
0
0
0
-1.868123e-06
1.271451e-07
1.290131e-06
6.368536e-07
-1.266576e-06
-1.523893e-05
-2.711647e-06
0
0
0
0
0
0
0
0
0
0
0
0
0
0
0
0
0
0
0
0
0
0
0
0
0
0
0
0
0
0
0
0
0
0
0
0.0001416362
8.119879e-05
0.0002611786
0.0006518328
0
0
0
0
0
-0.0008034977
-0.001257933
-5.573628e-05
-1.09163e-05
-0.0002306359
0
0
0
0
0
4.230776e-05
0.0004357102
0.001071779
0.001476933
0.001138358
0.001060944
0
0
0
0
0
5.826091e-05
-0.0006363421
-0.0008510577
0.002036443
-0.0008196265
-0.0006913291
0.001166141
0
0
0
0
0
1.910745e-05
0.001979084
0.000709803
0.0007257307
0.0004325839
0.0009173194
-0.0003285687
-0.0001663066
0
0
0
0
0
-7.01987e-06
-0.001208793
0.0005737097
-0.0009578034
0.002173324
0.0002349222
0.0001437987
-2.187006e-05
-0.002254562
0
0
0
0
0
7.847257e-05
-0.0002939833
-0.000524384
0.0004040215
0.002070163
0.0009629919
0.001076691
0.0009951667
-0.0007837379
-0.0002795258
0
0
0
0
0
0.0005711148
-0.0005893471
-0.0002381117
-0.001774026
-0.000790784
0.002020274
0.0003245693
6.143244e-05
0.00168468
0.0002096203
0.0002339908
0
0
0
0
0
5.874913e-05
-0.000823641
0.0006531353
0.001761236
-0.001423105
-6.899179e-05
0.0001371563
0.0002314098
0.001297116
0.0001113323
0.0001253488
1.461774e-06
0
0
0
0
0
-0.0002243797
-0.0003387119
0.0005031294
0.0008789057
0.0002312584
-0.0006193607
-0.000215536
-0.0002776055
0.0001269674
-0.0004656724
-5.536644e-05
2.529711e-06
-3.602325e-07
0
0
0
0
0
0
0
0
0
0
0
0
0
0
0
-3.166436e-06
-3.278024e-06
-7.302576e-07
-1.188691e-06
0
0
0
0
0
0
0
0
0
0
0
0
0
0
0
-8.705367e-07
3.464205e-06
-2.083205e-06
-5.656698e-06
3.808582e-06
0
0
0
0
0
0
0
0
0
0
0
0
0
0
0
6.229956e-07
5.667634e-06
2.109184e-07
-3.732024e-06
-1.973412e-06
-1.034184e-05
0
0
0
0
0
0
0
0
0
0
0
0
0
0
0
8.657986e-07
8.845065e-07
2.285721e-07
3.633483e-06
-4.900596e-07
1.123399e-05
6.108024e-05
0
0
0
0
0
0
0
0
0
0
0
0
0
0
0
1.398249e-06
2.656045e-06
-1.801725e-06
-9.635966e-07
1.86639e-06
1.309034e-05
-7.290421e-06
1.891049e-05
0
0
0
0
0
0
0
0
0
0
0
0
0
0
0
0
0
0
0
0
0
0
0
0
0
0
0
0
0
0
0
0
0
0
0
0
0
0
0
0
0.0001077848
0.0003188253
-0.00046809
0.0004831543
3.101936e-05
0
0
0
0
0
1.518858e-06
0.001179581
-0.000665857
0.0005298524
-0.001550732
-0.0007350467
0
0
0
0
0
-0.0007050014
0.0006015681
-0.0004453375
-3.062367e-05
-0.001116183
0.0004842556
-0.002456504
0
0
0
0
0
0.000789237
0.000355071
0.0002454719
-0.0008318054
0.0009760637
-0.0006765269
-0.0002625819
-0.000720814
0
0
0
0
0
-0.0001027244
0.0008751512
-0.0006464417
-0.0003362848
0.0001711012
0.0006003626
-0.0002378322
0.0002899162
0.001642217
0
0
0
0
0
-0.0002077463
-6.782202e-05
0.001128097
-6.25766e-05
-0.001767856
-0.001306119
-0.001482228
-0.00231646
-0.001089156
0.001410336
0
0
0
0
0
0.0003947711
-2.50295e-05
0.001668097
-0.0009112279
0.000871156
-0.0002110324
-0.0007000205
0.0003026086
-0.001460517
0.001200229
-0.0004703524
0
0
0
0
0
-0.0002414083
-0.0007162095
6.175986e-05
-0.001147518
-2.081905e-06
0.001404182
-0.001097856
0.001862268
-0.00123409
0.0003506722
-0.000624637
-2.188247e-06
0
0
0
0
0
0.000836015
0.001636882
0.0007992794
-0.001751291
-0.0003173992
0.001233584
7.123053e-05
-0.0003592133
0.0004575026
0.0001427258
-9.772467e-05
-7.582427e-07
-3.037277e-06
0
0
0
0
0
-2.78549e-06
-0.0002621377
0.0001848966
-0.0007726608
-0.000784947
-0.0001967378
0.0003748094
0.0004668934
5.055029e-05
-0.000253183
0.0004415932
1.343015e-06
-1.432601e-06
1.916073e-06
0
0
0
0
0
0
0
0
0
0
0
0
0
0
0
1.425137e-06
5.350129e-07
-3.950087e-06
-4.03572e-06
-5.15365e-07
0
0
0
0
0
0
0
0
0
0
0
0
0
0
0
5.800398e-07
2.698627e-06
-4.27709e-06
-1.899746e-06
3.28027e-06
3.281099e-05
0
0
0
0
0
0
0
0
0
0
0
0
0
0
0
3.072164e-06
4.117467e-08
-4.862486e-06
-4.48302e-06
7.222947e-07
-5.944988e-06
-3.061471e-05
0
0
0
0
0
0
0
0
0
0
0
0
0
0
0
-1.515206e-06
-1.484052e-06
-3.924716e-08
1.19901e-06
-1.952141e-06
-5.444031e-05
-1.81004e-05
-4.927834e-07
0
0
0
0
0
0
0
0
0
0
0
0
0
0
0
-2.311684e-06
-2.254534e-07
-1.09412e-06
4.447486e-06
9.530985e-07
-9.65802e-06
-1.170789e-06
1.02121e-05
-2.642724e-05
0
0
0
0
0
0
0
0
0
0
0
0
0
0
0
0
0
0
0
0
0
0
0
0
0
0
0
0
0
0
0
0
0
0
0
0
0
0
0
0
0
0
0
0
0
9.951026e-05
-0.0004168759
4.241808e-05
4.705739e-05
0.0001309657
-0.000104849
0
0
0
0
0
0.0003160819
-0.001264467
0.0007608952
0.0009157752
-3.718872e-05
0.0002752466
-0.00155776
0
0
0
0
0
-0.0003930017
0.001269256
-0.001573399
0.001629271
-0.0008300904
0.001604508
-0.000663046
0.0001241281
0
0
0
0
0
0.0005217276
-0.001442279
-0.00178138
0.0009608115
0.0005699351
-0.001396317
-0.0001565592
-0.000393666
-7.375836e-05
0
0
0
0
0
0.0002312341
-0.0001836424
-0.0005914603
0.000952655
0.0004470489
0.0003186325
0.0002964032
0.0005087097
1.151729e-05
-0.001148822
0
0
0
0
0
-0.0006077125
-0.0005115294
-0.0007088863
0.000713296
-0.000920417
0.0005183957
0.001101257
-0.0006187287
0.001550676
-0.0009528283
-0.0003462247
0
0
0
0
0
-0.0001428469
0.0005961954
-0.0007049794
-0.0003755874
0.002407238
-0.0004062954
-0.001340664
-0.001900106
-0.000692733
-0.000246094
-4.408399e-05
-1.336928e-06
0
0
0
0
0
-0.000446915
-0.001021838
-0.0005281342
-0.0006308358
0.001203312
-0.0003747112
-0.001586712
0.0007374164
7.092296e-05
0.0006713714
-0.0003367932
-2.714224e-06
6.723946e-06
0
0
0
0
0
0.0002119588
-0.0009621956
-0.0003108731
0.0004648312
0.001913365
0.0006644201
-0.0003246525
0.0001865301
0.001225454
-0.001106603
9.993292e-05
-8.052713e-08
-6.859606e-07
2.220085e-07
0
0
0
0
0
0.0001420357
0.000349042
0.0002040804
0.0005698373
0.001476137
4.656794e-05
-0.0001869569
-0.0009350479
-4.602256e-05
0.0001327818
0.0001544448
-1.806729e-06
2.314872e-06
-4.737659e-07
2.819399e-07
0
0
0
0
0
0
0
0
0
0
0
0
0
0
0
-3.161045e-06
1.32193e-07
-1.256269e-06
-6.744147e-06
-1.035036e-06
1.759421e-05
0
0
0
0
0
0
0
0
0
0
0
0
0
0
0
-6.086285e-07
-5.922735e-07
1.587626e-07
-1.668371e-06
-2.641009e-06
9.77533e-06
-2.301037e-05
0
0
0
0
0
0
0
0
0
0
0
0
0
0
0
1.524702e-06
-6.197695e-07
-2.384106e-06
5.482972e-07
-6.536821e-08
-1.892455e-05
-1.868285e-05
2.15415e-05
0
0
0
0
0
0
0
0
0
0
0
0
0
0
0
-6.205869e-07
-1.177287e-06
3.876915e-06
2.565828e-06
-3.745502e-06
4.508093e-06
3.318626e-05
2.966167e-05
2.549826e-05
0
0
0
0
0
0
0
0
0
0
0
0
0
0
0
-8.631119e-07
3.122579e-07
-1.094582e-06
4.098968e-06
-1.181696e-06
-2.304283e-06
1.499251e-05
1.678219e-05
-2.388424e-05
1.469266e-06
0
0
0
0
0
0
0
0
0
0
0
0
0
0
0
0
0
0
0
0
0
0
0
0
0
0
0
0
0
0
0
0
0
0
0
0
0
0
0
0
0
0
0
0
0
0
0
0
0
0
-0.0001743514
0.000399561
-0.0004960587
9.072119e-05
0.0001291092
-0.0001991518
0.0004841851
0
0
0
0
0
0.0005495707
0.0006423859
0.0007575035
-0.001577986
-0.0004228973
-0.0005687214
-0.0004180907
0.001451811
0
0
0
0
0
-0.0002879709
0.0003081621
0.0007523852
-7.67548e-05
-0.001017065
0.0006942614
0.0005815085
0.0007854703
-0.001078243
0
0
0
0
0
2.652059e-05
0.0001488842
0.001300747
0.001310941
-0.0005026673
-0.0003882882
-0.0005356811
0.0006066794
0.001492727
0.001461975
0
0
0
0
0
-0.0004152872
0.0006139502
-0.000515611
-0.0003187695
-0.002327199
-0.001742038
-0.001570093
0.001842368
0.0002903298
0.001090554
0.0003240911
0
0
0
0
0
-0.0003200111
0.0004115733
0.001377188
-0.0004181403
-0.0006584431
-0.000408322
0.0001070067
-0.0001762403
0.0009408688
0.0008411072
-3.13799e-06
4.185837e-06
0
0
0
0
0
-0.0004141616
0.001170118
-0.001108378
6.848956e-05
0.0007373622
-0.001207932
-0.0002291855
-0.0007137637
-0.0003790123
-0.0009119404
-5.94624e-05
3.758847e-06
-4.129801e-06
0
0
0
0
0
-0.0008886666
0.001281711
-0.0003280189
0.001150983
0.002718586
-0.002669978
-0.0001092934
0.001224146
-0.0012344
0.0009107476
1.137675e-05
4.422157e-07
-1.627151e-06
-1.938899e-06
0
0
0
0
0
-0.0004623148
-0.0004701562
0.0004186274
-0.0005884923
-0.002324757
-0.001097193
-0.0007931973
0.0006914089
-0.0006703039
0.0001062837
0.0004246888
1.046466e-06
-5.309547e-06
4.629662e-07
-1.071606e-06
0
0
0
0
0
-0.0001029045
3.385071e-05
-0.0003427752
0.0004093063
-0.000561354
-0.0004579545
-0.000157833
-7.147514e-05
-0.0002876359
0.0003823879
-6.926549e-05
1.314198e-06
-2.180043e-06
-4.107727e-06
-6.54392e-07
-3.174217e-05
0
0
0
0
0
0
0
0
0
0
0
0
0
0
0
1.654781e-06
1.99331e-06
7.559052e-07
-2.29442e-06
-7.529624e-06
-1.286552e-05
3.079758e-05
0
0
0
0
0
0
0
0
0
0
0
0
0
0
0
-1.019072e-06
4.16292e-06
2.829848e-06
-6.169534e-07
-4.211362e-07
3.200967e-06
2.407878e-06
-2.570872e-06
0
0
0
0
0
0
0
0
0
0
0
0
0
0
0
-3.152294e-06
-1.779337e-06
-6.131375e-07
-2.296436e-06
-7.463527e-08
-5.068426e-06
-5.174752e-06
2.489673e-05
3.880948e-06
0
0
0
0
0
0
0
0
0
0
0
0
0
0
0
4.984531e-06
1.305571e-06
3.181997e-07
-3.777517e-06
-1.55339e-06
-1.685198e-05
5.339665e-06
1.404103e-05
-2.36346e-05
-3.124098e-05
0
0
0
0
0
0
0
0
0
0
0
0
0
0
0
-1.204003e-07
2.432794e-06
-2.946033e-06
2.474718e-06
-1.469339e-06
-5.839695e-06
-3.675639e-06
-1.864551e-05
-2.797084e-05
1.048442e-05
-65426.9
0
0
0
0
0
0
0
0
0
0
0
0
0
0
0
0
0
0
0
0
0
0
0
0
0
0
0
0
0
0
0
0
0
0
0
0
0
0
0
0
0
0
0
0
0
0
0
0
0
0
0
0
0
0
0
-9.027691e-05
0.0003058972
-0.0003966844
0.000424545
2.083598e-05
7.444719e-05
8.533325e-05
0.0002828266
0
0
0
0
0
3.127625e-05
-0.001351607
-0.001279957
0.0003051025
-0.0002091064
-0.000885314
-0.0006956536
0.001230373
-0.000164585
0
0
0
0
0
-0.0006514856
-0.001344284
-0.001185211
-0.001067174
0.000966876
0.001634709
-0.0002650864
-0.000556524
-0.001624936
-0.001741063
0
0
0
0
0
0.0002084016
0.0003400937
-1.874504e-05
-0.0005926285
0.001034902
0.001153673
0.0001587517
-0.0003905725
-0.001908632
-0.001188894
-0.0002450263
0
0
0
0
0
-8.398403e-05
0.0007401997
0.0002153704
0.0006921622
-0.0009474023
0.002892606
-0.0001617052
0.0003453546
-0.002601109
0.00110239
-0.0003193511
-1.480501e-06
0
0
0
0
0
0.001070428
0.0008953123
0.0005048382
-0.000400357
-0.0002857552
0.0008831738
-0.001000525
-0.0001577876
0.0005539723
0.0009544301
-7.188219e-05
4.57997e-06
-7.568675e-07
0
0
0
0
0
0.0006321228
-0.002103254
0.001299288
-0.002115729
-0.002690218
0.002160043
0.001642596
-0.001649629
0.001886435
0.0002696722
0.0002911143
1.485812e-06
-1.83545e-06
-5.272569e-06
0
0
0
0
0
-0.0001837589
-0.0005280567
-0.0001626908
-0.0004509117
-0.0001299596
-0.001556832
2.178143e-05
0.0007838604
0.001890598
-0.0007964007
1.236713e-05
-5.27104e-07
-2.345047e-07
3.893276e-06
3.483162e-06
0
0
0
0
0
-0.0001643043
0.0001255759
-2.41326e-05
-0.0007280247
-0.000251455
0.0004634044
0.0008402215
0.0007203152
0.001387876
-0.001332483
-0.0001257442
-5.705572e-07
-2.224751e-06
-3.802181e-06
2.303468e-06
-7.356097e-06
0
0
0
0
0
-0.0001306406
0.0001904139
0.0002577382
-0.0001756832
-0.0005841409
7.792443e-05
-0.0007092631
0.0007325819
-0.0002026423
0.001119191
-1.25735e-05
2.857044e-08
-2.4597e-07
2.808178e-07
-4.546284e-08
-1.032769e-05
1.169371e-05
0
0
0
0
0
0
0
0
0
0
0
0
0
0
0
-2.355582e-06
-2.706925e-06
-6.023355e-06
-3.941095e-06
-4.250225e-07
-4.131771e-05
2.938033e-05
1.578781e-06
0
0
0
0
0
0
0
0
0
0
0
0
0
0
0
-3.235863e-06
5.669437e-06
1.058654e-07
-3.699348e-06
2.177076e-06
1.129213e-05
4.034219e-05
1.285257e-05
-1.023551e-05
0
0
0
0
0
0
0
0
0
0
0
0
0
0
0
1.656487e-06
1.137518e-06
-2.392532e-06
3.6956e-07
-2.053453e-06
4.495906e-06
4.464015e-06
-3.698128e-06
-1.585899e-05
1.636055e-06
0
0
0
0
0
0
0
0
0
0
0
0
0
0
0
-5.213463e-07
5.322554e-06
-2.558311e-06
-3.139715e-06
1.063117e-06
-6.96219e-06
3.041764e-05
-1.059073e-05
-3.460307e-05
7.852925e-06
-65993.81
0
0
0
0
0
0
0
0
0
0
0
0
0
0
0
3.067949e-06
-1.374631e-06
-3.323977e-07
-2.549563e-07
-1.297584e-06
5.385452e-06
1.221226e-05
1.726067e-05
5.091914e-06
2.053258e-05
-60943.36
-65995.33
0
0
0
0
0
0
0
0
0
0
0
0
0
0
0
0
0
0
0
0
0
0
0
0
0
0
0
0
0
0
0
0
0
0
0
0
0
0
0
0
0
0
0
0
0
0
0
0
0
0
0
0
0
0
0
0
0
0
0
0
7.815693e-05
-8.211181e-05
-0.000333411
-0.0003701178
0.0001839284
0.0004580594
-0.000463107
-0.000346887
0.0001857397
0
0
0
0
0
5.424109e-05
2.95419e-06
0.001988889
0.002238543
-0.001473837
-0.0005993874
-0.0004664722
0.0003327259
0.0005858464
0.001508128
0
0
0
0
0
-7.52132e-06
0.001616205
0.001909794
-0.001310279
-0.00163598
-0.000111704
-0.001892656
0.0004096519
0.0006926559
0.0004587666
-5.045677e-05
0
0
0
0
0
0.0003639963
0.0005411762
-0.001377848
0.001450699
0.001306096
-0.0007908404
0.0002637152
0.0003271091
0.0003666581
-0.0005092712
-0.0001677921
-4.431421e-06
0
0
0
0
0
-3.795933e-05
0.0006009253
-0.0009126563
-0.0005878938
0.0006364245
-0.0006888472
-0.0004267348
-0.0001388551
0.0002552824
9.950183e-05
-0.0005696417
-1.620102e-06
-6.794752e-07
0
0
0
0
0
6.991269e-05
-8.391763e-05
-0.001510033
0.001151341
0.0006883531
-0.000471711
-0.001472874
0.001992643
-0.0003905692
-0.001009739
-0.0003044516
-2.897261e-06
-5.693839e-07
-9.151747e-06
0
0
0
0
0
9.903659e-05
-0.0003834946
0.000843741
0.0003029492
0.00227231
0.001264073
-0.001271159
-0.002640904
-0.001211535
-1.358513e-05
-1.378987e-05
-2.836095e-07
-5.098694e-07
-2.183889e-06
-1.907337e-06
0
0
0
0
0
0.0001411994
-0.001032211
0.001926773
0.0008427715
0.0006662217
-0.0002741972
4.390247e-05
-0.0007771456
-0.0004955522
-0.0004020273
0.0002734495
-3.537714e-06
9.844379e-07
-4.089284e-06
6.670233e-07
-9.721862e-06
0
0
0
0
0
0.0002846632
-4.22593e-05
-0.0003431656
0.0009902048
-0.0001724375
0.000570054
0.00193027
-0.001494649
0.0006322179
-0.001854533
0.0004883712
1.422577e-07
-3.367103e-08
-5.589594e-07
-1.901359e-06
5.24711e-06
-3.411626e-06
0
0
0
0
0
3.722706e-05
-2.012697e-05
-0.0005536577
0.0002001364
0.0003315443
0.0009397313
0.0003559125
-0.0001148426
0.0002540859
0.0001040047
-0.0003000378
9.969409e-07
-1.848857e-06
2.472213e-06
-1.29289e-06
-1.245882e-05
-7.901504e-06
3.037887e-05
0
0
0
0
0
0
0
0
0
0
0
0
0
0
0
8.758742e-07
-1.581853e-06
5.894639e-07
1.998738e-06
1.918611e-06
-2.323671e-05
3.350439e-05
-1.068995e-05
6.772476e-06
0
0
0
0
0
0
0
0
0
0
0
0
0
0
0
1.384457e-06
-8.382275e-08
3.53864e-06
8.183655e-07
8.952207e-07
4.186561e-06
1.96585e-06
-4.092842e-05
-8.806734e-06
9.013906e-06
0
0
0
0
0
0
0
0
0
0
0
0
0
0
0
3.011261e-07
2.483568e-06
-5.518543e-07
-1.880338e-06
-2.348255e-06
-1.618132e-05
-4.802063e-06
3.963415e-06
2.520549e-05
1.957059e-05
-67151.36
0
0
0
0
0
0
0
0
0
0
0
0
0
0
0
4.964179e-06
3.580172e-06
8.839789e-06
-4.457341e-07
1.640381e-06
-2.893765e-05
-8.603072e-06
-1.015271e-05
1.599809e-05
1.785226e-05
-61316.18
-66572.03
0
0
0
0
0
0
0
0
0
0
0
0
0
0
0
-3.317046e-07
-5.214376e-06
3.987381e-06
2.018963e-06
-9.512385e-07
-9.616958e-06
-8.069006e-06
-1.419412e-05
-1.265058e-05
1.816174e-05
-57280.06
-61452.53
-67454.57
0
0
0
0
0
0
0
0
0
0
0
0
0
0
0
0
0
0
0
0
0
0
0
0
0
0
0
0
0
0
0
0
0
0
0
0
0
0
0
0
0
0
0
0
0
0
0
0
0
0
0
0
0
0
0
0
0
0
0
0
0
0
0
0
0
8.525125e-05
0.000227895
-0.0004413994
-0.0002886478
0.0003372832
-0.0003131101
-0.0001706688
0.000275714
-0.0002057561
-8.738695e-06
0
0
0
0
0
0.0001242799
-0.0001417159
-7.048013e-05
0.0007258752
-0.0002736702
0.001590266
-0.000232535
0.001051764
0.0001962048
0.0005963499
-0.0003183022
0
0
0
0
0
-0.0003157079
-0.00144228
0.001197653
-0.0008819945
-0.0007358348
0.0002932418
-0.0009394584
0.001044376
0.001122302
0.0004426174
-0.0002097707
2.652517e-06
0
0
0
0
0
-4.367422e-05
-0.0002802258
0.0006371182
0.0002407021
-0.002718844
0.001609992
0.0008944002
0.0007897171
-0.0001940033
0.000812362
3.024248e-05
-2.273754e-06
-3.597117e-06
0
0
0
0
0
-0.0005813044
-0.0001281959
0.0003211523
-0.001094495
8.280054e-06
0.0001940617
-7.631005e-06
-0.0005630089
-0.0008586651
-2.482871e-06
-0.0001495921
5.53182e-06
2.875523e-06
1.601848e-07
0
0
0
0
0
-0.0003426306
0.0002952842
-0.0004887884
4.071845e-05
-0.0008778293
0.001011947
0.0001692291
0.001520302
0.00118134
-0.001495015
0.0003764967
9.281095e-07
-2.793756e-06
-1.440371e-07
-2.885911e-06
0
0
0
0
0
0.0002840065
0.0003454707
-0.0004153189
-1.351013e-05
-0.001176734
-0.0007072359
-0.0009122077
0.001754227
0.0007681485
0.001439065
-0.0001234653
2.804437e-06
-2.491179e-06
3.835046e-06
9.310069e-07
-1.39318e-05
0
0
0
0
0
0.0001896776
-0.0009261047
0.0003251208
-0.0004921033
0.0004229005
-6.834315e-05
-0.0006931186
0.0006830924
-0.0009935833
0.0005148071
9.968468e-05
3.983678e-07
1.66188e-06
-7.569311e-07
-4.503844e-06
-3.483871e-06
2.194915e-05
0
0
0
0
0
-5.668289e-05
-0.0004407606
0.001243342
-0.0003755579
-0.0003717314
-0.0009666996
-0.0004054098
-0.0008767027
0.0005221658
-0.000589183
0.0003278778
-1.412176e-06
6.913237e-07
3.008805e-06
-1.764432e-06
1.145854e-05
-9.729964e-06
-1.31932e-05
0
0
0
0
0
-4.824411e-05
-0.0005520025
-6.370802e-05
0.0002017453
-0.000166586
-0.0001732682
0.0008413942
6.430485e-07
0.0002508034
0.0005148644
-8.198175e-05
1.609492e-06
2.748196e-06
5.836795e-06
-9.152959e-07
-1.512203e-05
-5.23034e-06
4.759855e-05
-4.539905e-06
0
0
0
0
0
0
0
0
0
0
0
0
0
0
0
1.885132e-06
-1.516434e-06
-4.031247e-06
-7.912819e-07
-8.653939e-07
-2.438761e-06
2.307801e-05
-6.246982e-06
1.149974e-05
6.230203e-06
0
0
0
0
0
0
0
0
0
0
0
0
0
0
0
-1.932777e-06
3.346613e-06
-5.920266e-06
3.64659e-07
3.963157e-06
6.466434e-06
7.692889e-06
-1.339531e-05
8.429203e-06
-1.870807e-06
-68885.6
0
0
0
0
0
0
0
0
0
0
0
0
0
0
0
-2.39692e-06
-3.099389e-06
-1.656363e-06
-3.903533e-06
-4.476559e-06
-8.829315e-06
1.610163e-05
1.072624e-05
-6.278563e-06
-2.86013e-05
-62056.78
-67749.23
0
0
0
0
0
0
0
0
0
0
0
0
0
0
0
2.920894e-06
2.899741e-06
-5.414981e-06
2.910982e-06
-5.091249e-06
9.96469e-06
2.853718e-05
2.079675e-05
2.462992e-06
-2.965869e-06
-57571.85
-61832.13
-68054.82
0
0
0
0
0
0
0
0
0
0
0
0
0
0
0
-1.460158e-06
-1.235316e-06
3.862674e-07
-3.718954e-06
-2.405179e-07
-7.062169e-06
1.442265e-05
-2.154812e-06
-6.474882e-06
-2.476527e-06
-54359.17
-57744
-62748.27
-69847.89
0
0
0
0
0
0
0
0
0
0
0
0
0
0
0
0
0
0
0
0
0
0
0
0
0
0
0
0
0
0
0
0
0
0
0
0
0
0
0
0
0
0
0
0
0
0
0
0
0
0
0
0
0
0
0
0
0
0
0
0
0
0
0
0
0
0
0
0
0
0
0.0002462898
-0.0006120386
-0.0003760303
-6.944352e-05
0.0001529064
-0.000854464
0.0006281935
-0.0001637482
0.0001556939
-0.0002698023
-6.489203e-05
0
0
0
0
0
0.0003970356
0.0008150719
-0.0001726255
0.0002349179
-0.001386082
0.0003512439
-0.0009952627
-0.0004690441
0.001848744
-0.000388389
-0.000645816
1.121044e-06
0
0
0
0
0
0.0004731396
-7.060478e-05
0.0001185224
-0.0001918761
-0.0003578614
-4.633156e-05
0.001482552
0.0001495339
-0.0002155652
-0.00131851
-0.0004396299
-9.427935e-07
-1.74405e-07
0
0
0
0
0
0.0002790716
-0.0002577988
-0.000631791
-0.0002329077
0.001032282
0.001116536
-0.0009102568
-0.00109579
0.001642516
-0.0006383577
-0.0004447515
-1.701762e-06
-1.353273e-06
-4.777753e-06
0
0
0
0
0
0.0005323492
0.0003993333
0.001157303
-0.001625254
0.0001307848
0.001030765
0.0003410402
-0.001363028
-0.001247995
0.000725631
0.0002961563
4.934574e-07
-4.070115e-06
-3.370809e-06
-2.063984e-06
0
0
0
0
0
-0.0007728531
-0.0001302469
0.0007011387
-0.0002522334
0.0007720633
0.0008033364
0.0002420568
-0.0008491105
-0.002635403
-0.0003930155
0.0006148584
2.713536e-06
1.099146e-06
-1.634152e-06
-6.463135e-07
-1.668827e-05
0
0
0
0
0
0.0002528588
-8.805234e-05
0.0002356385
-5.911346e-05
-0.0005351219
0.0003760523
-0.0002061873
-0.0002708773
-0.0005651521
2.5623e-05
-0.0007647267
-4.738794e-07
9.888197e-07
-1.478286e-06
-1.543132e-06
-3.38033e-06
5.867604e-06
0
0
0
0
0
0.000135081
0.0007314106
-0.0005749143
5.974007e-06
-0.000483607
0.0007298867
-0.0001140536
-0.0005194678
-0.001012571
-0.0002880627
6.144461e-05
-6.035201e-07
-2.330379e-06
-1.821877e-06
1.409669e-06
-1.79848e-05
1.270926e-05
-2.245297e-05
0
0
0
0
0
5.843849e-07
-0.0001059246
0.0003767005
-0.0007972675
-0.001376451
0.0008003847
-0.001003987
-0.0004643713
-0.0007435033
-0.0007621332
0.0003093568
-2.079979e-07
-6.599022e-07
2.108789e-06
3.430871e-06
-5.350362e-07
-1.965484e-05
9.127107e-06
1.109978e-05
0
0
0
0
0
0.0001685057
0.0006045822
-0.0004668502
-0.0002112991
-0.0001976579
-0.0001595954
0.0004936765
-0.0009408418
3.351285e-05
-0.0002207959
-0.0003576916
-2.557866e-06
3.06476e-07
2.790479e-06
-4.558159e-06
-6.665373e-07
4.390536e-07
1.400786e-05
-2.087727e-05
6.878978e-06
0
0
0
0
0
0
0
0
0
0
0
0
0
0
0
-1.592489e-06
1.22821e-06
3.492473e-06
-2.9375e-06
-9.031829e-07
-1.707789e-06
3.152794e-05
1.190792e-05
-1.021144e-05
7.567628e-06
-71117.48
0
0
0
0
0
0
0
0
0
0
0
0
0
0
0
1.641861e-06
-2.578685e-06
-4.248778e-07
-2.303395e-06
5.54734e-06
1.319174e-05
4.366346e-06
3.869561e-06
2.251847e-05
9.07721e-07
-63103.02
-69512.09
0
0
0
0
0
0
0
0
0
0
0
0
0
0
0
1.023479e-06
3.037861e-06
8.971015e-07
4.222963e-06
8.187979e-07
-1.191251e-05
3.340591e-05
-1.360781e-06
1.063876e-05
9.789423e-06
-58143.76
-62586.23
-69279.84
0
0
0
0
0
0
0
0
0
0
0
0
0
0
0
6.768161e-06
-3.318056e-06
8.30322e-06