/*--------------------------------*- C++ -*----------------------------------*\
| =========                 |                                                 |
| \\      /  F ield         | OpenFOAM: The Open Source CFD Toolbox           |
|  \\    /   O peration     | Version:  2306                                  |
|   \\  /    A nd           | Website:  www.openfoam.com                      |
|    \\/     M anipulation  |                                                 |
\*---------------------------------------------------------------------------*/
FoamFile
{
    version     2.0;
    format      ascii;
    arch        "LSB;label=32;scalar=64";
    class       volScalarField;
    location    "0.3";
    object      k;
}
// * * * * * * * * * * * * * * * * * * * * * * * * * * * * * * * * * * * * * //

dimensions      [1 1 -3 -1 0 0 0];

internalField   nonuniform List<scalar> 
52000
(
20
20
20
20
20
20
20
20
20
20
20
20
20
20
20
20
20
20
20
20
20
20
20
20
20
20
20
20
20
20
20
20
20
20
20
20
20
20
20
20
20
20
20
20
20
20
20
20
20
20
20
20
20
20
20
20
20
20
20
20
20
20
20
20
20
20
20
20
20
20
20
20
20
20
20
20
20
20
20
20
20
20
20
20
20
20
20
20
20
20
20
20
20
20
20
20
20
20
20
20
20
20
20
20
20
20
20
20
20
20
20
20
20
20
20
20
20
20
20
20
20
20
20
20
20
20
20
20
20
20
20
20
20
20
20
20
20
20
20
20
20
20
20
20
20
20
20
20
20
20
20
20
20
20
20
20
20
20
20
20
20
20
20
20
20
20
20
20
20
20
20
20
20
20
20
20
20
20
20
20
20
20
20
20
20
20
20
20
20
20
20
20
20
20
20
20
20
20
20
20
20
20
20
20
20
20
20
20
20
20
20
20
20
20
20
20
20
20
20
20
20
20
20
20
20
20
20
20
20
20
20
20
20
20
20
20
20
20
20
20
0.07942979
20
20
20
20
20
20
20
20
20
20
20
20
20
20
20
20
20
20
20
20
20
20
20
20
20
20
20
20
20
20
20
20
20
20
20
20
20
20
20
20
20
20
20
20
20
20
20
20
20
20
20
20
20
20
20
20
20
20
20
20
20
20
20
20
20
0.07891244
20
20
20
20
20
0.08003454
0.07890377
20
20
20
20
20
20
20
20
20
20
20
20
20
20
20
20
20
20
20
20
20
20
20
20
20
20
20
20
20
20
20
20
20
20
20
20
20
20
20
20
20
20
20
20
20
20
20
20
20
20
20
20
20
20
20
20
20
20
20
20
20
20
20
20
20
20
20
20
20
20
0.07862656
20
20
20
20
20
0.07990847
0.07764203
20
20
20
20
20
0.08019362
0.07990735
0.07861068
20
20
20
20
20
20
20
20
20
20
20
20
20
20
20
20
20
20
20
20
20
20
20
20
20
20
20
20
20
20
20
20
20
20
20
20
20
20
20
20
20
20
20
20
20
20
20
20
20
20
20
20
20
20
20
20
20
20
20
20
20
20
20
20
20
20
20
20
20
20
20
20
20
20
20
0.07846439
20
20
20
20
20
0.07979941
0.07685538
20
20
20
20
20
0.08014314
0.07953543
0.07684332
20
20
20
20
20
0.08032509
0.08014635
0.07979809
0.07844019
20
20
20
20
20
20
20
20
20
20
20
20
20
20
20
20
20
20
20
20
20
20
20
20
20
20
20
20
20
20
20
20
20
20
20
20
20
20
20
20
20
20
20
20
20
20
20
20
20
20
20
20
20
20
20
20
20
20
20
20
20
20
20
20
20
20
20
20
20
20
20
20
20
20
20
20
20
20
20
20
0.07838914
20
20
20
20
20
0.07971934
0.07638396
20
20
20
20
20
0.08009768
0.07920955
0.07565847
20
20
20
20
20
0.08030101
0.07999893
0.07920643
0.07635172
20
20
20
20
20
0.08044304
0.08030579
0.08010501
0.07971805
0.07835428
20
20
20
20
20
20
20
20
20
20
20
20
20
20
20
20
20
20
20
20
20
20
20
20
20
20
20
20
20
20
20
20
20
20
20
20
20
20
20
20
20
20
20
20
20
20
20
20
20
20
20
20
20
20
20
20
20
20
20
20
20
20
20
20
20
20
20
20
20
20
20
20
20
20
20
20
20
20
20
20
20
20
20
20
20
0.07838914
20
20
20
20
20
0.07967699
0.07616068
20
20
20
20
20
0.08006291
0.07896841
0.07491568
20
20
20
20
20
0.08027972
0.07986445
0.07867901
0.07488776
20
20
20
20
20
0.08042925
0.08023837
0.0798681
0.07895888
0.0760965
20
20
20
20
20
0.08055159
0.08043436
0.08029013
0.08007556
0.07967603
0.07834021
20
20
20
20
20
20
20
20
20
20
20
20
20
20
20
20
20
20
20
20
20
20
20
20
20
20
20
20
20
20
20
20
20
20
20
20
20
20
20
20
20
20
20
20
20
20
20
20
20
20
20
20
20
20
20
20
20
20
20
20
20
20
20
20
20
20
20
20
20
0.3561645
20
20
20
20
20
20
20
20
20
20
20
20
20
20
20
20
20
20
20
20
0.07846439
20
20
20
20
20
0.07967699
0.07616068
20
20
20
20
20
0.080044
0.07884037
0.07455496
20
20
20
20
20
0.08026355
0.07976071
0.0782837
0.07393918
20
20
20
20
20
0.08041744
0.08017763
0.07964864
0.07827306
0.07447681
20
20
20
20
20
0.08054211
0.0803979
0.08018377
0.07976846
0.07882099
0.07605107
20
20
20
20
20
0.08065263
0.08054707
0.08042847
0.08028117
0.08006362
0.07967761
0.07839751
20
20
20
20
20
20
20
20
20
20
20
20
20
20
20
20
20
20
20
20
20
20
20
20
20
20
20
20
20
20
20
20
20
20
20
20
20
20
20
20
20
20
20
20
20
20
20
20
20
20
20
20
20
20
20
20
20
0.3561572
20
20
20
20
20
20
20
20
20
20
20
20
20
20
20
0.3562516
0.3562126
20
20
20
20
20
20
20
20
20
20
20
20
20
20
20
20
20
20
20
20
0.07862656
20
20
20
20
20
0.07971934
0.07638396
20
20
20
20
20
0.080044
0.07884037
0.07455496
20
20
20
20
20
0.08025478
0.07970406
0.0780723
0.07346631
20
20
20
20
20
0.08040867
0.08013105
0.07947735
0.07775354
0.07340376
20
20
20
20
20
0.08053423
0.08036595
0.08008628
0.07948045
0.0780426
0.07440087
20
20
20
20
20
0.08064506
0.08052335
0.08037272
0.08014539
0.07971715
0.07880982
0.0762142
20
20
20
20
20
0.08074737
0.08064972
0.08054497
0.08042729
0.0802817
0.08007309
0.07972482
0.07853701
20
20
20
20
20
20
20
20
20
20
20
20
20
20
20
20
20
20
20
20
20
20
20
20
20
20
20
20
20
20
20
20
20
20
20
20
20
20
20
20
20
20
20
20
0.3561422
20
20
20
20
20
20
20
20
20
20
20
20
20
20
20
0.3562466
0.3562043
20
20
20
20
20
20
20
20
20
20
20
20
20
20
20
0.3563344
0.356296
0.3562619
20
20
20
20
20
20
20
20
20
20
20
20
20
20
20
20
20
20
20
20
0.07891244
20
20
20
20
20
0.07979941
0.07685538
20
20
20
20
20
0.08006291
0.07896841
0.07491568
20
20
20
20
20
0.08025478
0.07970406
0.0780723
0.07346631
20
20
20
20
20
0.08040398
0.08010564
0.0793832
0.07747388
0.07286293
20
20
20
20
20
0.0805285
0.08034202
0.08001054
0.07925354
0.07744907
0.07330224
20
20
20
20
20
0.08063886
0.08050315
0.08032298
0.08001919
0.07938961
0.0780181
0.0746603
20
20
20
20
20
0.08074074
0.08063141
0.08050983
0.08035812
0.08013122
0.07972586
0.07893041
0.07660823
20
20
20
20
20
0.08083659
0.0807451
0.08064901
0.08054665
0.08043231
0.08029372
0.08010552
0.0798165
0.07879031
20
20
20
20
20
20
20
20
20
20
20
20
20
20
20
20
20
20
20
20
20
20
20
20
20
20
20
20
20
20
0.3561171
20
20
20
20
20
20
20
20
20
20
20
20
20
20
20
0.3562366
0.3561865
20
20
20
20
20
20
20
20
20
20
20
20
20
20
20
0.35633
0.356291
0.3562528
20
20
20
20
20
20
20
20
20
20
20
20
20
20
20
0.3564104
0.3563738
0.3563412
0.3563124
20
20
20
20
20
20
20
20
20
20
20
20
20
20
20
20
20
20
20
20
0.07942979
20
20
20
20
20
0.07990847
0.07764203
20
20
20
20
20
0.08009768
0.07920955
0.07565847
20
20
20
20
20
0.08026355
0.07976071
0.0782837
0.07393918
20
20
20
20
20
0.08040398
0.08010564
0.0793832
0.07747388
0.07286293
20
20
20
20
20
0.08052548
0.08032916
0.07996891
0.07912813
0.07712826
0.07274722
20
20
20
20
20
0.08063443
0.08048841
0.08028521
0.07992003
0.07912993
0.07741332
0.07363854
20
20
20
20
20
0.08073536
0.08061614
0.0804794
0.08029548
0.07998989
0.07939614
0.07820738
0.07527719
20
20
20
20
20
0.08083052
0.08072934
0.0806225
0.0805044
0.08035807
0.08014703
0.0797982
0.07917583
0.07729309
20
20
20
20
20
0.08092091
0.08083458
0.08074489
0.08065164
0.08055312
0.08044469
0.08031834
0.08016055
0.07995045
0.0792475
20
20
20
20
20
20
20
20
20
20
20
20
20
20
20
0.3560682
20
20
20
20
20
20
20
20
20
20
20
20
20
20
20
0.3562217
0.3561546
20
20
20
20
20
20
20
20
20
20
20
20
20
20
20
0.3563215
0.3562811
0.3562329
20
20
20
20
20
20
20
20
20
20
20
20
20
20
20
0.3564064
0.3563697
0.3563362
0.3563028
20
20
20
20
20
20
20
20
20
20
20
20
20
20
20
0.3564811
0.3564452
0.3564138
0.3563872
0.3563644
20
20
20
20
20
20
20
20
20
20
20
20
20
20
20
20
20
20
20
20
20
20
20
20
20
0.08003454
0.07890377
20
20
20
20
20
0.08014314
0.07953543
0.07684332
20
20
20
20
20
0.08027972
0.07986445
0.07867901
0.07488776
20
20
20
20
20
0.08040867
0.08013105
0.07947735
0.07775354
0.07340376
20
20
20
20
20
0.08052548
0.08032916
0.07996891
0.07912813
0.07712826
0.07274722
20
20
20
20
20
0.08063212
0.08048063
0.08026475
0.07986516
0.07898587
0.07708606
0.07312496
20
20
20
20
20
0.08073155
0.08060524
0.08045693
0.08024733
0.07987789
0.07913388
0.07765643
0.07442427
20
20
20
20
20
0.0808256
0.08071635
0.08060007
0.08046729
0.08028995
0.08000797
0.07950519
0.0785949
0.07630864
20
20
20
20
20
0.08091523
0.08082022
0.08072234
0.08062049
0.08050941
0.08037554
0.08019516
0.07992998
0.0795288
0.07841081
20
20
20
20
20
0.0810008
0.08091903
0.08083453
0.08074775
0.08065838
0.08056514
0.08046527
0.08035621
0.08023873
0.08013116
0.3558468
20
20
20
20
20
20
20
20
20
20
20
20
20
20
20
0.356203
0.3560906
20
20
20
20
20
20
20
20
20
20
20
20
20
20
20
0.3563092
0.3562665
0.3561971
20
20
20
20
20
20
20
20
20
20
20
20
20
20
20
0.3563986
0.3563619
0.3563262
0.3562817
20
20
20
20
20
20
20
20
20
20
20
20
20
20
20
0.3564773
0.3564415
0.35641
0.3563822
0.3563544
20
20
20
20
20
20
20
20
20
20
20
20
20
20
20
0.3565475
0.3565118
0.3564805
0.3564545
0.356434
0.6322258
20
20
20
20
20
20
20
20
20
20
20
20
20
20
20
20
20
20
20
20
20
20
20
20
20
20
20
20
20
20
0.08019362
0.07990735
0.07861068
20
20
20
20
20
0.08030101
0.07999893
0.07920643
0.07635172
20
20
20
20
20
0.08041744
0.08017763
0.07964864
0.07827306
0.07447681
20
20
20
20
20
0.0805285
0.08034202
0.08001054
0.07925354
0.07744907
0.07330224
20
20
20
20
20
0.08063212
0.08048063
0.08026475
0.07986516
0.07898587
0.07708606
0.07312496
20
20
20
20
20
0.08072956
0.08059956
0.08044498
0.08022106
0.0798156
0.07898812
0.07735878
0.07400269
20
20
20
20
20
0.08082211
0.08070718
0.0805839
0.08043957
0.08023703
0.07989699
0.07927164
0.07815411
0.07569538
20
20
20
20
20
0.08091061
0.08080843
0.08070351
0.08059384
0.08047048
0.08031107
0.08007646
0.0797067
0.07914255
0.07788041
20
20
20
20
20
0.08099542
0.08090558
0.08081406
0.08072157
0.08062705
0.08052667
0.08041225
0.08027494
0.08011211
0.07996409
0.3556191
20
20
20
20
20
0.08107664
0.080999
0.08091903
0.08083738
0.08075436
0.08066982
0.08058343
0.08049516
0.08041017
0.0803518
0.3562048
0.3559198
20
20
20
20
20
20
20
20
20
20
20
20
20
20
20
0.3562967
0.3562493
0.3561298
20
20
20
20
20
20
20
20
20
20
20
20
20
20
20
0.3563874
0.3563516
0.3563117
0.3562443
20
20
20
20
20
20
20
20
20
20
20
20
20
20
20
0.3564699
0.3564346
0.3564027
0.3563721
0.3563329
20
20
20
20
20
20
20
20
20
20
20
20
20
20
20
0.3565439
0.3565084
0.3564771
0.3564508
0.3564289
0.6322201
20
20
20
20
20
20
20
20
20
20
20
20
20
20
20
0.3566102
0.3565749
0.3565431
0.3565163
0.3564957
0.6322637
0.6322279
20
20
20
20
20
20
20
20
20
20
20
20
20
20
20
20
20
20
20
20
20
20
20
20
20
20
20
20
20
20
20
20
20
20
20
0.08032509
0.08014635
0.07979809
0.07844019
20
20
20
20
20
0.08042925
0.08023837
0.0798681
0.07895888
0.0760965
20
20
20
20
20
0.08053423
0.08036595
0.08008628
0.07948045
0.0780426
0.07440087
20
20
20
20
20
0.08063443
0.08048841
0.08028521
0.07992003
0.07912993
0.07741332
0.07363854
20
20
20
20
20
0.08072956
0.08059956
0.08044498
0.08022106
0.0798156
0.07898812
0.07735878
0.07400269
20
20
20
20
20
0.0808203
0.08070244
0.08057544
0.08042472
0.08020794
0.07983501
0.07914174
0.07791662
0.07539805
20
20
20
20
20
0.08090734
0.08080014
0.08069012
0.08057443
0.08044106
0.08026036
0.07998072
0.07952745
0.07884884
0.07755268
20
20
20
20
20
0.08099103
0.08089455
0.08079706
0.0806995
0.0805999
0.08049165
0.08036088
0.08019171
0.0799783
0.079792
0.355442
20
20
20
20
20
0.08107151
0.08098625
0.08089987
0.08081371
0.08072839
0.08064348
0.0805576
0.08046917
0.08038496
0.08033716
0.3561681
0.3557357
20
20
20
20
20
0.08114873
0.0810749
0.080999
0.08092178
0.08084373
0.08076521
0.08068661
0.08060922
0.08053793
0.0804945
0.3563354
0.3562399
0.3559944
20
20
20
20
20
20
20
20
20
20
20
20
20
20
20
0.3563768
0.3563442
0.3562943
0.3561795
20
20
20
20
20
20
20
20
20
20
20
20
20
20
20
0.3564593
0.3564258
0.3563935
0.3563574
0.3562958
20
20
20
20
20
20
20
20
20
20
20
20
20
20
20
0.3565368
0.3565019
0.3564709
0.3564439
0.3564188
0.6322079
20
20
20
20
20
20
20
20
20
20
20
20
20
20
20
0.3566068
0.3565717
0.35654
0.3565132
0.3564921
0.6322608
0.6322223
20
20
20
20
20
20
20
20
20
20
20
20
20
20
20
0.3566697
0.3566349
0.3566029
0.3565749
0.3565527
0.6322972
0.6322657
0.6322301
20
20
20
20
20
20
20
20
20
20
20
20
20
20
20
20
20
20
20
20
20
20
20
20
20
20
20
20
20
20
20
20
20
20
20
20
20
20
20
20
0.08044304
0.08030579
0.08010501
0.07971805
0.07835428
20
20
20
20
20
0.08054211
0.0803979
0.08018377
0.07976846
0.07882099
0.07605107
20
20
20
20
20
0.08063886
0.08050315
0.08032298
0.08001919
0.07938961
0.0780181
0.0746603
20
20
20
20
20
0.08073155
0.08060524
0.08045693
0.08024733
0.07987789
0.07913388
0.07765643
0.07442427
20
20
20
20
20
0.0808203
0.08070244
0.08057544
0.08042472
0.08020794
0.07983501
0.07914174
0.07791662
0.07539805
20
20
20
20
20
0.08090564
0.08079588
0.08068318
0.08056422
0.08042518
0.08023228
0.07992697
0.07942749
0.0786906
0.07739411
20
20
20
20
20
0.08098792
0.08088682
0.08078505
0.08068369
0.08057993
0.08046471
0.0803194
0.08012241
0.07986719
0.07965608
0.3553235
20
20
20
20
20
0.08106732
0.08097579
0.08088399
0.08079388
0.08070628
0.08062011
0.08053238
0.08043883
0.08034537
0.08029302
0.3561213
0.3555861
20
20
20
20
20
0.08114384
0.08106275
0.08098083
0.08089964
0.08082035
0.0807439
0.08067104
0.08060369
0.08054809
0.08052735
0.3563435
0.3562086
0.355846
20
20
20
20
20
0.08121735
0.08114707
0.08107491
0.08100165
0.08092785
0.08085403
0.08078091
0.08070995
0.08064612
0.08060792
0.3564224
0.3563644
0.3562787
0.3560707
20
20
20
20
20
20
20
20
20
20
20
20
20
20
20
0.3564494
0.3564211
0.3563872
0.3563392
0.356236
20
20
20
20
20
20
20
20
20
20
20
20
20
20
20
0.3565266
0.3564938
0.3564635
0.356435
0.3564037
0.6321871
20
20
20
20
20
20
20
20
20
20
20
20
20
20
20
0.3565999
0.3565655
0.3565343
0.3565074
0.3564853
0.632255
0.6322101
20
20
20
20
20
20
20
20
20
20
20
20
20
20
20
0.3566663
0.3566317
0.3565999
0.356572
0.3565497
0.6322951
0.6322628
0.6322245
20
20
20
20
20
20
20
20
20
20
20
20
20
20
20
0.3567262
0.356692
0.35666
0.3566312
0.3566072
0.6323282
0.6322989
0.6322676
0.6322323
20
20
20
20
20
20
20
20
20
20
20
20
20
20
20
20
20
20
20
20
20
20
20
20
20
20
20
20
20
20
20
20
20
20
20
20
20
20
20
20
20
20
20
20
20
0.08055159
0.08043436
0.08029013
0.08007556
0.07967603
0.07834021
20
20
20
20
20
0.08064506
0.08052335
0.08037272
0.08014539
0.07971715
0.07880982
0.0762142
20
20
20
20
20
0.08073536
0.08061614
0.0804794
0.08029548
0.07998989
0.07939614
0.07820738
0.07527719
20
20
20
20
20
0.08082211
0.08070718
0.0805839
0.08043957
0.08023703
0.07989699
0.07927164
0.07815411
0.07569538
20
20
20
20
20
0.08090564
0.08079588
0.08068318
0.08056422
0.08042518
0.08023228
0.07992697
0.07942749
0.0786906
0.07739411
20
20
20
20
20
0.08098631
0.08088284
0.08077886
0.08067546
0.08056934
0.08045001
0.08029612
0.08008296
0.07980443
0.07958183
0.3552644
20
20
20
20
20
0.08106436
0.08096845
0.0808728
0.0807798
0.08069028
0.08060256
0.08051204
0.080412
0.08030767
0.08024939
0.3560815
0.355484
20
20
20
20
20
0.08113983
0.08105276
0.08096577
0.08088115
0.0808006
0.0807253
0.08065579
0.08059328
0.08054276
0.080528
0.3563375
0.35617
0.3557216
20
20
20
20
20
0.08121267
0.08113545
0.08105756
0.08098062
0.08090599
0.08083497
0.08076921
0.08071133
0.08066777
0.08065437
0.3564435
0.3563697
0.3562508
0.3559517
20
20
20
20
20
0.08128272
0.08121576
0.08114707
0.08107745
0.08100746
0.08093767
0.08086886
0.08080259
0.08074331
0.08070766
0.3564933
0.3564478
0.3563958
0.3563198
0.3561481
20
20
20
20
20
20
20
20
20
20
20
20
20
20
20
0.356517
0.3564897
0.3564603
0.3564277
0.3563842
0.6321548
20
20
20
20
20
20
20
20
20
20
20
20
20
20
20
0.3565901
0.3565576
0.3565275
0.3565005
0.3564761
0.6322463
0.6321894
20
20
20
20
20
20
20
20
20
20
20
20
20
20
20
0.3566597
0.3566257
0.3565944
0.3565667
0.356544
0.6322912
0.632257
0.6322123
20
20
20
20
20
20
20
20
20
20
20
20
20
20
20
0.3567229
0.356689
0.3566571
0.3566285
0.3566044
0.6323264
0.6322969
0.6322647
0.6322266
20
20
20
20
20
20
20
20
20
20
20
20
20
20
20
0.3567799
0.3567465
0.3567148
0.3566856
0.3566601
0.632358
0.6323297
0.6323006
0.6322695
0.6322345
20
20
20
20
20
20
20
20
20
20
20
20
20
20
20
20
20
20
20
20
20
20
20
20
20
20
20
20
20
20
20
20
20
20
20
20
20
20
20
20
20
20
20
20
20
20
20
20
20
20
0.08065263
0.08054707
0.08042847
0.08028117
0.08006362
0.07967761
0.07839751
20
20
20
20
20
0.08074074
0.08063141
0.08050983
0.08035812
0.08013122
0.07972586
0.07893041
0.07660823
20
20
20
20
20
0.0808256
0.08071635
0.08060007
0.08046729
0.08028995
0.08000797
0.07950519
0.0785949
0.07630864
20
20
20
20
20
0.08090734
0.08080014
0.08069012
0.08057443
0.08044106
0.08026036
0.07998072
0.07952745
0.07884884
0.07755268
20
20
20
20
20
0.08098631
0.08088284
0.08077886
0.08067546
0.08056934
0.08045001
0.08029612
0.08008296
0.07980443
0.07958183
0.3552644
20
20
20
20
20
0.08106282
0.08096469
0.08086705
0.08077251
0.08068191
0.08059314
0.08050065
0.08039633
0.08028515
0.0802234
0.3560592
0.3554325
20
20
20
20
20
0.08113698
0.08104576
0.08095517
0.08086804
0.08078644
0.08071159
0.08064358
0.08058264
0.08053263
0.08051939
0.3563282
0.3561373
0.3556351
20
20
20
20
20
0.08120883
0.08112589
0.08104319
0.08096308
0.08088757
0.08081848
0.08075779
0.08070799
0.08067449
0.08066999
0.3564511
0.3563651
0.3562185
0.35585
20
20
20
20
20
0.08127823
0.08120463
0.08113048
0.08105737
0.08098667
0.08091981
0.08085859
0.08080591
0.08076741
0.08075599
0.3565171
0.3564638
0.3563976
0.356294
0.356054
20
20
20
20
20
0.08134502
0.0812812
0.08121578
0.08114953
0.08108303
0.08101685
0.08095177
0.08088927
0.08083349
0.08079921
0.3565567
0.3565161
0.356475
0.3564284
0.3563622
0.63211
20
20
20
20
20
20
20
20
20
20
20
20
20
20
20
0.3565805
0.3565536
0.3565251
0.3564966
0.356467
0.6322348
0.6321573
20
20
20
20
20
20
20
20
20
20
20
20
20
20
20
0.3566502
0.3566181
0.356588
0.3565606
0.356537
0.6322858
0.6322482
0.6321916
20
20
20
20
20
20
20
20
20
20
20
20
20
20
20
0.3567165
0.3566832
0.3566518
0.3566235
0.3565993
0.6323232
0.6322929
0.6322589
0.6322145
20
20
20
20
20
20
20
20
20
20
20
20
20
20
20
0.3567767
0.3567436
0.356712
0.3566829
0.3566575
0.6323564
0.632328
0.6322986
0.6322667
0.6322288
20
20
20
20
20
20
20
20
20
20
20
20
20
20
20
0.3568311
0.3567987
0.3567674
0.356738
0.3567116
0.6323871
0.6323594
0.6323312
0.6323023
0.6322715
0.7241775
20
20
20
20
20
20
20
20
20
20
20
20
20
20
20
20
20
20
20
20
20
20
20
20
20
20
20
20
20
20
20
20
20
20
20
20
20
20
20
20
20
20
20
20
20
20
20
20
20
20
20
20
20
20
20
0.08074737
0.08064972
0.08054497
0.08042729
0.0802817
0.08007309
0.07972482
0.07853701
20
20
20
20
20
0.08083052
0.08072934
0.0806225
0.0805044
0.08035807
0.08014703
0.0797982
0.07917583
0.07729309
20
20
20
20
20
0.08091061
0.08080843
0.08070351
0.08059384
0.08047048
0.08031107
0.08007646
0.0797067
0.07914255
0.07788041
20
20
20
20
20
0.08098792
0.08088682
0.08078505
0.08068369
0.08057993
0.08046471
0.0803194
0.08012241
0.07986719
0.07965608
0.3553235
20
20
20
20
20
0.08106282
0.08096469
0.08086705
0.08077251
0.08068191
0.08059314
0.08050065
0.08039633
0.08028515
0.0802234
0.3560592
0.3554325
20
20
20
20
20
0.08113551
0.08104217
0.08094972
0.08086128
0.08077908
0.08070432
0.08063678
0.08057609
0.08052553
0.08051261
0.3563221
0.3561189
0.3555911
20
20
20
20
20
0.0812061
0.08111919
0.08103307
0.08095066
0.08087442
0.08080644
0.08074872
0.08070326
0.08067443
0.08067386
0.3564526
0.3563579
0.3561915
0.3557783
20
20
20
20
20
0.08127455
0.08119548
0.08111673
0.08104061
0.08096917
0.08090443
0.08084864
0.08080484
0.08077764
0.08077582
0.3565287
0.3564703
0.3563932
0.3562666
0.3559729
20
20
20
20
20
0.08134072
0.08127054
0.08119989
0.0811303
0.08106314
0.0809998
0.08094209
0.08089273
0.08085696
0.08084536
0.3565799
0.3565343
0.3564855
0.3564265
0.3563378
0.6320628
20
20
20
20
20
0.08140441
0.08134357
0.08128124
0.08121816
0.0811549
0.08109205
0.08103033
0.08097115
0.08091829
0.08088518
0.3566158
0.3565776
0.3565403
0.3565028
0.3564614
0.6322216
0.632113
20
20
20
20
20
20
20
20
20
20
20
20
20
20
20
0.3566406
0.3566138
0.3565856
0.3565577
0.3565313
0.63228
0.6322367
0.6321598
20
20
20
20
20
20
20
20
20
20
20
20
20
20
20
0.3567072
0.3566757
0.3566456
0.3566177
0.3565932
0.6323191
0.6322876
0.6322501
0.6321939
20
20
20
20
20
20
20
20
20
20
20
20
20
20
20
0.3567705
0.3567379
0.3567069
0.3566781
0.3566527
0.6323535
0.6323248
0.6322947
0.6322609
0.6322167
20
20
20
20
20
20
20
20
20
20
20
20
20
20
20
0.356828
0.3567958
0.3567647
0.3567355
0.356709
0.6323857
0.6323578
0.6323295
0.6323003
0.6322686
0.7241733
20
20
20
20
20
20
20
20
20
20
20
20
20
20
20
0.3568799
0.3568485
0.3568178
0.3567886
0.3567616
0.6324156
0.6323884
0.6323608
0.6323328
0.6323041
0.7242051
0.7241789
20
20
20
20
20
20
20
20
20
20
20
20
20
20
20
20
20
20
20
20
20
20
20
20
20
20
20
20
20
20
20
20
20
20
20
20
20
20
20
20
20
20
20
20
20
20
20
20
20
20
20
20
20
20
20
20
20
20
20
20
0.08083659
0.0807451
0.08064901
0.08054665
0.08043231
0.08029372
0.08010552
0.0798165
0.07879031
20
20
20
20
20
0.08091523
0.08082022
0.08072234
0.08062049
0.08050941
0.08037554
0.08019516
0.07992998
0.0795288
0.07841081
20
20
20
20
20
0.08099103
0.08089455
0.08079706
0.0806995
0.0805999
0.08049165
0.08036088
0.08019171
0.0799783
0.079792
0.355442
20
20
20
20
20
0.08106436
0.08096845
0.0808728
0.0807798
0.08069028
0.08060256
0.08051204
0.080412
0.08030767
0.08024939
0.3560815
0.355484
20
20
20
20
20
0.08113551
0.08104217
0.08094972
0.08086128
0.08077908
0.08070432
0.08063678
0.08057609
0.08052553
0.08051261
0.3563221
0.3561189
0.3555911
20
20
20
20
20
0.08120468
0.08111575
0.08102787
0.08094426
0.0808676
0.0808001
0.08074371
0.08070009
0.08067307
0.08067413
0.3564525
0.356353
0.3561763
0.3557415
20
20
20
20
20
0.08127192
0.08118905
0.08110704
0.08102875
0.08095669
0.08089324
0.0808408
0.08080216
0.08078086
0.08078377
0.3565338
0.356472
0.3563873
0.3562443
0.355915
20
20
20
20
20
0.08133718
0.08126177
0.0811867
0.08111425
0.08104639
0.08098513
0.08093277
0.08089219
0.08086766
0.08086542
0.3565922
0.3565441
0.3564903
0.3564217
0.3563144
0.6320221
20
20
20
20
20
0.08140028
0.08133336
0.08126602
0.08119974
0.08113584
0.08107568
0.08102095
0.08097424
0.08094021
0.08092812
0.3566373
0.3565953
0.3565529
0.3565083
0.356456
0.6322079
0.6320666
20
20
20
20
20
0.08146102
0.08140304
0.08134364
0.08128356
0.08122336
0.08116359
0.08110498
0.08104882
0.08099863
0.08096663
0.3566718
0.3566351
0.3565995
0.3565649
0.3565307
0.6322751
0.6322234
0.6321161
20
20
20
20
20
20
20
20
20
20
20
20
20
20
20
0.3566977
0.3566711
0.3566429
0.3566149
0.3565886
0.6323152
0.6322816
0.6322386
0.6321623
20
20
20
20
20
20
20
20
20
20
20
20
20
20
20
0.3567614
0.3567306
0.3567007
0.3566725
0.3566469
0.6323499
0.6323206
0.6322893
0.6322521
0.6321962
20
20
20
20
20
20
20
20
20
20
20
20
20
20
20
0.3568219
0.3567903
0.3567597
0.3567308
0.3567045
0.632383
0.6323549
0.6323263
0.6322964
0.6322628
0.7241642
20
20
20
20
20
20
20
20
20
20
20
20
20
20
20
0.3568769
0.3568457
0.3568152
0.3567861
0.3567592
0.6324142
0.6323869
0.6323592
0.6323311
0.632302
0.7242029
0.7241747
20
20
20
20
20
20
20
20
20
20
20
20
20
20
20
0.3569266
0.3568962
0.3568663
0.3568375
0.3568103
0.6324435
0.6324168
0.6323897
0.6323622
0.6323343
0.7242294
0.7242063
0.72418
20
20
20
20
20
20
20
20
20
20
20
20
20
20
20
20
20
20
20
20
20
20
20
20
20
20
20
20
20
20
20
20
20
20
20
20
20
20
20
20
20
20
20
20
20
20
20
20
20
20
20
20
20
20
20
20
20
20
20
20
20
20
20
20
20
0.08092091
0.08083458
0.08074489
0.08065164
0.08055312
0.08044469
0.08031834
0.08016055
0.07995045
0.0792475
20
20
20
20
20
0.08099542
0.08090558
0.08081406
0.08072157
0.08062705
0.08052667
0.08041225
0.08027494
0.08011211
0.07996409
0.3556191
20
20
20
20
20
0.08106732
0.08097579
0.08088399
0.08079388
0.08070628
0.08062011
0.08053238
0.08043883
0.08034537
0.08029302
0.3561213
0.3555861
20
20
20
20
20
0.08113698
0.08104576
0.08095517
0.08086804
0.08078644
0.08071159
0.08064358
0.08058264
0.08053263
0.08051939
0.3563282
0.3561373
0.3556351
20
20
20
20
20
0.08120468
0.08111575
0.08102787
0.08094426
0.0808676
0.0808001
0.08074371
0.08070009
0.08067307
0.08067413
0.3564525
0.356353
0.3561763
0.3557415
20
20
20
20
20
0.08127056
0.08118575
0.08110205
0.08102263
0.08095022
0.08088737
0.0808365
0.0808002
0.08078146
0.08078647
0.3565357
0.3564721
0.3563834
0.3562319
0.3558851
20
20
20
20
20
0.08133465
0.0812556
0.08117741
0.08110288
0.08103445
0.08097449
0.08092547
0.08089011
0.0808717
0.08087427
0.3565983
0.3565488
0.3564917
0.3564165
0.356296
0.631993
20
20
20
20
20
0.08139688
0.08132495
0.08125337
0.08118434
0.08111977
0.08106159
0.08101197
0.08097365
0.08095034
0.08094715
0.3566491
0.3566056
0.3565604
0.3565109
0.3564504
0.6321955
0.6320265
20
20
20
20
20
0.08145707
0.08139326
0.08132906
0.0812659
0.08120507
0.08114785
0.08109585
0.08105145
0.0810189
0.08100635
0.3566915
0.3566514
0.3566119
0.3565723
0.3565315
0.632271
0.6322098
0.6320703
20
20
20
20
20
0.08151499
0.08145974
0.08140314
0.08134591
0.0812886
0.08123175
0.08117604
0.08112271
0.08107501
0.0810442
0.3567254
0.3566899
0.3566552
0.3566217
0.3565894
0.632313
0.6322766
0.6322253
0.6321191
20
20
20
20
20
20
20
20
20
20
20
20
20
20
20
0.356752
0.3567258
0.3566977
0.3566696
0.3566428
0.6323467
0.6323166
0.6322833
0.6322405
0.6321648
20
20
20
20
20
20
20
20
20
20
20
20
20
20
20
0.3568131
0.3567831
0.3567536
0.3567253
0.3566989
0.6323796
0.6323513
0.6323222
0.632291
0.632254
0.7241489
20
20
20
20
20
20
20
20
20
20
20
20
20
20
20
0.356871
0.3568403
0.3568104
0.3567816
0.3567548
0.6324116
0.6323842
0.6323563
0.6323279
0.6322981
0.7241986
0.7241656
20
20
20
20
20
20
20
20
20
20
20
20
20
20
20
0.3569236
0.3568934
0.3568637
0.356835
0.3568079
0.6324422
0.6324154
0.6323882
0.6323606
0.6323326
0.7242279
0.7242042
0.7241758
20
20
20
20
20
20
20
20
20
20
20
20
20
20
20
0.3569711
0.3569418
0.3569128
0.3568845
0.3568574
0.6324707
0.6324446
0.632418
0.6323909
0.6323636
0.7242519
0.7242305
0.7242073
0.7241807
20
20
20
20
20
20
20
20
20
20
20
20
20
20
20
20
20
20
20
20
20
20
20
20
20
20
20
20
20
20
20
20
20
20
20
20
20
20
20
20
20
20
20
20
20
20
20
20
20
20
20
20
20
20
20
20
20
20
20
20
20
20
20
20
20
20
20
20
20
20
0.0810008
0.08091903
0.08083453
0.08074775
0.08065838
0.08056514
0.08046527
0.08035621
0.08023873
0.08013116
0.3558468
20
20
20
20
20
0.08107151
0.08098625
0.08089987
0.08081371
0.08072839
0.08064348
0.0805576
0.08046917
0.08038496
0.08033716
0.3561681
0.3557357
20
20
20
20
20
0.08113983
0.08105276
0.08096577
0.08088115
0.0808006
0.0807253
0.08065579
0.08059328
0.08054276
0.080528
0.3563375
0.35617
0.3557216
20
20
20
20
20
0.0812061
0.08111919
0.08103307
0.08095066
0.08087442
0.08080644
0.08074872
0.08070326
0.08067443
0.08067386
0.3564526
0.3563579
0.3561915
0.3557783
20
20
20
20
20
0.08127056
0.08118575
0.08110205
0.08102263
0.08095022
0.08088737
0.0808365
0.0808002
0.08078146
0.08078647
0.3565357
0.3564721
0.3563834
0.3562319
0.3558851
20
20
20
20
20
0.08133334
0.08125243
0.08117263
0.08109702
0.08102827
0.08096891
0.08092148
0.08088854
0.08087287
0.08087763
0.3566008
0.3565506
0.3564919
0.3564133
0.356286
0.6319779
20
20
20
20
20
0.08139445
0.08131903
0.08124446
0.08117344
0.08110832
0.08105137
0.08100496
0.08097169
0.08095432
0.0809558
0.3566552
0.356611
0.3565642
0.3565117
0.3564456
0.6321861
0.6319977
20
20
20
20
20
0.0814538
0.08138519
0.08131693
0.08125114
0.08118965
0.0811343
0.08108713
0.08105067
0.08102825
0.08102404
0.3567025
0.3566613
0.3566198
0.3565773
0.3565319
0.6322675
0.6321975
0.6320308
20
20
20
20
20
0.08151119
0.08145037
0.08138917
0.081329
0.08127107
0.08121664
0.08116719
0.08112495
0.08109379
0.08108104
0.3567435
0.3567047
0.3566666
0.3566292
0.3565921
0.6323122
0.6322724
0.6322117
0.632074
20
20
20
20
20
0.0815664
0.08151379
0.08145988
0.08140538
0.08135082
0.08129674
0.08124378
0.08119311
0.08114777
0.08111822
0.3567768
0.3567424
0.3567085
0.3566755
0.3566437
0.6323455
0.6323143
0.6322781
0.6322271
0.6321222
20
20
20
20
20
20
20
20
20
20
20
20
20
20
20
0.3568038
0.3567781
0.3567504
0.3567222
0.3566948
0.6323767
0.632348
0.6323181
0.6322849
0.6322424
0.7241255
20
20
20
20
20
20
20
20
20
20
20
20
20
20
20
0.3568624
0.3568333
0.3568044
0.3567762
0.3567494
0.6324084
0.6323808
0.6323527
0.6323237
0.6322927
0.724192
0.7241504
20
20
20
20
20
20
20
20
20
20
20
20
20
20
20
0.3569178
0.3568882
0.356859
0.3568306
0.3568036
0.6324396
0.6324128
0.6323855
0.6323577
0.6323294
0.7242249
0.7241999
0.7241667
20
20
20
20
20
20
20
20
20
20
20
20
20
20
20
0.3569682
0.3569391
0.3569103
0.3568822
0.3568552
0.6324694
0.6324432
0.6324166
0.6323895
0.632362
0.7242507
0.724229
0.7242051
0.7241765
20
20
20
20
20
20
20
20
20
20
20
20
20
20
20
0.3570136
0.3569855
0.3569574
0.3569298
0.3569031
0.6324971
0.6324717
0.6324457
0.6324191
0.6323922
0.7242738
0.7242529
0.7242313
0.7242079
0.7241811
20
20
20
20
20
20
20
20
20
20
20
20
20
20
20
20
20
20
20
20
20
20
20
20
20
20
20
20
20
20
20
20
20
20
20
20
20
20
20
20
20
20
20
20
20
20
20
20
20
20
20
20
20
20
20
20
20
20
20
20
20
20
20
20
20
20
20
20
20
0.3560682
20
20
20
20
20
0.08107664
0.080999
0.08091903
0.08083738
0.08075436
0.08066982
0.08058343
0.08049516
0.08041017
0.0803518
0.3562048
0.3559198
20
20
20
20
20
0.08114384
0.08106275
0.08098083
0.08089964
0.08082035
0.0807439
0.08067104
0.08060369
0.08054809
0.08052735
0.3563435
0.3562086
0.355846
20
20
20
20
20
0.08120883
0.08112589
0.08104319
0.08096308
0.08088757
0.08081848
0.08075779
0.08070799
0.08067449
0.08066999
0.3564511
0.3563651
0.3562185
0.35585
20
20
20
20
20
0.08127192
0.08118905
0.08110704
0.08102875
0.08095669
0.08089324
0.0808408
0.08080216
0.08078086
0.08078377
0.3565338
0.356472
0.3563873
0.3562443
0.355915
20
20
20
20
20
0.08133334
0.08125243
0.08117263
0.08109702
0.08102827
0.08096891
0.08092148
0.08088854
0.08087287
0.08087763
0.3566008
0.3565506
0.3564919
0.3564133
0.356286
0.6319779
20
20
20
20
20
0.08139319
0.08131599
0.08123987
0.08116781
0.08110238
0.08104601
0.08100114
0.08097022
0.08095555
0.08095919
0.3566578
0.3566133
0.3565658
0.3565118
0.3564428
0.632181
0.6319828
20
20
20
20
20
0.08145146
0.08137951
0.08130838
0.08124067
0.08117865
0.08112447
0.08108035
0.08104868
0.08103192
0.08103216
0.3567083
0.3566667
0.3566243
0.35658
0.3565319
0.6322648
0.6321882
0.6320025
20
20
20
20
20
0.08150805
0.08144263
0.08137754
0.08131484
0.08125628
0.08120361
0.08115873