/*--------------------------------*- C++ -*----------------------------------*\
| =========                 |                                                 |
| \\      /  F ield         | OpenFOAM: The Open Source CFD Toolbox           |
|  \\    /   O peration     | Version:  2306                                  |
|   \\  /    A nd           | Website:  www.openfoam.com                      |
|    \\/     M anipulation  |                                                 |
\*---------------------------------------------------------------------------*/
FoamFile
{
    version     2.0;
    format      ascii;
    arch        "LSB;label=32;scalar=64";
    class       volScalarField;
    location    "0.3";
    object      rhoCp;
}
// * * * * * * * * * * * * * * * * * * * * * * * * * * * * * * * * * * * * * //

dimensions      [1 -1 -2 -1 0 0 0];

internalField   nonuniform List<scalar> 
52000
(
5346000
5346000
5346000
5346000
5346000
5346000
5346000
5346000
5346000
5346000
5346000
5346000
5346000
5346000
5346000
5346000
5346000
5346000
5346000
5346000
5346000
5346000
5346000
5346000
5346000
5346000
5346000
5346000
5346000
5346000
5346000
5346000
5346000
5346000
5346000
5346000
5346000
5346000
5346000
5346000
5346000
5346000
5346000
5346000
5346000
5346000
5346000
5346000
5346000
5346000
5346000
5346000
5346000
5346000
5346000
5346000
5346000
5346000
5346000
5346000
5346000
5346000
5346000
5346000
5346000
5346000
5346000
5346000
5346000
5346000
5346000
5346000
5346000
5346000
5346000
5346000
5346000
5346000
5346000
5346000
5346000
5346000
5346000
5346000
5346000
5346000
5346000
5346000
5346000
5346000
5346000
5346000
5346000
5346000
5346000
5346000
5346000
5346000
5346000
5346000
5346000
5346000
5346000
5346000
5346000
5346000
5346000
5346000
5346000
5346000
5346000
5346000
5346000
5346000
5346000
5346000
5346000
5346000
5346000
5346000
5346000
5346000
5346000
5346000
5346000
5346000
5346000
5346000
5346000
5346000
5346000
5346000
5346000
5346000
5346000
5346000
5346000
5346000
5346000
5346000
5346000
5346000
5346000
5346000
5346000
5346000
5346000
5346000
5346000
5346000
5346000
5346000
5346000
5346000
5346000
5346000
5346000
5346000
5346000
5346000
5346000
5346000
5346000
5346000
5346000
5346000
5346000
5346000
5346000
5346000
5346000
5346000
5346000
5346000
5346000
5346000
5346000
5346000
5346000
5346000
5346000
5346000
5346000
5346000
5346000
5346000
5346000
5346000
5346000
5346000
5346000
5346000
5346000
5346000
5346000
5346000
5346000
5346000
5346000
5346000
5346000
5346000
5346000
5346000
5346000
5346000
5346000
5346000
5346000
5346000
5346000
5346000
5346000
5346000
5346000
5346000
5346000
5346000
5346000
5346000
5346000
5346000
5346000
5346000
5346000
5346000
5346000
5346000
5346000
5346000
5346000
5346000
5346000
5346000
5346000
5346000
5346000
5346000
5346000
5346000
372.7375
5346000
5346000
5346000
5346000
5346000
5346000
5346000
5346000
5346000
5346000
5346000
5346000
5346000
5346000
5346000
5346000
5346000
5346000
5346000
5346000
5346000
5346000
5346000
5346000
5346000
5346000
5346000
5346000
5346000
5346000
5346000
5346000
5346000
5346000
5346000
5346000
5346000
5346000
5346000
5346000
5346000
5346000
5346000
5346000
5346000
5346000
5346000
5346000
5346000
5346000
5346000
5346000
5346000
5346000
5346000
5346000
5346000
5346000
5346000
5346000
5346000
5346000
5346000
5346000
5346000
375.4514
5346000
5346000
5346000
5346000
5346000
369.6112
375.4981
5346000
5346000
5346000
5346000
5346000
5346000
5346000
5346000
5346000
5346000
5346000
5346000
5346000
5346000
5346000
5346000
5346000
5346000
5346000
5346000
5346000
5346000
5346000
5346000
5346000
5346000
5346000
5346000
5346000
5346000
5346000
5346000
5346000
5346000
5346000
5346000
5346000
5346000
5346000
5346000
5346000
5346000
5346000
5346000
5346000
5346000
5346000
5346000
5346000
5346000
5346000
5346000
5346000
5346000
5346000
5346000
5346000
5346000
5346000
5346000
5346000
5346000
5346000
5346000
5346000
5346000
5346000
5346000
5346000
5346000
376.9647
5346000
5346000
5346000
5346000
5346000
370.2598
382.2612
5346000
5346000
5346000
5346000
5346000
368.8075
370.2671
377.0522
5346000
5346000
5346000
5346000
5346000
5346000
5346000
5346000
5346000
5346000
5346000
5346000
5346000
5346000
5346000
5346000
5346000
5346000
5346000
5346000
5346000
5346000
5346000
5346000
5346000
5346000
5346000
5346000
5346000
5346000
5346000
5346000
5346000
5346000
5346000
5346000
5346000
5346000
5346000
5346000
5346000
5346000
5346000
5346000
5346000
5346000
5346000
5346000
5346000
5346000
5346000
5346000
5346000
5346000
5346000
5346000
5346000
5346000
5346000
5346000
5346000
5346000
5346000
5346000
5346000
5346000
5346000
5346000
5346000
5346000
5346000
5346000
5346000
5346000
5346000
377.8275
5346000
5346000
5346000
5346000
5346000
370.8222
386.5819
5346000
5346000
5346000
5346000
5346000
369.065
372.1928
386.6508
5346000
5346000
5346000
5346000
5346000
368.1466
369.0513
370.8337
377.9634
5346000
5346000
5346000
5346000
5346000
5346000
5346000
5346000
5346000
5346000
5346000
5346000
5346000
5346000
5346000
5346000
5346000
5346000
5346000
5346000
5346000
5346000
5346000
5346000
5346000
5346000
5346000
5346000
5346000
5346000
5346000
5346000
5346000
5346000
5346000
5346000
5346000
5346000
5346000
5346000
5346000
5346000
5346000
5346000
5346000
5346000
5346000
5346000
5346000
5346000
5346000
5346000
5346000
5346000
5346000
5346000
5346000
5346000
5346000
5346000
5346000
5346000
5346000
5346000
5346000
5346000
5346000
5346000
5346000
5346000
5346000
5346000
5346000
5346000
5346000
5346000
5346000
5346000
5346000
5346000
378.2289
5346000
5346000
5346000
5346000
5346000
371.2359
389.2108
5346000
5346000
5346000
5346000
5346000
369.2964
373.8938
393.3193
5346000
5346000
5346000
5346000
5346000
368.2684
369.807
373.913
389.3972
5346000
5346000
5346000
5346000
5346000
367.5614
368.2467
369.2672
371.2524
378.4274
5346000
5346000
5346000
5346000
5346000
5346000
5346000
5346000
5346000
5346000
5346000
5346000
5346000
5346000
5346000
5346000
5346000
5346000
5346000
5346000
5346000
5346000
5346000
5346000
5346000
5346000
5346000
5346000
5346000
5346000
5346000
5346000
5346000
5346000
5346000
5346000
5346000
5346000
5346000
5346000
5346000
5346000
5346000
5346000
5346000
5346000
5346000
5346000
5346000
5346000
5346000
5346000
5346000
5346000
5346000
5346000
5346000
5346000
5346000
5346000
5346000
5346000
5346000
5346000
5346000
5346000
5346000
5346000
5346000
5346000
5346000
5346000
5346000
5346000
5346000
5346000
5346000
5346000
5346000
5346000
5346000
5346000
5346000
5346000
5346000
378.2289
5346000
5346000
5346000
5346000
5346000
371.455
390.4665
5346000
5346000
5346000
5346000
5346000
369.4733
375.1608
397.6004
5346000
5346000
5346000
5346000
5346000
368.3755
370.4979
376.694
397.7663
5346000
5346000
5346000
5346000
5346000
367.6305
368.5898
370.4846
375.2185
390.8395
5346000
5346000
5346000
5346000
5346000
367.0228
367.6072
368.3306
369.425
371.4775
378.5097
5346000
5346000
5346000
5346000
5346000
5346000
5346000
5346000
5346000
5346000
5346000
5346000
5346000
5346000
5346000
5346000
5346000
5346000
5346000
5346000
5346000
5346000
5346000
5346000
5346000
5346000
5346000
5346000
5346000
5346000
5346000
5346000
5346000
5346000
5346000
5346000
5346000
5346000
5346000
5346000
5346000
5346000
5346000
5346000
5346000
5346000
5346000
5346000
5346000
5346000
5346000
5346000
5346000
5346000
5346000
5346000
5346000
5346000
5346000
5346000
5346000
5346000
5346000
5346000
5346000
5346000
5346000
5346000
5346000
368.9076
5346000
5346000
5346000
5346000
5346000
5346000
5346000
5346000
5346000
5346000
5346000
5346000
5346000
5346000
5346000
5346000
5346000
5346000
5346000
5346000
377.8275
5346000
5346000
5346000
5346000
5346000
371.455
390.4665
5346000
5346000
5346000
5346000
5346000
369.5695
375.8365
399.7083
5346000
5346000
5346000
5346000
5346000
368.4567
371.032
378.8014
403.3256
5346000
5346000
5346000
5346000
5346000
367.689
368.8987
371.6177
378.8624
400.1761
5346000
5346000
5346000
5346000
5346000
367.0697
367.7914
368.8728
371.0056
375.9531
391.1028
5346000
5346000
5346000
5346000
5346000
366.5243
367.0472
367.6409
368.3832
369.4962
371.4807
378.2134
5346000
5346000
5346000
5346000
5346000
5346000
5346000
5346000
5346000
5346000
5346000
5346000
5346000
5346000
5346000
5346000
5346000
5346000
5346000
5346000
5346000
5346000
5346000
5346000
5346000
5346000
5346000
5346000
5346000
5346000
5346000
5346000
5346000
5346000
5346000
5346000
5346000
5346000
5346000
5346000
5346000
5346000
5346000
5346000
5346000
5346000
5346000
5346000
5346000
5346000
5346000
5346000
5346000
5346000
5346000
5346000
5346000
368.9506
5346000
5346000
5346000
5346000
5346000
5346000
5346000
5346000
5346000
5346000
5346000
5346000
5346000
5346000
5346000
368.2806
368.5588
5346000
5346000
5346000
5346000
5346000
5346000
5346000
5346000
5346000
5346000
5346000
5346000
5346000
5346000
5346000
5346000
5346000
5346000
5346000
5346000
376.9647
5346000
5346000
5346000
5346000
5346000
371.2359
389.2108
5346000
5346000
5346000
5346000
5346000
369.5695
375.8365
399.7083
5346000
5346000
5346000
5346000
5346000
368.5007
371.3242
379.9365
406.0974
5346000
5346000
5346000
5346000
5346000
367.7323
369.1357
372.5057
381.6628
406.469
5346000
5346000
5346000
5346000
5346000
367.1082
367.9523
369.3702
372.4976
380.1064
400.6282
5346000
5346000
5346000
5346000
5346000
366.5615
367.1662
367.9231
369.0759
371.2806
376.0225
390.1906
5346000
5346000
5346000
5346000
5346000
366.0574
366.5404
367.0616
367.6537
368.3907
369.4613
371.2523
377.4839
5346000
5346000
5346000
5346000
5346000
5346000
5346000
5346000
5346000
5346000
5346000
5346000
5346000
5346000
5346000
5346000
5346000
5346000
5346000
5346000
5346000
5346000
5346000
5346000
5346000
5346000
5346000
5346000
5346000
5346000
5346000
5346000
5346000
5346000
5346000
5346000
5346000
5346000
5346000
5346000
5346000
5346000
5346000
5346000
369.0399
5346000
5346000
5346000
5346000
5346000
5346000
5346000
5346000
5346000
5346000
5346000
5346000
5346000
5346000
5346000
368.3078
368.6091
5346000
5346000
5346000
5346000
5346000
5346000
5346000
5346000
5346000
5346000
5346000
5346000
5346000
5346000
5346000
367.6887
367.9595
368.2044
5346000
5346000
5346000
5346000
5346000
5346000
5346000
5346000
5346000
5346000
5346000
5346000
5346000
5346000
5346000
5346000
5346000
5346000
5346000
5346000
375.4514
5346000
5346000
5346000
5346000
5346000
370.8222
386.5819
5346000
5346000
5346000
5346000
5346000
369.4733
375.1608
397.6004
5346000
5346000
5346000
5346000
5346000
368.5007
371.3242
379.9365
406.0974
5346000
5346000
5346000
5346000
5346000
367.7554
369.2651
372.9953
383.1847
409.6406
5346000
5346000
5346000
5346000
5346000
367.136
368.0726
369.7572
373.68
383.3258
407.0699
5346000
5346000
5346000
5346000
5346000
366.5914
367.2669
368.1745
369.7209
372.98
380.2476
399.113
5346000
5346000
5346000
5346000
5346000
366.0898
366.6318
367.2382
368.0039
369.1584
371.2487
375.4004
387.9941
5346000
5346000
5346000
5346000
5346000
365.6192
366.0702
366.5476
367.0595
367.6381
368.3432
369.3128
370.7997
376.1608
5346000
5346000
5346000
5346000
5346000
5346000
5346000
5346000
5346000
5346000
5346000
5346000
5346000
5346000
5346000
5346000
5346000
5346000
5346000
5346000
5346000
5346000
5346000
5346000
5346000
5346000
5346000
5346000
5346000
5346000
369.1933
5346000
5346000
5346000
5346000
5346000
5346000
5346000
5346000
5346000
5346000
5346000
5346000
5346000
5346000
5346000
368.3618
368.7184
5346000
5346000
5346000
5346000
5346000
5346000
5346000
5346000
5346000
5346000
5346000
5346000
5346000
5346000
5346000
367.7114
367.9867
368.2606
5346000
5346000
5346000
5346000
5346000
5346000
5346000
5346000
5346000
5346000
5346000
5346000
5346000
5346000
5346000
367.1375
367.4046
367.6353
367.8411
5346000
5346000
5346000
5346000
5346000
5346000
5346000
5346000
5346000
5346000
5346000
5346000
5346000
5346000
5346000
5346000
5346000
5346000
5346000
5346000
372.7375
5346000
5346000
5346000
5346000
5346000
370.2598
382.2612
5346000
5346000
5346000
5346000
5346000
369.2964
373.8938
393.3193
5346000
5346000
5346000
5346000
5346000
368.4567
371.032
378.8014
403.3256
5346000
5346000
5346000
5346000
5346000
367.7554
369.2651
372.9953
383.1847
409.6406
5346000
5346000
5346000
5346000
5346000
367.1505
368.1373
369.9702
374.3362
385.0852
410.3255
5346000
5346000
5346000
5346000
5346000
366.6125
367.3402
368.3653
370.2288
374.3365
383.5293
405.1049
5346000
5346000
5346000
5346000
5346000
366.1155
366.7073
367.3906
368.3208
369.881
372.9585
379.2431
395.5393
5346000
5346000
5346000
5346000
5346000
365.6487
366.1485
366.6801
367.272
368.0139
369.091
370.8919
374.1296
384.2234
5346000
5346000
5346000
5346000
5346000
365.2057
365.6306
366.0747
366.5405
367.0363
367.5887
368.2355
369.0532
370.1366
373.7879
5346000
5346000
5346000
5346000
5346000
5346000
5346000
5346000
5346000
5346000
5346000
5346000
5346000
5346000
5346000
369.5028
5346000
5346000
5346000
5346000
5346000
5346000
5346000
5346000
5346000
5346000
5346000
5346000
5346000
5346000
5346000
368.443
368.9212
5346000
5346000
5346000
5346000
5346000
5346000
5346000
5346000
5346000
5346000
5346000
5346000
5346000
5346000
5346000
367.7558
368.0404
368.3847
5346000
5346000
5346000
5346000
5346000
5346000
5346000
5346000
5346000
5346000
5346000
5346000
5346000
5346000
5346000
367.158
367.4254
367.6626
367.9012
5346000
5346000
5346000
5346000
5346000
5346000
5346000
5346000
5346000
5346000
5346000
5346000
5346000
5346000
5346000
366.6297
366.8877
367.1183
367.3058
367.4752
5346000
5346000
5346000
5346000
5346000
5346000
5346000
5346000
5346000
5346000
5346000
5346000
5346000
5346000
5346000
5346000
5346000
5346000
5346000
5346000
5346000
5346000
5346000
5346000
5346000
369.6112
375.4981
5346000
5346000
5346000
5346000
5346000
369.065
372.1928
386.6508
5346000
5346000
5346000
5346000
5346000
368.3755
370.4979
376.694
397.7663
5346000
5346000
5346000
5346000
5346000
367.7323
369.1357
372.5057
381.6628
406.469
5346000
5346000
5346000
5346000
5346000
367.1505
368.1373
369.9702
374.3362
385.0852
410.3255
5346000
5346000
5346000
5346000
5346000
366.6235
367.3788
368.4687
370.5104
375.0926
385.3251
408.1148
5346000
5346000
5346000
5346000
5346000
366.1336
366.761
367.5028
368.5644
370.4551
374.3278
382.2158
400.506
5346000
5346000
5346000
5346000
5346000
365.6722
366.2124
366.7915
367.4579
368.3584
369.8013
372.4069
377.1915
389.6839
5346000
5346000
5346000
5346000
5346000
365.2333
365.7017
366.187
366.6962
367.256
367.9382
368.8621
370.2336
372.3119
378.2004
5346000
5346000
5346000
5346000
5346000
364.815
365.2165
365.6342
366.0663
366.5157
366.9885
367.5014
368.0645
368.6808
369.2443
371.0683
5346000
5346000
5346000
5346000
5346000
5346000
5346000
5346000
5346000
5346000
5346000
5346000
5346000
5346000
5346000
368.5359
369.3434
5346000
5346000
5346000
5346000
5346000
5346000
5346000
5346000
5346000
5346000
5346000
5346000
5346000
5346000
5346000
367.8195
368.119
368.6164
5346000
5346000
5346000
5346000
5346000
5346000
5346000
5346000
5346000
5346000
5346000
5346000
5346000
5346000
5346000
367.198
367.4644
367.7164
368.0341
5346000
5346000
5346000
5346000
5346000
5346000
5346000
5346000
5346000
5346000
5346000
5346000
5346000
5346000
5346000
366.649
366.9058
367.1375
367.3332
367.5372
5346000
5346000
5346000
5346000
5346000
5346000
5346000
5346000
5346000
5346000
5346000
5346000
5346000
5346000
5346000
366.1519
366.4093
366.636
366.828
366.9775
367.2572
5346000
5346000
5346000
5346000
5346000
5346000
5346000
5346000
5346000
5346000
5346000
5346000
5346000
5346000
5346000
5346000
5346000
5346000
5346000
5346000
5346000
5346000
5346000
5346000
5346000
5346000
5346000
5346000
5346000
5346000
368.8075
370.2671
377.0522
5346000
5346000
5346000
5346000
5346000
368.2684
369.807
373.913
389.3972
5346000
5346000
5346000
5346000
5346000
367.689
368.8987
371.6177
378.8624
400.1761
5346000
5346000
5346000
5346000
5346000
367.136
368.0726
369.7572
373.68
383.3258
407.0699
5346000
5346000
5346000
5346000
5346000
366.6235
367.3788
368.4687
370.5104
375.0926
385.3251
408.1148
5346000
5346000
5346000
5346000
5346000
366.1428
366.7889
367.5625
368.6975
370.7751
375.0925
383.8384
402.9777
5346000
5346000
5346000
5346000
5346000
365.6885
366.2572
366.8716
367.5966
368.6262
370.3696
373.6218
379.5429
393.1523
5346000
5346000
5346000
5346000
5346000
365.2552
365.7595
366.28
366.8287
367.4508
368.2636
369.4665
371.3815
374.3221
381.0415
5346000
5346000
5346000
5346000
5346000
364.8411
365.2829
365.7358
366.1966
366.6721
367.1812
367.7683
368.4756
369.3234
370.0906
372.7255
5346000
5346000
5346000
5346000
5346000
364.4448
364.8253
365.2197
365.6257
366.0419
366.4705
366.9124
367.3707
367.8164
368.1381
368.4674
370.5462
5346000
5346000
5346000
5346000
5346000
5346000
5346000
5346000
5346000
5346000
5346000
5346000
5346000
5346000
5346000
367.8697
368.2032
369.0651
5346000
5346000
5346000
5346000
5346000
5346000
5346000
5346000
5346000
5346000
5346000
5346000
5346000
5346000
5346000
367.2544
367.5136
367.795
368.2768
5346000
5346000
5346000
5346000
5346000
5346000
5346000
5346000
5346000
5346000
5346000
5346000
5346000
5346000
5346000
366.6865
366.9391
367.1726
367.3874
367.6733
5346000
5346000
5346000
5346000
5346000
5346000
5346000
5346000
5346000
5346000
5346000
5346000
5346000
5346000
5346000
366.1703
366.426
366.6521
366.846
367.005
367.319
5346000
5346000
5346000
5346000
5346000
5346000
5346000
5346000
5346000
5346000
5346000
5346000
5346000
5346000
5346000
365.7034
365.956
366.187
366.3807
366.5398
366.7832
367.2295
5346000
5346000
5346000
5346000
5346000
5346000
5346000
5346000
5346000
5346000
5346000
5346000
5346000
5346000
5346000
5346000
5346000
5346000
5346000
5346000
5346000
5346000
5346000
5346000
5346000
5346000
5346000
5346000
5346000
5346000
5346000
5346000
5346000
5346000
5346000
368.1466
369.0513
370.8337
377.9634
5346000
5346000
5346000
5346000
5346000
367.6305
368.5898
370.4846
375.2185
390.8395
5346000
5346000
5346000
5346000
5346000
367.1082
367.9523
369.3702
372.4976
380.1064
400.6282
5346000
5346000
5346000
5346000
5346000
366.6125
367.3402
368.3653
370.2288
374.3365
383.5293
405.1049
5346000
5346000
5346000
5346000
5346000
366.1428
366.7889
367.5625
368.6975
370.7751
375.0925
383.8384
402.9777
5346000
5346000
5346000
5346000
5346000
365.6969
366.2803
366.9134
367.6709
368.7735
370.6875
374.3004
380.8201
394.8529
5346000
5346000
5346000
5346000
5346000
365.2705
365.7998
366.3458
366.9249
367.5978
368.5197
369.955
372.3073
375.8629
382.8148
5346000
5346000
5346000
5346000
5346000
364.8618
365.3367
365.8194
366.3056
366.8068
367.3558
368.0262
368.8964
370.0038
370.9672
374.031
5346000
5346000
5346000
5346000
5346000
364.4696
364.8881
365.3145
365.7431
366.1709
366.6014
367.0407
367.4994
367.9395
368.2019
368.7065
371.8736
5346000
5346000
5346000
5346000
5346000
364.0936
364.4547
364.8284
365.2115
365.6024
365.9994
366.4017
366.8023
367.1793
367.4206
367.5364
368.2262
370.0149
5346000
5346000
5346000
5346000
5346000
5346000
5346000
5346000
5346000
5346000
5346000
5346000
5346000
5346000
5346000
367.2919
367.529
367.883
368.7092
5346000
5346000
5346000
5346000
5346000
5346000
5346000
5346000
5346000
5346000
5346000
5346000
5346000
5346000
5346000
366.7392
366.9782
367.2141
367.4679
367.9145
5346000
5346000
5346000
5346000
5346000
5346000
5346000
5346000
5346000
5346000
5346000
5346000
5346000
5346000
5346000
366.2059
366.4566
366.6803
366.8789
367.06
367.4541
5346000
5346000
5346000
5346000
5346000
5346000
5346000
5346000
5346000
5346000
5346000
5346000
5346000
5346000
5346000
365.7211
365.9719
366.2016
366.3953
366.5572
366.8105
367.2913
5346000
5346000
5346000
5346000
5346000
5346000
5346000
5346000
5346000
5346000
5346000
5346000
5346000
5346000
5346000
365.279
365.5279
365.7583
365.9613
366.1278
366.3687
366.7584
367.2023
5346000
5346000
5346000
5346000
5346000
5346000
5346000
5346000
5346000
5346000
5346000
5346000
5346000
5346000
5346000
5346000
5346000
5346000
5346000
5346000
5346000
5346000
5346000
5346000
5346000
5346000
5346000
5346000
5346000
5346000
5346000
5346000
5346000
5346000
5346000
5346000
5346000
5346000
5346000
5346000
367.5614
368.2467
369.2672
371.2524
378.4274
5346000
5346000
5346000
5346000
5346000
367.0697
367.7914
368.8728
371.0056
375.9531
391.1028
5346000
5346000
5346000
5346000
5346000
366.5914
367.2669
368.1745
369.7209
372.98
380.2476
399.113
5346000
5346000
5346000
5346000
5346000
366.1336
366.761
367.5028
368.5644
370.4551
374.3278
382.2158
400.506
5346000
5346000
5346000
5346000
5346000
365.6969
366.2803
366.9134
367.6709
368.7735
370.6875
374.3004
380.8201
394.8529
5346000
5346000
5346000
5346000
5346000
365.2783
365.8204
366.3799
366.9754
367.6772
368.6616
370.2297
372.8253
376.6976
383.6779
5346000
5346000
5346000
5346000
5346000
364.8762
365.3742
365.8782
366.3834
366.9055
367.4899
368.2345
369.2474
370.5708
371.663
374.9102
5346000
5346000
5346000
5346000
5346000
364.4893
364.939
365.3924
365.8406
366.2799
366.7166
367.1651
367.6492
368.1349
368.417
369.0326
372.968
5346000
5346000
5346000
5346000
5346000
364.1172
364.5144
364.9181
365.3211
365.7181
366.1046
366.4778
366.827
367.1227
367.2435
367.4504
368.4239
371.0747
5346000
5346000
5346000
5346000
5346000
363.7599
364.1031
364.4577
364.8206
365.1894
365.5623
365.9357
366.3035
366.6402
366.8562
366.9116
367.3395
367.9586
369.4673
5346000
5346000
5346000
5346000
5346000
5346000
5346000
5346000
5346000
5346000
5346000
5346000
5346000
5346000
5346000
366.7734
366.9751
367.2241
367.564
368.311
5346000
5346000
5346000
5346000
5346000
5346000
5346000
5346000
5346000
5346000
5346000
5346000
5346000
5346000
5346000
366.2563
366.4921
366.7096
366.9182
367.1434
367.6895
5346000
5346000
5346000
5346000
5346000
5346000
5346000
5346000
5346000
5346000
5346000
5346000
5346000
5346000
5346000
365.7553
366.0009
366.227
366.4205
366.5894
366.8657
367.4261
5346000
5346000
5346000
5346000
5346000
5346000
5346000
5346000
5346000
5346000
5346000
5346000
5346000
5346000
5346000
365.2961
365.5431
365.772
365.9744
366.1415
366.3859
366.7857
367.264
5346000
5346000
5346000
5346000
5346000
5346000
5346000
5346000
5346000
5346000
5346000
5346000
5346000
5346000
5346000
364.8776
365.1205
365.3506
365.5573
365.738
365.9766
366.3466
366.7341
367.1745
5346000
5346000
5346000
5346000
5346000
5346000
5346000
5346000
5346000
5346000
5346000
5346000
5346000
5346000
5346000
5346000
5346000
5346000
5346000
5346000
5346000
5346000
5346000
5346000
5346000
5346000
5346000
5346000
5346000
5346000
5346000
5346000
5346000
5346000
5346000
5346000
5346000
5346000
5346000
5346000
5346000
5346000
5346000
5346000
5346000
367.0228
367.6072
368.3306
369.425
371.4775
378.5097
5346000
5346000
5346000
5346000
5346000
366.5615
367.1662
367.9231
369.0759
371.2806
376.0225
390.1906
5346000
5346000
5346000
5346000
5346000
366.1155
366.7073
367.3906
368.3208
369.881
372.9585
379.2431
395.5393
5346000
5346000
5346000
5346000
5346000
365.6885
366.2572
366.8716
367.5966
368.6262
370.3696
373.6218
379.5429
393.1523
5346000
5346000
5346000
5346000
5346000
365.2783
365.8204
366.3799
366.9754
367.6772
368.6616
370.2297
372.8253
376.6976
383.6779
5346000
5346000
5346000
5346000
5346000
364.8837
365.3934
365.9084
366.4238
366.9578
367.5631
368.3515
369.4475
370.8918
372.0443
375.3507
5346000
5346000
5346000
5346000
5346000
364.503
364.9745
365.447
365.9096
366.3583
366.8028
367.2652
367.7819
368.3222
368.6327
369.3134
373.7199
5346000
5346000
5346000
5346000
5346000
364.136
364.5629
364.9918
365.4117
365.815
366.1955
366.5515
366.8755
367.1438
367.2307
367.4782
368.6881
371.9766
5346000
5346000
5346000
5346000
5346000
363.7824
364.1601
364.5431
364.9244
365.2973
365.6561
365.9922
366.2933
366.5258
366.6112
366.7334
367.2724
368.1314
370.3079
5346000
5346000
5346000
5346000
5346000
363.4426
363.769
364.106
364.4503
364.7997
365.1515
365.5028
365.8455
366.1589
366.3595
366.4087
366.7408
367.126
367.6698
368.9172
5346000
5346000
5346000
5346000
5346000
5346000
5346000
5346000
5346000
5346000
5346000
5346000
5346000
5346000
5346000
366.2902
366.4859
366.6981
366.9364
367.2495
368.0622
5346000
5346000
5346000
5346000
5346000
5346000
5346000
5346000
5346000
5346000
5346000
5346000
5346000
5346000
5346000
365.804
366.0347
366.2522
366.4462
366.6307
366.9505
367.6606
5346000
5346000
5346000
5346000
5346000
5346000
5346000
5346000
5346000
5346000
5346000
5346000
5346000
5346000
5346000
365.3291
365.5711
365.796
365.9965
366.1655
366.4181
366.8408
367.3985
5346000
5346000
5346000
5346000
5346000
5346000
5346000
5346000
5346000
5346000
5346000
5346000
5346000
5346000
5346000
364.894
365.1352
365.3638
365.5695
365.7501
365.99
366.3638
366.7613
367.2361
5346000
5346000
5346000
5346000
5346000
5346000
5346000
5346000
5346000
5346000
5346000
5346000
5346000
5346000
5346000
364.4964
364.7331
364.9601
365.1701
365.3586
365.6033
365.9568
366.325
366.7092
367.1478
5346000
5346000
5346000
5346000
5346000
5346000
5346000
5346000
5346000
5346000
5346000
5346000
5346000
5346000
5346000
5346000
5346000
5346000
5346000
5346000
5346000
5346000
5346000
5346000
5346000
5346000
5346000
5346000
5346000
5346000
5346000
5346000
5346000
5346000
5346000
5346000
5346000
5346000
5346000
5346000
5346000
5346000
5346000
5346000
5346000
5346000
5346000
5346000
5346000
5346000
366.5243
367.0472
367.6409
368.3832
369.4962
371.4807
378.2134
5346000
5346000
5346000
5346000
5346000
366.0898
366.6318
367.2382
368.0039
369.1584
371.2487
375.4004
387.9941
5346000
5346000
5346000
5346000
5346000
365.6722
366.2124
366.7915
367.4579
368.3584
369.8013
372.4069
377.1915
389.6839
5346000
5346000
5346000
5346000
5346000
365.2705
365.7998
366.3458
366.9249
367.5978
368.5197
369.955
372.3073
375.8629
382.8148
5346000
5346000
5346000
5346000
5346000
364.8837
365.3934
365.9084
366.4238
366.9578
367.5631
368.3515
369.4475
370.8918
372.0443
375.3507
5346000
5346000
5346000
5346000
5346000
364.5101
364.9926
365.4749
365.9452
366.3993
366.8489
367.3213
367.8596
368.4344
368.7619
369.4721
374.1
5346000
5346000
5346000
5346000
5346000
364.1491
364.5966
365.0433
365.4756
365.884
366.2621
366.6103
366.9258
367.1904
367.2675
367.5362
368.9166
372.6076
5346000
5346000
5346000
5346000
5346000
363.8004
364.2063
364.6132
365.0101
365.3874
365.7362
366.0465
366.3061
366.4861
366.523
366.664
367.2895
368.348
371.0377
5346000
5346000
5346000
5346000
5346000
363.4641
363.8234
364.1875
364.5492
364.902
365.2391
365.552
365.8257
366.0326
366.106
366.2122
366.5985
367.084
367.8274
369.5735
5346000
5346000
5346000
5346000
5346000
363.1407
363.4513
363.7718
364.0989
364.4303
364.7637
365.0953
365.4186
365.7129
365.9062
365.9576
366.2561
366.5582
366.8996
367.3767
368.5998
5346000
5346000
5346000
5346000
5346000
5346000
5346000
5346000
5346000
5346000
5346000
5346000
5346000
5346000
5346000
365.8384
366.0301
366.2366
366.4416
366.6635
367.0615
368.0306
5346000
5346000
5346000
5346000
5346000
5346000
5346000
5346000
5346000
5346000
5346000
5346000
5346000
5346000
5346000
365.3763
365.6041
365.8198
366.0176
366.1924
366.4613
366.9257
367.6322
5346000
5346000
5346000
5346000
5346000
5346000
5346000
5346000
5346000
5346000
5346000
5346000
5346000
5346000
5346000
364.926
365.1623
365.3869
365.5902
365.7708
366.0139
366.396
366.8164
367.3703
5346000
5346000
5346000
5346000
5346000
5346000
5346000
5346000
5346000
5346000
5346000
5346000
5346000
5346000
5346000
364.5123
364.7474
364.9729
365.1818
365.3698
365.6151
365.9702
366.3422
366.7364
367.2092
5346000
5346000
5346000
5346000
5346000
5346000
5346000
5346000
5346000
5346000
5346000
5346000
5346000
5346000
5346000
364.1342
364.3638
364.587
364.7967
364.9918
365.2375
365.5855
365.9375
366.303
366.6854
367.1175
5346000
5346000
5346000
5346000
5346000
5346000
5346000
5346000
5346000
5346000
5346000
5346000
5346000
5346000
5346000
5346000
5346000
5346000
5346000
5346000
5346000
5346000
5346000
5346000
5346000
5346000
5346000
5346000
5346000
5346000
5346000
5346000
5346000
5346000
5346000
5346000
5346000
5346000
5346000
5346000
5346000
5346000
5346000
5346000
5346000
5346000
5346000
5346000
5346000
5346000
5346000
5346000
5346000
5346000
5346000
366.0574
366.5404
367.0616
367.6537
368.3907
369.4613
371.2523
377.4839
5346000
5346000
5346000
5346000
5346000
365.6487
366.1485
366.6801
367.272
368.0139
369.091
370.8919
374.1296
384.2234
5346000
5346000
5346000
5346000
5346000
365.2552
365.7595
366.28
366.8287
367.4508
368.2636
369.4665
371.3815
374.3221
381.0415
5346000
5346000
5346000
5346000
5346000
364.8762
365.3742
365.8782
366.3834
366.9055
367.4899
368.2345
369.2474
370.5708
371.663
374.9102
5346000
5346000
5346000
5346000
5346000
364.5101
364.9926
365.4749
365.9452
366.3993
366.8489
367.3213
367.8596
368.4344
368.7619
369.4721
374.1
5346000
5346000
5346000
5346000
5346000
364.1558
364.6139
365.0697
365.5085
365.9198
366.2974
366.6429
366.9569
367.2237
367.2985
367.5766
369.0463
372.9295
5346000
5346000
5346000
5346000
5346000
363.8129
364.2385
364.6623
365.0705
365.4513
365.7943
366.0893
366.3265
366.4817
366.4969
366.6437
367.3318
368.5337
371.5559
5346000
5346000
5346000
5346000
5346000
363.4813
363.8676
364.2545
364.6309
364.9873
365.3136
365.5988
365.8271
365.9754
365.9972
366.1145
366.5359
367.0981
368.0074
370.1492
5346000
5346000
5346000
5346000
5346000
363.1613
363.5033
363.8497
364.1934
364.528
364.847
365.1416
365.3982
365.5902
365.6646
365.7669
366.0989
366.4542
366.8843
367.5238
369.1708
5346000
5346000
5346000
5346000
5346000
362.8534
363.149
363.4539
363.765
364.0798
364.396
364.7103
365.016
365.295
365.4811
365.54
365.819
366.0948
366.3664
366.6741
367.1978
368.5607
5346000
5346000
5346000
5346000
5346000
5346000
5346000
5346000
5346000
5346000
5346000
5346000
5346000
5346000
5346000
365.4114
365.6025
365.8055
366.0075
366.202
366.5028
367.037
367.9993
5346000
5346000
5346000
5346000
5346000
5346000
5346000
5346000
5346000
5346000
5346000
5346000
5346000
5346000
5346000
364.9718
365.1947
365.4102
365.6096
365.7924
366.0426
366.4393
366.9013
367.603
5346000
5346000
5346000
5346000
5346000
5346000
5346000
5346000
5346000
5346000
5346000
5346000
5346000
5346000
5346000
364.5433
364.7737
364.9953