/*--------------------------------*- C++ -*----------------------------------*\
| =========                 |                                                 |
| \\      /  F ield         | OpenFOAM: The Open Source CFD Toolbox           |
|  \\    /   O peration     | Version:  2306                                  |
|   \\  /    A nd           | Website:  www.openfoam.com                      |
|    \\/     M anipulation  |                                                 |
\*---------------------------------------------------------------------------*/
FoamFile
{
    version     2.0;
    format      ascii;
    arch        "LSB;label=32;scalar=64";
    class       volScalarField;
    location    "0.3";
    object      T;
}
// * * * * * * * * * * * * * * * * * * * * * * * * * * * * * * * * * * * * * //

dimensions      [0 0 0 1 0 0 0];

internalField   nonuniform List<scalar> 
52000
(
1096.786
1096.785
1098.067
1096.741
1096.782
1098.067
1096.739
1099.788
1098.052
1096.652
1096.778
1098.066
1096.735
1099.787
1098.052
1096.648
1101.587
1099.787
1098.024
1096.521
1096.773
1098.064
1096.73
1099.786
1098.05
1096.642
1101.586
1099.786
1098.023
1096.515
1103.337
1101.591
1099.786
1097.984
1096.356
1096.769
1098.062
1096.723
1099.785
1098.048
1096.633
1101.585
1099.785
1098.02
1096.504
1103.337
1101.591
1099.785
1097.982
1096.344
1104.997
1103.343
1101.601
1099.787
1097.937
1096.219
1096.764
1098.06
1096.717
1099.783
1098.046
1096.623
1101.584
1099.783
1098.018
1096.488
1103.336
1101.589
1099.783
1097.979
1096.323
1104.997
1103.342
1101.6
1099.785
1097.935
1096.199
1106.56
1105.003
1103.355
1101.617
1099.793
1097.903
1096.13
1096.76
1098.059
1096.71
1099.781
1098.043
1096.611
1101.582
1099.781
1098.014
1096.47
1103.334
1101.587
1099.78
1097.975
1096.294
1104.996
1103.341
1101.597
1099.782
1097.929
1096.161
1106.559
1105.003
1103.354
1101.615
1099.791
1097.898
1096.105
1108.027
1106.565
1105.016
1103.376
1101.643
1099.805
1097.883
1096.048
1096.757
1098.057
1096.704
1099.78
1098.041
1096.599
1101.581
1099.778
1098.01
1096.451
1103.333
1101.585
1099.776
1097.969
1096.264
1104.995
1103.339
1101.594
1099.778
1097.922
1096.104
1106.558
1105.002
1103.352
1101.612
1099.787
1097.889
1096.054
1108.027
1106.565
1105.015
1103.374
1101.641
1099.803
1097.877
1096.018
1109.408
1108.033
1106.577
1105.037
1103.407
1101.671
1099.816
1097.867
1095.979
1096.755
1098.056
1096.699
1099.778
1098.038
1096.589
1101.579
1099.776
1098.006
1096.429
1103.331
1101.583
1099.773
1097.963
1096.243
1104.993
1103.337
1101.591
1099.772
1097.916
1096.032
1106.557
1105
1103.349
1101.607
1099.78
1097.877
1095.976
1108.026
1106.564
1105.013
1103.371
1101.636
1099.798
1097.864
1095.956
1109.408
1108.032
1106.577
1105.036
1103.405
1101.669
1099.813
1097.859
1095.945
1110.709
1109.413
1108.044
1106.597
1105.068
1103.439
1101.692
1099.83
1097.858
1095.926
1096.755
1098.055
1096.697
1099.777
1098.037
1096.581
1101.578
1099.774
1098.002
1096.407
1103.33
1101.58
1099.769
1097.956
1096.194
1104.992
1103.335
1101.587
1099.765
1097.911
1086.072
1106.556
1104.998
1103.346
1101.601
1099.771
1097.863
1095.866
1108.025
1106.562
1105.011
1103.366
1101.629
1099.791
1097.846
1095.859
1109.407
1108.031
1106.575
1105.033
1103.401
1101.665
1099.808
1097.843
1095.875
1110.708
1109.412
1108.043
1106.596
1105.066
1103.438
1101.691
1099.827
1097.849
1095.889
1111.936
1110.713
1109.423
1108.062
1106.626
1105.099
1103.463
1101.717
1099.848
1097.857
1095.891
1096.757
1098.055
1096.697
1099.777
1098.036
1096.576
1101.577
1099.773
1097.999
1096.39
1103.328
1101.578
1099.765
1097.948
1096.145
1104.99
1103.332
1101.583
1099.758
1097.896
1076.886
1106.554
1104.996
1103.342
1101.593
1099.757
1096.7
1076.728
1108.024
1106.56
1105.007
1103.36
1101.618
1099.784
1097.823
1095.722
1109.406
1108.03
1106.572
1105.028
1103.394
1101.661
1099.8
1097.82
1095.764
1110.708
1109.411
1108.042
1106.593
1105.062
1103.435
1101.687
1099.82
1097.83
1095.813
1111.936
1110.713
1109.422
1108.061
1106.625
1105.098
1103.462
1101.715
1099.845
1097.847
1095.852
1113.097
1111.941
1110.723
1109.44
1108.089
1106.656
1105.123
1103.49
1101.744
1099.871
1097.865
1095.874
1096.76
1098.056
1096.699
1099.777
1098.036
1096.576
1101.576
1099.772
1097.997
1096.381
1103.327
1101.577
1099.763
1097.942
1096.108
1104.989
1103.331
1101.579
1099.751
1097.879
1071.826
1106.553
1104.994
1103.338
1101.585
1099.743
1094.459
1054.455
1108.023
1106.558
1105.003
1103.352
1101.6
1099.321
1094.419
1071.528
1109.405
1108.028
1106.569
1105.022
1103.383
1101.655
1099.79
1097.787
1095.608
1110.707
1109.41
1108.039
1106.589
1105.056
1103.431
1101.683
1099.811
1097.802
1095.695
1111.935
1110.712
1109.421
1108.058
1106.621
1105.096
1103.46
1101.712
1099.838
1097.827
1095.774
1113.097
1111.94
1110.722
1109.439
1108.087
1106.655
1105.122
1103.489
1101.742
1099.867
1097.855
1095.835
1114.196
1113.101
1111.949
1110.738
1109.465
1108.116
1106.678
1105.149
1103.518
1101.774
1099.898
1097.882
1095.875
1096.764
1098.057
1096.704
1099.777
1098.037
1096.581
1101.576
1099.772
1097.997
1096.381
1103.327
1101.576
1099.761
1097.939
1096.088
1104.988
1103.329
1101.577
1099.746
1097.864
1068.959
1106.552
1104.992
1103.335
1101.579
1099.73
1092.525
1040.664
1108.021
1106.556
1105
1103.345
1101.586
1098.431
1087.804
1040.442
1109.404
1108.026
1106.566
1105.015
1103.365
1101.424
1098.462
1092.441
1068.494
1110.706
1109.409
1108.036
1106.583
1105.046
1103.427
1101.678
1099.798
1097.761
1095.529
1111.935
1110.711
1109.419
1108.055
1106.615
1105.092
1103.457
1101.707
1099.826
1097.795
1095.653
1113.096
1111.939
1110.721
1109.436
1108.084
1106.652
1105.12
1103.487
1101.739
1099.86
1097.834
1095.758
1114.195
1113.1
1111.949
1110.737
1109.463
1108.115
1106.677
1105.148
1103.518
1101.772
1099.895
1097.873
1095.838
1115.237
1114.199
1113.109
1111.964
1110.761
1109.49
1108.136
1106.701
1105.176
1103.549
1101.807
1099.93
1097.909
1095.895
1096.769
1098.059
1096.71
1099.778
1098.038
1096.589
1101.577
1099.773
1097.999
1096.39
1103.327
1101.576
1099.761
1097.939
1096.088
1104.988
1103.328
1101.576
1099.744
1097.856
1067.631
1106.551
1104.99
1103.332
1101.575
1099.721
1091.107
1032.433
1108.02
1106.555
1104.997
1103.339
1101.575
1097.635
1082.024
1019.806
1109.402
1108.024
1106.562
1105.008
1103.351
1101.006
1095.845
1081.93
1031.843
1110.705
1109.407
1108.033
1106.577
1105.028
1103.287
1101.064
1097.687
1090.96
1066.943
1111.934
1110.709
1109.416
1108.05
1106.606
1105.089
1103.453
1101.701
1099.811
1097.751
1095.484
1113.095
1111.938
1110.719
1109.433
1108.079
1106.649
1105.118
1103.484
1101.734
1099.848
1097.802
1095.638
1114.195
1113.1
1111.947
1110.735
1109.46
1108.113
1106.675
1105.146
1103.516
1101.769
1099.888
1097.854
1095.762
1115.236
1114.199
1113.108
1111.963
1110.76
1109.489
1108.136
1106.701
1105.175
1103.548
1101.805
1099.927
1097.901
1095.857
1116.224
1115.24
1114.207
1113.122
1111.985
1110.784
1109.508
1108.158
1106.727
1105.205
1103.582
1101.842
1099.966
1097.945
1095.931
1096.773
1098.06
1096.717
1099.78
1098.041
1096.599
1101.578
1099.774
1098.002
1096.407
1103.327
1101.577
1099.763
1097.942
1096.108
1104.988
1103.328
1101.576
1099.744
1097.856
1067.631
1106.551
1104.99
1103.331
1101.572
1099.716
1090.358
1028.544
1108.02
1106.553
1104.995
1103.335
1101.567
1097.028
1077.757
1006.95
1109.401
1108.023
1106.56
1105.003
1103.341
1100.641
1093.466
1072.6
1006.452
1110.704
1109.405
1108.03
1106.571
1105.016
1103.052
1099.875
1093.479
1077.489
1027.369
1111.933
1110.708
1109.413
1108.043
1106.59
1104.988
1103.117
1100.746
1097.096
1090.127
1066.638
1113.094
1111.937
1110.716
1109.428
1108.07
1106.646
1105.115
1103.481
1101.727
1099.831
1097.757
1095.473
1114.194
1113.099
1111.946
1110.732
1109.455
1108.11
1106.673
1105.144
1103.513
1101.765
1099.876
1097.824
1095.647
1115.236
1114.198
1113.107
1111.961
1110.757
1109.487
1108.134
1106.7
1105.174
1103.547
1101.803
1099.921
1097.884
1095.783
1116.223
1115.24
1114.206
1113.122
1111.984
1110.783
1109.507
1108.158
1106.726
1105.205
1103.581
1101.841
1099.964
1097.937
1095.893
1117.16
1116.227
1115.247
1114.22
1113.142
1112.006
1110.801
1109.528
1108.181
1106.754
1105.236
1103.616
1101.879
1100.006
1097.987
1096.556
1096.778
1098.062
1096.723
1099.781
1098.043
1096.611
1101.579
1099.776
1098.006
1096.429
1103.328
1101.578
1099.765
1097.948
1096.145
1104.988
1103.329
1101.577
1099.746
1097.864
1068.959
1106.551
1104.99
1103.331
1101.572
1099.716
1090.358
1028.544
1108.019
1106.553
1104.994
1103.333
1101.563
1096.699
1075.494
1000.73
1109.401
1108.022
1106.558
1104.999
1103.334
1100.366
1091.635
1065.628
990.1726
1110.703
1109.404
1108.028
1106.566
1105.006
1102.856
1098.81
1089.594
1065.383
999.3419
1111.932
1110.706
1109.411
1108.038
1106.578
1104.83
1102.48
1098.865
1091.643
1074.967
1026.528
1113.093
1111.935
1110.714
1109.423
1108.056
1106.564
1104.893
1102.974
1100.519
1096.784
1090.033
1067.559
1114.193
1113.097
1111.943
1110.727
1109.447
1108.107
1106.671
1105.142
1103.51
1101.757
1099.859
1097.782
1095.492
1115.235
1114.197
1113.106
1111.958
1110.752
1109.484
1108.132
1106.698
1105.173
1103.545
1101.799
1099.912
1097.858
1095.674
1116.223
1115.239
1114.205
1113.12
1111.981
1110.781
1109.506
1108.157
1106.726
1105.204
1103.581
1101.84
1099.96
1097.923
1095.819
1117.159
1116.227
1115.247
1114.219
1113.141
1112.005
1110.8
1109.528
1108.181
1106.753
1105.236
1103.616
1101.879
1100.005
1097.981
1096.504
1118.047
1117.163
1116.234
1115.259
1114.238
1113.162
1112.022
1110.819
1109.549
1108.206
1106.782
1105.267
1103.651
1101.918
1100.049
1098.566
1097.758
1096.782
1098.064
1096.73
1099.783
1098.046
1096.623
1101.581
1099.778
1098.01
1096.451
1103.33
1101.58
1099.769
1097.956
1096.194
1104.989
1103.331
1101.579
1099.751
1097.879
1071.826
1106.551
1104.99
1103.332
1101.575
1099.721
1091.107
1032.433
1108.019
1106.553
1104.994
1103.333
1101.563
1096.699
1075.494
1000.73
1109.4
1108.021
1106.557
1104.997
1103.331
1100.218
1090.635
1061.907
982.1654
1110.702
1109.403
1108.026
1106.562
1105.001
1102.714
1097.995
1086.568
1056.25
981.0878
1111.931
1110.705
1109.408
1108.033
1106.57
1104.704
1101.928
1097.15
1086.546
1061.247
997.9927
1113.093
1111.934
1110.711
1109.418
1108.045
1106.439
1104.483
1101.997
1098.117
1090.634
1074.654
1029.286
1114.192
1113.096
1111.941
1110.722
1109.434
1108.035
1106.498
1104.819
1102.888
1100.428
1096.816
1090.708
1069.885
1115.234
1114.196
1113.103
1111.954
1110.745
1109.481
1108.13
1106.696
1105.171
1103.541
1101.792
1099.897
1097.824
1095.532
1116.222
1115.238
1114.204
1113.117
1111.977
1110.779
1109.504
1108.155
1106.724
1105.203
1103.579
1101.837
1099.954
1097.903
1095.71
1117.159
1116.226
1115.246
1114.217
1113.139
1112.004
1110.799
1109.527
1108.18
1106.753
1105.236
1103.616
1101.88
1100.004
1097.968
1096.388
1118.047
1117.162
1116.233
1115.258
1114.237
1113.161
1112.021
1110.819
1109.549
1108.206
1106.782
1105.268
1103.652
1101.919
1100.048
1098.56
1097.679
1118.889
1118.05
1117.169
1116.245
1115.277
1114.257
1113.177
1112.039
1110.839
1109.572
1108.232
1106.811
1105.3
1103.687
1101.957
1100.563
1099.676
1098.968
1096.785
1098.066
1096.735
1099.785
1098.048
1096.633
1101.582
1099.781
1098.014
1096.47
1103.331
1101.583
1099.773
1097.963
1096.243
1104.99
1103.332
1101.583
1099.758
1097.896
1076.886
1106.552
1104.992
1103.335
1101.579
1099.73
1092.525
1040.664
1108.02
1106.553
1104.995
1103.335
1101.567
1097.028
1077.757
1006.95
1109.4
1108.021
1106.557
1104.997
1103.331
1100.218
1090.635
1061.907
982.1654
1110.702
1109.402
1108.025
1106.561
1104.998
1102.638
1097.552
1084.906
1051.346
972.0262
1111.93
1110.704
1109.407
1108.03
1106.565
1104.615
1101.518
1095.82
1082.539
1050.834
979.3414
1113.092
1111.933
1110.709
1109.414
1108.037
1106.343
1104.141
1101.132
1095.894
1084.842
1060.709
1002.387
1114.191
1113.095
1111.938
1110.718
1109.424
1107.927
1106.184
1104.209
1101.673
1097.766
1090.657
1076.633
1036.031
1115.234
1114.195
1113.101
1111.949
1110.733
1109.416
1107.981
1106.451
1104.786
1102.879
1100.505
1097.217
1092.124
1074.153
1116.221
1115.237
1114.202
1113.113
1111.97
1110.776
1109.503
1108.154
1106.723
1105.201
1103.576
1101.832
1099.944
1097.878
1095.576
1117.158
1116.225
1115.244
1114.214
1113.135
1112.001
1110.798
1109.525
1108.179
1106.752
1105.235
1103.616
1101.879
1100.001
1097.953
1096.16
1118.047
1117.162
1116.232
1115.257
1114.235
1113.16
1112.02
1110.818
1109.549
1108.206
1106.782
1105.269
1103.654
1101.921
1100.049
1098.548
1097.492
1118.888
1118.05
1117.169
1116.244
1115.276
1114.256
1113.176
1112.039
1110.839
1109.572
1108.232
1106.811
1105.301
1103.689
1101.959
1100.567
1099.669
1098.868
1119.686
1118.892
1118.057
1117.18
1116.262
1115.295
1114.271
1113.193
1112.057
1110.86
1109.596
1108.258
1106.84
1105.332
1103.722
1102.411
1101.547
1100.787
1100.191
1096.786
1098.067
1096.739
1099.786
1098.05
1096.642
1101.584
1099.783
1098.018
1096.488
1103.333
1101.585
1099.776
1097.969
1096.264
1104.992
1103.335
1101.587
1099.765
1097.911
1086.072
1106.553
1104.994
1103.338
1101.585
1099.743
1094.459
1054.455
1108.02
1106.555
1104.997
1103.339
1101.575
1097.635
1082.024
1019.806
1109.401
1108.022
1106.558
1104.999
1103.334
1100.366
1091.635
1065.628
990.1726
1110.702
1109.402
1108.025
1106.561
1104.998
1102.638
1097.552
1084.906
1051.346
972.0262
1111.93
1110.703
1109.406
1108.029
1106.562
1104.569
1101.297
1095.089
1080.327
1045.223
970.0625
1113.091
1111.932
1110.707
1109.411
1108.033
1106.277
1103.894
1100.478
1094.151
1080.26
1050.106
984.9478
1114.191
1113.094
1111.937
1110.714
1109.417
1107.845
1105.929
1103.688
1100.583
1095.278
1084.831
1063.897
1012.93
1115.233
1114.194
1113.099
1111.945
1110.723
1109.317
1107.713
1105.994
1104.052
1101.577
1097.914
1091.772
1080.779
1047.826
1116.221
1115.236
1114.2
1113.109
1111.958
1110.715
1109.367
1107.944
1106.437
1104.807
1102.967
1100.768
1097.976
1094.235
1081.924
1117.158
1116.224
1115.242
1114.211
1113.128
1111.999
1110.796
1109.524
1108.178
1106.751
1105.234
1103.615
1101.878
1099.998
1097.939
1095.511
1118.046
1117.161
1116.231
1115.254
1114.231
1113.158
1112.019
1110.817
1109.548
1108.205
1106.782
1105.269
1103.656
1101.925
1100.052
1098.54
1097.086
1118.888
1118.049
1117.168
1116.243
1115.274
1114.255
1113.175
1112.038
1110.838
1109.572
1108.232
1106.812
1105.303
1103.692
1101.964
1100.578
1099.657
1098.626
1119.686
1118.891
1118.056
1117.179
1116.261
1115.294
1114.27
1113.193
1112.057
1110.86
1109.596
1108.259
1106.841
1105.334
1103.725
1102.417
1101.557
1100.779
1100.076
1120.44
1119.689
1118.898
1118.067
1117.196
1116.279
1115.308
1114.286
1113.21
1112.077
1110.882
1109.62
1108.285
1106.87
1105.364
1104.123
1103.278
1102.529
1101.898
1101.429
1098.067
1096.741
1099.787
1098.052
1096.648
1101.585
1099.785
1098.02
1096.504
1103.334
1101.587
1099.78
1097.975
1096.294
1104.993
1103.337
1101.591
1099.772
1097.916
1096.032
1106.554
1104.996
1103.342
1101.593
1099.757
1096.7
1076.728
1108.021
1106.556
1105
1103.345
1101.586
1098.431
1087.804
1040.442
1109.401
1108.023
1106.56
1105.003
1103.341
1100.641
1093.466
1072.6
1006.452
1110.702
1109.403
1108.026
1106.562
1105.001
1102.714
1097.995
1086.568
1056.25
981.0878
1111.93
1110.703
1109.406
1108.029
1106.562
1104.569
1101.297
1095.089
1080.327
1045.223
970.0625
1113.091
1111.931
1110.707
1109.409
1108.03
1106.243
1103.764
1100.124
1093.187
1077.722
1044.387
976.3119
1114.19
1113.093
1111.935
1110.711
1109.413
1107.789
1105.75
1103.306
1099.747
1093.31
1080.208
1054.236
998.2394
1115.232
1114.192
1113.097
1111.941
1110.717
1109.242
1107.498
1105.615
1103.415
1100.392
1095.469
1086.602
1070.547
1030.676
1116.22
1115.235
1114.197
1113.105
1111.95
1110.623
1109.122
1107.557
1105.9
1104.049
1101.758
1098.599
1093.904
1086.793
1067.221
1117.157
1116.223
1115.24
1114.207
1113.118
1111.941
1110.669
1109.333
1107.936
1106.466
1104.893
1103.164
1101.226
1099.097
1097.102
1090.848
1118.045
1117.16
1116.229
1115.251
1114.225
1113.156
1112.017
1110.816
1109.546
1108.204
1106.781
1105.269
1103.657
1101.928
1100.059
1098.598
1096.021
1118.887
1118.049
1117.167
1116.24
1115.27
1114.253
1113.174
1112.037
1110.837
1109.571
1108.232
1106.813
1105.305
1103.697
1101.971
1100.615
1099.653
1098.11
1119.685
1118.891
1118.055
1117.178
1116.259
1115.292
1114.269
1113.192
1112.057
1110.86
1109.596
1108.26
1106.843
1105.338
1103.73
1102.435
1101.587
1100.764
1099.8
1120.44
1119.688
1118.897
1118.066
1117.195
1116.278
1115.307
1114.285
1113.21
1112.077
1110.882
1109.62
1108.286
1106.871
1105.367
1104.131
1103.293
1102.545
1101.889
1101.306
1121.154
1120.443
1119.695
1118.908
1118.082
1117.212
1116.291
1115.322
1114.302
1113.228
1112.097
1110.904
1109.645
1108.312
1106.898
1105.721
1104.89
1104.142
1103.509
1103.011
1102.092
1099.788
1098.052
1096.652
1101.586
1099.786
1098.023
1096.515
1103.336
1101.589
1099.783
1097.979
1096.323
1104.995
1103.339
1101.594
1099.778
1097.922
1096.104
1106.556
1104.998
1103.346
1101.601
1099.771
1097.863
1095.866
1108.023
1106.558
1105.003
1103.352
1101.6
1099.321
1094.419
1071.528
1109.402
1108.024
1106.562
1105.008
1103.351
1101.006
1095.845
1081.93
1031.843
1110.703
1109.404
1108.028
1106.566
1105.006
1102.856
1098.81
1089.594
1065.383
999.3419
1111.93
1110.704
1109.407
1108.03
1106.565
1104.615
1101.518
1095.82
1082.539
1050.834
979.3414
1113.091
1111.931
1110.707
1109.409
1108.03
1106.243
1103.764
1100.124
1093.187
1077.722
1044.387
976.3119
1114.19
1113.092
1111.934
1110.71
1109.411
1107.761
1105.657
1103.104
1099.291
1092.216
1077.642
1049.031
991.0427
1115.231
1114.192
1113.096
1111.939
1110.713
1109.192
1107.349
1105.345
1102.943
1099.474
1093.523
1082.491
1062.812
1020.055
1116.219
1115.234
1114.196
1113.101
1111.944
1110.553
1108.928
1107.242
1105.449
1103.383
1100.641
1096.522
1089.98
1080.007
1057.965
1117.156
1116.222
1115.238
1114.203
1113.11
1111.854
1110.44
1108.983
1107.488
1105.928
1104.23
1102.246
1099.811
1096.895
1094.239
1085.363
1118.044
1117.159
1116.227
1115.247
1114.215
1113.101
1111.897
1110.637
1109.328
1107.967
1106.547
1105.056
1103.489
1101.926
1100.775
1099.499
1092.425
1118.887
1118.048
1117.165
1116.237
1115.265
1114.251
1113.172
1112.036
1110.836
1109.57
1108.231
1106.813
1105.307
1103.703
1101.984
1100.8
1099.722
1096.927
1119.685
1118.89
1118.054
1117.176
1116.256
1115.291
1114.268
1113.191
1112.056
1110.859
1109.596
1108.261
1106.846
1105.343
1103.74
1102.484
1101.67
1100.754
1099.237
1120.44
1119.688
1118.896
1118.065
1117.193
1116.277
1115.306
1114.285
1113.209
1112.076
1110.882
1109.621
1108.288
1106.875
1105.372
1104.15
1103.333
1102.586
1101.871
1101.016
1121.153
1120.443
1119.694
1118.907
1118.081
1117.212
1116.291
1115.322
1114.302
1113.228
1112.097
1110.905
1109.646
1108.314
1106.901
1105.728
1104.906
1104.164
1103.528
1103.001
1101.968
1121.827
1121.156
1120.449
1119.704
1118.922
1118.098
1117.224
1116.305
1115.337
1114.319
1113.247
1112.118
1110.927
1109.669
1108.338
1107.219
1106.403
1105.654
1105.003
1104.486
1103.599
1102.163
1101.587
1099.787
1098.024
1096.521
1103.337
1101.591
1099.785
1097.982
1096.344
1104.996
1103.341
1101.597
1099.782
1097.929
1096.161
1106.557
1105
1103.349
1101.607
1099.78
1097.877
1095.976
1108.024
1106.56
1105.007
1103.36
1101.618
1099.784
1097.823
1095.722
1109.404
1108.026
1106.566
1105.015
1103.365
1101.424
1098.462
1092.441
1068.494
1110.704
1109.405
1108.03
1106.571
1105.016
1103.052
1099.875
1093.479
1077.489
1027.369
1111.931
1110.705
1109.408
1108.033
1106.57
1104.704
1101.928
1097.15
1086.546
1061.247
997.9927
1113.091
1111.932
1110.707
1109.411
1108.033
1106.277
1103.894
1100.478
1094.151
1080.26
1050.106
984.9478
1114.19
1113.092
1111.934
1110.71
1109.411
1107.761
1105.657
1103.104
1099.291
1092.216
1077.642
1049.031
991.0427
1115.231
1114.191
1113.095
1111.937
1110.711
1109.166
1107.272
1105.204
1102.691
1098.97
1092.436
1080.207
1058.654
1014.922
1116.219
1115.233
1114.194
1113.099
1111.94
1110.506
1108.794
1107.021
1105.124
1102.883
1099.765
1094.849
1086.835
1074.861
1052.266
1117.155
1116.221
1115.237
1114.2
1113.104
1111.788
1110.259
1108.7
1107.118
1105.472
1103.637
1101.366
1098.373
1094.577
1091.28
1081.029
1118.044
1117.158
1116.225
1115.243
1114.208
1113.018
1111.681
1110.31
1108.923
1107.524
1106.1
1104.621
1103.059
1101.528
1100.621
1098.847
1088.098
1118.886
1118.046
1117.163
1116.233
1115.255
1114.199
1113.058
1111.867
1110.632
1109.356
1108.041
1106.689
1105.315
1104
1103.107
1102.593
1100.15
1094.104
1119.684
1118.889
1118.052
1117.173
1116.25
1115.289
1114.267
1113.19
1112.055
1110.858
1109.596
1108.261
1106.848
1105.349
1103.753
1102.693
1101.959
1100.789
1098.087
1120.439
1119.687
1118.895
1118.063
1117.19
1116.275
1115.305
1114.284
1113.209
1112.076
1110.882
1109.622
1108.291
1106.88
1105.381
1104.2
1103.438
1102.691
1101.848
1100.451
1121.153
1120.442
1119.693
1118.906
1118.08
1117.21
1116.29
1115.321
1114.301
1113.228
1112.097
1110.905
1109.647
1108.317
1106.906
1105.747
1104.949
1104.221
1103.575
1102.978
1101.679
1121.826
1121.156
1120.448
1119.704
1118.922
1118.097
1117.224
1116.304
1115.337
1114.319
1113.247
1112.118
1110.928
1109.671
1108.34
1107.226
1106.419
1105.677
1105.029
1104.506
1103.589
1102.039
1122.461
1121.829
1121.162
1120.458
1119.719
1118.937
1118.109
1117.237
1116.319
1115.353
1114.337
1113.267
1112.139
1110.95
1109.693
1108.628
1107.831
1107.083
1106.414
1105.859
1105
1103.662
1102.234
1103.337
1101.591
1099.786
1097.984
1096.356
1104.997
1103.342
1101.6
1099.785
1097.935
1096.199
1106.558
1105.002
1103.352
1101.612
1099.787
1097.889
1096.054
1108.025
1106.562
1105.011
1103.366
1101.629
1099.791
1097.846
1095.859
1109.405
1108.028
1106.569
1105.022
1103.383
1101.655
1099.79
1097.787
1095.608
1110.705
1109.407
1108.033
1106.577
1105.028
1103.287
1101.064
1097.687
1090.96
1066.943
1111.932
1110.706
1109.411
1108.038
1106.578
1104.83
1102.48
1098.865
1091.643
1074.967
1026.528
1113.092
1111.933
1110.709
1109.414
1108.037
1106.343
1104.141
1101.132
1095.894
1084.842
1060.709
1002.387
1114.19
1113.093
1111.935
1110.711
1109.413
1107.789
1105.75
1103.306
1099.747
1093.31
1080.208
1054.236
998.2394
1115.231
1114.191
1113.095
1111.937
1110.711
1109.166
1107.272
1105.204
1102.691
1098.97
1092.436
1080.207
1058.654
1014.922
1116.218
1115.233
1114.194
1113.098
1111.938
1110.483
1108.726
1106.907
1104.954
1102.614
1099.28
1093.911
1085.083
1072.092
1049.514
1117.155
1116.22
1115.236
1114.197
1113.101
1111.744
1110.135
1108.502
1106.856
1105.139
1103.184
1100.658
1097.177
1092.652
1088.937
1078.12
1118.043
1117.157
1116.224
1115.24
1114.202
1112.955
1111.509
1110.046
1108.592
1107.156
1105.713
1104.207
1102.561
1100.884
1099.933
1097.814
1084.492
1118.885
1118.045
1117.161
1116.23
1115.248
1114.12
1112.852
1111.556
1110.254
1108.959
1107.683
1106.437
1105.249
1104.232
1103.795
1103.068
1099.682
1090.699
1119.683
1118.888
1118.05
1117.169
1116.241
1115.239
1114.157
1113.029
1111.861
1110.658
1109.425
1108.17
1106.912
1105.732
1104.94
1104.622
1103.104
1100.951
1095.864
1120.439
1119.686
1118.894
1118.06
1117.185
1116.273
1115.304
1114.283
1113.208
1112.075
1110.882
1109.623
1108.293
1106.886
1105.395
1104.405
1103.775
1102.98
1101.837
1099.412
1121.152
1120.442
1119.692
1118.904
1118.077
1117.209
1116.289
1115.32
1114.301
1113.227
1112.097
1110.906
1109.65
1108.322
1106.915
1105.795
1105.055
1104.355
1103.682
1102.939
1101.13
1121.826
1121.155
1120.448
1119.702
1118.92
1118.096
1117.223
1116.304
1115.337
1114.319
1113.247
1112.119
1110.93
1109.674
1108.345
1107.244
1106.461
1105.736
1105.095
1104.554
1103.564
1101.751
1122.46
1121.829
1121.161
1120.458
1119.718
1118.937
1118.109
1117.237
1116.319
1115.353
1114.337
1113.267
1112.14
1110.951
1109.695
1108.634
1107.846
1107.106
1106.442
1105.888
1105.02
1103.652
1102.11
1123.056
1122.463
1121.835
1121.171
1120.472
1119.733
1118.949
1118.122
1117.251
1116.335
1115.37
1114.355
1113.286
1112.16
1110.972
1109.957
1109.181
1108.44
1107.759
1107.169
1106.309
1105.054
1103.725
1102.305
1104.997
1103.343
1101.601
1099.787
1097.937
1096.219
1106.559
1105.003
1103.354
1101.615
1099.791
1097.898
1096.105
1108.026
1106.564
1105.013
1103.371
1101.636
1099.798
1097.864
1095.956
1109.406
1108.03
1106.572
1105.028
1103.394
1101.661
1099.8
1097.82
1095.764
1110.706
1109.409
1108.036
1106.583
1105.046
1103.427
1101.678
1099.798
1097.761
1095.529
1111.933
1110.708
1109.413
1108.043
1106.59
1104.988
1103.117
1100.746
1097.096
1090.127
1066.638
1113.093
1111.934
1110.711
1109.418
1108.045
1106.439
1104.483
1101.997
1098.117
1090.634
1074.654
1029.286
1114.191
1113.094
1111.937
1110.714
1109.417
1107.845
1105.929
1103.688
1100.583
1095.278
1084.831
1063.897
1012.93
1115.231
1114.192
1113.096
1111.939
1110.713
1109.192
1107.349
1105.345
1102.943
1099.474
1093.523
1082.491
1062.812
1020.055
1116.218
1115.233
1114.194
1113.098
1111.938
1110.483
1108.726
1106.907
1104.954
1102.614
1099.28
1093.911
1085.083
1072.092
1049.514
1117.155
1116.22
1115.235
1114.196
1113.099
1111.722
1110.072
1108.402
1106.721
1104.964
1102.937
1100.261
1096.496
1091.563
1087.655
1076.666
1118.043
1117.156
1116.223
1115.238
1114.199
1112.913
1111.391
1109.863
1108.361
1106.894
1105.427
1103.874
1102.12
1100.262
1099.226
1096.9
1082.01
1118.885
1118.045
1117.16
1116.227
1115.243
1114.06
1112.689
1111.306
1109.946
1108.632
1107.381
1106.199
1105.106
1104.196
1103.901
1103.068
1098.889
1087.752
1119.683
1118.887
1118.049
1117.166
1116.234
1115.164
1113.961
1112.733
1111.502
1110.287
1109.106
1107.986
1106.969
1106.167
1105.867
1105.415
1103.552
1100.581
1093.209
1120.438
1119.685
1118.892
1118.056
1117.176
1116.226
1115.199
1114.129
1113.022
1111.885
1110.722
1109.543
1108.37
1107.275
1106.534
1106.256
1105.054
1103.728
1101.842
1097.683
1121.152
1120.441
1119.691
1118.901
1118.072
1117.207
1116.287
1115.319
1114.3
1113.227
1112.097
1110.907
1109.652
1108.327
1106.927
1105.987
1105.388
1104.703
1103.926
1102.883
1100.166
1121.826
1121.155
1120.446
1119.7
1118.917
1118.094
1117.222
1116.303
1115.336
1114.318
1113.247
1112.12
1110.932
1109.678
1108.353
1107.288
1106.563
1105.874
1105.237
1104.65
1103.518
1101.203
1122.46
1121.828
1121.161
1120.456
1119.716
1118.936
1118.108
1117.236
1116.319
1115.353
1114.337
1113.268
1112.141
1110.954
1109.7
1108.651
1107.886
1107.164
1106.511
1105.957
1105.067
1103.627
1101.822
1123.056
1122.463
1121.834
1121.17
1120.471
1119.733
1118.948
1118.121
1117.251
1116.335
1115.37
1114.355
1113.287
1112.161
1110.974
1109.964
1109.196
1108.462
1107.787
1107.2
1106.339
1105.075
1103.715
1102.182
1123.615
1123.059
1122.469
1121.844
1121.185
1120.486
1119.744
1118.961
1118.135
1117.266
1116.351
1115.388
1114.374
1113.306
1112.18
1111.214
1110.462
1109.732
1109.046
1108.43
1107.565
1106.357
1105.109
1103.788
1102.377
1106.56
1105.003
1103.355
1101.617
1099.793
1097.903
1096.13
1108.027
1106.565
1105.015
1103.374
1101.641
1099.803
1097.877
1096.018
1109.407
1108.031
1106.575
1105.033
1103.401
1101.665
1099.808
1097.843
1095.875
1110.707
1109.41
1108.039
1106.589
1105.056
1103.431
1101.683
1099.811
1097.802
1095.695
1111.934
1110.709
1109.416
1108.05
1106.606
1105.089
1103.453
1101.701
1099.811
1097.751
1095.484
1113.093
1111.935
1110.714
1109.423
1108.056
1106.564
1104.893
1102.974
1100.519
1096.784
1090.033
1067.559
1114.191
1113.095
1111.938
1110.718
1109.424
1107.927
1106.184
1104.209
1101.673
1097.766
1090.657
1076.633
1036.031
1115.232
1114.192
1113.097
1111.941
1110.717
1109.242
1107.498
1105.615
1103.415
1100.392
1095.469
1086.602
1070.547
1030.676
1116.219
1115.233
1114.194
1113.099
1111.94
1110.506
1108.794
1107.021
1105.124
1102.883
1099.765
1094.849
1086.835
1074.861
1052.266
1117.155
1116.22
1115.235
1114.196
1113.099
1111.722
1110.072
1108.402
1106.721
1104.964
1102.937
1100.261
1096.496
1091.563
1087.655
1076.666
1118.042
1117.156
1116.222
1115.237
1114.197
1112.892
1111.332
1109.769
1108.242
1106.758
1105.274
1103.689
1101.862
1099.887
1098.799
1096.379
1080.756
1118.884
1118.044
1117.159
1116.225
1115.24
1114.02
1112.576
1111.133
1109.732
1108.402
1107.162
1106.01
1104.952
1104.063
1103.815
1102.924
1098.166
1085.676
1119.682
1118.886
1118.047
1117.163
1116.229
1115.107
1113.804
1112.494
1111.211
1109.983
1108.841
1107.815
1106.95
1106.344
1106.236
1105.752
1103.614
1099.967
1090.851
1120.437
1119.684
1118.89
1118.053
1117.17
1116.154
1115.011
1113.846
1112.68
1111.532
1110.424
1109.384
1108.46
1107.752
1107.49
1107.108
1105.756
1104.099
1101.529
1095.658
1121.151
1120.44
1119.689
1118.897
1118.063
1117.162
1116.188
1115.172
1114.122
1113.045
1111.945
1110.832
1109.727
1108.697
1107.987
1107.704
1106.633
1105.578
1104.412
1102.788
1098.664
1121.825
1121.154
1120.445
1119.698
1118.912
1118.093
1117.221
1116.302
1115.335
1114.317
1113.247
1112.12
1110.934
1109.683
1108.365
1107.467
1106.877
1106.223
1105.546
1104.834
1103.439
1100.247
1122.46
1121.828
1121.159
1120.454
1119.713
1118.934
1118.107
1117.235
1116.318
1115.353
1114.337
1113.268
1112.143
1110.958
1109.707
1108.693
1107.982
1107.297
1106.659
1106.091
1105.154
1103.58
1101.277
1123.056
1122.462
1121.834
1121.169
1120.47
1119.731
1118.947
1118.121
1117.25
1116.334
1115.37
1114.356
1113.289
1112.164
1110.978
1109.98
1109.233
1108.518
1107.855
1107.274
1106.407
1105.122
1103.69
1101.894
1123.614
1123.059
1122.468
1121.843
1121.184
1120.486
1119.743
1118.96
1118.135
1117.266
1116.351
1115.388
1114.374
1113.307
1112.182
1111.22
1110.476
1109.753
1109.073
1108.461
1107.597
1106.387
1105.13
1103.778
1102.254
1124.136
1123.617
1123.064
1122.477
1121.857
1121.198
1120.497
1119.755
1118.973
1118.149
1117.281
1116.367
1115.405
1114.392
1113.325
1112.405
1111.678
1110.964
1110.28
1109.647
1108.781
1107.607
1106.405
1105.164
1103.851
1102.444
1108.027
1106.565
1105.016
1103.376
1101.643
1099.805
1097.883
1096.048
1109.408
1108.032
1106.577
1105.036
1103.405
1101.669
1099.813
1097.859
1095.945
1110.708
1109.411
1108.042
1106.593
1105.062
1103.435
1101.687
1099.82
1097.83
1095.813
1111.935
1110.711
1109.419
1108.055
1106.615
1105.092
1103.457
1101.707
1099.826
1097.795
1095.653
1113.094
1111.937
1110.716
1109.428
1108.07
1106.646
1105.115
1103.481
1101.727
1099.831
1097.757
1095.473
1114.192