/*--------------------------------*- C++ -*----------------------------------*\
| =========                 |                                                 |
| \\      /  F ield         | OpenFOAM: The Open Source CFD Toolbox           |
|  \\    /   O peration     | Version:  2306                                  |
|   \\  /    A nd           | Website:  www.openfoam.com                      |
|    \\/     M anipulation  |                                                 |
\*---------------------------------------------------------------------------*/
FoamFile
{
    version     2.0;
    format      ascii;
    arch        "LSB;label=32;scalar=64";
    class       volVectorField;
    location    "1.5/phiEA";
    object      i;
}
// * * * * * * * * * * * * * * * * * * * * * * * * * * * * * * * * * * * * * //

dimensions      [0 -2 0 0 0 1 0];

internalField   nonuniform List<vector> 
20000
(
(-561.9846 2302.778 1900.042)
(-590.7462 7397.075 1935.937)
(-1120.289 2015.163 1737.886)
(-561.336 2301.343 5616.176)
(-653.3958 13969.41 2008.495)
(-1169.784 6482.963 1766.146)
(-590.067 7392.737 5722.656)
(-1036.393 1807.831 1601.164)
(-1119.094 2014.033 5140.748)
(-560.0829 2298.519 9189.148)
(-760.1084 22716.15 2105.479)
(-1277.883 12275.79 1822.836)
(-652.6532 13962.63 5937.896)
(-1072.175 5821.141 1625.293)
(-1168.541 6479.565 5224.79)
(-588.7547 7384.206 9364.205)
(-881.9924 1657.341 1491.946)
(-1035.409 1806.866 4739.477)
(-1116.783 2011.801 8418.852)
(-558.2548 2294.34 12666.54)
(-922.5213 32381.43 2159.039)
(-1462.772 20024.89 1896.053)
(-759.2707 22710.13 6225.217)
(-1150.719 11039.53 1673.592)
(-1276.543 12270.59 5393.419)
(-651.2179 13949.31 9718.114)
(-908.7055 5339.709 1513.369)
(-1071.164 5818.244 4811.332)
(-1166.139 6472.857 8557.438)
(-586.84 7371.578 12908.92)
(-749.8268 1540.7 1401.549)
(-881.194 1656.484 4418.679)
(-1033.505 1804.957 7767.979)
(-1113.409 2008.489 11612.82)
(-555.8681 2288.824 14887.08)
(-1135.96 36786.59 2028.294)
(-1745.537 28622.92 1924.108)
(-921.5816 32384.52 6381.205)
(-1286.084 18039.6 1735.081)
(-1461.29 20020.84 5611.048)
(-757.6517 22698.42 10189.92)
(-967.5021 10136.7 1556.217)
(-1149.652 11035.14 4955.203)
(-1273.952 12260.34 8835.611)
(-649.1232 13929.6 13399.1)
(-771.0478 4966.045 1420.998)
(-907.8884 5337.138 4482.534)
(-1069.206 5812.512 7886.659)
(-1162.631 6462.895 11805.16)
(-584.3397 7354.903 15173.04)
(-646.9691 1445.131 1324.032)
(-749.1552 1539.922 4152.987)
(-879.6465 1654.787 7247.189)
(-1030.723 1802.119 10721.89)
(-1109.004 2004.108 13654.79)
(-758.8466 3130.837 19571.94)
(-1345.374 33134.56 1957.461)
(-2118.74 32558.07 1782.346)
(-1134.976 36794.65 5983.2)
(-1494.916 25821.74 1753.668)
(-1743.916 28627.46 5692.818)
(-919.7678 32391.11 10440.94)
(-1069.236 16582.92 1610.311)
(-1284.942 18036.4 5138.279)
(-1458.424 20012.92 9194.397)
(-755.2886 22681.21 14052.21)
(-817.8408 9434.227 1459.888)
(-966.6473 10132.82 4610.286)
(-1147.586 11026.45 8124.394)
(-1270.168 12245.11 12191.41)
(-646.3871 13903.57 15751.59)
(-664.6377 4659.569 1341.934)
(-770.3621 4963.711 4210.996)
(-906.3042 5332.045 7352.77)
(-1066.346 5803.988 10886.81)
(-1158.05 6449.713 13882.04)
(-797.727 10062.17 19972.83)
(-567.2782 1364.015 1256.112)
(-646.3874 1444.415 3925.008)
(-747.8521 1538.38 6815.527)
(-877.3842 1652.261 10008.65)
(-1027.088 1798.361 12612.72)
(-1514.485 2742.033 17952.6)
(-755.856 3122.923 18163.44)
(-1516.377 25157 1939.308)
(-2485.507 29330.39 1697.884)
(-1344.335 33138.12 5766.483)
(-1772.551 29386.9 1616.896)
(-2117.095 32567.11 5264.608)
(-1133.085 36811.18 9765.761)
(-1226.838 23758.25 1623.888)
(-1493.715 25826.47 5192.474)
(-1740.782 28636.77 9326.159)
(-917.1225 32401.48 14394.65)
(-899.015 15446.24 1508.713)
(-1068.331 16580.22 4771.521)
(-1282.726 18030.11 8426.828)
(-1454.238 20001.22 12689.6)
(-752.2013 22658.59 16522.63)
(-703.6518 8857.025 1377.732)
(-817.1268 9430.718 4327.027)
(-964.9894 10125.14 7564.107)
(-1144.566 11013.53 11217.35)
(-1265.225 12224.96 14338.67)
(-882.4751 19029.41 20784.54)
(-582.4565 4399.218 1272.752)
(-664.0447 4657.421 3978.433)
(-769.0314 4959.083 6911.523)
(-903.9878 5324.462 10155.49)
(-1062.608 5792.694 12807.74)
(-1581.49 8825.883 18274.23)
(-794.5857 10038.22 18585.78)
(-504.7941 1293.348 1195.569)
(-566.7644 1363.349 3725.137)
(-645.2577 1442.994 6444.869)
(-745.9459 1536.083 9417.164)
(-874.4276 1648.913 11778.34)
(-1403.269 2460.78 16583.03)
(-1508.964 2735.626 16655.66)
(-752.8155 3113.943 18406.88)
(-1634.445 15471.06 1939.556)
(-2785.364 22266.28 1666.842)
(-1515.287 25157.71 5709.326)
(-2045.925 26468.32 1533.594)
(-2483.811 29335.01 5009.433)
(-1342.345 33145.51 9396.333)
(-1436.987 27047.97 1493.548)
(-1771.396 29395.7 4780.192)
(-2113.928 32585.4 8606.161)
(-1130.338 36836.44 13435.39)
(-1025.104 22144.23 1519.179)
(-1225.9 23762.92 4811.117)
(-1491.389 25836.07 8514.235)
(-1736.209 28650.99 12869.67)
(-913.6678 32415.78 16923.79)
(-771.465 14510.29 1422.496)
(-898.2637 15443.87 4472.675)
(-1066.574 16574.89 7830.819)
(-1279.487 18020.81 11637.98)
(-1448.767 19985.79 14928.03)
(-1027.077 31041.36 21860.8)
(-616.0104 8365.954 1306.031)
(-703.0364 8853.802 4085.297)
(-815.7408 9423.759 7103.631)
(-962.5642 10113.7 10449.59)
(-1140.619 10996.41 13198.85)
(-1727.941 16735.92 18921.55)
(-879.0218 18992.24 19441.88)
(-518.1269 4172.248 1211.145)
(-581.9333 4397.221 3774.818)
(-662.8929 4653.158 6533.337)
(-767.0844 4952.187 9550.765)
(-900.96 5314.407 11952.09)
(-1451.83 7927.601 16860.34)
(-1575.733 8806.563 17000.07)
(-791.3842 10011.03 18882.46)
(-454.7171 1230.686 1140.965)
(-504.3335 1292.725 3546.879)
(-565.7657 1362.028 6119.684)
(-643.604 1440.876 8909)
(-743.4535 1533.036 11086.22)
(-1194.896 2256.427 15486.87)
(-1398.715 2455.231 15379.92)
(-1503.351 2728.257 16874.24)
(-749.7254 3103.899 18649.58)
(-1694.3 5202.429 1942.153)
(-2992.631 13691.83 1658.029)
(-1633.319 15470.95 5708.508)
(-2269.631 20085.75 1500.772)
(-2783.61 22267.88 4915.324)
(-1513.201 25159.32 9295.879)
(-1643.777 24359.59 1413.468)
(-2044.788 26472.97 4529.242)
(-2480.558 29344.36 8177.31)
(-1339.459 33156.91 12909.43)
(-1193.542 25217.51 1394.999)
(-1436.099 27056.39 4418.614)
(-1769.167 29413.43 7822.704)
(-2109.323 32613.07 11853.46)
(-1126.758 36870.59 15770.38)
(-877.0122 20812.98 1430.83)
(-1024.332 22148.78 4503.199)
(-1224.081 23772.36 7894.727)
(-1487.989 25850.64 11757.62)
(-1730.234 28670.22 15139.43)
(-1247.979 44477.59 22373.86)
(-674.4261 13712.64 1347.521)
(-770.8202 14508.17 4218.916)
(-896.8045 15439.19 7344.796)
(-1064.002 16566.99 10820.94)
(-1275.252 18008.5 13697)
(-1978.883 27386.32 19754.67)
(-1023.166 31011.07 20566.16)
(-547.6292 7937.329 1242.302)
(-615.4687 8362.963 3874.208)
(-701.8405 8847.405 6710.386)
(-813.712 9413.387 9818.289)
(-959.3931 10098.52 12300.31)
(-1558.509 15055.49 17417.58)
(-1721.698 16706.44 17694.98)
(-875.4875 18950.2 19847.57)
(-466.6166 3970.867 1155.624)
(-517.6584 4170.378 3593.399)
(-580.9164 4393.255 6201.996)
(-661.2066 4646.801 9032.19)
(-764.5382 4943.038 11244.37)
(-1231.179 7273.485 15734.73)
(-1447.133 7910.884 15679.2)
(-1569.864 8784.311 17266.7)
(-788.1227 9980.593 19178.38)
(-413.7504 1174.354 1091.237)
(-454.2998 1230.1 3386.023)
(-503.4376 1291.488 5829.469)
(-564.3028 1360.057 8462.944)
(-641.4408 1438.067 10491.41)
(-1015.952 2097.952 14577.94)
(-1191.195 2251.453 14359.82)
(-1394.086 2448.808 15576.94)
(-1497.644 2719.927 17092.18)
(-746.5859 3092.791 27533.37)
(-1694.3 -5202.429 1942.153)
(-3097.794 4603.877 1656.12)
(-1693.156 5202.325 5715.587)
(-2424.388 12346.76 1489.867)
(-2990.832 13692.26 4888.376)
(-1631.165 15470.81 9291.509)
(-1812.73 18481.65 1381.041)
(-2268.488 20087.5 4430.288)
(-2780.248 22271.12 8018.57)
(-1510.178 25161.91 12763.47)
(-1359.197 22710.9 1318.38)
(-1642.916 24364.09 4177.668)
(-2042.598 26482.32 7402.349)
(-2475.835 29358.51 11249.13)
(-1335.704 33172.39 15138.37)
(-1018.206 23707.04 1312.325)
(-1192.817 25225.55 4129.467)
(-1434.384 27073.31 7237.148)
(-1765.92 29440.18 10783.42)
(-2103.321 32650.22 13922.64)
(-1540.041 50616.49 20568.92)
(-765.4935 19676.83 1354.314)
(-876.3527 20817.39 4243.223)
(-1022.832 22157.96 7394.099)
(-1221.42 23786.66 10908.56)
(-1483.544 25870.25 13837.78)
(-2364.158 39347.94 20023.31)
(-1243.628 44507.61 21014.04)
(-599.0581 13015.46 1281.054)
(-673.8603 13710.7 3998.116)
(-769.5667 14503.97 6931.805)
(-894.6677 15432.25 10154.34)
(-1060.639 16556.53 12740.43)
(-1742.725 24679.2 18126.06)
(-1971.942 27365.01 18584.51)
(-1019.15 30978.47 21107.16)
(-492.9682 7556.642 1184.953)
(-547.1449 7934.533 3686.486)
(-614.4152 8357.022 6366.752)
(-700.0888 8837.864 9278.879)
(-811.058 9399.616 11561.28)
(-1311.105 13826.97 16232.5)
(-1553.521 15030.16 16282.39)
(-1715.303 16672.54 18060.27)
(-871.8725 18903.25 20252.82)
(-424.4999 3789.737 1105.091)
(-466.1924 3969.108 3429.818)
(-516.7469 4166.663 5906.58)
(-579.4263 4387.339 8577.613)
(-659.0003 4638.363 10637.3)
(-1044.789 6765.51 14804.09)
(-1227.377 7258.505 14628.7)
(-1442.344 7891.502 15919.89)
(-1563.883 8759.122 17532.68)
(-784.8014 9946.901 28391.98)
(-379.5529 1123.191 1045.612)
(-413.369 1173.8 3239.457)
(-453.4874 1228.935 5567.419)
(-502.1244 1289.641 8064.647)
(-562.3883 1357.441 9969.134)
(-876.5289 1968.056 13796.97)
(-1012.834 2093.403 13514.73)
(-1187.435 2245.672 14540.5)
(-1389.38 2441.512 15773.4)
(-1491.846 2710.637 25226.62)
(-356.5524 1482.495 19158.83)
(-1634.445 -15471.06 1939.556)
(-3097.794 -4603.877 1656.12)
(-1693.156 -5202.325 5715.587)
(-2502.96 4150.805 1486.736)
(-3095.972 4603.953 4882.435)
(-1690.968 5202.146 9301.939)
(-1929.435 11358.54 1369.683)
(-2423.235 12347.33 4397.362)
(-2987.387 13693.14 7972.676)
(-1628.044 15470.7 12754.27)
(-1494.38 17229.17 1286.933)
(-1811.874 18483.4 4080.109)
(-2266.29 20091.02 7236.503)
(-2775.372 22276.06 11024.95)
(-1506.247 25165.52 14961.06)
(-1157.034 21351.21 1239.041)
(-1358.499 22715.22 3899.096)
(-1641.256 24373.13 6834.14)
(-2039.415 26496.42 10192.54)
(-2469.69 29377.5 13200.86)
(-1826.344 45516.73 19566.7)
(-887.4562 22417.3 1241.018)
(-1017.59 23714.71 3886.712)
(-1191.414 25241.68 6768.411)
(-1431.882 27098.81 9983.054)
(-1761.686 29476.03 12672.76)
(-2875.793 44832.84 18169.52)
(-1535.67 50677.66 18770.01)
(-679.3382 18682.68 1286.681)
(-764.9169 19681.09 4017.931)
(-875.0711 20826.27 6971.094)
(-1020.637 22171.84 10222.04)
(-1217.939 23805.88 12843.78)
(-2028.077 35508.49 18303.64)
(-2356.612 39382.56 18815.18)
(-1239.184 44549.43 21537.63)
(-538.9551 12395.54 1221.363)
(-598.5535 13013.68 3802.269)
(-672.7595 13706.89 6572.209)
(-767.7298 14497.74 9587.612)
(-891.8712 15423.04 11959.81)
(-1449.674 22690.63 16860.97)
(-1737.342 24661.93 17046.57)
(-1964.804 27341.51 19073.21)
(-1015.03 30943.47 21649.53)
(-448.3212 7213.944 1132.818)
(-492.5302 7554.012 3517.473)
(-546.2022 7928.974 6060.959)
(-612.871 8348.154 8807.275)
(-697.7964 8825.189 10929.64)
(-1108.429 12870.54 15258.22)
(-1307.102 13804.35 15170.44)
(-1548.411 15000.8 16612.81)
(-1708.759 16634.18 18425.2)
(-868.177 18851.35 30139.32)
(-389.3546 3625.159 1058.75)
(-424.1124 3788.074 3280.859)
(-465.3664 3965.609 5640.041)
(-515.4106 4161.119 8172.111)
(-577.4761 4379.482 10104.97)
(-900.5472 6348.716 14005.99)
(-1041.595 6751.812 13761.02)
(-1223.506 7241.06 14849.74)
(-1437.465 7869.449 16160.02)
(-1557.791 8730.99 25948.11)
(-374.6516 4779.448 19885.63)
(-350.5188 1076.336 1003.485)
(-379.2018 1122.665 3104.919)
(-412.626 1172.698 5328.502)
(-452.2959 1227.195 7704.822)
(-500.4051 1287.189 9502.609)
(-768.4766 1857.769 13111.3)
(-873.8237 1963.845 12789.15)
(-1009.669 2088.1 13682.61)
(-1183.617 2239.083 14720.69)
(-1384.6 2433.344 23272.43)
(-714.9985 1301.503 17542.51)
(-322.3371 1307.956 20679.95)
(-1516.377 -25157 1939.308)
(-2992.631 -13691.83 1658.029)
(-1633.319 -15470.95 5708.508)
(-2502.96 -4150.805 1486.736)
(-3095.972 -4603.953 4882.435)
(-1690.968 -5202.146 9301.939)
(-1988.628 3818.163 1366.181)
(-2501.8 4150.93 4387.895)
(-3092.483 4604.114 7962.358)
(-1687.798 5201.908 12767.47)
(-1587.652 10587.79 1275.647)
(-1928.578 11359.14 4045.94)
(-2421.018 12348.46 7181.23)
(-2982.391 13694.5 10959.7)
(-1623.986 15470.65 14947.95)
(-1270.246 16197.1 1208.731)
(-1493.691 17230.88 3804.58)
(-1810.227 18486.92 6671.027)
(-2263.098 20096.34 9959.444)
(-2769.032 22282.7 12932.96)
(-2059.976 34518.2 19263.04)
(-1007.372 20190.5 1170.865)
(-1156.444 21355.35 3666.464)
(-1357.152 22723.89 6383.406)
(-1638.84 24386.74 9417.199)
(-2035.27 26515.28 11968.19)
(-3378.04 40317.39 17071.25)
(-1821.841 45545.8 17500.76)
(-786.9539 21288.26 1178.173)
(-886.9196 22424.64 3677.188)
(-1016.397 23730.11 6374.523)
(-1189.366 25265.97 9341.927)
(-1428.618 27132.96 11737.71)
(-2409.847 40477.66 16542.31)
(-2868.448 44895.53 16593.85)
(-1531.337 50757.02 18719.33)
(-610.8184 17797.87 1226.08)
(-678.8253 18686.79 3818.682)
(-763.7954 19689.66 6604.261)
(-873.1934 20839.68 9641.661)
(-1017.765 22190.46 12039.87)
(-1665.227 32676.72 16990.4)
(-2022.444 35542.55 17196.04)
(-2348.886 39427.57 19292.26)
(-1234.646 44603.12 22066.46)
(-489.9311 11836.96 1167.182)
(-538.4996 12393.9 3626.294)
(-597.5708 13010.17 6253.043)
(-671.1453 13701.2 9093.902)
(-765.325 14489.46 11295.95)
(-1219.049 21137.97 15828.99)
(-1445.402 22675.78 15852.75)
(-1731.798 24642.65 17489.42)
(-1957.471 27315.73 19563.16)
(-1010.805 30905.93 32405.28)
(-411.0885 6902.33 1085.053)
(-447.9216 7211.46 3363.747)
(-491.6772 7548.783 5785.467)
(-544.8197 7920.674 8387.389)
(-610.8492 8336.37 10377.22)
(-953.6264 12084.37 14425.76)
(-1105.081 12849.91 14257.26)
(-1303.004 13778 15474.45)
(-1543.178 14967.38 16942.94)
(-1702.064 16591.32 27413.32)
(-414.2651 9126.936 21382.39)
(-359.5239 3474.38 1015.981)
(-388.9982 3623.581 3144.193)
(-423.3574 3784.765 5397.179)
(-464.1548 3960.386 7806.061)
(-513.6607 4153.754 9629.948)
(-789.1158 5994.535 13306.23)
(-897.7805 6336.032 13017.5)
(-1038.344 6735.809 13966.65)
(-1219.564 7221.147 15070.28)
(-1432.495 7844.72 23908.18)
(-746.3277 4202.32 18162.71)
(-338.0058 4242.757 21679.58)
(-325.4943 1033.14 964.3894)
(-350.1939 1075.836 2980.642)
(-378.5176 1121.62 5109.062)
(-411.5355 1171.052 7376.598)
(-450.7352 1224.885 9080.998)
(-683.7557 1761.665 12498.84)
(-766.0829 1853.836 12152.43)
(-871.0797 1958.922 12946.54)
(-1006.458 2082.042 13850.04)
(-1179.742 2231.688 21713.93)
(-666.8072 1169.203 16171.53)
(-651.7327 1151.269 18919.12)
(-286.1194 1082.645 21611.85)
(-1345.374 -33134.56 1957.461)
(-2785.364 -22266.28 1666.842)
(-1515.287 -25157.71 5709.326)
(-2424.388 -12346.76 1489.867)
(-2990.832 -13692.26 4888.376)
(-1631.165 -15470.81 9291.509)
(-1988.628 -3818.163 1366.181)
(-2501.8 -4150.93 4387.895)
(-3092.483 -4604.114 7962.358)
(-1687.798 -5201.908 12767.47)
(-1634.921 3558.879 1272.064)
(-1987.769 3818.303 4035.411)
(-2499.571 4151.184 7165.309)
(-3087.425 4604.366 10944.83)
(-1683.677 5201.618 14962.65)
(-1348.303 9953.129 1197.713)
(-1586.964 10588.38 3770.684)
(-1926.928 11360.33 6613.913)
(-2417.8 12350.17 9881.685)
(-2975.896 13696.35 12854.69)
(-2221.263 21216.88 19220.18)
(-1105.125 15316.47 1141.715)
(-1269.665 16198.76 3575.421)
(-1492.361 17234.3 6225.573)
(-1807.831 18492.21 9188.37)
(-2258.944 20103.46 11690.46)
(-3788.283 30569.02 16658.82)
(-2055.293 34526.58 17079.26)
(-892.7702 19174.52 1110.934)
(-1006.859 20194.47 3466.412)
(-1155.303 21363.66 6006.629)
(-1355.189 22736.93 8801.701)
(-1635.693 24404.92 11063.49)
(-2785.187 36391.83 15481.49)
(-3370.663 40349.57 15278.78)
(-1817.456 45584.36 17112.43)
(-707.2265 20282.98 1121.992)
(-786.4778 21295.29 3492.41)
(-885.879 22439.36 6034.272)
(-1014.653 23753.29 8802.83)
(-1186.693 25298.49 10988.47)
(-1954.485 37261.74 15324.6)
(-2404.647 40537.15 15108.46)
(-2861.146 44974.29 16561.82)
(-1527.04 50854.67 18666.74)
(-555.0139 16999.96 1171.17)
(-610.3563 17801.84 3640.052)
(-677.8267 18695.07 6279.611)
(-762.151 19702.6 9138.078)
(-870.7352 20857.66 11360.04)
(-1391.592 30460.38 15928.57)
(-1660.816 32709.52 15959.51)
(-2016.655 35586.01 17629.05)
(-2340.977 39483.02 19774.06)
(-1230.014 44668.75 32997.14)
(-449.0828 11328.62 1117.608)
(-489.5161 11835.42 3466.488)
(-537.612 12390.64 5966.082)
(-596.129 13004.94 8655.478)
(-669.0309 13693.65 10717.44)
(-1046.071 19859 14951.62)
(-1215.5 21124.79 14879.9)
(-1441.007 22659.07 16260.81)
(-1726.092 24621.28 17933.45)
(-1949.94 27287.55 29282.19)
(-482.6677 15241.84 23368.77)
(-379.5017 6616.662 1041.004)
(-410.7213 6899.976 3222.841)
(-447.1427 7206.519 5534.742)
(-490.4254 7540.971 8008.92)
(-543.0088 7909.64 9885.216)
(-834.7794 11415.3 13697.8)
(-950.7363 12065.29 13477.65)
(-1101.658 12825.79 14540.5)
(-1298.812 13747.9 15778.2)
(-1537.823 14929.86 25198.87)
(-815.0978 8046.775 19439.31)
(-372.5844 8276.849 23801.11)
(-333.8183 3335.329 976.3033)
(-359.1941 3472.879 3018.004)
(-388.3032 3620.442 5174.23)
(-422.2492 3779.824 7472.365)
(-462.5674 3953.445 9200.99)
(-701.8898 5685.688 12681.83)
(-786.6705 5982.687 12365.95)
(-894.9669 6321.176 13210.46)
(-1035.037 6717.497 14171.82)
(-1215.553 7198.759 22290.28)
(-689.6792 3778.455 16721.82)
(-678.9888 3740.284 19785.04)
(-298.8704 3530.984 22851.12)
(-303.6587 993.096 927.9457)
(-325.1922 1032.663 2865.254)
(-349.5601 1074.842 4906.245)
(-377.5128 1120.059 7074.985)
(-410.1066 1168.867 8696.279)
(-615.8682 1676.428 11945.34)
(-681.6061 1757.968 11583.93)
(-763.6558 1849.229 12300.93)
(-868.297 1953.288 13103.52)
(-1003.2 2075.229 20426.17)
(-569.2201 1072.783 15080.3)
(-614.6692 1035.395 17422.3)
(-584.6924 955.1346 19760.91)
(-248.2993 812.2499 22348.43)
(-1135.96 -36786.59 2028.294)
(-2485.507 -29330.39 1697.884)
(-1344.335 -33138.12 5766.483)
(-2269.631 -20085.75 1500.772)
(-2783.61 -22267.88 4915.324)
(-1513.201 -25159.32 9295.879)
(-1929.435 -11358.54 1369.683)
(-2423.235 -12347.33 4397.362)
(-2987.387 -13693.14 7972.676)
(-1628.044 -15470.7 12754.27)
(-1634.921 -3558.879 1272.064)
(-1987.769 -3818.303 4035.411)
(-2499.571 -4151.184 7165.309)
(-3087.425 -4604.366 10944.83)
(-1683.677 -5201.618 14962.65)
(-1387.844 3345.464 1194.163)
(-1634.233 3559.022 3759.933)
(-1986.116 3818.584 6596.325)
(-2496.336 4151.567 9859.258)
(-3080.85 4604.709 12836.71)
(-2303.032 7133.239 19231.36)
(-1172.499 9411.807 1131.039)
(-1347.725 9953.712 3542.355)
(-1585.637 10589.57 6169.022)
(-1924.529 11362.12 9108.281)
(-2413.613 12352.47 11597.79)
(-4071.759 18786.32 16534.78)
(-2216.44 21218.16 16988.88)
(-979.0149 14545.83 1082.909)
(-1104.622 15318.07 3378.887)
(-1268.543 16202.07 5854.706)
(-1490.426 17239.45 8580.492)
(-1804.711 18499.28 10791.18)
(-3091.927 27581.02 15062.54)
(-3780.727 30580.59 14776.55)
(-2050.765 34538.68 16554.01)
(-802.0336 18269.89 1057.46)
(-892.3166 19178.33 3290.431)
(-1005.867 20202.43 5682.329)
(-1153.639 21376.14 8286.831)
(-1352.63 22754.35 10345.08)
(-2238.648 33496.59 14314.46)
(-2780.201 36423 13857.3)
(-3363.466 40390.08 14949.41)
(-1813.189 45632.41 16722.47)
(-642.3833 19376.11 1071.179)
(-706.7985 20289.72 3327.124)
(-785.5536 21309.39 5733.975)
(-884.3574 22461.51 8336.852)
(-1012.377 23784.31 10358.25)
(-1623.564 34743.45 14348.83)
(-1950.474 37317.96 13996.03)
(-2399.456 40611.21 15079.95)
(-2853.89 45069.24 16527.98)
(-1522.781 50970.78 27059.03)
(-508.5572 16273.35 1121.002)
(-554.5935 17003.8 3478.119)
(-609.4561 17809.83 5988.37)
(-676.3617 18707.56 8692.168)
(-759.9974 19719.94 10769.98)
(-1190.556 28631.57 15030.77)
(-1387.953 30491.84 14960.35)
(-1656.285 32750.99 16358.8)
(-2010.71 35638.93 18066.36)
(-2332.885 39548.98 29582.51)
(-590.1847 22742 23894.48)
(-414.4506 10862.27 1071.939)
(-448.7018 11327.18 3320.198)
(-488.7067 11832.38 5705.332)
(-536.3088 12385.78 8261.097)
(-594.2396 12997.98 10203.53)
(-914.4351 18768.68 14187.14)
(-1043.021 19847.06 14053.46)
(-1211.852 21109.85 15260.5)
(-1436.487 22640.41 16669.96)
(-1720.225 24597.71 26834.26)
(-934.3979 13482.64 21116.86)
(-433.9271 14620.86 26850.15)
(-352.2937 6353.063 1000.166)
(-379.1622 6614.424 3092.842)
(-410.0049 6895.29 5304.796)
(-445.9989 7199.134 7664.309)
(-488.7849 7530.581 9441.589)
(-742.0487 10831.17 13049.48)
(-832.231 11397.5 12796.3)
(-947.7826 12042.93 13743.76)
(-1098.158 12798.15 14823.5)
(-1294.527 13714.02 23460.43)
(-740.1562 7246.234 17854.77)
(-739.3281 7317.636 21625.15)
(-327.2269 7058.708 25600.83)
(-311.3925 3206.387 939.3282)
(-333.5117 3333.898 2900.882)
(-358.5506 3469.892 4968.255)
(-387.2825 3615.752 7165.881)
(-420.7967 3773.257 8809.81)
(-632.056 5411.605 12117.98)
(-699.696 5674.551 11784.8)
(-784.185 5968.78 12548.15)
(-892.1065 6304.143 13403)
(-1031.675 6696.871 20957.66)
(-586.3518 3468.83 15581.37)
(-634.731 3366.803 18195.71)
(-606.9731 3119.908 20843.51)
(-257.7015 2647.166 23784.2)
(-284.4061 955.8013 893.8453)
(-303.3765 992.6407 2757.649)
(-324.6024 1031.715 4717.831)
(-348.6289 1073.356 6796.09)
(-376.1956 1117.984 8342.631)
(-560.3411 1599.787 11440.25)
(-613.9168 1672.937 11070.3)
(-679.4272 1753.63 11724.7)
(-761.1955 1843.947 12449.04)
(-865.4757 1946.943 19322.79)
(-484.2558 997.8864 14180.47)
(-527.1242 950.6508 16234)
(-559.4021 859.8378 18183.66)
(-514.6053 718.2274 20429.03)
(-209.3433 508.3389 15613.03)
(-922.5213 -32381.43 2159.039)
(-2118.74 -32558.07 1782.346)
(-1134.976 -36794.65 5983.2)
(-2045.925 -26468.32 1533.594)
(-2483.811 -29335.01 5009.433)
(-1342.345 -33145.51 9396.333)
(-1812.73 -18481.65 1381.041)
(-2268.488 -20087.5 4430.288)
(-2780.248 -22271.12 8018.57)
(-1510.178 -25161.91 12763.47)
(-1587.652 -10587.79 1275.647)
(-1928.578 -11359.14 4045.94)
(-2421.018 -12348.46 7181.23)
(-2982.391 -13694.5 10959.7)
(-1623.986 -15470.65 14947.95)
(-1387.844 -3345.464 1194.163)
(-1634.233 -3559.022 3759.933)
(-1986.116 -3818.584 6596.325)
(-2496.336 -4151.567 9859.258)
(-3080.85 -4604.709 12836.71)
(-2303.032 -7133.239 19231.36)
(-1206.618 3163.475 1127.572)
(-1387.266 3345.606 3531.716)
(-1632.907 3559.309 6151.11)
(-1983.712 3819.006 9083.632)
(-2492.127 4152.081 11571.04)
(-4215.578 6315.545 16504.69)
(-2298.136 7133.201 16983.23)
(-1038.443 8938.207 1072.598)
(-1171.998 9412.372 3346.865)
(-1346.608 9954.877 5799.594)
(-1583.706 10591.36 8501.307)
(-1921.407 11364.52 10695.93)
(-3303.997 16943.93 14922.07)
(-4064.037 18789.73 14619.53)
(-2211.785 21220.72 16414.95)
(-879.2993 13859.74 1030.509)
(-978.5701 14547.37 3206.309)
(-1103.649 15321.25 5536.343)
(-1266.908 16207.04 8074.028)
(-1487.904 17246.32 10082.01)
(-2470.487 25380.91 13907.12)
(-3086.973 27592.83 13361.58)
(-3773.413 30595.39 14328.19)
(-2046.39 34554.48 16028.11)
(-728.313 17453.79 1009.169)
(-801.6266 18273.55 3133.314)
(-891.4378 19185.96 5396.811)
(-1004.42 20214.39 7843.372)
(-1151.47 21392.81 9743.894)
(-1851.306 31231.8 13387.62)
(-2234.86 33526.3 12813.13)
(-2775.324 36461.7 13559.89)
(-3356.452 40438.91 14618.43)
(-1809.04 45689.91 23664.2)
(-588.4432 18549.99 1024.823)
(-641.9946 19382.59 3177.549)
(-705.967 20303.25 5465.159)
(-784.2013 21330.6 7925.343)
(-882.369 22491.15 9813.292)
(-1385.078 32664.6 13528.02)
(-1620.279 34796.71 13104.64)
(-1946.469 37387.6 13969.35)
(-2394.277 40699.92 15049.79)
(-2846.679 45180.52 23979.91)
(-739.2318 26192.72 17944.84)
(-469.1954 15606.36 1074.841)
(-508.1719 16277.06 3330.097)
(-553.774 17011.52 5724.191)
(-608.1346 17821.88 8291.943)
(-674.4421 18724.28 10247.31)
(-1039.131 27070.31 14251.55)
(-1187.443 28661.73 14116.04)
(-1384.218 30531.39 15332.99)
(-1651.632 32801.18 16762.07)
(-2004.607 35701.36 27022.89)
(-1122.979 20176.35 21443.95)
(-537.295 24170.43 28181.61)
(-384.6341 10431.68 1029.637)
(-414.0987 10860.92 3185.375)
(-447.9583 11324.33 5466.499)
(-487.5177 11827.85 7902.565)
(-534.6003 12379.32 9741.099)
(-812.1924 17815.48 13508.07)
(-911.754 18757.72 13333.76)
(-1039.887 19833.47 14411.38)
(-1208.103 21093.09 15642.14)
(-1431.842 22619.71 24937.63)
(-828.4574 12163.02 19337.76)
(-846.925 12973.76 24263.21)
(-379.1902 13489.64 30099.89)
(-328.5651 6108.504 962.1325)
(-351.9782 6350.93 2972.265)
(-378.4994 6609.967 5092.528)
(-408.9524 6888.285 7348.107)
(-444.4994 7189.311 9037.509)
(-667.9331 10312.27 12464.92)
(-739.7663 10814.46 12189.76)
(-829.6278 11376.59 13047.81)
(-944.7655 12017.25 14009.65)
(-1094.583 12766.97 22036.92)
(-624.2682 6658.993 16613.3)
(-679.3982 6597.487 19840.66)
(-656.6799 6255.51 23251.53)
(-278.6123 5377.339 27124.41)
(-291.6228 3086.265 904.7399)
(-311.1063 3205.019 2791.694)
(-332.9131 3331.049 4776.979)
(-357.6051 3465.428 6882.602)
(-385.9441 3609.517 8450.405)
(-574.9671 5165.04 11603.76)
(-630.0659 5401.085 11260.16)
(-697.4667 5661.455 11957.62)
(-781.6592 5952.812 12729.94)
(-889.1994 6284.93 19818.19)
(-497.8914 3227.974 14644.01)
(-542.1935 3092.994 16941.15)
(-575.9233 2811.108 19154.19)
(-531.1118 2344.036 21689.4)
(-215.0785 1620.593 16669.13)
(-267.278 920.9284 861.8317)
(-284.1416 955.3655 2656.922)
(-302.8253 991.7342 4542.034)
(-323.7353 1030.297 6536.884)
(-347.4077 1071.381 8015.507)
(-513.9973 1530.168 10975.92)
(-558.5542 1596.477 10601.7)
(-611.9393 1668.834 11204.22)
(-677.2192 1748.651 11865.09)
(-758.7021 1837.992 18355.96)
(-417.7241 936.4271 13410.72)
(-449.0077 884.7022 15256.85)
(-482.6022 789.9218 16933.52)
(-501.5739 647.1847 18789.22)
(-442.3241 450.9868 14271.64)
(-1530.155 2507.636 49559.05)
(-760.1084 -22716.15 2105.479)
(-1745.537 -28622.92 1924.108)
(-921.5816 -32384.52 6381.205)
(-1772.551 -29386.9 1616.896)
(-2117.095 -32567.11 5264.608)
(-1133.085 -36811.18 9765.761)
(-1643.777 -24359.59 1413.468)
(-2044.788 -26472.97 4529.242)
(-2480.558 -29344.36 8177.31)
(-1339.459 -33156.91 12909.43)
(-1494.38 -17229.17 1286.933)
(-1811.874 -18483.4 4080.109)
(-2266.29 -20091.02 7236.503)
(-2775.372 -22276.06 11024.95)
(-1506.247 -25165.52 14961.06)
(-1348.303 -9953.129 1197.713)
(-1586.964 -10588.38 3770.684)
(-1926.928 -11360.33 6613.913)
(-2417.8 -12350.17 9881.685)
(-2975.896 -13696.35 12854.69)
(-2221.263 -21216.88 19220.18)
(-1206.618 -3163.475 1127.572)
(-1387.266 -3345.606 3531.716)
(-1632.907 -3559.309 6151.11)
(-1983.712 -3819.006 9083.632)
(-2492.127 -4152.081 11571.04)
(-4215.578 -6315.545 16504.69)
(-2298.136 -7133.201 16983.23)
(-1068.534 3004.274 1069.234)
(-1206.118 3163.613 3336.479)
(-1386.15 3345.889 5781.889)
(-1630.976 3559.739 8476.255)
(-1980.584 3819.57 10666.63)
(-3411.642 5695.045 14881.35)
(-4207.766 6316.233 14578.84)
(-2293.414 7133.465 16394.2)
(-932.5342 8516.618 1020.562)
(-1038.001 8938.754 3175.389)
(-1171.031 9413.503 5483.001)
(-1344.981 9956.624 7996.919)
(-1581.192 10593.74 9987.927)
(-2630.523 15589.17 13764.94)
(-3299.018 16947.77 13194.23)
(-4056.58 18794.22 14129.78)
(-2207.299 21224.55 15840.86)
(-798.342 13240.83 983.2312)
(-878.9006 13861.22 3052.426)
(-977.7091 14550.44 5256.544)
(-1102.229 15326.04 7638.961)
(-1264.777 16213.67 9490.924)
(-2036.879 23662.27 12995.86)
(-2466.766 25392.42 12337.02)
(-3082.169 27607.54 12957.07)
(-3766.339 30613.38 13879.13)
(-2042.169 34573.94 22427.76)
(-667.0234 16710.3 965.1664)
(-727.9438 17457.3 2991.335)
(-800.8372 18280.88 5141.697)
(-890.1541 19197.42 7452.69)
(-1002.531 20230.35 9225.876)
(-1575.994 29363.43 12611.9)
(-1848.226 31260.08 11983.72)
(-2231.154 33562.95 12538.52)
(-2770.557 36507.92 13261)
(-3349.621 40496.04 20703.14)
(-883.3583 23196.27 14720.47)
(-542.765 17791.45 982.2245)
(-588.0874 18556.22 3041.02)
(-641.2388 19395.58 5221.726)
(-704.7495 20323.59 7556.76)
(-782.4333 21358.97 9331.847)
(-1207.202 30889.07 12818.18)
(-1382.279 32715.23 12354.91)
(-1616.999 34862.51 13079.45)
(-1942.472 37470.77 13941.14)
(-2389.109 40803.42 21836.33)
(-1385.721 23260.99 15935.39)
(-699.1428 28576.26 17639.85)
(-435.3236 14990.2 1032.128)
(-468.8399 15609.95 3193.839)
(-507.4201 16284.51 5482.562)
(-552.5703 17023.15 7928.724)
(-606.4023 17838.01 9778.02)
(-922.1402 25703.9 13561.33)
(-1036.404 27099.25 13383.53)
(-1184.249 28699.51 14466.64)
(-1380.385 30579.08 15709.35)
(-1646.857 32860.14 25067.8)
(-969.4245 18228.77 19580.03)
(-1029.425 21518.28 25326.5)
(-475.9805 26426.11 33853.22)
(-358.6418 10031.97 990.2702)
(-384.3074 10430.4 3060.438)
(-413.4116 10858.23 5246.266)
(-446.8656 11320.07 7574.017)
(-485.9584 11821.81 9320.556)
(-730.6654 16967.76 12897)
(-809.7966 17805.33 12694.73)
(-909.0002 18745.19 13672.28)
(-1036.668 19818.15 14770.27)
(-1204.253 21074.41 23396.21)
(-690.8763 11189.96 17961.21)
(-759.7861 11719.89 22196.9)
(-748.2679 12002.1 27199.31)
(-317.9038 11319.91 33473.59)
(-307.6532 5880.57 926.572)
(-328.2707 6106.466 2859.922)
(-351.362 6346.681 4895.542)
(-377.5252 6603.303 7056.081)
(-407.572 6878.965 8666.616)
(-607.4044 9845.08 11932.44)
(-665.8654 10296.49 11643.03)
(-737.4356 10794.78 12428.5)
(-826.9699 11352.53 13299.11)
(-941.6851 11988.24 20824.41)
(-528.1265 6200.989 15598.98)
(-575.8458 6067.085 18446.11)
(-612.9946 5645.76 21315.82)
(-567.9277 4775.316 24630.87)
(-227.4855 3182.95 19199.32)
(-274.0374 2973.915 872.2759)
(-291.3546 3084.956 2689.513)
(-310.547 3202.296 4598.565)
(-332.033 3326.79 6619.418)
(-356.3648 3459.493 8118.1)
(-527.3357 4940.972 11131.28)
(-573.1458 5155.065 10781.82)
(-628.0441 5388.696 11424.66)
(-695.202 5646.399 12130.06)
(-779.0932 5934.777 18821.2)
(-429.0931 3030.123 13843.88)
(-461.0211 2879.588 15913.01)
(-495.0438 2583.983 17822.92)
(-513.9074 2113.941 19921.52)
(-452.466 1439.171 15200.72)
(-1557.335 7555.816 52856.33)
(-251.9171 888.2067 831.6904)
(-267.0293 920.5106 2562.323)
(-283.6248 954.4977 4377.391)
(-302.0147 990.3794 6294.929)
(-322.5977 1028.413 7711.377)
(-474.6568 1466.403 10546.38)
(-512.3499 1527.021 10170.99)
(-556.7439 1592.582 10729.46)
(-609.9358 1664.119 11337.77)
(-674.9822 1743.032 17493.65)
(-366.0874 884.1962 12737.01)
(-387.2836 830.5169 14422.88)
(-411.8112 735.4221 15907.56)
(-436.0799 594.8932 17490.39)
(-441.8564 406.9197 13123.22)
(-3287.744 2235.839 45365.64)
(-1417.061 1679.669 29300.53)
(-653.3958 -13969.41 2008.495)
(-1462.772 -20024.89 1896.053)
(-759.2707 -22710.13 6225.217)
(-1494.916 -25821.74 1753.668)
(-1743.916 -28627.46 5692.818)
(-919.7678 -32391.11 10440.94)
(-1436.987 -27047.97 1493.548)
(-1771.396 -29395.7 4780.192)