/*--------------------------------*- C++ -*----------------------------------*\
| =========                 |                                                 |
| \\      /  F ield         | OpenFOAM: The Open Source CFD Toolbox           |
|  \\    /   O peration     | Version:  2306                                  |
|   \\  /    A nd           | Website:  www.openfoam.com                      |
|    \\/     M anipulation  |                                                 |
\*---------------------------------------------------------------------------*/
FoamFile
{
    version     2.0;
    format      ascii;
    arch        "LSB;label=32;scalar=64";
    class       volScalarField;
    location    "1.5/phiEA";
    object      phi;
}
// * * * * * * * * * * * * * * * * * * * * * * * * * * * * * * * * * * * * * //

dimensions      [1 2 -3 0 0 -1 0];

internalField   nonuniform List<scalar> 
20000
(
-0.004635141
-0.004766728
-0.004314006
-0.004630798
-0.005057831
-0.004429159
-0.004762303
-0.003994975
-0.004310034
-0.004622304
-0.00556498
-0.004684462
-0.00505324
-0.00409828
-0.004425122
-0.004753648
-0.003721782
-0.003991315
-0.004302256
-0.004609794
-0.006355896
-0.005130632
-0.005560167
-0.004327612
-0.004680295
-0.005044258
-0.003816487
-0.004094565
-0.004417216
-0.004740899
-0.00349098
-0.003718372
-0.003984142
-0.004290791
-0.004593352
-0.007415347
-0.005828741
-0.006350961
-0.00472911
-0.005126298
-0.005550751
-0.004026908
-0.004323787
-0.004672134
-0.005031027
-0.00357902
-0.003813028
-0.004087283
-0.004405562
-0.004724141
-0.003293309
-0.003487776
-0.003711682
-0.00397356
-0.004275713
-0.004575766
-0.008457987
-0.006766227
-0.007410711
-0.005358446
-0.005824343
-0.006341311
-0.004395727
-0.004725144
-0.005117807
-0.005536876
-0.003774754
-0.004023351
-0.004316286
-0.004660099
-0.005013632
-0.003375888
-0.003575772
-0.003806241
-0.004076538
-0.004390233
-0.004706218
-0.003121283
-0.003290283
-0.003481487
-0.003701807
-0.003959635
-0.00425958
-0.004560732
-0.009308751
-0.007689202
-0.008453513
-0.006204638
-0.006762153
-0.007401671
-0.004974504
-0.005354438
-0.005815729
-0.006327096
-0.004118118
-0.004392046
-0.004717366
-0.005105283
-0.005518631
-0.00355957
-0.003771417
-0.00401637
-0.004305216
-0.004644268
-0.004995023
-0.003199227
-0.003372821
-0.003569394
-0.003796222
-0.004062398
-0.004373832
-0.004690853
-0.00296915
-0.003118412
-0.003284338
-0.003472198
-0.003688805
-0.003944731
-0.004245792
-0.004545494
-0.00989553
-0.008442249
-0.009304318
-0.007037698
-0.007685321
-0.008444806
-0.005753341
-0.006200943
-0.006754194
-0.007388389
-0.004657396
-0.004970792
-0.005346578
-0.005803026
-0.006308408
-0.003882004
-0.00411467
-0.00438482
-0.004705883
-0.005088802
-0.00549911
-0.003372667
-0.003556421
-0.003764863
-0.004006062
-0.004290646
-0.004627325
-0.004978991
-0.003043056
-0.003196317
-0.003366795
-0.003559974
-0.003783029
-0.004047263
-0.004359776
-0.004675241
-0.002832829
-0.002966418
-0.003112768
-0.003275552
-0.003459962
-0.003674885
-0.003931997
-0.004231821
-0.004530053
-0.01019281
-0.008961561
-0.009891096
-0.007717114
-0.00843844
-0.009295701
-0.006520102
-0.007034192
-0.007677752
-0.008432035
-0.005383503
-0.005749927
-0.006193712
-0.006742482
-0.007370962
-0.00438873
-0.004653923
-0.004963507
-0.005334977
-0.005786313
-0.006288413
-0.003677281
-0.003878753
-0.004107895
-0.004374147
-0.004690765
-0.005071161
-0.005482197
-0.003207564
-0.003369682
-0.003550233
-0.00375518
-0.003992485
-0.004275048
-0.004612732
-0.00496262
-0.002903154
-0.003040288
-0.003190598
-0.003357888
-0.003547564
-0.003768902
-0.004034298
-0.004345498
-0.004659383
-0.002709312
-0.002830221
-0.002961043
-0.003104424
-0.003263974
-0.003446858
-0.003662994
-0.003919098
-0.004217668
-0.004514411
-0.01019281
-0.00922464
-0.01018837
-0.008185455
-0.008957771
-0.009882482
-0.007145318
-0.007713684
-0.008431014
-0.00928307
-0.006098397
-0.006516871
-0.007027345
-0.00766663
-0.008415299
-0.005071317
-0.005380315
-0.005743241
-0.006183062
-0.0067271
-0.007352343
-0.004156246
-0.004385459
-0.004647103
-0.004952747
-0.005319703
-0.005768422
-0.006271119
-0.003496618
-0.003674201
-0.003872361
-0.004097882
-0.004360087
-0.004674576
-0.005055878
-0.005464833
-0.003059736
-0.003204725
-0.003363811
-0.003541083
-0.003742421
-0.003977947
-0.004261617
-0.004597834
-0.004945912
-0.002776418
-0.002900513
-0.003034842
-0.003182141
-0.00334615
-0.003534272
-0.003756804
-0.004021131
-0.004330998
-0.004643278
-0.0025964
-0.002706818
-0.00282509
-0.002953093
-0.003093424
-0.003251571
-0.003435666
-0.003650952
-0.003906035
-0.004203334
-0.004348055
-0.00989553
-0.00922464
-0.01018837
-0.008422644
-0.009220854
-0.01017975
-0.007576196
-0.008182049
-0.008950388
-0.009869859
-0.006681269
-0.007142161
-0.007706988
-0.008420111
-0.009266527
-0.005743418
-0.006095383
-0.006510553
-0.007017273
-0.00765204
-0.008397433
-0.004801671
-0.005068317
-0.005374064
-0.005733385
-0.006169065
-0.006710659
-0.00733668
-0.003951305
-0.00415315
-0.004379031
-0.004637023
-0.004938573
-0.005303348
-0.00575294
-0.00625339
-0.003334962
-0.003493689
-0.003668143
-0.003862908
-0.004084685
-0.004345026
-0.004660554
-0.005040187
-0.005447018
-0.002925868
-0.003057027
-0.003199138
-0.003355129
-0.003529024
-0.003728754
-0.003965431
-0.00424791
-0.004582631
-0.004928865
-0.002660583
-0.002773892
-0.002895315
-0.003026787
-0.003170992
-0.003333574
-0.003522891
-0.003744521
-0.004007765
-0.004316277
-0.004471596
-0.002492425
-0.00259401
-0.002701908
-0.002817496
-0.00294261
-0.003081637
-0.003240979
-0.003424333
-0.003638759
-0.003892809
-0.004050928
-0.004011894
-0.009308751
-0.008961561
-0.009891096
-0.008422644
-0.009220854
-0.01017975
-0.007794377
-0.008419245
-0.00921348
-0.01016711
-0.00708292
-0.007573066
-0.008175404
-0.008939548
-0.009853329
-0.006291386
-0.006678327
-0.007135992
-0.007697143
-0.008405815
-0.009248874
-0.005437234
-0.005740586
-0.006089484
-0.00650125
-0.007004048
-0.007636457
-0.008382688
-0.004564199
-0.004798835
-0.005062433
-0.005364844
-0.005720423
-0.006154096
-0.006696818
-0.00732106
-0.003768053
-0.003948364
-0.004147062
-0.004369526
-0.004623738
-0.00492339
-0.005289197
-0.005737063
-0.006235223
-0.003188643
-0.003332171
-0.003487927
-0.003659179
-0.003850446
-0.004070545
-0.004331985
-0.004646165
-0.005024089
-0.005428751
-0.002803552
-0.002923279
-0.003051696
-0.003190871
-0.003343681
-0.003516101
-0.003716991
-0.003952663
-0.004233929
-0.004567125
-0.004746342
-0.00255393
-0.002658163
-0.002768919
-0.002887621
-0.003016163
-0.003159044
-0.003322806
-0.003511337
-0.003732055
-0.003994198
-0.004159386
-0.00412089
-0.002396104
-0.002490131
-0.002589303
-0.002694638
-0.002807479
-0.002931373
-0.003071572
-0.003230256
-0.003412861
-0.003626417
-0.003752222
-0.003743279
-0.003658723
-0.008457987
-0.008442249
-0.009304318
-0.008185455
-0.008957771
-0.009882482
-0.007794377
-0.008419245
-0.00921348
-0.01016711
-0.007286285
-0.007791254
-0.008412614
-0.009202655
-0.01015056
-0.006668967
-0.007080005
-0.007566948
-0.008165635
-0.008925337
-0.009835692
-0.005955414
-0.006288623
-0.006672572
-0.007126913
-0.007684223
-0.00839055
-0.009234422
-0.005167777
-0.005434558
-0.005735038
-0.006080792
-0.006489028
-0.006989917
-0.007623587
-0.008368266
-0.004351983
-0.004561506
-0.004793266
-0.005053747
-0.005352711
-0.005706556
-0.006141494
-0.006683003
-0.007305482
-0.003602266
-0.00376525
-0.003942577
-0.004138055
-0.004356993
-0.004609503
-0.004910256
-0.005274687
-0.005720787
-0.006216612
-0.003055002
-0.003185975
-0.003326674
-0.003479397
-0.003647357
-0.003837089
-0.004058303
-0.004318605
-0.004631405
-0.005007582
-0.005232174
-0.002690961
-0.002801072
-0.00291818
-0.003043803
-0.003179967
-0.00333141
-0.003504981
-0.003704992
-0.003939641
-0.004219672
-0.004401121
-0.004365457
-0.00245514
-0.002551607
-0.002653396
-0.002761556
-0.002877472
-0.003004776
-0.003148815
-0.003311878
-0.003499613
-0.003719404
-0.003849656
-0.003839218
-0.003748943
-0.002306428
-0.0023939
-0.002485612
-0.002582333
-0.002685047
-0.002796739
-0.002921778
-0.003061383
-0.003219402
-0.00340125
-0.003495255
-0.003468783
-0.00342029
-0.003291498
-0.007415347
-0.007689202
-0.008453513
-0.007717114
-0.00843844
-0.009295701
-0.007576196
-0.008182049
-0.008950388
-0.009869859
-0.007286285
-0.007791254
-0.008412614
-0.009202655
-0.01015056
-0.006860136
-0.007283377
-0.007785153
-0.008402867
-0.009188463
-0.01013291
-0.006312462
-0.006666229
-0.007074302
-0.007557948
-0.008152817
-0.008910166
-0.009821295
-0.005659886
-0.005952804
-0.006283214
-0.006664097
-0.00711499
-0.007670422
-0.00837805
-0.009220408
-0.00492708
-0.005165238
-0.005429311
-0.005726856
-0.006069366
-0.006475962
-0.006978245
-0.007610992
-0.008354167
-0.00416007
-0.004349419
-0.004556217
-0.004785042
-0.005042312
-0.005339727
-0.005694882
-0.006128915
-0.006669215
-0.007289948
-0.003450902
-0.003599589
-0.003759733
-0.003934011
-0.004126175
-0.00434356
-0.00459719
-0.00489679
-0.005259815
-0.005704106
-0.006016495
-0.002932025
-0.003052447
-0.00318072
-0.003318534
-0.003468143
-0.003634682
-0.003825527
-0.004045745
-0.004304884
-0.004616276
-0.004829951
-0.004810627
-0.002586694
-0.002688581
-0.002796186
-0.002910628
-0.00303339
-0.003168277
-0.003320851
-0.003493639
-0.003692757
-0.003926366
-0.004067094
-0.00405497
-0.003952972
-0.002363176
-0.002452909
-0.002547031
-0.002646336
-0.002751839
-0.00286659
-0.002995027
-0.003138434
-0.003300789
-0.003487718
-0.003584654
-0.003555066
-0.003499885
-0.003359186
-0.002222585
-0.002304307
-0.002389555
-0.002478917
-0.002573132
-0.002674761
-0.00278757
-0.002912066
-0.003051071
-0.003208417
-0.003277872
-0.003231055
-0.003171479
-0.003084582
-0.002913775
-0.006355896
-0.006766227
-0.007410711
-0.007037698
-0.007685321
-0.008444806
-0.007145318
-0.007713684
-0.008431014
-0.00928307
-0.00708292
-0.007573066
-0.008175404
-0.008939548
-0.009853329
-0.006860136
-0.007283377
-0.007785153
-0.008402867
-0.009188463
-0.01013291
-0.006493231
-0.006857407
-0.007277691
-0.007776177
-0.008390079
-0.009173313
-0.01011851
-0.005998968
-0.006309876
-0.00666087
-0.007065904
-0.00754613
-0.008139126
-0.008897779
-0.009807377
-0.005395977
-0.005657411
-0.005947691
-0.006275241
-0.00665296
-0.007102247
-0.007659119
-0.008365923
-0.009206832
-0.004709472
-0.004924663
-0.005160256
-0.00542157
-0.005716096
-0.006057147
-0.00646517
-0.006966821
-0.007598672
-0.008340395
-0.003984907
-0.004157621
-0.004344378
-0.0045484
-0.00477421
-0.005030071
-0.005328797
-0.005683229
-0.006116361
-0.006655456
-0.00712734
-0.003311662
-0.00344834
-0.003594316
-0.003751563
-0.003922709
-0.004113438
-0.004331942
-0.004584569
-0.004882991
-0.005244577
-0.005524674
-0.005583862
-0.002818173
-0.002929574
-0.003047413
-0.003172935
-0.003307791
-0.003456074
-0.003623711
-0.003813667
-0.004032869
-0.004290822
-0.004453509
-0.004449021
-0.004337169
-0.00248965
-0.002584408
-0.002683891
-0.002788947
-0.002900661
-0.003022223
-0.003158218
-0.003310082
-0.003482075
-0.003680286
-0.003784324
-0.00374935
-0.003680282
-0.003512096
-0.002277202
-0.002361029
-0.00244851
-0.002540251
-0.002637017
-0.002741419
-0.002857275
-0.002985134
-0.003127902
-0.00328954
-0.00336103
-0.003310276
-0.003243132
-0.003144435
-0.002956137
-0.00214391
-0.002220542
-0.002300125
-0.002383116
-0.002470078
-0.002563264
-0.00266598
-0.002778289
-0.002902237
-0.003040635
-0.003091708
-0.003029513
-0.002954122
-0.002862661
-0.002739322
-0.002664031
-0.00556498
-0.005828741
-0.006350961
-0.006204638
-0.006762153
-0.007401671
-0.006520102
-0.007034192
-0.007677752
-0.008432035
-0.006681269
-0.007142161
-0.007706988
-0.008420111
-0.009266527
-0.006668967
-0.007080005
-0.007566948
-0.008165635
-0.008925337
-0.009835692
-0.006493231
-0.006857407
-0.007277691
-0.007776177
-0.008390079
-0.009173313
-0.01011851
-0.00617064
-0.006490654
-0.006852064
-0.007269318
-0.007764391
-0.008376419
-0.009160955
-0.0101046
-0.005719065
-0.005996516
-0.006304812
-0.006652973
-0.00705487
-0.0075335
-0.008127947
-0.0088858
-0.009793937
-0.005157429
-0.005393621
-0.005652557
-0.00594015
-0.006264759
-0.006641053
-0.007091811
-0.007648153
-0.00835417
-0.009193695
-0.004510901
-0.004707166
-0.004919918
-0.005152902
-0.005411384
-0.005704585
-0.006047053
-0.006454607
-0.006955645
-0.007586628
-0.008199222
-0.003823817
-0.003982565
-0.004152807
-0.004336927
-0.004538102
-0.004762612
-0.005019766
-0.005317886
-0.0056716
-0.006103832
-0.006511314
-0.00682483
-0.00318279
-0.003309205
-0.00344329
-0.003586505
-0.00374078
-0.003910588
-0.004102422
-0.004320033
-0.004571635
-0.004868854
-0.005080679
-0.005136116
-0.005077108
-0.002712234
-0.002815819
-0.002924744
-0.003039952
-0.003162657
-0.003296268
-0.003445629
-0.003612459
-0.003801508
-0.004019675
-0.00413957
-0.004104856
-0.004021177
-0.003807298
-0.002398943
-0.002487451
-0.0025799
-0.002676941
-0.00277939
-0.002889971
-0.003012615
-0.00314796
-0.003299105
-0.003470289
-0.00354687
-0.003488804
-0.003405738
-0.003279919
-0.003048825
-0.002196535
-0.002275134
-0.002356795
-0.00244199
-0.0025313
-0.002627021
-0.0027325
-0.002847823
-0.002975098
-0.003117218
-0.003169744
-0.003103238
-0.003019949
-0.002916593
-0.002776905
-0.002689107
-0.002069854
-0.00214194
-0.002216512
-0.002293925
-0.002374613
-0.002460596
-0.002554839
-0.002657092
-0.002768896
-0.002892291
-0.002929769
-0.002856882
-0.002769311
-0.002666604
-0.002545172
-0.002511015
-0.002525218
-0.005057831
-0.005130632
-0.005560167
-0.005358446
-0.005824343
-0.006341311
-0.005753341
-0.006200943
-0.006754194
-0.007388389
-0.006098397
-0.006516871
-0.007027345
-0.00766663
-0.008415299
-0.006291386
-0.006678327
-0.007135992
-0.007697143
-0.008405815
-0.009248874
-0.006312462
-0.006666229
-0.007074302
-0.007557948
-0.008152817
-0.008910166
-0.009821295
-0.00617064
-0.006490654
-0.006852064
-0.007269318
-0.007764391
-0.008376419
-0.009160955
-0.0101046
-0.005882641
-0.006168197
-0.006485605
-0.006844191
-0.007258316
-0.007751796
-0.008365276
-0.009149015
-0.01009119
-0.005466091
-0.005716733
-0.00599171
-0.006297344
-0.006642591
-0.007043074
-0.007523188
-0.008117135
-0.008874229
-0.009780976
-0.004939781
-0.005155182
-0.005389
-0.005645396
-0.00593023
-0.006253547
-0.0066313
-0.007081686
-0.007637524
-0.008342791
-0.009060363
-0.004328316
-0.004508695
-0.004702635
-0.004912911
-0.005143221
-0.005400482
-0.005695076
-0.006037174
-0.006444273
-0.006944719
-0.00746309
-0.007965217
-0.003674756
-0.003821571
-0.003977956
-0.004145686
-0.004327106
-0.00452707
-0.004752847
-0.00500948
-0.005306998
-0.005659994
-0.005972573
-0.006242211
-0.006539345
-0.003062906
-0.003180431
-0.003304362
-0.003435808
-0.003576193
-0.003729213
-0.003900107
-0.004091132
-0.004307831
-0.004558387
-0.004716821
-0.004726008
-0.004680458
-0.004455421
-0.002613234
-0.00270997
-0.002811177
-0.002917583
-0.003030101
-0.003151631
-0.003286296
-0.003434917
-0.003600924
-0.00378905
-0.003877779
-0.003815866
-0.003713612
-0.003542378
-0.003221383
-0.002313848
-0.002396825
-0.002483113
-0.002573218
-0.002667763
-0.002769138
-0.002880774
-0.003002818
-0.003137504
-0.003287917
-0.003344219
-0.003269478
-0.003169454
-0.003038823
-0.002859253
-0.002739589
-0.002120609
-0.002194541
-0.002271054
-0.002350518
-0.00243338
-0.002521696
-0.002618465
-0.002723449
-0.002838234
-0.002964917
-0.003003452
-0.002926092
-0.002830596
-0.002716179
-0.002579082
-0.002533374
-0.002542015
-0.001999957
-0.002067953
-0.002138053
-0.002210536
-0.002285736
-0.00236549
-0.002452501
-0.002546312
-0.002648097
-0.002759392
-0.002786636
-0.002706776
-0.002610946
-0.002499261
-0.002371109
-0.002335256
-0.002383512
-0.002371026
-0.004766728
-0.004684462
-0.00505324
-0.00472911
-0.005126298
-0.005550751
-0.004974504
-0.005354438
-0.005815729
-0.006327096
-0.005383503
-0.005749927
-0.006193712
-0.006742482
-0.007370962
-0.005743418
-0.006095383
-0.006510553
-0.007017273
-0.00765204
-0.008397433
-0.005955414
-0.006288623
-0.006672572
-0.007126913
-0.007684223
-0.00839055
-0.009234422
-0.005998968
-0.006309876
-0.00666087
-0.007065904
-0.00754613
-0.008139126
-0.008897779
-0.009807377
-0.005882641
-0.006168197
-0.006485605
-0.006844191
-0.007258316
-0.007751796
-0.008365276
-0.009149015
-0.01009119
-0.005622362
-0.005880315
-0.006163405
-0.006478161
-0.006833842
-0.007246556
-0.007741522
-0.00835451
-0.009137494
-0.01007826
-0.005235301
-0.005463866
-0.005712157
-0.005984619
-0.006287522
-0.006631489
-0.007033443
-0.007513215
-0.008106692
-0.008863067
-0.009649906
-0.004739679
-0.004937632
-0.00515077
-0.005382177
-0.005635971
-0.005919617
-0.006244365
-0.006621838
-0.007071871
-0.007627233
-0.008227255
-0.008851187
-0.004159392
-0.004326202
-0.00450436
-0.00469594
-0.004903682
-0.005132858
-0.005391478
-0.005685769
-0.006027508
-0.006434169
-0.006832636
-0.007257628
-0.007773052
-0.003536118
-0.003672601
-0.003817153
-0.003971137
-0.004136298
-0.004316583
-0.004517783
-0.004743101
-0.004999214
-0.005296132
-0.005538408
-0.005727481
-0.005987508
-0.006291308
-0.0029509
-0.003060637
-0.003175778
-0.003297182
-0.003425927
-0.003565129
-0.00371921
-0.003889363
-0.004079564
-0.004295332
-0.004415923
-0.00438804
-0.00431037
-0.004121114
-0.003644227
-0.00252038
-0.002611055
-0.002705504
-0.002804294
-0.002908124
-0.003019529
-0.003142088
-0.003276069
-0.003423936
-0.003589106
-0.003655082
-0.00357428
-0.003452869
-0.003276072
-0.003012976
-0.002814725
-0.002233767
-0.002311807
-0.002392646
-0.002476681
-0.002564392
-0.002657915
-0.002760317
-0.002871396
-0.002992831
-0.003126848
-0.003168255
-0.00308222
-0.002969865
-0.002828618
-0.002653454
-0.002578415
-0.002573823
-0.002048952
-0.002118685
-0.002190606
-0.002265005
-0.002342226
-0.00242414
-0.002513476
-0.002609783
-0.002714268
-0.002828509
-0.002856523
-0.002772145
-0.002668495
-0.002545433
-0.002402303
-0.00235547
-0.002398514
-0.002381346
-0.001933829
-0.001998122
-0.002064201
-0.002132288
-0.002202641
-0.002276948
-0.002357702
-0.002444308
-0.002537684
-0.002638997
-0.00265844
-0.002574181
-0.002473297
-0.002355768
-0.002221785
-0.002175767
-0.002217997
-0.002241244
-0.00220781
-0.004635141
-0.004429159
-0.004762303
-0.004327612
-0.004680295
-0.005044258
-0.004395727
-0.004725144
-0.005117807
-0.005536876
-0.004657396
-0.004970792
-0.005346578
-0.005803026
-0.006308408
-0.005071317
-0.005380315
-0.005743241
-0.006183062
-0.0067271
-0.007352343
-0.005437234
-0.005740586
-0.006089484
-0.00650125
-0.007004048
-0.007636457
-0.008382688
-0.005659886
-0.005952804
-0.006283214
-0.006664097
-0.00711499
-0.007670422
-0.00837805
-0.009220408
-0.005719065
-0.005996516
-0.006304812
-0.006652973
-0.00705487
-0.0075335
-0.008127947
-0.0088858
-0.009793937
-0.005622362
-0.005880315
-0.006163405
-0.006478161
-0.006833842
-0.007246556
-0.007741522
-0.00835451
-0.009137494
-0.01007826
-0.005384919
-0.005620144
-0.005875754
-0.006156338
-0.00646837
-0.006822774
-0.007236962
-0.007731595
-0.008344121
-0.009126392
-0.009947699
-0.00502313
-0.005233173
-0.005459497
-0.005705402
-0.005975288
-0.006277014
-0.006622423
-0.007024128
-0.007503581
-0.008096617
-0.008750154
-0.00944837
-0.004554567
-0.00473762
-0.004933411
-0.005144253
-0.005373195
-0.005625885
-0.005910925
-0.006235456
-0.006612666
-0.007062369
-0.007522733
-0.008045583
-0.008689505
-0.004002302
-0.004157363
-0.004322046
-0.004497951
-0.004687121
-0.0048938
-0.005124298
-0.005382664
-0.005676663
-0.006018058
-0.006330519
-0.006646131
-0.007088406
-0.007632743
-0.003406615
-0.003534046
-0.003668357
-0.003810612
-0.003962144
-0.004126236
-0.004307724
-0.004508514
-0.004733374
-0.00498897
-0.005182296
-0.005311406
-0.005495483
-0.005765694
-0.006123224
-0.002845868
-0.002948716
-0.003056162
-0.003168879
-0.003287699
-0.003415324
-0.003555562
-0.003708959
-0.003878356
-0.004067715
-0.004160939
-0.004107973
-0.004002975
-0.003800494
-0.003391212
-0.002903374
-0.002433013
-0.00251828
-0.002606754
-0.00269888
-0.002795201
-0.002897973
-0.003010381
-0.003132302
-0.003265586
-0.003412685
-0.003462032
-0.003368658
-0.003234101
-0.003047135
-0.002792525
-0.002645528
-0.002615215
-0.002158199
-0.002231797
-0.002307777
-0.002386447
-0.002468182
-0.002554919
-0.002649443
-0.002751324
-0.002861837
-0.002982655
-0.003012884
-0.002919659
-0.002799332
-0.002650211
-0.00247076
-0.002396212
-0.002426935
-0.002399941
-0.001981163
-0.002047094
-0.002114887
-0.00218477
-0.002257012
-0.002333327
-0.002416233
-0.002505135
-0.002600977
-0.002704957
-0.002724959
-0.002636197
-0.002527665
-0.002399139
-0.002250854
-0.002194382
-0.002231566
-0.00225047
-0.002213712
-0.001871132
-0.001932054
-0.001994497
-0.002058635
-0.00212467
-0.002194168
-0.002269446
-0.00234982
-0.002436018
-0.002528954
-0.002542332
-0.002455488
-0.002351782
-0.002231093
-0.002093622
-0.002038381
-0.002066773
-0.002087024
-0.002089996
-0.002039872
-0.004314006
-0.004630798
-0.00409828
-0.004425122
-0.004753648
-0.004026908
-0.004323787
-0.004672134
-0.005031027
-0.004118118
-0.004392046
-0.004717366
-0.005105283
-0.005518631
-0.00438873
-0.004653923
-0.004963507
-0.005334977
-0.005786313
-0.006288413
-0.004801671
-0.005068317
-0.005374064
-0.005733385
-0.006169065
-0.006710659
-0.00733668
-0.005167777
-0.005434558
-0.005735038
-0.006080792
-0.006489028
-0.006989917
-0.007623587
-0.008368266
-0.005395977
-0.005657411
-0.005947691
-0.006275241
-0.00665296
-0.007102247
-0.007659119
-0.008365923
-0.009206832
-0.005466091
-0.005716733
-0.00599171
-0.006297344
-0.006642591
-0.007043074
-0.007523188
-0.008117135
-0.008874229
-0.009780976
-0.005384919
-0.005620144
-0.005875754
-0.006156338
-0.00646837
-0.006822774
-0.007236962
-0.007731595
-0.008344121
-0.009126392
-0.009947699
-0.005166639
-0.005382798
-0.00561579
-0.005869022
-0.006147038
-0.006457896
-0.006813745
-0.007227692
-0.007722015
-0.00833411
-0.009014212
-0.009748146
-0.004826866
-0.005021092
-0.005228994
-0.005453046
-0.00569651
-0.005965303
-0.006268433
-0.006613655
-0.007015129
-0.007494286
-0.007994695
-0.008576267
-0.009295814
-0.004382438
-0.004552591
-0.004733574
-0.004927174
-0.005135671
-0.005363579
-0.005617623
-0.005902491
-0.00622682
-0.006603786
-0.006965871
-0.007358351
-0.007904885
-0.008578702
-0.003855581
-0.004000352
-0.004153373
-0.0043159
-0.004489505
-0.004677675
-0.004885637
-0.005115918
-0.00537404
-0.00566776
-0.005921112
-0.006158024
-0.006492459
-0.006964549
-0.007556779
-0.003285195
-0.003404621
-0.003529966
-0.003662074
-0.003801983
-0.003952504
-0.004117765
-0.004298882
-0.004499263
-0.004723667
-0.004881649
-0.004969786
-0.005096565
-0.005293437
-0.005615111
-0.00274706
-0.002843763
-0.002944406
-0.003049524
-0.003159764
-0.003277519
-0.003406154
-0.003545756
-0.003698455
-0.003867083
-0.003940317
-0.003870522
-0.003747456
-0.00353087
-0.003135574
-0.00272483
-0.002651877
-0.002350582
-0.002430986
-0.002514132
-0.002600372
-0.002690126
-0.002785439
-0.002889188
-0.003000999
-0.003122272
-0.003254846
-0.003291724
-0.003190427
-0.003047723
-0.002854011
-0.002598908
-0.002456977
-0.002463942
-0.002421948
-0.002086717
-0.002156296
-0.002227908
-0.002301798
-0.002378256
-0.00245906
-0.002546771
-0.002640805
-0.002742157
-0.002852097
-0.002873821
-0.002776186
-0.002651312
-0.002497598
-0.002314673
-0.002231917
-0.002257284
-0.002267095
-0.002223974
-0.001916896
-0.001979367
-0.002043426
-0.002109253
-0.002177058
-0.002248431
-0.002325711
-0.002408209
-0.002496675
-0.002592046
-0.002605821
-0.002514526
-0.002403372
-0.002272075
-0.002120937
-0.002055741
-0.002079273
-0.002095369
-0.002095267
-0.002042901
-0.001811577
-0.001869416
-0.00192855
-0.001989118
-0.002051277
-0.002116492
-0.002186934
-0.002261854
-0.002341844
-0.00242763
-0.002436228
-0.002348036
-0.002243071
-0.002121108
-0.001982308
-0.001920368
-0.00193618
-0.001945073
-0.001947584
-0.001933724
-0.001869967
-0.003994975
-0.004310034
-0.004622304
-0.003816487
-0.004094565
-0.004417216
-0.004740899
-0.003774754
-0.004023351
-0.004316286
-0.004660099
-0.005013632
-0.003882004
-0.00411467
-0.00438482
-0.004705883
-0.005088802
-0.00549911
-0.004156246
-0.004385459
-0.004647103
-0.004952747
-0.005319703
-0.005768422
-0.006271119
-0.004564199
-0.004798835
-0.005062433
-0.005364844
-0.005720423
-0.006154096
-0.006696818
-0.00732106
-0.00492708
-0.005165238
-0.005429311
-0.005726856
-0.006069366
-0.006475962
-0.006978245
-0.007610992
-0.008354167
-0.005157429
-0.005393621
-0.005652557
-0.00594015
-0.006264759
-0.006641053
-0.007091811
-0.007648153
-0.00835417
-0.009193695
-0.005235301
-0.005463866
-0.005712157
-0.005984619
-0.006287522
-0.006631489
-0.007033443
-0.007513215
-0.008106692
-0.008863067
-0.009649906
-0.005166639
-0.005382798
-0.00561579
-0.005869022
-0.006147038
-0.006457896
-0.006813745
-0.007227692
-0.007722015
-0.00833411
-0.009014212
-0.009748146
-0.004964729
-0.005164607
-0.005378633
-0.005609361
-0.005860159
-0.006137085
-0.006449352
-0.006805021
-0.007218747
-0.007712783
-0.008232947
-0.008842541
-0.009598007
-0.004644377
-0.004824911
-0.005017087
-0.00522282
-0.005444551
-0.005686992
-0.00595715
-0.006260135
-0.006605185
-0.007006447
-0.007400258
-0.007837695
-0.008444471
-0.009193279
-0.004221683
-0.00438054
-0.004548707
-0.004727593
-0.004918956
-0.00512648
-0.005355703
-0.005609608
-0.005894316
-0.006218458
-0.006513603
-0.006814053
-0.007231001
-0.007808313
-0.008522152
-0.003718034
-0.003853705
-0.003996516
-0.004147471
-0.004307798
-0.004480457
-0.004669872
-0.004877647
-0.00510772
-0.005365609
-0.005576425
-0.005759759
-0.006015879
-0.006379945
-0.006897373
-0.003170989
-0.003283275
-0.003400693
-0.003523921
-0.003653782
-0.003792731
-0.003944389
-0.004109311
-0.004290058
-0.004490031
-0.004621979
-0.004681313
-0.004768685
-0.004909495
-0.005156281
-0.002653852
-0.002745031
-0.002839609
-0.002938013
-0.003040751
-0.003149978
-0.003268717
-0.003396757
-0.00353571
-0.003687698
-0.003745874
-0.003665072
-0.003530626
-0.003305617
-0.002915511
-0.002528863
-0.002496745
-0.002438593
-0.002272621
-0.002348625
-0.002426984
-0.002507978
-0.002591936
-0.002680728
-0.002776992
-0.00288018
-0.002991384
-0.003111996
-0.00313938
-0.003033244
-0.002886169
-0.002689226
-0.002434226
-0.002287931
-0.002290792
-0.00228678
-0.002235397
-0.002018957
-0.002084879
-0.00215254
-0.002222136
-0.002293896
-0.002369463
-0.002451214
-0.002538463
-0.002632001
-0.002732818
-0.002747933
-0.002647827
-0.002520733
-0.002365143
-0.002180926
-0.002090753
-0.00210297
-0.002110412
-0.002104435
-0.002048042
-0.001855853
-0.001915159
-0.001975821
-0.002037981
-0.002101804
-0.002168777
-0.002241088
-0.002317984
-0.002400071
-0.002488096
-0.002496963
-0.002404394
-0.002292193
-0.002160003
-0.002008127
-0.00193669
-0.001947839
-0.00195276
-0.001952347
-0.001936412
-0.001871042
-0.001754909
-0.001809916
-0.001866026
-0.001923348
-0.001982007
-0.002043378
-0.002109511
-0.002179614
-0.002254172
-0.002333775
-0.002338547
-0.002249878
-0.002144707
-0.002022779
-0.001884191
-0.001817898
-0.001823928
-0.001822135
-0.001815495
-0.001803277
-0.001775006
-0.001699936
-0.003721782
-0.003991315
-0.004302256
-0.004609794
-0.00357902
-0.003813028
-0.004087283
-0.004405562
-0.004724141
-0.00355957
-0.003771417
-0.00401637
-0.004305216
-0.004644268
-0.004995023
-0.003677281
-0.003878753
-0.004107895
-0.004374147
-0.004690765
-0.005071161
-0.005482197
-0.003951305
-0.00415315
-0.004379031
-0.004637023
-0.004938573
-0.005303348
-0.00575294
-0.00625339
-0.004351983
-0.004561506
-0.004793266
-0.005053747
-0.005352711
-0.005706556
-0.006141494
-0.006683003
-0.007305482
-0.004709472
-0.004924663
-0.005160256
-0.00542157
-0.005716096
-0.006057147
-0.00646517
-0.006966821
-0.007598672
-0.008340395
-0.004939781
-0.005155182
-0.005389
-0.005645396
-0.00593023
-0.006253547
-0.0066313
-0.007081686
-0.007637524
-0.008342791
-0.009060363
-0.00502313
-0.005233173
-0.005459497
-0.005705402
-0.005975288
-0.006277014
-0.006622423
-0.007024128
-0.007503581
-0.008096617
-0.008750154
-0.00944837
-0.004964729
-0.005164607
-0.005378633
-0.005609361
-0.005860159
-0.006137085
-0.006449352
-0.006805021
-0.007218747
-0.007712783
-0.008232947
-0.008842541
-0.009598007
-0.004776995
-0.00496278
-0.005160616
-0.005372479
-0.005600894
-0.005850673
-0.006128966
-0.006441096
-0.006796602
-0.007210126
-0.007619498
-0.008078108
-0.008713249
-0.009497633
-0.004473955
-0.004642498
-0.004821066
-0.005011167
-0.005214687
-0.005435455
-0.005679219
-0.005949264
-0.006252118
-0.006597013
-0.00691862
-0.007255401
-0.007718673
-0.008355803
-0.00914172
-0.004070991
-0.004219857
-0.004376806
-0.004542964
-0.004719711
-0.004910154
-0.005118953
-0.005348061
-0.005601838
-0.0058864
-0.006133542
-0.006371708
-0.006696421
-0.007143566
-0.007758976
-0.003588671
-0.003716227
-0.003850013
-0.003990839
-0.004139687
-0.004299116
-0.004472983
-0.004662233
-0.004869829
-0.005099705
-0.00527911
-0.005424401
-0.00562679
-0.005911798
-0.006318906
-0.003063269
-0.003169137
-0.003279489
-0.003394872
-0.003515943
-0.00364489
-0.003784943
-0.003936288
-0.004100873
-0.004281252
-0.004393319
-0.004432164
-0.004491747
-0.004593602
-0.004782527
-0.002565712
-0.002651892
-0.002741022
-0.002833444
-0.002929561
-0.003031332
-0.003141516
-0.003259696
-0.003387129
-0.003525421
-0.003572041
-0.003484039
-0.003342997
-0.003114168
-0.002729903
-0.002354249
-0.002320515
-0.002301674
-0.002243323
-0.00219873
-0.002270731
-0.00234476
-0.002421043
-0.002499841
-0.002582878
-0.002672595
-0.00276833
-0.002870947
-0.002981533
-0.003001523
-0.002892685
-0.00274374
-0.002546364
-0.002293364
-0.002143025
-0.002133858
-0.002128231
-0.002114643
-0.002053549
-0.001954603
-0.00201718
-0.002081248
-0.002146963
-0.002214506
-0.00228541
-0.002361898
-0.002443213
-0.002529995
-0.002623031
-0.002632936
-0.002531671
-0.002403964
-0.002248354
-0.002064844
-0.001969616
-0.001969947
-0.001966621
-0.001960635
-0.001940977
-0.001872817
-0.001797772
-0.001854172
-0.001911729
-0.001970556
-0.002030783
-0.002093807
-0.002161691
-0.002233638
-0.002310146
-0.002391818
-0.002396758
-0.002303799
-0.002191605
-0.002059819
-0.001908702
-0.001833333
-0.001834892
-0.001829306
-0.001819881
-0.001805697
-0.001775923
-0.001699435
-0.00170091