/*--------------------------------*- C++ -*----------------------------------*\
| =========                 |                                                 |
| \\      /  F ield         | OpenFOAM: The Open Source CFD Toolbox           |
|  \\    /   O peration     | Version:  2306                                  |
|   \\  /    A nd           | Website:  www.openfoam.com                      |
|    \\/     M anipulation  |                                                 |
\*---------------------------------------------------------------------------*/
FoamFile
{
    version     2.0;
    format      ascii;
    arch        "LSB;label=32;scalar=64";
    class       volScalarField;
    location    "1.5/phiEA";
    object      T;
}
// * * * * * * * * * * * * * * * * * * * * * * * * * * * * * * * * * * * * * //

dimensions      [0 0 0 1 0 0 0];

internalField   nonuniform List<scalar> 
20000
(
1123.184
1123.044
1124.84
1123.196
1122.72
1124.827
1123.056
1126.374
1124.848
1123.213
1122.122
1124.795
1122.734
1126.397
1124.834
1123.073
1127.825
1126.378
1124.859
1123.233
1121.123
1124.73
1122.138
1126.448
1124.801
1122.752
1127.859
1126.401
1124.846
1123.094
1129.226
1127.825
1126.386
1124.876
1123.259
1119.668
1124.61
1121.145
1126.533
1124.736
1122.159
1127.936
1126.45
1124.813
1122.775
1129.264
1127.86
1126.409
1124.862
1123.12
1130.587
1129.224
1127.83
1126.398
1124.896
1123.289
1118.021
1124.402
1119.7
1126.659
1124.613
1121.172
1128.071
1126.534
1124.746
1122.185
1129.349
1127.936
1126.457
1124.828
1122.802
1130.625
1129.261
1127.863
1126.42
1124.882
1123.152
1131.906
1130.582
1129.225
1127.838
1126.414
1124.921
1123.32
1116.518
1124.097
1118.068
1126.807
1124.401
1119.736
1128.28
1126.656
1124.62
1121.204
1129.499
1128.068
1126.538
1124.76
1122.216
1130.71
1129.345
1127.939
1126.468
1124.848
1122.835
1131.943
1130.62
1129.262
1127.871
1126.436
1124.907
1123.183
1133.182
1131.899
1130.58
1129.23
1127.85
1126.434
1124.946
1123.351
1115.4
1123.758
1116.579
1126.908
1124.096
1118.119
1128.55
1126.798
1124.405
1119.778
1129.733
1128.273
1126.657
1124.632
1121.241
1130.861
1129.493
1128.069
1126.547
1124.778
1122.253
1132.026
1130.704
1129.345
1127.945
1126.482
1124.872
1122.869
1133.217
1131.936
1130.618
1129.267
1127.883
1126.455
1124.932
1123.215
1134.413
1133.173
1131.895
1130.582
1129.238
1127.866
1126.455
1124.971
1123.383
1114.81
1123.47
1115.472
1126.947
1123.759
1116.644
1128.796
1126.895
1124.1
1118.174
1130.044
1128.537
1126.792
1124.414
1119.825
1131.099
1129.724
1128.27
1126.661
1124.649
1121.284
1132.173
1130.853
1129.491
1128.074
1126.56
1124.802
1122.29
1133.297
1132.018
1130.702
1129.349
1127.956
1126.501
1124.897
1122.903
1134.447
1133.208
1131.932
1130.62
1129.275
1127.898
1126.476
1124.957
1123.248
1135.598
1134.403
1133.168
1131.895
1130.588
1129.251
1127.882
1126.475
1124.997
1123.414
1114.81
1123.306
1114.887
1126.947
1123.474
1115.547
1128.976
1126.932
1123.764
1116.713
1130.34
1128.778
1126.886
1124.107
1118.234
1131.416
1130.028
1128.527
1126.791
1124.426
1119.877
1132.404
1131.087
1129.718
1128.27
1126.67
1124.67
1121.329
1133.437
1132.163
1130.849
1129.493
1128.082
1126.577
1124.826
1122.329
1134.522
1133.287
1132.013
1130.702
1129.356
1127.97
1126.52
1124.921
1122.937
1135.63
1134.437
1133.203
1131.931
1130.625
1129.287
1127.914
1126.496
1124.982
1123.28
1136.736
1135.587
1134.396
1133.166
1131.898
1130.597
1129.263
1127.898
1126.496
1125.022
1123.568
1115.4
1123.306
1114.887
1126.938
1123.312
1114.968
1129.085
1126.933
1123.482
1115.627
1130.571
1128.955
1126.922
1123.774
1116.786
1131.725
1130.32
1128.764
1126.881
1124.12
1118.299
1132.715
1131.399
1130.016
1128.522
1126.795
1124.444
1119.929
1133.659
1132.391
1131.08
1129.716
1128.275
1126.684
1124.691
1121.373
1134.656
1133.426
1132.156
1130.848
1129.498
1128.095
1126.594
1124.85
1122.367
1135.702
1134.511
1133.281
1132.012
1130.707
1129.367
1127.985
1126.54
1124.946
1122.972
1136.767
1135.619
1134.43
1133.2
1131.934
1130.634
1129.299
1127.93
1126.516
1125.007
1123.439
1137.827
1136.724
1135.579
1134.393
1133.167
1131.905
1130.607
1129.276
1127.914
1126.516
1125.147
1123.862
1116.518
1123.47
1115.472
1126.938
1123.312
1114.968
1129.136
1126.924
1123.323
1115.053
1130.722
1129.063
1126.922
1123.495
1115.71
1131.971
1130.548
1128.938
1126.916
1123.789
1116.864
1133.02
1131.704
1130.303
1128.754
1126.88
1124.137
1118.364
1133.958
1132.697
1131.386
1130.008
1128.521
1126.802
1124.462
1119.982
1134.868
1133.645
1132.382
1131.075
1129.717
1128.283
1126.697
1124.713
1121.419
1135.83
1134.644
1133.418
1132.153
1130.85
1129.507
1128.108
1126.611
1124.874
1122.407
1136.835
1135.69
1134.504
1133.277
1132.014
1130.715
1129.378
1128
1126.559
1124.971
1123.142
1137.856
1136.755
1135.611
1134.426
1133.201
1131.94
1130.643
1129.311
1127.946
1126.536
1125.132
1123.747
1138.871
1137.815
1136.716
1135.574
1134.392
1133.171
1131.912
1130.616
1129.288
1127.931
1126.618
1125.375
1124.172
1118.021
1123.758
1116.579
1126.947
1123.474
1115.547
1129.136
1126.924
1123.323
1115.053
1130.796
1129.114
1126.913
1123.337
1115.142
1132.136
1130.698
1129.045
1126.916
1123.512
1115.798
1133.265
1131.947
1130.528
1128.925
1126.913
1123.808
1116.941
1134.253
1132.998
1131.686
1130.29
1128.747
1126.884
1124.154
1118.429
1135.154
1133.94
1132.683
1131.377
1130.004
1128.523
1126.81
1124.48
1120.035
1136.032
1134.854
1133.635
1132.376
1131.074
1129.722
1128.292
1126.711
1124.735
1121.465
1136.957
1135.817
1134.635
1133.414
1132.154
1130.856
1129.516
1128.12
1126.629
1124.898
1122.599
1137.922
1136.823
1135.681
1134.499
1133.277
1132.019
1130.723
1129.389
1128.015
1126.578
1125.094
1123.485
1138.899
1137.844
1136.746
1135.606
1134.425
1133.205
1131.947
1130.652
1129.323
1127.961
1126.636
1125.359
1124.077
1139.868
1138.858
1137.805
1136.71
1135.572
1134.395
1133.176
1131.918
1130.625
1129.301
1128.012
1126.799
1125.604
1124.494
1119.668
1124.097
1118.068
1126.947
1123.759
1116.644
1129.085
1126.933
1123.482
1115.627
1130.796
1129.114
1126.913
1123.337
1115.142
1132.218
1130.771
1129.095
1126.907
1123.356
1115.235
1133.431
1132.111
1130.677
1129.031
1126.913
1123.534
1115.886
1134.491
1133.241
1131.927
1130.513
1128.916
1126.916
1123.827
1117.018
1135.436
1134.231
1132.98
1131.672
1130.282
1128.745
1126.887
1124.171
1118.493
1136.304
1135.135
1133.925
1132.672
1131.371
1130.004
1128.526
1126.818
1124.499
1120.089
1137.15
1136.017
1134.842
1133.627
1132.373
1131.077
1129.727
1128.301
1126.724
1124.758
1121.689
1138.038
1136.943
1135.807
1134.629
1133.412
1132.157
1130.862
1129.525
1128.133
1126.646
1125.017
1122.999
1138.961
1137.909
1136.813
1135.676
1134.498
1133.281
1132.024
1130.731
1129.4
1128.029
1126.673
1125.322
1123.859
1139.895
1138.886
1137.834
1136.739
1135.603
1134.427
1133.209
1131.953
1130.66
1129.335
1128.04
1126.813
1125.59
1124.422
1140.818
1139.855
1138.848
1137.798
1136.707
1135.574
1134.398
1133.181
1131.925
1130.635
1129.364
1128.154
1126.977
1125.836
1124.825
1121.123
1124.402
1119.7
1126.908
1124.096
1118.119
1128.976
1126.932
1123.764
1116.713
1130.722
1129.063
1126.922
1123.495
1115.71
1132.218
1130.771
1129.095
1126.907
1123.356
1115.235
1133.514
1132.192
1130.749
1129.081
1126.905
1123.38
1115.328
1134.653
1133.405
1132.089
1130.66
1129.021
1126.915
1123.556
1115.972
1135.665
1134.467
1133.22
1131.91
1130.501
1128.911
1126.918
1123.846
1117.095
1136.574
1135.414
1134.213
1132.965
1131.662
1130.277
1128.743
1126.891
1124.189
1118.557
1137.41
1136.286
1135.12
1133.914
1132.665
1131.368
1130.003
1128.528
1126.825
1124.517
1120.344
1138.223
1137.134
1136.004
1134.834
1133.623
1132.374
1131.079
1129.732
1128.309
1126.738
1124.867
1122.157
1139.073
1138.024
1136.933
1135.8
1134.626
1133.414
1132.161
1130.868
1129.533
1128.145
1126.731
1125.243
1123.452
1139.955
1138.948
1137.898
1136.806
1135.673
1134.499
1133.284
1132.03
1130.738
1129.411
1128.103
1126.841
1125.556
1124.261
1140.844
1139.881
1138.875
1137.827
1136.736
1135.604
1134.43
1133.214
1131.959
1130.669
1129.396
1128.177
1126.987
1125.824
1124.78
1141.724
1140.805
1139.844
1138.841
1137.795
1136.707
1135.575
1134.4
1133.185
1131.932
1130.682
1129.473
1128.292
1127.154
1126.069
1125.015
1122.122
1124.61
1121.145
1126.807
1124.401
1119.736
1128.796
1126.895
1124.1
1118.174
1130.571
1128.955
1126.922
1123.774
1116.786
1132.136
1130.698
1129.045
1126.916
1123.512
1115.798
1133.514
1132.192
1130.749
1129.081
1126.905
1123.38
1115.328
1134.734
1133.487
1132.169
1130.732
1129.071
1126.908
1123.403
1115.42
1135.821
1134.627
1133.383
1132.071
1130.647
1129.015
1126.917
1123.577
1116.058
1136.793
1135.641
1134.446
1133.203
1131.897
1130.493
1128.907
1126.92
1123.865
1117.17
1137.669
1136.553
1135.396
1134.198
1132.954
1131.656
1130.272
1128.741
1126.895
1124.206
1118.861
1138.472
1137.392
1136.27
1135.108
1133.906
1132.661
1131.366
1130.003
1128.531
1126.833
1124.608
1120.818
1139.25
1138.207
1137.122
1135.995
1134.828
1133.622
1132.374
1131.082
1129.737
1128.317
1126.804
1125.083
1122.7
1140.062
1139.059
1138.013
1136.925
1135.796
1134.627
1133.416
1132.165
1130.874
1129.542
1128.207
1126.882
1125.483
1123.956
1140.902
1139.941
1138.937
1137.891
1136.803
1135.673
1134.501
1133.288
1132.035
1130.746
1129.466
1128.228
1127.006
1125.796
1124.682
1141.749
1140.831
1139.871
1138.868
1137.823
1136.736
1135.605
1134.432
1133.218
1131.965
1130.714
1129.499
1128.31
1127.16
1126.061
1124.985
1142.584
1141.71
1140.794
1139.836
1138.836
1137.794
1136.707
1135.576
1134.403
1133.189
1131.966
1130.763
1129.577
1128.428
1127.33
1126.201
1125.075
1122.72
1124.73
1122.138
1126.659
1124.613
1121.172
1128.55
1126.798
1124.405
1119.778
1130.34
1128.778
1126.886
1124.107
1118.234
1131.971
1130.548
1128.938
1126.916
1123.789
1116.864
1133.431
1132.111
1130.677
1129.031
1126.913
1123.534
1115.886
1134.734
1133.487
1132.169
1130.732
1129.071
1126.908
1123.403
1115.42
1135.899
1134.708
1133.465
1132.151
1130.718
1129.064
1126.91
1123.427
1115.511
1136.943
1135.796
1134.606
1133.365
1132.056
1130.637
1129.009
1126.919
1123.599
1116.143
1137.879
1136.77
1135.621
1134.429
1133.19
1131.888
1130.485
1128.902
1126.922
1123.884
1117.527
1138.72
1137.648
1136.535
1135.381
1134.187
1132.947
1131.649
1130.267
1128.739
1126.899
1124.291
1119.373
1139.489
1138.454
1137.376
1136.258
1135.1
1133.901
1132.657
1131.363
1130.002
1128.533
1126.873
1124.784
1121.303
1140.232
1139.234
1138.194
1137.112
1135.989
1134.826
1133.621
1132.375
1131.084
1129.742
1128.359
1126.925
1125.321
1123.342
1141.005
1140.047
1139.047
1138.004
1136.92
1135.795
1134.627
1133.417
1132.168
1130.88
1129.586
1128.31
1127.032
1125.737
1124.506
1141.804
1140.888
1139.93
1138.929
1137.886
1136.802
1135.673
1134.502
1133.291
1132.04
1130.786
1129.557
1128.347
1127.171
1126.041
1124.926
1142.608
1141.735
1140.82
1139.863
1138.863
1137.822
1136.736
1135.606
1134.434
1133.222
1131.997
1130.79
1129.598
1128.439
1127.332
1126.194
1125.05
1143.401
1142.571
1141.699
1140.786
1139.832
1138.834
1137.793
1136.707
1135.577
1134.406
1133.212
1132.022
1130.839
1129.679
1128.561
1127.428
1126.236
1125.148
1123.044
1124.795
1122.734
1126.533
1124.736
1122.159
1128.28
1126.656
1124.62
1121.204
1130.044
1128.537
1126.792
1124.414
1119.825
1131.725
1130.32
1128.764
1126.881
1124.12
1118.299
1133.265
1131.947
1130.528
1128.925
1126.913
1123.808
1116.941
1134.653
1133.405
1132.089
1130.66
1129.021
1126.915
1123.556
1115.972
1135.899
1134.708
1133.465
1132.151
1130.718
1129.064
1126.91
1123.427
1115.511
1137.018
1135.874
1134.686
1133.446
1132.136
1130.708
1129.058
1126.912
1123.45
1115.601
1138.022
1136.919
1135.775
1134.588
1133.35
1132.046
1130.628
1129.003
1126.922
1123.62
1116.542
1138.921
1137.856
1136.751
1135.604
1134.416
1133.18
1131.879
1130.477
1128.897
1126.925
1123.976
1118.1
1139.727
1138.699
1137.63
1136.52
1135.37
1134.179
1132.939
1131.642
1130.262
1128.737
1126.919
1124.448
1119.848
1140.462
1139.471
1138.438
1137.364
1136.249
1135.094
1133.896
1132.654
1131.361
1130.002
1128.547
1126.947
1124.967
1121.791
1141.169
1140.216
1139.221
1138.184
1137.105
1135.986
1134.824
1133.62
1132.375
1131.086
1129.766
1128.428
1127.05
1125.592
1124.13
1141.904
1140.991
1140.036
1139.038
1137.999
1136.918
1135.794
1134.627
1133.419
1132.172
1130.909
1129.654
1128.408
1127.183
1126.004
1124.835
1142.662
1141.79
1140.877
1139.922
1138.924
1137.885
1136.801
1135.674
1134.504
1133.294
1132.067
1130.849
1129.641
1128.463
1127.334
1126.181
1125.002
1143.424
1142.594
1141.724
1140.812
1139.858
1138.861
1137.821
1136.735
1135.607
1134.436
1133.242
1132.049
1130.859
1129.692
1128.566
1127.427
1126.23
1125.128
1144.174
1143.387
1142.56
1141.691
1140.781
1139.829
1138.833
1137.792
1136.707
1135.578
1134.419
1133.248
1132.074
1130.911
1129.777
1128.635
1127.449
1126.276
1125.231
1123.184
1124.827
1123.056
1126.448
1124.801
1122.752
1128.071
1126.534
1124.746
1122.185
1129.733
1128.273
1126.657
1124.632
1121.241
1131.416
1130.028
1128.527
1126.791
1124.426
1119.877
1133.02
1131.704
1130.303
1128.754
1126.88
1124.137
1118.364
1134.491
1133.241
1131.927
1130.513
1128.916
1126.916
1123.827
1117.018
1135.821
1134.627
1133.383
1132.071
1130.647
1129.015
1126.917
1123.577
1116.058
1137.018
1135.874
1134.686
1133.446
1132.136
1130.708
1129.058
1126.912
1123.45
1115.601
1138.094
1136.994
1135.852
1134.667
1133.431
1132.124
1130.698
1129.051
1126.914
1123.473
1116.023
1139.059
1137.999
1136.899
1135.757
1134.573
1133.339
1132.035
1130.618
1128.998
1126.924
1123.724
1117.171
1139.921
1138.899
1137.837
1136.734
1135.591
1134.406
1133.17
1131.869
1130.47
1128.893
1126.937
1124.138
1118.607
1140.691
1139.707
1138.681
1137.615
1136.509
1135.362
1134.17
1132.932
1131.636
1130.257
1128.728
1126.961
1124.606
1120.281
1141.391
1140.444
1139.456
1138.426
1137.355
1136.243
1135.089
1133.891
1132.65
1131.358
1129.999
1128.572
1127.023
1125.155
1122.266
1142.062
1141.153
1140.203
1139.21
1138.177
1137.101
1135.983
1134.821
1133.619
1132.375
1131.097
1129.801
1128.493
1127.181
1125.909
1124.711
1142.758
1141.889
1140.979
1140.026
1139.032
1137.996
1136.916
1135.792
1134.627
1133.42
1132.188
1130.95
1129.715
1128.502
1127.336
1126.16
1124.929
1143.476
1142.648
1141.779
1140.868
1139.916
1138.922
1137.883
1136.8
1135.674
1134.505
1133.31
1132.107
1130.905
1129.721
1128.576
1127.426
1126.219
1125.088
1144.196
1143.41
1142.583
1141.715
1140.806
1139.855
1138.859
1137.819
1136.735
1135.608
1134.448
1133.274
1132.095
1130.925
1129.784
1128.636
1127.449
1126.272
1125.214
1144.905
1144.161
1143.376
1142.551
1141.685
1140.778
1139.827
1138.831
1137.791
1136.706
1135.584
1134.438
1133.281
1132.123
1130.982
1129.832
1128.648
1127.472
1126.32
1125.319
1124.84
1123.196
1126.397
1124.834
1123.073
1127.936
1126.45
1124.813
1122.775
1129.499
1128.068
1126.538
1124.76
1122.216
1131.099
1129.724
1128.27
1126.661
1124.649
1121.284
1132.715
1131.399
1130.016
1128.522
1126.795
1124.444
1119.929
1134.253
1132.998
1131.686
1130.29
1128.747
1126.884
1124.154
1118.429
1135.665
1134.467
1133.22
1131.91
1130.501
1128.911
1126.918
1123.846
1117.095
1136.943
1135.796
1134.606
1133.365
1132.056
1130.637
1129.009
1126.919
1123.599
1116.143
1138.094
1136.994
1135.852
1134.667
1133.431
1132.124
1130.698
1129.051
1126.914
1123.473
1116.023
1139.128
1138.071
1136.973
1135.834
1134.652
1133.419
1132.113
1130.688
1129.045
1126.917
1123.584
1116.684
1140.053
1139.036
1137.979
1136.881
1135.743
1134.562
1133.328
1132.024
1130.609
1128.992
1126.934
1123.898
1117.716
1140.878
1139.899
1138.88
1137.821
1136.721
1135.581
1134.395
1133.16
1131.86
1130.462
1128.87
1126.963
1124.293
1119.048
1141.612
1140.671
1139.69
1138.667
1137.604
1136.5
1135.353
1134.162
1132.924
1131.629
1130.233
1128.718
1127.006
1124.759
1120.661
1142.276
1141.373
1140.429
1139.443
1138.416
1137.348
1136.237
1135.083
1133.886
1132.646
1131.346
1129.995
1128.596
1127.098
1125.337
1142.911
1142.046
1141.14
1140.192
1139.203
1138.172
1137.097
1135.979
1134.819
1133.617
1132.376
1131.107
1129.828
1128.555
1127.325
1126.13
1124.839
1143.569
1142.744
1141.877
1140.969
1140.02
1139.029
1137.993
1136.914
1135.791
1134.627
1133.427
1132.208
1130.983
1129.769
1128.592
1127.423
1126.203
1125.03
1144.247
1143.462
1142.637
1141.77
1140.862
1139.913
1138.919
1137.881
1136.799
1135.674
1134.512
1133.33
1132.14
1130.955
1129.797
1128.639
1127.447
1126.263
1125.181
1144.927
1144.183
1143.399
1142.575
1141.71
1140.803
1139.852
1138.857
1137.818
1136.735
1135.611
1134.463
1133.3
1132.137
1130.988
1129.834
1128.649
1127.471
1126.316
1125.305
1145.595
1144.892
1144.15
1143.368
1142.545
1141.682
1140.775
1139.824
1138.829
1137.789
1136.705
1135.589
1134.454
1133.31
1132.17
1131.02
1129.841
1128.661
1127.495
1126.366
1125.411
1126.374
1124.848
1123.213
1127.859
1126.401
1124.846
1123.094
1129.349
1127.936
1126.457
1124.828
1122.802
1130.861
1129.493
1128.069
1126.547
1124.778
1122.253
1132.404
1131.087
1129.718
1128.27
1126.67
1124.67
1121.329
1133.958
1132.697
1131.386
1130.008
1128.521
1126.802
1124.462
1119.982
1135.436
1134.231
1132.98
1131.672
1130.282
1128.745
1126.887
1124.171
1118.493
1136.793
1135.641
1134.446
1133.203
1131.897
1130.493
1128.907
1126.92
1123.865
1117.17
1138.022
1136.919
1135.775
1134.588
1133.35
1132.046
1130.628
1129.003
1126.922
1123.62
1116.542
1139.128
1138.071
1136.973
1135.834
1134.652
1133.419
1132.113
1130.688
1129.045
1126.917
1123.584
1116.684
1140.12
1139.105
1138.05
1136.955
1135.819
1134.64
1133.407
1132.101
1130.678
1129.039
1126.928
1123.768
1117.253
1141.005
1140.031
1139.017
1137.962
1136.867
1135.732
1134.55
1133.316
1132.013
1130.6
1128.964
1126.956
1124.061
1118.182
1141.792
1140.857
1139.881
1138.865
1137.808
1136.711
1135.57
1134.385
1133.15
1131.851
1130.424
1128.839
1126.992
1124.439
1119.419
1142.489
1141.592
1140.654
1139.675
1138.656
1137.595
1136.491
1135.345
1134.154
1132.917
1131.597
1130.196
1128.712
1127.051
1124.903
1143.118
1142.259
1141.358
1140.416
1139.434
1138.41
1137.342
1136.231
1135.077
1133.881
1132.626
1131.322
1129.99
1128.618
1127.167
1143.717
1142.895
1142.033
1141.129
1140.184
1139.198
1138.167
1137.093
1135.976
1134.816
1133.61
1132.366
1131.107
1129.846
1128.613
1127.418
1126.183
1124.957
1144.337
1143.555
1142.732
1141.868
1140.963
1140.016
1139.025
1137.99
1136.911
1135.79
1134.625
1133.429
1132.218
1131.008
1129.818
1128.642
1127.445
1126.251
1125.133
1144.976
1144.233
1143.451
1142.628
1141.764
1140.859
1139.91
1138.916
1137.879
1136.798
1135.673
1134.517
1133.344
1132.167
1131.002
1129.838
1128.651
1127.47
1126.31
1125.278
1145.616
1144.914
1144.172
1143.39
1142.569
1141.706
1140.8
1139.849
1138.855
1137.816
1136.732
1135.613
1134.473
1133.323
1132.176
1131.023
1129.842
1128.662
1127.494
1126.363
1125.399
1146.244
1145.582
1144.881
1144.141
1143.362
1142.542
1141.679
1140.772
1139.822
1138.827
1137.783
1136.699
1135.591
1134.466
1133.336
1132.195
1131.025
1129.848
1128.674
1127.518
1126.414
1125.504
1127.825
1126.378
1124.859
1123.233
1129.264
1127.86
1126.409
1124.862
1123.12
1130.71
1129.345
1127.939
1126.468
1124.848
1122.835
1132.173
1130.853
1129.491
1128.074
1126.56
1124.802
1122.29
1133.659
1132.391
1131.08
1129.716
1128.275
1126.684
1124.691
1121.373
1135.154
1133.94
1132.683
1131.377
1130.004
1128.523
1126.81
1124.48
1120.035
1136.574
1135.414
1134.213
1132.965
1131.662
1130.277
1128.743
1126.891
1124.189
1118.557
1137.879
1136.77
1135.621
1134.429
1133.19
1131.888
1130.485
1128.902
1126.922
1123.884
1117.527
1139.059
1137.999
1136.899
1135.757
1134.573
1133.339
1132.035
1130.618
1128.998
1126.924
1123.724
1117.171
1140.12
1139.105
1138.05
1136.955
1135.819
1134.64
1133.407
1132.101
1130.678
1129.039
1126.928
1123.768
1117.253
1141.07
1140.098
1139.086
1138.033
1136.941
1135.808
1134.628
1133.395
1132.09
1130.669
1129.009
1126.949
1123.937
1117.736
1141.915
1140.984
1140.012
1139
1137.948
1136.856
1135.72
1134.539
1133.305
1132.002
1130.554
1128.921
1126.98
1124.212
1118.569
1142.663
1141.771
1140.839
1139.866
1138.852
1137.798
1136.701
1135.56
1134.375
1133.14
1131.805
1130.365
1128.814
1127.023
1124.576
1143.324
1142.47
1141.576
1140.64
1139.664
1138.647
1137.586
1136.483
1135.336
1134.146
1132.879
1131.544
1130.164
1128.709
1127.093
1143.918
1143.101
1142.244
1141.346
1140.407
1139.427
1138.403
1137.335
1136.224
1135.071
1133.856
1132.589
1131.297
1129.982
1128.635
1144.481
1143.702
1142.882
1142.022
1141.121
1140.179
1139.193
1138.162
1137.088
1135.972
1134.802
1133.585
1132.346
1131.096
1129.854
1128.645
1127.441
1126.236
1125.072
1145.064
1144.323
1143.543
1142.722
1141.861
1140.958
1140.012
1139.021
1137.987
1136.909
1135.781
1134.612
1133.421
1132.22
1131.026
1129.844
1128.653
1127.468
1126.301
1125.237
1145.664
1144.962
1144.222
1143.442
1142.621
1141.76
1140.855
1139.906
1138.914
1137.877
1136.791
1135.665
1134.515
1133.352
1132.191
1131.028
1129.845
1128.663
1127.493
1126.359
1125.376
1146.265
1145.603
1144.903
1144.163
1143.384
1142.565
1141.702
1140.797
1139.847
1138.853
1137.808
1136.722
1135.609
1134.479
1133.343
1132.198
1131.027
1129.849
1128.674
1127.518
1126.412
1125.495
1146.854
1146.231
1145.571
1144.872
1144.135
1143.358
1142.538
1141.675
1140.769
1139.819
1138.816
1137.767
1136.69
1135.59
1134.476
1133.35
1132.197
1131.029
1129.854
1128.686
1127.542
1126.462
1125.597
1129.226
1127.825
1126.386
1124.876
1123.259
1130.625
1129.261
1127.863
1126.42
1124.882
1123.152
1132.026
1130.704
1129.345
1127.945
1126.482
1124.872
1122.869
1133.437
1132.163
1130.849
1129.493
1128.082
1126.577
1124.826
1122.329
1134.868
1133.645
1132.382
1131.075
1129.717
1128.283
1126.697
1124.713
1121.419
1136.304
1135.135
1133.925
1132.672
1131.371
1130.004
1128.526
1126.818
1124.499
1120.089
1137.669
1136.553
1135.396
1134.198
1132.954
1131.656
1130.272
1128.741
1126.895
1124.206
1118.861
1138.921
1137.856
1136.751
1135.604
1134.416
1133.18
1131.879
1130.477
1128.897
1126.925
1123.976
1118.1
1140.053
1139.036
1137.979
1136.881
1135.743
1134.562
1133.328
1132.024
1130.609
1128.992
1126.934
1123.898
1117.716
1141.07
1140.098
1139.086
1138.033
1136.941
1135.808
1134.628
1133.395
1132.09
1130.669
1129.009
1126.949
1123.937
1117.736
1141.977
1141.048
1140.079
1139.069
1138.019
1136.929
1135.795
1134.616
1133.383
1132.079
1130.62
1128.962
1126.972
1124.092
1118.136
1142.783
1141.894
1140.966
1139.996
1138.987
1137.937
1136.845
1135.709
1134.527
1133.294
1131.949
1130.483
1128.886
1127.005
1124.35
1143.493
1142.644
1141.754
1140.824
1139.853
1138.842
1137.788
1136.69
1135.55
1134.365
1133.09
1131.732
1130.314
1128.794
1127.053
1144.118
1143.306
1142.454
1141.562
1140.629
1139.656
1138.638
1137.578
1136.474
1135.328
1134.105
1132.817
1131.497
1130.136
1128.706
1144.675
1143.901
1143.086
1142.232
1141.336
1140.4
1139.419
1138.396
1137.328
1136.218
1135.042
1133.809
1132.55
1131.27
1129.97
1145.203
1144.465
1143.688
1142.871
1142.014
1141.116
1140.173
1139.187
1138.157
1137.084
1135.952
1134.765
1133.549
1132.313
1131.069
1129.851
1128.654
1127.465
1126.29
1125.184
1145.749
1145.049
1144.311
1143.533
1142.715
1141.856
1140.954
1140.007
1139.017
1137.983
1136.895
1135.757
1134.59
1133.405
1132.215
1131.035
1129.849
1128.664
1127.491
1126.352
1125.342
1146.311
1145.65
1144.951
1144.213
1143.435
1142.617
1141.756
1140.851
1139.903
1138.911
1137.865
1136.772
1135.65
1134.508
1133.357
1132.203
1131.03
1129.851
1128.675
1127.517
1126.408
1125.476
1146.874
1146.252
1145.592
1144.894
1144.157
1143.38
1142.561
1141.699
1140.793
1139.844
1138.841
1137.789
1136.707
1135.602
1134.483
1133.353
1132.199
1131.03
1129.855
1128.686
1127.542
1126.461
1125.59
1147.424
1146.841
1146.22
1145.562
1144.866
1144.131
1143.354
1142.534
1141.672
1140.766
1139.805
1138.793
1137.748
1136.677
1135.586
1134.482
1133.351
1132.198
1131.031
1129.86
1128.698
1127.566
1126.51
1125.687
1130.587
1129.224
1127.83
1126.398
1124.896
1123.289
1131.943
1130.62
1129.262
1127.871
1126.436
1124.907
1123.183
1133.297
1132.018
1130.702
1129.349
1127.956
1126.501
1124.897
1122.903
1134.656
1133.426
1132.156
1130.848
1129.498
1128.095
1126.594
1124.85
1122.367
1136.032
1134.854
1133.635
1132.376
1131.074
1129.722
1128.292
1126.711
1124.735
1121.465
1137.41
1136.286
1135.12
1133.914
1132.665
1131.368
1130.003
1128.528
1126.825
1124.517
1120.344
1138.72
1137.648
1136.535
1135.381
1134.187
1132.947
1131.649
1130.267
1128.739
1126.899
1124.291
1119.373
1139.921
1138.899
1137.837
1136.734
1135.591
1134.406
1133.17
1131.869
1130.47
1128.893
1126.937
1124.138
1118.607
1141.005
1140.031
1139.017
1137.962
1136.867
1135.732
1134.55
1133.316
1132.013
1130.6
1128.964
1126.956
1124.061
1118.182
1141.977
1141.048
1140.079
1139.069
1138.019
1136.929
1135.795
1134.616
1133.383
1132.079
1130.62
1128.962
1126.972
1124.092
1118.136
1142.843
1141.956
1141.03
1140.062
1139.055
1138.008
1136.917
1135.784
1134.604
1133.371
1132.022
1130.543
1128.922
1126.995
1124.234
1143.609
1142.763
1141.876
1140.95
1139.983
1138.976
1137.926
1136.833
1135.697
1134.516
1133.237
1131.864
1130.421
1128.857
1127.03
1144.281
1143.474
1142.627
1141.739
1140.812
1139.844
1138.832
1137.777
1136.68
1135.54
1134.313
1133.01
1131.668
1130.271
1128.779
1144.87
1144.1
1143.29
1142.441
1141.551
1140.621
1139.647
1138.629
1137.569
1136.466
1135.285
1134.038
1132.761
1131.455
1130.11
1145.392
1144.659
1143.886
1143.074
1142.222
1141.329
1140.392
1139.412
1138.389
1137.322
1136.185
1134.987
1133.761
1132.511
1131.242
1145.885
1145.188
1144.453
1143.678
1142.863
1142.008
1141.11
1140.167
1139.182
1138.152
1137.06
1135.906
1134.717
1133.499
1132.262
1131.043
1129.853
1128.665
1127.489
1126.344
1125.296
1146.394
1145.735
1145.038
1144.301
1143.526
1142.71
1141.851
1140.949
1140.003
1139.013
1137.965
1136.861
1135.722
1134.559
1133.381
1132.21
1131.035
1129.853
1128.675
1127.516
1126.404
1125.448
1146.919
1146.298
1145.639
1144.942
1144.206
1143.431
1142.613
1141.752
1140.848
1139.9
1138.895
1137.837
1136.746
1135.63
1134.496
1133.358
1132.203
1131.032
1129.856
1128.686
1127.541
1126.459
1125.576
1147.444
1146.861
1146.241
1145.583
1144.887
1144.153
1143.376
1142.557
1141.695
1140.79
1139.828
1138.814
1137.765
1136.689
1135.592
1134.484
1133.353
1132.199
1131.032
1129.86
1128.698
1127.566
1126.51
1125.683
1147.957
1147.412
1146.83
1146.212
1145.556
1144.862
1144.127
1143.35
1142.53
1141.668
1140.749
1139.775
1138.766
1137.727
1136.663
1135.584
1134.48
1133.349
1132.198
1131.033
1129.865
1128.709
1127.589
1126.557
1125.774
1131.906
1130.582
1129.225
1127.838
1126.414
1124.921
1123.32
1133.217
1131.936
1130.618
1129.267
1127.883
1126.455
1124.932
1123.215
1134.522
1133.287
1132.013
1130.702
1129.356
1127.97
1126.52
1124.921
1122.937
1135.83
1134.644
1133.418
1132.153
1130.85
1129.507
1128.108
1126.611
1124.874
1122.407
1137.15
1136.017
1134.842
1133.627
1132.373
1131.077
1129.727
1128.301
1126.724
1124.758
1121.689
1138.472
1137.392
1136.27
1135.108
1133.906
1132.661
1131.366
1130.003
1128.531
1126.833
1124.608
1120.818
1139.727
1138.699
1137.63
1136.52
1135.37
1134.179
1132.939
1131.642
1130.262
1128.737
1126.919
1124.448
1119.848
1140.878
1139.899
1138.88
1137.821
1136.721
1135.581
1134.395
1133.16
1131.86
1130.462
1128.87
1126.963
1124.293
1119.048
1141.915
1140.984
1140.012
1139
1137.948
1136.856
1135.72
1134.539
1133.305
1132.002
1130.554
1128.921
1126.98
1124.212
1118.569
1142.843
1141.956
1141.03
1140.062
1139.055
1138.008
1136.917
1135.784
1134.604
1133.371
1132.022
1130.543
1128.922
1126.995
1124.234
1143.667
1142.823
1141.938
1141.014
1140.049
1139.044
1137.996
1136.906
1135.772
1134.592
1133.311
1131.931
1130.476
1128.889
1127.018
1144.394
1143.589
1142.745
1141.861
1140.937
1139.973
1138.966
1137.915
1136.822
1135.686
1134.458
1133.146
1131.789
1130.368
1128.833
1145.029
1144.262
1143.457
1142.612
1141.728
1140.802
1139.834
1138.822
1137.767
1136.67
1135.487
1134.23
1132.94
1131.613
1130.233
1145.581
1144.852
1144.084
1143.277
1142.43
1141.543
1140.612
1139.638
1138.621
1137.56
1136.421
1135.213
1133.976
1132.711
1131.417
1146.069
1145.376
1144.645
1143.875
1143.065
1142.215
1141.322
1140.385
1139.405
1138.382
1137.286
1136.125
1134.932
1133.712
1132.47
1146.526
1145.87
1145.175
1144.442
1143.67
1142.857
1142.002
1141.103
1140.162
1139.176
1138.124
1137.006
1135.848
1134.654
1133.43
1132.219
1131.04
1129.855
1128.676
1127.514
1126.398
1125.41
1147
1146.38
1145.723
1145.028
1144.294
1143.52
1142.705
1141.846
1140.944
1139.998
1138.992
1137.923
1136.817
1135.68
1134.52
1133.366
1132.208
1131.035
1129.857
1128.687
1127.54
1126.456
1125.555
1147.488
1146.906
1146.287
1145.63
1144.935
1144.202
1143.426
1142.608
1141.748
1140.844
1139.881
1138.86
1137.803
1136.716
1135.606
1134.489
1133.356
1132.202
1131.033
1129.861
1128.698
1127.565
1126.509
1125.674
1147.976
1147.431
1146.85
1146.232
1145.577
1144.883
1144.148
1143.372
1142.553
1141.691
1140.771
1139.795
1138.782
1137.738
1136.669
1135.586
1134.482
1133.351
1132.198
1131.033
1129.865
1128.709
1127.589
1126.557
1125.772
1148.452
1147.944
1147.401
1146.822
1146.206
1145.552
1144.857
1144.122
1143.345
1142.526
1141.649
1140.714
1139.742
1138.737
1137.703
1136.654
1135.581
1134.477
1133.347
1132.196
1131.034
1129.87
1128.72
1127.611
1126.601
1125.894
1133.182
1131.899
1130.58
1129.23
1127.85
1126.434
1124.946
1123.351
1134.447
1133.208
1131.932
1130.62
1129.275
1127.898
1126.476
1124.957
1123.248
1135.702
1134.511
1133.281
1132.012
1130.707
1129.367
1127.985
1126.54
1124.946
1122.972
1136.957
1135.817
1134.635
1133.414
1132.154
1130.856
1129.516
1128.12
1126.629
1124.898
1122.599
1138.223
1137.134
1136.004
1134.834
1133.623
1132.374
1131.079
1129.732
1128.309
1126.738
1124.867
1122.157
1139.489
1138.454
1137.376
1136.258
1135.1
1133.901
1132.657
1131.363
1130.002
1128.533
1126.873
1124.784
1121.303
1140.691
1139.707
1138.681
1137.615
1136.509
1135.362
1134.17
1132.932
1131.636
1130.257
1128.728
1126.961
1124.606
1120.281
1141.792
1140.857
1139.881
1138.865
1137.808
1136.711
1135.57
1134.385
1133.15
1131.851
1130.424
1128.839
1126.992
1124.439
1119.419
1142.783
1141.894
1140.966
1139.996
1138.987
1137.937
1136.845
1135.709
1134.527
1133.294
1131.949
1130.483
1128.886
1127.005
1124.35
1143.667
1142.823
1141.938