/*--------------------------------*- C++ -*----------------------------------*\
| =========                 |                                                 |
| \\      /  F ield         | OpenFOAM: The Open Source CFD Toolbox           |
|  \\    /   O peration     | Version:  2306                                  |
|   \\  /    A nd           | Website:  www.openfoam.com                      |
|    \\/     M anipulation  |                                                 |
\*---------------------------------------------------------------------------*/
FoamFile
{
    version     2.0;
    format      ascii;
    arch        "LSB;label=32;scalar=64";
    class       volScalarField;
    location    "0.3/interconnect";
    object      T;
}
// * * * * * * * * * * * * * * * * * * * * * * * * * * * * * * * * * * * * * //

dimensions      [0 0 0 1 0 0 0];

internalField   nonuniform List<scalar> 
16000
(
1005.826
1005.825
1006.68
1005.797
1005.823
1006.679
1005.795
1007.845
1006.669
1005.738
1005.821
1006.678
1005.792
1007.845
1006.669
1005.736
1009.087
1007.844
1006.65
1005.652
1005.817
1006.677
1005.789
1007.844
1006.668
1005.731
1009.087
1007.844
1006.649
1005.648
1010.312
1009.09
1007.843
1006.622
1005.545
1005.814
1006.676
1005.784
1007.843
1006.666
1005.725
1009.086
1007.843
1006.647
1005.64
1010.311
1009.089
1007.842
1006.621
1005.537
1011.484
1010.316
1009.096
1007.843
1006.591
1005.457
1005.811
1006.674
1005.779
1007.842
1006.664
1005.717
1009.085
1007.841
1006.644
1005.629
1010.31
1009.088
1007.84
1006.618
1005.522
1011.484
1010.315
1009.095
1007.842
1006.589
1005.444
1012.595
1011.489
1010.324
1009.106
1007.846
1006.569
1005.4
1005.808
1006.672
1005.775
1007.84
1006.662
1005.709
1009.083
1007.839
1006.642
1005.617
1010.309
1009.086
1007.838
1006.615
1005.502
1011.483
1010.314
1009.093
1007.839
1006.585
1005.417
1012.594
1011.488
1010.323
1009.105
1007.845
1006.565
1005.383
1013.641
1012.599
1011.498
1010.338
1009.123
1007.854
1006.556
1005.349
1005.806
1006.671
1005.77
1007.839
1006.66
1005.701
1009.082
1007.838
1006.638
1005.603
1010.308
1009.085
1007.835
1006.61
1005.481
1011.482
1010.312
1009.091
1007.835
1006.579
1005.379
1012.594
1011.487
1010.322
1009.102
1007.841
1006.558
1005.349
1013.641
1012.598
1011.497
1010.337
1009.122
1007.852
1006.551
1005.328
1014.627
1013.645
1012.608
1011.513
1010.36
1009.143
1007.861
1006.546
1005.306
1005.804
1006.67
1005.767
1007.838
1006.658
1005.694
1009.081
1007.836
1006.635
1005.588
1010.307
1009.083
1007.832
1006.605
1005.465
1011.481
1010.311
1009.088
1007.83
1006.573
1005.33
1012.593
1011.486
1010.319
1009.098
1007.835
1006.548
1005.296
1013.64
1012.597
1011.496
1010.335
1009.118
1007.848
1006.541
1005.287
1014.627
1013.645
1012.607
1011.512
1010.359
1009.141
1007.859
1006.54
1005.283
1015.557
1014.631
1013.654
1012.622
1011.536
1010.383
1009.158
1007.871
1006.541
1005.274
1005.804
1006.67
1005.766
1007.837
1006.656
1005.688
1009.079
1007.834
1006.632
1005.573
1010.305
1009.081
1007.829
1006.599
1005.431
1011.48
1010.309
1009.084
1007.825
1006.567
1012.591
1011.484
1010.316
1009.093
1007.828
1006.537
1005.222
1013.639
1012.596
1011.493
1010.331
1009.113
1007.842
1006.527
1005.222
1014.626
1013.644
1012.606
1011.509
1010.355
1009.138
1007.854
1006.528
1005.236
1015.557
1014.631
1013.653
1012.621
1011.534
1010.382
1009.156
1007.868
1006.534
1005.249
1016.435
1015.561
1014.639
1013.667
1012.644
1011.559
1010.401
1009.175
1007.884
1006.542
1005.254
1005.806
1006.67
1005.766
1007.837
1006.656
1005.685
1009.079
1007.833
1006.629
1005.561
1010.304
1009.079
1007.826
1006.593
1005.398
1011.479
1010.307
1009.081
1007.819
1006.555
1012.59
1011.482
1010.313
1009.087
1007.816
1013.638
1012.595
1011.491
1010.326
1009.104
1007.836
1006.51
1005.13
1014.626
1013.643
1012.604
1011.506
1010.35
1009.134
1007.847
1006.51
1005.162
1015.556
1014.63
1013.652
1012.619
1011.531
1010.38
1009.153
1007.863
1006.52
1005.199
1016.435
1015.56
1014.638
1013.666
1012.643
1011.558
1010.4
1009.174
1007.881
1006.535
1005.228
1017.266
1016.438
1015.568
1014.652
1013.688
1012.667
1011.576
1010.42
1009.195
1007.901
1006.55
1005.247
1005.808
1006.67
1005.767
1007.837
1006.656
1005.685
1009.078
1007.832
1006.628
1005.555
1010.304
1009.078
1007.824
1006.588
1005.373
1011.478
1010.306
1009.078
1007.813
1006.541
1012.589
1011.481
1010.31
1009.081
1007.805
1013.637
1012.593
1011.488
1010.32
1009.09
1014.625
1013.641
1012.601
1011.501
1010.342
1009.129
1007.838
1006.485
1005.058
1015.556
1014.629
1013.65
1012.616
1011.526
1010.376
1009.149
1007.854
1006.498
1005.12
1016.434
1015.559
1014.637
1013.664
1012.64
1011.556
1010.397
1009.171
1007.875
1006.519
1005.176
1017.265
1016.438
1015.567
1014.651
1013.687
1012.666
1011.576
1010.419
1009.193
1007.898
1006.543
1005.221
1018.052
1017.269
1016.445
1015.58
1014.671
1013.709
1012.683
1011.596
1010.441
1009.217
1007.922
1006.565
1005.252
1005.811
1006.671
1005.77
1007.837
1006.656
1005.688
1009.078
1007.832
1006.628
1005.555
1010.303
1009.077
1007.823
1006.585
1005.36
1011.477
1010.304
1009.076
1007.809
1006.53
1012.588
1011.479
1010.308
1009.076
1007.794
1013.636
1012.591
1011.485
1010.314
1009.079
1014.624
1013.64
1012.598
1011.495
1010.327
1015.555
1014.627
1013.647
1012.611
1011.518
1010.372
1009.144
1007.842
1006.468
1005.009
1016.434
1015.558
1014.635
1013.661
1012.636
1011.553
1010.394
1009.166
1007.865
1006.496
1005.096
1017.265
1016.437
1015.566
1014.649
1013.684
1012.664
1011.574
1010.417
1009.19
1007.891
1006.527
1005.169
1018.052
1017.268
1016.445
1015.579
1014.67
1013.708
1012.683
1011.595
1010.44
1009.215
1007.918
1006.558
1005.227
1018.797
1018.055
1017.275
1016.457
1015.598
1014.69
1013.725
1012.702
1011.616
1010.464
1009.241
1007.946
1006.587
1005.269
1005.814
1006.672
1005.775
1007.838
1006.658
1005.694
1009.079
1007.833
1006.629
1005.561
1010.303
1009.077
1007.823
1006.585
1005.36
1011.477
1010.304
1009.075
1007.807
1006.523
1012.588
1011.478
1010.306
1009.072
1007.786
1013.635
1012.59
1011.482
1010.309
1009.069
1014.623
1013.638
1012.596
1011.49
1010.316
1015.554
1014.626
1013.645
1012.606
1011.505
1016.433
1015.557
1014.633
1013.657
1012.628
1011.55
1010.391
1009.159
1007.85
1006.462
1004.984
1017.264
1016.436
1015.565
1014.646
1013.68
1012.661
1011.572
1010.414
1009.185
1007.88
1006.503
1005.09
1018.051
1017.268
1016.444
1015.577
1014.667
1013.706
1012.681
1011.593
1010.438
1009.212
1007.912
1006.543
1005.176
1018.797
1018.054
1017.275
1016.456
1015.597
1014.69
1013.724
1012.701
1011.616
1010.463
1009.24
1007.943
1006.58
1005.244
1019.504
1018.8
1018.061
1017.286
1016.473
1015.616
1014.705
1013.742
1012.721
1011.639
1010.489
1009.268
1007.973
1006.614
1005.298
1005.817
1006.674
1005.779
1007.839
1006.66
1005.701
1009.079
1007.834
1006.632
1005.573
1010.304
1009.078
1007.824
1006.588
1005.373
1011.477
1010.304
1009.075
1007.807
1006.523
1012.587
1011.478
1010.305
1009.07
1007.781
1013.635
1012.589
1011.481
1010.306
1009.063
1014.622
1013.637
1012.594
1011.486
1010.308
1015.553
1014.625
1013.643
1012.601
1011.494
1016.432
1015.556
1014.631
1013.652
1012.615
1017.263
1016.435
1015.563
1014.642
1013.673
1012.658
1011.569
1010.41
1009.177
1007.864
1006.468
1004.98
1018.05
1017.267
1016.442
1015.575
1014.664
1013.704
1012.679
1011.591
1010.435
1009.207
1007.901
1006.521
1005.1
1018.796
1018.054
1017.274
1016.454
1015.595
1014.688
1013.723
1012.7
1011.614
1010.462
1009.237
1007.937
1006.567
1005.195
1019.503
1018.799
1018.06
1017.285
1016.472
1015.615
1014.704
1013.741
1012.721
1011.638
1010.488
1009.267
1007.971
1006.608
1005.273
1020.174
1019.506
1018.805
1018.071
1017.301
1016.49
1015.63
1014.721
1013.76
1012.742
1011.662
1010.515
1009.297
1008.004
1006.647
1005.821
1006.676
1005.784
1007.84
1006.662
1005.709
1009.081
1007.836
1006.635
1005.588
1010.304
1009.079
1007.826
1006.593
1005.398
1011.477
1010.304
1009.076
1007.809
1006.53
1012.587
1011.478
1010.305
1009.07
1007.781
1013.634
1012.589
1011.48
1010.304
1009.059
1014.621
1013.636
1012.592
1011.483
1010.302
1015.552
1014.624
1013.641
1012.597
1011.487
1016.431
1015.555
1014.629
1013.648
1012.606
1017.263
1016.434
1015.561
1014.638
1013.661
1018.05
1017.266
1016.44
1015.571
1014.657
1013.701
1012.677
1011.589
1010.431
1009.199
1007.886
1006.489
1004.997
1018.796
1018.053
1017.272
1016.452
1015.591
1014.686
1013.721
1012.698
1011.612
1010.459
1009.232
1007.928
1006.548
1005.123
1019.503
1018.799
1018.059
1017.283
1016.47
1015.614
1014.703
1013.74
1012.72
1011.637
1010.487
1009.265
1007.967
1006.598
1005.224
1020.174
1019.506
1018.805
1018.07
1017.3
1016.49
1015.629
1014.72
1013.759
1012.742
1011.662
1010.515
1009.296
1008.003
1006.642
1020.811
1020.177
1019.512
1018.815
1018.086
1017.317
1016.503
1015.644
1014.738
1013.779
1012.764
1011.687
1010.542
1009.326
1008.036
1005.823
1006.677
1005.789
1007.842
1006.664
1005.717
1009.082
1007.838
1006.638
1005.603
1010.305
1009.081
1007.829
1006.599
1005.431
1011.478
1010.306
1009.078
1007.813
1006.541
1012.588
1011.478
1010.306
1009.072
1007.786
1013.634
1012.589
1011.48
1010.304
1009.059
1014.621
1013.636
1012.591
1011.481
1010.3
1015.552
1014.623
1013.639
1012.595
1011.482
1016.431
1015.554
1014.627
1013.644
1012.599
1017.262
1016.433
1015.558
1014.634
1013.653
1018.049
1017.265
1016.438
1015.567
1014.646
1018.795
1018.052
1017.27
1016.448
1015.585
1014.684
1013.719
1012.696
1011.61
1010.454
1009.225
1007.915
1006.522
1005.029
1019.502
1018.798
1018.058
1017.281
1016.467
1015.612
1014.702
1013.739
1012.718
1011.635
1010.485
1009.261
1007.961
1006.583
1005.152
1020.174
1019.505
1018.804
1018.069
1017.298
1016.488
1015.628
1014.719
1013.759
1012.741
1011.661
1010.514
1009.295
1008
1006.633
1020.811
1020.177
1019.511
1018.814
1018.085
1017.317
1016.502
1015.644
1014.737
1013.779
1012.764
1011.687
1010.543
1009.327
1008.036
1021.415
1020.813
1020.182
1019.521
1018.829
1018.101
1017.329
1016.517
1015.66
1014.756
1013.799
1012.787
1011.712
1010.57
1009.357
1005.825
1006.678
1005.792
1007.843
1006.666
1005.725
1009.083
1007.839
1006.642
1005.617
1010.307
1009.083
1007.832
1006.605
1005.465
1011.479
1010.307
1009.081
1007.819
1006.555
1012.588
1011.479
1010.308
1009.076
1007.794
1013.635
1012.589
1011.481
1010.306
1009.063
1014.621
1013.636
1012.591
1011.481
1010.3
1015.551
1014.622
1013.638
1012.593
1011.48
1016.43
1015.553
1014.625
1013.642
1012.595
1017.261
1016.432
1015.557
1014.63
1013.647
1018.048
1017.263
1016.436
1015.563
1014.638
1018.794
1018.051
1017.268
1016.445
1015.575
1019.502
1018.797
1018.056
1017.278
1016.461
1015.61
1014.7
1013.737
1012.716
1011.633
1010.481
1009.255
1007.951
1006.564
1005.064
1020.173
1019.505
1018.803
1018.066
1017.295
1016.486
1015.626
1014.718
1013.757
1012.74
1011.66
1010.513
1009.294
1007.997
1006.621
1020.81
1020.176
1019.511
1018.813
1018.083
1017.315
1016.501
1015.643
1014.737
1013.778
1012.763
1011.687
1010.543
1009.328
1008.035
1021.414
1020.813
1020.182
1019.52
1018.828
1018.1
1017.329
1016.516
1015.66
1014.755
1013.799
1012.787
1011.713
1010.571
1009.358
1021.987
1021.417
1020.818
1020.191
1019.534
1018.843
1018.112
1017.342
1016.531
1015.677
1014.775
1013.821
1012.81
1011.738
1010.598
1005.826
1006.679
1005.795
1007.844
1006.668
1005.731
1009.085
1007.841
1006.644
1005.629
1010.308
1009.085
1007.835
1006.61
1005.481
1011.48
1010.309
1009.084
1007.825
1006.567
1012.589
1011.481
1010.31
1009.081
1007.805
1013.635
1012.59
1011.482
1010.309
1009.069
1014.621
1013.636
1012.592
1011.483
1010.302
1015.551
1014.622
1013.638
1012.593
1011.48
1016.43
1015.553
1014.625
1013.641
1012.593
1017.261
1016.431
1015.555
1014.628
1013.643
1018.048
1017.263
1016.435
1015.56
1014.633
1018.794
1018.05
1017.267
1016.441
1015.567
1019.501
1018.796
1018.055
1017.274
1016.452
1020.173
1019.504
1018.801
1018.063
1017.29
1016.484
1015.625
1014.717
1013.756
1012.738
1011.658
1010.51
1009.29
1007.993
1006.611
1020.81
1020.175
1019.509
1018.811
1018.08
1017.314
1016.5
1015.642
1014.736
1013.777
1012.763
1011.687
1010.544
1009.329
1008.036
1021.414
1020.812
1020.181
1019.519
1018.826
1018.099
1017.328
1016.515
1015.659
1014.755
1013.799
1012.787
1011.714
1010.573
1009.36
1021.987
1021.417
1020.818
1020.19
1019.533
1018.843
1018.111
1017.342
1016.531
1015.677
1014.775
1013.821
1012.811
1011.739
1010.6
1022.53
1021.989
1021.422
1020.827
1020.204
1019.548
1018.854
1018.124
1017.356
1016.547
1015.694
1014.794
1013.842
1012.834
1011.763
1006.68
1005.797
1007.845
1006.669
1005.736
1009.086
1007.843
1006.647
1005.64
1010.309
1009.086
1007.838
1006.615
1005.502
1011.481
1010.311
1009.088
1007.83
1006.573
1005.33
1012.59
1011.482
1010.313
1009.087
1007.816
1013.636
1012.591
1011.485
1010.314
1009.079
1014.622
1013.637
1012.594
1011.486
1010.308
1015.552
1014.623
1013.639
1012.595
1011.482
1016.43
1015.553
1014.625
1013.641
1012.593
1017.26
1016.431
1015.555
1014.627
1013.641
1018.047
1017.262
1016.434
1015.558
1014.629
1018.793
1018.049
1017.265
1016.438
1015.562
1019.5
1018.795
1018.053
1017.271
1016.445
1020.172
1019.503
1018.8
1018.06
1017.281
1020.809
1020.174
1019.508
1018.808
1018.075
1017.312
1016.499
1015.64
1014.734
1013.776
1012.761
1011.685
1010.543
1009.33
1008.04
1021.413
1020.812
1020.18
1019.517
1018.823
1018.097
1017.326
1016.514
1015.658
1014.754
1013.799
1012.787
1011.715
1010.576
1009.365
1021.987
1021.416
1020.817
1020.189
1019.532
1018.842
1018.11
1017.341
1016.531
1015.676
1014.774
1013.821
1012.812
1011.741
1010.603
1022.529
1021.989
1021.421
1020.826
1020.203
1019.547
1018.854
1018.124
1017.356
1016.547
1015.694
1014.794
1013.843
1012.835
1011.765
1023.043
1022.532
1021.994
1021.43
1020.839
1020.217
1019.558
1018.866
1018.137
1017.371
1016.563
1015.712
1014.814
1013.864
1012.857
1007.845
1006.669
1005.738
1009.087
1007.844
1006.649
1005.648
1010.31
1009.088
1007.84
1006.618
1005.522
1011.482
1010.312
1009.091
1007.835
1006.579
1005.379
1012.591
1011.484
1010.316
1009.093
1007.828
1006.537
1005.222
1013.637
1012.593
1011.488
1010.32
1009.09
1014.623
1013.638
1012.596
1011.49
1010.316
1015.552
1014.624
1013.641
1012.597
1011.487
1016.43
1015.553
1014.625
1013.642
1012.595
1017.26
1016.431
1015.555
1014.627
1013.641
1018.047
1017.262
1016.433
1015.557
1014.627
1018.793
1018.048
1017.264
1016.436
1015.559
1019.5
1018.794
1018.051
1017.268
1016.44
1020.171
1019.502
1018.798
1018.057
1017.275
1020.808
1020.173
1019.506
1018.805
1018.066
1021.413
1020.811
1020.178
1019.514
1018.819
1018.095
1017.325
1016.513
1015.657
1014.753
1013.798
1012.787
1011.716
1010.579
1009.373
1021.986
1021.415
1020.816
1020.187
1019.529
1018.84
1018.109
1017.34
1016.53
1015.675
1014.774
1013.822
1012.814
1011.745
1010.609
1022.529
1021.989
1021.421
1020.825
1020.201
1019.546
1018.853
1018.123
1017.355
1016.546
1015.694
1014.795
1013.844
1012.837
1011.769
1023.043
1022.532
1021.994
1021.429
1020.838
1020.216
1019.558
1018.865
1018.137
1017.37
1016.563
1015.713
1014.815
1013.865
1012.858
1023.528
1023.045
1022.536
1022.002
1021.442
1020.852
1020.227
1019.569
1018.878
1018.151
1017.386
1016.58
1015.731
1014.834
1013.885
1009.087
1007.844
1006.65
1005.652
1010.311
1009.089
1007.842
1006.621
1005.537
1011.483
1010.314
1009.093
1007.839
1006.585
1005.417
1012.593
1011.486
1010.319
1009.098
1007.835
1006.548
1005.296
1013.638
1012.595
1011.491
1010.326
1009.104
1007.836
1006.51
1005.13
1014.624
1013.64
1012.598
1011.495
1010.327
1015.553
1014.625
1013.643
1012.601
1011.494
1016.431
1015.554
1014.627
1013.644
1012.599
1017.261
1016.431
1015.555
1014.628
1013.643
1018.047
1017.262
1016.433
1015.557
1014.627
1018.792
1018.048
1017.263
1016.435
1015.557
1019.499
1018.794
1018.05
1017.266
1016.437
1020.171
1019.501
1018.796
1018.054
1017.27
1020.808
1020.173
1019.505
1018.802
1018.06
1021.412
1020.81
1020.177
1019.511
1018.811
1021.985
1021.415
1020.814
1020.184
1019.525
1018.838
1018.108
1017.339
1016.528
1015.674
1014.773
1013.821
1012.815
1011.749
1010.619
1022.529
1021.988
1021.42
1020.823
1020.199
1019.545
1018.851
1018.122
1017.354
1016.546
1015.694
1014.795
1013.846
1012.841
1011.775
1023.042
1022.531
1021.993
1021.428
1020.837
1020.215
1019.557
1018.865
1018.136
1017.37
1016.563
1015.713
1014.816
1013.867
1012.862
1023.528
1023.045
1022.536
1022.001
1021.441
1020.851
1020.226
1019.569
1018.878
1018.151
1017.386
1016.581
1015.732
1014.835
1013.887
1023.986
1023.53
1023.05
1022.544
1022.014
1021.454
1020.861
1020.237
1019.581
1018.891
1018.166
1017.402
1016.598
1015.749
1014.853
1010.312
1009.09
1007.843
1006.622
1005.545
1011.484
1010.315
1009.095
1007.842
1006.589
1005.444
1012.594
1011.487
1010.322
1009.102
1007.841
1006.558
1005.349
1013.639
1012.596
1011.493
1010.331
1009.113
1007.842
1006.527
1005.222
1014.625
1013.641
1012.601
1011.501
1010.342
1009.129
1007.838
1006.485
1005.058
1015.554
1014.626
1013.645
1012.606
1011.505
1016.431
1015.555
1014.629
1013.648
1012.606
1017.261
1016.432
1015.557
1014.63
1013.647
1018.047
1017.262
1016.434
1015.558
1014.629
1018.792
1018.048
1017.263
1016.435
1015.557
1019.499
1018.793
1018.05
1017.265
1016.435
1020.17
1019.501
1018.795
1018.052
1017.267
1020.807
1020.172
1019.503
1018.799
1018.056
1021.412
1020.809
1020.175
1019.508
1018.805
1021.985
1021.414
1020.813
1020.181
1019.517
1022.528
1021.987
1021.418
1020.82
1020.194
1019.543
1018.85
1018.121
1017.353
1016.545
1015.693
1014.795
1013.847
1012.845
1011.785
1023.042
1022.53
1021.992
1021.426
1020.834
1020.214
1019.556
1018.864
1018.136
1017.37
1016.563
1015.714
1014.817
1013.871
1012.869
1023.528
1023.044
1022.535
1022
1021.44
1020.85
1020.225
1019.568
1018.877
1018.151
1017.386
1016.581
1015.733
1014.837
1013.89
1023.986
1023.53
1023.049
1022.544
1022.013
1021.454
1020.861
1020.237
1019.581
1018.891
1018.166
1017.402
1016.598
1015.751
1014.855
1024.417
1023.988
1023.535
1023.057
1022.556
1022.026
1021.463
1020.871
1020.249
1019.594
1018.905
1018.181
1017.418
1016.615
1015.768
1011.484
1010.316
1009.096
1007.843
1006.591
1005.457
1012.594
1011.488
1010.323
1009.105
1007.845
1006.565
1005.383
1013.64
1012.597
1011.496
1010.335
1009.118
1007.848
1006.541
1005.287
1014.626
1013.643
1012.604
1011.506
1010.35
1009.134
1007.847
1006.51
1005.162
1015.555
1014.627
1013.647
1012.611
1011.518
1010.372
1009.144
1007.842
1006.468
1005.009
1016.432
1015.556
1014.631
1013.652
1012.615
1017.262
1016.433
1015.558
1014.634
1013.653
1018.048
1017.263
1016.435
1015.56
1014.633
1018.793
1018.048
1017.264
1016.436
1015.559
1019.499
1018.793
1018.05
1017.265
1016.435
1020.17
1019.5
1018.795
1018.051
1017.265
1020.807
1020.171
1019.502
1018.797
1018.053
1021.411
1020.808
1020.174
1019.506
1018.801
1021.984
1021.413
1020.812
1020.179
1019.511
1022.527
1021.986
1021.417
1020.818
1020.187
1023.041
1022.53
1021.991
1021.424
1020.83
1020.212
1019.555
1018.862
1018.134
1017.368
1016.562
1015.713
1014.819
1013.875
1012.878
1023.527
1023.044
1022.534
1021.999
1021.437
1020.849
1020.224
1019.567
1018.877
1018.15
1017.386
1016.581
1015.734
1014.841
1013.896
1023.985
1023.53
1023.049
1022.542
1022.012
1021.453
1020.86
1020.236
1019.58
1018.891
1018.166
1017.403
1016.599
1015.753
1014.859
1024.417
1023.988
1023.535
1023.057
1022.555
1022.025
1021.463
1020.871
1020.248
1019.594
1018.905
1018.181
1017.419
1016.616
1015.769
1024.821
1024.419
1023.993
1023.542
1023.068
1022.567
1022.034
1021.473
1020.882
1020.261
1019.607
1018.92
1018.196
1017.435
1016.632
1012.595
1011.489
1010.324
1009.106
1007.846
1006.569
1005.4
1013.641
1012.598
1011.497
1010.337
1009.122
1007.852
1006.551
1005.328
1014.626
1013.644
1012.606
1011.509
1010.355
1009.138
1007.854
1006.528
1005.236
1015.556
1014.629
1013.65
1012.616
1011.526
1010.376
1009.149
1007.854
1006.498
1005.12
1016.433
1015.557
1014.633
1013.657
1012.628
1011.55
1010.391
1009.159
1007.85
1006.462
1004.984
1017.263
1016.434
1015.561
1014.638
1013.661
1018.048
1017.263
1016.436
1015.563
1014.638
1018.793
1018.049
1017.265
1016.438
1015.562
1019.499
1018.794
1018.05
1017.266
1016.437
1020.17
1019.5
1018.795
1018.051
1017.265
1020.807
1020.171
1019.502
1018.797
1018.051
1021.411
1020.808
1020.173
1019.504
1018.798
1021.984
1021.412
1020.81
1020.176
1019.507
1022.527
1021.985
1021.415
1020.815
1020.182
1023.041
1022.529
1021.989
1021.421
1020.823
1023.527
1023.043
1022.533
1021.996
1021.433
1020.847
1020.223
1019.566
1018.875
1018.149
1017.385
1016.581
1015.736
1014.844
1013.905
1023.985
1023.529
1023.048
1022.541
1022.009
1021.451
1020.859
1020.235
1019.58
1018.89
1018.165
1017.403
1016.601
1015.756
1014.864
1024.416
1023.987
1023.534
1023.056
1022.553
1022.024
1021.462
1020.87
1020.248
1019.593
1018.905
1018.181
1017.42
1016.618
1015.772
1024.821
1024.419
1023.992
1023.542
1023.068
1022.567
1022.034
1021.473
1020.882
1020.261
1019.607
1018.92
1018.197
1017.436
1016.633
1025.2
1024.823
1024.423
1024
1023.553
1023.08
1022.576
1022.044
1021.484
1020.894
1020.274
1019.621
1018.934
1018.212
1017.451
1013.641
1012.599
1011.498
1010.338
1009.123
1007.854
1006.556
1005.349
1014.627
1013.645
1012.607
1011.512
1010.359
1009.141
1007.859
1006.54
1005.283
1015.556
1014.63
1013.652
1012.619
1011.531
1010.38
1009.153
1007.863
1006.52
1005.199
1016.434
1015.558
1014.635
1013.661
1012.636
1011.553
1010.394
1009.166
1007.865
1006.496
1005.096
1017.263
1016.435
1015.563
1014.642
1013.673
1012.658
1011.569
1010.41
1009.177
1007.864
1006.468
1004.98
1018.049
1017.265
1016.438
1015.567
1014.646
1018.794
1018.05
1017.267
1016.441
1015.567
1019.5
1018.794
1018.051
1017.268
1016.44
1020.17
1019.501
1018.795
1018.052
1017.267
1020.807
1020.171
1019.502
1018.797
1018.051
1021.411
1020.807
1020.172
1019.503
1018.797
1021.983
1021.412
1020.809
1020.175
1019.505
1022.526
1021.985
1021.414
1020.813
1020.178
1023.04
1022.528
1021.988
1021.418
1020.818
1023.526
1023.042
1022.532
1021.993
1021.426
1023.984
1023.528
1023.046
1022.539
1022.005
1021.45
1020.858
1020.234
1019.579
1018.889
1018.165
1017.403
1016.602
1015.759
1014.873
1024.416
1023.987
1023.533
1023.054
1022.551
1022.023
1021.461
1020.87
1020.247
1019.593
1018.905
1018.182
1017.421
1016.621
1015.778
1024.821
1024.418
1023.991
1023.541
1023.066
1022.566
1022.033
1021.472
1020.882
1020.26
1019.607
1018.92
1018.198
1017.438
1016.637
1025.2
1024.823
1024.423
1023.999
1023.552
1023.079
1022.575
1022.044
1021.484
1020.894
1020.274
1019.621
1018.935
1018.213
1017.452
1025.553
1025.202
1024.828
1024.43
1024.01
1023.564
1023.088
1022.585
1022.055
1021.495
1020.907
1020.287
1019.635
1018.949
1018.227
1014.627
1013.645
1012.608
1011.513
1010.36
1009.143
1007.861
1006.546
1005.306
1015.557
1014.631
1013.653
1012.621
1011.534
1010.382
1009.156
1007.868
1006.534
1005.249
1016.434
1015.559
1014.637
1013.664
1012.64
1011.556
1010.397
1009.171
1007.875
1006.519
1005.176
1017.264
1016.436
1015.565
1014.646
1013.68
1012.661
1011.572
1010.414
1009.185
1007.88
1006.503
1005.09
1018.05
1017.266
1016.44
1015.571
1014.657
1013.701
1012.677
1011.589
1010.431
1009.199
1007.886
1006.489
1004.997
1018.794
1018.051
1017.268
1016.445
1015.575
1019.5
1018.795
1018.053
1017.271
1016.445
1020.171
1019.501
1018.796
1018.054
1017.27
1020.807
1020.171
1019.502
1018.797
1018.053
1021.411
1020.807
1020.172
1019.503
1018.797
1021.983
1021.411
1020.809
1020.174
1019.503
1022.526
1021.984
1021.413
1020.811
1020.175
1023.04
1022.527
1021.987
1021.416
1020.814
1023.526
1023.042
1022.53
1021.991
1021.421
1023.984
1023.528
1023.045
1022.536
1021.999
1024.415
1023.986
1023.532
1023.052
1022.547
1022.021
1021.46
1020.869
1020.246
1019.592
1018.904
1018.182
1017.422
1016.625
1015.786
1024.82
1024.418
1023.99
1023.539
1023.064
1022.564
1022.032
1021.472
1020.881
1020.26
1019.607
1018.921
1018.199
1017.441
1016.642
1025.199
1024.823
1024.422
1023.998
1023.551
1023.078
1022.575
1022.043
1021.483
1020.894
1020.274
1019.622
1018.936
1018.215
1017.455
1025.553
1025.202
1024.827
1024.43
1024.01
1023.564
1023.088
1022.585
1022.054
1021.495
1020.907
1020.287
1019.636
1018.95
1018.228
1025.88
1025.555
1025.206
1024.835
1024.441
1024.021
1023.573
1023.097
1022.595
1022.066
1021.507
1020.919
1020.3
1019.649
1018.963
1015.557
1014.631
1013.654
1012.622
1011.536
1010.383
1009.158
1007.871
1006.541
1005.274
1016.435
1015.56
1014.638
1013.666
1012.643
1011.558
1010.4
1009.174
1007.881
1006.535
1005.228
1017.265
1016.437
1015.566
1014.649
1013.684
1012.664
1011.574
1010.417
1009.19
1007.891
1006.527
1005.169
1018.05
1017.267
1016.442
1015.575
1014.664
1013.704
1012.679
1011.591
1010.435
1009.207
1007.901
1006.521
1005.1
1018.795
1018.052
1017.27
1016.448
1015.585
1014.684
1013.719
1012.696
1011.61
1010.454
1009.225
1007.915
1006.522
1005.029
1019.501
1018.796
1018.055
1017.274
1016.452
1020.171
1019.502
1018.798
1018.057
1017.275
1020.807
1020.172
1019.503
1018.799
1018.056
1021.411
1020.808
1020.173
1019.504
1018.798
1021.983
1021.411
1020.809
1020.174
1019.503
1022.526
1021.984
1021.413
1020.81
1020.174
1023.04
1022.527
1021.986
1021.415
1020.811
1023.525
1023.041
1022.529
1021.989
1021.418
1023.983
1023.527
1023.044
1022.533
1021.994
1024.415
1023.985
1023.53
1023.049
1022.541
1024.82
1024.417
1023.989
1023.537
1023.06
1022.563
1022.031
1021.471
1020.88
1020.259
1019.606
1018.92
1018.2
1017.444
1016.649
1025.199
1024.822
1024.421
1023.997
1023.549
1023.077
1022.574
1022.043
1021.483
1020.893
1020.273
1019.622
1018.937
1018.217
1017.46
1025.552
1025.201
1024.827
1024.429
1024.008
1023.563
1023.087
1022.584
1022.054
1021.495
1020.906
1020.287
1019.636
1018.952
1018.231
1025.88
1025.554
1025.206
1024.834
1024.44
1024.021
1023.572
1023.097
1022.595
1022.065
1021.507
1020.92
1020.301
1019.65
1018.965
1026.183
1025.882
1025.559
1025.213
1024.845
1024.452
1024.029
1023.582
1023.107
1022.606
1022.077
1021.52
1020.932
1020.314
1019.663
1016.435
1015.561
1014.639
1013.667
1012.644
1011.559
1010.401
1009.175
1007.884
1006.542
1005.254
1017.265
1016.438
1015.567
1014.651
1013.687
1012.666
1011.576
1010.419
1009.193
1007.898
1006.543
1005.221
1018.051
1017.268
1016.444
1015.577
1014.667
1013.706
1012.681
1011.593
1010.438
1009.212
1007.912
1006.543
1005.176
1018.796
1018.053
1017.272
1016.452
1015.591
1014.686
1013.721
1012.698
1011.612
1010.459
1009.232
1007.928
1006.548
1005.123
1019.502
1018.797
1018.056
1017.278
1016.461
1015.61
1014.7
1013.737
1012.716
1011.633
1010.481
1009.255
1007.951
1006.564
1005.064
1020.172
1019.503
1018.8
1018.06
1017.281
1020.808
1020.173
1019.505
1018.802
1018.06
1021.411
1020.808
1020.174
1019.506
1018.801
1021.983
1021.412
1020.809
1020.175
1019.505
1022.526
1021.984
1021.413
1020.81
1020.174
1023.039
1022.527
1021.985
1021.414
1020.81
1023.525
1023.04
1022.528
1021.987
1021.415
1023.983
1023.526
1023.043
1022.531
1021.99
1024.414
1023.985
1023.529
1023.047
1022.536
1024.819
1024.416
1023.988
1023.534
1023.054
1025.198
1024.821
1024.42
1023.994
1023.545
1023.076
1022.573
1022.042
1021.482
1020.892
1020.273
1019.622
1018.938
1018.22
1017.467
1025.552
1025.201
1024.826
1024.427
1024.006
1023.562
1023.086
1022.584
1022.053
1021.494
1020.906
1020.288
1019.638
1018.954
1018.236
1025.88
1025.554
1025.205
1024.833
1024.439
1024.02
1023.571
1023.097
1022.595
1022.065
1021.507
1020.92
1020.302
1019.652
1018.967
1026.183
1025.882
1025.559
1025.212
1024.844
1024.451
1024.029
1023.581
1023.107
1022.606
1022.077
1021.52
1020.933
1020.315
1019.664
1026.46
1026.185
1025.886
1025.566
1025.223
1024.856
1024.46
1024.038
1023.591
1023.118
1022.617
1022.089
1021.532
1020.945
1020.327
1017.266
1016.438
1015.568
1014.652
1013.688
1012.667
1011.576
1010.42
1009.195
1007.901
1006.55
1005.247
1018.052
1017.268
1016.445
1015.579
1014.67
1013.708
1012.683
1011.595
1010.44
1009.215
1007.918
1006.558
1005.227
1018.796
1018.054
1017.274
1016.454
1015.595
1014.688
1013.723
1012.7
1011.614
1010.462
1009.237
1007.937
1006.567
1005.195
1019.502
1018.798
1018.058
1017.281
1016.467
1015.612
1014.702
1013.739
1012.718
1011.635
1010.485
1009.261
1007.961
1006.583
1005.152
1020.173
1019.504
1018.801
1018.063
1017.29
1016.484
1015.625
1014.717
1013.756
1012.738
1011.658
1010.51
1009.29
1007.993
1006.611
1020.808
1020.173
1019.506
1018.805
1018.066
1021.412
1020.809
1020.175
1019.508
1018.805
1021.984
1021.412
1020.81
1020.176
1019.507
1022.526
1021.984
1021.413
1020.811
1020.175
1023.039
1022.527
1021.985
1021.414
1020.81
1023.525
1023.04
1022.528
1021.987
1021.414
1023.983
1023.526
1023.042
1022.53
1021.988
1024.414
1023.984
1023.528
1023.045
1022.533
1024.819
1024.415
1023.987
1023.532
1023.049
1025.198
1024.821
1024.419
1023.992
1023.539
1025.551
1025.2
1024.825
1024.425
1024.003
1023.56
1023.085
1022.583
1022.052
1021.494
1020.906
1020.288
1019.639
1018.957
1018.242
1025.879
1025.553
1025.204
1024.832
1024.437
1024.019
1023.571
1023.096
1022.594
1022.065
1021.507
1020.92
1020.303
1019.654
1018.972
1026.182
1025.882
1025.558
1025.211
1024.843
1024.45
1024.028
1023.581
1023.107
1022.606
1022.077
1021.52
1020.934
1020.316
1019.667
1026.46
1026.184
1025.886
1025.565
1025.223
1024.855
1024.459
1024.038
1023.591
1023.118
1022.617
1022.089
1021.533
1020.946
1020.328
1026.713
1026.462
1026.189
1025.893
1025.576
1025.234
1024.864
1024.468
1024.048
1023.602
1023.129
1022.629
1022.102
1021.545
1020.958
1018.052
1017.269
1016.445
1015.58
1014.671
1013.709
1012.683
1011.596
1010.441
1009.217
1007.922
1006.565
1005.252
1018.797
1018.054
1017.275
1016.456
1015.597
1014.69
1013.724
1012.701
1011.616
1010.463
1009.24
1007.943
1006.58
1005.244
1019.503
1018.799
1018.059
1017.283
1016.47
1015.614
1014.703
1013.74
1012.72
1011.637
1010.487
1009.265
1007.967
1006.598
1005.224
1020.173
1019.505
1018.803
1018.066
1017.295
1016.486
1015.626
1014.718
1013.757
1012.74
1011.66
1010.513
1009.294
1007.997
1006.621
1020.809
1020.174
1019.508
1018.808
1018.075
1017.312
1016.499
1015.64
1014.734
1013.776
1012.761
1011.685
1010.543
1009.33
1008.04
1021.412
1020.81
1020.177
1019.511
1018.811
1021.984
1021.413
1020.812
1020.179
1019.511
1022.526
1021.985
1021.414
1020.813
1020.178
1023.04
1022.527
1021.986
1021.415
1020.811
1023.525
1023.04
1022.528
1021.987
1021.414
1023.982
1023.525
1023.041
1022.529
1021.987
1024.414
1023.983
1023.527
1023.043
1022.53
1024.818
1024.415
1023.986
1023.53
1023.046
1025.197
1024.82
1024.418
1023.99
1023.534
1025.551