/*--------------------------------*- C++ -*----------------------------------*\
| =========                 |                                                 |
| \\      /  F ield         | OpenFOAM: The Open Source CFD Toolbox           |
|  \\    /   O peration     | Version:  2306                                  |
|   \\  /    A nd           | Website:  www.openfoam.com                      |
|    \\/     M anipulation  |                                                 |
\*---------------------------------------------------------------------------*/
FoamFile
{
    version     2.0;
    format      ascii;
    arch        "LSB;label=32;scalar=64";
    class       volScalarField;
    location    "0.9/electrolyte";
    object      T;
}
// * * * * * * * * * * * * * * * * * * * * * * * * * * * * * * * * * * * * * //

dimensions      [0 0 0 1 0 0 0];

internalField   nonuniform List<scalar> 
4000
(
1197.886
1197.725
1199.818
1197.895
1197.352
1199.808
1197.734
1201.571
1199.823
1197.903
1196.657
1199.784
1197.361
1201.602
1199.812
1197.743
1203.19
1201.571
1199.827
1197.912
1195.483
1199.733
1196.668
1201.671
1199.787
1197.37
1203.233
1201.602
1199.816
1197.751
1204.736
1203.187
1201.572
1199.831
1197.92
1193.751
1199.637
1195.501
1201.792
1199.735
1196.68
1203.327
1201.67
1199.79
1197.38
1204.78
1203.229
1201.602
1199.82
1197.76
1206.229
1204.73
1203.184
1201.571
1199.835
1191.774
1199.463
1193.784
1201.979
1199.636
1195.519
1203.495
1201.789
1199.736
1196.692
1204.879
1203.323
1201.669
1199.793
1197.39
1206.271
1204.774
1203.226
1201.602
1199.823
1207.673
1206.22
1204.724
1203.181
1201.571
1189.963
1199.173
1191.828
1202.219
1199.457
1193.817
1203.761
1201.972
1199.634
1195.538
1205.055
1203.489
1201.786
1199.738
1196.704
1206.367
1204.872
1203.318
1201.668
1199.796
1207.714
1206.263
1204.768
1203.222
1201.601
1209.071
1207.664
1206.212
1204.718
1203.177
1188.617
1198.83
1190.037
1202.407
1199.167
1191.881
1204.119
1202.205
1199.452
1193.849
1205.336
1203.751
1201.965
1199.632
1195.557
1206.539
1205.046
1203.482
1201.782
1199.739
1207.806
1206.358
1204.865
1203.314
1201.666
1209.11
1207.704
1206.254
1204.761
1203.218
1210.421
1209.06
1207.653
1206.204
1204.711
1187.906
1198.531
1188.705
1202.512
1198.826
1190.109
1204.449
1202.387
1199.16
1191.933
1205.717
1204.101
1202.19
1199.445
1193.882
1206.813
1205.323
1203.74
1201.957
1199.631
1207.969
1206.528
1205.037
1203.475
1201.779
1209.196
1207.795
1206.349
1204.857
1203.309
1210.457
1209.098
1207.694
1206.245
1204.754
1211.722
1210.409
1209.048
1207.643
1206.195
1187.906
1198.359
1188.002
1202.556
1198.53
1188.792
1204.695
1202.491
1198.822
1190.18
1206.082
1204.425
1202.367
1199.153
1191.985
1207.187
1205.698
1204.083
1202.175
1199.439
1208.23
1206.799
1205.31
1203.729
1201.949
1209.351
1207.957
1206.517
1205.028
1203.468
1210.539
1209.184
1207.784
1206.339
1204.85
1211.757
1210.445
1209.086
1207.683
1206.236
1212.973
1211.709
1210.396
1209.037
1207.633
1188.617
1198.359
1188.002
1202.569
1198.361
1188.096
1204.851
1202.534
1198.529
1188.877
1206.366
1204.668
1202.469
1198.817
1190.25
1207.549
1206.057
1204.402
1202.348
1199.146
1208.586
1207.167
1205.678
1204.065
1202.16
1209.597
1208.215
1206.785
1205.297
1203.717
1210.685
1209.337
1207.944
1206.506
1205.018
1211.834
1210.526
1209.172
1207.773
1206.33
1213.006
1211.743
1210.432
1209.075
1207.672
1214.175
1212.96
1211.696
1210.384
1209.025
1189.963
1198.531
1188.705
1202.569
1198.361
1188.096
1204.924
1202.547
1198.362
1188.188
1206.554
1204.822
1202.512
1198.528
1188.96
1207.836
1206.338
1204.641
1202.447
1198.812
1208.933
1207.524
1206.032
1204.378
1202.328
1209.934
1208.565
1207.146
1205.658
1204.046
1210.919
1209.582
1208.199
1206.77
1205.284
1211.973
1210.671
1209.324
1207.932
1206.495
1213.08
1211.821
1210.513
1209.159
1207.761
1214.207
1212.992
1211.73
1210.419
1209.062
1215.327
1214.161
1212.946
1211.682
1210.371
1191.774
1198.83
1190.037
1202.556
1198.53
1188.792
1204.924
1202.547
1198.362
1188.188
1206.646
1204.896
1202.525
1198.362
1188.278
1208.028
1206.524
1204.794
1202.49
1198.526
1209.21
1207.808
1206.31
1204.614
1202.425
1210.264
1208.908
1207.499
1206.007
1204.354
1211.237
1209.914
1208.545
1207.126
1205.639
1212.194
1210.903
1209.566
1208.184
1206.755
1213.212
1211.958
1210.657
1209.31
1207.919
1214.277
1213.066
1211.807
1210.5
1209.147
1215.357
1214.192
1212.978
1211.716
1210.406
1216.43
1215.313
1214.147
1212.932
1211.669
1193.751
1199.173
1191.828
1202.512
1198.826
1190.109
1204.851
1202.534
1198.529
1188.877
1206.646
1204.896
1202.525
1198.362
1188.278
1208.124
1206.616
1204.867
1202.502
1198.362
1209.397
1207.999
1206.495
1204.765
1202.467
1210.528
1209.183
1207.78
1206.282
1204.587
1211.55
1210.24
1208.884
1207.474
1205.982
1212.497
1211.217
1209.893
1208.524
1207.106
1213.423
1212.178
1210.886
1209.549
1208.168
1214.403
1213.197
1211.943
1210.643
1209.296
1215.425
1214.263
1213.052
1211.793
1210.486
1216.459
1215.343
1214.178
1212.964
1211.702
1217.484
1216.416
1215.299
1214.133
1212.918
1195.483
1199.463
1193.784
1202.407
1199.167
1191.881
1204.695
1202.491
1198.822
1190.18
1206.554
1204.822
1202.512
1198.528
1188.96
1208.124
1206.616
1204.867
1202.502
1198.362
1209.491
1208.094
1206.586
1204.838
1202.48
1210.707
1209.369
1207.969
1206.465
1204.737
1211.801
1210.502
1209.156
1207.752
1206.254
1212.794
1211.526
1210.215
1208.859
1207.449
1213.711
1212.476
1211.197
1209.873
1208.504
1214.605
1213.406
1212.161
1210.869
1209.533
1215.546
1214.388
1213.182
1211.928
1210.628
1216.524
1215.41
1214.248
1213.037
1211.778
1217.512
1216.445
1215.328
1214.164
1212.95
1218.491
1217.47
1216.401
1215.284
1214.118
1196.657
1199.637
1195.501
1202.219
1199.457
1193.817
1204.449
1202.387
1199.16
1191.933
1206.366
1204.668
1202.469
1198.817
1190.25
1208.028
1206.524
1204.794
1202.49
1198.526
1209.491
1208.094
1206.586
1204.838
1202.48
1210.797
1209.462
1208.064
1206.555
1204.809
1211.972
1210.68
1209.34
1207.94
1206.435
1213.033
1211.776
1210.475
1209.129
1207.724
1213.994
1212.77
1211.503
1210.191
1208.834
1214.88
1213.691
1212.456
1211.176
1209.852
1215.74
1214.588
1213.389
1212.144
1210.852
1216.641
1215.531
1214.373
1213.167
1211.913
1217.575
1216.51
1215.396
1214.233
1213.022
1218.518
1217.498
1216.43
1215.314
1214.149
1219.45
1218.476
1217.455
1216.387
1215.269
1197.352
1199.733
1196.668
1201.979
1199.636
1195.519
1204.119
1202.205
1199.452
1193.849
1206.082
1204.425
1202.367
1199.153
1191.985
1207.836
1206.338
1204.641
1202.447
1198.812
1209.397
1207.999
1206.495
1204.765
1202.467
1210.797
1209.462
1208.064
1206.555
1204.809
1212.057
1210.768
1209.432
1208.033
1206.525
1213.196
1211.945
1210.652
1209.312
1207.91
1214.223
1213.008
1211.75
1210.449
1209.101
1215.151
1213.971
1212.747
1211.479
1210.167
1216.003
1214.86
1213.671
1212.436
1211.155
1216.827
1215.723
1214.571
1213.372
1212.126
1217.688
1216.625
1215.515
1214.357
1213.151
1218.578
1217.56
1216.495
1215.381
1214.218
1219.476
1218.503
1217.483
1216.415
1215.299
1220.362
1219.435
1218.462
1217.441
1216.372
1197.725
1199.784
1197.361
1201.792
1199.735
1196.68
1203.761
1201.972
1199.634
1195.538
1205.717
1204.101
1202.19
1199.445
1193.882
1207.549
1206.057
1204.402
1202.348
1199.146
1209.21
1207.808
1206.31
1204.614
1202.425
1210.707
1209.369
1207.969
1206.465
1204.737
1212.057
1210.768
1209.432
1208.033
1206.525
1213.277
1212.03
1210.74
1209.403
1208.003
1214.378
1213.17
1211.919
1210.624
1209.283
1215.37
1214.199
1212.983
1211.724
1210.422
1216.263
1215.129
1213.949
1212.724
1211.455
1217.08
1215.983
1214.84
1213.651
1212.415
1217.867
1216.81
1215.706
1214.554
1213.355
1218.687
1217.672
1216.61
1215.499
1214.341
1219.535
1218.564
1217.545
1216.479
1215.365
1220.387
1219.461
1218.488
1217.468
1216.4
1221.229
1220.348
1219.421
1218.447
1217.426
1197.886
1199.808
1197.734
1201.671
1199.787
1197.37
1203.495
1201.789
1199.736
1196.692
1205.336
1203.751
1201.965
1199.632
1195.557
1207.187
1205.698
1204.083
1202.175
1199.439
1208.933
1207.524
1206.032
1204.378
1202.328
1210.528
1209.183
1207.78
1206.282
1204.587
1211.972
1210.68
1209.34
1207.94
1206.435
1213.277
1212.03
1210.74
1209.403
1208.003
1214.456
1213.251
1212.003
1210.712
1209.374
1215.519
1214.353
1213.144
1211.892
1210.597
1216.473
1215.346
1214.175
1212.958
1211.699
1217.33
1216.241
1215.107
1213.926
1212.701
1218.111
1217.061
1215.964
1214.82
1213.63
1218.86
1217.85
1216.793
1215.688
1214.536
1219.64
1218.672
1217.657
1216.594
1215.483
1220.445
1219.52
1218.549
1217.53
1216.464
1221.253
1220.373
1219.447
1218.474
1217.453
1222.05
1221.215
1220.333
1219.406
1218.432
1199.818
1197.895
1201.602
1199.812
1197.743
1203.327
1201.67
1199.79
1197.38
1205.055
1203.489
1201.786
1199.738
1196.704
1206.813
1205.323
1203.74
1201.957
1199.631
1208.586
1207.167
1205.678
1204.065
1202.16
1210.264
1208.908
1207.499
1206.007
1204.354
1211.801
1210.502
1209.156
1207.752
1206.254
1213.196
1211.945
1210.652
1209.312
1207.91
1214.456
1213.251
1212.003
1210.712
1209.374
1215.594
1214.431
1213.225
1211.976
1210.684
1216.617
1215.495
1214.329
1213.118
1211.865
1217.533
1216.451
1215.323
1214.15
1212.934
1218.353
1217.309
1216.22
1215.085
1213.904
1219.096
1218.092
1217.042
1215.944
1214.8
1219.808
1218.844
1217.833
1216.776
1215.671
1220.547
1219.625
1218.656
1217.641
1216.578
1221.309
1220.43
1219.505
1218.534
1217.515
1222.074
1221.239
1220.359
1219.432
1218.459
1222.828
1222.037
1221.201
1220.319
1219.392
1201.571
1199.823
1197.903
1203.233
1201.602
1199.816
1197.751
1204.879
1203.323
1201.669
1199.793
1197.39
1206.539
1205.046
1203.482
1201.782
1199.739
1208.23
1206.799
1205.31
1203.729
1201.949
1209.934
1208.565
1207.146
1205.658
1204.046
1211.55
1210.24
1208.884
1207.474
1205.982
1213.033
1211.776
1210.475
1209.129
1207.724
1214.378
1213.17
1211.919
1210.624
1209.283
1215.594
1214.431
1213.225
1211.976
1210.684
1216.689
1215.57
1214.406
1213.199
1211.949
1217.672
1216.594
1215.471
1214.304
1213.093
1218.549
1217.511
1216.428
1215.3
1214.126
1219.33
1218.332
1217.288
1216.198
1215.063
1220.037
1219.078
1218.074
1217.022
1215.925
1220.71
1219.792
1218.827
1217.817
1216.759
1221.408
1220.532
1219.609
1218.641
1217.625
1222.129
1221.295
1220.416
1219.49
1218.519
1222.851
1222.061
1221.225
1220.344
1219.417
1223.562
1222.814
1222.023
1221.186
1220.305
1203.19
1201.571
1199.827
1197.912
1204.78
1203.229
1201.602
1199.82
1197.76
1206.367
1204.872
1203.318
1201.668
1199.796
1207.969
1206.528
1205.037
1203.475
1201.779
1209.597
1208.215
1206.785
1205.297
1203.717
1211.237
1209.914
1208.545
1207.126
1205.639
1212.794
1211.526
1210.215
1208.859
1207.449
1214.223
1213.008
1211.75
1210.449
1209.101
1215.519
1214.353
1213.144
1211.892
1210.597
1216.689
1215.57
1214.406
1213.199
1211.949
1217.742
1216.666
1215.545
1214.381
1213.173
1218.683
1217.649
1216.571
1215.447
1214.279
1219.52
1218.528
1217.489
1216.406
1215.276
1220.264
1219.31
1218.312
1217.267
1216.177
1220.932
1220.019
1219.06
1218.055
1217.003
1221.567
1220.694
1219.775
1218.811
1217.799
1222.226
1221.394
1220.517
1219.594
1218.625
1222.904
1222.115
1221.28
1220.401
1219.475
1223.585
1222.838
1222.047
1221.211
1220.33
1224.253
1223.549
1222.801
1222.009
1221.172
1204.736
1203.187
1201.572
1199.831
1197.92
1206.271
1204.774
1203.226
1201.602
1199.823
1207.806
1206.358
1204.865
1203.314
1201.666
1209.351
1207.957
1206.517
1205.028
1203.468
1210.919
1209.582
1208.199
1206.77
1205.284
1212.497
1211.217
1209.893
1208.524
1207.106
1213.994
1212.77
1211.503
1210.191
1208.834
1215.37
1214.199
1212.983
1211.724
1210.422
1216.617
1215.495
1214.329
1213.118
1211.865
1217.742
1216.666
1215.545
1214.381
1213.173
1218.75
1217.719
1216.642
1215.521
1214.356
1219.651
1218.661
1217.627
1216.547
1215.423
1220.448
1219.5
1218.506
1217.467
1216.383
1221.153
1220.244
1219.291
1218.292
1217.247
1221.784
1220.915
1220.001
1219.041
1218.036
1222.38
1221.552
1220.678
1219.759
1218.794
1222.999
1222.211
1221.379
1220.502
1219.578
1223.637
1222.891
1222.1
1221.266
1220.386
1224.276
1223.571
1222.824
1222.032
1221.196
1224.902
1224.24
1223.535
1222.787
1221.995
1206.229
1204.73
1203.184
1201.571
1199.835
1207.714
1206.263
1204.768
1203.222
1201.601
1209.196
1207.795
1206.349
1204.857
1203.309
1210.685
1209.337
1207.944
1206.506
1205.018
1212.194
1210.903
1209.566
1208.184
1206.755
1213.711
1212.476
1211.197
1209.873
1208.504
1215.151
1213.971
1212.747
1211.479
1210.167
1216.473
1215.346
1214.175
1212.958
1211.699
1217.672
1216.594
1215.471
1214.304
1213.093
1218.75
1217.719
1216.642
1215.521
1214.356
1219.716
1218.728
1217.696
1216.619
1215.497
1220.575
1219.629
1218.639
1217.604
1216.524
1221.332
1220.428
1219.479
1218.485
1217.445
1221.998
1221.134
1220.225
1219.271
1218.271
1222.591
1221.766
1220.897
1219.983
1219.023
1223.15
1222.365
1221.536
1220.662
1219.742
1223.729
1222.985
1222.197
1221.364
1220.486
1224.327
1223.623
1222.877
1222.086
1221.251
1224.925
1224.263
1223.558
1222.81
1222.018
1225.51
1224.89
1224.227
1223.522
1222.773
1207.673
1206.22
1204.724
1203.181
1201.571
1209.11
1207.704
1206.254
1204.761
1203.218
1210.539
1209.184
1207.784
1206.339
1204.85
1211.973
1210.671
1209.324
1207.932
1206.495
1213.423
1212.178
1210.886
1209.549
1208.168
1214.88
1213.691
1212.456
1211.176
1209.852
1216.263
1215.129
1213.949
1212.724
1211.455
1217.533
1216.451
1215.323
1214.15
1212.934
1218.683
1217.649
1216.571
1215.447
1214.279
1219.716
1218.728
1217.696
1216.619
1215.497
1220.638
1219.695
1218.706
1217.673
1216.595
1221.456
1220.554
1219.608
1218.618
1217.582
1222.174
1221.313
1220.408
1219.458
1218.464
1222.801
1221.98
1221.115
1220.206
1219.251
1223.356
1222.575
1221.749
1220.88
1219.965
1223.877
1223.135
1222.35
1221.52
1220.646
1224.417
1223.715
1222.97
1222.182
1221.349
1224.974
1224.313
1223.609
1222.862
1222.072
1225.532
1224.912
1224.249
1223.544
1222.796
1226.077
1225.497
1224.877
1224.214
1223.508
1209.071
1207.664
1206.212
1204.718
1203.177
1210.457
1209.098
1207.694
1206.245
1204.754
1211.834
1210.526
1209.172
1207.773
1206.33
1213.212
1211.958
1210.657
1209.31
1207.919
1214.605
1213.406
1212.161
1210.869
1209.533
1216.003
1214.86
1213.671
1212.436
1211.155
1217.33
1216.241
1215.107
1213.926
1212.701
1218.549
1217.511
1216.428
1215.3
1214.126
1219.651
1218.661
1217.627
1216.547
1215.423
1220.638
1219.695
1218.706
1217.673
1216.595
1221.518
1220.618
1219.673
1218.684
1217.651
1222.294
1221.436
1220.534
1219.587
1218.596
1222.972
1222.155
1221.293
1220.388
1219.438
1223.561
1222.783
1221.962
1221.096
1220.186
1224.079
1223.34
1222.558
1221.732
1220.862
1224.562
1223.863
1223.12
1222.334
1221.504
1225.063
1224.403
1223.701
1222.956
1222.167
1225.581
1224.961
1224.3
1223.596
1222.848
1226.098
1225.519
1224.898
1224.236
1223.531
1226.603
1226.064
1225.485
1224.863
1224.2
1210.421
1209.06
1207.653
1206.204
1204.711
1211.757
1210.445
1209.086
1207.683
1206.236
1213.08
1211.821
1210.513
1209.159
1207.761
1214.403
1213.197
1211.943
1210.643
1209.296
1215.74
1214.588
1213.389
1212.144
1210.852
1217.08
1215.983
1214.84
1213.651
1212.415
1218.353
1217.309
1216.22
1215.085
1213.904
1219.52
1218.528
1217.489
1216.406
1215.276
1220.575
1219.629
1218.639
1217.604
1216.524
1221.518
1220.618
1219.673
1218.684
1217.651
1222.354
1221.497
1220.597
1219.652
1218.662
1223.089
1222.274
1221.416
1220.513
1219.566
1223.728
1222.954
1222.136
1221.274
1220.368
1224.279
1223.544
1222.765
1221.943
1221.078
1224.76
1224.063
1223.324
1222.541
1221.715
1225.205
1224.548
1223.848
1223.105
1222.319
1225.668
1225.05
1224.39
1223.687
1222.941
1226.146
1225.568
1224.948
1224.286
1223.582
1226.624
1226.086
1225.506
1224.885
1224.222
1227.09
1226.591
1226.052
1225.472
1224.85
1211.722
1210.409
1209.048
1207.643
1206.195
1213.006
1211.743
1210.432
1209.075
1207.672
1214.277
1213.066
1211.807
1210.5
1209.147
1215.546
1214.388
1213.182
1211.928
1210.628
1216.827
1215.723
1214.571
1213.372
1212.126
1218.111
1217.061
1215.964
1214.82
1213.63
1219.33
1218.332
1217.288
1216.198
1215.063
1220.448
1219.5
1218.506
1217.467
1216.383
1221.456
1220.554
1219.608
1218.618
1217.582
1222.354
1221.497
1220.597
1219.652
1218.662
1223.149
1222.335
1221.477
1220.576
1219.631
1223.843
1223.071
1222.255
1221.396
1220.493
1224.443
1223.71
1222.935
1222.117
1221.254
1224.956
1224.262
1223.526
1222.748
1221.925
1225.399
1224.744
1224.047
1223.307
1222.524
1225.808
1225.191
1224.533
1223.833
1223.09
1226.232
1225.655
1225.036
1224.376
1223.673
1226.671
1226.134
1225.555
1224.935
1224.272
1227.11
1226.612
1226.073
1225.493
1224.872
1227.536
1227.078
1226.579
1226.039
1225.459
1212.973
1211.709
1210.396
1209.037
1207.633
1214.207
1212.992
1211.73
1210.419
1209.062
1215.425
1214.263
1213.052
1211.793
1210.486
1216.641
1215.531
1214.373
1213.167
1211.913
1217.867
1216.81
1215.706
1214.554
1213.355
1219.096
1218.092
1217.042
1215.944
1214.8
1220.264
1219.31
1218.312
1217.267
1216.177
1221.332
1220.428
1219.479
1218.485
1217.445
1222.294
1221.436
1220.534
1219.587
1218.596
1223.149
1222.335
1221.477
1220.576
1219.631
1223.901
1223.13
1222.315
1221.457
1220.556
1224.556
1223.825
1223.052
1222.236
1221.376
1225.117
1224.426
1223.693
1222.917
1222.098
1225.592
1224.94
1224.246
1223.509
1222.73
1225.998
1225.384
1224.728
1224.031
1223.291
1226.369
1225.794
1225.177
1224.519
1223.818
1226.756
1226.219
1225.642
1225.023
1224.362
1227.157
1226.659
1226.121
1225.542
1224.921
1227.557
1227.098
1226.599
1226.06
1225.48
1227.944
1227.525
1227.066
1226.566
1226.027
1214.175
1212.96
1211.696
1210.384
1209.025
1215.357
1214.192
1212.978
1211.716
1210.406
1216.524
1215.41
1214.248
1213.037
1211.778
1217.688
1216.625
1215.515
1214.357
1213.151
1218.86
1217.85
1216.793
1215.688
1214.536
1220.037
1219.078
1218.074
1217.022
1215.925
1221.153
1220.244
1219.291
1218.292
1217.247
1222.174
1221.313
1220.408
1219.458
1218.464
1223.089
1222.274
1221.416
1220.513
1219.566
1223.901
1223.13
1222.315
1221.457
1220.556
1224.613
1223.883
1223.111
1222.296
1221.437
1225.228
1224.538
1223.807
1223.033
1222.216
1225.75
1225.1
1224.408
1223.675
1222.898
1226.188
1225.576
1224.923
1224.229
1223.492
1226.557
1225.983
1225.369
1224.713
1224.015
1226.891
1226.356
1225.78
1225.163
1224.504
1227.24
1226.743
1226.206
1225.628
1225.009
1227.603
1227.145
1226.647
1226.108
1225.529
1227.964
1227.545
1227.086
1226.587
1226.048
1228.313
1227.933
1227.513
1227.053
1226.554
1215.327
1214.161
1212.946
1211.682
1210.371
1216.459
1215.343
1214.178
1212.964
1211.702
1217.575
1216.51
1215.396
1214.233
1213.022
1218.687
1217.672
1216.61
1215.499
1214.341
1219.808
1218.844
1217.833
1216.776
1215.671
1220.932
1220.019
1219.06
1218.055
1217.003
1221.998
1221.134
1220.225
1219.271
1218.271
1222.972
1222.155
1221.293
1220.388
1219.438
1223.843
1223.071
1222.255
1221.396
1220.493
1224.613
1223.883
1223.111
1222.296
1221.437
1225.284
1224.595
1223.865
1223.092
1222.276
1225.859
1225.21
1224.52
1223.789
1223.014
1226.343
1225.734
1225.083
1224.391
1223.657
1226.744
1226.172
1225.56
1224.907
1224.212
1227.076
1226.542
1225.968
1225.353
1224.697
1227.373
1226.878
1226.342
1225.766
1225.148
1227.685
1227.228
1226.731
1226.193
1225.615
1228.01
1227.591
1227.132
1226.634
1226.095
1228.333
1227.953
1227.533
1227.074
1226.575
1228.644
1228.302
1227.921
1227.501
1227.041
1216.43
1215.313
1214.147
1212.932
1211.669
1217.512
1216.445
1215.328
1214.164
1212.95
1218.578
1217.56
1216.495
1215.381
1214.218
1219.64
1218.672
1217.657
1216.594
1215.483
1220.71
1219.792
1218.827
1217.817
1216.759
1221.784
1220.915
1220.001
1219.041
1218.036
1222.801
1221.98
1221.115
1220.206
1219.251
1223.728
1222.954
1222.136
1221.274
1220.368
1224.556
1223.825
1223.052
1222.236
1221.376
1225.284
1224.595
1223.865
1223.092
1222.276
1225.914
1225.266
1224.577
1223.846
1223.073
1226.451
1225.842
1225.193
1224.503
1223.771
1226.897
1226.327
1225.717
1225.066
1224.374
1227.26
1226.728
1226.156
1225.544
1224.89
1227.555
1227.061
1226.528
1225.953
1225.338
1227.817
1227.36
1226.865
1226.329
1225.752
1228.091
1227.673
1227.215
1226.718
1226.18
1228.378
1227.998
1227.579
1227.12
1226.621
1228.664
1228.322
1227.941
1227.521
1227.062
1228.937
1228.633
1228.291
1227.91
1227.489
1217.484
1216.416
1215.299
1214.133
1212.918
1218.518
1217.498
1216.43
1215.314
1214.149
1219.535
1218.564
1217.545
1216.479
1215.365
1220.547
1219.625
1218.656
1217.641
1216.578
1221.567
1220.694
1219.775
1218.811
1217.799
1222.591
1221.766
1220.897
1219.983
1219.023
1223.561
1222.783
1221.962
1221.096
1220.186
1224.443
1223.71
1222.935
1222.117
1221.254
1225.228
1224.538
1223.807
1223.033
1222.216
1225.914
1225.266
1224.577
1223.846
1223.073
1226.505
1225.897
1225.249
1224.559
1223.828
1227.002
1226.434
1225.825
1225.176
1224.485
1227.411
1226.881
1226.311
1225.701
1225.049
1227.737
1227.245
1226.713
1226.141
1225.528
1227.996
1227.541
1227.047
1226.513
1225.938
1228.221
1227.804
1227.347
1226.851
1226.315
1228.458
1228.079
1227.661
1227.203
1226.705
1228.708
1228.367
1227.986
1227.567
1227.108
1228.956
1228.653
1228.311
1227.929
1227.509
1229.192
1228.926
1228.622
1228.279
1227.898
1218.491
1217.47
1216.401
1215.284
1214.118
1219.476
1218.503
1217.483
1216.415
1215.299
1220.445
1219.52
1218.549
1217.53
1216.464
1221.408
1220.532
1219.609
1218.641
1217.625
1222.38
1221.552
1220.678
1219.759
1218.794
1223.356
1222.575
1221.749
1220.88
1219.965
1224.279
1223.544
1222.765
1221.943
1221.078
1225.117
1224.426
1223.693
1222.917
1222.098
1225.859
1225.21
1224.52
1223.789
1223.014
1226.505
1225.897
1225.249
1224.559
1223.828
1227.056
1226.488
1225.88
1225.231
1224.542
1227.515
1226.986
1226.418
1225.809
1225.159
1227.886
1227.396
1226.865
1226.295
1225.684
1228.176
1227.722
1227.23
1226.698
1226.125
1228.398
1227.983
1227.527
1227.033
1226.498
1228.587
1228.209
1227.791
1227.334
1226.838
1228.788
1228.447
1228.067
1227.648
1227.19
1229
1228.697
1228.355
1227.974
1227.555
1229.211
1228.945
1228.642
1228.299
1227.918
1229.409
1229.181
1228.915
1228.611
1228.268
1219.45
1218.476
1217.455
1216.387
1215.269
1220.387
1219.461
1218.488
1217.468
1216.4
1221.309
1220.43
1219.505
1218.534
1217.515
1222.226
1221.394
1220.517
1219.594
1218.625
1223.15
1222.365
1221.536
1220.662
1219.742
1224.079
1223.34
1222.558
1221.732
1220.862
1224.956
1224.262
1223.526
1222.748
1221.925
1225.75
1225.1
1224.408
1223.675
1222.898
1226.451
1225.842
1225.193
1224.503
1223.771
1227.056
1226.488
1225.88
1225.231
1224.542
1227.568
1227.04
1226.472
1225.863
1225.214
1227.989
1227.5
1226.97
1226.401
1225.792
1228.323
1227.871
1227.38
1226.849
1226.279
1228.576
1228.161
1227.708
1227.215
1226.682
1228.763
1228.385
1227.969
1227.514
1227.019
1228.915
1228.575
1228.196
1227.778
1227.321
1229.079
1228.776
1228.435
1228.055
1227.636
1229.255
1228.989
1228.686
1228.344
1227.963
1229.428
1229.2
1228.934
1228.63
1228.288
1229.589
1229.399
1229.17
1228.904
1228.6
1220.362
1219.435
1218.462
1217.441
1216.372
1221.253
1220.373
1219.447
1218.474
1217.453
1222.129
1221.295
1220.416
1219.49
1218.519
1222.999
1222.211
1221.379
1220.502
1219.578
1223.877
1223.135
1222.35
1221.52
1220.646
1224.76
1224.063
1223.324
1222.541
1221.715
1225.592
1224.94
1224.246
1223.509
1222.73
1226.343
1225.734
1225.083
1224.391
1223.657
1227.002
1226.434
1225.825
1225.176
1224.485
1227.568
1227.04
1226.472
1225.863
1225.214
1228.041
1227.552
1227.023
1226.455
1225.846
1228.425
1227.974
1227.484
1226.954
1226.385
1228.722
1228.309
1227.856
1227.365
1226.834
1228.938
1228.562
1228.147
1227.693
1227.2
1229.089
1228.75
1228.372
1227.955
1227.5
1229.205
1228.903
1228.563
1228.183
1227.765
1229.333
1229.068
1228.765
1228.423
1228.043
1229.472
1229.244
1228.978
1228.674
1228.332
1229.608
1229.418
1229.19
1228.923
1228.619
1229.733
1229.579
1229.388
1229.16
1228.893
1221.229
1220.348
1219.421
1218.447
1217.426
1222.074
1221.239
1220.359
1219.432
1218.459
1222.904
1222.115
1221.28
1220.401
1219.475
1223.729
1222.985
1222.197
1221.364
1220.486
1224.562
1223.863
1223.12
1222.334
1221.504
1225.399
1224.744
1224.047
1223.307
1222.524
1226.188
1225.576
1224.923
1224.229
1223.492
1226.897
1226.327
1225.717
1225.066
1224.374
1227.515
1226.986
1226.418
1225.809
1225.159
1228.041
1227.552
1227.023
1226.455
1225.846
1228.477
1228.026
1227.536
1227.007
1226.439
1228.823
1228.41
1227.959
1227.468
1226.938
1229.083
1228.708
1228.294
1227.841
1227.35
1229.263
1228.925
1228.548
1228.133
1227.679
1229.377
1229.076
1228.736
1228.358
1227.942
1229.458
1229.194
1228.891
1228.55
1228.171
1229.549
1229.322
1229.057
1228.753
1228.411
1229.651
1229.461
1229.233
1228.967
1228.663
1229.751
1229.598
1229.407
1229.179
1228.912
1229.839
1229.722
1229.569
1229.378
1229.149
1222.05
1221.215
1220.333
1219.406
1218.432
1222.851
1222.061
1221.225
1220.344
1219.417
1223.637
1222.891
1222.1
1221.266
1220.386
1224.417
1223.715
1222.97
1222.182
1221.349
1225.205
1224.548
1223.848
1223.105
1222.319
1225.998
1225.384
1224.728
1224.031
1223.291
1226.744
1226.172
1225.56
1224.907
1224.212
1227.411
1226.881
1226.311
1225.701
1225.049
1227.989
1227.5
1226.97
1226.401
1225.792
1228.477
1228.026
1227.536
1227.007
1226.439
1228.874
1228.462
1228.011
1227.521
1226.991
1229.183
1228.808
1228.395
1227.944
1227.453
1229.406
1229.069
1228.693
1228.279
1227.826
1229.55
1229.249
1228.911
1228.534
1228.119
1229.629
1229.365
1229.063
1228.723
1228.345
1229.673
1229.446
1229.182
1228.879
1228.538
1229.728
1229.538
1229.311
1229.045
1228.741
1229.794
1229.641
1229.45
1229.222
1228.956
1229.857
1229.741
1229.588
1229.397
1229.168
1229.908
1229.829
1229.712
1229.558
1229.367
1222.828
1222.037
1221.201
1220.319
1219.392
1223.585
1222.838
1222.047
1221.211
1220.33
1224.327
1223.623
1222.877
1222.086
1221.251
1225.063
1224.403
1223.701
1222.956
1222.167
1225.808
1225.191
1224.533
1223.833
1223.09
1226.557
1225.983
1225.369
1224.713
1224.015
1227.26
1226.728
1226.156
1225.544
1224.89
1227.886
1227.396
1226.865
1226.295
1225.684
1228.425
1227.974
1227.484
1226.954
1226.385
1228.874
1228.462
1228.011
1227.521
1226.991
1229.233
1228.859
1228.447
1227.995
1227.505
1229.505
1229.169
1228.794
1228.38
1227.928
1229.692
1229.392
1229.055
1228.679
1228.265
1229.8
1229.537
1229.236
1228.897
1228.52
1229.843
1229.616
1229.352
1229.05
1228.71
1229.852
1229.662
1229.435
1229.17
1228.867
1229.871
1229.718
1229.528
1229.3
1229.034
1229.9
1229.784
1229.63
1229.44
1229.211
1229.927
1229.847
1229.731
1229.577
1229.386
1229.942
1229.899
1229.819
1229.702
1229.548
1223.562
1222.814
1222.023
1221.186
1220.305
1224.276
1223.571
1222.824
1222.032
1221.196
1224.974
1224.313
1223.609
1222.862
1222.072
1225.668
1225.05
1224.39
1223.687
1222.941
1226.369
1225.794
1225.177
1224.519
1223.818
1227.076
1226.542
1225.968
1225.353
1224.697
1227.737
1227.245
1226.713
1226.141
1225.528
1228.323
1227.871
1227.38
1226.849
1226.279
1228.823
1228.41
1227.959
1227.468
1226.938
1229.233
1228.859
1228.447
1227.995
1227.505
1229.556
1229.219
1228.844
1228.432
1227.98
1229.791
1229.491
1229.154
1228.779
1228.366
1229.942
1229.679
1229.379
1229.041
1228.665
1230.013
1229.787
1229.524
1229.223
1228.884
1230.02
1229.831
1229.604
1229.34
1229.038
1229.993
1229.841
1229.651
1229.423
1229.158
1229.976
1229.86
1229.707
1229.517
1229.288
1229.97
1229.89
1229.774
1229.62
1229.429
1229.96
1229.917
1229.837
1229.721
1229.567
1229.932
1229.889
1229.809
1229.692
1224.253
1223.549
1222.801
1222.009
1221.172
1224.925
1224.263
1223.558
1222.81
1222.018
1225.581
1224.961
1224.3
1223.596
1222.848
1226.232
1225.655
1225.036
1224.376
1223.673
1226.891
1226.356
1225.78
1225.163
1224.504
1227.555
1227.061
1226.528
1225.953
1225.338
1228.176
1227.722
1227.23
1226.698
1226.125
1228.722
1228.309
1227.856
1227.365
1226.834
1229.183
1228.808
1228.395
1227.944
1227.453
1229.556
1229.219
1228.844
1228.432
1227.98
1229.841
1229.541
1229.205
1228.83
1228.417
1230.039
1229.777
1229.477
1229.14
1228.765
1230.154
1229.928
1229.665
1229.365
1229.027
1230.19
1230.001
1229.774
1229.511
1229.209
1230.161
1230.008
1229.819
1229.592
1229.327
1230.098
1229.983
1229.829
1229.639
1229.411
1230.045
1229.966
1229.85
1229.696
1229.505
1230.003
1229.96
1229.88
1229.763
1229.609
1229.951
1229.907
1229.827
1229.711
1229.922
1229.879
1229.799
1224.902
1224.24
1223.535
1222.787
1221.995
1225.532
1224.912
1224.249
1223.544
1222.796
1226.146
1225.568
1224.948
1224.286
1223.582
1226.756
1226.219
1225.642
1225.023
1224.362
1227.373
1226.878
1226.342
1225.766
1225.148
1227.996
1227.541
1227.047
1226.513
1225.938
1228.576
1228.161
1227.708
1227.215
1226.682
1229.083
1228.708
1228.294
1227.841
1227.35
1229.505
1229.169
1228.794
1228.38
1227.928
1229.841
1229.541
1229.205
1228.83
1228.417
1230.089
1229.827
1229.527
1229.19
1228.815
1230.251
1230.026
1229.763
1229.463
1229.126
1230.329
1230.141
1229.915
1229.652
1229.351
1230.33
1230.177
1229.988
1229.762
1229.498
1230.265
1230.15
1229.997
1229.807
1229.58
1230.167
1230.087
1229.972
1229.818
1229.628
1230.079
1230.035
1229.955
1229.839
1229.685
1229.993
1229.95
1229.869
1229.753
1229.941
1229.897
1229.817
1229.912
1229.869
1225.51
1224.89
1224.227
1223.522
1222.773
1226.098
1225.519
1224.898
1224.236
1223.531
1226.671
1226.134
1225.555
1224.935
1224.272
1227.24
1226.743
1226.206
1225.628
1225.009
1227.817
1227.36
1226.865
1226.329
1225.752
1228.398
1227.983
1227.527
1227.033
1226.498
1228.938
1228.562
1228.147
1227.693
1227.2
1229.406
1229.069
1228.693
1228.279
1227.826
1229.791
1229.491
1229.154
1228.779
1228.366
1230.089
1229.827
1229.527
1229.19
1228.815
1230.3
1230.075
1229.813
1229.513
1229.176
1230.426
1230.238
1230.012
1229.75
1229.45
1230.469
1230.317
1230.128
1229.902
1229.639
1230.433
1230.317
1230.165
1229.975
1229.749
1230.334
1230.254
1230.138
1229.985
1229.795
1230.2
1230.157
1230.077
1229.961
1229.807
1230.069
1230.025
1229.945
1229.828
1229.983
1229.939
1229.859
1229.931
1229.887
1229.902
1226.077
1225.497
1224.877
1224.214
1223.508
1226.624
1226.086
1225.506
1224.885
1224.222
1227.157
1226.659
1226.121
1225.542
1224.921
1227.685
1227.228
1226.731
1226.193
1225.615
1228.221
1227.804
1227.347
1226.851
1226.315
1228.763
1228.385
1227.969
1227.514
1227.019
1229.263
1228.925
1228.548
1228.133
1227.679
1229.692
1229.392
1229.055
1228.679
1228.265
1230.039
1229.777