/*--------------------------------*- C++ -*----------------------------------*\
| =========                 |                                                 |
| \\      /  F ield         | OpenFOAM: The Open Source CFD Toolbox           |
|  \\    /   O peration     | Version:  2306                                  |
|   \\  /    A nd           | Website:  www.openfoam.com                      |
|    \\/     M anipulation  |                                                 |
\*---------------------------------------------------------------------------*/
FoamFile
{
    version     2.0;
    format      ascii;
    arch        "LSB;label=32;scalar=64";
    class       volVectorField;
    location    "1.2/phiEA";
    object      i;
}
// * * * * * * * * * * * * * * * * * * * * * * * * * * * * * * * * * * * * * //

dimensions      [0 -2 0 0 0 1 0];

internalField   nonuniform List<vector> 
20000
(
(-614.2859 2418.224 2003.12)
(-645.2156 7771.93 2039.875)
(-1228.709 2108.927 1826.18)
(-613.5782 2416.753 5932.032)
(-712.6415 14690.29 2114.227)
(-1281.88 6788.375 1854.885)
(-644.4756 7767.486 6041.194)
(-1142.505 1886.514 1675.088)
(-1227.397 2107.779 5412.233)
(-612.2068 2413.857 9728.834)
(-827.6188 23911.74 2213.439)
(-1398.123 12866.26 1912.502)
(-711.8346 14683.35 6262.029)
(-1180.883 6077.795 1699.525)
(-1280.519 6784.922 5497.701)
(-643.0416 7758.73 9908.565)
(-976.0935 1725.151 1553.892)
(-1141.416 1885.536 4967.847)
(-1224.852 2105.508 8884.624)
(-610.2014 2409.564 13437.07)
(-1002.818 34112.77 2266.254)
(-1597.219 21009.97 1986.666)
(-826.7117 23905.66 6556.351)
(-1265.245 11536.9 1748.476)
(-1396.66 12860.99 5669.289)
(-710.2705 14669.68 10272.21)
(-1004.806 5560.971 1575.577)
(-1179.765 6074.859 5040.699)
(-1277.878 6778.093 9025.764)
(-640.9444 7745.751 13686.21)
(-832.9449 1599.388 1453.248)
(-975.2061 1724.283 4611.06)
(-1139.3 1883.6 8161.943)
(-1221.129 2102.133 12280.05)
(-607.5787 2403.891 15815.72)
(-1233.289 38771.22 2124.55)
(-1902.158 30056.07 2012.796)
(-1001.805 34116.32 6710.49)
(-1410.939 18871.38 1810.595)
(-1595.608 21005.96 5890.026)
(-824.9535 23893.8 10756.29)
(-1068.117 10565.7 1618.991)
(-1264.071 11532.45 5186.678)
(-1393.821 12850.56 9309.227)
(-707.9826 14649.44 14190.46)
(-855.8858 5157.564 1472.927)
(-1003.9 5558.367 4675.763)
(-1177.595 6069.042 8282.436)
(-1274.014 6767.938 12476.16)
(-638.2014 7728.594 16109.88)
(-720.8737 1495.741 1366.865)
(-832.1968 1598.601 4314.539)
(-973.4803 1722.563 7581.102)
(-1136.202 1880.717 11288.76)
(-1216.259 2097.664 14460.95)
(-829.4157 3288.408 20804.1)
(-1459.608 34930.81 2047.52)
(-2305.076 34203.33 1860.262)
(-1232.231 38779.97 6279.966)
(-1636.17 27034.2 1827.376)
(-1900.403 30061.13 5966.344)
(-999.8418 34123.82 11004.99)
(-1177.934 17300.72 1673.665)
(-1409.687 18868.23 5371.863)
(-1592.481 20998.09 9673.722)
(-822.3815 23876.35 14861.41)
(-906.567 9805.616 1512.321)
(-1067.172 10561.77 4805.34)
(-1261.79 11523.65 8523.984)
(-1389.667 12835.07 12870.21)
(-704.9895 14622.68 16705.48)
(-740.0872 4824.749 1384.967)
(-855.1234 5155.201 4373.291)
(-1002.136 5553.2 7688.225)
(-1174.415 6060.378 11456.38)
(-1268.959 6754.486 14692.84)
(-871.236 10573.93 21217.39)
(-633.5981 1407.252 1291.119)
(-720.2252 1495.017 4059.852)
(-830.74 1597.038 7097.92)
(-970.9501 1719.998 10491.45)
(-1132.146 1876.895 13299.86)
(-1660.89 2870.205 19023.31)
(-826.1276 3280.233 19303.45)
(-1644.601 26525.4 2027.383)
(-2701.255 30817.69 1769.152)
(-1458.494 34934.7 6044.914)
(-1936.045 30780.26 1681.356)
(-2303.303 34213.07 5506.11)
(-1230.193 38797.84 10276.24)
(-1348.485 24805.01 1685.788)
(-1634.862 27039.37 5420.895)
(-1897 30071.43 9797.041)
(-996.9728 34135.53 15201.4)
(-994.7173 16067.7 1561.695)
(-1176.939 17298.05 4968.49)
(-1407.253 18862.01 8830.371)
(-1587.904 20986.45 13376.98)
(-819.0158 23853.36 17498.23)
(-782.5929 9177.381 1421.209)
(-905.7759 9802.065 4490.943)
(-1065.334 10553.99 7902.854)
(-1258.446 11510.54 11792.6)
(-1384.23 12814.53 15159.06)
(-962.4644 20014.5 22054.84)
(-650.1893 4540.372 1307.925)
(-739.4272 4822.575 4113.921)
(-853.6384 5150.508 7195.263)
(-999.551 5545.497 10640.59)
(-1170.253 6048.888 13498.23)
(-1732.893 9243.447 19352.44)
(-867.7878 10549.19 19740.37)
(-564.7358 1329.83 1223.607)
(-633.0251 1406.58 3836.377)
(-718.9611 1493.579 6682.548)
(-828.6026 1594.707 9827.738)
(-967.6362 1716.597 12365.64)
(-1546.725 2568.386 17496.93)
(-1654.784 2863.631 17646.04)
(-822.786 3270.931 19558.9)
(-1772.457 16314.68 2027.404)
(-3025.314 23396.91 1735.237)
(-1643.433 26526.2 5981.931)
(-2231.337 27728.43 1592.38)
(-2699.434 30822.69 5231.206)
(-1456.353 34942.73 9876.711)
(-1576.292 28251.66 1547.679)
(-1934.795 30789.66 4981.09)
(-2299.88 34232.73 9024.201)
(-1227.223 38825.1 14167.66)
(-1131.999 23050.63 1571.012)
(-1347.46 24810.05 5003.924)
(-1632.321 27049.83 8909.693)
(-1892.022 30087.11 13545.95)
(-993.22 34151.57 17897.11)
(-856.6672 15046.4 1466.481)
(-993.8886 16065.35 4638.383)
(-1175 17292.78 8173.113)
(-1403.684 18852.8 12219.26)
(-1581.913 20971.06 15759.11)
(-1118.297 32679.34 23163.81)
(-686.9331 8639.817 1341.582)
(-781.91 9174.121 4222.211)
(-904.2345 9795.012 7390.284)
(-1062.637 10542.38 10939.59)
(-1254.067 11493.14 13896.38)
(-1890.419 17543.89 20015.25)
(-958.6844 19976.1 20626.65)
(-579.366 4291.399 1239.314)
(-649.6067 4538.354 3886.596)
(-738.1405 4818.255 6772.183)
(-851.4592 5143.507 9963.346)
(-996.1643 5535.274 12542.24)
(-1598.829 8278.652 17779.86)
(-1726.536 9223.618 18000.07)
(-864.2748 10521.01 20052.16)
(-509.2462 1260.951 1162.728)
(-564.2223 1329.202 3637.071)
(-631.907 1405.244 6317.785)
(-717.1047 1491.432 9256.79)
(-825.8014 1591.613 11587.64)
(-1322.196 2349.167 16269.21)
(-1541.641 2562.71 16225.2)
(-1648.577 2856.043 17874.8)
(-819.3912 3260.503 19813.59)
(-1837.321 5486.485 2030.147)
(-3249.418 14387.49 1725.346)
(-1771.248 16314.57 5980.475)
(-2472.901 21043.77 1557.119)
(-3023.433 23398.66 5128.608)
(-1641.188 26527.98 9766.772)
(-1800.475 25449.12 1462.939)
(-2230.112 27733.4 4713.269)
(-2695.928 30832.79 8562.882)
(-1453.239 34955.08 13599.99)
(-1315.721 26260.36 1440.313)
(-1575.328 28260.58 4588.275)
(-1932.374 30808.56 8172.692)
(-2294.889 34262.44 12456.26)
(-1223.348 38861.9 16655.33)
(-972.2542 21594.97 1473.91)
(-1131.152 23055.48 4665.626)
(-1345.464 24820.21 8230.5)
(-1628.596 27065.68 12328.18)
(-1885.507 30108.26 15957.93)
(-1356.639 46860.67 23673.83)
(-751.0618 14171.08 1383.52)
(-855.9545 15044.29 4357.476)
(-992.2733 16060.71 7634.733)
(-1172.156 17284.94 11316.31)
(-1399.01 18840.59 14402.12)
(-2160.713 28737.59 20866.09)
(-1114.031 32648.43 21789.09)
(-611.7948 8168.656 1270.779)
(-686.3314 8636.793 3987.198)
(-780.578 9167.639 6951.791)
(-901.9717 9784.486 10235.19)
(-1059.104 10526.96 12896.52)
(-1713.457 15736.29 18348.8)
(-1883.548 17513.67 18714.84)
(-954.8172 19932.55 21053.82)
(-522.3405 4069.783 1177.483)
(-578.8442 4289.512 3684.022)
(-648.4697 4534.339 6401.076)
(-736.2505 4811.806 9381.721)
(-848.6029 5134.21 11748.29)
(-1361.213 7576.13 16521.85)
(-1593.595 8261.543 16531.98)
(-1720.059 9200.694 18279.54)
(-860.6973 10489.39 20363.16)
(-463.6046 1198.887 1107.316)
(-508.781 1260.361 3457.246)
(-563.2193 1327.952 5992.226)
(-630.2638 1403.249 8755.086)
(-714.6705 1488.581 10918.09)
(-1128.428 2178.214 15247.03)
(-1318.044 2344.084 15083.47)
(-1536.475 2556.115 16430.88)
(-1642.272 2847.442 18102.92)
(-815.9433 3248.949 29246.57)
(-1837.321 -5486.485 2030.147)
(-3363.163 4837.845 1723.086)
(-1836.092 5486.375 5988.003)
(-2639.959 12936.19 1545.298)
(-3247.49 14387.97 5098.489)
(-1768.929 16314.44 9761.411)
(-1983.561 19310.7 1428.62)
(-2471.675 21045.65 4607.084)
(-3019.815 23402.22 8390.241)
(-1637.926 26530.82 13440.95)
(-1496.444 23655.74 1359.881)
(-1799.545 25453.89 4333.453)
(-2227.746 27743.39 7724.519)
(-2690.825 30848.05 11806.9)
(-1449.181 34971.8 15973.95)
(-1127.156 24607.21 1349.943)
(-1314.93 26268.8 4272.457)
(-1573.457 28278.48 7534.639)
(-1928.837 30837.06 11290.7)
(-2288.372 34302.29 14654)
(-1672.07 53351.35 21737.29)
(-851.2789 20345.74 1389.593)
(-971.5286 21599.63 4379.204)
(-1129.5 23065.26 7678.903)
(-1342.536 24835.58 11395.28)
(-1623.718 27086.98 14530.67)
(-2576.305 41322.94 21118.38)
(-1351.909 46893.5 22233.52)
(-668.4594 13402.94 1309.91)
(-750.4355 14169.16 4112.557)
(-854.5639 15040.12 7176.206)
(-989.901 16053.81 10576.18)
(-1168.428 17274.55 13343.4)
(-1911.801 25820.47 19070.41)
(-2153.107 28716.18 19627.73)
(-1109.652 32615.06 22359.57)
(-551.3857 7748.882 1207.05)
(-611.2567 8165.832 3778.103)
(-685.1567 8630.778 6568.012)
(-778.6209 9157.96 9632.199)
(-899.005 9770.499 12070.53)
(-1447.315 14414.17 17029.72)
(-1707.921 15710.39 17150.75)
(-1876.515 17478.78 19098.44)
(-950.8629 19883.8 21480.53)
(-475.4571 3870.004 1121.232)
(-521.8682 4068.01 3501.363)
(-577.825 4285.758 6070.127)
(-646.7984 4528.345 8871.219)
(-733.772 4803.238 11066.14)
(-1159.618 7027.462 15477.36)
(-1356.958 7560.813 15358.78)
(-1588.264 8241.63 16783.59)
(-1713.462 9174.672 18558.34)
(-857.0556 10454.33 30140.6)
(-425.3215 1142.426 1056.511)
(-463.1797 1198.33 3293.478)
(-507.8718 1259.186 5698.277)
(-561.7442 1326.086 8307.028)
(-628.108 1400.598 10329.48)
(-976.5559 2037.271 14367.44)
(-1124.921 2173.571 14133.72)
(-1313.83 2338.155 15271.62)
(-1531.228 2548.602 16635.98)
(-1635.867 2837.826 26713.84)
(-389.5932 1557.906 20342.74)
(-1772.457 -16314.68 2027.404)
(-3363.163 -4837.845 1723.086)
(-1836.092 -5486.375 5988.003)
(-2724.756 4349.034 1541.868)
(-3361.21 4837.936 5091.521)
(-1833.735 5486.184 9772.602)
(-2109.97 11868.94 1416.626)
(-2638.724 12936.8 4571.451)
(-3243.782 14388.97 8339.189)
(-1765.559 16314.34 13430.41)
(-1643.882 17948.82 1326.988)
(-1982.641 19312.55 4230.267)
(-2469.308 21049.44 7546.789)
(-3014.553 23407.61 11563.52)
(-1633.678 26534.76 15781.17)
(-1279.515 22167.51 1273.542)
(-1495.687 23660.27 4030.714)
(-1797.745 25463.44 7108.709)
(-2224.295 27758.43 10661.2)
(-2684.173 30868.5 13879)
(-1981.521 47986.35 20660.97)
(-985.726 23187.75 1271.741)
(-1126.481 24615.22 4006.401)
(-1313.393 26285.75 7021.043)
(-1570.721 28305.45 10416.46)
(-1924.215 30875.24 13290.62)
(-3128.818 47102.53 19137.28)
(-1667.334 53416.83 19836.53)
(-757.116 19248.33 1314.962)
(-850.6432 20350.21 4130.326)
(-970.113 21609.02 7211.475)
(-1127.076 23080.03 10637.1)
(-1338.7 24856.21 13436.89)
(-2219.674 37179.62 19232.12)
(-2568.071 41360.48 19843.16)
(-1347.078 46938.78 22786.11)
(-602.1873 12717.87 1243.764)
(-667.9004 13401.17 3895.114)
(-749.2124 14165.36 6776.103)
(-852.52 15033.9 9945.42)
(-986.7897 16044.63 12475.24)
(-1596.958 23675.42 17669.78)
(-1905.857 25803.19 17933.04)
(-2145.289 28692.46 20141.64)
(-1105.159 32579.13 22931.49)
(-501.7634 7370.188 1149.127)
(-550.8991 7746.231 3589.793)
(-610.2052 8160.212 6226.301)
(-683.4294 8621.792 9104.114)
(-776.0537 9145.091 11363.16)
(-1228.578 13378.85 15940.37)
(-1442.852 14391.06 15913.95)
(-1702.253 15680.25 17496.76)
(-1869.32 17439.18 19481.67)
(-946.8217 19829.82 31961.17)
(-436.1435 3688.194 1069.679)
(-475.0258 3868.331 3335.097)
(-520.9448 4064.481 5771.501)
(-576.3259 4280.149 8415.681)
(-644.6055 4520.378 10467.14)
(-1002.687 6574.633 14580.08)
(-1156.031 7013.469 14385.6)
(-1352.628 7542.911 15589.25)
(-1582.834 8218.908 17034.62)
(-1706.745 9145.544 27461.49)
(-409.0724 5024.976 21102.05)
(-392.6774 1090.667 1009.647)
(-424.9308 1141.9 3143.249)
(-462.3486 1197.222 5430.394)
(-506.5337 1257.432 7902.239)
(-559.8079 1323.606 9803.586)
(-858.248 1916.904 13594.2)
(-973.5082 2032.978 13316.97)
(-1121.362 2168.139 14308.07)
(-1309.553 2331.379 15459.26)
(-1525.9 2540.17 24541.59)
(-783.7916 1363.114 18569.68)
(-352.086 1375.218 21945.28)
(-1644.601 -26525.4 2027.383)
(-3249.418 -14387.49 1725.346)
(-1771.248 -16314.57 5980.475)
(-2724.756 -4349.034 1541.868)
(-3361.21 -4837.936 5091.521)
(-1833.735 -5486.184 9772.602)
(-2174.063 3989.873 1412.946)
(-2723.515 4349.172 4561.1)
(-3357.456 4838.124 8327.213)
(-1830.311 5485.928 13444.66)
(-1745.572 11031.18 1315.291)
(-2109.05 11869.57 4194.208)
(-2636.341 12938.03 7487.084)
(-3238.392 14390.49 11491.18)
(-1761.172 16314.29 15766.46)
(-1403.75 16819.42 1242.135)
(-1643.136 17950.6 3931.888)
(-1980.86 19316.27 6936.316)
(-2465.859 21055.15 10411.65)
(-3007.698 23414.85 13588.48)
(-2234.271 36396.5 20333.13)
(-1117.976 20889.8 1199.053)
(-1278.872 22171.82 3776.849)
(-1494.218 23669.36 6617.227)
(-1795.116 25477.82 9818.74)
(-2219.793 27778.55 12540.38)
(-3671.439 42364.34 17961.59)
(-1976.65 48017.5 18480.02)
(-876.1546 21940.24 1202.692)
(-985.1369 23195.37 3775.992)
(-1125.17 24631.3 6587.923)
(-1311.143 26311.27 9712.148)
(-1567.143 28341.54 12267.58)
(-2632.17 42400.01 17361.33)
(-3120.835 47169.42 17478.19)
(-1662.637 53501.49 19783.27)
(-681.7468 18268.79 1248.023)
(-756.5497 19252.62 3909.9)
(-849.4017 20359.2 6804.982)
(-968.0329 21623.17 9994.176)
(-1123.896 23099.82 12547.6)
(-1830.314 34119.25 17786.43)
(-2213.486 37216.22 18067.8)
(-2559.642 41408.92 20345.35)
(-1342.146 46996.56 23344.22)
(-547.8119 12099.33 1183.721)
(-601.6826 12716.23 3699.609)
(-666.8076 13397.67 6420.623)
(-747.4132 14159.69 9394.684)
(-849.8379 15025.64 11735.07)
(-1348.756 21990.48 16521.6)
(-1592.22 23660.54 16612.14)
(-1899.738 25783.79 18397.39)
(-2137.258 28666.31 20656.9)
(-1100.553 32540.51 34319.81)
(-460.1751 7025.334 1096.082)
(-501.3196 7367.688 3418.544)
(-549.9475 7740.952 5918.343)
(-608.658 8151.812 8633.634)
(-681.1624 8609.84 10743.39)
(-1060.543 12522.79 15007.6)
(-1224.833 13357.77 14893.59)
(-1438.286 14364.03 16231.42)
(-1696.453 15645.84 17842.46)
(-1861.963 17394.84 28980.76)
(-451.7396 9603.661 22666.74)
(-402.628 3521.468 1022.141)
(-435.7472 3686.611 3182.639)
(-474.1822 3865.001 5499.493)
(-519.5856 4059.207 8004.398)
(-574.3577 4272.694 9932.411)
(-880.8186 6187.595 13792.2)
(-999.5752 6561.692 13550.15)
(-1152.383 6997.067 14599.39)
(-1348.221 7522.421 15819.19)
(-1577.307 8193.371 25198.63)
(-817.4823 4403.512 19214.9)
(-368.96 4462.992 22992.98)
(-364.433 1042.921 966.2006)
(-392.3162 1090.167 3004.607)
(-424.166 1140.851 5184.503)
(-461.1246 1195.566 7533.14)
(-504.7763 1255.1 9328.275)
(-764.8998 1811.565 12903.31)
(-855.5487 1912.901 12599.28)
(-970.4182 2027.944 13479.93)
(-1117.754 2161.918 14481.95)
(-1305.214 2323.757 22800.73)
(-734.5572 1220.999 17048.01)
(-714.0783 1206.478 20016.11)
(-312.4264 1138.826 22924.32)
(-1459.608 -34930.81 2047.52)
(-3025.314 -23396.91 1735.237)
(-1643.433 -26526.2 5981.931)
(-2639.959 -12936.19 1545.298)
(-3247.49 -14387.97 5098.489)
(-1768.929 -16314.44 9761.411)
(-2174.063 -3989.873 1412.946)
(-2723.515 -4349.172 4561.1)
(-3357.456 -4838.124 8327.213)
(-1830.311 -5485.928 13444.66)
(-1797.095 3708.106 1311.627)
(-2173.142 3990.021 4183.149)
(-2721.122 4349.448 7469.722)
(-3351.999 4838.415 11474.04)
(-1825.852 5485.614 15782.38)
(-1489.391 10336.82 1230.871)
(-1744.829 11031.79 3896.763)
(-2107.271 11870.83 6876.088)
(-2632.871 12939.88 10327.77)
(-3231.371 14392.55 13501.87)
(-2408.916 22373.88 20286.69)
(-1225.791 15850.06 1169.082)
(-1403.118 16821.13 3682.53)
(-1641.691 17954.18 6452.264)
(-1978.262 19321.85 9577.033)
(-2461.362 21062.78 12243.24)
(-4114.836 32122.56 17516.45)
(-2229.206 36405.5 18028.34)
(-993.2635 19766.86 1133.416)
(-1117.416 20893.9 3557.646)
(-1277.623 22180.46 6204.623)
(-1492.071 23683.02 9145.745)
(-1791.683 25497.02 11555.65)
(-3037.717 38126.16 16234.13)
(-3663.444 42398.77 16076.24)
(-1971.906 48058.67 18070.48)
(-788.645 20826.27 1140.877)
(-875.6312 21947.5 3572.405)
(-983.99 23210.65 6212.482)
(-1123.247 24655.5 9117.73)
(-1308.198 26345.41 11443)
(-2143.996 38922.1 16028.14)
(-2626.486 42463.11 15857.01)
(-3112.9 47253.21 17444.92)
(-1657.98 53605.46 19727.99)
(-619.9847 17383.75 1187.347)
(-681.2364 18272.9 3712.079)
(-755.443 19261.24 6444.685)
(-847.576 20372.76 9434.703)
(-965.3034 21642.12 11793.17)
(-1536.687 31709.24 16611.18)
(-1825.447 34154.18 16707.04)
(-2207.129 37262.66 18522.25)
(-2551.016 41468.34 20852.5)
(-1337.111 47066.92 34905.58)
(-502.2706 11535.66 1128.791)
(-547.352 12097.8 3522.045)
(-600.6951 12712.98 6100.785)
(-665.1991 13392.44 8905.08)
(-745.051 14152.14 11088.53)
(-1161.563 20594.33 15542.84)
(-1344.804 21977.24 15530.36)
(-1587.347 23643.7 17038.75)
(-1893.445 25762.17 18862.97)
(-2129.015 28637.62 30915.77)
(-525.4984 16052.58 24742.37)
(-424.7342 6708.917 1047.2)
(-459.7674 7022.969 3261.64)
(-500.4508 7362.71 5638.101)
(-548.5463 7733.06 8209.382)
(-606.6262 8140.636 10191)
(-930.8445 11790.08 14190.4)
(-1057.302 12503.33 14020.53)
(-1221.004 13333.06 15188.47)
(-1433.619 14333.08 16548.62)
(-1690.521 15607.12 26533.46)
(-891.5086 8439.401 20543.9)
(-406.2283 8713.436 25218.1)
(-373.6348 3367.627 978.0821)
(-402.2616 3519.966 3041.987)
(-434.9711 3683.458 5249.917)
(-472.9395 3860.023 7629.565)
(-517.8003 4052.195 9449.425)
(-784.8069 5848.667 13088.83)
(-878.0654 6175.528 12816.9)
(-996.4122 6546.49 13750.15)
(-1148.675 6978.253 14812.7)
(-1343.74 7499.337 23395.4)
(-759.126 3947.806 17618.95)
(-743.4132 3921.569 20920.32)
(-326.1661 3715.847 24225.47)
(-339.6902 998.6486 925.7532)
(-364.0974 1042.446 2876.016)
(-391.6085 1089.172 4957.439)
(-423.039 1139.283 7194.161)
(-459.5163 1193.365 8894.695)
(-689.6889 1717.832 12278.84)
(-762.4751 1807.81 11958.23)
(-852.813 1908.199 12752.53)
(-967.286 2022.169 13642.47)
(-1114.095 2154.909 21356.13)
(-629.4998 1117.425 15831)
(-676.6337 1081.87 18358.26)
(-640.3107 1001.429 20898.26)
(-271.0436 854.7556 23698.41)
(-1233.289 -38771.22 2124.55)
(-2701.255 -30817.69 1769.152)
(-1458.494 -34934.7 6044.914)
(-2472.901 -21043.77 1557.119)
(-3023.433 -23398.66 5128.608)
(-1641.188 -26527.98 9766.772)
(-2109.97 -11868.94 1416.626)
(-2638.724 -12936.8 4571.451)
(-3243.782 -14388.97 8339.189)
(-1765.559 -16314.34 13430.41)
(-1797.095 -3708.106 1311.627)
(-2173.142 -3990.021 4183.149)
(-2721.122 -4349.448 7469.722)
(-3351.999 -4838.415 11474.04)
(-1825.852 -5485.614 15782.38)
(-1532.766 3474.646 1227.308)
(-1796.352 3708.253 3885.767)
(-2171.361 3990.316 6857.627)
(-2717.637 4349.866 10303.36)
(-3344.89 4838.81 13481.23)
(-2497.517 7522.684 20298.99)
(-1300.095 9741.014 1158.281)
(-1488.763 10337.41 3648.722)
(-1743.39 11033.02 6393.673)
(-2104.676 11872.72 9492.624)
(-2628.347 12942.36 12143.36)
(-4421.349 19741.42 17380.43)
(-2403.696 22375.25 17931.67)
(-1088.727 14998.24 1104.796)
(-1225.242 15851.69 3467.661)
(-1401.893 16824.55 6047.265)
(-1639.58 17959.55 8914.618)
(-1974.872 19329.31 11268.13)
(-3369.021 28897.41 15787.15)
(-4106.659 32135.04 15537.66)
(-2224.308 36418.43 17474.18)
(-893.8256 18764.07 1074.748)
(-992.7663 19770.77 3364.343)
(-1116.326 20902.13 5847.993)
(-1275.795 22193.45 8580.276)
(-1489.264 23701.26 10768.61)
(-2452.154 34995.84 14962.93)
(-3032.293 38159.26 14531.49)
(-3655.645 42441.96 15730.26)
(-1967.289 48109.86 17659.19)
(-717.0139 19819.45 1084.931)
(-788.174 20833.2 3390.031)
(-874.6108 21962.06 5880.458)
(-982.3071 23233.65 8602.09)
(-1120.73 24687.86 10746.73)
(-1789.796 36181.61 14953.44)
(-2139.593 38981.34 14639.06)
(-2620.814 42541.46 15827.58)
(-3105.013 47354.02 17409.73)
(-1653.364 53728.89 28597.87)
(-568.2924 16576.77 1131.905)
(-619.5203 17387.71 3532.669)
(-680.2379 18281.17 6121.105)
(-753.8142 19274.23 8938.507)
(-845.1791 20390.91 11136.38)
(-1319.846 29708.84 15614.24)
(-1532.654 31742.49 15601.53)
(-1820.449 34198.17 17124.83)
(-2200.604 37319.01 18981.2)
(-2542.19 41538.81 31194.32)
(-641.5771 23969.38 25272.32)
(-463.4801 11018.16 1078.214)
(-501.8486 11534.23 3359.523)
(-546.4515 12094.76 5810.107)
(-599.2405 12708.12 8464.314)
(-663.0861 13385.47 10513.51)
(-1018.323 19397.44 14687.93)
(-1158.157 20582.33 14608.86)
(-1340.743 21962.16 15927.02)
(-1582.339 23624.8 17466.51)
(-1886.977 25738.24 28222.68)
(-1020.108 14154.2 22289.14)
(-472.4207 15406.12 28416.87)
(-394.0856 6416.813 1001.919)
(-424.3575 6706.674 3116.978)
(-458.9689 7018.259 5381.172)
(-499.1709 7355.264 7823.102)
(-546.7054 7722.556 9692.676)
(-828.967 11147.75 13462.01)
(-927.9833 11771.95 13256.01)
(-1053.992 12480.44 14296.68)
(-1217.094 13304.67 15483.12)
(-1428.849 14298.14 24603.65)
(-813.4255 7577.4 18795.28)
(-808.4191 7678.828 22843.25)
(-356.7455 7434.106 27114.77)
(-348.2404 3224.942 937.0744)
(-373.2945 3366.198 2911.569)
(-401.5437 3516.973 5019.529)
(-433.8273 3678.744 7285.464)
(-471.3064 3853.403 9009.067)
(-707.5094 5546.923 12453.47)
(-782.3357 5837.346 12162.51)
(-875.268 6161.326 13005.11)
(-993.1981 6529.022 13949.7)
(-1144.906 6957.021 21903.51)
(-647.9479 3614.829 16349.86)
(-698.2107 3519.585 19163.63)
(-664.3082 3272.655 22030.99)
(-281.1805 2786.813 25207.38)
(-317.7904 957.4186 887.9634)
(-339.3772 998.1957 2756.249)
(-363.4396 1041.499 4746.715)
(-390.5651 1087.683 6880.978)
(-421.5574 1137.199 8496.343)
(-627.8357 1633.36 11709.13)
(-687.4879 1714.295 11378.94)
(-760.0184 1803.394 12103.01)
(-850.041 1902.798 12905.39)
(-964.1119 2015.654 20116.05)
(-537.5773 1036.518 14823.03)
(-582.5136 990.7074 17035.89)
(-615.3485 898.8509 19154.06)
(-563.2679 753.3866 21598.72)
(-228.4386 535.2397 16553.48)
(-1002.818 -34112.77 2266.254)
(-2305.076 -34203.33 1860.262)
(-1232.231 -38779.97 6279.966)
(-2231.337 -27728.43 1592.38)
(-2699.434 -30822.69 5231.206)
(-1456.353 -34942.73 9876.711)
(-1983.561 -19310.7 1428.62)
(-2471.675 -21045.65 4607.084)
(-3019.815 -23402.22 8390.241)
(-1637.926 -26530.82 13440.95)
(-1745.572 -11031.18 1315.291)
(-2109.05 -11869.57 4194.208)
(-2636.341 -12938.03 7487.084)
(-3238.392 -14390.49 11491.18)
(-1761.172 -16314.29 15766.46)
(-1532.766 -3474.646 1227.308)
(-1796.352 -3708.253 3885.767)
(-2171.361 -3990.316 6857.627)
(-2717.637 -4349.866 10303.36)
(-3344.89 -4838.81 13481.23)
(-2497.517 -7522.684 20298.99)
(-1337.721 3274.353 1154.847)
(-1532.139 3474.789 3638.037)
(-1794.914 3708.546 6375.349)
(-2168.764 3990.759 9466.764)
(-2713.093 4350.425 12114.28)
(-4576.904 6636.673 17346.54)
(-2492.216 7522.636 17926.05)
(-1154.511 9217.518 1094.452)
(-1299.549 9741.583 3435.255)
(-1487.545 10338.6 5990.909)
(-1741.288 11034.87 8832.588)
(-2101.29 11875.24 11167.78)
(-3597.991 17753.2 15636.35)
(-4412.994 19745.15 15367.45)
(-2398.659 22377.97 17325.98)
(-979.5644 14237.59 1047.391)
(-1088.24 14999.8 3278.432)
(-1224.175 15854.96 5697.917)
(-1400.101 16829.68 8359.896)
(-1636.823 17966.7 10493.81)
(-2703.449 26519.82 14533.37)
(-3363.65 28910 14004.66)
(-4098.742 32150.91 15066.57)
(-2219.576 36435.28 16919.35)
(-812.4973 17857.66 1021.711)
(-893.3787 18767.81 3191.444)
(-991.7987 19778.62 5533.21)
(-1114.73 20914.48 8091.128)
(-1273.404 22210.78 10106.97)
(-2038.321 32531.64 13946.69)
(-2448.016 35027.13 13393.97)
(-3026.988 38200.26 14220.09)
(-3648.043 42493.9 15382.58)
(-1962.8 48171.02 24990.61)
(-657.0954 18901.15 1033.874)
(-716.5859 19826.07 3224.868)
(-787.2549 20847.1 5582.791)
(-873.1124 21983.96 8145.762)
(-980.1021 23264.4 10142.44)
(-1533.319 33905.75 14045.84)
(-1786.171 36237.42 13657.28)
(-2135.198 39054.62 14611.61)
(-2615.153 42635.19 15796.4)
(-3097.174 47472 25259.97)
(-802.66 27615.65 18965.79)
(-524.2835 15835.51 1080.906)
(-567.8666 16580.57 3368.649)
(-618.611 17395.64 5827.442)
(-678.7674 18293.62 8492.617)
(-751.6747 19291.61 10553.63)
(-1155.59 27991.68 14746.3)
(-1316.385 29740.51 14664.22)
(-1528.515 31784.16 15990.19)
(-1815.319 34251.27 17546.78)
(-2193.906 37385.33 28390.41)
(-1223.699 21197.76 22609.38)
(-584.1107 25487.42 29798.7)
(-429.9485 10540.17 1031.399)
(-463.0905 11016.81 3209.811)
(-501.0217 11531.38 5543.888)
(-545.1244 12090.23 8063.517)
(-597.3288 12701.65 9995.64)
(-906.2778 18346.88 13927.57)
(-1015.323 19386.41 13804.32)
(-1154.659 20568.59 14980.62)
(-1336.571 21945.17 16324.76)
(-1577.194 23603.77 26127.65)
(-908.6072 12730.67 20334.28)
(-924.5101 13627.3 25600.7)
(-412.8519 14220.34 31845.84)
(-367.2495 6145.779 959.7935)
(-393.7359 6414.68 2982.915)
(-423.6193 6702.204 5144.149)
(-457.7916 7011.211 7468.771)
(-497.4884 7345.352 9238.774)
(-747.0685 10575.38 12804.88)
(-826.4025 11130.75 12574.81)
(-925.0616 11750.59 13516.1)
(-1050.613 12454.11 14572.61)
(-1213.1 13272.57 23015.93)
(-688.8484 6944.59 17419.23)
(-746.3206 6902.466 20877.86)
(-717.8988 6567.248 24552.62)
(-303.7422 5665.288 28720.84)
(-325.7671 3092.033 898.7689)
(-347.9232 3223.58 2790.13)
(-372.6274 3363.351 4805.783)
(-400.4851 3512.497 6967.657)
(-432.3235 3672.474 8604.655)
(-643.9686 5274.871 11874.15)
(-705.2675 5536.254 11571.56)
(-779.8255 5824.004 12340.41)
(-872.4264 6144.985 13192.91)
(-989.933 6509.284 20625.18)
(-552.346 3354.321 15302)
(-598.7646 3224.699 17770.59)
(-633.1369 2939.965 20166.63)
(-581.0592 2459.826 22918.9)
(-234.6269 1706.875 17663.9)
(-298.2347 918.8817 852.5455)
(-317.4976 956.9863 2644.305)
(-338.7633 997.2933 4550.346)
(-362.469 1040.083 6590.194)
(-389.1926 1085.704 8128.167)
(-575.9628 1556.504 11185.66)
(-625.8211 1630.015 10850.56)
(-685.2582 1710.128 11516.19)
(-757.5297 1798.314 12247.41)
(-847.2328 1896.698 19027.71)
(-465.1721 969.7382 13958.98)
(-498.0969 919.3591 15943.55)
(-532.9116 823.5455 17765.15)
(-551.3091 676.8426 19787.28)
(-483.8652 473.3575 15086.54)
(-1669.262 2642.488 52518.12)
(-827.6188 -23911.74 2213.439)
(-1902.158 -30056.07 2012.796)
(-1001.805 -34116.32 6710.49)
(-1936.045 -30780.26 1681.356)
(-2303.303 -34213.07 5506.11)
(-1230.193 -38797.84 10276.24)
(-1800.475 -25449.12 1462.939)
(-2230.112 -27733.4 4713.269)
(-2695.928 -30832.79 8562.882)
(-1453.239 -34955.08 13599.99)
(-1643.882 -17948.82 1326.988)
(-1982.641 -19312.55 4230.267)
(-2469.308 -21049.44 7546.789)
(-3014.553 -23407.61 11563.52)
(-1633.678 -26534.76 15781.17)
(-1489.391 -10336.82 1230.871)
(-1744.829 -11031.79 3896.763)
(-2107.271 -11870.83 6876.088)
(-2632.871 -12939.88 10327.77)
(-3231.371 -14392.55 13501.87)
(-2408.916 -22373.88 20286.69)
(-1337.721 -3274.353 1154.847)
(-1532.139 -3474.789 3638.037)
(-1794.914 -3708.546 6375.349)
(-2168.764 -3990.759 9466.764)
(-2713.093 -4350.425 12114.28)
(-4576.904 -6636.673 17346.54)
(-2492.216 -7522.636 17926.05)
(-1187.82 3098.382 1091.154)
(-1337.176 3274.491 3424.961)
(-1530.923 3475.074 5973.117)
(-1792.814 3708.986 8806.955)
(-2165.376 3991.35 11137.05)
(-3714.185 5967.126 15592.29)
(-4568.451 6637.437 15322.61)
(-2487.103 7522.909 17304.31)
(-1038.644 8750.086 1037.485)
(-1154.028 9218.064 3247.402)
(-1298.489 9742.722 5643.918)
(-1485.764 10340.38 8281.038)
(-1738.544 11037.33 10396.36)
(-2876.829 16289.78 14383.7)
(-3592.603 17757.32 13825.94)
(-4404.926 19750.02 14852.86)
(-2393.804 22382.04 16720.12)
(-890.3324 13550.06 995.5346)
(-979.1274 14239.08 3109.337)
(-1087.294 15002.91 5389.96)
(-1222.612 15859.86 7881.005)
(-1397.758 16836.52 9845.025)
(-2240.76 24650.65 13537.55)
(-2699.398 26531.94 12892.76)
(-3358.441 28925.63 13580.96)
(-4091.086 32170.14 14594.75)
(-2215.01 36456 23675.33)
(-744.495 17030.89 973.358)
(-812.0917 17861.24 3035.041)
(-892.5083 18775.3 5251.407)
(-990.3799 19790.39 7659.052)
(-1112.641 20930.97 9534.317)
(-1742.891 30486.19 13092.18)
(-2034.936 32561.22 12484.47)
(-2443.966 35065.69 13107.29)
(-3021.801 38249.13 13907.13)
(-3640.637 42554.56 21786.33)
(-958.4992 24458.8 15546.69)
(-606.102 18057.42 986.9592)
(-656.7035 18907.49 3074.055)
(-715.75 19839.35 5313.012)
(-785.9042 20867.99 7736.384)
(-871.148 22013.24 9607.405)
(-1340.914 31951.17 13258.01)
(-1530.219 33958.52 12828.27)
(-1782.553 36306.3 13631.47)
(-2130.809 39142.04 14582.54)
(-2609.505 42744.43 22920.39)
(-1507.692 24446.43 16786.97)
(-759.1832 30140.08 18643.71)
(-486.2562 15150.55 1033.739)
(-523.8909 15839.16 3217.703)
(-567.0325 16588.19 5558.8)
(-617.2711 17407.59 8087.729)
(-676.8348 18310.29 10029.74)
(-1027.732 26482.93 13976.13)
(-1152.55 28021.87 13848.46)
(-1312.834 29780.07 15028.63)
(-1524.269 31834.31 16382.72)
(-1810.055 34313.53 26241.01)
(-1060.884 19093.55 20569.2)
(-1121.749 22619.8 26697.07)
(-517.5122 27878.64 35786.08)
(-400.5996 10096.45 987.8717)
(-429.5872 10538.89 3071.169)
(-462.3267 11014.13 5298.508)
(-499.8022 11527.12 7696.255)
(-543.3793 12084.18 9524.545)
(-816.3904 17409.79 13242.74)
(-903.5945 18336.65 13089.01)
(-1012.243 19373.74 14154.68)
(-1151.068 20553.05 15353.39)
(-1332.29 21926.18 24416.3)
(-760.874 11679.62 18815.69)
(-833.0894 12272.83 23334.1)
(-816.7979 12612.67 28690.05)
(-346.1892 11937.6 35406.4)
(-343.5064 5893.221 920.4592)
(-366.9237 6143.747 2858.14)
(-393.0502 6410.429 4924.369)
(-422.5303 6695.514 7141.73)
(-456.2434 7001.827 8822.254)
(-679.8023 10058.94 12206.28)
(-744.7445 10559.36 11960.41)
(-823.7846 11110.69 12820.81)
(-922.0798 11725.97 13775.99)
(-1047.164 12424.3 21660.13)
(-585.153 6448.138 16289.49)
(-635.1186 6330.041 19335.34)
(-673.1089 5909.209 22423.76)
(-620.7787 5015.201 26002.75)
(-248.022 3354.497 20326.55)
(-305.7012 2967.783 862.8741)
(-325.4703 3090.733 2676.647)
(-347.3007 3220.866 4606.645)
(-371.643 3359.092 6672.667)
(-399.0925 3506.543 8231.008)
(-590.695 5027.257 11342.06)
(-641.9174 5264.781 11032.81)
(-702.9906 5523.664 11740.28)
(-777.2764 5808.634 12517.92)
(-869.5409 6126.502 19504.67)
(-477.5582 3139.072 14405.47)
(-511.1281 2993.534 16623.58)
(-546.346 2695.051 18690.79)
(-564.6026 2211.704 20969.87)
(-494.8078 1511.041 16060.18)
(-1698.625 7963.469 55987.11)
(-280.637 882.7541 819.261)
(-297.9599 918.4685 2539.346)
(-316.9228 956.1249 4366.707)
(-337.8572 995.9437 6319.092)
(-361.192 1038.2 7786.2)
(-531.7364 1486.039 10701.8)
(-574.1065 1553.331 10365.13)
(-623.7805 1626.07 10981.03)
(-683 1705.331 11653.07)
(-755.0092 1792.573 18056.48)
(-408.6838 912.6577 13201.41)
(-431.0052 860.3955 15009.05)
(-456.5038 764.507 16619.98)
(-481.1505 620.4513 18345.91)
(-485.2359 425.8139 13818.62)
(-3594.831 2348.857 47935.48)
(-1545.846 1770.414 31006.34)
(-712.6415 -14690.29 2114.227)
(-1597.219 -21009.97 1986.666)
(-826.7117 -23905.66 6556.351)
(-1636.17 -27034.2 1827.376)
(-1900.403 -30061.13 5966.344)
(-999.8418 -34123.82 11004.99)
(-1576.292 -28251.66 1547.679)
(-1934.795 -30789.66 4981.09)
(-2299.88 -34232.73 9024.201)
(-1227.223 -38825.1 14167.66)