/*--------------------------------*- C++ -*----------------------------------*\
| =========                 |                                                 |
| \\      /  F ield         | OpenFOAM: The Open Source CFD Toolbox           |
|  \\    /   O peration     | Version:  2306                                  |
|   \\  /    A nd           | Website:  www.openfoam.com                      |
|    \\/     M anipulation  |                                                 |
\*---------------------------------------------------------------------------*/
FoamFile
{
    version     2.0;
    format      ascii;
    arch        "LSB;label=32;scalar=64";
    class       volScalarField;
    location    "1.2/phiEA";
    object      phi;
}
// * * * * * * * * * * * * * * * * * * * * * * * * * * * * * * * * * * * * * //

dimensions      [1 2 -3 0 0 -1 0];

internalField   nonuniform List<scalar> 
20000
(
-0.004905062
-0.005043246
-0.004554042
-0.004900484
-0.005349173
-0.004674552
-0.005038584
-0.004202943
-0.004549868
-0.004891503
-0.005882692
-0.004941949
-0.00534434
-0.004310744
-0.004670312
-0.005029438
-0.003901182
-0.004199114
-0.004541671
-0.004878246
-0.006715558
-0.005409767
-0.005877632
-0.004550245
-0.004937577
-0.005334859
-0.003999762
-0.004306859
-0.004661986
-0.005015936
-0.003645175
-0.00389763
-0.004191588
-0.00452956
-0.00486079
-0.007831993
-0.006142519
-0.006710378
-0.004969995
-0.005405226
-0.005867706
-0.004218952
-0.004546249
-0.00492899
-0.005320861
-0.003736569
-0.00399616
-0.004299222
-0.004649682
-0.004998155
-0.003425213
-0.003641853
-0.003890642
-0.004180458
-0.004513602
-0.004842096
-0.008931056
-0.007127256
-0.007827136
-0.00562861
-0.006137918
-0.006700219
-0.004603516
-0.004965856
-0.005396304
-0.005853046
-0.003939893
-0.004215251
-0.00453839
-0.004916299
-0.005302424
-0.003510684
-0.003733202
-0.003989074
-0.004287928
-0.004633469
-0.004979113
-0.003233247
-0.003422089
-0.003635313
-0.003880302
-0.004165785
-0.004496506
-0.004826117
-0.009828039
-0.008096994
-0.008926376
-0.006514806
-0.007123004
-0.007817638
-0.005207564
-0.005624433
-0.006128881
-0.006685223
-0.00429689
-0.00459969
-0.004957716
-0.005383114
-0.005833737
-0.003700913
-0.003936436
-0.004207968
-0.004526765
-0.004899573
-0.005282677
-0.003313662
-0.003507519
-0.003726573
-0.003978587
-0.004273036
-0.004616098
-0.004962793
-0.003063157
-0.003230296
-0.003415934
-0.00362563
-0.003866662
-0.004150058
-0.004481897
-0.004809924
-0.01044679
-0.008888267
-0.009823405
-0.007387482
-0.008092951
-0.008917239
-0.006020945
-0.006510963
-0.007114671
-0.007803648
-0.004858047
-0.005203711
-0.005616219
-0.006115525
-0.006665473
-0.004035106
-0.00429332
-0.004592159
-0.004945673
-0.005365728
-0.005813051
-0.003492697
-0.003697665
-0.003929628
-0.004197187
-0.004511436
-0.00488165
-0.005265666
-0.003139147
-0.003310672
-0.003501281
-0.003716756
-0.003964753
-0.004257075
-0.004601215
-0.004946213
-0.002910541
-0.00306036
-0.003224478
-0.003406815
-0.00361285
-0.003852037
-0.004136623
-0.004467096
-0.004793518
-0.01076031
-0.009433961
-0.01044216
-0.008099288
-0.008884301
-0.009814366
-0.006821945
-0.007383842
-0.008085037
-0.008903801
-0.005614068
-0.006017407
-0.006503421
-0.007102378
-0.007785255
-0.004560707
-0.004854456
-0.005196126
-0.005604068
-0.006097919
-0.006644316
-0.003807365
-0.004031754
-0.004286288
-0.004581009
-0.004929787
-0.005347093
-0.00579513
-0.00330838
-0.003489631
-0.003691262
-0.003919544
-0.004182963
-0.004495002
-0.004866214
-0.005248299
-0.002982595
-0.003136315
-0.003304778
-0.003492039
-0.003703799
-0.003949919
-0.004243403
-0.004586098
-0.004929373
-0.002772159
-0.002907883
-0.003054844
-0.003215855
-0.003394775
-0.003599144
-0.003839546
-0.004123016
-0.004452105
-0.004776901
-0.01076031
-0.009710409
-0.01075567
-0.008589983
-0.009430017
-0.01043312
-0.00747518
-0.008095729
-0.008876544
-0.009801081
-0.006358639
-0.006818601
-0.007376709
-0.008073378
-0.008886153
-0.005269104
-0.005610776
-0.006010457
-0.006492283
-0.007086199
-0.007765579
-0.004302473
-0.004557338
-0.004847383
-0.005184898
-0.005588041
-0.006079049
-0.006626017
-0.003605928
-0.003804203
-0.004025146
-0.004275869
-0.004566293
-0.004912753
-0.005330951
-0.005776735
-0.0031431
-0.003305475
-0.003483583
-0.003681775
-0.003906233
-0.00416771
-0.004480854
-0.004850458
-0.005230576
-0.002840667
-0.002979904
-0.003130727
-0.003296041
-0.003479837
-0.003689902
-0.003937217
-0.004229521
-0.004570749
-0.004912274
-0.002645624
-0.002769628
-0.002902639
-0.003046664
-0.003204467
-0.003381859
-0.003587438
-0.003826898
-0.004109238
-0.004436925
-0.004600203
-0.01044679
-0.009710409
-0.01075567
-0.008838499
-0.009706471
-0.01074662
-0.007925413
-0.008586451
-0.009422307
-0.01041985
-0.006965825
-0.007471915
-0.008088758
-0.008865123
-0.009783644
-0.005966834
-0.006355531
-0.00681204
-0.007366186
-0.00805805
-0.008867289
-0.004969979
-0.005266019
-0.005604303
-0.006000185
-0.006477614
-0.007068883
-0.007749026
-0.004074262
-0.004299297
-0.004550698
-0.004836905
-0.00517008
-0.005570855
-0.006062722
-0.00660726
-0.003425389
-0.003602934
-0.003797965
-0.004015351
-0.004262113
-0.00455051
-0.004898003
-0.005314381
-0.005757864
-0.002993302
-0.003140341
-0.003299744
-0.003474618
-0.003669246
-0.003891954
-0.00415458
-0.004466418
-0.004834383
-0.005212498
-0.002710906
-0.002838104
-0.002974592
-0.00312244
-0.003284501
-0.003466745
-0.003678004
-0.003924321
-0.00421543
-0.004555167
-0.004730028
-0.002529118
-0.002643209
-0.002764631
-0.002894859
-0.003035856
-0.003192245
-0.003370829
-0.003575587
-0.003814094
-0.00409529
-0.004275541
-0.004243381
-0.009828039
-0.009433961
-0.01044216
-0.008838499
-0.009706471
-0.01074662
-0.008153406
-0.008834975
-0.009698771
-0.01073333
-0.007384286
-0.007922175
-0.008579534
-0.009410956
-0.01040243
-0.006535819
-0.006962791
-0.007465511
-0.008078479
-0.008850114
-0.00976501
-0.005627487
-0.005963923
-0.006349426
-0.006802352
-0.00735234
-0.008041655
-0.008851718
-0.004705832
-0.004967072
-0.005259947
-0.005594728
-0.005986648
-0.006461904
-0.007054304
-0.007732518
-0.003869836
-0.004071257
-0.004293033
-0.004540855
-0.00482307
-0.005154185
-0.005555987
-0.006045977
-0.00658804
-0.003261821
-0.003422546
-0.003597025
-0.003788715
-0.004002414
-0.004247354
-0.004536844
-0.004882865
-0.005297381
-0.005738516
-0.002856378
-0.002990676
-0.003134895
-0.003291244
-0.003462774
-0.003655802
-0.003879666
-0.004141186
-0.004451693
-0.004817989
-0.005018951
-0.002591442
-0.002708461
-0.002833044
-0.002966712
-0.003111491
-0.003272116
-0.003455537
-0.003665926
-0.003911234
-0.00420113
-0.004389134
-0.004357983
-0.002421237
-0.002526811
-0.00263844
-0.002757216
-0.002884577
-0.003024256
-0.00318181
-0.003359664
-0.003563591
-0.003801133
-0.003947043
-0.003949976
-0.003868693
-0.008931056
-0.008888267
-0.009823405
-0.008589983
-0.009430017
-0.01043312
-0.008153406
-0.008834975
-0.009698771
-0.01073333
-0.007596178
-0.008150176
-0.008828074
-0.009687437
-0.01071589
-0.006927943
-0.007381279
-0.007915826
-0.008569337
-0.009396042
-0.01038381
-0.006163682
-0.00653298
-0.006956837
-0.007456061
-0.008064959
-0.008834064
-0.009749755
-0.00532799
-0.005624747
-0.005958201
-0.006340406
-0.006789597
-0.007337522
-0.008028114
-0.008836489
-0.004469319
-0.004703083
-0.004961348
-0.005250961
-0.005582103
-0.005972145
-0.006448678
-0.007039752
-0.007716054
-0.003684693
-0.003866983
-0.004065325
-0.004283743
-0.004527854
-0.004808224
-0.005140436
-0.005540742
-0.006028813
-0.006568353
-0.003112353
-0.003259115
-0.003416932
-0.003588258
-0.003776492
-0.003988528
-0.004234577
-0.004522823
-0.00486734
-0.005279952
-0.005530333
-0.002730345
-0.002853873
-0.002985489
-0.003126813
-0.00328001
-0.003450062
-0.003644233
-0.003867132
-0.004127528
-0.00443668
-0.004642501
-0.004615297
-0.002480833
-0.002589106
-0.002703631
-0.002825534
-0.002956297
-0.003099738
-0.003261514
-0.003444162
-0.003653671
-0.003897956
-0.004048793
-0.004050516
-0.003963595
-0.002320871
-0.002419029
-0.002522251
-0.002631359
-0.002747413
-0.002873537
-0.003014351
-0.003171246
-0.003348363
-0.003551451
-0.00366341
-0.003648316
-0.003608338
-0.003479237
-0.007831993
-0.008096994
-0.008926376
-0.008099288
-0.008884301
-0.009814366
-0.007925413
-0.008586451
-0.009422307
-0.01041985
-0.007596178
-0.008150176
-0.008828074
-0.009687437
-0.01071589
-0.007126494
-0.00759318
-0.008143844
-0.008817901
-0.009672545
-0.01069725
-0.006533205
-0.00692513
-0.007375379
-0.007906458
-0.008555927
-0.009380095
-0.01036861
-0.005835367
-0.00616101
-0.006527402
-0.006948043
-0.007443621
-0.008050495
-0.008820919
-0.009734962
-0.005059908
-0.005325399
-0.005619356
-0.005949741
-0.006328521
-0.006775939
-0.007325283
-0.008014861
-0.008821601
-0.004255178
-0.004466712
-0.004697667
-0.004952872
-0.005239106
-0.005568573
-0.005959935
-0.006435476
-0.007025229
-0.007699638
-0.003515559
-0.003681979
-0.003861351
-0.004056526
-0.004271468
-0.004513899
-0.004795384
-0.00512634
-0.005525117
-0.006011223
-0.006356665
-0.002974809
-0.003109773
-0.00325377
-0.003408601
-0.00357667
-0.00376337
-0.003976509
-0.00422147
-0.004508446
-0.004851427
-0.005092418
-0.005084102
-0.002613673
-0.002727952
-0.002848923
-0.002977789
-0.003116131
-0.00326795
-0.003439123
-0.003632434
-0.003854352
-0.004113605
-0.004276027
-0.004276774
-0.004178347
-0.002377937
-0.002478597
-0.002584489
-0.002696461
-0.002815605
-0.002945113
-0.003089676
-0.003250755
-0.00343262
-0.003641239
-0.003756529
-0.003738472
-0.00369179
-0.003550467
-0.002227128
-0.002318755
-0.002414663
-0.002515479
-0.002621996
-0.002736885
-0.002864112
-0.003004325
-0.003160556
-0.003336927
-0.00342246
-0.003386115
-0.003335101
-0.003253368
-0.003078746
-0.006715558
-0.007127256
-0.007827136
-0.007387482
-0.008092951
-0.008917239
-0.00747518
-0.008095729
-0.008876544
-0.009801081
-0.007384286
-0.007922175
-0.008579534
-0.009410956
-0.01040243
-0.007126494
-0.00759318
-0.008143844
-0.008817901
-0.009672545
-0.01069725
-0.006720311
-0.007123689
-0.007587296
-0.008134502
-0.008804523
-0.009656623
-0.01068206
-0.006185032
-0.006530558
-0.006919603
-0.007366665
-0.007894129
-0.008541581
-0.009367074
-0.01035392
-0.005541552
-0.005832842
-0.006155756
-0.006519158
-0.006936461
-0.007430305
-0.008038648
-0.008808168
-0.009720632
-0.004817233
-0.005057452
-0.0053203
-0.00561138
-0.005938589
-0.006315792
-0.006764659
-0.007313303
-0.008001897
-0.008807057
-0.004059597
-0.004252698
-0.004461571
-0.004689642
-0.004941686
-0.005226397
-0.005557181
-0.005947747
-0.006422299
-0.007010736
-0.007527781
-0.003359954
-0.003512971
-0.003676618
-0.003852992
-0.004044894
-0.004258288
-0.00450183
-0.004782222
-0.005111895
-0.005509107
-0.005822018
-0.005899141
-0.002847508
-0.002972344
-0.003104674
-0.003245835
-0.003397585
-0.003564227
-0.003752012
-0.00396418
-0.004208032
-0.004493712
-0.004680243
-0.004690418
-0.004583104
-0.002505153
-0.002611383
-0.002723221
-0.002841573
-0.002967607
-0.003104659
-0.003257574
-0.003427968
-0.003620405
-0.003841327
-0.003964646
-0.003941615
-0.003881059
-0.003711472
-0.002281838
-0.002375795
-0.002474177
-0.002577633
-0.002686979
-0.002804942
-0.002935541
-0.003079467
-0.003239839
-0.003420912
-0.003508836
-0.003468674
-0.003410005
-0.00331615
-0.003123349
-0.002139277
-0.002225099
-0.002314571
-0.002408179
-0.002506523
-0.002611939
-0.002727898
-0.002854572
-0.002994179
-0.003149737
-0.003215429
-0.003162888
-0.003095547
-0.003009847
-0.00288838
-0.002813986
-0.005882692
-0.006142519
-0.006710378
-0.006514806
-0.007123004
-0.007817638
-0.006821945
-0.007383842
-0.008085037
-0.008903801
-0.006965825
-0.007471915
-0.008088758
-0.008865123
-0.009783644
-0.006927943
-0.007381279
-0.007915826
-0.008569337
-0.009396042
-0.01038381
-0.006720311
-0.007123689
-0.007587296
-0.008134502
-0.008804523
-0.009656623
-0.01068206
-0.006362083
-0.006717672
-0.007118179
-0.007578607
-0.008122206
-0.008790211
-0.009643634
-0.01066738
-0.005873485
-0.00618253
-0.006525353
-0.006911436
-0.00735519
-0.007880932
-0.008529867
-0.009354482
-0.01033974
-0.005275616
-0.005539158
-0.005827874
-0.006147986
-0.006508294
-0.006924058
-0.007419399
-0.008027153
-0.008795808
-0.009706764
-0.004595624
-0.004814897
-0.005052614
-0.005312752
-0.005600862
-0.005926639
-0.006305277
-0.006753616
-0.007301583
-0.007989223
-0.008657969
-0.003879695
-0.004057234
-0.004247807
-0.004453951
-0.004679048
-0.00492969
-0.005215697
-0.00554581
-0.005935582
-0.006409149
-0.006858898
-0.007208054
-0.003215968
-0.003357483
-0.003507859
-0.003668659
-0.003841939
-0.004032403
-0.00424689
-0.004489459
-0.004768734
-0.005097096
-0.005336916
-0.005412382
-0.005363375
-0.002729124
-0.00284515
-0.002967472
-0.003097101
-0.003235339
-0.003385754
-0.003553458
-0.003740362
-0.003951541
-0.004194262
-0.004335245
-0.004313677
-0.004239061
-0.004022574
-0.002403816
-0.00250296
-0.002606855
-0.002716194
-0.002831851
-0.002956672
-0.003094789
-0.003246992
-0.003416597
-0.003608147
-0.003701986
-0.00365484
-0.003580098
-0.003458353
-0.003220986
-0.002191784
-0.002279784
-0.002371559
-0.002467612
-0.002568563
-0.002676793
-0.002795815
-0.002925827
-0.003069109
-0.003228767
-0.003296241
-0.003239501
-0.003164176
-0.003066251
-0.002927827
-0.002840411
-0.002056709
-0.002137328
-0.002221084
-0.002308354
-0.0023996
-0.002496901
-0.002603353
-0.002718801
-0.002844918
-0.002983913
-0.003034816
-0.002971034
-0.002891008
-0.002793943
-0.002675525
-0.00264706
-0.002667033
-0.005349173
-0.005409767
-0.005877632
-0.00562861
-0.006137918
-0.006700219
-0.006020945
-0.006510963
-0.007114671
-0.007803648
-0.006358639
-0.006818601
-0.007376709
-0.008073378
-0.008886153
-0.006535819
-0.006962791
-0.007465511
-0.008078479
-0.008850114
-0.00976501
-0.006533205
-0.00692513
-0.007375379
-0.007906458
-0.008555927
-0.009380095
-0.01036861
-0.006362083
-0.006717672
-0.007118179
-0.007578607
-0.008122206
-0.008790211
-0.009643634
-0.01066738
-0.006041557
-0.006359588
-0.006712483
-0.007110036
-0.007567166
-0.008109046
-0.008778536
-0.009631085
-0.01065322
-0.005591521
-0.005871113
-0.006177609
-0.006517657
-0.006900675
-0.007342902
-0.007870156
-0.008518538
-0.009342319
-0.01032606
-0.005032791
-0.005273341
-0.005534445
-0.005820522
-0.006137742
-0.006496655
-0.006913899
-0.007408817
-0.008016013
-0.008783843
-0.009566014
-0.004391807
-0.004593399
-0.004810295
-0.005045449
-0.005302794
-0.005589587
-0.005916768
-0.006294984
-0.006742813
-0.007290125
-0.00785922
-0.008410814
-0.003713253
-0.003877439
-0.004052571
-0.004240554
-0.004443888
-0.004667683
-0.00491959
-0.005205016
-0.005534462
-0.005923442
-0.006271372
-0.006575402
-0.006906324
-0.003082093
-0.003213605
-0.003352599
-0.003500266
-0.003658132
-0.003830067
-0.004021601
-0.004235208
-0.004476782
-0.004754917
-0.004937948
-0.00496435
-0.004932115
-0.004706271
-0.002618593
-0.002726866
-0.002840488
-0.002960234
-0.003087083
-0.003224064
-0.003375514
-0.003542412
-0.003728421
-0.003938591
-0.004046181
-0.003996177
-0.003902439
-0.003734083
-0.003402891
-0.002308864
-0.002401712
-0.002498621
-0.002600127
-0.002706897
-0.002821408
-0.002947263
-0.003084725
-0.003236206
-0.003405008
-0.003477019
-0.003412349
-0.003320135
-0.003194156
-0.003014301
-0.002893621
-0.002107152
-0.002189812
-0.00227572
-0.002365265
-0.002458926
-0.002558819
-0.002668075
-0.002786554
-0.002915974
-0.003058603
-0.003110871
-0.003042734
-0.002954717
-0.002845648
-0.002711009
-0.002670548
-0.002684738
-0.001978913
-0.002054836
-0.002133472
-0.002215118
-0.002300127
-0.002390382
-0.002488687
-0.002594664
-0.002709596
-0.00283515
-0.00287486
-0.002803717
-0.002715128
-0.002608889
-0.002484017
-0.002454503
-0.002512449
-0.002503923
-0.005043246
-0.004941949
-0.00534434
-0.004969995
-0.005405226
-0.005867706
-0.005207564
-0.005624433
-0.006128881
-0.006685223
-0.005614068
-0.006017407
-0.006503421
-0.007102378
-0.007785255
-0.005966834
-0.006355531
-0.00681204
-0.007366186
-0.00805805
-0.008867289
-0.006163682
-0.00653298
-0.006956837
-0.007456061
-0.008064959
-0.008834064
-0.009749755
-0.006185032
-0.006530558
-0.006919603
-0.007366665
-0.007894129
-0.008541581
-0.009367074
-0.01035392
-0.006041557
-0.006359588
-0.006712483
-0.007110036
-0.007567166
-0.008109046
-0.008778536
-0.009631085
-0.01065322
-0.005751479
-0.006039193
-0.006354682
-0.00670481
-0.007099308
-0.007554914
-0.008098309
-0.008767255
-0.009618976
-0.01063957
-0.005334077
-0.005589268
-0.005866446
-0.006170329
-0.006507512
-0.006889147
-0.007332868
-0.007859734
-0.008507594
-0.009330586
-0.01018771
-0.004809478
-0.005030623
-0.005268858
-0.005527468
-0.005810826
-0.006126764
-0.006487122
-0.006904042
-0.00739856
-0.008005226
-0.008662345
-0.009345182
-0.00420326
-0.004389683
-0.004589013
-0.004803477
-0.005035992
-0.005292116
-0.005580274
-0.005907106
-0.006284914
-0.006732251
-0.007172573
-0.007642967
-0.008207831
-0.003558522
-0.003711096
-0.003872986
-0.004045654
-0.004230972
-0.004433089
-0.004658114
-0.004909509
-0.005194357
-0.005523137
-0.005796257
-0.00601408
-0.006307064
-0.006644184
-0.00295712
-0.003079831
-0.003208933
-0.003345343
-0.00349022
-0.003646822
-0.0038198
-0.004010529
-0.004223237
-0.004463798
-0.004606346
-0.004593805
-0.004527812
-0.004342702
-0.003849075
-0.002515044
-0.002616428
-0.002722399
-0.002833559
-0.002950655
-0.003076318
-0.003214307
-0.003365012
-0.00353109
-0.003716186
-0.003799338
-0.003729498
-0.003616022
-0.003442636
-0.003175848
-0.002972848
-0.002219639
-0.002306844
-0.002397549
-0.002492172
-0.002591224
-0.002696907
-0.002812423
-0.00293767
-0.003074466
-0.003225214
-0.003281061
-0.003204558
-0.003099568
-0.002962979
-0.002788869
-0.002717878
-0.002718269
-0.002027415
-0.002105256
-0.002185909
-0.00226968
-0.002356936
-0.002449592
-0.002550479
-0.00265923
-0.002777159
-0.00290598
-0.002946749
-0.002871213
-0.002774766
-0.002656902
-0.002516568
-0.002475672
-0.002528213
-0.002514802
-0.001905451
-0.001977112
-0.00205113
-0.002127741
-0.00220722
-0.002291286
-0.002382513
-0.002480373
-0.002585871
-0.002700282
-0.002731396
-0.00265561
-0.002561788
-0.002449643
-0.002319046
-0.002279152
-0.002331151
-0.00236234
-0.002331348
-0.004905062
-0.004674552
-0.005038584
-0.004550245
-0.004937577
-0.005334859
-0.004603516
-0.004965856
-0.005396304
-0.005853046
-0.004858047
-0.005203711
-0.005616219
-0.006115525
-0.006665473
-0.005269104
-0.005610776
-0.006010457
-0.006492283
-0.007086199
-0.007765579
-0.005627487
-0.005963923
-0.006349426
-0.006802352
-0.00735234
-0.008041655
-0.008851718
-0.005835367
-0.00616101
-0.006527402
-0.006948043
-0.007443621
-0.008050495
-0.008820919
-0.009734962
-0.005873485
-0.00618253
-0.006525353
-0.006911436
-0.00735519
-0.007880932
-0.008529867
-0.009354482
-0.01033974
-0.005751479
-0.006039193
-0.006354682
-0.00670481
-0.007099308
-0.007554914
-0.008098309
-0.008767255
-0.009618976
-0.01063957
-0.005486632
-0.005749232
-0.006034539
-0.006347424
-0.006694696
-0.007087815
-0.007544919
-0.008087936
-0.00875637
-0.009607307
-0.01050176
-0.005097331
-0.00533193
-0.005584829
-0.005859536
-0.006160727
-0.00649664
-0.006879734
-0.007323164
-0.007849667
-0.008497036
-0.00921189
-0.00997498
-0.004602911
-0.004807409
-0.005026352
-0.00526222
-0.005518261
-0.005800431
-0.006117772
-0.006477873
-0.006894487
-0.007388629
-0.007895688
-0.008471274
-0.009174479
-0.004027996
-0.00420123
-0.004385495
-0.004582512
-0.004794475
-0.005025849
-0.005283296
-0.005571158
-0.005897653
-0.006275069
-0.006623891
-0.006976938
-0.007464832
-0.008059613
-0.003414097
-0.003556457
-0.003706837
-0.003866377
-0.004036512
-0.004220688
-0.004423998
-0.004648563
-0.004899447
-0.005183719
-0.005404487
-0.005558772
-0.005770518
-0.006073375
-0.006466554
-0.002840056
-0.00295495
-0.003075355
-0.003201988
-0.003335741
-0.003479424
-0.003637041
-0.003809276
-0.003999184
-0.004210976
-0.00432418
-0.004285199
-0.004190788
-0.003992392
-0.003573739
-0.003066369
-0.002417752
-0.002512965
-0.002612144
-0.002715759
-0.002824388
-0.002940361
-0.003067002
-0.003204299
-0.003354248
-0.00351949
-0.00358463
-0.003501639
-0.003374586
-0.003191173
-0.002934565
-0.00278843
-0.002761916
-0.002135583
-0.002217698
-0.002302847
-0.002391361
-0.002483636
-0.002581657
-0.002688314
-0.002803262
-0.002927892
-0.003064013
-0.003107658
-0.003023594
-0.002910413
-0.00276591
-0.00258803
-0.002518352
-0.002558084
-0.002534405
-0.001952124
-0.002025592
-0.002101505
-0.002180107
-0.002261684
-0.002347984
-0.002441603
-0.002542017
-0.002650257
-0.002767632
-0.002799576
-0.002719422
-0.002617941
-0.0024946
-0.002349287
-0.002298591
-0.002345366
-0.002372036
-0.002337569
-0.001835947
-0.001903718
-0.001973546
-0.002045619
-0.002120152
-0.002198732
-0.002283739
-0.002374549
-0.002471961
-0.002576975
-0.002601358
-0.002522837
-0.002426127
-0.002310845
-0.002176932
-0.002127479
-0.002164924
-0.002193434
-0.00220281
-0.002153839
-0.004554042
-0.004900484
-0.004310744
-0.004670312
-0.005029438
-0.004218952
-0.004546249
-0.00492899
-0.005320861
-0.00429689
-0.00459969
-0.004957716
-0.005383114
-0.005833737
-0.004560707
-0.004854456
-0.005196126
-0.005604068
-0.006097919
-0.006644316
-0.004969979
-0.005266019
-0.005604303
-0.006000185
-0.006477614
-0.007068883
-0.007749026
-0.00532799
-0.005624747
-0.005958201
-0.006340406
-0.006789597
-0.007337522
-0.008028114
-0.008836489
-0.005541552
-0.005832842
-0.006155756
-0.006519158
-0.006936461
-0.007430305
-0.008038648
-0.008808168
-0.009720632
-0.005591521
-0.005871113
-0.006177609
-0.006517657
-0.006900675
-0.007342902
-0.007870156
-0.008518538
-0.009342319
-0.01032606
-0.005486632
-0.005749232
-0.006034539
-0.006347424
-0.006694696
-0.007087815
-0.007544919
-0.008087936
-0.00875637
-0.009607307
-0.01050176
-0.005243085
-0.005484492
-0.005744807
-0.006027652
-0.006337852
-0.006683858
-0.007078439
-0.007535262
-0.008077926
-0.00874588
-0.009489399
-0.01029113
-0.004878347
-0.005095282
-0.0053277
-0.005578255
-0.00585042
-0.006150434
-0.006487763
-0.006870631
-0.00731379
-0.007839954
-0.008390231
-0.009029083
-0.009813946
-0.004410907
-0.004600934
-0.004803331
-0.005020022
-0.005253457
-0.005508389
-0.005791917
-0.006109048
-0.006468907
-0.006885236
-0.007287779
-0.007723363
-0.00832328
-0.009057488
-0.00386442
-0.004026054
-0.004197225
-0.004379285
-0.004573925
-0.004784818
-0.005017472
-0.005274662
-0.005562239
-0.005888411
-0.006174062
-0.006443533
-0.006815721
-0.007334437
-0.007979365
-0.00327883
-0.003412118
-0.003552378
-0.003700514
-0.003857641
-0.004026698
-0.00421203
-0.004414923
-0.004639031
-0.004889406
-0.005072275
-0.005182963
-0.005333994
-0.005558397
-0.005914734
-0.002730084
-0.002837975
-0.002950658
-0.003068701
-0.003192797
-0.00332542
-0.003470089
-0.003627016
-0.003798495
-0.003987565
-0.004079143
-0.004022463
-0.003909247
-0.003696732
-0.003294285
-0.002871835
-0.002800586
-0.002326109
-0.002415756
-0.002508851
-0.002605773
-0.002706967
-0.002814531
-0.002931452
-0.003057448
-0.003194042
-0.00334322
-0.003394771
-0.003303457
-0.003168094
-0.002978074
-0.002721885
-0.00258203
-0.002596989
-0.002557611
-0.00205622
-0.002133716
-0.002213856
-0.002296904
-0.002383169
-0.002474462
-0.002573426
-0.002679552
-0.002793925
-0.002917929
-0.002952217
-0.002863521
-0.002745697
-0.002596704
-0.002415703
-0.002337794
-0.002372311
-0.00238951
-0.002348388
-0.001880892
-0.00195037
-0.002021984
-0.002095927
-0.002172425
-0.00225309
-0.002340322
-0.002433497
-0.002533434
-0.002641157
-0.002666195
-0.002583367
-0.002479224
-0.002353184
-0.002205258
-0.00214555
-0.00217798
-0.002202176
-0.002208349
-0.002157031
-0.001770072
-0.001834278
-0.001900286
-0.001968244
-0.002038322
-0.002111995
-0.002191486
-0.002276101
-0.002366491
-0.002463451
-0.002482486
-0.002402539
-0.002304574
-0.002188125
-0.002053103
-0.001996705
-0.002020784
-0.002037419
-0.002046845
-0.002038015
-0.001974295
-0.004202943
-0.004549868
-0.004891503
-0.003999762
-0.004306859
-0.004661986
-0.005015936
-0.003939893
-0.004215251
-0.00453839
-0.004916299
-0.005302424
-0.004035106
-0.00429332
-0.004592159
-0.004945673
-0.005365728
-0.005813051
-0.004302473
-0.004557338
-0.004847383
-0.005184898
-0.005588041
-0.006079049
-0.006626017
-0.004705832
-0.004967072
-0.005259947
-0.005594728
-0.005986648
-0.006461904
-0.007054304
-0.007732518
-0.005059908
-0.005325399
-0.005619356
-0.005949741
-0.006328521
-0.006775939
-0.007325283
-0.008014861
-0.008821601
-0.005275616
-0.005539158
-0.005827874
-0.006147986
-0.006508294
-0.006924058
-0.007419399
-0.008027153
-0.008795808
-0.009706764
-0.005334077
-0.005589268
-0.005866446
-0.006170329
-0.006507512
-0.006889147
-0.007332868
-0.007859734
-0.008507594
-0.009330586
-0.01018771
-0.005243085
-0.005484492
-0.005744807
-0.006027652
-0.006337852
-0.006683858
-0.007078439
-0.007535262
-0.008077926
-0.00874588
-0.009489399
-0.01029113
-0.005017815
-0.005241043
-0.005480275
-0.005738254
-0.006018564
-0.006327591
-0.006675016
-0.00706938
-0.007525942
-0.008068279
-0.008639881
-0.009308955
-0.01013266
-0.004674809
-0.004876389
-0.005091244
-0.005321433
-0.005569579
-0.005840645
-0.006142029
-0.006479177
-0.006861836
-0.007304746
-0.007741697
-0.008225697
-0.008890518
-0.00970571
-0.004231718
-0.004409015
-0.004597034
-0.004797286
-0.005011665
-0.005244058
-0.005500303
-0.005783656
-0.006100591
-0.006460226
-0.006791291
-0.007129101
-0.007589846
-0.008221693
-0.008997778
-0.003711229
-0.003862558
-0.004022218
-0.004191285
-0.004371081
-0.004564711
-0.004776841
-0.00500927
-0.005266215
-0.005553518
-0.005793588
-0.006005933
-0.006294892
-0.006697671
-0.007263711
-0.003151771
-0.003276931
-0.003408206
-0.00354632
-0.003692153
-0.00384826
-0.004018436
-0.004203387
-0.004405866
-0.004629519
-0.004784215
-0.004864214
-0.004973315
-0.005138263
-0.0054144
-0.002626508
-0.002728085
-0.002833854
-0.002944275
-0.003059891
-0.003182916
-0.003316495
-0.003460521
-0.003616745
-0.003787452
-0.003862634
-0.003794299
-0.003669341
-0.003448524
-0.003052844
-0.002657395
-0.002631483
-0.002575164
-0.002239593
-0.002324189
-0.002411802
-0.002502733
-0.002597336
-0.002697517
-0.002806
-0.002922317
-0.003047656
-0.003183534
-0.003224654
-0.00312826
-0.002988489
-0.002795535
-0.002540187
-0.002396317
-0.002407427
-0.002410204
-0.002360432
-0.001981143
-0.002054425
-0.002130021
-0.002208143
-0.002289033
-0.002374362
-0.002466569
-0.002565034
-0.002670621
-0.002784411
-0.002811376
-0.002720083
-0.002600055
-0.002449364
-0.002267483
-0.002182004
-0.002202734
-0.002217938
-0.002217985
-0.00216245
-0.001813382
-0.001879203
-0.001946897
-0.002016616
-0.00208854
-0.002164167
-0.002245735
-0.002332549
-0.002425276
-0.00252473
-0.002544279
-0.002460108
-0.002354947
-0.002228165
-0.002079785
-0.00201364
-0.002032923
-0.002045449
-0.002051835
-0.002040839
-0.001975427
-0.001707542
-0.001768463
-0.001830971
-0.00189518
-0.001961221
-0.002030476
-0.002105032
-0.002184153
-0.002268373
-0.002358338
-0.00237306
-0.002292604
-0.002194491
-0.002078233
-0.001943696
-0.001882781
-0.001896421
-0.001901751
-0.001901681
-0.001895157
-0.001870666
-0.001794655
-0.003901182
-0.004199114
-0.004541671
-0.004878246
-0.003736569
-0.00399616
-0.004299222
-0.004649682
-0.004998155
-0.003700913
-0.003936436
-0.004207968
-0.004526765
-0.004899573
-0.005282677
-0.003807365
-0.004031754
-0.004286288
-0.004581009
-0.004929787
-0.005347093
-0.00579513
-0.004074262
-0.004299297
-0.004550698
-0.004836905
-0.00517008
-0.005570855
-0.006062722
-0.00660726
-0.004469319
-0.004703083
-0.004961348
-0.005250961
-0.005582103
-0.005972145
-0.006448678
-0.007039752
-0.007716054
-0.004817233
-0.005057452
-0.0053203
-0.00561138
-0.005938589
-0.006315792
-0.006764659
-0.007313303
-0.008001897
-0.008807057
-0.005032791
-0.005273341
-0.005534445
-0.005820522
-0.006137742
-0.006496655
-0.006913899
-0.007408817
-0.008016013
-0.008783843
-0.009566014
-0.005097331
-0.00533193
-0.005584829
-0.005859536
-0.006160727
-0.00649664
-0.006879734
-0.007323164
-0.007849667
-0.008497036
-0.00921189
-0.00997498
-0.005017815
-0.005241043
-0.005480275
-0.005738254
-0.006018564
-0.006327591
-0.006675016
-0.00706938
-0.007525942
-0.008068279
-0.008639881
-0.009308955
-0.01013266
-0.004808438
-0.005015863
-0.005237017
-0.005474028
-0.005729605
-0.00600882
-0.006319221
-0.006666474
-0.007060638
-0.007516961
-0.007970801
-0.008477633
-0.009173049
-0.01002671
-0.004484861
-0.004672936
-0.004872528
-0.005085258
-0.005313158
-0.005560273
-0.005832663
-0.0061339
-0.006470883
-0.006853352
-0.007213253
-0.007590318
-0.008100957
-0.008797292
-0.009651284
-0.004063914
-0.004229904
-0.004405282
-0.004591251
-0.004789301
-0.005002698
-0.00523636
-0.005492457
-0.005775648
-0.006092403
-0.006372068
-0.006643465
-0.007006145
-0.007498171
-0.00816979
-0.003567345
-0.003709443
-0.003858881
-0.004016528
-0.004183434
-0.004362275
-0.0045571
-0.004769031
-0.005001246
-0.005257956
-0.00546405
-0.005635745
-0.005867366
-0.006186046
-0.006633625
-0.003032114
-0.003149948
-0.003273177
-0.003402396
-0.003538309
-0.003683174
-0.003840363
-0.004010189
-0.004194762
-0.004396828
-0.004529863
-0.004587833
-0.004667321
-0.004790782
-0.005005416
-0.002528738
-0.002624586
-0.002724125
-0.002827725
-0.002935822
-0.00305042
-0.003174371
-0.003307348
-0.003450718
-0.003606226
-0.003668722
-0.003592735
-0.003460981
-0.003236691
-0.002848253
-0.002465631
-0.002438584
-0.002425864
-0.002368789
-0.002157755
-0.002237745
-0.002320387
-0.002405921
-0.00249463
-0.002588266
-0.002689338
-0.002797252
-0.002912953
-0.003037625
-0.003070561
-0.002971326
-0.002829762
-0.002636737
-0.002384166
-0.002236442
-0.002235006
-0.002236612
-0.002228715
-0.002168255
-0.001909993
-0.001979413
-0.002050868
-0.002124524
-0.002200576
-0.002280572
-0.002366787
-0.002458523
-0.002556481
-0.002661522
-0.002682667
-0.002590159
-0.002469602
-0.002319144
-0.002138413
-0.002047806
-0.002055944
-0.002059928
-0.002060518
-0.002045635
-0.001977296
-0.001749304
-0.001811755
-0.001875857
-0.001941729
-0.002009508
-0.002080598
-0.002157099
-0.002238273
-0.002324665
-0.002416938
-0.002432062
-0.002347478
-0.002242406
-0.002116224
-0.001968935
-0.001898739
-0.001907799
-0.001909217
-0.001906263
-0.001897692
-0.001871627