/*--------------------------------*- C++ -*----------------------------------*\
| =========                 |                                                 |
| \\      /  F ield         | OpenFOAM: The Open Source CFD Toolbox           |
|  \\    /   O peration     | Version:  2306                                  |
|   \\  /    A nd           | Website:  www.openfoam.com                      |
|    \\/     M anipulation  |                                                 |
\*---------------------------------------------------------------------------*/
FoamFile
{
    version     2.0;
    format      ascii;
    arch        "LSB;label=32;scalar=64";
    class       volScalarField;
    location    "1.2/phiEA";
    object      T;
}
// * * * * * * * * * * * * * * * * * * * * * * * * * * * * * * * * * * * * * //

dimensions      [0 0 0 1 0 0 0];

internalField   nonuniform List<scalar> 
20000
(
1268.593
1268.412
1270.788
1268.61
1267.994
1270.778
1268.429
1272.748
1270.799
1268.632
1267.223
1270.751
1268.013
1272.783
1270.788
1268.452
1274.537
1272.753
1270.814
1268.66
1265.935
1270.697
1267.245
1272.861
1270.761
1268.037
1274.584
1272.788
1270.803
1268.48
1276.236
1274.538
1272.763
1270.834
1268.692
1264.059
1270.592
1265.966
1272.994
1270.705
1267.274
1274.687
1272.864
1270.775
1268.068
1276.283
1274.584
1272.797
1270.823
1268.514
1277.873
1276.233
1274.543
1272.777
1270.859
1268.731
1261.937
1270.403
1264.105
1273.197
1270.596
1266.003
1274.868
1272.995
1270.717
1267.308
1276.389
1274.685
1272.872
1270.794
1268.103
1277.919
1276.28
1274.588
1272.811
1270.847
1268.553
1279.457
1277.867
1276.234
1274.552
1272.796
1270.889
1268.77
1259.996
1270.11
1262.003
1273.454
1270.402
1264.156
1275.151
1273.193
1270.606
1266.046
1276.577
1274.864
1273
1270.735
1267.349
1278.021
1276.385
1274.689
1272.884
1270.818
1268.145
1279.5
1277.912
1276.28
1274.597
1272.829
1270.877
1268.593
1280.989
1279.448
1277.865
1276.239
1274.566
1272.82
1270.92
1268.809
1258.552
1269.772
1260.083
1273.669
1270.107
1262.074
1275.526
1273.441
1270.406
1264.213
1276.872
1275.142
1273.193
1270.62
1266.095
1278.202
1276.57
1274.865
1273.01
1270.757
1267.396
1279.597
1278.013
1276.384
1274.696
1272.901
1270.847
1268.188
1281.029
1279.491
1277.91
1276.285
1274.61
1272.852
1270.908
1268.634
1282.467
1280.978
1279.444
1277.867
1276.248
1274.584
1272.844
1270.951
1268.849
1257.789
1269.482
1258.654
1273.807
1269.772
1260.173
1275.882
1273.65
1270.11
1262.15
1277.266
1275.509
1273.434
1270.416
1264.276
1278.488
1276.86
1275.138
1273.198
1270.64
1266.151
1279.769
1278.192
1276.567
1274.87
1273.025
1270.785
1267.444
1281.121
1279.587
1278.01
1276.388
1274.708
1272.923
1270.877
1268.231
1282.506
1281.019
1279.486
1277.911
1276.294
1274.628
1272.876
1270.938
1268.675
1283.891
1282.455
1280.972
1279.443
1277.873
1276.262
1274.603
1272.868
1270.982
1268.889
1257.789
1269.315
1257.899
1273.88
1269.484
1258.759
1276.159
1273.786
1269.776
1260.269
1277.652
1275.859
1273.637
1270.118
1262.232
1278.873
1277.247
1275.496
1273.431
1270.43
1264.345
1280.04
1278.474
1276.853
1275.138
1273.208
1270.665
1266.208
1281.283
1279.757
1278.187
1276.568
1274.879
1273.044
1270.814
1267.493
1282.592
1281.109
1279.581
1278.01
1276.395
1274.725
1272.946
1270.907
1268.275
1283.927
1282.493
1281.012
1279.485
1277.917
1276.307
1274.646
1272.9
1270.969
1268.716
1285.259
1283.878
1282.447
1280.969
1279.446
1277.883
1276.277
1274.622
1272.892
1271.012
1269.082
1258.552
1269.315
1257.899
1273.908
1269.319
1258.012
1276.339
1273.857
1269.491
1258.869
1277.961
1276.131
1273.77
1269.785
1260.369
1279.252
1277.627
1275.84
1273.628
1270.131
1262.318
1280.406
1278.852
1277.233
1275.489
1273.433
1270.451
1264.414
1281.539
1280.025
1278.465
1276.849
1275.142
1273.223
1270.69
1266.267
1282.745
1281.27
1279.749
1278.185
1276.573
1274.893
1273.064
1270.843
1267.542
1284.009
1282.579
1281.101
1279.579
1278.015
1276.408
1274.742
1272.968
1270.937
1268.319
1285.293
1283.914
1282.485
1281.008
1279.488
1277.926
1276.321
1274.664
1272.923
1270.999
1268.915
1286.571
1285.245
1283.868
1282.442
1280.969
1279.453
1277.893
1276.291
1274.64
1272.916
1271.163
1269.45
1259.996
1269.482
1258.654
1273.908
1269.319
1258.012
1276.427
1273.886
1269.328
1258.13
1278.168
1276.31
1273.84
1269.503
1258.983
1279.558
1277.932
1276.109
1273.758
1269.8
1260.474
1280.768
1279.226
1277.606
1275.826
1273.625
1270.149
1262.405
1281.885
1280.385
1278.836
1277.223
1275.485
1273.44
1270.471
1264.484
1282.988
1281.523
1280.014
1278.459
1276.85
1275.151
1273.238
1270.716
1266.325
1284.154
1282.731
1281.26
1279.745
1278.187
1276.583
1274.907
1273.084
1270.871
1267.593
1285.371
1283.995
1282.569
1281.097
1279.581
1278.024
1276.42
1274.758
1272.99
1270.967
1268.534
1286.604
1285.279
1283.904
1282.48
1281.009
1279.495
1277.936
1276.335
1274.682
1272.947
1271.149
1269.302
1287.828
1286.557
1285.234
1283.862
1282.441
1280.974
1279.461
1277.904
1276.305
1274.659
1273.035
1271.435
1269.838
1261.937
1269.772
1260.083
1273.88
1269.484
1258.759
1276.427
1273.886
1269.328
1258.13
1278.272
1276.397
1273.868
1269.342
1258.251
1279.767
1278.137
1276.285
1273.827
1269.52
1259.102
1281.062
1279.529
1277.907
1276.091
1273.752
1269.82
1260.578
1282.229
1280.742
1279.205
1277.59
1275.817
1273.626
1270.168
1262.492
1283.316
1281.864
1280.368
1278.825
1277.217
1275.487
1273.447
1270.492
1264.554
1284.385
1282.971
1281.51
1280.006
1278.457
1276.855
1275.16
1273.252
1270.742
1266.385
1285.51
1284.139
1282.72
1281.254
1279.745
1278.194
1276.593
1274.921
1273.103
1270.9
1267.836
1286.679
1285.356
1283.984
1282.564
1281.097
1279.587
1278.032
1276.433
1274.775
1273.013
1271.114
1268.964
1287.86
1286.589
1285.268
1283.897
1282.478
1281.013
1279.502
1277.946
1276.348
1274.7
1273.063
1271.421
1269.715
1289.03
1287.813
1286.545
1285.227
1283.859
1282.444
1280.979
1279.468
1277.914
1276.319
1274.752
1273.244
1271.71
1270.242
1264.059
1270.11
1262.003
1273.807
1269.772
1260.173
1276.339
1273.857
1269.491
1258.869
1278.272
1276.397
1273.868
1269.342
1258.251
1279.871
1278.24
1276.372
1273.855
1269.361
1258.378
1281.263
1279.736
1278.111
1276.265
1273.82
1269.542
1259.221
1282.509
1281.033
1279.504
1277.887
1276.078
1273.75
1269.84
1260.682
1283.641
1282.203
1280.721
1279.188
1277.579
1275.812
1273.627
1270.187
1262.578
1284.696
1283.294
1281.847
1280.355
1278.817
1277.215
1275.488
1273.454
1270.513
1264.624
1285.729
1284.367
1282.957
1281.501
1280.002
1278.46
1276.861
1275.169
1273.267
1270.768
1266.673
1286.811
1285.494
1284.127
1282.712
1281.252
1279.749
1278.201
1276.603
1274.935
1273.123
1271.041
1268.342
1287.931
1286.663
1285.345
1283.977
1282.561
1281.1
1279.593
1278.041
1276.445
1274.792
1273.122
1271.385
1269.436
1289.06
1287.844
1286.578
1285.261
1283.895
1282.48
1281.017
1279.508
1277.956
1276.362
1274.79
1273.267
1271.696
1270.15
1290.177
1289.014
1287.801
1286.537
1285.223
1283.86
1282.446
1280.984
1279.475
1277.925
1276.39
1274.913
1273.45
1271.987
1270.658
1265.935
1270.403
1264.105
1273.669
1270.107
1262.074
1276.159
1273.786
1269.776
1260.269
1278.168
1276.31
1273.84
1269.503
1258.983
1279.871
1278.24
1276.372
1273.855
1269.361
1258.378
1281.364
1279.839
1278.212
1276.351
1273.847
1269.385
1258.503
1282.7
1281.233
1279.709
1278.089
1276.25
1273.817
1269.565
1259.338
1283.907
1282.481
1281.009
1279.484
1277.872
1276.069
1273.748
1269.86
1260.785
1285.006
1283.616
1282.182
1280.704
1279.175
1277.572
1275.807
1273.629
1270.206
1262.664
1286.026
1284.674
1283.276
1281.833
1280.347
1278.814
1277.214
1275.49
1273.462
1270.534
1264.958
1287.02
1285.711
1284.352
1282.947
1281.496
1280.003
1278.462
1276.866
1275.178
1273.282
1270.896
1267.271
1288.057
1286.794
1285.481
1284.119
1282.709
1281.254
1279.753
1278.207
1276.613
1274.949
1273.219
1271.307
1268.915
1289.128
1287.915
1286.651
1285.337
1283.974
1282.563
1281.104
1279.599
1278.05
1276.457
1274.874
1273.313
1271.662
1269.942
1290.206
1289.044
1287.832
1286.569
1285.257
1283.895
1282.483
1281.022
1279.515
1277.966
1276.43
1274.945
1273.466
1271.975
1270.6
1291.27
1290.161
1289.002
1287.792
1286.532
1285.223
1283.861
1282.449
1280.988
1279.483
1277.977
1276.512
1275.069
1273.653
1272.266
1270.897
1267.223
1270.592
1265.966
1273.454
1270.402
1264.156
1275.882
1273.65
1270.11
1262.15
1277.961
1276.131
1273.77
1269.785
1260.369
1279.767
1278.137
1276.285
1273.827
1269.52
1259.102
1281.364
1279.839
1278.212
1276.351
1273.847
1269.385
1258.503
1282.796
1281.333
1279.812
1278.19
1276.335
1273.844
1269.409
1258.628
1284.089
1282.67
1281.207
1279.687
1278.072
1276.24
1273.814
1269.587
1259.454
1285.259
1283.88
1282.457
1280.989
1279.468
1277.861
1276.06
1273.747
1269.88
1260.887
1286.321
1284.981
1283.595
1282.165
1280.691
1279.167
1277.564
1275.803
1273.631
1270.225
1263.066
1287.304
1286.004
1284.656
1283.262
1281.824
1280.342
1278.81
1277.212
1275.492
1273.469
1270.637
1265.576
1288.258
1287.002
1285.696
1284.342
1282.94
1281.495
1280.003
1278.465
1276.871
1275.187
1273.354
1271.145
1267.962
1289.25
1288.041
1286.781
1285.472
1284.114
1282.709
1281.255
1279.756
1278.213
1276.622
1275.017
1273.386
1271.588
1269.553
1290.272
1289.112
1287.902
1286.642
1285.332
1283.974
1282.564
1281.107
1279.604
1278.058
1276.518
1275.013
1273.5
1271.946
1270.474
1291.298
1290.19
1289.032
1287.823
1286.564
1285.256
1283.896
1282.485
1281.026
1279.522
1278.016
1276.545
1275.093
1273.663
1272.256
1270.859
1292.31
1291.254
1290.148
1288.993
1287.787
1286.531
1285.222
1283.862
1282.451
1280.993
1279.519
1278.065
1276.628
1275.221
1273.855
1272.423
1270.975
1267.994
1270.697
1267.245
1273.197
1270.596
1266.003
1275.526
1273.441
1270.406
1264.213
1277.652
1275.859
1273.637
1270.118
1262.232
1279.558
1277.932
1276.109
1273.758
1269.8
1260.474
1281.263
1279.736
1278.111
1276.265
1273.82
1269.542
1259.221
1282.796
1281.333
1279.812
1278.19
1276.335
1273.844
1269.409
1258.628
1284.181
1282.766
1281.306
1279.789
1278.171
1276.323
1273.841
1269.433
1258.751
1285.432
1284.06
1282.645
1281.185
1279.669
1278.058
1276.229
1273.812
1269.609
1259.569
1286.563
1285.232
1283.856
1282.437
1280.973
1279.456
1277.85
1276.052
1273.746
1269.9
1261.363
1287.587
1286.297
1284.96
1283.578
1282.152
1280.682
1279.158
1277.557
1275.798
1273.632
1270.317
1263.745
1288.531
1287.283
1285.986
1284.642
1283.252
1281.818
1280.337
1278.807
1277.211
1275.493
1273.505
1270.836
1266.207
1289.443
1288.24
1286.987
1285.684
1284.334
1282.938
1281.493
1280.003
1278.467
1276.876
1275.23
1273.481
1271.42
1268.777
1290.389
1289.233
1288.027
1286.771
1285.466
1284.112
1282.708
1281.257
1279.76
1278.219
1276.669
1275.128
1273.55
1271.884
1270.248
1291.362
1290.255
1289.099
1287.893
1286.636
1285.331
1283.973
1282.566
1281.11
1279.61
1278.101
1276.618
1275.145
1273.684
1272.235
1270.782
1292.338
1291.282
1290.177
1289.022
1287.817
1286.563
1285.255
1283.896
1282.487
1281.03
1279.556
1278.098
1276.653
1275.237
1273.859
1272.416
1270.944
1293.299
1292.295
1291.241
1290.139
1288.986
1287.784
1286.529
1285.222
1283.863
1282.454
1281.017
1279.58
1278.149
1276.74
1275.37
1273.968
1272.466
1271.07
1268.412
1270.751
1268.013
1272.994
1270.705
1267.274
1275.151
1273.193
1270.606
1266.046
1277.266
1275.509
1273.434
1270.416
1264.276
1279.252
1277.627
1275.84
1273.628
1270.131
1262.318
1281.062
1279.529
1277.907
1276.091
1273.752
1269.82
1260.578
1282.7
1281.233
1279.709
1278.089
1276.25
1273.817
1269.565
1259.338
1284.181
1282.766
1281.306
1279.789
1278.171
1276.323
1273.841
1269.433
1258.751
1285.52
1284.152
1282.74
1281.283
1279.77
1278.157
1276.312
1273.839
1269.457
1258.873
1286.729
1285.405
1284.036
1282.624
1281.167
1279.655
1278.045
1276.218
1273.809
1269.632
1260.104
1287.818
1286.537
1285.209
1283.837
1282.421
1280.961
1279.444
1277.839
1276.044
1273.744
1269.996
1262.13
1288.802
1287.563
1286.276
1284.943
1283.564
1282.142
1280.672
1279.15
1277.55
1275.794
1273.642
1270.489
1264.377
1289.705
1288.509
1287.265
1285.972
1284.632
1283.246
1281.812
1280.332
1278.803
1277.209
1275.501
1273.574
1271.044
1266.842
1290.575
1289.424
1288.224
1286.975
1285.676
1284.33
1282.934
1281.491
1280.003
1278.469
1276.9
1275.298
1273.608
1271.73
1269.772
1291.475
1290.372
1289.219
1288.016
1286.764
1285.463
1284.11
1282.708
1281.258
1279.763
1278.25
1276.742
1275.231
1273.713
1272.195
1270.664
1292.399
1291.345
1290.242
1289.089
1287.886
1286.634
1285.329
1283.973
1282.567
1281.113
1279.638
1278.169
1276.709
1275.271
1273.866
1272.4
1270.881
1293.325
1292.322
1291.269
1290.167
1289.016
1287.815
1286.561
1285.254
1283.897
1282.489
1281.052
1279.611
1278.174
1276.757
1275.378
1273.968
1272.46
1271.045
1294.237
1293.283
1292.282
1291.232
1290.132
1288.983
1287.782
1286.527
1285.221
1283.864
1282.467
1281.054
1279.636
1278.228
1276.849
1275.453
1273.992
1272.515
1271.177
1268.593
1270.778
1268.429
1272.861
1270.761
1268.037
1274.868
1272.995
1270.717
1267.308
1276.872
1275.142
1273.193
1270.62
1266.095
1278.873
1277.247
1275.496
1273.431
1270.43
1264.345
1280.768
1279.226
1277.606
1275.826
1273.625
1270.149
1262.405
1282.509
1281.033
1279.504
1277.887
1276.078
1273.75
1269.84
1260.682
1284.089
1282.67
1281.207
1279.687
1278.072
1276.24
1273.814
1269.587
1259.454
1285.52
1284.152
1282.74
1281.283
1279.77
1278.157
1276.312
1273.839
1269.457
1258.873
1286.812
1285.491
1284.126
1282.718
1281.265
1279.755
1278.143
1276.3
1273.836
1269.481
1259.44
1287.977
1286.702
1285.381
1284.015
1282.606
1281.153
1279.641
1278.032
1276.208
1273.807
1269.738
1260.95
1289.024
1287.793
1286.515
1285.19
1283.821
1282.409
1280.948
1279.432
1277.828
1276.035
1273.739
1270.168
1262.813
1289.966
1288.779
1287.543
1286.259
1284.93
1283.554
1282.132
1280.663
1279.141
1277.543
1275.772
1273.666
1270.663
1264.956
1290.827
1289.684
1288.491
1287.25
1285.961
1284.624
1283.239
1281.806
1280.327
1278.8
1277.201
1275.515
1273.644
1271.257
1267.461
1291.655
1290.556
1289.409
1288.212
1286.966
1285.671
1284.326
1282.931
1281.489
1280.003
1278.478
1276.931
1275.357
1273.739
1272.091
1270.505
1292.508
1291.458
1290.358
1289.208
1288.009
1286.761
1285.46
1284.108
1282.708
1281.259
1279.78
1278.292
1276.803
1275.326
1273.876
1272.376
1270.788
1293.385
1292.383
1291.332
1290.232
1289.082
1287.883
1286.631
1285.328
1283.973
1282.568
1281.129
1279.679
1278.228
1276.794
1275.393
1273.968
1272.447
1270.994
1294.262
1293.31
1292.309
1291.259
1290.161
1289.013
1287.812
1286.559
1285.253
1283.897
1282.5
1281.084
1279.66
1278.245
1276.857
1275.456
1273.992
1272.51
1271.156
1295.124
1294.221
1293.271
1292.272
1291.225
1290.128
1288.98
1287.779
1286.526
1285.22
1283.867
1282.485
1281.087
1279.687
1278.304
1276.909
1275.468
1274.018
1272.568
1271.291
1270.788
1268.61
1272.783
1270.788
1268.452
1274.687
1272.864
1270.775
1268.068
1276.577
1274.864
1273
1270.735
1267.349
1278.488
1276.86
1275.138
1273.198
1270.64
1266.151
1280.406
1278.852
1277.233
1275.489
1273.433
1270.451
1264.414
1282.229
1280.742
1279.205
1277.59
1275.817
1273.626
1270.168
1262.492
1283.907
1282.481
1281.009
1279.484
1277.872
1276.069
1273.748
1269.86
1260.785
1285.432
1284.06
1282.645
1281.185
1279.669
1278.058
1276.229
1273.812
1269.609
1259.569
1286.812
1285.491
1284.126
1282.718
1281.265
1279.755
1278.143
1276.3
1273.836
1269.481
1259.44
1288.058
1286.785
1285.467
1284.105
1282.7
1281.25
1279.741
1278.129
1276.289
1273.833
1269.594
1260.33
1289.177
1287.951
1286.679
1285.36
1283.998
1282.593
1281.139
1279.627
1278.019
1276.198
1273.796
1269.92
1261.689
1290.18
1289
1287.771
1286.496
1285.175
1283.809
1282.396
1280.936
1279.421
1277.817
1275.995
1273.738
1270.334
1263.412
1291.079
1289.943
1288.759
1287.526
1286.246
1284.919
1283.544
1282.122
1280.654
1279.133
1277.508
1275.742
1273.695
1270.833
1265.469
1291.898
1290.807
1289.666
1288.477
1287.239
1285.953
1284.617
1283.232
1281.8
1280.322
1278.782
1277.187
1275.528
1273.711
1271.464
1292.683
1291.636
1290.541
1289.396
1288.203
1286.96
1285.666
1284.322
1282.928
1281.487
1280.001
1278.483
1276.951
1275.41
1273.878
1272.342
1270.672
1293.491
1292.492
1291.444
1290.347
1289.2
1288.005
1286.757
1285.457
1284.106
1282.707
1281.265
1279.798
1278.323
1276.856
1275.417
1273.968
1272.428
1270.92
1294.32
1293.369
1292.369
1291.322
1290.225
1289.078
1287.88
1286.629
1285.326
1283.972
1282.574
1281.149
1279.712
1278.281
1276.874
1275.46
1273.992
1272.5
1271.114
1295.149
1294.247
1293.297
1292.299
1291.252
1290.157
1289.009
1287.809
1286.557
1285.252
1283.899
1282.513
1281.11
1279.704
1278.312
1276.912
1275.47
1274.017
1272.564
1271.273
1295.963
1295.109
1294.208
1293.26
1292.265
1291.22
1290.124
1288.977
1287.776
1286.524
1285.217
1283.869
1282.498
1281.116
1279.737
1278.346
1276.918
1275.482
1274.043
1272.625
1271.409
1272.748
1270.799
1268.632
1274.584
1272.788
1270.803
1268.48
1276.389
1274.685
1272.872
1270.794
1268.103
1278.202
1276.57
1274.865
1273.01
1270.757
1267.396
1280.04
1278.474
1276.853
1275.138
1273.208
1270.665
1266.208
1281.885
1280.385
1278.836
1277.223
1275.485
1273.44
1270.471
1264.484
1283.641
1282.203
1280.721
1279.188
1277.579
1275.812
1273.627
1270.187
1262.578
1285.259
1283.88
1282.457
1280.989
1279.468
1277.861
1276.06
1273.747
1269.88
1260.887
1286.729
1285.405
1284.036
1282.624
1281.167
1279.655
1278.045
1276.218
1273.809
1269.632
1260.104
1288.058
1286.785
1285.467
1284.105
1282.7
1281.25
1279.741
1278.129
1276.289
1273.833
1269.594
1260.33
1289.254
1288.031
1286.761
1285.446
1284.087
1282.686
1281.235
1279.726
1278.115
1276.278
1273.82
1269.785
1261.103
1290.328
1289.152
1287.929
1286.659
1285.344
1283.985
1282.579
1281.125
1279.614
1278.006
1276.147
1273.783
1270.092
1262.326
1291.286
1290.156
1288.978
1287.753
1286.481
1285.163
1283.797
1282.384
1280.924
1279.409
1277.764
1275.935
1273.744
1270.494
1263.925
1292.142
1291.057
1289.924
1288.742
1287.513
1286.236
1284.909
1283.534
1282.113
1280.645
1279.091
1277.454
1275.718
1273.726
1270.994
1292.919
1291.878
1290.789
1289.652
1288.466
1287.231
1285.945
1284.609
1283.225
1281.794
1280.297
1278.748
1277.17
1275.538
1273.773
1293.66
1292.664
1291.621
1290.528
1289.387
1288.197
1286.955
1285.661
1284.317
1282.924
1281.476
1279.985
1278.476
1276.959
1275.454
1273.965
1272.405
1270.828
1294.423
1293.474
1292.477
1291.432
1290.338
1289.195
1288
1286.753
1285.454
1284.104
1282.703
1281.263
1279.805
1278.345
1276.902
1275.467
1273.991
1272.486
1271.054
1295.205
1294.304
1293.355
1292.359
1291.314
1290.22
1289.074
1287.876
1286.626
1285.324
1283.969
1282.575
1281.16
1279.739
1278.329
1276.918
1275.473
1274.017
1272.557
1271.239
1295.987
1295.134
1294.234
1293.286
1292.291
1291.248
1290.152
1289.005
1287.806
1286.554
1285.247
1283.896
1282.52
1281.131
1279.744
1278.349
1276.92
1275.483
1274.043
1272.622
1271.394
1296.754
1295.948
1295.096
1294.198
1293.253
1292.26
1291.216
1290.12
1288.973
1287.774
1286.514
1285.206
1283.867
1282.508
1281.142
1279.763
1278.351
1276.925
1275.495
1274.07
1272.683
1271.528
1274.537
1272.753
1270.814
1268.66
1276.283
1274.584
1272.797
1270.823
1268.514
1278.021
1276.385
1274.689
1272.884
1270.818
1268.145
1279.769
1278.192
1276.567
1274.87
1273.025
1270.785
1267.444
1281.539
1280.025
1278.465
1276.849
1275.142
1273.223
1270.69
1266.267
1283.316
1281.864
1280.368
1278.825
1277.217
1275.487
1273.447
1270.492
1264.554
1285.006
1283.616
1282.182
1280.704
1279.175
1277.572
1275.807
1273.629
1270.206
1262.664
1286.563
1285.232
1283.856
1282.437
1280.973
1279.456
1277.85
1276.052
1273.746
1269.9
1261.363
1287.977
1286.702
1285.381
1284.015
1282.606
1281.153
1279.641
1278.032
1276.208
1273.807
1269.738
1260.95
1289.254
1288.031
1286.761
1285.446
1284.087
1282.686
1281.235
1279.726
1278.115
1276.278
1273.82
1269.785
1261.103
1290.402
1289.228
1288.008
1286.741
1285.429
1284.073
1282.671
1281.221
1279.711
1278.101
1276.224
1273.804
1269.962
1261.765
1291.428
1290.303
1289.13
1287.909
1286.643
1285.331
1283.971
1282.565
1281.111
1279.6
1277.943
1276.07
1273.778
1270.254
1262.864
1292.342
1291.263
1290.136
1288.961
1287.738
1286.469
1285.15
1283.784
1282.372
1280.912
1279.351
1277.682
1275.885
1273.754
1270.644
1293.155
1292.12
1291.038
1289.908
1288.729
1287.503
1286.226
1284.899
1283.524
1282.103
1280.599
1279.024
1277.405
1275.697
1273.757
1293.889
1292.899
1291.861
1290.775
1289.641
1288.457
1287.223
1285.937
1284.602
1283.218
1281.763
1280.25
1278.713
1277.15
1275.542
1294.587
1293.642
1292.649
1291.608
1290.519
1289.381
1288.19
1286.948
1285.656
1284.312
1282.906
1281.444
1279.956
1278.454
1276.952
1275.473
1273.989
1272.469
1270.977
1295.306
1294.406
1293.46
1292.466
1291.424
1290.333
1289.19
1287.995
1286.748
1285.45
1284.093
1282.684
1281.249
1279.802
1278.359
1276.926
1275.477
1274.016
1272.546
1271.189
1296.042
1295.19
1294.291
1293.345
1292.351
1291.309
1290.215
1289.07
1287.872
1286.623
1285.314
1283.955
1282.568
1281.165
1279.761
1278.355
1276.924
1275.485
1274.043
1272.616
1271.366
1296.777
1295.972
1295.121
1294.223
1293.279
1292.286
1291.243
1290.148
1289.002
1287.803
1286.543
1285.231
1283.888
1282.523
1281.15
1279.766
1278.353
1276.927
1275.496
1274.07
1272.681
1271.517
1297.497
1296.739
1295.935
1295.086
1294.191
1293.248
1292.255
1291.212
1290.116
1288.97
1287.759
1286.492
1285.19
1283.861
1282.516
1281.156
1279.765
1278.354
1276.931
1275.507
1274.097
1272.742
1271.646
1276.236
1274.538
1272.763
1270.834
1268.692
1277.919
1276.28
1274.588
1272.811
1270.847
1268.553
1279.597
1278.013
1276.384
1274.696
1272.901
1270.847
1268.188
1281.283
1279.757
1278.187
1276.568
1274.879
1273.044
1270.814
1267.493
1282.988
1281.523
1280.014
1278.459
1276.85
1275.151
1273.238
1270.716
1266.325
1284.696
1283.294
1281.847
1280.355
1278.817
1277.215
1275.488
1273.454
1270.513
1264.624
1286.321
1284.981
1283.595
1282.165
1280.691
1279.167
1277.564
1275.803
1273.631
1270.225
1263.066
1287.818
1286.537
1285.209
1283.837
1282.421
1280.961
1279.444
1277.839
1276.044
1273.744
1269.996
1262.13
1289.177
1287.951
1286.679
1285.36
1283.998
1282.593
1281.139
1279.627
1278.019
1276.198
1273.796
1269.92
1261.689
1290.402
1289.228
1288.008
1286.741
1285.429
1284.073
1282.671
1281.221
1279.711
1278.101
1276.224
1273.804
1269.962
1261.765
1291.5
1290.377
1289.206
1287.989
1286.725
1285.416
1284.059
1282.657
1281.206
1279.697
1278.033
1276.139
1273.794
1270.128
1262.323
1292.48
1291.404
1290.281
1289.111
1287.894
1286.63
1285.317
1283.957
1282.551
1281.098
1279.532
1277.843
1276.005
1273.777
1270.404
1293.349
1292.319
1291.243
1290.118
1288.946
1287.727
1286.457
1285.138
1283.772
1282.36
1280.852
1279.258
1277.609
1275.843
1273.767
1294.118
1293.134
1292.102
1291.022
1289.895
1288.719
1287.492
1286.215
1284.889
1283.514
1282.054
1280.523
1278.963
1277.362
1275.679
1294.81
1293.869
1292.882
1291.847
1290.764
1289.632
1288.449
1287.214
1285.929
1284.594
1283.182
1281.706
1280.201
1278.675
1277.126
1295.465
1294.569
1293.627
1292.636
1291.598
1290.512
1289.374
1288.184
1286.942
1285.65
1284.288
1282.86
1281.399
1279.912
1278.413
1276.936
1275.481
1274.014
1272.534
1271.123
1296.14
1295.289
1294.393
1293.449
1292.457
1291.418
1290.327
1289.185
1287.99
1286.744
1285.433
1284.06
1282.655
1281.226
1279.79
1278.364
1276.93
1275.487
1274.042
1272.608
1271.324
1296.831
1296.027
1295.177
1294.28
1293.337
1292.346
1291.304
1290.211
1289.066
1287.869
1286.607
1285.288
1283.934
1282.556
1281.166
1279.773
1278.358
1276.93
1275.497
1274.069
1272.677
1271.494
1297.52
1296.762
1295.959
1295.111
1294.216
1293.274
1292.281
1291.238
1290.144
1288.998
1287.786
1286.516
1285.21
1283.875
1282.523
1281.159
1279.768
1278.356
1276.932
1275.508
1274.096
1272.741
1271.638
1298.194
1297.483
1296.726
1295.925
1295.079
1294.186
1293.243
1292.25
1291.207
1290.112
1288.951
1287.728
1286.466
1285.172
1283.853
1282.519
1281.156
1279.765
1278.356
1276.937
1275.52
1274.123
1272.801
1271.761
1277.873
1276.233
1274.543
1272.777
1270.859
1268.731
1279.5
1277.912
1276.28
1274.597
1272.829
1270.877
1268.593
1281.121
1279.587
1278.01
1276.388
1274.708
1272.923
1270.877
1268.231
1282.745
1281.27
1279.749
1278.185
1276.573
1274.893
1273.064
1270.843
1267.542
1284.385
1282.971
1281.51
1280.006
1278.457
1276.855
1275.16
1273.252
1270.742
1266.385
1286.026
1284.674
1283.276
1281.833
1280.347
1278.814
1277.214
1275.49
1273.462
1270.534
1264.958
1287.587
1286.297
1284.96
1283.578
1282.152
1280.682
1279.158
1277.557
1275.798
1273.632
1270.317
1263.745
1289.024
1287.793
1286.515
1285.19
1283.821
1282.409
1280.948
1279.432
1277.828
1276.035
1273.739
1270.168
1262.813
1290.328
1289.152
1287.929
1286.659
1285.344
1283.985
1282.579
1281.125
1279.614
1278.006
1276.147
1273.783
1270.092
1262.326
1291.5
1290.377
1289.206
1287.989
1286.725
1285.416
1284.059
1282.657
1281.206
1279.697
1278.033
1276.139
1273.794
1270.128
1262.323
1292.549
1291.476
1290.355
1289.187
1287.973
1286.712
1285.402
1284.045
1282.642
1281.192
1279.625
1277.925
1276.066
1273.789
1270.281
1293.482
1292.457
1291.384
1290.263
1289.096
1287.881
1286.617
1285.304
1283.944
1282.538
1281.029
1279.424
1277.756
1275.949
1273.781
1294.306
1293.327
1292.3
1291.226
1290.104
1288.935
1287.715
1286.445
1285.126
1283.76
1282.298
1280.755
1279.177
1277.547
1275.808
1295.033
1294.097
1293.115
1292.086
1291.009
1289.885
1288.709
1287.482
1286.205
1284.879
1283.464
1281.973
1280.454
1278.908
1277.323
1295.682
1294.791
1293.853
1292.868
1291.836
1290.755
1289.623
1288.44
1287.206
1285.921
1284.555
1283.117
1281.647
1280.151
1278.635
1296.295
1295.448
1294.554
1293.614
1292.627
1291.591
1290.505
1289.367
1288.177
1286.936
1285.62
1284.231
1282.801
1281.337
1279.847
1278.375
1276.936
1275.49
1274.04
1272.599
1271.268
1296.926
1296.124
1295.275
1294.381
1293.44
1292.451
1291.412
1290.321
1289.179
1287.985
1286.721
1285.389
1284.017
1282.615
1281.195
1279.782
1278.364
1276.933
1275.498
1274.068
1272.671
1271.46
1297.572
1296.815
1296.013
1295.166
1294.272
1293.331
1292.34
1291.299
1290.206
1289.061
1287.848
1286.571
1285.255
1283.907
1282.539
1281.165
1279.772
1278.359
1276.934
1275.509
1274.096
1272.738
1271.621
1298.217
1297.506
1296.75
1295.949
1295.103
1294.21
1293.268
1292.276
1291.234
1290.14
1288.977
1287.751
1286.485
1285.185
1283.86
1282.523
1281.158
1279.767
1278.357
1276.937
1275.52
1274.123
1272.8
1271.756
1298.846
1298.18
1297.47
1296.716
1295.918
1295.073
1294.18
1293.238
1292.246
1291.202
1290.09
1288.913
1287.693
1286.437
1285.151
1283.848
1282.517
1281.154
1279.764
1278.357
1276.941
1275.531
1274.15
1272.858
1271.87
1279.457
1277.867
1276.234
1274.552
1272.796
1270.889
1268.77
1281.029
1279.491
1277.91
1276.285
1274.61
1272.852
1270.908
1268.634
1282.592
1281.109
1279.581
1278.01
1276.395
1274.725
1272.946
1270.907
1268.275
1284.154
1282.731
1281.26
1279.745
1278.187
1276.583
1274.907
1273.084
1270.871
1267.593
1285.729
1284.367
1282.957
1281.501
1280.002
1278.46
1276.861
1275.169
1273.267
1270.768
1266.673
1287.304
1286.004
1284.656
1283.262
1281.824
1280.342
1278.81
1277.212
1275.492
1273.469
1270.637
1265.576
1288.802
1287.563
1286.276
1284.943
1283.564
1282.142
1280.672
1279.15
1277.55
1275.794
1273.642
1270.489
1264.377
1290.18
1289
1287.771
1286.496
1285.175
1283.809
1282.396
1280.936
1279.421
1277.817
1275.995
1273.738
1270.334
1263.412
1291.428
1290.303
1289.13
1287.909
1286.643
1285.331
1283.971
1282.565
1281.111
1279.6
1277.943
1276.07
1273.778
1270.254
1262.864
1292.549
1291.476
1290.355
1289.187
1287.973
1286.712
1285.402
1284.045
1282.642
1281.192
1279.625
1277.925
1276.066
1273.789
1270.281
1293.55
1292.526
1291.455
1290.337
1289.172
1287.96
1286.698
1285.388
1284.031
1282.628
1281.119
1279.509
1277.831
1276.004
1273.789
1294.436
1293.46
1292.436
1291.366
1290.249
1289.084
1287.869
1286.604
1285.291
1283.931
1282.469
1280.918
1279.329
1277.68
1275.902
1295.216
1294.285
1293.308
1292.283
1291.212
1290.093
1288.923
1287.703
1286.433
1285.114
1283.698
1282.199
1280.669
1279.105
1277.493
1295.899
1295.013
1294.08
1293.1
1292.074
1290.999
1289.874
1288.698
1287.472
1286.195
1284.826
1283.379
1281.899
1280.392
1278.858
1296.507
1295.663
1294.774
1293.839
1292.857
1291.827
1290.746
1289.615
1288.432
1287.198
1285.879
1284.483
1283.051
1281.587
1280.1
1297.078
1296.278
1295.433
1294.542
1293.604
1292.619
1291.584
1290.497
1289.359
1288.17
1286.902
1285.555
1284.161
1282.726
1281.253
1279.793
1278.37
1276.937
1275.5
1274.067
1272.664
1271.413
1297.666
1296.91
1296.11
1295.264
1294.372
1293.434
1292.445
1291.406
1290.315
1289.174
1287.958
1286.669
1285.335
1283.964
1282.567
1281.175
1279.778
1278.362
1276.936
1275.51
1274.096
1272.735
1271.595
1298.268
1297.557
1296.803
1296.003
1295.158
1294.266
1293.325
1292.335
1291.293
1290.201
1289.037
1287.804
1286.528
1285.216
1283.876
1282.529
1281.163
1279.77
1278.359
1276.938
1275.52
1274.123
1272.799
1271.745
1298.868
1298.202
1297.493
1296.74
1295.941
1295.097
1294.205
1293.263
1292.271
1291.229
1290.116
1288.935
1287.711
1286.45
1285.157
1283.851
1282.52
1281.155
1279.765
1278.357
1276.942
1275.532
1274.15
1272.858
1271.868
1299.452
1298.832
1298.168
1297.46
1296.709
1295.912
1295.068
1294.175
1293.233
1292.241
1291.178
1290.046
1288.871
1287.655
1286.405
1285.139
1283.845
1282.514
1281.15
1279.762
1278.357
1276.946
1275.543
1274.175
1272.912
1272.022
1280.989
1279.448
1277.865
1276.239
1274.566
1272.82
1270.92
1268.809
1282.506
1281.019
1279.486
1277.911
1276.294
1274.628
1272.876
1270.938
1268.675
1284.009
1282.579
1281.101
1279.579
1278.015
1276.408
1274.742
1272.968
1270.937
1268.319
1285.51
1284.139
1282.72
1281.254
1279.745
1278.194
1276.593
1274.921
1273.103
1270.9
1267.836
1287.02
1285.711
1284.352
1282.947
1281.496
1280.003
1278.462
1276.866
1275.178
1273.282
1270.896
1267.271
1288.531
1287.283
1285.986
1284.642
1283.252
1281.818
1280.337
1278.807
1277.211
1275.493
1273.505
1270.836
1266.207
1289.966
1288.779
1287.543
1286.259
1284.93
1283.554
1282.132
1280.663
1279.141
1277.543
1275.772
1273.666
1270.663
1264.956
1291.286
1290.156
1288.978
1287.753
1286.481
1285.163
1283.797
1282.384
1280.924
1279.409
1277.764
1275.935
1273.744
1270.494
1263.925
1292.48
1291.404
1290.281
1289.111
1287.894
1286.63
1285.317
1283.957
1282.551
1281.098
1279.532
1277.843
1276.005
1273.777
1270.404
1293.55
1292.526
1291.455
1290.337