/*--------------------------------*- C++ -*----------------------------------*\
| =========                 |                                                 |
| \\      /  F ield         | OpenFOAM: The Open Source CFD Toolbox           |
|  \\    /   O peration     | Version:  2306                                  |
|   \\  /    A nd           | Website:  www.openfoam.com                      |
|    \\/     M anipulation  |                                                 |
\*---------------------------------------------------------------------------*/
FoamFile
{
    version     2.0;
    format      ascii;
    arch        "LSB;label=32;scalar=64";
    class       volScalarField;
    location    "0.6/interconnect";
    object      T;
}
// * * * * * * * * * * * * * * * * * * * * * * * * * * * * * * * * * * * * * //

dimensions      [0 0 0 1 0 0 0];

internalField   nonuniform List<scalar> 
16000
(
1159.322
1159.32
1160.959
1159.265
1159.317
1160.958
1159.262
1163.142
1160.94
1159.15
1159.312
1160.957
1159.257
1163.141
1160.939
1159.146
1165.409
1163.141
1160.904
1158.984
1159.306
1160.955
1159.25
1163.14
1160.937
1159.138
1165.408
1163.14
1160.903
1158.976
1167.596
1165.415
1163.141
1160.855
1158.773
1159.299
1160.952
1159.241
1163.138
1160.935
1159.126
1165.407
1163.139
1160.9
1158.961
1167.596
1165.414
1163.14
1160.853
1158.759
1169.656
1167.604
1165.428
1163.145
1160.798
1158.599
1159.293
1160.95
1159.232
1163.136
1160.931
1159.112
1165.405
1163.136
1160.896
1158.941
1167.594
1165.412
1163.137
1160.849
1158.731
1169.655
1167.603
1165.426
1163.143
1160.795
1158.574
1171.579
1169.664
1167.621
1165.45
1163.156
1160.757
1158.487
1159.288
1160.947
1159.224
1163.134
1160.928
1159.097
1165.403
1163.133
1160.892
1158.918
1167.593
1165.409
1163.134
1160.843
1158.693
1169.654
1167.602
1165.423
1163.139
1160.788
1158.525
1171.579
1169.663
1167.619
1165.448
1163.153
1160.751
1158.454
1173.374
1171.587
1169.68
1167.648
1165.485
1163.173
1160.733
1158.384
1159.284
1160.945
1159.216
1163.132
1160.925
1159.082
1165.401
1163.13
1160.886
1158.892
1167.591
1165.407
1163.129
1160.836
1158.654
1169.652
1167.599
1165.419
1163.133
1160.779
1158.451
1171.578
1169.661
1167.617
1165.443
1163.147
1160.739
1158.389
1173.374
1171.586
1169.679
1167.646
1165.482
1163.17
1160.725
1158.345
1175.051
1173.381
1171.603
1169.708
1167.689
1165.523
1163.189
1160.715
1158.297
1159.282
1160.943
1159.21
1163.13
1160.922
1159.068
1165.398
1163.127
1160.881
1158.863
1167.589
1165.403
1163.124
1160.828
1158.625
1169.651
1167.596
1165.415
1163.125
1160.769
1158.358
1171.576
1169.659
1167.613
1165.437
1163.139
1160.723
1158.288
1173.373
1171.585
1169.677
1167.642
1165.477
1163.164
1160.709
1158.265
1175.05
1173.38
1171.601
1169.706
1167.687
1165.521
1163.185
1160.705
1158.253
1176.62
1175.057
1173.395
1171.628
1169.748
1167.732
1165.552
1163.209
1160.705
1158.231
1159.282
1160.942
1159.207
1163.129
1160.919
1159.057
1165.397
1163.125
1160.875
1158.834
1167.587
1165.4
1163.119
1160.818
1158.561
1169.649
1167.593
1165.409
1163.115
1160.762
1171.575
1169.657
1167.608
1165.428
1163.126
1160.706
1158.146
1173.371
1171.583
1169.673
1167.636
1165.468
1163.156
1160.686
1158.14
1175.049
1173.379
1171.599
1169.702
1167.681
1165.516
1163.179
1160.685
1158.162
1176.62
1175.056
1173.394
1171.626
1169.746
1167.73
1165.55
1163.205
1160.694
1158.183
1178.092
1176.626
1175.07
1173.418
1171.665
1169.789
1167.763
1165.584
1163.234
1160.706
1158.187
1159.284
1160.942
1159.207
1163.128
1160.918
1159.051
1165.395
1163.123
1160.871
1158.812
1167.585
1165.398
1163.114
1160.808
1158.496
1169.647
1167.591
1165.404
1163.106
1160.742
1171.573
1169.654
1167.603
1165.418
1163.107
1173.37
1171.58
1169.669
1167.627
1165.453
1163.147
1160.657
1157.962
1175.048
1173.377
1171.596
1169.696
1167.673
1165.51
1163.169
1160.654
1158.019
1176.619
1175.055
1173.392
1171.623
1169.741
1167.726
1165.546
1163.197
1160.67
1158.085
1178.092
1176.625
1175.069
1173.417
1171.663
1169.788
1167.762
1165.583
1163.23
1160.693
1158.138
1179.476
1178.097
1176.637
1175.091
1173.452
1171.703
1169.82
1167.798
1165.621
1163.265
1160.719
1158.168
1159.288
1160.943
1159.21
1163.128
1160.918
1159.051
1165.395
1163.122
1160.869
1158.8
1167.583
1165.396
1163.111
1160.799
1158.448
1169.645
1167.588
1165.4
1163.098
1160.72
1171.571
1169.651
1167.598
1165.409
1163.088
1173.368
1171.578
1169.664
1167.617
1165.429
1175.047
1173.375
1171.592
1169.689
1167.659
1165.503
1163.157
1160.613
1157.818
1176.618
1175.053
1173.389
1171.618
1169.733
1167.721
1165.54
1163.185
1160.633
1157.933
1178.091
1176.624
1175.067
1173.414
1171.659
1169.784
1167.759
1165.579
1163.221
1160.668
1158.037
1179.476
1178.097
1176.637
1175.089
1173.451
1171.702
1169.818
1167.797
1165.619
1163.26
1160.706
1158.119
1180.779
1179.481
1178.108
1176.657
1175.122
1173.487
1171.731
1169.853
1167.836
1165.66
1163.302
1160.743
1158.173
1159.293
1160.945
1159.216
1163.129
1160.919
1159.057
1165.395
1163.122
1160.869
1158.8
1167.583
1165.395
1163.109
1160.795
1158.422
1169.644
1167.586
1165.397
1163.091
1160.701
1171.57
1169.649
1167.594
1165.401
1163.072
1173.367
1171.576
1169.66
1167.608
1165.411
1175.045
1173.373
1171.588
1169.679
1167.635
1176.617
1175.052
1173.386
1171.611
1169.72
1167.716
1165.534
1163.169
1160.582
1157.718
1178.09
1176.623
1175.064
1173.409
1171.652
1169.78
1167.755
1165.573
1163.207
1160.628
1157.881
1179.475
1178.096
1176.635
1175.087
1173.447
1171.699
1169.816
1167.795
1165.615
1163.251
1160.68
1158.018
1180.778
1179.48
1178.107
1176.655
1175.12
1173.486
1171.73
1169.852
1167.835
1165.659
1163.298
1160.731
1158.124
1182.007
1180.783
1179.491
1178.126
1176.685
1175.153
1173.512
1171.762
1169.888
1167.876
1165.704
1163.345
1160.78
1158.2
1159.299
1160.947
1159.224
1163.13
1160.922
1159.068
1165.395
1163.123
1160.871
1158.812
1167.583
1165.395
1163.109
1160.795
1158.422
1169.643
1167.585
1165.395
1163.088
1160.69
1171.569
1169.647
1167.591
1165.395
1163.06
1173.365
1171.573
1169.656
1167.601
1165.396
1175.044
1173.371
1171.584
1169.671
1167.617
1176.615
1175.049
1173.382
1171.602
1169.697
1178.089
1176.621
1175.061
1173.403
1171.64
1169.775
1167.751
1165.565
1163.188
1160.571
1157.663
1179.474
1178.095
1176.633
1175.082
1173.44
1171.695
1169.813
1167.791
1165.609
1163.237
1160.639
1157.864
1180.778
1179.479
1178.106
1176.653
1175.117
1173.483
1171.728
1169.85
1167.833
1165.655
1163.289
1160.707
1158.026
1182.006
1180.783
1179.49
1178.125
1176.683
1175.152
1173.512
1171.761
1169.888
1167.875
1165.703
1163.341
1160.769
1158.152
1183.165
1182.011
1180.792
1179.507
1178.151
1176.713
1175.176
1173.54
1171.794
1169.926
1167.918
1165.75
1163.393
1160.827
1158.249
1159.306
1160.95
1159.232
1163.132
1160.925
1159.082
1165.397
1163.125
1160.875
1158.834
1167.583
1165.396
1163.111
1160.799
1158.448
1169.643
1167.585
1165.395
1163.088
1160.69
1171.568
1169.646
1167.589
1165.392
1163.053
1173.364
1171.572
1169.653
1167.595
1165.386
1175.043
1173.369
1171.58
1169.664
1167.604
1176.614
1175.048
1173.378
1171.594
1169.681
1178.088
1176.619
1175.058
1173.395
1171.619
1179.473
1178.093
1176.63
1175.077
1173.429
1171.691
1169.81
1167.787
1165.601
1163.215
1160.582
1157.651
1180.777
1179.478
1178.104
1176.649
1175.111
1173.48
1171.726
1169.848
1167.83
1165.65
1163.275
1160.669
1157.878
1182.006
1180.782
1179.489
1178.122
1176.68
1175.15
1173.51
1171.76
1169.886
1167.874
1165.7
1163.334
1160.748
1158.057
1183.165
1182.01
1180.792
1179.506
1178.15
1176.712
1175.175
1173.539
1171.794
1169.925
1167.918
1165.75
1163.391
1160.818
1158.201
1184.259
1183.169
1182.019
1180.807
1179.531
1178.178
1176.734
1175.201
1173.569
1171.828
1169.965
1167.963
1165.799
1163.445
1160.884
1159.312
1160.952
1159.241
1163.134
1160.928
1159.097
1165.398
1163.127
1160.881
1158.863
1167.585
1165.398
1163.114
1160.808
1158.496
1169.644
1167.586
1165.397
1163.091
1160.701
1171.568
1169.646
1167.589
1165.392
1163.053
1173.364
1171.571
1169.652
1167.593
1165.381
1175.042
1173.367
1171.578
1169.659
1167.595
1176.613
1175.046
1173.375
1171.588
1169.669
1178.087
1176.617
1175.054
1173.388
1171.604
1179.472
1178.091
1176.626
1175.07
1173.411
1180.776
1179.477
1178.101
1176.644
1175.101
1173.476
1171.723
1169.845
1167.826
1165.641
1163.254
1160.616
1157.678
1182.005
1180.781
1179.487
1178.119
1176.675
1175.147
1173.508
1171.758
1169.885
1167.871
1165.695
1163.323
1160.716
1157.916
1183.164
1182.01
1180.79
1179.504
1178.147
1176.71
1175.174
1173.538
1171.793
1169.925
1167.917
1165.748
1163.386
1160.8
1158.106
1184.259
1183.169
1182.019
1180.806
1179.529
1178.177
1176.734
1175.201
1173.569
1171.828
1169.965
1167.963
1165.8
1163.445
1160.876
1185.292
1184.263
1183.177
1182.033
1180.829
1179.555
1178.197
1176.757
1175.228
1173.6
1171.864
1170.006
1168.008
1165.85
1163.501
1159.317
1160.955
1159.25
1163.136
1160.931
1159.112
1165.401
1163.13
1160.886
1158.892
1167.587
1165.4
1163.119
1160.818
1158.561
1169.645
1167.588
1165.4
1163.098
1160.72
1171.569
1169.647
1167.591
1165.395
1163.06
1173.364
1171.571
1169.652
1167.593
1165.381
1175.041
1173.367
1171.576
1169.657
1167.591
1176.612
1175.045
1173.373
1171.584
1169.662
1178.086
1176.616
1175.051
1173.383
1171.594
1179.471
1178.09
1176.623
1175.063
1173.397
1180.775
1179.475
1178.098
1176.637
1175.084
1182.004
1180.779
1179.484
1178.114
1176.666
1175.143
1173.505
1171.756
1169.882
1167.867
1165.687
1163.305
1160.672
1157.735
1183.164
1182.008
1180.788
1179.5
1178.142
1176.707
1175.172
1173.537
1171.792
1169.924
1167.916
1165.745
1163.378
1160.775
1157.966
1184.258
1183.168
1182.018
1180.804
1179.527
1178.175
1176.732
1175.2
1173.568
1171.828
1169.965
1167.964
1165.8
1163.443
1160.861
1185.292
1184.262
1183.177
1182.032
1180.828
1179.554
1178.196
1176.757
1175.228
1173.6
1171.864
1170.006
1168.01
1165.851
1163.501
1186.267
1185.295
1184.27
1183.19
1182.054
1180.852
1179.572
1178.218
1176.781
1175.256
1173.633
1171.901
1170.047
1168.055
1165.901
1159.32
1160.957
1159.257
1163.138
1160.935
1159.126
1165.403
1163.133
1160.892
1158.918
1167.589
1165.403
1163.124
1160.828
1158.625
1169.647
1167.591
1165.404
1163.106
1160.742
1171.57
1169.649
1167.594
1165.401
1163.072
1173.364
1171.572
1169.653
1167.595
1165.386
1175.041
1173.367
1171.576
1169.657
1167.591
1176.612
1175.044
1173.372
1171.582
1169.658
1178.085
1176.615
1175.049
1173.379
1171.587
1179.47
1178.088
1176.621
1175.058
1173.388
1180.774
1179.474
1178.095
1176.632
1175.072
1182.003
1180.778
1179.481
1178.108
1176.65
1183.163
1182.007
1180.786
1179.496
1178.134
1176.704
1175.17
1173.535
1171.79
1169.921
1167.913
1165.74
1163.367
1160.745
1157.796
1184.257
1183.167
1182.016
1180.801
1179.522
1178.172
1176.73
1175.198
1173.567
1171.827
1169.965
1167.964
1165.801
1163.441
1160.842
1185.291
1184.262
1183.175
1182.03
1180.826
1179.552
1178.195
1176.756
1175.227
1173.6
1171.865
1170.008
1168.012
1165.855
1163.503
1186.267
1185.295
1184.27
1183.189
1182.053
1180.851
1179.572
1178.217
1176.781
1175.256
1173.633
1171.902
1170.049
1168.057
1165.903
1187.187
1186.27
1185.302
1184.283
1183.209
1182.075
1180.868
1179.592
1178.24
1176.807
1175.285
1173.666
1171.938
1170.089
1168.1
1159.322
1160.958
1159.262
1163.14
1160.937
1159.138
1165.405
1163.136
1160.896
1158.941
1167.591
1165.407
1163.129
1160.836
1158.654
1169.649
1167.593
1165.409
1163.115
1160.762
1171.571
1169.651
1167.598
1165.409
1163.088
1173.365
1171.573
1169.656
1167.601
1165.396
1175.042
1173.367
1171.578
1169.659
1167.595
1176.612
1175.044
1173.372
1171.582
1169.658
1178.085
1176.614
1175.048
1173.377
1171.584
1179.469
1178.087
1176.619
1175.055
1173.382
1180.773
1179.472
1178.093
1176.627
1175.063
1182.002
1180.776
1179.479
1178.103
1176.639
1183.162
1182.006
1180.784
1179.491
1178.12
1184.257
1183.166
1182.014
1180.797
1179.514
1178.169
1176.729
1175.197
1173.566
1171.826
1169.964
1167.963
1165.799
1163.438
1160.826
1185.29
1184.261
1183.174
1182.028
1180.821
1179.55
1178.193
1176.754
1175.226
1173.6
1171.865
1170.009
1168.015
1165.86
1163.507
1186.266
1185.294
1184.269
1183.188
1182.05
1180.849
1179.571
1178.216
1176.781
1175.256
1173.633
1171.903
1170.051
1168.062
1165.91
1187.187
1186.27
1185.302
1184.282
1183.208
1182.074
1180.867
1179.591
1178.24
1176.807
1175.285
1173.667
1171.94
1170.091
1168.104
1188.056
1187.191
1186.277
1185.314
1184.301
1183.229
1182.09
1180.886
1179.612
1178.263
1176.834
1175.315
1173.699
1171.975
1170.129
1160.959
1159.265
1163.141
1160.939
1159.146
1165.407
1163.139
1160.9
1158.961
1167.593
1165.409
1163.134
1160.843
1158.693
1169.651
1167.596
1165.415
1163.125
1160.769
1158.358
1171.573
1169.654
1167.603
1165.418
1163.107
1173.367
1171.576
1169.66
1167.608
1165.411
1175.043
1173.369
1171.58
1169.664
1167.604
1176.612
1175.045
1173.373
1171.584
1169.662
1178.085
1176.614
1175.048
1173.377
1171.584
1179.469
1178.087
1176.618
1175.053
1173.379
1180.772
1179.471
1178.091
1176.624
1175.058
1182.001
1180.775
1179.477
1178.099
1176.631
1183.161
1182.004
1180.781
1179.486
1178.11
1184.256
1183.164
1182.011
1180.792
1179.501
1185.29
1184.259
1183.172
1182.024
1180.814
1179.547
1178.191
1176.753
1175.225
1173.598
1171.864
1170.009
1168.017
1165.865
1163.517
1186.266
1185.293
1184.267
1183.185
1182.046
1180.847
1179.569
1178.215
1176.78
1175.255
1173.633
1171.904
1170.055
1168.068
1165.92
1187.187
1186.269
1185.301
1184.28
1183.206
1182.072
1180.866
1179.59
1178.239
1176.807
1175.286
1173.668
1171.942
1170.096
1168.111
1188.055
1187.19
1186.277
1185.313
1184.3
1183.228
1182.089
1180.885
1179.612
1178.263
1176.834
1175.316
1173.701
1171.978
1170.133
1188.874
1188.059
1187.197
1186.288
1185.331
1184.319
1183.243
1182.107
1180.905
1179.634
1178.288
1176.861
1175.346
1173.733
1172.012
1163.142
1160.94
1159.15
1165.408
1163.14
1160.903
1158.976
1167.594
1165.412
1163.137
1160.849
1158.731
1169.652
1167.599
1165.419
1163.133
1160.779
1158.451
1171.575
1169.657
1167.608
1165.428
1163.126
1160.706
1158.146
1173.368
1171.578
1169.664
1167.617
1165.429
1175.044
1173.371
1171.584
1169.671
1167.617
1176.613
1175.046
1173.375
1171.588
1169.669
1178.085
1176.615
1175.049
1173.379
1171.587
1179.469
1178.087
1176.618
1175.053
1173.379
1180.772
1179.471
1178.09
1176.622
1175.055
1182.001
1180.774
1179.475
1178.096
1176.626
1183.16
1182.003
1180.779
1179.482
1178.103
1184.255
1183.163
1182.009
1180.788
1179.492
1185.289
1184.258
1183.169
1182.019
1180.802
1186.265
1185.292
1184.265
1183.181
1182.04
1180.844
1179.567
1178.214
1176.778
1175.254
1173.633
1171.905
1170.058
1168.076
1165.937
1187.186
1186.268
1185.299
1184.277
1183.202
1182.07
1180.865
1179.589
1178.238
1176.806
1175.286
1173.669
1171.946
1170.103
1168.123
1188.055
1187.19
1186.276
1185.312
1184.298
1183.227
1182.088
1180.885
1179.611
1178.263
1176.834
1175.317
1173.703
1171.982
1170.14
1188.873
1188.058
1187.197
1186.288
1185.33
1184.318
1183.243
1182.106
1180.905
1179.634
1178.288
1176.861
1175.347
1173.735
1172.015
1189.643
1188.877
1188.065
1187.208
1186.305
1185.349
1184.333
1183.259
1182.124
1180.925
1179.656
1178.313
1176.889
1175.376
1173.766
1165.409
1163.141
1160.904
1158.984
1167.596
1165.414
1163.14
1160.853
1158.759
1169.654
1167.602
1165.423
1163.139
1160.788
1158.525
1171.576
1169.659
1167.613
1165.437
1163.139
1160.723
1158.288
1173.37
1171.58
1169.669
1167.627
1165.453
1163.147
1160.657
1157.962
1175.045
1173.373
1171.588
1169.679
1167.635
1176.614
1175.048
1173.378
1171.594
1169.681
1178.086
1176.616
1175.051
1173.383
1171.594
1179.469
1178.087
1176.619
1175.055
1173.382
1180.772
1179.471
1178.09
1176.622
1175.055
1182
1180.774
1179.474
1178.094
1176.624
1183.16
1182.003
1180.778
1179.479
1178.098
1184.254
1183.162
1182.007
1180.784
1179.485
1185.288
1184.257
1183.167
1182.015
1180.793
1186.264
1185.291
1184.263
1183.177
1182.028
1187.185
1186.267
1185.298
1184.274
1183.196
1182.068
1180.863
1179.588
1178.237
1176.805
1175.286
1173.67
1171.949
1170.111
1168.141
1188.054
1187.189
1186.274
1185.309
1184.294
1183.225
1182.087
1180.884
1179.611
1178.263
1176.834
1175.318
1173.707
1171.989
1170.152
1188.873
1188.058
1187.196
1186.286
1185.328
1184.317
1183.242
1182.106
1180.904
1179.633
1178.288
1176.863
1175.349
1173.739
1172.022
1189.643
1188.876
1188.065
1187.207
1186.304
1185.348
1184.332
1183.259
1182.124
1180.925
1179.656
1178.313
1176.89
1175.378
1173.768
1190.366
1189.646
1188.883
1188.075
1187.224
1186.321
1185.362
1184.347
1183.276
1182.143
1180.946
1179.679
1178.338
1176.916
1175.405
1167.596
1165.415
1163.141
1160.855
1158.773
1169.655
1167.603
1165.426
1163.143
1160.795
1158.574
1171.578
1169.661
1167.617
1165.443
1163.147
1160.739
1158.389
1173.371
1171.583
1169.673
1167.636
1165.468
1163.156
1160.686
1158.14
1175.047
1173.375
1171.592
1169.689
1167.659
1165.503
1163.157
1160.613
1157.818
1176.615
1175.049
1173.382
1171.602
1169.697
1178.087
1176.617
1175.054
1173.388
1171.604
1179.47
1178.088
1176.621
1175.058
1173.388
1180.772
1179.471
1178.091
1176.624
1175.058
1182
1180.774
1179.474
1178.094
1176.624
1183.159
1182.002
1180.777
1179.478
1178.096
1184.254
1183.161
1182.006
1180.781
1179.481
1185.287
1184.256
1183.166
1182.011
1180.787
1186.263
1185.29
1184.261
1183.173
1182.02
1187.185
1186.266
1185.296
1184.27
1183.186
1188.054
1187.188
1186.272
1185.306
1184.288
1183.223
1182.086
1180.882
1179.609
1178.262
1176.834
1175.319
1173.71
1171.997
1170.169
1188.873
1188.057
1187.194
1186.284
1185.325
1184.315
1183.241
1182.105
1180.903
1179.633
1178.288
1176.864
1175.352
1173.746
1172.033
1189.643
1188.876
1188.064
1187.206
1186.302
1185.347
1184.331
1183.258
1182.124
1180.925
1179.657
1178.314
1176.892
1175.382
1173.775
1190.366
1189.646
1188.882
1188.075
1187.223
1186.321
1185.361
1184.347
1183.275
1182.143
1180.946
1179.68
1178.339
1176.918
1175.408
1191.044
1190.369
1189.652
1188.893
1188.09
1187.239
1186.334
1185.376
1184.363
1183.293
1182.163
1180.967
1179.703
1178.363
1176.943
1169.656
1167.604
1165.428
1163.145
1160.798
1158.599
1171.579
1169.663
1167.619
1165.448
1163.153
1160.751
1158.454
1173.373
1171.585
1169.677
1167.642
1165.477
1163.164
1160.709
1158.265
1175.048
1173.377
1171.596
1169.696
1167.673
1165.51
1163.169
1160.654
1158.019
1176.617
1175.052
1173.386
1171.611
1169.72
1167.716
1165.534
1163.169
1160.582
1157.718
1178.088
1176.619
1175.058
1173.395
1171.619
1179.471
1178.09
1176.623
1175.063
1173.397
1180.773
1179.472
1178.093
1176.627
1175.063
1182.001
1180.774
1179.475
1178.096
1176.626
1183.159
1182.002
1180.777
1179.478
1178.096
1184.253
1183.161
1182.005
1180.78
1179.479
1185.287
1184.255
1183.164
1182.009
1180.783
1186.263
1185.289
1184.259
1183.17
1182.015
1187.184
1186.265
1185.294
1184.266
1183.178
1188.053
1187.187
1186.271
1185.302
1184.278
1188.872
1188.056
1187.193
1186.281
1185.319
1184.313
1183.239
1182.103
1180.902
1179.632
1178.288
1176.865
1175.355
1173.752
1172.049
1189.642
1188.875
1188.062
1187.203
1186.299
1185.345
1184.33
1183.257
1182.123
1180.924
1179.657
1178.315
1176.895
1175.387
1173.785
1190.366
1189.645
1188.881
1188.073
1187.221
1186.319
1185.36
1184.346
1183.275
1182.143
1180.946
1179.681
1178.341
1176.922
1175.414
1191.044
1190.369
1189.652
1188.892
1188.09
1187.239
1186.333
1185.375
1184.363
1183.293
1182.163
1180.968
1179.704
1178.365
1176.945
1191.678
1191.047
1190.375
1189.662
1188.907
1188.106
1187.251
1186.347
1185.391
1184.38
1183.311
1182.183
1180.989
1179.726
1178.388
1171.579
1169.664
1167.621
1165.45
1163.156
1160.757
1158.487
1173.374
1171.586
1169.679
1167.646
1165.482
1163.17
1160.725
1158.345
1175.049
1173.379
1171.599
1169.702
1167.681
1165.516
1163.179
1160.685
1158.162
1176.618
1175.053
1173.389
1171.618
1169.733
1167.721
1165.54
1163.185
1160.633
1157.933
1178.089
1176.621
1175.061
1173.403
1171.64
1169.775
1167.751
1165.565
1163.188
1160.571
1157.663
1179.472
1178.091
1176.626
1175.07
1173.411
1180.774
1179.474
1178.095
1176.632
1175.072
1182.001
1180.775
1179.477
1178.099
1176.631
1183.16
1182.003
1180.778
1179.479
1178.098
1184.253
1183.161
1182.005
1180.78
1179.479
1185.287
1184.255
1183.164
1182.008
1180.782
1186.262
1185.288
1184.258
1183.168
1182.011
1187.183
1186.264
1185.292
1184.263
1183.173
1188.052
1187.186
1186.269
1185.299
1184.271
1188.871
1188.055
1187.191
1186.277
1185.31
1189.642
1188.874
1188.061
1187.2
1186.293
1185.343
1184.329
1183.256
1182.122
1180.924
1179.656
1178.316
1176.897
1175.394
1173.799
1190.365
1189.645
1188.88
1188.071
1187.218
1186.318
1185.359
1184.346
1183.274
1182.142
1180.946
1179.682
1178.344
1176.927
1175.423
1191.043
1190.368
1189.651
1188.891
1188.088
1187.238
1186.332
1185.375
1184.363
1183.293
1182.163
1180.969
1179.705
1178.368
1176.951
1191.677
1191.046
1190.374
1189.661
1188.906
1188.105
1187.251
1186.347
1185.39
1184.38
1183.312
1182.183
1180.99
1179.727
1178.39
1192.268
1191.68
1191.052
1190.384
1189.676
1188.922
1188.117
1187.264
1186.361
1185.406
1184.397
1183.33
1182.203
1181.01
1179.748
1173.374
1171.587
1169.68
1167.648
1165.485
1163.173
1160.733
1158.384
1175.05
1173.38
1171.601
1169.706
1167.687
1165.521
1163.185
1160.705
1158.253
1176.619
1175.055
1173.392
1171.623
1169.741
1167.726
1165.546
1163.197
1160.67
1158.085
1178.09
1176.623
1175.064
1173.409
1171.652
1169.78
1167.755
1165.573
1163.207
1160.628
1157.881
1179.473
1178.093
1176.63
1175.077
1173.429
1171.691
1169.81
1167.787
1165.601
1163.215
1160.582
1157.651
1180.775
1179.475
1178.098
1176.637
1175.084
1182.002
1180.776
1179.479
1178.103
1176.639
1183.16
1182.003
1180.779
1179.482
1178.103
1184.254
1183.161
1182.006
1180.781
1179.481
1185.287
1184.255
1183.164
1182.008
1180.782
1186.262
1185.288
1184.257
1183.166
1182.009
1187.183
1186.264
1185.291
1184.261
1183.169
1188.052
1187.185
1186.267
1185.296
1184.266
1188.87
1188.054
1187.189
1186.274
1185.303
1189.641
1188.873
1188.059
1187.197
1186.284
1190.365
1189.644
1188.879
1188.068
1187.213
1186.316
1185.358
1184.345
1183.273
1182.142
1180.946
1179.682
1178.346
1176.933
1175.436
1191.043
1190.368
1189.65
1188.889
1188.085
1187.236
1186.331
1185.374
1184.362
1183.293
1182.163
1180.969
1179.708
1178.373
1176.959
1191.677
1191.046
1190.374
1189.66
1188.905
1188.104
1187.25
1186.346
1185.39
1184.38
1183.312
1182.184
1180.992
1179.731
1178.395
1192.268
1191.68
1191.052
1190.384
1189.675
1188.921
1188.117
1187.264
1186.361
1185.406
1184.397
1183.331
1182.204
1181.012
1179.751
1192.816
1192.27
1191.686
1191.061
1190.398
1189.69
1188.933
1188.129
1187.278
1186.376
1185.423
1184.415
1183.349
1182.223
1181.031
1175.051
1173.381
1171.603
1169.708
1167.689
1165.523
1163.189
1160.715
1158.297
1176.62
1175.056
1173.394
1171.626
1169.746
1167.73
1165.55
1163.205
1160.694
1158.183
1178.091
1176.624
1175.067
1173.414
1171.659
1169.784
1167.759
1165.579
1163.221
1160.668
1158.037
1179.474
1178.095
1176.633
1175.082
1173.44
1171.695
1169.813
1167.791
1165.609
1163.237
1160.639
1157.864
1180.776
1179.477
1178.101
1176.644
1175.101
1173.476
1171.723
1169.845
1167.826
1165.641
1163.254
1160.616
1157.678
1182.003
1180.778
1179.481
1178.108
1176.65
1183.161
1182.004
1180.781
1179.486
1178.11
1184.254
1183.162
1182.007
1180.784
1179.485
1185.287
1184.255
1183.164
1182.009
1180.783
1186.262
1185.288
1184.257
1183.166
1182.009
1187.183
1186.263
1185.29
1184.26
1183.168
1188.051
1187.184
1186.266
1185.294
1184.263
1188.87
1188.053
1187.188
1186.271
1185.298
1189.64
1188.872
1188.057
1187.194
1186.278
1190.364
1189.643
1188.877
1188.065
1187.204
1191.042
1190.367
1189.648
1188.886
1188.08
1187.234
1186.33
1185.373
1184.361
1183.292
1182.163
1180.97
1179.71
1178.379
1176.971
1191.676
1191.045
1190.372
1189.658
1188.902
1188.102
1187.249
1186.345
1185.389
1184.379
1183.312
1182.185
1180.994
1179.735
1178.403
1192.267
1191.679
1191.051
1190.382
1189.673
1188.92
1188.116
1187.263
1186.361
1185.406
1184.397
1183.332
1182.205
1181.015
1179.755
1192.816
1192.27
1191.685
1191.061
1190.397
1189.69
1188.932
1188.129
1187.277
1186.376
1185.423
1184.415
1183.35
1182.224
1181.033
1193.323
1192.818
1192.276
1191.694
1191.075
1190.412
1189.701
1188.945
1188.142
1187.292
1186.392
1185.44
1184.433
1183.368
1182.242
1176.62
1175.057
1173.395
1171.628
1169.748
1167.732
1165.552
1163.209
1160.705
1158.231
1178.092
1176.625
1175.069
1173.417
1171.663
1169.788
1167.762
1165.583
1163.23
1160.693
1158.138
1179.475
1178.096
1176.635
1175.087
1173.447
1171.699
1169.816
1167.795
1165.615
1163.251
1160.68
1158.018
1180.777
1179.478
1178.104
1176.649
1175.111
1173.48
1171.726
1169.848
1167.83
1165.65
1163.275
1160.669
1157.878
1182.004
1180.779
1179.484
1178.114
1176.666
1175.143
1173.505
1171.756
1169.882
1167.867
1165.687
1163.305
1160.672
1157.735
1183.162
1182.006
1180.784
1179.491
1178.12
1184.255
1183.163
1182.009
1180.788
1179.492
1185.287
1184.256
1183.166
1182.011
1180.787
1186.262
1185.288
1184.258
1183.168
1182.011
1187.183
1186.263
1185.29
1184.26
1183.168
1188.051
1187.184
1186.266
1185.293
1184.261
1188.869
1188.053
1187.187
1186.269
1185.295
1189.64
1188.871
1188.056
1187.191
1186.273
1190.363
1189.642
1188.875
1188.062
1187.198
1191.042
1190.366
1189.647
1188.883
1188.072
1191.676
1191.044
1190.371
1189.655
1188.897
1188.101
1187.248
1186.344
1185.389
1184.379
1183.312
1182.185
1180.996
1179.74
1178.414
1192.267
1191.679
1191.05
1190.38
1189.671
1188.919
1188.115
1187.262
1186.36
1185.406
1184.397
1183.332
1182.207
1181.019
1179.763
1192.815
1192.27
1191.684
1191.06
1190.396
1189.689
1188.932
1188.128
1187.277
1186.376
1185.423
1184.416
1183.352
1182.227
1181.038
1193.322
1192.818
1192.275
1191.694
1191.074
1190.411
1189.7
1188.944
1188.142
1187.292
1186.392
1185.44
1184.434
1183.37
1182.244
1193.789
1193.325
1192.824
1192.284
1191.707
1191.088
1190.422
1189.712
1188.957
1188.156
1187.307
1186.408
1185.457
1184.451
1183.387
1178.092
1176.626
1175.07
1173.418
1171.665
1169.789
1167.763
1165.584
1163.234
1160.706
1158.187
1179.476
1178.097
1176.637
1175.089
1173.451
1171.702
1169.818
1167.797
1165.619
1163.26
1160.706
1158.119
1180.778
1179.479
1178.106
1176.653
1175.117
1173.483
1171.728
1169.85
1167.833
1165.655
1163.289
1160.707
1158.026
1182.005
1180.781
1179.487
1178.119
1176.675
1175.147
1173.508
1171.758
1169.885
1167.871
1165.695
1163.323
1160.716
1157.916
1183.163
1182.007
1180.786
1179.496
1178.134
1176.704
1175.17
1173.535
1171.79
1169.921
1167.913
1165.74
1163.367
1160.745
1157.796
1184.256
1183.164
1182.011
1180.792
1179.501
1185.288
1184.257
1183.167
1182.015
1180.793
1186.263
1185.289
1184.259
1183.17
1182.015
1187.183
1186.264
1185.291
1184.261
1183.169
1188.051
1187.184
1186.266
1185.293
1184.261
1188.869
1188.052
1187.186
1186.268
1185.294
1189.639
1188.871
1188.055
1187.189
1186.27
1190.363
1189.641
1188.874
1188.059
1187.194
1191.041
1190.365
1189.645
1188.88
1188.066
1191.675
1191.044
1190.369
1189.652
1188.889
1192.266
1191.678
1191.049
1190.378
1189.666
1188.917
1188.114
1187.262
1186.359
1185.405
1184.397
1183.333
1182.209
1181.024
1179.773
1192.815
1192.269
1191.683
1191.058
1190.393
1189.687
1188.931
1188.128
1187.277
1186.376
1185.423
1184.417
1183.354
1182.231
1181.045
1193.322
1192.818
1192.275
1191.693
1191.072
1190.41
1189.7
1188.944
1188.142
1187.292
1186.392
1185.441
1184.435
1183.372
1182.248
1193.788
1193.325
1192.823
1192.284
1191.707
1191.088
1190.422
1189.712
1188.957
1188.156
1187.307
1186.408
1185.457
1184.452
1183.388
1194.214
1193.791
1193.33
1192.832
1192.297
1191.721
1191.098
1190.433
1189.724
1188.971
1188.17
1187.322
1186.424
1185.474
1184.468
1179.476
1178.097
1176.637
1175.091
1173.452
1171.703
1169.82
1167.798
1165.621
1163.265
1160.719
1158.168
1180.778
1179.48
1178.107
1176.655
1175.12
1173.486
1171.73
1169.852
1167.835
1165.659
1163.298
1160.731
1158.124
1182.006
1180.782
1179.489
1178.122
1176.68
1175.15
1173.51
1171.76
1169.886
1167.874
1165.7
1163.334
1160.748
1158.057
1183.164
1182.008
1180.788
1179.5
1178.142
1176.707
1175.172
1173.537
1171.792
1169.924
1167.916
1165.745
1163.378
1160.775
1157.966
1184.257
1183.166
1182.014
1180.797
1179.514
1178.169
1176.729
1175.197
1173.566
1171.826
1169.964
1167.963
1165.799
1163.438
1160.826
1185.289
1184.258
1183.169
1182.019
1180.802
1186.263
1185.29
1184.261
1183.173
1182.02
1187.183
1186.264
1185.292
1184.263
1183.173
1188.051
1187.184
1186.266
1185.294
1184.263
1188.869
1188.052
1187.186
1186.268
1185.294
1189.639
1188.87
1188.054
1187.188
1186.269
1190.362
1189.641
1188.873
1188.057
1187.191
1191.041
1190.364
1189.644
1188.877
1188.062
1191.675
1191.043
1190.368
1189.649
1188.883
1192.266
1191.677
1191.047
1190.375
1189.658
1192.814
1192.268
1191.682
1191.055
1190.389
1189.686
1188.93
1188.127
1187.276
1186.375
1185.423
1184.417
1183.356
1182.236
1181.055
1193.322
1192.817
1192.274
1191.691
1191.07
1190.409
1189.699
1188.943
1188.141
1187.292
1186.392
1185.441
1184.437
1183.376
1182.255
1193.788
1193.324
1192.823
1192.283
1191.705
1191.087
1190.421
1189.711
1188.957
1188.156
1187.307
1186.409
1185.459
1184.454
1183.392
1194.214
1193.791
1193.33
1192.832
1192.296
1191.72
1191.098
1190.433
1189.724
1188.971
1188.171
1187.323
1186.425
1185.475
1184.47
1194.6
1194.217
1193.796
1193.339
1192.845
1192.31
1191.73
1191.109
1190.445
1189.737
1188.984
1188.185
1187.338
1186.44
1185.49
1180.779
1179.481
1178.108
1176.657
1175.122
1173.487
1171.731
1169.853
1167.836
1165.66
1163.302
1160.743
1158.173
1182.006
1180.783
1179.49
1178.125
1176.683
1175.152
1173.512
1171.761
1169.888
1167.875
1165.703
1163.341
1160.769
1158.152
1183.164
1182.01
1180.79
1179.504
1178.147
1176.71
1175.174
1173.538
1171.793
1169.925
1167.917
1165.748
1163.386
1160.8
1158.106
1184.257
1183.167
1182.016
1180.801
1179.522
1178.172
1176.73
1175.198
1173.567
1171.827
1169.965
1167.964
1165.801
1163.441
1160.842
1185.29
1184.259
1183.172
1182.024
1180.814
1179.547
1178.191
1176.753
1175.225
1173.598
1171.864
1170.009
1168.017
1165.865
1163.517
1186.264
1185.291
1184.263
1183.177
1182.028
1187.184
1186.265
1185.294
1184.266
1183.178
1188.052
1187.185
1186.267
1185.296
1184.266
1188.869
1188.053
1187.187
1186.269
1185.295
1189.639
1188.87
1188.054
1187.188
1186.269
1190.362
1189.64
1188.873
1188.057
1187.189
1191.04
1190.364
1189.643
1188.876
1188.059
1191.674
1191.042
1190.367
1189.647
1188.879
1192.265
1191.676