/*--------------------------------*- C++ -*----------------------------------*\
| =========                 |                                                 |
| \\      /  F ield         | OpenFOAM: The Open Source CFD Toolbox           |
|  \\    /   O peration     | Version:  2306                                  |
|   \\  /    A nd           | Website:  www.openfoam.com                      |
|    \\/     M anipulation  |                                                 |
\*---------------------------------------------------------------------------*/
FoamFile
{
    version     2.0;
    format      ascii;
    arch        "LSB;label=32;scalar=64";
    class       volVectorField;
    location    "1.2/phiEA";
    object      i;
}
// * * * * * * * * * * * * * * * * * * * * * * * * * * * * * * * * * * * * * //

dimensions      [0 -2 0 0 0 1 0];

internalField   nonuniform List<vector> 
20000
(
(-581.6587 2348.253 1947.045)
(-611.0639 7545.124 1983.202)
(-1162.29 2054.201 1778.711)
(-580.9854 2346.806 5758.364)
(-675.138 14255.47 2056.294)
(-1212.962 6610.331 1807.127)
(-610.3596 7540.754 5865.66)
(-1079.064 1841.53 1635.779)
(-1161.045 2053.064 5264.591)
(-579.6836 2343.961 9428.455)
(-784.3342 23193.07 2153.856)
(-1323.684 12522.77 1864.135)
(-674.3694 14248.64 6082.561)
(-1115.801 5931.185 1660.025)
(-1211.67 6606.914 5349.128)
(-608.9978 7532.156 9604.929)
(-920.4938 1686.831 1521.374)
(-1078.035 1840.561 4844.856)
(-1158.636 2050.819 8627.985)
(-577.7835 2339.747 13004.12)
(-950.6208 33074.67 2206.611)
(-1513.188 20438.24 1937.637)
(-783.4693 23187.05 6371.711)
(-1196.496 11253.21 1708.571)
(-1322.293 12517.55 5518.768)
(-672.8829 14235.23 9961.725)
(-947.9946 5436.013 1542.903)
(-1114.744 5928.273 4917.088)
(-1209.168 6600.163 8767.451)
(-607.0097 7519.423 13248.55)
(-784.1302 1566.523 1426.543)
(-919.6569 1685.969 4508.609)
(-1076.04 1838.641 7946.697)
(-1155.118 2047.485 11908.66)
(-575.3018 2334.183 15290.45)
(-1169.237 37581.27 2070.723)
(-1803.219 29225.64 1964.704)
(-949.6532 33078 6525.397)
(-1335.707 18397.72 1770.278)
(-1511.654 20434.21 5737.336)
(-781.7967 23175.35 10436.76)
(-1008.575 10323.71 1585.976)
(-1195.383 11248.8 5061.748)
(-1319.601 12507.24 9047.422)
(-670.7122 14215.37 13742.89)
(-806.0466 5050.372 1446.088)
(-947.1388 5433.429 4572.802)
(-1112.696 5922.509 8066.055)
(-1205.514 6590.136 12102.29)
(-604.4127 7502.605 15578.88)
(-677.6194 1467.667 1345.195)
(-783.4255 1565.741 4229.686)
(-918.0332 1684.263 7400.397)
(-1073.124 1835.786 10975.6)
(-1150.522 2043.074 14009.02)
(-785.3592 3192.974 20104.98)
(-1383.728 33851.6 1996.677)
(-2186.2 33250.2 1818.148)
(-1168.227 37589.67 6112.07)
(-1550.684 26344.55 1788.002)
(-1801.544 29230.42 5816.25)
(-947.7842 33085.06 10684.17)
(-1113.519 16896.36 1640.288)
(-1334.517 18394.54 5245.551)
(-1508.683 20426.34 9407.946)
(-779.3541 23158.16 14400.71)
(-854.4153 9597.969 1485.184)
(-1007.682 10319.82 4701.271)
(-1193.226 11240.07 8305.205)
(-1315.667 12491.93 12491.18)
(-667.876 14189.14 16162.48)
(-695.9184 4733.162 1363.183)
(-805.3277 5048.026 4288)
(-945.4782 5428.306 7506.585)
(-1109.701 5913.933 11141.52)
(-1200.74 6576.862 14237.85)
(-825.1139 10264.51 20509.77)
(-594.9055 1383.533 1273.89)
(-677.0088 1466.947 3990.26)
(-782.0568 1564.191 6946.845)
(-915.6575 1681.722 10226.95)
(-1069.313 1832.004 12917.31)
(-1571.144 2795.427 18421.17)
(-782.25 3184.974 18656.15)
(-1558.868 25701.22 1977.123)
(-2562.555 29955.3 1730.643)
(-1382.664 33855.35 5885.801)
(-1836.684 29987.91 1647.114)
(-2184.506 33259.56 5373.753)
(-1166.284 37606.86 9983.633)
(-1276.284 24215.86 1653.17)
(-1549.438 26349.48 5297.244)
(-1798.306 29240.19 9535.16)
(-945.0572 33096.12 14738.33)
(-938.4259 15720.63 1534.223)
(-1112.575 16893.67 4863.22)
(-1332.21 18388.3 8609)
(-1504.343 20414.71 12992)
(-776.1619 23135.53 16939.25)
(-736.36 8999.918 1399.167)
(-853.668 9594.443 4404.687)
(-1005.947 10312.09 7719.203)
(-1190.07 11227.09 11474.15)
(-1310.526 12471.65 14697.73)
(-911.7987 19420.74 21329.46)
(-610.6633 4462.965 1290.603)
(-695.2964 4731.003 4043.957)
(-803.9312 5043.372 7043.386)
(-943.0481 5420.677 10374.69)
(-1105.785 5902.567 13113.57)
(-1639.753 9000.12 18745.47)
(-821.8517 10240.31 19083.39)
(-529.8947 1310.089 1210.323)
(-594.366 1382.865 3780.262)
(-675.8217 1465.519 6557.21)
(-780.0527 1561.88 9605.024)
(-912.5509 1678.353 12041.13)
(-1460.918 2506.883 16986.43)
(-1565.385 2788.958 17088.84)
(-779.09 3175.884 18904.34)
(-1679.792 15805.56 1976.846)
(-2870.202 22740.59 1698.198)
(-1557.752 25702.02 5824.493)
(-2118.271 27011.58 1561.247)
(-2560.813 29960.1 5109.528)
(-1380.623 33863.1 9598.438)
(-1493.492 27574.33 1519.339)
(-1835.489 29996.98 4872.692)
(-2181.243 33278.47 8791.523)
(-1163.459 37633.1 13743.71)
(-1069.079 22544.82 1544.13)
(-1275.309 24220.7 4900.801)
(-1547.022 26359.46 8692.415)
(-1793.577 29255.08 13165.94)
(-941.4947 33111.34 17334.88)
(-806.7401 14749.72 1444.134)
(-937.6413 15718.27 4551.028)
(-1110.741 16888.37 7987.227)
(-1328.834 18379.05 11896.85)
(-1498.668 20399.35 15290.37)
(-1059.783 31695.44 22414.95)
(-645.528 8489.751 1324.045)
(-735.7155 8996.68 4151.411)
(-852.2158 9587.448 7236.66)
(-1003.407 10300.59 10670.68)
(-1185.944 11209.86 13507.26)
(-1789.778 17074.05 19398.26)
(-908.2195 19383.19 19949.51)
(-543.7627 4226.937 1225.96)
(-610.1144 4460.959 3830.176)
(-694.0871 4726.716 6646.163)
(-801.886 5036.434 9739.43)
(-939.8698 5410.557 12215.99)
(-1510.784 8078.173 17265.89)
(-1633.754 8980.613 17436.87)
(-818.5279 10212.78 19386.08)
(-477.6934 1244.853 1152.983)
(-529.4111 1309.463 3592.943)
(-593.3162 1381.537 6215.207)
(-674.0822 1463.389 9070.429)
(-777.4307 1558.814 11313.04)
(-1246.958 2296.77 15835.36)
(-1456.143 2501.285 15752.9)
(-1559.531 2781.506 17311.65)
(-775.8793 3165.704 19151.78)
(-1741.096 5314.872 1979.275)
(-3082.828 13983.28 1688.794)
(-1678.639 15805.47 5822.122)
(-2348.629 20498.5 1527.283)
(-2868.403 22742.27 5011.26)
(-1555.615 25703.77 9491.159)
(-1707.228 24835.85 1437.131)
(-2117.097 27016.38 4614.101)
(-2557.468 29969.8 8347.737)
(-1377.661 33875.04 13195.82)
(-1243.76 25678.47 1416.983)
(-1492.571 27582.97 4497.882)
(-1833.181 30015.24 7980.569)
(-2176.494 33307.06 12116.79)
(-1159.777 37668.56 16139.43)
(-916.4134 21162.52 1452.017)
(-1068.274 22549.51 4579.935)
(-1273.415 24230.48 8047.922)
(-1543.489 26374.61 12011.11)
(-1787.397 29275.19 15494.69)
(-1285.984 45432.85 22920.71)
(-706.2974 13920.09 1365.719)
(-806.0661 14747.6 4285.684)
(-936.1157 15713.62 7479.085)
(-1108.055 16880.52 11044)
(-1324.418 18366.82 14008.02)
(-2047.019 27953.59 20237.23)
(-1055.74 31665.08 21085.63)
(-574.4743 8043.577 1257.254)
(-644.9604 8486.746 3930.081)
(-734.4616 8990.249 6824.259)
(-850.0882 9577.015 10008.67)
(-1000.085 10285.32 12566.54)
(-1620.405 15348.08 17827.57)
(-1783.285 17044.31 18139.21)
(-904.5575 19340.65 20363.83)
(-490.0891 4017.169 1167.689)
(-543.271 4225.06 3639.658)
(-609.0461 4456.972 6297.937)
(-692.3146 4720.321 9194.334)
(-799.2098 5027.226 11472.19)
(-1284.319 7405.249 16085.12)
(-1505.864 8061.303 16055.18)
(-1627.64 8958.106 17708.86)
(-815.1428 10181.93 19688)
(-434.9088 1186.132 1100.76)
(-477.2551 1244.265 3423.878)
(-528.4692 1308.22 5909.922)
(-591.7769 1379.556 8600.913)
(-671.8052 1460.563 10686.95)
(-1062.358 2133.276 14879.12)
(-1243.069 2291.751 14682.08)
(-1451.291 2494.793 15953.63)
(-1553.582 2773.07 17533.82)
(-772.6182 3154.435 28271.79)
(-1741.096 -5314.872 1979.275)
(-3190.702 4701.828 1686.667)
(-1739.925 5314.775 5828.706)
(-2507.943 12600.57 1515.922)
(-3080.984 13983.74 4982.566)
(-1676.433 15805.39 9484.243)
(-1881.816 18843.87 1403.809)
(-2347.452 20500.31 4511.757)
(-2864.951 22745.67 8182.161)
(-1552.516 25706.59 13040.38)
(-1415.572 23128.34 1338.594)
(-1706.337 24840.47 4250.591)
(-2114.835 27026.02 7547.589)
(-2552.61 29984.47 11491.7)
(-1373.807 33891.24 15481.41)
(-1063.249 24109.4 1330.987)
(-1243.007 25686.7 4197.344)
(-1490.79 27600.34 7373.083)
(-1829.815 30042.77 11008.6)
(-2170.303 33345.44 14238.78)
(-1585.174 51712.78 21054.19)
(-801.1428 19979.73 1372.143)
(-915.7254 21167.05 4308.685)
(-1066.71 22558.97 7525.81)
(-1270.642 24245.27 11127.29)
(-1538.868 26394.99 14142.58)
(-2442.251 40178.94 20496.62)
(-1281.496 45464.27 21526.61)
(-628.0721 13193.57 1296.166)
(-705.7055 13918.17 4054.578)
(-804.7543 14743.43 7046.855)
(-933.8798 15706.7 10346.6)
(-1104.54 16870.11 13009.14)
(-1809.887 25170.71 18540.84)
(-2039.82 27932.31 19037.13)
(-1051.589 31632.36 21638.57)
(-517.5612 7646.657 1197.129)
(-573.9666 8040.769 3733.181)
(-643.8551 8480.775 6463.606)
(-732.6233 8980.652 9442.561)
(-847.3033 9563.161 11791.2)
(-1366.688 14083.01 16586.88)
(-1615.192 15322.53 16664.55)
(-1776.638 17010.04 18512.18)
(-900.8129 19293.09 20777.71)
(-446.1197 3828.259 1114.648)
(-489.6439 4015.403 3467.827)
(-542.3133 4221.327 5987.383)
(-607.4793 4451.023 8716.2)
(-689.9941 4711.831 10833.72)
(-1092.147 6880.878 15106.97)
(-1280.329 7390.132 14953.6)
(-1500.851 8041.707 16300.55)
(-1621.411 8932.592 17980.19)
(-811.6966 10147.74 29143.34)
(-399.1412 1132.744 1052.843)
(-434.5082 1185.576 3269.82)
(-476.4009 1243.095 5634.198)
(-527.087 1306.365 8181.566)
(-589.7608 1376.925 10136.87)
(-918.0035 1998.883 14056.99)
(-1059.077 2128.688 13793.29)
(-1239.12 2285.909 14866.01)
(-1446.361 2487.408 16153.79)
(-1547.539 2763.651 25876.1)
(-368.9246 1512.338 19667.99)
(-1679.792 -15805.56 1976.846)
(-3190.702 -4701.828 1686.667)
(-1739.925 -5314.775 5828.706)
(-2588.812 4236.134 1512.632)
(-3188.835 4701.913 4975.98)
(-1737.685 5314.608 9493.862)
(-2002.383 11581.45 1392.127)
(-2506.756 12601.15 4477.482)
(-3077.449 13984.69 8133.412)
(-1673.236 15805.37 13027.65)
(-1555.76 17546.95 1306.442)
(-1880.932 18845.67 4150.366)
(-2345.186 20503.96 7376.16)
(-2859.943 22750.84 11258.06)
(-1548.486 25710.5 15292.87)
(-1207.649 21715.85 1256.226)
(-1414.848 23132.77 3961.688)
(-1704.618 24849.75 6959.577)
(-2111.544 27040.55 10400.16)
(-2546.286 30004.15 13492.43)
(-1878.453 46503.64 20014.09)
(-928.2679 22766.12 1256.703)
(-1062.608 24117.23 3944.634)
(-1241.547 25703.2 6885.433)
(-1488.191 27626.51 10177.71)
(-1825.424 30079.67 12943.94)
(-2967.376 45788.09 18585.97)
(-1580.678 51776 19212.97)
(-711.8295 18942.81 1301.489)
(-800.5407 19984.09 4073.326)
(-914.3869 21176.16 7084.068)
(-1064.419 22573.26 10410.84)
(-1267.014 24265.13 13107.5)
(-2103.689 36229.27 18710.31)
(-2434.446 40214.89 19259.23)
(-1276.914 45507.75 22061.99)
(-565.5557 12546.54 1233.671)
(-627.5439 13191.8 3849.475)
(-704.5525 13914.36 6670.12)
(-802.8303 14737.21 9753.046)
(-930.9519 15697.53 12192.08)
(-1509.657 23120.75 17219.78)
(-1804.275 25153.47 17435.76)
(-2032.419 27908.79 19536.46)
(-1047.331 31597.16 22192.9)
(-470.9822 7288.911 1142.459)
(-517.1021 7644.018 3555.836)
(-572.9773 8035.184 6142.536)
(-642.2335 8471.859 8947.203)
(-730.2157 8967.9 11127.95)
(-1157.944 13094.7 15564.69)
(-1362.494 14060.2 15500.84)
(-1609.852 15292.85 17001.69)
(-1769.837 16971.2 18884.8)
(-896.9858 19240.45 30917.31)
(-409.3734 3656.434 1066.003)
(-445.713 3826.591 3311.337)
(-488.7758 4011.891 5707.1)
(-540.9077 4215.755 8289.548)
(-605.427 4443.121 10273.47)
(-942.8843 6449.392 14267.51)
(-1088.789 6867.059 14041.92)
(-1276.266 7372.499 15178.75)
(-1495.744 8019.381 16545.36)
(-1615.069 8904.067 26608.01)
(-387.4367 4876.872 20407.05)
(-368.7326 1083.81 1008.601)
(-398.7726 1132.217 3128.394)
(-433.7268 1184.471 5382.785)
(-475.1466 1241.349 7802.616)
(-525.276 1303.901 9645.378)
(-805.8659 1884.468 13334.71)
(-915.1552 1994.637 13029.66)
(-1055.748 2123.331 13964.02)
(-1235.111 2279.242 15049.44)
(-1441.353 2479.13 23831.92)
(-741.5494 1327.217 17990.51)
(-333.4336 1334.676 21222.37)
(-1558.868 -25701.22 1977.123)
(-3082.828 -13983.28 1688.794)
(-1678.639 -15805.47 5822.122)
(-2588.812 -4236.134 1512.632)
(-3188.835 -4701.913 4975.98)
(-1737.685 -5314.608 9493.862)
(-2063.523 3893.138 1388.524)
(-2587.62 4236.266 4467.542)
(-3185.257 4702.091 8122.043)
(-1734.438 5314.39 13039.72)
(-1652.468 10783.5 1294.931)
(-2001.499 11582.06 4115.235)
(-2504.474 12602.34 7318.674)
(-3072.322 13986.14 11188.87)
(-1669.078 15805.42 15275.58)
(-1325.4 16474.91 1225.358)
(-1555.046 17548.7 3865.07)
(-1879.229 18849.28 6792.063)
(-2341.891 20509.47 10159.32)
(-2853.427 22757.78 13213.36)
(-2117.757 35266.04 19694.2)
(-1053.286 20506.84 1185.317)
(-1207.036 21720.08 3719.97)
(-1413.449 23141.63 6491.674)
(-1702.114 24863.71 9597.248)
(-2107.257 27059.99 12218.59)
(-3482.823 41177.81 17452.24)
(-1873.83 46533.81 17901.25)
(-824.194 21587.97 1191.172)
(-927.7087 22773.59 3726.177)
(-1061.365 24132.95 6474.988)
(-1239.415 25728.06 9510.227)
(-1484.797 27661.54 11972.84)
(-2497.031 41307.06 16900.07)
(-2959.798 45852.66 16974.33)
(-1576.22 51857.8 19161.2)
(-640.6345 18018.51 1238.138)
(-711.2935 18947.01 3865.011)
(-799.3681 19992.87 6700.479)
(-912.4241 21189.92 9804.308)
(-1061.419 22592.43 12268.16)
(-1732.313 33307.5 17342.71)
(-2097.831 36264.48 17577.74)
(-2426.456 40261.45 19746.9)
(-1272.236 45563.36 22602.73)
(-514.4561 11962.84 1176.929)
(-565.0788 12544.9 3665.084)
(-626.5141 13188.3 6335.54)
(-702.8602 13908.69 9235.401)
(-800.3095 14728.96 11496.44)
(-1272.451 21514.46 16139.57)
(-1505.192 23105.92 16189.53)
(-1798.497 25134.18 17887.89)
(-2024.817 27882.93 20037.08)
(-1042.966 31559.36 33215.84)
(-432.0782 6963.294 1092.364)
(-470.5632 7286.42 3394.497)
(-516.2065 7638.767 5853.16)
(-571.5248 8026.843 8505.967)
(-640.1087 8460.007 10547.37)
(-997.9172 12279.97 14690.47)
(-1154.43 13073.89 14543.05)
(-1358.202 14033.58 15810.73)
(-1604.386 15259.03 17338.53)
(-1762.881 16927.76 28094.75)
(-427.9691 9316.994 21929.4)
(-378.1403 3498.889 1021.106)
(-408.9993 3654.853 3167.744)
(-444.9194 3823.272 5451.674)
(-487.501 4006.645 7904.274)
(-539.0656 4208.351 9773.358)
(-827.2976 6081.741 13530.94)
(-939.9736 6436.6 13260.07)
(-1085.373 6850.888 14251.15)
(-1272.131 7352.343 15403.39)
(-1490.543 7994.318 24476.52)
(-773.641 4286.427 18620.88)
(-349.4656 4330.486 22240.62)
(-342.4949 1038.666 967.5423)
(-368.3914 1083.309 2997.752)
(-398.053 1131.17 5151.843)
(-432.5788 1182.821 7456.894)
(-473.5022 1239.029 9201.057)
(-717.7286 1784.566 12689.35)
(-803.3442 1880.505 12359.11)
(-912.2668 1989.666 13189.54)
(-1052.371 2117.203 14134.28)
(-1231.042 2271.751 22197.55)
(-693.9832 1191.422 16557.61)
(-675.7159 1174.357 19396.68)
(-295.8969 1105.038 22173.08)
(-1383.728 -33851.6 1996.677)
(-2870.202 -22740.59 1698.198)
(-1557.752 -25702.02 5824.493)
(-2507.943 -12600.57 1515.922)
(-3080.984 -13983.74 4982.566)
(-1676.433 -15805.39 9484.243)
(-2063.523 -3893.138 1388.524)
(-2587.62 -4236.266 4467.542)
(-3185.257 -4702.091 8122.043)
(-1734.438 -5314.39 13039.72)
(-1701.473 3624.732 1291.289)
(-2062.637 3893.282 4104.407)
(-2585.326 4236.532 7301.98)
(-3180.067 4702.368 11172.55)
(-1730.216 5314.126 15288.93)
(-1406.58 10124.32 1214.185)
(-1651.756 10784.1 3830.5)
(-1999.795 11583.29 6733.363)
(-2501.156 12604.12 10078.5)
(-3065.653 13988.11 13130.45)
(-2282.956 21676.15 19645.32)
(-1155.203 15557.64 1155.725)
(-1324.797 16476.59 3627.263)
(-1553.667 17552.2 6330.363)
(-1876.749 18854.72 9362.305)
(-2337.603 20516.83 11931.72)
(-3903.769 31221.01 17023.88)
(-2112.956 35274.86 17461.79)
(-934.7071 19446.5 1122.91)
(-1052.753 20510.88 3511.716)
(-1205.849 21728.55 6099.774)
(-1411.409 23154.97 8957.805)
(-1698.849 24882.36 11281.31)
(-2883.702 37139.72 15809.18)
(-3475.229 41211.03 15620.03)
(-1869.328 46573.69 17504.37)
(-741.4314 20537.35 1132.539)
(-823.6973 21595.11 3533.334)
(-926.6227 22788.59 6119.863)
(-1059.546 24156.61 8948.014)
(-1236.629 25761.33 11192.41)
(-2031.339 37987.96 15635.21)
(-2491.636 41368.17 15435.41)
(-2952.266 45933.66 16941.68)
(-1571.8 51958.31 19107.47)
(-582.5222 17184.06 1180.711)
(-640.1514 18022.56 3678.122)
(-710.2487 18955.46 6360.721)
(-797.6473 20006.1 9277.309)
(-909.8528 21208.36 11557.33)
(-1451.271 31012.45 16233.95)
(-1727.714 33341.27 16290.27)
(-2091.813 36309.29 18020.02)
(-2418.278 40318.68 20239.39)
(-1267.461 45631.17 33797.45)
(-471.8091 11431.14 1124.995)
(-514.0214 11961.31 3497.578)
(-564.1481 12541.65 6034.546)
(-625.0016 13183.07 8775.423)
(-700.6421 13901.16 10889.54)
(-1093.879 20187.48 15220.09)
(-1268.735 21501.27 15171.48)
(-1500.6 23089.17 16605.71)
(-1792.552 25112.74 18341.23)
(-2017.013 27854.61 29989.53)
(-497.9983 15566.81 23948.8)
(-399.0258 6664.554 1046.162)
(-431.693 6960.934 3246.586)
(-469.7452 7281.461 5589.731)
(-514.8908 7630.92 8108.07)
(-569.6208 8015.749 10030.03)
(-874.7545 11584.75 13925.29)
(-994.8811 12260.73 13724.55)
(-1150.839 13049.52 14831.44)
(-1353.813 14003.12 16120.36)
(-1598.794 15221.02 25785.56)
(-844.1185 8211.377 19918.78)
(-384.8603 8451.625 24402.37)
(-351.1965 3353.502 979.4538)
(-377.7941 3497.386 3035.152)
(-408.2687 3651.707 5217.155)
(-443.7532 3818.313 7552.982)
(-485.8296 3999.673 9321.569)
(-736.5944 5760.506 12873.44)
(-824.7236 6069.8 12574.4)
(-937.0142 6421.596 13456.17)
(-1081.898 6832.362 14459.9)
(-1267.924 7329.662 22781.68)
(-717.4826 3851.182 17116.6)
(-703.6478 3816.219 20278.4)
(-308.948 3604.87 23436.65)
(-319.5729 996.7938 929.2703)
(-342.1776 1038.19 2876.456)
(-367.7248 1082.314 4938.383)
(-396.995 1129.605 7139.158)
(-431.073 1180.628 8795.542)
(-646.9677 1695.81 12105.91)
(-715.4633 1780.844 11760.18)
(-800.788 1875.856 12509.75)
(-909.3382 1983.972 13348.99)
(-1048.946 2110.306 20844.37)
(-593.8472 1092.222 15414.15)
(-639.4625 1055.358 17834.11)
(-606.0189 974.5276 20255.31)
(-256.7227 829.2479 22924.69)
(-1169.237 -37581.27 2070.723)
(-2562.555 -29955.3 1730.643)
(-1382.664 -33855.35 5885.801)
(-2348.629 -20498.5 1527.283)
(-2868.403 -22742.27 5011.26)
(-1555.615 -25703.77 9491.159)
(-2002.383 -11581.45 1392.127)
(-2506.756 -12601.15 4477.482)
(-3077.449 -13984.69 8133.412)
(-1673.236 -15805.37 13027.65)
(-1701.473 -3624.732 1291.289)
(-2062.637 -3893.282 4104.407)
(-2585.326 -4236.532 7301.98)
(-3180.067 -4702.368 11172.55)
(-1730.216 -5314.126 15288.93)
(-1447.699 3403.085 1210.606)
(-1700.761 3624.877 3819.576)
(-2060.931 3893.571 6715.283)
(-2581.993 4236.933 10055.01)
(-3173.318 4702.744 13110.76)
(-2366.709 7287.574 19654.58)
(-1225.445 9560.499 1144.945)
(-1405.98 10124.91 3593.731)
(-1650.382 10785.32 6272.696)
(-1997.315 11585.13 9280.017)
(-2496.838 12606.51 11835.44)
(-4194.598 19186.63 16893.33)
(-2278.013 21677.59 17364.82)
(-1024.787 14753.32 1094.54)
(-1154.68 15559.26 3422.871)
(-1323.631 16479.96 5945.09)
(-1551.658 17557.46 8731.756)
(-1873.519 18861.97 11001.78)
(-3199.605 28148.29 15377.13)
(-3896.003 31233.03 15100.55)
(-2108.312 35287.49 16925.01)
(-840.5805 18500.91 1067.171)
(-934.2345 19450.36 3328.298)
(-1051.72 20518.97 5761.804)
(-1204.116 21741.28 8421.812)
(-1408.747 23172.77 10534.56)
(-2325.089 34152.07 14599.91)
(-2878.544 37171.77 14150.85)
(-3467.822 41252.76 15283.56)
(-1864.947 46623.26 17105.8)
(-673.9615 19588.51 1079.479)
(-740.9846 20544.18 3360.68)
(-822.732 21609.44 5806.114)
(-925.0332 22811.14 8461.244)
(-1057.169 24188.25 10534.79)
(-1691.88 35379.3 14618.62)
(-2027.167 38045.54 14279.91)
(-2486.253 41444.14 15406.46)
(-2944.779 46031.2 16907.19)
(-1567.418 52077.68 27698.08)
(-534.0614 16423.46 1128.223)
(-582.0825 17187.96 3508.62)
(-639.209 18030.69 6055.697)
(-708.7144 18968.19 8810.261)
(-795.3919 20023.84 10939.48)
(-1244.036 29113.22 15295.07)
(-1447.469 31044.74 15247.12)
(-1722.99 33383.89 16697.67)
(-2085.634 36363.74 18466.68)
(-2409.912 40386.64 30277.58)
(-608.1436 23236.07 24471.18)
(-435.5975 10943.01 1077.145)
(-471.41 11429.71 3344.195)
(-513.1725 11958.27 5760.94)
(-562.7804 12536.8 8361.397)
(-623.0181 13176.13 10350.05)
(-957.6339 19053.27 14417.97)
(-1090.681 20175.53 14305.57)
(-1264.915 21486.29 15559.2)
(-1495.878 23070.44 17023.01)
(-1786.44 25089.05 27443.11)
(-966.4685 13765.07 21623.65)
(-447.6913 14937.13 27509.28)
(-370.5227 6388.722 1003.326)
(-398.6697 6662.313 3110.106)
(-430.9406 6956.235 5348.079)
(-468.5429 7274.049 7745.663)
(-513.1653 7620.482 9563.327)
(-778.4073 10976.61 13243.47)
(-872.0754 11566.81 13008.53)
(-991.7791 12238.15 13995.15)
(-1147.168 13021.57 15119.58)
(-1349.326 13968.79 23968)
(-769.3802 7388.719 18267.85)
(-765.5146 7469.368 22152.75)
(-337.9842 7209.529 26241.41)
(-327.6617 3218.611 940.6389)
(-350.8746 3352.07 2912.085)
(-377.1177 3494.395 5000.474)
(-407.1945 3647.004 7230.279)
(-442.2234 3811.721 8909.473)
(-663.8338 5474.954 12279.45)
(-734.284 5749.289 11962.56)
(-822.1076 6055.765 12759.32)
(-934.0063 6404.376 13651.84)
(-1078.366 6811.476 21382.71)
(-611.4991 3532.457 15922.85)
(-660.0871 3432.499 18621.13)
(-628.8614 3183.997 21358.75)
(-266.3496 2703.154 24389.42)
(-299.3353 957.778 893.4639)
(-319.2765 996.3391 2763.341)
(-341.5573 1037.241 4740.08)
(-366.7443 1080.826 6845.331)
(-395.6067 1127.525 8422.714)
(-588.9811 1615.904 11573.39)
(-644.9106 1692.298 11218.86)
(-713.1676 1776.47 11902.78)
(-798.1972 1870.522 12660)
(-906.3696 1977.552 19683.99)
(-506.2424 1014.904 14469.25)
(-549.7197 968.1114 16590.29)
(-581.7275 876.6139 18610.24)
(-533.2022 732.9797 20936.95)
(-216.3874 519.146 16014.11)
(-950.6208 -33074.67 2206.611)
(-2186.2 -33250.2 1818.148)
(-1168.227 -37589.67 6112.07)
(-2118.271 -27011.58 1561.247)
(-2560.813 -29960.1 5109.528)
(-1380.623 -33863.1 9598.438)
(-1881.816 -18843.87 1403.809)
(-2347.452 -20500.31 4511.757)
(-2864.951 -22745.67 8182.161)
(-1552.516 -25706.59 13040.38)
(-1652.468 -10783.5 1294.931)
(-2001.499 -11582.06 4115.235)
(-2504.474 -12602.34 7318.674)
(-3072.322 -13986.14 11188.87)
(-1669.078 -15805.42 15275.58)
(-1447.699 -3403.085 1210.606)
(-1700.761 -3624.877 3819.576)
(-2060.931 -3893.571 6715.283)
(-2581.993 -4236.933 10055.01)
(-3173.318 -4702.744 13110.76)
(-2366.709 -7287.574 19654.58)
(-1261.015 3213.537 1141.469)
(-1447.1 3403.228 3583.003)
(-1699.387 3625.169 6254.496)
(-2058.447 3894.005 9254.687)
(-2577.654 4237.471 11807.44)
(-4342.137 6450.041 16860.89)
(-2361.693 7287.573 17357.09)
(-1086.86 9066.199 1084.164)
(-1224.925 9561.069 3390.534)
(-1404.82 10126.09 5889.202)
(-1648.379 10787.14 8651.018)
(-1994.085 11587.59 10903.93)
(-3417.943 17292.47 15231.56)
(-4186.669 19190.21 14936.66)
(-2273.243 21680.33 16778.34)
(-921.3939 14036.11 1039.955)
(-1024.324 14754.87 3243.139)
(-1153.667 15562.49 5613.626)
(-1321.93 16485.01 8205.161)
(-1549.039 17564.47 10265.77)
(-2564.688 25878.6 14182.1)
(-3194.488 28160.47 13640.79)
(-3888.485 31248.34 14642.54)
(-2103.826 35303.9 16387.57)
(-763.9183 17646.87 1016.799)
(-840.1561 18504.61 3164.367)
(-933.3177 19458.11 5463.876)
(-1050.209 20531.13 7959.235)
(-1201.855 21758.26 9908.34)
(-1928.115 31806.22 13636.28)
(-2321.158 34182.51 13068.82)
(-2873.498 37211.5 13847.35)
(-3460.601 41302.99 14945.44)
(-1860.687 46682.49 24207.19)
(-617.7354 18723.38 1031.05)
(-673.5555 19595.06 3204.344)
(-740.1154 20557.9 5524.996)
(-821.3178 21630.98 8030.909)
(-922.9543 22841.31 9965.163)
(-1446.359 33219.52 13761.92)
(-1688.455 35433.72 13351.23)
(-2023.002 38116.82 14252.87)
(-2480.881 41535.08 15375.83)
(-2937.339 46145.42 24530.29)
(-760.912 26765.5 18368.77)
(-492.9365 15724.79 1079.914)
(-533.6582 16427.22 3353.616)
(-581.2241 17195.79 5778.873)
(-637.824 18042.94 8390.728)
(-706.7024 18985.24 10391.7)
(-1087.522 27487.65 14479.01)
(-1240.778 29144.08 14364.29)
(-1443.567 31085.26 15626.86)
(-1718.141 33435.39 17109.13)
(-2079.292 36427.9 27621.1)
(-1160.024 20606.93 21945.82)
(-553.6504 24703.57 28856.42)
(-404.3838 10492.03 1032.817)
(-435.2288 10941.66 3202.805)
(-470.63 11426.86 5510.251)
(-511.9242 11953.74 7984.849)
(-560.9858 12530.34 9864.268)
(-851.5207 18059.8 13704.95)
(-954.82 19042.3 13550.57)
(-1087.395 20161.89 14669.68)
(-1260.991 21469.45 15947.96)
(-1491.026 23049.62 25464.91)
(-860.2562 12407.75 19774.36)
(-875.923 13249.23 24840.1)
(-391.2311 13785.2 30832.24)
(-345.6339 6132.681 963.4286)
(-370.1918 6386.587 2983.509)
(-397.9735 6657.848 5124.972)
(-429.834 6949.21 7413.047)
(-466.9652 7264.187 9138.09)
(-701.2431 10435.49 12628.36)
(-776.0065 10959.77 12370.75)
(-869.3393 11545.71 13263.92)
(-988.6111 12212.19 14265.53)
(-1143.419 12990 22476.24)
(-650.5985 6783.641 16970.86)
(-706.0393 6728.873 20295.62)
(-679.8483 6386.697 23814.12)
(-287.7689 5493.388 27798.56)
(-306.8864 3092.891 904.3333)
(-327.3612 3217.244 2797.352)
(-350.2453 3349.22 4799.245)
(-376.1225 3489.923 6931.974)
(-405.7847 3640.751 8530.774)
(-604.2377 5217.752 11737.61)
(-661.7372 5464.367 11409.98)
(-731.9367 5736.083 12137.71)
(-819.4497 6039.633 12943.82)
(-930.9499 6384.935 20185.39)
(-520.3371 3283.669 14939.51)
(-565.2572 3150.452 17309.36)
(-598.7211 2866.576 19598.76)
(-550.1319 2392.693 22222.29)
(-222.2626 1655.324 17091.77)
(-281.3022 921.283 859.8534)
(-299.0576 957.3432 2657.469)
(-318.6969 995.4334 4555.052)
(-340.6443 1035.823 6572.236)
(-365.4571 1078.848 8077.814)
(-540.513 1543.244 11083.75)
(-587.0972 1612.578 10724.88)
(-642.8265 1688.166 11354.33)
(-710.8416 1771.446 12045.01)
(-795.5721 1864.503 18666.4)
(-437.3907 951.2749 13660.21)
(-469.2318 899.9829 15565.21)
(-503.0913 804.5914 17302.76)
(-521.3605 659.9513 19227.67)
(-458.1381 460.3939 14625.3)
(-1581.309 2562.173 50818.21)
(-784.3342 -23193.07 2153.856)
(-1803.219 -29225.64 1964.704)
(-949.6532 -33078 6525.397)
(-1836.684 -29987.91 1647.114)
(-2184.506 -33259.56 5373.753)
(-1166.284 -37606.86 9983.633)
(-1707.228 -24835.85 1437.131)
(-2117.097 -27016.38 4614.101)
(-2557.468 -29969.8 8347.737)
(-1377.661 -33875.04 13195.82)
(-1555.76 -17546.95 1306.442)
(-1880.932 -18845.67 4150.366)
(-2345.186 -20503.96 7376.16)
(-2859.943 -22750.84 11258.06)
(-1548.486 -25710.5 15292.87)
(-1406.58 -10124.32 1214.185)
(-1651.756 -10784.1 3830.5)
(-1999.795 -11583.29 6733.363)
(-2501.156 -12604.12 10078.5)
(-3065.653 -13988.11 13130.45)
(-2282.956 -21676.15 19645.32)
(-1261.015 -3213.537 1141.469)
(-1447.1 -3403.228 3583.003)
(-1699.387 -3625.169 6254.496)
(-2058.447 -3894.005 9254.687)
(-2577.654 -4237.471 11807.44)
(-4342.137 -6450.041 16860.89)
(-2361.693 -7287.573 17357.09)
(-1118.29 3047.379 1080.804)
(-1260.496 3213.676 3380.119)
(-1445.941 3403.514 5871.349)
(-1697.385 3625.605 8625.565)
(-2055.213 3894.584 10873.83)
(-3528.747 5812.187 15189.08)
(-4334.117 6450.775 14893.57)
(-2356.855 7287.883 16755.2)
(-977.0762 8625.47 1029.975)
(-1086.4 9066.748 3212.022)
(-1223.918 9562.209 5559.757)
(-1403.128 10127.86 8126.967)
(-1645.769 10789.56 10169.85)
(-2730.037 15895.2 14036.17)
(-3412.807 17296.45 13467.96)
(-4179.011 19194.91 14436.41)
(-2268.646 21684.38 16191.69)
(-837.2386 13388.37 990.6681)
(-920.9784 14037.6 3082.686)
(-1023.427 14757.98 5321.886)
(-1152.187 15567.34 7751.765)
(-1319.711 16491.75 9650.813)
(-2120.577 24098.81 13236.14)
(-2560.833 25890.4 12581.05)
(-3189.527 28175.6 13227.96)
(-3881.215 31266.92 14183.81)
(-2099.497 35324.06 22931.15)
(-700.0638 16868.14 970.8746)
(-763.5331 17650.43 3016.126)
(-839.3318 18512.03 5197.379)
(-931.9768 19469.73 7551.177)
(-1048.237 20547.35 9367.636)
(-1644.958 29865.1 12828.05)
(-1924.909 31835.1 12206.46)
(-2317.312 34220.03 12788.91)
(-2868.565 37258.91 13542.34)
(-3453.568 41361.7 21166.69)
(-908.6135 23702.73 15058.99)
(-570.0426 17928.48 986.5309)
(-617.3637 18729.68 3061.572)
(-672.765 19608.21 5270.26)
(-738.8412 20578.52 7645.088)
(-819.4673 21659.8 9461.358)
(-1262.728 31370.08 13019.74)
(-1443.436 33271.14 12568.71)
(-1685.035 35500.92 13325.74)
(-2018.844 38201.89 14224.27)
(-2475.521 41641.11 22309.67)
(-1429.857 23760.8 16301.33)
(-719.664 29209.18 18056.58)
(-457.5031 15079.01 1035.204)
(-492.5644 15728.42 3210.889)
(-532.8705 16434.77 5525.568)
(-579.962 17207.58 8009.78)
(-636.007 18059.34 9899.462)
(-966.2459 26062.27 13755.47)
(-1084.665 27517.19 13597.2)
(-1237.436 29182.69 14721.07)
(-1439.563 31134.08 16010.39)
(-1713.165 33495.84 25586.56)
(-1005.485 18602.18 20012.4)
(-1063.367 21983.84 25915.44)
(-490.5045 27017.15 34657.48)
(-377.139 10073.2 991.5602)
(-404.0414 10490.76 3071.763)
(-434.5077 10938.97 5279.029)
(-469.4824 11422.61 7639.669)
(-510.2856 11947.71 9422.3)
(-766.7237 17174.88 13062.9)
(-849.0045 18049.63 12879.68)
(-951.9303 19029.72 13894.46)
(-1084.022 20146.49 15034.79)
(-1256.962 21450.66 23853.08)
(-719.3636 11404.02 18339.55)
(-788.8267 11958.61 22694.48)
(-773.8764 12259.99 27841.13)
(-328.0465 11570.7 34282.49)
(-323.6696 5893.949 926.128)
(-345.3251 6130.645 2865.549)
(-369.5445 6382.335 4917.906)
(-396.949 6651.17 7105.808)
(-428.3812 6939.86 8747.666)
(-638.0986 9947.707 12067.88)
(-699.0672 10419.61 11795.54)
(-773.5554 10939.92 12612.83)
(-866.5461 11521.41 13519.11)
(-985.3772 12182.83 21204.14)
(-551.6166 6310.074 15908.62)
(-599.9831 6181.971 18840.23)
(-636.8793 5759.378 21801.32)
(-587.9112 4876.418 25223.37)
(-234.9769 3252.301 19674.86)
(-288.3768 2975.267 870.2617)
(-306.6049 3091.584 2689.991)
(-326.7733 3214.522 4611.541)
(-349.3189 3344.957 6654.811)
(-374.8158 3483.976 8180.58)
(-554.4396 4983.78 11239.64)
(-602.3186 5207.723 10906.01)
(-659.6076 5451.887 11576.45)
(-729.5525 5720.887 12312.48)
(-816.7501 6021.4 19136.85)
(-449.1755 3078.715 14099.24)
(-481.6583 2929.864 16231.83)
(-515.9271 2632.48 18207.9)
(-534.0531 2156.065 20381.54)
(-468.5463 1469.429 15573.01)
(-1609.175 7720.864 54184)
(-265.1083 887.0312 828.2187)
(-281.0412 920.8667 2558.05)
(-298.5141 956.4771 4381.781)
(-317.8433 994.0795 6317.306)
(-339.4452 1033.938 7757.137)
(-499.3125 1476.638 10630.75)
(-538.7758 1540.084 10270.76)
(-585.1887 1608.659 10853.94)
(-640.7152 1683.413 11489.44)
(-708.4854 1765.772 17758.44)
(-383.8241 897.0557 12951.49)
(-405.3967 843.8464 14689.38)
(-430.2063 748.2564 16227.25)
(-454.4001 606.0534 17870.03)
(-459.0508 415.0643 13428.6)
(-3404.287 2283.513 46478.99)
(-1464.415 1716.442 30022.21)
(-675.138 -14255.47 2056.294)
(-1513.188 -20438.24 1937.637)
(-783.4693 -23187.05 6371.711)
(-1550.684 -26344.55 1788.002)
(-1801.544 -29230.42 5816.25)
(-947.7842 -33085.06 10684.17)
(-1493.492 -27574.33 1519.339)
(-1835.489 -29996.98 4872.692)