/*--------------------------------*- C++ -*----------------------------------*\
| =========                 |                                                 |
| \\      /  F ield         | OpenFOAM: The Open Source CFD Toolbox           |
|  \\    /   O peration     | Version:  2306                                  |
|   \\  /    A nd           | Website:  www.openfoam.com                      |
|    \\/     M anipulation  |                                                 |
\*---------------------------------------------------------------------------*/
FoamFile
{
    version     2.0;
    format      ascii;
    arch        "LSB;label=32;scalar=64";
    class       volScalarField;
    location    "1.2/phiEA";
    object      phi;
}
// * * * * * * * * * * * * * * * * * * * * * * * * * * * * * * * * * * * * * //

dimensions      [1 2 -3 0 0 -1 0];

internalField   nonuniform List<scalar> 
20000
(
-0.004750062
-0.004884248
-0.004417686
-0.004745612
-0.005181212
-0.004535069
-0.004879715
-0.004085896
-0.00441362
-0.0047369
-0.005698846
-0.004795419
-0.005176512
-0.004191127
-0.004530938
-0.004870841
-0.003801078
-0.004082157
-0.004405652
-0.004724061
-0.00650653
-0.005250655
-0.005693923
-0.004424821
-0.004791158
-0.005167309
-0.003897468
-0.004187332
-0.004522842
-0.004857761
-0.0035599
-0.0037976
-0.004074822
-0.004393899
-0.004707176
-0.007588828
-0.005963318
-0.006501486
-0.004834167
-0.005246226
-0.005684282
-0.004111707
-0.004420916
-0.004782805
-0.005153742
-0.003649415
-0.003893941
-0.004179888
-0.004510898
-0.004840558
-0.003353003
-0.003556639
-0.003790772
-0.004063994
-0.004378433
-0.004689111
-0.008654031
-0.006920692
-0.007584095
-0.005476119
-0.005958827
-0.006491615
-0.004487394
-0.004830121
-0.005237541
-0.005670068
-0.003848493
-0.004108082
-0.004413251
-0.004770478
-0.005135897
-0.00343687
-0.00364611
-0.003887016
-0.004168896
-0.00449518
-0.004822152
-0.003172689
-0.003349929
-0.003550232
-0.003780685
-0.004049735
-0.004361878
-0.004673668
-0.009523205
-0.00786333
-0.008649468
-0.00633957
-0.006916536
-0.007574857
-0.005077213
-0.005472032
-0.005950024
-0.006477065
-0.004197871
-0.004483645
-0.004822178
-0.005224723
-0.005651366
-0.00362347
-0.003845098
-0.004100961
-0.004401933
-0.004754253
-0.0051168
-0.003251748
-0.003433754
-0.003639614
-0.003876784
-0.004154421
-0.004478354
-0.004806375
-0.003013057
-0.003169777
-0.003343883
-0.003540761
-0.003767396
-0.004034468
-0.004347731
-0.004658018
-0.01012267
-0.008632423
-0.009518686
-0.007189714
-0.007859374
-0.008640578
-0.005871158
-0.006335805
-0.006908409
-0.007561275
-0.004746814
-0.005073434
-0.005464011
-0.005937033
-0.006457927
-0.003951151
-0.004194364
-0.004476279
-0.004810443
-0.005207845
-0.005631349
-0.003427715
-0.003620272
-0.003838425
-0.004090438
-0.004387025
-0.004736883
-0.005100348
-0.00308792
-0.003248798
-0.003427627
-0.003630011
-0.003863302
-0.004138922
-0.004463937
-0.004790346
-0.002869892
-0.003010291
-0.003164048
-0.003334941
-0.003528278
-0.003753163
-0.004021425
-0.004333397
-0.004642161
-0.01042638
-0.009162792
-0.01011815
-0.007883089
-0.008628542
-0.009509892
-0.006652889
-0.007186146
-0.007851651
-0.008627528
-0.005486146
-0.005867685
-0.006328433
-0.006896441
-0.007543443
-0.004466311
-0.004743285
-0.005066011
-0.005452164
-0.00591993
-0.006437443
-0.003736876
-0.00394785
-0.004187468
-0.004465389
-0.004794985
-0.005189773
-0.005614008
-0.003254597
-0.003424689
-0.003613981
-0.003828557
-0.004076571
-0.004371059
-0.004721923
-0.00508355
-0.002941026
-0.003085117
-0.003242993
-0.003418563
-0.003617353
-0.003848861
-0.004125645
-0.004449293
-0.004774065
-0.00274009
-0.002867256
-0.003004845
-0.003155571
-0.00332315
-0.003514902
-0.003741004
-0.004008213
-0.004318878
-0.004626098
-0.01042638
-0.009431468
-0.01042186
-0.008361057
-0.009158932
-0.01010937
-0.007290349
-0.007879598
-0.008620969
-0.009496992
-0.006214155
-0.006649604
-0.007179168
-0.007840293
-0.008610416
-0.005160438
-0.005482908
-0.005860877
-0.006317564
-0.006880714
-0.007524385
-0.004223149
-0.004462992
-0.004736346
-0.005055039
-0.005436557
-0.005901616
-0.006419726
-0.003547553
-0.003733755
-0.003941355
-0.004177269
-0.004451035
-0.004778425
-0.005174117
-0.005596207
-0.003099444
-0.003251723
-0.003418732
-0.003604673
-0.003815548
-0.004061715
-0.004357312
-0.004706651
-0.005066408
-0.002807869
-0.002938357
-0.0030796
-0.003234403
-0.003406611
-0.003603789
-0.003836494
-0.004112163
-0.004434422
-0.004757533
-0.002621373
-0.002737574
-0.002862066
-0.002996783
-0.003144389
-0.003310513
-0.003503479
-0.003728692
-0.003994835
-0.004304174
-0.004455285
-0.01012267
-0.009431468
-0.01042186
-0.008603122
-0.009427613
-0.01041306
-0.007729682
-0.008357592
-0.009151403
-0.01009648
-0.006807766
-0.007287141
-0.007872777
-0.00860984
-0.009480085
-0.005843991
-0.006211096
-0.006643173
-0.007168894
-0.007825384
-0.008592142
-0.004878575
-0.005157396
-0.005476553
-0.005850833
-0.00630327
-0.006863896
-0.007508353
-0.004008515
-0.004220013
-0.004456462
-0.004726083
-0.005040577
-0.005419838
-0.005885769
-0.006401565
-0.003377978
-0.00354459
-0.003727609
-0.003931743
-0.004163819
-0.004435654
-0.004764083
-0.005158045
-0.005577944
-0.002958847
-0.003096708
-0.003246064
-0.003409915
-0.003592398
-0.003801606
-0.004048926
-0.004343285
-0.004691069
-0.005048921
-0.002686101
-0.002805321
-0.0029331
-0.003071432
-0.00322307
-0.0033938
-0.003592174
-0.003823939
-0.004098477
-0.004419326
-0.004581313
-0.002512009
-0.002618966
-0.002732616
-0.002854378
-0.002986144
-0.003132401
-0.003299722
-0.003491913
-0.003716228
-0.00398129
-0.004147848
-0.004110255
-0.009523205
-0.009162792
-0.01011815
-0.008603122
-0.009427613
-0.01041306
-0.007952147
-0.008599664
-0.009420094
-0.01040016
-0.007216838
-0.0077265
-0.008350823
-0.009140341
-0.01007959
-0.006401344
-0.00680478
-0.007280863
-0.007862739
-0.008595236
-0.009462037
-0.00552407
-0.00584112
-0.0062051
-0.006633697
-0.007155396
-0.007809453
-0.008577059
-0.004629999
-0.004875703
-0.005151422
-0.00546717
-0.005837614
-0.006287978
-0.006849737
-0.007492363
-0.003816389
-0.00400554
-0.004213839
-0.0044468
-0.004712549
-0.005025079
-0.005405374
-0.005869518
-0.006382956
-0.003224378
-0.003375158
-0.003538754
-0.003718509
-0.003919063
-0.004149401
-0.004422335
-0.004749365
-0.005141556
-0.005559219
-0.002830312
-0.002956236
-0.003091317
-0.003237683
-0.003398282
-0.003579238
-0.003789607
-0.00403588
-0.004328976
-0.004675177
-0.004861691
-0.002573941
-0.002683664
-0.0028003
-0.002925312
-0.003060653
-0.00321092
-0.003382832
-0.003580386
-0.003811196
-0.004084587
-0.004258449
-0.004221478
-0.002410668
-0.002509704
-0.002614222
-0.00272527
-0.002844231
-0.002974736
-0.003122164
-0.003288797
-0.003480206
-0.00370361
-0.003837327
-0.003832393
-0.003747873
-0.008654031
-0.008632423
-0.009518686
-0.008361057
-0.009158932
-0.01010937
-0.007952147
-0.008599664
-0.009420094
-0.01040016
-0.007423966
-0.007948973
-0.00859291
-0.009409048
-0.01038325
-0.006785414
-0.007213878
-0.007720275
-0.008340864
-0.009125829
-0.01006156
-0.006050395
-0.006398543
-0.006798932
-0.007271616
-0.007849555
-0.008579638
-0.009447262
-0.005242113
-0.005521361
-0.005835488
-0.006196258
-0.006621237
-0.007140966
-0.007796297
-0.008562307
-0.004407608
-0.004627276
-0.004870059
-0.005142596
-0.005454815
-0.005823466
-0.006275103
-0.006835605
-0.007476417
-0.003642438
-0.003813559
-0.003999681
-0.004204697
-0.004434053
-0.004698041
-0.005011673
-0.005390542
-0.005852858
-0.006363894
-0.003084003
-0.003221688
-0.003369601
-0.003530109
-0.003706499
-0.003905466
-0.00413692
-0.004408671
-0.00473427
-0.005124649
-0.00535773
-0.002711946
-0.002827815
-0.002951088
-0.003083329
-0.003226621
-0.003385807
-0.003567914
-0.003777367
-0.004022575
-0.004314387
-0.00450505
-0.004471128
-0.002470021
-0.002571607
-0.00267886
-0.00279286
-0.002915033
-0.003049093
-0.003200519
-0.0033717
-0.003568423
-0.003798266
-0.003936613
-0.003930256
-0.003839959
-0.002316298
-0.002408457
-0.002505157
-0.00260719
-0.002715572
-0.002833347
-0.002964995
-0.003111802
-0.003277739
-0.003468356
-0.003569529
-0.003547158
-0.003501292
-0.003371152
-0.007588828
-0.00786333
-0.008649468
-0.007883089
-0.008628542
-0.009509892
-0.007729682
-0.008357592
-0.009151403
-0.01009648
-0.007423966
-0.007948973
-0.00859291
-0.009409048
-0.01038325
-0.006979876
-0.007421014
-0.007942765
-0.008582974
-0.009394557
-0.01036521
-0.006413078
-0.006782639
-0.007208083
-0.007711109
-0.008327786
-0.009110329
-0.01004685
-0.005741228
-0.006047753
-0.006393053
-0.006790311
-0.007259463
-0.007835466
-0.008566863
-0.009432934
-0.004989952
-0.005239546
-0.005516044
-0.005827177
-0.006184625
-0.006607911
-0.007129047
-0.00778342
-0.008547886
-0.004206324
-0.004405019
-0.004621923
-0.004861715
-0.005130969
-0.005441587
-0.005811555
-0.006262252
-0.006821501
-0.007460517
-0.00348352
-0.003639739
-0.003807982
-0.003991001
-0.004192633
-0.004420383
-0.004685493
-0.004997929
-0.00537534
-0.005835785
-0.006158926
-0.002954773
-0.003081432
-0.003216383
-0.003361365
-0.003518696
-0.003693618
-0.003893696
-0.004124116
-0.004394659
-0.004718797
-0.004942731
-0.00492578
-0.002602297
-0.002709554
-0.002822891
-0.002943459
-0.003072784
-0.003214757
-0.003375073
-0.003556364
-0.003764887
-0.004009013
-0.004158259
-0.004150412
-0.004048279
-0.002373257
-0.002467782
-0.002567003
-0.002671739
-0.002783036
-0.002904006
-0.003039197
-0.003189963
-0.003360405
-0.003556286
-0.003660547
-0.003635105
-0.003582503
-0.003440256
-0.002228055
-0.002314174
-0.002404093
-0.002498416
-0.002597904
-0.002705166
-0.002824055
-0.002955136
-0.003101315
-0.003266549
-0.003342455
-0.003299508
-0.003242857
-0.003157216
-0.002983717
-0.00650653
-0.006920692
-0.007584095
-0.007189714
-0.007859374
-0.008640578
-0.007290349
-0.007879598
-0.008620969
-0.009496992
-0.007216838
-0.0077265
-0.008350823
-0.009140341
-0.01007959
-0.006979876
-0.007421014
-0.007942765
-0.008582974
-0.009394557
-0.01036521
-0.006596709
-0.006977109
-0.007415235
-0.007933624
-0.008569927
-0.00937908
-0.01035049
-0.00608516
-0.006410461
-0.0067772
-0.007199541
-0.007699064
-0.008313811
-0.009097673
-0.01003262
-0.005464802
-0.005738726
-0.006042571
-0.006384954
-0.006778973
-0.007246469
-0.007823927
-0.00855447
-0.009419053
-0.004761781
-0.004987513
-0.005234506
-0.005508191
-0.005816238
-0.006172179
-0.006596904
-0.007117381
-0.007770824
-0.008533797
-0.004022487
-0.004203857
-0.004399926
-0.004614005
-0.004850719
-0.005118516
-0.005430451
-0.005799666
-0.006249426
-0.006807426
-0.007294069
-0.00333726
-0.003480941
-0.003634418
-0.003799718
-0.003979543
-0.004179693
-0.004408561
-0.004672629
-0.004983843
-0.005359764
-0.005652139
-0.005715889
-0.00283509
-0.002952311
-0.003076359
-0.00320852
-0.003350489
-0.003506451
-0.003682469
-0.003881623
-0.004110988
-0.004380299
-0.004552339
-0.004552704
-0.004440754
-0.002500218
-0.002600004
-0.002704837
-0.002815591
-0.002933384
-0.00306147
-0.003204549
-0.003364126
-0.003544588
-0.003752168
-0.0038639
-0.0038332
-0.003766625
-0.003596415
-0.002282785
-0.002371107
-0.002463364
-0.002560177
-0.002662334
-0.002772495
-0.002894567
-0.003029155
-0.003179253
-0.003348947
-0.00342703
-0.003380184
-0.003315908
-0.003218298
-0.003026979
-0.002145249
-0.002226013
-0.002309981
-0.002397622
-0.002489511
-0.002587938
-0.002696283
-0.002814649
-0.002945157
-0.003090702
-0.00314766
-0.003089058
-0.003016519
-0.002926817
-0.002803394
-0.002727572
-0.005698846
-0.005963318
-0.006501486
-0.00633957
-0.006916536
-0.007574857
-0.006652889
-0.007186146
-0.007851651
-0.008627528
-0.006807766
-0.007287141
-0.007872777
-0.00860984
-0.009480085
-0.006785414
-0.007213878
-0.007720275
-0.008340864
-0.009125829
-0.01006156
-0.006596709
-0.006977109
-0.007415235
-0.007933624
-0.008569927
-0.00937908
-0.01035049
-0.006259296
-0.0065941
-0.006971687
-0.007406718
-0.007921612
-0.008555986
-0.009366455
-0.01033628
-0.005792015
-0.006082682
-0.006405329
-0.006769178
-0.007188309
-0.007686186
-0.0083024
-0.009085434
-0.01001888
-0.005214717
-0.005462425
-0.005733815
-0.006034922
-0.006374298
-0.006766846
-0.007235826
-0.007812731
-0.008542459
-0.009405621
-0.004553427
-0.004759457
-0.004982719
-0.005227058
-0.005497851
-0.00580453
-0.006161898
-0.006586129
-0.007105968
-0.007758511
-0.008389384
-0.003853332
-0.00402013
-0.004199
-0.00439239
-0.004603567
-0.004838937
-0.005108032
-0.005419335
-0.0057878
-0.006236626
-0.006659975
-0.00698441
-0.003201842
-0.003334792
-0.003475854
-0.00362653
-0.003788804
-0.003967249
-0.004168502
-0.004396443
-0.004659448
-0.004969413
-0.005192239
-0.005254514
-0.005197045
-0.002723696
-0.00283273
-0.002947452
-0.003068837
-0.003198132
-0.003338818
-0.003495854
-0.003671034
-0.003869246
-0.004097536
-0.004225851
-0.004195844
-0.004114728
-0.003898038
-0.002404792
-0.002498016
-0.002595477
-0.00269784
-0.002805947
-0.002922572
-0.003051737
-0.003194139
-0.003352966
-0.003532588
-0.003616094
-0.003562046
-0.003481738
-0.003356607
-0.00312166
-0.002197894
-0.002280718
-0.002366863
-0.002456812
-0.002551159
-0.00265224
-0.002763473
-0.002884989
-0.003018968
-0.00316839
-0.003226933
-0.003164057
-0.003083569
-0.002981813
-0.00284176
-0.002753194
-0.002067311
-0.002143284
-0.002221981
-0.002303762
-0.002389071
-0.002479952
-0.002579431
-0.002687291
-0.002805131
-0.002935061
-0.002977962
-0.002908481
-0.002823614
-0.002722749
-0.002601935
-0.002569441
-0.002585311
-0.005181212
-0.005250655
-0.005693923
-0.005476119
-0.005958827
-0.006491615
-0.005871158
-0.006335805
-0.006908409
-0.007561275
-0.006214155
-0.006649604
-0.007179168
-0.007840293
-0.008610416
-0.006401344
-0.00680478
-0.007280863
-0.007862739
-0.008595236
-0.009462037
-0.006413078
-0.006782639
-0.007208083
-0.007711109
-0.008327786
-0.009110329
-0.01004685
-0.006259296
-0.0065941
-0.006971687
-0.007406718
-0.007921612
-0.008555986
-0.009366455
-0.01033628
-0.005957686
-0.006256826
-0.006588983
-0.006963689
-0.00739552
-0.007908769
-0.008544612
-0.009354258
-0.01032257
-0.005526831
-0.005789661
-0.006077818
-0.006397753
-0.006758624
-0.007176296
-0.00767567
-0.008291365
-0.009073612
-0.01000563
-0.00498638
-0.005212452
-0.005457756
-0.005726562
-0.006024853
-0.006362895
-0.006756913
-0.007225501
-0.00780188
-0.00853083
-0.009269296
-0.004361745
-0.004551208
-0.004754887
-0.004975633
-0.005217246
-0.00548678
-0.005794858
-0.006151834
-0.006575589
-0.007094811
-0.007632206
-0.008149987
-0.003696748
-0.003851077
-0.004015489
-0.00419181
-0.004382451
-0.004592379
-0.004829019
-0.005097568
-0.005408241
-0.005775959
-0.006102521
-0.00638469
-0.006692183
-0.00307583
-0.003199475
-0.003329921
-0.003468311
-0.00361611
-0.003777091
-0.003956617
-0.004157031
-0.004384026
-0.004645945
-0.004814235
-0.00482975
-0.004788291
-0.00456064
-0.002619582
-0.00272143
-0.002828069
-0.002940244
-0.003058897
-0.003186983
-0.003328717
-0.003484985
-0.003659312
-0.003856565
-0.003952869
-0.003895348
-0.003795857
-0.003624666
-0.003298004
-0.002315264
-0.002402675
-0.002493668
-0.002588763
-0.002688595
-0.002795596
-0.002913271
-0.003041811
-0.003183528
-0.003341594
-0.00340422
-0.003333214
-0.003235893
-0.003106489
-0.002925846
-0.002804781
-0.002117999
-0.002195904
-0.002276637
-0.002360567
-0.002448153
-0.002541479
-0.002643601
-0.002754319
-0.002875273
-0.003008634
-0.003052717
-0.002978802
-0.002885969
-0.002773254
-0.002636524
-0.002592276
-0.002602475
-0.001993758
-0.002065418
-0.002139402
-0.002215997
-0.002295542
-0.002379892
-0.002471793
-0.002570821
-0.002678193
-0.0027955
-0.002827807
-0.002751228
-0.002658014
-0.00254815
-0.002420851
-0.002387143
-0.002438869
-0.00242735
-0.004884248
-0.004795419
-0.005176512
-0.004834167
-0.005246226
-0.005684282
-0.005077213
-0.005472032
-0.005950024
-0.006477065
-0.005486146
-0.005867685
-0.006328433
-0.006896441
-0.007543443
-0.005843991
-0.006211096
-0.006643173
-0.007168894
-0.007825384
-0.008592142
-0.006050395
-0.006398543
-0.006798932
-0.007271616
-0.007849555
-0.008579638
-0.009447262
-0.00608516
-0.006410461
-0.0067772
-0.007199541
-0.007699064
-0.008313811
-0.009097673
-0.01003262
-0.005957686
-0.006256826
-0.006588983
-0.006963689
-0.00739552
-0.007908769
-0.008544612
-0.009354258
-0.01032257
-0.005684857
-0.005955339
-0.006251977
-0.006581432
-0.006953168
-0.007383542
-0.007898292
-0.008533624
-0.009342488
-0.01030936
-0.005284727
-0.005524588
-0.005785038
-0.006070636
-0.006387783
-0.006747331
-0.007166486
-0.0076655
-0.008280704
-0.009062208
-0.009871659
-0.004776336
-0.004984218
-0.005208002
-0.005450857
-0.005717009
-0.006014074
-0.006353556
-0.006747276
-0.007215492
-0.007791374
-0.008412756
-0.009055408
-0.004184331
-0.004359622
-0.004546842
-0.004748129
-0.004966294
-0.005206737
-0.005477634
-0.005785391
-0.006141989
-0.006565283
-0.006980346
-0.007422126
-0.00795338
-0.003551067
-0.003694587
-0.003846635
-0.004008616
-0.004182325
-0.004371797
-0.004582961
-0.004819119
-0.005087125
-0.00539717
-0.005651901
-0.005852105
-0.006124137
-0.006438294
-0.002958078
-0.003073559
-0.003194805
-0.003322695
-0.003458343
-0.003604925
-0.003766961
-0.00394572
-0.004145278
-0.004371307
-0.004500752
-0.004478668
-0.004404993
-0.004216063
-0.003730377
-0.002521922
-0.002617404
-0.002716954
-0.002821153
-0.002930718
-0.003048227
-0.003177334
-0.003318359
-0.003473844
-0.003647302
-0.003720201
-0.003643473
-0.003524765
-0.00334859
-0.003082875
-0.002881578
-0.002231017
-0.002313227
-0.002398494
-0.002487216
-0.002579888
-0.00267867
-0.002786691
-0.002903787
-0.003031694
-0.003172715
-0.003219956
-0.003137474
-0.003027704
-0.002887832
-0.002712401
-0.002638284
-0.002634983
-0.002042604
-0.002116083
-0.002191975
-0.002270579
-0.002352244
-0.002438858
-0.002533194
-0.002634835
-0.002745032
-0.002865418
-0.002898613
-0.002817558
-0.002716496
-0.002595135
-0.002452638
-0.002407769
-0.002454193
-0.002437897
-0.001924187
-0.001991934
-0.002061678
-0.00213364
-0.002208087
-0.002286716
-0.002372055
-0.002463535
-0.002562108
-0.002668987
-0.0026932
-0.00261216
-0.002513851
-0.002398155
-0.002265129
-0.002221286
-0.002267218
-0.002293226
-0.002260183
-0.004750062
-0.004535069
-0.004879715
-0.004424821
-0.004791158
-0.005167309
-0.004487394
-0.004830121
-0.005237541
-0.005670068
-0.004746814
-0.005073434
-0.005464011
-0.005937033
-0.006457927
-0.005160438
-0.005482908
-0.005860877
-0.006317564
-0.006880714
-0.007524385
-0.00552407
-0.00584112
-0.0062051
-0.006633697
-0.007155396
-0.007809453
-0.008577059
-0.005741228
-0.006047753
-0.006393053
-0.006790311
-0.007259463
-0.007835466
-0.008566863
-0.009432934
-0.005792015
-0.006082682
-0.006405329
-0.006769178
-0.007188309
-0.007686186
-0.0083024
-0.009085434
-0.01001888
-0.005684857
-0.005955339
-0.006251977
-0.006581432
-0.006953168
-0.007383542
-0.007898292
-0.008533624
-0.009342488
-0.01030936
-0.005435782
-0.005682622
-0.005950731
-0.006244818
-0.006571492
-0.00694191
-0.007373771
-0.00788817
-0.00852302
-0.009331145
-0.01017592
-0.005062031
-0.005282586
-0.005520182
-0.005778207
-0.006061179
-0.00637711
-0.00673811
-0.007156998
-0.007655676
-0.00827042
-0.008946843
-0.009665646
-0.004581944
-0.004774268
-0.004979967
-0.005201423
-0.005441767
-0.00570678
-0.006005245
-0.006344494
-0.006737934
-0.007205801
-0.007684686
-0.00822708
-0.008890074
-0.004019292
-0.004182298
-0.004355444
-0.004540383
-0.004739218
-0.004956289
-0.005198056
-0.005468682
-0.005776129
-0.006132363
-0.00645956
-0.006789865
-0.007249089
-0.007809821
-0.003414958
-0.003548994
-0.003690328
-0.003840053
-0.003999545
-0.004172154
-0.004362828
-0.004573561
-0.004809239
-0.005076703
-0.005281187
-0.005420274
-0.005615062
-0.005897231
-0.006266252
-0.002847645
-0.002955895
-0.003069074
-0.003187873
-0.003313145
-0.003447642
-0.003595253
-0.00375658
-0.003934555
-0.00413324
-0.00423455
-0.004186909
-0.004085681
-0.003883983
-0.003469452
-0.002972214
-0.002430037
-0.002519827
-0.002613101
-0.00271031
-0.002812011
-0.002920489
-0.003038992
-0.003167439
-0.003307741
-0.00346243
-0.003518165
-0.003428671
-0.00329671
-0.003110586
-0.002854335
-0.002706852
-0.002677291
-0.002151525
-0.002229055
-0.002309203
-0.002392288
-0.002478687
-0.002570358
-0.002670132
-0.002777612
-0.002894119
-0.003021385
-0.003057064
-0.002967275
-0.002849482
-0.002701784
-0.00252241
-0.002449349
-0.002483226
-0.002456901
-0.001971294
-0.002040757
-0.002112297
-0.002186143
-0.002262571
-0.002343307
-0.002430902
-0.002524788
-0.002625944
-0.002735614
-0.002760497
-0.002675001
-0.002569027
-0.002442235
-0.002294715
-0.002240261
-0.002281067
-0.002302649
-0.002266214
-0.001858247
-0.001922427
-0.001988327
-0.002056125
-0.002126021
-0.002199593
-0.002279182
-0.002364125
-0.002455178
-0.002553292
-0.002571205
-0.002487556
-0.002386435
-0.00226762
-0.002131213
-0.002078065
-0.002109976
-0.0021333
-0.002138417
-0.002088203
-0.004417686
-0.004745612
-0.004191127
-0.004530938
-0.004870841
-0.004111707
-0.004420916
-0.004782805
-0.005153742
-0.004197871
-0.004483645
-0.004822178
-0.005224723
-0.005651366
-0.004466311
-0.004743285
-0.005066011
-0.005452164
-0.00591993
-0.006437443
-0.004878575
-0.005157396
-0.005476553
-0.005850833
-0.00630327
-0.006863896
-0.007508353
-0.005242113
-0.005521361
-0.005835488
-0.006196258
-0.006621237
-0.007140966
-0.007796297
-0.008562307
-0.005464802
-0.005738726
-0.006042571
-0.006384954
-0.006778973
-0.007246469
-0.007823927
-0.00855447
-0.009419053
-0.005526831
-0.005789661
-0.006077818
-0.006397753
-0.006758624
-0.007176296
-0.00767567
-0.008291365
-0.009073612
-0.01000563
-0.005435782
-0.005682622
-0.005950731
-0.006244818
-0.006571492
-0.00694191
-0.007373771
-0.00788817
-0.00852302
-0.009331145
-0.01017592
-0.005206682
-0.005433648
-0.005678229
-0.005943922
-0.006235391
-0.006560854
-0.006932726
-0.007364329
-0.007878402
-0.008512801
-0.009216541
-0.00997196
-0.004855942
-0.005059984
-0.005278377
-0.005513668
-0.005769208
-0.006051052
-0.006368395
-0.006729192
-0.007147834
-0.007646198
-0.008166382
-0.00876917
-0.009509696
-0.004401126
-0.004579964
-0.0047702
-0.00497368
-0.005192751
-0.00543203
-0.005698402
-0.005996679
-0.00633571
-0.00672889
-0.007107392
-0.007516854
-0.008083274
-0.008776762
-0.003865113
-0.004017341
-0.004178293
-0.00434926
-0.004531864
-0.00472967
-0.004948024
-0.005189558
-0.005459924
-0.005767073
-0.00603361
-0.006283602
-0.006632907
-0.007122435
-0.007732094
-0.003287328
-0.003412966
-0.003544905
-0.003684016
-0.003831364
-0.003989817
-0.004163592
-0.004353875
-0.004564179
-0.004799379
-0.00496752
-0.005064657
-0.005201049
-0.005408624
-0.005743196
-0.00274376
-0.002845546
-0.002951584
-0.003062416
-0.00317871
-0.003302889
-0.003438388
-0.003585339
-0.003745944
-0.00392312
-0.004003806
-0.003939026
-0.003819507
-0.003603896
-0.003204611
-0.002787893
-0.002714771
-0.002343352
-0.002428019
-0.002515685
-0.002606711
-0.002701525
-0.002802192
-0.002911637
-0.003029522
-0.003157297
-0.003296863
-0.003339709
-0.003242164
-0.003102031
-0.002909286
-0.002653059
-0.002511374
-0.002521037
-0.002479395
-0.002076347
-0.002149634
-0.002225179
-0.002303228
-0.002384082
-0.002469527
-0.002562161
-0.002661427
-0.002768358
-0.002884269
-0.00291113
-0.00281688
-0.002694535
-0.002542324
-0.002359684
-0.002278527
-0.002307315
-0.002319634
-0.002276702
-0.00190371
-0.001969513
-0.002037107
-0.002106676
-0.00217843
-0.00225397
-0.002335658
-0.00242283
-0.002516261
-0.002616926
-0.002635341
-0.002547293
-0.002438718
-0.002309216
-0.00215898
-0.00209574
-0.00212272
-0.002141817
-0.002143801
-0.002091298
-0.001795636
-0.001856548
-0.001918947
-0.001982972
-0.002048781
-0.002117839
-0.002192342
-0.002271557
-0.0023561
-0.002446724
-0.002459662
-0.002374676
-0.002272335
-0.002152323
-0.002014708
-0.001954794
-0.001973854
-0.001985712
-0.001990742
-0.001978483
-0.001914225
-0.004085896
-0.00441362
-0.0047369
-0.003897468
-0.004187332
-0.004522842
-0.004857761
-0.003848493
-0.004108082
-0.004413251
-0.004770478
-0.005135897
-0.003951151
-0.004194364
-0.004476279
-0.004810443
-0.005207845
-0.005631349
-0.004223149
-0.004462992
-0.004736346
-0.005055039
-0.005436557
-0.005901616
-0.006419726
-0.004629999
-0.004875703
-0.005151422
-0.00546717
-0.005837614
-0.006287978
-0.006849737
-0.007492363
-0.004989952
-0.005239546
-0.005516044
-0.005827177
-0.006184625
-0.006607911
-0.007129047
-0.00778342
-0.008547886
-0.005214717
-0.005462425
-0.005733815
-0.006034922
-0.006374298
-0.006766846
-0.007235826
-0.007812731
-0.008542459
-0.009405621
-0.005284727
-0.005524588
-0.005785038
-0.006070636
-0.006387783
-0.006747331
-0.007166486
-0.0076655
-0.008280704
-0.009062208
-0.009871659
-0.005206682
-0.005433648
-0.005678229
-0.005943922
-0.006235391
-0.006560854
-0.006932726
-0.007364329
-0.007878402
-0.008512801
-0.009216541
-0.00997196
-0.004994671
-0.005204641
-0.005429453
-0.005671737
-0.005934952
-0.006225297
-0.006552174
-0.006923852
-0.007355219
-0.007868988
-0.008409544
-0.009041156
-0.009818502
-0.004664252
-0.004853981
-0.005055957
-0.005272153
-0.005505084
-0.005759569
-0.006042782
-0.006359966
-0.006720576
-0.007138992
-0.007550316
-0.008006115
-0.008634501
-0.009404876
-0.004232217
-0.004399226
-0.004576065
-0.004764182
-0.004965391
-0.00518346
-0.005424055
-0.005690273
-0.005988376
-0.006327205
-0.006637037
-0.00695256
-0.007386824
-0.007984564
-0.008718931
-0.003720555
-0.003863239
-0.004013498
-0.004172363
-0.004341101
-0.004522733
-0.004721782
-0.004939934
-0.005181245
-0.005451361
-0.005674168
-0.005869242
-0.006138596
-0.006517982
-0.007053739
-0.003167281
-0.003285412
-0.003409036
-0.003538844
-0.003675681
-0.003822043
-0.003981627
-0.004155045
-0.00434494
-0.004554816
-0.004696086
-0.004763697
-0.004859745
-0.00501016
-0.005268486
-0.002645769
-0.002741739
-0.002841398
-0.002945183
-0.003053613
-0.003168867
-0.003294021
-0.003428903
-0.003575183
-0.00373505
-0.003800172
-0.00372416
-0.003593158
-0.00336925
-0.002975965
-0.002584767
-0.002554556
-0.00249641
-0.002261383
-0.002341407
-0.00242403
-0.002509535
-0.002598261
-0.002692089
-0.002793695
-0.00290256
-0.003019816
-0.003146907
-0.003179913
-0.003077474
-0.002932991
-0.002737178
-0.002481421
-0.002335641
-0.002341519
-0.002339745
-0.002288376
-0.002005105
-0.002074524
-0.002145896
-0.002219421
-0.002295326
-0.002375268
-0.002461647
-0.002553803
-0.002652554
-0.002758929
-0.002778927
-0.002682195
-0.002557676
-0.002403695
-0.00221997
-0.002131391
-0.00214688
-0.002157171
-0.002153166
-0.002096551
-0.001839541
-0.001901991
-0.001965991
-0.002031686
-0.002099242
-0.002170145
-0.002246609
-0.002327898
-0.002414642
-0.002507614
-0.002520922
-0.002431616
-0.002322043
-0.002191746
-0.002040919
-0.00197139
-0.001985726
-0.00199355
-0.001995604
-0.001981228
-0.001915323
-0.00173609
-0.001793995
-0.001853188
-0.001913778
-0.001975887
-0.002040892
-0.002110854
-0.002185004
-0.002263842
-0.002347982
-0.002356932
-0.002271502
-0.00216902
-0.002049143
-0.001911885
-0.001847576
-0.001856613
-0.001857582
-0.001853416
-0.001843219
-0.001816059
-0.001740132
-0.003801078
-0.004082157
-0.004405652
-0.004724061
-0.003649415
-0.003893941
-0.004179888
-0.004510898
-0.004840558
-0.00362347
-0.003845098
-0.004100961
-0.004401933
-0.004754253
-0.0051168
-0.003736876
-0.00394785
-0.004187468
-0.004465389
-0.004794985
-0.005189773
-0.005614008
-0.004008515
-0.004220013
-0.004456462
-0.004726083
-0.005040577
-0.005419838
-0.005885769
-0.006401565
-0.004407608
-0.004627276
-0.004870059
-0.005142596
-0.005454815
-0.005823466
-0.006275103
-0.006835605
-0.007476417
-0.004761781
-0.004987513
-0.005234506
-0.005508191
-0.005816238
-0.006172179
-0.006596904
-0.007117381
-0.007770824
-0.008533797
-0.00498638
-0.005212452
-0.005457756
-0.005726562
-0.006024853
-0.006362895
-0.006756913
-0.007225501
-0.00780188
-0.00853083
-0.009269296
-0.005062031
-0.005282586
-0.005520182
-0.005778207
-0.006061179
-0.00637711
-0.00673811
-0.007156998
-0.007655676
-0.00827042
-0.008946843
-0.009665646
-0.004994671
-0.005204641
-0.005429453
-0.005671737
-0.005934952
-0.006225297
-0.006552174
-0.006923852
-0.007355219
-0.007868988
-0.008409544
-0.009041156
-0.009818502
-0.004797477
-0.004992717
-0.005200627
-0.00542325
-0.005663181
-0.005925345
-0.006217062
-0.006543788
-0.006915289
-0.007346438
-0.007773866
-0.008251497
-0.008909063
-0.009715909
-0.004485196
-0.004662371
-0.004850122
-0.005049999
-0.005263948
-0.005495887
-0.005751698
-0.006034785
-0.006351823
-0.006712265
-0.007049541
-0.007402599
-0.007884615
-0.008543898
-0.009352167
-0.004073859
-0.004230393
-0.004395485
-0.004570295
-0.004756244
-0.004956507
-0.00517585
-0.005416317
-0.005682394
-0.005980336
-0.006240834
-0.00649251
-0.006832589
-0.007297548
-0.007934134
-0.003584597
-0.003718753
-0.003859546
-0.004007805
-0.004164538
-0.004332354
-0.00451519
-0.004714061
-0.004932019
-0.005173116
-0.005363506
-0.005519524
-0.005733782
-0.006032416
-0.006455633
-0.003054059
-0.003165438
-0.003281633
-0.00340321
-0.003530838
-0.003666738
-0.003814196
-0.003973452
-0.004146515
-0.004336023
-0.004456732
-0.004503264
-0.004570825
-0.004681341
-0.0048806
-0.002553122
-0.002643821
-0.002737744
-0.002835237
-0.002936716
-0.003044156
-0.003160357
-0.003284932
-0.003419186
-0.003564781
-0.003617926
-0.003534575
-0.003396936
-0.003169395
-0.002782597
-0.002403274
-0.002371862
-0.002354964
-0.002296478
-0.002183715
-0.002259507
-0.002337562
-0.002418104
-0.002501398
-0.002589182
-0.002683923
-0.002784982
-0.002893257
-0.003009874
-0.003035204
-0.00293005
-0.00278377
-0.002587708
-0.00233431
-0.002184622
-0.002178375
-0.002175359
-0.002163594
-0.002102178
-0.001937469
-0.002003345
-0.002070918
-0.002140344
-0.002211805
-0.002286837
-0.002367686
-0.002453614
-0.002545285
-0.002643514
-0.002658093
-0.002560225
-0.002435167
-0.002281307
-0.002098503
-0.002004872
-0.002008238
-0.002007682
-0.002004062
-0.001985891
-0.001917134
-0.001778516
-0.001837881
-0.001898591
-0.001960759
-0.002024515
-0.002091255
-0.002163055
-0.002239142
-0.002320027
-0.002406339
-0.002415555
-0.002325897
-0.002216407
-0.00208663
-0.001936731
-0.001863248
-0.001867763
-0.001864883
-0.001857888
-0.001845688
-0.001816994
-0.001739618
-0.001679381
-0.001734504
-0.001790749