/*--------------------------------*- C++ -*----------------------------------*\
| =========                 |                                                 |
| \\      /  F ield         | OpenFOAM: The Open Source CFD Toolbox           |
|  \\    /   O peration     | Version:  2306                                  |
|   \\  /    A nd           | Website:  www.openfoam.com                      |
|    \\/     M anipulation  |                                                 |
\*---------------------------------------------------------------------------*/
FoamFile
{
    version     2.0;
    format      ascii;
    arch        "LSB;label=32;scalar=64";
    class       volScalarField;
    location    "1.2/phiEA";
    object      T;
}
// * * * * * * * * * * * * * * * * * * * * * * * * * * * * * * * * * * * * * //

dimensions      [0 0 0 1 0 0 0];

internalField   nonuniform List<scalar> 
20000
(
1163.794
1163.641
1165.6
1163.807
1163.29
1165.588
1163.655
1167.255
1165.608
1163.825
1162.64
1165.557
1163.304
1167.282
1165.596
1163.673
1168.799
1167.259
1165.621
1163.847
1161.556
1165.495
1162.658
1167.34
1165.564
1163.324
1168.838
1167.285
1165.608
1163.696
1170.28
1168.8
1167.267
1165.638
1163.875
1159.976
1165.378
1161.58
1167.441
1165.501
1162.681
1168.923
1167.343
1165.576
1163.349
1170.321
1168.838
1167.293
1165.625
1163.724
1171.714
1170.278
1168.804
1167.28
1165.66
1163.907
1158.189
1165.175
1160.012
1167.59
1165.381
1161.61
1169.072
1167.441
1165.512
1162.71
1170.413
1168.922
1167.35
1165.593
1163.379
1171.754
1170.318
1168.841
1167.305
1165.647
1163.758
1173.101
1171.708
1170.279
1168.812
1167.296
1165.686
1163.941
1156.556
1164.872
1158.241
1167.772
1165.174
1160.053
1169.305
1167.587
1165.389
1161.645
1170.575
1169.069
1167.446
1165.527
1162.743
1171.845
1170.409
1168.925
1167.361
1165.614
1163.414
1173.14
1171.748
1170.319
1168.849
1167.322
1165.673
1163.792
1174.443
1173.094
1171.706
1170.283
1168.825
1167.318
1165.713
1163.974
1155.341
1164.532
1156.624
1167.908
1164.87
1158.298
1169.608
1167.761
1165.178
1160.099
1170.828
1169.297
1167.587
1165.402
1161.686
1172.005
1170.568
1169.07
1167.455
1165.547
1162.783
1173.227
1171.838
1170.409
1168.932
1167.376
1165.639
1163.451
1174.48
1173.132
1171.746
1170.323
1168.861
1167.342
1165.699
1163.827
1175.739
1174.434
1173.09
1171.708
1170.292
1168.841
1167.339
1165.74
1164.008
1154.7
1164.242
1155.422
1167.979
1164.532
1156.696
1169.89
1167.893
1164.873
1158.359
1171.165
1169.593
1167.755
1165.186
1160.15
1172.257
1170.818
1169.293
1167.592
1165.419
1161.733
1173.381
1171.996
1170.566
1169.074
1167.468
1165.571
1162.823
1174.563
1173.218
1171.835
1170.412
1168.942
1167.396
1165.666
1163.488
1175.774
1174.471
1173.128
1171.748
1170.331
1168.877
1167.363
1165.726
1163.861
1176.986
1175.728
1174.428
1173.089
1171.714
1170.305
1168.858
1167.361
1165.767
1164.042
1154.7
1164.078
1154.787
1168.002
1164.246
1155.506
1170.101
1167.962
1164.538
1156.773
1171.491
1169.87
1167.883
1164.881
1158.425
1172.595
1171.149
1169.583
1167.754
1165.2
1160.207
1173.624
1172.245
1170.811
1169.294
1167.601
1165.442
1161.781
1174.71
1173.371
1171.991
1170.567
1169.083
1167.486
1165.596
1162.865
1175.852
1174.553
1173.213
1171.835
1170.419
1168.957
1167.416
1165.692
1163.525
1177.019
1175.763
1174.464
1173.127
1171.753
1170.344
1168.894
1167.385
1165.753
1163.896
1178.184
1176.974
1175.72
1174.426
1173.092
1171.723
1170.318
1168.875
1167.382
1165.794
1164.207
1155.341
1164.078
1154.787
1168.005
1164.083
1154.877
1170.234
1167.985
1164.254
1155.594
1171.747
1170.078
1167.95
1164.547
1156.854
1172.926
1171.469
1169.854
1167.877
1164.894
1158.496
1173.951
1172.577
1171.136
1169.577
1167.756
1165.218
1160.264
1174.941
1173.611
1172.237
1170.809
1169.298
1167.615
1165.464
1161.829
1175.991
1174.698
1173.364
1171.99
1170.572
1169.096
1167.504
1165.622
1162.907
1177.093
1175.84
1174.546
1173.212
1171.84
1170.43
1168.973
1167.436
1165.718
1163.562
1178.215
1177.007
1175.755
1174.462
1173.13
1171.762
1170.356
1168.91
1167.406
1165.78
1164.067
1179.333
1178.171
1176.965
1175.716
1174.427
1173.099
1171.733
1170.331
1168.892
1167.404
1165.927
1164.523
1156.556
1164.242
1155.422
1168.005
1164.083
1154.877
1170.297
1167.988
1164.093
1154.971
1171.917
1170.21
1167.972
1164.267
1155.686
1173.192
1171.722
1170.059
1167.942
1164.562
1156.939
1174.273
1172.904
1171.451
1169.843
1167.875
1164.911
1158.567
1175.253
1173.933
1172.563
1171.127
1169.575
1167.764
1165.237
1160.322
1176.211
1174.927
1173.601
1172.232
1170.81
1169.307
1167.628
1165.487
1161.879
1177.226
1175.978
1174.689
1173.361
1171.992
1170.581
1169.109
1167.521
1165.647
1162.949
1178.286
1177.081
1175.832
1174.542
1173.213
1171.848
1170.442
1168.988
1167.456
1165.745
1163.746
1179.363
1178.203
1176.998
1175.751
1174.462
1173.136
1171.771
1170.369
1168.927
1167.427
1165.912
1164.399
1180.433
1179.32
1178.162
1176.96
1175.716
1174.431
1173.106
1171.742
1170.344
1168.909
1167.51
1166.167
1164.856
1158.189
1164.532
1156.624
1168.002
1164.246
1155.506
1170.297
1167.988
1164.093
1154.971
1172.001
1170.272
1167.975
1164.107
1155.07
1173.371
1171.89
1170.189
1167.964
1164.284
1155.783
1174.533
1173.166
1171.701
1170.045
1167.938
1164.581
1157.025
1175.562
1174.25
1172.885
1171.437
1169.835
1167.878
1164.929
1158.638
1176.508
1175.234
1173.918
1172.553
1171.122
1169.577
1167.771
1165.256
1160.38
1177.435
1176.196
1174.915
1173.594
1172.23
1170.815
1169.315
1167.642
1165.511
1161.929
1178.412
1177.212
1175.968
1174.684
1173.361
1171.998
1170.591
1169.122
1167.539
1165.673
1163.156
1179.431
1178.273
1177.071
1175.827
1174.542
1173.219
1171.856
1170.453
1169.003
1167.476
1165.875
1164.114
1180.462
1179.35
1178.193
1176.992
1175.75
1174.466
1173.143
1171.78
1170.381
1168.943
1167.531
1166.152
1164.753
1181.485
1180.42
1179.31
1178.155
1176.958
1175.718
1174.436
1173.113
1171.752
1170.356
1168.993
1167.699
1166.41
1165.202
1159.976
1164.872
1158.241
1167.979
1164.532
1156.696
1170.234
1167.985
1164.254
1155.594
1172.001
1170.272
1167.975
1164.107
1155.07
1173.46
1171.973
1170.252
1167.967
1164.126
1155.172
1174.71
1173.343
1171.868
1170.174
1167.96
1164.306
1155.88
1175.812
1174.508
1173.144
1171.684
1170.034
1167.939
1164.6
1157.11
1176.802
1175.539
1174.231
1172.87
1171.427
1169.832
1167.881
1164.947
1158.709
1177.718
1176.489
1175.219
1173.906
1172.547
1171.122
1169.579
1167.779
1165.275
1160.438
1178.612
1177.419
1176.184
1174.907
1173.591
1172.233
1170.82
1169.324
1167.656
1165.534
1162.172
1179.552
1178.398
1177.201
1175.962
1174.683
1173.364
1172.005
1170.6
1169.134
1167.557
1165.798
1163.588
1180.527
1179.417
1178.263
1177.065
1175.825
1174.545
1173.224
1171.864
1170.464
1169.018
1167.575
1166.115
1164.517
1181.513
1180.448
1179.34
1178.186
1176.99
1175.752
1174.471
1173.149
1171.789
1170.394
1169.025
1167.715
1166.396
1165.125
1182.489
1181.471
1180.409
1179.303
1178.152
1176.959
1175.721
1174.44
1173.119
1171.762
1170.422
1169.14
1167.885
1166.655
1165.558
1161.556
1165.175
1160.012
1167.908
1164.87
1158.298
1170.101
1167.962
1164.538
1156.773
1171.917
1170.21
1167.972
1164.267
1155.686
1173.46
1171.973
1170.252
1167.967
1164.126
1155.172
1174.799
1173.432
1171.95
1170.235
1167.963
1164.15
1155.275
1175.983
1174.683
1173.32
1171.849
1170.162
1167.96
1164.328
1155.975
1177.041
1175.787
1174.486
1173.126
1171.671
1170.028
1167.94
1164.62
1157.194
1177.998
1176.78
1175.52
1174.216
1172.859
1171.422
1169.829
1167.884
1164.964
1158.779
1178.882
1177.698
1176.473
1175.207
1173.899
1172.544
1171.121
1169.581
1167.786
1165.294
1160.717
1179.743
1178.596
1177.406
1176.175
1174.903
1173.592
1172.235
1170.825
1169.332
1167.67
1165.649
1162.678
1180.643
1179.537
1178.387
1177.194
1175.959
1174.684
1173.368
1172.011
1170.609
1169.147
1167.645
1166.036
1164.076
1181.575
1180.513
1179.406
1178.256
1177.062
1175.827
1174.549
1173.23
1171.872
1170.476
1169.094
1167.749
1166.362
1164.95
1182.516
1181.499
1180.438
1179.332
1178.183
1176.991
1175.754
1174.475
1173.155
1171.798
1170.456
1169.166
1167.897
1166.643
1165.509
1183.446
1182.475
1181.46
1180.401
1179.299
1178.152
1176.96
1175.724
1174.445
1173.126
1171.81
1170.534
1169.283
1168.069
1166.902
1165.762
1162.64
1165.378
1161.58
1167.772
1165.174
1160.053
1169.89
1167.893
1164.873
1158.359
1171.747
1170.078
1167.95
1164.547
1156.854
1173.371
1171.89
1170.189
1167.964
1164.284
1155.783
1174.799
1173.432
1171.95
1170.235
1167.963
1164.15
1155.275
1176.068
1174.771
1173.408
1171.931
1170.223
1167.964
1164.174
1155.376
1177.205
1175.956
1174.66
1173.301
1171.835
1170.154
1167.961
1164.349
1156.07
1178.227
1177.017
1175.765
1174.468
1173.113
1171.662
1170.022
1167.941
1164.639
1157.277
1179.15
1177.976
1176.761
1175.504
1174.204
1172.852
1171.416
1169.826
1167.887
1164.982
1159.112
1180.001
1178.863
1177.682
1176.461
1175.198
1173.895
1172.541
1171.12
1169.583
1167.794
1165.389
1161.233
1180.826
1179.726
1178.583
1177.397
1176.169
1174.902
1173.592
1172.238
1170.83
1169.341
1167.738
1165.875
1163.265
1181.686
1180.628
1179.525
1178.378
1177.189
1175.959
1174.686
1173.372
1172.017
1170.618
1169.21
1167.8
1166.288
1164.62
1182.576
1181.561
1180.502
1179.398
1178.252
1177.062
1175.828
1174.552
1173.235
1171.88
1170.532
1169.222
1167.921
1166.615
1165.404
1183.472
1182.502
1181.488
1180.43
1179.328
1178.183
1176.992
1175.756
1174.479
1173.162
1171.844
1170.562
1169.303
1168.076
1166.893
1165.731
1184.356
1183.432
1182.464
1181.452
1180.397
1179.297
1178.152
1176.961
1175.726
1174.449
1173.161
1171.892
1170.641
1169.423
1168.252
1167.041
1165.828
1163.29
1165.495
1162.658
1167.59
1165.381
1161.61
1169.608
1167.761
1165.178
1160.099
1171.491
1169.87
1167.883
1164.881
1158.425
1173.192
1171.722
1170.059
1167.942
1164.562
1156.939
1174.71
1173.343
1171.868
1170.174
1167.96
1164.306
1155.88
1176.068
1174.771
1173.408
1171.931
1170.223
1167.964
1164.174
1155.376
1177.287
1176.041
1174.747
1173.388
1171.916
1170.215
1167.964
1164.197
1155.477
1178.383
1177.179
1175.933
1174.641
1173.285
1171.824
1170.147
1167.961
1164.371
1156.164
1179.369
1178.203
1176.996
1175.748
1174.454
1173.103
1171.653
1170.016
1167.942
1164.658
1157.669
1180.257
1179.128
1177.957
1176.745
1175.493
1174.196
1172.845
1171.41
1169.824
1167.89
1165.07
1159.673
1181.074
1179.981
1178.847
1177.67
1176.452
1175.193
1173.89
1172.538
1171.119
1169.586
1167.832
1165.571
1161.761
1181.862
1180.809
1179.712
1178.572
1177.39
1176.167
1174.901
1173.592
1172.24
1170.835
1169.382
1167.86
1166.124
1163.959
1182.683
1181.671
1180.615
1179.516
1178.373
1177.188
1175.959
1174.687
1173.375
1172.022
1170.662
1169.315
1167.954
1166.554
1165.214
1183.53
1182.561
1181.549
1180.493
1179.394
1178.251
1177.062
1175.83
1174.555
1173.24
1171.92
1170.625
1169.345
1168.09
1166.873
1165.667
1184.381
1183.457
1182.49
1181.479
1180.425
1179.326
1178.182
1176.992
1175.759
1174.483
1173.194
1171.921
1170.663
1169.435
1168.255
1167.034
1165.801
1185.221
1184.342
1183.42
1182.455
1181.447
1180.395
1179.296
1178.152
1176.962
1175.729
1174.472
1173.218
1171.97
1170.744
1169.56
1168.354
1167.078
1165.907
1163.641
1165.557
1163.304
1167.441
1165.501
1162.681
1169.305
1167.587
1165.389
1161.645
1171.165
1169.593
1167.755
1165.186
1160.15
1172.926
1171.469
1169.854
1167.877
1164.894
1158.496
1174.533
1173.166
1171.701
1170.045
1167.938
1164.581
1157.025
1175.983
1174.683
1173.32
1171.849
1170.162
1167.96
1164.328
1155.975
1177.287
1176.041
1174.747
1173.388
1171.916
1170.215
1167.964
1164.197
1155.477
1178.462
1177.261
1176.018
1174.727
1173.372
1171.904
1170.207
1167.965
1164.221
1155.576
1179.518
1178.358
1177.157
1175.914
1174.625
1173.274
1171.813
1170.139
1167.962
1164.393
1156.603
1180.467
1179.345
1178.182
1176.978
1175.734
1174.444
1173.092
1171.644
1170.01
1167.943
1164.752
1158.299
1181.32
1180.236
1179.11
1177.942
1176.733
1175.484
1174.188
1172.837
1171.404
1169.821
1167.907
1165.232
1160.195
1182.101
1181.054
1179.965
1178.834
1177.66
1176.446
1175.188
1173.886
1172.535
1171.118
1169.597
1167.904
1165.763
1162.293
1182.852
1181.846
1180.795
1179.702
1178.565
1177.387
1176.164
1174.899
1173.592
1172.242
1170.858
1169.45
1167.985
1166.406
1164.808
1183.633
1182.667
1181.659
1180.606
1179.51
1178.371
1177.187
1175.959
1174.689
1173.378
1172.051
1170.731
1169.414
1168.108
1166.835
1165.568
1184.437
1183.515
1182.549
1181.54
1180.488
1179.392
1178.249
1177.062
1175.831
1174.558
1173.267
1171.984
1170.71
1169.463
1168.259
1167.02
1165.749
1185.245
1184.367
1183.446
1182.482
1181.474
1180.423
1179.325
1178.182
1176.993
1175.761
1174.504
1173.246
1171.992
1170.759
1169.566
1168.354
1167.072
1165.885
1186.041
1185.207
1184.331
1183.412
1182.45
1181.444
1180.393
1179.295
1178.151
1176.963
1175.742
1174.508
1173.271
1172.044
1170.846
1169.636
1168.377
1167.12
1165.996
1163.794
1165.588
1163.655
1167.34
1165.564
1163.324
1169.072
1167.441
1165.512
1162.71
1170.828
1169.297
1167.587
1165.402
1161.686
1172.595
1171.149
1169.583
1167.754
1165.2
1160.207
1174.273
1172.904
1171.451
1169.843
1167.875
1164.911
1158.567
1175.812
1174.508
1173.144
1171.684
1170.034
1167.939
1164.6
1157.11
1177.205
1175.956
1174.66
1173.301
1171.835
1170.154
1167.961
1164.349
1156.07
1178.462
1177.261
1176.018
1174.727
1173.372
1171.904
1170.207
1167.965
1164.221
1155.576
1179.593
1178.436
1177.238
1175.998
1174.711
1173.359
1171.893
1170.199
1167.966
1164.244
1156.041
1180.61
1179.494
1178.336
1177.138
1175.899
1174.613
1173.262
1171.803
1170.132
1167.963
1164.497
1157.296
1181.521
1180.444
1179.325
1178.165
1176.964
1175.723
1174.433
1173.082
1171.636
1170.005
1167.95
1164.917
1158.858
1182.338
1181.299
1180.218
1179.094
1177.93
1176.725
1175.475
1174.18
1172.83
1171.399
1169.808
1167.943
1165.394
1160.671
1183.082
1182.082
1181.038
1179.952
1178.824
1177.654
1176.44
1175.183
1173.882
1172.532
1171.114
1169.618
1167.978
1165.957
1162.81
1183.796
1182.836
1181.832
1180.784
1179.694
1178.561
1177.383
1176.162
1174.898
1173.592
1172.252
1170.891
1169.512
1168.115
1166.737
1165.435
1184.537
1183.617
1182.655
1181.649
1180.6
1179.507
1178.369
1177.186
1175.959
1174.69
1173.395
1172.092
1170.791
1169.507
1168.263
1166.998
1165.671
1185.299
1184.422
1183.503
1182.54
1181.534
1180.485
1179.39
1178.248
1177.062
1175.833
1174.574
1173.307
1172.04
1170.79
1169.578
1168.353
1167.061
1165.842
1186.064
1185.231
1184.355
1183.437
1182.476
1181.471
1180.42
1179.323
1178.181
1176.994
1175.772
1174.535
1173.292
1172.059
1170.853
1169.638
1168.376
1167.116
1165.978
1186.817
1186.027
1185.195
1184.322
1183.406
1182.447
1181.442
1180.391
1179.294
1178.151
1176.968
1175.76
1174.54
1173.32
1172.115
1170.901
1169.65
1168.4
1167.167
1166.092
1165.6
1163.807
1167.282
1165.596
1163.673
1168.923
1167.343
1165.576
1163.349
1170.575
1169.069
1167.446
1165.527
1162.743
1172.257
1170.818
1169.293
1167.592
1165.419
1161.733
1173.951
1172.577
1171.136
1169.577
1167.756
1165.218
1160.264
1175.562
1174.25
1172.885
1171.437
1169.835
1167.878
1164.929
1158.638
1177.041
1175.787
1174.486
1173.126
1171.671
1170.028
1167.94
1164.62
1157.194
1178.383
1177.179
1175.933
1174.641
1173.285
1171.824
1170.147
1167.961
1164.371
1156.164
1179.593
1178.436
1177.238
1175.998
1174.711
1173.359
1171.893
1170.199
1167.966
1164.244
1156.041
1180.683
1179.569
1178.414
1177.219
1175.982
1174.698
1173.347
1171.882
1170.191
1167.966
1164.356
1156.769
1181.659
1180.587
1179.473
1178.318
1177.123
1175.887
1174.601
1173.25
1171.792
1170.125
1167.966
1164.674
1157.898
1182.532
1181.499
1180.424
1179.308
1178.151
1176.954
1175.712
1174.422
1173.072
1171.627
1169.976
1167.967
1165.075
1159.346
1183.311
1182.317
1181.281
1180.203
1179.082
1177.921
1176.716
1175.467
1174.172
1172.823
1171.371
1169.791
1167.982
1165.552
1161.09
1184.018
1183.063
1182.066
1181.025
1179.942
1178.817
1177.647
1176.434
1175.177
1173.878
1172.518
1171.106
1169.638
1168.05
1166.147
1184.695
1183.78
1182.822
1181.821
1180.776
1179.689
1178.556
1177.379
1176.159
1174.896
1173.592
1172.26
1170.915
1169.57
1168.256
1166.967
1165.573
1185.396
1184.521
1183.605
1182.645
1181.642
1180.596
1179.504
1178.366
1177.184
1175.958
1174.696
1173.413
1172.124
1170.844
1169.596
1168.351
1167.044
1165.78
1186.117
1185.285
1184.41
1183.494
1182.534
1181.531
1180.482
1179.387
1178.247
1177.062
1175.839
1174.594
1173.339
1172.091
1170.867
1169.641
1168.375
1167.107
1165.943
1186.84
1186.05
1185.219
1184.346
1183.431
1182.472
1181.468
1180.418
1179.322
1178.18
1176.997
1175.786
1174.561
1173.334
1172.122
1170.904
1169.651
1168.399
1167.163
1166.077
1187.55
1186.803
1186.015
1185.186
1184.315
1183.402
1182.443
1181.439
1180.388
1179.292
1178.149
1176.972
1175.775
1174.569
1173.367
1172.154
1170.91
1169.663
1168.423
1167.216
1166.191
1167.255
1165.608
1163.825
1168.838
1167.285
1165.608
1163.696
1170.413
1168.922
1167.35
1165.593
1163.379
1172.005
1170.568
1169.07
1167.455
1165.547
1162.783
1173.624
1172.245
1170.811
1169.294
1167.601
1165.442
1161.781
1175.253
1173.933
1172.563
1171.127
1169.575
1167.764
1165.237
1160.322
1176.802
1175.539
1174.231
1172.87
1171.427
1169.832
1167.881
1164.947
1158.709
1178.227
1177.017
1175.765
1174.468
1173.113
1171.662
1170.022
1167.941
1164.639
1157.277
1179.518
1178.358
1177.157
1175.914
1174.625
1173.274
1171.813
1170.139
1167.962
1164.393
1156.603
1180.683
1179.569
1178.414
1177.219
1175.982
1174.698
1173.347
1171.882
1170.191
1167.966
1164.356
1156.769
1181.729
1180.659
1179.547
1178.395
1177.203
1175.97
1174.685
1173.334
1171.87
1170.183
1167.97
1164.542
1157.399
1182.665
1181.636
1180.566
1179.455
1178.304
1177.111
1175.875
1174.589
1173.238
1171.782
1170.089
1167.977
1164.84
1158.415
1183.498
1182.51
1181.48
1180.408
1179.295
1178.141
1176.943
1175.701
1174.412
1173.062
1171.584
1169.935
1167.989
1165.226
1159.759
1184.24
1183.291
1182.3
1181.266
1180.191
1179.073
1177.912
1176.707
1175.458
1174.164
1172.788
1171.328
1169.778
1168.023
1165.701
1184.91
1184
1183.048
1182.053
1181.015
1179.935
1178.81
1177.641
1176.428
1175.172
1173.856
1172.491
1171.096
1169.655
1168.116
1185.549
1184.679
1183.766
1182.81
1181.812
1180.771
1179.684
1178.552
1177.375
1176.156
1174.887
1173.58
1172.257
1170.929
1169.622
1168.347
1167.023
1165.702
1186.211
1185.381
1184.509
1183.595
1182.638
1181.638
1180.592
1179.5
1178.364
1177.182
1175.956
1174.697
1173.422
1172.147
1170.891
1169.645
1168.373
1167.094
1165.891
1186.891
1186.102
1185.273
1184.401
1183.487
1182.53
1181.528
1180.479
1179.385
1178.246
1177.061
1175.842
1174.606
1173.366
1172.137
1170.909
1169.653
1168.398
1167.156
1166.047
1187.572
1186.826
1186.038
1185.21
1184.34
1183.427
1182.469
1181.465
1180.415
1179.32
1178.177
1176.996
1175.795
1174.583
1173.374
1172.157
1170.912
1169.664
1168.423
1167.213
1166.178
1188.241
1187.536
1186.792
1186.006
1185.18
1184.312
1183.398
1182.44
1181.436
1180.386
1179.285
1178.142
1176.972
1175.787
1174.595
1173.392
1172.159
1170.917
1169.675
1168.447
1167.266
1166.291
1168.799
1167.259
1165.621
1163.847
1170.321
1168.838
1167.293
1165.625
1163.724
1171.845
1170.409
1168.925
1167.361
1165.614
1163.414
1173.381
1171.996
1170.566
1169.074
1167.468
1165.571
1162.823
1174.941
1173.611
1172.237
1170.809
1169.298
1167.615
1165.464
1161.829
1176.508
1175.234
1173.918
1172.553
1171.122
1169.577
1167.771
1165.256
1160.38
1177.998
1176.78
1175.52
1174.216
1172.859
1171.422
1169.829
1167.884
1164.964
1158.779
1179.369
1178.203
1176.996
1175.748
1174.454
1173.103
1171.653
1170.016
1167.942
1164.658
1157.669
1180.61
1179.494
1178.336
1177.138
1175.899
1174.613
1173.262
1171.803
1170.132
1167.963
1164.497
1157.296
1181.729
1180.659
1179.547
1178.395
1177.203
1175.97
1174.685
1173.334
1171.87
1170.183
1167.97
1164.542
1157.399
1182.732
1181.706
1180.638
1179.529
1178.38
1177.191
1175.957
1174.673
1173.322
1171.859
1170.145
1167.979
1164.714
1157.935
1183.627
1182.642
1181.617
1180.549
1179.441
1178.292
1177.099
1175.863
1174.577
1173.227
1171.73
1170.035
1167.991
1164.994
1158.847
1184.421
1183.477
1182.491
1181.464
1180.395
1179.284
1178.13
1176.932
1175.69
1174.401
1173.012
1171.517
1169.902
1168.013
1165.367
1185.124
1184.22
1183.274
1182.285
1181.255
1180.182
1179.064
1177.903
1176.698
1175.45
1174.124
1172.73
1171.291
1169.769
1168.061
1185.758
1184.892
1183.985
1183.035
1182.043
1181.008
1179.928
1178.803
1177.634
1176.422
1175.145
1173.816
1172.463
1171.084
1169.667
1186.36
1185.533
1184.665
1183.755
1182.802
1181.806
1180.765
1179.679
1178.547
1177.372
1176.14
1174.86
1173.557
1172.241
1170.931
1169.65
1168.37
1167.079
1165.826
1186.982
1186.196
1185.368
1184.499
1183.587
1182.633
1181.633
1180.588
1179.497
1178.361
1177.173
1175.941
1174.687
1173.422
1172.163
1170.915
1169.656
1168.396
1167.147
1166.004
1187.622
1186.877
1186.09
1185.263
1184.394
1183.483
1182.526
1181.524
1180.476
1179.383
1178.238
1177.05
1175.839
1174.613
1173.389
1172.162
1170.915
1169.665
1168.422
1167.208
1166.154
1188.262
1187.558
1186.814
1186.029
1185.203
1184.336
1183.423
1182.465
1181.462
1180.413
1179.311
1178.165
1176.991
1175.8
1174.602
1173.395
1172.161
1170.918
1169.676
1168.447
1167.265
1166.281
1188.89
1188.227
1187.525
1186.783
1186
1185.176
1184.307
1183.395
1182.437
1181.433
1180.374
1179.267
1178.13
1176.97
1175.796
1174.609
1173.394
1172.163
1170.923
1169.687
1168.472
1167.318
1166.391
1170.28
1168.8
1167.267
1165.638
1163.875
1171.754
1170.318
1168.841
1167.305
1165.647
1163.758
1173.227
1171.838
1170.409
1168.932
1167.376
1165.639
1163.451
1174.71
1173.371
1171.991
1170.567
1169.083
1167.486
1165.596
1162.865
1176.211
1174.927
1173.601
1172.232
1170.81
1169.307
1167.628
1165.487
1161.879
1177.718
1176.489
1175.219
1173.906
1172.547
1171.122
1169.579
1167.779
1165.275
1160.438
1179.15
1177.976
1176.761
1175.504
1174.204
1172.852
1171.416
1169.826
1167.887
1164.982
1159.112
1180.467
1179.345
1178.182
1176.978
1175.734
1174.444
1173.092
1171.644
1170.01
1167.943
1164.752
1158.299
1181.659
1180.587
1179.473
1178.318
1177.123
1175.887
1174.601
1173.25
1171.792
1170.125
1167.966
1164.674
1157.898
1182.732
1181.706
1180.638
1179.529
1178.38
1177.191
1175.957
1174.673
1173.322
1171.859
1170.145
1167.979
1164.714
1157.935
1183.691
1182.709
1181.686
1180.621
1179.515
1178.368
1177.178
1175.944
1174.66
1173.31
1171.804
1170.085
1167.991
1164.873
1158.381
1184.545
1183.605
1182.623
1181.6
1180.535
1179.43
1178.28
1177.087
1175.851
1174.565
1173.169
1171.649
1169.99
1168.008
1165.137
1185.3
1184.4
1183.459
1182.476
1181.451
1180.384
1179.273
1178.119
1176.921
1175.68
1174.348
1172.933
1171.459
1169.875
1168.037
1185.966
1185.105
1184.203
1183.259
1182.274
1181.246
1180.172
1179.055
1177.894
1176.689
1175.407
1174.058
1172.679
1171.257
1169.761
1186.562
1185.74
1184.877
1183.972
1183.025
1182.035
1181
1179.921
1178.796
1177.627
1176.39
1175.095
1173.774
1172.432
1171.068
1187.127
1186.344
1185.519
1184.654
1183.746
1182.796
1181.8
1180.76
1179.673
1178.542
1177.35
1176.101
1174.821
1173.52
1172.21
1170.923
1169.658
1168.394
1167.136
1165.948
1187.711
1186.967
1186.183
1185.358
1184.491
1183.582
1182.628
1181.629
1180.584
1179.493
1178.346
1177.146
1175.917
1174.668
1173.414
1172.17
1170.919
1169.666
1168.42
1167.201
1166.118
1188.311
1187.608
1186.865
1186.081
1185.256
1184.39
1183.478
1182.522
1181.52
1180.473
1179.37
1178.217
1177.034
1175.83
1174.616
1173.4
1172.165
1170.92
1169.677
1168.446
1167.261
1166.262
1188.911
1188.249
1187.547
1186.805
1186.023
1185.199
1184.331
1183.419
1182.462
1181.459
1180.4
1179.29
1178.148
1176.983
1175.802
1174.612
1173.396
1172.164
1170.924
1169.688
1168.472
1167.316
1166.383
1189.499
1188.877
1188.216
1187.516
1186.776
1185.995
1185.171
1184.303
1183.391
1182.433
1181.417
1180.349
1179.246
1178.116
1176.965
1175.8
1174.609
1173.395
1172.165
1170.929
1169.699
1168.496
1167.368
1166.488
1171.714
1170.278
1168.804
1167.28
1165.66
1163.907
1173.14
1171.748
1170.319
1168.849
1167.322
1165.673
1163.792
1174.563
1173.218
1171.835
1170.412
1168.942
1167.396
1165.666
1163.488
1175.991
1174.698
1173.364
1171.99
1170.572
1169.096
1167.504
1165.622
1162.907
1177.435
1176.196
1174.915
1173.594
1172.23
1170.815
1169.315
1167.642
1165.511
1161.929
1178.882
1177.698
1176.473
1175.207
1173.899
1172.544
1171.121
1169.581
1167.786
1165.294
1160.717
1180.257
1179.128
1177.957
1176.745
1175.493
1174.196
1172.845
1171.41
1169.824
1167.89
1165.07
1159.673
1181.521
1180.444
1179.325
1178.165
1176.964
1175.723
1174.433
1173.082
1171.636
1170.005
1167.95
1164.917
1158.858
1182.665
1181.636
1180.566
1179.455
1178.304
1177.111
1175.875
1174.589
1173.238
1171.782
1170.089
1167.977
1164.84
1158.415
1183.691
1182.709
1181.686
1180.621
1179.515
1178.368
1177.178
1175.944
1174.66
1173.31
1171.804
1170.085
1167.991
1164.873
1158.381
1184.608
1183.67
1182.69
1181.669
1180.606
1179.503
1178.356
1177.166
1175.932
1174.647
1173.248
1171.717
1170.034
1168.005
1165.018
1185.42
1184.524
1183.586
1182.607
1181.586
1180.524
1179.418
1178.268
1177.075
1175.839
1174.504
1173.076
1171.579
1169.952
1168.026
1186.136
1185.28
1184.382
1183.444
1182.463
1181.441
1180.374
1179.263
1178.108
1176.91
1175.625
1174.263
1172.864
1171.409
1169.853
1186.764
1185.947
1185.089
1184.189
1183.248
1182.265
1181.236
1180.163
1179.046
1177.885
1176.644
1175.335
1173.999
1172.632
1171.227
1187.324
1186.545
1185.725
1184.864
1183.962
1183.017
1182.028
1180.993
1179.913
1178.789
1177.593
1176.333
1175.044
1173.731
1172.399
1187.852
1187.111
1186.33
1185.508
1184.645
1183.74
1182.79
1181.794
1180.754
1179.668
1178.517
1177.301
1176.049
1174.768
1173.465
1172.179
1170.924
1169.668
1168.419
1167.193
1166.069
1188.397
1187.696
1186.955
1186.173
1185.35
1184.486
1183.577
1182.623
1181.624
1180.579
1179.474
1178.309
1177.109
1175.883
1174.642
1173.408
1172.17
1170.923
1169.677
1168.445
1167.256
1166.232
1188.959
1188.297
1187.596
1186.855
1186.074
1185.251
1184.385
1183.474
1182.518
1181.517
1180.456
1179.339
1178.189
1177.011
1175.817
1174.617
1173.4
1172.166
1170.925
1169.688
1168.471
1167.314
1166.369
1189.52
1188.898
1188.237
1187.538
1186.798
1186.018
1185.194
1184.327
1183.415
1182.458
1181.442
1180.37
1179.264
1178.128
1176.971
1175.803
1174.611
1173.396
1172.166
1170.929
1169.699
1168.496
1167.368
1166.483
1190.068
1189.486
1188.866
1188.207
1187.509
1186.771
1185.991
1185.167
1184.299
1183.387
1182.415
1181.385
1180.32
1179.222
1178.099
1176.962
1175.799
1174.607
1173.394
1172.166
1170.934
1169.71
1168.52
1167.418
1166.58
1173.101
1171.708
1170.279
1168.812
1167.296
1165.686
1163.941
1174.48
1173.132
1171.746
1170.323
1168.861
1167.342
1165.699
1163.827
1175.852
1174.553
1173.213
1171.835
1170.419
1168.957
1167.416
1165.692
1163.525
1177.226
1175.978
1174.689
1173.361
1171.992
1170.581
1169.109
1167.521
1165.647
1162.949
1178.612
1177.419
1176.184
1174.907
1173.591
1172.233
1170.82
1169.324
1167.656
1165.534
1162.172
1180.001
1178.863
1177.682
1176.461
1175.198
1173.895
1172.541
1171.12
1169.583
1167.794
1165.389
1161.233
1181.32
1180.236
1179.11
1177.942
1176.733
1175.484
1174.188
1172.837
1171.404
1169.821
1167.907
1165.232
1160.195
1182.532
1181.499
1180.424
1179.308
1178.151
1176.954
1175.712
1174.422
1173.072
1171.627
1169.976
1167.967
1165.075
1159.346
1183.627
1182.642
1181.617
1180.549
1179.441
1178.292
1177.099
1175.863
1174.577
1173.227
1171.73
1170.035
1167.991
1164.994
1158.847
1184.608
1183.67
1182.69
1181.669
1180.606
1179.503
1178.356
1177.166
1175.932
1174.647
1173.248
1171.717
1170.034
1168.005
1165.018
1185.481
1184.587
1183.651
1182.673
1181.655
1180.595
1179.491
1178.344
1177.153
1175.919
1174.584
1173.149
1171.641
1169.992
1168.02
1186.253
1185.4
1184.506
1183.571
1182.594
1181.576
1180.513
1179.406
1178.257
1177.064
1175.778
1174.407
1172.995
1171.518
1169.921
1186.93
1186.116
1185.263
1184.368
1183.431
1182.453
1181.43
1180.363
1179.252
1178.098
1176.856
1175.537
1174.188
1172.803
1171.367
1187.52
1186.746
1185.931
1185.075
1184.178
1183.239
1182.255
1181.227
1180.154
1179.037
1177.838
1176.569
1175.27
1173.944
1172.591
1188.044
1187.307
1186.53
1185.713
1184.854
1183.954
1183.009
1182.02
1180.985
1179.906
1178.752
1177.529
1176.274
1174.992
1173.688
1188.535
1187.836
1187.098
1186.319
1185.5
1184.639
1183.733
1182.783
1181.788
1180.748
1179.639
1178.459
1177.24
1175.983
1174.694
1173.418
1172.175
1170.926
1169.678
1168.444
1167.25
1166.191
1189.043
1188.383
1187.684
1186.945
1186.165
1185.345
1184.48
1183.571
1182.618
1181.619
1180.556
1179.428
1178.262
1177.063
1175.842
1174.625
1173.405
1172.17
1170.927
1169.689
1168.471
1167.311
1166.346
1189.566
1188.945
1188.285
1187.587
1186.848
1186.069
1185.246
1184.38
1183.469
1182.514
1181.496
1180.418
1179.303
1178.156
1176.985
1175.808
1174.615
1173.399
1172.167
1170.93
1169.7
1168.496
1167.367
1166.474
1190.088
1189.507
1188.887
1188.228
1187.531
1186.793
1186.013
1185.19
1184.323
1183.411
1182.438
1181.406
1180.336
1179.234
1178.105
1176.964
1175.801
1174.609
1173.395
1172.167
1170.934
1169.711
1168.52
1167.418
1166.578
1190.598
1190.055
1189.475
1188.857
1188.201
1187.505
1186.767
1185.986
1185.163
1184.295
1183.366
1182.377
1181.35
1180.288
1179.196
1178.09
1176.959
1175.795
1174.605
1173.392
1172.167
1170.938
1169.721
1168.543
1167.465
1166.709
1174.443
1173.094
1171.706
1170.283
1168.825
1167.318
1165.713
1163.974
1175.774
1174.471
1173.128
1171.748
1170.331
1168.877
1167.363
1165.726
1163.861
1177.093
1175.84
1174.546
1173.212
1171.84
1170.43
1168.973
1167.436
1165.718
1163.562
1178.412
1177.212
1175.968
1174.684
1173.361
1171.998
1170.591
1169.122
1167.539
1165.673
1163.156
1179.743
1178.596
1177.406
1176.175
1174.903
1173.592
1172.235
1170.825
1169.332
1167.67
1165.649
1162.678
1181.074
1179.981
1178.847
1177.67
1176.452
1175.193
1173.89
1172.538
1171.119
1169.586
1167.832
1165.571
1161.761
1182.338
1181.299
1180.218
1179.094
1177.93
1176.725
1175.475
1174.18
1172.83
1171.399
1169.808
1167.943
1165.394
1160.671
1183.498
1182.51
1181.48
1180.408
1179.295
1178.141
1176.943
1175.701
1174.412
1173.062
1171.584
1169.935
1167.989
1165.226
1159.759
1184.545
1183.605
1182.623
1181.6
1180.535
1179.43
1178.28
1177.087
1175.851
1174.565
1173.169
1171.649
1169.99
1168.008
1165.137
1185.481
1184.587
1183.651