/*--------------------------------*- C++ -*----------------------------------*\
| =========                 |                                                 |
| \\      /  F ield         | OpenFOAM: The Open Source CFD Toolbox           |
|  \\    /   O peration     | Version:  2306                                  |
|   \\  /    A nd           | Website:  www.openfoam.com                      |
|    \\/     M anipulation  |                                                 |
\*---------------------------------------------------------------------------*/
FoamFile
{
    version     2.0;
    format      ascii;
    arch        "LSB;label=32;scalar=64";
    class       volScalarField;
    location    "1.2/fuel";
    object      diffSp.H2;
}
// * * * * * * * * * * * * * * * * * * * * * * * * * * * * * * * * * * * * * //

dimensions      [0 2 -1 0 0 0 0];

internalField   nonuniform List<scalar> 
16000
(
0.0001007801
0.0001007677
0.0001010346
0.0001007929
0.0001007369
0.0001010376
0.0001007807
0.0001012611
0.000101045
0.0001008196
0.0001006792
0.0001010422
0.0001007503
0.0001012679
0.000101048
0.0001008078
0.0001014645
0.0001012694
0.000101067
0.0001008507
0.0001005731
0.000101049
0.0001006936
0.0001012816
0.0001010528
0.0001007784
0.0001014721
0.0001012763
0.0001010703
0.0001008395
0.0001016528
0.0001014713
0.0001012877
0.0001010929
0.0001009135
0.0001004254
0.0001010501
0.0001005888
0.0001013048
0.0001010597
0.0001007231
0.000101488
0.00010129
0.0001010754
0.0001008111
0.0001016604
0.000101479
0.0001012947
0.0001010964
0.0001009032
0.0001018304
0.0001016584
0.0001014867
0.0001013092
0.0001011453
0.0001513928
0.0001002342
0.0001010524
0.0001004432
0.0001013339
0.0001010609
0.0001006207
0.0001015151
0.0001013132
0.0001010829
0.0001007576
0.0001016762
0.0001014948
0.0001013086
0.000101102
0.0001008768
0.0001018376
0.000101666
0.0001014944
0.0001013163
0.0001011493
0.0001513777
0.000101999
0.000101835
0.0001016715
0.0001015049
0.000101353
0.0001517366
0.0001514037
0.000100059
0.000101026
0.0001002544
0.0001013755
0.0001010632
0.000100478
0.0001015519
0.0001013421
0.0001010847
0.0001006577
0.0001017035
0.0001015219
0.000101332
0.0001011102
0.0001008266
0.0001018527
0.0001016818
0.0001015103
0.0001013305
0.0001011559
0.000151339
0.0001020058
0.0001018422
0.0001016791
0.0001015127
0.0001013605
0.0001517427
0.0001513889
0.0001021599
0.0001020029
0.0001018463
0.0001016871
0.0001015423
0.0001520451
0.0001517456
0.0001514184
9.992639e-05
0.0001009938
0.0001000813
0.000101397
0.000101037
0.0001002921
0.0001016041
0.0001013832
0.0001010875
0.0001005182
0.0001017415
0.0001015584
0.000101361
0.0001011126
0.0001007311
0.0001018789
0.000101709
0.0001015375
0.0001013542
0.0001011656
0.0001512651
0.0001020201
0.0001018573
0.000101695
0.0001015288
0.0001013753
0.0001517529
0.0001513507
0.0001021662
0.0001020097
0.0001018536
0.0001016948
0.0001015503
0.0001520563
0.0001517517
0.0001514039
0.0001023134
0.0001021631
0.0001020127
0.0001018599
0.0001017196
0.0001523265
0.0001520525
0.0001517577
0.0001514317
9.985634e-05
0.0001009637
9.995021e-05
0.0001014095
0.0001010052
0.0001001215
0.000101641
0.0001014044
0.0001010618
0.0001003354
0.0001017951
0.00010161
0.000101402
0.000101116
0.000100597
0.0001019158
0.0001017466
0.000101574
0.0001013834
0.0001011698
0.0001511241
0.0001020448
0.0001018834
0.0001017223
0.0001015561
0.0001013999
0.0001517677
0.0001512777
0.0001021796
0.0001020239
0.0001018687
0.0001017108
0.0001015669
0.0001520786
0.0001517619
0.0001513664
0.0001023193
0.0001021694
0.0001020195
0.0001018672
0.0001017274
0.0001523386
0.0001520637
0.0001517639
0.0001514174
0.0001024599
0.000102316
0.0001021717
0.0001020246
0.0001018884
0.0001525905
0.0001523326
0.0001520625
0.0001517686
0.0001514468
9.985634e-05
0.0001009463
9.988095e-05
0.0001014137
0.0001009755
9.999217e-05
0.0001016684
0.0001014168
0.0001010306
0.0001001673
0.0001018362
0.0001016464
0.0001014231
0.000101091
0.0001004188
0.0001019677
0.0001017997
0.0001016253
0.0001014244
0.000101175
0.0001509258
0.0001020798
0.00010192
0.0001017598
0.0001015926
0.0001014301
0.0001517742
0.0001511383
0.0001022028
0.0001020485
0.0001018948
0.0001017381
0.0001015948
0.0001521155
0.0001517767
0.0001512946
0.0001023319
0.0001021827
0.0001020338
0.0001018824
0.0001017437
0.0001523633
0.0001520858
0.0001517742
0.0001513805
0.0001024655
0.000102322
0.0001021781
0.0001020315
0.0001018958
0.0001526023
0.0001523446
0.0001520737
0.0001517748
0.0001514329
0.0001025998
0.0001024621
0.0001023237
0.0001021822
0.0001020499
0.0001528421
0.0001525955
0.0001523409
0.0001520714
0.000151781
0.0003688654
9.992639e-05
0.0001009463
9.988095e-05
0.0001014148
0.0001009584
9.992378e-05
0.0001016846
0.0001014211
0.0001010014
0.0001000398
0.0001018682
0.0001016736
0.0001014356
0.0001010604
0.0001002542
0.0001020089
0.0001018403
0.0001016614
0.0001014455
0.0001011514
0.0001506617
0.000102129
0.0001019714
0.0001018125
0.0001016437
0.0001014718
0.0001517821
0.0001509421
0.0001022358
0.0001020832
0.0001019312
0.0001017756
0.0001016318
0.0001521604
0.000151783
0.000151157
0.0001023537
0.0001022059
0.0001020584
0.0001019085
0.0001017715
0.0001524051
0.0001521224
0.0001517891
0.0001513099
0.0001024774
0.0001023345
0.0001021914
0.0001020458
0.0001019113
0.0001526267
0.0001523692
0.0001520958
0.0001517852
0.0001513967
0.0001026051
0.0001024677
0.0001023296
0.0001021886
0.0001020569
0.0001528533
0.0001526072
0.0001523529
0.0001520826
0.0001517873
0.0003688343
0.0001027333
0.0001026017
0.0001024689
0.0001023331
0.0001022049
0.0001530832
0.0001528463
0.0001526025
0.0001523483
0.0001520817
0.0003696562
0.000368978
0.000100059
0.0001009637
9.995021e-05
0.0001014148
0.0001009584
9.992378e-05
0.0001016922
0.0001014222
0.0001009846
9.997224e-05
0.0001018883
0.0001016896
0.0001014399
0.0001010317
0.0001001288
0.0001020415
0.000101872
0.0001016884
0.000101458
0.0001011219
0.0001504177
0.0001021688
0.0001020121
0.0001018527
0.0001016795
0.0001014933
0.0001517468
0.0001506804
0.0001022822
0.000102132
0.0001019823
0.000101828
0.0001016833
0.0001522225
0.0001517905
0.000150963
0.0001023848
0.0001022386
0.0001020929
0.0001019448
0.0001018092
0.0001524602
0.0001521668
0.0001517953
0.000151174
0.0001024979
0.0001023562
0.0001022145
0.0001020704
0.0001019377
0.0001526681
0.0001524107
0.0001521322
0.0001518001
0.0001513274
0.0001026163
0.0001024795
0.0001023422
0.000102202
0.0001020714
0.0001528764
0.0001526315
0.0001523774
0.0001521046
0.0001517978
0.0003687533
0.0001027383
0.0001026069
0.0001024745
0.000102339
0.0001022114
0.0001530936
0.0001528573
0.0001526142
0.0001523603
0.0001520928
0.0003696717
0.0003689531
0.0001028605
0.0001027348
0.0001026078
0.0001024774
0.0001023535
0.0001533146
0.0001530866
0.0001528521
0.0001526086
0.0001523568
0.00037037
0.0003697409
0.0003691338
0.0001002342
0.0001009938
0.0001000813
0.0001014137
0.0001009755
9.999217e-05
0.0001016922
0.0001014222
0.0001009846
9.997224e-05
0.0001018981
0.0001016972
0.000101441
0.0001010152
0.0001000624
0.0001020625
0.000101892
0.0001017044
0.0001014624
0.000101094
0.0001502319
0.0001022005
0.0001020445
0.0001018842
0.0001017064
0.0001015062
0.0001517032
0.000150439
0.0001023201
0.0001021713
0.0001020227
0.0001018679
0.0001017192
0.0001522543
0.0001517551
0.000150704
0.0001024284
0.0001022846
0.0001021414
0.0001019956
0.0001018619
0.0001525366
0.000152228
0.0001518025
0.000150982
0.0001025273
0.0001023871
0.0001022471
0.0001021048
0.0001019742
0.0001527243
0.0001524651
0.0001521761
0.0001518063
0.0001511933
0.0001026357
0.0001025
0.0001023638
0.0001022251
0.0001020962
0.0001529159
0.0001526726
0.0001524186
0.0001521408
0.0001518128
0.0003685968
0.0001027489
0.0001026181
0.0001024863
0.0001023516
0.0001022249
0.0001531153
0.0001528803
0.0001526383
0.0001523847
0.0001521148
0.0003696975
0.0003688864
0.0001028653
0.0001027398
0.000102613
0.000102483
0.0001023595
0.0001533243
0.0001530969
0.0001528632
0.0001526203
0.0001523688
0.0003703965
0.0003697563
0.0003691179
0.0001029817
0.0001028618
0.0001027403
0.0001026153
0.0001024959
0.0001535366
0.0001533174
0.0001530916
0.0001528573
0.0001526158
0.0003710251
0.0003704358
0.000369857
0.0003692771
0.0001004254
0.000101026
0.0001002544
0.0001014095
0.0001010052
0.0001001215
0.0001016846
0.0001014211
0.0001010014
0.0001000398
0.0001018981
0.0001016972
0.000101441
0.0001010152
0.0001000624
0.0001020728
0.0001019017
0.0001017119
0.0001014636
0.0001010779
0.0001501333
0.0001022211
0.0001020652
0.000101904
0.0001017223
0.0001015108
0.0001516619
0.000150255
0.0001023504
0.0001022028
0.0001020547
0.0001018992
0.0001017461
0.0001522734
0.0001517119
0.000150465
0.0001024645
0.0001023221
0.0001021804
0.0001020357
0.0001019017
0.0001525898
0.0001522592
0.0001517672
0.0001507255
0.0001025685
0.0001024304
0.0001022928
0.000102153
0.0001020251
0.0001528025
0.0001525407
0.0001522366
0.0001518132
0.0001510037
0.0001026636
0.0001025292
0.0001023946
0.0001022576
0.0001021308
0.0001529702
0.0001527282
0.0001524725
0.0001521843
0.000151819
0.0003682884
0.0001027673
0.0001026374
0.0001025068
0.0001023733
0.0001022482
0.0001531523
0.0001529195
0.0001526791
0.0001524256
0.0001521509
0.000369734
0.0003687557
0.0001028753
0.0001027504
0.0001026242
0.0001024948
0.0001023722
0.0001533445
0.0001531185
0.000152886
0.0001526443
0.000152393
0.0003704486
0.0003697819
0.0003690719
0.0001029862
0.0001028665
0.0001027453
0.0001026206
0.0001025016
0.0001535456
0.000153327
0.0001531019
0.0001528683
0.0001526274
0.0003710533
0.0003704605
0.0003698732
0.0003692717
0.0001030971
0.0001029828
0.0001028667
0.0001027472
0.0001026323
0.0001537495
0.0001535389
0.0001533216
0.0001530959
0.0001528633
0.0003716433
0.0003710756
0.0003705261
0.0003699589
0.0003694246
0.0001005731
0.0001010524
0.0001004432
0.000101397
0.000101037
0.0001002921
0.0001016684
0.0001014168
0.0001010306
0.0001001673
0.0001018883
0.0001016896
0.0001014399
0.0001010317
0.0001001288
0.0001020728
0.0001019017
0.0001017119
0.0001014636
0.0001010779
0.0001501333
0.0001022313
0.0001020756
0.0001019137
0.0001017298
0.0001015122
0.000151638
0.0001501575
0.0001023702
0.0001022232
0.0001020754
0.0001019189
0.000101762
0.0001522803
0.000151671
0.000150283
0.0001024934
0.0001023522
0.0001022117
0.0001020675
0.0001019329
0.0001526298
0.000152278
0.0001517243
0.000150489
0.0001026027
0.0001024661
0.00010233
0.0001021917
0.000102065
0.0001528616
0.000152593
0.0001522671
0.0001517778
0.0001507495
0.0001027025
0.0001025701
0.0001024376
0.000102303
0.000102179
0.0001530458
0.0001528055
0.0001525472
0.000152244
0.0001518258
0.0003678446
0.0001027938
0.0001026651
0.0001025358
0.0001024039
0.0001022808
0.0001532038
0.0001529733
0.0001527342
0.0001524789
0.0001521939
0.0003697467
0.0003684777
0.0001028928
0.0001027687
0.0001026435
0.0001025152
0.000102394
0.0001533792
0.0001531553
0.000152925
0.0001526848
0.0001524337
0.0003705331
0.0003698181
0.0003689789
0.0001029958
0.0001028766
0.0001027558
0.0001026318
0.0001025135
0.0001535646
0.0001533472
0.0001531233
0.000152891
0.0001526512
0.0003711105
0.0003705085
0.0003699007
0.0003692504
0.0001031014
0.0001029873
0.0001028715
0.0001027522
0.0001026376
0.000153758
0.0001535479
0.0001533312
0.0001531061
0.0001528742
0.0003716707
0.0003711016
0.0003705493
0.0003699762
0.0003694311
0.0001032067
0.0001030979
0.0001029873
0.000102873
0.0001027627
0.0001539534
0.0001537514
0.0001535425
0.0001533252
0.000153101
0.0003722359
0.0003716808
0.0003711463
0.0003706031
0.0003700619
0.0001006792
0.0001010501
0.0001005888
0.0001013755
0.0001010632
0.000100478
0.000101641
0.0001014044
0.0001010618
0.0001003354
0.0001018682
0.0001016736
0.0001014356
0.0001010604
0.0001002542
0.0001020625
0.000101892
0.0001017044
0.0001014624
0.000101094
0.0001502319
0.0001022313
0.0001020756
0.0001019137
0.0001017298
0.0001015122
0.000151638
0.0001501575
0.0001023801
0.0001022334
0.0001020857
0.0001019286
0.0001017696
0.0001522824
0.0001516475
0.0001501865
0.0001025123
0.0001023719
0.000102232
0.0001020881
0.0001019525
0.0001526535
0.0001522849
0.000151684
0.0001503088
0.0001026302
0.0001024948
0.00010236
0.0001022228
0.0001020968
0.0001529079
0.0001526326
0.0001522857
0.0001517353
0.0001505154
0.0001027351
0.000102604
0.0001024731
0.00010234
0.0001022176
0.0001531051
0.0001528638
0.0001525988
0.0001522739
0.0001517904
0.0003672506
0.0001028308
0.0001027038
0.0001025765
0.0001024467
0.0001023262
0.0001532755
0.0001530481
0.0001528107
0.0001525527
0.000152253
0.000369757
0.0003680473
0.0001029181
0.000102795
0.000102671
0.0001025442
0.0001024248
0.0001534278
0.0001532063
0.0001529782
0.0001527393
0.0001524865
0.0003706311
0.0003698264
0.0003687437
0.0001030125
0.000102894
0.0001027741
0.000102651
0.000102534
0.0001535971
0.0001533816
0.0001531598
0.0001529296
0.0001526915
0.0003712054
0.000370586
0.0003699414
0.0003692047
0.0001031106
0.0001029969
0.0001028815
0.0001027627
0.0001026489
0.0001537758
0.0001535668
0.0001533512
0.0001531274
0.0001528969
0.0003717267
0.0003711535
0.0003705936
0.0003700065
0.000369438
0.0001032109
0.0001031022
0.0001029918
0.0001028777
0.0001027678
0.0001539614
0.0001537598
0.0001535514
0.0001533348
0.0001531112
0.0003722616
0.0003717059
0.00037117
0.0003706245
0.0003700806
0.0001033109
0.0001032074
0.000103102
0.000102993
0.0001028873
0.0001541485
0.0001539549
0.0001537544
0.0001535455
0.0001533296
0.0003728061
0.0003722623
0.0003717356
0.000371205
0.0003706799
0.0001007369
0.000101049
0.0001006936
0.0001013339
0.0001010609
0.0001006207
0.0001016041
0.0001013832
0.0001010875
0.0001005182
0.0001018362
0.0001016464
0.0001014231
0.000101091
0.0001004188
0.0001020415
0.000101872
0.0001016884
0.000101458
0.0001011219
0.0001504177
0.0001022211
0.0001020652
0.000101904
0.0001017223
0.0001015108
0.0001516619
0.000150255
0.0001023801
0.0001022334
0.0001020857
0.0001019286
0.0001017696
0.0001522824
0.0001516475
0.0001501865
0.0001025218
0.0001023818
0.0001022421
0.0001020983
0.0001019622
0.0001526648
0.000152287
0.0001516608
0.0001502133
0.0001026483
0.0001025136
0.0001023795
0.0001022429
0.0001021172
0.0001529372
0.000152656
0.0001522925
0.0001516954
0.000150337
0.0001027614
0.0001026313
0.0001025016
0.0001023697
0.0001022485
0.0001531523
0.0001529097
0.0001526379
0.0001522922
0.0001517482
0.0003667063
0.0001028619
0.0001027362
0.0001026102
0.0001024819
0.000102363
0.0001533328
0.0001531067
0.0001528683
0.0001526036
0.0001522822
0.0003696697
0.0003674679
0.0001029533
0.0001028318
0.0001027095
0.0001025846
0.0001024676
0.0001534953
0.0001532773
0.0001530523
0.0001528151
0.0001525596
0.0003707642
0.0003698272
0.0003683171
0.0001030367
0.0001029191
0.0001028003
0.0001026785
0.0001025631
0.0001536429
0.0001534297
0.0001532104
0.0001529824
0.0001527455
0.0003713261
0.0003706713
0.0003699512
0.0003690318
0.0001031265
0.0001030135
0.0001028989
0.000102781
0.0001026682
0.0001538064
0.0001535991
0.0001533855
0.0001531637
0.0001529352
0.0003718206
0.0003712396
0.0003706661
0.0003700547
0.0003694516
0.0001032197
0.0001031114
0.0001030013
0.0001028878
0.0001027784
0.0001539782
0.0001537775
0.0001535702
0.0001533547
0.0001531324
0.0003723147
0.0003717566
0.0003712167
0.0003706653
0.0003701147
0.0001033148
0.0001032116
0.0001031063
0.0001029975
0.0001028921
0.000154156
0.0001539629
0.0001537628
0.0001535545
0.0001533391
0.0003728301
0.0003722858
0.0003717581
0.0003712261
0.0003706996
0.0001034097
0.0001033115
0.0001032112
0.0001031073
0.0001030063
0.000154335
0.0001541498
0.0001539576
0.000153757
0.0001535492
0.0003733555
0.0003728232
0.0003723039
0.0003717796
0.0003712631
0.0001007677
0.0001010422
0.0001007503
0.0001013048
0.0001010597
0.0001007231
0.0001015519
0.0001013421
0.0001010847
0.0001006577
0.0001017951
0.00010161
0.000101402
0.000101116
0.000100597
0.0001020089
0.0001018403
0.0001016614
0.0001014455
0.0001011514
0.0001506617
0.0001022005
0.0001020445
0.0001018842
0.0001017064
0.0001015062
0.0001517032
0.000150439
0.0001023702
0.0001022232
0.0001020754
0.0001019189
0.000101762
0.0001522803
0.000151671
0.000150283
0.0001025218
0.0001023818
0.0001022421
0.0001020983
0.0001019622
0.0001526648
0.000152287
0.0001516608
0.0001502133
0.0001026574
0.000102523
0.0001023893
0.000102253
0.0001021274
0.0001529515
0.0001526672
0.0001522947
0.0001516725
0.0001502425
0.0001027787
0.0001026493
0.0001025203
0.0001023892
0.0001022686
0.0001531827
0.0001529386
0.0001526611
0.000152299
0.0001517087
0.0003662921
0.000102887
0.0001027622
0.0001026374
0.0001025102
0.0001023926
0.0001533788
0.0001531534
0.0001529136
0.0001526422
0.0001523002
0.0003695703
0.0003669488
0.0001029832
0.0001028627
0.0001027417
0.0001026181
0.0001025026
0.0001535501
0.000153334
0.0001531102
0.0001528719
0.0001526097
0.0003708278
0.000369729
0.0003677291
0.0001030703
0.0001029541
0.0001028369
0.0001027168
0.0001026035
0.0001537066
0.0001534967
0.0001532807
0.0001530558
0.0001528206
0.0003714929
0.0003707908
0.0003699501
0.0003685699
0.0001031497
0.0001030375
0.0001029239
0.0001028071
0.0001026957
0.0001538496
0.0001536444
0.0001534331
0.0001532138
0.0001529875
0.0003719445
0.0003713459
0.0003707417
0.0003700728
0.0003693843
0.0001032349
0.0001031273
0.0001030179
0.0001029051
0.0001027967
0.0001540071
0.0001538079
0.0001536023
0.0001533887
0.0001531684
0.0003724041
0.0003718414
0.0003712947
0.0003707332
0.0003701745
0.0001033233
0.0001032203
0.0001031155
0.0001030071
0.0001029022
0.0001541719
0.0001539796
0.0001537805
0.0001535731
0.0001533589
0.0003728797
0.0003723337
0.0003718032
0.0003712671
0.0003707368
0.0001034135
0.0001033154
0.0001032153
0.0001031116
0.0001030108
0.0001543421
0.0001541573
0.0001539655
0.0001537654
0.0001535581
0.0003733779
0.000372845
0.0003723248
0.0003717993
0.0003712814
0.0001035032
0.0001034101
0.0001033149
0.000103216
0.0001031196
0.0001545129
0.000154336
0.000154152
0.0001539598
0.0001537602
0.0003738844
0.0003733648
0.0003728537
0.0003723356
0.0003718228
0.0001007801
0.0001010376
0.0001007807
0.0001012816
0.0001010528
0.0001007784
0.0001015151
0.0001013132
0.0001010829
0.0001007576
0.0001017415
0.0001015584
0.000101361
0.0001011126
0.0001007311
0.0001019677
0.0001017997
0.0001016253
0.0001014244
0.000101175
0.0001509258
0.0001021688
0.0001020121
0.0001018527
0.0001016795
0.0001014933
0.0001517468
0.0001506804
0.0001023504
0.0001022028
0.0001020547
0.0001018992
0.0001017461
0.0001522734
0.0001517119
0.000150465
0.0001025123
0.0001023719
0.000102232
0.0001020881
0.0001019525
0.0001526535
0.0001522849
0.000151684
0.0001503088
0.0001026574
0.000102523
0.0001023893
0.000102253
0.0001021274
0.0001529515
0.0001526672
0.0001522947
0.0001516725
0.0001502425
0.0001027873
0.0001026583
0.0001025297
0.0001023989
0.0001022786
0.0001531978
0.0001529529
0.0001526723
0.0001523011
0.0001516861
0.0003660726
0.0001029036
0.0001027794
0.0001026553
0.0001025289
0.000102412
0.0001534087
0.0001531836
0.0001529423
0.0001526652
0.000152307
0.000369479
0.0003665582
0.0001030072
0.0001028877
0.0001027676
0.0001026451
0.0001025308
0.0001535942
0.0001533795
0.0001531565
0.0001529167
0.0001526479
0.0003708682
0.0003696288
0.0003672204
0.000103099
0.0001029838
0.0001028677
0.0001027488
0.0001026369
0.0001537588
0.0001535509
0.0001533369
0.000153113
0.0001528767
0.0003716058
0.0003708379
0.0003698348
0.0003679517
0.0001031819
0.000103071
0.0001029588
0.0001028436
0.000102734
0.0001539099
0.0001537077
0.0001534996
0.0001532835
0.0001530603
0.0003721167
0.0003714994
0.0003708583
0.0003700601
0.0003688792
0.0001032572
0.0001031503
0.0001030418
0.0001029301
0.0001028229
0.0001540481
0.0001538508
0.0001536473
0.0001534359
0.000153218
0.0003725243
0.0003719512
0.0003713882
0.000370801
0.000370215
0.000103338
0.0001032356
0.0001031313
0.0001030236
0.0001029196
0.0001541993
0.0001540083
0.0001538107
0.000153605
0.0001533926
0.0003729637
0.0003724145
0.0003718792
0.0003713366
0.0003708016
0.0001034216
0.0001033238
0.000103224
0.0001031207
0.0001030204
0.0001543572
0.0001541731
0.0001539821
0.0001537829
0.0001535766
0.0003734243
0.0003728899
0.0003723672
0.0003718381
0.0003713165
0.0001035069
0.0001034139
0.0001033188
0.0001032201
0.0001031239
0.0001545197
0.0001543431
0.0001541595
0.0001539676
0.0001537685
0.0003739053
0.0003733851
0.0003728731
0.0003723538
0.0003718395
0.0001035917
0.0001035036
0.0001034133
0.0001033193
0.0001032275
0.0001546826
0.0001545137
0.0001543379
0.0001541539
0.0001539625
0.0003743931
0.0003738872
0.000373386
0.0003728753
0.0003723666
0.0001010346
0.0001007929
0.0001012679
0.000101048
0.0001008078
0.000101488
0.00010129
0.0001010754
0.0001008111
0.0001017035
0.0001015219
0.000101332
0.0001011102
0.0001008266
0.0001019158
0.0001017466
0.000101574
0.0001013834
0.0001011698
0.0001511241
0.000102129
0.0001019714
0.0001018125
0.0001016437
0.0001014718
0.0001517821
0.0001509421
0.0001023201
0.0001021713
0.0001020227
0.0001018679
0.0001017192
0.0001522543
0.0001517551
0.000150704
0.0001024934
0.0001023522
0.0001022117
0.0001020675
0.0001019329
0.0001526298
0.000152278
0.0001517243
0.000150489
0.0001026483
0.0001025136
0.0001023795
0.0001022429
0.0001021172
0.0001529372
0.000152656
0.0001522925
0.0001516954
0.000150337
0.0001027873
0.0001026583
0.0001025297
0.0001023989
0.0001022786
0.0001531978
0.0001529529
0.0001526723
0.0001523011
0.0001516861
0.0003660726
0.0001029119
0.0001027881
0.0001026642
0.0001025382
0.0001024217
0.0001534237
0.0001531986
0.0001529565
0.0001526763
0.0001523092
0.0003694271
0.0003663523
0.0001030231
0.0001029042
0.0001027847
0.0001026629
0.0001025494
0.000153623
0.0001534092
0.0001531864
0.0001529452
0.0001526707
0.0003708838
0.0003695413
0.0003668451
0.0001031221
0.0001030077
0.0001028925
0.0001027746
0.0001026638
0.0001538008
0.0001535946
0.000153382
0.0001531588
0.000152921
0.0003716931
0.0003708693
0.0003697292
0.0003674417
0.0001032095
0.0001030994
0.0001029883
0.0001028741
0.0001027659
0.0001539596
0.0001537593
0.0001535533
0.0001533391
0.0001531168
0.0003722444
0.0003715953
0.000370887
0.0003699234
0.0003681925
0.0001032881
0.0001031824
0.0001030752
0.0001029648
0.0001028593
0.0001541052
0.0001539106
0.0001537101
0.0001535019
0.0001532872
0.0003726922
0.0003721118
0.0003715394
0.0003709135
0.0003702172
0.0009952716
0.0001033594
0.0001032577
0.0001031542
0.0001030475
0.0001029446
0.0001542383
0.000154049
0.0001538532
0.0001536496
0.0001534395
0.0003730782
0.0003725217
0.0003719758
0.0003714172
0.0003708657
0.0001034357
0.0001033384
0.0001032392
0.0001031365
0.000103037
0.0001543832
0.0001542003
0.0001540106
0.0001538129
0.0001536083
0.000373503
0.0003729658
0.0003724391
0.0003719044
0.0003713777
0.0001035147
0.000103422
0.0001033272
0.0001032289
0.0001031331
0.0001545341
0.0001543581
0.0001541752
0.0001539841
0.0001537859
0.0003739488
0.000373427
0.0003729126
0.0003723899
0.0003718717
0.0001035952
0.0001035072
0.000103417
0.0001033233
0.0001032316
0.0001546891
0.0001545205
0.000154345
0.0001541613
0.0001539703
0.0003744126
0.0003739062
0.0003734041
0.000372892
0.0003723818
0.0001036752
0.0001035919
0.0001035065
0.0001034174
0.0001033301
0.0001548441
0.0001546832
0.0001545154
0.0001543395
0.0001541562
0.0003748814
0.0003743904
0.0003739008
0.0003733992
0.0003728962
0.0001012611
0.000101045
0.0001008196
0.0001014721
0.0001012763
0.0001010703
0.0001008395
0.0001016762
0.0001014948
0.0001013086
0.000101102
0.0001008768
0.0001018789
0.000101709
0.0001015375
0.0001013542
0.0001011656
0.0001512651
0.0001020798
0.00010192
0.0001017598
0.0001015926
0.0001014301
0.0001517742
0.0001511383
0.0001022822
0.000102132
0.0001019823
0.000101828
0.0001016833
0.0001522225
0.0001517905
0.000150963
0.0001024645
0.0001023221
0.0001021804
0.0001020357
0.0001019017
0.0001525898
0.0001522592
0.0001517672
0.0001507255
0.0001026302
0.0001024948
0.00010236
0.0001022228
0.0001020968
0.0001529079
0.0001526326
0.0001522857
0.0001517353
0.0001505154
0.0001027787
0.0001026493
0.0001025203
0.0001023892
0.0001022686
0.0001531827
0.0001529386
0.0001526611
0.000152299
0.0001517087
0.0003662921
0.0001029119
0.0001027881
0.0001026642
0.0001025382
0.0001024217
0.0001534237
0.0001531986
0.0001529565
0.0001526763
0.0001523092
0.0003694271
0.0003663523
0.0001030311
0.0001029124
0.0001027933
0.0001026719
0.0001025587
0.0001536375
0.000153424
0.0001532013
0.0001529592
0.0001526816
0.0003708892
0.0003694927
0.000366649
0.0001031374
0.0001030235
0.0001029089
0.0001027917
0.0001026815
0.0001538285
0.0001536233
0.0001534114
0.0001531885
0.0001529492
0.0003717459
0.0003708813
0.0003696424
0.0003670752
0.0001032317
0.0001031224
0.0001030121
0.0001028988
0.0001027916
0.0001539997
0.0001538011
0.0001535966
0.0001533838
0.0001531622
0.0003723465
0.0003716717
0.0003709078
0.0003698098
0.00036766
0.0001033147
0.0001032098
0.0001031035
0.0001029941
0.0001028898
0.0001541527
0.0001539599
0.0001537613
0.000153555
0.0001533422
0.0003728218
0.0003722241
0.0003716185
0.0003709238
0.0003700404
0.0009923332
0.0001033892
0.0001032885
0.0001031862
0.0001030807
0.0001029793
0.0001542926
0.0001541057
0.0001539126
0.0001537119
0.0001535049
0.0003732386
0.0003726799
0.0003721356
0.0003715686
0.0003710066
0.0009993699
0.0009961452
0.0001034564
0.0001033597
0.0001032613
0.0001031594
0.0001030609
0.0001544204
0.000154239
0.000154051
0.0001538551
0.0001536526
0.0003736114
0.0003730684
0.0003725337
0.0003719866
0.0003714453
0.0001035283
0.0001034361
0.0001033418
0.000103244
0.000103149
0.0001545589
0.0001543839
0.0001542022
0.0001540125
0.0001538157
0.0003740227
0.0003734982
0.00037298
0.0003724519
0.0003719278
0.0001036028
0.000103515
0.0001034251
0.0001033317
0.0001032404
0.0001547028
0.0001545348
0.0001543599
0.0001541769
0.0001539867
0.0003744535
0.0003739454
0.0003734409
0.0003729254
0.0003724112
0.0001036786
0.0001035955
0.0001035101
0.0001034212
0.000103334
0.0001548503
0.0001546897
0.0001545221
0.0001543465
0.0001541636
0.0003748998
0.0003744082
0.0003739176
0.0003734147
0.00037291
0.0001037539
0.0001036754
0.0001035946
0.0001035103
0.0001034274
0.0001549977
0.0001548446
0.0001546847
0.0001545167
0.0001543415
0.0003753496
0.0003748743
0.0003743976
0.0003739069
0.0003734117
0.0001014645
0.0001012694
0.000101067
0.0001008507
0.0001016604
0.000101479
0.0001012947
0.0001010964
0.0001009032
0.0001018527
0.0001016818
0.0001015103
0.0001013305
0.0001011559
0.000151339
0.0001020448
0.0001018834
0.0001017223
0.0001015561
0.0001013999
0.0001517677
0.0001512777
0.0001022358
0.0001020832
0.0001019312
0.0001017756
0.0001016318
0.0001521604
0.000151783
0.000151157
0.0001024284
0.0001022846
0.0001021414
0.0001019956
0.0001018619
0.0001525366
0.000152228
0.0001518025
0.000150982
0.0001026027
0.0001024661
0.00010233
0.0001021917
0.000102065
0.0001528616
0.000152593
0.0001522671
0.0001517778
0.0001507495
0.0001027614
0.0001026313
0.0001025016
0.0001023697
0.0001022485
0.0001531523
0.0001529097
0.0001526379
0.0001522922
0.0001517482
0.0003667063
0.0001029036
0.0001027794
0.0001026553
0.0001025289
0.000102412
0.0001534087
0.0001531836
0.0001529423
0.0001526652
0.000152307
0.000369479
0.0003665582
0.0001030311
0.0001029124
0.0001027933
0.0001026719
0.0001025587
0.0001536375
0.000153424
0.0001532013
0.0001529592
0.0001526816
0.0003708892
0.0003694927
0.000366649
0.0001031451
0.0001030315
0.0001029171
0.0001028002
0.0001026904
0.0001538423
0.0001536376
0.0001534262
0.0001532032
0.0001529631
0.0003717714
0.0003708857
0.0003695954
0.0003668858
0.0001032465
0.0001031377
0.0001030278
0.0001029152
0.0001028086
0.0001540261
0.0001538285
0.000153625
0.000153413
0.0001531916
0.0003724118
0.0003717185
0.0003709151
0.0003697222
0.0003672946
0.0001033362
0.0001032319
0.0001031264
0.0001030178
0.0001029144
0.000154191
0.0001539997
0.0001538027
0.000153598
0.0001533865
0.0003729267
0.0003723155
0.0003716833
0.0003709339
0.0003699068
0.0009903065
0.0001034148
0.0001033149
0.0001032135
0.0001031089
0.0001030085
0.0001543381
0.0001541528
0.0001539615
0.0001537627
0.0001535576
0.0003733652
0.0003727961
0.0003722332
0.0003716321
0.0003709859
0.0009985958
0.0009935012
0.0001034851
0.0001033894
0.000103292
0.0001031912
0.0001030941
0.0001544722
0.000154293
0.0001541074
0.0001539141
0.0001537145
0.0003737638
0.0003732212
0.0003726928
0.0003721499
0.0003716298
0.001001953
0.0009997156
0.0009966462
0.0001035483
0.0001034566
0.000103363
0.000103266
0.0001031718
0.0001545945
0.0001544209
0.0001542407
0.0001540526
0.0001538576
0.0003741254
0.000373596
0.0003730709
0.0003725322
0.0003719935
0.0001036159
0.0001035286
0.0001034392
0.0001033462
0.0001032556
0.0001547265
0.0001545594
0.0001543856
0.0001542038
0.0001540149
0.0003745231
0.0003740124
0.000373504
0.0003729831
0.0003724624
0.0001036859
0.000103603
0.0001035179
0.0001034293
0.0001033424
0.0001548634
0.0001547033
0.0001545363
0.0001543613
0.0001541791
0.0003749383
0.0003744451
0.000373952
0.0003734457
0.0003729368
0.0001037571
0.0001036788
0.0001035981
0.0001035139
0.0001034312
0.0001550036
0.0001548508
0.0001546911
0.0001545234
0.0001543485
0.000375367
0.000374891
0.0003744133
0.0003739213
0.0003734243
0.0001038278
0.000103754
0.0001036778
0.0001035982
0.0001035197
0.0001551435
0.0001549981
0.0001548459
0.0001546858
0.0001545185
0.0003757978
0.0003753389
0.0003748762
0.000374398
0.0003739124
0.0001016528
0.0001014713
0.0001012877
0.0001010929
0.0001009135
0.0001018376
0.000101666
0.0001014944
0.0001013163
0.0001011493
0.0001513777
0.0001020201
0.0001018573
0.000101695
0.0001015288
0.0001013753
0.0001517529
0.0001513507
0.0001022028
0.0001020485
0.0001018948
0.0001017381
0.0001015948
0.0001521155
0.0001517767
0.0001512946
0.0001023848
0.0001022386
0.0001020929
0.0001019448
0.0001018092
0.0001524602
0.0001521668
0.0001517953
0.000151174
0.0001025685
0.0001024304
0.0001022928
0.000102153
0.0001020251
0.0001528025
0.0001525407
0.0001522366
0.0001518132
0.0001510037
0.0001027351
0.000102604
0.0001024731
0.00010234
0.0001022176
0.0001531051
0.0001528638
0.0001525988
0.0001522739
0.0001517904
0.0003672506
0.000102887
0.0001027622
0.0001026374
0.0001025102
0.0001023926
0.0001533788
0.0001531534
0.0001529136
0.0001526422
0.0001523002
0.0003695703
0.0003669488
0.0001030231
0.0001029042
0.0001027847
0.0001026629
0.0001025494
0.000153623
0.0001534092
0.0001531864
0.0001529452
0.0001526707