/*--------------------------------*- C++ -*----------------------------------*\
| =========                 |                                                 |
| \\      /  F ield         | OpenFOAM: The Open Source CFD Toolbox           |
|  \\    /   O peration     | Version:  2306                                  |
|   \\  /    A nd           | Website:  www.openfoam.com                      |
|    \\/     M anipulation  |                                                 |
\*---------------------------------------------------------------------------*/
FoamFile
{
    version     2.0;
    format      ascii;
    arch        "LSB;label=32;scalar=64";
    class       volScalarField;
    location    "1.2/fuel";
    object      eta.fuel;
}
// * * * * * * * * * * * * * * * * * * * * * * * * * * * * * * * * * * * * * //

dimensions      [1 2 -3 0 0 -1 0];

internalField   nonuniform List<scalar> 
16000
(
0.1055095
0.1060716
0.1005539
0.1019725
0.1071877
0.100947
0.1025056
0.09642178
0.09729564
0.09943254
0.1088264
0.1017106
0.1035635
0.09673728
0.09766931
0.09994637
0.09315363
0.09340292
0.09493981
0.09785685
0.1108677
0.1027898
0.1051163
0.09734352
0.09839478
0.1009661
0.09342127
0.09370333
0.09530012
0.09836075
0.09046345
0.09032912
0.0912096
0.09345814
0.09722569
0.1129592
0.1040548
0.1070496
0.09818411
0.09941965
0.1024635
0.09393172
0.09428027
0.09599952
0.09936136
0.09069768
0.09058428
0.09149942
0.09381087
0.09772875
0.0881564
0.08780195
0.08827023
0.08981712
0.09283319
0
0.1143729
0.1052457
0.1090299
0.09913747
0.1006197
0.1043295
0.09462993
0.09507967
0.09698746
0.1008325
0.09114186
0.09107063
0.09205584
0.09449566
0.09872878
0.0883655
0.0880255
0.08851653
0.09010064
0.09318397
0
0.086128
0.08563613
0.08585725
0.08695501
0.08921003
0
0
0.1151549
0.105975
0.1103612
0.09998896
0.101748
0.1062439
0.09540284
0.09598505
0.09814397
0.10267
0.09174299
0.09173531
0.09282653
0.09546333
0.1002021
0.08876021
0.08844915
0.08898579
0.09064493
0.09386529
0
0.08631753
0.08583591
0.08607317
0.08719591
0.08949144
0
0
0.08430675
0.08373251
0.08379125
0.08460959
0.08636964
0
0
0
0.1155359
0.1063306
0.1110929
0.1004688
0.102435
0.1075271
0.09606474
0.09679209
0.09923114
0.104562
0.0923955
0.09246982
0.09369868
0.09659684
0.1020493
0.0892897
0.08902192
0.08962676
0.09139882
0.09482891
0
0.08667395
0.08621273
0.08648214
0.08765479
0.09003176
0
0
0.08448049
0.08391376
0.08398432
0.08482077
0.0866085
0
0
0
0.08264761
0.08202322
0.0819764
0.08260381
0.08404645
0
0
0
0
0.1156871
0.1064782
0.1114466
0.100669
0.1027677
0.1082302
0.09641043
0.09724392
0.09989021
0.1058296
0.09293434
0.0930971
0.09447511
0.09766338
0.1039614
0.08985491
0.08964236
0.0903342
0.09225184
0.0959594
0
0.08714848
0.08671766
0.08703468
0.08828144
0.09078045
0
0
0.08480616
0.08425434
0.0843483
0.0852207
0.08706354
0
0
0
0.08280833
0.08218953
0.08215169
0.08279269
0.08425575
0
0
0
0
0.08111722
0.08046561
0.08034719
0.08084329
0.08206242
0
0
0
0
0
0.1156871
0.1065281
0.111586
0.1007292
0.1029044
0.108569
0.09652954
0.09743039
0.100208
0.1065248
0.09319568
0.09342195
0.09490718
0.09830802
0.1052453
0.09030659
0.09015287
0.09093699
0.09301087
0.09702532
0
0.08764769
0.08725537
0.08763225
0.08897262
0.09162805
0
0
0.08523691
0.08470722
0.0848356
0.08576079
0.087685
0
0
0
0.08310874
0.082501
0.08248084
0.08314867
0.08465209
0
0
0
0
0.08126697
0.08061959
0.08050812
0.08101482
0.08224956
0
0
0
0
0
0.07969189
0.07902809
0.07886249
0.0792636
0.08032271
0
0
0
0
0
0
0.1155359
0.1065281
0.111586
0.1007399
0.1029501
0.1087023
0.09654535
0.09748508
0.1003379
0.1068607
0.09326564
0.0935318
0.09508397
0.0986185
0.1059532
0.09050985
0.09039781
0.09124665
0.09343107
0.09766873
0
0.08803482
0.08768317
0.08812242
0.08956063
0.09238253
0
0
0.0856842
0.0851824
0.08535357
0.08634431
0.08837045
0
0
0
0.0835038
0.08291243
0.08291814
0.08362501
0.08518732
0
0
0
0
0.08154622
0.08090717
0.08080934
0.08133681
0.08260225
0
0
0
0
0
0.07983228
0.0791717
0.07901159
0.07942113
0.08049265
0
0
0
0
0
0
0.07835319
0.07768829
0.07749191
0.07782436
0.0787628
0
0
0
0
0
0
0
0.1151549
0.1064782
0.1114466
0.1007399
0.1029501
0.1087023
0.09653639
0.097494
0.1003811
0.1069931
0.0932554
0.09354446
0.09513483
0.09874555
0.1062978
0.09054713
0.09046106
0.09134957
0.093602
0.09797926
0
0.08819618
0.08787305
0.08835513
0.08986046
0.09279853
0
0
0.08602149
0.08554897
0.08576405
0.08682177
0.08895312
0
0
0
0.08390924
0.08333843
0.08337599
0.08413067
0.08576536
0
0
0
0
0.08191152
0.08128481
0.08120682
0.08176434
0.08307411
0
0
0
0
0
0.08009352
0.07943925
0.07928988
0.07971588
0.08081163
0
0
0
0
0
0
0.07848547
0.07782303
0.07763105
0.07797037
0.07891888
0
0
0
0
0
0
0
0.07708716
0.0764288
0.07621392
0.07649579
0.07734231
0
0
0
0
0
0
0
0
0.1143729
0.1063306
0.1110929
0.1007292
0.1029044
0.108569
0.09653639
0.097494
0.1003811
0.1069931
0.09323519
0.09353477
0.09514257
0.0987879
0.1064347
0.09052022
0.09044899
0.09135985
0.09365063
0.09810726
0
0.0882107
0.08790528
0.08841318
0.08995869
0.09296728
0
0
0.08615126
0.08569914
0.08594382
0.08704623
0.0892483
0
0
0
0.08420704
0.08365773
0.08372754
0.08453011
0.08623755
0
0
0
0
0.08228243
0.08167118
0.08161741
0.08221128
0.0835747
0
0
0
0
0
0.08043366
0.07978873
0.07965491
0.08010457
0.08123505
0
0
0
0
0
0
0.0787312
0.07807355
0.07789012
0.07824278
0.07921086
0
0
0
0
0
0
0
0.07721235
0.07655587
0.07634456
0.0766321
0.07748697
0
0
0
0
0
0
0
0
0.07588257
0.07523645
0.07501181
0.07525681
0.07603148
0
0
0
0
0
0
0
0
0
0.1129592
0.105975
0.1103612
0.100669
0.1027677
0.1082302
0.09654535
0.09748508
0.1003379
0.1068607
0.09323519
0.09353477
0.09514257
0.0987879
0.1064347
0.09049304
0.09042859
0.0913496
0.09365777
0.09815041
0
0.08817266
0.08787735
0.08839958
0.08996729
0.09301528
0
0
0.08614921
0.08570976
0.08597201
0.08710049
0.08934398
0
0
0
0.08431238
0.08377798
0.08386916
0.08470286
0.08645759
0
0
0
0
0.08254819
0.08195306
0.08192352
0.08255313
0.08396921
0
0
0
0
0
0.08077564
0.08014241
0.08002745
0.08050541
0.08167736
0
0
0
0
0
0
0.07904976
0.07839921
0.07822813
0.07859984
0.0795958
0
0
0
0
0
0
0
0.07744456
0.0767917
0.07658728
0.07688578
0.07775683
0
0
0
0
0
0
0
0
0.07600153
0.07535682
0.07513509
0.07538484
0.07616654
0
0
0
0
0
0
0
0
0
0.07473071
0.07410069
0.07387296
0.07409109
0.07480929
0
0
0
0
0
0
0
0
0
0
0.1108677
0.1052457
0.1090299
0.1004688
0.102435
0.1075271
0.09652954
0.09743039
0.100208
0.1065248
0.0932554
0.09354446
0.09513483
0.09874555
0.1062978
0.09049304
0.09042859
0.0913496
0.09365777
0.09815041
0
0.08814097
0.0878503
0.08837897
0.08995663
0.09302237
0
0
0.08610342
0.08567121
0.08594312
0.08708565
0.0893516
0
0
0
0.08429796
0.08377286
0.08387658
0.08472797
0.08650942
0
0
0
0
0.08263414
0.08205017
0.08203644
0.08268872
0.08413795
0
0
0
0
0
0.08101497
0.08039393
0.08029761
0.08080292
0.08201467
0
0
0
0
0
0
0.07936716
0.07872552
0.07856929
0.07896359
0.0799924
0
0
0
0
0
0
0
0.07774443
0.07709695
0.07690244
0.07721652
0.07811045
0
0
0
0
0
0
0
0
0.07622188
0.07557987
0.07536374
0.07562261
0.07641787
0
0
0
0
0
0
0
0
0
0.07484411
0.07421515
0.07398981
0.07421195
0.07493616
0
0
0
0
0
0
0
0
0
0
0.07362419
0.07301332
0.07278727
0.07298629
0.07365946
0
0
0
0
0
0
0
0
0
0
0.1088264
0.1040548
0.1070496
0.09998896
0.101748
0.1062439
0.09641043
0.09724392
0.09989021
0.1058296
0.09326564
0.0935318
0.09508397
0.0986185
0.1059532
0.09052022
0.09044899
0.09135985
0.09365063
0.09810726
0
0.08814097
0.0878503
0.08837897
0.08995663
0.09302237
0
0
0.08606872
0.08563985
0.08591607
0.08706479
0.08934068
0
0
0
0.08424665
0.08372692
0.08383746
0.08469817
0.08649361
0
0
0
0
0.08261024
0.0820333
0.08202875
0.0826936
0.08416088
0
0
0
0
0
0.08108529
0.08047269
0.08038835
0.08091059
0.08214666
0
0
0
0
0
0
0.07958437
0.07895202
0.0788103
0.07922605
0.08028578
0
0
0
0
0
0
0
0.07804072
0.0774
0.07721734
0.0775497
0.07847033
0
0
0
0
0
0
0
0
0.07650542
0.07586744
0.07565931
0.0759311
0.07674544
0
0
0
0
0
0
0
0
0
0.07505398
0.074427
0.07420621
0.07443602
0.07517175
0
0
0
0
0
0
0
0
0
0
0.07373264
0.07312253
0.07289846
0.0731009
0.07377925
0
0
0
0
0
0
0
0
0
0
0.07255742
0.07196742
0.07174689
0.07193257
0.07256974
0
0
0
0
0
0
0
0
0
0
0.1071877
0.1027898
0.1051163
0.09913747
0.1006197
0.1043295
0.09606474
0.09679209
0.09923114
0.104562
0.09319568
0.09342195
0.09490718
0.09830802
0.1052453
0.09054713
0.09046106
0.09134957
0.093602
0.09797926
0
0.08817266
0.08787735
0.08839958
0.08996729
0.09301528
0
0
0.08606872
0.08563985
0.08591607
0.08706479
0.08934068
0
0
0
0.08420991
0.08369267
0.08380624
0.084671
0.08647247
0
0
0
0
0.08255494
0.08198209
0.0819825
0.08265383
0.08413021
0
0
0
0
0
0.08105406
0.08044683
0.08036939
0.0809008
0.08214964
0
0
0
0
0
0
0.07964191
0.07901599
0.07888347
0.07931219
0.08039023
0
0
0
0
0
0
0
0.07823923
0.07760557
0.07743435
0.07778379
0.07872903
0
0
0
0
0
0
0
0
0.07678342
0.07615052
0.07595191
0.07623871
0.07707507
0
0
0
0
0
0
0
0
0
0.07532313
0.07469912
0.07448483
0.07472544
0.07547731
0
0
0
0
0
0
0
0
0
0
0.07393318
0.07332445
0.0731041
0.07331304
0.07400129
0
0
0
0
0
0
0
0
0
0
0.07266142
0.07207194
0.07185304
0.07204166
0.07268334
0
0
0
0
0
0
0
0
0
0
0.07152525
0.07095775
0.07074521
0.07092229
0.07153033
0
0
0
0
0
0
0
0
0
0
0.1060716
0.1017106
0.1035635
0.09818411
0.09941965
0.1024635
0.09540284
0.09598505
0.09814397
0.10267
0.09293434
0.0930971
0.09447511
0.09766338
0.1039614
0.09050985
0.09039781
0.09124665
0.09343107
0.09766873
0
0.0882107
0.08790528
0.08841318
0.08995869
0.09296728
0
0
0.08610342
0.08567121
0.08594312
0.08708565
0.0893516
0
0
0
0.08420991
0.08369267
0.08380624
0.084671
0.08647247
0
0
0
0
0.08251682
0.08194588
0.08194849
0.08262258
0.08410279
0
0
0
0
0
0.08099585
0.08039181
0.08031808
0.08085409
0.08210912
0
0
0
0
0
0
0.07960494
0.07898319
0.0788559
0.07929147
0.08037877
0
0
0
0
0
0
0
0.07828623
0.07765748
0.07749338
0.07785289
0.07881228
0
0
0
0
0
0
0
0
0.07696597
0.0763384
0.07614886
0.07644945
0.07730573
0
0
0
0
0
0
0
0
0
0.07558517
0.07496491
0.07475828
0.07501135
0.07578166
0
0
0
0
0
0
0
0
0
0
0.0741896
0.07358298
0.07336791
0.07358596
0.074288
0
0
0
0
0
0
0
0
0
0
0.07285359
0.07226504
0.07204918
0.07224335
0.0728936
0
0
0
0
0
0
0
0
0
0
0.07162524
0.07105806
0.07084687
0.07102649
0.07163848
0
0
0
0
0
0
0
0
0
0
0.07052387
0.0699795
0.06977727
0.06994902
0.07053364
0
0
0
0
0
0
0
0
0
0
0.1055095
0.100947
0.1025056
0.09734352
0.09839478
0.1009661
0.09462993
0.09507967
0.09698746
0.1008325
0.0923955
0.09246982
0.09369868
0.09659684
0.1020493
0.09030659
0.09015287
0.09093699
0.09301087
0.09702532
0
0.08819618
0.08787305
0.08835513
0.08986046
0.09279853
0
0
0.08614921
0.08570976
0.08597201
0.08710049
0.08934398
0
0
0
0.08424665
0.08372692
0.08383746
0.08469817
0.08649361
0
0
0
0
0.08251682
0.08194588
0.08194849
0.08262258
0.08410279
0
0
0
0
0
0.08095681
0.08035427
0.08028218
0.08082013
0.08207767
0
0
0
0
0
0
0.07954464
0.0789254
0.07880093
0.07923985
0.08033144
0
0
0
0
0
0
0
0.07824475
0.07761923
0.07745916
0.07782384
0.0787901
0
0
0
0
0
0
0
0
0.07700421
0.07638036
0.07619635
0.07650485
0.07737224
0
0
0
0
0
0
0
0
0
0.07575399
0.07513771
0.07493828
0.07520258
0.07598926
0
0
0
0
0
0
0
0
0
0
0.07443762
0.07383368
0.0736248
0.07385325
0.07457091
0
0
0
0
0
0
0
0
0
0
0.07309866
0.07251153
0.07229996
0.07250186
0.073164
0
0
0
0
0
0
0
0
0
0
0.07180992
0.07124326
0.07103455
0.07121892
0.0718384
0
0
0
0
0
0
0
0
0
0
0.07062022
0.07007601
0.06987489
0.07004884
0.07063695
0
0
0
0
0
0
0
0
0
0
0.06954992
0.06902913
0.06883846
0.06900793
0.06957329
0
0
0
0
0
0
0
0
0
0
0.1005539
0.1019725
0.09673728
0.09766931
0.09994637
0.09393172
0.09428027
0.09599952
0.09936136
0.09174299
0.09173531
0.09282653
0.09546333
0.1002021
0.08985491
0.08964236
0.0903342
0.09225184
0.0959594
0
0.08803482
0.08768317
0.08812242
0.08956063
0.09238253
0
0
0.08615126
0.08569914
0.08594382
0.08704623
0.0892483
0
0
0
0.08429796
0.08377286
0.08387658
0.08472797
0.08650942
0
0
0
0
0.08255494
0.08198209
0.0819825
0.08265383
0.08413021
0
0
0
0
0
0.08095681
0.08035427
0.08028218
0.08082013
0.08207767
0
0
0
0
0
0
0.07950501
0.07888696
0.07876374
0.07920405
0.08029731
0
0
0
0
0
0
0
0.07818298
0.07755945
0.07740153
0.07776867
0.07873796
0
0
0
0
0
0
0
0
0.0769592
0.07633785
0.07615693
0.07646937
0.0773419
0
0
0
0
0
0
0
0
0
0.07578492
0.07517141
0.07497628
0.07524682
0.07604233
0
0
0
0
0
0
0
0
0
0
0.07459459
0.07399352
0.07379036
0.07402802
0.07475926
0
0
0
0
0
0
0
0
0
0
0
0.07333428
0.07274899
0.07254239
0.07275304
0.07342851
0
0
0
0
0
0
0
0
0
0
0.07204485
0.07147902
0.07127381
0.07146476
0.07209457
0
0
0
0
0
0
0
0
0
0
0.07079814
0.07025413
0.070055
0.07023305
0.07082773
0
0
0
0
0
0
0
0
0
0
0.06964297
0.0691222
0.06893244
0.06910382
0.06967229
0
0
0
0
0
0
0
0
0
0
0.0686005
0.06810351
0.06792545
0.06809456
0.06864451
0
0
0
0
0
0
0
0
0
0
0.09642178
0.09729564
0.09943254
0.09342127
0.09370333
0.09530012
0.09836075
0.09114186
0.09107063
0.09205584
0.09449566
0.09872878
0.0892897
0.08902192
0.08962676
0.09139882
0.09482891
0
0.08764769
0.08725537
0.08763225
0.08897262
0.09162805
0
0
0.08602149
0.08554897
0.08576405
0.08682177
0.08895312
0
0
0
0.08431238
0.08377798
0.08386916
0.08470286
0.08645759
0
0
0
0
0.08261024
0.0820333
0.08202875
0.0826936
0.08416088
0
0
0
0
0
0.08099585
0.08039181
0.08031808
0.08085409
0.08210912
0
0
0
0
0
0
0.07950501
0.07888696
0.07876374
0.07920405
0.08029731
0
0
0
0
0
0
0
0.07814301
0.07752044
0.07736348
0.07773161
0.07870204
0
0
0
0
0
0
0
0
0.07689643
0.07627666
0.07609739
0.07641164
0.0772863
0
0
0
0
0
0
0
0
0
0.07573714
0.07512556
0.07493279
0.07520633
0.07600571
0
0
0
0
0
0
0
0
0
0
0.07461941
0.07402033
0.07382048
0.07406308
0.07480138
0
0
0
0
0
0
0
0
0
0
0
0.07348095
0.07289766
0.07269555
0.07291379
0.07360062
0
0
0
0
0
0
0
0
0
0
0
0
0.07226949
0.07170477
0.07150356
0.07170188
0.07234316
0
0
0
0
0
0
0
0
0
0
0.07102398
0.07048032
0.07028397
0.07046768
0.07107138
0
0
0
0
0
0
0
0
0
0
0.06981477
0.06929393
0.06910577
0.06928067
0.06985495
0
0
0
0
0
0
0
0
0
0
0.06869053
0.06819346
0.06801613
0.06818691
0.06873963
0
0
0
0
0
0
0
0
0
0
0.06767317
0.06719996
0.06703527
0.06720568
0.06774288
0
0
0
0
0
0
0
0
0
0
0.09315363
0.09340292
0.09493981
0.09785685
0.09069768
0.09058428
0.09149942
0.09381087
0.09772875
0.08876021
0.08844915
0.08898579
0.09064493
0.09386529
0
0.08714848
0.08671766
0.08703468
0.08828144
0.09078045
0
0
0.0856842
0.0851824
0.08535357
0.08634431
0.08837045
0
0
0
0.08420704
0.08365773
0.08372754
0.08453011
0.08623755
0
0
0
0
0.08263414
0.08205017
0.08203644
0.08268872
0.08413795
0
0
0
0
0
0.08105406
0.08044683
0.08036939
0.0809008
0.08214964
0
0
0
0
0
0
0.07954464
0.0789254
0.07880093
0.07923985
0.08033144
0
0
0
0
0
0
0
0.07814301
0.07752044
0.07736348
0.07773161
0.07870204
0
0
0
0
0
0
0
0
0.07685631
0.07623732
0.07605879
0.07637374
0.07724915
0
0
0
0
0
0
0
0
0
0.07567375
0.07506342
0.07487191
0.07514676
0.07594762
0
0
0
0
0
0
0
0
0
0
0.07456951
0.07397189
0.07377382
0.07401867
0.07475988
0
0
0
0
0
0
0
0
0
0
0
0.07350062
0.07291872
0.07271912
0.07294125
0.07363375
0
0
0
0
0
0
0
0
0
0
0
0
0.0724072
0.07184372
0.07164604
0.0718506
0.07250146
0
0
0
0
0
0
0
0
0
0
0
0
0
0.07123886
0.07069571
0.07050252
0.07069248
0.0713061
0
0
0
0
0
0
0
0
0
0
0.07003242
0.06951153
0.06932557
0.0695053
0.07008752
0
0
0
0
0
0
0
0
0
0
0.06885678
0.06835941
0.06818334
0.06835716
0.06891501
0
0
0
0
0
0
0
0
0
0
0.06776043
0.06728706
0.06712295
0.06729483
0.06783449
0
0
0
0
0
0
0
0
0
0
0.06676612
0.06631622
0.06616538
0.06633843
0.06686519
0
0
0
0
0
0
0
0
0
0
0.09046345
0.09032912
0.0912096
0.09345814
0.09722569
0.0883655
0.0880255
0.08851653
0.09010064
0.09318397
0
0.08667395
0.08621273
0.08648214
0.08765479
0.09003176
0
0
0.08523691
0.08470722
0.0848356
0.08576079
0.087685
0
0
0
0.08390924
0.08333843
0.08337599
0.08413067
0.08576536
0
0
0
0
0.08254819
0.08195306
0.08192352
0.08255313
0.08396921
0
0
0
0
0
0.08108529
0.08047269
0.08038835
0.08091059
0.08214666
0
0
0
0
0
0
0.07960494
0.07898319
0.0788559
0.07929147
0.08037877
0
0
0
0
0
0
0
0.07818298
0.07755945
0.07740153
0.07776867
0.07873796
0
0
0
0
0
0
0
0
0.07685631
0.07623732
0.07605879
0.07637374
0.07724915
0
0
0
0
0
0
0
0
0
0.07563364
0.07502395
0.07483299
0.07510833
0.07590966
0
0
0
0
0
0
0
0
0
0
0.0745058
0.07390916
0.07371203
0.07395781
0.07470001
0
0
0
0
0
0
0
0
0
0
0
0.07344912
0.07286829
0.07266999
0.07289379
0.07358845
0
0
0
0
0
0
0
0
0
0
0
0
0.07242257
0.07185997
0.07166414
0.07187174
0.07252715
0
0
0
0
0
0
0
0
0
0
0
0
0
0.07136873
0.07082623
0.07063573
0.07083085
0.07145255
0
0
0
0
0
0
0
0
0
0
0
0
0
0
0.07023858
0.06971772
0.06953422
0.06971923
0.07031008
0
0
0
0
0
0
0
0
0
0
0.06906702
0.06856928
0.06839492
0.06857289
0.06913771
0
0
0
0
0
0
0
0
0
0
0.06792162
0.06744777
0.06728463
0.06745914
0.06800337
0
0
0
0
0
0
0
0
0
0
0.06685086
0.06640071
0.06625033
0.06642466
0.06695364
0
0
0
0
0
0
0
0
0
0
0.06587751
0.06545066
0.06531366
0.06549036
0.06600863
0
0
0
0
0
0
0
0
0
0
0.0881564
0.08780195
0.08827023
0.08981712
0.09283319
0
0.08631753
0.08583591
0.08607317
0.08719591
0.08949144
0
0
0.08480616
0.08425434
0.0843483
0.0852207
0.08706354
0
0
0
0.0835038
0.08291243
0.08291814
0.08362501
0.08518732
0
0
0
0
0.08228243
0.08167118
0.08161741
0.08221128
0.0835747
0
0
0
0
0
0.08101497
0.08039393
0.08029761
0.08080292
0.08201467
0
0
0
0
0
0
0.07964191
0.07901599
0.07888347
0.07931219
0.08039023
0
0
0
0
0
0
0
0.07824475
0.07761923
0.07745916
0.07782384
0.0787901
0
0
0
0
0
0
0
0
0.07689643
0.07627666
0.07609739
0.07641164
0.0772863
0
0
0
0
0
0
0
0
0
0.07563364
0.07502395
0.07483299
0.07510833
0.07590966
0
0
0
0
0
0
0
0
0
0
0.07446582
0.07386968
0.07367298
0.07391908
0.07466154
0
0
0
0
0
0
0
0
0
0
0
0.07338534
0.07280527
0.07260765
0.07283207
0.07352734
0
0
0
0
0
0
0
0
0
0
0
0
0.0723699
0.07180804
0.07161314
0.07182192
0.0724789
0
0
0
0
0
0
0
0
0
0
0
0
0
0.07138051
0.07083845
0.07064925
0.07084672
0.07147206
0
0
0
0
0
0
0
0
0
0
0
0
0
0
0.0703616
0.06984087
0.06965937
0.0698486
0.07044633
0
0
0
0
0
0
0
0
0
0
0
0
0
0
0
0.06926538
0.06876726
0.06859476
0.06877719
0.06934954
0
0
0
0
0
0
0
0
0
0
0.06812515
0.06765065
0.06748882
0.06766687
0.06821727
0
0
0
0
0
0
0
0
0
0
0.06700744
0.06655664
0.06640699
0.0665836
0.06711665
0
0
0
0
0
0
0
0
0
0
0.06595992
0.06553275
0.06539611
0.06557393
0.0660942
0
0
0
0
0
0
0
0
0
0
0.06500582
0.06460156
0.06447858
0.06465942
0.06517077
0
0
0
0
0
0
0
0
0
0
0.086128
0.08563613
0.08585725
0.08695501
0.08921003
0
0
0.08448049
0.08391376
0.08398432
0.08482077
0.0866085
0
0
0
0.08310874
0.082501
0.08248084
0.08314867
0.08465209
0
0
0
0
0.08191152
0.08128481
0.08120682
0.08176434
0.08307411
0
0
0
0
0
0.08077564
0.08014241
0.08002745
0.08050541
0.08167736
0
0
0
0
0
0
0.07958437
0.07895202
0.0788103
0.07922605
0.08028578
0
0
0
0
0
0
0
0.07828623
0.07765748
0.07749338
0.07785289
0.07881228
0
0
0
0
0
0
0
0
0.0769592
0.07633785
0.07615693
0.07646937
0.0773419
0
0
0
0
0
0
0
0
0
0.07567375
0.07506342
0.07487191
0.07514676
0.07594762
0
0
0
0
0
0
0
0
0
0
0.07446582
0.07386968
0.07367298
0.07391908
0.07466154
0
0
0
0
0
0
0
0
0
0
0
0.07334558
0.07276592
0.07256859
0.07279322
0.07348858
0
0
0
0
0
0
0
0
0
0
0
0
0.07230625
0.07174496
0.07155052
0.07175968
0.07241696
0
0
0
0
0
0
0
0
0
0
0
0
0
0.07132704
0.07078545
0.07059685
0.07079511
0.07142152
0
0
0
0
0
0
0
0
0
0
0
0
0
0
0.0703704
0.06984975
0.06966909
0.06986007
0.0704607
0
0
0
0
0
0
0
0
0
0
0
0
0
0
0
0.0693824
0.06888398
0.0687129
0.06889877
0.06947694
0
0
0
0
0
0
0
0
0
0
0
0
0
0
0
0
0.0683165
0.06784128
0.06768082
0.06786263
0.06841961
0
0
0
0
0
0
0
0
0
0
0.06720489
0.06675319
0.0666045
0.06678415
0.06732266
0
0
0
0
0
0
0
0
0
0
0.06611228
0.06568433
0.06554819
0.06572799
0.0662519
0
0
0
0
0
0
0
0
0
0
0.0650861
0.06468145
0.06455873
0.06474056
0.06525371
0
0
0
0
0
0
0
0
0
0
0.06414975
0.06376754
0.06365855
0.06384415
0.06434959
0
0
0
0
0
0
0
0
0
0
0.08430675
0.08373251
0.08379125
0.08460959
0.08636964
0
0
0
0.08280833
0.08218953
0.08215169
0.08279269
0.08425575
0
0
0
0
0.08154622
0.08090717
0.08080934
0.08133681
0.08260225
0
0
0
0
0
0.08043366
0.07978873
0.07965491
0.08010457
0.08123505
0
0
0
0
0
0
0.07936716
0.07872552
0.07856929
0.07896359
0.0799924
0
0
0
0
0
0
0
0.07823923
0.07760557
0.07743435
0.07778379
0.07872903
0
0
0
0
0
0
0
0
0.07700421
0.07638036
0.07619635
0.07650485
0.07737224
0
0
0
0
0
0
0
0
0
0.07573714
0.07512556
0.07493279
0.07520633
0.07600571
0
0
0
0
0
0
0
0
0
0
0.0745058
0.07390916
0.07371203
0.07395781
0.07470001
0
0
0
0
0
0
0
0
0
0
0
0.07334558
0.07276592
0.07256859
0.07279322
0.07348858
0
0
0
0
0
0
0
0
0
0
0
0
0.07226679
0.07170582
0.07151159
0.07172083
0.0723781
0
0
0
0
0
0
0
0
0
0
0
0
0
0.07126369
0.0707225
0.07053419
0.07073263
0.0713591
0
0
0
0
0
0
0
0
0
0
0
0
0
0
0.07031644
0.06979602
0.06961569
0.06980714
0.07040845
0
0
0
0
0
0
0
0
0
0
0
0
0
0
0
0.06938874
0.06889009
0.06871946
0.0689066
0.06948703
0
0
0
0
0
0
0
0
0
0
0
0
0
0
0
0
0.06842824
0.06795237
0.06779283
0.06797741
0.06853934
0
0
0
0
0
0
0
0
0
0
0
0
0
0
0
0
0
0.06738996
0.06693724
0.06678948
0.0669723
0.06751657
0
0
0
0
0
0
0
0
0
0
0.06630419
0.06587516
0.06573965
0.06592206
0.06645082
0
0
0
0
0
0
0
0
0
0
0.06523461
0.06482905
0.06470666
0.06489017
0.0654066
0
0
0
0
0
0
0
0
0
0
0.06422805
0.06384542
0.06373659
0.06392306
0.06443013
0
0
0
0
0
0
0
0
0
0
0.0633088
0.06294742
0.06285225
0.06304303
0.06354366
0
0
0
0
0
0
0
0
0
0
0.08264761
0.08202322
0.0819764
0.08260381
0.08404645
0
0
0
0
0.08126697
0.08061959
0.08050812
0.08101482
0.08224956
0
0
0
0
0
0.08009352
0.07943925
0.07928988
0.07971588
0.08081163
0
0
0
0
0
0
0.07904976
0.07839921
0.07822813
0.07859984
0.0795958
0
0
0
0
0
0
0
0.07804072
0.0774
0.07721734
0.0775497
0.07847033
0
0
0
0
0
0
0
0
0.07696597
0.0763384
0.07614886
0.07644945
0.07730573
0
0
0
0
0
0
0
0
0
0.07578492
0.07517141
0.07497628
0.07524682
0.07604233
0
0
0
0
0
0
0
0
0
0
0.07456951
0.07397189
0.07377382
0.07401867
0.07475988
0
0
0
0
0
0
0
0
0
0
0
0.07338534
0.07280527
0.07260765
0.07283207
0.07352734
0
0
0
0
0
0
0
0
0
0
0
0
0.07226679
0.07170582
0.07151159
0.07172083
0.0723781
0
0
0
0
0
0
0
0
0
0
0
0
0
0.07122459
0.07068364
0.07049546
0.07069391
0.07132026
0
0
0
0
0
0
0
0
0
0
0
0
0
0
0.07025352
0.06973337
0.06955317
0.06974463
0.07034581
0
0
0
0
0
0
0
0
0
0
0
0
0
0
0
0.06933456
0.06883594
0.0686654
0.06885273
0.0694335
0
0
0
0
0
0
0
0
0
0
0
0
0
0
0
0
0.06843257
0.06795622
0.06779679
0.06798222
0.06854587
0
0
0
0
0
0
0
0
0
0
0
0
0
0
0
0
0
0.06749709
0.06704339
0.06689615
0.06708117
0.06762962
0
0
0
0
0
0
0
0
0
0
0
0
0
0
0
0
0
0
0.06648359
0.06605331
0.06591835
0.0661034
0.06663722
0
0
0
0
0
0
0
0
0
0
0.06542151
0.06501466
0.06489265
0.06507837
0.06559912
0
0
0
0
0
0
0
0
0
0
0.06437304
0.0639894
0.06388071
0.06406864
0.06457863
0
0
0
0
0
0
0
0
0
0
0.06338529
0.06302343
0.06292837
0.06311988
0.063622
0
0
0
0
0
0
0
0
0
0
0.06248163
0.0621408
0.06205861
0.06225479
0.06275148
0
0
0
0
0
0
0
0
0
0
0.08111722
0.08046561
0.08034719
0.08084329
0.08206242
0
0
0
0
0
0.07983228
0.0791717
0.07901159
0.07942113
0.08049265
0
0
0
0
0
0
0.0787312
0.07807355
0.07789012
0.07824278
0.07921086
0
0
0
0
0
0
0
0.07774443
0.07709695
0.07690244
0.07721652
0.07811045
0
0
0
0
0
0
0
0
0.07678342
0.07615052
0.07595191
0.07623871
0.07707507
0
0
0
0
0
0
0
0
0
0.07575399
0.07513771
0.07493828
0.07520258
0.07598926
0
0
0
0
0
0
0
0
0
0
0.07461941
0.07402033
0.07382048
0.07406308
0.07480138
0
0
0
0
0
0
0
0
0
0
0
0.07344912
0.07286829
0.07266999
0.07289379
0.07358845
0
0
0
0
0
0
0
0
0
0
0
0
0.07230625
0.07174496
0.07155052
0.07175968
0.07241696
0
0
0
0
0
0
0
0
0
0
0
0
0
0.07122459
0.07068364
0.07049546
0.07069391
0.07132026
0
0
0
0
0
0
0
0
0
0
0
0
0
0
0.07021484
0.06969487
0.06951473
0.06970612
0.0703071
0
0
0
0
0
0
0
0
0
0
0
0
0
0
0
0.06927218
0.06877372
0.06860319
0.06879037
0.06937086
0
0
0
0
0
0
0
0
0
0
0
0
0
0
0
0
0.06837838
0.06790189
0.06774236
0.06792775
0.06849146
0
0
0
0
0
0
0
0
0
0
0
0
0
0
0
0
0
0.06749981
0.06704539
0.06689799
0.0670835
0.06763322
0
0
0
0
0
0
0
0
0
0
0
0
0
0
0
0
0
0
0.06658665
0.06615516
0.06602033
0.06620711
0.06674447
0
0
0
0
0
0
0
0
0
0
0
0
0
0
0
0
0
0
0
0.06559585
0.06518748
0.06506572
0.06525362
0.06577882
0
0
0
0
0
0
0
0
0
0
0.06455535
0.06417029
0.06406171
0.06425152
0.06476536
0
0
0
0
0
0
0
0
0
0
0.06352706
0.06316409
0.06306903
0.06326177
0.06376652
0
0
0
0
0
0
0
0
0
0
0.06255643
0.0622151
0.06213294
0.06232977
0.06282779
0
0
0
0
0
0
0
0
0
0
0.06166863
0.06134643
0.06127728
0.06147841
0.06197181
0
0
0
0
0
0
0
0
0
0
0.07969189
0.07902809
0.07886249
0.0792636
0.08032271
0
0
0
0
0
0
0.07848547
0.07782303
0.07763105
0.07797037
0.07891888
0
0
0
0
0
0
0
0.07744456
0.0767917
0.07658728
0.07688578
0.07775683
0
0
0
0
0
0
0
0
0.07650542
0.07586744
0.07565931
0.0759311
0.07674544
0
0
0
0
0
0
0
0
0
0.07558517
0.07496491
0.07475828
0.07501135
0.07578166
0
0
0
0
0
0
0
0
0
0
0.07459459
0.07399352
0.07379036
0.07402802
0.07475926
0
0
0
0
0
0
0
0
0
0
0
0.07350062
0.07291872
0.07271912
0.07294125
0.07363375
0
0
0
0
0
0
0
0
0
0
0
0
0.0723699
0.07180804
0.07161314
0.07182192
0.0724789
0
0
0
0
0
0
0
0
0
0
0
0
0
0.07126369
0.0707225
0.07053419
0.07073263
0.0713591
0
0
0
0
0
0
0
0
0
0
0
0
0
0
0.07021484
0.06969487
0.06951473
0.06970612
0.0703071
0
0
0
0
0
0
0
0
0
0
0
0
0
0
0
0.06923396
0.06873562
0.06856509
0.06875214
0.06933236
0
0
0
0
0
0
0
0
0
0
0
0
0
0
0
0
0.06831666
0.06784022
0.06768058
0.06786571
0.068429
0
0
0
0
0
0
0
0
0
0
0
0
0
0
0
0
0
0.06744582
0.0669911
0.06684343
0.0670287
0.06757825
0
0
0
0
0
0
0
0
0
0
0
0
0
0
0
0
0
0
0.06658808
0.06615571
0.06602046
0.06620743
0.06674567
0
0
0
0
0
0
0
0
0
0
0
0
0
0
0
0
0
0
0
0.0656954
0.06528555
0.06516364
0.06535281
0.06588099
0
0
0
0
0
0
0
0
0
0
0
0
0
0
0
0
0
0
0
0
0.06472512
0.06433837
0.06422972
0.06442133
0.06493905
0
0
0
0
0
0
0
0
0
0
0.06370523
0.06334068
0.06324553
0.06343981
0.06394801
0
0
0
0
0
0
0
0
0
0
0.06269521
0.06235273
0.06227043
0.0624683
0.06296866
0
0
0
0
0
0
0
0
0
0
0.06174188
0.06141914
0.06134998
0.06155166
0.06204627
0
0
0
0
0
0
0
0
0
0
0.06086826
0.06056478
0.06050711
0.06071359
0.06120365
0
0
0
0
0
0
0
0
0
0
0.07835319
0.07768829
0.07749191
0.07782436
0.0787628
0
0
0
0
0
0
0
0.07721235
0.07655587
0.07634456
0.0766321
0.07748697
0
0
0
0
0
0
0
0
0.07622188
0.07557987
0.07536374
0.07562261
0.07641787
0
0
0
0
0
0
0
0
0
0.07532313
0.07469912
0.07448483
0.07472544
0.07547731
0
0
0
0
0
0
0
0
0
0
0.07443762
0.07383368
0.0736248
0.07385325
0.07457091
0
0
0
0
0
0
0
0
0
0
0.07348095
0.07289766
0.07269556
0.07291379
0.07360062
0
0
0
0
0
0
0
0
0
0
0
0
0.07242257
0.07185997
0.07166414
0.07187174
0.07252715
0
0
0
0
0
0
0
0
0
0
0
0
0
0.07132704
0.07078545
0.07059685
0.07079511
0.07142152
0
0
0
0
0
0
0
0
0
0
0
0
0
0
0.07025352
0.06973337
0.06955317
0.06974463
0.07034581
0
0
0
0
0
0
0
0
0
0
0
0
0
0
0
0.06923396
0.06873562
0.06856509
0.06875214
0.06933236
0
0
0
0
0
0
0
0
0
0
0
0
0
0
0
0
0.06827893
0.06780256
0.06764287
0.06782782
0.06839079
0
0
0
0
0
0
0
0
0
0
0
0
0
0
0
0
0
0.06738483
0.06693007
0.0667822
0.0669671
0.06751612
0
0
0
0
0
0
0
0
0
0
0
0
0
0
0
0
0
0
0.06653442
0.06610165
0.06596598
0.06615254
0.0666904
0
0
0
0
0
0
0
0
0
0
0
0
0
0
0
0
0
0
0
0.06569589
0.06528494
0.06516243
0.06535152
0.06588025
0
0
0
0
0
0
0
0
0
0
0
0
0
0
0
0
0
0
0
0
0.0648216
0.06443319
0.06432406
0.06451661
0.06503679
0
0
0
0
0
0
0
0
0
0
0
0
0
0
0
0
0
0
0
0
0.06387092
0.06350448
0.06340903
0.06360472
0.06411633
0
0
0
0
0
0
0
0
0
0
0.06286956
0.06252543
0.06244282
0.06264199
0.06314538
0
0
0
0
0
0
0
0
0
0
0.06187794
0.06155396
0.06148457
0.0616871
0.06218383
0
0
0
0
0
0
0
0
0
0
0.06094005
0.06063602
0.06057827
0.06078525
0.0612764
0
0
0
0
0
0
0
0
0
0
0.06008206
0.0597944
0.05974859
0.05995922
0.0604467
0
0
0
0
0
0
0
0
0
0
0.07708716
0.0764288
0.07621392
0.07649579
0.07734231
0
0
0
0
0
0
0
0
0.07600153
0.07535682
0.07513509
0.07538484
0.07616654
0
0
0
0
0
0
0
0
0
0.07505398
0.074427
0.07420621
0.07443602
0.07517175
0
0
0
0
0
0
0
0
0
0
0.0741896
0.07358298
0.07336791
0.07358596
0.074288
0
0
0
0
0
0
0
0
0
0
0.07333428
0.07274899
0.07254239
0.07275304
0.07342851
0
0
0
0
0
0
0
0
0
0
0.0724072
0.07184372
0.07164604
0.0718506
0.07250146
0
0
0
0
0
0
0
0
0
0
0
0
0
0.07138051
0.07083845
0.07064925
0.07084672
0.07147206
0
0
0
0
0
0
0
0
0
0
0
0
0
0
0.07031644
0.06979602
0.06961569
0.06980714
0.07040845
0
0
0
0
0
0
0
0
0
0
0
0
0
0
0
0.06927218
0.06877372
0.06860319
0.06879037
0.06937086
0
0
0
0
0
0
0
0
0
0
0
0
0
0
0
0
0.06827893
0.06780256
0.06764287
0.06782782
0.06839079
0
0
0
0
0
0
0
0
0
0
0
0
0
0
0
0
0
0.06734762
0.06689289
0.06674492
0.0669296
0.06747826
0
0
0
0
0
0
0
0
0
0
0
0
0
0
0
0
0
0
0.06647422
0.06604133
0.06590538
0.06609149
0.06662872
0
0
0
0
0
0
0
0
0
0
0
0
0
0
0
0
0
0
0
0.06564275
0.06523125
0.06510821
0.06529673
0.06582492
0
0
0
0
0
0
0
0
0
0
0
0
0
0
0
0
0
0
0
0
0.06482139
0.06443175
0.0643218
0.06451406
0.06503449
0
0
0
0
0
0
0
0
0
0
0
0
0
0
0
0
0
0
0
0
0.06396476
0.06359645
0.0635003
0.06369655
0.06421024
0
0
0
0
0
0
0
0
0
0
0
0
0
0
0
0
0
0
0
0
0.0630315
0.06268542
0.06260225
0.06280253
0.06330887
0
0
0
0
0
0
0
0
0
0
0.06204882
0.06172306
0.06165327
0.06185681
0.06235625
0
0
0
0
0
0
0
0
0
0
0.06107356
0.06076829
0.06071019
0.06091789
0.06141091
0
0
0
0
0
0
0
0
0
0
0.06015252
0.05986426
0.05981835
0.06002939
0.06051788
0
0
0
0
0
0
0
0
0
0
0.05930785
0.05903684
0.05900034
0.05921582
0.05969988
0
0
0
0
0
0
0
0
0
0
0.07588257
0.07523645
0.07501181
0.07525681
0.07603148
0
0
0
0
0
0
0
0
0
0.07484411
0.07421515
0.07398981
0.07421195
0.07493616
0
0
0
0
0
0
0
0
0
0
0.07393318
0.07332446
0.0731041
0.07331304
0.07400129
0
0
0
0
0
0
0
0
0
0
0.07309866
0.07251153
0.07229996
0.07250186
0.073164
0
0
0
0
0
0
0
0
0
0
0.07226949
0.07170477
0.07150356
0.07170188
0.07234316
0
0
0
0
0
0
0
0
0
0
0.07136873
0.07082623
0.07063573
0.07083085
0.07145255
0
0
0
0
0
0
0
0
0
0
0
0
0
0
0.0703704
0.06984975
0.06966909
0.06986007
0.0704607
0
0
0
0
0
0
0
0
0
0
0
0
0
0
0
0.06933456
0.06883594
0.0686654
0.06885273
0.0694335
0
0
0
0
0
0
0
0
0
0
0
0
0
0
0
0
0.06831666
0.06784022
0.06768058
0.06786571
0.068429
0
0
0
0
0
0
0
0
0
0
0
0
0
0
0
0
0
0.06734762
0.06689289
0.06674492
0.0669296
0.06747826
0
0
0
0
0
0
0
0
0
0
0
0
0
0
0
0
0
0
0.06643755
0.06600466
0.06586857
0.06605442
0.06659126
0
0
0
0
0
0
0
0
0
0
0
0
0
0
0
0
0
0
0
0.06558341
0.06517172
0.06504833
0.06523632
0.06576381
0
0
0
0
0
0
0
0
0
0
0
0
0
0
0
0
0
0
0
0